LAMMPS (29 Sep 2021 - Update 2)
#RDF

units		lj
boundary	p p p
atom_style	atomic

lattice		fcc ${rho}
lattice		fcc 0.7
Lattice spacing in x,y,z = 1.7878071 1.7878071 1.7878071
region		box block 0 6 0 6 0 6
create_box	1 box
Created orthogonal box = (0.0000000 0.0000000 0.0000000) to (10.726842 10.726842 10.726842)
  1 by 2 by 2 MPI processor grid
create_atoms	1 box
Created 864 atoms
  using lattice units in orthogonal box = (0.0000000 0.0000000 0.0000000) to (10.726842 10.726842 10.726842)
  create_atoms CPU = 0.002 seconds
mass		1 1.0

velocity	all create $T 87287 loop geom mom yes rot yes
velocity	all create 1 87287 loop geom mom yes rot yes
reset_timestep	0
timestep	0.001
pair_style	lj/cut 2.5
pair_coeff	1 1 1.0 1.0 2.5

neighbor	0.3 bin
neigh_modify	every 20 delay 0 check no
thermo		100

#Equilibration

fix		thermos all nvt temp $T $T 1.0
fix		thermos all nvt temp 1 $T 1.0
fix		thermos all nvt temp 1 1 1.0
run		50000
Neighbor list info ...
  update every 20 steps, delay 0 steps, check no
  max neighbors/atom: 2000, page size: 100000
  master list distance cutoff = 2.8
  ghost atom cutoff = 2.8
  binsize = 1.4, bins = 8 8 8
  1 neighbor lists, perpetual/occasional/extra = 1 0 0
  (1) pair lj/cut, perpetual
      attributes: half, newton on
      pair build: half/bin/atomonly/newton
      stencil: half/bin/3d
      bin: standard
Per MPI rank memory allocation (min/avg/max) = 2.626 | 2.626 | 2.626 Mbytes
Step Temp E_pair E_mol TotEng Press 
       0            1   -5.2272486            0   -3.7289847   -4.5808285 
     100   0.71513491   -4.8375807            0   -3.7661199   -1.9975966 
     200   0.66648696    -4.756809            0   -3.7582357  -0.93167675 
     300   0.67348482   -4.7528426            0   -3.7437847  -0.79211397 
     400   0.67977711   -4.7447968            0   -3.7263113  -0.73965211 
     500   0.71065023   -4.7714706            0    -3.706729  -0.78171617 
     600   0.68766062   -4.7203973            0   -3.6901003  -0.56457957 
     700   0.69746837   -4.7179865            0   -3.6729948  -0.54236663 
     800   0.72224577   -4.7387381            0   -3.6566234  -0.56684048 
     900   0.70754899   -4.7011015            0   -3.6410063  -0.36707372 
    1000   0.71963838   -4.7008027            0   -3.6225945  -0.34795576 
    1100   0.72843403   -4.6936958            0   -3.6023094   -0.3064612 
    1200   0.75869376    -4.716962            0   -3.5802386  -0.40814376 
    1300   0.74630627   -4.6766921            0   -3.5585283  -0.22968188 
    1400   0.77550711   -4.7002396            0   -3.5383253  -0.33355985 
    1500   0.77658253   -4.6783171            0   -3.5147915  -0.22257789 
    1600   0.76520462   -4.6390927            0   -3.4926142 -0.075431617 
    1700   0.78770235   -4.6484323            0   -3.4682463  -0.07183286 
    1800   0.81641585   -4.6677578            0   -3.4445514 -0.074541633 
    1900   0.82132687   -4.6529167            0   -3.4223523  -0.10854553 
    2000   0.84215253    -4.659949            0   -3.3981822   -0.1142185 
    2100   0.84044468   -4.6341985            0   -3.3749906 0.0020885169 
    2200   0.86892254   -4.6514498            0   -3.3495745  -0.06228683 
    2300   0.82875135   -4.5682191            0   -3.3265309   0.31072386 
    2400   0.85965398    -4.591369            0   -3.3033805   0.23565041 
    2500   0.88013898   -4.5984506            0   -3.2797701   0.15656853 
    2600   0.90209463   -4.6082116            0   -3.2566358   0.11306545 
    2700   0.87715868   -4.5487219            0   -3.2345067   0.34398504 
    2800   0.91319655   -4.5807086            0   -3.2124991   0.17584098 
    2900   0.94584278   -4.6064171            0    -3.189295   0.07517147 
    3000   0.91617194    -4.540444            0   -3.1677766   0.33603051 
    3100   0.94157364   -4.5556364            0   -3.1449106   0.34626313 
    3200    0.9628169   -4.5670362            0   -3.1244824   0.33805264 
    3300   0.92718075   -4.4935374            0   -3.1043759    0.6249748 
    3400   0.95450048   -4.5126768            0   -3.0825832   0.56645411 
    3500   0.96575693   -4.5098142            0   -3.0628555   0.56680914 
    3600   0.97334539   -4.5035487            0   -3.0452204   0.65702851 
    3700    1.0038033   -4.5304295            0   -3.0264672   0.62992222 
    3800    1.0177016   -4.5354973            0   -3.0107118   0.50299341 
    3900   0.99922554   -4.4904502            0   -2.9933466   0.58398891 
    4000    1.0250305   -4.5137601            0   -2.9779939   0.49941083 
    4100    1.0221382   -4.4948796            0   -2.9634468   0.58505813 
    4200    1.0288351   -4.4926357            0   -2.9511692   0.62198556 
    4300     1.022963   -4.4737273            0   -2.9410587   0.64885082 
    4400    1.0586188   -4.5165569            0   -2.9304667   0.49578642 
    4500    1.0527625   -4.5000229            0   -2.9227068   0.54413766 
    4600    1.0445761   -4.4789892            0   -2.9139386   0.63694601 
    4700    1.0674705   -4.5078985            0    -2.908546   0.57830124 
    4800    1.0609549   -4.4935525            0   -2.9039622   0.66259415 
    4900    1.0616607   -4.4940663            0   -2.9034184    0.6391975 
    5000    1.0665794   -4.5029663            0   -2.9049488   0.58137902 
    5100    1.0362855   -4.4614279            0   -2.9087988   0.70278896 
    5200    1.0572578   -4.4972901            0    -2.913239   0.65188029 
    5300    1.0296463   -4.4597833            0   -2.9171015   0.81528235 
    5400     1.066505   -4.5221353            0   -2.9242294   0.53813227 
    5500    1.0367618   -4.4866834            0   -2.9333407   0.70548532 
    5600    1.0197449   -4.4725605            0   -2.9447135   0.79153148 
    5700    1.0510499   -4.5308212            0   -2.9560711   0.54541245 
    5800    1.0200959   -4.4969128            0     -2.96854   0.62621152 
    5900    1.0099831    -4.493963            0   -2.9807418   0.64475419 
    6000     1.019156   -4.5218419            0   -2.9948773   0.57343982 
    6100    1.0084619   -4.5180584            0   -3.0071163    0.6284599 
    6200   0.99703152   -4.5117968            0   -3.0179805   0.60389382 
    6300   0.97290171   -4.4892256            0   -3.0315621   0.65799729 
    6400     1.012954   -4.5604893            0    -3.042817   0.40276028 
    6500   0.97026361   -4.5060569            0    -3.052346   0.53375354 
    6600   0.97868184   -4.5291139            0   -3.0627903   0.39864896 
    6700   0.96426461   -4.5170216            0   -3.0722988   0.40142845 
    6800   0.96547388   -4.5258528            0   -3.0793182   0.39453844 
    6900   0.95607169   -4.5178826            0   -3.0854349   0.48330693 
    7000   0.97596024   -4.5550967            0   -3.0928507   0.34857344 
    7100   0.97064605   -4.5520254            0   -3.0977414   0.38884909 
    7200   0.94439647   -4.5151128            0   -3.1001576   0.50794048 
    7300   0.96368993   -4.5468047            0   -3.1029428   0.31808288 
    7400   0.95056029   -4.5284854            0   -3.1042953   0.38489174 
    7500   0.95665349   -4.5362997            0   -3.1029803   0.42999122 
    7600   0.94542465   -4.5168349            0   -3.1003393   0.52428221 
    7700   0.96103614   -4.5366742            0   -3.0967885   0.36521246 
    7800   0.96973435   -4.5445491            0   -3.0916311   0.28529043 
    7900   0.94463849   -4.5010457            0    -3.085728   0.51183964 
    8000   0.98703205   -4.5580082            0   -3.0791737   0.40209298 
    8100   0.97230758   -4.5277203            0    -3.070947   0.49816232 
    8200    1.0057905   -4.5696492            0   -3.0627096   0.31082907 
    8300   0.99088624   -4.5392109            0   -3.0546018   0.36111487 
    8400   0.97765585   -4.5090364            0   -3.0442499   0.46166993 
    8500   0.99258779   -4.5216599            0   -3.0345015   0.45342639 
    8600   0.97601566   -4.4866785            0   -3.0243495   0.62144648 
    8700   0.96281938   -4.4577253            0   -3.0151678   0.83113794 
    8800   0.99892259   -4.5020191            0   -3.0053695   0.66161446 
    8900    0.9937383   -4.4834462            0    -2.994564   0.73554582 
    9000    1.0531872   -4.5634522            0   -2.9854998   0.40216853 
    9100     1.012637   -4.4939714            0    -2.976774   0.63762286 
    9200    1.0362319   -4.5201804            0   -2.9676316   0.58889624 
    9300    1.0089313   -4.4718304            0    -2.960185   0.73504838 
    9400    1.0424453   -4.5150682            0     -2.95321   0.54622714 
    9500    1.0005753   -4.4465811            0   -2.9474552   0.85322358 
    9600     1.054331   -4.5218147            0   -2.9421486   0.60091303 
    9700    1.0284528   -4.4792097            0    -2.938316   0.72066011 
    9800     1.039193   -4.4928043            0   -2.9358189   0.57829978 
    9900    1.0357549   -4.4862301            0    -2.934396   0.63037976 
   10000     1.017933   -4.4588305            0   -2.9336982   0.77573549 
   10100    1.0630533   -4.5291906            0   -2.9364562   0.49867598 
   10200    1.0267329   -4.4756891            0   -2.9373723   0.71425451 
   10300    1.0045002   -4.4460623            0   -2.9410559   0.87591954 
   10400    1.0438851   -4.5081599            0   -2.9441446   0.60122732 
   10500    1.0358507   -4.5018909            0   -2.9499132   0.59241567 
   10600    1.0300631   -4.4991226            0   -2.9558163   0.64455253 
   10700    1.0390054    -4.519599            0   -2.9628948    0.6200498 
   10800   0.98938589   -4.4535726            0   -2.9712114   0.80521088 
   10900    1.0235533   -4.5117663            0   -2.9782133   0.56160642 
   11000     1.025702   -4.5235802            0    -2.986808   0.51535682 
   11100    1.0141004   -4.5155611            0   -2.9961711    0.4485093 
   11200    1.0097801   -4.5172731            0   -3.0043559   0.45495666 
   11300   0.98876146   -4.4945368            0   -3.0131112   0.54992634 
   11400   0.99660929   -4.5143222            0   -3.0211385   0.52064038 
   11500   0.98385426   -4.5041621            0   -3.0300888   0.47995232 
   11600   0.97396696   -4.4972895            0     -3.03803   0.53115301 
   11700   0.97823484   -4.5120155            0   -3.0463616   0.53971225 
   11800   0.98650054   -4.5304944            0   -3.0524563    0.4818592 
   11900   0.96761949    -4.508347            0   -3.0585977   0.57027632 
   12000   0.99291596   -4.5519891            0    -3.064339   0.49316154 
   12100   0.99887412   -4.5668172            0   -3.0702402   0.48432984 
   12200    1.0005479   -4.5743766            0   -3.0752918   0.45074506 
   12300   0.96982091   -4.5349845            0   -3.0819368   0.49756567 
   12400   0.95232709   -4.5129746            0   -3.0861373   0.50923715 
   12500   0.96733718   -4.5379363            0     -3.08861   0.41779355 
   12600   0.98575499   -4.5676753            0   -3.0907542    0.3516507 
   12700   0.96622692   -4.5393767            0   -3.0917138    0.4612452 
   12800   0.97085101   -4.5462967            0   -3.0917057   0.41241113 
   12900   0.97282889   -4.5486066            0   -3.0910522   0.34191441 
   13000   0.95232489    -4.517478            0    -3.090644   0.45775367 
   13100   0.95922565   -4.5258311            0   -3.0886579   0.46647226 
   13200   0.96323115   -4.5272427            0   -3.0840682   0.43283872 
   13300   0.94525057   -4.4966911            0   -3.0804563   0.54081467 
   13400     0.975275   -4.5343119            0   -3.0730926   0.40707373 
   13500   0.98511373   -4.5423354            0   -3.0663751    0.4871537 
   13600   0.96157415   -4.4991021            0   -3.0584103   0.63371767 
   13700   0.99006482   -4.5331328            0   -3.0497545   0.50802426 
   13800   0.98130237   -4.5101274            0   -3.0398775   0.59964289 
   13900   0.99084433   -4.5156632            0   -3.0311169   0.59774206 
   14000    1.0309155   -4.5697665            0    -3.025183    0.3110586 
   14100    1.0219491   -4.5465722            0   -3.0154227   0.38084987 
   14200   0.99210854   -4.4930075            0   -3.0065671   0.58174283 
   14300    1.0196465   -4.5275425            0   -2.9998429   0.40608711 
   14400    1.0440802    -4.556944            0   -2.9926364   0.32174354 
   14500    1.0292723   -4.5300544            0   -2.9879329    0.4672465 
   14600   0.99865324   -4.4787717            0   -2.9825256     0.692271 
   14700     1.020119   -4.5056764            0   -2.9772689   0.61033939 
   14800    1.0293054   -4.5145693            0   -2.9723982    0.5629509 
   14900    1.0075324   -4.4792651            0   -2.9697156   0.75134694 
   15000     1.008393   -4.4780489            0   -2.9672101   0.79111131 
   15100    1.0385202   -4.5218303            0    -2.965853   0.64257469 
   15200    1.0440983   -4.5287785            0   -2.9644436   0.54831375 
   15300    1.0227126   -4.4974424            0   -2.9651491   0.66817373 
   15400    1.0064509   -4.4737904            0   -2.9658614   0.81218696 
   15500    1.0477805   -4.5372961            0   -2.9674444   0.55167023 
   15600    1.0330606   -4.5192108            0   -2.9714134   0.51303897 
   15700    1.0385757   -4.5327033            0   -2.9766428   0.35925477 
   15800   0.99435071   -4.4705171            0   -2.9807174   0.57553174 
   15900    1.0085993   -4.4975721            0   -2.9864243   0.45484829 
   16000    1.0269879   -4.5305364            0   -2.9918376   0.38845039 
   16100    1.0090033   -4.5103511            0   -2.9985979    0.4807959 
   16200   0.98764884   -4.4850614            0   -3.0053028   0.59940281 
   16300    1.0027752   -4.5162931            0   -3.0138712   0.49655082 
   16400    1.0251732    -4.556353            0    -3.020373   0.34581553 
   16500   0.99441399   -4.5162167            0   -3.0263221   0.51687067 
   16600    1.0091352   -4.5467249            0    -3.034774   0.37669317 
   16700   0.99843878   -4.5367488            0   -3.0408241   0.36915774 
   16800   0.98806943   -4.5289058            0   -3.0485171   0.40837168 
   16900    0.9929286   -4.5430808            0   -3.0554117   0.33921602 
   17000   0.98201923    -4.533368            0    -3.062044   0.35746052 
   17100   0.98766484   -4.5477814            0   -3.0679989   0.24856932 
   17200   0.95892342   -4.5089419            0   -3.0722216   0.43959247 
   17300   0.95176022   -4.5019927            0   -3.0760047   0.56377721 
   17400   0.93690591   -4.4803267            0   -3.0765944   0.60458633 
   17500   0.99006457   -4.5628853            0   -3.0795073   0.24146809 
   17600    0.9670769   -4.5285462            0   -3.0796098   0.39361594 
   17700   0.97395448   -4.5384534            0   -3.0792126   0.40063338 
   17800   0.97183995   -4.5340345            0   -3.0779618    0.4652286 
   17900   0.95547528   -4.5083212            0   -3.0767671   0.49918276 
   18000    0.9876752   -4.5550799            0   -3.0752818   0.37415284 
   18100   0.96152152   -4.5121328            0   -3.0715198   0.56730032 
   18200   0.97860126   -4.5327851            0   -3.0665822   0.46580042 
   18300   0.98956611   -4.5429329            0   -3.0603017   0.44665615 
   18400   0.96371751    -4.497892            0   -3.0539889   0.65536434 
   18500   0.98578119    -4.522757            0   -3.0457967   0.54721037 
   18600   0.97392015   -4.4969131            0   -3.0377237   0.61867706 
   18700   0.97098852   -4.4829384            0   -3.0281413   0.73008341 
   18800    1.0092953   -4.5284059            0   -3.0162151   0.56186694 
   18900   0.99758165   -4.4990549            0   -3.0044144   0.62461318 
   19000    1.0339737   -4.5427052            0   -2.9935398   0.47413353 
   19100    1.0463698   -4.5511577            0   -2.9834196   0.42849233 
   19200    1.0358519   -4.5258509            0   -2.9738713   0.52127609 
   19300    1.0354603   -4.5181915            0   -2.9667987   0.60179542 
   19400    1.0065105   -4.4687945            0   -2.9607761   0.75655066 
   19500    1.0268731   -4.4953793            0   -2.9568524   0.67016328 
   19600    1.0317047   -4.4999422            0   -2.9541764   0.68964108 
   19700    1.0377863   -4.5082846            0   -2.9534069   0.65491291 
   19800    1.0470517    -4.522352            0   -2.9535923   0.64906041 
   19900    1.0255323   -4.4910372            0   -2.9545192   0.77204918 
   20000    1.0592478   -4.5446916            0   -2.9576588   0.52734728 
   20100    1.0273458   -4.4994167            0   -2.9601816    0.6488582 
   20200    1.0465857   -4.5311909            0   -2.9631294   0.49585104 
   20300    1.0259937   -4.5060649            0   -2.9688556    0.6126419 
   20400    1.0183322   -4.4989258            0   -2.9731954   0.59719571 
   20500    1.0356034   -4.5294757            0   -2.9778686   0.59868153 
   20600    1.0186503   -4.5098096            0   -2.9836026    0.6634216 
   20700    1.0146114   -4.5081245            0   -2.9879689   0.58275184 
   20800    1.0015725    -4.493457            0   -2.9928371   0.58499958 
   20900    1.0122371   -4.5135827            0   -2.9969843   0.51829193 
   21000   0.99137334   -4.4861125            0   -3.0007736   0.60028762 
   21100   0.98831028   -4.4854178            0   -3.0046682   0.61632144 
   21200    1.0214862   -4.5403202            0   -3.0098643   0.38950064 
   21300    1.0332933   -4.5619604            0   -3.0138143   0.29149258 
   21400    1.0084018   -4.5273859            0   -3.0165339   0.42205976 
   21500    1.0043336   -4.5244959            0   -3.0197392   0.47142571 
   21600   0.99390836   -4.5100988            0   -3.0209618   0.54069944 
   21700   0.99160517   -4.5091251            0   -3.0234389   0.54218327 
   21800    1.0117183   -4.5424803            0   -3.0266594   0.42339373 
   21900   0.98294249   -4.5008552            0    -3.028148   0.54830685 
   22000     1.014491   -4.5499423            0   -3.0299671    0.3222412 
   22100   0.97042206   -4.4864488            0   -3.0325005   0.57927787 
   22200   0.97786481   -4.4981605            0    -3.033061   0.60468431 
   22300   0.95885135   -4.4688845            0   -3.0322721   0.66298873 
   22400   0.99450059   -4.5225368            0   -3.0325125   0.46229793 
   22500   0.98757603   -4.5120513            0   -3.0324018   0.52568315 
   22600    0.9866601   -4.5109759            0   -3.0326987   0.58586936 
   22700   0.98508091   -4.5071684            0   -3.0312573    0.6328029 
   22800    1.0039177   -4.5318983            0   -3.0277646   0.47708983 
   22900   0.98657236   -4.5043002            0   -3.0261544   0.49030138 
   23000    1.0104721   -4.5368729            0    -3.022919   0.33140141 
   23100    1.0063933   -4.5277816            0   -3.0199389   0.35818254 
   23200   0.99049737   -4.5031113            0   -3.0190849   0.49078735 
   23300   0.99314442   -4.5048577            0   -3.0168653   0.51837086 
   23400    1.0182738    -4.538284            0   -3.0126412   0.41607789 
   23500    0.9985142   -4.5052199            0   -3.0091822   0.63127301 
   23600    1.0027982   -4.5079912            0   -3.0055348   0.65822585 
   23700   0.99566539   -4.4933561            0   -3.0015866   0.65951822 
   23800    1.0106962   -4.5114798            0   -2.9971902     0.619462 
   23900    1.0303164   -4.5358035            0   -2.9921177   0.47889228 
   24000    1.0044414   -4.4898865            0   -2.9849682   0.67186846 
   24100    1.0390724     -4.53567            0   -2.9788653   0.46603762 
   24200    1.0073538    -4.481421            0   -2.9721392   0.65834397 
   24300    1.0046817   -4.4703901            0   -2.9651118   0.68793148 
   24400    1.0326219   -4.5033945            0   -2.9562544   0.59313943 
   24500    1.0320697   -4.4932203            0   -2.9469076    0.6804343 
   24600    1.0267109   -4.4753472            0   -2.9370633   0.66573932 
   24700    1.0567917   -4.5127173            0   -2.9293644   0.51263542 
   24800    1.0329316   -4.4692125            0   -2.9216083   0.61022163 
   24900    1.0593494    -4.501616            0   -2.9144311   0.52947102 
   25000    1.0301592     -4.45364            0   -2.9101897   0.74398935 
   25100     1.030986   -4.4494523            0   -2.9047633   0.77631914 
   25200    1.0620728   -4.4921646            0   -2.9008994   0.73752626 
   25300      1.05756   -4.4854604            0   -2.9009564   0.73073279 
   25400    1.0626121   -4.4922398            0   -2.9001665    0.6366314 
   25500    1.0451161   -4.4674273            0   -2.9015677   0.71234786 
   25600    1.0597116   -4.4916762            0   -2.9039485    0.6420128 
   25700    1.0824773    -4.532494            0   -2.9106574   0.60299054 
   25800    1.0154947    -4.440037            0    -2.918558   0.91521651 
   25900    1.0212196   -4.4581596            0   -2.9281032   0.78053068 
   26000    1.0450537   -4.5060795            0   -2.9403133   0.60097874 
   26100    1.0574955   -4.5390077            0   -2.9546003   0.43489792 
   26200    1.0139371   -4.4867469            0   -2.9676016   0.58097466 
   26300    1.0024584   -4.4830179            0   -2.9810707   0.60542894 
   26400     1.028155   -4.5334278            0   -2.9929802   0.41946748 
   26500   0.98969829   -4.4872692            0     -3.00444   0.61137338 
   26600    1.0183866   -4.5390232            0   -3.0132114   0.36495266 
   26700    1.0044029   -4.5264382            0   -3.0215776   0.41325391 
   26800    1.0036799   -4.5335618            0   -3.0297844    0.4547895 
   26900   0.97002095   -4.4893567            0   -3.0360093   0.62475566 
   27000   0.99342404   -4.5293111            0   -3.0408997   0.42094412 
   27100    1.0032085   -4.5477177            0   -3.0446466   0.39074599 
   27200   0.99335821   -4.5364578            0   -3.0481451   0.49603812 
   27300    1.0184734   -4.5772702            0   -3.0513283   0.33633558 
   27400   0.97705323   -4.5178837            0   -3.0540002   0.53528982 
   27500   0.99794337   -4.5517312            0   -3.0565487   0.34157168 
   27600   0.97522327   -4.5190088            0    -3.057867   0.39339806 
   27700     0.971157   -4.5124851            0   -3.0574357   0.47356065 
   27800   0.98713009   -4.5366793            0    -3.057698   0.46140133 
   27900   0.95149243   -4.4839324            0   -3.0583456   0.64377823 
   28000   0.96100943   -4.4969693            0   -3.0571236    0.5372951 
   28100   0.97752229   -4.5193129            0   -3.0547266     0.448205 
   28200   0.96772806   -4.5019952            0   -3.0520832   0.52046703 
   28300   0.97479893   -4.5098571            0    -3.049351   0.42418971 
   28400    0.9916815   -4.5318292            0   -3.0460286   0.33556137 
   28500   0.97505346   -4.5033837            0   -3.0424963   0.41071065 
   28600      1.01027   -4.5518541            0   -3.0382031   0.30462385 
   28700   0.98427047   -4.5071159            0    -3.032419   0.44893453 
   28800   0.97625484   -4.4877477            0   -3.0250603   0.50019499 
   28900    1.0045697   -4.5231057            0   -3.0179951   0.40159761 
   29000    1.0053366   -4.5163643            0   -3.0101049   0.49598539 
   29100    1.0085638   -4.5144683            0   -3.0033737   0.51487159 
   29200   0.98495594   -4.4705913            0   -2.9948674   0.71074107 
   29300    1.0477431   -4.5572671            0   -2.9874715   0.37526321 
   29400    1.0235217   -4.5130555            0   -2.9795499   0.54233314 
   29500    1.0301219    -4.517407            0   -2.9740126   0.61590711 
   29600     0.989562   -4.4502826            0   -2.9676576   0.85711937 
   29700     1.011915   -4.4798745            0   -2.9637588   0.73264195 
   29800    1.0555008   -4.5413223            0   -2.9599036   0.45055361 
   29900     1.016654    -4.478656            0   -2.9554401   0.65579699 
   30000    1.0291455   -4.4926896            0    -2.950758   0.65551247 
   30100    1.0368224   -4.5022733            0   -2.9488398   0.65987196 
   30200    1.0167832   -4.4712918            0   -2.9478822   0.74643313 
   30300    1.0551293   -4.5270084            0   -2.9461462   0.49668248 
   30400    1.0054891   -4.4546018            0   -2.9481138   0.78724459 
   30500    1.0562729   -4.5314144            0   -2.9488388   0.44751663 
   30600    1.0211278   -4.4812433            0   -2.9513244   0.64618374 
   30700    1.0166779   -4.4786671            0   -2.9554154   0.67479794 
   30800    1.0212144   -4.4915673            0   -2.9615187   0.60104663 
   30900    1.0219584   -4.5011939            0   -2.9700306   0.61709751 
   31000    1.0080843   -4.4907759            0   -2.9803996   0.70898254 
   31100    1.0211717   -4.5239408            0    -2.993956   0.54755397 
   31200   0.99414349   -4.4994147            0   -3.0099254   0.59247125 
   31300   0.98783924   -4.5067981            0   -3.0267542   0.51996876 
   31400   0.99055526   -4.5260798            0   -3.0419666   0.44734448 
   31500   0.96483271   -4.5014763            0   -3.0559023   0.55486878 
   31600   0.94286263   -4.4806794            0   -3.0680224   0.57430124 
   31700   0.98121899   -4.5483732            0   -3.0782482   0.31387947 
   31800   0.97561474   -4.5465895            0   -3.0848612   0.34595479 
   31900   0.96175035   -4.5318608            0    -3.090905   0.39257961 
   32000   0.93374333   -4.4936613            0   -3.0946674   0.55480649 
   32100   0.95040871   -4.5202572            0   -3.0962942    0.5072045 
   32200       0.9579    -4.532066            0    -3.096879   0.45013183 
   32300   0.97941718   -4.5637008            0   -3.0962754   0.30006163 
   32400   0.94458761   -4.5109751            0   -3.0957336   0.48493358 
   32500   0.96949374   -4.5454773            0   -3.0929198   0.29906571 
   32600   0.96395357   -4.5337107            0   -3.0894539   0.33961739 
   32700   0.96205274   -4.5263564            0   -3.0849475   0.40272024 
   32800   0.95488656   -4.5097582            0   -3.0790862    0.4703759 
   32900   0.95975752   -4.5127036            0   -3.0747336   0.53978705 
   33000   0.96851139   -4.5186819            0   -3.0675962   0.59023092 
   33100    0.9720212   -4.5163122            0    -3.059968   0.59776434 
   33200   0.98241193   -4.5240414            0   -3.0521291   0.60519032 
   33300   0.99518313   -4.5353665            0   -3.0443196   0.49928074 
   33400   0.97472857     -4.49498            0   -3.0345794   0.62291242 
   33500   0.97031874   -4.4807615            0   -3.0269679   0.69588189 
   33600    1.0247835   -4.5531239            0   -3.0177279   0.37686125 
   33700    1.0399492   -4.5692685            0   -3.0111502   0.31596354 
   33800    1.0089482   -4.5165605            0   -3.0048899   0.53299717 
   33900    1.0057857   -4.5067115            0    -2.999779   0.65352176 
   34000    1.0139255   -4.5142426            0   -2.9951146   0.59625487 
   34100    1.0142485   -4.5127649            0    -2.993153   0.60129589 
   34200    1.0063457   -4.4985806            0   -2.9908092   0.66004899 
   34300    1.0178292   -4.5123001            0   -2.9873233   0.59056683 
   34400    1.0145708   -4.5048868            0    -2.984792   0.58114162 
   34500    1.0159749   -4.5067078            0   -2.9845093   0.55957395 
   34600    1.0283951   -4.5252423            0   -2.9844351   0.52960061 
   34700    1.0304232     -4.52912            0   -2.9852742    0.4730891 
   34800     1.022163    -4.519029            0   -2.9875591   0.54148862 
   34900    1.0279815   -4.5290986            0    -2.988911   0.57353461 
   35000    1.0270139   -4.5292799            0    -2.990542   0.55762714 
   35100    1.0169846   -4.5169868            0   -2.9932755   0.60527311 
   35200    1.0133028   -4.5157063            0   -2.9975113   0.63222344 
   35300    1.0175853   -4.5255979            0   -3.0009866   0.52106634 
   35400    1.0175433   -4.5293107            0   -3.0047623    0.4883525 
   35500    1.0017331   -4.5092546            0   -3.0083941   0.53201293 
   35600    1.0165405   -4.5351435            0   -3.0120975   0.45465925 
   35700   0.99409557   -4.5048516            0   -3.0154341   0.57844368 
   35800   0.98615097   -4.4964118            0   -3.0188974    0.6503253 
   35900   0.99853889   -4.5178261            0   -3.0217514   0.56420355 
   36000    1.0074034   -4.5356039            0   -3.0262478   0.48943646 
   36100    1.0059123   -4.5379898            0   -3.0308676   0.43028485 
   36200   0.99663157   -4.5276054            0   -3.0343883   0.40982128 
   36300   0.98632184   -4.5175755            0   -3.0398051    0.4987761 
   36400      0.97285   -4.5020942            0   -3.0445082   0.62072379 
   36500   0.99194902   -4.5359212            0   -3.0497198   0.49485326 
   36600   0.97725733   -4.5192185            0   -3.0550291    0.5230043 
   36700    0.9643258   -4.5059595            0   -3.0611449   0.54304714 
   36800   0.98794311   -4.5482652            0   -3.0680657   0.37371395 
   36900   0.98727471   -4.5540355            0   -3.0748375   0.28459226 
   37000   0.97934525   -4.5517663            0   -3.0844487    0.2890942 
   37100   0.95252621   -4.5202251            0   -3.0930894   0.43325694 
   37200   0.96535884     -4.54867            0   -3.1023077   0.36892067 
   37300   0.98026761   -4.5840375            0   -3.1153379   0.24359751 
   37400   0.94724271   -4.5495336            0    -3.130314   0.35547244 
   37500   0.91513076   -4.5125107            0   -3.1414033   0.52816402 
   37600   0.95405877   -4.5827341            0   -3.1533023   0.24343643 
   37700    0.9131876   -4.5315241            0   -3.1633281    0.4383639 
   37800   0.91640738   -4.5434666            0   -3.1704465   0.41467165 
   37900   0.93855061   -4.5819807            0   -3.1757842    0.2336675 
   38000   0.94324319   -4.5932311            0   -3.1800039    0.1336865 
   38100   0.93145043   -4.5765074            0   -3.1809489   0.23204498 
   38200   0.92332041   -4.5644238            0   -3.1810462   0.32356078 
   38300   0.94039786   -4.5881091            0    -3.179145    0.2068129 
   38400   0.91021345   -4.5399958            0   -3.1762558   0.41664382 
   38500   0.93222426   -4.5656535            0   -3.1689356   0.40009591 
   38600   0.94051831   -4.5682552            0   -3.1591105   0.41617519 
   38700   0.94534725   -4.5649957            0    -3.148616   0.44232599 
   38800   0.98082522   -4.6069093            0   -3.1373743   0.26334153 
   38900   0.97066177   -4.5780524            0   -3.1237449   0.28634926 
   39000   0.96593664   -4.5586361            0   -3.1114081   0.31888075 
   39100   0.96920312   -4.5527148            0   -3.1005927   0.37990921 
   39200   0.98855806   -4.5705292            0   -3.0894084   0.30982089 
   39300   0.95891461   -4.5159802            0   -3.0792731   0.55265148 
   39400   0.98366566   -4.5450171            0   -3.0712264    0.4056919 
   39500   0.98296737    -4.537777            0   -3.0650325   0.35433424 
   39600   0.99563744   -4.5508023            0   -3.0590747   0.32480146 
   39700   0.98594568   -4.5321073            0   -3.0549005   0.44451628 
   39800   0.97797459   -4.5156918            0   -3.0504277   0.57037997 
   39900   0.98688772   -4.5237421            0   -3.0451238   0.53201419 
   40000    1.0175423    -4.567124            0   -3.0425771   0.31286391 
   40100   0.98200248   -4.5096547            0   -3.0383558   0.50907592 
   40200   0.99726623   -4.5287394            0   -3.0345714   0.47488498 
   40300    1.0032248   -4.5354312            0   -3.0323357   0.41493492 
   40400   0.94967805    -4.451423            0   -3.0285547   0.72569298 
   40500   0.97496894   -4.4837224            0   -3.0229616   0.59610378 
   40600   0.96900291   -4.4677318            0   -3.0159097   0.67647492 
   40700    1.0187367   -4.5380819            0   -3.0117456   0.59213323 
   40800   0.98639603   -4.4854307            0   -3.0075492   0.84960425 
   40900    1.0215106   -4.5330498            0   -3.0025573   0.62403145 
   41000    1.0247719   -4.5339784            0   -2.9985998   0.59207398 
   41100    1.0312247    -4.539355            0   -2.9943084   0.50925186 
   41200   0.99156953   -4.4750343            0   -2.9894014   0.69246032 
   41300    1.0172782   -4.5100505            0   -2.9858993   0.58976765 
   41400    1.0272058   -4.5222595            0   -2.9832341   0.55384502 
   41500    1.0221674      -4.5109            0   -2.9794234   0.63481215 
   41600    1.0390268   -4.5342104            0   -2.9774741   0.55860357 
   41700    1.0053246   -4.4816926            0   -2.9754511   0.71169972 
   41800    1.0269836     -4.51382            0   -2.9751276   0.52741499 
   41900   0.99417573    -4.464298            0   -2.9747604   0.70569745 
   42000    1.0350075   -4.5257512            0   -2.9750368   0.52826446 
   42100    1.0260958   -4.5141913            0    -2.976829   0.58142082 
   42200    1.0223397   -4.5115382            0   -2.9798035   0.59682329 
   42300    1.0241911   -4.5174979            0   -2.9829893   0.57712805 
   42400   0.99872787   -4.4824093            0   -2.9860514   0.71176356 
   42500    1.0138259   -4.5087422            0   -2.9897635   0.63850505 
   42600    1.0160753   -4.5172448            0   -2.9948959   0.61173748 
   42700    1.0393883   -4.5579881            0   -3.0007101   0.41902011 
   42800    1.0073346   -4.5171473            0   -3.0078943   0.55548291 
   42900    1.0099206   -4.5280134            0   -3.0148858   0.48945036 
   43000    1.0101133   -4.5387948            0   -3.0253786   0.42027404 
   43100   0.98355447   -4.5092853            0   -3.0356611   0.53179105 
   43200    1.0081431    -4.555839            0   -3.0453746   0.44050035 
   43300   0.98585371   -4.5341017            0   -3.0570327   0.57170711 
   43400   0.95820346   -4.5018442            0   -3.0662026   0.59178446 
   43500   0.96861637   -4.5273114            0   -3.0760684   0.47925582 
   43600   0.98967226    -4.567281            0   -3.0844908   0.31332447 
   43700   0.98195533   -4.5645894            0   -3.0933612    0.3485849 
   43800   0.95995483   -4.5380915            0   -3.0998259   0.45252196 
   43900   0.96617858   -4.5529111            0   -3.1053206   0.38960241 
   44000   0.96750349   -4.5587503            0   -3.1091748   0.40968394 
   44100   0.95271233   -4.5398635            0    -3.112449   0.48857133 
   44200   0.93379153   -4.5137014            0   -3.1146353   0.58621228 
   44300   0.97123144    -4.569657            0    -3.114496    0.3589986 
   44400    0.9623855   -4.5555592            0   -3.1136517   0.41012708 
   44500   0.96489693   -4.5574194            0   -3.1117491   0.41298051 
   44600   0.99315164   -4.5959888            0   -3.1079856   0.26280263 
   44700   0.96278017   -4.5482892            0   -3.1057904   0.44947762 
   44800   0.94585646   -4.5174957            0   -3.1003531   0.59680431 
   44900   0.97423348    -4.555645            0   -3.0959861   0.47752777 
   45000   0.93798565   -4.4960962            0   -3.0907461   0.62091512 
   45100   0.98600674   -4.5612566            0   -3.0839583   0.34632149 
   45200   0.97625058    -4.540461            0     -3.07778   0.35240329 
   45300   0.98990185   -4.5534396            0   -3.0703054   0.32922757 
   45400   0.97559292     -4.52403            0   -3.0623343   0.44718713 
   45500   0.99752851   -4.5495337            0   -3.0549727   0.39113964 
   45600   0.98985544   -4.5306778            0   -3.0476132   0.51433476 
   45700   0.96098574   -4.4795518            0   -3.0397416   0.67836108 
   45800   0.99308361   -4.5227119            0   -3.0348106   0.50288778 
   45900   0.99951514   -4.5277661            0   -3.0302287   0.51067539 
   46000   0.97876258    -4.491913            0   -3.0254683   0.58994714 
   46100   0.99131816   -4.5069673            0   -3.0217111   0.56256833 
   46200    1.0090229   -4.5301408            0   -3.0183583   0.46949585 
   46300   0.98478253   -4.4933211            0    -3.017857   0.53302814 
   46400    1.0312921   -4.5609404            0   -3.0157927   0.33863702 
   46500    1.0021544   -4.5162249            0   -3.0147331   0.53571654 
   46600   0.99922714   -4.5102541            0   -3.0131481   0.55447186 
   46700   0.99275135   -4.4995426            0   -3.0121391   0.59187601 
   46800    0.9909827   -4.4969823            0   -3.0122287   0.64952943 
   46900   0.98664769   -4.4895244            0   -3.0112659   0.74900251 
   47000    1.0019853   -4.5123017            0   -3.0110633   0.62111363 
   47100    1.0145837   -4.5303737            0   -3.0102595   0.50439988 
   47200   0.99741574    -4.504013            0    -3.009621     0.616483 
   47300    1.0455471   -4.5764256            0   -3.0099201   0.36985911 
   47400     1.022234   -4.5414573            0   -3.0098811   0.56032085 
   47500   0.98662374   -4.4892023            0   -3.0109796   0.79829177 
   47600   0.98362726   -4.4857924            0   -3.0120592   0.69831428 
   47700   0.99945645    -4.509979            0   -3.0125295   0.61021837 
   47800    1.0234352   -4.5473648            0   -3.0139887   0.48194874 
   47900    1.0125623   -4.5319012            0   -3.0148156    0.5278065 
   48000   0.98579005   -4.4928492            0   -3.0158756   0.60108907 
   48100    1.0072099   -4.5278161            0   -3.0187498   0.47516377 
   48200    1.0060815   -4.5281713            0   -3.0207958   0.47409614 
   48300     0.986365   -4.5000362            0   -3.0222012   0.63638453 
   48400    0.9769241   -4.4869254            0   -3.0232353   0.64679433 
   48500    1.0104155   -4.5387697            0   -3.0249007   0.45741267 
   48600   0.99026903   -4.5107935            0   -3.0271092   0.59288449 
   48700   0.98400672   -4.5028719            0   -3.0285702   0.63705002 
   48800    1.0075445   -4.5400584            0   -3.0304909   0.39779175 
   48900    1.0127456    -4.549424            0   -3.0320638   0.37210004 
   49000    1.0188704   -4.5615808            0    -3.035044   0.33069808 
   49100   0.99335578   -4.5252232            0   -3.0369141   0.50270334 
   49200    1.0084889    -4.551262            0   -3.0402794   0.48258258 
   49300   0.99127371   -4.5289926            0    -3.043803   0.54786554 
   49400    0.9687966   -4.4984083            0   -3.0468954   0.60570314 
   49500    0.9985259   -4.5476226            0   -3.0515673   0.36293437 
   49600    1.0042224   -4.5603138            0   -3.0557237   0.38834241 
   49700   0.95544005   -4.4906857            0   -3.0591844   0.67703598 
   49800   0.97886747   -4.5298318            0     -3.06323   0.53003339 
   49900     1.003287   -4.5708961            0   -3.0677074   0.44567739 
   50000   0.98207318   -4.5428829            0   -3.0714781   0.53023525 
Loop time of 7.43962 on 4 procs for 50000 steps with 864 atoms

Performance: 580674.681 tau/day, 6720.772 timesteps/s
99.6% CPU use with 4 MPI tasks x no OpenMP threads

MPI task timing breakdown:
Section |  min time  |  avg time  |  max time  |%varavg| %total
---------------------------------------------------------------
Pair    | 4.7798     | 4.9785     | 5.1523     |   6.8 | 66.92
Neigh   | 0.7914     | 0.79942    | 0.81393    |   1.0 | 10.75
Comm    | 1.1344     | 1.308      | 1.507      |  13.6 | 17.58
Output  | 0.0047495  | 0.0056518  | 0.0081497  |   1.9 |  0.08
Modify  | 0.27712    | 0.28044    | 0.28405    |   0.5 |  3.77
Other   |            | 0.06758    |            |       |  0.91

Nlocal:        216.000 ave         220 max         213 min
Histogram: 1 1 0 0 0 1 0 0 0 1
Nghost:        1152.00 ave        1159 max        1143 min
Histogram: 1 0 0 1 0 0 0 0 0 2
Neighs:        6817.75 ave        6988 max        6645 min
Histogram: 1 0 0 0 1 1 0 0 0 1

Total # of neighbors = 27271
Ave neighs/atom = 31.563657
Neighbor list builds = 2500
Dangerous builds not checked
unfix 	thermos

fix 	1 all nve

run 	20000
Per MPI rank memory allocation (min/avg/max) = 2.626 | 2.626 | 2.626 Mbytes
Step Temp E_pair E_mol TotEng Press 
   50000   0.98207318   -4.5428829            0   -3.0714781   0.53023525 
   50100   0.97393866   -4.5318643            0   -3.0726472   0.54830705 
   50200   0.97881218   -4.5385245            0   -3.0720056   0.52098654 
   50300   0.97985948   -4.5405861            0    -3.072498   0.49238678 
   50400   0.97235534   -4.5304899            0    -3.073645   0.52016311 
   50500   0.97888022   -4.5399837            0   -3.0733628    0.5346839 
   50600   0.98827572   -4.5523417            0   -3.0716439   0.44239109 
   50700   0.97287842    -4.529334            0   -3.0717054   0.50087697 
   50800   0.99370804   -4.5602018            0    -3.071365   0.37548038 
   50900   0.97315353    -4.529722            0   -3.0716812   0.43416997 
   51000   0.96047331   -4.5098753            0   -3.0708328   0.50535734 
   51100   0.97417371    -4.530761            0   -3.0711917   0.33978914 
   51200    1.0032955   -4.5747577            0   -3.0715563   0.15844089 
   51300   0.97089309   -4.5266276            0   -3.0719735   0.46132578 
   51400   0.98966105   -4.5543861            0   -3.0716127   0.40411823 
   51500   0.97782269   -4.5367245            0    -3.071688   0.48789959 
   51600   0.98354107   -4.5464022            0   -3.0727982   0.42207617 
   51700    0.9897842   -4.5560246            0   -3.0730667   0.32120847 
   51800   0.96367277   -4.5158414            0   -3.0720053   0.50319838 
   51900   0.96137409   -4.5115276            0   -3.0711355   0.52480815 
   52000   0.99037026   -4.5558803            0   -3.0720443    0.3739554 
   52100   0.96414243   -4.5168082            0   -3.0722684   0.49474885 
   52200   0.97555042   -4.5333956            0   -3.0717636   0.45810675 
   52300   0.97167091   -4.5282242            0   -3.0724047   0.45995356 
   52400   0.97716433   -4.5361663            0   -3.0721163   0.38048582 
   52500   0.99984429   -4.5704099            0   -3.0723793   0.26014526 
   52600   0.98645822   -4.5502581            0   -3.0722833   0.38022591 
   52700   0.98763066   -4.5514165            0   -3.0716852   0.41101913 
   52800   0.94670242   -4.4896894            0   -3.0712793   0.68522617 
   52900   0.97774859   -4.5363662            0   -3.0714408   0.47005559 
   53000    0.9914891   -4.5589313            0    -3.073419   0.34846525 
   53100    1.0204811   -4.6021032            0   -3.0731532   0.22193825 
   53200   0.99732609   -4.5660332            0   -3.0717756   0.37580873 
   53300   0.98822888   -4.5540063            0   -3.0733786   0.43311974 
   53400   0.96657825   -4.5203593            0   -3.0721701   0.51525665 
   53500    1.0014214   -4.5730251            0   -3.0726317   0.28793674 
   53600   0.98164109   -4.5426851            0   -3.0719277   0.38982567 
   53700   0.95394766   -4.4998143            0   -3.0705489   0.54842804 
   53800   0.97251957   -4.5281828            0   -3.0710918   0.41730384 
   53900   0.96764929   -4.5207732            0   -3.0709792   0.46133533 
   54000   0.97739862   -4.5353102            0   -3.0709091   0.49687169 
   54100   0.96822092   -4.5213304            0   -3.0706799   0.51167693 
   54200   0.95862743   -4.5081834            0   -3.0719065   0.48445463 
   54300   0.95877671   -4.5077483            0   -3.0712478   0.49393861 
   54400   0.94727237   -4.4891996            0   -3.0699357   0.48646329 
   54500   0.96295188   -4.5136931            0    -3.070937   0.42176277 
   54600   0.94329512   -4.4847965            0   -3.0714915   0.58692637 
   54700    0.9816696    -4.542156            0   -3.0713559   0.38767109 
   54800   0.95901677   -4.5086098            0   -3.0717496   0.47767909 
   54900   0.97637524   -4.5341734            0   -3.0713056   0.38203044 
   55000   0.98663349   -4.5500731            0   -3.0718358   0.30711203 
   55100   0.99206038   -4.5597655            0   -3.0733972   0.26588636 
   55200   0.98837701   -4.5536078            0   -3.0727582   0.32847094 
   55300   0.97633465   -4.5349013            0   -3.0720944   0.47808443 
   55400   0.97725574    -4.535812            0    -3.071625   0.50453915 
   55500   0.99793414   -4.5654892            0   -3.0703205   0.35768374 
   55600   0.97342266   -4.5308625            0   -3.0724185     0.459948 
   55700    1.0024587   -4.5738412            0   -3.0718936   0.30210737 
   55800   0.97084929   -4.5281171            0   -3.0735287   0.48454364 
   55900   0.99020789   -4.5552175            0   -3.0716247   0.40873682 
   56000    0.9774721   -4.5374143            0   -3.0729031   0.39686501 
   56100    0.9821833   -4.5430598            0   -3.0714901   0.38562699 
   56200   0.97988172   -4.5407581            0   -3.0726367   0.46114264 
   56300   0.97039218   -4.5257466            0    -3.071843   0.52469712 
   56400   0.98016252   -4.5388446            0   -3.0703025   0.57639722 
   56500   0.97277902   -4.5288915            0   -3.0714118   0.61152213 
   56600   0.97720004   -4.5353612            0   -3.0712576   0.50154983 
   56700   0.96434998   -4.5155044            0   -3.0706536   0.55441717 
   56800   0.98368125   -4.5456048            0   -3.0717907   0.39537156 
   56900   0.98955386    -4.553508            0   -3.0708952   0.33640112 
   57000   0.94664065   -4.4921281            0   -3.0738105     0.619683 
   57100   0.99412772   -4.5622772            0   -3.0728116   0.42209839 
   57200   0.98655771   -4.5507057            0   -3.0725819   0.44759093 
   57300   0.98108432   -4.5431881            0   -3.0732649   0.39501112 
   57400    1.0225581   -4.6043101            0   -3.0722481   0.15477952 
   57500   0.99861478   -4.5693621            0   -3.0731737   0.28653467 
   57600   0.96923103   -4.5231216            0   -3.0709578   0.39302661 
   57700   0.96610019   -4.5191545            0   -3.0716814   0.39229772 
   57800   0.96166276    -4.513636            0   -3.0728114   0.47436568 
   57900     1.001779   -4.5750571            0   -3.0741278   0.31243938 
   58000    0.9850457   -4.5496127            0   -3.0737542   0.31987234 
   58100   0.95781713    -4.508595            0   -3.0735321    0.4779604 
   58200   0.98972194   -4.5567036            0   -3.0738389   0.31466879 
   58300   0.97380643   -4.5307195            0   -3.0717005   0.36474378 
   58400   0.95720962   -4.5058342            0   -3.0716816   0.46377216 
   58500   0.97091302   -4.5277235            0   -3.0730396   0.42767841 
   58600   0.98667127   -4.5513339            0   -3.0730399   0.37554089 
   58700   0.97588376   -4.5353632            0   -3.0732318   0.47246365 
   58800   0.97464679   -4.5322685            0   -3.0719904   0.47769163 
   58900   0.97417517    -4.530724            0   -3.0711526   0.46788552 
   59000   0.96715913   -4.5207011            0   -3.0716415   0.55235854 
   59100   0.95572284   -4.5029117            0   -3.0709866   0.64604969 
   59200   0.99696434   -4.5650857            0     -3.07137    0.4104793 
   59300   0.98687939   -4.5504836            0   -3.0718779   0.40684929 
   59400   0.96031229   -4.5108817            0   -3.0720805   0.54878458 
   59500   0.97474409   -4.5324474            0   -3.0720236   0.45388937 
   59600     0.968188   -4.5222474            0   -3.0716463   0.51220546 
   59700   0.98258644   -4.5454134            0   -3.0732396   0.43446514 
   59800    0.9958861   -4.5648666            0   -3.0727664   0.36632319 
   59900   0.99850303   -4.5688227            0   -3.0728017   0.40881668 
   60000   0.97375729   -4.5324291            0   -3.0734837   0.45964196 
   60100   0.99099966   -4.5578677            0   -3.0730887   0.37221364 
   60200    1.0069894   -4.5822603            0   -3.0735244   0.27831322 
   60300   0.98355525   -4.5461725            0   -3.0725472   0.41470834 
   60400   0.99416409   -4.5618109            0   -3.0722907   0.38257714 
   60500   0.98576107   -4.5485413            0    -3.071611   0.36604051 
   60600   0.97468741   -4.5326728            0   -3.0723339   0.39186343 
   60700   0.96816532   -4.5232588            0   -3.0726916   0.41810549 
   60800   0.97388254   -4.5320693            0   -3.0729363   0.41359561 
   60900   0.97276621   -4.5294138            0   -3.0719533   0.39804372 
   61000   0.99308819   -4.5596529            0   -3.0717447   0.29491342 
   61100   0.94324141   -4.4849492            0   -3.0717247   0.59862551 
   61200   0.96734722    -4.520066            0   -3.0707246   0.46523617 
   61300   0.97124117   -4.5266902            0   -3.0715146   0.38434585 
   61400   0.96445958   -4.5153228            0   -3.0703079   0.45956106 
   61500   0.96889858   -4.5228227            0    -3.071157   0.41049513 
   61600   0.97288427    -4.529816            0   -3.0721787   0.36464386 
   61700   0.98995828   -4.5546403            0   -3.0714215   0.29815922 
   61800   0.94840051   -4.4926227            0   -3.0716685   0.61802776 
   61900   0.98831086   -4.5520816            0   -3.0713311   0.37540091 
   62000   0.99732942   -4.5645187            0    -3.070256   0.35859856 
   62100    0.9845934   -4.5467156            0   -3.0715349   0.47555651 
   62200   0.98287714    -4.543595            0   -3.0709856   0.43935228 
   62300   0.98029764   -4.5398686            0    -3.071124   0.48784037 
   62400   0.95891083   -4.5080831            0   -3.0713816    0.5769727 
   62500   0.97022647   -4.5261696            0   -3.0725143   0.45906833 
   62600   0.98439427   -4.5471672            0   -3.0722848    0.4111793 
   62700   0.98134487   -4.5424174            0   -3.0721038   0.52408885 
   62800   0.99399765   -4.5620038            0    -3.072733   0.44018099 
   62900   0.99216747   -4.5596723            0   -3.0731436   0.41082143 
   63000   0.98754402   -4.5518409            0   -3.0722393   0.45053386 
   63100   0.99951035   -4.5699008            0   -3.0723706   0.39478247 
   63200   0.99481156    -4.563537            0   -3.0730468   0.45120883 
   63300   0.97636198   -4.5368197            0   -3.0739718   0.46597867 
   63400   0.95962548   -4.5108534            0   -3.0730812   0.52881368 
   63500   0.97736568   -4.5376052            0   -3.0732534   0.42467875 
   63600   0.96324544   -4.5150076            0   -3.0718117   0.47960532 
   63700   0.97541228   -4.5329601            0   -3.0715351   0.47535298 
   63800   0.96153032   -4.5122866            0   -3.0716604   0.53545084 
   63900   0.96413873   -4.5166304            0   -3.0720962   0.50350588 
   64000   0.97668652   -4.5346235            0   -3.0712893   0.36262959 
   64100   0.95346306   -4.5002461            0   -3.0717068   0.47073591 
   64200   0.98938235   -4.5537395            0   -3.0713837   0.30710533 
   64300   0.97772058   -4.5355466            0   -3.0706632   0.40288739 
   64400   0.92417194    -4.455564            0   -3.0709105   0.75058809 
   64500   0.96897155   -4.5236637            0   -3.0718886   0.50883225 
   64600   0.98819079   -4.5529198            0   -3.0723492   0.39959981 
   64700    0.9745069   -4.5332214            0   -3.0731529   0.38340248 
   64800   0.98274153   -4.5443319            0   -3.0719258   0.31958094 
   64900   0.96267491   -4.5153059            0   -3.0729648   0.42824566 
   65000   0.99362307   -4.5617293            0   -3.0730198   0.28124955 
   65100   0.97641323   -4.5366657            0   -3.0737411   0.43331072 
   65200   0.99784284   -4.5672254            0   -3.0721935   0.34106754 
   65300   0.97469567   -4.5318095            0   -3.0714582   0.41254568 
   65400    1.0100147   -4.5850672            0   -3.0717986   0.25714225 
   65500   0.98219434   -4.5438916            0   -3.0723053   0.42173994 
   65600   0.98625353   -4.5499739            0   -3.0723058   0.37209479 
   65700   0.96815524   -4.5227484            0   -3.0721964   0.47526441 
   65800   0.97067607   -4.5265429            0    -3.072214   0.38902376 
   65900   0.97883522    -4.538919            0   -3.0723655   0.31272516 
   66000   0.97444799   -4.5321021            0   -3.0721219   0.39743497 
   66100   0.95835807   -4.5074122            0    -3.071539   0.51673118 
   66200   0.96662239   -4.5206386            0   -3.0723831   0.47856367 
   66300   0.96952692   -4.5236868            0   -3.0710796   0.46122008 
   66400   0.99206655   -4.5582516            0   -3.0718741   0.32509466 
   66500   0.97403729   -4.5309939            0    -3.071629   0.41631612 
   66600    0.9712819   -4.5271802            0   -3.0719436   0.47821229 
   66700    1.0020943   -4.5742154            0   -3.0728137   0.33462324 
   66800   0.99465311    -4.562597            0   -3.0723442   0.36500806 
   66900   0.97538227   -4.5323069            0   -3.0709268   0.41972533 
   67000   0.95756923   -4.5058032            0   -3.0711118   0.53388221 
   67100   0.99717426   -4.5653572            0    -3.071327   0.31436401 
   67200   0.96461493    -4.517082            0   -3.0718343   0.42764346 
   67300   0.97449835    -4.531619            0   -3.0715633   0.38965712 
   67400   0.97777744   -4.5360659            0   -3.0710972   0.49048886 
   67500   0.96296462   -4.5143783            0   -3.0716032    0.5851151 
   67600    1.0118638   -4.5883442            0   -3.0723052   0.26789475 
   67700   0.97506414   -4.5331497            0   -3.0722463     0.480794 
   67800   0.96319532   -4.5154602            0   -3.0723394   0.53691029 
   67900    0.9538318   -4.5022199            0   -3.0731281    0.5192141 
   68000   0.96938728   -4.5234205            0   -3.0710225   0.49881814 
   68100   0.96593134    -4.518657            0   -3.0714369   0.48757274 
   68200   0.98447822    -4.545652            0   -3.0706438   0.35032571 
   68300   0.98213347   -4.5424257            0   -3.0709306   0.37591938 
   68400   0.96632943   -4.5184026            0   -3.0705861   0.47959334 
   68500   0.96902092   -4.5231891            0   -3.0713401   0.43945934 
   68600   0.93105129   -4.4683126            0    -3.073352   0.61250864 
   68700   0.98585916   -4.5487949            0   -3.0717177   0.37357478 
   68800   0.93196526   -4.4675144            0   -3.0711845   0.69378023 
   68900   0.97114847   -4.5263001            0   -3.0712634   0.50609466 
   69000   0.97930775   -4.5395586            0   -3.0722971   0.47119725 
   69100   0.97400693   -4.5310707            0   -3.0717513   0.49681817 
   69200   0.95527726    -4.503257            0   -3.0719996   0.57268553 
   69300   0.99107712   -4.5571403            0   -3.0722452   0.35110776 
   69400   0.98304188   -4.5454383            0   -3.0725822   0.36457481 
   69500   0.95667911   -4.5052607            0   -3.0719029   0.50965108 
   69600   0.99804217   -4.5669174            0   -3.0715869   0.30313059 
   69700   0.99651138   -4.5642294            0   -3.0711924   0.36879728 
   69800   0.96102462    -4.510918            0   -3.0710496   0.56231383 
   69900   0.98531874   -4.5474426            0   -3.0711751   0.44970737 
   70000   0.97576225     -4.53327            0   -3.0713207   0.53843441 
Loop time of 2.90994 on 4 procs for 20000 steps with 864 atoms

Performance: 593827.523 tau/day, 6873.004 timesteps/s
99.7% CPU use with 4 MPI tasks x no OpenMP threads

MPI task timing breakdown:
Section |  min time  |  avg time  |  max time  |%varavg| %total
---------------------------------------------------------------
Pair    | 1.934      | 1.9907     | 2.0408     |   3.2 | 68.41
Neigh   | 0.31673    | 0.31879    | 0.32283    |   0.4 | 10.96
Comm    | 0.47451    | 0.52155    | 0.5754     |   6.1 | 17.92
Output  | 0.0020414  | 0.0023912  | 0.0033173  |   1.1 |  0.08
Modify  | 0.049175   | 0.050376   | 0.052318   |   0.5 |  1.73
Other   |            | 0.02609    |            |       |  0.90

Nlocal:        216.000 ave         224 max         211 min
Histogram: 1 0 1 1 0 0 0 0 0 1
Nghost:        1158.75 ave        1165 max        1144 min
Histogram: 1 0 0 0 0 0 0 0 1 2
Neighs:        6796.75 ave        6994 max        6591 min
Histogram: 1 0 0 0 1 0 1 0 0 1

Total # of neighbors = 27187
Ave neighs/atom = 31.466435
Neighbor list builds = 1000
Dangerous builds not checked

compute 1 all msd
compute 2 all vacf

thermo_style custom c_1[4] c_2[4]
thermo 100

run 10000
Per MPI rank memory allocation (min/avg/max) = 3.376 | 3.376 | 3.376 Mbytes
c_1[4] c_2[4] 
           0    2.9238987 
 0.025461321    1.2569163 
 0.075957987   0.12384672 
  0.12984602   0.03071226 
  0.18682291  0.074979554 
  0.24601631  0.067421465 
   0.3076127  0.046926116 
  0.37137106 -0.028567055 
   0.4310022  0.090867312 
  0.49038826  0.062710248 
  0.55363168  0.014447132 
  0.61729336  -0.03527349 
  0.67339398 -0.065162513 
  0.72919549 -0.075271559 
  0.78015001 -0.023889118 
  0.83193123  0.050252665 
    0.896312    0.1214593 
  0.96035973  0.065557554 
   1.0293401 0.0035495186 
   1.1006228 -0.011970812 
   1.1646405 -0.053156774 
   1.2331526 -0.012171924 
   1.3080854  0.092358534 
   1.3801208  0.023945353 
   1.4501282 -0.013351503 
   1.5381036   0.05965946 
   1.6178251  0.019937493 
   1.6902061  0.013063291 
   1.7632047 -0.061472102 
   1.8344525  0.015114475 
   1.9015176  0.090861869 
    1.967193 -0.022087721 
   2.0341304 -0.010796226 
   2.0964067  0.098861621 
   2.1524494  0.097409104 
   2.2113127 -0.063868591 
   2.2812865  0.024057799 
   2.3460165 0.0056719854 
   2.4044751  0.080209388 
   2.4690426   0.09957613 
   2.5285187 -0.008295681 
   2.5868004  -0.01200655 
    2.653441 -0.051153026 
   2.7304649 -0.043717974 
   2.8030671 -0.0058267968 
   2.8610769 -0.0097985862 
   2.9163609 -0.040806106 
   2.9703665 -0.0079137284 
    3.017441  0.025504476 
   3.0693438  0.056857624 
   3.1414422 -0.022381009 
   3.2191238  -0.07550875 
   3.2720661  0.047511874 
   3.3216216    0.0269462 
   3.3695771  0.024331045 
   3.4205362 -0.00080441161 
   3.4787515 -0.056010709 
   3.5378759 -0.032166691 
   3.6052407   0.14437775 
    3.668724  0.027832548 
   3.7171639 0.0024982953 
   3.7785788   0.11972891 
   3.8304933  0.062865504 
   3.8683169   0.08331997 
   3.9141436  0.052144117 
   3.9590387  0.060933732 
   3.9990326 -0.025640346 
   4.0432988  0.052307429 
   4.1115781  0.017528931 
   4.1811624 0.0017998744 
   4.2280825  0.023173411 
   4.2861481  0.037406507 
   4.3533919 -0.0046167448 
   4.4069194 -0.067294829 
   4.4672502 -0.053276514 
   4.5332987   0.01543902 
   4.6030799  0.031451851 
   4.6740536  0.067212236 
   4.7645735  -0.04980013 
   4.8429361 -0.081748762 
    4.915035  0.064572834 
   4.9845406  0.033020716 
   5.0312455  0.061050109 
   5.0648403 -0.025105339 
   5.1075206 0.0091620216 
   5.1680707  0.060030286 
   5.2131199  0.079663635 
   5.2561431  0.047736863 
   5.2938454 -0.062402756 
   5.3357188 -0.0048797136 
   5.4015033  -0.07877167 
   5.4557513 0.0073838148 
   5.5058177  0.075341404 
   5.5543101 -0.030590343 
   5.6071258 -0.093237325 
   5.6760578 -0.012633445 
   5.7390629  0.034051627 
   5.8158528 -0.0096117213 
   5.8918262 -0.021547853 
   5.9751165 -0.024740311 
    6.028123 -0.016105082 
Loop time of 1.44989 on 4 procs for 10000 steps with 864 atoms

Performance: 595905.502 tau/day, 6897.054 timesteps/s
99.7% CPU use with 4 MPI tasks x no OpenMP threads

MPI task timing breakdown:
Section |  min time  |  avg time  |  max time  |%varavg| %total
---------------------------------------------------------------
Pair    | 0.93005    | 0.98818    | 1.024      |   3.8 | 68.16
Neigh   | 0.15632    | 0.1595     | 0.16255    |   0.6 | 11.00
Comm    | 0.22762    | 0.26294    | 0.3232     |   7.6 | 18.13
Output  | 0.00086268 | 0.0010312  | 0.0014956  |   0.8 |  0.07
Modify  | 0.024709   | 0.025166   | 0.025631   |   0.3 |  1.74
Other   |            | 0.01308    |            |       |  0.90

Nlocal:        216.000 ave         218 max         213 min
Histogram: 1 0 0 0 0 0 1 0 1 1
Nghost:        1166.25 ave        1173 max        1159 min
Histogram: 1 1 0 0 0 0 0 0 0 2
Neighs:        6810.75 ave        7011 max        6615 min
Histogram: 1 1 0 0 0 0 0 0 1 1

Total # of neighbors = 27243
Ave neighs/atom = 31.531250
Neighbor list builds = 500
Dangerous builds not checked
Total wall time: 0:00:11
