ITEM: TIMESTEP
44200
ITEM: NUMBER OF ATOMS
864
ITEM: BOX BOUNDS pp pp pp
0.0000000000000000e+00 1.2000000000000000e+01
0.0000000000000000e+00 1.2000000000000000e+01
0.0000000000000000e+00 1.2000000000000000e+01
ITEM: ATOMS id x y z vx vy vz
538 0.888329 0.863272 1.42982 -0.260848 0.825844 0.133237
488 3.48733 5.90543 0.557456 0.310038 -0.0244666 2.65266
298 0.0439857 0.679525 0.740759 -0.321117 0.0589536 0.755198
344 2.3905 0.544469 0.892612 0.868179 2.25812 -1.17261
415 3.57929 0.535698 1.43101 0.240365 1.60472 0.439304
542 4.64382 1.36701 0.997587 1.73539 1.81821 1.11189
245 5.52223 0.755256 0.838213 -0.320404 0.65644 1.53965
424 4.57301 0.350692 1.12755 -0.488109 -0.934094 -0.279824
570 7.24897 0.615252 0.663831 -0.436794 0.161015 0.563272
526 7.14111 0.148007 1.61844 -1.37705 0.901155 0.838373
528 9.63078 0.536374 0.493678 -1.44795 0.81115 0.626265
789 11.0392 0.476166 0.432177 -0.0346916 -0.663824 1.39158
571 11.3269 1.30676 1.5955 0.825673 -0.736347 0.182468
634 0.953384 2.42948 0.856496 0.0677844 0.514763 -1.47683
234 2.22306 1.5987 0.686932 0.375721 -2.0011 0.263925
793 3.65875 1.51877 0.659405 -0.432877 -0.415289 -3.04463
812 6.79143 2.40693 1.21599 1.89968 -0.120242 4.05982
650 7.81771 2.28772 1.37978 1.49858 -0.588879 0.604729
188 8.21028 2.98746 0.262399 0.158124 0.565654 -0.475938
549 7.6744 1.5556 0.209831 0.790606 0.0155173 0.448249
685 9.00298 1.53618 1.12967 1.06055 0.655194 -0.457369
749 5.36237 0.0502414 4.32106 0.879634 0.100304 -1.92796
468 9.48437 2.83729 0.10689 -0.0649115 -0.0555311 -0.558824
460 6.12715 5.90275 4.99035 0.17481 0.438514 0.115484
79 10.0952 2.66017 1.03262 -0.453107 -0.432208 -0.631322
712 10.2954 1.68494 0.794501 0.22522 -0.733514 -0.434011
750 11.8553 1.93026 0.404525 -0.516348 -1.22273 -0.823579
301 0.203191 3.24589 1.13576 -0.615636 0.162417 1.50509
252 2.25269 4.14854 0.115877 2.28517 -0.662136 0.0252051
859 8.30261 4.62343 0.667359 1.4921 1.12861 -0.483791
321 5.27592 5.0519 4.62169 1.46589 -1.0323 -0.33853
402 9.40436 4.00109 0.783438 -0.326256 0.915208 -1.31316
844 11.4781 3.89185 0.365273 0.74113 -0.167352 -0.357536
53 11.3505 3.98806 1.52736 -1.25965 0.492477 0.560221
494 0.204792 4.79819 1.41661 -1.0483 -0.0447532 0.155041
508 2.23536 5.48618 0.612135 -0.346126 -1.02392 -0.027184
312 3.2428 4.97232 0.152103 0.276913 0.307963 -1.21008
266 4.33602 4.96144 0.160425 -0.575421 0.588967 -0.401277
341 3.92332 4.9052 1.11115 -0.744453 -3.20017 0.300034
449 11.2641 5.52766 4.89482 1.68827 -0.733592 -2.29013
90 5.26607 4.92585 1.09998 1.94375 1.52938 1.19386
659 7.22511 4.56545 0.575192 0.833816 -0.320954 -0.0690314
713 7.70614 5.38361 1.18194 1.59039 -1.8033 -0.559503
319 2.66073 0.148093 5.62398 -0.770946 0.234236 0.755667
655 9.52182 5.1672 1.0743 -1.24712 0.0338735 -0.205439
615 10.6874 4.85872 1.25154 0.563223 -1.37245 1.05778
726 0.677162 0.113958 2.56319 -0.156374 1.08492 0.155953
72 1.97022 0.95536 2.34311 -0.546308 -0.716157 0.208122
758 4.15886 1.41647 2.07407 -1.60516 0.573002 1.76931
305 4.23602 0.123328 2.2241 -1.24736 -0.28207 -0.79571
11 5.28221 0.100923 1.88011 -1.6981 -1.6609 -0.307521
429 8.30374 0.77791 1.59205 -1.20903 -0.896796 0.354919
262 11.8011 0.456186 1.86979 -1.34465 -0.137724 0.497421
354 11.7216 1.5229 2.47212 -1.08325 1.36789 0.533685
771 10.8252 0.935643 3.02381 0.172449 -1.58155 -0.0280402
765 1.25008 2.13797 1.78856 -1.7984 0.916656 0.634994
117 2.18598 2.24972 2.80881 1.76128 -0.839851 1.53696
286 4.70349 2.56262 1.90055 1.55121 1.60971 -0.244146
427 5.58059 2.0678 2.25315 -0.256453 0.474258 1.38145
199 7.41364 1.50904 1.99066 -0.188695 -0.288024 -1.34521
285 6.42313 1.56085 2.5431 -0.33033 -0.344038 0.0371602
110 8.48053 1.70398 2.31517 0.830683 1.08139 0.886642
109 7.49409 2.99432 2.38813 0.296415 0.456608 -1.37935
768 8.57977 2.77552 2.36251 -0.412827 -0.616278 0.160723
12 9.40392 2.13013 2.58787 0.596467 0.72775 2.01811
147 11.1957 2.79253 2.34608 -2.01111 2.46253 -0.00877103
399 0.138011 3.17829 2.2473 0.260768 0.249136 0.790255
157 0.460248 4.17242 2.46096 -0.84399 0.517609 0.546315
103 1.32812 3.35638 2.13611 -1.78444 0.508338 -0.0280573
368 5.40031 4.04655 2.14781 -0.502871 0.342199 1.49814
492 6.42148 3.05099 2.2971 -0.314211 -0.0706821 0.373906
562 6.91854 3.93597 2.91576 -0.793892 -0.316935 0.662149
251 9.01853 3.32126 1.44547 -0.204577 -0.974745 0.383793
466 8.78058 4.64868 1.84573 0.332304 0.996481 -0.04391
477 8.02544 4.09131 2.77879 -1.21868 -1.62893 0.553933
70 7.67313 4.06595 1.71775 0.781362 1.90737 0.721928
522 9.94116 2.93988 2.90111 0.318881 0.00515246 -1.80328
401 10.4029 3.32131 1.791 1.75862 -0.873249 0.348195
343 10.6034 4.48565 2.9947 0.51197 1.27842 -0.933576
663 1.37525 5.09831 2.62978 0.0715652 0.249425 -0.125949
409 4.98705 5.85369 2.1997 1.36783 -0.614841 0.492656
195 5.40224 4.94484 2.57733 0.236072 -0.453253 0.547959
537 4.54409 4.62047 1.90474 -1.17306 0.18957 -1.39863
808 6.63341 5.33139 1.96009 0.461811 0.50991 -1.22051
742 8.59788 5.88517 2.5738 0.646756 -0.129826 -0.248755
527 7.87035 4.98415 2.23916 0.0378558 0.347933 0.51777
254 9.76493 4.70031 2.25526 1.4779 0.636231 0.478087
337 10.5831 5.49385 2.49454 -0.805027 -0.932674 -1.42534
114 11.2716 4.7417 2.12503 -0.597091 -0.805371 0.242232
822 11.8254 5.77565 3.09542 -1.13117 1.49763 0.226117
55 4.37176 0.318111 4.41418 -1.46168 -0.278766 1.38136
397 8.23802 0.692004 4.08557 -0.00552472 -0.646247 0.177126
590 7.42613 1.3505 3.76014 -0.883755 -0.0335299 0.753333
579 8.54916 0.904281 3.14139 0.174591 -0.50156 -1.51019
700 9.31182 0.103334 3.49943 -0.446338 -0.253814 0.113326
247 11.5067 1.03793 3.81708 -1.28468 -1.77201 -0.389918
51 10.3124 4.42526 5.09643 1.32676 -1.90287 -1.19024
272 2.33404 2.35519 4.41046 0.236298 -1.00008 0.626897
35 4.01228 2.93701 3.17933 1.18407 1.58504 0.250343
651 3.01972 1.34994 3.73754 -0.149649 -1.53719 1.16086
346 4.20002 1.80183 4.37186 -1.22993 0.18481 0.360805
224 5.82521 2.45624 3.18681 0.445187 -1.69681 -1.89128
705 5.9517 1.68899 3.90344 -1.32575 0.454033 -0.359509
82 7.22486 1.98787 2.98849 -1.41512 -0.809501 -0.997194
464 8.70589 2.34792 3.34023 1.99952 1.50396 0.291278
175 8.18258 1.9477 4.40881 1.40646 -2.04537 -3.18406
144 10.2899 2.03323 3.43802 -0.898186 -0.289785 0.0350069
691 9.90453 2.94737 3.93841 -1.47936 0.904052 1.40391
276 9.60127 1.93047 4.6577 2.52944 -0.698376 1.10575
707 11.0268 2.37526 4.22515 -0.622084 -0.431465 0.227987
652 0.741772 3.24419 3.24517 -0.182735 -1.98913 -1.39705
540 2.96401 2.95527 3.72772 0.0179389 -1.53616 1.31011
387 1.38485 4.03544 2.82776 0.472286 1.14898 -1.27156
59 3.2023 3.69142 2.83399 0.568827 -0.474614 -1.79394
299 5.55219 3.96002 3.6048 -1.00938 -1.55365 1.6521
327 6.3072 3.26816 3.73942 -0.458188 -0.983388 1.21045
306 7.4989 3.12525 3.37277 0.0897218 -0.342138 0.123604
785 7.78104 3.54367 4.52084 0.768902 2.11705 -0.925504
28 8.87023 3.62971 3.72178 1.39748 -1.97461 -1.01258
596 10.1707 4.00121 3.91749 -1.47651 0.432001 -0.573449
500 10.8539 3.50765 3.28122 -0.203758 0.0284682 0.77097
320 11.9546 3.80112 3.73693 0.849587 -1.45114 -0.222068
196 0.493093 4.86384 3.20528 -0.104161 -0.826213 0.693195
119 3.0069 4.81173 3.70944 0.686684 -0.329177 -0.515809
62 3.84207 5.52911 3.54835 1.14258 1.23139 0.499709
380 4.27736 4.98367 4.29515 0.61998 0.379133 1.85061
58 4.90661 5.74471 3.72041 2.3421 -0.517279 0.849567
331 5.90487 5.77722 3.52567 0.958687 -0.907274 0.54074
226 8.80173 5.83084 3.88695 0.918161 -0.800998 0.765502
193 8.11006 4.48198 3.82873 -1.65198 -2.07587 -0.964317
730 7.67792 5.37472 3.2648 0.752351 -1.24785 0.663383
137 10.2611 5.15663 3.77285 0.509576 1.89222 1.11673
583 8.88285 4.79237 3.06101 -0.879421 -1.78781 0.30256
425 9.0535 4.35958 4.33019 0.90501 -0.552671 0.0787144
684 10.188 0.222881 1.49136 2.36611 1.12494 -0.506712
64 11.2073 4.52914 3.94113 -0.595199 0.0634893 -0.364667
467 2.87532 1.0083 4.99192 0.878424 -0.656066 -0.764005
297 2.39855 0.413704 4.30002 0.693899 -0.849207 -1.84703
295 4.27029 1.00214 5.08659 -0.315195 1.36036 0.193201
2 5.50954 0.119926 5.33058 -0.785203 0.278581 0.830369
638 5.16735 1.15604 4.58471 -1.40386 -0.691149 -0.502774
236 7.05358 0.478887 5.52648 0.105233 -0.865845 -0.662025
623 6.46792 0.334631 4.68811 0.923091 1.27341 0.951905
617 7.33342 1.19043 4.8012 -0.314484 1.57086 1.27567
565 7.23446 5.38312 5.46753 0.218088 -0.214428 -0.594276
42 6.21114 1.08598 5.27141 0.942298 -0.874187 0.487299
798 10.3069 1.06241 4.8722 -0.2918 0.502358 -1.85232
314 8.99743 0.514929 5.11886 -0.0238042 0.447723 2.36346
307 0.30569 2.85898 5.54545 -1.69798 0.972652 1.36688
353 2.86544 2.41921 5.60051 -0.321331 0.191543 -0.12417
177 1.84783 1.86286 5.48389 -0.822091 -0.384478 1.62995
43 3.83422 2.019 5.3839 0.589708 -0.238436 0.621034
536 4.68918 2.56242 4.79331 1.0405 0.225023 -1.68638
280 5.74114 2.13171 4.93094 -0.428711 -0.711274 0.564001
514 8.82616 4.78291 5.45741 0.459727 -1.29567 1.90952
473 6.20901 2.39307 5.95152 1.1235 0.99249 1.07811
78 6.82783 2.27365 4.36805 -0.531667 0.365813 -1.30301
19 8.28654 1.80964 5.59097 -0.952919 -1.54568 0.105564
132 7.81283 2.65146 5.15819 0.294756 -0.0847773 2.20528
225 10.4309 2.29048 5.51517 0.0115756 1.18792 2.29844
255 8.92512 2.75957 5.19574 -0.895716 -0.145728 -0.901965
573 11.9098 1.82119 5.07537 0.703201 0.0414586 -0.244073
640 0.57407 3.1465 4.23462 1.03795 -0.125816 -1.25617
724 2.81868 3.22269 4.80124 0.605212 -0.585387 -0.492135
129 9.57305 5.93253 1.83455 0.071816 -1.70001 0.796793
694 1.68654 3.81081 4.85462 -0.339355 -0.643456 0.2437
160 4.14311 3.52154 4.67888 0.606758 0.143401 -0.126557
390 3.33615 4.10381 5.36895 -0.341587 0.0301864 -1.35893
679 4.73975 3.14455 5.81507 0.623972 0.225657 -0.850562
506 5.21767 3.84721 4.85257 -0.13196 -0.683141 0.734519
265 5.84266 3.96166 5.84023 -0.025012 -0.93525 0.135291
259 4.74557 4.40397 5.58643 -0.243548 1.02196 -0.0353627
168 6.69457 3.26299 5.39187 -0.0963516 0.0646966 -0.368774
273 8.53057 3.7265 5.31935 -0.82707 -2.35594 1.05675
106 9.69008 5.38643 5.19938 -1.86611 -0.108898 -0.606728
87 9.90841 3.45286 5.01418 -1.05472 -1.06283 0.86591
367 10.9764 3.69477 4.56265 1.28785 -0.867256 1.35328
653 11.1527 3.09311 5.68791 -0.520129 -1.34048 0.27771
631 0.550539 5.73129 5.08711 0.901711 1.29749 -0.48696
430 1.29163 4.85343 5.58083 0.480041 -0.853474 -1.79953
198 0.34933 4.23357 5.05319 -0.351239 -1.67931 -2.46942
834 2.28588 5.32708 5.73883 -0.0970412 1.17294 0.985222
194 0.374605 0.413774 6.58941 0.629896 0.021676 -0.672155
246 2.46597 0.0891434 6.78872 0.125453 -1.23237 -1.25461
145 3.65442 0.697024 7.15077 -0.116829 -0.430085 0.314877
660 3.54571 1.38367 6.21236 0.923237 1.03918 -1.45329
757 4.32326 0.219186 6.47028 0.412276 0.354864 -1.17031
210 5.41662 0.325317 6.76152 -0.408365 -0.607346 0.125162
432 5.83307 1.54179 6.33841 0.190707 -1.7006 0.879192
139 6.82369 1.44325 6.20305 -0.237966 2.29912 -2.87005
407 6.20016 0.495628 7.43222 -0.360433 -0.299196 0.0106383
686 6.25494 0.512744 6.28254 -0.224382 1.00394 1.39969
227 8.20602 0.625822 7.93767 -0.902658 -1.20352 1.37085
186 7.89498 0.992494 6.05927 -1.53358 -1.09278 0.15704
709 7.94984 0.334913 6.85299 0.861367 1.25389 0.900406
268 9.03296 5.89353 6.41928 -1.98613 -0.814666 0.547933
756 10.0512 1.51871 7.14097 -0.0863823 0.135097 1.83176
392 9.50361 0.633647 6.60897 -0.494895 -0.269389 -0.278281
682 10.9696 0.493991 6.57163 0.105005 -0.832653 -1.59756
190 11.9217 1.5559 6.41193 -0.267644 -0.552481 -0.396482
370 1.2844 1.63096 6.53761 2.03167 0.318317 -2.45821
95 1.1848 2.65983 6.37884 -0.500198 -0.7635 0.862139
240 1.06263 2.52583 7.51565 0.250277 -0.101697 -0.00249079
296 2.34454 2.44575 6.48341 0.591464 -1.11311 -1.45867
215 3.82528 2.59919 6.33685 -1.12564 -0.258459 -0.222499
386 3.25483 1.77352 7.06342 -0.446876 0.773216 -0.304323
108 4.79484 1.4739 6.92748 -0.495264 -1.17028 -0.19844
858 5.39629 3.07557 6.62863 -0.784475 0.75381 -0.361489
122 5.90203 2.2915 7.26401 -1.80341 -0.410121 -0.00896941
324 7.44725 2.22908 6.06209 1.3653 0.0728827 0.250297
406 6.6124 1.57037 7.24242 -0.402816 -0.261429 2.03548
599 7.532 1.22619 7.1515 0.126514 -1.83107 -0.188717
395 8.39888 2.87676 6.30367 -0.334825 1.08921 0.367731
701 8.6478 2.21621 7.57857 0.0418467 -1.44729 0.854119
213 9.11683 1.6707 6.52005 1.58099 -0.94547 -1.0367
45 9.91561 2.49034 6.91183 2.2337 0.408179 -0.389348
593 0.0783766 2.44203 7.09199 1.40001 0.475151 0.949074
628 10.7853 2.17229 6.56234 0.378171 -0.18581 -0.100558
66 11.2475 1.40698 7.21087 1.5345 -1.72249 0.0843758
13 10.9935 2.45784 7.53254 1.15769 -1.61805 2.07088
311 0.461384 4.1629 6.11952 -0.887894 -1.30941 -1.7567
278 1.144 3.60476 6.954 -0.119604 -0.833689 0.523701
810 2.14373 3.26202 7.13976 -0.327467 0.566885 -0.349211
418 3.68364 3.48341 6.09797 0.112091 -0.268483 -0.646938
457 3.39907 4.43154 7.35925 -0.00623804 -0.175445 -1.55447
635 3.7089 3.46635 7.23482 0.423719 2.45921 2.19592
302 5.58239 4.12486 7.08969 -0.496695 0.380452 0.582996
376 6.49098 3.22568 7.04368 0.196704 0.464732 0.791477
258 7.466 2.98058 7.42672 0.80532 -1.25044 -0.221877
200 7.55828 3.43204 6.46917 1.00427 -0.457176 1.83848
860 7.85535 4.26794 7.32004 0.0962905 -0.837607 -0.718577
697 8.4457 4.24848 6.32957 -1.09974 0.220323 -0.540409
104 9.25908 3.6043 6.24149 0.0686234 1.6898 -1.1549
338 10.253 3.42379 7.17256 0.246958 -0.158756 -0.0493221
769 11.3686 3.8844 7.39697 -0.584319 0.0430469 1.20288
261 0.333818 5.68685 6.40609 0.55156 0.521009 -1.12542
699 0.77022 5.03421 7.3027 0.162986 -1.79515 -0.964803
15 1.70016 4.62768 6.55061 0.867534 0.782182 0.828376
133 2.21124 5.34115 7.12113 -0.761871 -0.915308 -0.852805
519 3.61717 4.49578 6.34574 0.957467 -0.995171 -0.0762693
269 3.32402 5.96933 6.12974 -1.39811 0.889538 -1.65545
221 4.29182 5.6135 6.84888 -0.307314 -1.43334 0.924239
578 10.2544 3.53175 6.19454 -0.173393 -1.55233 0.0365525
783 7.29177 4.69393 6.43809 -0.104706 0.36873 -0.265268
121 6.22131 4.93993 6.13135 0.306951 -1.28645 0.0120295
328 6.63774 4.73342 7.49656 -1.10588 0.66082 -0.0931265
31 10.6174 5.3001 7.14303 1.49874 2.15558 -0.434758
180 9.6121 4.73675 6.28049 -1.31726 0.393018 1.86163
174 10.3751 5.55667 6.18345 -0.268161 0.331512 0.163762
576 11.6151 4.86786 6.10104 -0.630373 -0.623168 -2.08087
325 0.37436 1.34893 7.45557 0.489253 -0.211496 0.146236
610 0.804477 0.315461 8.07494 -0.0420255 1.73592 0.502125
219 1.29347 0.907149 8.91392 -2.30377 -0.430029 -0.246334
300 4.76923 2.20165 6.09524 1.68264 -0.842866 0.599698
366 4.70913 0.481295 7.50747 -0.611477 -0.325334 0.960655
264 5.61039 1.38274 7.69174 0.438326 1.13482 0.501304
721 6.25388 0.206057 8.6295 -1.85026 -0.464556 0.234086
766 6.36175 1.26023 8.64922 -1.68749 0.847337 0.0807495
207 7.84953 1.20392 8.69693 -1.46534 1.50025 0.00316906
676 9.46849 0.530682 8.06225 -0.434061 -0.629976 0.345274
586 10.054 1.46286 8.29437 -1.40887 2.78869 0.340442
356 11.6666 0.397526 7.90141 1.68096 1.19483 0.870746
799 10.6178 0.698386 7.72194 -0.532859 0.605671 1.28267
518 11.2443 1.31485 8.49906 0.177202 1.10677 1.2735
818 0.462468 2.68295 8.45865 0.776993 -0.840763 0.292027
632 0.200107 1.61159 8.66576 -0.529556 0.400435 0.21074
57 1.59495 1.64219 7.89319 -1.14341 0.0787071 0.500708
183 6.86836 2.3657 8.39269 0.242652 -0.478113 0.347347
616 8.78843 2.63438 8.5799 -0.402234 0.573977 -0.965378
852 9.64997 2.40894 7.91615 -1.5781 -0.456545 0.401844
202 10.5757 2.11485 8.92055 1.87033 0.864662 1.02221
568 11.3884 2.71466 8.56377 1.22847 0.669883 0.187171
741 1.44504 3.06584 8.44275 -1.02123 -0.600672 2.0477
365 0.561058 3.96843 7.65323 1.49528 0.914793 0.105356
719 2.39018 3.38962 8.2789 -0.292738 -0.623554 0.345286
740 4.27174 3.60887 8.30254 0.135693 -1.16639 -1.28311
848 5.95966 4.25591 8.31307 -0.144846 -0.161676 0.224692
838 6.66899 3.36219 8.12497 0.180073 0.541247 -1.08606
116 7.89448 3.71748 8.90874 0.515854 -1.14898 -0.129934
292 9.10226 3.3026 7.46376 0.955063 0.864576 -0.586306
806 9.22004 4.27029 7.82922 0.376515 -0.464007 0.0564625
780 11.8351 3.11584 7.80538 0.386234 0.620327 2.11768
833 11.4018 3.72271 8.79547 -0.783179 -0.739485 0.165598
30 0.293588 4.64067 8.96592 0.209352 0.430486 0.262467
723 1.49507 0.0485032 11.8953 1.42812 -0.335593 -0.672919
825 1.64203 5.50007 8.12793 1.26629 -1.01132 -0.587233
735 1.84808 5.03007 9.11584 0.462903 -0.527766 0.0980394
459 2.72587 4.98381 7.95734 -0.416276 0.888246 -0.593766
242 3.88412 4.50772 8.34217 0.220166 0.185639 0.742908
125 3.66028 5.73094 8.52929 -0.626063 1.05975 -0.512958
96 3.2043 5.87461 7.56223 0.285855 0.271618 -1.14516
140 5.16182 5.11751 8.01626 -0.994051 -1.13398 0.0830643
481 5.96819 5.34793 8.88267 0.801591 -0.581533 0.930749
439 4.8955 5.66494 8.83765 1.04971 -0.81511 -1.91443
455 11.2363 5.20203 10.7398 -0.512941 -1.62077 1.17265
316 7.08115 5.72365 7.43449 -0.396542 -0.535103 -1.72205
142 6.17172 5.62669 7.88989 0.528489 1.41349 0.875948
182 9.19689 5.2824 7.54639 1.65166 0.155377 -1.62869
791 10.0966 4.84163 8.23289 -0.571808 0.0366892 -1.12519
237 8.98467 5.18958 8.71081 -0.891215 -0.967383 0.678934
600 11.9493 4.90177 7.77951 -1.15504 1.15906 -0.659948
748 10.7252 5.76993 8.4734 -0.862749 -0.0966622 0.0996932
347 11.1171 4.75966 8.61209 0.381491 -0.655336 0.22593
745 0.778459 0.453936 10.4363 0.0733806 -1.12103 1.15594
308 0.122164 0.623851 9.32763 -0.501176 0.495849 0.608392
41 0.271406 1.53819 9.95979 -0.658233 0.707157 -1.05156
845 2.31677 1.26733 9.8405 -2.33044 -0.332308 -0.281973
624 3.93197 0.293051 10.2274 -1.32347 -1.33109 0.0850539
703 3.96006 0.809183 8.96112 -0.638045 -0.472963 -1.17894
792 2.81453 0.197492 9.60636 -0.783231 -1.18499 -2.21921
515 6.66233 1.34412 10.1864 -0.4563 1.14516 0.670882
619 7.26232 0.414122 10.0839 -0.320513 0.504385 -0.393435
489 9.57284 0.703919 9.81157 0.668211 0.258381 0.391969
816 11.0197 1.01511 9.79369 -1.69333 -0.376948 0.161977
414 10.6455 0.261866 9.06725 0.53909 1.25738 -0.412437
815 0.997757 2.09187 9.19188 0.163702 -1.2615 -1.44563
802 5.83162 2.87543 10.249 -0.775718 0.322601 0.569033
754 7.69778 2.0696 9.88865 0.400432 1.3304 0.819068
821 7.9175 2.71573 9.07854 -2.0733 0.49622 -1.66987
435 9.65902 2.12825 9.54511 -0.13462 1.26845 -0.464102
282 8.72471 2.74831 9.94012 -2.04436 -0.0342691 0.486114
94 8.77488 1.58117 10.2736 -1.43785 -0.344865 0.266518
345 0.0590286 2.53983 9.4085 -0.00603308 0.455476 -1.54842
853 10.9478 2.89917 10.0585 -1.44856 0.938665 -0.40456
760 0.429867 3.47352 9.01796 -1.05546 -1.71784 -1.18955
747 1.57978 4.36758 9.92931 -1.55374 0.377679 -0.161075
770 3.27422 3.52191 8.83201 1.719 -0.281322 -0.452975
828 4.74211 4.29305 9.11577 -0.58594 1.08821 -0.393122
404 8.93073 3.75428 9.48268 1.17084 1.29039 0.117207
728 7.44683 3.81919 9.82239 -1.70416 0.959003 -0.267639
677 9.77274 3.06002 10.1549 -1.65744 0.290343 -2.90063
612 10.473 3.24217 9.0054 0.485173 0.330829 -2.21039
440 0.864382 5.07067 10.5169 -0.482255 -0.461954 1.16969
220 1.68672 5.79605 9.79867 -1.12963 0.508038 0.469849
807 2.99304 4.96424 9.13153 -1.28295 -0.213011 0.635052
687 4.14207 5.40338 9.51484 -0.442588 -0.779314 0.437154
480 5.86455 5.13097 9.99056 -0.343072 0.18825 0.840892
801 6.64121 5.80058 9.64456 0.102177 -0.858449 -0.0356204
826 8.01188 5.02262 9.83231 -1.0276 0.53288 -0.0891638
483 9.73014 5.67383 10.1862 -0.676061 -0.464767 0.099354
731 10.0828 4.9699 9.40769 -0.263296 -0.20782 -0.258098
217 11.0834 4.42795 9.66155 2.06152 -1.45337 -1.28084
358 11.6411 5.54354 9.85885 0.557405 1.07528 0.262637
782 1.10133 1.23188 11.0193 0.466252 0.456876 -0.171744
588 2.1093 0.414203 11.0676 -1.3803 -0.20362 0.431222
472 2.68758 1.32354 11.3974 -0.32845 0.504939 -0.0128796
250 3.62576 1.31536 10.6634 -1.50889 0.588769 0.224772
412 3.338 0.391184 11.0948 -1.03368 -1.80496 -1.10488
797 4.52916 0.613024 11.2594 -1.00343 -0.641524 0.274236
150 5.4717 0.64533 11.8305 0.895964 0.621458 0.929779
580 6.44845 0.576702 11.2072 -0.618467 -0.620259 1.7637
778 8.35563 0.49254 11.7655 -2.91464 0.251907 0.58022
843 10.1908 0.434936 10.8552 -1.31622 -0.0423256 0.765482
567 10.7097 1.07758 11.7188 0.789552 -0.853358 0.553328
491 9.19324 0.551321 11.0397 -0.206952 -0.0484888 1.4081
410 11.2631 0.600269 10.7441 0.557938 1.66573 -0.149531
729 0.120364 0.813792 11.4923 1.04369 0.171122 -1.43787
49 4.42487 1.47948 11.9501 0.661755 -0.65432 2.38384
393 5.0942 2.1747 11.091 0.00250187 -1.25398 -0.679893
696 7.80589 2.04542 11.248 -0.361296 0.995173 0.371766
512 7.58881 3.06142 10.5566 0.0144541 -1.3258 1.44341
490 8.99898 2.80362 10.9724 -0.154102 0.384193 1.26914
68 10.1472 1.96211 10.434 1.21875 -0.799888 0.683116
71 11.3189 1.96449 11.0582 0.0785198 -1.48734 1.054
27 11.6041 2.88965 11.9113 0.833802 1.55672 -0.178382
371 10.3617 2.84962 10.9953 -0.77499 0.921143 -1.2555
657 1.46437 4.3487 11.0192 -0.366698 -0.00270422 0.150717
169 3.85836 3.58801 10.5617 0.023433 -0.452669 0.00344915
127 5.8702 3.84326 11.2766 -0.447743 -0.0571155 1.59565
618 5.02416 3.34055 10.7951 -0.303706 1.25356 -1.07534
355 6.64812 4.10517 10.7005 2.86288 1.29089 -1.79565
738 8.23374 3.99013 10.6029 -0.548489 -0.428683 -0.245992
102 7.43132 3.89047 11.422 -0.960451 0.803882 0.766659
405 8.81574 3.83442 11.9258 0.597163 0.922584 0.336192
131 9.79941 4.00197 10.8539 0.236667 0.868544 -2.07919
154 11.0812 4.09567 10.9803 1.32864 -0.318427 1.64298
840 0.24351 5.41258 11.4648 0.290307 0.0191866 -0.485647
441 2.03316 5.17148 11.3743 -1.28614 1.25139 0.155496
849 5.79359 4.88316 10.9665 -0.905753 0.225288 0.288681
577 6.03079 5.90012 11.7253 0.82923 -0.0780895 0.183644
743 6.45118 4.9784 11.6291 -1.73552 0.283644 1.73467
107 6.74267 5.76782 10.9284 0.099266 -0.407002 -0.0217947
530 7.9501 4.94316 11.0026 -0.529572 -0.587641 -0.806884
26 10.3005 1.20851 6.17782 0.0560394 1.33512 1.28027
187 9.57571 5.45642 11.8942 0.0967871 0.920031 0.941816
18 10.4963 4.83226 11.4715 1.98736 -0.051881 -0.582033
382 1.21354 5.99532 7.27697 -1.45472 0.955722 1.1111
431 9.26785 1.502 11.8354 0.102616 -1.24823 -1.90292
614 10.5534 2.35805 11.9414 0.162522 -0.605709 0.174844
80 10.1886 3.71068 11.9092 -0.463938 0.00845548 -1.22012
811 1.93777 3.63481 6.01658 0.406837 0.245314 0.57847
159 0.826203 5.9937 8.73447 -1.78195 -0.834548 -0.171318
135 0.596815 6.7694 1.14671 1.57645 2.17033 0.518554
710 1.25749 7.05405 0.300569 -1.99603 -0.637704 -0.0313649
29 2.41609 6.82558 0.401608 -0.249079 -0.376011 0.76016
239 1.72728 6.32474 0.995619 -0.575002 -0.0396954 -0.575031
146 4.14987 6.90628 0.914386 -0.257075 -1.04205 0.156872
611 2.89994 6.46748 1.24107 -0.112462 0.19548 1.26226
581 5.46378 6.05362 1.1296 -1.17351 0.0724294 -0.845059
54 7.04661 6.37738 1.39634 -1.36573 0.992109 -1.38649
465 7.72174 7.51531 1.34806 1.31359 1.14918 -0.230121
143 9.12949 6.73331 1.03028 0.292176 -1.16891 0.146701
153 10.4819 6.04457 0.279347 -0.874225 -0.565193 -1.21857
674 10.6884 7.35337 0.38212 0.268295 -0.738952 0.120712
437 1.48757 7.71768 1.21861 -0.0653421 -0.528471 -0.280077
762 0.616504 7.85059 0.724197 -0.827571 -0.937129 -0.491838
253 1.29625 8.88874 0.92111 -0.219467 0.325316 0.105114
714 2.48912 8.30452 0.253993 -0.738674 -0.533699 1.0194
704 2.38824 8.32842 1.32618 0.508886 -0.376426 -0.448401
777 3.99184 7.84044 1.38443 0.365398 2.74499 1.22752
16 3.39233 8.76892 1.04886 1.86561 1.33672 -0.31164
451 3.35835 7.49983 0.683232 -0.388726 -0.236018 0.104156
736 5.1298 7.6431 0.331478 -0.271439 -0.386252 1.39367
673 5.67962 9.18135 1.36197 -0.43977 0.467299 -0.468093
372 4.46107 11.8193 0.0106617 0.0990731 0.107843 -0.0770001
317 7.52324 8.52643 1.64264 0.0256753 1.44522 0.454883
189 6.46328 8.31974 0.599864 0.263645 -0.55092 -1.91574
847 7.7899 8.69159 0.343867 -0.0699464 -1.30803 0.224194
784 8.27958 7.77891 0.58239 -0.588869 0.871356 -0.00609442
720 9.31244 7.80809 1.0549 1.00941 -0.029568 -0.540515
662 7.51169 11.95 4.79299 1.4268 1.16034 0.897674
212 11.7188 8.00634 1.27728 0.848405 -1.61266 -0.343992
411 10.7027 8.28888 0.191422 -1.22214 -0.243153 -0.989011
543 11.7862 8.86615 0.382788 -0.415146 -0.398834 1.01895
533 0.173422 9.81964 0.372786 -0.0313808 0.334091 1.3946
228 2.42302 9.29418 0.625632 0.51666 -1.24767 -1.51904
445 2.47752 10.2762 1.29656 -1.82356 -1.02829 -1.59953
585 4.20516 9.67015 0.513146 0.159839 0.559571 -0.0163294
351 3.65106 10.174 1.4755 0.171806 0.913467 -0.663793
497 6.35706 9.3096 0.442852 -2.12729 1.66484 -0.626156
496 6.75812 10.3973 0.684688 0.56804 -0.690436 -0.354523
654 7.46374 9.34588 0.949995 0.907502 1.13186 -0.430852
205 10.3681 10.337 0.905094 0.410327 0.191974 -1.96733
862 9.7757 9.1779 1.14559 1.72036 -0.453415 -0.562842
452 10.8973 9.14586 1.12788 0.374665 -1.33222 0.990824
664 11.0531 9.70441 0.18488 -0.00896833 0.0258153 -1.06504
661 0.34669 10.6935 1.29054 0.53538 0.130006 0.083018
173 1.22792 11.8354 1.00458 -0.535635 1.33333 -0.33879
602 0.734481 11.1608 0.280436 2.78399 -0.954305 0.30615
649 1.42542 10.696 0.85994 1.2727 -2.07503 0.691192
836 2.33316 11.4167 0.783875 -1.13033 0.731189 -1.65082
450 2.30726 10.4648 0.118906 0.467264 -1.69115 -0.426106
569 3.31565 10.836 0.616072 1.25754 -0.240158 -0.921279
373 4.22318 11.3486 0.942368 -2.15945 0.0732701 0.104346
856 4.96088 10.7118 1.05253 1.36755 -0.113583 0.272351
603 5.52007 11.6748 0.758873 1.17356 0.0704032 0.564763
361 8.49166 10.7703 0.0649843 1.31959 0.229696 -0.99691
668 8.03411 11.3183 0.930589 -1.38864 0.149361 0.0887468
8 9.57626 11.2864 0.770631 0.0217592 -0.63134 0.499082
279 11.9303 11.6873 0.844216 1.35933 -0.709597 -0.248171
627 1.00606 6.23213 2.73805 -1.19807 -0.271313 0.385168
170 0.991924 7.29347 2.69398 -1.21987 -0.62662 1.02396
746 2.69315 7.39784 1.76282 -0.93563 -1.14493 -0.479325
388 3.06983 6.47097 2.6584 0.320788 -0.927215 0.612895
413 3.74995 7.04725 2.07015 -0.960758 -0.508991 -1.68283
620 3.79305 6.00008 1.53508 -1.09736 -0.338396 -0.0754065
582 4.85902 6.92655 1.61436 -0.127924 0.859399 -0.138377
61 5.74196 6.87027 3.01774 1.54603 0.888549 0.00610557
86 5.95622 6.05557 1.96798 0.0575272 0.256163 -0.883947
764 9.03838 7.09506 1.92632 -0.323782 -0.927235 0.424508
666 7.69145 6.13942 2.18446 -0.32637 -2.05683 1.49856
438 7.80139 7.26517 2.31723 -0.0765917 1.05428 0.377973
744 8.55289 6.0022 1.45798 -0.0933651 -0.566615 -1.45175
733 10.296 7.12739 1.44756 0.600909 -0.929645 -0.672233
787 10.179 6.66112 2.40183 -0.144485 1.4663 -0.226186
294 9.68996 7.39468 3.1276 -0.128411 -0.540712 -0.0303185
566 10.4935 11.3828 0.139152 1.49772 -0.507832 2.60686
120 10.7656 6.18001 1.62614 0.317865 -0.184742 -2.01763
363 0.111244 6.06203 1.80026 0.203644 -0.765294 -0.0737545
36 11.5321 7.04164 1.89772 1.54384 -0.187084 0.464839
164 11.3104 6.86232 2.90598 1.18326 0.0727656 -0.621341
209 0.56628 7.73061 1.83276 -0.0263063 0.667982 -0.171505
235 0.371297 8.70867 2.15966 -0.0235056 -0.790431 -0.42953
535 3.22056 8.19382 2.07219 -2.15149 0.882812 0.175234
678 5.26229 7.70068 2.41807 0.679151 -1.46025 -0.0198149
93 5.80394 7.91448 1.53001 -0.164197 -0.351373 0.875582
192 4.74684 8.63249 1.85032 0.911096 -1.90504 -0.458494
461 4.81201 8.68996 3.02085 0.171478 -0.959547 0.32405
817 6.82341 7.42226 1.8022 0.417324 -1.10749 -0.227423
520 7.35226 8.6844 2.66012 0.770064 -0.202296 1.1245
688 6.14661 8.36043 2.56574 0.549086 -0.221666 -0.181364
839 8.46557 8.03067 1.9012 -1.1556 0.853537 -0.796793
753 8.70033 7.93407 2.9287 1.76048 -2.99526 0.651878
334 9.55718 7.91437 2.23156 0.290338 1.31942 -0.324585
357 9.63706 8.96552 2.57175 -0.736818 1.47131 1.69537
130 10.7117 7.55424 2.41417 0.954983 -1.18546 -0.780386
681 11.7838 7.9046 2.55289 1.5536 0.926547 0.479663
233 11.3199 8.79435 2.09427 0.385575 -0.838465 1.53803
609 1.65584 9.09047 2.29008 0.307145 -1.18635 0.367352
270 1.36026 9.99737 1.54925 1.86753 0.484012 -1.80797
717 1.24058 10.287 2.60765 -0.0845353 -1.45552 -0.459848
767 0.333185 9.74994 1.99527 -1.38189 0.0459151 -0.921114
725 2.57141 9.26856 1.76592 0.823311 1.46367 0.656901
206 2.27893 9.81924 2.46261 0.41913 -0.00426452 0.493843
67 2.60216 8.65185 3.0097 -1.85371 -0.103452 -0.803552
21 3.68968 9.95107 2.46077 0.071972 0.503317 -0.969965
478 4.79715 9.67941 1.58897 -1.34856 0.308323 -0.107484
75 4.96445 10.1525 2.95606 0.1253 1.1419 0.512777
379 7.46141 9.7379 1.95412 0.841336 -0.984362 -0.178568
23 8.23646 9.73344 2.89044 -2.35419 1.16434 0.342844
814 8.22353 10.3619 1.19612 -0.314305 -0.865278 -1.87823
621 9.39434 9.91503 1.86316 0.320717 -0.0846509 -1.17292
138 10.4626 9.52885 2.26772 -0.440477 0.26734 -0.442279
257 11.4233 10.4731 2.64461 -0.642976 0.244157 -1.09618
592 11.3843 9.98414 1.62159 -0.12887 0.178186 -0.390683
774 0.120742 11.173 2.36619 -0.825544 0.362369 0.503296
77 2.09427 10.9665 2.28358 1.05485 0.263026 1.35567
231 2.01513 11.8859 3.10964 -0.807674 -0.193388 0.309575
809 2.03565 11.9906 1.84862 -0.225438 0.906781 -0.0618241
493 4.32551 10.8841 2.04127 -0.263039 0.246164 -0.402156
288 3.00622 10.9187 3.31337 -0.687538 -0.315129 0.637495
734 2.8927 11.3098 1.76977 -1.02654 2.59535 -0.103042
835 7.45108 10.8994 2.14025 -1.02701 0.512389 0.0181684
40 8.17646 10.945 2.8925 -0.80992 0.161671 1.4471
105 8.28596 11.723 2.04455 2.21334 -0.398961 1.4258
532 10.3185 10.582 2.29402 1.2636 0.816422 -0.978875
550 9.32993 11.3645 1.84374 -0.237453 1.38749 -1.58229
69 10.5979 11.9266 4.91903 0.118049 0.737606 -0.908429
667 11.1367 11.6755 2.27953 1.14893 1.42444 -1.10245
647 4.08912 6.60189 3.33991 -0.00239446 1.58452 0.0184527
516 4.1931 6.29723 4.64321 -0.53826 -0.412308 1.7297
383 4.89854 6.96733 3.98493 0.402304 1.45349 -1.02796
711 7.70484 6.79245 4.57947 1.43651 -1.05889 0.468554
737 8.33097 6.80903 3.03581 0.615663 0.168172 -2.55528
436 10.4949 7.00431 3.52826 -0.108812 0.490546 -0.420599
547 9.48506 7.47518 4.11484 -1.18004 1.31822 1.45536
751 11.6932 7.42756 4.14762 -0.389277 0.0512222 0.689557
128 11.2803 6.32865 3.87748 0.713601 1.41871 -0.904548
837 1.43893 7.94907 4.05578 0.519875 -0.305822 0.0609377
52 2.78473 7.67188 3.16809 1.2284 -2.06332 -0.0350722
315 2.98803 8.29976 4.07217 0.600928 1.0429 0.918243
417 4.05881 8.46229 4.44561 0.176783 1.32093 0.818417
606 3.71338 8.36188 3.1083 1.07964 -1.04375 -1.1118
695 5.81561 7.78379 3.59141 0.834569 0.457619 -0.0496879
644 6.23018 8.84659 4.06751 -0.168993 1.55803 -1.48227
100 8.39989 7.57548 3.88089 -0.168082 -0.308829 0.0735052