ITEM: TIMESTEP
42040
ITEM: NUMBER OF ATOMS
864
ITEM: BOX BOUNDS pp pp pp
0.0000000000000000e+00 1.2000000000000000e+01
0.0000000000000000e+00 1.2000000000000000e+01
0.0000000000000000e+00 1.2000000000000000e+01
ITEM: ATOMS id x y z vx vy vz
538 0.986222 1.03884 0.789067 -0.305448 -0.552946 0.591777
789 0.0241532 0.355774 0.586538 -0.564241 0.931946 0.0690901
765 2.93305 0.332472 1.25734 -0.204016 1.57173 1.72739
634 2.27614 0.93856 0.558529 2.03059 -0.922502 -1.51818
726 1.56858 0.25506 1.53886 -2.03033 1.7306 1.26318
49 4.96096 1.08672 1.38157 -1.51902 -0.319712 -0.0296673
11 5.53064 0.805797 0.507278 -1.54426 1.09003 0.252633
650 7.37261 1.4774 0.505035 -0.711173 0.75817 -0.79368
429 6.74772 0.253837 1.43685 -0.57738 -0.285783 -1.14779
570 8.64938 1.18863 1.07658 -0.873594 0.234188 -1.86501
684 7.66014 0.400966 0.991721 -1.70242 0.400372 1.33428
431 9.45276 0.942401 0.338698 -2.03146 0.463462 1.55119
528 10.1062 0.377839 1.37624 -0.486202 0.457205 -1.39761
571 11.6725 1.15382 1.28366 -2.08792 1.13183 0.211928
71 11.0097 0.674704 0.0378143 0.872203 -1.08128 -0.299238
301 0.786299 2.18158 0.476921 0.253602 1.72827 -1.23372
298 0.871064 1.88705 1.39949 -0.442918 -0.5012 0.029756
368 6.31212 1.59732 0.578866 -0.345251 1.17702 0.857111
743 6.87558 2.56747 0.0347046 -0.950436 0.149539 -0.698678
492 6.95652 2.55717 1.11262 -0.747178 0.477899 1.24199
188 8.35083 2.87784 0.718548 -0.321568 -0.533951 0.769875
468 9.35599 2.31723 0.521618 0.708717 0.40692 1.06676
371 10.3696 2.70803 0.148933 -0.79684 -0.717666 -0.788501
567 10.4609 1.62803 0.15013 -1.07398 0.0375545 0.0186884
614 10.8099 1.72811 1.33449 -0.361428 1.20332 0.265809
27 11.5616 1.80459 0.396806 0.211876 0.227009 -0.208573
750 11.9271 2.44171 1.32948 -0.782879 0.41308 -0.855601
494 0.40405 4.20387 1.23995 0.621913 -0.611465 -0.687536
844 0.0768799 3.24102 0.43612 1.37477 0.398613 0.144952
399 0.722104 3.26454 1.30013 -0.67096 -0.89527 -0.155698
127 3.0501 4.41071 1.20967 1.07256 -0.833935 -0.475553
659 6.75522 3.98714 0.589453 -0.0539562 0.164957 -0.17288
109 7.96465 3.86699 0.998518 1.41138 -0.927842 0.792913
768 8.99361 3.63858 1.03982 0.667675 0.909079 1.53957
549 7.2917 0.451408 0.00907245 -0.947276 1.03402 0.223935
70 7.6251 3.65028 0.0364519 -0.150697 1.23479 0.459862
79 10.0315 3.66502 0.58709 -0.150561 -2.33691 0.463031
18 9.66879 4.27518 1.4115 0.517257 -0.436904 -0.350815
53 11.4257 3.46452 1.35776 0.0241761 1.52333 0.88122
578 11.4227 5.80137 5.32593 0.0862713 -1.99118 0.792878
508 2.21796 4.80841 0.60237 -0.102571 0.753991 -1.64892
266 3.45911 4.96693 0.230042 0.119613 1.77714 -0.694619
195 4.47847 4.74982 1.24628 -0.333958 -1.43553 2.43904
341 5.40239 5.44663 1.28012 0.833094 1.44375 -0.806211
713 6.51755 5.08482 0.803862 1.148 -0.167075 0.253442
655 8.92887 4.78908 0.987876 -1.08827 0.568854 0.0583299
466 7.87177 4.83255 0.69835 0.0410863 1.41834 0.770276
158 7.69196 5.89825 0.719209 0.282547 -1.66719 0.739653
187 9.50592 5.6766 0.383324 -0.842467 -0.473279 0.572872
402 10.4399 4.79092 0.440584 -0.637959 -0.775974 -1.78767
840 11.8733 5.05097 0.846592 0.256275 -1.45122 -0.482807
262 0.86301 0.991628 1.91708 0.396697 0.709717 -0.153473
771 0.13907 0.952201 2.81096 0.266287 0.638149 -0.841487
76 0.0467163 0.173438 1.93015 0.552805 -0.202926 0.528942
147 1.74966 1.3098 1.6883 -0.0867234 -0.414312 -1.30505
55 3.8384 1.00248 1.61463 -0.285425 0.884735 0.979301
51 11.0261 4.98957 4.70415 -1.11563 -0.716963 0.919934
305 4.5719 0.550159 2.54543 1.11913 0.409873 -2.48412
758 5.68776 0.298755 1.65448 0.137836 0.525962 -0.542836
199 6.80377 0.848288 2.84393 1.21611 2.21942 0.122259
105 7.92945 0.0921318 2.39899 -0.915923 1.08448 0.3865
667 9.11715 0.387364 2.12159 1.29053 0.576461 0.676937
500 10.071 0.352711 2.6124 1.35876 1.70038 -0.839952
72 2.1579 1.83894 2.96587 0.0780995 -0.657636 -0.314522
712 8.77013 2.0485 1.52946 1.34776 0.396547 -0.840819
306 8.16056 2.84236 1.86155 -0.17749 0.0603071 0.49068
522 8.89011 2.4491 2.45601 0.0663962 0.854449 -0.159786
685 7.74961 2.20705 2.8274 -0.188457 -0.649255 -2.34322
798 11.3915 1.734 2.64139 0.717017 0.120681 1.76505
103 2.42303 3.58119 2.28185 -1.21475 -0.180885 1.08052
35 3.85841 4.15518 2.04798 1.84336 -0.442895 -1.05167
82 6.229 3.07278 2.143 0.664397 -0.0677459 1.63154
327 7.47617 3.50587 2.80149 0.791536 0.411778 -0.487311
562 8.46377 4.37471 1.71478 0.627157 -0.355525 0.0851331
401 9.39903 3.72005 2.41472 -1.22953 0.515486 0.0120375
615 10.5065 4.24297 2.11115 0.205582 0.491253 -0.415803
80 11.2362 3.00922 2.42905 -0.0745985 -0.329401 -1.23189
114 11.3832 4.37553 2.63143 -0.130379 0.0182187 -0.398561
663 0.056015 5.14287 2.97733 0.362316 -0.234627 0.869104
239 0.721183 5.93731 1.5079 0.950067 0.0498714 -0.603969
627 0.988983 5.96461 2.8145 2.17049 -0.562385 -0.500373
312 2.29917 4.99217 2.1747 1.60395 -0.379932 -0.0054878
611 2.98625 5.89263 1.75793 0.349452 -0.348847 -1.0448
620 3.97077 5.23926 1.92677 -0.928446 -1.76328 0.992195
90 3.23987 4.82449 2.78733 0.561309 0.596562 -1.22541
537 5.03207 4.71469 2.38293 -0.294889 1.11907 0.861138
86 6.76742 5.8592 1.98897 -0.122895 0.0159343 0.597223
299 6.37432 4.58532 2.44552 -0.446797 -1.35199 0.687617
808 7.97442 4.58788 2.61249 0.320692 -0.47288 0.0942272
129 8.68212 5.5945 1.58185 0.683001 0.0590995 -0.929036
742 7.9461 5.9321 2.65158 1.35619 -0.332983 0.973385
787 10.2171 5.80328 1.85703 -2.07167 0.963874 0.631159
527 9.47535 4.95899 2.18165 -1.17386 1.88962 0.134558
363 11.8454 5.86868 1.94709 -0.0497772 0.0579556 -1.87676
120 11.1516 5.02464 1.59105 -0.790616 -0.387687 0.507989
354 1.79869 0.738288 3.136 -0.510888 0.965795 -0.868762
247 1.93651 1.09997 4.09119 -0.86516 0.0447427 -0.675164
651 3.11197 0.874621 3.37757 -1.16295 0.758684 1.01951
231 4.08904 0.458386 3.50207 -0.862817 -1.03975 0.244529
590 7.23474 0.412932 4.01779 0.247927 0.366531 -1.07827
110 7.72072 0.864263 3.25027 -0.912857 0.456628 -0.635167
550 8.52657 0.0722419 3.34789 0.897145 1.70069 -1.10831
12 9.10934 0.987965 3.8775 0.52735 0.933592 -1.80867
517 10.6388 0.726086 4.34261 -1.72328 -2.08383 -1.09363
573 1.23706 2.3289 3.68688 -0.596859 0.243083 0.462877
793 2.59996 2.85682 3.2458 -0.728551 -0.146804 -0.176444
464 7.51298 1.75387 3.84389 0.387772 -0.716965 -1.72682
638 6.40585 1.50905 4.05155 -1.39272 -0.154586 -0.302361
536 6.73826 2.27981 3.14436 -1.41445 -0.763863 -0.177833
280 6.96432 2.46123 4.32452 -0.814772 0.380141 0.152005
175 8.07189 2.44013 4.35344 1.46393 -0.230192 1.07406
700 10.1193 1.87711 3.29737 1.36047 -0.11773 3.24213
19 8.89397 1.97795 3.44243 -2.85137 0.888808 -0.194816
144 9.78363 2.74423 3.89653 -1.10469 -0.328232 -1.24249
367 10.7965 2.85458 3.34666 1.07666 0.498139 0.182248
225 10.6291 2.08233 4.37065 -0.441638 1.48926 -0.473035
157 1.16847 3.26042 3.14203 0.73589 0.416867 -0.696447
320 0.192672 3.97094 3.10916 -0.0928899 0.498434 -0.169342
117 0.51542 3.3538 3.97528 -0.142283 -0.497054 1.5236
540 2.15583 3.98434 3.20031 0.772467 0.059961 -0.189166
307 2.30174 3.08743 4.17293 -0.628748 -1.35627 -0.998539
285 3.21894 4.01846 3.66107 0.0466613 0.133362 2.38578
506 4.44035 3.77108 4.29989 -0.25303 -1.23342 -0.0735111
224 6.87717 3.55525 3.64088 -1.40568 0.196235 0.686138
193 8.07919 3.99908 3.56412 0.510443 1.30358 -0.281364
477 8.70867 3.08631 3.70376 1.94962 0.701043 0.0508675
596 10.1878 3.68581 3.92121 0.608171 -1.20554 0.110661
652 11.4261 3.13839 4.37533 0.863255 0.318506 0.450231
64 11.18 4.1946 4.00885 -1.29347 0.869008 -0.522539
196 1.02252 4.96838 3.53426 0.52434 -1.62222 0.255575
694 1.46016 5.12836 4.51087 -1.50229 1.08338 0.758704
387 2.02026 5.75358 3.35022 0.157198 -0.275588 -1.21311
119 2.50389 5.38018 4.36 0.54259 -2.76197 -0.97757
516 3.60025 5.13907 3.76753 -0.0976098 -0.53218 0.842937
58 4.65411 5.33586 4.25455 -0.0338595 -0.479025 -0.310746
54 5.8872 5.15767 3.15015 -0.162303 0.506145 -1.29342
331 7.06604 4.63421 3.88335 0.302953 0.406181 1.10828
730 7.16521 5.87165 3.46354 1.31369 0.0165461 1.18834
583 8.27415 5.32187 3.52711 0.876997 0.152646 -0.0503729
226 8.41354 5.95709 4.36656 0.88324 -0.807036 0.962831
137 9.99716 4.83356 4.35557 -0.0662886 -0.144131 -0.589049
254 9.32696 5.38557 3.17969 1.06162 0.4006 -0.502068
640 11.6878 5.38575 3.95177 0.869401 -1.05843 -0.744667
343 10.4905 5.0916 3.43901 -0.659959 -0.962997 0.0168604
172 2.64042 0.133605 5.58902 0.510939 -0.72754 0.0189414
99 1.82956 0.729655 5.31326 1.58455 -1.01483 0.417837
84 3.53314 0.580598 4.77692 0.777165 -2.71052 -0.175423
692 4.37156 0.604614 5.43896 0.739735 -1.60022 1.29012
300 6.1957 0.933799 5.43317 -0.376695 -1.18276 -0.708557
227 9.00385 0.253566 4.93879 0.487474 1.11612 1.99157
705 7.52444 0.743768 4.96684 -0.471248 0.640103 -1.0709
558 10.0437 0.195936 5.24582 -0.995283 -1.84534 0.0355412
314 10.3718 1.41053 5.50382 -0.194209 0.880118 -0.868241
190 11.9266 0.435404 5.42018 1.25401 -2.10193 0.871195
622 10.8345 0.587348 5.7222 -0.0445155 -0.353929 0.36255
628 0.448334 2.03193 4.65801 -2.37027 -0.373493 0.669866
272 1.01737 2.63407 5.25189 -0.375815 1.11069 0.208849
297 1.53274 1.70744 4.81095 2.27077 -0.94607 1.57738
810 1.91827 2.45794 5.71362 -0.141099 0.988099 0.959395
346 2.54931 1.57775 5.3799 0.542578 -1.11506 -0.619855
418 2.98419 2.94096 5.43521 -0.364567 0.586098 1.66563
353 3.94454 1.69156 5.26933 -0.774994 1.95594 0.894227
295 3.19461 1.69282 4.48009 0.954832 0.0790473 -1.43276
43 5.21456 2.28293 5.78376 0.16433 0.690418 0.989343
473 6.36968 2.82371 5.79809 0.483496 -1.40062 0.561293
42 6.93576 1.68681 5.16858 -0.898486 1.70947 -0.196531
45 8.34188 1.65467 5.98066 -0.526953 -0.59497 0.674984
579 8.44981 1.50823 4.64596 -0.784624 -1.42885 0.247562
26 9.83402 2.76098 5.87536 0.624005 -0.456978 0.0435815
593 11.0991 2.12918 5.96298 1.20197 -0.802642 0.580523
653 0.137344 3.08561 5.73505 -0.995998 -0.605623 -0.930877
198 0.249284 4.4314 4.61631 0.254889 -0.121751 1.3119
724 3.38188 3.40742 4.4867 1.38108 1.87494 -0.509178
160 3.97936 3.82876 5.29992 0.302544 0.5487 0.274184
265 5.29652 3.47455 5.24722 -0.247886 0.611047 -0.368143
168 7.10147 3.59753 4.68999 -1.50865 0.0658817 1.66424
785 7.45191 4.07127 5.57611 -0.770069 0.780157 0.296047
691 8.62259 3.85179 4.47324 -0.1528 1.1719 -1.05043
78 7.6931 3.08964 5.53015 -0.0908186 0.479509 0.262164
213 8.68654 3.10452 5.18407 0.154486 -1.57267 -0.381775
104 10.3167 3.74478 5.91772 -1.34569 -1.32379 0.127093
276 9.32163 4.07281 5.60433 -0.325655 -0.778783 1.22586
87 10.2273 4.15803 5.02814 -0.131433 0.244003 -0.0639362
707 11.3105 4.02248 5.17018 -1.04185 0.387226 -1.48758
255 10.5624 3.01608 5.0558 0.941339 -0.497541 -0.321615
261 0.248576 5.07112 5.85975 -1.27536 2.29099 -0.389396
576 0.534248 5.48737 4.98708 0.203023 -0.817045 0.326697
430 1.27972 4.77921 5.93687 -0.01693 -0.206857 -0.505309
834 2.19543 5.28793 5.4887 0.0698429 -0.495371 0.971527
390 3.89512 4.83221 5.84485 -1.18164 -2.08602 -1.73405
382 3.11911 5.80678 5.86227 -0.855073 -0.0688539 -1.47351
380 3.64236 4.54576 4.59788 1.08028 -0.0615254 -1.43634
321 3.91697 5.55259 4.83907 -0.450745 0.634599 0.887894
259 5.16118 5.07033 5.35142 -1.19742 -0.679886 -0.0846567
697 7.64469 5.2059 4.60666 -0.529324 -0.464853 1.71663
316 7.70959 5.16334 5.60523 -0.892215 0.797938 -0.48553
28 9.07661 5.22491 4.98091 0.0545932 1.53262 1.07834
425 9.84429 5.01675 5.61843 -1.1033 1.22759 -0.568864
370 0.800624 0.950562 6.24562 -1.17445 -1.71015 -0.671898
57 1.48763 0.615667 7.41961 0.484851 0.342537 1.27994
467 1.82985 1.10645 6.44879 0.0494233 1.44754 -1.59365
145 3.76966 0.791408 7.26422 1.91229 1.39402 -0.654507
660 3.65419 0.279654 6.25533 0.769481 1.37729 0.241769
283 5.60812 0.224313 7.17527 -0.0881296 -0.055158 -0.722582
210 4.70338 1.18337 7.0188 -0.102983 -0.332393 0.125426
348 4.6658 0.271521 6.37044 0.0796252 0.046868 0.0843272
432 6.30677 1.11261 6.56765 -0.965111 0.188902 0.0903778
186 7.49651 1.07697 6.02217 -0.253718 -0.095189 0.501357
139 6.73589 0.0514051 7.00313 -0.810485 0.837853 -0.654027
599 8.08912 1.12819 7.32883 -0.302428 0.0375463 0.707783
799 9.63016 1.29678 6.91958 1.48279 1.31212 0.688044
552 9.3718 0.0746685 6.8497 -0.398545 -0.16547 -0.267288
3 11.6858 0.494084 6.9785 -1.78525 -0.682141 -0.75892
278 0.995415 2.8521 6.56952 0.459511 1.17059 -1.64456
240 0.220598 1.90924 7.27627 -0.453799 -0.59297 -0.12826
177 0.23513 2.06963 6.14576 0.386404 1.29943 1.31984
386 2.63201 1.73302 7.50283 0.768353 2.9662 0.265455
296 3.05583 1.82415 6.25105 0.555698 0.75495 -0.978052
215 4.35453 1.97884 6.45687 -1.11656 -0.653166 -0.472678
858 3.09224 2.7381 7.39762 0.355989 -1.23807 0.218503
183 5.6679 2.41907 6.74888 0.506251 -0.271573 2.03949
328 7.23649 2.60241 7.38165 0.087213 0.696743 -1.29511
132 6.93801 2.19352 6.36328 -0.283326 1.45975 0.971325
395 8.09515 2.92917 6.39146 3.40478 0.527808 1.50285
756 9.30786 2.21662 6.75539 0.0737056 -1.57244 0.463062
13 11.6369 2.74826 6.61102 1.11362 0.472841 0.151338
818 0.494023 3.18281 7.40153 -0.335465 -0.333291 -0.957001
741 1.65628 3.40881 7.11535 -0.593156 -0.331944 0.638034
811 3.30808 3.66659 6.55614 -0.993 0.0689189 2.66893
679 4.2526 4.13174 7.09566 -1.12059 -0.399144 -0.128218
324 4.63384 3.41962 6.1037 -0.526907 1.25456 -0.0510466
108 4.57818 3.15163 7.1038 0.362384 -1.44175 -0.66464
376 5.80392 3.80618 6.58393 0.482359 -1.44508 -0.351889
565 6.6997 4.10871 7.07362 1.02947 2.33112 0.957821
200 8.05853 4.0537 6.37935 0.569174 -0.149928 -0.312842
769 9.07075 3.5244 6.50035 0.0278297 -0.278415 1.04785
365 11.8183 4.22887 6.51389 1.94893 -0.365991 0.661959
20 0.495895 5.37073 7.30125 -0.948506 0.41535 -0.0622057
269 2.92397 4.7144 7.12627 0.616585 -0.635856 -1.0476
643 4.08709 5.86445 6.2618 1.48643 -2.17691 1.88202
698 6.38407 5.89647 7.1363 1.15689 0.490363 -1.06856
273 8.62932 5.10155 6.09918 -0.745727 -1.85562 0.377097
182 8.21569 5.5216 7.22982 0.321316 -1.44189 -1.39369
292 9.53659 4.54198 6.94245 -0.803126 0.364423 1.61816
174 11.601 5.92031 6.55267 0.0629408 -0.85824 0.535588
31 10.7219 5.5163 7.11406 -0.616394 -1.23514 -2.3872
610 0.671937 0.221645 8.36094 0.229858 0.469613 -0.478557
246 2.51406 0.564552 7.74916 -0.494606 -0.209437 0.448418
830 2.24593 0.694143 8.77064 -0.19709 -1.94817 1.28966
366 4.36035 1.1797 8.12036 -0.407406 1.501 -0.846704
167 4.4538 0.179436 8.53714 2.38895 -1.33278 -0.349603
721 5.84266 0.640155 8.62395 -0.140469 0.340203 -0.656557
406 6.68402 1.13512 7.66587 -0.294723 -0.0167917 0.653269
515 7.932 0.594956 8.30072 1.01282 1.83744 0.211953
616 9.31222 1.20758 7.9223 -1.74704 1.46393 0.0708744
392 9.91953 0.117112 8.24939 0.671435 0.641192 -0.182975
325 11.7327 0.78046 8.21569 1.54926 -0.0497123 -0.614418
833 0.782323 2.69393 8.68269 -0.710631 1.76685 0.123413
95 1.56663 2.45832 7.65174 0.291094 -0.660828 -0.435878
250 3.85453 2.16595 8.08687 1.07242 -0.251029 0.146931
539 3.06721 1.78154 8.96079 -2.18691 -1.97366 2.16308
264 5.76689 1.61232 7.67684 -1.23738 -0.528701 -0.808075
122 5.1585 2.84854 8.22808 0.391025 0.713356 -0.573018
618 4.53007 2.49059 8.87975 -0.43194 -0.231384 0.0912786
701 6.29005 2.39865 8.20761 0.453036 0.135332 0.885003
338 8.84694 2.48833 7.69354 1.81387 1.5465 1.14271
821 8.17408 1.54665 8.50372 -0.580929 -0.763362 1.23583
682 10.0413 2.40491 7.73198 -0.281571 1.27798 0.336421
66 10.2136 1.65249 8.63047 0.253514 -0.0353623 -0.162702
632 11.6119 2.08587 8.24316 0.201063 0.463638 -0.574042
568 10.5492 2.64336 8.67199 0.566394 -0.0252144 0.235664
825 2.42067 4.45587 8.70245 0.101322 -0.52115 -0.0978829
457 4.10924 3.21955 8.29644 -1.04543 0.441387 0.16206
15 3.17036 4.02226 8.02947 -0.253785 -0.493006 -0.348233
302 5.09016 3.82549 7.91505 0.41091 1.47798 -0.242357
783 7.52717 4.49761 7.5684 1.03332 0.760749 -1.34941
481 6.13774 4.29174 8.6576 0.674093 -0.33272 -0.355949
258 8.65517 3.56028 8.73085 -0.671066 -0.294015 -0.7935
25 11.6375 4.15923 7.85919 -1.99159 0.707119 0.359486
780 11.3807 3.19023 7.72473 -0.552838 0.882262 0.447738
159 0.662398 5.40144 8.48222 0.672902 1.04808 0.480469
519 2.98359 5.45225 8.32651 1.32779 -1.71874 -0.0900537
699 1.76039 5.63666 8.34468 0.90292 -0.644289 -1.28355
242 4.13432 4.63081 7.96141 -1.58127 -0.0792504 -0.871684
121 5.34242 5.34484 7.76564 -1.05636 0.631965 -0.663692
142 6.44925 4.95608 7.86586 -0.240491 0.136417 1.13081
171 6.42271 5.54978 8.70446 -1.07504 -0.034427 0.0562598
557 7.35249 5.45999 8.22116 0.156253 1.43925 -0.260676
860 8.40738 4.76272 8.27093 -0.251609 0.433893 -0.109107
281 8.51663 5.74041 8.63192 0.378815 -0.593469 -1.0788
806 10.3505 4.84574 7.98619 0.254504 -2.025 -0.326911
509 9.47685 5.46323 8.17982 0.00163184 -0.825506 -0.18459
850 11.6137 5.14906 8.21883 1.25504 1.26066 -1.14961
716 10.6277 5.58918 8.73283 0.551795 -0.255259 0.306689
308 0.234488 0.606971 9.35433 -0.890825 -0.166915 0.41271
845 4.4661 0.78257 10.1682 -0.520846 -0.0350505 1.14943
797 5.46629 0.486233 10.1892 -1.4119 -0.265874 -0.516
824 6.52546 0.604018 9.54335 -1.63213 0.454098 -0.324372
435 8.82849 0.457876 9.11321 -0.455437 2.79157 0.888114
754 8.02069 0.791197 10.1061 0.904459 0.749064 -1.41968
619 8.91584 0.305645 10.4283 -0.882889 -3.00997 0.617931
586 9.92626 1.14629 9.63117 -0.00237569 -1.84746 -0.783903
816 11.7466 0.893747 10.464 -1.49393 -0.615647 -0.213773
345 0.0622679 2.88216 9.57583 -1.40801 0.06349 1.4205
404 9.41434 2.82929 10.0497 -1.6811 -0.304119 -0.400599
852 9.00994 2.12533 8.94049 -0.125854 0.193332 -1.6961
612 10.9011 2.7485 9.61936 0.492233 0.517864 -1.04731
518 11.1355 1.53682 9.19119 0.199979 0.876434 1.71423
815 11.6101 2.02186 10.1357 1.59501 -0.602748 1.13788
202 10.6425 1.77854 10.076 -0.507681 0.464817 -0.212775
740 2.63364 4.41951 10.3993 -1.0014 -1.13374 -1.15422
635 3.33684 3.59437 9.10259 -0.259681 -0.26765 0.449389
802 5.93268 3.34884 9.10238 -0.0279747 -0.165115 -0.840437
848 4.86878 3.49735 9.19452 0.88884 -0.171617 -3.4947
728 7.4417 3.47 9.91184 0.692344 -1.1522 -1.73086
849 6.37364 3.90854 9.77268 -0.990565 0.835801 0.678041
826 8.70595 3.71743 9.86062 0.673243 0.879082 0.277075
600 9.98416 3.51413 9.10169 -0.0763214 0.426582 -0.675062
731 9.72294 4.37892 9.53786 -0.614184 -0.383891 0.875152
152 0.876834 5.51163 9.64787 -0.650349 -1.00201 -0.0419205
30 2.03724 4.95158 9.80644 0.145926 0.103223 -0.491382
735 2.44464 5.7694 9.37826 1.69723 0.210518 -0.878697
719 3.65276 4.80026 9.10486 -0.588331 -1.2539 0.0559719
459 3.37073 5.68874 9.8991 0.873808 -0.343305 -0.495149
828 5.36682 4.94988 9.05254 -1.36889 1.11694 -0.57151
125 4.97242 5.20707 10.1321 -0.114874 0.36758 -2.80628
480 6.42015 5.42492 9.83531 -0.772266 0.162938 -2.25082
838 7.44892 4.78469 9.35786 -0.460589 -1.55802 -1.20932
355 7.79172 4.61943 10.364 0.812601 -0.138786 0.184596
116 8.71106 4.62288 9.42328 1.15766 0.510004 0.180768
483 8.38653 5.83262 9.83626 1.06095 -2.05778 0.158686
154 10.2847 5.29371 10.0648 2.06121 0.013084 0.889126
237 9.50159 5.41581 9.23595 -1.85625 0.904563 -1.18849
347 10.8494 4.6144 9.48168 0.225138 1.23005 0.570222
748 11.9245 5.60717 9.23112 1.75668 1.15775 -0.520329
41 0.477352 0.595517 11.5249 -1.37966 1.1937 -1.39756
613 1.47898 0.463054 10.5301 1.29402 -0.882174 -1.6486
412 1.57586 1.07562 11.6818 1.23168 -0.520864 -0.198707
607 3.07487 0.106953 11.8586 -1.55821 1.81584 0.0640385
326 4.60325 0.205778 11.0668 -0.83588 0.733791 0.0788482
393 4.70929 1.16635 11.614 -0.510826 -0.836368 1.2809
245 6.22576 0.895789 11.5577 -0.438489 -0.279223 0.0843524
605 11.0331 5.43145 11.7793 0.00932106 -0.125079 -0.206669
696 7.71019 0.56085 11.0382 0.858513 0.0841162 0.821545
738 8.4311 1.346 10.8891 0.0897743 1.62069 -1.06771
94 9.60274 0.984626 10.977 0.68103 1.57527 -0.189074
68 11.9293 1.43527 11.442 -0.356161 1.50988 -0.334688
843 10.9134 1.03373 11.0683 -0.877855 -0.520268 -0.176441
234 0.281177 2.64378 10.7347 -1.42376 -0.284017 -0.0228082
588 0.840246 1.81279 10.7552 1.66428 0.0787072 -1.00619
853 0.111208 2.41616 11.7853 -0.455299 -0.361219 -0.0554045
472 2.84133 1.92156 11.9664 0.708202 -0.275532 0.0766257
782 1.90871 2.73961 11.3589 -1.20974 -1.92891 1.55324
792 3.78261 1.62405 11.9195 0.441957 -0.227708 -0.993418
427 5.84012 2.28439 11.7318 0.127081 0.870168 1.47966
169 4.62762 2.18635 10.8626 -0.777442 1.09963 -0.682893
150 7.45845 1.78807 10.916 -1.34967 -1.08435 0.603696
512 8.667 1.73748 11.9231 0.142249 -0.906278 -0.369199
812 8.37896 2.69424 11.2945 0.085644 0.663292 0.316339
490 10.066 2.24921 11.2444 -0.737032 0.0440047 -0.446585
282 9.32502 1.95174 10.6506 0.321843 0.828931 -0.842358
677 11.1347 2.5584 10.8127 1.66882 1.17973 0.285766
760 0.859222 3.77557 11.7767 0.893928 0.764374 -1.75749
770 3.72157 4.12361 10.8754 0.872525 -0.0802762 -0.594401
102 8.06438 3.83575 11.0885 -0.660476 -0.0677376 0.655066
791 10.2733 3.44266 10.4788 0.788077 0.234148 -1.38474
131 10.2846 3.48906 11.529 2.13104 0.712987 -1.3257
405 9.23137 3.91305 10.9111 -0.412394 0.145901 0.523645
251 9.29373 3.26094 11.9628 -0.838731 -0.200293 0.925527
88 11.563 3.53689 11.5119 -1.65631 -0.229488 -0.328313
441 1.20458 4.85126 11.0041 0.645196 -0.0223816 -3.26203
747 2.49826 5.53945 10.5297 0.301046 -0.824014 -0.978539
657 2.61508 5.86815 11.6474 0.493978 -1.33369 -0.116098
229 3.89494 5.35003 10.8394 1.61627 0.976378 0.358088
107 5.91472 5.4092 11.7896 0.451628 1.0545 -1.12478
369 6.96746 4.72237 11.7986 0.619289 -0.422975 0.44443
465 6.92102 5.78622 11.7163 -1.88367 -0.618188 0.74228
687 6.09558 4.89288 10.7581 -2.00036 0.554801 0.617646
530 8.83646 4.9086 10.821 0.73355 -1.91282 0.546546
313 8.03846 5.74267 10.7424 0.0497291 -0.633486 0.280803
311 10.7063 4.62002 6.03939 1.36294 0.419604 1.74262
322 1.86119 0.00894859 9.73924 0.886962 1.30962 -0.30887
859 8.58087 4.09124 11.9979 0.402119 1.64646 -0.573776
704 1.28492 7.04044 0.765083 0.276775 1.81738 2.20201
437 0.58622 6.16185 0.208392 -0.122503 1.90228 1.38713
29 2.90615 6.89975 0.059448 -0.418579 0.326215 -0.50428
746 3.72535 7.2724 0.75706 0.0645828 0.389515 0.466392
146 3.91097 6.18533 1.21366 0.983317 2.31805 0.0281057
488 3.93876 6.53312 0.0508302 -1.28813 0.482712 -0.650041
581 5.39435 7.27019 0.639388 -1.70384 -0.876716 -0.198418
577 5.04632 6.18329 0.307135 -0.558956 1.53211 -0.402305
317 6.90831 6.67064 1.24402 0.698521 -1.30819 -0.930053
847 6.75998 7.26116 0.366728 2.69066 2.11654 -0.564258
394 6.26597 6.15263 0.613652 0.467301 1.2074 2.00361
764 8.6472 6.81047 1.32055 -0.65087 0.843967 0.659269
510 9.40015 7.00809 0.570519 1.72094 1.11516 -0.660459
153 10.2839 6.30813 0.815134 0.0575032 -0.131669 -0.156758
135 11.5488 6.28685 0.714468 -1.03332 0.277513 -0.123168
400 11.825 7.11956 0.0728198 1.05303 -0.409742 0.0845719
762 0.702948 7.72457 0.428347 1.56174 -0.65251 -0.759827
710 1.95555 7.85733 0.534863 -1.1291 0.163033 -0.294083
609 1.55954 8.67959 1.18067 -0.534241 -0.192568 1.16599
725 2.51619 8.90046 0.801332 2.5195 0.266013 0.752023
777 4.4377 8.28119 1.42779 -0.591767 -0.462823 0.763743
451 4.35111 7.84687 0.0914122 0.517417 0.0980188 -0.451671
388 3.34233 8.11814 1.25812 0.231715 1.26622 0.258825
714 3.31688 8.1758 0.107593 -0.0348388 -3.13964 -0.905233
736 5.23133 8.65308 0.658774 0.502352 1.02218 -0.0897318
93 5.77082 8.25718 1.46847 -1.10742 0.985812 1.11744
189 6.23442 8.24212 0.441519 -0.382747 -0.735219 0.110902
817 7.19088 8.30218 0.861079 0.366906 -0.149925 0.214087
654 7.91785 7.63587 1.43392 -0.0793142 0.583832 0.703744
784 8.57516 8.04247 0.15486 2.0317 0.523888 -0.220453
209 10.2701 7.53857 0.322177 2.40756 -0.27645 0.0644218
733 9.67398 7.71969 1.18138 -1.30689 0.269637 0.920103
720 9.88466 8.63471 0.442287 -1.15719 0.687032 -0.573299
674 10.8346 8.89362 0.446629 -0.197822 -1.96221 -1.23774
212 11.6999 8.6112 0.924206 0.0439766 -0.727119 0.198641
533 0.239836 10.1059 0.218658 -1.02064 -0.813633 0.0680705
173 0.820191 10.3124 1.31762 -0.565742 2.02187 0.773585
543 0.684998 9.15081 0.286975 -1.78482 -0.332918 0.239996
253 1.63962 9.80357 0.463049 0.79123 -0.741944 -0.515698
228 2.71852 10.3232 0.107267 0.642053 -1.05889 0.265456
270 1.67489 9.76689 1.50824 0.099816 0.719112 0.811788
445 3.17383 10.01 1.09388 -0.383367 -1.69885 -0.118336
16 3.34433 9.37226 0.227879 0.140565 -1.01403 1.22033
585 4.25855 9.23388 0.709846 0.313618 -0.670838 0.284376
192 5.17054 9.78048 1.48005 -0.080466 -0.221233 1.16759
478 5.39641 9.66533 0.0928546 -0.468656 0.8609 0.455739
497 6.65464 9.32669 0.387805 -0.588927 0.322298 0.322795
496 7.33778 9.91414 1.08779 1.005 0.451242 0.804582
493 6.07288 10.3134 0.943968 0.203642 -0.773305 -0.0846599
361 8.08354 9.09609 1.36152 -0.250373 1.02705 1.40559
839 8.75497 9.06175 0.237202 -0.0369739 -2.10132 0.459561
279 8.3493 9.98362 0.907405 0.938588 0.294444 0.964805
862 9.55784 9.53472 0.996541 -2.4091 -1.55348 0.526457
411 11.6821 9.63674 0.950484 -1.38042 0.372167 -1.99516
205 10.519 9.87625 1.27905 -0.838511 -0.844705 -0.0838835
286 3.67907 11.9668 2.27096 -0.160951 -1.25221 -0.375379
723 1.08168 11.2871 0.631745 0.472896 -0.350067 0.186124
415 2.80767 11.2592 0.748398 -0.108814 1.60526 -0.191358
836 1.83824 10.9033 1.32612 -0.679579 -0.226984 -0.0846678
649 1.64396 10.755 0.0314573 -0.0306116 0.422076 -0.418469
344 2.00392 11.9008 0.640201 -0.293714 0.68249 0.0955957
373 3.74174 11.6261 0.536418 0.366461 -0.180062 -0.37925
734 3.72308 11.1406 1.38804 1.84758 1.17953 -1.00064
569 3.83143 10.5207 0.374851 -1.06622 0.0963212 2.42847
542 4.92922 11.9754 0.787603 -0.393221 0.188965 0.0376197
461 4.8925 10.9192 1.49502 0.664816 -1.27591 2.06288
856 6.23464 11.8318 0.451314 -1.79002 -0.876837 -0.218791
668 8.63172 11.8669 0.688299 0.641644 0.615431 -0.0178794
8 9.67751 11.0898 1.19693 -1.08821 0.0864314 -2.91743
778 9.88551 11.8669 0.233081 2.35412 0.950727 -0.0615218
664 10.9682 10.9047 0.902179 1.50077 -2.51187 -0.403733
252 0.497926 6.85207 2.03644 0.581519 -0.551894 -1.7657
62 2.86107 7.3305 2.10791 -0.123021 -2.45014 -0.255135
413 3.9534 7.1545 1.74006 -1.4789 0.172785 1.15304
59 3.64616 6.21566 2.58632 -1.91639 0.129111 -0.197638
409 4.6899 6.19789 2.34683 1.37411 1.16649 -1.05186
582 5.05239 7.28063 1.70418 1.17069 0.576422 -0.927837
666 6.34756 6.96247 2.03137 -1.00021 -0.384795 0.220397
737 7.05391 6.6856 2.87262 0.153974 -0.110439 1.35821
744 7.76912 7.01 2.18118 2.54839 0.106217 -0.367139
334 8.84503 6.84782 2.48225 -0.192336 0.159283 0.0725737
36 9.71522 6.84679 1.76593 -0.0200192 3.29413 -0.488346
681 10.8581 7.15298 1.84807 0.017497 0.690598 0.847411
337 11.3626 6.64469 2.65233 -0.0397856 0.803394 -1.21484
504 1.28409 7.61352 1.9185 0.200249 0.00755764 -1.1658
661 0.639024 8.97622 1.46712 0.421667 1.00954 -1.63228
170 2.24183 8.25083 1.99844 0.426295 -0.473948 1.39888
695 4.38397 8.52894 2.43881 0.971724 -1.13313 0.195189
678 3.12315 8.29213 2.47805 0.851809 -0.765149 -0.956544
688 5.65843 8.6876 2.56873 -0.833793 -0.405538 -0.710756
289 8.8293 8.38953 1.95154 -0.148122 -0.958249 0.903002
438 7.57605 8.43709 2.20939 1.22587 0.399925 0.417243
547 8.38408 8.59012 2.92406 1.37235 0.333433 -0.762917
130 9.66179 7.83368 2.48902 1.17438 -1.01801 -1.36762
357 10.064 8.87849 1.76005 -1.06589 -1.13366 2.12271
235 11.5675 7.76132 2.50819 2.18217 -0.098977 -1.91683
233 10.5179 8.46101 2.76606 0.26527 -1.01195 1.68596
717 1.21594 9.27322 2.42195 -0.764079 2.33086 1.04491
206 1.88414 10.4405 2.27643 0.0200736 -0.147953 -1.92986
67 2.66399 9.20856 2.4257 1.26014 1.17068 -0.00209043
52 3.53731 9.06339 1.73559 -0.119233 -1.4557 -0.213548
351 4.16906 9.99002 1.63783 0.708368 0.430022 0.842766
288 3.16783 10.3847 2.26264 0.013022 0.615232 0.941346
535 3.78245 9.53813 2.80389 0.0791383 -0.316348 0.541091
520 5.72173 10.3968 2.18313 -0.356997 -1.28462 -1.36622
753 6.66183 9.1873 1.78561 0.831135 -0.0350611 1.35407
184 7.3177 9.53817 2.67329 2.07953 -0.346105 -0.145138
814 8.23489 10.1512 2.19076 0.462587 -0.513722 -0.498611
23 9.18921 9.50838 2.02541 -1.9761 -0.202358 1.29519
203 9.39683 9.21085 2.9999 0.752506 0.614266 0.934392
138 10.3404 9.78322 2.65357 -1.26036 -0.0820441 1.01975
257 11.1684 9.29177 3.01482 -1.78833 1.48413 1.2627
592 11.5365 9.35728 1.94621 -1.01013 0.358532 1.11722
77 0.924351 11.311 1.88899 1.82496 1.35741 -1.02026
809 2.58052 11.384 2.12282 0.300604 -0.30526 -0.568266
156 4.01346 10.8579 2.67265 -1.03297 0.0826114 -1.4324
424 5.96552 11.1235 1.49928 0.60739 0.503023 -0.0436434
397 8.35862 11.0126 2.75174 1.89624 -1.56706 0.879645
621 9.16887 10.6903 2.21267 -2.4552 -0.60421 1.67419
774 11.9467 10.9586 1.89002 -1.951 -0.337746 1.25932
532 10.9055 10.5606 2.0555 -1.02148 0.648361 -0.0376028
671 11.5596 11.7384 2.85914 -0.24706 -0.999141 -0.770062
647 1.0099 6.6515 3.81241 1.5762 0.15966 -1.52594
61 4.1474 7.05532 3.05751 -0.299117 -0.445644 -1.62622
383 3.9229 6.30242 3.96431 0.697544 0.863863 -1.13064
479 7.41493 6.6393 4.24395 -0.782475 -0.0501535 0.00549168
106 8.71708 6.75929 3.64554 1.39057 -1.24095 0.901363
294 7.88229 7.40355 3.41222 1.6296 -0.726477 -0.256146
360 9.59138 6.52981 4.20414 0.634756 0.792513 0.709818
436 10.2497 6.47311 3.27335 -2.10557 0.08414 -0.957066
449 10.7734 6.90736 4.23032 -0.282543 -1.40387 0.659134
128 11.9007 6.96675 3.7498 0.688005 0.790889 0.631685
751 1.42365 8.0631 3.49365 -0.0689312 1.80472 0.850001
422 0.357013 8.20861 3.22601 -0.725657 0.959089 1.77996
24 1.0719 8.88783 4.0968 0.0681598 -0.570747 0.324329
315 2.75571 7.83749 3.31481 -1.05205 -0.936334 1.31712
837 2.28237 7.79817 4.22007 -0.615923 1.22157 -0.0511895
513 2.77201 8.89157 3.4823 -3.05917 -0.562109 -0.698966
417 3.9968 8.18661 3.43223 -1.35849 0.126284 -0.420646
630 3.00556 8.54592 4.42924 -1.10524 1.15875 1.1134
794 6.58481 8.31238 4.4108 0.639212 -2.46885 -0.553892
711 6.58451 8.70155 3.30969 1.59914 0.308522 -0.228894
100 7.44395 7.70906 4.42921 0.246361 0.465076 -1.01742
163 7.60778 8.73806 3.75954 -0.484721 0.0680685 1.25291
309 8.54659 8.89013 4.21802 1.29188 1.41585 0.00757906
800 9.22318 8.3068 3.47801 1.66695 -0.236276 0.572706
804 10.4097 8.66292 3.82096 0.200484 0.511099 -1.45622
861 11.5721 8.68545 4.17427 -1.55445 0.512259 0.140619
164 10.8785 7.71112 3.53125 -0.0448284 1.26541 -2.53555
767 0.214732 9.22584 3.54785 -0.602309 -0.281098 -0.850366
329 2.79093 9.81037 4.15784 -1.68928 -0.102203 1.30908
396 2.02093 9.68492 3.49846 -0.554748 1.02811 -1.16523