ITEM: TIMESTEP
51980
ITEM: NUMBER OF ATOMS
864
ITEM: BOX BOUNDS pp pp pp
0.0000000000000000e+00 1.2000000000000000e+01
0.0000000000000000e+00 1.2000000000000000e+01
0.0000000000000000e+00 1.2000000000000000e+01
ITEM: ATOMS id x y z vx vy vz
745 1.50389 1.0839 0.793087 0.594373 -0.494141 -0.44503
538 2.70378 1.36184 1.23677 0.490886 0.367128 -0.217719
450 3.21533 0.1731 0.447374 1.57432 -0.99208 0.536608
357 11.0511 0.123082 4.70544 -0.0385318 0.975104 1.27615
3 11.4419 1.36253 5.93249 0.832136 0.502127 0.134798
214 10.7611 0.174515 0.556054 0.0978599 -1.15983 -0.52581
188 8.87629 1.11261 0.52234 0.469389 0.24059 -0.221483
393 5.10852 1.0986 0.407274 -1.27056 -0.589311 2.36269
509 8.96241 5.48287 5.95463 -0.476066 0.0418195 0.58906
202 10.5586 1.16108 0.62129 1.30932 -1.4968 -0.854574
696 10.7082 0.982494 1.88005 -0.425148 -0.968158 2.11861
479 4.76187 5.97162 5.44484 0.337831 0.0413746 0.985551
522 0.302 1.32669 1.48545 2.65799 0.106675 -0.862777
417 3.88973 1.20963 0.0664395 -0.0825871 0.175948 -0.25313
157 2.33604 1.61578 0.267322 -0.873682 0.254363 -0.118503
114 1.29111 2.51432 0.296955 -0.98449 1.14391 -0.098409
849 2.54033 3.02036 1.67785 -0.715611 -0.349392 -0.30568
414 3.15468 2.98625 0.146989 0.0973873 -0.772393 -2.12937
338 9.46008 3.18818 0.318511 -0.484405 -0.206503 2.46945
670 7.88303 5.84412 5.97359 -0.0455885 -0.182987 -0.222218
638 7.71891 0.443523 1.26313 1.41167 -0.488877 0.509101
712 9.14971 2.09619 0.218381 0.193036 -0.803196 -0.513571
306 8.29076 1.81196 0.822161 -0.429999 0.382235 0.884172
299 7.59162 4.098 4.49146 -0.101547 -2.46065 1.80989
171 3.73333 4.24423 5.05894 0.535122 0.0539269 0.986465
29 11.3604 2.13512 1.25209 -2.43678 -0.69893 1.03449
840 2.1192 2.95093 0.689364 0.0521807 -0.144499 2.1626
663 4.00227 4.41474 1.1398 -0.166915 0.980877 -1.14279
115 5.37332 3.80586 0.0407882 1.026 1.22688 0.0449401
59 5.31041 3.93779 1.51854 1.12537 -0.854569 -0.164302
542 5.35527 2.85754 1.44177 0.316933 0.0120719 -0.227934
549 6.69969 2.78674 1.20231 -0.981843 -1.38209 1.28911
54 6.43004 3.35798 2.11645 -1.51888 -0.193872 -0.948376
826 6.12689 4.02361 0.859197 2.01285 0.029948 1.47411
369 7.19355 5.90356 0.0725328 -0.100123 2.22975 -0.396716
713 8.36583 2.9254 0.41417 0.254942 0.00126669 0.831127
392 8.55683 0.382798 5.44994 -0.0745767 0.296763 1.30699
604 2.72639 5.07943 5.36825 -0.563932 -0.984671 -1.03883
137 8.80874 3.65612 1.24702 -0.178886 -0.780856 -0.0696848
822 9.79471 3.87255 1.16718 0.739334 -0.316914 1.79321
308 0.691355 0.883107 0.0835549 -0.246116 1.23279 -0.169666
53 10.9502 4.12122 1.62123 -0.243818 0.489875 -0.194214
790 5.88833 5.31605 5.22416 0.165684 1.62048 1.00993
430 0.235293 3.71271 1.32688 0.0195007 -2.80375 -0.233511
499 0.970687 2.79865 1.51224 -0.634906 -2.99949 0.709396
741 0.461075 5.0779 1.21531 -0.987358 -0.268424 -0.0110022
371 10.3645 2.61968 0.561843 0.952695 1.25787 1.14936
674 2.46755 3.98183 1.02137 -1.89283 -1.47563 -0.413375
448 1.38968 4.87696 0.65204 1.34937 -0.411054 -0.649513
474 3.13511 5.49551 1.76457 -0.183796 2.41578 -0.305851
589 4.24298 5.56001 1.42119 -1.52386 -1.42467 0.771126
618 5.32941 4.7891 0.736178 0.116452 1.41183 -1.27515
801 6.09985 4.73642 1.77803 -0.489068 0.399845 1.72115
107 7.73345 5.83745 0.991726 -0.532948 0.21698 0.20944
102 5.7041 5.88623 0.824616 0.395843 0.807258 1.7158
775 8.54575 0.112754 0.297387 -0.175517 0.547173 0.709191
744 8.84793 4.8261 1.05604 -0.168884 1.74059 -0.132143
192 8.03352 0.145648 3.69114 -0.671384 1.25676 -0.585062
494 10.6898 5.34169 0.547431 1.72692 -0.517714 0.335669
72 11.6536 0.675878 2.46527 -2.50115 -0.765299 0.124019
11 0.714497 0.627953 2.03713 -2.90869 0.249468 1.33437
570 4.63265 2.01708 0.767517 0.303362 0.481225 1.10763
429 5.44065 1.7591 2.31022 0.152603 -0.431173 1.11993
535 3.78664 1.27273 1.22318 0.840826 2.20237 2.22212
236 3.61818 0.692255 3.20601 -1.13071 -0.945109 1.25146
199 4.83669 0.23342 1.01437 -0.657432 -0.166717 -0.660139
705 5.61405 0.222191 2.10301 -1.32535 -0.793159 -1.23251
528 6.09468 0.57793 0.633872 -0.353058 0.607253 -1.40209
590 6.5506 1.43592 2.26479 -0.0446741 0.173849 -2.37226
650 8.08493 1.13369 2.53857 -0.553005 1.79978 -0.0698836
94 8.93854 0.663772 1.74707 -1.64509 -0.271848 -1.96039
514 6.60357 4.62766 5.1191 -0.380216 0.0979592 0.243938
532 10.5432 0.00930565 3.73292 0.737347 -1.80472 -0.699711
77 11.4632 0.627111 1.2125 -0.677573 -0.897103 -0.931893
422 8.52492 5.75829 4.74904 -0.922411 -0.850693 -0.265776
410 9.78695 0.534469 0.265027 0.373025 0.889255 1.64604
750 2.63943 2.24112 2.53222 0.604199 0.0846686 0.465932
99 3.47671 2.20349 0.686116 -2.66478 1.68744 -1.63206
285 3.51569 2.966 2.82881 -0.924525 -0.748708 0.470196
834 4.29025 1.97696 2.98502 0.520975 -0.958151 0.575123
415 4.13631 2.1175 1.74931 -0.531005 -0.580647 -0.211451
368 6.0299 2.79132 2.76498 -0.768828 0.396902 0.569709
2 4.88233 2.90815 3.20625 0.0388675 0.633918 0.186702
765 7.10745 2.69204 3.73029 -0.804149 -1.00681 1.12207
224 6.21514 3.85404 3.02056 -0.0455087 -0.0703211 -0.589474
12 8.93494 1.68049 2.49367 0.730613 0.460831 0.0913142
254 8.46907 2.23983 1.81197 0.42699 0.320839 -0.664139
402 9.66708 1.64986 1.36461 -1.34637 -0.412039 -0.472487
596 0.156686 2.29164 2.34836 0.103001 -0.112831 -1.40889
231 11.1169 1.80464 2.30256 -1.11412 -0.458173 -1.3015
413 1.16616 4.14002 2.73921 -0.450769 0.3598 -0.0115519
620 1.68067 3.66775 1.51049 -1.51307 -0.145615 -1.16416
858 1.80495 3.30744 2.47567 -2.25108 -0.493893 -0.540225
327 3.43341 3.75678 1.94794 0.705429 -0.760704 -0.164693
738 4.50217 3.40073 1.97366 0.31435 0.282606 -0.242205
611 5.29182 3.6772 2.53911 0.13913 0.237087 0.893296
427 4.44622 4.22475 2.85676 -1.25342 0.301824 0.228174
251 7.50645 2.89523 2.04577 -0.936991 -1.94896 1.56352
343 10.4434 4.05337 2.59738 0.892823 -0.428005 -0.0701096
28 8.70785 4.68302 2.26894 -0.536901 -0.0716887 1.93683
106 11.0533 5.41382 1.66206 0.175895 -0.679455 0.0503782
500 1.93566 5.4467 2.88379 1.38172 -0.596367 0.304467
341 2.47051 4.78445 2.16949 0.578903 -0.566574 0.676993
722 2.17101 5.78312 1.80007 -1.60769 0.865195 -0.675926
606 3.58609 4.70375 2.23394 -0.165331 0.812384 1.0735
434 5.29359 5.7074 2.84898 -0.846996 0.0454129 0.372714
119 4.87597 4.99645 2.11613 0.288678 2.02224 -0.484099
580 6.76085 5.19792 0.938906 -0.0397027 -1.51675 -0.896618
492 6.27459 5.15821 3.15615 0.848448 0.631952 0.677756
488 7.73259 4.81032 3.4702 0.530073 1.29195 -0.706856
226 7.05774 4.1092 1.80269 1.79916 -0.691021 -1.21789
129 8.78338 5.85115 1.40618 0.0582779 -0.345274 1.08081
605 1.91443 5.92282 0.00485762 0.0504118 -0.906497 -1.86831
629 10.8297 0.0485629 2.73846 -0.354938 1.63939 0.0967281
445 4.1213 0.175807 4.19425 -0.608975 -1.93428 0.361536
40 6.17361 0.580804 3.06054 0.229222 0.586819 -0.647646
602 2.38634 0.46284 1.80087 0.18084 0.03759 1.94751
798 11.7779 1.05239 3.55965 -0.703552 -0.0947692 1.40265
367 0.716863 0.255892 3.92509 -0.833345 1.73442 0.569644
387 1.66842 0.426613 4.5051 -1.16684 -0.398916 -0.49384
272 1.49997 0.955623 2.87901 -0.195729 1.89868 -2.49606
725 2.76001 0.204908 4.03235 0.0584918 0.304661 0.308155
286 3.44645 1.33565 4.69945 0.00333838 0.226786 0.49255
79 11.5032 3.85759 0.461548 0.810603 0.178432 1.03556
105 5.04218 0.972361 3.08347 -0.349027 0.0045253 -0.333305
193 4.49954 1.33367 4.05895 -0.889053 0.231842 -0.0159742
346 4.56321 0.74287 5.38636 -0.00336634 0.410985 1.46836
814 9.06431 0.631513 4.30284 0.260646 0.804108 0.255658
156 9.22371 0.761557 3.2985 0.383743 -0.49122 -0.377287
82 8.37988 1.74789 3.47696 -2.6802 -0.169517 -0.714791
653 10.0606 0.683033 4.44236 -0.385249 -1.09147 0.918052
243 8.68603 4.76436 4.57857 0.929137 0.59792 -0.326376
458 10.782 1.08346 3.19511 0.975259 -0.490336 0.341566
73 0.632356 1.07054 4.98533 1.08807 0.850456 1.76557
571 1.30863 1.20406 3.88225 0.587185 0.559253 1.36778
215 0.400584 1.45487 2.87325 0.0791971 0.568033 -2.03638
691 11.3854 1.97941 3.38605 0.574741 -0.174059 -1.13278
300 0.702087 2.20297 3.98819 -0.448484 1.07806 0.173562
726 1.47195 2.03568 3.25273 0.625821 -0.520595 -0.100766
198 2.52081 1.01162 3.33236 1.0155 0.023046 -2.61882
380 3.1406 2.1415 3.81673 -0.0580165 0.0678932 0.235608
617 5.06645 2.04668 3.67693 -0.701626 1.73769 1.3264
168 4.7816 2.32279 4.73471 -0.460601 0.998738 2.23306
280 5.85988 1.60599 3.28289 0.766755 -0.914692 1.23105
740 5.84132 2.86629 3.78845 -0.970911 0.55204 -0.63481
749 8.24734 2.78592 3.89249 0.814998 0.276313 0.339459
579 9.25913 2.47272 3.43504 -1.15438 0.203168 -0.0250285
685 9.83564 0.882664 2.44632 0.383041 -1.08893 0.202712
354 9.86486 3.04997 2.33723 -0.205825 -0.0311621 -1.1962
110 10.666 2.77818 3.0044 1.85966 0.708325 -1.45139
320 11.4823 3.02127 3.5565 0.213581 -0.490479 0.16454
630 1.19815 3.06605 3.54417 -0.290455 0.213934 -0.684585
311 0.61082 3.75468 4.17938 0.515023 -0.853729 -1.70791
437 1.03479 4.76122 3.61656 0.313425 1.44864 -0.306218
133 1.66061 3.2562 4.54792 -0.16168 -0.0740311 1.16792
388 3.43566 3.93294 3.20262 -0.264875 -0.446024 1.6914
536 5.34555 4.01592 3.65516 -1.55906 0.0514202 -0.73611
96 2.35561 3.10104 3.66403 -1.50742 -0.224536 0.425606
562 5.99198 4.66482 4.2577 1.84022 -0.105531 -0.276187
468 6.97923 3.96732 3.64713 -0.883832 0.562125 0.82955
464 7.21477 2.67611 4.8117 -1.45983 0.0127435 1.06415
397 9.25428 3.59887 2.97337 1.1519 0.65128 -0.884929
200 7.10219 3.48707 5.56039 -1.5029 -1.79776 -1.79474
768 9.59677 3.52409 4.16431 0.823982 -0.106857 -1.48096
477 10.1264 4.75019 3.91721 0.850279 -1.29276 0.127156
174 0.131846 4.09477 3.15293 0.21417 -2.20671 0.0927133
511 2.68317 5.17126 4.26246 0.840462 -0.172623 0.667373
540 4.11013 5.23725 4.16759 -0.290068 1.10073 0.920122
575 4.12243 5.51592 3.15738 -0.0291379 0.444528 -0.87106
170 3.1342 5.9062 2.84045 0.598337 1.24412 0.416878
132 4.99893 4.96345 3.58281 0.804464 0.330956 -0.368873
35 5.33083 5.7948 4.23909 -0.310046 1.90844 -1.20631
804 6.7186 5.37274 4.14044 1.91007 0.326152 -0.389241
423 8.845 4.74506 3.47643 0.711493 2.60086 0.426471
547 8.83229 5.97232 3.26469 -0.0104527 1.37777 -0.346518
307 9.49219 5.53983 4.1574 -0.214388 0.142215 -0.589933
577 7.49838 5.82226 3.05384 -0.499488 -0.409421 0.509708
177 11.755 2.0809 5.34397 -1.37326 0.884338 0.8426
660 1.39285 1.4334 5.80139 0.124173 0.672359 1.45219
661 0.724573 0.458597 1.01804 -0.473926 0.370641 0.0786644
182 7.46575 5.80407 4.88575 1.57119 1.0707 1.14232
353 2.42125 1.27332 5.78464 0.580246 1.66389 -0.402532
288 3.78679 1.33166 5.83891 0.792291 -0.0683085 0.317234
652 2.30055 1.71553 4.5226 -0.715776 -0.208085 -0.2361
144 7.00089 0.100161 3.49504 -0.635366 1.13851 -2.12937
666 8.94556 4.05003 0.0761651 -0.263752 -0.444982 0.104641
10 1.22402 5.44941 5.05328 -0.367302 -0.178966 -0.0544663
703 6.30078 0.156131 5.10044 0.153444 -0.875224 -0.249419
376 7.39832 2.59886 5.87042 -1.55044 -0.983284 1.93439
124 6.90535 1.10641 4.94848 -0.823273 -0.112454 -0.987495
147 8.08095 0.773269 4.53901 -0.0727438 -0.279469 -0.138418
273 9.48421 0.700488 5.34891 -1.22239 -0.576315 2.40838
812 6.16294 2.90582 0.11373 -0.0228692 -0.345521 0.183056
614 10.7045 1.91572 5.26112 -0.338546 -0.416368 0.572429
473 6.54448 1.38319 5.95212 0.597676 0.0258003 -0.013688
770 1.28117 2.03446 4.93357 0.295084 -0.640861 1.41021
140 2.46372 2.62046 5.19471 -0.169634 0.287807 0.249498
679 3.13161 2.21812 5.82345 -1.03723 -0.105261 0.53502
183 8.17868 2.87221 5.19975 -0.581617 -1.35296 -0.726289
295 5.40167 1.3762 4.82998 -0.970516 -0.855247 0.291275
264 4.96296 3.15849 5.34709 0.994098 1.35261 -0.136827
62 5.6013 2.31972 5.35107 0.595722 0.446933 -0.153467
247 7.87449 1.60862 5.78748 1.31279 -0.662654 -0.209181
457 6.38242 1.90629 4.19921 0.916275 -2.55939 -0.274285
662 7.84358 1.84236 4.52822 1.54228 1.95581 -1.02389
265 8.71605 1.37472 5.20692 -0.958072 1.1617 0.962918
175 8.94932 2.03304 4.46344 -0.136638 -0.2614 -1.80098
163 9.94021 2.02998 4.13671 0.642329 -1.64219 -0.95798
290 11.1264 1.34152 4.31395 -0.636712 0.908994 0.391328
51 10.8848 2.51459 4.28746 0.0473174 1.13611 -0.0448792
637 0.635997 2.81169 5.0998 -1.27914 1.32156 0.0753339
261 3.64224 2.96747 5.09049 -0.153169 -1.57063 0.457652
848 4.7108 4.94242 5.37535 0.0889315 1.31411 0.433585
724 5.23595 4.21124 4.83356 -0.734487 -0.922729 -1.29342
748 7.88108 4.78913 5.36863 1.23203 -0.474298 1.24937
565 6.12448 3.36477 5.05462 0.081636 0.458689 0.628585
268 8.74349 3.63085 4.57828 -0.528663 -0.175179 -1.06674
292 9.57244 3.77459 5.25641 1.09352 0.0891418 -0.580387
180 8.88474 4.539 5.62528 0.752987 0.076566 -0.909874
201 7.18537 0.378551 2.37048 -0.391604 -0.292041 -0.73644
225 9.53538 2.54932 5.28696 -1.56243 0.219417 0.122425
552 10.5279 0.632905 5.80148 0.988059 0.963038 1.04184
471 3.01366 5.08181 0.693672 -0.790971 -0.247009 0.413951
591 6.26378 5.07064 0.0458598 -1.09066 0.829508 -1.48754
491 7.11612 2.18924 0.340765 0.49611 -0.107194 0.316968
246 1.37193 0.39743 6.41298 0.583322 0.590807 0.454304
80 3.11574 4.30594 11.8372 -0.129901 0.978612 -0.662799
84 0.793885 1.29983 7.07749 -1.01059 -0.760991 0.706116
339 2.78037 0.856213 7.60187 0.287537 -0.880205 0.888634
190 2.25587 1.90345 6.89336 0.880892 1.06939 -0.406387
121 8.21709 3.75174 6.04761 1.03382 -0.703038 -0.453882
718 3.86732 0.656225 6.88059 -1.1693 -1.51331 1.31888
766 5.78714 1.57049 7.16233 0.659326 -0.12622 -0.310214
394 5.26382 5.56992 11.9057 0.983287 -1.63766 0.871296
425 6.99242 1.175 7.09375 -0.731819 -1.27275 0.336248
709 7.86177 0.380952 7.00427 1.69757 0.227422 -1.02016
692 4.93947 0.515787 6.55955 -0.486883 -1.1666 0.376181
454 9.16481 0.473114 6.44838 -0.164396 2.11496 -0.293865
395 9.9131 0.624406 7.91275 0.863569 -1.06484 -0.630455
352 8.86668 2.26341 6.10483 1.33056 1.28932 -2.07082
676 11.8842 0.720858 7.88499 0.943453 0.138918 1.14664
211 10.9581 0.52884 6.98172 -0.184278 0.214078 -1.1957
396 11.7656 1.54275 6.91465 -0.0967144 -0.280801 -0.625047
418 3.00456 2.88315 6.64654 0.523819 1.47117 -0.736294
593 4.51443 2.84661 6.73833 0.542315 -0.941704 -1.48342
159 11.6423 5.60155 10.3526 0.231399 0.0731199 0.630351
42 5.93795 2.66238 6.72805 1.54027 -0.456244 0.419399
406 5.40965 3.53588 6.30997 -1.15145 0.743244 -1.44434
573 11.7577 2.15002 11.5203 1.39206 0.0601329 0.0488236
194 2.76832 0.383095 9.55078 -0.210305 1.29697 -0.470305
255 8.23369 2.04983 7.67259 -1.94877 1.22468 0.344531
297 4.77629 1.52743 6.0672 1.8432 1.44751 1.12002
833 10.3914 4.08764 10.9506 0.516672 -1.22557 0.344987
628 9.33816 1.87121 7.16236 0.344498 -1.74795 -1.13727
314 10.4806 1.65021 7.01508 0.621837 0.285402 1.0072
302 7.23231 2.9932 7.51048 1.41581 -1.0098 0.983671
125 4.90794 4.51421 6.36826 -0.377701 -1.21557 -0.864918
432 4.51844 4.0167 7.3276 -0.259245 1.21865 2.47023
729 1.86393 2.68721 11.1884 1.73991 0.589783 -0.437863
259 6.6495 4.0691 6.2745 -1.28982 0.837243 0.611345
731 7.73148 2.02256 6.68998 1.61465 -0.0488643 0.264619
578 8.24503 3.15199 7.80166 0.510149 -1.69032 -0.0213304
677 9.22537 3.69479 6.66249 1.61391 -0.919421 0.823842
76 0.0355832 0.161573 6.59271 1.03198 0.897101 0.790943
506 4.08638 5.58674 7.26166 0.17703 -0.390683 -1.79119
139 5.26172 5.4992 6.27734 0.954635 0.596422 -1.66275
358 6.95016 5.58227 7.13917 0.182359 -0.603168 -0.31415
791 7.45797 4.70939 6.43075 1.06347 0.799418 0.904227
326 2.9744 0.398177 6.26978 -1.28636 0.435228 0.305662
111 9.42073 4.78285 6.85367 -0.52746 0.832139 -0.717393
518 1.75862 0.34756 8.17386 2.46788 0.267506 0.0210645
659 7.55078 3.9992 11.4181 -0.866331 0.583095 -1.81209
116 9.56748 5.9713 6.88581 -0.735263 0.096026 -0.916599
610 3.01504 1.18923 8.64152 -0.347343 -0.555259 -1.99858
810 3.97786 1.11684 7.89556 1.10213 0.0210427 0.115814
560 8.42433 0.0281945 9.34284 -2.11336 -0.548389 0.591021
19 6.90702 1.18915 9.05131 2.20877 0.941032 0.15429
639 6.14598 0.395199 7.84855 -0.192838 0.337073 -0.284017
324 7.6931 0.811132 8.36779 -0.573381 -0.578798 0.0417343
227 8.24446 1.56725 11.7557 -0.00829751 0.643226 -0.485647
669 10.9959 0.296474 8.47659 -1.49088 0.208223 2.7024
219 11.7699 1.07803 8.88061 0.36176 0.887575 0.60932
71 10.819 1.12235 9.74987 -1.14102 -0.376813 1.66029
818 2.34487 2.64619 9.04215 0.267136 -0.344945 -0.0307153
66 2.0082 1.41117 8.58593 0.502322 -1.09475 0.399698
296 2.92247 2.92175 8.2401 0.437569 0.832387 0.796814
328 4.87213 2.83557 7.99632 0.394105 0.454123 0.07559
282 7.00904 2.27514 8.23881 0.408535 0.589688 -0.312087
481 5.94585 2.00006 8.37203 -1.07718 -0.848515 -0.0582854
643 6.34882 3.25729 8.62763 0.822736 0.473789 0.223131
104 8.40403 2.916 6.83653 0.042674 0.814365 0.579578
381 8.91348 2.01807 8.56224 0.45459 0.695953 1.00877
13 11.9771 1.81871 8.13497 1.05651 0.832465 0.472647
186 11.0263 1.95248 8.65684 -0.579812 -0.699261 0.819651
811 3.32409 5.95836 9.15938 0.253679 1.36868 0.218328
221 2.28425 3.87803 8.97247 -1.55511 1.32647 0.886838
453 6.59193 4.48142 7.61005 -1.88265 -0.473521 1.09262
131 9.35928 3.02489 7.82631 -0.240436 0.989257 -0.212837
852 6.9421 4.10585 8.76298 -0.68328 0.808969 0.526682
31 10.9585 3.23281 10.5693 0.817707 0.0320084 0.201886
806 7.86512 4.24541 7.24855 -0.0526018 -2.80552 -0.906718
443 11.7944 4.56757 10.7072 0.973046 -0.0203486 -0.500604
355 5.93501 4.8232 10.8215 0.609017 0.0683323 -0.537178
112 1.70091 4.57168 8.26043 -0.54189 -0.0351392 0.0562025
459 4.69675 4.42877 10.3721 0.648592 -1.51614 1.17216
441 2.77704 5.28656 7.25514 0.537912 -0.351885 0.662071
433 4.10355 5.21557 8.38416 0.878282 -0.274128 -0.995516
229 5.68057 3.63589 7.68807 -0.245211 -0.778025 1.03324
728 5.00279 5.79444 8.19369 -0.67401 -0.232396 0.0635538
43 3.28333 1.45081 6.69352 -0.474445 0.200653 1.64731
743 6.48567 5.02357 8.61356 0.0563241 0.45409 -0.687731
860 7.65735 4.9822 8.14436 -1.02699 -0.746614 -2.107
701 9.32412 4.52842 7.82256 -1.94071 0.591293 -0.682095
756 8.77234 5.25911 8.69497 -1.69733 -0.416881 -0.00303508
769 10.0363 4.65671 9.20865 -0.927356 -1.33127 -0.340131
598 0.843504 0.442159 8.87303 0.721942 0.699599 -1.17335
632 1.80727 0.836062 9.65224 0.607434 -1.712 -1.42543
240 2.20895 0.422319 10.6644 -1.13691 -0.413931 0.431293
49 3.4879 1.54604 9.70412 1.02107 0.401138 -0.448635
150 6.92429 0.400745 9.86715 1.61553 -0.46626 0.891742
95 4.60916 0.758737 9.5264 -0.537874 -0.0333303 -1.09274
648 7.40847 1.18503 10.4583 2.81266 -0.97916 0.715124
234 8.43001 1.50469 9.6743 -0.0337806 -0.750843 -1.05201
205 7.76379 0.229571 10.7053 -0.309555 0.8965 0.765448
403 11.0851 2.14964 10.6233 -0.932019 1.33408 -0.988314
26 1.05733 1.81087 8.63082 1.25421 -0.93999 0.0782177
586 11.9619 1.46811 9.90696 -1.28387 -0.300161 0.245499
719 2.51205 1.69414 9.6381 -0.847507 -0.102713 0.790337
204 4.81652 1.82845 8.62298 3.35389 -1.28564 -1.35928
424 4.40358 2.9906 10.9877 2.06592 1.0931 1.25169
370 4.15907 0.150351 8.85673 -0.736674 -2.37847 -0.772599
57 5.81384 1.31794 9.37896 -0.332694 -1.36822 -0.638803
167 7.55273 2.07067 9.72741 0.319783 0.276459 0.860306
792 6.55591 2.20896 9.2242 -0.338897 3.60688 0.258956
37 8.79404 2.87805 9.18001 -0.155016 -0.0790064 -0.37332
821 8.17945 3.00253 10.2184 0.079383 -0.630132 -0.0253976
208 4.06663 5.04892 6.30579 -1.877 -1.04949 1.37491
45 11.338 2.47911 9.65895 -0.556512 0.907547 1.72365
635 1.65956 3.23511 9.80404 3.21668 0.153492 -0.44635
217 2.86926 3.26693 10.0374 0.683322 -0.571254 0.452072
103 2.69688 4.21206 10.1805 -0.648552 0.59826 0.0388415
687 3.99474 3.61219 10.1541 0.385606 0.650788 1.1839
508 3.85242 4.20355 11.2088 1.01645 -0.437165 0.350608
122 6.58865 1.78458 10.1956 0.887694 0.475318 -0.0791108
599 7.47269 3.08525 9.05956 1.09751 -0.831772 -2.3455
258 8.15625 3.86611 9.31253 1.14057 0.556906 -0.480543
828 9.37471 3.37642 10.0072 1.76454 -0.351394 -1.25742
616 10.0892 2.27078 8.74586 0.44966 -1.16387 -0.99564
612 8.98937 3.81809 8.45535 0.687157 1.14471 0.495112
401 10.1345 4.00003 8.38674 -0.526511 0.0760828 -1.14445
440 11.1715 3.63668 8.52941 1.91911 -1.09944 -1.22131
483 0.521848 4.67543 10.0242 0.442639 0.691968 -0.946445
760 10.8724 2.75029 11.4505 0.407767 0.526868 0.884889
153 1.11206 4.99168 10.9802 -0.0516826 0.0688043 0.744354
187 11.4491 5.5378 11.4993 -0.850415 -0.30659 -0.840485
220 1.26103 5.27196 9.79252 -0.0338076 0.653343 -0.350322
807 3.93174 5.8984 10.2877 -0.430012 0.332148 1.30835
490 7.38648 5.51252 11.0038 -2.01515 -0.339836 2.39493
455 9.03006 4.77555 9.8589 -0.271723 -0.667244 1.25318
363 10.3252 5.14316 11.5318 -0.0536946 -1.43237 0.453882
574 11.3786 4.63881 9.69631 -0.306519 -0.588355 0.429133
152 10.1589 5.4274 10.2631 -1.01448 1.4046 0.173414
250 0.2327 0.361637 10.014 -1.89753 -1.10174 -1.09406
15 11.9313 4.5155 11.7655 1.42613 -1.15335 -1.59113
169 2.52986 0.80433 11.7802 -1.69424 0.966528 -0.168858
757 3.51881 3.66629 7.09301 -2.99768 0.336078 1.20528
802 4.02393 0.887726 10.4794 1.43522 1.02911 -0.452199
782 4.64876 0.715232 11.5662 0.395139 -0.361825 -1.94177
734 5.49041 0.204209 10.9045 1.30287 -0.602487 1.07059
305 5.45759 1.64784 11.305 1.13599 -1.54252 -0.0846978
697 5.9197 1.09851 10.5432 -0.95135 -0.495388 -0.638157
619 7.21294 0.520961 11.6938 1.28688 -0.0662724 -0.169198
843 9.30849 0.255341 9.97974 2.84461 0.845894 1.13852
501 9.57231 0.228525 11.0263 -1.88814 -0.773003 -0.382344
816 9.90492 1.20221 11.5285 1.90451 -0.288339 -0.837383
808 9.32702 5.19228 11.42 0.370494 -0.0544178 0.0119891
41 0.337576 1.31313 10.9458 -0.387344 -1.11887 -0.584297
301 11.27 0.680499 10.9652 0.97112 1.83431 -0.609611
154 0.510023 3.15487 10.3492 -0.810565 0.647182 0.718071
345 1.24465 1.81838 11.4313 1.28193 1.09199 -0.724838
68 1.36767 0.659036 11.3239 -0.802778 -1.12817 0.435083
312 1.07131 2.09777 10.2449 -0.432323 -1.01839 0.28296
657 2.13441 1.51441 10.9387 0.80073 -3.01075 -0.960555
634 4.23573 1.88357 11.201 0.0835637 0.406502 -0.006235
645 10.8346 5.09285 8.50474 -0.255426 -1.46465 -0.932095
515 8.34674 1.90111 10.7323 1.12871 0.926614 -1.21724
682 9.70131 1.48113 6.23809 0.382048 1.0966 -1.55052
646 9.12074 1.82326 11.2413 0.968742 -0.819083 0.764045
435 8.71625 0.894605 10.9152 -1.23163 -0.381095 -0.226
489 9.23098 2.04365 9.76992 1.41606 -0.679022 -1.19879
405 10.0143 2.5868 10.9094 1.58979 -2.02662 -0.901391
151 9.76177 1.19352 10.3447 -0.270432 -0.335471 -0.100661
568 1.53546 3.9417 10.5983 -0.0209679 -0.882751 -0.246362
825 1.13522 4.09374 11.7864 -0.568086 0.565051 -0.298811
344 2.0819 3.7259 11.8146 1.25957 0.607854 1.00087
262 4.75721 2.66485 11.8549 -0.542321 1.01946 -0.85368
146 3.14352 3.27059 11.0922 0.125027 -0.71705 0.798033
242 4.49347 5.33107 11.1254 -1.9083 0.107846 -0.748194
530 7.52793 3.91063 10.3237 -0.650717 -1.12118 -0.613845
815 7.58357 2.71011 11.6361 -0.693357 -1.82899 1.92548
512 8.65274 2.82852 11.3922 -0.260845 0.401987 0.215624
771 0.920729 3.0839 11.4579 0.919814 -0.0668138 -0.367453
754 8.70217 4.21895 10.7952 -1.18262 1.58347 0.283066
356 1.04136 0.0359908 7.24581 1.32204 -0.0341737 -1.96831
366 4.22761 1.68013 7.05851 -0.835687 0.408303 0.130903
655 11.7288 3.53078 11.1886 -0.392042 -0.910504 1.65576
844 11.7709 3.7794 9.95378 1.15173 0.0593735 0.554971
783 6.35491 5.20548 6.20114 -0.993266 1.13847 2.16172
793 2.21389 4.83937 11.8772 -1.04918 1.30847 1.62288
507 6.06406 0.669365 6.65689 1.03631 -0.481549 2.28953
252 3.3417 4.99322 10.8968 -1.09446 0.159969 0.477568
269 3.41019 5.95913 7.96803 -0.487211 0.876037 0.673164
207 5.99019 0.380282 8.88025 -1.84528 0.601355 0.547801
61 8.16758 5.39062 11.7326 1.37745 0.172478 -1.50545
160 4.2189 3.67005 6.07828 0.398505 -0.352639 0.458754
517 6.81501 0.308475 6.08756 -0.425979 -0.958136 0.175315
287 10.4582 0.174601 11.4793 2.00401 0.857796 -0.0670083
361 11.694 1.19281 11.9451 -1.72686 0.7734 -0.775124
665 4.31084 5.97753 11.8871 -1.03789 0.170634 0.683452
601 10.7328 5.98609 10.9289 1.23072 -0.646937 -0.900324
817 6.32859 5.97491 11.2724 1.37178 -1.18396 -0.630485
859 10.3948 3.99547 11.9972 0.842838 -1.3167 -0.557376
400 0.227783 8.24853 0.0239219 -0.517766 2.17121 -0.934472
681 1.46139 6.00675 1.047 -2.4509 -0.736379 -0.306074
18 1.92269 7.03749 0.879542 0.415068 -1.80584 -0.203953
851 3.86219 6.67814 0.953292 0.327096 0.652102 0.724687
831 4.72295 7.28709 1.56853 0.644281 0.99981 0.664732
266 6.40503 6.97216 1.21764 -0.497897 0.13619 -0.321152
654 5.14968 7.18243 0.315301 0.668208 -2.55104 0.0592074
86 7.45032 6.55349 1.76506 -1.32038 0.218579 -0.416245
583 8.39069 6.62019 0.5461 0.461288 0.697245 0.00927222
742 9.43205 6.02807 0.294835 -0.251123 -0.544691 -0.18851
135 10.5647 7.04065 1.04865 0.735142 3.13444 0.11892
510 1.29607 8.63851 1.29944 -0.293049 0.715008 0.678825
449 1.10685 7.53477 1.49088 0.272965 0.86718 1.33627
710 3.2678 7.93639 1.22581 1.98226 -3.2144 -1.38308
228 4.21154 7.90228 0.517447 -0.600966 1.72692 -0.418375
531 3.18069 9.10739 5.91253 0.288995 -1.02931 -1.17452
516 2.67643 6.46699 5.94566 -0.692102 -0.737275 -0.508624
93 5.50305 7.80734 1.27792 -0.679828 -0.455252 -0.0307091
34 4.72449 8.88653 0.906348 0.126294 -0.320352 -0.192584
304 6.37095 7.58813 2.16472 0.0327551 0.708887 1.00671
98 7.29711 6.75245 0.750423 0.182558 -2.54399 0.0762015
736 6.83429 9.49749 0.719002 1.50722 1.03338 -0.606362
379 7.47295 9.4915 1.78619 0.70404 1.22141 0.0833544
694 0.827642 11.7431 2.69955 2.22336 0.610987 -2.75381
143 9.14742 9.47375 1.67759 0.889438 0.135654 1.07371
293 11.9459 7.57535 0.993189 -0.326901 0.760255 -0.28847
276 10.1096 6.38132 4.77246 -2.57238 1.10853 0.433889
185 10.2666 8.13227 0.589261 -1.31302 0.805669 0.337764
543 1.98539 9.79537 0.578727 0.461893 1.70926 0.282515
667 0.62175 11.5634 0.0557647 0.433672 -0.534108 0.575862
126 3.0169 9.85345 1.29192 1.02103 0.711236 -1.25341
336 2.78209 8.68519 0.647699 0.505886 -0.945588 0.409979
487 3.61057 10.0084 0.430615 1.01222 0.717336 -0.645937
797 3.66113 10.1926 2.13773 0.140969 0.865769 1.84548
64 11.899 6.04883 1.96716 -0.299802 -1.01672 -0.984565
556 10.3858 11.4944 5.24274 -0.711345 0.0327021 0.501755
658 9.37757 11.9105 1.07918 0.114697 0.525601 1.56966
277 9.84936 9.73991 0.468454 0.26599 -0.336501 -0.735138
533 11.2714 8.81618 0.869165 -0.878104 -0.461033 -0.634788
861 10.9769 10.5027 0.936798 0.586998 0.824313 -0.460586
767 1.62337 9.77675 1.69518 -0.924163 -0.00106437 0.255563
595 3.5893 6.96374 5.75907 1.47206 -1.3453 -0.278583
789 0.25621 10.3995 0.00613468 -0.758881 2.40488 -1.11948
615 11.3611 6.05299 0.808468 0.545196 -0.171106 -2.21717
239 2.61744 6.02596 0.755161 0.141933 -0.640617 -1.89176
85 0.142523 9.5042 5.59947 -0.900151 0.812997 1.33424
497 6.73145 11.5644 1.23238 -1.8637 -0.602082 0.738283
733 10.0377 10.8059 0.0275001 0.829675 0.99069 -0.87891
651 2.03065 11.7764 5.64695 -0.0265868 -0.542085 -0.487429
558 9.78768 11.4385 4.39369 -1.82798 -0.52186 0.721656
567 10.8197 11.8312 1.69784 -1.26998 -0.302668 -0.230881
235 2.19471 8.02291 1.38868 0.435541 1.48087 -1.3321
267 0.828445 6.51958 2.35658 -1.20914 0.171019 -0.287062
819 3.32706 6.96776 1.9566 2.38899 -0.179289 -0.0536715
525 4.35053 8.18547 1.80609 1.5277 1.8065 -0.27218
189 4.94794 6.38188 2.12157 -1.25234 -0.708117 -1.87711
730 9.22015 6.01174 2.31984 0.497429 0.69563 1.94581
520 6.65593 6.16645 2.43665 1.23265 -0.726356 0.248672
737 8.4653 7.33941 1.47179 0.341503 1.78055 -0.992689
90 7.47115 7.83832 2.0986 -0.279883 -0.0717368 0.255578
466 9.32469 6.98694 2.63336 -0.433757 -0.189829 1.21409
164 10.1294 6.0906 1.50238 -1.24482 -0.252206 -2.162
436 11.0012 8.14992 1.63147 2.53887 1.56836 -1.06153
70 11.2857 6.90054 1.7167 -0.417225 0.0775789 -0.336479
196 0.419983 7.55652 2.39123 0.133509 2.17884 -0.861505
209 1.52053 7.58487 2.6663 0.311852 0.491789 0.177097
270 2.22648 9.13808 2.15141 -1.0761 -1.37111 2.06269
52 3.19712 8.91666 2.14011 0.419389 0.416385 0.280307
649 3.81064 9.04135 0.948745 -0.462757 0.999896 -0.619813
820 4.796 7.608 2.65822 1.31154 -0.805161 -1.42264
16 4.69242 8.57092 2.70878 1.85679 -0.411791 1.34076
641 5.32059 8.90196 3.48642 -1.02594 0.159348 1.10429
496 5.40853 8.65857 1.94625 -0.6763 -0.314789 0.397837
753 6.37389 8.57659 2.87375 -0.0151989 0.977046 -0.214007
317 9.01123 7.91698 0.576869 0.902765 0.5832 -0.943833
582 7.03392 8.43274 1.2599 0.435021 0.638008 -1.66953
787 8.31607 8.72927 2.479 -0.648381 0.571579 -0.745642
716 9.0755 9.74828 2.7365 -0.589208 2.16894 2.07944
337 11.2174 9.52532 3.63781 1.66388 -1.33361 0.558053
592 0.383389 11.0868 1.06135 0.0722493 1.09406 -0.0820449
212 0.462104 9.68994 0.786613 -0.0472129 -0.370883 -0.0825571
206 0.791 10.6157 2.95657 0.48029 -0.708504 -0.136471
249 1.42663 9.66151 3.03926 -0.62662 -0.858921 0.806169
253 2.44754 10.0197 2.57302 -0.918595 0.09149 0.647449
75 4.57246 10.1064 0.231251 -1.17112 0.804491 -1.6362
21 4.81602 9.88378 1.42657 0.390481 0.457765 -1.78726
839 5.80165 8.81535 0.935757 -0.764412 -1.78605 -1.358
493 6.57107 9.13947 1.8969 0.149258 -0.69594 -1.0019
700 7.70448 10.7641 0.658599 -0.339311 1.19814 -1.38796
720 8.54755 10.1874 1.07365 -0.215522 1.39275 -1.34632
438 8.24598 10.5183 3.58904 1.08381 1.07444 -1.01059
708 10.9856 9.70788 2.58545 0.182635 0.558604 -2.1142
233 8.99738 10.9175 2.96027 -1.14349 1.79206 -0.316996
120 11.6492 10.2758 1.97824 0.687389 1.30321 1.15339
823 11.7568 10.4901 3.08573 -0.187694 -0.0437497 0.858605
27 1.30908 10.8597 1.77218 0.800412 -0.619497 0.520203
774 1.78801 10.7272 2.70701 1.65273 0.353441 -0.619437
513 2.76331 11.0234 3.31464 0.318631 0.839889 0.29004
298 2.14789 11.8614 2.89312 1.05654 -1.06204 -0.142896
564 5.95876 9.98331 3.21237 1.57959 1.34751 0.417837
419 8.28873 11.7599 1.67968 -0.083243 -1.12238 -0.880681
138 9.43205 10.8094 1.31489 -2.23331 1.1309 -0.828546
8 9.31978 11.5596 2.12597 0.0627892 0.140329 -1.14832
621 10.5155 10.9632 2.21871 -0.293522 -0.072801 0.620485
91 11.6903 11.5155 2.40338 0.159496 -0.0839888 -0.361274
101 11.631 7.68981 3.97326 -1.09193 -0.475572 0.615712
178 1.46838 6.07093 3.86971 0.217041 -1.51333 -1.01106
627 2.32837 6.72673 2.4811 1.41514 -0.367593 0.758935
24 4.15417 6.65003 2.74087 -0.456113 -0.624659 -1.35934
548 3.53011 7.97355 4.96161 -1.95686 1.65849 -0.446258
527 4.35203 6.66481 4.29065 1.68312 -0.217411 0.222332
581 5.60737 7.96317 3.26639 -0.240255 0.936497 -0.124501
678 5.06426 7.36771 4.95295 -0.563801 0.409384 2.53216
451 5.21851 6.57998 3.58894 -1.15793 0.0887372 -0.236781