ITEM: TIMESTEP
51320
ITEM: NUMBER OF ATOMS
864
ITEM: BOX BOUNDS pp pp pp
0.0000000000000000e+00 1.2000000000000000e+01
0.0000000000000000e+00 1.2000000000000000e+01
0.0000000000000000e+00 1.2000000000000000e+01
ITEM: ATOMS id x y z vx vy vz
745 1.42308 0.931183 0.69267 0.867898 1.03128 1.08051
538 2.46873 1.22145 1.30598 0.797521 1.94179 0.145854
450 2.74075 0.0937 0.78099 -0.739403 -0.631046 -1.7066
173 4.75143 0.422712 0.328422 0.414707 0.958372 0.608752
227 8.15998 1.28499 0.380361 0.367078 0.545118 -1.70751
214 10.7608 0.286792 0.792413 0.0664091 -0.310796 0.110026
188 9.44973 1.20171 0.733312 -1.16 -0.179336 0.0292956
410 9.77128 0.101744 0.03236 -0.251799 -1.06982 0.250244
361 11.4929 0.774447 0.30944 0.602146 0.46176 -1.98368
202 10.5161 1.35084 0.604275 -0.0726872 0.746097 0.526654
696 11.0743 1.1244 1.41182 -1.19779 -0.700094 -0.521095
479 4.23366 5.74193 5.06427 1.01883 -0.133686 0.180142
522 0.304101 2.10481 1.9023 -0.0744971 0.306708 1.67604
417 3.01919 1.49022 0.30244 0.914411 -0.622718 -1.3196
157 2.22354 2.41742 0.158635 0.687474 -1.14908 1.23256
114 1.45776 2.60187 0.775926 -1.37199 -0.767867 -0.642463
849 2.55353 2.50647 1.15012 -0.281343 -0.403966 0.753477
414 3.48374 2.80511 1.65213 -1.21526 -0.986334 0.486847
262 4.81723 2.08317 0.156498 -0.939791 -0.981624 0.0180818
812 5.8699 2.64829 0.0717543 0.393936 0.562054 -0.789941
638 6.84841 1.65481 0.888674 0.0839403 -1.57733 -2.31214
712 8.90885 2.07858 0.6921 1.02307 1.59784 1.23408
306 7.68665 2.26505 0.977506 0.262116 -0.708377 -0.625845
299 7.39902 4.95817 4.31851 -1.02269 -0.686184 -1.36369
171 3.43647 4.3834 5.21072 -0.303955 -0.219816 -0.869968
29 0.475321 2.92336 0.8182 -0.468795 -1.39592 -0.657
840 2.22916 3.44112 0.475195 -0.181812 -0.715412 -0.116696
663 3.92583 4.31409 1.08669 0.75991 0.103816 1.79888
115 5.01849 3.92709 0.1622 0.272074 1.53488 1.00529
59 5.27512 3.99952 1.16084 -1.24238 -0.758404 0.182755
542 5.45452 2.87012 1.36266 -0.871596 -0.085295 0.141996
549 7.13077 3.37108 0.183357 1.1295 1.30233 1.61993
54 6.61025 2.83404 1.82572 -0.400573 0.634912 1.19029
826 5.93584 3.46154 0.608996 -0.215994 -1.28405 -0.836531
369 6.78519 4.85403 0.475383 0.601088 2.46415 -0.935997
713 8.02234 2.89616 0.204369 0.0939395 0.996776 -0.318649
392 8.43413 0.785751 5.58081 -0.0198575 1.00631 -0.831136
859 10.1758 4.52337 0.207419 0.297002 0.322472 -0.553234
137 8.89368 3.16522 0.984747 -0.262834 -0.715702 -0.0494836
822 10.1269 4.04255 1.11723 -0.138673 -0.712877 -0.464806
160 4.35763 3.79365 5.85445 0.000147579 0.461791 -0.323802
53 11.1584 3.98582 1.19741 -2.20194 -0.45745 -0.106625
790 5.34783 5.27866 4.84701 1.40112 -0.290677 -0.761486
430 0.161661 4.67641 1.36253 -1.33448 -0.702032 0.451689
499 0.987002 4.22466 0.651804 -0.249071 -2.01669 1.95711
741 1.13323 5.43461 1.52714 0.427719 0.19212 1.16373
239 2.59058 5.97612 0.703297 -1.08533 0.511925 0.797367
674 2.81043 4.68107 1.08043 0.770251 -0.495252 0.378018
448 1.75037 5.07795 0.282469 -0.567804 -0.940898 -0.681839
474 3.8515 5.47179 1.17396 0.541846 -0.269316 -0.0148797
589 5.36781 5.86219 1.55213 -0.490679 3.21071 -0.209027
618 4.51984 5.1149 0.450272 -2.31951 -0.80215 1.57441
801 6.02604 4.68121 1.22599 -1.68859 0.274767 0.731808
107 7.44861 5.82665 1.04285 0.468955 1.26672 0.287056
102 6.13937 5.7737 0.651389 -0.602914 -0.0792685 0.792428
775 8.55278 0.162624 0.0823893 -1.38894 -0.757929 0.4723
744 9.21902 5.00484 0.860816 0.455975 -0.10852 -0.135932
15 11.459 4.44633 0.24149 0.132916 -0.792662 0.969512
494 10.3128 5.48722 0.643568 -1.01149 1.28316 -0.270402
72 0.5567 0.796697 2.17255 0.358212 -0.285361 0.562516
11 1.57317 0.464859 2.08968 -0.312053 0.448405 0.227758
570 4.98761 1.23094 1.00452 -0.758561 -0.99193 -2.98959
429 5.33613 1.61553 2.47937 -0.590211 0.33529 -1.62519
535 4.4179 0.331794 1.74442 -0.480572 0.609068 -0.769659
236 4.42251 0.837016 3.11048 -1.49392 0.358026 0.132863
199 5.4104 0.631492 1.94541 -1.80887 1.13619 -1.16947
705 6.47944 1.16264 2.4517 -2.41907 -2.18122 -1.03871
528 6.49135 0.240236 1.47698 -0.995469 -0.247665 -1.30593
590 7.37725 1.40937 1.90433 -1.04269 -0.67722 1.38089
650 8.29465 0.338554 2.80556 -0.0868192 -0.15093 0.89189
94 9.5001 0.703959 2.04609 -0.480344 -0.0996904 -0.436311
514 6.636 4.34643 4.79988 1.4771 2.10393 -0.280066
532 10.1299 0.222606 3.11604 -0.0130442 0.474769 0.982489
77 0.0261673 0.481696 1.2416 -0.744036 1.08635 -0.792172
550 11.6495 0.24847 2.9535 -1.29898 -0.799393 0.570869
629 10.9344 0.348289 2.20475 0.0718888 0.174699 0.693138
750 2.82515 2.33384 2.15785 1.82974 1.6554 0.316157
99 3.50103 1.77736 1.18349 -0.238179 0.0902539 -0.149486
285 3.43553 3.00931 3.08824 -1.43858 -0.00349543 -0.601572
834 4.03762 2.05778 2.70183 -0.172007 0.786266 0.311077
415 4.75334 2.10782 1.81873 -2.02433 0.212089 1.13679
368 5.80257 2.67584 2.48596 0.960023 -0.0505391 1.37282
2 4.7244 2.8869 2.78234 -0.590102 0.00528488 0.165921
765 6.96904 2.18673 2.63923 -0.553977 0.802094 2.90751
224 6.56353 3.20351 3.11464 0.239237 0.598061 1.526
12 8.60887 1.7054 2.36759 1.13707 -0.0711414 0.730063
254 8.18777 2.63322 1.8297 -0.577388 -0.756886 -0.0699333
402 9.4031 2.39634 1.66765 -0.0720153 -1.74682 -1.67559
596 0.212715 2.81506 2.76896 1.41211 -0.598293 0.576933
231 11.2549 1.70038 2.48226 -1.1888 0.150303 -0.225116
413 1.54681 3.90671 2.439 -0.403531 -0.95101 1.15851
620 2.28643 3.45658 1.59113 -0.742994 0.154798 0.32102
858 2.523 3.31472 2.56666 0.465621 1.44879 -0.641377
327 3.35087 3.91535 2.01388 -0.451385 1.27766 -0.426411
738 4.60562 3.48588 1.88929 0.708983 -0.199878 -0.804957
611 5.57783 3.97983 2.14237 -0.867532 -1.1806 -0.783116
427 4.11789 3.94924 3.04573 -1.25644 -0.902706 -1.04535
251 7.31152 4.02102 1.6883 1.09764 -1.17164 -0.204067
343 9.55246 4.071 2.67179 1.14536 1.09377 -0.366526
28 9.15042 4.66026 1.88851 0.145333 0.505466 1.62394
106 11.2884 4.75842 2.06145 0.589921 1.65369 -0.495374
500 1.48421 5.35265 3.04161 1.20857 0.511776 1.29599
341 2.59834 4.42727 2.51403 1.52962 -1.1665 -1.40194
722 1.9993 5.52618 2.04467 -1.59817 0.172719 -1.39988
606 3.98561 4.81201 2.40808 0.82002 -0.926904 -0.392709
434 5.56439 5.79321 2.75734 0.157918 0.126653 2.00391
119 5.55681 5.03965 2.20787 -0.302128 1.30848 -0.243809
580 6.41099 5.55 1.62303 0.103964 1.05033 -0.472609
492 6.12984 4.92522 3.12667 -0.906855 0.720196 1.63296
488 7.7152 4.91501 3.21383 0.0400405 -0.252519 0.948121
226 7.40586 5.05168 1.97573 -0.360011 -1.19663 1.48575
129 8.48993 5.73087 1.72775 -0.620961 1.39194 -0.716867
61 8.3306 5.33325 0.197208 -1.52575 -2.63967 -0.254783
730 9.5543 5.44289 2.50377 -0.588384 1.41783 -1.38223
64 11.3775 5.71073 2.66015 2.40093 -0.556979 -0.131251
40 6.54385 0.205585 3.94434 0.631841 0.353113 0.0420759
393 6.35188 1.57884 0.0353307 0.709032 0.336732 1.45263
798 0.455119 0.879196 3.47859 -0.936859 0.00484493 0.555625
367 0.876874 0.325147 4.22674 1.35884 -0.242209 0.628353
387 2.33993 0.872359 4.53581 -0.900809 0.0119122 0.183753
272 1.65909 0.469332 3.36525 -0.452564 0.55633 0.340562
725 2.84389 0.255618 3.42562 -0.0553289 -0.434085 0.635421
286 3.68021 1.46131 4.28945 -0.311061 -0.776732 -1.35901
79 10.8728 3.65139 0.257692 0.720883 1.20492 1.16336
105 5.7189 0.84941 3.17935 -1.69273 0.1048 -0.705425
193 4.8376 1.30318 4.09101 -0.769776 -0.907291 0.536576
346 4.46839 0.5876 4.64019 -0.550528 -0.0692224 0.757093
814 8.61954 0.156828 4.58636 0.364124 0.0171919 1.75317
156 8.93752 1.03007 3.29236 1.61799 1.00655 0.136837
82 8.80691 1.335 4.3833 2.20713 -0.207277 1.02991
653 10.2548 1.13135 4.07875 -0.570308 0.00354622 -1.5866
243 8.44498 5.38882 4.67653 0.64038 0.343343 -0.843805
458 11.2798 1.24698 3.4305 -0.984503 -1.02881 1.24508
73 11.8158 0.603353 4.55455 1.76488 0.987698 0.31789
571 1.32706 1.48028 4.11758 -1.307 -2.30564 -0.867633
215 0.992544 1.75576 3.07963 -1.44464 -0.755883 -1.23019
691 0.00370237 1.94043 3.64944 -2.00996 0.188976 -0.865028
300 0.801635 2.59156 4.07277 0.72562 -0.382639 -0.820151
726 1.81581 2.41935 3.38148 -1.40676 0.0530699 1.63003
198 2.30471 1.38861 3.61274 -0.749889 -1.20682 -0.221659
380 2.96605 2.13488 3.35418 2.13795 0.42708 -1.24012
617 5.45324 1.97946 3.38464 -0.964289 -0.20745 -1.6787
168 4.8452 2.30931 4.53679 -0.75747 1.82227 -0.401432
280 6.48015 1.66273 3.38063 0.249809 0.839361 1.76029
740 6.0562 2.59899 4.01134 1.18363 -0.513448 -1.51729
749 7.87359 2.66977 3.48237 0.702802 0.0681184 1.39936
579 9.302 2.06209 3.56804 1.16191 0.637942 -1.07516
685 10.029 1.45381 2.99199 -0.167411 -2.18187 -1.13763
354 9.46202 2.80839 2.70478 -0.191861 2.02193 0.236576
110 10.7463 2.26932 3.82226 -0.826395 -0.0672313 0.563714
320 11.808 3.08245 3.8956 -1.20044 0.376235 -1.0173
630 1.05416 3.31861 3.14129 -0.537018 -0.706436 0.693868
311 0.564946 3.83099 4.66368 -0.428117 0.501091 0.547458
437 1.33285 4.34049 3.85401 -0.671195 -1.4291 -0.239229
133 1.94491 3.23754 4.12204 -1.61969 0.349083 0.082693
388 2.82056 4.16526 3.61452 1.4199 -0.0284207 -1.57455
536 4.42372 3.55152 4.14297 2.39536 -0.743348 -0.341091
96 3.31904 3.09531 4.15094 -0.312157 0.214037 0.1613
562 5.12119 4.41484 3.97049 0.468888 0.864052 0.320635
468 7.78601 3.72621 3.28355 -1.02299 0.69321 0.550092
464 7.01824 3.12263 3.98497 -0.612142 -0.0784498 -1.16888
397 8.80615 3.53363 3.13669 0.898438 -0.423603 0.438598
200 7.81382 3.66623 4.8946 -0.869465 0.104963 3.16178
768 9.98619 3.43522 3.83869 -1.34102 0.230195 1.96929
477 9.39614 4.79255 3.56812 0.479949 -0.477503 0.0440724
174 0.255522 4.85295 3.15012 -1.40957 0.562055 -0.682746
511 2.30639 5.36554 3.8364 -1.33506 0.190924 0.791973
540 4.29822 4.86866 3.81348 0.191199 2.08463 0.858503
575 4.48855 5.79792 3.12979 0.502969 0.631725 0.0331568
170 3.6252 5.40567 3.34469 1.03398 -0.262987 -1.54227
132 4.86232 4.69241 2.86176 -1.13181 0.0139567 0.912489
35 5.36853 5.5236 3.88781 0.851152 -0.421348 -1.58373
804 6.655 5.56748 4.12677 0.0364241 0.76935 0.824494
423 8.45635 4.34269 3.72311 1.28661 0.469271 -0.716649
547 8.72021 5.54567 3.54484 -1.01237 -1.57375 -0.598553
307 9.87652 5.66592 4.44499 -1.0473 1.44044 -0.635755
276 11.1429 5.55267 4.00045 -0.35911 2.4867 0.347134
177 0.252469 1.91864 4.97793 -0.619787 1.41616 0.284843
660 1.12349 0.901042 5.05393 -0.774148 -0.198648 -1.96952
76 0.152706 0.0973162 5.82029 0.132694 0.849902 2.68196
651 2.27945 0.003501 5.62207 0.0740793 -0.800053 0.707377
353 2.24984 1.18135 5.75546 -0.495899 -1.38498 1.69695
288 3.45445 0.450628 5.08444 0.829831 1.04612 1.16632
652 2.95448 1.5647 5.02464 0.694025 -0.430057 0.906904
783 6.98199 5.01453 5.55111 0.268588 -0.242239 0.0576583
297 4.71307 1.63062 5.21529 -1.08896 0.603963 2.26877
10 1.70044 5.66354 4.70308 -0.154707 -0.656576 -0.0755596
703 5.90213 0.589255 5.13843 0.71919 -0.729806 0.683102
376 7.72071 2.77437 5.77868 -0.191376 0.531479 -0.98037
124 6.77112 0.934375 4.57521 0.180836 0.00476362 -1.94323
147 7.79407 0.785756 4.71391 -0.0595571 -0.0023528 0.501859
273 9.33152 0.691989 5.15213 0.492538 1.74299 -0.161864
682 9.74645 1.35136 5.97762 0.475189 -0.436376 0.646738
614 10.4271 1.47486 5.20978 -1.16473 0.79445 -0.364207
3 11.2357 0.94342 5.79852 -0.866174 0.963824 0.753457
770 2.00359 2.13927 4.49115 -1.94364 0.640259 -0.655042
140 2.8193 2.78927 5.05647 -0.511869 0.114261 0.0188503
679 3.57515 2.21164 5.42456 0.191759 1.12792 2.39122
357 10.6308 0.212536 4.10693 0.518965 1.28857 -0.344407
295 5.83538 1.426 4.44215 -0.0463105 -0.940096 0.311887
264 4.60465 2.77865 5.54782 -0.811562 0.164918 0.919022
62 5.54911 2.38392 5.49726 -0.788627 0.0301549 0.353948
247 7.3666 1.55344 5.31129 0.98415 0.15141 -0.415467
457 6.83991 2.43008 4.96812 -0.727645 -1.78065 1.08621
662 7.94042 2.17307 4.57053 0.248593 0.182769 -0.0176157
265 8.57163 1.75157 5.55743 0.348778 0.00618818 -0.144624
175 8.48114 2.81016 5.20302 -0.0501263 -0.271709 -1.33752
163 9.79384 2.17623 4.65045 0.748769 -0.377122 0.529982
290 11.209 1.69761 4.47093 0.341773 -1.03753 -0.329869
51 11.1324 2.72903 4.6268 0.741658 -0.796701 -1.32056
637 1.18229 3.04693 5.23893 -1.36865 -1.46264 -2.15134
261 3.70919 3.35357 5.0411 -1.50886 -1.62836 -1.25587
848 4.71044 4.34163 4.90043 1.74216 0.821528 1.7457
724 5.44417 3.68602 5.28446 -0.566805 1.74958 -0.762863
748 8.01272 4.81194 5.44026 0.224676 -0.978554 -0.127256
565 6.27869 3.22986 4.82417 -0.214793 -0.991009 0.0947042
268 8.97923 3.78505 4.52228 0.263821 -0.681544 -0.582325
292 9.35188 3.47224 5.43523 -0.576202 0.831337 -1.42407
180 8.94403 4.47592 5.68039 -1.25514 0.554497 0.24209
659 7.6728 4.38035 0.145416 0.947408 -0.051067 0.281123
225 9.87116 2.45557 5.86707 0.690617 1.22498 -1.25686
552 9.8978 0.157835 5.73753 0.368162 0.934539 2.06029
471 3.60763 4.90837 0.0387871 -0.262633 0.805088 0.436052
591 5.71865 4.68978 0.077384 0.883352 -0.450841 1.18635
670 7.5812 5.98794 5.69362 -0.230691 -1.60932 0.361674
182 7.46884 5.9804 4.59684 -1.81459 -1.55584 -0.818726
246 1.37424 0.527554 6.08003 0.548628 -0.270851 -0.439283
356 0.471886 0.0295694 7.44449 0.289547 -0.371056 1.3547
84 0.345978 0.797867 6.61096 0.626757 0.434346 0.431121
339 2.71375 0.693729 6.93987 0.408664 0.832803 1.64571
190 1.8503 1.55617 6.63862 0.857888 0.361055 0.311377
121 7.40811 3.99261 6.26942 0.0209497 -0.835108 1.25043
718 3.75778 0.724783 6.91532 -0.449902 0.135484 0.551552
766 5.6488 0.794869 7.11719 0.474099 1.78717 -0.149088
517 7.54929 0.839802 6.1097 1.49449 -0.691442 0.163947
425 6.53602 1.50111 7.12746 -0.364472 0.357329 0.706958
709 7.34471 0.665976 7.39871 -0.362896 -1.59636 0.621642
692 5.08675 0.465553 6.18666 -0.48843 0.317204 0.947258
372 4.49236 0.011009 9.35567 2.67819 -0.512949 1.36555
395 9.95731 1.28948 8.04802 -0.125763 0.553828 1.56148
352 8.82364 0.941204 6.62832 -2.4561 0.251879 -0.701554
676 11.5978 0.800261 7.38279 1.77856 0.457834 -0.901926
211 10.6293 0.242887 6.70502 0.243047 1.04302 0.0946565
396 11.7577 1.81042 6.89856 -0.47055 -0.800094 -0.312898
418 2.96224 2.16633 6.80444 -0.441078 0.390157 -0.208686
593 4.3576 2.71435 6.73295 0.650065 0.520749 -0.5273
159 11.8356 5.45296 10.5859 0.499836 1.26711 -1.15532
42 5.61583 1.95001 6.86075 -0.698195 0.781393 -0.325057
406 5.655 3.18846 6.60963 -0.643958 0.132207 -0.780021
573 11.9764 2.00427 11.8115 -0.385344 -0.0019219 -0.17244
473 6.52201 2.00434 6.12452 1.31261 0.469133 -0.774343
255 7.91656 1.6584 7.18358 0.227154 0.817876 -0.261462
183 8.78078 2.83809 6.19789 0.902072 -2.00548 0.197613
833 10.2251 4.37348 10.7011 -0.200352 0.0732539 -1.34694
628 9.30034 2.01969 6.88061 -0.24845 1.41605 -1.12649
314 10.5832 1.6475 6.57249 -0.834096 -0.0367228 0.0573808
302 6.3163 3.3169 7.29157 1.56786 -0.0252334 -0.0484291
125 5.23352 4.17778 6.69244 -0.971651 0.3079 -0.686163
432 4.79872 3.60514 7.33793 0.156882 0.532626 0.281577
729 0.844365 2.73375 11.7903 1.29659 0.366969 -1.65838
259 6.38945 4.3325 6.44695 1.20393 -0.384987 -0.344867
731 7.2963 2.58641 6.95563 -0.0845322 -2.75451 -0.413413
578 7.81628 4.3079 7.36966 -0.588861 -2.60269 -0.490962
677 9.10699 3.60663 6.63286 -0.328912 -0.819544 -0.503303
604 3.55177 5.37107 6.21546 -1.40897 1.28876 -0.749424
506 4.86243 5.71833 7.06533 -0.313275 -0.651418 2.1936
139 5.98282 5.27938 6.68919 -1.60662 1.60501 -0.345895
358 7.29063 5.67362 7.41298 -0.844531 0.50308 -0.694571
791 8.034 5.1493 6.63821 -1.87438 -0.291462 0.200968
864 0.77732 5.84467 10.0298 -0.949118 -0.170603 -1.07005
111 9.49473 5.0618 6.48476 -0.466848 0.477541 0.755321
518 1.05111 0.814869 8.67489 0.986153 -1.09861 -0.784605
325 2.21119 0.716285 8.45301 1.1245 -1.297 -0.132962
116 9.59979 5.9493 7.11191 -1.82576 -0.655008 0.399603
610 3.14257 0.857234 8.93882 -1.25669 0.768704 -0.202109
810 3.42659 0.99541 7.97842 0.558031 0.207618 0.498377
560 6.80157 0.223854 9.00515 3.04853 0.655195 0.650613
19 7.20639 1.52148 8.56995 -1.32968 -0.27361 -0.539394
639 6.30632 0.481957 7.89448 1.26552 -1.16645 0.394486
324 8.2547 1.55652 8.37461 -0.259219 -0.0195737 0.368345
686 7.98364 0.0405931 8.10445 -1.056 -1.20285 -1.18125
669 10.7264 0.254501 7.87313 0.338369 -0.683031 1.02947
219 0.14549 0.464551 8.38881 1.18249 0.316426 1.08308
71 11.3674 1.32347 8.96054 -1.1501 0.611428 1.06034
818 1.62639 2.75866 8.68105 1.10301 -0.355423 0.64079
66 2.02878 1.61395 8.26328 0.365637 0.281591 0.653031
296 2.63227 2.38778 8.27819 -0.612555 -0.0920594 -1.12649
328 4.85675 2.60911 7.86538 -0.153286 1.12627 0.488841
282 7.42908 2.4342 8.18288 -1.44405 -1.3321 -0.13551
481 6.07392 1.82414 7.91936 -0.780578 0.0424296 -0.806446
643 6.53541 2.83259 8.24343 0.19648 0.202089 0.339659
104 8.2328 2.71932 7.41907 -0.0272167 1.4063 -2.0105
381 9.27148 1.92586 8.53869 -0.169598 -1.13242 -0.645108
13 11.9827 1.9326 8.14668 0.389455 -0.20764 -0.545068
186 10.9478 1.73334 7.75412 -1.39207 0.220626 2.9277
811 2.83132 4.57932 9.30937 0.581634 0.0403584 0.684395
221 3.27097 3.44052 8.54142 -0.375081 -1.69432 2.13345
453 6.69088 4.12561 7.84046 2.09054 0.850646 0.0662718
131 9.09852 3.11949 8.37933 1.45737 -0.564997 -0.68491
852 7.60276 3.86274 8.4944 -1.59877 0.223429 0.13389
31 10.5628 3.27916 9.63122 0.778595 0.524984 2.57687
806 8.67688 4.48328 7.86449 -0.652539 1.2592 0.200095
443 10.9671 5.14719 11.3628 -0.399262 -1.38402 -0.469908
390 1.36325 5.61305 7.59116 1.18893 0.865494 -0.164136
112 2.18485 4.7366 8.21594 -0.0339579 -0.542849 1.14362
459 3.9613 4.72898 8.9112 1.73289 0.0350285 2.32684
441 2.67635 5.60401 7.27252 -0.109969 0.156034 -1.25419
433 4.20942 5.79041 8.50021 -1.29635 0.474593 -0.365069
229 5.57316 4.13491 7.89409 2.15802 -1.47332 -0.567789
728 5.19439 5.96617 8.08489 -0.145737 0.828437 -0.446313
43 3.29475 1.31533 6.22698 -0.674664 2.24334 -0.945374
743 7.04891 5.18996 8.46778 -1.67894 -1.23108 0.201638
860 8.12951 4.83932 9.22238 -0.304002 -0.484244 0.0979746
701 9.64556 4.92798 7.55164 -0.661305 -0.724848 -0.678264
756 9.10309 5.27961 8.72616 -0.483105 -1.22901 -0.30453
769 10.2109 5.16186 9.14559 -0.00876112 0.480497 0.73106
598 0.390801 0.402141 9.4504 0.395542 1.80945 0.887568
632 1.43397 0.913373 9.83252 2.401 1.24592 0.608116
240 2.61104 0.852084 10.1455 -0.430001 0.94745 -1.42555
49 3.62754 1.08011 9.9813 1.09001 0.465128 0.909212
150 5.87754 0.0788466 10.0235 0.434667 0.117414 -0.48093
95 4.86549 1.2189 10.3091 -0.0426637 0.741957 0.128237
648 6.82002 0.932943 10.064 -0.841208 1.30539 0.641906
234 8.20054 1.31063 10.1329 -0.546843 -0.928117 -0.697757
205 7.72126 0.232171 10.3788 0.520983 0.360966 -0.49776
403 10.9839 1.24532 10.2638 0.821695 1.20111 0.382847
26 0.787012 2.29955 9.12117 -1.31688 -0.276516 -0.74523
586 0.431444 1.31241 9.96522 -0.00926396 -0.720339 -0.282165
719 1.90556 1.98496 9.6573 2.51771 -1.63954 0.00172922
204 3.39821 2.38014 9.16565 -0.790979 1.04961 -0.801374
424 3.18189 2.51313 10.4879 1.19893 0.566065 0.303431
370 4.32872 1.32491 9.12807 -0.102931 -1.38935 -1.29304
57 6.04033 1.58896 9.98157 1.47422 -1.73663 -1.22426
167 7.38205 2.10953 9.54716 0.270168 -0.212979 -0.475279
792 6.51969 2.21681 9.04297 1.0354 -0.108129 0.149364
37 8.21196 2.43075 8.84198 0.745012 -0.785072 0.702641
821 7.81487 2.95296 10.2057 -0.538262 1.39642 1.3855
853 10.2037 0.976868 9.3358 -0.38413 -1.61152 -1.23063
45 11.5722 2.57964 9.62202 0.820292 -0.156004 -0.57912
635 1.17082 3.31878 9.80492 0.969539 -0.148272 0.262474
217 2.13927 3.07147 9.46857 1.87853 -1.62916 0.963075
103 2.32305 4.44602 10.1623 2.24472 1.48129 -0.15872
687 3.53496 3.99573 9.63419 -2.04245 0.0594806 -1.68142
508 4.44606 3.53676 10.2932 -0.00233398 0.622787 1.47578
122 5.76376 2.56086 10.3816 0.629905 -1.32844 1.52195
599 6.8349 3.09192 10.0366 1.44104 0.161447 0.173431
258 7.67686 3.80674 9.5825 1.19564 0.894781 0.0962855
828 8.7569 3.46737 9.92577 1.63349 2.03012 0.068188
616 9.50304 2.86225 9.4119 0.482134 -0.28269 -0.963052
612 8.84749 4.11936 8.89669 -0.78934 1.77035 -1.85924
401 9.87793 4.24168 9.7714 0.267294 1.35535 -1.65512
440 11.0549 4.06924 9.11502 -1.03754 -0.733139 0.584229
483 0.135942 4.31833 10.5791 0.902894 -1.1559 -0.651452
760 10.5328 3.36524 10.6856 0.611642 0.275257 1.30116
153 0.94218 5.13114 10.7221 0.0927982 0.196822 0.816972
735 2.79806 5.65507 9.47581 -0.661581 2.08843 0.577517
220 1.78709 5.31645 9.81283 -1.63388 0.296271 -0.179555
807 3.71558 5.65635 9.96002 1.20356 0.369427 0.44389
490 8.25562 4.89544 10.2053 0.166415 1.51663 -0.292246
455 9.4319 5.03958 9.91702 -0.422451 -1.99559 0.0525019
363 10.2345 5.77021 11.5842 2.37088 -0.823316 -1.31888
574 11.4517 5.17076 9.55369 -0.529979 -1.33276 -0.344702
152 10.5533 5.20571 10.3283 -1.01371 -1.40903 0.54276
250 0.993807 0.457253 10.7179 -0.0121947 0.412241 0.36423
308 1.23911 0.0931166 11.7557 0.539469 -0.9849 -0.820749
169 2.60186 0.807796 11.5552 0.515914 0.222941 0.702999
757 3.43562 2.91918 6.11045 -0.336039 -0.1623 1.15124
802 3.5371 0.300073 10.8322 0.325908 0.954565 0.176777
782 4.30355 1.27508 11.8064 1.32658 -0.141904 -0.451738
734 5.14406 0.331168 10.9989 -0.0011778 -0.482569 -0.373308
305 5.45283 1.89974 11.2201 2.18568 1.93386 0.351499
697 6.00666 0.877278 10.8415 -0.855194 -0.668136 -0.0354692
619 7.09414 0.409582 11.4396 -1.21263 0.801895 1.3476
843 9.00521 0.543302 10.5306 0.774754 0.337884 -0.447974
501 10.1758 0.286371 10.6924 0.984118 -0.836924 -0.315715
816 9.66152 1.11356 11.6222 -0.957357 1.05283 -1.24422
808 9.35723 4.99653 11.4818 1.24456 0.53326 -0.0509277
41 11.9456 1.07572 10.8221 0.203946 2.18879 0.162377
301 11.1694 0.621523 11.295 -0.683726 -0.475268 -0.938915
154 0.291555 2.15199 10.8215 -0.574199 -0.810137 -2.07672
345 1.01415 1.55981 11.4644 0.649213 -0.701127 -0.226315
68 1.72889 1.16221 10.917 -1.71845 -1.01048 0.226507
312 1.53929 2.57187 10.4849 -0.667745 -0.405759 -0.462525
657 2.25218 2.07965 11.1025 -1.28118 -2.26715 -0.600555
634 4.04977 1.8182 10.796 -0.0420783 0.395372 0.674491
509 8.81593 5.92766 6.0914 1.6792 -1.17513 -0.692117
515 7.22097 2.36091 10.9311 0.966217 -1.27121 0.23131
491 7.11285 2.37093 11.9586 -1.4372 -1.12614 0.6549
646 8.88349 2.43775 11.4963 1.24011 -1.20932 -1.17538
435 8.67273 1.36963 11.159 0.916535 -0.732889 -0.578928
489 8.84516 2.09768 10.5057 2.23737 0.575952 -0.332582
405 9.50841 3.02216 10.6138 0.130295 0.284592 1.65097
151 9.81945 1.31772 10.5566 -1.18234 -0.624809 0.213072
568 1.4163 3.90189 10.692 -0.693405 0.662696 -0.363867
825 0.685229 4.34911 11.5402 0.671808 0.399402 0.409359
344 2.14505 3.33915 11.2827 0.452294 0.587276 1.4284
80 2.7103 4.31107 11.6854 2.51401 -0.273569 0.366094
146 3.27735 3.85464 10.8001 -0.076568 0.184508 0.972796
242 4.74163 4.55052 11.2877 0.332549 1.80061 -0.986608
530 7.83687 4.09594 10.7354 0.172964 -1.55512 -1.02114
815 6.94124 3.46018 11.0817 1.33782 -0.309668 -0.992349
512 8.16233 3.32154 11.2277 0.670206 -0.630197 -2.25098
666 8.92639 3.88352 11.9391 0.680915 0.353546 0.796132
754 8.99505 4.14022 10.716 0.302365 0.0219774 0.185819
338 9.78621 3.39619 11.5997 0.546975 -0.222063 1.21555
366 4.52256 1.50639 6.27028 1.57662 -0.193893 1.60421
655 11.3045 4.15222 11.1403 0.908564 -0.542035 0.134369
844 11.8661 3.21547 10.7473 -0.489604 0.423347 -2.21328
155 2.80543 5.69856 10.5611 0.0993547 -0.514946 0.157783
793 1.75771 4.6361 11.2932 1.12333 0.450568 0.790605
48 3.37084 0.0311789 7.52916 1.77176 -0.412127 -0.46185
252 3.80307 4.7994 10.8518 -0.310868 -0.63036 -0.423647
665 4.26473 5.93434 11.9967 -0.51838 0.373247 0.535321
127 4.86897 5.4329 10.7598 0.909399 -0.556304 0.99555
394 5.29563 5.83337 11.9771 0.608113 0.34331 -0.111118
223 1.7402 0.215892 9.31172 -0.283194 1.59623 -0.536567
355 5.94638 5.30824 11.0206 -1.45779 -1.36268 0.340342
747 8.71736 5.88027 11.1448 0.259757 0.138252 0.454112
371 9.83378 2.11925 11.9826 1.06255 0.401328 0.503807
771 11.8748 3.10506 11.7336 0.441805 0.846901 -1.09472
507 6.27127 1.03644 6.17013 -0.571191 -1.57824 1.48431
218 3.79162 5.93291 7.01443 -0.698797 -0.581767 -1.5073
454 9.09842 0.0134846 6.54531 1.85262 0.546497 -0.949046
400 0.835174 7.25663 0.364581 -1.47172 1.17422 -0.914729
681 1.68261 6.55185 1.23167 -0.244332 0.0910478 0.0831319
18 2.34474 7.14141 0.630218 -0.987933 -0.405207 0.954918
851 3.81527 6.42112 0.827587 0.523726 -0.236903 1.00994
831 4.76432 7.12651 1.18144 -0.611301 -0.556922 1.25029
266 5.82825 6.76161 1.32362 -0.105757 -0.691651 -0.520371
654 5.4429 7.15043 0.2497 -0.542049 1.20172 1.30716
86 7.05962 6.64511 1.6307 -0.205397 -0.46508 1.23553
583 8.36627 6.32173 0.59192 0.0146912 0.596923 -0.105454
764 9.27899 7.15427 0.385721 1.34441 1.43146 -1.26635
135 10.393 6.61815 0.201158 -0.843564 -1.49968 1.31497
510 1.36596 8.09807 0.679865 -0.747403 1.19857 0.709455
449 0.587663 7.51456 1.61838 0.300908 -0.0704237 1.10135
710 2.71189 8.01981 1.08442 -0.422268 0.775676 1.87825
228 3.70768 7.45638 0.986639 1.69575 -2.65927 0.914351
605 1.20288 6.28689 0.21562 2.01452 -0.261442 -0.390156
688 4.29935 8.50297 0.370361 0.32723 1.47275 -0.121091
93 6.09092 7.98498 0.759794 -0.420973 -0.166685 0.546063
34 4.70656 8.14327 1.62335 0.773703 0.507656 1.24316
304 6.53348 7.62996 1.53981 -0.142935 -3.00666 1.11807
98 7.46014 7.87448 1.12494 0.858459 -1.45332 -0.43862
736 7.92622 9.46335 0.361592 0.191911 1.9014 -1.02577
379 8.46073 8.5824 1.32029 -1.08702 1.87591 -0.0752857
841 8.54225 8.61884 0.0232565 -1.71762 1.04171 -1.00316
143 9.36511 8.11635 0.993023 -1.5085 1.71238 0.889927
293 11.5406 7.77225 1.13317 1.9941 -1.98563 0.368007
210 3.38343 10.5449 5.96113 -1.41101 -0.337101 -0.319093
185 10.2436 7.49191 0.652694 0.0880035 -0.577856 0.699162
543 1.12372 9.45189 0.604807 1.516 1.2738 0.134771
667 0.380944 11.3265 0.0737511 1.57518 -0.201314 1.6862
126 2.07153 9.82741 1.55662 0.61781 -0.780726 1.24053
336 2.14479 9.04228 0.38446 0.737458 0.241555 0.41787
487 2.83164 9.78171 0.520522 1.51332 -0.899266 -0.00697433
797 3.50849 9.73187 1.33706 0.268413 1.05364 -0.0362447
502 5.37333 8.93231 0.253662 0.515029 -0.923036 -0.837439
856 6.50956 9.35431 0.22243 0.188832 0.710621 -1.40149
658 8.91612 10.9336 0.96639 1.5313 1.23215 1.1914
277 9.78439 9.69375 0.853104 0.132649 0.119265 0.220426
533 0.09474 9.08633 0.885966 -1.87218 -0.994828 0.12367
861 10.7275 9.93559 1.18162 -0.0230252 0.227584 -1.32103
767 1.28036 10.5335 1.45092 1.98348 -1.6371 -0.310945
661 0.677142 11.7949 0.976562 1.74715 -0.613888 -0.875206
789 0.827591 10.4618 0.447814 -0.0745707 -1.83017 -0.636114
602 1.71103 11.9474 0.970714 -0.270255 0.799339 0.751865
384 1.94906 11.401 0.075732 0.438482 1.08313 -1.76986
85 0.884201 9.67769 5.54694 0.0296298 -1.10331 -0.0266525
497 7.83336 11.8144 0.768364 -1.37632 -0.180708 0.152844
733 10.0055 10.8231 0.651184 -0.0436472 -0.433093 -1.05077
813 9.18758 11.2437 0.000329425 1.29807 0.391638 -0.672426
287 11.1071 11.185 0.252317 -0.74984 1.19243 0.502225
567 11.3647 11.5684 1.16523 -0.609178 -0.485235 0.134
235 1.83242 7.67564 1.62631 1.59055 0.517067 0.350225
267 1.02501 6.36661 2.68344 0.0238442 0.471117 -0.941221
819 2.70555 6.8565 1.49642 1.17044 2.19857 -0.805055
525 3.54483 7.77204 2.04785 1.04617 0.98903 -0.331087
189 5.13865 6.61736 2.13519 1.43575 -0.121714 1.32091
577 7.26885 6.09017 2.52866 -0.0469555 0.670673 0.930095
520 6.35477 6.79475 2.25216 -1.06476 -2.84442 0.178826
737 8.09621 6.71413 2.04226 1.47096 -0.0693037 0.259623
90 7.61011 7.51961 2.29847 1.3287 0.411706 -2.05595
466 9.15958 6.71504 2.51843 2.05661 -0.644902 0.112709
164 10.1441 6.29384 2.66828 -0.814109 1.08552 -0.431374
436 9.95994 6.87187 1.68902 0.901041 1.35275 -0.295782
70 10.9722 7.23099 2.18097 0.625426 -0.500292 0.0901972
196 11.9822 6.93335 2.38761 1.21001 0.359784 0.0748482
209 0.728826 8.08387 2.49187 0.779811 -1.46046 0.258467
270 1.69148 8.7575 2.13196 1.03337 0.940721 -0.303597
52 2.85814 8.81011 2.18446 -0.484406 1.09586 -0.705846
649 3.66129 8.55113 1.38432 0.220096 0.378435 -1.16693
820 4.70658 7.4016 2.60023 1.15925 0.467695 -0.165348
16 4.27839 8.72269 2.59381 -0.208313 0.218149 -0.498989
641 5.46636 8.37236 2.93107 -1.77372 0.118521 1.3451
496 5.88731 8.41935 1.83491 -1.06914 -0.461449 -0.0891323
753 6.55123 8.13912 2.68696 -0.115872 1.08807 1.26433
317 8.56372 7.55727 1.64424 -0.415772 -0.570665 -1.60235
582 7.2986 8.50048 1.95283 -0.97584 1.13359 1.05967
787 8.16471 8.33818 2.44309 -0.869925 -0.972379 0.524595
716 9.47052 8.63438 2.19398 -0.252088 1.344 1.46211
337 11.0726 9.16757 3.00159 -0.191014 2.23295 2.11093
592 0.12254 10.5951 1.43846 -0.852378 2.17426 -0.491204
212 0.959094 9.1782 1.58573 -0.207869 0.328025 -1.06697
206 0.580918 10.3032 3.01334 0.0742479 0.985693 0.780054
249 1.77022 9.82827 2.57862 0.264478 -0.151567 -1.31776
253 3.03001 9.83376 2.3964 0.80624 0.287965 0.61757
75 5.19801 9.08406 1.41545 -0.541381 1.04763 -1.57123
21 4.83407 9.56254 2.42603 0.0206631 -0.799376 -2.22934
839 6.65967 9.26758 1.39389 -2.13276 0.228645 -0.686486
493 6.22594 9.38582 2.7392 0.419808 -0.27417 0.860095
700 7.00515 10.4915 1.30501 0.95876 0.422086 -0.973421
720 8.73458 9.86028 1.56393 -0.349176 0.215 -1.04444
438 8.05357 10.2401 2.91056 -0.158414 0.183507 1.69157
708 10.1732 9.73663 2.09019 0.947317 0.288187 1.60526
233 9.29375 9.86306 2.67074 0.665783 1.59603 -0.829104
120 11.8483 9.65104 1.86806 -1.35226 1.38398 -0.9779
823 11.6192 10.4296 2.67042 -0.668056 -1.19809 0.617421
27 0.702031 11.365 1.92125 -0.43898 -1.2385 -0.145082
774 1.94181 10.8772 2.29356 -0.696513 -0.528318 0.523521
513 2.48304 10.4618 3.20113 -1.92235 0.391678 1.7693
298 2.90347 11.3915 2.51457 0.995855 0.37117 2.60092
564 5.59595 10.3928 2.6925 0.543184 -0.361689 0.914107
419 8.40278 11.5783 1.71976 -0.455493 0.601215 0.295305
138 9.69033 10.4648 1.58148 -0.884241 0.642859 0.418376
8 9.62921 11.6275 1.99865 -0.498992 -0.491106 0.361625
621 10.6029 10.7166 2.28932 0.00501573 -0.0669004 -0.151265
91 11.6674 11.5609 2.06711 0.278394 0.506588 1.1328
101 0.228615 7.42475 4.05949 0.189023 1.16837 -0.986766
178 1.37887 6.81997 4.33353 0.268868 -1.49299 -0.116038
627 2.57265 6.3546 2.94905 -1.48096 1.29575 -1.54291
24 3.93296 7.01592 3.20528 0.165321 -1.20931 -0.104953
548 3.88605 7.03108 4.54866 -0.278199 -0.0876098 0.14758
527 4.57626 6.34036 4.07372 0.397049 -0.124501 -1.21705
581 5.83457 7.35926 2.94495 -1.29199 0.354871 0.559585
678 5.35598 7.00847 4.20293 1.05461 -1.10657 -0.244294
451 5.04638 6.75218 3.24481 -0.450135 0.640285 0.620265