ITEM: TIMESTEP
40540
ITEM: NUMBER OF ATOMS
864
ITEM: BOX BOUNDS pp pp pp
0.0000000000000000e+00 1.2000000000000000e+01
0.0000000000000000e+00 1.2000000000000000e+01
0.0000000000000000e+00 1.2000000000000000e+01
ITEM: ATOMS id x y z vx vy vz
68 0.820892 0.881277 0.652252 -0.209854 0.457719 0.074854
344 2.04513 0.611772 0.248386 -0.493069 -0.476594 -1.31235
55 3.97429 0.440534 0.634464 -0.771003 0.0546712 0.468126
296 3.36887 1.21138 5.78746 -0.460671 -0.136256 -0.111454
429 5.32627 0.755256 2.20199 0.470836 -1.09821 0.346662
11 6.76218 0.58169 0.934591 0.33878 -1.24209 -0.771992
650 7.76441 1.03048 0.997538 -1.157 0.201986 0.0696058
723 0.579053 0.0357565 1.88265 0.666907 -1.01881 -0.575741
707 11.3119 2.6768 5.69146 0.430028 0.669159 -0.935848
834 1.5511 5.07056 5.9659 1.49349 -0.65596 -1.47048
531 1.06146 5.94033 5.53852 -0.557163 1.9271 0.248935
570 9.86316 0.432393 0.939232 -0.503846 -0.0741861 0.22095
425 9.7707 5.16366 5.17854 -1.66212 0.347092 0.592899
27 11.9379 0.504691 1.09336 -0.846297 0.694735 -0.319042
301 11.8966 1.6977 1.49476 0.824924 1.39612 -0.150599
843 10.9523 1.23608 0.0977232 0.121827 -0.0864964 -1.2311
299 6.58364 5.68872 1.77069 1.28117 -1.60627 0.880694
399 1.13503 2.01629 1.52496 -0.488366 0.529015 1.50431
576 11.8946 4.93276 4.94027 1.92902 0.283686 1.04137
298 2.36067 1.87297 1.86303 -0.170427 -1.76078 1.18511
538 2.77788 1.55879 0.701624 -1.72313 -0.101853 0.773135
327 6.93893 2.41838 1.66826 0.274628 0.0546328 2.05482
82 6.10965 2.15297 0.804993 0.554265 0.624456 -1.39518
712 8.68271 1.74431 0.77861 0.434795 -1.0612 -0.617169
193 9.7734 3.33195 2.1966 -0.996158 0.695019 -0.90412
567 9.96466 1.5746 0.952802 0.0288311 0.0138265 -2.80627
371 10.8804 2.21939 0.297922 0.139717 -0.0246005 -0.212114
494 1.04378 3.83431 1.24951 -0.219848 -0.246759 -0.97866
571 10.7217 0.116427 2.36712 0.120736 0.655396 -0.737178
266 3.75874 4.25049 1.60705 1.27277 0.467234 1.95091
770 4.94071 4.12929 0.912735 -0.844744 0.40163 1.29838
808 6.73712 3.56815 1.60611 0.989943 0.389419 0.621084
97 10.5295 0.348133 5.55762 -0.0459316 -1.16292 -1.02878
109 7.69639 3.18278 1.2432 1.37036 -0.431846 0.0742723
768 8.62896 3.80897 0.583509 0.426652 0.152212 -0.346006
499 1.96268 5.78688 0.119074 -0.707394 -1.09652 1.32848
79 10.3148 4.32772 0.70749 0.931875 -0.173102 -0.74863
441 0.163209 4.23045 0.27379 0.66195 0.878282 0.564126
135 0.426796 5.75989 1.15506 -0.44343 1.04687 -0.690051
195 3.29404 5.00496 0.328263 -0.479729 -0.322184 -1.96747
516 2.81808 5.66583 3.22237 -0.743536 -1.24274 1.79631
12 9.31808 0.161863 4.99057 0.208083 -0.395369 -0.392622
369 6.63354 4.61523 0.0736125 1.54121 0.174033 -1.22257
510 8.47288 5.7053 0.219025 1.12972 1.62132 -1.05805
36 8.58759 5.05755 1.48281 0.44522 1.37877 0.179835
655 8.91839 4.80891 0.295446 -0.243739 -0.610413 2.23669
389 6.70886 5.10434 5.3103 0.760221 1.72932 1.72225
187 9.96384 5.30702 0.873323 -0.979242 1.11532 0.077247
605 11.1471 5.09438 0.621477 -0.49914 0.324982 -1.11003
750 0.78261 1.13653 1.86458 1.77958 0.377241 0.519796
625 0.611301 0.291001 3.3065 -0.91793 -1.22316 2.57756
431 11.3192 0.0198302 0.297315 0.371546 1.18602 0.298445
765 3.32645 1.00307 1.35029 0.629369 -0.486195 -1.34848
262 1.50766 0.222814 2.60758 0.182513 0.416702 -2.20707
713 5.32777 5.69543 1.54032 1.56358 -2.23094 -0.772054
81 3.45457 0.313389 2.24922 -0.514913 -0.561417 -0.914163
398 5.52538 0.0228644 3.6696 -1.27872 -1.16102 1.56214
684 7.02347 0.482768 2.19175 0.692186 0.228515 -0.887938
667 8.30708 0.15205 1.86572 -0.434762 -0.829551 -1.17793
614 10.528 0.964355 1.68403 0.965008 -0.523245 -0.458551
628 11.8945 0.964053 2.48887 -0.0921695 1.1467 -0.384204
652 11.8261 2.73953 3.32248 -1.92944 -0.936515 2.71461
724 3.01448 2.88002 2.99523 0.747066 0.720766 0.580704
634 3.69189 1.35799 2.27743 -1.59691 0.287803 -1.30956
224 5.95394 2.74759 3.06666 1.05583 0.0120112 0.0425274
199 4.71119 0.958371 3.10167 0.91917 -1.3504 0.381887
700 9.64668 2.22836 2.10077 1.73564 0.271987 -0.906028
401 8.83447 2.96413 1.46108 0.518729 0.302392 0.645544
492 8.07495 2.1694 1.75084 -0.595685 1.5356 0.137104
522 9.08878 2.64642 2.96991 -1.35675 -0.181392 1.21552
844 11.915 2.46938 2.09825 0.0436352 0.872016 -2.69473
798 10.9359 2.22333 1.51913 0.315924 0.713106 -0.280698
320 0.811798 3.67609 2.96328 0.295415 -0.0681756 -0.72915
793 2.39193 3.46427 2.39879 -0.0199609 -1.19285 0.39556
472 2.78094 3.41727 0.952833 -0.68496 -0.506806 -2.861
127 2.72121 5.25097 2.17923 -1.33228 2.54166 -0.688766
35 4.73956 4.1318 2.67663 -1.4212 1.7286 -1.0569
341 5.35596 4.14587 1.8224 -0.0650919 1.1542 -1.13188
562 8.23314 4.0325 1.86169 0.792969 -0.46601 -0.708908
18 9.30445 4.23372 1.85771 0.156206 1.74631 -0.488197
53 10.6429 3.17754 2.70945 0.251301 -0.726249 0.700769
402 10.7769 4.93773 1.541 -0.273697 1.01283 -0.466607
840 0.538499 4.08722 2.07922 -1.17392 -0.479655 -0.672346
508 1.74683 4.76481 2.25924 0.859609 -0.595539 -2.00497
312 1.815 5.40657 3.36794 0.0712242 -0.242931 -3.32327
577 4.57118 5.05371 1.44464 0.397922 0.393436 -0.80829
2 4.68016 0.514387 4.79324 -0.272198 1.4295 2.38328
409 5.1961 5.07273 2.41035 -0.274729 -0.669701 -0.46599
730 6.88353 5.16395 3.20743 0.426561 -0.58623 -2.08041
99 0.804709 1.66299 5.82847 -0.327274 -0.259315 0.0597168
129 7.66625 4.65193 2.57389 0.625916 -0.0725509 -0.64915
549 8.36746 0.861503 0.109357 -0.103517 0.845738 0.157354
787 9.54275 5.73844 2.02745 -1.23305 -0.924248 -1.71789
363 10.7283 5.85977 1.96423 2.19929 1.28638 -0.841342
663 0.278223 5.28165 2.11494 1.14677 -0.734525 -1.00908
147 2.28042 0.903549 3.47795 -0.437463 -0.761307 -0.138346
749 4.35387 0.517187 3.886 -0.609839 -1.49146 -0.192295
74 3.41306 0.575602 4.26386 1.12327 -0.459582 0.216516
231 5.59556 1.00248 4.28334 2.06491 1.31341 0.454627
686 6.73436 1.44695 4.90319 -1.23293 -1.0708 0.260859
638 6.1077 1.23955 3.34306 1.02774 0.412106 0.505044
662 6.51549 0.494597 4.23989 0.757964 -0.313801 0.650712
709 7.63496 0.442988 4.18766 0.517052 0.260201 0.625652
659 6.99928 2.90725 0.4045 -1.17286 0.892488 0.0865044
464 8.3202 1.48221 4.17087 -0.165372 -0.768617 0.601974
110 9.41264 0.673535 3.77752 -0.258976 -0.17125 -0.393044
556 10.4526 0.130718 3.44677 0.0421906 -0.90489 0.713481
19 9.97268 1.7156 3.89913 -0.448446 0.524708 -1.14353
558 10.7874 0.868385 4.32241 -1.18732 0.322597 -0.237572
354 1.31837 1.43619 3.74384 1.4026 -2.71243 0.0642052
72 2.20162 2.02831 3.44465 -0.40609 0.723708 0.221216
353 3.07038 1.61526 4.3217 1.02268 0.577267 -0.212183
651 3.95312 1.68111 3.41973 -1.34907 -0.262777 -0.557458
537 4.23957 3.03164 2.4626 1.26696 -0.178013 -1.00173
418 3.81246 2.66436 4.81632 -0.746066 -0.197771 1.87935
160 4.92647 3.45681 3.49558 -0.233091 -0.0323526 2.04933
280 5.98416 2.11643 4.35273 1.29669 0.143483 0.466333
168 6.86918 2.98247 4.42927 1.50301 0.170478 1.36152
685 7.57395 2.51028 2.99098 0.803576 -0.797444 -0.69912
40 7.86056 1.23866 3.15206 -1.80111 -1.98588 1.40502
536 8.41643 2.62003 3.76178 -0.60026 -0.292333 -0.211623
590 7.392 1.90577 4.19859 -0.380844 -2.19644 0.551543
105 9.06263 1.55626 2.92641 -0.5059 -0.985231 -0.43247
367 10.6807 2.66434 3.96121 0.267825 -0.96496 -0.889509
528 10.9867 2.09947 2.82392 -1.05401 -1.7536 -0.144427
196 0.547661 4.90762 4.03728 0.703632 0.510595 -0.114432
157 1.25385 2.71777 3.39052 -0.545891 -0.326667 -1.12347
540 1.77761 4.00226 3.24146 -0.0201844 -0.445629 0.0545174
103 3.39235 4.36633 2.72975 0.523242 0.99825 -0.524743
324 5.04134 3.86103 4.66103 -0.786687 -0.71943 1.1683
306 8.0325 3.51646 2.78959 -0.27493 0.0427939 -1.47243
331 7.53383 4.33013 3.65413 -1.2712 0.67913 -0.334391
213 8.08427 2.86341 4.88671 -0.57802 1.11774 1.47992
477 9.60655 3.6091 3.28564 0.463401 1.23435 0.929039
175 8.71426 3.6716 3.90661 -0.560019 -0.1208 -0.223229
596 10.3219 4.23362 4.52934 -1.53956 0.276571 0.335256
80 10.8515 4.00968 3.38632 2.45039 0.429935 0.199187
615 11.5637 3.51431 2.19867 -0.45488 -0.140392 -1.0799
640 0.343648 5.87094 4.51819 0.786194 0.901612 1.10033
51 0.225666 5.60331 3.27137 -0.574732 -0.0778544 0.560475
387 1.30937 5.72727 4.30097 0.0269667 0.950168 2.44084
285 2.71619 4.65026 3.55856 0.492624 -0.941476 -0.25328
506 3.19523 5.38237 4.42577 0.739224 0.726511 0.688903
620 4.14088 5.0049 2.69404 0.168699 2.07802 -0.456003
54 5.57084 5.24506 4.55895 1.39014 0.0258749 -0.415973
259 5.41189 4.58329 3.29604 -1.06544 -0.0848614 0.508728
697 6.83995 5.69741 4.08374 1.06653 2.49999 0.383938
583 8.06733 5.37269 3.62921 -0.797366 -0.0496409 -0.543289
691 8.94901 4.55158 3.36025 -0.0776792 -0.879298 0.0711261
527 10.1063 4.54108 3.42425 0.0097559 -0.434448 0.112774
137 10.3541 5.43884 4.10002 -0.498644 0.08396 -1.08388
254 9.20553 5.55885 4.02784 -0.622534 -0.714911 0.343201
120 11.0381 5.21135 2.7635 -0.856599 0.825143 -0.384914
198 11.9134 3.92985 3.67709 -0.237945 1.46633 1.12513
114 11.3986 4.86548 3.64747 -1.36257 -1.24661 -0.70284
126 0.993967 0.587631 5.35442 -1.17426 -0.203157 1.16189
84 3.70668 0.286457 5.26347 1.47756 0.682792 0.159172
139 7.12124 0.683193 5.76723 0.292864 -0.274503 1.82367
432 6.43709 1.83134 5.75737 0.65843 -2.52183 -0.216711
705 7.85819 1.07168 5.13792 -0.0467392 -0.380025 -0.35663
799 9.24135 0.603773 5.95649 -0.0580973 0.385319 1.10756
314 9.72321 1.13821 4.88888 -0.574234 1.5118 0.019325
290 11.9319 0.571414 5.70748 2.20947 -2.28071 0.215001
190 0.744003 2.70481 4.26138 -0.506865 -1.25792 -1.09483
87 10.8102 5.05665 4.97174 -1.19711 0.678125 -0.0491473
297 2.1625 2.96582 4.93515 0.0276427 -0.121735 -0.105023
692 4.15121 1.496 5.05914 -0.467923 -0.757457 0.847977
247 2.96915 2.10068 5.24674 -0.813739 -0.651208 -1.27698
215 4.43432 2.65032 5.62655 -0.00297676 0.624969 0.371729
300 5.12688 1.29224 5.44392 0.176507 -0.669082 0.631731
43 5.17293 2.77293 4.87732 -1.08895 -0.0445666 0.620662
42 7.2353 2.21652 5.27159 0.503974 0.123288 0.638736
45 8.51835 2.98118 5.97336 0.494883 0.300716 0.566934
232 8.94151 5.70979 5.50395 -1.09674 0.184014 -0.794278
579 8.41418 1.98742 5.35949 1.54688 -0.686083 1.97038
144 9.09343 2.71213 4.52175 -1.27545 1.02453 -1.48385
225 10.192 2.18136 5.14775 0.425195 -0.529056 -1.49605
272 0.197688 2.99456 5.24357 1.26182 -0.440121 -0.956906
573 1.41197 3.78609 4.32159 -0.779114 -0.0922332 -0.0504902
117 0.363611 3.99369 5.4949 -0.34361 0.217091 1.56611
58 5.72021 5.67543 3.34451 -1.38396 -0.967294 0.0937261
295 2.52513 3.84596 4.27801 0.438229 0.0513452 -1.39698
380 2.20149 4.4242 5.34383 0.929792 0.544793 -1.85965
321 4.60369 5.02555 5.45415 -1.53295 1.04883 0.899758
376 5.68696 4.31126 5.81155 -0.718912 0.278646 0.523432
265 6.09914 3.5896 4.65497 -0.901617 0.318399 0.34086
785 8.19438 4.0084 5.34784 -0.822958 0.363431 0.715057
28 8.63989 4.90312 4.51401 0.812243 1.37935 -0.799857
276 9.16249 3.87673 4.90385 0.0512583 0.931386 -0.215284
436 11.2953 5.8231 4.28281 -0.823318 -1.21306 -1.67683
292 10.483 4.34913 5.89303 0.118771 0.37578 1.01857
26 9.4211 3.07894 5.58246 -0.116566 -0.644882 0.660937
255 10.4453 3.21594 5.16642 -0.745805 0.533132 0.229241
64 11.2488 4.04147 4.99307 1.99583 -0.694369 -0.6614
307 1.1148 4.71302 4.99405 0.399384 -1.73337 0.474265
631 0.453781 4.98686 5.85865 -0.121181 -1.36052 -0.0306025
694 1.85931 4.79339 4.12949 0.542997 -2.27528 -0.5491
759 7.89466 5.72445 5.5557 0.345967 1.45843 -1.08013
119 2.26859 5.46675 5.00695 -0.177549 -0.0277133 -0.677804
316 9.41767 4.65438 6.10316 0.275681 -0.620781 -0.542029
57 1.63014 1.26055 7.91429 -0.0424111 1.14245 1.04458
490 9.24528 1.63011 11.8513 2.61089 0.616821 -2.3628
346 2.1791 1.16258 6.04728 -0.234761 -0.0495155 -0.15402
145 3.46707 1.68514 7.35886 -1.10079 -0.826918 -0.170421
154 10.1138 5.37254 10.289 -0.29121 -0.488462 -1.30256
467 3.31216 0.263745 6.51928 -1.29946 0.187585 -0.965909
283 5.40891 0.590002 6.50187 0.218878 -1.60851 1.6978
407 6.20747 0.601065 7.32469 1.47651 0.400949 -0.19129
264 5.17164 1.3328 7.3803 -0.168008 -0.854788 0.640867
245 7.37309 0.658379 11.2311 -0.627523 -1.83968 0.686726
406 6.89521 1.38154 7.01466 0.0896525 1.39519 1.24574
186 8.20431 0.561196 6.35628 -0.517207 -0.565132 -0.594467
783 7.76079 1.86506 7.7471 -0.830943 1.17337 1.51157
517 9.8222 1.10812 6.67684 2.09102 -1.37521 -1.245
766 8.97085 0.836941 7.18176 -0.324046 0.296867 0.236297
356 11.9137 0.0731317 6.76908 0.906468 -0.625118 -1.50709
853 11.8492 1.76223 11.8503 -1.42535 -0.465092 -1.09553
386 2.4063 1.1085 7.10257 -0.338129 -0.430042 -0.296711
95 1.68209 1.7648 6.82459 -0.679685 0.238204 -0.139564
830 2.22841 2.80583 8.11654 -1.14461 -0.290621 1.78794
810 2.94286 2.26121 6.78155 -1.37937 -0.599672 -0.277638
210 4.31167 1.71866 6.29606 1.61259 -0.816574 0.48762
108 5.40708 2.43617 7.51778 -0.562451 1.3637 0.420504
395 5.55721 1.87385 6.40824 0.311984 0.410996 -0.818984
250 4.25006 2.5141 6.98593 -0.986679 0.367963 -0.273367
132 6.87904 2.60233 6.66489 -0.67758 -0.927982 -0.192127
741 1.31237 2.99611 6.93631 0.0735205 1.15576 -1.40609
599 8.85413 1.74555 6.40753 -2.07155 -0.398004 -1.79433
593 10.5513 2.34376 6.42764 0.939409 -1.344 0.419713
687 6.58481 3.43305 11.4674 0.57546 -1.06302 -1.636
177 11.4747 1.42656 6.36195 1.39966 2.13216 -1.01156
278 0.239028 2.21476 6.55497 0.874233 0.0912173 -0.979811
653 0.447342 3.49338 6.38707 1.35541 -0.878178 0.981113
430 1.75212 3.93272 6.5705 2.19219 0.516267 0.203582
269 2.73977 4.42488 7.13242 -0.746116 1.70798 0.90823
679 4.23156 4.82048 7.10133 -0.116853 0.531005 0.703049
183 5.28405 3.02779 6.18777 1.22125 -1.50366 -0.321866
565 6.6938 3.7011 6.73548 -0.981252 -0.648002 0.0567849
78 7.44578 3.29014 6.10603 1.26146 -1.17312 -2.13802
769 9.03627 4.00895 6.81793 -1.21621 -0.271157 -0.0732695
104 10.0103 3.38067 6.3585 0.386871 -0.49732 -0.086376
13 11.3658 3.01912 7.04765 1.04455 0.664687 -1.63405
818 0.0439799 3.89985 7.33992 1.22457 -0.717977 0.211676
25 0.931986 4.56565 7.04214 0.122631 -1.03697 -0.0114055
633 0.777012 5.77511 6.59555 0.565048 0.54744 -0.156076
825 2.60376 4.85241 8.14489 -0.64185 0.307854 0.933163
811 2.68889 3.5193 6.39532 -0.270662 1.02036 0.810874
31 10.5466 5.98006 7.91266 -0.367249 -0.114416 -1.32771
188 8.86802 2.9466 11.9806 -1.9866 -0.823517 -0.622941
575 4.62323 5.83344 7.63788 -0.302218 1.90544 1.90986
200 8.10778 4.48592 7.29475 0.960705 -0.848836 0.182269
473 7.52102 4.42785 6.21146 -1.67758 0.502723 -0.311388
107 5.09424 5.15984 11.8247 -0.208351 -0.409644 -0.916816
174 9.7976 5.30891 6.90052 1.87865 2.19916 0.335486
512 9.27301 0.535375 11.6355 -0.429207 1.72808 -0.64435
365 10.8623 4.52378 7.26397 0.46553 -1.59299 0.071931
370 11.7364 0.969527 7.28253 -1.21399 -0.0657245 -0.631094
833 0.77251 0.709762 8.51861 -0.771621 0.362217 0.0424125
246 2.53422 0.0707742 7.53105 -0.810688 -0.156525 -1.28407
322 1.85301 0.683862 8.83997 0.961941 0.432567 0.534485
284 3.7275 0.461197 8.40066 1.08667 -2.03404 1.33721
824 6.79363 0.93621 9.69721 -0.0312154 -0.087982 0.360756
781 4.28761 0.568007 7.48493 0.562381 0.396559 -0.279233
328 8.35039 1.15675 8.47091 -0.198417 1.05316 1.04003
616 9.96864 0.77749 8.04357 0.510516 -0.0391643 -1.00718
3 10.5181 0.420277 7.16809 1.28531 0.512331 -0.917847
612 10.2363 2.04335 9.1345 -1.69927 2.35939 0.0856766
325 11.4781 0.119201 8.01007 -0.479527 -0.313388 -0.0375838
345 1.25554 2.39678 7.9088 0.239781 -1.09818 2.46182
122 4.58235 1.79523 8.12037 0.954727 -0.190625 -0.425407
858 3.24309 3.77878 8.836 -0.325206 0.433951 -1.00784
150 6.8286 1.63294 8.94263 2.02842 0.447182 -0.212055
701 6.54563 2.46587 7.67663 -0.177957 -0.791032 -1.07396
682 9.37118 1.91233 7.84781 0.456255 -2.50277 -1.12357
754 8.84163 1.16575 9.48576 -1.89336 -0.956796 -0.0625687
600 9.99987 3.08172 9.44596 -0.64423 1.36797 1.18677
780 10.4053 2.70999 7.57896 0.714493 1.84544 0.413514
568 10.4216 1.70566 7.7444 1.29395 -0.135257 1.78122
234 11.2204 3.05131 9.11206 1.3629 -0.314917 0.577758
632 11.5625 1.11797 8.45936 -0.421951 -0.688633 -1.2004
240 11.5328 1.96186 7.36184 -1.47821 -0.307321 -0.992857
539 3.32824 3.09958 7.73567 0.520723 -1.12349 0.766313
457 4.73273 3.37201 8.63544 -0.554294 -0.718573 -3.08528
302 6.25318 3.3354 7.9999 -0.0962984 0.354072 -1.96385
756 7.60574 3.04733 7.86844 0.820918 0.895283 -0.390455
698 6.48382 4.53777 7.80955 -0.538991 1.36538 -0.307947
852 8.59245 3.47606 8.60839 0.835404 -1.10922 0.746395
142 7.26185 4.04093 8.24212 0.00747937 -2.15147 -1.56056
66 10.1538 3.55761 8.37103 -0.829519 -1.27542 0.781628
159 11.6486 4.52498 8.05415 1.82351 2.05026 1.13691
20 0.492947 5.45537 7.92239 0.798072 1.08575 -0.500735
30 2.18068 4.35609 8.99748 0.693899 -1.74821 0.364597
719 3.61343 5.43484 8.05951 -0.163428 0.522598 0.304365
459 3.47107 5.63869 9.11509 -1.30436 0.0102233 0.573102
15 4.63961 4.88276 8.76872 0.68636 -1.37052 0.0247832
171 7.29135 5.21146 8.33076 -0.917415 0.433743 -0.347954
860 9.0674 4.74469 7.81059 -0.0829827 0.932425 1.36035
182 8.61084 5.68349 7.61368 -1.24858 0.172379 -0.71441
281 8.34235 5.38038 8.70075 1.61783 0.88243 0.792663
509 9.6098 5.83273 8.57069 -0.4544 -0.671638 2.37054
806 10.2052 5.03974 7.80291 -0.208739 0.804982 1.07615
358 0.14532 5.74303 9.23597 1.70059 0.825011 0.132659
850 11.0124 5.0288 8.79788 -1.42873 -0.629872 -1.96344
338 7.75425 1.4918 6.18938 -1.49659 -0.0817681 -0.830626
613 0.734286 0.698309 10.6751 -0.411262 0.473441 -1.01618
219 2.36059 0.283657 9.62384 -0.107541 -0.889777 1.24737
639 4.77404 0.331885 8.9323 -0.0110632 -0.110672 -0.858768
366 3.06565 1.14118 9.0531 1.09842 1.27049 -1.25933
797 5.95127 1.07865 10.3492 -0.122336 -1.47302 -0.738539
229 3.51908 5.43492 11.109 -1.31445 -0.812722 -2.41825
696 7.57457 0.13855 10.0724 0.0420571 -2.69696 0.530794
392 9.76615 0.600818 9.48854 0.104075 -0.465615 -1.10194
619 9.30535 0.660996 10.5035 -0.390178 0.838875 0.706908
518 10.487 1.19097 10.0641 1.31226 2.12359 -0.141247
310 0.0151228 0.352991 9.11428 1.0155 0.22048 1.77238
167 4.05227 1.6758 9.73139 -0.586192 -0.326493 0.510111
721 5.66094 1.46465 9.12275 -0.0692632 -1.86384 0.691266
618 4.91343 2.99449 9.95038 0.198545 -0.255901 -0.469369
169 5.90057 2.56944 10.1217 -1.83343 -0.330993 0.828645
812 7.92977 2.12788 10.4753 1.9295 1.24064 -0.138716
728 7.61072 3.14227 9.85317 0.342183 0.96228 0.614258
404 10.2424 2.36384 10.1655 -1.72481 0.898425 1.08578
282 9.08443 1.67453 10.3637 -0.544503 1.06102 0.992389
826 9.07981 2.83435 9.98027 -1.26034 0.0756548 -0.3372
815 11.2822 1.96991 10.303 0.108272 -0.687549 1.41253
308 0.502859 2.31914 9.95197 -0.132693 -1.86062 0.325063
782 3.5642 4.00882 10.7773 0.45772 1.07115 -1.4201
828 6.10931 3.77459 9.79535 -1.19235 2.00719 -0.560679
586 9.161 2.43135 8.93776 1.11481 -0.850892 0.695246
557 7.95046 4.32795 8.99584 -0.588826 0.594806 -0.582686
258 8.6609 4.19565 10.2968 -0.279003 0.121485 0.101222
347 9.39906 4.21744 9.01347 1.54818 -1.60192 -0.318612
731 9.92543 4.12424 9.99288 -0.101276 -0.10498 0.124851
677 10.8257 3.47727 10.0281 -0.554721 -1.21697 -0.205589
152 0.226939 4.70785 9.17249 1.21559 0.644697 -0.570121
791 10.7411 4.02538 9.04434 -0.335076 0.788189 1.64588
735 1.18223 5.6631 9.64803 2.14754 0.80329 -0.15276
760 0.500142 2.67246 11.9484 -0.00725959 -0.375287 -0.0426772
635 3.26491 4.85557 9.82577 0.0969518 0.376082 0.527207
747 2.71939 5.55319 10.2451 -2.66435 0.923689 -0.274919
802 5.0909 3.9617 9.65684 0.348696 -1.47278 0.0741007
116 7.3472 4.18661 10.4044 3.08306 -0.220797 0.0127908
849 6.82836 5.24984 9.58517 -1.01368 -0.310898 -0.0206025
121 5.54776 4.80728 9.59752 -0.447984 -0.262237 -1.70211
481 6.5084 4.02208 8.85958 0.465209 -0.387009 0.618688
838 7.76299 5.67201 9.92856 -1.50087 -0.292171 0.0620567
716 10.1268 5.15827 9.3123 -0.181136 0.208741 -0.139108
237 9.00714 5.04008 9.5951 0.228763 1.65419 -0.829293
412 1.12079 0.436234 11.7311 -1.01658 -0.541883 2.16832
47 11.2505 4.91325 9.77257 0.225629 1.28533 -0.501824
375 1.98508 0.985711 11.1365 1.07041 -0.823965 -0.205511
437 0.603863 5.39724 11.8068 -1.09354 -0.897381 0.558122
848 3.2965 3.61221 11.7509 -0.413226 -1.46623 1.11099
607 3.71862 1.26276 11.65 -0.688963 -0.649646 0.288743
542 4.50892 0.267587 11.4865 0.867141 -0.602982 1.16246
792 4.83061 1.32379 11.8957 -0.186517 0.620354 1.51212
427 7.07521 1.35469 10.6301 -2.10831 1.27549 1.09409
368 7.14078 1.50455 11.8909 -0.118418 1.61552 1.54813
393 5.89438 0.53243 11.4809 -0.37995 0.146183 -0.640198
738 8.31222 1.0933 10.9196 -0.451554 0.041928 -0.544985
202 10.0869 1.24044 11.1227 0.293401 2.12491 0.125275
71 11.9454 0.340757 11.515 0.99435 -0.711112 1.50572
816 11.3881 1.15536 10.9791 1.46918 -0.0426917 0.421873
588 0.898637 1.63259 11.0842 -1.94902 0.25814 0.711304
487 3.9191 0.394327 10.2631 -0.653966 -0.31931 -0.56284
49 6.04674 1.60087 11.6585 -1.03336 0.320933 2.09504
382 2.81457 4.9656 6.27185 -0.954811 0.805098 -0.578417
70 6.99878 2.42459 11.0763 -0.208067 1.35272 0.507757
743 8.07981 1.9764 11.8676 -0.315512 -0.127231 0.180776
405 9.49685 2.52057 10.9829 -0.124052 -0.309401 0.011358
468 9.98078 2.88199 11.9892 -0.772766 0.833697 1.74222
88 11.7341 3.47988 11.8621 0.129101 1.60706 -0.979031
859 7.96825 3.52617 11.9613 -0.630635 0.822094 -0.976743
102 8.17817 3.45509 10.8481 -1.18455 0.762479 -0.879321
251 9.39565 4.19403 11.4767 -0.520433 -0.92035 0.628732
131 10.6415 3.11067 11.1144 1.69409 -0.985367 0.989454
530 9.39705 5.439 11.2404 -1.90076 1.71134 -0.577545
443 0.506389 5.53478 10.7031 -1.10786 1.15546 1.15833
94 10.4146 0.216581 10.7601 1.28867 -0.0320036 2.71824
748 11.6888 4.94793 11.6732 0.0983025 -2.29204 0.0358187
740 2.51348 5.17754 11.3051 0.603661 0.509241 0.596759
313 8.62451 5.9709 10.975 -1.08096 0.41129 0.217897
242 4.24048 4.41436 10.1302 -0.312973 -0.688498 -0.382228
394 6.22938 5.33337 11.4429 0.181792 1.09047 0.251518
466 8.31472 4.60479 11.189 0.487812 -0.710019 -0.155208
355 7.60321 5.56452 11.2255 0.508756 -1.64182 0.229043
660 4.41722 0.496885 6.17671 -0.333854 0.0376668 1.63775
821 8.99728 0.387631 8.6577 0.57595 0.651759 -0.377125
217 10.888 5.54866 11.4122 -0.583993 -0.41182 -0.96142
519 1.31179 5.89053 8.46647 2.68152 0.033972 -1.24731
208 5.37213 5.95585 9.39123 0.908654 -0.401949 0.673965
261 11.3306 4.78617 6.0041 -1.07346 -1.55719 0.432183
762 0.299217 7.44197 1.38448 -0.529113 0.646152 0.094172
330 0.423727 7.29741 0.27292 -1.83857 -0.614313 -0.080404
704 1.91501 6.87695 0.138366 0.875466 0.0686447 -1.61914
146 3.17587 6.09135 0.337695 -0.189035 -0.571346 0.798574
29 2.94357 6.939 1.00271 -0.94219 -0.606008 -0.0354905
488 4.05848 6.02434 1.02424 1.44202 -1.44621 -0.511846
520 5.16443 11.8848 2.75155 0.464283 -0.0850424 0.664474
736 4.65901 7.59503 0.774586 0.496913 2.07082 -1.02211
665 6.97943 6.67032 0.609388 -0.10315 0.909109 -0.961963
654 8.74067 7.37837 1.02264 -0.385544 0.220608 -0.364652
455 10.3295 6.21449 0.349301 1.73213 -0.293689 -0.632634
448 10.0139 7.29703 0.806615 0.188286 0.747221 -1.22259
400 11.413 7.12136 0.820345 -0.166407 0.653824 0.58494
559 0.82718 8.18847 0.681494 2.62322 0.157353 0.850863
661 0.67215 9.64728 1.80345 0.430702 0.433712 0.708169
710 2.66215 8.05835 0.47724 0.56323 1.91715 0.713046
417 4.22816 8.29593 1.42863 0.923837 1.27161 0.717009
93 5.55053 7.54237 1.12784 -0.97367 -0.388358 -0.497697
317 6.83256 7.3992 1.4628 -0.149339 -0.142475 0.0284378
496 6.91414 9.20771 1.10665 -0.0174626 0.917762 -0.191403
158 7.68407 7.40378 0.187605 0.690768 -2.61196 1.21411
184 8.00074 8.71708 1.85292 -1.38121 1.37792 2.23798
497 7.67307 8.95913 0.44241 -1.26168 -0.0889049 -0.886712
817 8.30299 8.21746 0.686934 -0.676338 -0.674542 -0.930884
733 9.52631 8.1469 1.60646 0.378942 0.124436 1.53684
592 11.6367 9.5538 1.6854 0.96347 0.565663 0.149818
357 10.7559 9.02956 0.617066 -1.48113 1.78388 1.57025
674 11.6011 8.5755 0.430977 -0.434334 1.75478 -0.631688
411 0.35011 9.29076 0.597537 -0.100358 0.0449158 0.255355
173 1.01974 10.7722 1.01927 0.766891 -0.258299 1.19343
52 3.08242 9.06218 1.01051 0.116038 0.184754 -0.0753834
253 1.59465 8.94078 1.15733 -1.47682 0.136625 -0.888753
726 2.0679 11.0115 1.09462 -1.47029 1.23923 -1.28853
445 2.86309 10.3522 0.830507 -0.245658 0.1392 -1.36828
351 4.1029 10.021 0.693363 -0.910998 0.871986 -0.511375
753 5.46155 9.85994 0.720765 0.72195 -0.487235 0.0911864
493 6.59177 10.2167 0.786318 0.947116 1.08108 0.676127
260 7.63256 9.9793 0.185202 -0.699685 -0.101747 -0.60249
814 8.62249 9.69562 1.17943 0.606975 -0.757761 2.06187
23 9.70112 9.99639 1.25266 -0.758952 -0.468083 0.685407
289 9.19366 9.09452 0.684584 -2.04522 0.231467 0.339442
862 10.1154 9.99124 0.307615 0.023666 -1.18479 -0.0420622
774 11.9604 10.4589 0.688106 0.229971 1.82016 -0.144743
8 11.0108 10.0978 1.11364 -1.31746 0.442023 0.780419
458 0.346782 10.6616 2.23397 -0.211151 1.94701 1.47999
742 7.14335 6.3046 2.56514 0.0849246 0.482517 0.247169
789 0.0437837 11.474 0.842612 0.401257 1.76583 -0.813138
41 1.15703 11.8017 0.595563 0.461548 0.63642 -1.37194
373 3.67254 11.4015 0.577789 1.31896 -1.56004 0.787994
734 4.11989 11.124 1.45855 -1.18481 0.00897318 0.174633
603 5.79369 10.7824 0.451831 0.0267745 -1.34112 -0.176602
461 4.89363 11.5725 0.398018 0.040538 -0.346028 1.94002
503 7.37599 11.2628 0.239493 -0.443365 0.233887 -2.30729
397 8.55051 10.9972 1.80223 -1.37379 -0.464183 0.814275
839 8.59176 10.8896 0.599838 -0.269441 -0.654644 0.508021
419 9.44369 10.9705 0.026819 -0.282003 -2.10441 -1.14779
76 10.7775 11.7051 1.30122 0.881052 -0.579685 -0.722836
622 11.3694 11.6062 5.98427 -0.138226 0.942691 -0.777924
523 0.883975 6.39746 3.1481 1.22788 0.718894 2.52996
239 1.41753 7.11086 1.66436 0.432389 -0.524569 -0.180251
62 2.0154 6.47725 2.34363 1.63216 0.196141 -1.36661
611 2.01108 6.33978 1.05639 0.729268 -0.597188 0.508016
315 3.0107 7.26655 2.55061 -0.425979 -0.0890546 0.410642
746 4.00265 7.06544 1.40664 -0.682623 0.322137 -1.35472
857 6.46122 8.19897 5.64982 0.562202 0.62272 -0.442437
491 8.756 11.9948 0.953265 0.314349 -1.32231 -0.826992
46 9.68504 7.38841 5.84173 -0.014869 -0.419445 -0.282836
86 5.56404 6.63029 2.23857 0.252352 -0.0189048 -1.11867
106 7.0605 7.39919 2.63708 -0.111113 1.00087 2.10221
547 8.51273 7.64343 2.19989 -0.188536 -0.397735 -1.40773
744 7.78705 6.83735 1.79607 -0.431826 1.42954 0.552924
153 9.50338 7.11602 1.97514 -0.835072 1.72024 -0.172896
235 10.2472 7.08152 2.77584 0.935734 0.507176 -0.190297
681 10.4847 6.84695 1.64985 1.1879 1.3548 -0.111317
252 11.2719 7.29515 2.14827 0.658818 0.303773 0.620107
504 11.6732 6.2198 2.34866 1.14026 -0.259018 -0.285969
609 0.833956 8.04962 2.03208 1.31839 0.0527146 -0.181883
767 0.127998 8.73546 2.94841 -0.398722 0.0436554 -0.191021
170 1.98768 7.90698 1.37262 -0.221192 -0.943964 -0.303729
717 1.78703 7.57384 2.57164 0.256788 -1.53508 -0.948774
270 1.80716 8.88974 2.24505 0.805905 -0.238054 1.64718
388 3.03265 8.23273 1.89764 -0.78814 -2.08488 -0.791107
61 4.06577 8.12351 2.52002 1.75063 1.56745 2.0155
582 4.57105 6.99345 2.26678 -0.0852483 -2.46104 -0.148815
666 6.10111 7.93308 2.17511 1.31634 -1.11308 0.616417
438 6.93112 8.50257 1.97161 1.30505 0.00745547 0.0129564
124 7.9985 8.95708 2.92196 0.475974 0.534436 0.745666
257 10.8602 8.37143 2.43259 2.07195 -1.12443 -1.06834
130 9.35195 7.79688 2.91629 -0.666189 -2.37976 -0.539887
212 10.7379 7.99244 1.27825 -1.67569 -0.713889 0.548973
293 11.6488 8.33101 1.65493 -0.000323734 -0.148363 -0.921086
823 11.4108 9.83603 2.78032 -1.00872 -0.141094 1.32293
836 1.67394 9.98719 1.89335 -0.268429 -0.826292 -0.584584
809 2.88767 10.7734 1.99955 -0.116579 0.537949 -1.3511
678 3.48102 9.1656 2.20661 -1.18588 -1.00739 0.479872
513 3.61152 10.3259 2.9538 -0.428199 -1.58458 0.899587
288 3.83282 10.3019 1.80412 -0.9038 0.763677 0.343915
688 6.37179 9.81576 1.83247 0.00112201 0.87582 1.08396
695 4.71548 9.40347 1.32302 -0.118631 -0.93199 0.149782
279 7.45257 10.6346 1.30081 1.29782 1.47988 -0.781446
203 9.00491 8.80222 2.26729 -0.276544 -0.793182 -0.237349
379 7.69311 9.72244 1.92025 -0.557886 1.98216 2.09132
463 9.57186 10.2754 3.02705 0.84398 2.39469 1.29163
764 8.72925 6.19866 1.4666 0.417396 0.692415 1.08816
73 0.303329 10.8206 3.31648 -1.88048 0.793573 1.6637
206 2.39356 11.7001 2.92908 -0.637338 0.0562975 0.616654
77 1.59476 11.1806 2.40157 -1.03274 1.21305 -1.31203
21 3.96947 11.1466 2.43592 0.719171 -0.53582 0.933115
192 5.19967 10.4843 1.44809 0.379912 -0.942474 -0.572911
156 5.10589 10.8984 2.42579 -1.89467 -0.526492 -0.476109
758 6.12769 10.9019 2.02161 -0.0628147 -1.04206 -0.56973
189 5.61466 8.60506 0.239643 1.89348 0.172782 0.145577
138 8.62751 10.0293 2.4709 3.20704 -0.0318765 0.0563664
856 7.36852 11.066 2.43278 -0.437692 -0.460463 -1.67046
617 8.18788 10.744 3.29638 -0.901159 0.291247 0.690305
500 10.0293 11.3128 2.74889 0.29065 0.0226683 0.500512
532 11.4865 11.358 1.95017 0.077629 -1.06539 0.59144
98 10.9206 10.358 2.04275 -0.735041 -0.0542973 -0.092753
771 11.684 11.7656 2.8967 -0.140461 0.447732 0.457843
286 2.25581 11.9054 1.8585 -0.0480184 0.81684 0.762239
165 1.38411 6.82431 4.55213 -0.357156 1.5219 0.279704
90 1.95306 6.4084 3.80765 -0.859552 -0.263648 0.0103205
59 3.25753 7.11493 4.4666 -1.04936 -0.0219796 -0.785756
349 4.80466 7.29865 3.88226 0.533975 1.87227 -0.383498
226 8.4633 6.477 4.31817 -0.352935 -0.783766 -0.341632
479 7.74067 6.36989 3.47359 -0.974083 -0.151609 0.808366
360 9.47168 6.38916 3.04459 -0.991512 0.933724 0.112293
337 10.4374 6.8405 3.91236 1.18749 -0.013612 -1.2143
343 10.7611 6.1083 3.04471 0.113508 -1.3646 0.777324
578 0.4491 6.79666 4.03047 1.47974 1.00443 1.7484
627 11.3742 6.99287 3.23307 -0.199097 -1.27589 -2.36456
422 1.1474 8.26069 3.56917 0.713831 0.175201 0.624207
837 2.30117 8.52093 3.07186 -0.164279 1.17495 0.270742
101 2.00294 8.16455 4.40388 -0.550608 -0.713646 0.476145
751 2.23664 7.45443 3.59407 0.527239 -0.896205 -0.218481
630 3.96555 8.5923 3.57779 -0.174262 0.259652 0.52979
294 5.74537 8.90682 3.17115 0.939029 -1.29201 -0.467155
794 6.05943 8.32489 4.52746 1.59224 0.484433 0.0788324
163 7.10768 8.27355 3.41461 0.488797 0.417455 0.818264
800 7.74853 7.73039 4.21994 1.31498 -0.101843 -1.81188
564 6.65705 9.22809 3.84786 1.2332 1.46551 1.40411
485 10.138 8.57673 5.2589 0.363787 -1.08861 1.7804
804 9.69963 7.57222 3.88138 0.525615 -0.046296 0.92401
233 9.70818 8.68451 3.25244 1.15408 -0.504165 0.754422