ITEM: TIMESTEP
44900
ITEM: NUMBER OF ATOMS
864
ITEM: BOX BOUNDS pp pp pp
0.0000000000000000e+00 1.2000000000000000e+01
0.0000000000000000e+00 1.2000000000000000e+01
0.0000000000000000e+00 1.2000000000000000e+01
ITEM: ATOMS id x y z vx vy vz
538 0.825741 1.24005 1.81013 -0.560349 -0.0258918 -0.0966696
488 3.43167 5.35164 0.943103 0.864045 -1.54118 1.1085
298 0.438554 1.21039 0.74793 -0.50324 0.262952 -0.216867
344 3.23354 0.559612 0.702471 -0.304729 0.476137 -0.384721
415 3.61706 1.42024 1.31871 0.732257 1.07069 0.355151
542 4.20408 2.61462 1.3518 0.366515 -1.37546 -1.6896
245 5.49885 0.404754 1.92174 -0.0765178 -1.70886 0.88383
424 4.47186 0.657724 1.25977 0.350098 0.957396 0.0604075
570 7.2151 0.726428 1.11754 0.570305 -0.479455 -0.217094
261 0.599969 5.10408 5.78673 0.793582 -0.617933 -0.957685
528 8.90913 0.265062 1.07352 -0.315778 -2.34001 1.7809
789 11.6377 0.26036 0.32503 0.501111 0.303747 0.067981
571 11.1885 1.44834 1.22864 0.780853 0.289584 -0.472377
15 1.39223 4.15488 5.62583 -1.18297 0.230671 -1.57664
234 2.20783 2.07639 0.0010707 0.486643 -0.128288 -1.65823
682 10.8388 0.719338 5.74411 -1.48919 0.367223 -0.988512
812 6.52705 2.07024 1.98673 0.109963 -0.24827 0.16669
650 8.61895 2.09068 1.49945 0.289326 -0.742622 0.0316163
55 4.03943 0.295987 4.6107 -1.60165 1.24102 -0.280915
549 8.3327 1.37415 0.866542 0.414653 0.522446 0.939941
685 9.33259 1.96852 0.530819 -0.946006 1.68135 -0.55867
749 6.39528 0.973889 3.662 1.70976 2.67213 -1.22947
150 5.27129 0.655114 0.306135 -0.794102 0.905243 0.57916
460 6.52941 5.97706 4.7148 1.0705 -0.0883479 -0.513219
79 10.5108 2.98909 0.825997 -0.367955 -0.372896 -1.67932
712 9.92146 1.01767 0.502245 -1.126 0.0318787 0.0251299
750 11.6007 1.35117 0.0780058 1.10237 -0.689341 -0.407858
301 11.9611 3.23476 0.916222 0.681641 -0.558013 0.100067
734 2.27545 0.622315 1.69901 -1.18339 1.8335 -0.50332
859 8.67512 4.56353 0.276519 -0.629226 0.493299 0.524106
321 6.50532 4.86345 4.36213 -0.520936 1.35644 -0.876704
402 9.34265 3.78726 0.542472 0.212835 -1.55816 -1.04697
844 11.5224 4.14368 0.538203 0.0968161 -0.504717 -0.923504
53 11.0667 3.64513 1.29624 -0.131934 1.81013 0.163911
494 11.4838 4.69582 1.44343 -0.0986018 0.171005 0.467484
508 2.3854 5.14431 0.0645864 1.40481 -0.274314 0.422192
173 1.86644 0.481583 0.637702 2.29589 0.638453 1.43384
580 6.40734 0.913051 0.141365 0.509814 0.941914 0.812224
341 3.37582 4.10723 1.31166 0.159469 -0.0670267 1.18219
449 11.9436 5.55807 3.8456 -0.242651 0.149674 0.0555358
90 6.25745 5.3872 2.49895 1.16786 0.231962 2.49791
659 7.98053 3.86793 0.68583 1.53724 -1.4225 0.127005
713 8.11518 5.41728 0.652258 0.0108494 1.19978 -2.06193
319 2.64123 0.125162 5.61699 -0.240292 -0.473872 0.945326
655 9.90619 5.37972 0.98243 0.0521049 0.865901 -0.303928
615 10.4985 4.83546 1.81992 0.0338764 -0.842394 0.728115
726 0.734295 0.276373 2.92155 0.425355 0.120522 1.28832
72 1.70436 1.4328 2.74633 -0.917673 0.542397 -0.611169
758 3.65521 1.3373 2.3816 0.534959 -0.949394 -1.00761
243 9.11797 5.24727 5.27705 -0.194046 -2.20549 -2.10156
49 3.95806 1.19652 0.331276 -1.63312 -1.31965 -0.54026
778 8.0102 0.635329 0.148706 0.657363 -1.66557 -0.19973
262 11.8269 0.474762 1.83538 -0.390544 1.55091 0.578015
354 11.2803 1.90179 3.27032 0.665598 -0.346992 0.266646
771 11.8969 0.735444 2.86489 1.36426 -0.362007 0.744438
765 11.9246 1.65859 2.15659 -2.59625 -1.89087 0.521363
117 2.57455 1.32313 3.48595 0.209746 -1.4958 1.15262
286 4.82112 3.6119 1.27318 -0.379543 1.10672 -0.593415
427 5.1728 2.35517 2.90279 -1.47232 1.0871 1.68394
199 7.54801 1.46135 1.68477 1.1763 0.835957 -0.0575665
285 6.24676 1.16641 2.6433 -0.0415966 0.326908 1.0189
110 7.90847 2.04722 2.8559 -0.484597 0.704156 2.24645
109 7.44349 2.35695 0.364739 0.642475 -1.98407 -3.20324
768 8.68912 2.8892 2.11928 -0.145048 2.21003 -0.835535
12 9.09535 1.77607 2.50219 -1.67835 0.0912328 0.386632
147 10.6268 2.67356 3.31385 -0.586434 -1.25953 1.56482
399 11.9218 3.15232 1.95164 1.03568 -0.160576 0.345682
157 0.287061 4.47938 1.98388 -0.423085 1.35175 -2.12793
103 0.946147 3.5955 1.61535 -0.276394 -0.274322 -0.818567
368 5.3835 3.73551 2.65434 -0.00698253 0.27367 -0.85161
492 6.12078 2.92832 2.44313 -0.0470406 -0.873059 0.533009
562 6.52827 3.60962 3.17591 -0.586989 0.194222 -1.05356
251 8.96181 3.08618 1.0455 -0.944265 -1.06686 -0.369531
466 8.82557 5.07331 1.67185 0.565584 0.742855 -0.0784917
477 7.60832 3.41891 2.68678 -1.12354 -1.06317 0.112431
70 8.66796 3.89171 1.69754 2.16747 -0.484945 0.426361
522 10.5409 3.60579 2.53162 -0.793284 0.778142 -1.68518
401 10.0115 3.8214 1.52265 -0.628268 -0.512356 -0.948943
343 10.4112 5.08344 2.8033 1.2801 -0.674556 -0.210238
663 1.07697 5.44265 2.15715 -1.1218 -0.259203 -0.923659
232 7.65741 5.67573 5.77489 0.0470226 -0.805108 -0.314806
195 5.94319 5.3127 3.5231 1.48069 0.400671 -0.714905
537 5.32657 4.95855 2.08456 1.7747 -1.92203 -0.155749
808 7.41788 5.93423 1.27811 1.46528 2.07976 -1.15837
742 8.56998 5.45106 2.71106 -0.543049 -0.160319 0.478312
527 7.19882 4.7812 2.38659 -1.15802 -0.541026 0.283162
254 9.77483 4.36876 2.42577 0.0118373 -0.689248 1.59449
337 10.8326 5.78217 2.15425 0.702574 0.256988 -0.197357
114 11.2295 4.54907 2.45305 1.32449 2.8504 0.155403
822 11.1007 5.9801 3.27897 2.06553 1.34017 -0.153463
335 5.07789 5.73992 5.51806 -0.00736866 -0.697885 1.86254
397 8.30757 0.447809 4.23569 -0.523926 2.12558 -0.156248
590 7.41391 0.803894 3.51726 0.0376363 -0.532359 -1.10583
579 8.61979 0.969278 2.1336 0.221739 0.723174 -1.76559
700 9.36369 0.346157 2.93792 0.374839 -0.602541 -1.41995
27 11.5288 2.54456 0.0894818 -1.40301 -0.941691 0.373543
51 10.2211 3.77905 5.30327 0.23444 -0.570202 0.935139
272 2.67555 1.48148 4.47873 0.167684 -1.16158 1.28294
35 3.84784 3.81119 2.88797 -0.590741 1.03712 -2.203
651 3.53426 0.431385 3.47925 1.86988 -0.795187 -1.34096
346 4.19086 1.44022 4.29713 1.87608 -1.08876 -0.958092
224 6.79975 1.93162 3.27737 1.42061 -1.20253 0.378108
705 5.80041 1.76875 4.04719 0.404346 0.4858 -0.327092
82 8.00132 1.90847 3.88597 -0.692581 0.990165 0.306156
464 8.89264 2.51862 3.40763 -1.50753 0.482236 -1.26892
175 8.5647 1.11349 3.3077 -0.209038 0.641572 0.106817
144 9.96767 1.91621 3.76227 -0.881529 -1.32045 0.48042
691 9.90717 3.41303 4.17797 1.38935 -0.519358 0.761467
276 10.0231 2.22777 4.83825 0.11074 0.476813 -0.5878
707 11.0698 2.11359 4.27741 0.087279 -0.725775 0.875929
652 1.3138 2.35787 2.90457 0.386929 -0.729472 0.0225231
540 4.09077 2.87582 3.44763 2.0929 -0.631838 -0.887439
387 1.34807 4.43722 2.71275 -0.462726 0.734351 -1.31939
59 3.78324 3.38666 1.92174 -0.552403 2.57799 0.701369
299 5.11009 3.93426 3.95129 -0.0473413 0.963486 -0.777886
327 6.31826 3.17643 4.09557 -0.240994 -0.248281 -1.09688
306 7.2892 2.74543 3.64965 0.144555 -0.509138 -0.810314
785 7.74318 3.20883 4.5511 -0.166558 -0.536626 -1.07293
28 9.5783 3.37426 3.1131 1.4329 -0.0380843 -0.966902
596 10.0453 4.32411 3.74761 0.801329 -1.56545 -1.3704
500 11.0051 3.43459 4.75362 1.83296 -0.562153 1.60642
320 11.4327 3.39234 3.26465 0.262844 -2.89058 0.414822
196 0.387611 4.19146 3.45163 -1.187 -0.703555 0.988695
119 4.03681 4.87352 3.46587 2.08947 2.09519 -0.0419535
239 2.06912 5.59497 0.967222 1.97504 -1.53418 -0.354847
380 4.57607 4.94783 4.96959 1.74039 -0.109108 -0.16291
58 5.52024 5.43452 4.54731 0.569825 -0.566168 1.28437
331 6.92145 5.64879 3.81834 0.542872 0.846913 0.350415
226 9.38518 5.30096 3.47909 0.101194 0.674134 -2.01151
193 7.2561 4.27055 4.19251 -0.132876 -2.14438 1.24442
730 7.82318 5.09369 3.80619 0.321775 -0.520754 -0.21283
137 10.5037 5.33065 3.95856 1.30654 0.433027 1.89071
583 8.74389 4.24576 2.8089 -0.652936 -0.378394 -0.071957
425 8.84141 3.98629 4.97464 -1.79793 -0.255198 1.51467
684 10.6593 0.370997 1.13719 0.396638 -0.659064 -1.22934
64 11.0672 4.5484 3.63014 -1.10783 1.51208 -1.40094
467 3.26122 1.02912 5.27689 -0.892213 0.215007 0.0912288
418 3.48471 3.12413 5.87292 1.51784 -0.318483 0.353419
295 4.85016 1.54706 5.38795 0.697021 1.91512 -0.967539
2 5.2971 0.371055 5.44155 1.56079 0.0176791 -1.33888
638 5.02897 0.617984 4.28033 1.30712 0.414857 -0.0343147
311 0.435555 4.24462 5.20031 0.830189 -0.235729 -1.37859
623 6.88905 0.258035 4.46559 0.858753 1.04351 0.483725
617 7.4792 1.33355 4.51894 -0.475181 -0.324534 -1.58233
565 6.78314 4.97281 5.42999 -0.6841 -0.306536 0.94323
42 6.29514 0.910987 5.59721 0.292399 -0.429482 0.546722
798 10.7735 1.09675 3.5777 0.858819 -0.38736 -1.45937
200 7.29141 3.27064 5.95668 0.741336 0.409036 0.605397
611 2.77974 5.77901 1.85506 0.741223 -2.68695 1.94681
353 3.3652 2.08351 5.17714 1.14026 0.978108 -0.0185723
177 1.50354 1.87085 5.18712 -1.23857 -0.751878 -0.935925
43 4.31353 2.54809 4.84671 -0.691791 -0.280545 0.504289
536 5.32079 2.84005 4.34077 1.09252 -0.03997 -1.35834
280 5.87641 1.95421 5.44228 0.727578 -0.519257 1.57718
127 5.7589 4.24496 0.0390517 -0.149738 1.24478 0.765798
519 4.30686 5.34091 5.93852 0.408493 1.309 0.978299
78 6.56115 2.1429 4.69093 -0.803981 -1.63453 1.61968
19 8.28783 1.40754 5.5791 0.00491447 0.191869 0.634953
132 7.79244 2.44454 5.37782 1.02348 -0.471452 0.200447
225 9.76718 2.22977 5.99896 0.811724 -0.888593 0.340087
255 8.86458 1.78385 4.45151 1.827 -1.8377 1.81052
573 11.8986 1.97824 4.98269 0.290198 -0.862582 -1.30938
640 1.50349 2.61942 4.12879 0.777686 -0.723219 -0.208281
724 3.19072 3.27816 4.4791 0.907524 -0.00876183 -0.548735
129 9.82888 5.56959 2.0129 -0.940617 1.11068 -1.05686
694 1.20501 3.07595 5.50755 -1.55667 -2.19051 0.909337
160 4.43845 3.90886 4.71625 0.358915 -0.0970609 0.788279
390 3.31135 4.68237 4.4216 -0.499845 0.0869489 -0.460136
679 5.04668 2.912 5.43293 1.09588 -0.309875 -0.143884
506 5.69063 4.11854 4.8763 0.978553 0.972403 -0.658327
265 6.12473 3.51094 5.79699 0.888874 -1.10082 0.734127
259 5.26989 4.6898 5.70123 -0.635164 1.79106 -0.77948
168 6.81648 3.11559 5.02205 -0.479036 -0.404802 -1.1123
273 8.27714 3.66154 5.8826 0.0583189 1.22516 1.23941
106 9.81273 4.93461 4.59949 -1.27586 -2.1687 -0.0586677
87 9.03192 2.90805 4.7148 -0.991198 -0.17232 -2.16042
367 0.12531 3.31626 5.12736 1.00294 1.0981 -0.898577
653 10.9044 2.20641 5.41863 -0.711756 -0.814528 -0.369657
711 8.7455 5.90446 4.47392 1.95912 -1.46713 1.12239
430 1.37835 4.61147 4.43374 -0.170528 -0.323964 -1.7072
198 0.708398 3.4591 4.21741 1.62084 -0.958965 0.13825
834 2.45555 5.038 5.87581 0.352347 -0.907897 0.0438068
620 4.06799 5.58567 2.59271 -0.326539 0.186158 1.40468
290 0.0641069 0.224847 5.55164 -0.0420009 1.44833 -0.554368
809 1.2255 0.11791 1.79728 -1.48935 -0.848576 -0.537663
662 7.71805 0.582697 5.31175 -0.487705 0.138341 1.86954
576 11.4905 4.8548 5.00698 -0.233461 0.744195 -0.41928
743 6.47423 4.36222 1.04389 0.313054 -0.837332 1.66772
363 0.0201067 5.56597 1.9104 0.212811 -0.39452 -0.556244
120 11.1246 5.70065 0.781415 0.467187 -1.72897 -1.00224
757 4.38638 0.651721 5.81496 0.658797 1.05612 0.208095
174 10.3892 5.24874 5.65953 0.292552 -1.51501 -0.513054
614 10.6893 1.97376 0.350872 -1.11591 0.168241 1.74136
194 0.890417 0.616046 6.72365 0.504049 -0.129162 0.498085
246 2.52827 0.892472 7.16386 0.742999 0.0428699 0.00798002
145 3.95854 0.14274 7.75704 0.842359 -0.611909 -1.40696
660 3.00898 1.31678 6.32757 -0.526124 0.368153 -1.15197
793 3.19975 1.71769 11.7866 0.124587 1.05629 0.145614
210 4.86203 0.28148 6.7546 -0.00964548 1.5995 0.394039
432 5.30879 1.11514 6.18322 0.245282 -0.287501 -0.128833
811 2.416 3.02982 6.04434 -1.18084 -0.138114 -0.283058
407 5.86122 0.461974 7.20552 0.253594 -0.634826 -1.60447
686 6.88813 0.75493 7.06322 1.12717 0.878829 1.47924
227 7.40048 0.816552 8.0592 -1.03146 0.648876 0.0511312
186 7.465 1.29293 6.35015 -2.13598 0.508223 -0.19214
709 9.13188 0.496525 7.00622 2.27956 -0.781539 0.744495
268 8.06561 5.34719 6.87453 -1.23722 -0.0568747 0.607344
756 9.7864 1.65104 7.74754 -0.589406 -0.710961 1.32311
392 10.1524 0.551975 6.79696 0.489573 1.22042 -0.202873
382 0.97985 5.98268 7.92527 -0.848423 1.45643 -0.466606
190 0.251409 1.92331 6.09544 0.774979 1.49272 -0.363193
370 1.72708 1.34627 7.63032 -0.500881 1.79164 2.4545
95 1.41293 1.49828 6.49248 1.23372 -1.3667 0.361641
240 1.67967 2.52595 7.2737 0.933439 -0.794723 -0.811711
296 2.39928 1.96711 6.72518 -0.190802 -0.259827 0.944604
215 3.93291 2.19424 6.0529 -1.09444 -0.88888 -0.871386
386 2.59565 1.53267 8.05999 0.374979 -0.548871 3.14591
108 3.81476 0.887422 6.81306 -2.36615 -1.16049 0.413046
858 4.71393 2.88725 7.07596 -1.63978 0.148184 0.573771
122 5.30412 2.08373 7.32177 -0.158012 -0.474733 0.866578
324 8.24339 2.42081 7.09869 0.161599 0.244491 1.99852
406 6.35545 1.53724 7.65398 0.693562 -0.168359 0.242315
599 7.25368 1.8531 7.35475 0.985202 0.25783 0.482552
395 8.90401 2.61633 6.2686 -0.940392 -1.0795 -0.116525
701 8.65518 1.54144 7.89205 0.359112 1.51187 1.91363
213 8.55513 1.34593 6.63866 0.142492 -0.0593247 0.214391
45 10.1346 2.59059 7.20859 0.802095 0.586669 0.400024
593 0.734537 2.47507 6.80033 0.832947 -0.860054 -1.60597
628 11.3773 2.30014 6.63033 0.327835 0.678221 -0.201106
66 11.6431 1.03663 6.41655 0.541557 0.0934088 0.164113
13 11.6576 1.81404 7.57351 0.741125 0.0123958 0.284228
80 10.1647 4.23317 11.5172 2.4715 1.12016 0.319012
278 0.910328 3.83816 6.65196 0.373491 -0.346726 -1.33386
810 2.9432 3.48021 6.83844 0.69832 -0.145011 -0.104264
153 9.87352 5.91525 11.8511 -1.4776 0.128667 -1.25438
457 3.32927 4.46653 6.19791 1.17505 0.546168 -2.3906
635 3.71782 3.87737 7.40347 0.622758 0.851237 -0.23258
302 5.04182 4.75977 6.66105 -1.33199 2.24465 -0.344121
376 6.53205 3.33713 7.26941 0.147652 -0.636178 0.0152489
258 7.68178 1.97737 8.29175 -0.175206 -1.81156 -0.271003
613 2.64493 0.0957331 11.634 -0.531418 0.502598 0.435208
860 8.1279 4.34993 8.00475 0.53632 0.891241 1.69545
697 8.08628 4.16547 6.85761 -0.0704033 -1.28685 0.740616
507 8.30324 0.206105 6.10123 0.0492284 -0.590055 -0.753766
338 10.166 3.81586 8.02319 -1.9776 -0.293028 0.362782
769 10.9548 4.5627 8.0237 -0.0620861 -0.67535 1.38486
487 4.99682 0.438381 11.0592 -1.00751 1.74557 -0.45457
699 0.736501 4.94792 6.98422 -0.397706 0.712823 0.408655
188 8.32729 3.21793 11.9212 -0.0942369 1.41655 -0.0735222
133 1.92647 4.47106 6.73326 -1.10208 -0.979808 0.573332
38 4.24082 5.92965 9.57016 -0.0415551 -0.167139 0.595129
252 2.55457 3.65286 10.7913 -0.687106 -0.506664 -3.09366
221 4.08062 5.38896 7.09984 -0.0318579 -1.61099 -0.604656
578 10.4811 3.52538 6.69984 0.119775 0.526635 0.930441
783 7.23904 4.81576 6.42534 -0.974796 0.259435 1.43337
121 6.14466 5.06541 6.35194 0.2412 -0.30274 -0.926106
328 6.60736 4.76946 7.4385 -0.474097 1.54839 -0.826042
31 10.2556 5.41666 6.82609 -1.22654 -0.618218 -0.0920439
180 9.44622 4.788 7.00178 -0.207868 0.47255 -0.533722
314 9.41768 0.583313 6.04909 1.23585 -0.845089 -0.328612
139 7.15809 2.35516 6.41403 0.35916 1.15417 0.373641
325 0.736838 1.56203 7.41648 1.60845 0.290761 -0.162889
610 0.818216 0.392328 8.20618 -0.572277 -0.698781 0.588371
219 0.341757 0.525785 9.07296 -1.79713 -0.614214 1.37512
300 5.0303 2.22245 6.21653 0.828463 -0.409639 1.48552
366 4.987 0.229969 7.99335 0.467011 -1.05204 0.938702
264 4.45437 1.42277 7.37376 -1.44531 -0.698399 -1.06055
560 5.78925 0.41425 9.96954 0.94393 0.558218 1.34517
766 5.77726 1.36762 8.57285 -1.25335 -0.48333 0.324873
207 6.73899 1.30982 9.04204 -1.69732 -0.685854 -0.14058
676 9.70058 0.338362 7.7679 -0.0890375 -2.5124 -0.591087
586 9.90049 1.63053 9.11388 -0.996566 -1.40291 1.59097
356 11.6152 0.624502 8.29539 0.76316 0.933174 -0.636156
799 10.6821 0.840165 7.73526 -0.570331 -0.313493 -1.21912
518 10.9296 1.29594 8.75539 -0.814885 -0.0252389 0.119035
818 1.00919 2.38856 8.14812 1.51551 1.52522 2.05998
632 0.349464 1.84889 8.99167 0.427844 -1.31447 -0.239098
57 1.11341 1.33396 8.48134 0.952865 -0.13999 0.409356
183 6.68831 3.09267 8.33653 0.618096 1.25646 -2.26043
616 8.32028 3.12764 8.57756 -1.09326 2.2639 0.873848
852 9.30539 2.58834 7.91942 -0.812314 0.374306 0.280704
202 10.1899 2.44165 10.0982 -1.52651 0.935496 0.471207
568 11.5509 2.7111 8.78772 0.0656572 -0.182807 0.859075
741 1.5035 3.24242 9.17138 0.236486 1.39901 -0.361265
365 0.785102 4.94187 8.27873 -0.685206 -0.298016 0.662599
719 2.2386 3.17152 7.92804 -0.481381 -0.0808949 -1.09659
740 5.47701 3.00683 8.41151 -0.97965 0.0891465 -0.305585
848 5.84572 3.98902 7.68332 0.168626 -0.55904 -1.16251
838 6.90753 4.1537 8.10332 0.53147 0.724566 1.1547
116 8.61684 4.31477 8.95093 0.339092 0.970636 -1.34984
292 9.35879 3.42533 6.67155 0.763688 0.0407835 -1.00503
806 9.10248 3.91838 7.86183 0.396701 -1.45328 0.609078
780 0.425254 3.31832 7.39541 0.0711464 -0.196968 -1.76414
833 11.3723 3.76324 8.45424 2.08869 0.820594 0.548864
30 11.6639 4.95974 9.11128 -0.681635 0.585757 1.56212
473 6.00787 2.35353 6.47182 0.211072 -0.695706 0.0774167
825 1.62276 5.14385 7.80668 1.00643 -1.70666 0.531425
735 2.04521 4.9133 8.76383 0.543879 -0.00874946 -0.49849
459 2.72527 4.53721 7.87517 0.42772 -0.671907 -1.04254
242 3.92269 5.14062 8.31554 -0.0418538 0.55531 -0.383291
125 3.41916 5.92423 8.73901 -0.156196 -0.245699 -0.0237934
96 2.51743 5.46896 7.32033 0.568479 -0.95167 -1.02239
140 4.74238 4.31618 7.66413 0.206812 0.209079 -0.833492
481 5.93043 4.95934 8.70824 -0.351291 -0.665887 -0.341828
439 4.91892 5.49729 8.52779 -0.0431056 -0.269118 0.314063
455 11.5136 4.62118 10.6798 -0.1591 0.384176 -0.292428
316 6.37463 5.82605 6.8563 -0.84698 2.37239 0.527058
142 5.43443 5.21554 7.59527 -1.28553 -1.8756 -1.49328
182 9.39343 5.89713 6.89883 -0.0395299 0.646278 0.911211
791 10.0871 4.95623 7.76988 0.495995 1.67563 -0.190153
237 9.07343 5.3508 8.05068 1.1017 -0.687718 0.633717
600 11.8523 5.28662 8.03995 -0.136098 1.14784 0.171079
748 11.0915 5.93561 8.55045 0.187628 -0.394902 -1.25482
347 10.6025 4.77095 9.05459 -2.29102 1.66628 -0.341209
723 1.61066 0.101472 11.6837 -1.31607 -0.781621 1.08447
308 11.6307 0.134493 9.87088 -0.150711 -1.12148 1.12532
41 0.0509801 1.29171 9.83814 -1.52128 -0.613009 -2.37279
845 1.90214 1.09393 10.1067 1.02263 -0.0521063 0.649201
605 11.6506 5.80959 10.7858 0.32391 0.0697655 -0.716234
703 4.25259 1.10965 8.43108 0.734571 0.268897 0.120992
187 8.79868 5.89257 11.8593 -0.763209 0.486752 0.685722
515 6.21308 1.61005 10.8177 0.558635 -0.13073 0.866468
619 6.73812 0.784142 9.87085 -1.12331 0.29437 0.495842
489 9.30186 1.37819 10.5666 -0.0418955 1.70253 1.85586
816 10.7798 0.648011 9.69181 -0.537991 0.875715 -1.71316
414 10.0467 0.542115 8.81837 -1.67847 2.12836 -0.332528
815 1.64085 2.17184 9.06521 -0.279695 0.818482 -1.40597
802 5.51846 2.77216 10.8341 -0.502331 -0.58161 0.947276
754 7.52331 2.48297 10.1365 0.785194 1.41881 0.610754
821 7.21576 2.83605 9.11438 -0.227456 -0.264903 1.50091
435 9.02418 2.39353 9.37213 0.110355 0.205369 0.540215
282 8.40387 3.183 9.6946 0.921416 -0.0781801 -2.03351
94 8.33842 1.78464 10.7215 -0.291132 1.3581 0.0694795
345 0.441364 2.63068 9.55143 0.800966 0.0669719 0.599962
853 10.7715 3.47959 9.45537 0.492251 -1.604 1.07263
760 0.365086 3.65657 8.66261 -0.262787 0.0909917 1.23954
747 0.748448 4.58431 9.40644 -1.02314 0.877743 0.139123
770 4.06142 3.76951 8.50958 -0.0261676 -2.35609 -0.670679
828 5.3577 3.82051 9.12479 1.81068 -0.540671 1.1271
404 8.8342 4.461 10.0054 -0.0941882 -0.355285 2.30226
728 7.61361 3.9472 9.04027 0.0411627 -1.50809 -0.484429
677 9.2744 3.55339 9.12205 0.55549 -0.537197 -1.53247
612 10.4617 2.67386 8.90838 1.18934 0.74466 0.350996
440 0.714667 5.07051 10.6514 -0.96342 0.656206 -0.471916
220 1.52175 5.64395 9.38258 -0.141213 -1.12673 0.215252
807 2.80488 5.02637 9.60363 0.0497616 0.437395 0.837106
687 4.11992 4.4476 9.35816 0.788608 0.187327 1.89062
480 5.59765 5.00411 9.70807 0.0819928 0.737689 -1.46114
801 6.30212 5.69391 10.3132 -0.386281 -0.260045 1.97808
826 7.56974 4.90127 9.62728 -0.486505 1.15289 0.306266
483 9.46478 5.33218 10.3735 0.565356 0.369217 1.07863
731 9.5479 5.05026 9.0362 -2.52293 0.910299 -1.13909
217 11.8576 3.90858 9.78078 -0.744149 1.13964 -0.11244
312 3.32361 4.57416 11.1016 0.276612 -1.33177 -1.35763
782 0.901809 1.44521 10.7815 0.53914 0.327726 0.314284
588 1.62522 0.0657924 10.4994 1.01026 -0.775871 0.284191
472 2.12001 1.03186 11.5783 0.316941 -0.365513 0.4195
250 2.89681 1.11293 10.7545 -1.63165 -1.18732 -0.643752
159 0.525044 5.81409 8.96593 -0.815229 0.30792 0.52366
797 3.63159 0.555578 11.5104 0.168525 1.47634 1.45323
391 6.52158 5.77273 7.95154 -0.549502 -1.09884 -0.519939
792 2.13519 0.0739816 9.41305 -0.348963 0.406979 -2.09717
468 9.48844 3.02728 11.5673 -0.15385 -0.153551 -0.965292
843 10.3311 0.521047 10.5684 -1.79336 0.484125 -1.0116
567 10.5621 0.772468 11.6511 0.374341 0.436588 -0.258751
491 8.66786 1.17856 11.5077 -0.728268 -0.452109 -0.583132
410 11.3054 0.862209 10.841 1.11052 -1.43614 0.680241
729 0.426489 0.89136 11.6018 0.202063 -1.09299 0.665197
104 9.19902 4.30659 6.09632 -2.3022 2.13811 1.55343
393 5.02809 1.42947 10.6786 -1.38619 -1.1489 -0.46064
696 8.43075 2.20088 11.9345 0.987564 1.69074 2.16592
512 7.48465 3.07889 11.1991 -0.469584 0.36029 0.917505
490 8.46313 2.92761 10.8254 -0.238746 -0.82338 0.583316
68 10.4901 1.67798 10.9026 -0.228797 0.72752 0.338259
71 11.7649 1.86171 10.8665 1.56539 0.45358 -0.740947
18 11.1384 4.84501 11.9115 1.37384 1.44503 -0.963154
371 9.32082 3.13724 10.2041 -0.743699 0.67958 -1.88899
657 1.4798 3.96845 11.3192 0.266268 0.333717 0.229375
169 3.71715 3.40178 10.508 -0.344075 0.277291 0.0631863
266 4.13699 5.66921 11.9276 -0.418224 -1.83072 -0.369646
618 5.13876 4.27715 10.2759 0.0293505 0.175678 -0.558614
355 6.49593 4.29302 9.69503 -0.41411 -0.00176449 -2.15467
738 8.05508 3.85283 10.3117 -1.17935 -0.567519 -0.512593
102 7.20927 4.39892 10.9725 -1.06243 1.07642 -0.691904
405 8.97711 3.86422 11.3019 -0.23222 -1.38993 -0.0574265
131 9.99162 4.22422 10.1886 -0.342413 -0.0527221 1.03878
154 11.2991 3.8743 11.4597 -0.601263 -1.01776 0.0565901
840 0.754722 5.34715 11.8525 -0.153927 -0.672352 -0.15821
441 1.80555 5.2254 11.181 0.185337 0.509691 -1.16076
849 4.72842 4.88825 11.6716 -1.02636 0.388107 1.2464
307 11.9745 2.93374 6.07903 -0.795426 1.25441 1.49259
431 9.66605 1.58827 11.6272 0.554945 -0.074356 -0.396162
107 6.6985 5.81713 11.3785 -0.492867 0.917992 0.615988
530 8.43958 4.99767 11.1562 0.485754 -0.406606 -0.503865
26 10.6667 1.63024 6.91363 0.290459 0.608165 0.906529
204 7.33776 0.105324 9.32151 -0.618832 1.18059 0.699915
358 11.5447 5.93697 9.5241 0.228348 -0.868975 0.118283
634 1.27622 2.46168 11.9184 1.3327 -0.556575 -1.14711
514 8.12213 4.73683 6.00601 -0.540748 -1.25627 -0.429616
135 1.3481 6.3169 0.911551 1.26283 -0.714749 0.285879
236 6.27665 11.7056 5.46345 -1.13903 -0.1998 -0.462925
29 2.41189 6.95527 0.246567 0.521731 0.145413 -0.893199
267 1.73355 6.78248 5.95519 0.00148599 -1.51614 -0.264971
146 3.97904 6.51423 0.696201 0.633944 0.667558 -0.0568878
503 7.94713 10.4564 0.317086 0.50937 0.374142 1.01398
581 5.05808 6.35529 0.857916 -1.41559 0.527174 -1.68673
54 6.60266 6.45702 0.840364 -1.24616 -1.22797 0.676894
465 7.37952 7.40387 0.741811 0.204028 0.269728 -0.798976
143 9.91557 6.5488 1.0434 1.8007 0.329503 0.856943
166 2.58288 10.6154 5.7249 -0.675898 -0.251876 -0.890137
674 0.0956858 6.38198 1.0084 -0.128192 -1.06642 -0.131681
437 1.8126 7.32581 1.09961 -0.507928 -0.327982 -1.5344
762 0.923093 7.98355 0.492178 0.74653 -0.699162 -0.21479
253 1.73711 8.67633 0.834659 1.27124 0.315506 0.431206
714 2.58233 8.02769 0.146102 -0.766802 -1.17414 0.433074
704 2.63712 8.47245 1.21774 -0.0535072 -0.594388 -1.85439
777 3.49235 8.03162 1.71653 0.757912 -1.15833 1.75941
16 3.77658 8.92515 1.17367 0.164516 -0.887744 -0.13382
451 3.48759 7.03404 1.44784 1.32061 -0.492769 1.41544
736 4.9677 7.47951 0.621018 0.0400267 -1.1392 -0.180929
673 5.19448 9.15532 1.23889 -0.887645 -0.156844 0.31864
372 4.53733 11.9061 0.154016 -0.922078 -0.126987 -0.215705
317 7.32085 8.19005 1.52831 -0.471743 -0.650359 0.726544
627 0.170084 6.00644 2.99663 -0.920058 0.408962 0.64732
608 0.682501 8.51779 5.23602 -0.354022 0.563577 -1.17833
69 10.2852 11.7973 5.07708 -1.88745 -0.701947 -1.64918
720 9.32539 7.66045 0.643668 -0.581348 -0.17762 -1.71883
666 7.18452 6.2031 2.31927 0.173783 -0.731032 -1.25503
212 11.4739 7.58071 1.1061 1.7126 -0.670845 1.19555
411 10.2757 8.27806 0.691099 0.115573 -0.696894 0.858137
543 11.4331 8.66521 0.562458 -0.545746 0.353086 0.404947
533 0.73187 9.66022 0.913115 1.60282 0.239991 -0.133831
228 2.66286 9.09768 0.349012 0.932085 -1.22058 -0.634092
445 2.46343 9.94839 0.813861 0.526504 -0.318673 0.367864
585 4.46994 9.63351 0.499203 -0.300906 -1.4374 -1.18306
351 3.35589 10.204 1.34235 -0.886476 -0.282058 0.231666
497 6.2751 10.1974 0.247836 1.56285 0.296629 -0.91679
496 6.67903 10.5988 1.05843 1.571 -0.880153 1.19412
654 7.08894 9.44484 0.609172 -1.84834 -0.226472 -2.38712
205 9.88146 10.4756 0.559399 -1.66757 0.784494 1.20086
862 10.4987 9.4206 0.68152 1.27192 0.598821 -1.85874
452 10.9615 8.50323 1.42989 1.39428 0.821985 0.692861
664 11.6024 9.86768 0.305065 -0.0583901 0.0498434 -0.145133
661 0.892911 10.806 1.45441 -0.00188467 -0.328018 0.272125
820 4.64856 10.7156 0.579674 0.401811 0.288133 1.20507
602 0.701977 11.1505 0.340719 -0.315864 1.71663 -0.750924
649 1.57298 10.384 0.842452 -1.09862 -0.440881 -0.159983
836 2.53277 11.5586 0.690826 0.519964 1.86243 -0.795168
305 3.76188 11.9857 1.77091 -1.82821 -0.130951 -0.331894
569 3.13728 10.8497 0.131854 0.727269 0.138286 -0.86346
373 3.76973 11.2597 1.00686 -0.13108 -0.844145 0.709152
856 5.23849 10.1983 1.38274 0.347037 -1.19989 1.36636
603 5.41141 11.4495 0.961566 -2.72273 0.572091 -0.490988
389 9.3988 9.8095 5.37226 1.918 1.61806 -0.279335
668 7.38199 11.559 0.947725 1.10651 0.223679 -1.67591
8 10.0375 11.5177 0.877967 0.795873 2.12 0.996882
279 0.552238 11.9751 1.04724 1.36838 0.754452 0.0311258
360 10.0737 6.25459 3.14319 -1.02259 0.564336 0.379653
170 1.00557 7.26381 3.52803 1.33517 -0.297636 0.942491
746 2.42632 6.85976 1.73654 -0.979823 0.0181746 0.398494
388 3.14709 6.18455 3.2049 -0.450608 -0.912951 1.81114
413 3.80721 6.63325 2.38441 1.13639 -0.562706 0.291516
46 10.8212 6.97128 5.55124 -1.69512 0.874586 -0.0310617
582 4.71968 7.18405 1.83172 0.104995 0.587541 -1.49867
61 6.68223 7.03077 3.49892 1.42133 1.31705 1.03083
86 5.93961 6.60257 1.65826 0.29329 -1.231 0.547059
764 9.41916 7.14844 1.86193 0.869033 1.09269 2.41971
419 9.23981 9.39679 0.276003 -0.00688917 0.563358 2.19523
438 8.15209 7.18687 2.32044 1.20587 -1.02739 -0.261159
775 6.51621 11.9691 0.569564 -0.613956 1.00125 0.482181
733 10.8485 6.77761 0.679151 1.00149 -0.171706 -0.284892
787 10.4196 6.81813 2.3716 0.0469566 0.474234 0.335087
294 9.40502 7.39426 3.01386 0.799869 0.468078 -0.943994
566 11.5886 11.6511 1.25457 3.4636 0.011334 0.353923
434 4.92359 8.46857 0.326606 -1.40794 -0.594668 1.27
502 4.7598 9.79306 5.67224 0.846677 -0.375135 -0.955168
36 11.7746 6.56179 2.0714 -1.13438 -1.52631 0.798291
164 11.761 6.95435 3.109 0.0722989 -0.0255024 1.36206
209 0.520864 7.49663 1.76974 0.486102 -1.10625 0.208547
235 0.66417 8.71776 1.40809 -1.43564 0.096067 -2.43342
535 2.67119 8.48294 2.48681 0.596299 1.06244 0.746225
678 5.68011 7.17677 2.56663 -0.699196 -0.492781 -0.737663
93 6.16872 7.4936 1.25807 1.43494 -0.060327 -0.760007
192 5.5578 8.14323 1.78547 -0.353656 -0.245216 0.0121721
461 4.73677 8.68573 2.93723 0.482464 1.19945 0.769142
817 6.9672 7.30255 1.9879 1.57863 0.374628 -0.477753
520 7.35317 9.15967 2.42576 0.0742493 0.0624997 -2.05288
688 6.56994 8.40704 2.47482 1.20651 1.44434 -0.113968
839 8.63153 8.70731 1.88305 -1.55949 0.0556073 -0.387799
753 8.7637 8.4379 2.94982 1.0993 1.26235 0.00555901
334 10.0049 8.16414 1.83485 -1.48788 0.193767 -0.117919
357 9.58654 9.20774 2.14393 0.520695 0.09558 0.174167
130 10.9375 7.70147 2.02234 -0.745643 -0.4296 0.0423
681 11.8035 7.86278 2.49192 -0.294529 0.467115 0.926062
233 11.0763 8.74739 2.46146 0.053769 -0.073733 -0.168271
609 1.65856 7.93566 2.06586 0.440581 -1.11529 -0.162714
270 1.93736 8.95917 1.92355 0.0311165 -1.191 1.30678
717 1.14991 9.1735 2.48597 -1.54056 -1.3097 -0.978725
767 0.131239 10.1555 2.08276 -1.24153 0.374257 -0.127236
725 2.93463 9.34523 1.89031 -0.200923 0.846363 0.221236
206 2.15851 10.403 3.07256 -0.5583 0.777837 1.75114
67 1.82918 8.97881 3.61633 0.287509 0.631765 2.14099
21 3.1197 10.1039 2.77069 -0.326789 -0.788028 0.260128
478 4.54855 9.10353 1.99874 1.0192 -2.19462 -1.96081
75 4.8768 9.95656 2.81899 -0.0833134 0.5359 0.446337
379 7.71495 9.87286 1.40248 0.370058 1.38032 -1.57021
23 7.32979 9.94879 3.24047 0.564263 1.73122 -1.481
814 8.47576 11.0529 1.15784 2.19973 0.364402 1.71741
621 8.92762 9.75097 1.13412 -2.6533 -0.214336 -1.04174
138 10.5448 9.48536 1.82 -0.583932 -1.52898 -0.471567
257 11.1259 10.0264 2.53648 -0.0627106 -0.257173 -0.672977
592 11.19 10.1418 1.308 0.055398 -0.0993947 -0.297216
774 0.189348 11.483 2.14598 -0.567659 -0.30192 -1.0714
77 2.04563 11.0026 2.27293 -0.643088 0.164528 -0.322882
551 1.41584 9.52924 5.87398 -1.2138 -1.27078 1.14104
454 8.20951 10.3864 4.8992 1.70304 -0.43191 -0.898326
493 3.85387 10.7968 2.01229 -0.0263791 1.32603 1.57403
288 3.49977 11.24 3.34685 0.91014 0.86863 1.18454
744 9.04657 6.20239 1.94699 -0.605745 1.6482 0.783251
835 7.34731 10.7417 2.13413 1.0158 -1.9486 0.658036
40 7.79904 10.8844 3.87744 -0.066297 -0.599174 0.485538
105 8.1981 11.9488 2.97684 -0.886914 1.95816 0.995887
532 10.1043 10.8968 1.77738 0.628888 -0.194287 0.20824
550 9.86742 11.9469 2.16694 -0.240013 0.287783 0.792281
361 8.57513 11.3134 0.024275 0.0189264 1.03741 -0.0167844
667 11.0696 11.8124 2.17476 1.27223 0.474115 -0.246616
647 4.70364 6.71513 3.22383 0.406018 1.30708 1.43692
516 4.12427 6.10791 5.20078 -0.516296 -0.177608 -1.17308
383 4.86631 7.73659 4.00717 0.129233 0.287016 0.402628
231 1.9686 11.9848 2.72455 -0.536103 0.296723 -0.466779
737 8.8928 6.42318 3.59065 1.61541 -0.470393 -0.109677
436 10.6483 6.97018 3.58842 -1.31617 -0.942303 -1.05227
547 9.82926 6.60246 4.28872 1.21828 -2.38075 -0.485004
751 11.1616 7.66854 4.2871 -0.0361529 -0.531633 -1.23899
128 0.0487877 7.01599 4.16691 1.02059 1.60688 -0.303767
837 2.25784 7.83123 3.86134 2.00612 -0.709854 0.321359
52 3.03773 7.28476 3.05709 0.866289 0.0529864 0.489621