ITEM: TIMESTEP
46880
ITEM: NUMBER OF ATOMS
864
ITEM: BOX BOUNDS pp pp pp
0.0000000000000000e+00 1.2000000000000000e+01
0.0000000000000000e+00 1.2000000000000000e+01
0.0000000000000000e+00 1.2000000000000000e+01
ITEM: ATOMS id x y z vx vy vz
298 1.97944 0.548813 0.54281 1.65153 -2.4858 -0.699765
73 11.3197 0.263259 4.28293 -1.192 2.03459 0.00246902
458 11.8915 0.193254 5.46433 0.636525 -0.708518 1.09795
734 2.93797 0.528902 0.965565 1.66226 0.114098 0.75121
488 5.45403 5.38504 2.01262 0.790484 -1.48158 0.971108
99 3.5019 0.520814 1.79917 1.66936 -0.758012 0.369255
424 4.45882 1.70144 0.351062 -1.0423 1.95958 -0.923879
150 5.65277 1.75574 0.258308 -0.533377 0.0325541 -0.039496
646 6.46765 1.03606 1.74482 0.0494098 0.689322 -1.83566
775 7.41008 0.612286 1.48484 0.57116 0.705941 1.62324
570 8.60977 0.721944 0.837462 1.30098 0.262434 0.365051
712 8.80274 1.68229 0.436631 -0.0806116 0.562941 0.268598
614 9.42891 1.57137 2.45593 -0.328891 -1.11531 0.266027
684 10.2824 1.08388 1.90263 0.830723 -1.16613 1.47242
27 11.6101 0.907679 0.561689 1.23726 0.262487 -1.09043
262 1.5493 1.39374 1.59901 1.51967 1.49338 0.452165
344 2.90539 2.79118 0.587189 2.10455 1.8398 0.474445
59 5.14797 2.80323 1.16961 0.049456 -2.10207 0.310994
674 2.20327 5.98212 0.88475 0.88296 -0.913787 1.67325
549 7.80841 2.5716 0.233599 -0.10054 -0.420941 0.881793
650 8.6181 1.67716 1.4604 -1.05012 1.38423 1.77897
199 7.58825 2.07404 2.27764 -1.18885 0.446911 1.69971
768 9.56442 2.15648 1.06303 -0.248971 0.425269 1.442
685 11.0763 1.95102 1.42216 0.28303 -0.299027 -0.515309
103 0.969628 3.94512 0.360407 0.790844 1.98471 -0.556852
840 1.02857 2.40424 0.706385 -0.742169 -0.113371 1.2596
849 3.8258 3.16555 1.28546 -0.106508 -0.219807 1.18393
251 7.54335 3.43301 0.86354 -0.277026 0.358838 -1.47714
188 8.23052 4.46502 0.216426 1.12103 -1.24665 -0.208268
402 9.45878 3.84692 0.848033 -0.741509 0.126687 -0.128518
417 4.43727 0.431765 2.30978 -0.289663 -0.404715 -0.00392034
70 9.99039 5.00259 1.14953 1.66181 1.5281 -0.206168
522 10.3894 2.96825 1.51529 0.143216 0.946768 0.464689
79 10.1396 2.7831 0.342534 -0.660331 -0.707983 1.10018
53 10.6155 4.15824 0.793897 0.559502 0.281135 -0.0934759
157 0.228521 4.70655 0.942177 1.57783 -0.541667 0.362274
663 2.23092 4.25626 0.958426 1.93102 -0.641113 0.80803
29 1.67054 4.88161 0.0382248 0.149094 -0.636779 -0.974817
135 1.45334 5.14676 1.01391 -0.613206 1.2628 -1.38735
508 2.48916 3.63812 0.104629 -0.764042 -0.815768 -0.893028
286 3.30782 2.98148 2.54607 -0.940509 -1.88033 1.67236
209 0.367597 5.7907 1.0805 -1.02183 0.310331 -0.31742
127 4.79212 3.87574 0.338601 -1.55877 0.139319 -0.779531
713 7.64707 4.50626 1.20839 -0.916207 0.0978886 -0.306392
54 7.27418 5.39243 0.60481 -0.369962 0.510228 -0.713241
859 9.45686 4.99454 0.170588 0.325699 0.196365 -0.491742
655 10.5076 5.25769 0.29284 -0.548688 1.09472 -1.40316
466 9.37494 5.83628 0.912048 0.204844 -1.13487 0.90013
577 5.39276 5.86549 0.797838 -0.44522 0.36503 -0.395465
615 11.0977 5.03689 1.16911 1.22338 -1.77187 0.630619
363 11.485 5.888 0.667055 0.846972 0.37645 0.502128
538 1.95023 0.332571 1.6942 0.946299 0.430389 -0.0447032
288 2.64622 0.632735 2.63872 0.271782 0.284024 1.14014
415 4.46156 1.29915 1.64412 1.15029 1.5954 -1.21105
758 3.55619 1.41613 3.26966 0.587178 0.596803 0.691936
245 4.50599 0.36112 1.07489 -1.01295 -0.67452 0.653179
285 5.21218 1.1728 2.65871 0.317616 0.674058 -0.206544
156 7.70265 1.2624 3.09146 1.11858 -0.703154 -0.595644
579 8.74368 0.268189 2.4437 1.08402 -0.381518 1.48545
771 11.3173 0.927738 2.4113 0.174552 0.885416 0.440995
571 1.72627 2.40958 2.98351 0.452303 -0.682567 0.83018
368 4.93923 2.20493 2.08129 -0.390652 0.776115 -1.09497
812 6.86413 3.31499 2.2993 -0.672361 0.580015 -1.44128
110 8.47477 1.99844 2.67601 -0.497374 -0.628174 2.00102
12 9.64709 2.2319 4.06867 -1.44211 -0.724101 1.17534
765 9.33495 2.91732 1.77727 -0.034265 0.0860072 -1.74843
354 10.449 2.51036 3.40331 -0.117462 0.00663102 -0.898866
399 11.6545 3.71373 1.31121 -0.765941 -0.0451899 -1.74657
430 1.03697 4.21617 1.3238 -0.396559 -0.47744 -0.924712
341 2.56421 4.33936 3.05156 0.610073 -0.563876 -0.119072
387 1.50433 2.40655 1.89916 -0.569289 -0.508257 1.94468
611 4.96463 3.80448 2.10456 0.410941 1.01884 1.48019
492 6.4443 3.88627 1.14432 -0.238504 0.677874 -0.689259
527 6.7758 4.84072 2.64521 -0.0500425 0.888745 1.49704
659 8.26426 5.02208 2.74716 -0.868495 1.90937 1.45768
477 8.14112 2.9973 2.52669 -0.951618 1.80885 1.64752
583 8.94909 4.81659 1.29429 1.48366 0.964029 0.208686
28 9.77778 3.82428 1.87341 0.449581 -1.44927 -0.584935
114 1.10129 5.42156 2.13957 0.868761 0.794664 1.11487
239 2.28641 5.57143 1.73342 -0.817148 0.424563 0.696332
620 4.18656 4.83459 1.35592 -0.163055 0.307439 -0.405597
69 9.79353 0.416481 4.44238 -0.234931 0.0582506 0.113891
299 5.82625 4.36996 2.37906 0.330039 -0.436825 -0.38734
537 5.87155 5.46982 2.97834 -0.516757 0.961804 0.135336
666 8.51041 5.44896 0.384253 0.514881 0.287357 0.651569
742 9.26364 5.41473 2.07371 0.916931 1.48297 -0.00893011
343 9.92823 4.80384 2.63745 0.611867 -1.39821 0.29266
129 10.2526 5.49445 1.88754 0.33959 0.397747 0.644109
267 1.4831 4.07361 5.90381 0.928971 -1.4337 1.31987
64 11.8316 5.06845 2.17742 0.0549296 0.336991 0.561057
726 0.618586 0.790158 1.86818 -0.89025 0.110023 -2.07115
177 0.0579418 1.26098 4.38978 -1.3461 0.391205 0.375825
72 1.3813 1.02398 2.69765 -0.615855 0.482595 0.0535827
117 2.89311 0.53652 4.14124 0.216633 0.556821 0.388458
361 9.45494 0.942939 1.222 0.445604 0.735528 0.424405
55 4.72187 0.942973 3.84151 -0.813685 0.276763 -0.497819
638 5.60119 0.235774 3.57035 -0.0320942 0.0214572 -0.882755
2 5.89425 1.58061 3.53481 -1.68078 2.85166 0.0781189
349 6.22861 1.02864 2.80877 1.02517 -2.01401 -0.741496
105 6.92512 0.752549 3.68536 -2.1588 1.11378 -1.49067
590 8.50094 2.12709 4.13551 -0.690083 1.57651 -0.432815
144 8.51908 0.67512 3.42832 -0.320609 0.0796074 0.384298
133 1.95982 3.29729 5.28948 1.43016 -0.588813 -1.89509
707 9.84831 0.258072 2.8307 -2.10862 -0.561187 -0.508555
652 2.25975 1.54953 3.9678 2.35935 -1.32146 0.113199
640 1.15458 0.305598 4.0316 -1.06178 -1.50389 -0.328376
346 4.03594 1.81638 4.13547 0.420141 -0.866136 -0.1056
427 4.92066 1.99596 3.20038 -0.501878 -1.32065 0.637221
679 5.32569 2.03119 4.3393 -0.394192 -0.973503 0.974862
617 6.89062 2.38864 3.25295 -1.28938 -0.684385 -1.70757
224 5.78215 2.0815 2.6044 1.59304 0.7507 0.239139
175 9.09609 2.74721 4.76322 0.0156119 0.873117 1.1887
147 9.69735 1.20552 3.45845 1.00812 -0.0666755 -1.59752
320 10.9806 1.4216 3.57632 2.31063 -0.486472 1.15373
573 0.178123 1.96716 2.75281 0.576067 1.31751 -1.54424
15 0.692757 3.40426 2.32638 -0.423828 -0.612477 -2.707
198 1.78544 3.53556 3.85762 0.959289 0.181656 -0.318238
35 5.13354 3.74851 3.57926 2.62352 -0.33098 0.0786904
540 4.70333 2.89943 4.04075 -0.241916 0.549235 0.275511
536 5.82089 3.2586 2.59337 0.444596 -0.215438 -0.54789
306 7.72167 4.13466 2.87167 2.26819 0.344096 -0.789508
562 6.28564 4.37965 3.56049 1.0336 -0.941368 0.344902
327 5.97924 3.02534 3.63809 -2.86852 0.942604 0.748056
193 6.65975 3.57604 4.51983 0.0161931 -1.5426 -1.37803
464 7.88303 3.1272 3.51376 -0.935483 -0.139432 -0.128218
87 8.81367 3.52495 3.74266 0.179498 0.904352 -0.43455
254 8.99461 4.19209 2.89519 1.36543 -1.36743 0.46509
196 10.7674 4.31374 1.97706 0.247052 1.16865 0.676839
596 11.3594 3.77438 4.3946 0.172006 1.40704 -0.860785
367 0.824703 2.31661 3.69194 0.383916 -2.96276 -0.369098
311 1.35743 4.41667 2.95255 2.2226 -0.662107 -1.39023
627 2.06812 5.33533 2.82985 0.0420966 -1.5952 -1.06989
388 3.37271 5.47729 4.05965 -0.0365912 -0.385877 0.775494
96 2.14669 4.77205 5.19912 0.282308 1.6239 -2.15756
195 7.30842 4.60049 4.12755 -1.51258 0.603359 0.53591
516 3.10073 5.86165 5.24114 0.250655 0.313428 0.50648
331 7.82809 5.60457 3.75417 0.551636 -1.07407 -0.220718
730 8.35323 4.75165 3.87103 1.21718 -0.474329 0.375679
106 9.32256 4.35344 4.00236 0.731176 -0.969794 -0.981379
547 9.41575 5.47868 4.18989 -1.84279 -0.777496 0.338318
822 10.6269 5.70749 2.86803 -0.0697989 -0.517703 -0.0665456
226 9.20602 5.22776 3.2332 0.660766 1.86694 -0.211695
137 10.5393 3.93619 3.64693 0.0790434 -0.698748 -0.123584
337 11.27 5.9291 1.82066 0.656545 -0.21729 0.463745
266 4.486 5.93866 1.30282 2.03553 -0.0100143 0.0220452
272 0.819425 0.849824 5.19457 -1.14577 -0.261579 0.124529
297 2.05521 0.831088 5.23331 0.892042 0.0787488 -0.0809889
467 3.19699 1.41261 5.8077 -0.558671 -0.566871 -0.0277498
43 4.61567 1.08851 5.21231 0.425669 -0.79295 -0.264935
705 5.60954 0.643603 4.62548 0.240838 -0.671888 -1.95459
657 1.93969 3.26116 0.971448 0.378759 -0.42707 2.50646
295 5.79707 0.741126 5.92901 -0.677559 1.54049 0.412145
749 7.1679 1.60116 4.19615 -0.0921634 0.922244 0.286548
42 6.88312 0.829713 5.71982 -0.537562 -0.179424 0.190203
397 8.79369 1.05868 4.54701 -1.29583 0.133849 -1.07986
273 9.65171 2.79621 5.70783 -0.205682 -0.151486 -1.00238
662 7.86245 2.39493 5.01608 -0.703698 0.302295 -1.19619
124 7.74335 0.560183 5.19169 0.587468 0.481579 -1.47236
682 10.6648 0.109785 5.11997 -0.727316 -2.058 -0.364384
255 9.42106 0.612899 5.73109 0.493771 0.136818 0.745053
290 11.3666 1.16367 5.57799 1.07419 0.562307 1.71018
694 1.25882 1.48882 4.3502 0.865354 -1.28155 0.344204
190 0.454405 1.77721 5.8965 -0.910995 -0.403538 -0.108128
353 1.52302 2.16232 5.7486 -0.935707 -0.164871 -1.39677
215 3.46996 2.34715 5.25462 -0.182437 -1.00728 -0.145596
418 4.91207 2.51754 5.38297 -1.04395 -1.25814 0.48307
280 6.00829 2.42157 5.91377 0.315866 -0.199947 -0.514244
497 7.50504 0.297306 0.515125 -0.427234 0.265786 -0.487688
78 6.32433 1.38729 4.82351 0.140334 -0.570063 -0.756325
132 7.27076 3.31388 5.33545 0.361175 2.68175 0.604076
168 5.57255 3.12111 4.55413 -0.558225 1.2498 -1.6778
82 9.02311 1.57673 5.55533 0.721037 0.541455 1.01113
785 8.21964 3.39287 4.78792 0.0936257 0.886953 0.423696
276 9.86728 1.57177 4.72898 -0.404783 1.40705 -2.16241
691 11.7674 2.15697 5.08908 1.70803 -0.672658 0.5728
566 0.833928 0.8473 0.542409 0.533501 -0.0608565 0.879004
500 0.438361 3.22019 4.6108 0.707486 -0.102473 -1.26107
278 1.32862 3.97175 4.75495 1.42393 1.17401 -0.190108
834 3.13373 2.8162 4.26112 1.31701 -0.195879 -0.554892
724 4.19609 3.55554 4.85245 1.42524 1.22544 -1.40832
380 3.08958 3.76726 3.74284 -1.43793 -0.486674 -1.23138
848 5.94138 3.49808 5.65036 -0.180012 0.0942916 0.241352
160 4.92687 4.03157 5.46394 0.389832 0.744233 -0.574273
506 5.68315 4.35052 4.71897 -0.608069 -0.620553 -0.376573
565 6.87573 4.46156 5.57251 -0.328419 -0.0137366 2.69617
200 8.18781 2.85789 5.94355 1.53013 -0.820971 1.03346
514 7.93704 4.57392 5.27987 0.512214 -0.484759 0.864876
163 10.633 3.16949 5.66884 0.27567 -2.33173 1.21183
51 10.6512 2.28797 4.91683 1.65068 -0.737839 -1.03874
653 10.437 1.47385 5.57533 -0.409711 -1.82919 -0.150055
205 10.0076 0.127923 0.429106 0.0962553 2.69444 -0.787322
261 2.0087 4.71454 3.94438 0.491224 2.68187 0.928351
335 5.09438 5.63812 5.13896 -0.0587585 -0.414631 -2.66308
62 3.8156 4.53548 5.22628 -0.585315 -1.02365 0.278206
575 5.13226 5.56209 4.14665 -0.796001 1.55815 -1.58711
259 5.73688 4.59776 5.66112 -0.489913 -0.201773 0.631907
58 6.16363 5.36806 4.7407 0.54379 0.897316 -0.579317
321 8.43276 5.37608 4.77836 1.64634 0.54893 -0.624299
243 8.9612 4.39133 5.24917 0.198405 -0.435996 -0.510042
711 10.2881 5.01384 5.997 0.464641 0.9854 1.75534
174 0.182312 4.07873 5.45252 -0.452552 -1.41062 -0.918741
858 3.02159 3.41739 5.28176 -2.1429 0.891474 -1.08816
151 10.162 1.37395 0.616351 0.712952 -0.129453 0.0445396
494 11.522 4.84419 0.125943 1.07898 -0.335672 -0.0172297
61 8.29473 5.79493 2.02044 -0.509299 -1.77507 -1.03063
651 3.60022 0.22858 2.83553 -1.36345 0.119503 -1.50472
550 10.7352 0.0742654 1.22402 -1.78062 -0.637692 0.35814
265 7.12033 2.30543 5.70911 1.50686 1.38689 -1.42559
542 5.74821 3.05445 0.171923 1.98862 -0.213476 0.482809
232 7.32775 5.74082 5.94193 0.978898 0.643908 -0.983791
491 7.52436 1.35601 0.375216 0.527895 0.133288 1.2357
770 4.22484 3.40897 5.8472 0.643637 -0.0356453 -0.530825
173 1.96766 1.88086 0.0503983 -0.933233 0.182058 0.590673
332 6.02955 5.87798 5.76845 -1.16672 -1.88957 0.0680483
468 8.87988 2.97302 0.108071 0.13887 -0.530347 1.57251
401 10.1982 3.96063 11.6981 -0.0147217 -0.924254 -2.27585
66 0.892364 0.800152 7.15132 0.330248 -0.4591 -0.716051
660 1.82465 1.22587 6.36325 -0.375638 -1.63488 0.454517
246 2.83486 1.00166 6.91051 -1.41642 -1.02063 -1.23478
748 9.37071 5.85999 8.43218 -2.04704 0.559766 -1.16857
703 3.9533 0.845412 6.69871 0.236883 -0.285962 -0.390815
304 5.96808 0.076459 11.1193 -2.10817 0.814245 0.472414
757 4.99116 1.52285 6.24624 -0.5759 0.567471 -0.4135
432 5.84009 1.68765 6.89069 -0.671556 0.191166 2.13455
778 8.07517 0.187459 11.6297 -0.0128977 1.20147 -0.597033
369 7.07107 5.58175 11.3386 -0.69528 -1.02232 0.644067
283 9.54768 0.77827 9.01904 2.66146 -0.886961 -1.2439
390 1.60755 5.57985 6.09412 -1.56748 0.239033 1.86839
676 10.5462 0.298854 7.68826 1.1636 0.383142 0.565076
314 10.1118 0.92479 6.88482 1.25229 1.8034 2.15412
31 10.7301 2.48533 6.72382 -0.38499 -1.4791 0.576784
3 11.742 0.653445 7.045 0.300695 -0.681914 -1.05377
95 2.00652 1.34403 7.52672 0.956133 -0.770536 1.73366
593 1.25442 1.98879 6.85259 0.105934 0.605903 -0.0360796
811 1.25854 3.32614 7.50068 -0.885731 -0.651636 -1.13711
264 2.55566 2.57238 6.14192 1.76345 1.08765 -0.303082
153 11.1713 5.89555 11.6617 -0.915499 0.524669 -1.5813
300 4.03433 2.12814 6.30569 0.124194 2.09996 -0.0825399
171 4.01728 5.56694 7.07076 0.583437 -3.35382 0.0538482
122 4.56847 2.11797 7.11914 -1.26187 1.10249 -0.462636
186 7.52026 2.02175 7.61851 0.541861 0.952488 0.691013
473 6.84619 2.73255 6.71912 1.99455 -0.97522 -0.946085
139 7.46119 3.14336 7.83032 -0.47932 0.582556 0.502926
395 9.1447 1.4992 7.01852 0.391189 -0.888292 1.17479
425 8.10992 1.83962 6.37622 -0.455362 0.0870384 0.0053843
225 9.87884 1.78401 6.37089 0.60339 -0.933962 1.17916
756 9.99558 2.35556 7.65739 1.21209 0.140937 0.868227
45 11.2682 2.45534 7.67925 1.40412 -0.450914 1.8321
628 11.6674 1.63608 6.62528 -1.49178 0.968566 0.342927
26 10.9039 1.46252 7.3362 0.335406 0.196962 -0.909202
307 0.0697478 2.92109 6.69057 0.3204 0.86465 -1.87925
780 0.207717 3.3661 7.64445 -0.910741 -0.201346 -2.17682
810 2.12635 3.54784 6.45937 -1.1784 0.0304242 0.546082
381 8.242 0.928149 10.0567 0.494919 0.650807 1.54539
719 1.36327 3.99176 8.31607 0.705434 -0.754943 1.92705
221 4.18427 3.62319 7.09312 0.135521 -2.64532 -0.801462
457 5.34812 4.05298 6.57116 1.10015 1.46538 -0.211341
740 5.62818 3.05846 6.60392 0.305638 -1.24676 0.818707
376 7.68097 3.69962 6.17053 0.0371502 0.920189 -1.23705
104 8.25591 2.65169 7.08734 -0.0794781 -1.87456 0.249721
146 2.55143 5.64239 11.6086 -0.974834 -2.21907 0.356619
578 10.4704 4.54682 7.15092 0.332121 -0.024609 -1.96157
292 9.72044 2.94488 6.7999 -0.769984 -1.48749 1.61477
806 9.51267 3.91763 7.19244 0.0720265 0.751022 0.392987
723 2.05574 0.214769 11.528 1.47794 0.199167 -0.315927
405 9.24608 4.17275 11.365 -2.02575 -0.714275 0.316313
187 9.84568 4.94761 10.9984 0.430211 -1.66598 -2.10355
459 3.0457 4.86545 7.47898 1.619 0.142212 0.47918
217 11.3113 3.51228 10.8363 -0.389978 -1.7513 0.225073
519 2.83626 5.40457 6.30264 -1.43827 0.0925313 0.958787
643 4.95777 4.58232 7.43606 -0.969274 -0.810222 1.78077
302 5.2728 5.22811 6.31799 0.52937 0.818771 0.335384
121 6.38635 4.95367 6.54426 -0.118405 0.103444 -1.12897
783 7.90869 4.6548 6.29992 0.415072 -0.457946 0.446037
202 9.64554 2.66812 10.6827 -0.654233 -0.238263 1.25527
474 3.85518 5.60752 11.2354 -0.226862 -0.0567747 1.26157
358 10.2258 5.34449 8.86844 -0.62405 -1.4791 -0.797172
576 11.2468 5.70918 6.21257 -0.606214 -0.285304 -0.630968
610 0.866026 1.06675 9.65959 1.08077 -0.159761 -0.0229872
356 1.33654 0.456928 8.14612 1.93541 0.963937 -0.822418
792 2.38595 0.617028 8.09054 -0.515346 1.15262 2.12787
326 3.17836 0.145549 7.4894 0.645021 0.836203 -1.91539
766 5.30384 0.954224 7.44883 1.02016 -1.05239 0.0945121
406 6.21054 0.583309 7.09857 -0.0861063 0.865513 0.0712725
227 7.78877 0.627503 8.65713 1.05893 -0.168558 0.252797
213 9.50923 1.54888 8.13576 0.0614532 1.90531 -0.469578
799 11.7284 1.86684 8.5422 -0.486871 0.26993 -1.98656
219 10.7021 1.0435 8.48584 1.23598 -0.27657 1.11542
844 11.1993 3.89646 11.8229 -2.05889 -2.74395 -1.08935
325 0.995565 1.70432 7.90204 0.0331611 -0.698278 0.666321
240 1.30072 3.11763 8.80348 -0.997408 1.92376 0.421997
632 0.0403136 2.94876 8.66177 -0.391259 -0.977391 1.04409
370 2.04465 1.69368 8.61219 0.963344 -1.21732 0.590218
296 2.28953 3.11595 7.80038 -0.687817 0.0358728 1.10223
599 6.97665 1.52935 9.15914 -0.0848686 -1.1998 1.50034
324 8.24303 1.1021 7.89726 -0.38498 -1.93417 -0.917237
518 10.2495 2.43355 8.7793 -0.442919 -0.162113 1.09727
701 9.47053 3.10941 8.83245 -0.216654 -0.299707 -0.138889
852 8.62729 3.37945 8.01471 0.563334 -1.45888 -0.879475
612 10.4059 3.72942 9.68705 2.33159 -0.429334 1.86541
13 0.247083 2.11072 7.35231 0.600724 0.766629 -0.206479
818 0.589959 3.79016 9.20347 0.581822 -0.0465892 0.0062913
365 0.45262 4.60671 8.07448 -1.96836 -0.21476 -1.80486
741 2.35062 2.8625 9.26352 -0.271459 0.2446 0.627694
635 2.65691 3.99852 8.49914 -0.216549 -0.134026 -0.145321
140 3.58435 2.75974 7.99048 -0.684003 -0.812006 0.722047
252 3.0605 3.802 9.68007 1.11546 0.430286 1.65245
328 5.03267 3.19072 7.55579 -0.55748 0.1182 -0.408937
183 6.31105 2.959 8.4643 -0.669198 0.206019 0.612607
616 7.17693 3.61105 9.19458 -0.9058 0.364193 -0.0857283
697 8.59862 2.30197 9.2469 1.40347 -1.56102 -0.0954192
838 7.97844 4.32131 8.27296 -0.779911 1.86802 -0.217321
116 9.36346 4.17893 8.6291 1.54322 -0.289872 0.598826
338 10.4751 4.27161 8.71093 0.63507 2.41847 2.13747
769 11.5194 3.93402 8.21276 -1.25793 -0.0900673 1.40628
382 11.4001 5.32821 9.10827 -0.455158 -0.733148 -1.02559
825 2.08474 4.10814 9.4851 -0.717846 -0.146321 0.445976
735 2.09815 4.89284 8.55957 0.766132 0.375438 0.273027
242 4.27791 4.33863 8.2884 -1.23582 -1.85081 1.91152
481 5.53536 3.94914 8.95679 0.226529 -0.721539 0.077754
439 5.2252 5.89615 9.41276 0.455374 0.949445 1.36996
403 9.44193 0.549491 7.93062 0.101358 1.11093 0.16646
268 6.77384 4.42072 7.48114 0.493249 -1.55103 0.340028
441 2.29943 4.66528 11.2207 0.406818 -1.5571 0.660227
355 6.08676 5.38298 9.01127 -1.23251 -0.398958 0.653328
860 8.82744 4.58476 7.6773 -1.24228 1.81744 -1.91263
677 9.8876 5.04888 7.89963 -1.33348 -0.215422 -0.52166
19 7.7896 0.76538 6.83155 -1.28325 -0.0437576 1.57308
30 10.8261 5.84291 7.73002 -0.57684 0.173524 -0.919031
745 0.603394 0.269724 10.3686 1.13378 -1.62007 0.557111
112 2.16211 5.72989 7.10447 -0.533945 -0.546667 -0.273683
782 2.01307 1.43319 10.2139 1.21761 0.797521 -0.523741
386 1.72403 0.610713 9.16928 -0.629916 -0.883323 0.542648
824 4.18325 0.358375 11.6116 -0.470576 0.330455 0.379388
115 5.27228 1.21627 9.70075 0.37351 -0.509673 0.790379
619 7.13958 0.222904 10.0201 -0.435022 -1.05865 -0.816893
204 5.61503 0.7261 8.87116 -1.93058 -0.32468 -0.894019
414 7.74449 1.80317 9.73626 -2.27374 -0.00617241 0.0435551
816 9.36916 1.06628 9.96844 1.22469 -0.832738 0.923383
41 10.8923 1.23485 9.44837 0.327733 0.322415 -0.487218
57 1.24371 2.0415 9.70253 -0.0330476 -1.23212 1.3496
568 0.559216 3.18823 10.8147 1.14115 0.419819 0.868049
345 1.65492 2.40172 10.9486 0.194738 -1.0924 1.27154
815 3.07685 1.95386 10.2056 1.44573 1.5504 -0.504205
393 4.04043 2.57246 10.3385 -0.446092 0.587863 -2.18685
169 2.88294 0.935918 8.81916 -0.56659 -3.63262 -0.177959
207 5.89132 0.316472 10.0864 -0.123547 -1.02554 -0.313618
821 6.41656 2.80485 9.50077 0.481203 0.722084 -0.987411
258 7.44701 2.44042 8.90584 0.00672963 0.201789 0.0467267
754 7.90998 2.85971 9.94935 -0.204441 1.4791 -0.706774
435 8.89584 1.92952 10.0797 -0.119212 -0.839569 1.54087
94 7.73222 0.995092 11.0724 1.03995 -0.833819 0.673767
586 10.7468 2.37413 10.4347 0.660945 0.772542 1.08264
853 11.289 3.10984 9.63651 -0.341017 0.627943 -1.85938
760 11.9703 4.45619 10.7471 0.0541082 -0.0524878 0.436582
828 6.41299 4.19081 9.91874 1.44646 0.143991 0.837538
728 7.16201 4.69023 9.23821 0.274905 0.492402 -0.196304
282 8.39463 3.46342 9.11141 -1.32817 -1.07129 0.877838
371 9.14429 3.19764 9.83875 -0.788683 -2.14117 -0.466949
833 11.808 4.06255 9.74123 -0.217801 1.09687 1.86561
47 0.498082 5.42124 8.87885 -1.11512 1.49122 0.533703
440 11.9144 5.87442 9.96446 0.949372 0.105043 0.0476206
499 2.80306 5.03634 10.3346 -0.541704 -0.772299 -0.08721
155 2.14766 5.81822 10.6222 -0.375155 0.627395 0.123841
220 1.61782 5.48441 9.63295 0.159609 1.18322 -0.0941454
807 3.05496 4.87464 9.10218 -0.615594 0.845366 0.0801682
604 2.29852 5.81845 8.91479 -1.19606 1.13055 -0.753773
687 4.64364 4.98312 10.1179 -0.335714 -0.646783 -0.255895
38 3.42946 5.74547 9.8273 -0.167061 1.07898 -0.423259
618 5.65179 4.91821 9.85675 2.01063 0.0103775 -0.125699
669 10.0298 0.463678 10.7239 -0.59982 0.802625 -0.254106
826 6.8568 5.86845 10.0966 0.290763 -0.78601 0.560937
801 5.14087 5.59837 11.1147 -0.362478 -1.22381 -1.65988
404 8.36792 5.37798 9.81171 -0.718056 -0.166761 0.343751
313 9.24001 5.94486 9.45026 -0.100885 0.857831 -0.44508
731 9.36211 4.80343 9.46333 -1.14894 0.258939 -0.891712
747 10.5674 4.64853 10.1549 -0.791785 -1.25041 1.99891
455 10.8347 5.85703 10.108 -0.0879632 0.991901 -0.725754
125 4.27998 5.58859 8.20721 0.0612636 0.0799352 -0.611259
729 0.805893 0.620531 11.4303 -0.77103 -0.772603 1.44915
71 0.200017 1.85654 10.5983 -0.925264 1.1577 -2.07026
750 0.830088 1.70388 11.8786 0.025684 -0.260479 -1.23679
472 2.70388 1.12851 11.0725 0.741693 -1.0831 -1.50987
250 1.98306 0.404277 10.2577 -1.13902 0.209679 -0.271249
483 10.9751 4.84854 11.0801 -0.845223 1.94559 0.300791
797 2.89086 0.0676316 10.9085 -1.04535 -0.302119 -0.805407
131 9.87887 3.74478 10.5058 -1.15191 0.209531 -2.95388
80 0.194914 5.84616 11.2451 1.5066 0.438657 0.450234
109 6.77806 0.664128 11.0004 1.06024 -0.394417 -0.572042
561 6.78073 0.150653 8.51785 -1.38655 -0.493294 1.05733
843 8.98561 0.766864 11.8109 -0.691878 0.767001 1.0345
149 3.51321 0.521815 9.88577 -1.2055 -0.000819502 -0.811923
567 10.8751 0.410636 11.4351 -1.1739 -0.831089 -0.989718
410 11.5369 0.105728 10.3755 1.42679 -0.415641 -0.183648
512 7.83785 3.44069 11.4425 -1.2003 -0.883686 -0.391137
634 1.61377 1.31577 11.177 0.807633 -0.389545 0.0138923
154 11.9138 2.18888 11.9229 0.627113 -2.01281 1.32077
234 3.06816 2.92711 10.8829 1.66017 1.65493 -0.640191
793 3.86007 2.26283 11.478 -0.940068 0.641827 1.03304
49 4.11039 1.48956 10.3063 2.29526 0.386806 -0.968329
802 4.81908 1.35965 11.1023 0.602732 -1.84634 -1.7576
366 4.29369 0.639686 8.07092 -0.335686 1.94602 -0.280969
696 8.42521 1.92148 11.4921 0.738277 0.869466 0.220171
489 9.48905 1.63819 11.0195 0.522196 0.123652 -0.145992
305 3.40656 1.06697 11.7938 0.392203 -1.25258 0.697716
431 10.2918 1.76515 11.7043 -1.09749 0.492515 -2.64715
68 11.0821 2.65425 11.4462 0.464524 2.47753 0.463781
301 11.3182 1.33849 11.6905 1.45101 -0.0843211 0.597582
530 8.76247 4.76023 10.6625 1.42119 1.20006 -0.167133
312 1.8008 3.39101 10.9644 -0.716781 0.0204861 -0.35889
743 7.946 3.98838 10.177 -0.509655 -1.16399 0.177579
738 5.71734 2.54019 11.2452 -0.960893 -1.52614 0.492815
490 8.74308 3.6022 10.7386 0.749089 0.300746 -0.899866
515 6.41483 1.00792 11.914 0.375559 0.407598 0.623368
808 8.8015 5.9615 11.3807 -0.50102 0.372555 -1.55294
580 6.48491 3.7721 11.9924 -0.785476 2.33262 -1.27268
715 6.52351 9.13165 5.97849 -1.09707 0.752609 -0.635754
761 3.88262 10.0054 5.36754 -0.0915062 0.386451 -0.600488
710 1.56674 6.98245 1.03422 1.01292 -0.850151 1.62363
437 1.51112 6.37561 1.97169 -0.2262 -1.25279 1.01034
746 3.04985 6.57573 0.601049 0.61612 -0.00193118 -0.0976101
736 6.25941 7.87814 0.816884 0.458112 1.51314 -0.289476
396 0.668134 10.346 5.51593 -0.687142 0.32809 1.42063
279 2.5146 11.6228 1.15172 -1.42544 -1.49207 1.35896
582 5.11767 7.05364 0.932007 0.88815 0.654673 1.18356
93 6.56208 6.77344 0.81492 0.0797514 -0.575547 0.817511
86 7.57323 6.1318 1.40161 -1.59273 -0.183102 -0.0921535
553 11.4046 11.3072 5.02414 -0.538917 0.484184 0.378966
817 7.98307 6.31358 0.0326947 -2.06918 0.160499 -1.36881
143 9.75446 7.02976 0.727022 1.22075 1.43458 -0.398935
120 10.6232 6.47987 1.00624 0.246788 0.759992 1.41111
448 0.217489 6.57421 0.0670407 -0.721086 -1.14889 -1.4732
733 10.4809 7.55705 1.56981 -0.00648301 -0.608608 0.481889
762 1.21212 9.22143 0.535448 0.429922 -0.416524 -0.374444
235 0.716568 7.55861 1.93735 -0.620654 -0.223046 -0.0362409
714 2.4693 7.57911 0.679203 -0.288014 0.345275 -2.78922
270 2.08515 8.61999 1.20824 0.56981 -0.114862 -0.178976
16 3.69874 9.08703 1.59691 0.271955 0.30181 0.692927
851 3.75284 7.77687 0.679105 -0.327344 -0.779562 1.33569
231 1.38741 11.7255 2.41335 0.0653351 0.597911 -2.8579
228 3.16858 8.66916 0.44375 -2.07049 0.462555 -0.925449
673 5.55833 8.72464 0.819335 1.40592 1.00785 0.766378
478 4.84226 7.96512 1.30981 -0.385338 0.162656 -0.0329336
654 7.34353 8.27253 0.495816 1.74214 -0.36416 0.229788
317 7.74258 7.11152 0.715927 2.09723 0.267379 -0.631667
158 9.32362 7.85458 0.113763 0.658645 0.652074 -2.50537
839 7.87036 7.90962 1.53377 -1.51316 -0.229014 0.877566
119 4.47681 6.18592 3.12946 1.23567 -0.186115 -1.39292
411 10.4488 8.82134 1.08549 1.16306 -0.657008 1.40881
400 0.740637 7.46913 0.501608 0.211199 0.578057 0.640471
533 0.415134 8.52299 0.968159 1.25817 -1.98274 2.45073
249 11.8854 9.64257 2.25802 -0.940635 -0.322212 1.03336
543 0.957649 10.087 1.13666 -0.576078 0.670873 1.15498
253 2.19589 9.29654 0.466816 0.580334 0.773377 -0.536648
445 2.9462 9.8977 1.58984 2.68009 0.542171 1.81211
450 2.82488 10.303 0.356213 -0.581718 -1.1947 -0.0988232
34 3.60535 9.55829 0.659999 0.0251755 1.21611 0.553427
820 4.58826 8.97931 0.181911 0.643379 -1.46432 -0.607511
496 6.30233 9.35697 0.999002 1.15167 -1.769 0.880854
236 6.17965 10.9955 5.69373 -1.28759 0.132377 -1.51944
720 9.57881 9.3468 0.737134 1.07935 0.184487 -0.346613
503 9.22958 10.5522 0.777163 -0.959043 -0.247197 1.68995
621 9.98926 10.0513 1.47527 -0.392711 -0.550095 -0.0773391
419 10.1891 10.1818 0.239474 0.920967 1.14936 0.797172
692 4.93861 11.8612 5.24611 0.202992 0.0990586 1.83071
138 11.0773 9.94122 1.45081 -1.18321 0.280843 0.340599
18 1.25365 6.21382 0.397689 -0.172257 1.16845 0.834467
384 0.769743 10.9271 0.52465 1.53576 1.31268 0.412939
460 7.22987 6.73797 4.85872 -0.250857 1.18162 0.645212
661 0.14819 11.8296 0.839318 1.57806 0.93111 1.34143
649 2.1043 10.4997 1.10318 -1.16984 0.275613 0.891719
836 3.52132 10.8897 1.72627 -0.253653 -0.114755 0.413191
377 3.52471 10.8565 5.72875 0.0238482 -0.227531 0.610168
189 5.30509 7.8867 0.1936 -1.02093 0.00993645 1.41554
11 4.04104 10.6428 0.789318 -1.99188 0.430417 0.82659
800 0.553153 6.0389 5.84186 1.71963 0.0311253 0.379739
379 8.48039 9.77524 0.878025 0.607041 -0.657749 -0.744205
668 8.27457 11.5646 0.847568 -1.45143 1.20253 0.122864
664 0.20505 9.39742 0.214076 -1.34891 0.909696 1.02444
336 1.46672 10.2496 0.0851347 1.64095 -0.59763 1.22982
592 10.6104 10.9306 1.02023 -0.385552 0.44571 0.183696
629 11.3647 11.8099 0.246121 -0.887129 -0.962223 -1.42003
212 11.5858 6.87182 1.61626 -0.499934 0.356243 -1.0901
609 1.2346 6.08142 3.17419 -1.41019 -0.343938 -0.051157
581 4.72048 6.75279 2.19787 -1.7463 -0.950382 0.114956
413 3.62624 6.29565 2.46801 0.0180498 0.183505 -1.7601
678 5.82831 7.45294 3.77156 0.414165 1.8892 -0.344703
90 6.93765 6.07341 2.19869 0.430564 -1.36319 -0.51158
438 7.74775 6.89274 2.41551 0.256767 -0.698211 0.0715008
744 8.62121 6.42907 1.04594 0.340522 -0.915177 -1.63028
319 1.86208 11.8815 5.65255 -1.03623 -0.548921 -1.07427
787 9.69001 6.56573 1.69409 0.173003 -0.0788395 -1.25892
36 10.7062 6.60397 2.42951 -0.255864 0.00944405 -1.76264
504 1.07062 9.02706 2.67865 1.02288 1.47101 0.0456871
704 2.12575 7.77604 1.93978 0.806719 -1.22576 -0.115715
513 2.03341 9.48199 2.39516 -0.353729 0.411809 -0.840986
777 3.04424 8.76181 2.35173 -0.644939 -0.572734 -0.719977
722 3.82603 7.8403 2.61142 -0.925199 -1.53613 0.502724
52 3.04419 7.37661 1.54487 0.5288 -0.322732 0.634263
606 5.10255 7.7971 2.93711 -0.936933 -0.487322 -0.704961
856 5.75887 9.02839 1.82146 -0.391354 0.751576 -0.547653
644 6.70981 8.52002 3.29406 0.546765 -0.479652 -0.268423
192 6.2382 7.67021 2.728 0.0628172 1.2356 1.24841
688 6.78362 8.54288 1.91344 -1.01148 -0.262107 -1.44966
520 6.62228 7.26296 1.73371 -0.0179818 -2.01638 -0.360454
753 7.82436 9.0326 1.56542 -0.466598 -1.82243 -0.237429
303 8.20851 8.36888 2.63213 0.174407 0.911984 -0.00539186
764 9.03484 7.84635 1.1594 -0.453496 -0.318069 -1.66203
334 9.64498 8.59869 3.0982 -1.32623 0.168202 1.20514
130 9.6448 7.51487 2.64546 -1.02547 -0.522144 -0.445491
545 8.64513 6.79894 2.01452 -0.324277 1.3743 1.39358
452 11.4749 8.34161 1.89286 -0.240559 0.582694 -0.390482
681 10.8761 7.51688 3.36079 0.12346 -1.17861 0.475766
233 10.5406 9.17938 2.09218 0.854975 0.688322 -1.10588
717 1.02379 8.93359 1.65643 0.812869 0.326038 0.629271
126 0.937018 10.2494 2.58159 -1.71794 0.166788 1.20852
725 2.07955 10.7552 2.21745 -0.455524 0.512145 0.0163114
21 3.00904 10.2262 2.63999 -0.999966 1.35448 -0.578091
351 3.95755 9.98042 1.97782 1.65001 0.413614 0.812127
75 4.8221 9.77057 1.21005 0.879146 -1.0428 -1.74473
462 5.43726 9.93443 2.60236 -0.427851 -0.191782 -0.319813
835 7.4033 9.44404 0.56968 0.241624 -0.675952 -1.73417
357 9.92053 10.2315 2.48489 0.0287905 0.794196 0.238725
91 11.01 10.1091 3.10106 0.870611 1.20699 0.0571188
774 0.97604 10.9215 1.70294 1.03484 0.893765 -0.769661
558 9.98611 11.246 4.87936 -0.270523 0.382617 -1.42684
77 1.34328 11.8168 0.978955 -0.605141 0.58401 0.0237421
548 4.8178 8.1324 5.70707 -0.49206 -0.652261 -0.938079
493 6.17442 10.4064 1.28428 0.795652 -0.263317 -1.0697
526 5.8983 11.6427 1.88931 -0.796014 0.0736753 -0.331407
528 7.6194 11.6827 1.76471 0.494543 0.371136 0.0413909
814 8.16542 11.1721 3.26588 0.369142 -0.244538 -1.17522
8 9.7789 11.0603 1.61078 -0.552847 0.738101 -1.61474
532 10.7868 10.7849 2.13469 0.098672 -0.569633 -0.535971
767 11.8016 10.9624 1.26349 0.143893 -0.576951 -0.215757
257 10.2613 10.6287 3.90082 -0.139811 -0.515658 0.737414
572 6.58129 10.5718 0.11962 1.05623 0.423624 0.0534643