ITEM: TIMESTEP
40320
ITEM: NUMBER OF ATOMS
864
ITEM: BOX BOUNDS pp pp pp
0.0000000000000000e+00 1.2000000000000000e+01
0.0000000000000000e+00 1.2000000000000000e+01
0.0000000000000000e+00 1.2000000000000000e+01
ITEM: ATOMS id x y z vx vy vz
68 0.946953 0.860643 0.62733 -0.582411 -0.349554 0.115485
344 2.11087 0.718371 0.532934 -0.0471906 -0.459673 -1.21951
55 4.15082 0.513414 0.514407 0.0756045 -1.19484 0.229581
296 3.33876 1.08037 5.80568 1.08421 0.822033 -0.133227
429 5.38267 0.948413 1.91366 -1.13882 -0.208192 2.39476
11 6.7448 0.85861 1.10997 -0.298851 -1.28145 -0.862603
650 8.01272 1.03279 1.06717 -1.13708 -0.981689 -0.46285
668 7.66461 0.0779026 1.31153 -0.282964 -0.620172 -1.42085
707 11.2015 2.50575 5.90767 0.40472 0.765167 -0.912721
491 8.71408 0.246859 0.955063 -0.0902871 -0.810362 0.262762
490 9.0442 1.45609 0.0364346 -0.514272 0.938111 0.0116632
570 9.88855 0.529192 0.80899 0.617341 -1.25503 1.18415
425 9.73073 4.79945 4.88436 1.72847 0.739004 1.82856
27 11.9418 0.344756 1.15945 0.276959 1.26856 -0.138366
301 11.5517 1.32863 1.38355 2.12797 1.52256 0.676924
843 10.939 1.00507 0.315212 -0.0580631 1.28904 -0.985191
853 0.078839 1.73117 0.0780145 -0.600348 0.652784 -1.1245
399 1.25956 1.93907 1.16308 -0.491313 0.666773 1.6349
576 11.8894 4.84838 4.84317 1.02668 -0.0160645 -1.06126
298 2.40939 2.23156 1.57538 -0.263927 -1.54827 1.37312
538 3.06255 1.59996 0.431375 -1.21561 0.131512 1.17889
327 6.98704 2.41694 1.28258 -0.687489 0.218942 0.167524
82 5.98633 1.98662 1.02523 0.880855 1.05493 -0.599286
712 8.60964 2.00523 0.902498 -0.235551 -0.820725 0.670512
193 9.71471 3.06188 2.08935 0.323872 1.62234 1.20568
567 9.87006 1.69674 1.20607 -0.296496 0.275817 1.74583
371 10.9106 2.31453 0.474341 -0.206293 1.11505 -2.32165
494 1.20418 3.82852 1.25124 -0.717281 -0.00773959 0.00604095
848 3.25502 3.82008 0.0477211 0.342152 -0.974539 -2.2551
266 3.56188 4.26563 1.24508 0.0630733 -0.598074 1.18263
770 5.07013 4.11706 0.597293 -0.624496 -0.3096 1.19825
808 6.45989 3.47274 1.46997 1.19183 0.592155 0.780583
97 10.5075 0.597583 5.806 0.301637 -1.03317 -1.4676
109 7.66311 3.30203 1.22835 -0.571596 -0.613699 0.304747
768 8.79725 3.93528 0.994975 -0.505694 -0.347674 -0.839116
188 9.15352 3.06459 0.0814917 -0.507835 -0.567661 -0.396692
79 10.1748 4.08601 0.826556 0.651725 1.2944 -0.597941
441 0.16686 4.32839 0.333234 0.0626261 -0.757885 -0.420082
135 0.504854 5.55392 1.25411 -0.222295 0.923916 -0.443741
195 3.42811 5.10738 0.73023 -0.696607 -1.12993 -1.4753
660 4.28457 0.524771 5.80011 0.591478 -0.710153 0.599444
107 5.14698 5.26654 0.0340369 -0.269467 -0.50715 -1.02952
369 6.32981 4.47391 0.404294 1.5875 0.358575 -1.71485
510 8.10235 5.6196 0.445505 1.76277 0.192117 -0.85157
36 8.57324 4.84012 1.38337 -0.135222 0.12131 0.528523
655 9.02705 4.78161 0.0510882 0.0109149 0.0824206 -0.177237
389 6.49505 4.63975 5.02285 0.950576 3.10566 0.52713
187 10.0842 5.34395 0.96023 -0.581402 -0.291507 -0.788245
605 11.2766 5.07454 0.66948 -0.39673 0.09208 -0.173213
750 0.654162 1.05596 1.74471 -0.251947 0.159189 0.514734
625 0.690758 0.586622 2.96458 -1.06223 -0.780694 0.474016
261 11.4204 5.07775 5.94462 0.384524 -0.558911 -0.99733
765 3.24543 1.09331 1.69439 0.572097 -0.606614 -1.07228
262 1.82152 0.591264 2.53383 -2.09183 -1.88749 1.02969
520 4.849 0.0485219 2.55366 1.63691 -1.12618 0.649608
81 3.49614 0.407967 2.40629 0.606579 -1.48401 -0.342013
398 5.55183 0.217667 3.55508 1.40233 0.912144 0.774883
684 6.89711 0.382293 2.33092 0.284448 0.50572 -0.230227
667 8.2798 0.326986 2.18485 0.340131 -0.762143 -1.23462
614 10.5421 0.908027 1.92472 -0.683492 0.45064 -1.06453
628 11.5819 0.741044 2.39518 2.93726 0.503058 1.72531
652 0.217968 2.86772 3.13446 -1.21265 1.80419 -0.00761602
724 2.90358 2.70351 2.89005 0.21507 0.285171 0.787707
634 3.83662 1.45316 2.54208 1.01544 -0.912993 -0.708524
224 5.81173 2.67961 3.07089 -0.760965 1.24718 0.423467
199 4.95285 1.26688 2.92082 -2.05013 -1.05441 -0.8806
700 9.33618 2.04331 2.0517 2.61046 0.174934 -1.10508
401 8.71219 2.91376 1.37164 0.459883 0.0246049 -0.209351
492 8.03977 1.91347 1.96248 1.0282 0.664792 -1.6829
522 9.05318 2.72042 2.88318 0.354905 -0.529734 1.37826
844 0.00128566 2.11112 2.11878 -0.702608 2.35584 1.77117
798 10.8088 2.05108 1.62735 0.735814 0.632382 -0.79376
320 0.993939 3.70618 3.21073 -1.63176 -1.66592 -0.766608
793 2.28019 3.82388 2.30082 2.14903 -2.00051 -0.1658
472 2.89384 3.46896 1.59873 -0.4224 0.923964 -2.3518
127 3.00439 4.78439 2.2958 -0.962626 1.50381 -0.266593
35 4.67788 3.94004 2.60273 0.346537 1.16206 0.484119
341 5.61209 3.97433 1.85535 -1.58513 0.419087 0.578805
562 8.06112 3.9735 1.95378 0.581616 0.871823 -0.417607
18 9.17225 4.02568 1.88665 0.642123 0.291256 -0.718498
53 10.7097 3.21681 2.53938 0.392537 -0.837874 1.29376
402 10.7732 4.52627 1.80456 0.0964884 2.08643 -1.04929
840 0.59964 4.4057 2.32435 -0.00925461 -1.55771 -1.36529
508 1.49814 4.81314 2.65621 1.82857 0.668818 -0.468495
312 2.01209 5.6123 3.12043 -1.02118 -1.27653 0.889201
577 4.38001 4.86826 1.66921 0.776754 0.790176 -1.15127
413 3.42368 5.76866 2.08368 -0.63559 1.60427 1.16081
409 5.24974 5.16537 2.50621 -0.264859 0.264907 -0.842475
730 6.77223 5.08091 3.15683 1.08845 0.199335 0.160956
99 0.886295 1.67789 5.85161 -0.389284 -0.0299208 -0.368494
129 7.6839 4.64631 2.71401 -1.32916 0.336446 -0.410775
334 8.42604 5.87846 2.50048 0.0980052 1.32279 0.152225
787 9.37371 5.84248 2.15365 1.50079 0.961432 0.775149
363 10.6592 5.57083 2.16067 -0.612313 1.31936 -0.734251
663 0.0338986 5.34517 2.25484 0.305234 -0.165183 0.712934
147 2.43178 0.863661 3.53663 -1.00901 0.913536 -0.323308
749 4.34391 0.736445 3.6882 -0.789533 -1.29674 0.586011
74 3.29359 0.681047 4.24815 0.152797 -0.628245 -0.227678
231 5.11633 1.11042 4.27877 2.08282 -1.9546 -0.520593
686 6.87383 1.34975 4.61757 -1.02126 -0.376074 1.19887
638 5.86325 1.16988 3.26318 0.488104 -0.671425 0.297182
662 6.44681 0.560443 4.12447 0.204366 0.11336 0.591286
709 7.56697 0.469291 4.09345 0.196181 -0.343914 0.197143
659 7.15796 2.59327 0.318777 0.0488996 2.19633 1.40001
464 8.49295 1.60274 4.0847 -1.45938 0.0377894 0.153935
110 9.49766 0.683629 3.93396 -0.326815 0.0770063 -0.928966
556 10.4279 0.340393 3.43388 0.184124 -0.924974 -0.36074
19 10.0605 1.65583 4.12993 -0.381704 -0.317859 -0.592833
558 10.9096 0.754651 4.37588 -0.0251356 0.687841 -0.285362
354 1.00188 1.97111 3.72808 1.66429 -1.59652 -0.108418
72 2.30253 2.02055 3.41046 -0.0807962 -0.147072 -0.115882
353 2.82501 1.69103 4.32837 1.09871 -1.16945 -0.0738949
651 4.08767 1.78704 3.67895 -0.297193 -0.490372 -1.57317
537 3.94515 3.13992 2.74447 1.47581 -0.58712 -1.50538
418 3.94127 2.61096 4.35251 -0.634786 0.544047 1.96403
160 5.01578 3.13415 3.61156 0.825842 1.09057 -2.23821
280 5.82778 1.96931 4.20296 0.238282 1.16738 0.978395
168 6.60048 2.87933 4.11428 2.00085 -0.132547 1.23533
685 7.44568 2.639 3.15353 0.421165 -0.83168 -0.100097
40 8.17818 1.75193 2.90073 -0.60386 -2.61463 0.229389
536 8.48005 2.56572 3.6332 0.0132731 0.543149 0.390202
590 7.6494 2.16901 4.062 -1.28236 0.575256 -0.453539
105 9.23082 1.66961 3.14304 -1.65571 -0.0759436 -1.6663
367 10.577 2.91056 4.12216 0.743371 -1.06469 -0.420344
528 11.1431 2.24246 2.99641 -0.769783 0.810456 -1.53061
196 0.680139 4.60585 3.92654 -1.77088 1.93349 1.26638
157 1.5219 2.86555 3.50592 -2.04693 -1.37474 -0.605224
540 1.88327 4.09896 3.35682 -0.689262 0.514476 -1.27177
103 3.17074 3.85333 2.90636 -0.0635656 3.0151 -1.84519
324 5.12389 4.07637 4.38619 0.00713122 -1.26178 1.33628
306 8.19144 3.49964 3.11427 -0.885596 0.786369 -0.0197872
331 7.89043 4.26267 3.77655 -1.30399 -0.702092 -1.27847
213 8.0586 3.09619 4.54053 0.257877 -2.17575 0.738908
477 9.70891 3.69465 3.28208 -1.12292 -1.69706 -0.685287
175 8.72844 3.67785 3.93265 -0.457962 0.00761788 -0.367902
596 10.2762 4.20832 4.25739 1.12382 -0.310052 0.566601
80 10.8169 3.76931 3.56547 0.446092 1.01157 -0.241895
615 11.7861 3.61305 2.47038 -1.36696 -1.02671 -1.19025
640 0.196364 5.76143 4.49565 0.780637 -0.771727 -0.0848644
51 0.210806 5.56742 3.34364 -0.340906 -0.325092 -1.132
387 1.31992 5.6655 4.10641 -1.33977 0.984635 1.1752
285 2.57577 4.79455 3.47428 0.342661 -0.363757 1.27708
506 3.00586 5.27852 4.3141 0.852488 -0.131917 -0.433025
620 4.14496 4.88849 2.71397 0.990709 -0.696934 0.0277719
54 5.42111 5.24598 4.5154 -0.633183 -0.320827 1.5081
259 5.76028 4.60655 3.40235 -1.58836 -0.223273 -0.704155
697 6.55495 5.57937 4.45167 1.43178 -1.05173 -0.842716
583 8.18294 5.38544 3.77946 0.56761 -1.23562 -1.28104
691 8.77131 4.65355 3.31859 0.872259 1.13106 0.816575
527 9.84315 5.0172 3.43544 0.350247 -1.48392 0.654077
137 10.3889 5.4554 4.20642 -0.461138 -0.560933 -0.548185
254 9.31191 5.7018 4.00788 0.662482 0.261067 -1.94083
120 11.2364 4.94019 2.74729 -0.673254 1.80374 -1.03464
198 11.8034 3.92657 3.67309 0.155432 -2.1265 -1.30145
114 11.4442 5.13137 3.95344 1.86838 -1.19412 -0.569452
126 1.23478 0.657155 5.15452 -1.08236 -0.460811 0.695625
84 3.53615 0.3229 5.23286 -1.94958 -2.17199 -0.543611
139 6.87903 0.735351 5.54658 1.55457 -1.14317 -0.277039
432 6.24929 2.37531 5.92727 0.392638 -2.50649 -0.330011
705 7.86103 1.01604 5.00862 0.24316 0.917233 1.05797
799 9.31862 0.658584 5.93458 -0.693258 -0.31241 0.0439392
314 9.9631 0.934089 4.9231 -1.08788 1.24449 -0.815222
290 11.5208 0.893077 5.56779 1.6788 -0.953745 0.921424
190 0.782708 3.03335 4.60391 0.0199614 -1.19228 -1.37308
87 10.8839 5.16038 5.1113 0.520058 -0.814353 0.410667
297 2.13286 2.9831 4.96571 0.332024 0.00714232 -0.229969
692 4.09481 1.66236 4.86793 0.630879 -0.486059 0.69555
247 3.19175 2.26201 5.55655 -1.36508 -0.608883 -1.43035
215 4.48166 2.48899 5.54168 -0.604122 0.408769 1.05516
300 5.1338 1.44313 5.36269 0.383559 -1.13983 0.860235
43 5.3733 2.87522 4.78866 -0.519846 -0.844805 0.164215
42 7.38365 2.52529 5.23934 -0.386097 -1.5835 -0.0344498
45 8.32382 2.83502 5.78625 -0.101595 1.18575 1.32522
232 8.96732 5.54995 5.57063 0.702069 -0.620207 0.483945
579 8.40432 2.05766 5.14377 -1.04882 -0.452106 0.993912
144 9.35456 2.39573 4.67133 -0.578093 1.74494 0.426507
225 10.0775 2.15664 5.47296 0.0476505 0.913622 -1.33803
272 0.016394 3.02157 5.36989 0.914517 -0.0188872 0.0690212
573 1.37964 3.7833 4.30572 0.524928 -0.316213 0.428736
117 0.494216 4.04666 5.11348 -1.5525 2.57118 0.566502
58 6.05844 5.81369 3.29892 -1.36419 -0.514742 0.313999
295 2.57004 3.90125 4.54494 -1.55196 0.613647 -0.910279
380 1.95456 4.30901 5.68933 0.90221 0.426989 -0.84918
321 4.9084 4.73854 5.3505 -0.663543 1.97866 -0.593886
376 5.82848 4.2261 5.611 -0.167802 0.76599 0.850946
265 6.11594 3.69552 4.72302 -0.375463 -0.514939 -0.566926
785 8.21002 3.81897 5.341 0.30758 1.61413 -0.735981
28 8.49081 4.58677 4.63022 0.223905 0.684558 0.372604
276 9.35153 3.89221 4.79687 -1.55723 -0.116806 0.21565
316 9.29797 4.52573 5.80503 1.23404 2.52618 0.918263
292 10.2386 4.19861 5.61489 0.628782 0.958997 1.46501
26 9.60445 3.10022 5.64837 -0.495237 -0.506637 -1.28467
255 10.5703 3.21167 5.12398 -0.144435 0.0590111 -0.138104
64 11.3613 3.99353 5.31435 -2.05729 0.0451946 -1.50832
307 0.951294 4.97249 4.89499 -0.217501 -0.415396 1.74367
631 0.522555 5.16227 5.83439 -0.62253 -0.416533 -0.551263
694 1.9624 4.70014 4.57126 -0.0963974 -0.311115 -1.08107
759 7.84273 5.41953 5.819 -0.107707 1.29491 -1.26804
119 2.17613 5.5093 5.23376 0.636699 -0.535515 -1.60253
551 3.49465 0.0519417 3.42843 0.668091 0.88553 -0.0490902
2 4.77458 0.0822309 5.01809 -0.109942 2.2064 -1.16208
516 2.92437 5.97336 2.93075 0.488559 -1.72679 -0.683131
531 1.19823 5.98084 5.33757 -0.774696 -1.54439 -0.240023
549 8.28153 0.627192 0.00429115 0.526665 1.36738 0.387244
134 0.587424 0.276979 7.4788 -0.543569 0.472204 2.45265
57 1.59058 1.02474 7.60439 0.402257 1.07792 1.77396
172 2.70401 0.121431 6.11947 -1.32904 -0.674568 -0.702688
346 2.29894 1.14443 6.04737 -0.64431 -0.0250365 -0.215874
145 3.81592 1.58891 7.4299 -0.454617 1.32062 1.26038
154 10.204 5.55339 10.4951 -0.647021 -1.10083 0.194664
467 3.48479 0.522197 6.79339 0.561316 -1.14497 -0.0885002
283 5.44892 0.911947 6.20046 -0.307478 -0.115751 0.702639
407 5.83386 0.539631 7.31644 1.45797 0.384415 0.36151
264 5.03752 1.19574 7.31692 1.66565 0.996603 -0.19702
245 7.66516 0.303737 11.2533 -1.23865 2.40303 0.577243
406 6.90807 1.18425 6.67955 -0.159442 0.522929 1.71969
186 8.31 0.568437 6.41979 -0.0972215 -0.0769978 0.142106
783 7.89835 1.63924 7.34219 -0.479405 0.881223 2.2405
517 9.86354 1.20404 6.57316 -0.318238 0.72313 2.54769
766 8.85268 0.679864 7.40367 0.0195684 0.657112 -1.48106
356 11.5423 0.0324511 6.88633 1.6439 0.14831 -0.377615
31 10.778 5.85116 8.1559 -0.953297 1.7024 -0.517731
386 2.73571 1.12508 7.17186 -1.72278 -0.826406 0.177534
95 1.65841 1.8995 6.85376 0.17691 -0.730226 -0.182602
830 2.3686 2.81433 7.68029 0.295689 0.436226 2.20778
810 3.11118 2.50696 6.68849 -1.21629 -0.113492 -0.0888713
210 4.10329 1.75077 6.244 0.186268 0.150319 -0.750205
108 5.56379 2.32401 7.45313 -0.820596 -0.0622717 -0.0439993
395 5.39573 1.95977 6.44132 1.34596 -1.65503 0.491126
250 4.50236 2.43975 7.11237 -1.32482 0.620495 -0.459744
132 6.92059 2.56166 6.77949 -0.277504 0.46301 -0.589081
741 1.29816 2.94029 6.67787 0.241697 0.909592 1.92656
599 8.92779 2.00875 6.6827 0.602158 -1.69937 -1.01992
593 10.2149 2.52525 6.46593 1.95106 0.0456408 -0.2105
687 6.54703 3.63509 11.8334 -0.279999 -0.364924 -1.49648
177 11.0546 1.15423 6.70765 1.00529 -0.716599 -0.979116
278 0.0965415 2.29977 6.61526 0.575231 -0.675843 0.172172
653 0.23723 3.55936 6.17419 0.266672 -0.312985 1.20843
430 1.28818 4.01014 6.41168 2.20352 -1.28773 1.1956
269 2.82607 3.99278 7.06423 0.969672 -0.148495 1.30525
679 4.12974 4.6631 6.94632 1.33506 1.3387 0.88899
183 5.05916 3.29357 6.26703 0.94544 -0.81524 -0.280189
565 6.66542 3.98289 6.94029 -0.220697 -0.54141 0.375281
78 7.51837 3.42015 6.16338 0.324014 -0.301918 0.0392386
769 9.21314 3.95225 6.83634 0.321135 0.137662 0.398825
104 10.0619 3.57862 6.47556 -1.55933 -0.932221 -0.57394
13 11.211 2.98338 7.24255 0.331951 -0.302867 -0.181414
818 11.8603 3.94626 7.13188 1.0944 -0.614278 0.316152
25 0.784485 4.76684 7.04285 1.57744 0.136988 -0.579873
633 0.717632 5.76491 6.74302 0.623604 -0.431737 -0.274672
825 2.77539 4.84002 7.89564 -0.588834 0.0198769 1.29298
811 2.71423 3.32423 6.19707 0.497422 0.0924184 1.50271
834 1.53791 5.03031 6.33779 -1.26779 -0.250817 -0.823571
133 3.17898 5.67171 7.03175 -0.00933037 1.56348 1.6416
575 4.68159 5.53723 7.31234 -0.423915 0.415583 0.877934
200 7.92167 4.68295 7.33735 0.542773 -0.999387 -0.810334
473 7.94484 4.46224 6.24946 -2.28212 -0.800484 0.120513
273 8.65587 5.71194 6.60898 0.32687 1.36088 0.149869
174 9.41702 5.16532 6.98226 0.985917 -0.192826 -0.269503
512 9.46566 0.296625 11.8592 -1.27456 -0.823133 -2.24598
365 11.0184 4.64535 6.87738 -0.853387 -0.251082 2.09607
370 0.0368054 1.15787 7.58612 -1.1658 -2.61109 -0.764328
833 0.678811 0.768675 8.43728 1.01181 -1.57552 -1.63935
246 2.72387 0.21697 7.70296 -0.784778 -0.23651 -0.334422
322 1.85127 0.575989 8.56862 -0.778398 0.191059 1.4211
284 3.38618 0.869109 8.1884 1.5398 -1.72716 1.22945
824 6.53336 0.719798 9.46894 2.1628 1.00714 1.70787
781 4.27603 0.520136 7.41575 -1.14061 -0.0827975 -0.721249
328 8.36672 1.08852 8.20494 -0.389523 0.155504 0.852498
616 9.75989 0.796827 8.32676 1.11144 -0.0752829 -1.30241
3 10.5901 0.523944 7.19258 0.114084 1.25255 -0.928505
612 10.5728 1.50337 9.07706 -1.41282 2.40484 0.281586
325 11.4979 0.288394 7.93494 0.944404 -0.676557 0.844959
345 1.17639 2.183 7.87967 0.26255 1.95864 -0.551433
122 4.46281 1.85738 8.24614 -0.853694 -0.486913 -1.49224
858 3.2941 3.68756 8.98461 -0.0490993 1.90738 0.656452
150 6.6005 1.7132 8.78544 0.0510869 -0.635267 1.01701
701 6.61589 2.25053 7.81521 0.401459 1.70611 -0.639558
682 9.31697 2.34829 7.94513 0.119797 -1.27835 0.356887
754 9.03699 1.32901 9.1704 -0.645204 -0.699222 1.92616
600 9.98162 2.91857 9.11293 1.56137 0.525175 1.2672
780 10.1404 2.70873 7.48159 1.44872 -0.4139 0.0267713
568 10.456 1.46857 7.66138 -1.82853 0.0286922 -2.00531
234 11.0684 2.93379 8.96925 -0.708019 0.716019 0.736777
632 11.6138 1.36912 8.56062 -0.0417984 -1.22855 -0.129839
240 11.6549 2.06528 7.75444 0.118287 -0.837059 -2.16986
539 3.36316 3.29803 7.52194 -2.26715 0.827368 0.210269
457 4.75702 3.26482 9.02081 0.286363 1.50465 -0.385216
302 6.1897 3.3654 8.31351 0.199325 0.491775 -0.784783
756 7.45385 2.92983 7.95339 0.118631 -0.169564 -0.425852
698 6.42007 4.35423 7.84658 0.542452 -0.0606681 -2.00584
852 8.47422 3.64453 8.39172 -0.166691 -0.242582 1.10533
142 7.63334 4.14599 8.27069 -1.24155 0.0379867 0.400203
66 10.1006 3.67562 7.99144 0.428014 -0.657826 1.6725
159 11.1791 4.30087 8.10515 1.63372 0.608612 0.981191
20 0.281721 4.90272 7.95797 1.42612 2.46819 -0.515141
30 2.08389 4.73877 8.95557 0.111065 -1.8209 0.236327
719 3.80134 5.18564 8.01692 -1.18283 1.14787 0.635942
459 3.71116 5.70627 9.11991 -0.182555 -0.983384 -0.790253
15 4.4991 5.17976 8.81046 -0.23731 -0.429177 -0.0651101
171 7.1043 5.26835 8.36456 1.78616 -0.869672 -0.207799
860 9.03356 4.49317 7.77666 1.24585 1.24263 -1.93171
182 8.84817 5.65153 7.80367 -1.3365 0.113632 -0.656263
281 8.38369 5.22719 8.70104 -1.12517 0.717537 -0.672566
509 9.6342 5.73856 8.58659 0.630997 0.353841 -0.932582
806 10.0029 4.95026 8.04339 0.378604 0.717816 -1.49587
358 11.8621 5.90305 9.22261 0.554383 -1.74899 0.647614
850 11.1791 5.17882 8.75688 0.858376 0.205938 1.04014
338 7.97213 1.73005 6.27823 -0.641497 -1.40765 0.0461735
613 0.543219 0.825638 10.6836 0.686253 -1.18122 0.977079
219 2.07475 0.264419 9.61942 2.32411 1.17982 -1.065
639 4.73077 0.365638 9.10981 0.549561 -0.502868 -0.734767
366 3.0096 0.975925 9.22526 -0.545232 0.267303 -0.382434
797 5.9926 1.33193 10.3453 0.136208 -0.285856 2.43244
229 3.68912 5.36256 11.6824 -1.03304 1.90007 -2.61657
696 7.73545 0.543035 10.084 -1.67317 -0.455972 -0.241604
392 9.79639 0.370411 9.40215 -1.05908 1.45509 0.408027
619 9.2036 0.579528 10.4315 1.2741 -1.04378 0.809838
518 10.4259 1.23154 10.1153 0.719539 -1.06005 0.80645
310 11.8392 0.310112 8.96636 0.260692 -0.299791 -0.716384
167 4.1831 1.68533 9.5992 -0.681862 0.224134 0.680325
721 5.45228 1.87154 9.04563 2.01951 -1.92259 0.0471479
618 4.89165 2.96165 10.0462 -0.153612 0.205846 -0.460115
169 6.29753 2.37527 9.97125 -1.70386 2.66699 0.47332
812 8.0592 2.20302 10.4756 -2.09425 -1.19053 -0.173227
728 7.55269 2.96292 9.79619 0.324322 0.721132 -0.0084274
404 10.2453 2.25323 10.0813 1.08474 -0.131282 0.195596
282 9.32206 1.70468 10.4349 -1.28478 0.253712 -0.205102
826 9.32872 2.82285 9.9873 -0.968898 -0.192171 0.579682
815 11.5256 2.04057 9.98607 -1.55888 -0.00134799 1.45207
308 0.473661 2.68849 9.91651 0.390801 -1.513 0.0520408
782 3.53292 3.96762 10.5929 0.141309 -0.166697 1.67864
828 6.34277 3.5057 9.9037 -0.220256 1.00765 0.697869
586 8.9302 2.68354 8.96183 1.22804 -1.5534 -1.11466
557 8.23168 4.36865 9.4101 -1.53234 -0.555006 -2.42396
258 8.76133 4.00709 10.2914 -0.572486 1.48696 -0.348891
347 9.20747 4.33395 8.83429 0.471049 -0.422169 1.14159
731 9.88236 4.19648 9.90364 0.480788 -0.14168 0.335711
677 10.927 3.68082 9.99452 -0.112487 0.679245 0.925548
152 11.9195 4.49779 9.23892 1.49851 0.848019 -0.155917
791 10.8743 4.21254 9.09224 0.325186 -1.06475 -2.10271
735 0.799085 5.58119 9.61494 1.04435 0.649609 -0.674338
760 0.655837 2.72087 11.9673 -1.07521 -0.182598 -0.105931
635 3.40658 4.49966 9.52496 -0.822743 -0.126497 0.411407
747 3.10025 5.57666 10.2731 -1.56046 -0.216453 0.209995
802 5.12867 4.25684 9.79073 -1.56989 -1.93822 -1.20888
116 6.75157 4.27545 10.4067 1.76396 -1.85103 -0.721376
849 7.02297 5.26881 9.51505 -0.58354 0.972814 0.690493
121 5.87305 5.20292 9.90707 -1.76913 -1.87246 -1.15903
481 6.22365 4.36681 9.10116 1.14921 -2.40902 -1.9132
838 8.16744 5.74232 9.98183 -1.84952 -0.354868 -0.880848
716 10.055 4.99858 9.25466 0.263079 0.496712 0.472203
237 8.91797 5.078 9.83537 0.239474 0.309052 -0.452614
412 1.30783 0.285946 11.6718 -0.519351 1.42348 -1.20235
47 11.1723 4.62112 10.1174 0.317273 -0.259455 -1.48072
375 2.03976 1.08855 11.1211 -1.66623 0.183852 0.227087
437 0.964679 5.68835 11.6853 -1.8819 -1.61369 0.732126
149 3.32922 0.132215 10.9001 -0.822374 -1.59872 0.0299045
607 3.84039 1.30056 11.62 -0.371996 0.18286 0.00665186
542 4.26933 0.31964 11.4647 1.51962 0.589104 -1.02888
792 4.99336 1.15067 11.5654 -1.38377 0.745669 1.46582
427 7.05654 1.33701 10.4025 1.46552 -0.822242 -0.397201
368 7.16789 1.39205 11.7815 -0.824841 0.429051 -0.238813
393 6.0254 0.620302 11.6033 -0.630509 -0.518449 -0.46109
738 8.53465 1.16489 11.0432 -1.10031 -0.54362 -0.669396
202 9.98984 0.879618 11.1778 0.496518 1.07616 -0.315856
71 11.7285 0.395891 11.2822 1.63744 0.539513 0.216471
816 10.9952 1.19011 10.9515 1.14104 -0.36602 -0.850134
588 1.15081 1.84595 11.0217 0.0253302 -1.77318 0.156099
487 4.289 0.86789 10.4774 -1.37279 -2.66938 0.0525445
49 6.20061 1.67159 11.367 0.874137 -0.448017 -1.21316
382 2.96067 4.91184 6.21099 -0.334689 0.175679 0.299705
70 7.00169 2.19771 11.0629 -1.47745 -0.471323 0.529353
743 8.06971 2.05961 11.7589 0.622308 -0.640272 0.722302
405 9.49194 2.54079 11.0052 0.424915 -0.304809 -0.46994
468 10.197 2.671 11.7738 -1.16159 0.647738 0.449052
88 11.4071 2.93223 11.9136 1.1946 1.66168 0.5771
859 7.84777 3.25732 11.9263 -0.272866 0.628019 0.31918
102 8.45082 3.21703 11.0186 -1.67503 1.36238 -0.445929
251 9.52141 4.02529 11.1056 -0.517006 2.34837 2.57896
131 10.2648 3.31029 10.7554 2.10199 -0.729822 1.86321
530 9.88614 5.15085 11.5035 -1.27908 1.18169 -1.58115
443 0.665839 5.36692 10.6607 -0.244282 0.63885 -1.4415
440 1.7209 5.83977 10.676 -0.152966 0.734675 -0.857509
748 11.8631 5.25638 11.6715 -1.06795 -1.37138 0.065451
740 2.40024 5.06373 11.1708 0.155328 0.232673 0.841655
313 8.65885 5.94567 10.9818 0.245671 0.162091 -0.396062
242 4.26089 4.71357 10.2678 0.347244 -2.10019 -0.975646
394 6.15688 5.18112 11.2951 0.324982 0.732251 0.711061
466 8.2403 4.8043 11.2716 0.161565 -1.08538 -0.119694
355 7.51746 5.75507 10.9907 0.0452398 -0.59583 1.34981
499 2.14377 5.96831 11.7581 0.609997 -0.823203 1.39967
821 9.03039 0.117596 8.76562 0.347547 1.55494 0.000371889
217 10.5708 5.81429 11.5877 1.86286 -1.721 -1.12787
762 0.293889 7.29867 1.27948 0.414908 0.0962701 0.636924
330 0.760225 7.18201 0.13704 -1.06781 0.412333 0.439403
704 1.75262 6.96392 0.21274 0.0256589 -0.534687 0.163612
146 3.07121 6.04694 0.228099 1.2268 0.479438 -1.86154
29 3.11519 7.00874 0.969184 -0.715022 0.525716 0.27681
488 3.82714 6.13907 0.893907 0.138049 -0.310616 -0.472791
451 5.31893 7.46747 0.0564427 -1.62688 0.135395 -1.16539
736 4.44244 7.44496 0.760707 -0.942038 0.922707 -1.18828
665 6.99663 6.50046 0.91056 -0.399822 0.817069 -1.37519
654 8.86535 7.13552 1.21903 0.68763 0.979429 -0.205551
455 9.99036 6.32833 0.463713 1.33022 -0.49407 -0.228226
448 9.88934 7.25044 0.951372 0.0331695 0.0464836 -0.362002
400 11.3748 7.02996 0.750925 0.689935 0.875539 -0.0792058
559 0.905218 8.36052 0.723298 -2.97368 0.239935 -0.731484
661 0.725851 9.36414 1.55138 -0.653164 2.02572 1.35162
710 2.48114 7.80926 0.579007 2.09838 -0.281018 -0.208314
417 3.87452 8.20741 1.24552 2.45044 -0.562752 0.859283
93 5.86473 7.53192 1.17444 0.196887 0.501995 0.891699
317 6.86676 7.5068 1.30144 -1.32327 -0.966217 1.47755
496 6.89993 9.00995 1.14282 1.10597 1.10085 0.178625
158 7.50159 7.58954 0.245739 0.896538 -0.815726 -1.46007
184 8.19957 8.41584 1.66035 -0.386125 0.839378 -0.158632
497 7.83717 9.12125 0.594255 -0.835216 -1.13961 -1.87683
817 8.75505 8.16087 0.532946 -2.26052 0.620269 2.00356
733 9.41303 8.11101 1.30367 0.518186 -0.46049 0.315701
592 11.4825 9.32844 1.61529 0.800102 0.355138 1.53698
357 10.8277 8.82659 0.532497 -0.306074 0.80133 -0.474246
674 11.5988 7.96151 0.470751 -0.479545 1.98059 1.62701
411 0.404583 9.24506 0.543626 0.183519 0.39969 0.0117603
173 0.928238 10.6309 0.879155 -1.11286 1.14087 0.136645
52 3.06028 9.01761 0.975805 0.142322 0.117425 0.545327
253 1.73182 9.07434 0.968515 0.76595 -1.02478 -0.508301
726 2.22223 10.8061 1.38624 -0.885791 1.21395 0.102607
445 3.19283 10.1604 1.11478 -1.83017 1.16274 -1.22474
351 4.19392 10.0732 0.668043 -0.748135 -0.72195 1.0727
753 5.36369 9.88146 0.651804 0.679496 -0.309993 0.398299
493 6.4729 9.9214 0.567756 -0.481859 0.872371 0.499816
260 7.65125 10.1282 0.251498 1.06025 0.726241 1.41855
814 8.44946 9.96897 0.874497 -1.02469 -0.76981 -0.103259
23 9.75594 10.0621 1.27545 -0.0692822 -0.149122 -0.059596
289 9.62272 8.99258 0.687473 -1.62636 0.137606 -0.451394
862 10.1073 10.1915 0.181847 1.65435 -1.06697 -0.442981
774 11.9748 10.162 0.935052 1.35896 0.754895 -2.60105
8 10.862 10.0283 0.851311 0.906216 0.112623 -0.926712
458 0.293294 10.4063 1.88268 0.616238 0.308467 1.67248
742 7.14141 6.10155 2.4868 -0.114622 1.12647 0.374023
789 0.0266243 11.208 0.892749 -0.234956 0.475704 1.60508
41 1.04112 11.8189 0.890763 0.661899 -0.298472 -1.48255
373 3.49614 11.5442 0.196006 -1.55663 -1.34658 0.728374
734 4.32314 11.3174 1.03738 0.113578 -0.91595 2.28823
603 5.76623 11.1726 0.537771 0.0626636 -1.27261 -1.69876
461 4.72146 11.7766 0.191033 0.346479 -0.202116 0.467597
503 7.38438 11.0376 0.55531 1.13392 -1.05212 -1.90191
397 8.77251 11.0891 1.60865 -0.815725 -0.416741 0.601451
839 8.44314 10.9891 0.600622 0.577541 -0.604414 0.372067
419 9.58853 11.393 0.20918 -0.356929 -0.935661 -1.39047
76 10.5711 11.8792 1.33874 0.0826637 -0.319469 -0.103417
431 11.1913 11.8452 0.28906 0.588633 0.0880519 -0.340988
523 0.703243 6.38377 2.55095 2.11648 0.0907302 2.55759
239 1.28896 7.17828 1.73693 0.220075 -0.337078 -0.560857
62 1.80131 6.47831 2.67752 -0.39295 -0.839202 -1.1435
611 1.94397 6.32499 1.3123 0.0389383 0.121105 -1.70864
315 2.94396 7.25393 2.42834 2.08132 1.07385 0.486184
746 3.82342 6.94259 1.76703 0.688181 0.690621 -2.20364
857 6.26176 8.38696 5.94821 0.746384 -1.27155 -1.97461
713 5.18965 6.00596 1.73939 1.04091 -1.04235 0.130989
299 6.26707 6.11336 1.61584 1.39001 -2.28405 0.420541
86 5.63139 6.67697 2.50085 -0.881787 -0.745401 -1.62552
106 7.1611 7.26843 2.36815 -0.921108 0.447426 0.0344786
547 8.42153 7.69153 2.30557 1.03356 0.590815 -0.0388565
744 7.85149 6.60331 1.69736 -0.0236396 0.657444 0.221105
153 9.30623 6.84586 2.06305 1.01643 0.292976 -1.40601
235 10.1586 7.27624 2.80179 -0.247455 -1.01287 -0.0479946
681 10.4747 6.53 1.63504 -0.258619 1.08458 0.167504
252 11.1903 7.33185 2.03285 0.324294 -0.417529 0.630924
504 11.5008 6.28803 2.40491 0.218598 -0.431764 0.0496131
609 0.763594 8.15704 2.16906 -0.931553 -0.533918 -0.706225
767 0.254775 8.77699 2.93688 -0.694039 -0.516275 0.377707
170 2.11245 8.07017 1.54035 -0.0165866 -0.339787 -1.43679
717 1.58428 7.78586 2.56973 0.814617 -0.156932 0.526311
270 1.65039 8.82943 2.21681 0.679606 0.566558 -0.481897
388 2.90385 8.56259 1.93447 1.6295 -1.1073 -0.0798176
61 3.77503 7.87919 2.28307 0.0163357 -0.394413 0.353886
582 4.82414 7.484 2.48234 -2.02853 -1.76791 -1.03586
666 5.70055 8.07169 2.19869 1.71904 -0.731511 -0.942449
438 6.88447 8.4441 2.14187 -0.25172 0.963881 -1.62817
124 7.94452 8.77094 2.66738 0.29263 0.86646 1.58115
257 10.3955 8.56506 2.63104 2.29757 -0.69834 -0.839417
130 9.45861 7.9722 2.68169 -0.550394 -1.44354 1.36363
212 10.8306 7.99677 1.19754 1.45897 0.793999 -1.42437
293 11.8007 8.35719 1.89291 0.193708 0.479133 -0.717809
823 11.7381 9.76779 2.57092 -1.54907 0.186195 0.883316
836 1.73435 10.0963 2.01529 0.0661778 1.35887 -0.519536
809 2.86498 10.7457 2.26388 0.35716 -0.210187 -1.03238
678 3.7843 9.14641 2.28784 -1.26633 1.30658 -0.974074
513 3.68635 10.4036 2.87103 -0.945006 0.185716 0.643177
288 4.06008 10.252 1.70077 -1.39272 -2.03795 0.269108
688 6.28572 9.78805 1.70471 0.692252 -0.475787 0.315281
695 4.74021 9.36624 1.63347 -0.172026 0.599385 -1.99554
279 7.21097 10.3505 1.43698 1.0294 1.38912 -0.381129
203 8.9993 8.95315 2.32386 0.614055 -0.293875 0.398181
379 7.82967 9.38375 1.56934 -1.26948 0.973044 0.782979
463 9.32833 9.883 2.7057 1.75453 -0.884156 2.6426
723 0.457993 11.9229 2.12597 -0.244647 1.33775 -0.442106
73 0.68617 10.737 2.91896 -1.46848 -0.116839 2.3164
206 2.64135 11.6733 2.84536 -1.20701 0.1715 0.800566
77 1.72134 11.105 2.28005 0.694697 -0.627927 -1.26363
21 3.92208 11.4709 2.3426 -0.565204 -0.0500955 0.488709
192 5.08923 10.631 1.50499 0.20634 0.450173 0.117403
156 5.34148 11.0443 2.53646 -1.01494 -2.22525 0.866764
758 6.30489 11.0851 1.97796 -1.2265 -0.347394 1.11335
189 5.20118 8.61343 0.149263 1.75992 -0.338233 0.653184
138 8.23341 10.0277 2.23162 -0.331935 -0.532526 1.9922
856 7.47066 11.1164 2.73786 -0.365614 -0.0615988 -1.11797
617 8.39005 10.7228 3.2392 -1.01116 -0.00378944 -0.141166
500 9.97436 11.26 2.69439 0.0552968 0.406248 0.0446571
532 11.5275 11.4538 1.80836 0.51082 -0.626117 -0.201721
98 10.9592 10.6171 2.07758 -0.0841122 -1.21323 -0.0778358
771 11.7888 11.7167 2.83093 -0.291188 0.480514 -0.983118
571 10.8162 11.9769 2.36753 -0.742107 0.667793 0.0410995
165 1.33132 6.62563 4.64861 0.246052 -0.707487 0.0851066
90 2.29064 6.48566 3.662 -1.61075 -0.0668361 0.558219
59 3.48184 7.10437 4.67643 -1.09929 0.125361 -1.19242
349 4.68896 6.89581 4.01582 0.500127 1.80492 -0.860924
226 8.52272 6.60893 4.40621 -0.457315 -0.406129 -0.371715
479 7.91877 6.45698 3.3476 -0.779086 -0.330214 0.459556
360 9.6327 6.29098 3.24573 -1.1935 -1.32613 -0.636416
337 10.3342 6.66239 4.09622 -0.563655 1.17102 0.40117
343 10.6836 6.31766 3.1284 0.48852 -0.141381 -1.31463
578 0.198701 6.57425 3.67685 0.356241 1.59571 1.35065
627 11.258 7.23397 3.65557 1.89071 -0.742044 -1.21551
422 1.07697 8.21423 3.41917 -0.111216 0.0899004 0.70403
837 2.45292 8.48281 3.07391 -1.01283 -0.897129 0.0716301
101 2.03938 8.43914 4.34281 0.10106 -1.73568 0.29003
751 2.11539 7.53607 3.62332 0.789928 -0.270975 0.00157373
630 3.87109 8.45122 3.54852 0.780684 0.906154 0.126868
294 5.52143 9.13636 3.27369 0.0360187 -0.119079 -0.701487
794 5.79243 8.20097 4.37419 1.09229 0.302292 0.696664
163 7.07894 8.1378 3.17525 -0.284267 0.918422 1.41933
800 7.45845 7.99694 4.45459 1.27657 -1.65806 -0.281811
564 6.48217 8.94058 3.6462 0.126216 1.11792 0.174988
485 10.2385 8.43571 4.7059 -0.445033 0.733104 2.63476
804 9.5586 7.59295 3.84062 0.448284 0.162205 0.00133101