ITEM: TIMESTEP
41300
ITEM: NUMBER OF ATOMS
864
ITEM: BOX BOUNDS pp pp pp
0.0000000000000000e+00 1.2000000000000000e+01
0.0000000000000000e+00 1.2000000000000000e+01
0.0000000000000000e+00 1.2000000000000000e+01
ITEM: ATOMS id x y z vx vy vz
68 0.37698 1.02976 0.257589 -1.50474 -0.726102 -0.644827
344 2.26791 0.103625 0.127898 -0.564634 -2.11773 -0.0996169
538 1.32395 0.77918 1.21942 -1.2248 -2.00759 -0.0460881
55 3.98532 0.338036 1.11178 0.165369 1.53308 0.819563
765 2.95206 0.58397 0.906824 0.420334 0.117029 1.38788
49 5.39551 1.15024 0.606439 -1.72707 -0.151574 1.63342
792 4.33091 1.11116 0.58534 -0.190954 1.17846 -0.458739
542 5.1102 0.143671 0.585676 0.487775 0.476771 1.97659
11 6.28832 0.441764 0.483118 -0.16193 0.218555 0.407602
650 7.65506 1.0669 0.671016 0.972868 1.79895 1.17119
286 3.05841 0.0517503 1.96399 1.24082 1.20638 -0.0582453
570 9.12858 0.727132 0.685416 -0.0803555 1.48349 0.894617
614 10.5245 1.20397 1.48281 0.762896 -0.930715 0.746696
27 11.3957 1.27979 0.859814 0.989593 2.04778 -1.52072
431 10.4703 0.574459 0.553232 -1.34353 -0.0636205 0.0706142
301 0.558149 2.08162 0.561326 0.611672 0.843204 -1.35348
82 6.2595 2.98063 1.05376 0.790328 1.3147 0.398717
368 6.79753 1.78304 0.34703 -0.772215 -0.87925 0.707654
712 8.52899 1.72411 0.632744 0.345143 0.0378807 0.395719
188 8.33138 2.59999 0.192252 -0.124678 -0.930429 -0.138355
468 9.32444 2.67562 0.345892 -0.643375 -1.18509 1.87509
226 8.1748 5.95544 4.29088 0.28131 0.14181 -0.297351
371 10.7296 2.65766 0.471919 0.0834839 0.720145 1.01387
798 11.3286 2.03586 1.46978 -0.892866 -1.49802 0.430308
494 0.960896 3.69541 1.14181 0.399677 1.54246 1.04005
844 11.7521 3.00784 1.0003 -0.880833 -0.114035 -1.85222
472 1.94692 2.6568 0.15363 0.938183 -1.62911 -0.626046
266 3.17626 4.23585 1.00004 0.694906 0.363917 -1.122
305 4.68779 0.124055 2.29153 -0.572271 1.10955 0.775669
659 6.4418 3.93302 0.394863 -1.31611 1.16056 -0.0929483
109 7.44614 3.33101 0.775547 -1.40793 -0.256459 0.629737
768 8.98251 3.47245 0.84105 0.660888 -0.973695 -0.857232
79 10.3251 4.40735 0.304605 -0.832223 0.54495 -0.0180691
441 0.691339 4.7295 0.574118 -0.63208 -0.862147 -0.43032
499 1.75333 5.26539 0.139632 0.716627 0.703699 -0.708147
45 8.64364 2.18533 5.80496 1.26297 -0.928881 -0.129635
146 3.10006 5.76242 0.150505 2.13881 -0.466266 1.0869
577 4.99049 5.32073 1.14921 1.08198 0.579289 -1.01112
713 6.25382 5.04606 0.677437 0.677947 -1.08932 -0.201233
655 8.91598 4.55407 0.679195 0.0285298 -0.833253 -0.379257
187 9.91533 5.59489 0.966661 -0.552458 -1.33119 -0.433364
402 10.716 5.03238 1.29126 -0.465381 -0.236718 -0.470939
605 11.2084 5.51483 0.496452 0.733893 1.92679 -0.318749
750 0.437345 1.73431 1.75521 -2.30416 1.72392 -0.787322
262 1.34564 0.382048 2.19368 -0.279433 1.68597 -1.16517
771 0.338267 0.861401 2.66253 -0.767806 0.0722174 0.986444
298 1.11313 1.56094 2.78972 -0.526419 0.998934 -1.64182
640 11.9985 5.98916 4.77066 -1.63604 -0.48115 -1.85454
147 2.28576 0.882567 2.60397 -1.46554 0.834008 -1.16189
199 5.81601 0.290211 2.81342 1.37221 -1.95119 -0.977856
429 6.68119 0.677287 1.99903 0.811371 -0.469754 0.314758
684 7.61445 0.407445 1.40953 1.02094 -0.769804 -0.545986
105 7.95466 0.816385 2.61164 -1.6978 -1.07171 -2.17033
528 10.2303 0.712616 2.4122 -0.385753 -1.61711 -1.19729
571 11.5331 0.800639 1.89656 1.11022 1.75262 -1.40012
399 0.863401 2.69076 1.57556 -0.398585 1.37032 -0.910072
157 1.30831 2.9686 3.03409 0.131774 0.763356 -0.396376
634 2.55638 1.42185 1.49392 -1.98675 -1.31602 -1.26082
327 7.3506 3.01085 2.38537 0.638574 0.609666 0.528639
492 7.70379 2.30709 1.49731 -0.793784 0.709417 -0.893594
700 10.0396 2.34842 1.57867 1.12259 -0.57096 -0.516775
401 9.33935 3.03487 2.06064 0.101079 1.25741 1.28879
628 11.6719 2.2022 2.82935 0.379064 1.58113 2.59309
53 10.9299 2.89983 2.33643 0.6473 0.683403 -1.41426
840 11.9891 4.63246 1.38048 0.435091 1.50694 -2.15845
793 2.38062 3.14227 2.65507 0.483924 -0.0410396 1.22644
508 1.98979 4.22769 1.24781 -1.96505 0.0524494 -0.427503
35 4.12892 4.31711 2.91915 -1.48301 0.452271 -0.198196
103 2.94381 3.8935 2.30967 -1.09074 -1.16791 -0.560948
341 5.51984 4.76311 1.91002 0.41598 2.59249 0.100599
537 4.94955 3.88766 2.11724 -0.297632 0.848973 0.262601
808 7.56035 4.0229 1.90401 -0.519141 1.64216 1.01854
562 8.54569 4.07783 1.59669 -0.168947 0.237112 -0.338221
306 8.29686 3.10367 2.05768 0.657632 -0.289357 -1.27311
193 8.74627 4.02677 2.88633 -2.65364 0.707191 2.46286
615 10.3451 3.89518 2.21406 -0.401048 0.102418 0.291805
663 0.0963862 5.16959 2.80634 -0.0103028 0.163911 3.43073
127 2.94294 5.00656 1.82072 0.0829448 -1.36542 -0.653259
312 1.65197 5.24986 2.06512 0.182372 -0.621437 0.0457026
620 3.85838 5.59945 2.41887 0.385081 -0.385924 0.234943
409 5.48758 5.68888 2.51227 0.658304 0.487719 0.0184898
299 6.93857 5.56019 2.05163 -0.692131 -0.80039 1.54818
36 8.81446 5.36693 1.48643 2.05673 1.22621 0.652348
129 8.14179 4.87038 2.78239 1.49884 1.25004 -1.29896
18 9.76416 4.72172 1.53533 -0.0965083 0.82191 -0.817256
437 0.264627 5.62154 0.144403 0.98479 0.208111 0.0228742
343 10.9417 5.69122 2.84022 -0.198284 -0.586587 -0.383791
120 11.1924 4.85175 2.22713 -0.164541 0.144582 1.30073
625 0.0986408 0.109363 3.88019 1.57985 0.422867 0.472863
354 2.0204 0.618607 3.58517 1.49347 0.852082 -1.27364
74 2.88908 0.468874 4.12291 -1.35408 -0.788774 0.774912
651 3.46223 0.811479 3.21019 -0.210234 -0.113625 -0.137754
231 5.17946 1.65489 4.52615 -1.49344 0.652647 0.198898
40 7.53667 0.290667 3.4212 -0.369815 -1.39486 -0.264844
590 7.1592 0.76176 4.63177 -0.568136 -1.43469 0.463228
464 8.02027 1.19828 3.9518 -0.55308 0.349447 0.408591
110 8.89736 0.591492 3.19134 -1.88582 1.24522 -0.351959
556 10.3649 0.233014 3.79103 -0.0597297 -0.0898146 0.0365496
558 10.056 0.925207 4.46651 -0.652819 -2.63494 -0.687267
190 0.803423 1.70974 3.81631 -1.0964 -0.902387 3.22213
72 2.23871 2.0511 3.56731 -0.33589 -1.02042 0.168796
724 3.68615 3.0187 3.66353 0.356126 0.491365 0.958851
353 3.60627 1.85316 4.74835 1.27901 1.64132 0.321117
224 6.70167 2.84041 3.59182 -0.492191 1.83835 -0.423284
638 6.31118 1.56096 4.08021 0.53851 -0.482445 1.0574
522 9.0747 2.50233 3.37247 1.75683 -1.88518 -0.68022
685 8.21239 2.05797 3.3073 -0.166528 -0.349955 0.702629
536 7.42047 2.13869 4.16687 -2.028 -0.828407 -1.2048
19 9.43692 1.82008 4.05675 1.13155 -0.515779 -0.187295
367 10.234 2.50833 3.44843 -0.546256 0.0666971 -0.403914
144 9.30807 2.99439 4.3072 -1.08303 0.98437 1.4969
652 11.1318 2.80638 4.00446 -0.837749 -0.353966 0.671034
320 0.599497 3.74639 3.14933 -0.780084 0.39752 -0.0301293
198 0.381531 4.26413 4.05615 0.382899 0.837336 0.0486223
573 1.36754 2.57353 4.0631 -0.365709 -2.00003 -1.53604
540 1.9463 3.92135 3.51988 1.17202 0.652027 0.491275
285 3.02392 4.05111 3.369 1.01057 -0.416629 -0.801508
295 2.52597 3.05724 4.11398 0.920296 -1.86781 -0.225643
160 4.48584 3.2292 4.60458 -1.28908 -0.328377 1.26562
259 5.34957 4.69984 4.69411 0.1114 1.85063 1.67214
331 7.3756 4.56634 3.5004 -1.4845 0.854314 0.673509
175 8.32317 3.02267 3.95914 -0.109154 -1.96502 0.715755
477 9.59528 3.66075 3.50618 0.404676 1.37906 0.0269014
596 10.4502 4.34492 3.99486 -0.927855 1.62891 -1.01911
80 11.4489 3.34147 3.19284 -0.386269 1.23117 -1.82745
196 0.621498 5.55553 3.85476 -0.116692 0.362631 -0.390271
694 1.99717 4.86105 4.1372 -0.290637 -0.895857 0.1982
516 3.51704 5.18282 3.34943 0.80312 -0.804558 -0.0783071
58 5.17235 5.37634 3.83833 -0.53012 -0.33522 0.697955
730 7.01956 5.61068 3.23606 0.121036 0.941801 -0.0816031
54 6.31639 5.07703 4.06896 -1.00339 -0.579844 -0.958537
697 7.41706 5.3268 4.18298 0.912859 0.192053 0.711454
583 8.16682 5.89323 3.16354 -0.839495 -0.247828 0.974499
691 8.63919 4.10724 3.86355 -0.0804314 -1.68832 1.73156
527 9.89082 4.59084 2.84444 0.0245586 -0.556602 -0.869936
137 10.1188 5.4874 4.1927 1.07765 -2.07966 -1.17486
254 9.05336 5.34211 3.79299 0.366628 -0.327432 -0.678351
51 11.5971 5.2292 3.65942 -0.503307 -0.823606 1.98251
114 11.0809 4.35392 3.08371 0.206718 -1.23818 -0.917157
90 2.35494 5.57204 3.44661 1.36529 -1.23655 -1.38482
126 0.959729 0.0914334 5.49893 -0.511048 -0.290682 0.191326
517 10.8619 0.88833 5.71401 0.981919 -0.322198 -1.46043
346 2.21176 1.12717 5.7106 1.07885 0.0887856 -0.643699
84 3.22011 1.00158 5.39105 -1.32927 -0.440828 0.517052
2 5.28396 0.312993 5.27709 -0.0529691 -0.817804 -0.451858
300 5.9173 1.07109 5.25817 0.905709 -0.840048 -0.780738
686 7.09365 0.523677 5.64881 0.126729 -0.884032 -0.231859
99 1.16367 1.23346 5.8351 1.48688 -0.657551 -0.691802
705 8.28899 1.40089 5.27655 -0.959634 -0.501528 0.0552034
97 10.2064 0.0116777 4.87694 -0.238877 -0.342458 -0.0620588
272 0.942514 2.80512 5.06411 -0.0497187 -0.529387 0.821132
297 1.93015 2.58395 4.96844 0.0145744 -2.68434 -0.292486
247 2.32728 1.62963 4.58473 -0.464644 -0.22978 -1.56437
418 2.92306 2.53421 5.4114 0.199105 -1.03578 1.00177
692 4.22748 1.57327 5.76447 1.71625 -0.418135 0.320946
183 5.79861 2.91398 5.91905 -1.62502 0.0545955 1.18632
43 5.02782 2.35909 5.24813 -0.274261 -0.330988 0.384549
280 6.58268 2.73526 4.66054 -1.26176 2.20393 -0.614372
132 6.72192 1.89849 5.8141 -0.0905728 -0.87351 1.85181
42 7.49292 2.09274 5.14494 -0.989469 -0.373941 -0.63929
579 8.53924 2.0632 4.47214 0.986692 0.081061 1.60389
26 9.63731 2.69713 5.61559 1.14064 0.942688 0.782209
314 9.53908 1.57962 5.13499 0.763044 0.831333 1.46859
225 10.2924 1.96577 4.54028 0.814172 0.448132 -0.102613
707 11.1605 3.24706 5.45576 -0.355212 1.60747 0.859429
177 11.8458 2.03317 5.68416 0.653584 -0.105314 0.311762
593 10.7002 2.1381 5.72553 0.256185 0.162926 -0.103015
307 1.82742 3.68938 4.70584 0.445615 0.466924 -1.10972
117 0.187697 3.59757 5.02492 -0.659101 -0.870561 -1.97359
380 2.87696 4.29034 4.77556 0.789143 1.76716 0.569188
324 4.31108 3.42237 5.71823 -0.215201 -1.63567 0.957627
261 0.049714 4.58544 5.93082 0.435253 -0.241278 -0.332441
265 5.65249 3.44763 4.93065 0.341293 -1.80371 0.420554
78 7.03378 3.00533 5.55259 1.40994 -0.955672 0.00762923
168 7.19383 3.62421 4.37646 -0.168471 -0.325131 0.252516
213 8.25848 3.25546 4.99647 0.504517 0.337434 -0.407869
785 7.70481 3.9427 5.7568 -0.403739 0.111141 0.409145
292 10.1799 4.28778 5.97078 -1.02584 -0.719601 0.114274
255 10.1843 3.29865 4.98922 0.174846 -0.387663 0.742782
276 9.40097 3.90289 5.31216 0.385288 -0.560218 0.707936
64 11.3349 3.91573 4.30045 0.0373893 0.0801669 -0.536768
576 0.342501 5.02161 4.96174 -0.866988 -0.247391 -0.461939
834 1.62084 5.29024 5.13434 1.3173 0.617186 -0.119112
119 2.70377 5.39335 4.66164 0.130511 -0.858552 -0.328715
506 4.04081 5.04832 4.52002 0.986978 -1.5395 -0.802115
321 3.37494 5.42676 5.72232 -0.953058 0.826605 -0.0616204
316 8.61819 4.88072 5.72421 -1.58755 1.074 -1.02862
232 8.27141 5.95075 5.43718 -2.00136 0.927913 0.311629
28 8.43839 4.80212 4.70229 1.03256 -0.0460836 0.6099
425 9.45105 5.0687 5.0481 0.978372 0.614929 0.695819
87 10.7429 4.68338 4.87527 -0.108359 -0.925204 -0.967127
311 11.6476 5.73555 5.64902 -0.751037 -0.465936 -0.0568246
12 9.09449 0.347709 4.25933 -0.976449 1.28846 -1.30729
760 0.76934 3.0567 0.172298 -1.15803 0.853273 0.224727
789 0.145266 0.212737 0.944244 0.640967 0.827563 0.349472
667 8.48719 0.0259583 1.77466 1.19605 -0.25744 -0.00279495
387 1.73617 5.89511 4.23303 0.805382 0.326817 -1.01995
363 11.7771 5.77522 1.88494 0.0815169 -1.02243 0.489893
623 6.28118 0.0616661 4.95251 -0.0453715 0.372347 -1.39909
473 6.39133 3.93252 5.92707 -0.784881 -2.21118 -0.418856
370 0.818128 1.29279 6.911 2.65126 -0.977194 -1.75232
467 2.75871 0.412318 6.41321 0.454699 -0.140132 -0.452607
386 2.41595 1.27374 6.91276 -0.972376 -0.379225 0.837929
246 2.37968 0.249165 7.54023 -0.712339 -0.606603 -0.0832433
319 1.39133 0.391364 7.00234 -0.669827 -1.41435 0.458328
145 3.2682 0.875745 7.40299 -0.460094 1.02586 0.128799
660 3.90184 0.565518 6.38108 -0.858818 -0.899432 -1.59948
283 5.39686 0.146794 6.96751 0.900421 0.986813 1.6792
264 5.64597 1.28624 7.65773 0.466675 0.574633 0.356465
210 4.63945 1.22152 6.92786 0.522635 -0.673986 0.750782
407 6.35403 0.0284784 7.61276 1.25112 0.263647 0.410808
406 7.38242 0.993487 7.10125 -0.263315 -0.893569 0.399619
107 5.56658 4.34022 11.8877 1.5158 -0.641866 0.669368
432 6.41127 1.09785 6.63272 0.675225 -0.403456 0.573446
186 7.95921 0.595093 6.39503 0.714339 0.34996 1.03098
766 8.6973 0.0137184 6.79611 -1.09885 -0.143275 -0.926503
599 8.55227 1.04133 7.38499 0.435206 -1.24766 1.35961
799 9.05068 0.968152 6.3195 -1.02257 0.996997 0.507917
369 6.74235 4.76951 11.8169 -0.336464 0.92158 -0.373147
3 11.7677 1.07651 7.09571 0.525693 0.313903 -0.00954116
95 1.69236 2.07306 6.9678 0.533046 2.61766 0.377697
278 0.626928 2.37631 6.46152 1.11799 -0.032543 -0.488492
755 6.24039 5.7637 10.9466 -0.659043 0.767315 0.850882
250 3.73459 2.01058 7.23659 -0.80202 -0.079897 -0.263879
296 3.17282 1.50947 6.21939 -0.699678 -0.417968 -0.17073
215 4.719 2.22175 6.49624 0.509749 -0.268979 2.35089
108 5.27626 3.1389 7.07736 1.79333 0.709759 -1.49295
395 6.908 2.38331 6.93544 1.56647 0.178274 -1.54214
338 7.64689 1.69038 6.31974 1.84351 0.189484 1.48683
756 8.81669 2.71242 6.69095 1.16111 -0.662751 -1.34685
530 9.03424 4.8601 10.6095 -0.909966 0.475344 -0.340175
240 11.876 2.13774 7.4944 0.311633 0.730259 0.930679
653 0.602968 3.5686 6.51414 -0.970232 0.0484347 -0.442235
741 2.22311 3.32399 6.79383 -1.24082 0.371088 0.240667
811 3.43775 3.45329 6.52707 1.65886 0.0779952 -1.34395
565 6.26264 3.42568 7.04131 -0.205173 -0.263916 0.842326
465 7.03651 5.69915 11.4841 -0.522701 0.0795746 0.658414
769 9.04579 4.07293 6.28918 1.22699 -0.735595 -0.475785
200 8.07051 4.18728 6.9533 -0.293863 -0.377078 -1.28957
104 10.4334 3.27419 6.18873 -0.142053 0.245365 -1.44539
13 11.4851 2.92128 6.46715 0.235361 -0.83868 -0.342263
365 11.6167 3.84383 7.02471 -0.650647 -1.01409 -0.376767
25 0.519556 4.32569 7.34696 -0.278744 0.308949 1.02607
631 0.829765 5.4717 6.28911 0.696702 0.339989 0.357097
20 1.01612 5.60889 7.32915 -0.741315 -0.462188 -0.97153
430 1.69584 5.01422 6.22462 -1.19161 1.20037 -0.598638
770 4.04942 4.07467 11.7911 -0.71293 0.383564 -1.71036
229 3.41198 5.47046 10.6886 0.46581 0.649642 -0.114893
679 4.02383 5.06226 7.09567 1.42931 -0.37142 -1.00036
325 11.5608 0.113868 7.90767 -0.346518 1.16057 0.473865
273 8.82603 5.71533 6.41612 0.211522 -0.68051 0.0653807
610 0.729887 0.119906 8.65654 -0.581133 0.834644 -0.867913
833 0.719314 1.39789 8.09188 -0.166437 0.999448 1.60038
57 1.71276 0.950927 8.03775 -0.149106 0.230362 1.59649
322 2.24058 0.43806 8.94369 -0.640557 0.375918 -0.234843
781 4.31314 0.442407 7.62766 -0.0911986 -1.26895 -0.470184
366 4.1413 1.41752 7.94423 1.33322 0.214526 -0.14554
567 10.0024 1.89015 11.9439 1.18159 1.34063 -1.52546
616 9.395 0.518079 7.71678 -2.75974 0.21077 -0.791473
821 8.81454 1.44264 8.39418 -2.11805 -0.241552 -0.815035
632 11.7431 1.42101 8.36151 -0.329376 1.76151 0.846056
345 0.600834 2.31597 9.13499 -0.63574 1.88743 0.263809
830 2.22512 1.99162 8.69335 0.303311 -2.89467 -0.497102
539 3.34727 2.43279 8.58184 -0.231441 -0.313107 0.951991
122 4.85489 2.34453 7.65092 0.765772 0.510432 -1.40237
783 7.35947 2.94217 7.80426 0.510095 2.41761 0.890761
701 6.18302 2.78006 8.207 1.2106 1.26343 -0.153794
328 7.79119 1.56403 8.06677 -1.63305 0.0393277 -1.87775
682 9.83161 1.57934 7.50117 0.662307 0.622705 -0.383151
66 9.66151 2.02379 8.63575 1.37327 -0.936102 0.289424
780 11.0522 2.83485 7.75557 1.17529 -0.130486 -0.00181997
568 10.6752 2.18906 8.46499 0.995935 0.618514 -0.56846
818 0.252931 3.24847 7.91065 0.506841 -1.6886 0.687246
858 3.27575 3.86706 7.62554 -0.485617 -1.80695 -1.61456
457 4.25684 3.33422 7.86095 0.815844 -0.635803 1.98907
15 4.05881 4.37889 8.21604 -1.25058 -0.00212937 -1.154
802 5.16667 2.86102 8.34104 -0.627621 0.19635 -0.851284
302 5.64836 3.88555 7.90621 -1.28792 0.0811607 0.683072
142 6.79107 4.36725 7.43136 -0.841961 -0.0404898 -0.460285
481 6.43358 4.19434 8.54741 -0.537575 -0.437935 -0.725603
347 10.3852 4.28454 9.0327 2.44531 -0.193932 0.294704
159 0.222132 5.03469 8.28408 0.00124144 0.108144 0.519305
269 2.92011 4.8683 7.71514 -0.742607 0.986764 0.737893
519 2.15887 5.83034 8.03961 1.52919 0.0340505 0.894849
825 2.68337 4.85415 9.60642 0.583956 0.486802 -0.406827
719 3.4352 5.20891 8.67143 0.405947 0.5288 -1.8685
121 5.54217 4.79882 8.65843 0.944602 -0.261159 -0.851523
698 6.12533 5.25379 7.41278 -0.00803841 1.14338 -1.07858
171 6.66123 5.25085 8.61534 -0.895558 0.151614 0.356692
860 8.49553 4.61008 8.2867 -0.625309 0.407086 0.158052
182 8.01166 5.94026 7.66579 -0.439644 1.01982 0.636478
281 8.44519 5.72023 8.93686 0.478573 -0.789174 -0.578654
355 7.53625 5.2804 10.6644 -0.815555 -0.406849 -0.991072
806 9.9472 5.1072 8.24561 0.459209 -0.0797535 -0.518806
31 10.8783 5.7188 7.77649 0.836603 -0.0976192 -0.755955
850 11.0278 4.87574 8.53644 -0.49572 -0.823686 -0.175603
310 0.0119711 0.0584412 9.58979 -0.470036 -2.10577 -0.5027
308 0.426791 1.05246 9.23966 0.206439 -1.27447 -2.04837
167 3.07571 0.834693 9.32504 -1.48985 -1.59186 -1.3166
487 3.65764 0.151866 10.6161 -1.0356 -1.84888 0.497969
797 6.24561 0.273529 10.6597 -0.931503 0.8214 0.487811
721 5.95387 0.49985 9.21837 0.474935 0.132849 -0.637455
824 6.84956 0.77443 9.79484 -1.03192 0.205717 -0.571533
754 8.14466 0.500344 9.94646 0.0854306 -0.472151 0.740536
392 9.65321 0.68205 9.02908 0.195215 -2.60256 -1.66345
619 9.28308 0.449498 10.2137 -1.21664 -0.620774 -0.51204
618 4.32722 2.24762 9.63695 -0.061382 -0.127449 -0.619944
150 7.53041 1.66641 10.0879 0.0300987 1.0773 1.37211
826 8.96788 2.96307 10.1571 -0.553728 0.715789 -1.07178
586 9.41826 1.55323 9.61441 1.1632 -0.575843 0.139875
404 9.9344 2.27563 10.2332 -1.17728 1.20865 0.740922
612 10.6447 2.75337 9.40103 0.399109 -0.50995 0.488585
518 10.528 1.42703 9.69673 0.867389 -0.478955 -0.276775
30 1.92148 3.89804 9.49482 -0.615222 1.14219 0.966575
635 3.59139 4.1662 9.17021 1.44383 -0.703891 -0.246589
852 8.88318 2.81964 9.03761 -0.279655 -1.16127 0.460871
728 7.80616 3.84409 10.2503 -0.272953 -0.409736 1.92954
557 7.54972 4.38757 8.74356 -0.422367 0.405433 -1.63387
258 8.79 4.05184 9.20669 0.384048 -0.395491 -0.991281
600 9.6843 3.27633 9.5821 0.39696 -0.142468 -1.30573
731 10.0469 4.5296 10.3759 -0.872143 -0.675927 -1.02344
234 0.180301 3.20003 9.78409 0.984832 0.205599 1.51934
677 10.9947 2.86026 10.7237 -0.109885 0.270647 0.510307
791 10.8959 3.63314 9.92747 -0.423193 -0.572321 0.750869
152 1.00053 5.41931 9.53268 0.81207 0.483373 0.313454
735 1.90879 5.87313 9.15615 0.613896 0.702049 1.48198
747 2.31824 5.61899 10.2717 0.669796 0.779474 0.748602
459 3.43191 5.6651 9.59564 0.0968462 1.38773 1.63649
242 4.68968 4.7237 9.18393 -0.786979 -1.02186 -1.21833
828 5.82469 5.10036 10.1743 -0.0615231 0.377953 -2.82481
208 4.69895 5.84306 10.0663 -0.375271 0.258583 0.966521
849 6.82427 4.82825 9.82287 -0.0535606 -0.151956 1.42461
116 8.26062 4.78768 9.8001 0.825847 0.805322 -1.45982
838 7.58269 5.69933 9.44155 -1.32457 -0.688839 0.465725
154 10.1228 5.55106 10.4279 -2.28764 0.177192 0.184455
716 10.1998 5.38453 9.21437 1.43548 1.38129 -0.530883
237 9.26406 5.41986 9.79381 -0.268836 -0.0888029 -0.220902
47 11.1037 5.65116 9.28118 0.573222 0.601704 -0.0990106
613 0.591774 0.377322 10.9635 0.33351 0.766082 0.263162
412 1.58016 0.905457 11.7739 -1.29232 1.59763 0.441435
588 0.606403 1.51188 11.2784 0.635171 0.856066 -0.812649
549 8.22935 0.420206 11.9455 -1.78269 -0.662526 -1.23742
607 3.3516 0.498935 11.8314 -0.334337 -0.187583 -0.274631
125 5.23471 5.44959 11.0136 -0.300498 0.286315 1.39604
245 7.23852 0.741275 11.7585 -1.775 0.294406 -1.8379
427 5.98516 1.23238 11.0064 -0.390874 0.390692 0.344549
696 7.24916 0.0545992 10.6544 1.04767 -0.186613 -0.565719
738 8.32127 0.744474 10.9967 -0.298236 -0.809329 -1.94029
512 8.96041 1.41618 11.6799 -1.82058 1.48964 -0.218427
843 11.1374 1.28737 11.7844 -0.318858 0.802252 -0.93028
71 11.6253 0.337286 11.9753 -2.09279 -0.653134 1.67301
816 11.9051 1.09679 10.5015 1.34381 -0.413971 -0.245822
94 10.3003 0.743506 10.3816 -1.29919 1.17973 -0.0880527
748 10.9629 4.88234 10.5142 1.05495 1.60327 -1.79997
169 5.32425 2.37474 10.7044 -1.05839 -0.165022 0.437377
70 7.45933 2.90806 11.5631 -0.332243 1.18882 -0.694015
490 9.21033 2.43163 11.3564 1.75549 -0.356569 1.72387
812 8.26532 2.28102 10.8888 1.19541 1.60914 1.7467
743 7.74426 1.58233 11.511 -1.3856 1.00292 -0.0140545
282 9.05539 1.48867 10.5931 -0.646383 -0.395886 2.01895
853 11.4141 2.2746 11.8447 1.17567 -0.0385631 -0.591615
815 0.0112987 2.12949 10.1001 0.538309 -1.12476 -2.20348
202 10.6627 1.96112 11.026 -1.14219 -0.462031 0.592209
131 10.131 2.94307 11.7495 -0.00922 0.253639 -0.143363
782 2.71774 4.24061 10.3151 -1.12801 -2.10301 0.932001
848 4.0633 3.44185 10.9613 1.20544 0.408656 -1.80998
687 6.68346 4.32635 10.8413 0.816732 1.63245 -0.629405
859 7.89266 3.91632 11.9474 0.640919 0.854746 0.596987
102 8.62879 4.0325 10.8338 -0.351923 0.658387 -0.228083
405 9.70605 3.5129 10.7864 -0.575366 1.16322 -0.497535
251 9.20977 3.74032 11.7063 0.316675 -1.34978 0.418194
88 11.9669 3.28311 11.3779 1.07713 1.0852 0.629062
466 8.17025 5.15401 11.7193 -0.52176 1.99774 0.965567
443 0.360715 5.89994 10.849 -0.440247 -0.584481 1.82928
740 2.4271 5.05483 11.3859 -0.665725 -1.79742 -1.14765
195 3.71657 5.09349 11.6555 0.515047 1.02839 -0.103736
393 5.46063 0.138113 11.5736 -1.153 1.90702 -0.340186
376 5.40333 4.25484 6.11414 -0.503051 -0.190441 1.17889
810 2.0313 2.55378 6.11412 -0.744688 0.0568447 1.19088
390 4.32521 5.87785 6.50842 0.468722 -2.10886 -0.417796
845 5.07118 0.11937 9.62812 -1.07382 2.31338 0.0311733
139 6.92519 0.0395092 6.59887 0.12781 0.880124 0.942557
219 2.76801 0.0156642 9.78726 -0.455212 0.462119 0.267793
699 0.915941 5.99362 8.28715 0.171912 -1.39781 0.117076
440 1.44447 5.997 11.3034 0.739337 -0.232014 -0.108083
394 5.74663 5.74262 11.9984 0.636035 -0.365326 -0.619724
762 0.387582 7.36807 1.0168 0.592338 -0.404926 -0.480965
135 11.8317 6.29322 0.887942 -2.01219 0.500251 -0.535354
239 0.863262 6.2793 1.1823 -1.36734 -1.09895 -0.0115951
704 1.53855 6.71372 0.382149 -1.54319 1.61611 -0.51407
29 2.46276 7.22885 0.0942689 0.36169 0.599183 -1.89172
746 3.68334 7.36301 0.741729 0.155307 -0.0186024 0.193628
581 4.73808 7.10112 0.84009 0.905092 0.568422 -0.973634
488 4.86397 6.27985 0.0784732 -0.776937 1.97874 -0.852068
665 6.02019 6.80268 0.541636 -2.23847 0.606817 -1.75609
317 7.13497 7.23998 1.23086 0.877835 -0.280262 -0.48846
654 8.2469 7.54326 1.2059 -2.58448 -0.481905 -0.0937247
158 7.57899 6.65403 0.437071 -0.299137 -0.576129 1.57709
448 10.415 8.02301 0.926758 1.43819 -0.182355 2.06709
510 9.30678 6.42362 0.168673 -0.387511 -0.395253 0.742431
172 2.73586 11.7455 5.33471 -0.579936 0.0584965 -0.0728171
455 10.9408 6.7324 0.294068 1.18945 -0.847599 -1.45552
559 1.73086 7.84549 0.418496 0.501719 0.826861 -0.281213
710 3.07016 8.10467 0.560282 -1.51294 -0.963953 1.20011
170 2.29785 8.44154 1.4312 1.2922 0.82863 0.867004
777 4.10102 8.35582 1.29056 0.660507 -0.732749 0.391682
736 4.85225 8.28438 0.26962 -0.752489 1.45719 -0.481324
93 5.86131 8.03857 1.45543 -0.204527 0.703282 0.0616086
189 5.98701 8.40136 0.327433 -0.0965153 -1.17709 -0.0468227
497 6.84601 9.24395 0.114821 0.0453993 0.805357 -0.412799
817 7.44659 8.16103 0.538949 -0.353407 0.667915 0.940481
289 8.955 8.52758 1.46064 0.141503 0.929493 0.383347
709 7.94093 11.7848 4.27047 -0.356864 -1.68848 1.08914
400 11.3826 7.61704 0.529675 0.510439 -0.469073 -2.0655
293 11.9401 8.48178 0.686393 -0.23794 0.122455 -2.00187
411 0.217512 9.65986 1.06016 0.29716 -0.672025 0.767615
173 0.960967 10.335 1.93434 1.28769 0.0401897 1.75801
253 1.57239 9.67193 0.718791 -0.147445 0.116498 -1.56436
52 3.32085 8.99645 0.969726 -1.1587 -1.06577 0.868717
445 3.13673 10.4022 1.23377 0.132916 -0.605579 0.988163
695 4.53209 9.20265 1.81238 0.709001 -1.41061 1.72075
16 3.29972 9.77758 0.260526 0.125674 -0.955367 0.432077
753 5.60543 9.20118 0.898554 1.49966 -0.739996 1.17503
585 4.36432 9.24814 0.703812 -0.613953 0.346499 0.643972
192 5.20521 10.1097 1.05983 0.249009 -2.08279 -0.0693588
611 2.47581 6.17005 1.51037 1.85067 -0.30633 1.96079
496 7.16699 9.53684 1.03806 0.228185 0.662221 0.640171
493 6.20085 10.3515 0.940503 0.708569 -0.368528 -0.554511
260 7.12493 10.2444 0.336735 -1.10762 0.879407 0.0889361
361 8.76229 8.87948 0.436351 -1.80654 -1.19528 1.4344
23 9.64118 9.72678 1.4603 0.581906 -0.816059 0.302391
862 10.0982 9.60426 0.493607 -0.277994 0.85921 0.17025
839 9.33311 10.3971 0.10927 0.150457 0.515402 -1.54766
674 11.191 9.28971 0.575533 -0.0335806 0.404732 -1.26741
205 11.1898 10.4585 0.692932 -0.780412 0.605291 1.43949
774 0.295423 10.8752 0.571796 -0.514529 -0.366137 0.890436
720 9.77922 8.77859 0.0846613 0.787338 0.952759 -1.46471
41 1.0032 11.6875 0.186165 0.765736 0.541418 -1.67203
726 1.92672 11.9782 1.16706 0.422385 0.527873 -0.0238667
351 4.1294 10.1372 1.18858 -0.260423 -1.20728 -0.0668843
373 3.77504 10.9652 0.405182 0.701494 2.09945 1.49082
415 2.85037 11.4142 0.876183 -2.13945 -0.776846 -0.892797
227 8.81583 10.9442 4.47303 1.34734 -0.245639 -1.87756
461 4.71277 11.0957 1.00599 -1.73353 -0.245988 -0.449813
829 9.55457 8.5808 5.88977 0.974921 1.46013 -0.855712
279 8.09561 10.419 1.19966 0.373408 -0.577979 -0.322919
668 7.81279 11.6592 0.486394 -0.638201 -0.338158 -0.392835
8 10.0504 10.6998 1.70637 -1.19377 -0.242677 1.38482
76 11.3233 11.5811 1.25025 1.06415 -0.362262 0.318814
664 11.3469 11.376 0.214984 -1.15647 1.04146 2.2139
504 0.980297 6.68821 2.31646 0.919431 1.57188 -0.348255
62 2.3833 7.11185 2.0517 0.60593 1.41085 1.41237
413 3.5742 6.59895 1.99861 -0.240249 1.05122 -0.381978
315 2.94226 7.72878 3.13292 -0.00606726 0.19214 1.03015
582 5.2742 7.43375 1.90459 1.0861 0.94981 -1.04328
742 7.4366 6.33659 2.45106 -1.54185 0.815456 -0.456447
86 6.4596 6.33197 1.44835 0.73306 -0.242886 0.253522
666 6.54791 7.07786 2.58653 1.57969 -1.12538 -0.241169
744 7.85692 7.49823 2.28403 -0.120838 -0.697774 1.36273
764 8.26336 6.31516 1.76104 -0.0439968 0.0304418 -0.258264
334 8.62782 6.68318 2.76644 0.47842 0.524809 -1.12853
153 9.62366 6.82722 1.58942 1.01987 -0.762388 -1.60179
360 9.53229 6.51319 3.23513 0.515041 -0.570331 1.86686
681 10.7828 7.04731 1.46209 1.07141 1.99959 -0.645314
252 11.6367 7.37001 2.00438 0.437416 -0.248314 0.58685
627 11.7521 6.41184 2.85772 0.785041 -0.805227 -0.446803
7 8.01892 10.3428 5.69085 -0.338808 -1.83607 0.381672
609 1.02236 8.27012 1.16376 0.764436 1.29276 -1.11329
717 1.78668 8.17302 2.39566 -1.28 0.582276 -0.448379
417 4.1974 8.31905 3.01238 -0.871539 -1.15456 1.97222
388 3.16061 7.71225 1.65195 -0.528475 0.277056 -0.783953
678 2.90182 8.70975 2.35749 0.712018 2.27458 -0.569165
438 6.95224 8.34474 2.18657 1.76723 0.165421 0.442288
547 8.22359 8.55911 2.16137 0.474879 -0.0862182 1.30922
130 9.04153 7.62201 2.67435 0.446606 1.78395 0.304424
203 9.01544 8.93727 2.78755 -0.361336 -0.329455 -0.816645
733 9.77858 8.0513 1.76999 1.60546 -0.348877 -0.716054
235 10.5075 7.66352 2.43852 0.745838 0.450453 -0.340679
257 11.3133 8.52968 2.65502 0.394505 -0.176485 -1.76623
212 11.2941 8.19974 1.59328 1.55736 1.11999 0.0516831
661 0.396149 9.05994 1.93817 -0.203636 -0.62457 -0.223175
767 0.136816 9.42955 3.04311 0.83708 0.479455 1.31144
525 1.26435 10.3237 3.01024 -0.168292 -0.345353 -1.31784
270 2.25564 9.43401 1.65421 0.122061 1.80812 -1.2121
836 1.93234 10.5803 1.42225 -0.852238 1.3114 -0.324261
288 2.88881 9.92809 2.23025 -0.0426815 -0.502587 0.165642
535 4.3847 9.8152 2.93125 -0.797815 0.123294 1.92711
688 6.25305 9.22424 2.1834 -1.6051 -1.4797 -0.0586661
184 7.42592 9.35655 2.03772 -0.752714 -0.668354 -1.17562
814 8.20176 10.0143 2.18804 -0.761701 0.425018 -1.5465
379 7.10864 10.2534 2.61136 -1.65091 1.94611 1.796
357 10.4459 8.96286 1.18119 -0.839174 0.0364011 -1.03399
138 10.3547 9.81518 2.4726 1.27327 2.81239 -0.812026
592 11.2273 9.62087 1.64814 -0.753004 -0.957929 1.32526
823 11.413 10.1643 2.97649 -0.972857 0.389797 0.75717
458 0.179777 10.8839 2.75337 0.0867455 0.437792 1.27877
723 1.02955 11.4225 1.40714 0.917357 -1.29203 -0.91357
809 3.04998 10.9652 2.10438 0.0538381 -1.03038 -0.256567
206 2.44258 11.163 3.06997 -0.900567 -1.41689 -0.140875
77 1.68565 11.1464 2.26186 -0.525722 -1.18332 0.061541
734 3.84555 11.251 1.53934 -0.615171 -1.51567 -0.455561
21 3.5879 10.4725 2.94974 -1.18747 -1.25088 0.291361
81 3.21722 11.724 3.09199 0.371026 -1.22877 1.3677
520 5.52989 11.2096 2.81721 -0.0880637 -0.711765 -0.0836659
156 4.49751 10.785 2.3179 -0.150636 -0.557289 1.60468
758 5.65809 11.7407 1.64706 0.265167 1.64712 0.781222
543 0.807575 9.22416 0.151129 -2.08142 -0.299107 0.856533
856 6.75884 11.8253 1.06486 1.32454 0.468134 -1.73535
424 6.22445 10.8596 2.22807 -1.7115 1.18999 -2.18049
708 10.2496 10.4465 5.25233 -0.420664 -0.315403 -0.473716
397 8.16636 11.0102 2.77285 -0.320989 -0.589516 0.746571
500 9.86195 11.9059 2.90282 0.503418 -0.611048 0.481434
98 10.5198 11.008 2.8155 0.796629 0.541329 0.0712489
532 11.1829 10.6003 1.79851 -0.22065 0.95385 -1.08995
523 1.14444 7.22939 3.95168 0.182736 1.6447 0.868814
778 10.1592 11.5265 0.027134 -0.89133 0.777224 1.08416
69 11.2694 11.3672 4.55438 -1.22845 -2.10166 0.163281
59 3.23894 6.54998 3.206 0.884893 -1.4305 -2.2479
751 1.9246 7.49204 3.20099 -0.897573 0.969603 -1.85216
61 4.35399 7.33131 3.50499 0.0352569 -0.123838 1.48715
236 7.3596 11.0519 4.91175 -0.424837 -0.883067 0.200233
479 7.35614 6.42467 3.81021 -0.220172 -1.22403 0.189055
436 11.02 6.37669 4.15489 -0.805346 -0.132571 -0.495837
337 10.5139 6.83411 3.05003 1.44098 -1.88773 -0.571647
422 1.00037 8.04196 3.27321 0.725403 -0.49014 -1.93312
861 0.268654 8.43077 4.00428 0.0849305 -0.13686 -0.144914
837 2.57363 8.47426 3.91386 -0.604412 -1.76343 1.38795
630 3.71186 8.75012 4.24253 -1.25061 -0.547523 1.05498
349 4.63281 9.08235 3.54116 -0.277899 3.11998 0.218533
106 7.54335 7.54784 3.48177 1.71378 -0.292933 -0.200219
294 6.65236 8.11309 3.28916 1.22563 -1.25448 0.176672
794 6.62715 8.89941 4.48361 0.952984 0.667774 0.0501294
163 7.44592 8.95393 3.52911 0.68072 0.0629401 1.63323
800 8.4606 7.69736 4.08497 0.520581 0.320084 1.76742
309 8.58173 8.94893 4.16904 -0.557785 2.13974 -0.0092584