ITEM: TIMESTEP
42960
ITEM: NUMBER OF ATOMS
864
ITEM: BOX BOUNDS pp pp pp
0.0000000000000000e+00 1.2000000000000000e+01
0.0000000000000000e+00 1.2000000000000000e+01
0.0000000000000000e+00 1.2000000000000000e+01
ITEM: ATOMS id x y z vx vy vz
538 1.43404 0.976979 1.1286 0.779021 -0.43216 0.795583
789 11.3859 0.837216 0.826334 -1.36801 0.811012 -0.373288
765 2.53247 1.04528 1.3829 -1.10189 -0.601226 -1.34323
634 2.31835 1.51788 0.404419 -1.79648 1.0168 0.185951
726 1.43076 0.420949 2.03119 -1.09979 0.188717 1.45637
409 4.31888 5.9891 2.73939 -1.21967 -1.89233 -0.558815
11 6.21397 1.58802 1.11688 1.58063 -0.152334 1.04506
650 7.16271 2.28068 0.64079 -1.01915 -0.655018 1.88416
429 6.54392 0.37938 1.304 1.52422 0.324865 0.825995
570 8.20841 1.39658 0.581807 -1.59671 -0.953408 0.422824
684 7.99313 0.260714 1.43542 1.21243 -0.788862 0.650581
431 9.36625 1.42327 0.329568 1.03702 0.718271 -0.093036
528 9.83136 0.492503 0.86564 0.155694 -0.670612 -0.92268
571 11.6769 1.75864 1.5702 0.504379 -0.743412 -0.453796
668 8.80837 0.169877 0.486847 0.303411 0.0759714 0.00606132
301 0.794213 2.94096 0.498554 -0.517499 -0.0279515 -0.0995202
298 0.499411 1.64874 1.01911 -0.598985 -0.00366135 0.247435
368 6.62238 2.92306 1.23526 0.621405 2.35016 0.576087
623 6.05426 0.257854 4.23499 -0.241602 -0.694139 0.462274
492 6.89098 3.48932 2.21951 -0.0786321 1.53723 1.39769
188 8.32994 2.57003 0.700808 -0.0720893 0.0706113 0.301063
468 9.44029 2.34927 0.70266 0.540678 0.860352 -0.203985
132 7.69991 2.3028 5.77283 1.2361 0.414057 -2.00805
576 11.875 5.18163 5.53221 -2.47989 -0.778979 0.241067
614 10.6728 1.89623 0.814142 0.195002 -1.18692 -0.367962
129 8.95934 5.92429 1.7192 0.0874622 -0.756452 0.562909
750 11.901 2.43564 0.671504 1.00836 -0.194987 1.27238
494 0.905467 4.93942 1.43788 -0.477098 0.0299054 -0.688175
844 0.0432876 3.7819 0.589296 -0.777233 0.415321 -1.02494
399 0.40954 3.28213 1.46849 -0.344138 -0.920149 0.612431
127 4.28718 4.51093 1.33048 1.07578 -1.10752 -2.4752
659 7.06745 4.00637 1.17479 0.672046 0.736355 0.752279
109 7.7381 3.09318 1.47419 -1.0453 -1.15178 1.49547
768 8.65474 3.50101 2.03772 0.195024 0.130402 1.0542
62 2.67823 5.80101 1.99413 -1.28895 -0.434821 -0.281976
2 5.44596 0.472445 5.2523 -0.397312 0.328852 -1.66805
79 9.93658 3.81195 1.39172 0.881105 -0.707239 1.85127
18 10.2233 5.24665 0.340329 0.343965 -0.542172 -1.68974
53 0.103915 4.25511 1.5007 0.757407 0.29455 0.665271
617 7.30787 0.436566 4.91846 0.138424 1.03967 -0.536636
508 2.58909 5.00369 0.367573 -0.380321 0.454249 0.401024
337 11.4725 5.8971 2.41122 -0.563839 -2.24539 0.41275
195 5.75123 4.97358 1.96353 -0.0797375 2.37092 0.204872
341 4.73759 5.88379 1.61596 0.8091 0.258914 -0.00490077
713 7.1928 5.62491 1.30308 1.40498 0.131286 0.912518
655 8.98651 4.80208 0.582895 -0.968115 -0.236166 -0.761249
466 8.02154 4.48733 0.929023 0.326701 0.0983119 0.12993
158 8.20425 5.66009 0.907302 -1.08019 -0.812341 1.8285
187 9.28435 5.9556 0.281625 -1.52667 1.30908 -1.50661
59 3.102 5.24768 2.97067 0.697254 -3.01025 -0.0367719
840 11.2717 4.93074 0.610761 0.444419 -0.0576088 -0.548633
262 0.232236 0.452216 1.62614 -0.823438 0.202555 2.25249
771 11.801 0.435613 3.12751 1.37751 0.0126312 -0.386908
380 3.86207 4.41141 4.22113 -0.243403 0.0217481 -1.21452
147 0.977204 1.74042 1.95416 -1.45424 0.591407 0.849201
55 3.69765 0.667157 2.8015 0.419408 -0.950509 0.422002
51 11.0678 4.82814 4.87997 0.260821 -2.43472 1.56811
723 0.544451 0.145745 0.706947 0.00653907 -1.015 0.0177816
758 5.50162 0.474709 1.63295 -0.569063 1.15158 -0.128325
199 7.21597 1.83958 2.53326 1.38008 0.396374 -0.989777
105 8.1641 0.102753 2.93997 0.645622 -1.92559 0.953335
667 9.88366 0.693797 1.87455 1.33874 -0.957086 0.817406
500 11.1962 1.81397 2.7231 0.279891 1.29613 1.00333
72 1.87701 1.45464 3.1908 0.0263737 -1.67196 -1.2173
712 9.20394 1.47175 1.69063 0.299822 -1.4546 -0.97292
306 8.05343 2.91019 2.83509 -0.532138 -0.416904 1.01329
522 9.50845 3.15267 2.77587 0.810688 -0.273956 0.217249
685 8.10292 1.6389 1.78315 -0.654957 0.000387576 -1.31121
798 11.2099 1.21562 3.96363 -0.559219 -1.78507 2.09019
103 1.36994 4.07267 1.76898 -1.75673 1.12389 -1.21572
35 3.70294 3.2352 2.5668 -0.512654 -0.837615 0.793244
82 6.9265 2.58124 3.09975 0.484989 -1.45022 -0.136147
327 7.41797 3.97733 2.99017 -1.26266 0.222387 2.32384
562 7.75494 4.0751 1.94839 -0.830315 0.114075 0.930711
401 9.35244 4.1588 2.60622 -2.24163 1.52078 0.00398847
615 10.9502 3.92188 1.81889 0.711637 2.78941 -0.973187
80 11.1005 2.87607 1.44856 -0.313701 0.62257 -1.92979
114 11.7139 4.90651 2.5899 0.993531 1.36785 -0.906123
663 1.07391 4.71431 2.53375 0.158123 -1.02522 -0.399124
239 2.09343 5.91077 0.950914 -0.596696 1.10017 -1.0751
627 1.72598 5.64039 1.9016 2.10348 0.826515 0.41416
312 3.38264 5.02903 1.30079 0.483539 -0.854456 -1.76397
273 8.96139 4.79704 5.80101 -0.217929 -1.08938 -1.04767
620 3.69401 5.84605 1.71738 -0.672793 0.504516 -0.161452
90 3.47412 4.48884 2.33646 0.716667 -0.125976 -1.20171
537 4.77914 5.02097 2.3736 0.59345 0.764845 0.459341
186 7.4628 1.00683 5.78079 0.679776 0.531811 0.501505
299 6.42641 4.45004 2.47023 0.19167 -0.733143 -0.291607
808 7.22422 4.94177 2.39366 -0.978023 0.0331408 -0.455963
319 2.24211 0.163366 5.86723 1.23709 -0.614229 -0.964932
360 9.92161 5.62845 3.73271 -0.671392 -0.417331 -0.913822
369 7.18733 4.98093 0.329243 0.222757 -0.0854646 1.31327
527 8.45251 4.71575 2.41447 -0.987405 -0.737179 0.266378
43 4.6332 2.00612 5.76049 0.0740561 -0.0732996 -1.27384
120 10.8646 5.10206 2.01181 -1.51329 0.484054 0.439839
354 0.846793 1.05427 2.68009 -1.58504 -0.724407 0.465117
247 0.741204 1.44097 3.60337 -1.26991 0.287641 -0.654557
651 2.70601 1.15649 3.89557 0.0298822 1.33614 -0.755407
460 5.3173 5.57398 5.59713 2.00275 -0.927839 -0.313498
590 6.89568 1.06054 3.3554 1.19055 1.48402 -0.0817413
110 8.23554 1.82873 2.7539 -0.0935597 2.18496 -0.0632308
531 1.49343 5.90431 5.15609 -0.302934 -1.45969 0.744712
12 9.27178 1.83699 2.75574 0.29211 0.767206 0.0233683
697 7.77109 5.22032 5.56177 0.82775 -0.443598 1.49095
573 0.316608 2.04252 4.35274 -0.677821 -1.87663 0.993136
793 2.41487 2.62267 2.94564 0.826274 -0.760923 -0.409349
464 7.58121 1.86349 3.50125 0.888213 -0.318541 0.0588778
638 5.84528 1.30868 4.58951 -0.506865 0.877743 0.59681
536 5.41767 2.57639 4.19234 -0.793626 0.446096 2.09114
280 6.84689 2.67776 4.08479 -1.05278 0.76754 1.15528
175 7.67255 2.1147 4.61921 -1.83507 -0.803845 0.160487
700 10.1505 0.665246 3.95384 -0.20974 -1.00342 -0.0321883
19 8.61593 2.26305 3.87838 1.24191 -0.735194 2.18333
144 10.0137 2.24869 3.43081 -0.444373 0.140993 -0.400113
367 11.0314 3.55983 3.3525 0.381221 1.32155 0.556738
225 10.8823 2.49155 4.19078 0.468825 -0.208521 1.57204
157 1.19621 3.76463 2.85289 -1.13944 0.649414 0.505282
320 11.9819 4.15043 3.34215 -0.599716 -0.642746 -0.512512
117 1.14495 3.21473 3.87903 0.751926 -1.07759 -2.24008
540 3.04771 4.08737 3.22224 1.31439 0.311365 0.0463646
307 1.66977 2.24815 4.04237 -1.16818 -0.535145 1.74792
285 4.1838 2.19156 3.52372 1.51704 -1.41928 -1.20088
506 4.9867 3.60543 4.47253 1.47342 -0.231199 0.116712
224 6.07438 3.51936 3.43803 -0.378418 0.443259 -0.497705
193 7.84642 4.58916 3.8799 -0.0358795 -1.54843 1.07357
477 8.40242 3.57922 3.45108 -1.4372 1.02415 0.0184542
596 10.3234 3.42469 4.14278 -1.32723 -1.1329 -1.8577
652 11.9276 3.23667 3.89925 -0.135927 1.26686 -0.0810802
64 10.9412 4.69168 3.49777 0.299932 0.802005 0.533936
196 0.907336 4.50307 3.73029 0.669743 0.376508 -0.49672
694 1.12422 4.94798 4.78903 1.25681 0.24051 0.43359
387 2.22463 4.99498 3.61371 -1.06193 -0.852096 0.185962
119 2.84797 4.49934 4.37131 0.372242 -1.35359 -0.0496688
516 3.5784 5.40411 3.96009 0.0290077 0.0262702 1.72025
58 4.67219 5.11314 3.41455 0.309196 -0.995514 -0.507008
286 3.40602 0.22803 1.54024 -1.24854 0.816705 -0.657542
331 6.79752 4.70288 3.65701 0.270467 0.330748 -0.0788165
730 7.68183 5.57851 3.55562 -1.75751 -0.0115959 -0.464341
583 8.75082 4.97154 3.49502 -0.247603 -0.0438088 -1.0999
430 0.850009 4.59893 5.79505 0.616234 0.0579143 1.70221
137 9.60756 4.14827 3.79283 0.656534 1.45997 -1.26009
254 9.46588 5.3378 2.44163 0.38865 0.500336 -2.09566
640 11.9592 4.53216 4.32745 0.901883 -1.0574 0.587733
343 10.3359 4.38938 2.66872 1.20493 -1.40281 -1.23188
344 2.04034 0.367153 0.427663 -0.104633 0.922223 -0.149479
99 2.56211 0.576718 4.72799 1.13812 -1.42092 -0.208731
427 5.30935 2.32911 0.736603 -0.276992 -0.00281345 0.993467
743 6.79051 4.0019 0.113309 -0.152308 1.77753 -0.594966
300 5.86997 1.49406 5.64647 -0.473954 0.281324 -0.409828
707 11.2193 3.687 4.62003 1.64593 0.632448 -1.16112
705 6.85812 1.29204 4.41629 -1.04258 1.00132 -0.459381
251 8.5479 3.65223 0.905244 -0.579353 1.29051 1.05486
314 9.91012 1.45423 4.63258 -0.743415 0.683291 0.0288989
190 11.8796 0.852387 4.96227 -0.455878 0.467235 -0.730269
834 1.9233 4.90904 5.49298 1.90112 -1.1645 0.587913
628 10.9139 1.91497 5.44968 -1.14871 0.313104 0.741531
272 1.27672 3.00032 4.96026 1.45696 0.753907 -0.745332
297 2.26696 1.68104 4.79713 -1.78839 0.737407 -0.142686
542 4.39744 0.226048 1.14276 0.38724 -0.366611 0.145626
346 4.33694 0.739434 4.66095 1.92906 -0.705305 -0.738719
255 10.124 3.02071 5.6124 -1.22969 -0.236853 -0.127816
353 3.6711 2.34945 5.61315 -0.751992 0.276608 1.13867
295 3.2924 1.49567 4.78728 1.22025 -1.4595 1.8761
259 4.33706 4.6716 5.40051 0.127869 -0.977796 -0.479476
473 5.78625 2.6928 5.84851 0.60375 -0.493935 0.514217
42 6.74172 1.86034 5.3161 1.71553 0.846032 -0.182881
425 10.146 5.14042 5.16107 2.32175 -0.954919 -1.14998
579 8.17467 0.969016 3.79766 0.47461 -0.320765 -1.29428
390 3.15132 5.03506 5.74376 -0.239021 -1.01165 -0.182942
28 8.71247 4.53713 4.64826 -1.13586 -0.747646 -0.366691
653 11.5288 2.99748 5.47112 -0.267575 -1.1394 0.260498
198 0.196428 4.03974 5.31314 -1.07312 0.0347846 1.67319
724 2.98628 3.57976 4.95317 -0.429973 1.27358 0.582554
160 3.95986 3.65995 5.32043 0.934086 0.821984 0.798394
449 11.1363 5.86021 4.78075 -0.47482 -0.169622 1.07209
168 6.20312 3.37969 4.7527 -0.627886 -0.709043 0.34111
785 7.38537 4.13121 5.05738 1.14867 0.722974 -0.723815
691 9.57181 2.76259 4.48105 1.29389 -2.58407 -0.63573
78 7.0568 2.85424 5.19981 -0.992039 -0.133732 -0.774693
213 9.21595 2.32746 5.66644 0.507905 -1.18032 1.02523
321 4.19832 5.76985 4.7363 0.349507 0.809645 0.000356972
276 8.75446 3.69144 5.18146 -0.210721 -0.997942 -0.66863
87 9.68794 4.20308 4.88118 0.500649 -1.36159 -1.63955
514 9.07167 5.91456 4.88645 -1.47682 -1.06914 -0.33845
177 1.2074 1.94004 5.72728 1.36459 -0.450942 -0.566133
245 6.01566 0.443485 0.397171 -0.491212 -0.00568376 0.839505
402 9.3389 3.84053 0.219592 0.165547 0.514388 2.18532
252 0.676242 5.82711 0.849001 0.113971 -1.48885 -1.99707
69 10.7822 0.0512813 4.67224 -1.13783 0.177727 -0.801832
370 0.754031 1.25994 7.06547 -0.861585 -0.0553347 -2.16361
57 1.7927 0.75543 7.40217 -0.751012 2.06749 0.759554
467 2.31559 1.43347 6.22049 0.416321 0.541305 -1.34873
145 3.75049 0.841355 7.49855 -0.627281 -0.589601 -0.0144335
660 3.62157 0.322511 6.13562 0.278933 0.676307 -0.40741
70 7.78606 3.62733 11.9555 -1.44707 -0.347054 0.887166
210 4.78545 0.774383 6.10289 -2.03859 -1.85528 0.923832
810 2.14095 2.721 6.67446 0.740107 0.586187 1.28922
432 6.03351 1.27373 6.67012 0.637425 0.134233 0.0174247
316 7.73017 5.59961 7.37357 1.14364 0.327842 1.52358
139 6.80235 0.650894 7.05038 0.260762 -0.0267897 0.239959
599 7.25944 1.88056 6.85517 0.198166 1.48854 -0.723754
799 10.8728 0.56696 7.67972 0.811155 -1.32924 3.04939
266 3.71565 5.00022 11.9701 1.57734 0.214719 -0.808038
3 10.7527 0.178999 6.79508 -0.790842 0.00102931 -0.932507
38 3.57981 5.61317 10.8179 1.76643 -1.68978 -1.21755
240 11.6946 2.01477 7.19181 0.443755 0.289515 0.666454
133 3.19724 5.79085 8.08217 0.431276 0.0102373 -0.155589
386 2.79838 1.11773 7.84688 0.607107 1.19766 0.343563
296 2.96164 2.08281 7.05237 0.323278 -0.45317 0.641683
215 3.71824 1.48747 6.28474 -0.593601 0.026922 -0.195009
858 4.2172 3.03231 6.27021 1.05725 1.36018 -1.25537
183 6.84282 2.65223 7.48565 1.20727 -0.603071 1.19309
328 7.39975 3.58494 7.64157 -0.842728 0.314201 0.377782
577 5.19661 5.864 11.7963 2.25408 -1.00736 1.46766
395 7.65648 2.89875 6.85375 -0.383906 0.139908 -1.56745
756 9.43998 1.54759 7.88474 1.06684 -1.31008 1.05058
13 10.8313 3.59501 6.16165 -1.30534 1.55399 -1.14997
818 0.437994 2.75434 7.97164 -0.352534 -0.233101 1.10698
741 1.43651 3.29631 7.46286 0.373898 1.28724 -0.0406158
811 1.99055 3.81199 6.06945 -0.911469 -0.252841 -1.17379
679 3.83663 4.16327 6.7999 0.55408 0.675628 -0.706324
324 5.48756 3.14998 6.83883 1.40562 -1.53081 -0.691525
108 4.34658 1.75938 7.20633 -2.17729 -0.195488 -0.725049
376 6.8643 3.69484 6.64327 2.74502 -0.569304 -0.662582
565 6.87262 5.15696 6.22681 0.502857 1.95028 -0.803755
200 7.71863 3.47984 6.04 -1.99262 -0.201144 -1.96894
769 10.1804 3.77558 7.43016 -0.252493 0.724578 -0.321611
365 0.494936 3.76922 7.47955 0.137013 -0.381576 2.02714
20 0.781605 5.78618 7.47677 0.0781103 1.08081 0.163285
269 3.22495 5.67992 6.57371 1.59158 2.40115 -0.174104
643 4.96853 4.80974 6.96026 -0.869743 -1.71615 -1.1896
418 3.12407 3.61017 6.11176 -1.04079 0.90641 0.383297
619 8.29156 0.0334376 10.1666 -1.35844 0.0394388 -1.4683
182 8.68103 5.28665 6.83826 -1.13319 -0.0110529 0.119676
292 8.88301 4.22383 6.87198 -0.780016 -1.15898 -0.0825324
26 10.0097 1.54436 6.19914 0.505884 -0.662368 0.236019
31 9.6727 5.04615 6.79456 1.04159 -1.05867 1.56715
71 11.7218 1.11317 11.272 1.6503 0.108249 -0.704761
246 2.66866 0.425647 6.85426 -0.0196764 -0.877734 -0.844481
830 3.0506 0.192242 8.30937 0.919137 -2.14438 0.518621
366 4.90465 0.893374 7.38367 0.627112 -0.772193 -0.0252424
261 0.650179 5.38126 6.42898 0.784258 -0.19032 0.195735
721 5.65254 0.787115 8.10993 -0.249805 -0.730098 -0.516255
406 6.48636 1.4999 7.69913 0.293646 1.26056 1.63702
515 6.69791 1.32643 8.6709 -1.91692 1.07161 0.247791
616 8.70545 2.36013 8.1119 1.44856 1.62069 0.110117
392 9.82992 0.399749 7.61833 -0.922328 0.196351 -1.66241
325 0.366098 1.19671 8.01769 0.577446 -0.232335 -0.209996
833 11.6796 3.65494 8.48174 1.2747 0.875043 -0.407031
95 1.19608 2.25403 7.04865 0.13239 1.21351 -0.938684
250 5.30083 1.49785 8.75108 1.66329 -0.0500843 1.9952
578 10.7587 5.18578 6.27384 -0.51239 -1.79154 0.141842
264 5.48532 1.86364 7.74011 -0.413745 -1.19569 -0.837792
122 5.55182 2.90749 7.96256 0.481736 0.956164 1.21515
618 4.46391 2.29431 9.78543 -0.351047 -0.745251 0.222899
701 7.63518 2.25431 8.13125 0.332294 0.197112 0.748075
338 9.2487 3.01336 7.51925 1.13318 -0.055764 0.713927
821 7.89504 2.37341 9.46522 0.549288 -1.53514 0.45709
682 10.763 1.53586 7.23592 -0.484554 -0.720571 -1.35643
66 10.4854 1.55287 8.44534 -0.734967 0.29798 -2.24339
632 0.0240256 1.96751 8.62054 0.0302849 -0.631511 1.39933
568 11.0403 2.58767 8.50798 -0.322102 -0.808101 -0.770468
825 2.67733 4.21234 8.34004 -0.0951396 0.0597826 -1.19521
457 3.67308 3.58098 7.77511 -0.762737 0.782349 -0.627485
15 2.52645 3.88856 7.25716 -1.04245 -0.171527 -0.997863
302 5.99839 4.44676 7.05559 0.541177 1.04491 -0.185786
783 7.91239 4.49272 6.75683 -0.0206323 -0.196426 -0.983551
481 6.16731 4.78596 8.408 -1.03338 1.13879 -0.489629
258 8.24091 3.8 8.19934 -0.60348 -0.230854 -0.441507
25 11.7667 5.29647 7.5267 0.510469 1.38371 -2.63764
780 11.3001 3.01129 7.56192 0.89651 -1.20818 0.516934
159 1.15405 5.56761 8.37204 -1.59917 0.369106 1.09813
519 3.2539 4.57407 7.61434 -0.104127 -0.43823 -2.93044
699 2.29997 5.18103 7.21567 -0.534986 -0.6613 0.207042
242 4.32521 4.42838 7.90948 0.496558 0.0901422 -0.711033
371 10.504 2.6843 11.7338 0.372837 1.34917 0.161081
142 6.88484 5.00847 7.80821 0.00579027 -0.191699 0.649583
610 0.849316 0.387199 7.60702 0.655167 2.75946 1.06199
778 9.61855 0.533157 11.8702 -1.94977 -0.108744 -0.667152
860 7.81883 4.84572 8.04966 0.120094 0.39827 -1.04119
281 8.71121 5.53064 8.38735 0.951855 -1.19815 -0.243858
806 9.35452 4.10754 7.98602 0.17319 -0.77779 0.00935388
549 7.25029 1.32831 11.8762 0.802144 1.28453 -0.486576
469 4.46178 0.384596 9.86871 -1.03932 -0.736624 -1.24569
716 10.4853 5.8812 9.40934 -0.292103 1.13094 1.1563
308 0.252343 0.86819 9.46414 -0.478951 -0.240267 1.11396
845 3.27063 1.95054 9.93879 -0.79394 1.49964 -0.610183
797 5.20694 0.519853 10.6569 0.175355 0.356492 0.457584
824 6.25682 0.039474 8.96454 0.817575 -0.371918 -0.827548
435 9.02069 1.38919 8.78781 -0.200821 -0.936655 0.099368
754 8.47115 1.29722 9.79029 1.00738 -0.368267 -0.0722914
703 4.14617 1.32472 9.5638 -0.785659 1.87901 1.44943
586 9.94843 0.763094 8.65149 0.258878 1.72167 -0.727573
816 11.642 1.18175 10.2681 0.566334 0.68596 0.415828
345 11.9114 2.77006 9.21596 -0.187159 -0.51329 0.43275
404 8.89026 3.23464 8.97929 -0.85044 0.612122 -1.69601
852 9.93773 2.3234 8.96763 -0.266582 -0.219476 0.0741075
612 10.6799 2.97952 9.57928 0.504985 0.642989 -0.170183
518 11.2908 1.58896 9.20029 1.34175 -0.17337 -0.0153505
815 0.813373 1.86948 9.48553 -0.070098 1.00944 -1.77118
202 10.2294 1.81782 9.98714 0.40565 0.965149 -1.55905
740 3.37202 3.2849 9.87505 0.886161 -2.08259 -0.958876
635 3.08847 3.29154 8.67234 0.692074 -0.379545 -0.101703
802 5.89768 3.21785 8.82729 0.564788 -0.854073 0.744894
848 5.43776 4.02613 8.23283 1.24485 0.378449 0.116715
728 7.79121 3.44939 9.73104 -0.233448 0.21372 0.166399
849 5.97117 4.32671 10.4014 -0.139266 0.841595 -0.0286958
826 8.96135 4.18148 10.2929 -0.434872 0.131297 -0.108137
600 10.6162 4.33609 8.2266 -0.505446 2.75928 -1.15243
731 9.93112 4.75809 10.1998 1.01816 0.660475 -1.66018
152 0.553844 5.85496 9.26135 -0.674621 -0.335482 -0.896195
30 1.29037 4.51709 9.2196 -1.18517 -0.769558 -0.831852
735 2.43193 5.2307 8.71103 -1.19564 -0.96223 0.465455
719 3.73903 4.30642 8.71798 -0.700319 -1.30662 -0.010956
459 3.3901 5.47209 9.17797 1.18559 0.548429 -0.920425
828 5.15053 4.85415 9.02698 1.45991 -0.790402 -0.607574
125 4.14776 5.94219 9.69461 -0.943002 0.692636 -1.13961
480 6.03786 5.55077 9.86829 -0.673608 -0.188377 1.43247
838 7.39152 3.87155 8.8075 -2.27636 -1.35642 -1.01627
355 7.05252 4.59092 10.0034 -1.79517 0.000434036 1.45282
116 8.36871 4.36671 9.3366 0.254758 1.07844 -1.39546
483 8.596 5.75468 10.125 1.8066 -1.52859 0.584953
154 10.8245 4.66152 10.8599 -0.0153152 -0.987839 -0.180299
237 9.14916 5.13806 9.35049 -0.574549 -0.474801 -0.986251
347 11.1487 4.56951 9.28403 -0.0761917 -1.25143 -0.304167
748 11.6552 5.4917 8.72954 -0.804009 0.641101 0.368166
41 0.783866 1.43056 10.6815 0.612477 0.79346 -0.216333
407 6.53597 0.282948 7.9202 0.485006 -0.402689 0.322815
412 2.7948 0.504152 11.5373 1.4677 0.278373 0.220267
672 10.2547 5.85976 7.85961 -0.108509 -0.400312 0.436512
326 3.60935 0.173107 10.5756 -1.38552 -0.452141 -1.25695
393 4.96592 1.37465 11.3568 0.806 1.48209 -0.640858
227 8.30415 0.906957 6.50834 -1.08387 0.410152 1.89905
311 0.110324 4.35178 6.69922 -0.00371207 1.93385 0.814884
696 8.23744 0.748913 11.682 -0.337657 0.706745 -0.856423
738 8.23601 2.51023 10.4928 -0.466821 1.51053 0.90366
94 9.37317 1.61005 10.5572 -1.23483 0.990954 -1.15063
68 10.9834 1.88684 10.935 -1.13823 -0.671999 -0.411831
843 10.2954 0.416708 10.859 0.178432 0.246073 1.44224
234 1.53753 3.10375 11.4994 1.88324 0.807236 0.619626
588 1.84703 1.27626 11.4634 -0.35804 -1.32371 1.80679
853 0.223788 2.20772 11.0493 -1.41799 0.379824 -2.27517
472 2.78509 2.08804 11.3133 1.73041 0.77563 -1.71898
807 2.72591 5.79598 10.1238 0.442724 -1.65801 -0.134144
792 3.69665 1.43095 10.9468 -0.573568 -0.167625 -0.342618
729 11.8003 0.143325 11.4822 -0.574157 0.00154366 0.18654
169 3.51768 2.76156 10.7502 -1.69952 1.55695 0.195107
150 6.35428 0.597962 10.8503 -0.883125 -1.61253 0.0685542
512 8.5388 2.08217 11.5854 -0.553524 0.83529 -2.48744
812 7.66154 2.71787 11.3517 -2.10796 -0.692485 -1.04698
490 9.61905 2.39618 11.2661 -1.42833 0.368092 -0.546314
282 9.11039 2.08449 9.54283 1.13733 -0.310181 -0.792227
677 10.4069 2.68252 10.4849 -0.630662 0.504769 -1.4879
760 0.991441 4.13808 10.5182 0.169411 0.501274 -1.14414
770 3.65947 4.80414 9.85664 -0.172499 1.32127 -0.468408
102 7.88153 3.76047 10.8773 0.285376 0.838043 2.86651
791 9.8977 4.20273 9.17868 -0.148376 2.02935 -1.42763
131 9.79229 3.87908 11.1447 -1.11948 0.0785889 0.437556
405 8.69701 3.30757 11.439 0.436427 0.0769263 -0.949833
45 8.57114 2.19537 6.81538 0.667598 1.7116 1.84666
88 0.0148248 5.34717 11.7512 1.26543 2.3735 0.963052
441 2.18482 3.98412 11.0571 0.45121 -1.00662 1.3862
747 2.54179 4.61925 10.1531 -0.559807 -1.59829 0.0726222
657 1.91398 5.2324 11.1859 -1.29481 -1.34865 -0.0544454
229 4.4814 5.29409 11.2477 -0.254283 0.243925 -1.13783
107 6.05212 5.81836 11.0333 1.21858 0.33899 -1.37629
121 5.5823 5.51474 7.23784 1.86431 0.0617658 -0.546495
410 11.0801 0.371135 9.02208 -0.759784 0.0388884 1.11733
687 5.11555 5.04297 10.4464 -1.80109 -0.567339 0.0433487
530 9.30197 5.259 10.9902 0.383408 -0.823405 1.19108
313 8.23274 5.76948 11.4666 0.041658 2.6752 0.23735
180 9.63663 5.97366 6.22124 -0.0151423 0.299632 0.120363
104 9.88869 4.07934 6.40103 1.22257 -0.996686 -0.682053
859 8.42559 4.55699 11.4449 0.218669 0.230927 -0.0586602
140 4.22057 5.72018 8.44413 -0.38917 -0.738079 -0.956135
194 0.0696915 0.547185 6.79471 -0.38866 1.16575 -0.29941
567 10.3173 1.32326 11.7252 1.30441 1.37907 -1.09782
766 7.55554 0.692685 7.87465 -0.538468 0.789757 -0.177122
580 7.18117 0.309305 10.3141 -0.821364 0.0596361 0.297999
440 1.3694 5.59629 10.0687 -0.0356771 0.682287 -0.607012
310 0.364582 0.255057 10.29 0.751322 -1.50946 0.814495
491 9.1158 0.508902 10.7615 -0.521363 -0.303766 -1.1143
219 2.93362 0.715717 9.52211 -1.2447 1.22903 -2.2786
489 10.23 0.0820074 9.79628 -0.968662 0.523065 -2.11153
27 11.4169 1.85636 11.9706 0.524301 0.645347 -0.167647
278 0.898412 3.3324 6.0885 -0.677471 -0.477431 0.882359
782 0.783266 0.909736 11.8409 -0.0535654 0.36683 -2.00215
115 4.18546 0.0369128 8.19176 1.51626 0.447426 1.2889
676 8.62222 0.0736191 8.17257 -0.11939 1.2483 -1.00985
358 0.0397083 5.94012 10.3313 -0.711675 -1.0363 -0.662475
217 9.96162 5.85476 11.5075 -0.127562 -2.85441 -1.48366
49 4.07545 1.51959 11.9844 -0.0461992 0.310539 -0.858516
265 5.35698 3.81955 6.00507 -0.985504 2.26083 1.44015
593 11.9257 2.07343 6.00222 0.262507 -0.304088 0.135715
704 1.69315 7.28806 1.57617 0.686967 1.74482 -1.79559
437 0.780428 7.03187 0.328185 0.865482 -1.01199 0.716287
558 9.78381 10.8247 5.26999 -0.388658 -1.20015 0.298384
746 3.76724 7.50185 0.770155 -0.248989 -0.346344 -0.0733596
146 4.13947 6.42746 0.866992 0.869579 0.418992 0.10929
517 9.5232 11.8504 4.47964 -0.852657 -1.14281 1.5665
581 5.39501 6.84553 0.783515 -0.467915 -1.97427 -0.19302
232 8.67059 6.3238 5.86824 1.23705 -0.0667725 1.88864
317 7.17833 7.76406 1.13066 -0.559864 -0.213842 1.15026
847 7.63411 8.47502 0.256093 -0.256222 -0.528701 -1.47502
394 6.86186 7.15764 0.146485 1.1095 1.08125 -0.227587
764 8.39766 7.39621 1.40829 -1.29906 0.0344964 1.14776
551 1.63531 10.0513 5.93094 1.10657 -0.495995 -1.6698
153 9.93106 6.0149 1.36553 1.34233 1.09916 0.337041
135 11.8975 6.32692 0.255043 0.748858 -0.334998 0.79493
400 11.9393 7.5573 0.142157 0.377276 0.347242 1.04524
762 0.706775 7.90021 0.798961 -0.144106 1.10714 0.813401
305 4.49561 11.9758 2.39808 0.338363 -0.0918693 1.19846
609 1.15822 8.82169 2.02648 -0.0434549 1.17644 -1.45961
725 2.20697 8.98365 1.35182 -0.0186143 -1.20486 1.57742
777 4.54689 8.11296 1.40519 0.939861 0.690935 -0.597416
692 4.36984 11.7644 5.11412 0.107991 -0.996431 -1.26729
388 2.79877 7.32269 1.86383 -1.23165 0.0662864 1.08766
714 2.59751 8.3875 0.508136 -0.705394 0.674297 1.34303
736 5.25862 8.46973 0.623351 -1.57294 0.780308 -0.499009
93 5.66476 8.48764 1.81898 0.317941 0.374169 0.814157
189 5.97786 7.7537 1.11315 0.657949 0.724755 -0.711029
817 6.65087 7.91389 2.17112 -1.28451 -0.337589 -0.422572
654 8.20257 8.30307 1.62605 -2.69507 0.705912 0.224697
148 4.44269 8.71981 5.67226 -0.475718 -2.40178 0.174494
209 11.6536 7.2831 1.28792 1.32194 0.527387 -1.18643
733 9.4303 7.41747 1.17384 1.02001 -1.5404 1.24884
382 2.43289 6.20012 5.96574 -1.41862 1.58378 0.322667
605 10.6525 6.33442 0.318255 -1.43005 3.00158 -0.157819
212 11.8625 8.51645 1.21628 -1.72864 1.13275 2.10421
533 0.562572 10.1779 0.039456 -0.538622 -0.778029 -0.898109
173 0.683218 11.1549 1.38609 0.0502848 1.01069 0.795751
543 0.379942 9.05933 0.175221 -0.172514 -0.242896 0.254064
253 1.3579 9.05662 0.584715 0.177075 -0.617936 -0.3473
228 2.27308 9.88454 0.566719 -0.952167 1.49329 -0.383264
270 1.46768 9.90064 1.50121 -2.45258 0.139318 1.13854
445 3.06813 9.77736 1.91242 0.567511 -1.23731 1.10516
16 3.20635 9.29862 0.905864 1.7059 -0.61971 -0.366121
585 4.31149 9.53724 0.760013 -0.660029 1.11809 -0.616198
192 4.88406 9.16981 1.61037 -1.12576 -0.148134 -0.407626
478 5.30026 9.60619 0.643397 -0.716743 -2.53661 0.864207
497 6.42561 9.40878 0.529311 0.141575 0.288123 0.0948108
496 6.89585 9.91539 1.35055 -0.384974 -0.367276 -0.469389
493 5.69708 10.4672 1.20099 -0.716441 0.972786 0.704673
361 7.8771 9.55365 0.80931 0.286684 1.96512 -0.295231
839 8.9338 8.52905 0.89076 0.850376 -1.11046 0.957754
279 9.32216 11.3153 0.916739 2.12511 1.08611 0.902741
862 8.84353 9.32242 1.60601 0.166789 0.590767 0.89167
411 11.2259 9.05233 0.418611 -1.12939 -1.01403 0.319022
205 9.90613 9.81335 1.32837 0.0751333 0.7862 -0.360188
76 0.391377 11.634 2.50602 -0.375426 0.833321 0.665685
10 0.729709 8.73618 5.80706 -0.862974 -0.441657 -0.392195
415 3.05525 11.958 0.354535 0.943026 1.52506 2.4567
836 2.18355 10.817 1.1772 -0.705622 0.489078 -0.578018
602 0.677989 11.2103 0.261352 0.65379 -1.04587 -0.705235
649 1.48998 10.6141 0.287607 1.23566 -0.00559659 0.977138
29 2.58484 7.16274 0.743927 -1.00366 0.222293 -0.505367
734 4.32163 10.8448 1.94154 -0.437018 -1.25841 1.80233
569 3.31101 10.6477 1.18026 1.54799 -0.765805 0.441634
126 0.895492 11.5911 4.59905 -1.14305 -0.0655923 0.335858
461 4.64255 10.2108 2.71378 -1.74251 0.851641 0.702737
856 5.107 10.8463 0.311862 0.361065 -1.19546 -0.182257
835 7.87951 11.3175 0.856698 -0.592613 0.582787 2.15857
231 3.51242 11.8823 3.31588 1.52708 -0.538648 -0.587677
97 10.9801 10.8231 4.96691 1.12241 0.783461 -0.862413
664 11.4202 10.0995 0.655419 -1.29145 -0.113472 -1.36229
271 6.46148 10.7051 5.87286 -0.360076 -0.469518 0.467355
222 2.28461 7.84224 5.75331 1.09733 -1.51482 -0.426892
413 3.80648 6.89007 2.15205 1.00627 0.716178 0.65685
611 3.04876 6.16874 0.922615 -1.02759 -0.192513 1.13544
608 1.16406 7.67561 5.92201 -2.24852 -0.331033 -1.31512
582 4.83232 7.12301 1.82838 -0.701766 -0.382223 -0.105623
666 6.60946 6.96728 1.73961 2.36646 -1.34182 0.140827
737 7.46824 6.78689 3.43647 1.44945 0.479481 0.205277
744 7.81802 6.36812 1.93111 -0.295369 -1.02654 -0.744044
334 9.16174 7.55731 2.46836 0.0218917 0.618951 0.115134
36 10.362 7.07399 1.73994 1.78008 0.163925 -0.833534
681 10.9691 7.99611 1.92395 -0.189546 0.0114842 -0.00496819
373 4.4285 11.6836 0.102903 1.54767 -1.6021 1.54172
504 0.903306 8.39262 2.98762 -1.77237 -1.04734 1.00623
661 0.383578 10.0627 1.12968 0.0874598 1.70601 0.438671
170 2.12976 8.39897 2.1518 -0.316034 -0.70568 -0.559649
695 5.40429 8.0466 2.83712 1.83395 0.171906 1.19639
678 3.86792 8.03087 2.4677 0.781352 0.670363 0.0598372
688 5.13476 9.2179 3.07557 -0.293831 -0.923669 1.15936
289 8.40109 8.32534 2.9193 -0.578564 -0.425302 1.71879
438 7.94289 7.53886 2.28131 1.12403 -0.224788 0.608999
547 9.25126 7.82535 3.81654 1.32277 -0.200935 -0.653712
130 10.4201 7.47312 2.71071 -0.630779 0.410584 -0.859742
357 9.42878 8.32268 1.84614 1.27773 0.46254 0.600933
235 0.0429278 7.98935 2.15085 1.43861 0.799284 -1.05823
233 11.1385 8.95814 2.45942 0.206141 -0.0373863 -1.09414
717 0.828889 10.4942 2.3358 0.612861 -0.630161 1.24684
206 2.03854 9.99133 2.44061 -0.616909 -0.557132 1.49606
67 2.72037 9.09333 2.791 -0.37804 -1.05541 0.445643
52 3.50411 8.8167 1.82402 -1.65921 -0.65465 -0.2934
351 4.04295 9.76764 1.87382 -0.551533 -0.236341 -0.211043
288 2.98085 10.8591 2.19005 -0.81086 1.80224 -0.41268
535 3.92883 9.28138 2.81376 1.51721 0.54092 -0.457306
520 6.52942 9.16929 2.31151 0.606714 -0.185973 0.140036
753 7.63928 8.99649 2.38558 -0.54284 0.734809 1.62899
184 7.90432 9.16242 3.62661 2.00949 -0.674841 -1.14374
814 8.14678 10.6285 1.71469 0.344817 -0.773545 -1.1423
23 8.61928 9.4603 2.73225 0.0681548 -0.297875 1.52034
203 9.66088 8.57407 3.23187 0.406782 0.096495 -0.436521
138 10.1042 9.19241 2.29039 -0.105768 -1.6242 -0.916101
257 11.4085 9.76036 3.04016 -0.0940338 0.908486 -1.87856
592 11.2098 9.81558 1.63638 -0.946083 0.0566453 -0.250182
77 1.70777 11.1562 1.94994 1.17925 0.781273 -0.147143
809 2.38264 11.8647 1.71937 2.1514 1.06504 0.0741876
156 4.11665 11.1905 2.92963 -1.23179 0.444059 0.180917
424 5.03091 11.4223 1.48279 -1.54685 2.09814 -0.928213
397 8.61682 11.5871 3.86284 1.56402 1.73975 0.93816
621 9.52981 10.1092 2.44737 0.500226 0.651591 0.00842619
774 11.4352 11.0802 1.80407 0.380535 0.421145 0.0706934
532 10.5593 10.4519 2.16331 1.51892 -0.36219 0.984005
671 10.9166 11.4765 3.31907 -0.838544 -0.899791 0.693872
647 2.77593 6.2396 3.14142 2.01292 0.557734 1.35464
61 4.81476 7.23766 3.20991 0.0839523 -0.441691 0.355879
383 4.56535 6.24522 3.78854 0.1737 0.409641 1.90726
479 7.38184 6.45417 5.0441 0.181075 0.399617 1.10453
106 9.25994 6.81613 3.61655 0.41048 2.66352 1.93981
294 8.43656 7.2076 3.15379 -0.012757 0.319546 0.0503751
226 8.60249 6.00102 3.91047 0.830945 0.0462579 -1.96231
436 10.5613 6.68247 3.48386 0.578119 -0.207444 -1.49039
398 6.42927 11.256 4.95296 -0.79444 0.694113 -0.306451
128 11.3259 6.81815 4.0829 -1.17801 -0.170096 1.08649
751 0.52168 7.51635 3.49838 -1.1373 -0.915739 0.59082
422 11.7726 8.32936 3.09503 0.228101 0.062948 1.01579
24 0.6103 8.66388 4.02355 -0.0963606 0.35812 2.48441
315 2.35341 8.1408 3.15441 0.68507 1.06326 0.331631
837 1.57645 7.84974 3.86066 -1.15852 0.956558 -1.95209
513 1.74122 9.02967 3.32436 -0.612651 1.88042 0.36825
417 3.34236 8.06266 4.15519 -0.446059 -0.697602 1.38198
630 2.53739 8.00297 4.81338 -0.402214 0.618541 -0.553272
794 6.49013 7.27749 4.07619 -1.36545 -0.465582 1.41751
711 6.85255 8.15853 3.64125 -0.890603 -0.0996888 1.12254
100 7.92354 7.91457 3.86261 1.76824 0.164531 -0.0448811