ITEM: TIMESTEP
45440
ITEM: NUMBER OF ATOMS
864
ITEM: BOX BOUNDS pp pp pp
0.0000000000000000e+00 1.2000000000000000e+01
0.0000000000000000e+00 1.2000000000000000e+01
0.0000000000000000e+00 1.2000000000000000e+01
ITEM: ATOMS id x y z vx vy vz
298 0.477372 1.24943 0.574344 0.395392 -0.352674 -0.35083
279 1.25208 0.280822 0.906141 0.708755 -1.11536 0.7094
173 2.08857 1.10255 0.509726 0.147697 0.76631 -1.19052
344 3.2741 1.20025 0.5424 -1.23623 1.37034 -0.425025
49 4.29579 1.38029 0.310013 -1.55286 -0.0962167 -0.934014
424 4.57713 1.09458 1.38386 0.676287 0.942992 -0.706232
150 5.3213 1.01335 0.608421 1.39949 0.545154 1.16347
570 7.47827 0.63172 0.847661 0.349264 1.03359 -0.401342
580 6.72895 1.46903 0.386655 0.8756 0.254993 0.298176
775 6.3071 0.326316 0.595556 1.92795 -0.342648 0.260178
666 7.27267 5.44456 1.93327 -1.04154 -0.739015 -0.580228
549 8.5231 1.76987 0.584712 1.47669 2.0537 -0.357418
245 4.96202 0.148383 2.1133 -1.08467 0.27164 -2.42066
712 9.21331 0.705562 0.858836 -1.30574 0.0061631 0.274972
789 11.8642 0.156137 0.256088 0.315366 -0.2503 -0.138431
571 11.7874 2.07997 1.37086 1.77744 1.69875 1.4991
576 11.5443 4.64279 5.66433 -0.0172114 -0.414194 1.87661
684 11.0676 0.253866 0.955969 -0.0483076 -2.2598 0.900767
415 3.47456 1.47765 1.54392 -0.448261 -0.501245 0.760645
542 4.59502 2.40391 0.441823 0.843772 1.13971 -1.3558
62 4.78766 5.73676 5.01684 0.688307 -0.130911 1.16575
251 8.36509 2.84223 0.871029 -0.739049 0.32616 -0.497768
174 10.2807 4.60188 5.14215 -0.464702 0.00945688 -1.53754
685 9.81593 2.56372 0.694464 0.538308 -0.469658 -1.29068
124 8.51416 0.0977404 5.08454 -0.303965 -0.747136 1.10725
614 10.4177 1.11016 0.760159 -0.513685 -1.25863 0.717239
27 11.0702 2.04382 0.479992 -0.325551 -1.77437 0.826162
301 11.9028 2.84131 0.590085 -0.013444 -1.53036 -1.51105
341 2.76005 4.0892 1.50666 -1.02381 -0.687351 0.716972
286 4.52531 4.26199 1.08905 -0.51842 1.35459 -0.452166
127 5.92768 4.94761 0.752528 0.507048 1.41216 1.69817
743 6.90314 3.82073 1.26797 0.0705602 0.280119 -2.80295
659 7.90873 4.01293 1.45385 -2.19631 1.35965 0.31532
402 9.22343 3.39744 0.289118 -0.769766 -0.346425 1.63144
401 10.1963 3.53339 0.897165 0.941451 1.27795 -0.586383
844 11.6732 4.18983 0.287666 0.0897305 0.641511 -0.0878967
53 11.2158 3.51945 1.11801 -0.390968 -0.116156 -0.110337
266 3.39537 5.87752 0.370512 0.496632 -0.867543 0.681529
239 2.97783 5.23949 1.50434 -0.156643 -0.365867 1.26301
488 3.87186 5.74725 1.49196 1.06642 0.930565 0.821928
859 8.83815 4.81467 0.352396 0.990491 1.16092 0.56369
713 7.39157 5.17432 0.596743 -0.855801 -0.99419 0.398898
655 10.1642 5.46902 0.722985 0.275737 -0.376869 -1.39375
494 11.2421 4.9539 1.00104 -1.06233 0.207507 -2.04695
120 11.095 5.73982 0.257108 1.01913 1.16059 1.33882
538 1.18732 0.987728 1.68158 1.12654 -0.0376378 -0.676706
388 3.43429 5.72478 3.76879 1.27647 -1.15309 1.1532
734 2.30965 0.927468 1.75944 1.29606 0.35517 -1.02004
72 1.05621 1.11512 3.22323 0.582482 -0.97102 1.32296
231 1.95488 0.406867 2.62465 -1.22334 -0.375532 0.403761
758 3.53839 0.724528 2.37469 -1.70054 -0.746353 0.964281
305 3.58444 0.335616 1.1473 0.111246 1.38943 -1.57201
156 6.65393 0.227938 2.74828 0.786966 -0.148714 -0.883419
285 6.06534 1.29406 2.83739 -0.280267 0.765327 1.00196
579 8.58995 0.841016 1.63994 0.314918 -0.972821 -0.108151
700 9.61968 0.907439 2.93387 1.42958 1.22519 -0.892791
262 11.7657 0.838872 1.6168 0.0763329 0.476468 -0.587303
771 11.7588 0.648228 2.89518 -0.609959 0.545912 -0.899186
652 1.11962 2.65675 3.38895 -0.710434 0.453247 1.77927
812 6.92587 1.89182 2.11496 0.664982 -0.24304 0.60196
492 6.42639 2.83867 2.41998 -0.480723 -0.0660801 -0.464425
650 9.15248 1.92241 1.61254 0.518686 -0.143841 0.0432255
199 7.89197 1.96939 1.35582 0.172265 1.42509 -1.13712
110 8.05196 2.34047 2.62211 1.39968 -0.507979 -1.70931
12 9.21938 1.85807 2.92151 -0.3068 -1.76754 0.998169
765 10.3074 1.53821 2.35104 -3.05674 -0.487007 0.276718
399 0.114082 3.34242 2.37927 0.171669 0.764785 0.666151
103 0.794234 3.45462 1.26485 -0.807907 -0.111191 -0.346894
35 3.99885 4.42224 3.43898 1.36507 0.417972 -0.0777269
59 4.16621 2.99383 1.47589 0.927364 -1.0728 -1.27018
368 5.18674 3.29738 2.75686 -0.830814 -1.42435 1.26593
768 8.57288 3.14544 1.91896 0.354924 -0.778833 -0.634893
477 7.50697 3.33208 2.33531 2.78466 -0.235506 1.47812
70 9.33419 4.22966 1.20151 0.495659 -0.84181 -1.83286
583 8.11247 4.07545 2.64772 -0.074906 -0.658059 -0.619117
254 9.49069 4.34134 2.77575 -0.490454 -0.0568591 1.1684
522 10.3933 3.82199 2.14707 -0.167716 0.423952 -1.54147
157 0.307249 4.68002 1.31974 -0.138262 0.117287 -0.942352
663 0.988532 5.40556 1.61801 0.804552 -1.80738 -0.323175
387 1.04281 4.54621 2.42952 -0.944255 0.253499 -0.463105
611 3.31771 4.42538 2.44662 1.13539 -2.29286 0.447363
620 3.94753 5.59439 2.80545 -0.402975 -0.930303 -0.518343
537 6.10555 4.83583 2.58421 0.792129 1.96681 1.95966
90 6.33755 5.86373 2.7644 -0.0574305 0.801625 0.541132
527 7.31862 4.56737 2.34258 0.140842 -0.613449 0.0905012
466 9.1159 5.41179 1.46348 0.573461 0.196353 -1.02854
742 8.11653 5.41912 2.53424 -0.31226 -0.235111 -0.208169
615 10.2812 4.85693 1.52206 0.46399 -0.759883 0.266817
343 10.4468 4.92298 2.73336 -0.518944 -0.516374 -1.27389
129 9.85014 5.67061 2.1535 -0.385434 -0.432731 0.0221975
337 10.8927 5.61275 1.93731 0.791043 1.60786 0.745135
114 0.27343 5.09678 2.87225 1.35786 0.340674 0.5279
363 11.8835 5.71548 1.64797 -1.09929 -0.303535 -0.858448
519 3.53778 5.47162 5.90943 -0.582065 -0.281648 -0.599012
822 10.8518 5.85976 3.08246 -0.580732 -0.835002 -0.428941
117 2.83393 0.381883 3.52352 1.24996 -1.37155 -0.185147
297 2.89084 0.460171 4.58409 -0.000408393 1.27639 0.639301
651 4.60621 0.308826 2.98899 1.0008 -0.0783888 1.94219
346 4.60369 1.56337 4.08609 -0.146234 0.81723 -0.693749
638 5.24625 0.623022 3.69348 -0.449334 -0.257389 -1.264
749 6.73596 0.908806 4.33883 0.752999 0.536091 0.250746
590 7.19744 0.830976 3.36049 -0.48977 0.644715 0.628186
617 7.30981 2.00097 4.14887 1.24106 -0.198031 0.161244
397 8.17203 1.06885 4.59711 -1.56479 2.8109 -0.799463
175 8.22585 1.54024 3.34271 -0.349184 0.919652 0.338436
105 7.9033 0.0121061 3.3274 -1.24207 -0.236385 0.56708
798 10.5652 0.383772 3.10695 -0.371828 -1.78748 -0.93666
640 1.81021 1.97824 4.18554 -0.0188435 -0.811454 0.267447
540 4.22126 3.48182 3.5918 0.608583 0.751255 0.0907963
427 5.39936 2.37808 3.24687 0.650125 -0.0756197 0.290918
705 6.03472 1.69874 4.2182 -0.20774 0.172346 -0.0745112
536 5.1001 3.38437 4.01814 -0.424251 2.25785 -0.269429
224 6.55347 2.0316 3.38214 -2.12609 -0.729602 1.37942
306 7.35457 2.76617 3.47886 -0.60031 2.15715 -1.23522
82 8.78583 1.92478 4.40262 1.1054 0.750151 0.991489
464 8.32457 3.46536 3.56713 -0.768624 1.74196 1.27325
87 9.18627 3.01208 4.25453 -0.448738 2.07433 0.0324848
144 9.32246 1.27369 3.88197 -0.901696 -0.709304 -0.132473
354 0.228588 1.56966 3.28259 0.0329489 0.521031 -1.27662
147 9.98141 2.30146 3.78365 -0.106963 -1.45359 -0.241577
707 10.8799 1.78225 4.34988 -0.292678 -0.882297 -1.15694
196 0.0823907 3.69269 3.66238 0.511848 1.27544 -1.35933
198 1.5522 3.20072 4.27494 0.971002 -1.10607 0.214329
724 3.3226 3.67338 4.71386 -1.00443 0.292919 0.147793
299 5.39394 4.33988 3.48583 0.811013 0.520195 -0.953703
562 6.3757 3.86342 2.87148 0.821214 0.776847 0.254453
327 6.16011 3.06763 3.56039 0.624173 -0.983944 -0.649109
193 6.89109 3.8499 4.45362 0.308672 -0.178525 -0.0256971
785 7.74478 3.18853 4.49796 -0.235165 0.153573 0.61824
691 10.6983 3.27563 4.47161 1.00748 -0.66308 -0.231654
28 9.71975 2.98847 2.77066 0.343994 1.52106 -0.582779
596 10.6578 3.93239 3.61588 1.10753 -0.945739 1.60316
320 11.2725 2.66467 3.50627 -1.65809 -1.81028 0.588302
430 1.15515 4.2553 3.48054 -0.940122 -0.667232 -1.70737
119 4.51801 5.356 3.72331 -2.03061 0.157016 0.323864
390 3.32285 4.67318 4.52442 -1.19894 0.822874 2.15458
195 6.33058 5.18791 3.65883 2.63899 -1.00839 0.773946
321 7.29634 5.01052 4.14476 0.589639 0.0962223 -0.386288
163 9.53323 5.37597 5.6257 -0.218661 -2.74288 0.105313
730 8.04365 4.75632 3.48267 -0.749351 -0.973967 -0.937929
226 9.007 5.1982 3.44007 -0.228526 0.495024 -0.685602
449 0.0353853 5.88221 3.63013 1.3837 -0.240969 -2.59097
137 10.2931 4.99546 4.00537 -1.41292 -1.48627 -1.45876
64 11.4338 4.84054 3.5661 0.345928 0.47871 0.417566
290 11.7531 0.876227 5.56715 -1.63056 0.959968 -0.385713
319 2.25389 0.14123 5.69413 0.145427 0.22954 0.504983
272 2.10044 1.15366 4.81068 -1.39245 -1.11318 0.837216
55 3.83526 0.5698 4.06596 1.10936 1.55243 0.307066
467 3.61971 0.671547 5.53813 -0.799042 0.679144 -1.06403
757 4.56248 0.887732 5.98321 0.516558 0.829433 1.85984
2 5.52114 0.433842 5.11748 1.26991 -0.4009 -1.53066
625 1.52039 0.0869799 4.59225 0.763716 0.526665 -1.41277
42 6.51414 0.818021 5.83958 1.33776 -0.655619 1.20977
19 8.48044 1.18592 5.62182 0.591094 -0.586436 1.00337
662 7.52041 0.699859 5.62569 -0.0571076 -0.208873 -0.0418955
314 9.38206 0.476792 5.74681 0.0433983 1.33679 -0.587939
682 10.3827 0.875357 5.08988 -0.689498 0.65595 -1.23501
177 0.93622 1.54272 4.71792 -0.0747719 -1.40054 -0.911233
694 1.08011 2.47918 5.30355 -0.271402 -0.140059 -1.44041
190 0.286101 1.84795 5.65501 0.984222 0.177834 -2.18263
353 2.8495 2.29524 4.99407 -1.01489 0.20808 0.0601061
43 4.39328 2.41838 5.00618 -0.129924 -2.31635 1.10944
295 5.26444 1.55172 5.05185 1.61503 -1.75767 0.672857
335 5.52452 5.99781 5.77064 0.490462 0.339508 0.363618
679 5.56873 2.81854 4.82471 0.833244 0.0587997 -1.85371
78 6.49494 1.51463 5.19609 -0.175717 0.525164 -1.05042
132 7.71618 2.41497 5.36096 -0.617223 -0.521172 0.034297
276 10.1174 2.14268 5.00134 0.927285 0.170741 1.78373
255 9.24508 1.14381 4.96845 0.422058 -1.67078 -0.151326
573 11.8601 1.89683 4.58352 -0.664476 1.04539 1.79684
653 10.9644 1.75117 5.47998 -0.625745 -1.9343 0.194424
15 1.52021 4.1703 4.74433 -0.78085 -0.38618 -2.28117
311 0.140785 4.76853 4.34747 -0.393449 0.245475 -0.496088
367 0.2159 2.92661 4.49105 -0.165571 -2.02535 0.0388596
418 4.12076 3.1271 5.85922 0.665079 -0.486734 0.0495385
160 4.70456 3.51093 4.99799 1.10415 -0.644138 -1.20602
506 5.8398 4.30646 4.44227 -1.57516 0.685744 -0.803716
200 7.29198 3.78056 5.88659 0.111629 1.05355 -1.06427
278 1.1372 3.53049 5.77974 -0.105166 -0.0637866 -1.56493
168 6.77567 2.49581 4.79217 -0.562651 -0.57899 -0.0470178
425 8.33338 3.32952 5.60894 -0.765139 -2.48895 -0.127863
51 10.1417 3.56567 5.47423 0.457654 -1.12542 -1.28333
500 11.4677 2.82969 5.55684 1.60715 -0.247639 0.61997
261 1.24402 4.99691 5.66685 1.68194 -0.503952 0.0032788
834 2.45041 4.21785 5.7206 0.514936 -1.90076 0.190359
457 3.5138 4.02054 5.62471 -1.4763 -0.792334 2.42257
243 8.6385 4.84021 5.17962 -0.21741 -0.46362 0.281072
380 4.44864 4.81869 4.56013 0.626037 -1.58037 -1.28276
58 5.72363 5.13064 5.03384 -0.242537 -0.588326 -1.91131
259 5.08188 4.54593 5.5985 -0.904427 -0.128045 1.26721
106 9.46494 4.0273 4.315 -0.948145 -0.0780865 -0.211638
565 6.80126 4.78814 5.44928 0.229687 -0.712967 -0.420139
232 7.14415 5.76248 5.90414 -1.18947 -0.35003 0.971495
514 7.67563 4.48464 4.83538 0.433379 -1.05794 -2.11442
711 9.48912 5.43134 4.36321 1.45101 -0.312284 1.04724
331 7.30305 5.64697 3.35996 0.553263 -1.18466 -1.73429
188 8.2503 3.70817 0.0885699 -0.894848 0.0108591 0.237639
307 11.7613 3.75633 5.96911 -0.480582 -0.134438 -0.511943
849 4.6915 4.22471 0.00520749 -0.23097 -1.16424 0.834024
194 0.891243 0.58719 6.71372 -0.426836 0.0946552 -1.05687
246 2.72898 0.804613 7.36144 1.13771 -0.295965 -0.321626
660 2.69846 1.34714 6.18644 -0.196289 -0.546126 0.0685116
508 2.92596 4.85797 11.5449 -0.432229 0.485378 0.423183
95 1.88688 1.34921 6.91221 -0.876903 0.846064 0.991973
108 3.45821 0.364009 6.57198 -0.233707 -0.541182 0.667473
264 3.94151 1.5821 7.26634 -0.768346 0.631445 0.226708
210 4.86096 0.440151 6.88866 1.24224 0.823285 -0.502227
432 5.57323 1.05712 6.4226 1.12941 -0.525612 0.78092
696 8.38385 2.35027 11.5028 -1.1168 0.46696 -1.08603
686 6.80169 0.876213 6.88471 -1.10821 0.428982 -0.968522
186 6.89756 1.90841 6.09401 0.691765 1.15253 0.539086
213 8.66443 1.05105 7.3195 0.247458 -0.99941 2.72543
745 0.573516 0.0974235 9.89921 -0.57244 -0.0241004 0.691727
709 9.13475 0.350209 6.76687 -0.286302 -0.953042 0.109596
392 10.4926 0.626164 6.66825 1.70295 -0.716666 -0.273464
66 11.8734 1.34891 6.93084 0.584403 -0.0131543 1.60169
593 0.661285 2.3662 6.44354 0.0778091 0.870538 0.981541
325 0.805246 1.57836 7.51111 -0.250835 0.749535 0.911939
382 1.2011 5.77907 7.98304 -0.416567 1.22857 -0.70948
240 1.5525 2.62731 7.45849 -0.570713 -0.490172 -0.0187715
296 2.70359 2.53532 7.22909 0.213541 0.935535 1.55997
215 3.67578 1.84574 6.08592 -0.950364 -0.0734521 -1.05652
858 4.01893 2.52294 6.69976 -0.893375 -1.82074 -1.44526
122 5.26502 1.88632 7.52933 0.130316 0.959145 -0.082872
300 4.80999 1.91821 6.57077 -1.63783 -0.403277 -1.57485
599 7.50605 1.66594 7.17344 -0.625053 0.103241 -0.600514
139 7.44552 2.79051 6.51079 1.67995 -0.139231 2.05571
473 6.29076 1.77353 6.95493 0.19226 -0.860468 -0.0745257
324 8.06035 2.50778 7.56552 -0.298344 0.221501 -0.492947
395 8.48083 1.94659 6.42656 0.0580982 -1.52379 0.335135
45 10.3439 2.87559 7.49629 1.25213 0.333991 0.167874
225 10.2829 1.73125 6.23911 -0.123951 0.278342 -1.36992
628 11.517 2.33577 6.35625 0.195744 -0.532777 -0.576612
26 10.7818 1.56801 7.22141 1.34872 -0.880842 0.227057
151 9.91477 0.124877 11.8779 -0.334608 -0.199373 -0.575735
780 0.315928 3.02973 7.29513 -0.185744 -0.785934 0.0329631
810 2.8027 3.40216 6.60851 0.0610974 1.36062 -0.543925
133 1.83176 4.06242 6.68702 0.852725 -0.499624 -0.61638
635 3.59472 3.87215 7.5878 -0.360715 0.0810063 0.808655
376 7.11764 3.71656 7.10744 0.499555 1.52002 0.748008
697 8.05103 3.62242 7.4502 1.23994 -0.592364 1.7743
104 8.53245 4.18075 6.37257 -1.03009 0.259631 1.69139
273 8.46863 3.02612 6.65515 0.15367 -1.46943 2.02332
578 10.5404 4.03093 7.114 -0.0718302 1.51059 -0.0186831
292 9.77841 3.53568 6.48117 0.956485 -0.585696 -0.63718
403 8.79902 0.0267554 7.80132 1.08697 1.25287 0.298484
699 1.03268 5.13373 7.1796 0.950634 -0.616258 -0.654019
96 2.50119 5.19959 6.637 0.0963376 -0.372018 -1.82273
221 3.55102 4.85824 7.09349 1.16095 -0.431724 0.817869
499 3.25405 5.8162 10.9634 1.0877 -2.24019 -1.21002
302 4.728 5.50395 6.38359 -1.12839 0.154326 -0.524153
783 7.1638 4.58604 6.55112 0.665197 -0.330625 0.248401
121 5.93024 4.92272 6.16603 -0.0870769 0.289097 0.329775
328 6.4615 4.93511 7.22375 -1.43325 -1.42108 -0.347514
268 7.8065 5.35908 7.21155 -0.949244 0.224047 0.221267
31 10.3804 4.88201 6.31191 0.547588 -1.28358 -1.65648
180 9.52519 5.25455 7.37362 -0.742704 1.55795 0.849719
778 8.22489 0.170264 11.7655 0.291044 -0.838707 -0.947471
57 1.32363 1.28325 8.97106 -0.538712 1.25068 -0.0292939
386 2.72974 1.19983 9.76688 -0.522266 -1.00866 3.28655
750 11.7013 1.36934 11.8149 0.148453 -0.567117 -0.488099
703 4.08347 0.640589 7.76183 1.50102 -0.0340851 -2.1822
366 5.04884 0.0870098 7.93085 -1.5004 -1.3409 -0.879149
766 5.35831 1.03156 8.1888 -0.785082 -0.159244 -0.607399
227 7.32528 0.950276 8.39904 1.58188 -0.0745333 0.858287
207 6.31347 1.38113 9.27573 -0.18851 0.368897 1.43779
676 9.9453 0.394506 7.53568 -0.898195 0.207583 0.871866
414 9.32614 1.11317 9.27008 -1.08043 -0.430653 1.722
356 0.297358 0.700416 7.86379 1.43972 -0.955556 -0.989168
799 11.156 0.830146 7.96487 1.95827 1.35434 0.549744
518 10.8116 1.95709 8.25963 -1.79747 1.28057 -0.145541
818 0.825715 3.6261 8.29345 0.533058 0.430787 -0.159514
632 11.8787 1.74278 8.64004 1.06636 0.259427 0.914459
370 2.48853 1.99069 8.33063 1.46512 0.820931 0.39056
406 6.30314 1.2007 7.90297 -0.137651 -1.23453 0.542317
701 8.95587 1.8451 8.59412 -0.0450822 0.599875 -1.15486
258 7.78707 1.99333 8.83976 0.999738 -0.0174335 -0.0655102
756 9.76254 1.46225 7.88371 -0.304811 0.414271 -0.15096
852 9.21656 2.83943 7.79895 -0.868987 0.121827 -0.113633
13 11.7165 2.18467 7.53858 0.512109 1.51198 0.140265
568 11.9328 2.66711 9.39224 0.211421 0.307111 1.15661
612 10.1376 2.56885 8.83935 -0.799954 -0.899057 0.0952991
760 0.64696 3.91336 9.33008 0.420083 0.15023 1.75187
719 2.15091 3.46803 7.43244 -0.245262 -0.262304 -3.36058
459 2.68654 4.36299 7.42971 -0.702846 -0.519836 0.0311823
770 4.16636 2.98826 8.16152 -0.160368 -0.665361 -0.318129
740 5.38868 3.31521 7.7974 1.45617 0.204476 -1.3618
848 6.05567 3.87715 7.11423 0.230678 0.0668083 -1.98667
140 4.67278 4.12621 7.66608 -0.965458 0.546884 0.259524
183 6.37782 3.61098 8.07068 -2.0794 1.65619 0.142739
838 7.18788 4.43465 8.35076 0.822086 -1.27457 1.47725
860 8.32124 4.55839 7.99233 1.15972 -0.718803 -0.293081
616 7.81251 3.27268 8.44662 0.0190456 0.104286 1.55349
116 8.66959 3.84135 8.59892 0.0929576 -1.34761 -1.6964
338 10.4967 3.67904 8.1569 1.32664 -0.651191 0.405073
806 9.15625 3.85109 7.4274 -0.918907 -0.128856 0.893116
677 9.75325 3.66705 8.86713 -0.0338922 2.10292 0.38207
833 11.2642 3.64435 8.90953 -1.00839 -0.187401 0.0493758
365 0.460396 4.54149 8.34353 -1.89591 1.45446 -1.19913
825 1.83304 4.75925 7.95208 0.555588 -0.979999 0.691737
735 2.5309 5.15957 8.80748 0.419768 1.3445 -0.0306875
242 4.05378 5.01493 8.34046 0.442105 0.0510565 0.272618
125 3.25909 5.95396 8.91601 -0.323205 -0.220936 -1.59648
481 5.88584 4.53393 8.31116 -0.262298 -0.931912 0.0273639
439 5.02861 5.49041 8.72258 0.7703 0.0716693 -0.142055
142 4.73745 5.59097 7.47958 -1.78488 1.12539 -0.745539
391 5.93275 5.62108 8.26847 -0.960857 0.0491152 -0.301687
791 10.5594 5.6313 7.58552 1.21352 1.21289 -1.26111
237 8.41747 5.83178 8.42094 -1.66798 1.24871 0.531475
769 11.0425 4.62514 8.11493 0.226755 0.300864 -0.625693
600 11.9063 5.40194 8.01211 -0.325874 -0.442378 0.466252
748 11.0123 5.99428 8.41886 0.998883 0.895075 0.0935746
219 11.1184 0.0774578 8.88786 -1.66737 -0.441132 -0.221933
845 1.57673 0.732249 9.94559 -0.307754 -1.47293 0.00559576
792 2.42547 0.450334 8.97379 -0.0254527 1.15467 -1.22212
381 8.97839 0.197201 9.90185 -0.00319471 1.84533 0.27703
619 6.89226 0.899716 10.1705 -0.421357 -0.437288 -1.74125
204 6.82507 0.492924 9.27992 -1.36391 -0.408222 -0.893353
18 11.8271 5.43626 11.4412 -0.507474 1.35646 0.815532
41 11.1261 1.7012 9.99618 1.17051 1.43202 0.648448
816 10.3916 0.478365 9.46734 -1.41503 -0.187844 0.572737
345 1.02549 2.8381 9.79447 1.21446 0.144721 0.28548
815 2.09903 2.05642 9.33034 0.120878 -0.289855 1.44875
821 7.16357 2.78974 9.45439 -1.44897 0.665501 0.462343
754 7.738 2.78876 10.4456 -0.37288 0.430173 0.452481
586 9.89782 1.72042 9.83895 -1.8347 1.37811 -0.891628
202 9.98093 2.85181 10.2066 -0.353095 0.713459 0.336597
435 9.01654 2.58868 9.50833 0.672602 0.521271 1.51656
252 2.71048 3.73247 9.79836 1.61332 0.746565 -0.019613
741 2.13188 3.41763 8.5618 0.333228 -0.482081 -0.309602
687 4.03887 4.68497 10.0481 -1.10238 -0.136104 1.34239
828 5.9194 3.61705 9.24909 1.33248 0.196321 -0.762351
618 5.61314 4.40689 10.2417 1.72967 1.07151 -0.146002
355 6.4172 4.74066 9.35848 -0.309036 -0.804493 -0.132207
282 8.1726 3.21688 9.57554 -0.325987 0.930599 0.0818852
404 8.34886 4.58079 9.91623 1.00245 0.0202947 0.194973
728 7.21658 3.89861 9.3677 -0.504214 -0.351469 -0.489456
738 7.54101 4.0666 10.6945 -1.90685 -1.20691 0.363764
371 9.10771 3.59868 10.0693 -0.230455 1.96107 -0.070207
131 10.5332 3.80701 10.5887 2.4585 -0.732284 0.174557
853 11.0182 2.99071 10.2295 0.836822 -2.11663 0.755485
217 11.6684 3.79142 9.95101 -0.0771743 -1.11786 0.583428
747 0.373722 4.93946 9.69557 0.615679 0.0977717 -0.217126
159 0.0776482 5.9126 8.93213 -1.58682 0.363186 0.232332
155 1.95748 5.54753 10.1663 -0.0428901 -0.324401 -0.0829564
220 1.40746 5.13903 9.31783 1.08165 -1.43196 1.79744
807 3.11687 5.28531 9.74643 0.725861 1.20702 -1.72946
38 4.20312 5.65836 9.51138 -0.758532 -0.907066 0.778501
480 5.7777 5.65245 9.62505 -0.620674 1.61762 0.3701
801 5.77879 5.72596 10.6818 -2.1425 1.25011 0.823668
826 7.34507 5.07079 9.61366 -1.19141 1.55455 -0.661464
347 9.90301 5.65614 8.66111 -1.20607 1.78196 -1.30154
483 9.73176 4.94436 10.746 0.510499 -0.730937 1.10089
731 9.40772 5.5534 9.66152 1.26702 -0.882205 1.40213
30 11.2938 5.11364 9.11575 -1.50869 -0.0053294 -0.806447
3 11.5356 0.226764 6.89918 -0.930126 -0.0253331 -1.36585
280 5.72524 2.16654 6.09214 -1.60357 1.26561 -0.281699
782 1.09808 1.28189 10.8135 -0.170082 -0.185932 -1.84717
729 1.00552 0.533701 11.4833 0.697481 0.0891302 0.747735
79 10.4751 2.8075 11.8277 -0.0348644 -0.969926 0.309121
265 6.45144 2.88202 6.0305 -0.212307 -0.271953 0.0604586
472 2.31573 1.12655 11.4475 1.03497 -0.0913595 0.885022
250 2.90082 0.754254 10.7374 0.57873 0.960836 -0.726828
797 3.73228 0.709125 11.5404 -1.57623 0.100786 -0.798605
487 4.70832 0.683785 11.3867 -0.0518871 0.831012 0.0414413
393 4.63775 1.77536 10.1329 -0.33271 0.62906 -0.511531
491 8.80311 1.26315 11.5646 1.14519 -0.402363 0.290484
843 9.27978 0.730887 10.8869 -1.66093 -0.429822 1.50814
567 10.6457 0.911375 11.5909 1.74141 1.06122 -0.759898
410 11.9215 0.383401 11.0613 0.661483 -0.557565 -0.708759
634 0.999212 2.3366 11.1094 -0.743326 -0.0260958 -1.5845
234 2.38977 2.3175 11.3223 0.245099 0.90715 -1.27745
793 3.78987 1.94849 11.4153 0.673427 1.29155 -0.873353
802 5.28798 2.10206 11.2405 -1.17103 -1.53229 0.46102
515 6.07721 1.5179 11.5153 -0.894631 -0.615285 1.95826
94 8.14695 1.81254 10.5294 -0.884195 -0.430556 -0.999766
490 8.76379 3.02067 10.8263 -0.535021 -0.202765 -0.279014
489 9.43047 1.85087 10.8164 1.74344 -0.22265 0.343883
468 9.41529 2.62991 11.5243 -0.984145 -0.0608125 0.0719634
68 10.56 1.85331 11.0886 -0.0993281 0.804563 2.22725
431 9.73429 1.67798 11.9653 -1.28331 0.402283 -0.359915
71 0.204964 1.6881 10.5547 -0.239757 -0.426944 -0.508098
657 1.7427 4.02458 11.4135 0.491402 -0.318118 0.319026
312 3.10649 4.419 10.569 -0.124463 -1.98501 -0.959964
169 3.56848 3.06829 10.1644 -0.48144 -0.841429 -1.06886
512 7.58629 3.18704 11.453 1.33526 0.1016 0.11164
326 3.31008 0.0522671 7.89427 -0.715523 -1.64707 1.02888
405 9.32639 3.97984 11.0739 0.510035 -0.806838 -0.135788
80 10.9896 4.78459 11.5125 0.934623 -0.82068 -1.31878
154 11.225 3.12815 11.2361 1.72569 -0.376923 -1.90696
440 0.570906 5.39302 10.603 0.371506 0.669899 -0.578628
840 0.727873 4.50317 11.941 0.733212 -2.45279 0.999969
441 1.73145 5.23866 11.1648 0.515828 -1.16327 0.513592
109 7.32934 1.45574 11.2035 0.796944 -0.248951 0.995506
811 2.04631 2.72991 6.46055 0.0944414 -1.44489 2.10812
102 6.66107 5.08947 10.5805 -0.410472 0.581868 -0.664228
455 11.3752 5.02672 10.3526 -0.932337 0.266241 -0.545244
187 8.86811 5.74277 11.6718 1.26655 -0.00875655 1.24307
369 8.20071 5.58734 10.575 -2.35195 0.581545 -0.151395
530 8.25137 4.61862 11.0912 -0.0880211 -0.22172 1.11019
153 10.1715 5.86558 11.5638 -0.0569414 -0.569154 -1.1536
115 5.28058 0.856291 9.30599 -0.85194 2.49428 1.50415
135 1.78534 6.01676 1.36527 0.92879 -1.72619 -0.221248
674 0.605135 6.3627 0.353176 1.92159 0.181373 -1.44106
29 2.41745 6.34971 0.450585 -2.15642 -0.579184 0.334208
437 1.78357 7.01088 0.995608 1.02385 -0.814521 0.452556
146 3.83859 6.9179 0.511487 1.20829 -0.431417 -0.663268
627 0.75974 6.13 2.86109 1.08478 -0.953114 2.41648
736 5.46275 7.65681 0.789334 0.0174814 0.240343 -0.465405
577 5.16429 6.5124 0.456251 -2.13648 0.572607 0.47325
54 6.89892 6.0285 1.04638 0.569494 0.470572 0.802115
465 7.75522 7.5034 0.482871 0.633299 0.577998 -0.213735
93 6.50308 7.20894 0.86299 -0.409233 -0.785674 -1.72654
646 5.08468 11.7446 0.142039 -0.0409586 0.0350558 0.69284
808 8.11562 6.47611 1.06138 1.38701 0.0333075 -0.401842
158 8.68354 7.93949 1.22004 1.50071 0.292748 -1.54889
143 10.1829 6.56651 1.39208 -0.412245 0.533566 0.709492
733 11.0774 6.9237 0.754876 -0.38422 -0.9707 0.291479
762 1.20369 7.87431 0.451367 0.712001 1.37197 -1.01783
235 0.431858 8.48977 0.996947 -0.625675 0.92673 0.672745
253 1.23803 8.9406 0.503475 -1.8716 0.459639 -0.177887
714 2.2645 7.94231 0.214947 -1.04586 1.06532 0.185499
704 2.52261 7.85424 1.235 -1.13132 -0.819494 0.479619
69 9.79293 11.7772 4.95064 1.50814 0.169597 0.000229236
16 3.78145 8.81583 1.03748 1.06792 -0.853269 -0.513902
851 3.66042 7.583 1.2917 -1.07993 0.570719 0.538193
434 4.52695 8.09907 0.574513 -1.07934 0.257536 0.895927
720 9.43386 8.09243 0.472531 -0.131767 0.564155 0.18421
411 10.5358 8.18783 0.69345 0.900054 0.93078 -0.852704
212 11.8209 7.29509 1.47707 0.909445 0.201692 0.438829
726 0.679611 11.9749 3.52771 -0.356704 0.65471 -0.086327
452 11.3273 8.40535 1.3421 -0.806516 -0.0560933 -0.357981
400 11.3958 7.71816 0.227289 -0.068968 0.593886 -0.772663
533 0.463717 9.61265 0.894591 -0.943974 -0.986223 -0.181452
445 2.26942 9.28911 0.847828 -0.247201 -1.31971 -0.369467
649 1.68423 10.9315 0.316588 -0.155468 0.437289 1.00902
585 4.50999 9.22902 0.350224 0.0377129 -0.834827 0.241086
351 3.76679 10.0645 1.65851 -0.480898 1.2131 0.40704
34 3.48471 9.85316 0.624713 -0.414947 0.103957 0.200407
673 5.41819 8.71592 0.738097 -1.6276 -1.30616 -0.283462
497 6.27322 10.9504 0.0731853 0.121912 1.68529 0.350566
654 6.70587 8.95014 0.588892 0.917462 -0.862554 0.475847
503 8.6075 10.4638 0.573511 1.33965 -1.17216 0.342843
379 7.60053 10.1423 0.91497 -0.745911 0.688223 0.406742
621 9.4561 9.50697 1.23446 1.22586 0.188738 0.40131
419 9.7401 9.80723 0.172542 0.641885 0.57079 0.0289258
862 10.8026 9.24807 0.351577 0.71011 -1.38698 -0.741995
664 11.6511 9.77313 0.131594 -1.18364 -1.42688 -1.6281
592 11.2166 10.2641 0.949043 0.224867 1.51507 -0.109491
602 0.690553 11.5816 0.25232 2.17391 1.17439 -0.0310567
384 0.225732 10.703 0.5276 -1.69912 1.29356 -0.478064
836 2.58933 11.0975 0.843692 0.187804 -1.03977 0.268639
50 5.88764 9.58691 5.92018 -0.908853 1.05591 -0.202109
528 8.4659 11.7626 1.77529 -1.22951 -0.116535 0.720105
373 3.87302 11.2 0.806803 0.506891 -1.68793 0.27506
820 4.49736 10.0982 0.972967 1.15111 -1.04698 -0.345036
603 4.62086 11.9205 1.11804 -1.48701 0.218017 0.898318
496 5.90493 9.9995 1.0431 -1.87253 -1.56018 -0.667311
668 8.02777 11.2598 0.773537 0.485426 0.212786 -0.586204
814 8.77092 10.7921 2.14823 0.423499 1.47871 0.433239
361 9.10262 11.7571 0.480988 0.186422 0.534683 2.00072
205 9.84741 10.702 0.75648 2.00668 0.282513 -0.5831
8 9.55186 11.4904 1.45615 0.416941 -1.13757 2.25802
566 11.9789 11.5678 1.11322 -1.19713 1.10436 0.0941528
629 11.1151 11.2097 0.511153 1.0475 -0.463649 0.442565
460 6.79591 6.13357 4.74906 0.219375 0.451962 -0.996061
209 1.01136 6.74992 1.75154 1.02961 -0.65927 -2.37102
746 2.49656 6.64201 1.81895 0.271365 0.360931 -0.268171
451 3.5206 6.36406 2.15301 1.19826 -1.24752 2.96787
413 4.50996 6.57972 2.90372 1.49425 -0.361371 1.32023
582 4.3728 7.12409 1.95022 -0.0335326 0.500223 -1.38074
86 6.36607 6.53729 1.99408 0.248387 0.18898 0.27889
678 5.44866 6.85251 2.47344 -0.0107803 -1.28804 0.113994
409 5.40645 6.04723 3.20852 0.923529 -0.338644 0.775012
6 5.64148 7.65363 5.43798 0.102417 -0.513324 -1.1237
817 7.29085 6.99163 1.60622 2.39004 -0.806496 -3.13643
438 7.88405 7.85233 2.59972 -0.926427 2.28315 -0.292532
744 8.72631 6.6631 2.30232 -0.907249 1.49236 1.51893
764 9.41537 7.35299 1.86428 -0.394122 0.49673 -0.456393
787 10.5408 6.72572 2.37255 -0.431853 -0.996748 0.0249327
294 9.81784 7.50777 3.64815 0.699807 -0.209082 1.15067
36 11.7425 6.75265 2.38619 -0.364029 1.00755 0.782952
504 0.143194 8.83079 2.97515 0.490186 0.320348 0.276786
535 2.84522 8.34324 3.07705 -0.0334406 0.648114 -0.481565
609 1.8764 7.43602 1.8967 -0.121607 -0.508393 0.991892
270 2.0222 8.69022 1.59993 -0.71113 0.622997 -1.20177
777 3.36301 8.12134 2.01901 -0.619615 0.799611 -1.09636
606 4.83288 7.70086 2.90796 1.38295 0.0424162 -0.669972
192 5.82463 7.95431 1.93 1.80238 -0.111812 1.50418
478 4.45091 8.29893 1.80168 0.893016 0.885508 -0.424186
317 7.24271 8.10866 1.42283 0.153688 0.316982 -0.647579
688 6.48174 8.48256 2.63505 -0.812157 -0.789608 0.769864
839 8.23733 8.78031 1.93138 -0.48758 -0.679957 0.47907
753 8.92176 8.76154 2.90813 -0.369688 0.481606 -0.631291
334 9.56097 8.50575 1.41079 -0.620564 -0.912798 -0.405246
130 10.4436 7.80279 2.01913 0.0458087 0.634095 0.923575
681 11.4398 8.10772 2.40004 -0.190385 -0.0299582 -0.161806
233 10.7203 8.99333 2.42583 -1.91254 1.14802 -0.474246
717 0.947664 9.0564 1.92486 0.266505 -1.4246 -0.208932
767 11.9474 10.5966 1.58774 -0.1454 0.020064 -0.346384
725 3.04778 9.10823 1.67064 0.425278 -0.364165 0.779259
21 3.15366 10.1016 2.50213 -0.2414 0.216979 0.0710087
722 3.96994 9.15188 2.20817 0.903894 -2.06448 0.0319042
856 5.38516 9.36121 1.63302 0.220252 -2.5976 -0.196749
75 4.97121 10.0242 2.68669 -0.155719 0.409 -0.440685
520 7.16738 9.15829 1.83712 0.0288286 -2.08052 -1.08127
462 6.42602 9.82039 2.59066 1.52068 -1.58315 1.23379
98 8.10093 9.66754 2.37787 -1.89734 0.995573 2.31242
357 9.89371 9.57014 2.33662 1.36366 1.13673 1.30167
138 10.5144 9.46671 1.35123 1.14436 0.667052 -0.317256
257 10.9366 10.1824 2.44695 -0.12635 0.185696 0.175586
661 1.09688 11.1733 1.27078 1.60673 0.766868 -0.741606
774 0.279077 11.0639 2.57618 0.364934 -1.19466 0.835655
249 1.13575 10.2014 1.89743 -0.451365 0.0203399 -2.02432
77 2.01329 11.2988 1.70381 1.10584 1.1161 -0.148712
99 2.87204 11.8699 2.03112 -0.70357 1.02807 -0.747844
493 4.23336 11.35 2.46359 1.94993 0.534336 -0.358829
11 5.83211 10.5918 2.08871 -0.266592 0.427261 -1.19909
835 7.29676 10.1654 1.99778 -1.11087 -1.31316 -0.693379
809 0.910811 11.9415 1.99438 -0.630316 -0.593058 0.0447818
526 6.37714 11.9876 1.71937 0.348445 1.17902 0.163211
429 7.70889 11.1627 2.27177 -0.557639 0.868221 2.75037
532 10.3607 10.7625 1.57739 -0.284437 0.716829 -0.496727
550 10.4569 11.7597 2.15497 0.999769 -0.520816 0.29278
667 11.6417 11.8788 2.27374 1.03592 -0.560079 -0.713021
170 1.86481 6.96709 3.61751 0.480556 -1.20032 -0.592586
128 0.757265 7.60565 4.31624 -0.115724 1.12255 -0.557605
342 9.07838 9.89351 5.5987 0.081931 -1.12629 -0.943409
52 3.77199 7.32521 2.78337 0.653528 0.695233 -0.682467
647 5.00372 6.99503 3.82317 0.794526 0.348513 3.40389
794 6.15041 6.61752 3.69119 2.41459 0.0406811 -1.03023
73 10.8962 11.5027 5.21788 -0.549203 0.0613673 -1.32961
61 7.22037 6.88104 2.61298 0.202326 -0.697406 0.24504
759 6.27042 7.3939 4.47107 -0.292795 0.147193 0.708629
100 8.52038 7.19126 3.37193 -0.313049 -0.97629 -0.171467
360 9.74836 6.3219 3.12056 0.281302 1.06566 0.0834589