ITEM: TIMESTEP
46300
ITEM: NUMBER OF ATOMS
864
ITEM: BOX BOUNDS pp pp pp
0.0000000000000000e+00 1.2000000000000000e+01
0.0000000000000000e+00 1.2000000000000000e+01
0.0000000000000000e+00 1.2000000000000000e+01
ITEM: ATOMS id x y z vx vy vz
298 1.19218 0.709655 0.705273 0.534824 1.42211 -1.08487
73 11.0673 0.0572113 4.30979 0.373235 1.05881 -2.66665
173 1.79105 1.82067 0.125126 0.157576 0.840182 -1.57822
734 2.50513 1.27905 0.79662 0.153514 0.861254 -1.48449
305 3.62035 0.989934 0.313806 -0.239549 0.214452 -1.44325
99 3.05855 0.424816 1.42077 1.0894 0.724645 1.30002
424 4.75312 1.04506 0.636162 -0.136273 0.454845 -0.904254
150 5.89949 1.87547 0.588265 -0.234059 -0.615263 -1.60737
646 5.91416 0.659378 1.068 1.41402 1.01024 1.23858
775 7.30879 0.799383 0.929297 1.83795 0.497761 2.06386
570 8.35013 0.609515 0.716769 0.0663124 0.723342 -0.957201
712 9.14932 1.54402 0.0793074 -0.661485 0.176154 0.23768
614 9.83968 1.82361 2.02949 -0.216402 0.594915 1.74683
684 10.6053 0.617361 1.65483 -0.451492 1.269 0.683748
27 11.2119 1.37721 0.81343 0.437594 -0.0907543 0.476704
262 0.552384 1.20346 1.54219 2.04757 0.580566 0.166487
344 2.76787 2.36027 0.639104 -0.98061 0.0119644 0.820286
59 5.1558 2.66381 0.926213 -0.285939 1.47405 0.524345
580 6.90695 2.31868 0.683591 1.54545 2.61721 -0.212188
549 8.10445 2.5091 0.153305 -1.69175 0.352218 -0.552725
650 8.65745 1.41004 1.26401 0.111613 -0.501126 0.688876
199 7.71016 2.16085 1.29592 -2.12151 -1.52829 0.469968
768 8.9665 2.43405 1.00827 2.05354 -0.923387 -0.417069
685 11.1337 2.38578 1.28328 0.115783 -2.42074 0.244216
103 0.116191 3.14022 0.736991 3.28021 0.147042 -2.20797
840 1.14596 2.89956 0.274863 -0.027903 -1.82681 0.320902
849 4.29773 3.31954 0.701197 -1.02349 -0.486217 1.08105
251 7.78623 3.41566 1.08164 -1.01867 0.0453881 0.839218
188 8.09975 4.36019 0.50286 0.0185778 0.579426 0.184731
402 9.33867 3.43879 0.651636 0.12176 0.639152 0.16846
401 10.0247 4.15073 0.0921582 -1.63085 0.160245 0.318521
70 9.74774 4.4367 1.20558 1.031 0.935415 -1.27167
522 10.2613 3.0659 1.25658 0.420001 -0.536304 -0.993628
79 10.6438 2.95322 0.164098 -1.78463 -0.65589 0.189284
53 11.092 3.71598 0.756773 -0.763503 0.0569162 0.199387
157 11.8822 4.51199 0.927391 -0.0854909 1.62765 -2.03741
663 1.53214 4.58837 0.998314 1.1014 -0.980445 -0.809529
29 1.57712 5.30563 0.152471 -0.395772 -0.520833 -0.0147986
135 2.04269 5.63124 1.16368 -1.42857 0.223116 0.277629
508 3.04583 4.31533 0.234527 -0.925022 -1.20661 -0.919735
286 3.68391 4.14568 1.39316 0.27786 -1.92434 2.28019
266 3.64275 5.91093 1.12718 1.207 0.385636 0.705663
127 5.29145 4.6735 0.933008 -1.24921 -1.51305 -0.557318
713 7.13698 4.48445 1.07672 1.0749 -0.886546 0.894119
54 7.0732 5.54683 0.756623 0.95665 -0.757974 -0.211128
859 9.00283 4.79601 0.254605 -0.138427 -0.600187 -0.608975
655 10.4913 5.41036 0.319879 1.47078 0.129508 -0.670972
466 9.57776 5.81663 0.891367 0.0860811 1.87628 -0.714645
577 5.40642 5.98763 0.639219 1.04407 -0.405784 0.309101
615 10.8097 4.85728 1.22105 0.681189 1.02533 0.28363
363 11.6587 5.6206 0.974699 -0.960873 0.426038 0.05347
538 1.62792 0.761175 1.70923 0.351263 -1.08651 0.103425
231 1.57194 0.0547791 2.74985 -0.0358258 -0.916008 0.2413
415 3.88691 1.48668 1.78565 0.5849 -0.197711 -0.156752
758 3.45525 1.16548 2.98019 -0.611462 0.181189 -0.000271088
245 4.89976 0.50658 1.85756 -0.825459 -0.517631 -1.33445
285 5.31852 1.19311 2.93454 -1.16081 0.0319436 0.693652
156 7.67527 0.682927 2.94335 -1.53665 2.07123 0.0597837
579 8.40253 0.346843 1.90755 -0.0937933 0.834229 -0.133437
771 11.4751 0.648116 2.68104 -0.228428 1.05737 0.564699
571 1.18393 2.83776 2.81854 1.04539 -0.227945 1.12206
368 4.60254 2.45162 2.29102 -0.085641 -1.20021 -0.443529
812 7.24377 2.7732 2.69503 -0.617419 0.668401 0.364476
110 8.47877 1.79934 2.54394 0.30016 0.102062 0.0284879
12 9.50641 2.30116 3.60012 0.830607 0.3986 1.89924
765 9.41804 2.75724 2.19938 -1.94047 1.49806 1.3074
354 11.4223 2.83144 3.17823 -0.698139 -0.258416 1.23071
399 11.9929 4.0965 1.93267 -0.0814357 -0.4733 -0.192634
430 1.12299 4.0015 2.31863 -1.26281 1.22024 -1.76064
341 2.34821 4.15906 2.51737 0.692287 0.669215 1.14872
387 1.73895 3.01093 1.4961 0.269665 -1.57394 -0.464451
611 4.63631 3.82197 2.4356 1.00738 0.768461 -1.39907
492 6.56241 3.43465 1.86942 -0.132621 0.725998 -1.96882
527 6.60262 4.43977 2.48951 -1.48534 1.17012 -0.282086
659 7.82788 4.65046 2.08002 0.0563563 0.565949 0.896937
477 8.14032 2.98284 2.00297 1.12443 0.322795 -0.0665127
583 8.66147 3.9242 1.25307 1.09192 0.998142 -1.51282
28 9.41012 3.81959 2.06823 -0.669738 0.709168 -0.955198
114 0.556788 4.99489 2.48086 0.944116 0.216867 -0.243313
239 2.72944 5.19837 2.08215 -0.547939 0.674357 -0.41992
620 4.47588 4.81407 1.80925 -0.130292 -0.986847 -1.78591
488 4.8233 5.97712 1.767 -0.538073 1.38618 0.424874
299 5.48097 4.43525 2.57069 2.14016 -0.851904 0.245778
537 6.22838 5.60816 2.60972 0.0328217 -0.158281 0.426739
666 8.31035 5.63224 1.46589 2.1455 -0.920075 -1.32015
742 9.08839 4.94501 2.07054 -1.21299 1.99208 -1.41337
343 10.0513 4.65081 2.52455 0.292339 -0.00561693 1.21652
129 9.89732 5.68271 2.11293 0.769754 -0.110795 -0.903376
337 11.138 5.87234 1.8624 -0.326893 -0.272047 0.23021
64 11.4324 4.85048 2.40888 -0.367451 1.3663 -1.82417
726 0.583615 0.601058 2.85037 -0.16907 1.10664 -0.747271
177 0.537814 0.877564 4.35718 -1.15803 -0.285596 0.2244
72 1.76159 1.10283 3.18662 -0.604456 0.361624 -1.05134
117 2.71163 0.490135 3.66907 0.241161 -0.460249 0.133392
18 0.633798 5.57828 0.0228453 -0.829626 0.000299044 -0.997572
55 4.41697 1.27637 3.81982 1.71657 0.602268 0.507838
638 5.44947 0.41941 3.76874 0.388217 -0.398888 -1.57867
2 6.22818 0.631003 4.59811 -0.619241 2.18134 0.895374
349 6.64226 1.06475 3.64342 -0.351394 -0.375508 -1.13734
105 7.73335 0.110269 4.02281 1.22594 0.615153 -0.291901
590 8.07918 1.56777 3.50927 1.65576 0.78259 1.61112
144 8.72058 0.51283 3.41031 0.338718 -0.62623 0.0414888
133 1.62766 3.72734 5.88242 -0.269328 -0.491856 -0.549156
707 10.5957 0.644323 3.39136 1.30238 -0.871064 -0.315154
652 1.53205 2.09943 3.48284 1.33471 -1.26657 1.26293
640 1.45407 1.40045 4.20323 0.225235 -1.2397 -0.731172
346 4.095 2.22272 4.51798 -0.486506 -1.44508 -1.39955
427 5.15023 2.27269 3.29325 -1.03062 1.0012 -0.250814
679 5.3664 2.25895 4.28121 0.080901 -1.75238 0.53565
617 7.43068 2.27446 3.94875 0.930266 0.92913 0.765581
224 6.28607 1.92616 3.02704 -0.241794 1.47389 -0.505662
175 8.68796 2.31317 4.26847 0.823826 0.417541 1.74379
147 9.29745 1.25178 4.13907 0.124022 -0.894159 -0.872698
320 10.4025 1.67837 3.32918 -0.811389 -0.997852 -0.187279
573 11.8471 1.21934 3.38168 0.666518 -0.944252 -1.38589
15 1.11497 3.6551 3.42377 0.642214 -0.410494 -0.68789
198 2.09836 3.05521 3.9494 -1.04886 -0.189669 -0.548281
35 4.34257 4.13899 3.47203 0.347025 -0.581121 0.149441
540 4.86286 3.0531 3.95277 1.83137 0.966226 0.219086
536 5.38781 3.23691 2.96249 0.924957 -0.943121 -0.635891
306 7.11593 3.75169 3.13215 -0.503507 1.31981 0.17268
562 6.0972 4.20526 3.40257 -0.942189 0.446714 0.172693
327 6.27906 3.14374 3.62834 0.00841004 -1.62669 -1.11257
193 7.11259 3.59087 4.31198 0.160223 -1.44885 0.269365
464 7.93055 3.61151 3.80546 -0.402159 -0.588306 0.43241
87 9.16971 3.41218 4.14598 1.69242 -1.02776 -0.471706
254 8.90277 3.66733 3.21788 0.333988 -1.44938 -1.10532
196 11.3254 3.85415 2.84376 -1.95639 1.20831 -1.95782
596 10.9478 3.45281 4.6103 1.1762 -0.532239 0.693177
367 0.0019858 3.05546 4.2423 -1.42393 0.230911 -1.59365
311 0.550062 4.86515 3.74697 0.747213 -0.353577 -1.60397
627 1.95117 5.50269 3.0787 1.0017 -0.469518 -0.398092
388 3.46596 5.05467 4.15679 1.09664 -0.0240648 0.406006
119 4.39752 5.84621 3.67555 -0.863986 0.48965 -0.150998
195 7.14559 4.83042 4.1589 0.558459 -1.27968 0.36494
516 3.53572 5.78679 5.09003 -0.719864 0.251249 -0.256985
331 7.46556 5.70986 3.57935 1.25756 0.552227 0.66124
730 8.05091 4.82449 3.49088 -0.295922 -1.77412 0.899535
106 9.29772 4.9722 4.2737 1.75106 0.113605 0.738185
547 9.95562 5.77027 4.19539 -0.540844 -0.261478 -0.143058
822 10.6711 5.58292 3.0085 2.17969 -0.236762 -2.05497
226 9.37588 5.45236 3.33027 0.10736 -0.788611 0.169838
137 10.0961 4.39156 3.70288 1.49971 -0.999993 -0.18091
449 11.988 5.72938 3.07756 -0.365216 -0.152209 -1.30304
458 0.0438694 0.00804283 4.8146 1.55545 0.252476 0.7107
272 1.14079 0.780313 5.37124 -2.17248 0.202778 -1.95638
297 2.33367 1.01397 5.17206 -0.368936 0.225412 -0.278979
467 3.30551 1.17748 5.43737 -0.130993 2.24834 0.311968
43 4.25207 1.45536 5.28782 0.172616 -0.517968 -0.422838
705 5.3481 1.3262 4.83242 0.97904 -0.584148 -0.238025
692 4.59829 0.0285075 4.69068 0.238967 -0.280666 0.400127
295 5.83464 0.585796 5.58815 0.887418 0.974481 -0.420885
749 7.30283 1.39625 4.34887 -1.18454 1.00123 -0.430534
42 7.03015 0.503509 5.95284 -0.798274 1.37065 1.15599
397 8.30706 0.970318 4.43476 1.9445 -1.34227 0.370692
273 9.23307 3.18514 5.82604 -0.453673 -0.443594 -0.857108
662 7.84695 1.56238 5.25167 0.717443 1.18675 -1.8563
124 8.01545 0.31083 5.3247 0.530872 0.477676 0.137353
682 10.7022 0.769717 5.29909 0.541003 -0.767087 -0.590405
255 9.35328 0.803559 5.29402 0.159391 -0.508166 0.79039
290 11.6778 1.17896 5.2281 -0.836664 0.947699 -0.291105
694 0.721849 2.3771 4.6234 0.359994 -1.06463 -0.280167
190 0.655424 1.94567 5.66157 -0.78364 0.871112 -0.915898
353 1.65186 2.13221 5.64245 -1.1104 -0.277064 0.726127
215 3.32813 2.32411 5.56478 1.65694 -0.648826 -0.974349
418 4.408 2.66981 5.61215 -0.0957006 1.35908 1.20448
280 5.49264 2.4916 5.53094 0.716609 0.280651 0.864399
800 11.7923 5.97052 5.73649 0.945402 0.0353768 0.463403
78 6.51953 1.44752 5.51452 -1.13761 -0.621988 -1.17609
132 7.10778 2.453 4.99126 -0.982366 0.384973 0.789815
168 6.16573 2.98961 4.69265 -0.597589 -0.678075 -0.214509
82 8.99893 1.95082 5.30067 -0.163044 0.265418 0.635628
785 7.89781 3.0688 4.6267 -0.729882 0.798092 0.0101433
276 10.04 2.14567 5.33311 0.95279 -1.5391 -0.892493
691 11.0867 2.21969 5.00317 -0.00943229 -0.263593 1.01096
566 0.243585 0.256553 0.727879 0.10368 1.76392 -1.64419
500 0.0304226 2.76169 5.30147 0.304394 0.121533 0.548006
278 0.932959 3.68721 4.77242 0.451666 1.06038 0.0207741
834 2.77141 2.95752 5.051 0.88666 -0.996386 -1.45492
724 3.84218 3.19017 4.7685 0.389481 0.992564 1.78745
380 3.94391 4.25531 4.47837 -2.26583 0.679486 -0.482726
848 6.16904 3.46191 5.7232 0.282676 1.04561 0.128246
160 4.76206 3.70249 5.14522 -0.258474 -0.390995 0.31517
506 5.59547 3.72702 4.22198 -1.78494 -0.21004 -0.949473
565 7.29362 4.61189 5.23151 -1.40795 1.45894 1.01444
200 8.13636 3.12629 5.64693 0.0108619 -0.490239 -3.12157
514 8.1289 4.14559 4.78399 -0.390113 0.486143 1.22052
163 10.3246 3.72761 5.3823 3.9095 0.117486 -1.64379
51 10.0006 2.96757 4.66387 -0.726083 -0.521943 -1.50312
31 11.2534 3.24026 5.643 0.205689 -2.37616 0.161349
390 2.53248 5.26391 5.47305 -0.855808 1.19598 0.200493
261 1.70797 4.39992 4.25361 -0.639174 -1.27155 -2.04883
335 5.10684 5.77802 5.73235 -0.362408 0.690814 -0.609329
62 4.24397 4.98785 5.13551 -0.0541474 -1.58391 -1.55232
575 5.12339 5.18728 4.7337 -0.766235 -0.613187 -0.743801
259 5.48052 4.68758 5.53583 0.399371 -0.460692 1.14313
58 6.2929 5.52939 5.1216 -0.135254 0.204617 0.0617043
321 8.31474 5.29054 4.62443 -0.05143 1.15942 0.461842
243 8.70502 4.78781 5.56486 1.50872 -0.963714 -0.852465
711 9.80957 4.92061 5.15477 -0.25876 -0.974371 0.504941
174 11.1886 4.33726 5.19365 1.90591 -0.146759 1.10862
808 8.87852 5.87637 0.0672085 0.251125 -0.024745 -0.685693
151 10.1037 0.342315 0.21303 1.9217 2.50344 0.904546
809 0.0854235 0.0271722 1.90533 -0.890642 -0.195975 0.737905
515 6.27553 0.992036 0.157511 -0.0498194 -0.137557 0.434762
651 3.89936 0.00731288 3.92391 -0.081226 0.544995 -1.75554
69 9.90763 0.019314 4.59322 -0.0550201 1.57304 -1.05197
194 1.32887 0.658273 6.7315 1.14544 -1.27734 0.70538
66 0.549776 1.12489 7.31049 1.94603 -0.425082 -0.344846
660 1.94311 1.22851 6.14643 -0.150605 0.883843 0.380952
246 3.04367 1.14727 7.36869 -0.0385386 0.0709122 -0.226385
108 3.1873 0.311317 6.66544 1.29619 0.413949 0.353421
703 4.07287 0.641298 7.17298 -0.207763 0.03787 -1.85422
210 5.04469 0.0320149 6.7735 0.456039 -1.04797 0.708429
757 5.04116 1.1176 6.60941 0.0594442 -0.0740424 -0.730882
432 6.18217 1.24811 6.46386 -0.905396 0.772849 -0.0371245
686 7.07779 0.286978 6.9256 -0.241386 -1.46402 -0.711585
709 7.82165 0.0121614 6.34834 0.37266 -1.62823 -1.4094
283 8.45982 0.628181 8.03335 0.911302 -0.405615 2.99392
392 10.7554 0.67263 6.43893 0.995119 -0.445765 -0.418117
676 10.4228 0.48119 7.45549 1.30124 -0.567456 0.802448
314 9.49657 0.492593 6.47014 1.87265 0.466609 -0.276377
39 11.6584 0.121772 6.50904 -1.04173 0.216667 0.163324
3 11.6902 0.46985 7.58614 -0.809562 1.03329 -0.428541
95 1.62018 1.59581 7.3017 0.927343 -0.537847 -0.796902
593 0.893163 2.17148 7.09817 -1.75788 -0.955063 -1.39874
811 2.06332 2.41787 6.75004 -0.425815 1.49021 1.5095
264 3.02245 2.141 6.48689 -2.08167 1.18077 -0.707624
858 3.33558 3.34573 6.1217 -0.144986 1.04141 -2.22575
300 4.29218 1.88602 6.44218 -0.535644 0.66043 -0.331566
770 4.08353 2.88634 6.68963 0.455089 -0.105992 -1.98429
122 5.10868 2.21224 7.12391 -0.123673 0.81944 0.62653
186 7.50477 1.89652 7.11303 -0.0405734 -0.247408 1.45938
473 6.35219 2.64466 7.06733 0.951911 1.41584 0.0625569
139 7.63905 2.94566 7.52314 0.185495 0.573212 1.63738
395 8.74983 1.49369 7.25197 0.280655 0.32353 -0.921059
425 8.4947 2.19949 6.26527 -0.852871 -1.43065 0.706429
225 9.51151 2.11714 6.30831 0.0656065 0.497077 2.0951
756 9.80282 2.28793 7.32522 -0.0898486 1.99541 -0.575546
45 10.8446 2.59808 7.07481 0.448891 0.960456 2.12048
628 11.7231 1.67448 6.58035 -0.814138 -0.0667365 -0.656722
26 10.7438 1.56622 7.02509 1.63919 0.190331 -1.0014
307 11.8372 2.86193 6.89078 -1.60826 -0.68077 0.965826
780 0.646882 3.64526 7.63738 -0.106258 -0.405298 0.881786
810 2.51176 3.70409 6.77422 -0.737441 0.171666 0.360215
159 11.5187 5.9717 9.38993 0.218927 1.63783 -0.351522
719 1.76433 3.51071 7.50522 0.83634 1.30391 0.881062
221 3.95408 4.58902 6.97345 0.952102 -0.611379 0.437171
457 4.66596 4.12783 6.13082 2.02137 -1.43912 0.77242
740 5.21303 3.10131 6.55493 -0.525246 -0.0711392 -1.31575
376 7.11331 3.81705 7.30331 0.902206 -1.71722 -1.49306
104 8.38262 3.41143 6.69277 -0.243537 -0.392489 0.666494
653 10.8634 1.84534 6.02223 0.203092 -0.656245 0.111471
578 10.7124 4.37518 7.12327 0.386776 0.0937262 0.645545
292 10.1607 3.2122 6.54045 -0.651887 0.0486289 -0.0387123
806 9.54394 4.23659 7.27543 -0.0870001 -0.9615 0.0616405
723 2.02592 0.170306 11.6549 0.750603 1.98906 1.87931
96 2.55702 4.35684 6.04752 -0.272912 -1.14936 -0.629358
187 9.69327 5.49288 11.1777 0.662475 0.396758 0.240138
459 2.32931 4.53906 7.52859 0.0482871 -0.416826 -0.568924
267 1.64606 5.0121 6.0242 -1.53644 -2.38708 -0.583897
519 3.51004 5.36934 6.12813 -1.39701 0.236508 -0.0509791
643 5.81174 5.04153 7.76621 0.0719126 -1.49967 2.05883
302 4.70897 5.23983 6.75267 1.07616 0.207277 -1.9253
121 6.21629 4.89385 6.68199 -0.084414 0.960653 0.334833
783 7.85337 4.88218 6.12127 -0.377808 0.353337 0.295383
232 6.85729 5.50648 6.11306 0.258961 -0.475429 -1.49045
180 9.63175 5.25931 6.89443 0.731699 1.57188 -1.4762
358 10.4369 5.95785 9.31032 -0.608623 -0.241869 -1.39777
576 11.3061 5.85637 6.6383 -0.277515 0.584892 0.253391
610 0.745244 1.13604 9.04709 -0.872178 0.9564 1.58266
356 0.516559 0.287978 8.23253 1.7028 -0.970658 -0.450609
792 2.23259 1.01149 8.10455 -0.0750375 -0.256514 0.267686
326 3.42948 0.146128 7.78925 -0.0149938 0.395287 -0.734858
766 4.94892 0.949999 7.66954 0.377997 0.61968 -0.137067
406 6.01854 0.798097 7.60683 -0.178453 -0.214133 -0.557459
227 7.55432 1.15223 8.86361 0.0189156 -0.988581 0.674736
213 9.52569 1.33667 7.94983 -0.175125 1.18899 0.17251
799 11.6523 1.70086 9.22514 0.508508 2.84082 0.512285
219 10.3731 0.982157 8.59819 0.959213 0.361464 1.34197
598 11.6765 0.00559245 8.74414 -1.79341 -1.11505 0.228213
325 0.776152 1.66574 8.17039 1.15046 1.3484 -0.209535
240 1.33097 2.72074 7.856 1.58741 2.18319 2.10114
632 0.149691 2.79636 9.00889 -2.10409 0.349811 0.729202
370 2.44629 2.04176 8.79809 -1.67297 -1.03463 -0.144865
296 2.97999 2.88626 7.78514 -0.371434 1.28931 -0.939296
599 6.73752 1.49115 8.1353 0.351264 0.384596 2.32323
324 8.00739 1.99757 8.01884 0.405314 0.727511 -0.222893
518 10.2811 1.98182 8.25409 0.219712 0.200409 0.354409
701 9.5271 2.54303 8.91587 0.454031 1.78625 -1.04079
852 9.12832 3.00412 7.59287 0.711347 0.0738075 0.438703
612 10.5594 3.53846 8.96409 0.822517 2.24549 0.0888728
13 11.674 1.73136 7.82985 0.530813 -0.785066 -0.200328
818 0.982997 3.48578 8.81631 0.213747 1.20687 -0.13147
365 0.531288 4.47391 8.34115 -0.848153 1.22279 0.0889371
741 1.94442 3.04136 8.6563 -0.288845 0.0122072 0.513547
635 3.02445 3.89323 8.15967 -1.05714 0.0746225 1.58203
140 4.21223 3.66694 7.75468 -0.155412 -2.41383 -0.901396
252 3.23831 3.47542 9.22127 0.204111 -0.873801 0.651597
328 5.26243 3.68485 7.66542 -1.67341 -1.81651 0.260442
183 6.6248 3.3 8.04273 -0.688214 -1.3512 -0.178955
616 7.27412 3.29884 8.91041 -0.490598 0.969456 2.09054
697 8.21786 3.09055 8.4199 0.714592 -0.230817 1.37522
838 7.45243 4.03498 8.2454 0.387515 0.164554 1.58055
116 8.76411 4.75999 8.84061 0.43889 2.5828 0.589289
338 10.2054 3.23803 7.89147 -0.220483 -1.28019 -0.9046
769 11.0544 4.10928 8.29675 -0.0679996 -0.909856 0.290556
382 0.0253828 5.12766 8.94406 -1.34599 0.100925 -1.06969
825 2.02847 4.25239 8.78495 0.392031 -1.87176 1.76561
735 1.92686 5.51936 8.41915 0.610555 -0.497829 0.736529
242 4.15797 4.89337 8.5984 2.34203 -0.146293 -1.11386
481 5.21298 4.54082 8.80842 1.29601 0.320744 -1.71604
439 5.12639 5.65566 8.82156 0.33983 -0.40586 0.576357
403 9.21288 0.130639 7.33912 -0.101952 -0.0876772 0.800636
268 6.89454 4.90276 7.85909 -2.16097 -0.377248 0.428263
391 6.44913 5.94155 7.92937 0.474071 1.58892 -0.0353393
355 6.30849 5.06728 8.76127 -0.792637 -0.225301 -0.986525
860 8.6263 4.86708 7.78348 0.274498 -0.521481 -0.240732
677 10.2919 4.70697 8.63412 0.0137314 0.660637 -0.357888
19 8.72444 1.00443 6.14382 -1.48865 -1.12744 0.960482
30 11.0557 5.51638 8.44506 0.0769118 1.07857 -1.8241
745 0.118225 0.211366 10.3687 -1.11119 1.53094 1.0252
845 1.30321 0.213218 9.6384 0.675873 -0.473355 -0.44642
782 1.24868 1.242 10.0358 0.6944 0.460167 0.543316
386 2.02242 0.914775 9.12991 -0.499993 -0.268193 0.310548
824 4.7701 0.601018 10.9164 -2.17628 0.122887 1.34504
115 5.05303 1.49252 9.8354 0.0397229 -0.215774 -0.84815
619 7.15869 0.69653 9.9463 0.253631 0.372026 -0.677177
204 6.77714 0.469473 8.951 -0.408824 -0.859589 -1.76423
414 8.44755 1.77262 9.59169 -0.809945 0.0120494 -0.058179
816 8.92955 0.830309 10.4733 -1.8161 0.443604 -0.256464
41 10.9004 0.782013 9.38983 -1.17855 0.374151 0.609193
57 1.26882 2.22428 8.91023 0.819294 0.285523 1.64112
568 0.16495 3.09156 10.3817 0.353718 -0.101057 1.55415
345 1.59077 2.70547 10.0197 0.699997 -0.432859 2.34512
815 2.21684 1.74887 9.78766 1.81964 -0.515085 0.69605
393 4.11707 2.47625 10.5457 -0.170897 -0.327409 0.291618
169 3.36829 2.5116 9.53914 -1.01018 -0.320289 -1.89769
207 6.12795 1.07177 9.76782 -0.383575 -1.35978 1.05353
821 6.79079 2.63924 9.68454 -1.07827 0.18479 -0.345678
258 7.5456 2.19343 9.04074 -0.495832 0.577762 -1.2946
754 7.80336 3.14463 10.2102 0.432906 0.469969 0.205351
435 8.9474 2.44702 10.1878 -0.542539 -0.38903 0.0276409
94 8.0234 1.15822 10.5174 0.00083595 -1.87135 0.56993
586 9.98223 2.13228 9.7657 2.25595 -0.503077 0.523216
853 11.1124 2.58039 9.76431 1.66367 -1.07783 0.00475654
760 0.302382 4.68772 10.0683 -0.814945 -0.737273 2.56504
828 6.36979 3.70066 9.4088 0.434052 0.549064 0.601707
728 7.12811 4.53604 9.47455 0.748679 0.588407 -0.186197
282 8.53936 3.88508 9.48366 1.20664 -1.54172 -1.83174
371 9.29014 3.98308 10.1289 -0.863413 -1.42199 -1.06571
833 11.4637 3.64559 9.60913 0.0523361 0.321394 0.0893524
47 1.12026 5.84253 9.39284 -1.22241 0.315366 1.2166
440 0.239283 5.78858 10.0873 0.0615019 1.44582 0.158794
499 2.81108 4.7892 10.2428 -0.424407 -0.265859 -0.727447
155 2.18768 5.93553 10.4042 -0.513365 -0.504037 -0.452081
220 1.91892 4.89464 9.71052 0.162352 0.706734 1.28968
807 2.86949 4.67276 9.10715 -0.229635 -1.18083 -0.515439
604 2.72324 5.66554 9.52387 -1.43853 1.16392 -0.919285
687 4.6498 4.87567 9.88767 -0.164907 2.33779 0.756027
38 3.78881 5.54174 9.53976 -0.347128 -0.54035 0.802665
618 5.77449 5.11213 9.67391 -0.334228 1.52853 -1.92392
669 10.1341 0.116813 10.6515 0.315614 0.806912 0.168848
826 7.06925 5.67157 10.0823 -1.62137 1.51828 1.26558
102 6.11054 5.99591 10.3199 -1.02884 0.85805 -0.0601321
404 8.04165 4.90257 9.87674 -0.453078 0.83353 -0.751865
313 9.2399 5.79512 10.1191 1.42078 0.632261 -1.00687
731 9.9119 4.96611 10.339 0.849709 0.955855 -1.61558
747 11.1087 4.71918 9.38398 -2.66296 -0.00410941 -0.18389
455 10.8884 5.51807 10.1173 -2.932 0.0819551 -0.690397
544 7.45266 0.1439 11.1138 0.846923 1.16882 0.314787
729 1.06128 0.844694 11.5713 0.191824 -0.902671 -0.345386
71 0.487351 1.25233 10.6664 -0.0298598 0.148368 0.302868
789 11.8849 0.125472 11.3597 0.393732 -0.650905 0.612246
472 2.40396 1.10333 11.3078 0.12024 0.496672 -0.466759
250 2.36476 0.0505323 10.6356 -0.302057 -0.109954 -1.3265
483 10.7744 4.81605 11.4962 1.61451 0.17425 0.391514
797 3.24164 0.414741 11.3848 0.166686 -0.769759 -0.910699
487 4.96804 0.278035 11.9444 -0.212315 -0.976421 1.09561
80 11.5373 5.23794 10.9892 2.27226 2.19934 0.45581
109 6.67367 1.00715 11.1405 -0.954292 -0.13845 -0.396823
491 7.7582 1.04557 11.5245 -1.19508 -0.360194 -0.426653
843 9.4347 0.578468 11.4664 -0.60892 -0.367198 -0.999082
149 3.673 0.173737 10.3041 0.235306 0.340199 0.47015
567 10.8889 0.894507 11.5263 0.177113 -0.866078 0.025587
410 11.0791 0.102455 10.3886 -0.0217396 -0.132903 -1.5231
750 0.337345 1.74045 11.9409 0.0788468 0.604055 0.277806
634 1.41668 1.79971 10.9898 1.75173 -1.30322 1.3436
154 0.359999 2.73193 11.5738 -0.324792 -0.555611 0.872816
234 2.49709 2.41581 10.817 -0.882285 -0.334401 0.663602
793 3.19049 2.66419 11.6691 2.03998 -1.00658 -0.0634364
49 3.91296 1.74015 11.243 -0.962852 -0.327221 -2.12741
802 5.07463 1.61287 11.099 0.0357826 0.99526 1.80231
542 4.96632 2.72489 11.4943 1.17462 -0.287931 1.23338
696 8.261 2.13888 10.9849 0.20963 -0.594756 1.22714
489 9.38283 1.79323 10.8622 -0.486208 -0.0399125 0.992374
468 9.20641 2.42301 11.7079 0.323053 1.07537 0.9843
431 10.1572 2.01133 11.9656 -1.31305 0.983472 0.12229
68 10.8388 2.54395 10.9022 -0.0191948 0.0339421 -0.137654
301 11.3075 1.90609 11.6803 1.80101 -1.52164 -0.659081
657 2.24068 3.30472 11.9137 -1.4205 0.549888 1.23023
312 2.34389 4.07734 11.149 -0.665447 -1.59738 0.836879
743 7.24282 4.1411 10.8974 1.72559 -0.0155013 -2.88359
738 6.22951 3.05019 10.8847 -0.793754 -0.53427 0.640831
490 8.69825 3.30483 10.8061 -0.411559 0.739766 0.200389
512 8.10685 3.67705 11.6364 0.132205 -0.420088 -0.139984
530 8.56896 4.43947 10.7307 -0.337665 1.05298 -0.37792
202 9.75689 3.1091 10.4179 0.390767 0.10163 0.157575
405 9.16615 3.80088 11.6645 0.225949 1.27376 -0.0256692
131 10.5798 3.83937 11.2452 -0.388975 -1.11814 -0.568763
217 11.6206 4.07405 10.6009 -0.705091 -1.50688 -1.40431
844 11.7399 3.90439 11.9155 0.230872 0.137637 1.56248
265 6.83965 2.30257 6.20358 1.47153 -0.933697 0.903651
441 2.03844 5.08859 11.0316 0.105863 -0.00684645 0.625531
801 4.79306 5.83543 11.054 0.395307 -0.799732 1.74078
453 8.47214 5.71509 9.13265 1.40916 -2.10393 -1.03313
381 8.39452 0.0477446 9.96001 0.7705 1.32474 -1.06415
494 11.5247 5.22812 11.9998 0.270932 0.443476 0.252335
674 1.78869 6.46744 0.137773 2.03578 -0.739075 0.187963
209 0.761055 6.02297 1.03413 0.312034 0.0203821 1.52061
710 0.989766 7.06332 0.552604 0.944311 -0.171366 -0.262872
437 1.57469 6.67085 1.48199 -0.429913 -1.71037 0.409492
746 2.97363 7.02414 0.786537 -0.224263 1.61501 -0.990915
736 5.75277 7.54908 1.05488 -0.531876 0.824309 -1.14046
396 0.649801 10.4275 5.93836 0.99852 0.787408 -1.5003
434 5.04464 7.0649 0.19213 1.39726 -0.123527 0.271203
582 4.57351 6.90529 1.18587 -0.884653 -0.296498 -0.29258
93 6.49289 6.96582 0.504354 -0.393003 -1.64942 0.121579
86 7.20013 6.56683 1.45558 0.844091 -1.15426 -0.758353
553 11.4598 11.1429 5.11825 -1.49055 -0.0834404 -0.947217
817 8.21325 6.64468 0.651856 0.196639 -0.347282 -1.56612
143 9.62047 6.86175 0.881449 0.319729 0.0132347 -0.654455
120 10.5192 6.30283 0.987091 -0.432616 -1.48565 0.0223148
448 0.0565938 6.92429 0.202027 0.620963 -0.402202 0.0986999
733 10.568 7.40169 1.50931 -0.893334 1.80157 1.32664
762 1.39695 8.50877 0.172306 -0.014937 0.513776 0.0683231
235 0.697301 7.94794 1.43152 0.193434 -1.38759 1.6895
714 2.38475 7.97084 0.779163 -0.163789 -1.38806 1.00487
270 1.73148 8.6247 1.17822 1.57007 0.809225 0.232854
16 3.446 8.63178 1.15347 1.05196 -0.958429 0.369492
851 3.88659 7.70183 0.912442 0.749429 -1.8232 1.34918
585 4.32148 8.58595 0.0810883 0.301716 0.687555 -1.44219
228 3.05817 8.67024 0.124928 -0.0544591 -0.901806 1.19529
673 5.24256 8.58942 0.440562 -0.429834 0.721975 -0.122991
478 4.80908 7.96324 1.45945 1.11323 -1.37307 -0.0988603
654 6.55236 8.02542 0.71732 0.476185 0.720146 -0.249493
317 7.53065 7.45009 0.949561 1.258 -2.08085 -0.968353
158 8.79837 7.44236 0.697586 0.669365 0.936007 -0.526731
839 8.06405 8.23766 1.33065 0.718124 -1.94716 0.0647727
601 9.06261 8.67283 0.152651 -0.0817763 0.156135 -1.14046
411 10.2138 8.54819 1.21567 0.540747 1.76908 0.449996
400 11.8659 7.90867 0.791148 1.64071 -0.503966 -1.1544
533 11.9402 9.01237 1.2693 -0.609359 0.0782292 0.702292
249 0.330381 9.93716 1.547 -0.590774 -2.00012 0.592761
543 0.951249 9.5973 0.57034 0.537761 1.66127 1.93387
253 2.02885 9.56313 0.0926744 1.57472 0.029313 0.20065
445 2.57499 9.31277 1.22106 0.250686 0.495556 0.64846
450 2.72386 10.5706 0.178853 1.86312 0.959717 0.0272975
34 3.58224 9.67513 0.789785 -0.280491 0.513155 -0.199905
820 4.56868 9.38332 0.885379 -1.1514 0.945046 -1.53119
496 5.65492 9.47227 0.953832 1.56526 0.18167 -1.09643
572 6.42703 10.4761 0.108493 -0.12351 1.1517 -1.8063
720 9.30028 9.52183 0.76661 0.612797 1.1559 0.802037
503 9.4218 10.5144 0.687083 -0.049318 0.765974 -0.314788
621 10.0295 9.81487 1.45245 -0.256124 0.173822 -0.934913
419 10.4063 10.0142 0.116849 -0.0355555 1.15599 -0.217138
862 11.6806 9.19875 0.0696677 0.459778 -2.32309 -1.0671
138 11.193 9.69561 1.29468 0.940361 0.573383 0.195652
602 1.27776 11.6494 0.404151 0.648225 -0.0610921 -0.924747
384 0.0958191 10.3345 0.573023 0.523738 1.25859 1.62665
460 7.38288 6.37713 4.62338 0.522904 1.11766 0.490924
661 0.684534 11.4003 1.21036 -0.288876 1.29862 -0.49643
649 1.69691 10.6862 0.688632 -1.0678 -0.335646 -2.81674
836 3.19829 10.9086 1.16785 0.862687 1.09895 1.47435
373 3.89044 10.4535 0.0507599 -1.29401 -1.31989 -0.468102
211 1.45461 11.8739 5.83671 -0.743446 -0.796305 -1.03813
11 5.07405 10.5606 0.754566 -2.3039 -0.458967 -1.22098
497 6.90622 11.9481 0.381943 -0.0412619 0.933388 0.0845146
379 8.14509 10.5793 1.06883 0.538811 -1.91022 -0.102369
668 8.05782 11.5734 0.618797 2.37988 -0.184596 1.13994
361 9.08447 11.8802 1.29202 2.22626 -0.172373 -0.69024
205 9.95789 11.3451 0.882285 0.0968744 0.378566 1.867
592 10.8506 10.7112 0.96951 -0.762427 0.859128 -0.160307
629 10.8963 11.7011 0.438762 -0.0601681 -0.792346 -0.516662
212 11.99 7.22234 1.98358 -0.830572 0.529203 0.243665
609 1.50224 6.71717 3.02069 -0.607375 -0.866177 0.713344
581 5.49463 7.01677 1.88604 -0.0391974 1.56301 0.86545
413 4.24858 6.57555 2.50951 -0.848069 -0.997486 -1.74904
678 5.79407 6.9996 3.50039 0.475698 -0.31411 1.70497
90 6.6091 6.47169 2.36473 -0.00446244 0.34843 0.24883
438 7.30851 7.28387 2.19398 0.756049 -0.60831 -0.510097
744 8.32124 7.20949 1.68704 -1.18237 -1.47945 -1.78351
61 8.05451 6.28043 2.3748 0.693642 -0.156798 0.316217
787 9.95207 6.74911 2.18745 -0.0407071 -0.398184 -0.269982
36 10.9561 6.66638 2.61094 -0.714182 0.462123 1.01612
504 0.713518 8.86835 2.75906 0.861571 1.25405 0.336345
704 2.17933 7.53765 1.72602 -0.67055 0.0935241 -0.0360577
513 2.09692 9.19194 2.0866 0.383852 0.894133 -0.472746
777 3.00972 8.57079 2.35513 -0.849105 1.31443 0.654452
722 4.09147 8.66945 2.23246 0.0266511 -1.756 -0.0526215
52 3.87586 7.55535 2.08657 -1.50011 -1.51355 -0.578689
606 4.99974 7.80577 2.95396 0.384281 0.887859 0.99079
856 6.08167 8.43698 1.92382 -0.728028 1.40664 0.397322
644 6.33553 8.25492 3.20336 0.831185 -0.480049 -0.139589
192 6.35754 7.5789 2.40464 -1.04036 -0.42589 1.3306
688 7.33051 8.70802 2.77915 0.273607 -0.256955 -2.0968
520 7.09206 8.18906 1.70753 -0.167117 -2.07987 0.116203
753 8.26308 9.23923 2.18429 -1.9473 0.214816 -0.695113
303 8.14321 8.07201 2.42868 1.26667 0.684 -0.796228
764 9.28615 7.53125 1.62215 1.49764 0.774034 0.00957832
334 9.22144 8.50124 2.13862 -1.27025 -0.362263 1.30663
130 10.3605 7.80138 2.44215 -0.588902 -0.0371946 0.982986
545 9.05623 7.56954 2.90127 -1.89321 -1.59205 -0.0941002
452 11.3657 8.28607 1.88087 0.0399316 -1.51434 -0.178807
681 11.4763 7.92923 2.81117 -0.548425 -1.69986 -0.471902
233 10.469 8.90699 2.27884 -0.166651 0.632498 0.189299
717 0.937986 8.97394 1.81962 0.660923 0.52863 -1.18109
126 1.22334 9.93531 2.60193 0.729271 -0.232882 -1.71863
725 2.24352 10.2549 1.82427 -0.447942 1.09473 1.28058
21 2.80048 10.0606 3.123 0.58049 0.179911 0.227701
351 3.75142 9.96501 1.93797 -0.641018 -0.387207 -0.79667
75 4.81703 9.91842 1.778 -1.16912 -0.110604 -0.280398
462 5.80969 9.80428 2.35396 -0.5448 0.47166 1.25742
835 7.01237 9.84167 1.18886 0.736131 -0.722593 -0.940051
357 10.0071 9.85241 2.63051 -0.00683025 1.32579 -1.34096
91 11.4219 9.7025 2.3844 -1.61192 0.657267 0.884648
774 0.753345 10.7834 2.01546 -1.68712 -0.880328 -1.606
558 9.84044 10.6741 4.91685 2.17303 1.18767 0.546457
77 1.73249 11.2409 1.75455 -0.554261 0.642328 -1.13919
288 2.65681 11.9712 2.66571 0.407593 2.29387 0.658037
493 5.48962 10.812 1.85697 1.52592 -0.821786 -0.252705
526 6.47967 11.769 1.94815 -1.10331 -0.457017 0.358922
528 7.71473 11.4371 1.54369 -0.103669 -0.30933 -0.140518
814 8.16693 11.4241 2.92773 0.132427 -0.591397 2.20873
8 9.7755 11.5638 2.06917 -0.390733 -0.678812 1.80977
532 10.5035 10.7337 2.35339 0.231181 0.660147 0.859598