ITEM: TIMESTEP
41940
ITEM: NUMBER OF ATOMS
864
ITEM: BOX BOUNDS pp pp pp
0.0000000000000000e+00 1.2000000000000000e+01
0.0000000000000000e+00 1.2000000000000000e+01
0.0000000000000000e+00 1.2000000000000000e+01
ITEM: ATOMS id x y z vx vy vz
567 10.5302 1.65168 0.14433 -0.0559124 -0.789438 0.111596
473 6.30038 2.97659 5.73303 0.757962 -1.48628 0.601094
538 1.01827 1.05966 0.723951 -0.146318 0.160956 0.478535
55 3.87177 0.889816 1.52092 -0.39338 1.34753 0.916755
765 2.95217 0.152037 1.08267 -0.165747 1.9447 1.70425
49 5.09472 1.11104 1.3854 -1.18518 -0.160823 0.0419823
792 3.81253 1.62077 0.0165694 -0.549143 0.144643 -0.939015
653 0.234121 3.15584 5.82189 -0.868722 -0.704121 -0.933546
11 5.69217 0.693822 0.468292 -1.33 1.22885 0.362146
650 7.46706 1.40131 0.579552 -1.08257 0.743323 -0.677118
286 3.66332 0.0646287 2.29165 0.581717 -0.644524 -0.0205069
570 8.72414 1.02435 1.18243 -0.734094 2.36203 -0.621581
614 10.8424 1.62007 1.29348 -0.429118 1.07382 0.507264
27 11.5369 1.76833 0.451467 -0.0716029 0.34483 -0.689276
431 9.6522 0.904811 0.175102 -1.93395 0.273967 1.70291
301 0.763144 2.04432 0.460998 0.373793 1.13485 0.734277
82 6.17937 3.07918 1.98283 0.338667 -0.0666907 1.58784
368 6.34949 1.50362 0.481296 -0.609249 0.528758 1.02893
712 8.66818 2.06646 1.55957 0.721948 -0.140895 0.302746
188 8.31897 2.84649 0.593767 0.991493 1.12665 1.70679
468 9.33225 2.30552 0.452527 -0.448285 -0.299524 0.185337
363 11.7641 5.85196 2.17344 1.00585 0.22554 -1.99924
371 10.4643 2.71583 0.312152 -0.978152 0.0987519 -2.01732
798 11.3134 1.73411 2.45256 0.782869 -0.063457 2.01443
494 0.304402 4.31535 1.30689 1.21715 -1.17024 -0.670268
844 11.9602 3.20645 0.477462 0.678421 0.542463 -0.701672
172 2.61016 0.204367 5.58628 0.272152 -0.784579 0.0698353
266 3.43982 4.79732 0.308473 0.226963 1.60883 -0.869187
305 4.54584 0.523625 2.6431 -0.821346 0.131999 0.845742
659 6.77458 3.97595 0.61579 -0.346784 0.0273987 -0.265024
109 7.8101 3.80411 0.974862 1.41022 1.61996 -0.317606
768 8.98249 3.59814 0.910151 -0.685046 -0.220159 0.551159
79 10.0568 3.89938 0.556176 -0.290986 -2.00011 0.585753
86 6.78734 5.86356 1.94048 -0.282402 -0.120325 0.360839
499 1.64229 5.85574 0.442403 -0.0816565 2.32182 0.845574
45 8.42207 1.7493 5.9116 -0.826256 -1.13377 0.691066
743 6.97495 2.54483 0.0367123 -0.985269 0.304477 0.989024
227 8.95078 0.159509 4.73504 0.552268 1.03521 1.81565
713 6.41583 5.09021 0.776702 0.817216 0.231897 0.129377
655 9.00942 4.81433 0.815962 -0.400504 -0.383549 2.19506
187 9.58972 5.6107 0.455706 -0.851617 1.04838 -1.19801
402 10.4907 4.87052 0.645246 -0.463483 -0.990895 -2.28603
578 11.4383 5.98942 5.25481 -0.288197 -1.71774 0.714739
750 11.9859 2.39656 1.39122 -0.386858 0.516115 -0.369602
262 0.740845 0.866308 1.9534 1.01514 1.19123 -0.292348
771 0.112683 0.873164 2.8782 0.327874 0.897842 -0.504349
298 0.932065 1.92142 1.58543 -0.719672 -0.175638 -2.60501
640 11.6537 5.51293 3.98082 -0.352377 -1.62746 0.428032
147 1.84752 1.36488 1.79095 -1.16948 -0.373848 -0.924653
859 8.56647 3.96763 0.0774412 0.34976 0.621073 -0.617166
429 6.79194 0.27637 1.54943 -0.446292 -0.196248 -1.02796
684 7.84818 0.393524 0.909236 -1.43217 -0.498123 0.10531
105 8.01856 0.0361552 2.33821 -0.427878 -0.949669 1.13171
528 10.1397 0.326142 1.51157 -0.189382 0.60505 -1.32358
571 11.9178 1.05024 1.27352 -2.55584 0.595576 0.0810014
399 0.800699 3.26229 1.31446 -0.655425 0.432916 -0.0388267
157 1.15768 3.23881 3.13669 -0.529517 0.0856878 0.779958
634 2.0662 1.03227 0.719996 2.05844 -0.811933 -1.6824
327 7.47155 3.44076 2.72287 -0.631222 0.878913 1.89952
492 7.04698 2.50416 1.05529 -1.10689 0.57832 -0.404581
700 10.0034 1.89974 2.9775 0.502728 -0.365933 3.39681
401 9.51742 3.68222 2.3991 -1.10334 0.291074 0.238113
628 0.482972 2.0549 4.49027 2.23163 -0.588451 2.58558
53 11.4191 3.32572 1.29493 0.438261 1.15255 -0.054496
840 11.8938 5.23626 0.829797 -0.61206 -2.06728 0.663578
793 2.67685 2.88209 3.21817 -0.694923 -0.473409 0.339055
508 2.19427 4.76537 0.736052 0.874451 0.0142695 -0.82939
35 3.67168 4.21579 2.14469 1.80858 -0.668672 -0.794812
103 2.55783 3.60438 2.17107 -1.45374 -0.389887 0.960295
341 5.34375 5.32355 1.36049 0.111057 0.884913 -0.925067
537 5.05621 4.6211 2.28219 -0.202048 0.733537 1.13864
808 7.91279 4.65259 2.66592 0.929806 -0.765931 -1.09862
562 8.42073 4.37746 1.76898 -0.023646 0.116835 -0.239066
306 8.10989 2.91742 1.80107 0.980309 -1.49114 0.554959
193 7.99963 3.90311 3.59617 1.12883 0.529088 -0.368012
615 10.4575 4.19015 2.14074 0.32955 0.544017 -0.421175
663 0.0396354 5.18657 2.8929 -0.00870694 -0.485847 0.549311
127 2.99404 4.49061 1.30609 -0.185965 -0.646652 -1.66205
312 2.15969 5.0252 2.17755 1.15704 -0.271757 -0.0484729
620 4.02705 5.41582 1.92677 -0.601049 -0.65138 -1.14544
667 8.97396 0.326698 2.04053 1.31175 0.609149 0.934007
299 6.43873 4.70811 2.35086 -0.723614 -1.26591 1.01932
199 6.67032 0.616831 2.83214 1.17353 2.39367 0.0319581
129 8.60794 5.60417 1.69146 0.731499 -0.0820928 -1.14125
18 9.72502 4.22214 1.43483 -0.615291 1.22073 0.256317
437 0.599315 5.98249 0.107756 -0.289092 1.77932 0.276417
343 10.5735 5.18582 3.4321 -0.979184 -0.922372 0.062529
120 11.1685 5.04957 1.60597 0.0922396 0.114116 -0.613912
787 10.4238 5.69961 1.79067 -1.90178 0.989964 0.644563
354 1.85216 0.638753 3.17535 -0.71721 0.646287 -0.184761
611 2.94998 5.91118 1.8699 0.378534 -0.0135309 -1.17245
651 3.18176 0.804444 3.27976 -0.270901 0.692138 0.973932
231 4.1911 0.587175 3.59819 -1.73225 -2.48175 -2.15435
810 1.96877 2.38738 5.66814 -0.263195 -0.395655 -0.283047
590 7.17585 0.375694 4.15501 0.706724 -0.0581569 -1.56791
464 7.50829 1.64299 3.91164 -0.77541 2.03169 -0.115662
110 7.86313 0.832188 3.29414 -1.46374 0.269409 -0.346755
758 5.6634 0.228987 1.69058 0.29979 0.74321 -0.207239
558 10.0607 0.338373 5.16775 0.238417 -1.23091 1.24735
190 11.847 0.64977 5.32655 -0.280488 -2.11832 1.33963
72 2.13951 1.89316 3.01062 0.271207 -0.412566 -0.548678
724 3.30419 3.26109 4.48122 -0.625244 0.605892 1.19044
353 3.99547 1.57918 5.19719 0.147326 -1.17654 0.719597
224 6.94313 3.51763 3.62441 0.185035 0.671333 0.250433
638 6.54317 1.51088 4.0892 -0.794376 0.213798 -0.556157
522 8.91653 2.39686 2.57415 -0.331043 0.177362 -1.68142
685 7.86143 2.28068 3.05003 -2.07486 -0.850351 -2.16099
536 6.82182 2.36683 3.20177 -0.23662 -0.999306 -0.96666
19 9.14827 1.90186 3.4969 -1.78468 0.685917 -1.20157
367 10.6662 2.79554 3.39511 1.18736 0.608795 -0.707297
144 9.86419 2.7261 4.02939 -0.430734 0.442534 -1.55792
652 11.3364 3.10416 4.32918 0.946719 0.539113 0.40115
320 0.230528 3.93519 3.12636 -0.357013 -0.114887 0.272867
198 0.207444 4.45516 4.47758 0.463455 -0.373375 1.39235
573 1.30865 2.28241 3.67088 -0.805316 0.63486 -0.111292
540 2.07917 3.97501 3.24033 0.69119 0.20057 -0.428519
285 3.2102 3.9914 3.44334 0.0983563 1.01283 1.4747
295 3.08065 1.70694 4.58739 1.3725 -1.08464 -0.350038
160 3.96048 3.74806 5.32087 0.0952926 1.07905 -0.568784
259 5.25717 5.14123 5.35261 -0.744151 -0.749433 0.053367
331 7.05023 4.59561 3.75638 -0.0168382 0.277131 1.40681
175 7.98786 2.56595 4.32423 0.760359 -1.46284 -0.751241
477 8.55557 3.0047 3.65946 0.633657 0.659464 1.28273
596 10.1567 3.85228 3.92533 0.101174 -1.80727 -0.114628
80 11.2771 3.05994 2.4908 -0.608015 -0.649555 -0.260593
196 0.961314 5.13662 3.50149 0.644314 -1.7143 0.266789
694 1.58211 5.02947 4.45806 -0.920589 0.872746 0.403462
516 3.62287 5.22053 3.70933 -0.390154 -0.915556 0.107575
58 4.76751 5.34494 4.19101 -1.3679 0.0450462 0.910181
730 7.0574 5.79716 3.39484 0.839091 1.33244 0.289988
54 5.89139 5.12428 3.29966 -0.0723072 0.293705 -1.52641
697 7.69227 5.25 4.41087 -0.214716 -0.287511 1.6451
583 8.15721 5.28674 3.51004 1.30112 0.393418 0.52424
691 8.63357 3.84119 4.50156 -0.0379007 -0.722045 0.429846
527 9.56432 4.8439 2.24785 -0.572359 0.298148 -1.58703
137 9.96746 4.92342 4.34566 0.355279 -1.24777 0.450056
254 9.23548 5.35166 3.23483 0.775504 0.305911 -0.575088
51 11.0843 5.01695 4.68875 0.068235 0.364017 -0.742257
114 11.3686 4.38586 2.66216 0.391775 -0.118299 -0.246743
90 3.16208 4.78214 2.85021 1.18206 -0.326001 0.289365
382 3.06455 5.78651 5.95051 1.70846 0.446991 -0.437767
517 10.7991 0.927929 4.4744 -1.52224 -1.7957 -1.56588
346 2.49315 1.62076 5.4003 0.0926274 1.08009 0.0747527
84 3.42386 0.811739 4.77294 1.241 -1.05271 0.167152
466 7.85421 4.82363 0.566193 0.224683 -0.789397 1.70185
300 6.21989 1.01115 5.51007 -0.0249585 -0.338527 -0.787888
76 11.9944 0.178739 1.87339 0.718757 0.442506 0.513411
99 1.64695 0.842117 5.27494 1.86858 -1.15237 0.287226
705 7.58239 0.692014 5.07156 -0.574779 0.127273 -0.693082
71 10.9653 0.733425 0.111576 -0.102293 0.150729 -0.964658
272 1.03743 2.61442 5.2894 0.240756 -0.500826 -0.774618
297 1.44986 1.77993 4.70828 -1.52307 -0.0984276 0.485283
247 2.06356 1.09218 4.17803 -1.58844 0.0875553 -1.00063
418 2.99482 2.84084 5.33468 0.384815 1.71616 -0.260002
692 4.35647 0.688141 5.34594 -0.960232 1.19289 0.17827
387 1.98513 5.77124 3.48025 0.574698 -0.0946437 -1.35655
43 5.18524 2.22593 5.65109 0.442051 0.46674 1.72059
280 6.94724 2.53005 4.36766 0.954802 -1.28208 -0.760832
789 0.089459 0.259538 0.57013 -0.719636 1.07896 0.21616
42 7.05132 1.56916 5.16825 -1.31473 0.331092 0.363783
579 8.51827 1.62286 4.63071 -0.489885 -1.08039 0.0700143
26 9.75879 2.80929 5.86465 0.894593 -0.424339 0.390204
314 10.3032 1.44888 5.53751 1.09284 -0.640016 0.0142031
225 10.666 1.95097 4.41566 -0.273907 0.95123 -0.467382
707 11.4064 3.9802 5.31501 -0.853689 0.414888 -1.35874
726 1.7334 0.101857 1.48977 -1.24428 1.22579 -0.441926
593 10.9665 2.20399 5.87317 1.28661 -0.897362 1.07204
307 2.31792 3.23131 4.30489 0.718959 -1.37293 -1.1525
117 0.478486 3.38607 3.93957 0.805939 0.0612223 -1.15894
380 3.51483 4.53165 4.72313 1.4459 0.23437 -0.913574
239 0.711198 5.93839 1.50251 -0.0752238 -0.0835043 0.335982
261 0.29294 4.85701 5.91821 0.311487 1.80992 -0.418669
265 5.33043 3.40895 5.27517 -0.480562 0.698271 -0.151406
78 7.59709 2.98561 5.2944 1.26644 1.69815 2.91699
168 7.27586 3.58296 4.55078 -2.11302 -0.0441431 0.841287
213 8.71802 3.16638 5.32841 -0.613059 0.164297 -2.42271
785 7.4796 4.07165 5.50145 -0.0820982 -0.262248 0.92616
195 4.51658 4.85237 0.957324 0.124378 -0.812085 3.06029
255 10.4734 3.06941 5.07364 0.748545 -0.324874 0.0828084
276 9.29823 4.11926 5.47621 0.737439 0.0218739 1.34742
64 11.3115 4.11405 4.04854 -1.16569 0.574504 -0.222534
576 0.426185 5.46642 4.94824 1.61263 0.881168 0.388539
834 2.17479 5.35273 5.38953 0.391042 -0.754755 0.795783
119 2.49657 5.65734 4.44311 -0.650956 -2.22201 -0.405948
506 4.45176 3.90313 4.31163 0.0555493 -1.40785 -0.193142
321 3.83501 5.54965 4.88217 1.22131 -0.219793 -1.17551
316 7.76442 5.07577 5.66264 -0.38783 0.769251 -0.430328
622 10.9838 0.524839 5.78361 -1.257 0.982338 -1.36827
28 9.0301 5.05826 4.85504 0.804189 1.62795 1.18241
425 9.82619 4.99398 5.62737 1.21468 -0.734423 0.331427
87 10.2964 4.0975 4.97957 -1.11276 0.590898 0.658363
311 10.8337 4.72738 5.94116 -2.90255 -1.34481 0.615546
12 9.0532 0.876204 4.05057 0.541827 1.05969 -1.3176
430 1.33953 4.80108 5.98057 -1.30072 -0.253588 -0.383182
742 7.81474 5.97108 2.54847 1.26829 -0.378453 1.03985
500 9.94282 0.17751 2.69573 1.30788 1.82391 -0.781685
104 10.3797 3.62323 5.9946 -0.491623 1.77741 -1.26578
390 4.00873 5.02574 5.9961 -1.07804 -1.75758 -1.30278
370 0.863825 1.10757 6.29896 -0.242476 -1.42706 -0.451372
467 1.91421 0.978027 6.56802 -1.9423 0.890237 -0.355192
386 2.56049 1.47174 7.46028 0.665501 1.38855 0.800635
246 2.58911 0.526879 7.67349 -0.795446 1.9053 0.78487
324 4.67597 3.2958 6.10231 -0.257505 1.30103 -0.178314
145 3.57976 0.667401 7.32793 1.53089 0.295518 -0.516016
660 3.53864 0.196293 6.21898 0.970008 -0.177718 0.530652
283 5.60216 0.237987 7.23415 0.389139 -0.304113 -0.302701
264 5.79824 1.63269 7.71302 0.504145 0.426627 0.165711
210 4.74708 1.16972 7.04462 -0.547408 0.495063 -0.548046
68 11.9309 1.32691 11.4737 0.107088 0.884162 -0.663492
406 6.76338 1.09108 7.59545 -1.11334 0.778304 0.696488
107 5.86712 5.29406 11.8813 0.663662 1.56722 -0.315199
432 6.41084 1.09148 6.56819 -1.10841 0.255009 -0.103779
186 7.46704 1.07657 6.01401 0.553904 -0.0383019 -0.689115
605 11.0429 5.46766 11.8113 -0.188824 -0.505132 -0.500825
599 8.12166 1.12144 7.26524 -0.332481 0.0986643 0.543076
799 9.49555 1.13242 6.82829 1.36946 1.42919 1.05847
369 6.90807 4.75196 11.7618 0.594491 -0.266336 0.274448
3 11.8794 0.560954 7.06073 -2.07242 -0.700846 -0.881997
95 1.52159 2.52052 7.68857 0.63247 -0.627226 -0.27663
278 0.9324 2.67215 6.65602 0.732825 2.12002 -0.501058
552 9.40495 0.0906847 6.89374 -0.286568 -0.0229293 -0.535383
250 3.77513 2.19943 8.01873 -0.464191 -0.865834 2.37493
296 3.02143 1.75685 6.38813 0.27539 0.667826 -1.58384
215 4.44636 2.09259 6.47703 -0.830153 -1.46797 -0.0859776
108 4.56268 3.17855 7.21831 0.1021 0.78223 -1.19318
395 7.84372 2.83229 6.4508 2.19382 1.12615 -1.31536
338 8.66082 2.3205 7.60679 1.90559 1.81764 0.706701
756 9.2892 2.41269 6.68918 0.314273 -1.87362 0.558474
530 8.75602 5.08774 10.7512 0.715893 -1.51196 0.853648
240 0.266412 1.99095 7.27881 -0.451488 -1.044 0.0742703
41 0.64499 0.422358 11.6629 -1.6998 1.96488 -1.25517
741 1.73631 3.46443 7.06998 -0.793026 -0.548026 0.396906
811 3.4277 3.66006 6.2932 -1.4023 0.0815396 2.60372
565 6.65494 3.88654 7.00924 -0.255115 2.10625 0.26908
465 7.11144 5.87101 11.6534 -1.8539 -0.8752 0.509088
769 9.06668 3.53576 6.39098 0.0487921 0.0254141 1.17474
200 8.05334 4.07225 6.46672 -0.191027 -0.184648 -1.08647
174 11.6053 5.9942 6.48874 -0.0315393 -0.600067 0.645793
13 11.5427 2.74282 6.66335 0.625544 -0.0604939 -0.703194
365 11.6103 4.2518 6.44713 2.20574 0.0655782 0.563709
25 11.8577 4.11173 7.80735 -2.30133 0.426439 0.656074
480 6.50981 5.44788 9.98998 -1.17523 -0.926264 -0.46204
20 0.578421 5.33474 7.30839 -0.724388 0.305939 -0.0435806
435 8.87467 0.174196 9.02037 -0.501144 2.91966 0.98413
770 3.63422 4.14714 10.9337 0.574934 -0.230949 -0.715517
229 3.72452 5.25538 10.8044 1.75653 0.866955 0.338284
679 4.33815 4.22065 7.04878 -0.644372 -1.36851 0.748534
325 11.5826 0.798534 8.27983 1.36831 -0.206992 -0.654269
273 8.76319 5.28671 6.07187 -1.78646 -1.87414 0.272826
610 0.652861 0.184492 8.39997 0.284352 0.13879 -0.37481
833 0.845434 2.51404 8.64823 -0.584959 1.83735 0.621598
57 1.40713 0.563064 7.33044 1.41076 0.602971 -0.22875
139 6.86115 0.0306603 6.93736 -1.36443 -0.177735 1.62152
760 0.75903 3.69297 11.9518 1.03534 0.847356 -1.7047
366 4.40389 1.11888 8.15029 -0.484955 -0.483604 0.399944
515 7.83328 0.377663 8.26511 0.860481 1.87953 0.431392
616 9.47015 1.06223 7.95706 -1.43282 1.44498 -0.560262
821 8.25103 1.63967 8.3647 -0.886052 -0.831596 1.56132
632 11.588 2.04967 8.29796 0.174939 0.162166 -0.364289
345 0.18569 2.86391 9.44473 -1.03269 0.261545 1.16493
830 2.26556 0.882229 8.67121 -0.213414 -1.81491 0.833077
539 3.26059 1.96078 8.76987 -0.821293 -1.21498 0.409183
122 5.24047 2.75671 8.20113 -1.26716 1.29772 0.515385
783 7.44337 4.43655 7.70789 0.701284 0.771665 -1.23422
701 6.27227 2.44313 8.14298 -0.275861 -1.20042 0.294872
328 7.22289 2.52503 7.49867 0.161304 0.860235 -1.01728
682 10.0471 2.25991 7.68769 0.140321 1.59793 0.531324
66 10.1428 1.62704 8.63396 1.07213 0.393617 0.0413521
780 11.4238 3.03366 7.67482 -0.344607 1.86103 0.370452
568 10.5172 2.66247 8.62116 -0.0400861 -0.140686 0.602481
818 0.499061 3.22246 7.54023 0.00890543 -0.343902 -1.56134
858 3.0671 2.86328 7.37675 0.14935 -1.25046 0.188673
457 4.18043 3.243 8.24089 -0.397844 -0.499155 0.630909
15 3.22251 4.06883 8.0563 -0.759098 -0.476359 -0.174949
802 5.86103 3.26543 9.08289 1.0988 1.18448 0.665045
302 5.03859 3.77225 7.92641 0.374224 -0.475709 -0.133844
142 6.46951 4.9177 7.71632 -0.241115 0.659513 1.4707
481 6.12621 4.30086 8.6596 -0.70812 0.438941 0.529528
347 10.8288 4.49876 9.40317 0.126442 0.969844 0.941517
159 0.595368 5.31044 8.43538 0.757411 0.754551 0.355042
269 2.87546 4.77381 7.23967 0.391605 -0.600282 -1.21873
519 2.83885 5.62369 8.35093 1.5598 -1.66353 -0.441058
825 2.42175 4.53553 8.72759 -0.141159 -1.06202 -0.367266
719 3.69256 4.92646 9.08751 -0.211385 -1.27363 0.2724
121 5.46021 5.27159 7.84676 -1.17622 0.900598 -0.961235
698 6.24003 5.84221 7.27154 1.5222 0.370684 -1.47523
171 6.46285 5.52365 8.71823 0.14796 0.616177 -0.151711
860 8.42678 4.71618 8.28211 -0.126912 0.339383 -0.128341
182 8.16588 5.65079 7.37821 0.851707 -0.985622 -1.54143
281 8.45668 5.79075 8.72668 1.15122 0.20098 -0.291203
355 7.73891 4.63221 10.382 0.271629 -0.124361 -0.641238
806 10.3375 4.99419 7.99262 0.15262 -0.609917 0.153457
31 10.7876 5.65515 7.35083 -0.866073 -1.75965 -2.17069
850 11.4674 5.06387 8.33744 1.65148 0.642172 -1.0763
509 9.45723 5.57312 8.19632 0.429451 -1.37779 -0.284334
308 0.308534 0.620509 9.31342 -0.551995 -0.126954 0.301179
167 4.20648 0.200978 8.60906 2.63941 0.962875 -1.12343
699 1.68939 5.71128 8.48956 0.588983 -0.870178 -1.53729
797 5.62882 0.490354 10.243 -1.66958 0.109996 -0.563269
721 5.86629 0.59584 8.67758 -0.358489 0.555778 -0.428035
824 6.6806 0.60445 9.62159 -1.464 -0.573433 -1.37913
754 7.93841 0.732111 10.0651 0.790092 0.460439 1.52916
845 4.5001 0.78431 10.0495 -0.357412 0.0947387 1.1335
619 8.96751 0.542118 10.3159 0.048571 -1.56392 2.00286
618 4.49082 2.41948 9.00602 0.774126 1.00134 -1.6883
150 7.58854 1.89627 10.8686 -1.35846 -1.0414 0.341282
826 8.64383 3.58659 9.88588 0.575662 1.35948 -0.705057
586 9.85229 1.28751 9.67195 1.77231 -0.851125 0.122202
404 9.56933 2.85789 10.0667 -1.04477 0.148328 0.251908
612 10.8464 2.72337 9.75385 0.839302 -0.0968716 -1.28859
518 11.1438 1.4519 9.02889 -0.182639 0.86528 1.20325
30 1.93012 4.89062 9.83461 1.42664 0.923832 -0.35384
635 3.37394 3.63584 9.04236 -0.502872 -0.518915 0.687957
852 9.04633 2.10737 9.10611 -0.583617 0.193858 -1.63385
728 7.41251 3.60062 10.0979 -0.534895 -1.25755 -2.12094
557 7.41043 5.32685 8.23339 -1.14066 1.02875 -0.147101
258 8.7334 3.60444 8.81237 -0.89777 -0.597784 -0.746973
600 10.0005 3.40255 9.16352 -0.0842394 1.33997 -0.804936
731 9.77151 4.41916 9.503 -0.201475 0.258689 -0.00874929
234 0.348797 2.77212 10.7136 -0.265976 -1.7499 0.532611
677 10.951 2.50125 10.8411 0.854916 0.0294719 -0.0194185
791 10.217 3.41621 10.5706 -0.103062 0.0764621 -0.440032
152 0.962625 5.62273 9.65191 -0.886283 -0.885282 -0.0537163
472 2.67991 1.96456 11.9625 1.95055 -0.417504 0.0208438
747 2.47397 5.64601 10.6389 0.17135 -0.961516 -0.847811
459 3.30352 5.73337 9.9257 0.516144 -0.475946 0.170645
242 4.28388 4.65285 8.11123 -1.45471 -0.151961 -1.76248
828 5.46068 4.90125 9.14361 -0.245974 -0.357528 -1.42784
292 9.61717 4.50608 6.75688 -0.805845 0.360609 2.13595
849 6.51975 3.93322 9.78263 -1.0846 -0.986578 -0.146477
116 8.57028 4.64522 9.37792 1.42684 -0.539378 0.468658
838 7.48058 4.96344 9.42074 -0.133164 -2.0926 0.0481148
154 10.1543 5.29112 10.0738 -0.149181 0.140299 -1.87074
716 10.5805 5.6523 8.75252 0.308668 -1.14876 -0.84114
237 9.58605 5.40704 9.24179 0.863405 -1.14751 2.01403
313 7.98257 5.80072 10.8358 0.925315 -0.755003 -1.4622
613 1.31618 0.562359 10.7402 1.8281 -0.944909 -2.22317
412 1.43919 1.12847 11.7066 1.37282 -0.648563 -0.299857
588 0.713689 1.69392 10.876 1.07187 1.73098 -1.30459
491 8.96239 0.0848189 11.4635 1.26537 -1.66508 0.228316
441 1.14775 4.86425 11.3293 0.52023 -0.245753 -3.27446
125 4.9924 5.19636 10.4067 -0.278055 -0.140055 -2.67321
245 6.2759 0.92321 11.568 -0.594149 -0.235938 -0.159144
427 5.83363 2.17805 11.5919 -0.00807335 1.26862 1.3091
696 7.58236 0.509062 11.0517 1.3417 0.692676 -0.111117
738 8.47814 1.19745 11.0287 -0.633936 1.51556 -1.59611
512 8.61248 1.79215 11.9301 1.13367 -0.0516391 0.298304
843 10.9584 1.12173 11.0584 -0.12113 -1.11893 0.301444
326 4.69671 0.115423 11.0564 -1.02405 0.963826 0.18403
816 11.9272 0.951785 10.4572 -1.94952 -0.555814 0.297297
94 9.59828 0.857262 11.0692 -0.887935 0.664837 -1.88601
748 11.718 5.51191 9.27551 2.11764 0.717327 -0.482735
169 4.70798 2.06817 10.9379 -0.820499 0.944503 -0.612937
70 7.59229 3.48381 11.9611 0.621615 1.97119 1.03539
490 10.1537 2.2541 11.3189 0.118943 0.150661 -1.27046
812 8.38063 2.63426 11.2743 -0.101071 0.467991 0.110204
483 8.2996 5.95614 9.77199 0.251627 -0.221959 0.190796
282 9.24892 1.86913 10.6976 0.755059 0.669035 -0.321533
853 0.119206 2.46914 11.6999 0.220971 -0.37659 1.23521
815 11.6505 2.04521 9.97326 -1.53254 0.0157596 1.62966
202 10.609 1.73664 10.1728 0.229638 0.165457 -1.70721
131 10.1686 3.51481 11.5643 -0.399327 -0.925418 0.223727
782 2.02411 2.92548 11.2097 -1.11409 -1.79804 1.42773
848 4.77132 3.51548 9.51468 0.989606 -0.13133 -2.91518
687 6.27878 4.81864 10.7507 -1.5669 1.2435 -0.843029
183 5.63416 2.45402 6.58194 0.182159 -0.468375 1.26324
102 8.14971 3.83184 10.9937 -1.00955 0.190039 1.01837
405 9.26815 3.87687 10.8635 -0.256243 0.478937 0.423946
251 9.25306 3.22345 11.8933 1.9461 1.16024 0.234456
88 11.717 3.54431 11.5124 -1.42299 0.0161545 0.445995
132 6.98497 2.0224 6.27295 -0.512632 1.72462 0.948436
392 9.84137 0.054044 8.26275 0.70326 0.545687 -0.112793
740 2.78066 4.51705 10.5512 -1.34336 -1.23773 -1.45747
735 2.31958 5.78259 9.36019 0.910031 -0.355037 0.802861
393 4.78058 1.23909 11.4872 -0.868969 -0.30332 1.04473
376 5.66993 3.9176 6.58122 2.18924 -0.846254 0.373802
348 4.70514 0.24313 6.39468 -0.489763 0.437925 -0.27967
549 7.33247 0.349643 11.9923 0.230067 1.06957 -0.399435
177 0.22339 1.92644 6.00195 0.081255 1.22878 1.42473
762 0.541038 7.83165 0.503587 1.10949 -0.736203 -1.19296
135 11.6461 6.23858 0.732178 -0.881639 0.466641 -0.150852
2 5.16147 11.8699 5.34877 0.139292 -0.680229 1.20677
704 1.28562 6.82101 0.577188 0.177887 1.7768 1.79807
209 10.1574 7.54587 0.271558 0.163737 0.407689 1.08263
746 3.69499 7.23654 0.680093 0.383734 0.338044 0.650529
581 5.56386 7.37003 0.660892 -1.40195 -1.1757 -0.326773
232 8.03482 6.19474 5.63834 0.606939 -0.183287 -0.507167
97 10.6328 11.2476 5.18121 1.0795 -1.4525 -0.172676
317 6.96157 6.74242 1.26282 -1.4239 -0.228626 0.195085
654 7.94065 7.63565 1.30983 -0.351474 -0.26215 1.44888
158 7.65476 6.07228 0.64456 0.416003 -1.75747 0.760129
533 0.382197 10.1347 0.212687 -1.63812 -0.18837 0.197193
510 9.25319 6.8378 0.514426 0.652078 1.61882 1.55782
625 0.994617 11.6883 4.30113 1.27422 -1.81598 1.06981
126 0.85606 11.7762 5.51581 1.12635 0.501779 0.265073
542 4.95521 11.932 0.798132 -0.207593 0.428178 -0.140292
710 2.07749 7.84755 0.549165 -1.29115 0.10715 -0.0340764
170 2.16111 8.30844 1.82561 0.734315 -0.666967 1.751
777 4.48006 8.30829 1.32812 0.0333421 -0.0245482 0.799431
736 5.16211 8.57196 0.621369 0.522623 0.582869 0.92888
93 5.88901 8.14191 1.39432 -1.17396 1.24489 0.403506
189 6.22855 8.30509 0.395758 0.488785 -0.335306 0.517026
497 6.66661 9.27548 0.362299 0.398147 0.614042 0.32769
817 7.20308 8.33227 0.896089 -0.445038 -0.404775 -1.38805
289 8.84757 8.4889 1.86168 -0.266377 -0.990817 0.769672
709 7.96183 11.7914 5.09548 0.179686 -0.305544 0.136309
631 0.370561 6.22425 5.78035 1.2335 1.19103 -0.648284
451 4.33109 7.86934 0.136183 -0.0782387 -0.534299 -0.288761
411 11.8302 9.71317 1.01826 -1.58646 -1.54861 0.497206
173 0.810973 10.1554 1.21236 0.50841 1.2349 1.17419
253 1.56943 9.82036 0.482677 0.27595 0.124237 -0.0147134
52 3.52926 9.1777 1.75616 0.589228 -0.483255 -0.138422
445 3.1895 10.1764 1.09793 0.334989 -1.16159 0.512551
695 4.26823 8.65557 2.43398 1.21668 -1.28908 0.0621895
16 3.29797 9.49383 0.266606 0.554988 -1.90362 -1.52826
753 6.58446 9.18191 1.6431 0.741939 0.179771 1.46813
585 4.25996 9.29568 0.70948 -0.267768 -0.5519 -0.190523
192 5.2046 9.79491 1.34324 -0.351088 -0.116066 1.47556
40 7.38426 11.8389 3.27742 -1.06441 -0.613108 -0.502311
496 7.20133 9.85807 1.02042 1.29403 0.490757 0.47833
493 6.0675 10.2758 0.882941 -0.0939655 0.900905 0.938402
226 8.35966 6.07458 4.30855 -0.0748187 -1.31594 0.332606
361 8.09032 8.95306 1.23692 0.139698 1.55958 1.27764
23 9.352 9.55511 1.8844 -1.2906 -0.716331 1.31734
862 9.73279 9.67696 0.880165 -1.11985 -1.32001 1.93338
839 8.76717 9.27907 0.187901 -0.276229 -1.92321 0.677769
674 10.8905 9.16106 0.529481 -0.448306 -2.97375 -0.637123
205 10.6683 9.95634 1.28482 -2.04909 -0.666498 0.131268
774 11.9317 10.921 1.74264 1.53985 0.843726 1.75727
228 2.58582 10.3397 0.14598 1.71124 1.16325 -0.676618
478 5.48411 9.60436 0.104678 -1.30558 0.368421 -0.747473
847 6.48126 7.08145 0.376268 2.65051 1.40629 0.480928
351 4.09594 9.99652 1.56593 0.067467 -0.795258 0.576476
373 3.8078 11.6487 0.574623 -1.52137 0.233411 -1.04784
415 2.81304 11.0771 0.788943 -0.228086 1.2957 -0.639707
409 4.6967 6.08023 2.40127 -1.82133 1.13985 -0.0731855
461 4.80442 11.0296 1.28584 1.08276 -0.77885 2.04809
829 10.0109 8.866 5.52519 0.0124799 0.531414 0.356515
279 8.30975 9.98903 0.782823 0.298009 -0.331846 1.25868
668 8.61145 11.794 0.66928 -0.610703 1.15192 0.514376
8 9.84536 11.1269 1.39278 -2.98667 -1.51369 0.229332
291 3.96879 8.89885 5.99416 0.934071 -1.08834 0.536282
664 10.8182 11.1349 0.947685 1.45957 -2.09012 -0.502256
504 1.27308 7.63116 2.02306 0.0790354 -0.352797 -0.996254
62 2.8819 7.51479 2.11061 -0.220375 -1.17118 0.12517
413 4.02495 7.12537 1.70068 0.749411 0.493694 0.0197378
315 2.81832 7.8407 3.29116 -0.284791 0.529773 -0.658804
582 5.01986 7.24228 1.79147 -1.16111 0.120078 -0.83447
400 11.7529 7.16468 0.0456073 0.324153 -0.511859 0.369887
637 2.59882 8.05671 5.72722 -2.29185 -1.64602 -1.39962
666 6.3514 7.05049 2.10338 0.848476 -1.36504 -0.950856
744 7.63753 7.01336 2.13939 0.0255269 -0.464991 1.51453
764 8.64838 6.70184 1.33972 0.839006 1.3303 -1.28596
334 8.84809 6.83493 2.47077 0.138776 0.103934 0.204787
153 10.2922 6.34691 0.839731 -0.241015 -0.636874 -0.30238
360 9.52763 6.44273 4.14854 0.721488 0.889033 0.45719
681 10.8404 7.07838 1.75973 0.286956 0.85686 0.841784
252 0.416535 6.89408 2.22683 1.01137 -0.245606 -2.01054
627 0.758126 6.01928 2.86659 2.43829 -0.602254 -0.504731
7 7.48652 9.90033 5.52531 0.0339448 -0.0803281 -0.629437
609 1.48637 8.65997 1.1016 2.28374 0.504207 0.50252
717 1.31683 9.04016 2.32394 -1.38497 2.36816 0.790293
417 4.1012 8.18453 3.47163 -0.714181 -0.0708812 -0.337988
388 3.29622 8.03213 1.26813 0.585006 0.358381 -0.392182
678 3.23275 8.43844 2.48157 -2.38307 -2.11817 0.66063
438 7.45293 8.40553 2.14958 1.21756 0.242932 0.777741
547 8.23647 8.5532 2.93527 0.987972 0.559626 1.06852
130 9.53321 7.92845 2.60745 1.29866 -0.877751 -0.874766
203 9.34709 9.17117 2.91448 0.354906 0.238979 0.801653
733 9.77222 7.77622 1.23652 -0.514631 -0.759564 -1.73238
235 11.3412 7.76743 2.7098 2.23342 -0.0128629 -1.93043
257 11.3786 9.14527 2.93774 -2.07913 1.43081 0.146922
212 11.7642 8.5934 0.916609 -1.0429 0.676147 0.0715446
661 0.548681 8.90436 1.61597 1.14042 0.565601 -1.1386
767 0.253752 9.30897 3.59138 -0.0578666 -1.28929 -0.045417
525 1.31349 10.5286 3.49102 1.10211 0.560926 0.930169
270 1.74277 9.64316 1.50834 -1.32565 1.46327 -0.827767
836 1.9003 10.9287 1.31812 -0.411166 -0.20593 0.0947766
288 3.15553 10.3056 2.12782 0.427675 1.25844 0.947206
535 3.76435 9.56188 2.74172 0.207237 -0.113303 0.68814
688 5.73393 8.73957 2.61521 -0.417471 -0.643709 0.0534402
184 7.1213 9.55919 2.70093 1.52351 -0.0175175 -0.296723
814 8.18459 10.1461 2.22481 0.459226 0.34676 -0.338002
379 7.29836 10.6394 3.18637 1.26662 -1.05689 0.964287
357 10.1906 8.9693 1.5555 -1.57265 -0.578632 1.97194
138 10.4239 9.78796 2.55001 -0.537143 0.197708 0.933
592 11.6006 9.27826 1.96176 -0.248877 1.13571 -0.989005
823 11.3292 10.5321 3.08671 0.920796 0.0262273 -0.0449921
458 0.215357 10.949 3.48706 0.434166 0.0295356 1.65165
723 0.966265 11.3648 0.67904 1.35413 -0.86721 -0.764099
809 2.55609 11.4049 2.15656 0.186228 -0.0960342 -0.0974645
206 1.89098 10.4585 2.48925 -0.14362 -0.176716 -2.07374
77 0.969424 11.2521 1.998 -2.13446 0.0424142 -1.15573
734 3.55165 10.9908 1.55852 1.12506 0.763896 -1.80127
21 3.20725 10.3055 3.22797 -1.2167 -0.61857 1.33362
81 3.62739 11.8822 3.92472 -1.01995 -0.350828 -0.610816
520 5.73953 10.4836 2.35485 -0.0315177 -0.678472 -1.80918
156 4.10927 10.8708 2.69177 -0.740175 -0.0697461 0.237004
720 9.89638 8.5495 0.483655 0.287489 0.487099 -0.235919
543 0.872917 9.14727 0.280516 -1.59299 0.652422 0.00564898
856 6.41261 11.9306 0.485621 -1.86857 -0.972575 -0.461951
424 5.91161 11.2282 1.52043 0.488146 -1.62218 -0.142753
708 10.2985 10.0529 4.922 0.112323 -0.30708 -0.018534
397 8.16542 11.1719 2.72593 1.64584 -0.257083 -0.564374
352 11.0531 10.0068 5.96191 -0.00394938 -0.24228 -0.347857
98 10.0283 10.8596 3.14172 -0.541926 -1.02899 1.56126
532 11.0232 10.5133 2.0624 -1.33907 0.108219 -0.157697
523 0.777007 8.12542 4.57057 -1.55486 0.808076 1.45287
778 9.65428 11.775 0.265511 2.2338 0.80753 -0.629349
69 11.3225 11.3542 4.3193 0.606411 0.24437 -0.604205
59 3.68219 6.20462 2.62943 1.35351 -0.0605585 -0.808941
751 1.44744 7.88237 3.41883 -0.352031 1.76464 0.601467
61 4.17404 7.10418 3.21292 -0.192408 -0.4145 -1.45572
236 7.28326 10.9533 5.19128 0.652731 0.76041 1.22199
479 7.50485 6.62582 4.23949 -0.775372 0.162288 0.135365
436 10.464 6.46261 3.36288 -2.09205 0.191796 -0.800672
337 11.3682 6.57549 2.78847 0.0440342 0.397821 -1.41334
422 0.414679 8.11631 3.05883 -0.425219 0.823046 1.57161
861 11.7349 8.56587 4.16461 -1.6083 1.2203 0.792734
837 2.29856 7.66172 4.26283 0.182858 1.49435 -0.625985
630 3.05413 8.42953 4.35086 0.126804 1.29325 0.628442
349 4.12904 9.22331 3.77043 1.91299 1.06301 0.954716
106 8.57863 6.87194 3.55892 1.29638 -0.998506 0.732594
294 7.69951 7.49156 3.42776 2.00781 -1.04595 -0.0477379
794 6.53321 8.57297 4.46689 0.280497 -2.65802 -0.567144
163 7.5659 8.7302 3.6378 1.8362 -0.0658057 0.649038
800 9.09877 8.27264 3.49316 0.953817 0.695458 -0.892903
309 8.46305 8.86043 4.19449 0.560954 -1.24342 0.69599
804 10.3471 8.56845 3.93862 0.889117 0.947457 -1.05122
233 10.4829 8.56209 2.59596 0.440738 -1.05341 1.64596
647 0.827119 6.72375 3.77639 1.86393 -1.40156 1.84257
545 11.0193 9.46434 4.00357 -1.12545 0.189538 2.17435
24 1.12323 8.9467 4.04668 -1.24045 -0.713858 0.718477
91 11.8225 10.1745 4.1335 0.229093 -0.123561 2.04552
67 2.49059 9.20707 2.42274 2.12378 -0.888798 0.044163
513 3.08298 8.99655 3.44821 -3.18573 -1.39749 1.34518
329 2.98028 9.78684 4.17879 -1.96911 0.33454 -1.04823