ITEM: TIMESTEP
51540
ITEM: NUMBER OF ATOMS
864
ITEM: BOX BOUNDS pp pp pp
0.0000000000000000e+00 1.2000000000000000e+01
0.0000000000000000e+00 1.2000000000000000e+01
0.0000000000000000e+00 1.2000000000000000e+01
ITEM: ATOMS id x y z vx vy vz
745 1.61668 1.21816 0.876016 0.613036 1.27958 0.473147
538 2.51778 1.46287 1.27265 -0.0453499 -0.338287 -0.291981
450 2.74723 0.0837414 0.35102 0.777049 0.58008 -0.458939
173 4.79608 0.147113 0.209524 0.872139 -1.19323 -0.00584913
227 8.28712 1.44538 0.0129097 0.320675 0.456789 -1.46773
214 10.6214 0.28709 0.733974 0.355119 0.533881 0.255439
188 9.23675 1.08086 0.674628 -0.834109 -0.524245 -0.476526
410 9.83565 0.206981 0.083636 -0.702171 0.631246 -0.841809
509 9.00794 5.78638 5.94227 0.24038 -0.113893 -0.679012
202 10.4092 1.41132 0.515553 -0.244133 -0.974547 -0.139337
696 10.9208 1.08083 1.51777 -1.14484 0.611393 0.319598
479 4.47969 5.73244 5.1059 0.762173 0.98036 0.748122
522 0.241366 1.96173 2.05645 -0.977458 -1.1843 -0.84553
417 3.2855 1.47212 0.129406 1.80351 -0.189348 -0.412103
157 2.41334 2.07975 0.14974 0.204642 -1.19778 -0.0430146
114 1.38155 2.41046 0.677704 0.307072 -0.878877 -0.679888
849 2.50463 2.57313 1.36178 -0.046235 1.78268 0.96253
414 3.65218 2.97426 1.33147 -1.3508 0.396129 -3.5831
262 4.81581 2.25332 0.155164 0.253042 1.89979 -0.843596
670 7.65532 5.75968 5.82271 0.879723 -0.158245 0.385226
638 7.1298 1.21471 0.975335 1.25671 -2.22206 0.70482
712 8.85804 2.15117 0.430664 -0.00119057 -0.0741783 -1.42629
306 7.87557 2.14656 0.78141 1.1253 -0.34634 -0.813574
299 7.63489 4.72481 4.21521 1.52003 -1.35071 0.440742
171 3.48412 4.31992 5.03245 0.777244 -0.416168 -0.712975
29 0.107245 2.71161 0.603233 -1.74296 -1.12222 -0.624184
840 2.16352 3.28046 0.527448 -0.386333 -1.20619 0.463319
663 4.17303 4.30778 1.35861 -0.390283 -0.582661 0.565544
115 4.94653 3.95789 0.100578 0.47198 -2.21229 -0.447015
59 5.08352 3.95684 1.16674 1.67175 -0.842548 0.133044
542 5.31383 2.83461 1.47134 -0.483764 -0.0712867 0.747085
549 6.97818 3.50893 0.606564 -1.21083 -0.899222 2.27732
54 6.6101 3.03192 2.00286 -0.0270941 1.05025 0.856425
826 5.98649 3.61946 0.65325 -0.683365 1.66438 0.803125
369 6.94753 5.39221 0.314421 0.4259 2.04313 -1.13824
713 8.25693 3.00043 0.203044 0.551717 0.396003 0.648812
392 8.50335 0.729207 5.62689 0.529745 -0.858354 0.2874
604 3.18163 5.57492 5.78618 -1.49514 0.753761 -1.90624
137 8.805 3.32578 1.04626 -0.268212 1.46112 0.645737
822 9.73274 3.89957 0.976256 -2.21522 -0.436336 -1.2053
160 4.34496 3.92391 5.81158 -0.180138 0.810802 -0.106219
53 11.0744 4.02472 1.45396 -0.193946 0.232941 1.02353
790 5.64148 5.1729 4.8824 -0.0886481 -1.12729 2.52317
430 0.0631191 4.46836 1.3022 0.646388 -1.02783 -0.113137
499 0.935447 3.78579 1.02684 -0.157818 -2.01868 1.4558
741 0.727925 5.44785 1.49658 -2.29813 0.18543 -0.351666
371 9.95907 2.32962 0.0803086 0.382226 1.65531 0.432166
674 3.0362 4.55278 1.16966 0.994211 -1.01617 0.410017
448 1.58758 4.97379 0.414093 -0.863441 -0.286832 1.01438
474 3.68385 5.28795 1.46876 -1.28387 0.20669 0.505263
589 5.07298 5.88145 1.34021 -2.11553 -0.409012 -0.496104
618 4.71086 4.8998 0.61057 1.95572 1.43258 -0.0211299
801 5.84821 4.70008 1.23457 -0.253413 -0.195826 0.750673
107 7.60242 5.77363 0.948814 0.963783 -1.0941 -0.707811
102 5.95892 5.726 0.762203 -0.307852 -0.252605 0.0609461
775 8.41248 0.0781028 0.113027 -0.202957 -0.232224 0.15368
744 9.19266 4.92767 0.757901 -2.18691 -1.60026 -0.460659
15 11.7 4.59045 0.346209 0.728667 0.610282 -0.551106
494 10.1144 5.46114 0.67214 0.652945 -0.0509851 -0.0753256
72 0.438738 0.733654 2.39081 -1.02584 -0.639755 1.25954
11 1.58395 0.477122 2.14677 -0.0746473 -0.0653639 0.244764
570 4.93266 1.37436 0.835003 -0.151669 0.485555 0.300977
429 5.34976 1.7828 2.1805 -0.0366436 1.66843 -0.803829
535 4.12652 0.462284 1.50009 -1.7172 0.707674 -1.36459
236 4.15216 0.983307 3.15841 -0.97634 0.792394 -0.109453
199 5.20228 0.693022 1.54089 -1.02815 -0.75231 -2.59349
705 6.04 0.737117 2.20374 -0.969066 -1.61215 -0.52918
528 6.26386 0.272731 1.2338 -0.993843 0.485 -1.04667
590 7.15719 1.33924 2.16499 -1.15861 -0.169866 1.07519
650 8.2724 0.413559 2.83974 0.227371 0.696548 -0.303038
94 9.37869 0.724851 2.01874 -0.912748 -0.0660583 -0.150034
514 6.59278 4.46289 4.74644 -1.07188 -0.0528219 -0.244921
532 10.2467 0.275538 3.32534 2.00483 0.109643 1.22738
77 11.865 0.638586 1.11252 -0.207008 -0.0173583 -0.711763
550 11.5016 0.104006 3.3179 -1.10466 -2.15636 1.55609
629 10.7696 0.359495 2.34878 -0.842941 -0.565392 1.36789
750 2.69374 2.35037 2.49855 -1.54462 -0.35348 0.464173
99 3.57068 1.89448 1.22065 0.414767 0.620716 -0.164227
285 3.43679 2.97243 2.85392 0.918009 -0.744769 -1.11898
834 3.98841 2.12337 2.78343 0.59761 -0.499977 0.376558
415 4.29307 2.31822 1.78008 0.0733775 -0.00204495 -0.178938
368 5.79882 2.56595 2.75389 -0.0451846 -0.157682 0.346821
2 4.71673 2.95067 2.87059 0.505333 0.247385 1.00747
765 6.93834 2.48326 3.11071 0.0398829 1.29847 1.94909
224 6.46458 3.49573 3.00299 -0.35744 2.02161 -0.597136
12 8.92166 1.70964 2.51708 1.61962 0.0888411 0.660025
254 8.17533 2.47289 1.86223 0.281379 -0.76325 0.071336
402 9.50107 2.04714 1.69627 0.614249 -1.5334 0.758592
596 0.345729 2.61969 3.00518 0.758042 -0.8715 0.0240084
231 11.0295 1.65771 2.46838 -0.65889 -0.48684 0.344086
413 1.52696 3.839 2.59215 -1.12792 0.485688 0.547565
620 2.10663 3.58811 1.52484 -0.736912 1.01915 0.348862
858 2.48372 3.47674 2.5773 0.327433 0.063534 -0.108985
327 3.3598 3.74767 1.94673 -1.3018 -0.817025 1.39525
738 4.39834 3.35275 1.97418 -0.673238 0.615528 1.44348
611 5.55737 3.70333 2.24074 0.0521729 -1.44533 0.706279
427 4.09696 3.95432 2.81788 1.95974 0.821498 -1.07428
251 7.51164 3.70503 1.60925 0.748107 -1.58234 -0.474622
343 9.90523 4.15424 2.69004 1.51488 -0.312655 -0.237034
28 8.99298 4.75356 1.96929 -0.987987 0.421435 -0.190145
106 11.1999 4.98793 1.9233 -1.00531 0.876454 -0.607054
500 1.56775 5.48277 3.06199 -0.146584 0.774485 -0.949018
341 2.55799 4.66427 2.38605 -0.429921 1.91051 -0.62607
722 2.14952 5.66339 2.02174 1.00693 0.744428 0.0724022
606 3.92899 4.73638 2.24713 -0.151515 -0.141644 1.36954
434 5.47403 5.77936 2.8213 -0.863466 -0.361401 1.68401
119 5.41376 5.08846 2.11314 -1.28926 -1.24446 -0.822248
580 6.63593 5.70508 1.73469 1.58247 -1.36396 -1.02993
492 6.12975 4.90588 3.28635 0.480637 -0.562613 -0.530005
488 7.68585 4.94855 3.09195 0.446419 0.118924 0.634458
226 7.26425 4.94485 2.18887 -1.93511 -0.0526403 -1.99597
129 8.52619 5.6525 1.46448 1.11396 -1.3227 -1.24798
61 8.35434 5.23865 0.164197 1.15263 1.05088 -0.0448132
730 9.35359 5.81995 2.30666 -0.843216 0.825947 -0.909459
64 11.9221 5.86801 2.46569 2.33102 2.5454 -1.57957
40 6.32146 0.250696 3.62377 -0.700781 1.48319 -1.33642
602 1.96909 0.133779 1.23418 1.72917 0.863209 0.975021
798 0.126397 0.892786 3.49391 -1.35596 0.718578 -0.195913
367 1.01025 0.0883251 4.11828 -1.04306 0.565373 0.580357
387 2.02458 0.760596 4.64579 -1.67432 -0.748548 0.549458
272 1.45938 0.502482 3.13466 -1.08547 -1.09875 -1.95127
725 2.73917 0.137549 3.62324 -1.02994 -0.475636 1.04708
286 3.66295 1.21569 4.00938 0.0606864 -2.05821 0.0286958
79 10.8357 3.54985 0.22562 1.58219 0.0471757 0.280688
105 5.2667 0.90906 3.15254 -2.03609 0.378864 0.0670203
193 4.73257 1.36035 4.00242 -0.816168 0.00128553 0.189378
346 4.46279 0.50432 4.85078 0.689249 0.305876 0.37619
814 8.77242 0.275059 4.63871 0.401919 0.457749 -1.12863
156 9.19543 1.08662 3.35438 -0.587843 -1.09212 -0.590134
82 9.04193 1.54237 4.32122 0.284553 1.28706 -1.26914
653 9.97164 1.34641 3.88665 -0.320543 0.184392 0.820511
243 8.54142 5.37925 4.4787 0.477828 -0.865996 -0.169001
458 10.9856 1.06113 3.49247 -1.33844 1.2383 -1.12675
73 0.243419 0.774406 4.57167 1.67702 0.266099 -0.512694
571 1.02494 1.28396 3.94272 -0.853878 0.860917 0.198193
215 0.701001 1.61674 2.92252 -0.557761 -0.91105 0.817341
691 11.6475 2.01469 3.54811 -2.04959 -0.633608 0.258423
300 0.632535 2.30968 3.89949 -2.43662 -2.96603 -1.54332
726 1.72227 2.30344 3.32393 0.449006 -1.02504 -1.5898
198 2.28176 1.38933 3.58214 -0.142757 0.399466 0.294767
380 3.15477 1.89168 3.52084 -0.475192 -0.572229 1.96953
617 5.1723 1.98266 3.35656 -1.45492 0.158947 0.237356
168 4.74312 2.55645 4.49001 -0.29229 -0.668252 0.703832
280 6.41137 1.51451 3.64632 -1.17469 -0.443355 -1.69
740 6.14855 2.68185 3.77402 -0.133916 1.20128 -0.550664
749 8.09137 2.71717 3.68383 1.1924 0.723829 0.363161
579 9.51631 2.22217 3.37674 -0.979649 0.780621 -1.19167
685 10.1409 1.16161 2.60236 1.07952 0.0805613 -2.01137
354 9.6378 3.00587 2.58006 1.05015 0.47044 -0.812253
110 10.4972 2.22437 3.64587 1.51604 0.548181 -0.584301
320 11.701 3.16354 3.59379 -0.643246 0.692209 -0.556224
630 1.05931 3.20814 3.37264 -0.255774 -0.947466 -0.462956
311 0.522801 3.86162 4.68125 0.0946397 -0.278752 -0.363095
437 1.18199 4.19417 3.7968 -0.737402 1.55686 0.0943166
133 1.65898 3.26986 4.27288 -0.0997557 -0.523712 1.85372
388 3.15595 4.08123 3.23095 1.11476 -0.553321 -1.74968
536 4.88871 3.61682 4.00839 1.91015 1.84534 -1.24107
96 3.07591 3.06351 3.87578 -1.46674 -0.268705 -0.962584
562 5.55473 4.43947 4.07399 2.19516 -0.0577057 1.10614
468 7.45162 3.83165 3.40603 -1.3243 0.464464 0.830687
464 7.20249 3.07903 4.30358 1.07012 -0.3451 1.90042
397 8.79614 3.48036 3.36972 -0.0826705 -0.939093 -0.122956
200 7.65175 3.73046 5.38142 -0.209002 -0.118385 -1.54615
768 9.82495 3.35744 4.146 0.181491 -1.12443 0.80206
477 9.77607 4.7202 3.60898 1.58539 0.146685 0.784498
174 0.0748257 4.79781 3.09264 -0.155358 -1.33668 0.300221
511 2.33133 5.31649 3.99005 1.06771 -0.471568 0.73175
540 4.32944 5.2246 4.15903 -1.08174 -1.21927 1.62765
575 4.3728 5.74568 3.0078 -1.71002 -1.12091 -0.3854
170 3.36281 5.34434 2.86499 -1.6707 -0.433634 -2.13557
132 4.89459 4.75717 3.22221 0.256023 0.722784 1.32268
35 5.22371 5.60608 3.90693 -0.579769 1.35907 0.107128
804 6.26366 5.47128 4.19465 0.407444 -0.447745 -0.115457
423 8.49326 4.46004 3.7394 -0.905613 0.203583 -0.0428327
547 8.55972 5.42495 3.46878 0.503512 0.726837 -0.279834
307 9.58617 5.9429 4.24187 -1.41045 -0.116661 -0.26247
276 10.957 5.83964 4.32164 -1.239 1.06903 1.65082
177 0.128235 2.17275 4.90537 -0.142357 -0.0798242 -0.529964
660 1.06154 1.00664 5.09035 0.856334 0.586286 1.2844
666 8.96901 4.01785 0.104335 0.27251 0.650677 0.610994
182 7.53506 5.66473 4.59123 0.780689 -1.99227 0.149624
353 2.37766 0.876925 5.8894 0.897964 -0.725795 0.17686
288 3.46009 0.718921 5.34573 0.317452 1.22963 0.76307
652 2.89195 1.51485 5.00422 -1.43988 1.1172 -1.68208
783 6.78998 4.95623 5.77311 -1.57896 -0.403995 1.0843
297 4.5494 1.64032 5.5759 0.464753 -0.63089 1.17912
10 1.53553 5.59708 4.82104 -1.06419 -0.248972 0.940185
703 6.06916 0.447086 5.28646 0.789678 -0.559135 -0.0695235
376 7.44841 2.70733 5.78515 -0.72731 -0.947327 0.304441
124 6.9145 1.18141 4.57152 0.535644 0.626179 2.30452
147 7.79199 0.704464 4.60994 0.984253 -0.872921 -0.603384
273 9.67322 0.843471 5.16371 0.233213 -1.10325 -0.321343
812 6.07239 2.74219 0.0258624 0.707342 1.31464 0.61193
614 10.5165 1.51385 5.21038 1.85357 1.04955 0.150555
3 11.0489 1.07372 5.99097 -0.327416 -0.0164649 0.798012
770 1.70229 2.18132 4.56798 -0.811934 -1.01918 0.423516
140 2.50499 2.69171 5.03461 -1.12732 -0.628562 -0.192587
679 3.6729 2.26757 5.61341 -1.13971 0.727385 0.106963
357 10.9215 0.143563 4.20758 1.04829 -1.70954 1.82571
295 5.71532 1.37763 4.4976 -0.915454 0.0399792 0.689614
264 4.6502 2.90861 5.63621 1.98473 0.686165 -0.653163
62 5.53649 2.35544 5.56413 0.356372 -0.261591 0.231708
247 7.68008 1.50351 5.51574 1.01465 -0.563439 1.88239
457 6.64863 2.10875 4.90149 -1.06066 -0.798128 -2.05178
662 7.86585 2.0366 4.53881 -0.647295 -1.07028 0.276495
265 8.66089 1.70401 5.21135 0.671407 -1.23116 -2.47147
175 8.76697 2.81738 4.7981 1.12787 -1.68411 -1.17781
163 9.74358 2.28351 4.5268 -0.617783 1.04982 -1.14347
290 11.3414 1.36692 4.55524 0.223251 -0.869414 0.33441
51 11.2891 2.58783 4.61402 -0.298567 -0.622065 -0.547463
637 0.923745 2.80288 4.86982 -0.928093 0.610245 0.491401
261 3.72614 3.17402 5.12371 -0.078241 0.000506422 0.115578
848 4.61024 4.78682 5.14938 -0.882458 0.866532 0.740112
724 5.49018 3.75814 5.36944 -0.201277 0.18264 1.03215
748 7.86511 4.75657 5.28308 -0.38421 1.01519 -1.05383
565 6.22241 3.12892 4.80452 -0.0105158 -0.733989 -0.273397
268 8.7314 3.70636 4.36956 -2.06536 0.347257 1.28602
292 9.34306 3.53724 5.45396 0.157943 0.105407 0.580061
180 8.93606 4.46289 5.80867 -0.627553 -0.4368 -0.0617991
659 7.89609 4.11678 0.0972788 1.62082 -1.34689 -0.735839
225 9.91368 2.61454 5.57771 -0.23735 0.165744 -1.30322
552 10.3108 0.304457 5.8596 2.10995 0.540378 -0.957386
471 3.47749 5.22665 0.129556 -0.85348 1.31066 0.885744
591 5.96735 4.78376 0.197919 0.989177 0.342577 -0.365407
491 6.98809 2.27447 0.168431 0.461207 -0.38053 0.920929
445 3.73513 0.151452 4.04413 0.146007 1.57942 -0.275152
473 6.6949 2.07349 5.98957 -0.887596 -0.934011 -0.676329
246 1.27924 0.391754 6.04234 -1.07744 -0.159697 0.900207
356 0.523688 0.0121245 7.70866 0.16928 -0.124423 0.155374
84 0.743669 1.08634 6.73576 2.12943 1.54769 0.721241
339 2.6713 0.885125 7.27476 -0.0764978 0.793432 1.31571
190 2.02217 1.63058 6.86202 0.302139 -0.25008 0.973803
121 7.50075 3.75581 6.37004 -0.132987 -1.08917 2.21521
718 3.90728 0.910002 6.81967 0.326081 0.593109 -0.761058
766 5.59878 1.17718 7.24225 -0.346207 1.61139 1.07032
517 7.46843 0.649354 6.30987 -1.94065 -0.524751 0.454291
425 6.72868 1.32592 7.06212 0.527734 -2.09262 -0.127343
709 7.34894 0.452916 7.27613 0.56235 -0.705639 -1.18876
692 5.01378 0.513857 6.35087 -0.137733 -0.103101 0.544747
454 9.15682 0.00879178 6.4968 -0.772501 0.107775 0.00410513
395 9.95674 1.09583 8.26291 -0.508855 -1.02574 -0.324853
352 8.44727 1.25234 6.46236 0.16572 2.02889 -0.370343
676 11.7252 0.74393 7.4946 0.000412271 -0.61965 1.06312
211 10.8091 0.493124 6.88209 1.52898 1.15129 1.89882
396 11.6028 1.67387 6.7961 -0.667271 -0.658352 -0.549674
418 2.81699 2.28707 6.88855 -0.157933 1.0196 0.831772
593 4.53596 2.78303 6.72628 0.0165953 -0.316787 1.3074
159 11.7427 5.62529 10.4508 -1.39471 -0.165692 -0.264097
42 5.53976 2.2254 6.75224 0.684657 1.94463 -0.387961
406 5.37168 3.1706 6.27474 -0.390818 0.751729 -1.80238
573 11.9235 2.02616 11.7789 -0.52099 0.873769 0.0860261
218 3.69869 5.99937 6.95912 -0.792738 -0.0919408 -0.778417
255 8.04395 1.72169 7.3077 0.429814 0.577147 1.41453
183 8.67875 2.73028 6.05176 -0.799099 1.7861 -0.648825
833 10.0451 4.14285 10.7899 0.364218 -0.844607 0.589024
628 9.47063 2.0289 6.88851 1.19888 -0.4229 0.876498
314 10.532 1.65923 6.69204 -0.49486 0.181826 0.997414
302 6.81563 3.33249 7.14775 2.88263 -0.0105513 -1.55486
125 5.19187 4.41262 6.32127 0.13719 0.929238 -1.89921
432 4.74827 3.67288 7.40239 0.0244999 0.884412 -0.489632
729 1.18897 2.73986 11.4121 1.44764 -0.0557912 -1.35441
259 6.4741 4.25859 6.43445 -0.210445 -0.718742 0.611173
731 7.19775 2.35204 6.91749 0.810655 1.38906 0.894976
578 7.78354 3.72536 7.4039 0.48938 -1.97851 1.61683
677 9.08967 3.72674 6.61091 -0.352942 0.589761 -0.321212
76 0.164769 0.0922038 6.17161 0.149549 -0.0150166 1.43812
506 4.7026 5.53328 7.34742 -1.12912 -0.581852 0.689912
139 5.59187 5.621 6.63694 -1.97685 1.56059 -0.253409
358 7.13084 5.70911 7.28234 -0.903101 0.347934 -0.203762
791 7.6647 5.02725 6.59824 -1.43521 -1.33007 -0.42583
864 0.569253 5.85816 9.68706 -0.891833 0.572918 -1.726
111 9.44827 4.92933 6.58163 0.484153 -1.06668 0.984526
518 1.35995 0.754888 8.47677 0.341963 -1.36656 -0.825026
325 2.36412 0.248325 8.09476 0.294957 -1.6051 -2.47781
116 9.53329 5.94004 7.17579 0.856784 0.047296 -0.160829
610 3.06356 1.10959 9.10799 0.95577 1.14727 -0.679485
810 3.52681 1.04655 7.94007 0.279905 0.00581476 -0.114437
560 7.50232 0.426173 9.21145 3.24038 0.887317 1.04405
19 6.87277 1.15301 8.51474 -0.724329 -1.18373 0.471423
639 6.34669 0.689748 7.83693 -1.41449 1.31007 -1.19019
324 8.07965 1.35339 8.27667 -1.26223 -1.05671 -0.286415
361 11.6892 0.947974 11.9643 0.645078 0.512168 0.191173
669 10.8916 0.222813 7.95603 0.975455 0.315311 -0.147334
219 0.00368875 0.626271 8.54857 -1.11188 1.12381 0.77352
71 11.1554 1.44285 9.20869 -0.567678 0.240825 1.7981
818 1.80542 2.60454 8.76808 0.889241 -0.268219 1.08242
66 1.84483 1.64756 8.42495 0.0109462 0.464126 0.653907
296 2.77579 2.65512 8.0493 0.642844 0.783754 -1.19999
328 4.89678 2.67314 7.96585 0.560178 -0.567545 0.429704
282 7.4563 2.21505 7.94608 0.0129597 -0.721563 -0.935932
481 5.7872 1.98176 8.02347 -1.03893 0.859722 0.413
643 6.31158 3.05932 8.31087 -0.798082 0.340276 0.788292
104 8.29504 2.99676 6.97438 0.501754 0.409099 -2.37855
381 9.08173 1.944 8.54324 -0.612598 0.17876 -0.0169349
13 0.0313393 1.7808 8.05058 0.004277 -1.22338 -0.355321
186 10.9164 1.82218 8.29539 0.584752 0.77036 1.53934
811 2.83823 5.07628 9.11487 0.984099 2.99692 0.202716
221 3.03198 3.3985 8.72781 -1.75153 0.857997 -0.290874
453 6.8982 4.39834 7.62275 0.303591 1.07412 -2.31769
131 9.31168 2.98535 8.23204 0.522307 -0.494604 -0.658474
852 7.47857 3.85142 8.60157 -0.482221 -0.157251 -0.439603
31 10.6661 3.25077 10.0699 0.151404 -0.296474 1.76004
806 8.41215 4.86273 7.73589 -1.93482 1.87304 -1.01647
443 11.0217 4.82738 11.2248 0.391997 -0.871472 -0.877574
390 1.69019 5.77317 7.602 1.62073 0.417216 0.280015
112 2.0953 4.64272 8.35708 -1.2499 -0.504753 -0.418179
459 4.25746 4.76581 9.48271 0.909795 0.145738 2.99179
441 2.65152 5.66378 7.08785 -0.460771 -0.684153 0.534284
433 4.07567 5.46748 8.55807 -0.352892 -1.27045 0.0227618
229 6.0115 3.79219 7.70228 0.89585 -1.07996 -1.26429
728 5.27616 5.94826 8.16811 -0.101682 -1.21027 -0.15762
43 3.13234 1.48554 6.18032 -0.606886 -0.729893 1.6936
743 6.7233 5.011 8.53716 -1.30239 0.0450191 0.951729
860 7.92933 4.90668 9.00494 -0.834876 0.959735 -1.48213
701 9.57434 4.78378 7.61763 -0.092419 -0.518024 1.31013
756 9.11049 5.19067 8.68765 0.393336 0.188172 -0.0761988
769 10.161 5.00002 9.17418 -0.187949 -0.387068 0.262996
598 0.586491 0.295496 9.5208 1.35651 -1.15556 0.168525
632 1.48108 1.30465 9.96286 0.712178 0.772515 0.219354
240 2.55245 0.872508 10.0415 -0.459502 -1.27104 1.67949
49 3.89543 1.21967 10.0734 0.848854 0.732924 -0.348743
150 6.01243 0.161784 9.93003 1.26997 0.665273 -0.242393
95 4.92426 1.33297 10.3799 0.469947 0.00879886 0.291893
648 7.03936 0.905484 10.2502 0.171838 0.537686 0.61367
234 8.12756 1.21676 9.99399 0.348162 -0.111806 -0.455953
205 7.85163 0.200704 10.3272 1.38945 -1.55696 0.207444
403 11.1306 1.46739 10.3246 0.723552 0.88306 0.274119
26 0.520424 2.16439 9.00837 -0.142554 -1.02588 -1.06193
586 0.507776 1.54032 9.84914 -1.15299 0.809145 -1.06204
719 2.49578 1.83483 9.5244 -1.09567 -1.50038 0.254703
204 3.30387 2.18308 9.16201 3.26278 -1.03124 -1.17315
424 3.38058 2.66356 10.5165 1.28418 0.635252 0.480523
370 4.21573 0.977363 8.89878 -0.979324 -1.66598 -0.795196
57 5.87306 1.5335 9.67931 -1.4385 -0.435985 -0.740716
167 7.63872 2.03564 9.65936 0.572798 0.122396 0.733617
792 6.4861 2.18525 9.07838 0.0738188 0.202715 -0.194214
37 8.47345 2.5543 9.1249 1.18504 1.38673 1.58064
821 7.96468 2.9872 10.1368 0.887347 -0.507897 -1.31563
853 10.178 0.616426 9.12531 0.389786 -2.24361 0.250333
45 11.7272 2.48657 9.53575 -0.377875 -1.07198 -0.472334
635 1.30675 3.28921 9.69728 0.573682 -0.293816 -0.710799
217 2.70524 2.84938 9.84769 1.89315 0.603464 1.51137
103 2.68486 4.63903 10.4771 1.85499 -0.837705 0.564319
687 3.5274 3.70367 9.72878 0.522199 -0.91434 2.14508
508 4.33331 3.74458 10.6428 -1.01007 1.30542 1.66639
122 6.08529 2.48507 10.3421 1.65646 -0.339877 -0.845757
599 6.78637 3.05902 9.89329 0.0583295 -0.273172 -1.12276
258 8.00641 3.87617 9.47018 2.14268 -0.615371 -0.384981
828 9.02934 3.81876 9.78471 0.783402 1.01766 -0.272698
616 9.58697 2.8162 9.29828 0.181438 -0.0694241 -0.130295
612 8.81867 3.99851 8.75658 0.0224005 -1.8163 -0.104749
401 9.88831 3.8333 9.28778 -1.51182 -2.36063 -1.71075
440 11.0616 4.03252 9.14527 1.17393 -0.887764 -0.531469
483 0.351985 4.20115 10.3856 -0.60669 0.0883624 -0.955201
760 10.6824 3.18295 11.2275 0.146086 -2.00787 2.33327
153 0.993979 5.09496 10.8705 0.376212 -0.0125509 -0.00312199
393 6.15178 1.32377 11.9319 -0.47528 -1.97684 0.478964
220 1.53609 5.38641 9.83487 -0.29625 0.240882 0.411783
807 3.98236 5.70959 10.0634 0.850467 0.211472 0.473694
490 8.14649 5.20514 10.4376 -2.02252 0.740848 1.26219
455 9.14823 4.81367 9.84446 -0.327282 -2.34081 -1.5297
363 10.3625 5.54605 11.3902 1.58208 -0.977018 -0.62348
574 11.2611 4.93818 9.55341 -0.49757 0.042252 0.338622
152 10.6105 5.32331 10.2358 0.617934 0.44404 0.232149
250 0.788765 0.570181 10.6116 -0.599461 1.44362 -1.23886
308 1.18621 0.389846 11.7739 -0.538568 1.45766 0.25543
169 2.67814 0.62422 11.5629 1.66157 -1.164 -0.0368554
757 3.40291 3.23802 6.51355 0.392352 1.58967 1.50985
802 3.49619 0.506508 10.8494 -0.363321 0.508219 0.477602
782 4.42586 1.00384 11.518 0.499121 -1.6774 -1.55459
734 4.92764 0.192758 10.9211 -0.906017 -0.0369775 -0.739799
305 5.41932 1.77073 11.0789 -2.25593 -1.28023 -1.92873
697 5.98084 0.920193 10.8069 0.115717 0.425634 -0.323016
619 6.81961 0.643996 11.6838 -1.02711 1.0477 0.823687
843 9.0459 0.362347 10.3666 -0.479739 -1.42953 -0.904606
501 10.0131 0.337499 10.8086 -2.08994 -0.0799227 0.405019
816 9.67863 1.22916 11.6875 0.601365 0.411767 0.947858
808 9.36915 4.99451 11.4455 -1.78197 -0.16811 0.221628
41 11.9814 1.22772 11.0909 0.701245 0.0608619 -0.214584
301 11.1659 0.495938 11.1398 1.00155 -0.622697 -0.51777
154 0.281256 2.45788 10.4443 0.176356 2.90113 -0.454254
345 0.868233 1.5949 11.583 -0.10441 0.0630339 0.314222
68 1.80119 0.735768 11.0174 -1.22068 -0.112229 0.22491
312 1.37673 2.38292 10.4611 -0.679851 -1.38138 -0.350395
657 2.17078 1.8606 11.0689 0.0491351 -0.237011 0.0382815
634 4.05479 1.86904 10.9664 0.095977 0.247716 0.824459
747 8.69465 5.87964 10.945 0.526879 0.65051 -0.861203
515 7.44307 2.14662 10.8739 1.08129 -0.702847 -0.498264
682 9.55878 1.23013 6.24154 -1.27965 -0.731707 1.4865
646 9.15294 2.17377 11.4753 1.23116 -2.16822 -0.608651
435 8.5731 1.25011 11.0406 -0.786599 -0.281463 -1.33291
489 9.26424 2.26469 10.1259 1.12804 1.22587 -1.95796
405 9.5419 3.20959 10.8601 1.9353 1.40277 -0.0983229
151 9.73406 1.36427 10.4447 0.261174 0.165037 -0.476399
568 1.35447 4.02216 10.6841 1.525 0.257059 0.694308
825 0.834478 4.35117 11.6679 0.644809 -0.510781 0.869515
344 2.22429 3.48769 11.4536 0.15736 0.855152 -0.408127
80 3.00461 4.15325 11.8407 0.453085 -0.809839 1.01196
146 3.22604 3.70894 10.7887 -0.286379 -1.10098 -0.886915
242 4.76439 4.64937 11.2597 -0.516172 1.3416 -1.30561
530 7.86272 4.15105 10.5558 0.736469 0.855267 0.397464
815 7.28813 3.28077 11.0188 1.67231 -1.34342 0.161222
512 8.65019 3.09074 11.2187 0.766054 0.194749 0.230145
771 0.0452953 3.16254 11.7482 2.18841 -1.48417 0.862351
754 8.98736 4.24494 10.9564 -1.95341 -0.300266 0.947798
338 9.84926 3.34136 11.8716 -2.14429 -0.0942011 1.08389
366 4.74986 1.49214 6.76859 0.0671085 0.282759 2.13906
655 11.5202 3.9171 11.1441 1.09824 0.669124 -1.24162
844 11.7068 3.29452 10.1752 -0.873035 1.1844 -1.76939
155 2.83933 5.62928 10.6462 0.614954 1.29707 0.607276
793 2.06943 4.65755 11.2609 0.873948 -0.262106 0.245233
507 6.21254 0.724449 6.26915 -0.108189 0.0231202 0.138533
252 3.70435 4.82616 10.7357 -0.409427 0.375757 -0.490518
230 9.61911 5.90047 10.3129 -0.409934 1.31724 -0.108565
127 4.84733 5.82573 10.7468 -0.757899 2.33511 0.00580619
394 5.16444 5.70204 11.9266 -0.911954 -1.31936 -0.299703
859 10.28 4.5765 11.9676 0.619686 -0.32587 -0.919559
355 5.77596 4.99593 11.281 -0.69133 -0.975647 0.727864
645 10.9465 5.90313 8.64436 -0.375224 -1.87535 1.12177
665 4.14801 5.94074 11.9923 0.204869 0.0770728 -0.435304
400 0.537132 7.50357 0.2301 -1.08139 1.2221 -0.240961
681 1.5252 6.52018 1.3911 -1.00241 -0.118453 1.26326
18 2.12352 7.16375 0.583856 -0.699662 0.0598634 0.36566
851 3.82497 6.29109 1.02463 -0.283058 -0.120392 1.18367
831 4.82426 6.95028 1.40628 -0.553639 -0.262422 -1.7614
266 6.10252 6.71275 1.23554 1.89369 -1.22003 0.736286
654 5.28077 7.2024 0.477987 -1.56319 0.154012 -0.0236655
86 7.2915 6.55701 1.69256 0.598161 -0.244448 -0.0988746
583 8.38075 6.53372 0.693235 0.283077 1.45418 0.853087
764 9.36653 7.03427 0.117809 -0.558141 -0.301697 -0.603185
135 10.3562 6.59857 0.320196 1.0461 1.12968 1.2614
510 1.3257 8.41983 0.901873 0.187295 1.38741 1.18178
449 0.901495 7.34875 1.53871 2.68048 -1.00807 -0.665721
710 2.81255 8.2565 1.29504 -0.184815 -0.063189 0.216942
228 3.89744 7.59743 1.10111 1.52987 2.13344 -1.00714
605 1.67354 6.14883 0.213054 1.7437 -0.464657 -0.262233
688 4.45815 8.73157 0.452899 -0.0547795 -0.209281 -1.13299
93 5.94249 8.02037 0.903259 -0.407622 -0.193245 1.96539
34 4.72933 8.41014 1.55577 -0.699051 2.17476 -2.60488
304 6.41919 7.3714 2.09668 -1.60281 1.1732 3.00568
98 7.59739 7.58971 0.857266 -0.414831 -1.14387 -2.40536
736 7.51809 9.62264 0.450088 -3.01407 -0.130473 1.42627
379 8.07463 9.00993 1.35654 -2.04171 1.62322 0.250627
694 0.535251 11.7026 2.96688 -0.171316 0.796268 1.3272
143 9.20552 8.49504 1.20948 0.308444 2.78873 0.708801
293 11.8148 7.31633 1.16165 0.257363 -1.78621 -0.219058
210 3.26778 10.3635 5.89295 1.64795 -1.61603 0.452777
185 10.3411 7.6108 0.817813 0.43509 0.932331 -0.273567
543 1.46425 9.4504 0.604709 0.77508 0.115052 -0.193628
667 0.548019 11.3702 0.0340196 0.629031 1.28289 0.070855
126 2.44507 9.54886 1.46247 1.37085 -0.234069 -1.75781
336 2.44375 8.91299 0.634851 2.31281 -1.23123 1.05852
487 3.14741 9.79115 0.48059 1.01748 0.635272 0.358151
797 3.62008 9.84341 1.54641 0.425427 -0.098314 1.47995
502 5.42012 8.71261 0.166479 -1.1185 -0.880095 -1.97011
856 6.4905 9.47147 0.0141672 -0.633362 0.0556303 -0.242836
658 9.08923 11.2947 1.06004 0.619381 1.74881 -0.189455
277 9.61729 9.71457 0.885032 -0.474053 0.301467 0.0857446
533 11.734 8.91799 0.890786 -1.39875 -0.497601 0.0136217
861 10.8622 10.1271 0.960776 0.0501175 1.40721 -1.36545
767 1.48433 10.2489 1.35422 0.388441 -1.28645 -0.266072
661 0.785649 11.7604 1.13109 -0.315492 0.22115 1.20296
789 0.660329 10.2486 0.30839 -0.966934 -0.9264 -0.652828
326 3.21767 11.877 5.9663 -0.397869 -0.614152 1.11135
239 2.4175 6.11994 0.878293 0.317686 0.533587 1.1938
85 0.772176 9.48203 5.50862 -0.529119 -0.803507 -0.328585
497 7.47218 11.7149 0.893171 -1.60028 -0.570309 0.737855
733 10.0656 10.7238 0.430716 0.164697 -0.607272 -0.647121
651 2.21928 11.8932 5.68172 -1.59952 0.0153504 -0.563071
287 10.853 11.3579 0.0334654 -1.02885 0.840524 -1.48473
567 11.2051 11.6546 1.29903 -1.49502 1.64156 1.05755
235 1.87837 7.64926 1.78269 -0.315897 -0.384434 0.702997
267 1.12303 6.40954 2.43079 1.2089 -0.2381 -1.40905
819 3.01484 7.22637 1.64929 0.108693 1.08071 1.21567
525 3.71261 7.90601 2.08411 -0.563595 -0.340283 -0.0849592
189 5.20393 6.85255 2.36051 1.21449 0.166364 2.2223
577 7.24154 6.06312 2.69836 1.85931 -1.3952 1.51426
520 6.30371 6.47828 2.41798 -0.35906 1.87981 0.0813087
737 8.30835 6.78133 1.81604 0.895009 0.0222648 -0.553846
90 7.49477 7.55353 2.03231 0.339303 0.815784 0.488472
466 9.25676 6.80376 2.39314 1.76705 1.24943 -1.77741
164 10.4176 6.4183 2.43699 -0.124988 -0.532451 -2.33269
436 10.1234 7.18639 1.79411 -0.0159268 1.20183 1.35113
70 11.1437 7.08055 2.17458 2.04057 -0.328339 -0.310376
196 0.189553 6.96982 2.45315 0.198713 0.215178 0.285905
209 0.949351 7.74929 2.67921 1.15137 -1.43547 0.849937
270 1.85372 8.78787 2.07836 0.803115 -0.717626 -0.965601
52 3.03435 8.91975 2.06545 2.98268 -0.0909911 0.994459
649 3.70222 8.77165 1.22953 0.384958 1.58695 0.519901
820 4.68585 7.71189 2.53415 -0.98767 0.492548 0.0688787
16 4.24178 8.62473 2.52125 1.65906 0.28751 -0.30529
641 5.29495 8.45128 3.06479 0.35541 1.43439 0.307573
496 5.81286 8.3075 1.91151 0.436813 -0.42793 0.994587
753 6.49069 8.33666 3.0014 -0.409197 0.402054 1.31465
317 8.60117 7.6337 1.21578 0.728408 0.304088 -1.99759
582 6.84277 8.46241 1.74684 -2.27052 -0.456834 -1.18234
787 8.27537 8.47282 2.57865 0.47444 1.19996 0.154074
716 9.34769 8.99374 2.44366 -0.800419 1.92083 0.850752
337 11.037 9.68578 3.53408 -0.657232 1.69239 3.58657
592 0.0610926 10.7791 1.20474 1.04736 -0.40404 -1.24202
212 0.787526 9.25663 1.57374 -0.799355 0.554787 -0.436523
206 0.723434 10.7141 2.81027 -0.085252 -0.00611528 0.19947
249 1.69007 9.79072 2.65332 -0.371614 0.0671296 0.798039
253 3.04979 10.0232 2.51694 -0.484272 0.671565 0.315397
75 5.14822 9.24245 0.927653 0.518076 1.9605 -0.293551
21 4.83413 9.58953 1.91573 -0.364257 0.0701098 -1.20977
839 6.15244 9.23664 1.24258 -2.40749 -0.607267 -0.746672
493 6.28142 9.36093 2.59684 0.150008 0.0316452 -1.93173
700 7.24415 10.5441 1.0303 1.29097 0.153964 -1.35192
720 8.71668 9.91133 1.3206 -0.200411 0.529536 -0.891302
438 8.0207 10.223 3.17111 0.367109 0.48223 1.00007
708 10.4993 9.63528 2.3768 1.57785 -0.31163 1.13358
233 9.25411 10.1668 2.60769 -1.00568 0.532043 1.17655
120 11.5745 9.91844 1.65381 -0.707446 0.931378 -0.375177
823 11.4716 10.2842 2.77846 0.0928288 0.61804 -0.269384
27 0.89232 11.1757 1.98099 1.42358 0.100166 -1.77793
774 1.77441 10.8651 2.42452 -0.637941 0.302018 0.764949
513 2.33046 10.808 3.41561 1.35474 0.93034 -0.0539809
298 2.70828 11.6401 2.62452 -1.56705 0.976846 0.381356
564 5.7243 10.2681 2.98824 0.674887 -0.712897 1.28926
419 8.35113 11.743 1.82154 -0.0473589 0.884979 0.587981
138 9.73696 10.5207 1.71403 1.3532 -0.119621 -1.22798
8 9.50506 11.5161 2.09486 -0.676507 0.0823794 0.719439
621 10.6312 10.8353 2.21029 0.463261 0.872995 -0.370942
91 11.7328 11.5008 2.39094 -1.2477 -1.19817 -0.150465
101 0.223984 7.66211 3.88301 -1.46956 0.66197 -0.25356
178 1.39552 6.52328 4.28764 0.0238751 -1.03446 -0.502366
627 2.19845 6.57748 2.5679 -1.95961 0.945298 -1.95969
24 4.03196 6.73409 3.23811 0.570274 -1.08507 0.285252
548 3.93961 7.09128 4.53793 0.625795 0.569505 -0.0163217
527 4.46029 6.23416 4.20234 -0.752089 2.22916 0.809072
581 5.84013 7.4573 3.06317 0.862922 0.0136391 0.411573
678 5.39169 7.00845 4.35935 -0.856644 1.00347 1.59008
451 5.08894 6.66296 3.43385 0.490963 -1.12841 0.729529
195 7.52594 6.35266 3.75448 0.257728 -0.347928 1.73247
785 6.59247 6.70266 4.33975 1.33079 -0.68588 0.496566
58 6.88579 7.16994 3.04566 -0.180364 1.25767 -1.43931