ITEM: TIMESTEP
40840
ITEM: NUMBER OF ATOMS
864
ITEM: BOX BOUNDS pp pp pp
0.0000000000000000e+00 1.2000000000000000e+01
0.0000000000000000e+00 1.2000000000000000e+01
0.0000000000000000e+00 1.2000000000000000e+01
ITEM: ATOMS id x y z vx vy vz
68 0.828116 0.966572 0.778052 0.499169 -1.27792 -1.10895
344 2.06681 0.405869 0.164924 0.560967 -1.0563 0.698134
55 3.9787 0.104688 0.539636 -0.275783 -1.13475 0.473465
316 8.99608 4.61658 5.96596 -2.23221 0.0558005 -0.936521
429 5.75783 0.693122 2.04094 2.47689 0.553757 -0.391255
11 6.63587 0.339256 0.605518 -1.11403 0.00273585 -1.56665
650 7.56676 1.11472 1.00326 -0.336442 0.341614 -0.6659
468 9.68119 3.01218 0.366413 -0.49416 -0.533837 0.393941
707 11.3106 2.85969 5.5553 -0.261157 0.500782 -1.2576
834 1.61175 5.01408 5.62806 -0.416337 0.574353 -1.05263
488 4.43495 5.92518 0.611248 0.941587 0.571322 -1.4801
570 9.77423 0.455388 0.939508 0.0153501 0.326498 -0.342789
425 9.53015 5.0127 4.94491 -1.10613 0.227899 -0.670936
27 11.6549 0.718181 1.2694 -0.231727 1.89722 1.71098
301 0.193893 1.82948 1.22221 0.15883 2.24821 -0.311565
78 7.15492 3.25601 5.83785 -1.58945 0.719295 -0.370068
299 6.91738 5.38819 1.78749 2.19956 0.00253669 -1.02552
399 1.01894 2.41946 1.88436 0.0166055 0.796588 1.24839
576 0.212522 4.90225 5.0207 0.513523 -0.11702 0.404587
298 2.26171 1.24699 2.15805 -1.33052 -2.69626 0.752077
538 2.11536 1.5179 0.870897 -2.22812 -0.631587 0.825644
327 6.92847 2.58615 2.18877 -0.530183 1.01827 1.291
82 6.25205 2.4273 0.71808 -0.674191 1.31062 1.07995
712 8.94474 1.6303 0.687563 1.04246 -0.0693376 -0.581262
193 9.62279 3.60209 2.24572 0.0849723 1.19129 1.14333
567 10.0192 1.56829 0.398316 -2.09087 0.708001 1.08414
371 10.7516 2.40052 0.335279 -1.95357 1.05245 1.51123
494 1.11149 3.63824 0.902755 0.576109 -1.19766 -0.573048
571 10.959 0.071798 2.29048 1.33264 0.413816 -0.317223
266 3.76956 4.24246 1.47452 -1.5189 -0.536269 -1.62242
770 4.43432 4.08046 0.721557 -1.24873 -0.365095 -1.33601
808 7.15986 3.59038 1.77266 2.01757 -0.12265 0.517849
97 10.3199 0.087144 5.15232 -0.287602 -0.67745 -1.43501
109 7.87363 3.2321 0.959477 -0.334811 0.271925 -1.61775
768 8.94061 3.53571 0.674499 0.442387 -0.331258 -0.105473
499 1.82766 5.51394 0.365821 -0.570729 -0.778909 0.40397
79 10.5021 4.32045 0.502426 0.29011 0.245853 -0.584797
441 0.555451 4.7013 0.871204 0.750321 1.7149 2.66244
64 11.5731 3.84573 4.75488 -0.780675 -0.904219 -0.631837
343 10.6327 5.81979 2.98824 0.0878917 -0.966075 -1.5654
516 2.93158 5.461 3.60307 1.4394 -1.65033 -0.251153
12 9.42218 0.0332138 4.69865 -0.356762 -0.349477 -1.83647
792 4.7259 1.30959 0.29191 -0.962995 -0.819217 1.1842
177 11.7016 1.87904 5.94572 0.533068 1.38592 -1.19434
36 8.36406 5.40369 1.48847 -1.67208 0.54014 0.294646
655 9.05873 4.79643 0.714635 0.0536495 -0.689468 -0.125544
389 6.94932 5.62482 5.78945 0.619795 1.56254 1.45647
187 9.80189 5.64279 0.762048 1.0199 1.17637 -0.360692
605 11.0582 5.21045 0.150585 0.126982 -0.594945 -1.19568
750 0.829613 1.22766 1.8024 -0.583806 1.12018 0.0524768
625 0.5602 0.166501 3.80408 -0.849805 0.565142 0.565009
431 11.0288 0.219 0.338461 -1.87998 0.466101 0.335744
765 3.26344 0.954664 1.16966 -0.864733 -0.499754 -0.451785
262 1.47834 0.21103 2.56836 -0.429725 -0.602089 0.661916
713 6.02723 5.28936 1.31308 0.562211 -1.27523 -1.19638
81 3.37061 0.123054 2.37691 -0.319932 -0.975727 0.626933
119 2.43836 5.43738 4.98853 0.142685 -0.242642 0.518399
684 7.31758 0.463192 1.77374 0.714657 -0.36371 -1.31122
667 8.29286 0.00266417 1.89641 0.398618 -0.654622 0.438864
614 10.6818 1.01654 1.37319 -2.27939 1.15661 -0.811444
628 11.8211 1.21953 2.20374 -0.596228 0.980452 -1.68637
652 11.574 2.67904 3.89022 -1.16762 0.444255 1.25235
724 3.30038 2.98178 3.31748 0.545699 0.337913 1.22795
634 3.27414 1.54638 2.16044 -1.14211 0.579606 -1.46145
224 6.29693 2.71266 3.15462 1.41855 -0.347961 0.42692
199 5.13722 0.825456 3.011 1.50032 -0.298358 -0.187978
700 10.1077 2.3667 1.91695 0.365335 0.632484 -0.0647397
401 8.90376 2.91859 1.58004 1.37848 -0.0300706 0.291046
492 8.11993 2.33909 1.77766 -0.381662 -0.729413 -0.78783
522 8.95009 2.74319 3.01044 -0.495549 0.565456 -0.0408851
844 0.0879635 2.81418 1.65298 0.0591308 1.02918 -1.51012
798 11.0483 2.34477 1.43817 1.60159 0.0807609 -0.708047
320 0.725281 3.65627 2.98606 -0.506322 0.280713 0.428483
793 2.23076 3.28573 2.49217 -0.562358 -0.710039 0.35384
472 2.26932 3.23884 0.536517 -2.47663 -0.626813 -0.403194
127 2.63394 5.5111 2.02932 0.682435 -0.812281 -0.537851
35 4.5454 4.22964 2.87826 -0.352602 -0.0663051 0.838497
341 5.61778 4.35539 1.76419 0.625978 0.749228 -0.274147
562 8.51032 4.07158 1.60936 0.847077 0.72058 -0.166022
18 9.4483 4.59783 1.62668 0.962444 -0.17072 -0.484045
53 10.5809 2.70068 2.76164 -0.502084 -0.88634 -0.872184
402 10.49 5.03543 1.3851 -1.61115 0.496649 -1.32973
840 0.190916 4.09798 1.82775 -0.768462 -0.399488 -1.00228
508 1.94598 4.48717 1.78225 0.736232 -1.17832 -1.54228
312 1.57877 5.37232 2.36802 -1.11526 0.232063 -2.86688
577 4.69681 5.13617 1.52871 1.03307 0.724 0.308915
2 5.04826 0.489626 4.99959 0.978875 -0.302924 0.30336
409 5.19557 5.3004 2.37728 0.167589 1.02519 -0.00911492
730 7.01299 5.16249 2.97814 0.53401 0.818804 0.974987
99 0.779612 1.49478 5.83573 -0.033583 -0.35696 0.461261
129 8.0282 4.58181 2.43447 1.39988 -0.178324 -0.0580121
286 2.43174 0.100795 1.83377 0.314774 2.38928 0.188313
787 9.69372 5.68607 1.9958 1.43656 1.50388 1.16937
368 7.02477 1.79253 0.234541 0.67658 0.0504874 0.20561
663 0.574327 5.18128 1.92282 1.11435 0.155531 -0.74227
147 2.59741 0.524931 3.19542 1.69427 -1.19659 -1.41505
749 4.3616 0.0764556 3.5087 -0.536682 -1.65154 -1.2826
74 3.25767 0.535623 4.25141 -0.48999 -0.0232848 -0.584047
231 5.56909 1.27155 4.42284 -0.896082 0.564924 0.338031
686 6.72946 1.04697 5.1938 0.437398 -0.966342 1.98677
638 6.48618 1.36338 3.56363 0.391232 1.02866 1.37005
662 6.70827 0.0718828 4.07758 0.318437 -1.25811 -1.23402
709 7.86472 0.361907 4.44664 0.562797 -0.553602 1.40728
659 6.90792 3.30216 0.374336 -0.229531 1.33635 0.559348
464 8.59087 1.26774 4.25174 0.161624 -0.575102 -0.481587
110 9.40477 0.626169 3.81058 -0.406906 -0.366513 0.225458
556 10.4511 0.144753 3.64678 -0.22819 -0.0987882 0.640391
19 9.63123 1.63879 3.62457 -2.06514 -1.21154 -0.560771
558 10.2228 0.974126 4.29592 -1.64826 0.759727 0.535274
354 1.35585 0.795091 3.82746 0.247929 -1.77847 0.176593
72 2.17955 2.21977 3.52377 0.247622 0.678019 0.310045
353 3.33641 1.69832 4.2756 0.442968 0.366909 0.93844
651 3.66444 1.46384 3.10161 -0.0963948 -1.14322 -0.178754
537 4.58608 3.16189 2.24383 1.03074 1.02846 -0.527848
418 3.56447 2.55117 5.07745 -0.948496 -0.109899 0.650661
160 4.93194 3.45696 4.07299 0.184194 -0.641281 1.92166
280 6.49843 2.24488 4.51141 1.72881 0.0894961 0.592615
168 7.24103 2.98324 4.61595 0.259754 1.67688 -0.138524
685 7.76374 2.21473 2.84708 0.636676 -1.03445 1.55715
40 7.30887 0.836688 3.45259 -0.952888 -1.60538 -0.0480854
536 7.79995 2.41257 4.02053 -1.16854 -0.864044 1.16762
590 7.2915 1.54182 4.27782 0.106546 -0.860194 0.928793
105 8.91919 1.33593 2.96888 -0.646988 -0.513451 0.574382
367 10.3633 2.52492 3.75737 -1.35384 0.805481 -1.05299
528 10.6731 1.64381 2.74907 -1.11196 -2.05276 -0.344565
196 0.892748 5.09855 4.11136 -0.0163304 1.25015 -0.0105522
157 1.28505 2.60824 2.89355 0.314742 -0.268439 -1.50562
540 1.88081 3.87886 3.29189 -0.628928 -0.700614 0.281734
103 3.40284 4.51032 2.51196 0.317168 0.678473 -0.933104
324 4.67389 3.8256 5.08937 -1.15389 0.115807 1.998
306 8.01296 3.41709 2.51326 0.184259 -0.741607 -1.0304
331 7.31557 4.38513 3.54968 -0.0489412 -1.07997 0.202212
213 8.34924 3.20932 4.95317 0.364957 0.870585 0.274763
477 9.65056 3.48583 3.48816 -0.130462 -1.01406 0.741312
175 8.3587 3.60969 3.86678 -1.37006 -0.0518088 -0.257143
596 10.1779 4.21152 4.32067 1.03032 -0.653566 -1.98913
80 11.4303 3.54474 3.29098 1.87866 -1.05472 -0.191325
615 11.0333 3.77758 2.11187 -2.53826 1.15039 0.340877
771 0.119734 0.246306 2.61129 1.85088 1.02305 -1.3101
51 11.9083 5.62811 3.34765 -0.907218 0.015802 -0.119233
387 1.23154 5.86492 4.63628 -0.217865 0.894891 0.0966131
285 2.75066 4.4499 3.53885 -0.276478 -0.477811 0.814174
506 3.38992 5.49646 4.52029 1.51774 -0.340681 0.434062
620 4.03907 5.56611 2.4958 -1.92299 -1.94516 -0.234287
54 6.04334 5.24093 4.37484 1.55221 -0.00459681 -0.822759
259 5.1612 4.40036 3.66511 0.0956895 -0.0711528 2.07263
697 7.02136 5.57563 4.16334 0.784636 -1.44487 0.0861738
583 7.97182 5.3108 3.46602 0.183579 0.393265 -0.439955
691 8.76076 4.5664 3.37646 -1.17041 0.240297 0.231939
527 9.9172 4.65219 3.29719 -0.0799861 0.0667711 -0.728466
137 10.3182 5.59112 4.19434 0.0615475 0.571255 1.5536
254 9.11889 5.75615 3.7967 -0.845983 -1.31914 0.552383
120 10.9928 4.94366 2.44639 0.234229 -0.92789 -0.296445
198 0.400655 4.14064 4.17439 1.23826 1.20929 0.878626
114 11.1255 4.67041 3.59148 -1.1299 -1.13281 -0.465104
126 1.41548 0.514326 5.52961 1.21691 -0.908738 0.216863
84 3.66237 0.55125 5.38058 -0.759529 0.449498 0.247875
172 2.32384 0.114136 5.55933 0.192618 0.25364 -0.885822
307 1.10789 4.3049 4.99018 -0.325386 -1.58958 -0.990627
705 7.7558 1.17795 5.2582 0.310475 -0.0865875 0.126357
694 1.79002 4.65838 4.1047 0.594695 0.036487 -0.328592
314 9.40611 1.36649 4.77803 -1.00811 0.548763 -0.0733929
290 0.0508235 0.155746 5.64519 0.112372 -0.912534 -0.623881
190 0.652198 2.38816 3.98329 1.19147 -0.845361 -1.0064
87 10.7526 5.18566 5.02318 0.459637 -0.0864931 0.365878
297 2.15595 2.96511 4.87782 -0.45276 -0.462849 0.426132
692 4.00328 1.65017 5.2326 -0.0630766 0.727712 0.733572
247 2.5645 1.89222 5.23606 -1.39476 -0.837964 0.260747
146 2.95846 5.98324 0.486503 -1.30582 -0.139338 0.342255
300 5.54104 1.24632 5.60147 1.90432 -0.349628 -0.51125
43 5.09547 2.66555 4.95694 0.0309563 -0.267517 0.45603
42 7.51541 2.1485 5.26188 0.567473 -0.587043 -0.622527
346 2.08917 1.09501 5.94705 -0.554299 0.294419 0.1451
232 8.71585 5.69903 5.29032 -0.745124 0.444949 -0.598441
579 8.55542 2.10907 4.95949 0.301243 0.821186 -2.3912
144 9.23011 2.90534 4.37488 2.26957 -0.176819 -2.00612
225 10.3598 2.26621 4.74563 0.282562 0.544355 0.0727358
272 0.576452 2.97165 5.09563 0.885255 0.48656 -0.0731314
573 1.12933 3.42682 4.2548 0.444438 -2.56923 -0.339686
117 0.307296 3.97789 5.53877 0.721965 0.138282 -1.5366
58 5.43727 5.50281 3.39407 -0.473726 -0.229062 0.894565
295 2.5563 3.48764 4.05603 0.202788 -1.29041 -1.31235
380 2.53106 4.26094 4.89308 1.11471 -0.993249 -0.764414
321 4.05504 5.25542 5.65579 -2.75483 0.0540772 0.330732
376 5.47008 4.31921 5.83709 -0.699756 -0.370328 -0.339792
265 5.81374 3.62656 4.80868 -1.18177 -0.212025 0.646748
785 8.06317 4.0983 5.59847 0.0533524 0.34691 0.8922
28 8.43951 4.82858 4.63465 -1.06036 0.167111 0.0537627
276 9.02077 3.94324 4.98431 -0.532681 -0.748492 0.931157
311 11.7778 5.77813 5.66375 -1.30345 -2.59651 0.160877
292 10.3231 4.21942 5.88399 -0.0821103 0.907054 0.323196
26 9.4573 2.75119 5.42165 0.0742631 -1.16625 0.0622073
255 10.4497 3.46904 5.11782 0.52891 -0.376388 -1.29191
215 4.44469 2.59058 6.09279 0.591912 -0.733061 0.640269
57 1.76468 1.28222 7.94358 0.645597 -0.422332 -0.860959
490 9.17703 1.97531 11.639 -2.31932 1.77253 -0.795587
125 4.81034 5.85019 11.1227 0.823484 -1.26853 -0.225124
145 3.45191 1.2118 7.43619 0.0864432 -1.405 0.0811931
154 10.0329 5.32543 10.3977 1.14998 1.40204 0.656463
467 3.01607 0.292795 6.3478 -0.471755 -0.275484 -0.539137
283 5.44352 0.0800871 6.89243 -0.514846 -1.73815 0.900339
407 6.50236 0.696918 7.22309 0.30864 0.149552 -0.815622
264 5.35395 1.18373 7.32311 0.237738 -0.774383 0.548791
245 7.35789 0.188818 11.5655 0.289351 -0.0598888 0.94003
406 7.19308 1.47066 7.10446 0.530253 -0.684373 1.34491
186 8.05839 0.515538 6.17327 -0.396767 0.269966 -0.679731
783 7.43025 2.08153 7.8688 -0.913181 0.852105 -1.34776
517 10.363 1.11503 6.29068 1.22613 -0.0435892 -1.36156
766 8.8599 0.480428 7.22314 -0.214382 -2.86171 0.320513
139 6.98532 0.352761 6.17417 -0.461538 -1.94984 1.05917
853 11.5214 1.93931 11.7814 0.965973 1.81597 -0.720611
386 2.40707 1.30814 6.97083 -0.255813 0.78376 -0.471011
95 1.37246 1.94455 6.77557 -0.674144 -0.165186 0.00994056
830 2.17335 2.84185 8.60689 0.140727 0.308545 1.48975
810 2.34233 2.19525 6.46809 -1.21 -0.478801 -1.89165
210 4.60348 1.50031 6.48361 0.330277 -0.0110664 1.13567
108 5.36083 2.66549 7.45593 0.799594 -0.281818 -1.28048
395 5.73985 1.95063 6.79489 1.929 1.53486 2.15452
250 3.96677 2.53117 7.03213 -0.965312 -0.446333 1.06224
132 6.72239 2.33813 6.21878 -0.722387 -0.83345 -1.81596
741 1.84472 3.00809 6.80096 1.91966 0.314545 -0.110623
599 8.43145 1.42234 6.62812 -0.864169 -0.303572 1.07952
593 10.5704 2.1403 6.23681 -0.643701 0.49323 -1.95721
687 6.61383 3.67866 11.1389 -0.799433 1.43873 -1.33338
432 6.4012 1.2671 6.21753 -1.20739 -0.897725 2.03693
278 0.520919 2.38034 6.51303 0.248616 -0.252417 -0.055564
653 0.581958 3.55029 6.50786 1.25614 0.833372 1.0386
430 1.96469 4.43536 6.51929 0.686411 1.60682 -1.02399
269 2.55848 4.83492 7.35869 -0.115403 1.73808 0.890274
679 4.08034 5.08355 7.37946 -1.06252 0.216171 0.485536
183 5.73184 2.94881 6.02604 1.57953 0.573311 -0.816656
565 6.53537 3.47138 6.5775 -0.270825 -0.900291 -1.39963
519 1.61232 5.73021 8.22862 0.445201 -0.885315 -0.841202
769 8.89115 3.74134 6.69621 0.108179 -0.188572 -0.119086
104 10.3198 3.14996 6.52367 1.1698 -1.1179 0.0565286
13 11.4686 3.08843 6.52625 -0.618838 -0.00854815 -0.400425
818 0.170672 3.71205 7.54666 -0.416836 -0.565429 0.97423
25 0.8441 4.40055 6.97 -0.512665 -0.194838 0.591766
549 8.1389 0.802431 11.9859 -0.915788 -1.61541 -0.351784
825 2.50999 5.13087 8.56672 -0.3305 0.790639 1.78929
811 3.12572 3.55563 6.60565 1.48289 -0.124021 0.865006
31 10.605 5.87205 7.94133 -0.201523 0.117797 0.473452
188 8.52365 2.94538 11.8836 -0.946023 0.449646 1.76422
296 3.13882 1.39769 6.04378 -0.144346 1.67851 1.47662
200 8.13236 4.40471 7.54239 -0.255894 -0.161514 0.213813
473 7.03291 4.4537 6.11608 -1.56837 -0.379494 -0.35842
107 5.10207 5.00594 11.621 0.587872 -1.4391 0.0947937
174 10.3265 5.90356 6.82759 1.75584 1.8974 -0.409182
512 9.26458 0.846889 11.6172 0.0624002 0.514898 0.240412
365 11.1537 3.97643 7.16717 1.93643 -0.462509 -1.12302
370 11.8698 1.06715 7.13486 1.93772 1.30274 -1.01769
833 0.662697 1.01057 8.32085 -0.226723 0.827638 -0.767778
246 2.46726 0.108129 7.28121 -0.623427 0.528697 0.773233
322 2.06689 0.690777 8.87225 0.74948 -0.697509 0.29499
319 1.56566 0.248185 6.61184 -0.0147992 2.30477 -0.00465871
824 6.92754 0.727116 9.78941 0.502483 -0.608001 0.450625
781 4.31073 0.641808 7.46807 0.259331 -0.0937716 0.485072
328 8.26948 1.60816 8.58923 -0.111159 0.688987 -0.107178
616 10.118 0.530652 7.87501 0.00489329 -1.54819 0.647798
3 10.8651 0.474353 7.15771 2.57547 1.61398 0.158249
612 10.5262 2.51579 9.27517 1.81711 1.19286 1.0183
631 0.725479 5.07355 6.17296 0.471144 0.708054 -0.235907
345 1.00912 2.24678 8.53583 -1.09317 -0.199663 1.92009
122 4.68462 1.88573 8.04335 0.140701 0.461947 -0.748316
858 3.26606 3.93015 8.39708 0.424971 0.613053 -1.77392
150 7.30953 1.71415 9.10124 0.668094 -0.491593 2.68951
701 6.30673 2.38747 7.78454 -1.06036 0.612291 0.824612
682 9.49989 1.54348 7.66986 0.416717 0.102726 -0.10747
754 8.44381 0.818415 9.71969 -1.05181 -1.25895 1.09698
600 9.7126 3.24438 9.61176 0.546474 0.486751 0.177933
780 10.7722 3.14674 7.44956 1.24058 -0.65354 -0.117277
568 10.7229 1.71286 8.25619 -0.288257 0.641357 1.58513
234 11.4398 2.94197 9.25469 0.402283 -0.148021 0.663784
632 11.5542 0.943693 8.21904 0.68556 -1.10199 -0.00594955
240 11.3944 2.13032 7.33143 0.814495 0.63427 0.619442
539 3.4617 2.73564 7.94269 0.392522 -1.11754 0.857334
457 4.4514 3.22206 7.81894 -2.24125 0.107216 -2.03866
302 6.16527 3.72828 7.70113 -0.682377 1.07501 0.252784
756 8.12766 2.94193 7.43944 2.14795 0.151592 -2.00879
698 6.33047 4.81003 7.78002 -0.270955 0.542847 0.294771
852 8.86134 3.33152 8.8966 0.688563 0.29872 1.1577
142 7.18116 4.0984 7.80475 -1.0176 0.963996 -0.958478
66 9.94304 2.94179 8.50233 -0.999853 -1.97532 0.0987412
159 0.113065 4.98627 8.10057 1.28715 0.873295 -0.759976
20 0.914423 5.58727 7.55348 1.19385 0.147651 -2.14042
30 2.31667 3.89951 9.19161 0.398451 -1.15081 0.615232
719 3.52835 5.24349 8.289 -0.451331 -1.72586 0.000671965
459 3.40156 5.47928 9.27841 1.63403 -0.560437 1.56986
15 4.65408 4.50401 8.73835 -0.941554 -0.412601 -0.899647
171 7.14752 5.16995 8.47152 -0.792237 -0.762489 0.859151
860 8.66185 4.79071 8.26435 -1.20538 -2.1413 1.05664
182 8.28235 5.73877 7.51044 -0.804693 0.0662168 -0.0152548
281 8.45611 5.65161 8.65791 2.09943 0.752233 -0.0512275
509 9.55136 5.91124 8.73252 1.07841 -0.116818 -0.537396
806 9.91191 4.90193 8.11307 -0.398207 -0.284891 0.458269
195 3.34857 4.84223 11.8024 0.788278 -0.594941 -1.52639
850 11.0722 4.99712 8.37256 0.674218 -0.363292 -0.072131
338 7.58304 1.54267 6.14875 0.44225 -0.26734 -0.652127
613 0.53932 0.719641 10.5099 -0.00963533 -0.312196 0.0585748
219 2.35463 0.0256122 9.97402 0.515795 -0.448313 -0.278338
639 5.00074 0.326439 8.74865 0.937644 -0.0837051 -0.626812
366 3.42368 1.38812 8.66598 1.356 0.546275 -1.42396
797 5.85141 0.592742 10.2945 0.220901 -2.1753 0.0877115
229 3.34497 5.50158 10.5695 -0.623291 0.893441 -0.480894
45 8.59378 2.89178 6.19932 -0.0511834 -1.4215 -0.38061
392 9.90106 0.501645 9.40384 0.0875159 0.378145 0.0509549
619 9.31559 0.764586 10.3593 0.342309 -0.228687 -0.944159
518 10.5481 1.59746 9.72684 -0.122918 0.714304 -2.02149
310 0.225976 0.217085 9.65306 0.870206 -1.06835 1.39376
167 3.86611 1.52003 9.80277 -0.576847 0.137709 -0.419131
721 5.69806 0.868401 9.32387 0.243195 -1.76287 -0.292011
618 4.50725 2.46302 9.85196 -1.72977 -2.0597 -0.433205
169 5.78522 2.30718 10.4793 -0.188791 -0.780587 1.13875
812 8.06319 2.25721 10.5843 -0.468685 -1.97316 0.158453
728 7.74685 3.34583 9.86468 0.856359 0.630305 -0.0800169
404 9.98872 2.43633 10.3204 -0.762973 -0.282854 0.376552
282 9.19858 1.8431 10.5435 0.591019 0.254691 0.686458
826 8.77088 2.97242 9.95919 -1.71971 0.635985 0.504273
815 11.5342 2.14453 10.738 2.38299 -0.465665 0.136121
308 0.345027 1.66018 10.1797 -1.01843 -2.28533 0.74423
782 3.31372 4.2433 10.7807 -0.923758 0.991861 0.621932
828 6.04526 4.29192 10.0586 -0.202577 1.54438 1.04026
586 8.8857 2.19768 9.06307 -0.565304 -0.947595 1.12708
557 7.82919 4.57998 8.8377 0.203782 0.314192 -0.130046
258 8.86945 4.22735 9.90945 -0.557025 -0.421088 -2.03096
347 9.45602 4.14587 8.83953 -1.0377 0.249219 -0.896906
731 9.86458 4.33325 10.1867 0.88257 -0.280191 0.746074
677 10.7793 3.13052 10.2218 0.244749 -0.855768 0.615116
152 0.623131 4.89974 9.21044 1.64226 1.09825 0.911726
791 10.7483 4.08574 9.56729 0.716234 -0.815542 1.38636
735 1.48111 5.78564 9.29561 0.949945 0.170267 -1.97696
760 0.410567 2.55552 11.9252 -0.596293 -0.135695 0.013291
635 3.1726 4.55401 9.64511 -1.27956 -2.69935 -1.75191
747 2.2477 5.67392 10.0509 0.568653 0.0219781 0.52711
802 5.01782 3.61446 9.2044 0.550038 -1.9885 -1.52863
116 7.85279 4.65489 10.2324 0.94878 2.07871 -0.896118
849 6.62838 5.01388 9.57101 1.22919 -0.380674 0.0798367
121 5.65974 4.92086 9.0448 -0.280064 -0.0223153 -2.12924
481 6.6399 4.13433 8.76914 0.490028 1.20578 -0.69686
838 7.49687 5.65478 9.94016 0.0269113 -0.341096 -1.07098
716 10.137 5.07057 9.16019 0.764752 1.72103 0.397188
237 9.21677 5.33063 9.78773 -0.180729 0.58225 0.758786
412 1.15316 0.61582 11.4905 0.388751 0.809234 -1.54353
47 11.2076 5.29859 9.56413 -0.623086 1.32273 -1.1782
375 2.21102 0.643587 10.9807 0.785194 -0.798451 -0.678114
437 0.392401 5.39682 11.9926 -1.04862 0.997911 0.0430195
848 3.48889 3.3263 11.6321 1.30952 -0.440316 -1.4663
607 3.61548 0.885057 11.8402 -0.00460813 -1.77981 0.914898
542 4.80658 0.150179 11.7999 1.95693 -0.168708 0.25266
799 9.17842 0.686329 6.10432 0.225456 0.355424 0.244789
427 6.32271 1.57693 10.8893 -2.60927 -0.780114 1.03288
217 10.6475 5.5405 11.1702 -0.616282 0.326484 -0.38338
393 5.76736 0.55326 11.3299 -0.551436 -0.274073 0.674196
738 8.22118 1.16796 10.888 0.143007 0.384702 0.0592238
202 10.5933 1.70047 10.9647 1.87205 1.36378 0.397053
71 11.9433 0.339832 11.7847 0.48255 0.0119363 0.704034
816 11.5694 0.974976 10.787 -0.615472 0.740039 -1.59745
588 0.475889 1.68487 11.1996 -0.767223 -0.681245 -0.213845
487 3.87649 0.60492 10.3048 -0.209317 -0.19869 0.598995
49 5.76453 1.46787 11.9621 -0.318133 -1.00914 0.0481775
382 2.70913 5.27111 6.0561 0.380945 1.0444 -0.252828
70 7.37968 2.49433 11.3054 1.32032 0.973975 1.51376
743 8.03208 1.86342 11.7025 -0.103335 -0.457742 -0.900768
405 9.36609 3.09753 11.1569 0.293307 2.53801 -0.9101
261 11.6804 4.59908 6.0591 0.62946 0.0284641 0.32063
88 11.658 3.42708 11.4577 0.566637 -1.41221 -0.936719
859 7.54783 3.65029 11.6867 2.03482 -1.16942 -1.02797
102 8.33239 3.3946 10.9933 1.31171 1.75497 0.0270781
251 9.20584 3.82749 11.7814 -0.100458 -1.1933 1.47062
131 10.9409 2.66194 11.3584 -1.36826 -0.902654 1.05879
530 9.27535 5.37791 11.1293 -0.843326 -1.87153 -0.557281
443 0.386585 5.89492 10.8182 0.156518 0.897503 -0.211276
94 10.649 0.450397 11.0154 0.690885 0.552154 -2.09228
748 11.4326 4.59628 11.395 -1.1173 0.774433 -1.14307
740 2.28848 5.37534 11.3673 -1.15221 0.934767 -0.786076
208 5.11272 5.92511 9.74675 -0.814848 0.312813 1.15299
242 4.34996 4.64995 9.78441 0.198635 1.45452 -1.05173
394 6.16153 5.65773 11.563 -0.764483 0.503431 1.1549
466 8.3757 4.37184 11.3267 -0.345137 -0.856068 0.126592
355 7.58041 5.1485 11.0917 0.447153 0.960391 -2.10886
660 4.06168 0.520066 6.34054 -1.51458 -0.123375 -0.37408
821 9.14173 0.674661 8.53431 -0.0539036 1.96805 -0.13483
843 10.9328 1.23733 11.9747 1.49675 -0.602996 0.338409
369 7.06385 4.54848 11.7826 -0.921377 0.416461 0.46505
755 6.9026 5.92827 10.7381 -0.182459 -0.214439 0.736
762 0.491227 7.44665 1.26666 0.426223 -0.388929 -0.606279
330 11.9819 7.12987 0.178392 -1.06262 -0.558973 -0.206529
704 1.97788 6.6026 0.0901114 0.108646 -1.02194 0.853311
135 0.253731 6.0906 0.913126 -0.666423 1.13169 -0.711236
29 2.69279 7.04971 0.95158 -1.32069 -0.237679 -1.38551
413 3.32429 6.57232 2.00626 -0.276248 1.1611 -0.0704107
520 5.08289 11.6577 2.86416 0.192297 -0.278552 -0.180058
736 4.9517 7.8345 0.688044 1.99838 -0.0522322 0.540445
665 6.6654 6.82651 0.519599 -1.02894 0.419744 -0.344446
654 8.84878 7.39311 0.976104 -0.723027 1.38609 0.63501
455 10.7965 6.28886 0.18438 -0.0651686 1.45633 0.378445
448 9.84884 7.36902 0.840307 1.891 0.557168 -0.685829
400 11.2146 7.39723 0.96506 -0.111845 1.14624 -0.238948
559 1.13107 7.8193 0.650781 0.348173 -1.00931 -2.20963
661 0.763761 9.65475 1.94131 -0.615166 -1.33812 -1.48184
710 2.85819 8.27662 0.613612 0.0643823 -0.193628 -0.0917448
417 4.1315 8.3817 1.81458 -1.1511 -0.339988 1.37996
93 5.87165 7.69225 1.18855 -0.410238 1.24228 -0.143737
317 6.84719 7.40412 1.44656 1.14703 -0.02723 0.0719924
496 6.99772 9.34184 1.22423 0.753302 -0.0211506 -0.0392852
158 8.06107 7.06639 0.336253 -0.570579 -1.6904 -1.01455
184 7.77229 9.00261 2.09539 -1.87865 -0.0695394 0.534348
510 9.18695 6.05871 0.0959585 1.66081 1.91557 0.08553
817 7.98046 8.23877 0.552749 -1.90583 -0.14383 -0.422025
733 9.56285 8.3016 1.7465 -0.586739 0.301983 -0.108863
592 11.5765 9.59621 1.6945 -0.653734 -0.00479267 -0.195645
357 10.2828 9.08003 1.27215 -1.72074 0.341565 1.95002
674 11.3792 8.82754 0.3266 -1.23837 1.36835 -0.935492
411 0.46357 9.56096 0.714781 -0.307396 1.40204 0.189112
173 0.762883 10.5634 1.39238 -1.87981 -1.22714 0.481745
52 3.3629 9.53169 1.08538 1.31123 1.87964 -0.0185449
253 1.39658 9.35929 1.16064 -0.122161 1.19897 0.199087
726 2.12615 11.5446 1.05038 0.589936 1.9513 0.458485
445 2.79488 10.5639 0.765353 1.42908 -0.943053 -0.439047
351 3.91176 10.3794 1.13432 -0.125921 1.08033 1.00873
753 5.58689 9.32551 0.790975 -0.265488 -0.77634 0.518556
493 6.55579 10.4731 0.970138 -2.29889 0.985401 1.21106
260 7.39744 10.2171 0.00177575 0.47039 1.10179 -0.642394
814 8.51983 9.93756 1.82864 1.36817 0.480683 0.126346
23 9.53114 9.80045 1.44437 -0.531148 -0.759669 0.267825
289 8.88869 8.78329 0.912964 0.131445 -0.679692 1.4221
862 10.2723 9.92194 0.245109 0.959277 -0.342166 0.408148
774 0.0287723 10.706 0.587365 0.573701 0.774063 0.312194
8 10.5921 10.4774 1.15587 -0.990169 1.84035 1.01664
458 0.31563 10.923 2.31648 0.05043 -0.718837 -0.893975
742 7.09931 6.36638 2.51908 -0.635242 -0.189511 -0.344517
789 0.10939 11.9712 0.828821 -0.454201 -0.647867 -1.95492
41 1.16877 11.8131 0.582578 0.177113 1.14227 0.0590494
373 3.78892 11.1186 0.290832 0.162108 0.0799395 0.267857
734 3.98357 11.1993 1.68603 -0.534601 0.261027 1.02895
603 5.68418 10.688 0.316761 -0.379904 -0.430324 -0.388065
461 4.73841 11.3186 0.80071 -1.03733 -0.760849 1.26189
585 4.49481 9.31126 0.236899 0.656475 1.20166 0.824703
397 8.30292 10.8906 2.12702 -0.245997 1.26638 1.57328
839 8.73624 10.5242 0.672129 1.89681 -1.83343 -0.43698
398 5.20612 11.7416 4.36424 -0.254895 -1.48812 1.13036
76 10.9499 11.6017 1.18822 0.25698 -0.558215 0.501196
622 11.0547 11.3906 5.86622 -0.683769 -1.51569 0.837516
523 0.92571 6.54972 3.63394 -0.738781 0.351654 1.64122
239 1.25734 6.81695 1.50462 0.114426 -0.896226 -0.471714
62 2.37459 6.782 1.88994 -0.785448 1.53259 -2.18648
611 2.09148 6.02995 1.22515 0.145242 -1.14946 0.182823
315 3.0493 7.32557 2.75494 1.70885 1.06582 1.14918
746 3.84788 7.19229 1.02823 -0.297786 0.677967 -0.998606
857 6.74045 8.27251 5.55406 1.00764 0.0760727 -0.489526
491 8.83382 11.6874 0.554573 0.020948 -0.559122 -1.26056
46 9.84223 7.52377 5.54819 0.165534 2.00408 -1.35718
86 6.08254 6.52129 2.08808 2.40393 -0.723147 -0.350837
106 7.18783 7.56315 3.11649 0.919532 0.0209214 1.34496
547 8.54688 7.92348 1.86641 0.501283 1.5724 -0.680618
744 7.68422 7.05128 1.91596 0.665443 0.458366 0.294865
153 9.49639 6.9626 1.8285 -1.11123 -0.85672 0.877112
235 10.5165 7.26069 2.68612 0.676111 0.865663 0.402351
681 10.5073 7.03554 1.67723 1.16567 0.285979 -0.331687
252 11.6489 7.25545 1.96378 0.133038 -0.94231 -0.198803
504 0.273897 6.11027 2.34823 2.15808 -0.250026 -0.179591
609 1.21704 8.08535 1.8623 -0.644669 -0.254235 -1.54725
767 0.00779555 8.8625 2.90455 -0.451305 0.918294 0.137581
170 2.05241 7.82422 1.29007 0.673629 -0.574311 0.065009
717 1.84781 7.56784 2.49899 -0.0560969 1.29205 0.704556
270 1.93 8.93111 2.09392 1.07714 0.935823 -0.669079
388 3.05528 7.70324 1.68105 1.98506 -0.849335 0.592982
61 4.17329 7.68555 2.87213 -0.122479 -1.9851 0.835915
582 4.55189 6.63575 2.29342 1.44175 2.46953 -0.180108
666 6.18841 7.5234 2.42661 -0.0615834 -1.02381 0.997565
438 6.87129 8.36732 1.98359 -0.660162 -0.580364 0.133393
124 8.16764 9.22342 3.15539 0.348554 1.48461 0.0983754
257 11.1652 8.38965 2.42891 0.746619 0.713496 0.847244
130 9.09333 7.58952 2.89419 -0.986492 1.10395 -0.195124
212 10.7708 8.20385 1.45767 1.56707 0.111228 0.29074
293 11.7714 8.48982 1.27261 0.726363 0.54019 -0.464188
823 11.3035 9.9024 3.00335 -0.170116 0.88513 -0.366613
836 2.007 10.0174 1.76521 1.60407 1.15378 -0.0503106
809 2.76282 11.0876 1.92969 0.0634501 -0.171808 1.78231
678 3.21351 8.83694 2.27244 -0.745064 -1.34451 -0.0220976
513 3.52775 9.78594 3.22421 -0.644776 -1.87848 0.203609
288 3.43559 9.91129 2.02919 -3.00904 0.115987 0.312997
688 6.53554 9.79757 2.17092 0.725264 0.0244392 1.41349
695 4.64111 9.55758 1.32337 -0.935819 0.935344 -0.293832
279 7.68386 10.6668 1.1519 1.19888 -0.675126 0.195235
203 8.95071 8.74405 2.54898 0.110004 0.125058 1.6006
379 7.53879 10.1299 2.39815 -0.960986 0.285767 1.37752
463 9.62953 10.5919 3.43262 -0.202719 -0.2866 -0.411065
764 8.5534 6.39885 1.63991 -1.32761 -0.0644319 0.641222
73 11.8361 10.8749 3.83413 0.0264853 -0.618528 2.22229
206 2.15367 11.5447 2.8919 -0.0662326 -1.82519 0.0930566
77 1.55277 11.2043 1.94944 2.0001 -0.102982 -0.105093
21 3.96065 11.0332 2.7429 -0.552521 -0.60989 0.71866
192 5.11298 10.4528 1.18615 -0.313054 0.101309 -1.72205
156 4.9491 10.6371 2.29284 0.208021 -0.37392 -1.01626
758 5.98943 10.9591 1.749 -0.881375 0.444812 -1.16944
189 6.03344 8.47958 0.210612 1.53681 -1.07232 -0.111089
138 9.51489 9.99271 2.56531 2.97384 -0.159695 0.695953
856 7.01141 11.2321 1.94056 -1.96151 1.95276 -1.50551
617 7.95848 10.7819 3.45028 -0.896059 0.00467252 0.0762404
500 10.0569 11.5648 2.71956 -0.753755 0.873538 -0.304279
532 11.3984 11.2098 1.98677 -1.00661 -0.251436 -0.20258
98 10.5553 10.5674 2.48509 -1.53813 0.713868 1.60704
531 0.929931 6.18808 5.6535 0.216834 0.348161 0.928518
436 11.2836 6.15924 4.10036 -1.15915 2.6091 -0.232389
165 1.88157 6.84742 4.54671 0.34138 -0.464244 -0.418212
90 2.19182 6.27614 3.83968 0.500245 0.0559219 0.174188
59 2.89563 7.03293 4.25899 -0.0452865 -1.40272 -1.61404
349 4.93044 7.92587 3.79609 0.244544 2.37236 -0.331637
226 8.35351 6.19104 4.38413 -0.897248 -0.74813 0.992758
479 7.67346 6.43015 3.4988 -0.0512975 0.309335 0.544286
360 9.33606 6.42321 3.00422 0.592712 0.317434 -1.79742
337 10.7787 7.01298 3.64451 0.00636989 0.414378 -1.54925
56 0.0295059 9.90801 5.90244 -1.16284 -1.2925 -0.581524
578 0.406378 7.29301 4.4564 -0.267554 1.66041 1.42306
627 11.5079 6.63794 3.03216 1.14112 -1.48283 -0.496112
422 1.39186 8.06917 3.63293 0.504769 -0.999757 -0.236706
837 2.38854 8.54056 3.55612 0.0739202 -0.29038 1.80783
101 1.94353 7.95989 4.52718 -0.183202 0.796323 -1.08438
751 2.26114 7.35302 3.51078 -1.32396 0.420084 -0.250883
630 3.8877 8.80182 3.76015 -0.230818 1.22407 0.369174
294 6.0952 8.58411 3.12641 1.71909 -1.11838 0.000238075
794 6.6258 8.43535 4.36132 0.680185 0.202844 0.826803
163 7.25121 8.63795 3.56462 0.447902 1.71308 -1.83692
800 8.15091 7.62659 3.74657 1.174 -0.604708 -1.59988
564 6.94328 9.47736 4.28648 0.724847 0.364597 1.65844
485 9.80504 8.58511 5.17351 -1.58434 0.457475 -1.36049
804 9.93062 7.72005 3.97536 1.14201 0.0219561 0.0509396
233 10.0559 8.596 3.49174 1.16204 0.537318 0.337921
647 11.4913 7.68808 3.80659 0.071349 -0.0681049 -1.03994
24 1.25215 9.25175 3.5539 -0.848676 0.0722461 1.71409
521 1.04232 10.102 4.41802 0.807792 0.117645 1.07763
525 1.06726 10.1681 2.75053 -0.565679 0.731106 0.486414
861 0.344898 8.64818 4.21728 -1.4803 -2.06122 0.100904
329 3.28431 9.70554 4.44326 -1.00851 0.974532 0.211293
535 4.42582 9.60764 2.36884 1.59758 1.59073 -0.274512