ITEM: TIMESTEP
47100
ITEM: NUMBER OF ATOMS
864
ITEM: BOX BOUNDS pp pp pp
0.0000000000000000e+00 1.2000000000000000e+01
0.0000000000000000e+00 1.2000000000000000e+01
0.0000000000000000e+00 1.2000000000000000e+01
ITEM: ATOMS id x y z vx vy vz
566 1.08199 0.837715 0.608162 2.1872 0.495866 -1.10485
298 2.20274 0.154652 0.602776 0.427412 -0.169591 0.292661
734 3.17766 0.555913 0.898654 0.563916 -0.321977 1.06026
245 4.38819 0.187149 1.08934 0.38236 -0.938637 -0.917969
415 4.66943 1.48149 1.33116 0.925965 0.384964 -1.58366
497 7.27422 0.471519 0.443203 -1.12967 1.24781 -0.0648968
515 6.54745 1.08206 0.0775609 0.56872 0.488941 0.668614
570 8.4116 0.709275 0.90221 -0.939607 0.798794 0.543116
491 7.74504 1.43737 0.627615 1.10982 0.113477 1.22545
361 9.66533 0.97867 1.47139 1.00676 -2.3012 -0.196351
205 9.94498 0.653438 0.226979 -0.679892 1.26087 -1.34401
151 10.5087 1.58804 0.579182 1.15309 1.87194 -1.31694
27 11.9523 0.864644 0.535625 0.582217 1.68427 -1.0052
321 8.143 5.17299 4.75187 -1.77382 -0.99883 0.403745
840 0.930017 2.33222 0.979311 -0.19012 -0.525523 1.30976
173 1.78241 1.9207 0.23697 -0.469959 0.115632 1.43263
424 4.36239 2.03806 0.259889 0.339866 1.1165 0.299419
344 3.30545 3.14592 0.642195 1.30235 1.59996 -0.364688
150 5.48766 1.7955 0.284274 -0.625423 -0.663745 0.692968
59 5.22224 2.47214 0.929934 0.144391 -0.936423 -1.20452
712 8.76605 1.83351 0.573337 -0.681444 0.112129 0.764018
549 7.89059 2.4253 0.356719 0.768761 -0.0574014 0.147648
468 8.93991 2.84675 0.461144 0.379447 -0.124162 1.59641
768 9.64882 2.01068 1.20165 0.633218 0.480323 0.602189
79 10.0257 2.6891 0.510712 -0.161323 -0.0472521 0.203863
685 11.0745 1.85965 1.3109 0.687274 0.0492011 0.557652
154 0.0150514 2.03076 0.350616 0.423634 -0.571835 2.14485
103 0.932336 4.115 0.127437 -1.67445 -0.771246 -0.421546
430 1.32389 4.02031 1.48962 2.15211 -0.248278 0.636402
663 2.56075 4.2225 1.09295 1.07242 -0.275193 0.432922
657 1.93145 3.08256 1.49879 -0.357248 -0.801907 2.32602
849 3.90109 3.11428 1.61702 0.924827 -0.253302 1.98857
127 4.4681 3.86615 0.213638 -1.50186 -0.170382 -0.383205
542 6.10227 2.95165 0.375181 1.48559 -0.543971 1.03834
251 7.45248 3.59472 0.510547 -0.672766 0.676533 -1.77941
492 6.46149 4.00043 0.994617 0.415574 0.358355 -0.722983
188 8.29116 4.19176 0.444238 -0.901188 -0.645845 2.85121
402 9.34175 3.90095 0.720189 -0.212346 0.198108 -0.83657
53 10.5746 3.98871 0.653054 -2.42347 -1.26554 -0.0806551
399 11.5767 3.78498 0.958094 1.15793 0.272313 -1.10515
157 0.418497 4.74652 0.923476 2.20041 0.0584724 -0.420128
135 1.33914 5.37821 0.857726 0.498148 0.0143991 -0.645792
209 0.478645 5.8709 1.28942 -0.511761 0.867425 1.64466
305 3.33682 0.967675 0.0115928 -0.435297 0.359647 -0.67935
620 4.20153 4.91805 1.27461 0.268505 0.474453 -0.327628
577 5.62363 5.84644 0.740171 0.981899 -0.805728 1.38895
266 4.68807 5.93172 1.47927 0.85285 -0.632452 0.552659
54 7.30078 5.41992 0.439013 0.569507 -1.40616 0.374165
713 7.47277 4.56673 1.10113 -0.684265 0.447168 -0.644515
666 8.50738 5.38204 0.44569 -0.299587 -1.57004 -0.333718
70 10.3097 4.92166 1.07014 0.940966 0.377144 0.752102
859 9.48403 4.88974 0.0901337 0.104304 -1.17804 0.556114
466 9.60212 5.79037 0.933419 1.0898 0.181282 -0.790093
583 9.09417 4.80969 1.26246 0.350215 -0.382565 -0.115156
655 10.6088 5.37249 0.130786 0.208418 -0.644488 1.04201
615 11.4393 4.89359 1.24824 0.654452 0.476417 -0.289447
363 11.2777 5.96741 0.560061 0.0748236 0.0292185 -0.645745
494 11.6111 4.84741 0.0850012 -0.277093 0.218578 -0.174797
726 0.478542 0.8362 1.57105 -0.442995 0.897635 0.40839
72 1.27977 1.13399 2.62597 -0.292128 0.63048 -0.66994
262 1.81431 1.53532 1.61659 0.502017 1.02153 -0.0128158
538 2.27166 0.581978 1.62807 2.22511 0.6542 -0.610853
288 2.37394 0.858347 2.81883 -1.75107 1.33656 0.661212
99 3.63584 0.492024 1.87006 -0.458838 0.441594 0.939238
651 3.48179 0.205945 2.85873 -0.113969 0.474746 0.775546
417 4.78597 0.34624 2.3568 1.7685 -0.836571 0.232617
285 5.31985 1.26172 2.55726 1.00129 1.10478 -0.0788902
646 6.39403 1.23325 1.3668 -0.308218 0.957103 -1.66493
349 6.32718 0.602726 2.32798 -0.16372 -1.72635 -2.74995
775 7.64346 0.988599 1.76062 1.35778 1.88695 0.98776
579 8.51466 0.19237 2.53477 -2.2807 -0.348125 -0.380621
614 9.2896 1.32392 2.36055 -1.2754 -0.769044 0.640732
684 10.4333 0.805007 2.23288 0.275412 -1.41143 1.57788
707 9.86399 0.152747 2.89653 1.25093 -0.534494 0.832709
771 11.46 1.12477 2.56305 1.2356 0.985944 0.968463
387 1.28898 2.49494 2.25204 -0.550268 0.681519 1.11202
573 0.358698 2.21989 2.42292 0.546226 0.822347 -1.38354
286 3.09489 2.58364 2.95893 -1.01614 -1.79832 2.2538
368 4.808 2.34946 2.23148 -0.42402 0.601842 1.6877
224 5.89182 2.16835 2.33504 -0.970574 -0.502493 -2.25791
199 7.38499 2.13372 2.35975 0.290478 -0.0246517 -0.697753
650 8.4416 1.94916 1.90933 -0.599416 1.10535 2.00631
110 8.61865 1.87281 3.06499 1.57236 -1.7322 -0.87594
765 9.04098 3.04987 1.57484 -1.55482 0.951514 -0.871456
15 0.621853 3.21023 1.71115 -0.558162 -1.59916 -2.68986
341 2.7249 4.2727 2.89213 1.55654 -0.751799 -0.609862
311 1.57645 4.05319 2.62913 -0.317384 -2.46484 -1.69882
611 4.91273 3.92776 2.39528 -0.281783 0.491638 1.36969
299 6.1444 4.26739 2.43083 2.05474 -0.528346 0.725658
536 5.79279 3.25757 2.46227 -0.478904 0.390764 -0.822817
812 6.842 3.46234 1.98851 0.0940296 0.762497 -1.36501
477 8.04139 3.15217 2.5277 -0.278677 -0.761243 -0.410993
306 8.16686 4.27553 2.84298 1.78599 0.970277 0.49638
522 10.5316 3.026 1.44466 0.726529 0.00716131 -0.847787
28 9.89196 3.99519 1.8559 0.194036 1.45448 -0.397538
254 9.18804 4.00695 2.89144 -0.0364781 -1.07828 0.132281
196 10.8609 4.54591 2.04187 0.719584 0.887474 -0.026412
114 1.10915 5.18658 2.34814 -0.286844 -1.80249 0.402263
239 2.18897 5.55633 1.83952 -0.379386 0.154593 -0.904468
627 1.99841 5.24316 2.98786 -0.930529 1.09991 -1.66391
488 5.49883 5.15462 2.01796 -0.133711 -0.592182 -0.239689
527 6.81481 5.02477 3.00483 0.208505 0.222538 2.2307
90 6.90837 5.78202 2.29472 -0.0782287 -0.712307 0.0990644
659 8.19758 5.28458 2.8645 -0.141185 0.981104 -0.751029
61 8.1903 5.50793 1.67684 -0.338767 -0.94832 -1.87723
742 9.29058 5.79713 2.09855 -1.12836 1.02209 -0.707462
343 10.0514 4.58659 2.76868 0.584735 0.3814 1.47241
129 10.3706 5.71747 1.90301 -0.258812 -0.292915 -0.899701
64 11.9304 5.00935 2.27872 0.76637 -0.657265 0.363697
337 11.5167 5.94388 1.7278 1.42681 0.840211 -1.11055
640 0.864685 0.110098 3.95835 -1.21824 1.09891 -1.07611
694 1.42706 1.13571 4.47814 0.710129 -1.79977 0.715112
117 3.07812 0.419182 4.29311 1.39172 -1.56364 1.03153
652 2.66725 1.50303 3.90804 1.28991 0.876271 -0.670596
758 3.61973 1.41524 3.29952 0.234685 -0.281345 0.13117
55 4.66807 0.938085 3.68499 -0.252228 -0.461079 -1.11523
638 5.61721 0.328289 3.28466 0.202755 0.76571 -1.67245
705 5.40074 0.654299 4.34596 -0.37231 0.108201 -0.682258
105 6.51533 0.977795 3.68627 -1.70507 1.83149 0.631948
156 7.68371 1.16155 2.92567 -0.608112 -0.471275 -0.828968
144 8.63057 0.60427 3.53038 0.846123 -0.638794 -0.266955
397 8.64664 1.21207 4.45481 0.441777 1.91506 0.38255
69 9.78528 0.41075 4.41189 -0.327187 -1.52594 -0.754695
147 9.95458 1.15425 3.35789 1.22705 -0.246192 0.164982
73 11.1156 0.606871 4.41846 -1.21172 0.310393 1.8204
177 11.9417 1.26526 4.60894 0.551065 -0.416752 1.44734
320 11.3447 1.40727 3.63218 0.688845 0.877863 -1.47094
367 0.875447 1.65094 3.58751 0.119866 -3.12769 -0.647627
571 1.85228 2.22671 3.27389 0.726054 -1.00922 1.55105
346 4.16125 1.82682 4.37575 -0.565739 0.360685 1.99802
834 3.49789 2.70193 4.22714 2.04998 -0.714285 -0.092932
2 5.80457 1.79461 3.69689 -0.281123 -2.33074 1.17465
427 4.57534 1.97102 3.37106 -1.34227 0.0962766 -0.581726
540 4.56111 2.75978 3.96746 -0.32521 -0.689264 -0.0437843
327 5.90192 2.88506 3.4393 -0.909229 1.83303 -0.890938
617 6.79377 2.33057 3.35869 1.42911 -0.330435 2.47023
749 7.25752 1.9048 4.18064 0.321467 1.15278 -0.555486
590 8.28986 2.43657 3.86588 -1.92882 1.73836 -0.0686178
12 9.37289 2.54482 3.6658 0.156537 1.73376 -2.3669
354 10.4033 2.46715 3.24788 -0.351605 -0.354213 -0.515828
500 0.603926 3.21505 4.36859 0.903116 -0.0496874 -0.995998
198 1.94327 3.6283 3.77765 -0.670113 0.679716 -0.210407
380 2.98504 3.49388 3.68809 1.03131 -1.46082 -0.104212
35 5.35858 4.11525 3.50538 -0.212447 1.66351 -1.41666
562 6.41603 4.1202 3.59436 0.584714 -0.685495 -0.62591
193 6.54325 3.26772 4.14249 -0.801846 -1.8877 -1.1507
464 7.49492 3.07033 3.84572 -2.04847 -0.106289 1.86929
87 8.64105 3.38508 3.76771 -1.05717 -0.806315 0.44104
106 9.7658 4.40213 3.86516 1.31685 0.909976 -0.521647
596 11.4687 4.03959 4.26802 0.669367 0.999895 -0.427398
137 10.4929 3.77276 3.55267 0.38588 -1.31232 -0.992807
261 2.10561 5.23451 3.96014 0.605738 2.11055 2.27777
388 3.41524 5.25954 4.42178 0.0187535 -0.950003 2.01735
537 5.86026 5.6392 3.12228 0.729216 0.409932 0.0690027
575 5.10852 5.83285 3.82016 0.518476 0.569033 1.51703
195 7.06696 4.74524 4.30527 -0.643937 0.766507 1.16207
331 7.7504 5.61629 3.92906 -1.8033 0.210124 1.04023
730 8.60367 4.48457 3.84906 1.00966 -1.15114 -0.391775
547 9.36423 5.33471 4.18687 0.231589 -0.754168 -0.372869
226 9.20029 5.37729 3.15544 -0.48962 -1.07222 0.273603
822 10.7278 5.51653 3.21102 0.590508 -1.28601 1.48702
272 0.595218 0.824241 5.2092 -0.402458 -0.0381895 0.423983
297 2.23397 0.926345 5.20463 0.773665 0.421861 -0.000877565
467 3.08065 1.29392 5.84056 -0.181205 -0.228748 -0.257693
43 4.78732 0.961212 5.14518 0.821976 -0.317981 0.0430425
609 0.954576 5.98295 3.10693 -1.1393 -0.411994 -0.324258
42 6.74644 0.743161 5.77541 -0.640698 -0.573364 0.332436
78 6.30479 1.28278 4.71437 -0.326334 -0.461431 -0.486171
124 7.84125 0.680953 4.84796 -0.320978 0.0484313 -1.12521
255 9.53503 0.577135 5.86247 -0.802636 -0.521016 0.724835
276 9.80933 1.53643 4.67149 -0.539738 1.17355 -0.0253972
653 10.3985 1.07417 5.59315 1.56145 -0.994207 -0.0113478
458 11.7055 0.196491 5.49449 -1.67811 -1.31723 -0.588959
290 11.6294 1.19176 5.78471 -0.0677797 1.19007 -0.129072
107 6.38597 5.91788 0.0818841 -0.523674 -0.628471 -0.762275
353 1.34303 2.09939 5.47586 -0.611225 -0.328608 -1.30313
215 3.4236 2.18228 5.13119 -0.408029 -0.936828 -1.22166
679 5.12847 1.83112 4.67469 0.180214 -1.26335 0.893094
418 4.69306 2.33168 5.43387 -1.16069 0.502422 -0.342056
280 6.10144 2.26643 5.71046 0.217947 -0.726706 -0.919011
265 7.22279 2.55155 5.55733 -0.109072 1.09541 -0.589655
662 7.83439 2.58683 4.75326 -0.000397626 1.91461 -0.17437
175 8.89663 2.89634 4.842 -0.915268 -0.16332 -0.315332
273 9.67473 2.63036 5.82689 0.702805 0.022265 1.32553
82 9.15495 1.7815 5.70967 -0.611155 0.00735964 -0.270944
691 0.0168394 2.15911 5.12723 1.04027 1.14071 0.759271
163 10.828 2.60719 5.92215 1.28542 -2.61851 0.193198
51 10.9897 2.09828 4.71938 1.33703 -1.28763 -0.750011
267 1.37759 4.02228 5.80787 -0.664052 -0.163918 -0.966577
278 1.60688 4.25442 4.70955 1.22461 0.972725 -0.350759
174 0.127253 3.71222 5.20285 -0.162398 -1.83213 -1.11521
133 1.79612 3.01012 4.92974 -1.44824 -1.33477 -1.57083
858 3.09308 3.62256 5.02897 0.215257 -0.378617 -1.60507
724 4.40076 3.79769 4.44398 0.598465 1.20432 -1.61574
62 3.75143 4.31617 5.31533 0.975647 -0.0912004 0.700582
770 4.32542 3.39284 5.77748 1.0937 1.47587 -1.55342
168 5.33346 3.28894 4.82494 -1.62661 -0.641856 1.35904
848 5.91248 3.56223 5.67456 0.114536 0.349521 0.495492
160 4.9385 4.15046 5.36482 0.0115496 0.591841 -0.189427
506 5.70713 4.40349 4.44166 0.962672 1.8092 -0.371718
132 7.09955 3.69154 5.04762 -1.16018 1.08824 -1.81449
565 6.96741 4.29324 5.97048 0.423263 -0.893823 1.3163
785 8.20186 3.68581 4.78485 -0.375496 0.771379 -1.20261
514 7.81845 4.42231 5.35263 -1.40623 -0.154346 1.47753
243 9.06748 4.29418 5.00874 0.31239 -0.234232 -1.65518
96 2.26041 5.1041 5.01076 1.03086 1.59704 0.777104
516 3.21476 5.87765 5.37433 0.727876 -0.222155 0.600078
332 5.92211 5.68577 5.66563 0.00711623 0.918088 -0.303633
335 5.1424 5.51744 4.93358 -0.0143247 -0.675844 -0.730627
259 5.89789 4.61654 5.51157 0.803599 -0.82318 -1.97881
58 6.22513 5.48752 4.62541 0.164646 0.120634 -0.714604
232 7.5313 5.84788 5.7328 1.02371 0.383995 -0.908999
231 1.39159 0.0545757 2.12057 -0.00886122 2.21948 1.04842
264 2.9535 2.79744 5.9653 1.08887 1.36645 -1.17903
479 4.41649 5.72526 5.98233 -0.897728 -1.99994 -0.888871
550 10.379 0.00317153 1.33196 -1.1832 0.771619 0.429912
66 0.893894 0.785507 7.00739 -1.70713 0.170619 -0.0357499
660 1.60969 0.927072 6.30282 -0.745714 -0.585254 -2.10406
246 2.64785 0.775261 6.63279 -0.466435 -1.16157 -0.407179
703 3.99675 0.774544 6.61498 0.392089 -0.137409 -0.675873
326 3.37114 0.247878 7.26652 1.08673 -0.375761 -0.19723
406 6.42499 0.710735 6.98917 0.171476 0.296484 -0.969627
19 7.37816 0.751285 7.00119 -1.4936 -0.136385 -0.0122569
314 10.104 0.929367 7.20445 0.663749 0.389772 -0.157179
395 9.1022 1.39015 7.24578 0.199194 1.23435 -0.486449
3 11.7838 0.638223 6.64088 0.220608 -0.0177544 -1.86148
593 1.28722 2.06996 6.82905 0.357829 0.0300822 -0.274496
307 0.11395 2.96403 6.15137 0.155419 -0.396841 -2.4561
13 0.334534 2.33175 7.31589 0.120525 0.928168 -0.0201729
218 3.16913 5.92501 7.63144 -0.593361 -1.87964 -0.877147
300 3.85914 2.44764 6.09189 -0.662865 -0.836796 0.305283
757 4.80105 1.67248 6.21385 -1.20743 0.352363 0.911634
432 5.71144 1.82334 7.21625 -0.824224 0.459644 1.0707
122 4.54489 2.33712 7.26926 0.360373 0.197264 0.588116
740 5.67855 2.79376 6.77787 0.330057 -1.23227 0.103791
473 7.31274 2.55915 6.69737 2.42028 -0.625112 0.991358
425 7.95857 1.67003 6.32374 -0.79766 -0.973462 -0.249688
104 8.40866 2.44736 7.11929 0.922435 -0.918572 -0.34285
200 8.55748 2.68896 6.01853 1.6492 -0.667346 -0.103332
225 9.84382 1.80488 6.4507 -0.168799 -0.831759 0.637383
292 9.46718 2.62818 7.00938 -1.41387 -1.24573 0.93628
31 10.6913 2.34097 6.8888 -0.537468 0.311845 1.59188
628 11.6243 1.99869 6.51207 1.23259 1.93906 -0.435314
26 11.1049 1.60425 7.64447 1.33667 1.28133 0.695546
811 1.13326 3.11601 7.23935 -0.650589 -1.27098 -1.06949
780 11.9675 3.36657 7.36573 0.124357 1.3852 -1.47193
810 2.16136 3.25069 6.88679 0.392663 -1.73842 2.20317
221 4.05551 3.10366 6.81545 -0.956498 -1.62198 -0.842326
457 5.5121 4.27073 6.63234 0.737628 0.0306349 0.472791
376 7.78911 3.72571 6.30685 0.89607 -0.464103 0.918784
806 9.53164 4.04958 7.33941 -0.118506 -0.198099 0.628464
390 1.51278 5.43116 6.43004 0.973968 -1.87961 0.195492
699 0.66554 5.82343 6.91844 -1.00504 -0.836728 0.0106595
519 2.6669 5.39824 6.35339 -0.473051 -0.0178517 -0.116449
112 1.99792 5.70658 7.389 -0.343401 0.288108 2.89307
171 4.26322 4.95073 7.01234 1.63695 -1.919 -1.09968
302 5.2307 5.23082 6.63523 -0.189821 -1.70232 0.860042
784 9.62315 5.89217 11.7204 -1.62004 0.11509 -0.937659
121 6.33848 5.16614 6.64554 -0.21947 1.46482 1.57444
783 8.02161 5.00899 6.56266 -0.709087 1.89249 -0.24898
860 8.5926 4.93452 7.34874 -0.177805 -1.04687 1.08297
182 8.59321 5.78729 6.91819 0.487804 0.568018 -1.78198
711 10.2049 5.31282 6.22945 -1.59254 1.6491 0.355369
578 10.5575 4.42367 6.94821 0.430816 -1.19329 0.333686
576 11.2052 5.79106 6.1478 0.680755 1.18653 -0.0281562
356 1.15952 0.50099 7.9964 -1.03197 -1.2941 0.142603
95 1.97507 1.50621 7.49255 -0.151651 0.546525 -0.862893
792 2.69194 0.441427 8.01692 2.83106 1.65702 -1.77784
366 4.21306 0.994113 7.92742 -0.62393 1.26268 -0.8977
766 5.17863 0.658544 7.5774 -0.775588 -1.28318 -0.236773
204 5.24503 0.564074 8.57409 -1.56438 -0.990591 -0.914494
561 6.51053 0.0393416 8.74304 -1.03743 -0.471643 1.07407
227 7.85135 0.599225 8.92846 -0.0596454 -0.140595 1.40408
324 8.37223 0.799265 7.69382 0.114405 -1.86063 0.283216
283 10.1442 0.551597 8.79233 1.86635 -1.58713 -0.449145
403 9.406 0.561827 7.90045 -0.502369 -0.872724 1.39607
676 10.7572 0.217509 7.72846 -0.349218 -0.96952 -0.205154
219 10.9395 1.10961 8.45687 1.0308 0.361038 1.16871
325 1.0462 1.549 8.10917 -0.363105 0.471919 1.00757
632 0.259821 2.71528 8.50979 2.62069 -1.44031 -2.86807
370 2.20322 1.34672 8.76818 0.558366 -0.852534 0.223922
140 3.42837 2.62512 8.10143 -0.73342 -0.417817 0.328757
258 7.47479 2.62932 8.8937 0.205928 1.02447 0.0646123
186 7.51968 2.12978 7.8745 -0.212355 0.38129 1.35558
756 10.4088 2.43222 7.88102 -0.107265 -0.0838477 2.0239
213 9.43468 1.87083 8.23605 -0.12947 1.24818 0.675114
518 10.2728 2.25771 8.98573 0.159889 -0.999031 0.772462
45 11.3508 2.72548 7.72333 0.617391 1.05266 0.0286969
799 11.8205 1.57035 8.41981 1.59965 -1.49186 0.0246626
719 1.51668 4.14364 8.49734 -0.200124 -0.499927 0.398233
240 1.28211 2.80712 8.97679 0.0276006 -2.01094 0.613858
296 2.08124 3.1174 8.07303 -1.47951 -0.252917 1.15164
635 2.64853 3.90957 8.56061 0.144826 -0.00759047 0.918173
242 3.98864 3.96907 8.66593 -1.42249 -1.52346 1.51147
643 4.70859 4.39832 7.78955 -1.05211 -1.1085 1.73186
328 5.06152 3.21474 7.62349 0.261507 0.616988 0.849907
481 5.65929 3.80366 8.9877 0.84622 -0.614177 0.180936
139 7.39505 3.26953 8.00112 -0.0102993 0.37555 1.2114
183 6.2157 3.09908 8.35371 -0.0225956 0.892038 -0.815098
268 6.91693 4.05859 7.5331 0.711647 -1.50744 0.105635
852 8.73399 3.10453 7.84505 0.321031 -0.889009 -0.689531
701 9.29524 3.02373 8.72507 -0.663296 -0.754343 -0.223839
116 9.68696 4.14458 8.56305 1.53942 0.213932 -0.541062
338 10.7053 4.42199 9.19591 -0.146819 0.319901 2.34346
769 11.3384 3.83742 8.55486 0.14717 -1.18892 1.24139
365 0.0246887 4.49241 7.75171 -2.01944 -0.827812 -1.18536
47 0.338622 5.59506 8.99227 -0.283263 -0.335438 -0.153493
735 2.14772 5.05084 8.57485 0.598193 2.0691 0.137779
459 3.31451 4.94027 7.66463 0.749684 0.00430822 1.38579
125 4.29768 5.59419 7.96608 -0.118507 -0.0292869 -1.40906
355 6.00623 5.43808 8.89649 -0.0540939 0.575012 -0.625997
838 7.76796 4.62641 8.28211 -0.988264 1.02956 0.0251446
190 0.61936 1.65294 6.0972 2.13012 -0.564961 1.80907
358 9.91052 5.51719 8.80308 -1.90345 1.50195 -0.215983
677 9.5996 4.96496 7.76307 -0.97295 0.426297 -0.135206
30 10.6457 5.82983 7.56678 -0.978116 -0.59895 -0.278815
610 0.97698 0.932176 9.67627 0.733346 0.411831 -0.721533
745 0.632639 0.242163 10.4055 0.387378 -0.998345 1.29579
386 1.77 0.534262 9.0859 -0.160987 0.101421 -0.583741
169 2.822 0.648672 9.10295 -1.55994 0.250606 1.23244
250 1.9177 0.564163 10.22 -0.00262221 0.622906 -0.156918
149 3.56043 0.453805 10.2733 2.80626 0.0655659 2.83925
115 5.3679 1.10402 9.96578 1.31264 -0.816819 0.487043
207 5.92835 0.132796 9.97156 0.411177 -0.724923 -0.450371
599 6.65965 1.05754 9.23332 -1.477 -2.58701 0.200947
295 5.65932 1.03614 6.01906 -0.306919 1.00918 0.284614
381 8.4359 0.980688 10.2051 0.953451 -0.281662 -0.187841
816 9.4526 1.00185 9.87785 -0.242486 0.493527 -1.50927
41 10.9981 1.41545 9.68106 0.417315 1.04198 1.1205
483 10.8876 4.95003 11.1589 0.0649774 -1.54597 -0.590686
57 1.23952 2.05816 10.0103 -0.16967 0.496318 1.46457
71 0.0337784 2.12283 10.1695 -0.735605 1.3156 -1.95406
741 2.274 2.98419 9.38509 -0.178538 0.846271 0.535588
782 2.30898 1.65934 10.0331 0.295584 0.619598 -1.20578
815 3.19195 2.13526 10.1632 0.627785 0.708478 0.172644
393 4.10746 2.83436 9.89969 0.818299 1.55455 -1.89367
49 4.39722 1.60582 9.98229 0.229479 0.914293 -1.42941
821 6.57066 2.84022 9.5644 0.753572 -0.255644 0.747106
697 8.75057 2.0843 8.95574 -0.0647463 -1.19241 -1.7133
414 7.62804 1.85802 9.99653 -0.512347 -1.48392 1.10546
754 7.78781 2.87868 9.9875 -0.357176 0.762852 0.515977
435 8.55254 2.06052 10.3965 -2.65372 1.06276 1.05755
371 9.02434 2.70436 9.80332 0.189846 -0.840406 -0.28995
818 0.526022 3.98822 9.21645 -0.727174 1.06571 -0.0126549
825 1.93943 4.10294 9.4702 -0.239825 0.0567219 -0.213616
252 3.25441 3.92338 10.0059 0.457093 0.999727 0.910568
616 7.16651 3.67813 9.09949 0.774101 0.552674 -0.966491
828 6.80889 4.12501 10.0613 0.049439 -0.0360035 0.44854
282 8.2221 3.40363 8.9227 -0.290151 0.0174111 -1.72638
743 7.74386 4.00851 10.1161 0.658421 0.660645 -0.516517
131 9.59418 3.93134 10.1822 -0.433326 1.33618 -1.72569
612 10.6717 3.52887 9.73203 -1.36515 -1.88381 -0.234214
853 11.4367 2.95134 9.40555 0.905024 -1.51714 0.0575179
833 11.557 4.26164 9.91721 -0.209581 1.22007 -0.9796
440 0.111708 5.96079 9.94101 0.636386 0.900827 0.335264
499 2.68069 4.84881 10.2195 -0.811559 -0.723856 -0.590551
220 1.7104 5.47469 9.71338 0.707414 -0.453273 0.00518712
807 2.99555 5.08347 9.22573 0.0634359 0.926676 0.664692
38 3.29228 5.88689 9.88584 -1.00598 0.418308 0.644928
687 4.54461 4.92003 10.0229 -0.791307 -0.355657 -1.18373
618 5.90643 4.9209 10.0927 0.845795 0.258803 1.43553
728 7.23465 4.84323 9.22107 0.342972 0.734595 0.249501
826 6.94979 5.63322 10.1492 0.400629 -1.36946 0.169731
404 8.10714 5.32922 9.81702 -2.08485 -0.162531 -0.546214
313 9.00389 5.95025 9.44245 -0.997808 1.04419 -0.309341
731 9.13995 4.84231 9.43079 -0.788528 -0.670479 0.0682997
382 11.2519 5.24281 8.94647 -0.122003 0.796928 -0.618299
747 10.7001 4.57513 10.2736 0.230972 0.879458 0.379151
455 10.7843 5.9386 10.1276 -0.124858 0.00166116 0.641209
729 0.589344 0.650137 11.5735 -1.41563 -0.293105 0.180866
723 2.27779 0.220967 11.4403 1.74209 -1.73396 -0.0657478
472 2.81709 0.965365 10.7116 0.357355 -0.597096 -0.917373
634 1.73944 1.04498 11.1336 -0.451789 -0.184783 -0.84194
824 4.27001 0.210768 11.6168 0.658216 -1.1172 -0.218492
563 11.7307 0.0967653 7.87079 -0.415603 2.51232 -0.195766
304 5.50242 0.214675 11.281 -1.03528 -0.665298 1.27368
802 5.02643 0.928542 10.8953 -0.187672 -0.719889 -0.681519
109 6.90569 0.478765 10.8288 0.429876 -1.08999 -0.64236
778 8.21177 0.0367376 11.6985 1.34953 -0.428515 0.465705
94 7.95189 1.30115 11.2293 0.655739 1.84597 1.42572
843 8.94329 1.00023 11.8677 -0.422296 0.95988 0.168624
669 9.92127 0.501689 10.8971 -0.95336 -0.589906 0.974283
567 10.8959 0.199568 11.3191 2.46484 -0.193452 -0.679957
301 11.3441 1.25831 11.4409 -0.342496 -0.538094 -1.36718
750 0.930085 1.66098 11.6173 -0.577183 0.282966 -0.616085
345 1.67657 2.16113 11.1398 0.566726 -0.199543 -0.104175
793 3.53288 2.43855 11.5477 -2.11183 1.13514 -0.33233
738 5.47977 2.16818 11.3291 -1.18437 -1.39372 -0.391148
696 8.58558 2.11757 11.4254 1.05386 1.08938 0.147107
202 9.49928 2.70508 10.9395 -0.781973 0.278135 1.07678
489 9.42616 1.33769 11.0579 -0.37692 -1.15448 0.589116
431 10.3783 1.95188 11.3346 -1.10347 -0.846477 -1.42961
586 10.831 2.53144 10.6261 0.148602 0.440948 0.261624
68 11.1291 2.49714 11.7832 1.78645 -1.12343 2.56436
568 0.72903 3.25069 10.9991 -0.0754379 0.0298404 0.849602
441 2.48821 4.17897 11.1558 1.59926 -1.15248 -1.29104
312 1.74123 3.53209 10.9172 0.156447 0.413618 -0.349277
508 2.2228 3.49522 11.8916 -1.52063 -1.31512 0.0394862
234 3.39984 3.23813 10.7352 1.39187 0.848013 -0.32495
580 6.4046 4.31568 11.7656 -0.104301 2.44364 -0.700482
512 7.67083 3.25339 11.3935 -0.330464 -0.847591 -0.0800516
490 8.55761 3.38785 10.5872 -1.83561 -1.45567 0.114317
401 9.99446 3.74736 11.1582 -0.177837 -2.24289 -2.08594
405 9.05077 4.10193 11.5124 0.0926315 -0.791469 -1.00839
217 11.3538 3.43228 10.4571 1.14038 -0.188415 -0.739384
844 11.1607 3.80271 11.8618 1.29389 0.8337 -1.00642
760 11.9334 4.50755 11.1363 -0.487353 0.314941 2.35542
80 0.468795 5.75192 11.0873 0.787944 -0.648698 -1.26837
146 2.55604 5.40413 11.7016 2.26231 0.673692 -0.200601
155 2.10578 5.88565 10.6403 0.432818 -0.444135 0.392164
29 1.65607 4.86034 11.8967 -0.857988 -0.0370954 -0.297463
474 3.8118 5.61592 11.4595 -0.195047 0.167671 0.841312
801 5.08805 5.4475 10.7251 0.359008 0.323764 -1.38088
369 7.01066 5.35169 11.3985 -0.00323447 -1.26126 -0.656874
530 8.8275 5.01222 10.5082 -0.524306 0.689982 -0.838964
808 8.49543 5.73337 11.2187 -1.08676 -1.16566 -0.485843
187 9.80144 4.77511 11.0368 0.044737 0.579573 1.45015
18 1.11665 6.40743 0.501184 -0.734139 1.18908 0.30967
710 1.85747 6.93234 1.28611 1.03335 -0.589606 -0.712854
746 3.21062 6.67511 0.668901 0.23265 -0.074907 1.94958
819 4.13088 6.88605 0.261065 0.019564 -1.32958 1.41296
582 5.34547 6.97265 1.22951 1.02455 -0.80895 1.15209
93 6.56384 6.79528 0.796245 -0.946999 1.37766 -0.67905
86 7.43061 6.29377 1.10988 0.855712 0.806417 -0.846176
682 10.3999 11.997 5.16937 -0.880158 0.464454 0.780597
317 7.92489 7.26541 0.780361 -0.758086 0.717511 0.588955
744 8.61651 6.37985 0.880593 0.79394 -0.0627204 0.354638
143 9.99212 7.32082 0.614673 1.33354 0.811275 -0.143076
120 10.6476 6.46842 1.16364 -0.599615 -0.447079 -0.672657
212 11.6008 7.0766 1.49114 0.843042 0.932782 1.4272
510 11.4068 7.14346 0.4616 -0.87419 -0.00991006 -0.533189
400 0.804295 7.42966 0.567975 0.371541 -1.01561 0.0412171
533 0.474361 8.27138 1.329 -0.33903 1.24318 0.765062
714 2.28598 7.63865 0.448433 -1.17881 -0.0955455 0.429346
270 2.20935 8.53633 1.22315 0.662457 -0.363158 -0.039059
228 2.91143 8.49018 0.230508 0.581058 -1.82449 -0.546746
851 3.70671 7.66674 0.825251 0.0127072 0.365615 -0.159014
673 5.51909 8.71576 0.819795 0.707917 -1.24713 -0.041447
478 4.66818 8.21646 1.33488 -1.09781 1.35951 0.157156
820 4.66478 8.65668 0.0992828 -0.277216 -0.968544 -0.440973
189 5.10038 7.73551 0.401904 -0.487467 -1.78012 0.632428
736 6.4359 8.06965 0.713315 0.822775 0.194634 -1.40564
654 7.56555 8.20532 0.693123 0.325457 -0.743764 0.144053
764 8.86727 7.69931 0.847633 -0.572302 -0.94278 -0.521993
411 10.6407 8.61787 1.11946 -0.316394 -0.628445 -1.07828
762 1.12011 9.06419 0.492048 -0.517079 -0.611262 0.00678188
543 0.820438 9.94886 1.26295 -1.17259 -1.13265 0.196087
664 11.8927 9.63473 0.505812 -1.23074 1.37985 1.41939
253 2.29201 9.32792 0.414892 -0.0785144 -1.07396 0.50415
450 2.75525 10.5394 0.471228 -0.461922 2.26275 0.618629
336 1.59307 10.1761 0.295518 -1.30502 0.524057 -0.770131
34 3.6348 9.68009 0.712829 0.0282988 -0.611265 -0.220413
75 4.90673 9.53896 0.860834 -0.828159 -0.0783345 -1.24448
496 6.915 9.27712 1.10625 1.93336 0.581283 0.163727
835 7.49598 9.23842 0.241549 0.730415 -1.80247 -1.12217
493 6.32216 10.3088 1.07589 0.395086 -0.847248 -0.314042
379 8.54387 9.46021 0.674359 0.0149762 -1.82764 -0.978851
720 9.7694 9.35048 0.741502 0.179742 -0.175155 0.51827
621 9.98771 10.1391 1.60312 0.332478 1.29685 1.23536
419 10.3063 10.2811 0.359161 0.0733444 -0.425433 -0.0270964
138 11.1215 10.0236 1.30137 1.02937 0.127034 -1.34378
384 0.881149 10.8899 0.578733 -0.519798 -1.23934 -1.36091
179 10.9733 10.5064 5.95754 1.52706 -1.5519 -0.497771
77 1.42397 11.9493 1.14468 -0.644105 0.00352266 0.950401
279 2.28052 11.3621 1.39328 -0.363734 -0.145536 0.933416
649 1.80184 10.3429 1.28634 0.193515 -2.39802 1.10978
603 3.04101 11.8103 0.152373 1.90544 -0.449605 -1.00447
11 3.66777 10.839 0.839561 -1.22677 1.7401 -0.0346813
487 4.73899 10.8556 0.137024 0.318219 -2.49408 0.483313
572 6.75144 10.4763 0.131582 1.2841 -0.601657 -0.619633
260 7.47263 11.4034 0.00150095 0.299127 -0.621769 -0.257865
668 8.08373 11.7052 0.796231 -0.476464 -0.306036 -0.365671
503 9.07915 10.4556 1.0046 -0.513365 -0.718533 0.553781
592 10.7982 11.0412 0.999394 1.35951 0.748588 0.0741822
629 11.0109 11.5486 0.109049 -1.31675 -1.76299 0.504755
767 11.838 10.785 1.10481 0.748077 -0.624261 -1.27548
44 11.8769 10.8234 0.0794109 1.40558 0.481076 0.360047
437 1.52929 6.39989 2.22659 -0.180372 0.172286 1.7033
413 3.4807 6.31213 2.09915 -1.33752 -0.30226 -1.46432
52 3.23281 7.2122 1.69143 0.497152 -1.05475 1.01313
581 4.4966 6.85372 2.02725 -0.326928 2.57202 -1.19206
520 6.70672 7.03191 2.00658 -0.0130638 -0.570576 1.41487
438 7.49794 6.68917 2.51348 -0.643761 -1.19172 0.64652
545 8.77965 6.97826 2.05017 -0.945252 -0.180058 -1.38652
737 8.52134 6.35061 2.87865 0.031022 0.966538 -0.168731
733 10.4389 7.55968 1.57812 -0.423328 1.37873 -0.728826
787 9.68755 6.62469 1.63843 -0.0367255 1.58875 0.306273
130 9.61492 7.41281 2.62027 1.7637 0.0185892 0.812729
360 9.92718 6.26344 2.83833 1.92701 0.787157 -0.613371
36 10.6375 6.68109 2.26639 0.480891 0.306517 1.63163
449 11.7781 6.46594 2.74526 -0.705521 1.15676 -0.472721
235 0.605226 7.40677 1.9894 -0.234984 -2.22531 1.4137
861 0.49769 8.555 2.49339 0.539407 -0.591357 -1.80789
704 2.19895 7.64619 1.96903 0.625432 0.762549 1.0694
777 2.95661 8.6843 2.18236 -0.386782 -0.180892 -0.914198
24 2.07515 8.46639 2.94911 -0.612645 0.100666 0.790025
722 3.64458 7.47455 2.64805 -0.548347 -1.66895 -0.0282307
606 4.88656 7.68647 2.82946 -1.03821 -0.549105 -0.280848
192 6.20467 7.87313 2.66574 -0.151512 0.885156 -1.79376
688 6.59541 8.32838 1.69988 -0.549924 -1.58856 0.62539
839 7.50352 7.63285 1.73041 -1.68303 -1.80135 0.886751
753 7.70132 8.8034 1.47632 0.044199 -0.154259 0.595909
303 8.22338 8.55255 2.55049 -0.0498928 0.741878 -0.665718
452 11.4348 8.47054 1.77451 0.988525 0.422164 0.345819
504 1.23682 9.13355 2.80235 1.33189 -0.633473 -0.0970667
717 1.35082 9.10922 1.70271 1.22966 0.511746 -0.264999
126 0.569169 10.2052 2.38515 -0.176799 -1.39628 -2.77495
513 2.1097 9.70712 2.10522 1.12235 1.54945 -1.16056
21 2.80075 10.5156 2.70874 -0.922517 0.816966 0.714575
16 3.91096 8.96036 1.59491 1.52829 -0.744152 -0.411207
445 3.27857 9.90385 1.72302 0.790085 -0.118152 0.324436
351 4.45196 10.1194 2.19941 1.70882 0.582936 0.61582
856 5.63873 9.15739 1.88813 -0.0900909 -0.350208 -0.470092
462 5.35823 9.90152 2.5638 -0.211875 0.408004 0.850421
98 6.44117 9.75941 2.73603 -1.00675 -0.149062 -1.69881
357 9.89829 10.342 2.71043 -0.16856 0.150049 1.60518
249 11.6783 9.52882 2.49953 -0.270785 -0.11407 0.703989
233 10.6933 9.37534 2.2432 0.311062 0.98693 1.36018
674 2.26912 6.01489 0.766945 -0.0552579 0.323099 -0.783268
774 1.09623 10.9609 1.62122 -0.0823538 -0.66662 1.28659
809 0.370313 11.5991 1.88096 0.405648 0.113991 0.620033
725 1.87906 10.885 2.25188 -1.1785 0.617436 0.953635
836 3.32699 11.0821 1.93365 -1.17189 1.44877 1.17205
526 5.725 11.6907 1.8231 -0.837167 0.485889 -0.164948
528 7.76153 11.6031 1.89517 0.71797 -0.153939 0.938654
8 9.65123 11.3551 1.51023 -0.580166 0.880641 0.178326
532 10.6427 10.8201 2.04759 -0.85468 0.76457 0.0294909
667 11.7586 10.7699 2.22987 -1.43601 0.595258 -0.232214
511 1.72803 8.17857 5.95228 0.784365 0.536686 -1.0766
630 1.27056 6.00404 4.40398 0.219038 -2.30184 -0.856807
170 2.88446 6.32155 3.61495 -0.575619 0.465119 0.622743
451 4.42567 7.27136 4.07942 0.754735 0.270312 0.176731
119 4.62307 6.14847 2.77651 -0.379104 0.246213 -3.11201
794 7.53991 6.71977 3.76468 -1.13919 0.042063 -0.170806
804 8.52149 6.26923 4.17591 0.569799 -0.123604 -0.159759