ITEM: TIMESTEP
48620
ITEM: NUMBER OF ATOMS
864
ITEM: BOX BOUNDS pp pp pp
0.0000000000000000e+00 1.2000000000000000e+01
0.0000000000000000e+00 1.2000000000000000e+01
0.0000000000000000e+00 1.2000000000000000e+01
ITEM: ATOMS id x y z vx vy vz
77 1.8432 0.702556 0.0885559 -0.626386 -0.0525953 0.517372
298 2.01099 0.0642867 1.87325 0.162555 0.421385 -1.46526
479 4.18093 5.23758 4.6305 -0.341786 0.592038 -1.20215
99 3.95695 1.54961 0.171025 -0.331799 0.973548 -1.36735
662 7.95257 3.50588 4.84757 -0.368149 1.67131 -0.020652
497 8.54861 0.216794 0.789159 0.821113 -0.107805 0.536621
843 9.30206 1.3532 0.15493 2.16119 -0.505003 0.52685
361 10.327 0.997931 0.729408 -1.41934 0.410093 1.07143
214 9.87827 0.463797 1.5701 0.0589539 0.783011 0.231148
27 11.6635 0.635403 0.571626 1.55128 0.0585049 -0.195483
848 4.57652 4.19874 5.85112 -1.71601 0.266202 1.56498
840 1.75691 2.63092 0.948308 1.85116 1.41893 0.569715
154 0.42245 1.88425 1.0592 0.314529 1.80423 2.18413
750 1.2868 1.63331 0.298297 -1.55458 -0.204708 -1.3131
173 2.74449 1.2056 0.2181 2.14794 -1.52115 -3.02486
657 2.95569 2.48619 0.929989 0.449148 -0.140758 -1.18496
729 0.386314 1.17518 0.0985702 -0.547909 0.302226 -1.12459
273 9.6947 2.61234 5.92438 -0.324063 -1.56787 -2.47001
415 5.18239 2.25041 0.348232 -0.288732 -0.139619 0.560268
491 7.54889 2.67162 1.29649 -1.24225 -0.308554 -1.04677
542 6.35105 3.10526 0.201376 -0.559779 1.68544 -1.16769
646 7.54768 1.80465 0.131164 2.9782 0.893547 -0.704493
712 8.08738 1.7588 1.09304 -0.967592 0.459798 0.187507
251 7.01943 4.34439 0.356308 0.23516 1.14255 0.202931
94 8.81917 2.24251 0.49597 0.103343 -0.451122 0.189637
468 8.59096 2.8035 1.36228 1.717 -0.307736 1.34538
696 10.43 2.16517 0.518232 1.31993 -1.1419 0.285542
522 11.3786 1.62409 0.574175 0.204703 -2.00681 1.04736
157 1.34083 3.54905 0.289671 0.409914 -1.28447 -0.975476
430 2.26814 4.81187 1.0467 -1.9819 1.02481 -0.0687663
280 6.87787 1.43304 5.97516 -0.542402 -0.0661262 0.629552
59 4.61053 4.08082 0.423915 -0.888173 0.193024 1.00274
536 4.66591 3.37541 1.49737 0.353208 0.405395 -0.227329
738 5.66907 3.8475 0.683132 -0.706428 -0.0233611 0.803575
492 6.33868 4.76852 0.95976 -1.95626 -1.89211 -0.406194
713 8.01114 3.65363 1.11825 -0.835959 0.631286 -0.213551
188 8.99673 4.07907 0.812351 -0.0773608 -1.80934 0.98954
402 9.4786 3.20021 0.681287 -0.990575 -0.771276 1.09643
53 10.5224 3.61536 1.42295 2.1991 -0.857969 1.1844
399 10.5452 4.72842 1.23744 -2.16233 2.36663 -0.42281
15 11.38 3.80863 0.595174 0.811256 2.12585 0.0250477
615 0.0566511 5.49021 1.59005 -1.43571 -0.303573 0.229107
363 0.168619 5.61731 0.210805 -1.31071 0.624246 -0.990708
135 1.38192 5.76196 0.52317 -0.0534407 0.681645 0.590191
239 2.97567 5.78418 1.1651 -0.586522 1.32188 -1.65191
620 3.39365 4.66885 1.11832 1.15847 -0.11557 0.171004
266 5.41592 5.55791 1.43051 0.950243 0.0149081 1.48263
321 8.06805 5.58356 4.45253 0.199034 -0.502639 0.978922
54 8.15945 4.53158 0.145048 3.28646 0.017481 0.357876
61 7.76067 5.43154 0.827142 -0.728715 -0.985858 -3.16463
836 2.52112 0.0738687 2.84336 0.544725 -0.86449 -0.526173
859 10.016 4.08981 0.474975 1.35507 -0.306906 -0.832062
70 11.0959 5.81021 0.759759 -0.374841 1.07788 0.816301
494 0.0916837 4.67893 0.881596 -0.298101 0.231 0.242758
809 0.541836 0.147295 1.59787 1.84285 -2.72321 0.626532
726 1.534 1.71895 1.47099 1.73192 0.63856 0.444685
231 0.300034 1.51876 3.05351 0.0122019 2.43939 -0.738438
538 2.76734 1.61409 1.6369 -0.128317 0.537171 0.114598
279 1.55114 0.907864 2.49482 -0.106574 0.0530318 0.554319
11 3.09207 0.719512 2.07528 -1.09362 0.0599913 0.371122
55 4.26575 0.0079612 2.90536 0.00967784 -0.879189 1.96657
417 4.11504 0.76389 1.23975 -1.8754 0.627484 -0.396083
638 5.3186 0.375327 2.66389 -0.0471001 -0.788569 1.02811
506 6.23121 5.21093 5.67589 0.0712944 -0.313236 1.38422
775 7.48772 0.534761 1.24126 -0.112952 -0.0394188 -1.07882
579 8.88722 1.1535 3.12525 2.84111 -0.60811 0.125719
685 10.6332 1.5291 1.80916 -1.04641 0.54417 -1.22033
550 11.0706 0.337661 2.0329 0.367438 0.630729 0.515316
684 10.9228 0.357529 3.42178 0.130143 0.463986 0.45921
798 11.9301 0.51544 3.18304 -0.457782 1.70962 -0.184212
72 1.4496 2.0143 2.6889 -0.869717 0.317832 0.16289
771 11.6239 2.45282 1.89326 -2.40771 0.17866 -0.949848
311 1.47979 3.02103 2.85611 0.654776 -1.13352 1.23003
380 2.3823 2.46947 2.98221 -0.333759 1.31662 -0.361008
262 4.33123 2.54807 1.0491 -1.16376 -0.738707 0.690574
285 6.11237 2.33987 0.972842 1.03631 -0.70205 0.175691
224 6.54791 2.8581 1.8088 0.617935 1.04768 -0.0223546
199 7.76601 1.46388 2.97805 -1.08137 -0.285646 1.53862
768 10.2886 2.63741 2.10702 0.149301 1.03926 1.0742
650 9.07864 1.84617 2.03896 0.783794 1.23683 -2.17272
354 10.0408 1.93408 3.02861 0.0152398 -0.150966 0.473756
137 9.51796 3.52879 2.02569 -0.482769 -0.00714472 -1.27016
573 11.7673 2.84909 0.834184 -1.44359 -0.41119 -2.89052
114 1.3972 3.2288 1.81064 0.629519 0.255506 -0.735093
64 0.249388 3.81539 1.84229 0.110825 0.26386 1.50256
500 0.493272 2.91252 2.27234 0.145505 -2.35141 0.140031
849 3.91556 3.32604 0.602973 -1.32533 -1.77492 -1.46393
341 3.37862 4.36375 2.73377 -1.71967 -0.751828 0.318626
368 5.77967 3.63807 2.7649 0.510312 0.443745 0.316303
327 4.56158 4.44121 2.32776 0.670582 -0.545227 1.14905
812 6.6669 3.76768 1.08954 0.0879546 -0.271147 0.947228
477 7.58037 3.29837 2.4993 1.58587 0.794441 0.711679
488 6.55631 4.22769 2.11261 -1.74667 0.544747 -0.36414
765 8.02133 2.40329 2.39748 -1.25258 -0.517253 -0.529386
28 9.49631 4.73851 1.97343 1.30512 1.41246 -0.376628
254 8.55766 4.30352 2.95326 -1.26623 1.1001 -0.350405
627 1.72507 5.17773 2.13483 -0.237647 0.959811 0.144337
437 2.43554 5.09368 3.26593 -1.77955 -0.725171 -0.189513
413 3.02297 3.73489 1.97239 0.415889 -1.09104 -0.176432
119 4.52609 5.25202 1.83686 2.59658 2.09815 -0.886941
520 5.53148 5.5879 2.59558 2.06795 0.853487 2.02594
611 5.56669 4.45452 1.87524 0.324453 -1.25645 0.914829
577 6.44905 5.43662 1.78159 1.07278 0.623583 -0.4535
514 7.42536 4.37099 5.89761 0.238963 0.12258 -1.5434
659 8.455 4.76994 1.43014 -0.0524788 0.417101 -1.08121
226 8.64441 5.38569 2.36102 -2.38464 -0.0766844 -1.33503
742 8.7446 5.80033 1.37414 1.18385 2.69642 2.25812
583 9.82695 5.56202 1.36482 0.399996 0.354818 -0.29481
343 10.3761 4.73219 2.86137 -0.191182 -0.960127 0.373422
196 10.7951 5.49842 2.12551 0.443397 0.585089 0.326392
655 11.0443 4.72358 0.0861143 1.18652 -1.43704 -0.686014
367 0.976328 0.575435 4.11828 0.993537 -1.14599 -0.919241
288 2.45261 1.31946 3.07972 0.517122 -0.437244 0.822831
571 2.12191 0.544581 3.95568 -0.337462 0.562816 -0.192284
652 3.0893 1.13092 4.25412 -2.99176 -0.23534 0.660475
758 3.506 0.846447 3.29478 1.90908 -0.666324 -0.581701
705 5.93887 0.247706 4.21999 -0.0609722 1.8571 -0.0125059
346 4.84405 0.38566 3.87936 0.858214 -0.801608 -0.176907
124 6.50617 1.12551 5.06789 -0.781571 -0.882528 -0.438664
156 8.41478 1.74302 3.87672 1.14564 1.33893 0.493895
144 8.76341 0.28895 3.91209 -0.283621 -1.89846 1.26981
147 10.1403 0.168244 4.09234 -1.61048 -0.801931 1.56671
73 10.346 1.3361 4.37639 -0.0240254 0.181535 -0.40388
177 11.9197 0.808358 4.39369 0.0872537 0.264655 1.54752
387 1.49333 1.87479 3.81279 0.306961 -0.0132134 -0.557604
286 3.12455 1.94081 3.75431 1.23834 -0.22522 0.0439443
834 4.11883 2.19669 3.27633 -1.34599 -1.238 0.35413
427 4.58594 3.31736 3.15817 1.40198 1.47517 -0.239785
858 3.44541 3.17818 3.72616 -0.347963 -0.136227 -0.788938
2 5.56086 3.01526 3.58234 0.500748 0.683945 0.428668
193 5.96604 2.18978 4.29322 -0.0690696 0.214952 -0.0433173
105 6.89801 1.61489 3.71425 0.901253 -0.531049 -0.319021
617 6.50378 2.85815 3.08311 -0.955481 -0.647323 0.168088
590 7.62347 2.65666 3.39306 -1.24667 -1.49913 -0.298413
397 8.73944 2.64198 4.18662 0.96308 -0.409407 -0.65694
110 9.81792 1.05945 3.53439 1.1479 -0.034222 -2.21879
12 9.38639 2.77904 3.24507 -0.906486 -0.406568 0.302995
276 9.62476 2.12288 3.99228 1.28804 -0.925287 -1.3116
320 11.6328 1.49528 3.78098 -1.27473 0.25449 -0.420867
267 0.94409 3.8692 3.1854 -0.439009 1.95959 -0.302088
174 11.9542 2.77759 3.74121 0.0111155 0.0881182 0.241013
630 1.96616 4.27952 2.76555 1.36613 -0.0861291 0.0951278
198 2.44872 2.76062 3.95058 0.4109 -1.33762 1.28692
540 4.77308 4.53116 3.72092 1.10891 0.125916 -0.547839
562 5.88765 3.90713 3.80578 2.19552 0.327758 0.314574
299 6.99465 4.59969 3.26217 0.404187 -0.588669 0.135116
464 6.65978 3.39076 3.99956 0.646999 -1.00334 0.72209
306 7.83226 4.37623 2.20232 -0.113055 1.60114 -1.61269
87 8.14047 4.40076 4.23999 -0.941813 1.08486 1.42914
785 7.06082 4.27712 4.79657 -0.0604828 0.050827 2.36387
106 10.5387 3.99514 3.66866 0.185782 -0.420664 -1.01696
596 11.1957 3.37629 2.83536 -0.712833 -0.383929 -1.75302
660 1.06398 0.0658571 5.62507 -0.481157 1.01049 -0.425616
261 3.38743 4.81226 3.87513 0.234347 -1.4728 0.719303
35 5.52709 4.59072 2.9493 -0.468852 -0.919051 -0.447023
575 5.06011 5.95367 3.68872 1.11528 2.30056 0.697133
527 6.17496 4.8133 4.32088 -1.39139 -0.487125 0.552269
537 6.4957 5.51327 3.04088 0.155428 0.44553 0.454748
804 8.29613 5.07898 3.4644 -0.467992 0.346503 -1.00731
730 9.31362 4.88662 3.47248 1.01529 -0.938388 -1.46948
436 10.3453 5.44305 3.78973 0.937118 0.543563 0.100959
388 3.15695 5.02032 5.35058 -0.000579515 0.767852 -1.51572
822 11.5118 4.68055 3.0641 -0.258552 -0.830703 -1.38454
272 0.800477 1.23359 5.09963 -0.150561 1.99438 -1.51842
297 2.9506 0.168983 4.90977 1.65211 -0.81543 -0.849074
353 1.98652 0.357952 5.16545 0.0497392 0.223125 1.71426
295 5.75728 1.68805 5.39787 -1.2527 0.90508 -1.07086
43 3.84222 0.839033 5.23398 -0.339277 1.41381 -0.0567467
507 7.46396 0.132327 5.09995 -1.35374 0.263075 0.10095
236 5.18578 1.07952 4.70193 1.0794 -0.837692 -0.74016
195 7.20964 5.43529 4.97977 0.308059 1.67889 -0.0284049
692 4.74605 0.525064 5.67066 0.212533 1.00001 0.603276
78 5.69529 0.300934 5.24757 -0.412247 1.70525 -0.16502
517 7.75922 1.09869 5.45161 0.362653 -0.25146 0.534208
160 5.17843 4.99138 5.95721 0.0933393 -1.99744 -0.101152
96 2.46811 3.88517 4.79829 0.909569 -1.65891 -1.52979
682 10.1575 0.6579 5.19499 1.12492 1.01481 1.23519
247 9.13903 0.749193 4.86217 -1.60452 -0.11304 0.555996
724 5.20912 4.91788 4.59247 0.0709232 0.140851 0.615774
458 11.1376 1.24456 5.04574 -1.29028 -0.156872 -0.897523
307 0.589398 2.73893 5.14012 0.161898 0.052506 -0.916839
691 11.8525 2.07584 4.72414 1.21181 1.25292 0.814258
190 1.92555 1.53297 5.52532 -1.75226 0.782894 -0.971534
215 1.79859 2.39425 4.82265 0.305484 -0.0254208 1.28366
418 2.87594 1.69412 5.14087 0.708984 -1.13076 -0.215847
168 4.326 3.38839 4.19758 0.0720463 -2.1087 1.13254
740 5.30339 2.83904 5.34003 2.25657 0.153823 -1.18678
770 4.59515 1.49285 5.48876 -0.188462 -0.199264 0.412438
679 3.95808 1.6995 4.31558 -0.151895 -0.272778 -0.349299
749 7.46914 2.2648 4.40547 0.115662 1.73613 -0.089977
243 8.97811 4.7327 4.81426 -0.661994 1.20123 -0.347945
265 7.64054 3.20704 5.7955 0.497228 1.62804 0.69476
82 8.49513 1.91491 4.99242 -1.35695 0.860538 0.988629
200 8.81113 3.26188 5.62363 -1.39527 1.71896 -1.37487
175 9.53619 3.34993 4.62693 -0.311228 -0.0540089 0.381978
163 9.71886 1.58238 5.59255 -0.150169 -2.69475 0.450632
628 10.786 3.07456 5.62114 0.391882 1.1531 0.00611227
290 11.4964 2.22629 5.76604 -1.01522 0.890867 1.45683
51 10.6984 2.16439 4.86584 0.366371 1.0664 0.952696
133 1.46408 3.40751 4.79141 -0.941815 0.293547 -0.281426
264 4.16612 3.11161 5.66292 -1.1123 0.602367 0.816343
62 4.14231 4.26678 4.90236 -0.837019 -0.32712 -0.552402
793 2.04889 5.1331 0.03479 0.726958 1.17003 -0.44936
132 6.09471 3.81955 4.85641 0.115805 0.000536974 -0.889054
722 3.60156 5.63518 3.21338 0.422242 -1.77647 0.969977
801 5.06887 5.40656 0.379502 -0.733947 -0.791238 -0.1041
819 4.11318 5.58167 0.899929 -0.554056 0.487071 -1.06298
3 11.4936 0.996377 5.96332 -0.296648 -0.627759 0.209242
565 6.34981 3.28504 5.83885 -1.04018 0.520904 -0.514031
744 8.92569 5.26778 0.361738 -0.162869 -1.80219 -0.635806
79 10.5266 3.24728 0.208213 -0.48071 -0.950928 0.322763
474 4.12439 4.93968 0.0678519 -0.168324 -0.739576 -0.819976
260 7.41329 0.0870771 0.211827 1.23386 0.964738 0.534912
741 2.26889 3.89642 0.220035 -0.516255 1.17173 2.44912
76 11.1154 0.0167956 4.58733 0.978242 0.299347 -0.602936
629 10.972 0.0271867 0.971828 -0.524024 -0.407509 0.302627
255 8.56986 1.54057 5.97963 -1.34072 2.16749 -1.59547
66 1.51379 1.17095 6.41782 1.2645 -1.19285 -0.413832
718 4.28599 0.331903 8.17236 0.468092 1.39777 -0.659465
246 2.01528 0.126751 6.42215 -1.54697 0.794635 -1.31934
467 2.14824 0.987436 7.37372 -1.25402 -0.681313 0.903197
703 5.40286 1.39159 6.49904 1.98053 0.225524 -0.595683
326 4.1335 0.733014 6.88911 0.342808 -0.508358 0.23732
766 5.49172 0.20621 6.96288 0.647938 0.268162 0.564371
406 6.07581 1.86503 7.12996 -0.684296 0.491505 0.606934
42 6.49651 0.632175 6.68785 -0.806725 2.05386 0.845857
19 7.60896 1.01197 6.69511 -1.94987 -0.0596949 -0.26525
395 9.58512 0.229398 7.55544 0.722345 -0.499194 -0.515831
225 9.34949 0.891907 6.49674 -0.631431 -1.16602 0.0795471
549 7.87677 3.45303 11.5441 -0.692753 1.56637 -1.31194
483 11.2512 4.73926 10.8296 0.679559 1.01115 -0.382435
392 10.5417 0.746477 6.50075 0.485947 0.26245 -1.01065
13 0.972694 2.78357 8.11094 -0.470494 2.31146 -0.848369
593 2.12708 2.2495 6.74999 -0.348144 0.217149 -0.909409
300 3.03959 2.60142 6.04772 0.188727 1.75853 -1.30729
366 3.49957 1.58892 7.54005 -0.282032 -1.1206 0.300314
757 4.37371 2.69386 7.13838 1.78042 -0.729042 0.560756
457 5.14995 2.45385 6.40149 0.342986 -1.87653 -0.302865
473 7.20482 2.03209 7.42483 0.129705 -0.418613 0.672098
425 7.73262 2.10021 6.54516 0.209689 -0.370838 1.35378
104 8.77565 1.77423 7.09812 0.256964 1.30397 -1.36701
376 8.23859 2.69782 7.40162 -0.842702 -0.285882 -0.626758
292 9.90389 2.35353 7.14123 0.350342 -0.30058 -1.30861
314 11.1713 2.64736 6.86103 1.18729 0.410536 -1.10421
653 10.6504 1.8435 6.15485 -0.444902 -0.963554 -0.358466
811 1.72788 3.29902 6.8518 0.28977 0.073407 -0.596683
390 1.3723 4.33221 7.62677 -0.279083 0.146085 1.14609
519 2.5266 4.2851 8.01847 -1.52215 1.36645 0.00166868
221 2.99343 3.50722 6.90612 -1.2032 0.615664 0.158096
171 4.15731 3.71947 6.88733 -1.01649 1.16248 -0.10373
302 5.39969 3.64058 6.99943 -0.552935 -1.75989 -0.779857
187 10.0586 5.32054 11.8073 1.58293 0.797107 0.737078
183 6.6981 3.72585 7.04208 -0.410716 -0.190315 -0.360974
259 6.20184 4.24851 6.27328 -0.505202 -0.876825 1.28524
806 9.37461 3.26954 8.01875 0.887908 -0.21574 1.19588
268 7.93318 3.77428 7.18975 -0.776912 0.719152 -0.0986266
578 10.1801 3.86204 7.16295 0.562996 -0.545715 -0.170899
808 8.42284 5.19991 11.2805 0.592832 0.393528 0.120654
699 1.10178 5.68856 6.35252 1.29925 0.715948 0.334131
269 2.22565 4.98624 7.01062 -0.84083 -0.702866 1.13746
125 3.74926 5.25374 7.84506 0.162157 0.11748 -0.147408
121 7.2452 4.788 7.34215 0.291447 -1.59769 -0.513102
748 8.24225 4.78748 6.36452 -1.1689 -1.36872 -0.444843
711 9.28187 5.87239 6.85004 -2.47369 0.935676 0.0822121
780 11.7649 5.40265 7.36675 2.04788 0.612752 -0.945339
365 10.7577 4.9994 7.31073 1.65632 0.382024 -1.1611
325 1.0537 0.885583 8.15908 0.0339767 0.373205 0.11601
339 3.19934 0.357183 7.99645 -1.652 -0.29429 -1.33214
204 3.37068 1.23012 8.63813 -0.496206 0.0453318 0.0760896
663 3.11735 4.60309 11.846 -0.847707 0.807691 0.709727
424 3.83153 3.25173 11.644 -0.725171 0.882442 -0.517696
186 7.60742 1.57867 8.46639 -0.229356 0.188659 -0.626459
599 6.46487 0.636135 8.97735 -0.5303 0.147852 -0.838076
686 6.92791 0.904139 7.90591 0.308077 1.19701 1.30953
324 8.26094 0.718442 7.62505 -1.46608 -0.836982 -1.08564
37 7.87389 1.10363 9.56103 -1.01867 0.898456 -0.578931
403 10.734 1.38334 9.01039 -1.23403 -0.392764 2.14968
563 11.8923 0.0912717 8.66398 1.18104 -1.22308 0.398361
26 11.7124 1.69564 8.66092 0.854007 -0.296869 -0.109448
632 0.389978 3.45526 8.9207 -1.70777 -2.09059 -0.114801
810 2.14577 3.00733 8.3847 -0.332824 1.98263 0.846792
95 2.47851 1.48509 9.36953 1.09254 -2.15206 2.18745
792 3.89567 2.45563 9.21599 1.0128 0.629313 1.1941
140 3.35196 2.86115 8.09141 0.659629 0.344262 -1.62347
432 4.53775 1.98029 8.19115 -1.12193 -0.112077 0.0151795
122 4.96558 2.94465 8.6264 0.750359 0.250293 1.49126
328 5.97327 2.59243 8.90366 -0.508727 -1.27125 0.640204
49 4.50467 1.77462 9.57466 -0.699263 -1.68452 -0.280943
258 7.08806 3.59331 9.24023 -0.260254 1.91478 1.58129
852 8.0061 3.03852 8.41255 0.519795 1.04058 0.513588
213 10.1081 1.17006 8.06569 0.86821 -1.39081 0.932839
518 10.1779 2.41869 8.34936 -0.282399 -0.178004 0.153614
853 11.0823 3.01553 8.72851 0.535015 0.951419 1.15107
719 1.54799 3.75381 8.90955 1.06636 -0.346495 1.26682
481 6.32297 3.65885 7.99374 0.715022 0.146536 -1.07798
139 7.41083 4.18782 8.07903 0.0353756 -0.579855 -1.18884
860 8.36666 4.5266 7.78527 -0.882781 0.0460948 0.490282
701 9.09707 4.03268 8.8297 -2.26704 0.751572 0.337351
31 10.3825 3.64549 8.33227 -1.40976 -1.91937 1.17795
756 10.6638 4.12436 9.29124 -0.784707 0.397042 -0.691741
45 11.6381 4.16442 8.67306 -1.04953 -0.299677 0.604043
112 1.86411 5.1922 8.3081 0.971479 0.248943 0.00961442
818 0.791579 4.89572 8.7003 0.713282 1.08222 -1.02131
218 2.71978 5.9352 7.91235 0.559445 0.549847 0.946229
735 1.62453 5.55387 9.40092 0.489978 1.4286 0.942829
459 3.58672 4.30172 8.18894 1.49637 -0.262621 -0.795456
355 6.7667 5.62237 9.71979 1.45807 1.42876 1.2017
854 7.7895 5.60281 10.2698 0.842095 2.18014 0.458531
728 5.65815 5.59605 7.79789 0.229227 0.95095 -1.52831
838 6.16584 4.80432 7.30259 -1.372 0.898357 -1.66595
358 8.04196 5.89388 7.65346 -0.514084 -0.66235 -0.129641
731 6.59497 5.04559 8.22335 -1.90652 -1.48193 -0.682294
116 10.2173 4.66926 8.54875 -1.07008 2.50251 0.0915627
677 9.37807 4.73112 7.24012 0.133447 0.447409 0.0904491
30 9.28141 5.39394 8.14174 -1.37052 -0.375679 -0.152304
47 11.9473 5.3492 8.40955 1.00622 0.895552 1.27
382 10.2539 5.58136 9.1093 -2.00194 1.24163 1.28869
486 0.882051 1.06997 10.2681 -0.401982 0.16295 -1.96683
799 0.256249 0.939088 9.42361 0.523156 -0.304059 1.08619
610 1.90151 0.553646 9.60504 0.489998 -1.40073 0.588049
153 0.061541 5.20877 11.2776 1.04166 -1.01646 -0.392589
782 3.16232 1.42605 10.5767 1.06697 -0.518822 1.34751
115 5.92666 1.46265 10.8712 0.233019 1.62042 2.59741
560 5.22916 0.891945 9.96984 2.79542 -0.818423 -0.710631
414 7.22691 0.730452 11.136 -0.6718 -1.00677 2.87198
580 6.15181 5.27015 11.5596 -1.00748 0.335506 0.324539
381 8.5424 1.97769 9.96891 0.699418 -0.15799 -0.420755
283 9.77651 0.496935 9.14636 0.186105 0.242445 -0.0970635
669 8.9029 0.650044 9.65596 -0.283598 1.51012 -1.28139
219 10.9151 0.407097 9.62043 -0.226571 0.297748 -0.229518
41 11.6528 1.88956 10.0756 0.713915 0.546568 -0.22398
410 10.3412 0.0263907 10.8949 -0.4223 -0.707616 1.74468
71 0.577277 2.13621 9.7011 -0.551967 0.427826 0.594254
370 2.9781 2.4755 9.91155 1.98723 0.829874 0.744299
240 1.45005 2.13239 9.03928 -0.522403 -0.528346 0.73015
57 1.97305 2.6694 10.5106 0.217147 0.699002 1.39662
815 3.85231 2.48139 10.651 1.10286 0.472565 1.39276
393 5.82324 2.20488 10.2226 2.19647 0.741667 -1.9815
821 7.2499 2.7185 10.0237 0.959278 -1.02347 -0.191435
435 7.59961 1.82396 10.9059 0.839648 -0.789922 -0.0222003
697 6.77799 1.67142 9.70922 -0.692648 0.892915 1.16599
371 9.396 2.63879 10.3625 0.260351 0.470463 0.727954
282 7.79859 2.22853 9.13817 -1.77643 -1.21198 -0.218731
816 10.0032 1.22016 9.83817 1.62538 -0.581452 1.83518
612 9.9544 3.26377 9.27001 0.19795 1.36986 -0.569317
217 1.19206 3.01543 9.8373 -0.6016 -2.07895 -0.0949581
296 2.22038 3.042 9.46725 0.669486 1.21656 -0.564627
242 3.1748 3.79675 9.13974 -1.1166 0.457806 0.46385
643 4.37314 3.84569 8.83 -0.304145 -0.329245 -0.0453257
252 3.11379 4.91222 9.68558 -0.0973658 1.23848 0.0247915
616 8.12389 3.78389 9.50934 1.82865 -0.950097 -1.29501
828 7.37825 3.804 10.4183 1.02995 -1.35891 0.665892
754 8.18206 2.85788 10.812 -0.168391 -0.754125 -0.219205
338 9.64734 4.03726 10.2604 -0.860076 0.28309 2.79962
131 8.67839 2.88027 9.20706 -0.985766 -3.11993 0.444168
769 11.6461 5.0286 9.6949 -0.480444 0.494866 -0.123194
401 10.8105 3.87637 10.29 0.381108 1.17984 1.63988
825 0.410312 4.39733 10.3035 -1.56943 -1.69015 -1.0323
440 0.702458 5.4565 9.64563 -0.0306626 0.153396 1.47467
635 1.2761 4.34392 9.82193 0.231677 -1.28711 -0.231363
220 1.38559 5.52614 10.5757 -0.904374 -0.25148 0.698922
229 3.93894 5.9925 10.1879 0.290012 -0.269039 -1.66212
807 3.52265 5.58964 8.69452 0.396001 0.459455 0.279755
826 7.11926 4.6433 9.70536 -0.526646 -1.70953 0.821854
743 8.44058 5.01737 8.85235 0.992269 1.31251 -2.06647
404 8.77375 5.9246 9.47491 0.012493 -0.2404 0.0892328
530 8.05359 4.70697 9.89687 -0.0452193 -1.71553 -0.892149
747 9.53289 5.45551 10.1348 -0.798113 0.316634 -0.800495
833 10.6947 5.3574 10.1052 0.890944 -0.0460121 -0.114795
745 1.20191 0.629915 11.1281 -0.021502 0.808197 1.29568
38 2.41218 5.92552 10.0916 0.555574 0.159944 -0.640215
634 1.92429 1.52293 10.3683 1.85429 -0.493419 -0.814747
734 3.57318 0.471546 11.5262 0.874353 -1.34622 -0.299596
566 2.43825 0.426283 11.3578 0.80543 -0.61945 -2.13158
149 3.07348 0.439881 10.3973 -0.0583689 0.0101457 -0.147187
305 4.18669 1.36564 10.4896 -1.24715 0.750143 0.244907
332 5.85253 5.65754 6.62915 -0.0368176 -0.986132 1.44489
301 11.6237 0.885711 11.5724 1.30505 -0.0544378 -0.680514
568 0.57844 2.49045 10.7181 1.21192 1.06263 -0.640279
508 1.16849 2.74233 11.5257 -0.23715 -0.887598 -1.95966
345 2.16012 1.91389 11.6337 0.12048 -0.678785 -0.468711
515 5.61163 2.59223 11.2627 0.998556 0.82359 -0.308947
489 8.43987 1.87489 11.4527 -0.807165 -0.375318 -0.646429
512 6.86207 2.77019 11.4134 0.355968 -0.299408 -1.29209
205 8.85246 0.999716 10.6787 -0.773178 0.530043 -0.355693
202 9.90709 2.74888 11.633 0.945042 -0.281478 -0.119886
431 10.0637 1.72661 10.6767 -1.85401 0.460767 -0.847393
586 10.7529 2.95542 10.6206 -0.0534915 -1.26431 0.0964363
68 0.0176274 2.09217 11.7751 1.17254 0.309091 0.491115
151 10.6989 1.87755 11.5679 0.167672 -0.0780979 -0.130009
312 1.48986 3.63131 10.8468 0.432319 0.393708 -0.586065
103 0.261557 4.34239 11.9328 -0.830407 -0.0186017 0.356113
709 7.27765 0.101517 7.15693 1.63675 0.435513 0.53994
665 4.66043 5.80853 11.5564 -0.867794 -1.12686 0.465524
441 3.6584 3.54201 10.5528 -0.426816 -0.622017 -3.4782
234 6.46447 3.35055 10.0167 1.84484 -0.0462991 -1.99588
108 2.95375 0.670669 6.00683 1.12034 -1.18477 -0.162675
490 8.5079 3.87595 10.4928 -0.460143 -0.225858 -0.571364
666 9.1984 4.23105 11.7652 -0.664524 0.510819 0.44823
83 8.97299 0.214197 8.50491 -0.582993 0.821492 0.786628
405 10.3295 4.18948 11.3246 -2.34119 -0.898917 0.176206
844 11.4823 3.62403 11.3743 0.702476 -0.944804 -1.01535
760 11.8835 3.52736 10.163 -1.32192 -0.400063 1.61607
29 1.11619 4.69732 11.5026 0.977457 -1.41359 2.39805
499 2.29468 4.43979 10.9534 -0.115537 -0.283242 1.31078
637 3.3242 5.80649 7.04327 0.995702 -1.71272 0.962712
456 8.51779 0.336111 6.38584 0.441702 -1.7977 -0.406334
127 4.46032 4.87079 10.9409 0.340168 0.771721 0.144202
146 3.61998 5.49441 11.1881 0.69504 -2.06162 0.0244992
349 5.93667 0.290799 10.9266 -1.06107 -0.416036 -1.6504
661 0.635339 0.226744 11.8713 -1.1361 -0.787748 0.272427
369 7.05184 4.9436 10.7046 -1.20767 -0.643915 -0.0227524
618 5.26035 4.58472 11.5611 -0.446368 1.93505 -0.982295
344 2.44945 2.81485 11.9924 -1.73358 -0.300659 -0.928674
18 1.38143 7.15593 0.601169 -0.335009 0.692983 -1.36015
52 3.31262 8.15676 1.66094 1.92152 0.949931 1.54819
674 2.76536 6.56669 0.251219 -0.708103 -0.887896 -0.446593
176 2.13598 11.3207 5.56845 0.184071 0.653797 0.265835
851 3.96652 7.31168 0.949823 -0.450297 -1.21885 -0.191395
189 5.09598 7.51055 1.10306 1.332 -0.643836 0.909326
434 4.71792 6.48303 0.628492 -0.8781 -0.345578 1.51317
93 6.29833 7.04552 0.41807 0.567811 1.5589 -0.842048
86 7.23858 6.50967 0.0743131 -1.06028 -0.727679 -1.04888
839 7.33816 7.27598 1.00552 -0.137365 -0.0654136 0.368202
317 8.96109 6.93179 0.915036 1.05029 -0.657427 -0.140059
120 10.3855 7.52857 1.39685 0.0441411 1.07739 1.44578
764 9.48889 6.20511 0.0858737 0.810183 -0.671735 -1.24561
716 10.8722 7.35013 0.538083 -0.155241 0.150803 0.541691
466 10.1897 6.53913 0.865328 0.318132 0.333959 0.203663
337 10.8568 6.64891 1.69093 -0.808972 0.221288 -0.512741
510 11.8785 6.63696 1.14612 1.30142 1.3549 0.909861
449 10.8566 6.39351 2.74161 0.812253 -0.39032 -1.21413
762 0.82674 8.19463 0.766464 1.93519 1.17425 -1.17148
658 10.2265 10.1999 0.237375 -1.17947 0.305885 0.186773
714 2.13907 7.79548 0.363989 0.470455 -0.457075 -0.509718
270 1.69491 8.28064 1.34065 -0.134183 0.882933 -0.327568
228 3.51331 8.23107 0.662141 -0.255189 0.190521 0.954653
34 4.31845 8.50366 1.20583 0.0896276 -1.71409 1.489
673 4.7717 8.3347 0.318231 -0.901287 -1.12538 -1.41722
820 4.25938 9.28587 0.260417 0.364123 0.865495 1.0724
69 8.30897 11.5239 5.5334 -0.127104 -0.292089 0.0829576
688 6.47125 8.05318 0.45377 0.823927 -0.85432 0.508291
654 7.57639 7.94636 0.216812 -0.27273 -0.988296 -0.143543
379 9.17993 7.74488 1.78017 2.23368 -0.121925 -1.72919
143 9.89368 7.86776 0.502484 -0.710422 -1.70988 -0.80057
212 11.9744 7.87446 1.09479 0.439818 1.29096 1.90943
543 1.17534 9.25754 0.631751 -1.399 -1.55142 -0.417247
667 0.331714 10.25 0.596456 0.649723 -0.579543 1.00378
253 2.83814 9.30625 1.62457 0.126917 -1.04059 2.54816
649 2.26917 9.8919 0.698252 0.488236 -0.67768 0.0222859
335 5.01831 6.07259 4.95613 -0.230015 1.91952 1.45898
336 2.28577 8.84745 0.685946 -0.36777 -1.89118 0.22845
487 3.14371 10.4129 1.18184 0.187152 1.72609 1.79998
75 4.40761 9.65649 1.32708 -1.36208 1.03705 0.711027
496 6.44429 9.32891 0.667044 -0.883233 -0.898819 0.806545
493 6.09272 9.12698 1.70421 -0.779414 -0.367079 1.86162
277 9.34591 10.4374 1.1152 0.857824 -1.43349 2.56247
503 8.77554 9.44452 1.41747 0.566711 -1.06178 -0.989012
720 9.74697 9.39977 2.15901 1.47461 -0.662927 0.742429
411 10.0777 9.20573 0.406382 1.23473 0.17956 -0.0668443
533 11.8219 9.1074 0.763797 -0.487442 2.77647 0.52116
664 11.2935 10.3245 0.535037 -0.464401 0.0127898 0.986739
138 11.39 9.5205 1.72332 -0.309769 -0.184008 -0.720666
733 10.7728 10.3197 1.50288 -1.19047 1.91254 0.175071
129 9.67197 6.04518 2.6676 -0.0817219 -0.278019 0.861146
384 1.47334 10.4192 0.448845 -0.897679 1.10219 0.476812
774 1.65204 11.2318 1.39408 -0.318297 -0.254643 0.284384
450 2.70562 11.2439 0.948259 1.12091 1.10237 1.05704
245 4.84428 10.5121 0.580784 -0.135374 -0.76425 -0.460155
526 5.46763 10.7489 2.15277 0.420567 0.0492474 1.65943
304 7.08505 9.66679 1.5453 -1.33863 -1.23158 0.195418
668 8.25544 10.264 1.0457 0.358591 -2.00883 -0.452054
778 8.50326 11.1901 0.401428 -1.32502 -0.607425 1.02208
419 10.1832 11.0737 1.01023 -0.354079 1.32568 -0.109458
8 9.26217 11.2151 1.73304 0.36252 -0.300168 1.58749
592 11.4723 11.0339 1.29206 0.970328 0.723019 0.165277
767 0.245905 11.526 0.813226 -0.0270185 -0.436624 -0.332852
287 10.8022 11.2393 0.181484 0.713445 -0.00280284 -0.215429
235 1.46203 6.37861 1.72089 1.34563 -1.55507 0.00522626
609 0.819593 7.25635 2.71774 0.0132624 1.01741 0.228016
710 2.10985 7.27418 1.3261 0.892712 1.39083 -0.37195
570 8.0485 11.4188 1.62451 -0.795503 -0.457323 -0.382893
746 3.22772 6.83387 1.59252 -0.946982 -0.209836 0.939963
581 4.79089 6.54787 1.70533 -0.300026 -0.854971 -0.277603
582 6.05148 7.49068 1.56902 0.946856 1.37643 -0.073789
438 7.05606 7.71782 3.13343 0.0897367 1.03524 1.75476
545 9.04406 7.40051 2.7962 2.13798 0.240838 1.56969
737 8.35345 6.38488 2.3424 -0.589299 -1.18586 -0.916675
787 9.20711 6.53309 1.80779 -1.29973 -1.94743 -1.14438
36 9.96579 6.96491 2.29429 -1.39385 1.12432 0.84624
463 8.00441 9.31775 5.70686 -0.437703 1.49903 0.1108
861 0.0568386 8.56668 1.86699 -0.0970183 -0.651008 0.414656
704 0.921535 7.6525 1.69379 -0.0455957 -0.626273 -0.916583
777 2.22707 8.2694 3.47231 -0.558374 0.131193 1.22351
717 1.81655 9.43162 1.52161 1.54057 1.04227 -0.0963153
478 5.40775 8.42016 2.24505 1.16406 -0.695811 1.22916
753 7.80604 7.79118 2.03021 0.925402 -0.0570767 1.15115
233 8.42402 8.4274 2.68713 -1.06333 -1.37585 -1.63076
452 11.5214 8.67674 2.84616 0.00027141 -0.688643 0.524122
126 0.52222 9.7805 1.51966 -1.09203 0.120623 -0.750432
513 2.56091 10.265 2.03718 -0.829447 1.12319 0.139593
16 3.89055 9.18333 2.52093 0.128877 -0.557381 0.823903
351 4.18895 10.8488 1.47514 1.0559 0.956879 -0.644116
535 3.87381 10.5273 2.44113 0.608258 1.58082 -0.288432
856 5.5683 9.66146 2.53368 1.17369 2.358 0.0747717
98 7.82137 8.78667 0.810339 1.18473 -0.0440105 -1.80217
621 10.0468 10.5551 2.31141 -1.90251 0.823668 1.91675
249 0.339115 9.54997 2.7409 1.90015 -0.812644 -1.0497
725 2.19046 11.1584 2.3657 0.438883 -1.24448 -0.555348
823 0.070402 10.7228 2.70279 -0.868252 -1.37553 -0.258031
471 3.78062 6.28175 0.172404 0.923936 -1.99975 1.2191
445 3.42466 11.7895 2.46672 0.404518 0.126936 0.248178
623 6.68038 11.4064 2.20326 -0.706312 -0.283637 -1.72752
528 8.55983 10.4285 2.01236 0.200842 -1.16963 -0.0952121
532 10.2601 11.8609 2.43134 -0.179529 1.11073 0.852874
614 9.32441 11.9849 3.01384 1.56607 0.00438056 -0.646723
91 11.058 10.6579 2.45865 0.209572 0.485034 -0.543345
170 2.82007 6.2403 3.52918 -0.83542 0.155012 0.172961
24 3.16687 7.09138 2.52991 -0.943737 -1.01743 -1.27802
602 1.52577 11.4706 0.361135 0.460082 0.567469 0.494307
606 4.77747 6.23575 2.66186 -1.28145 -1.63278 -0.063748
451 4.89916 7.13089 3.83992 -0.269459 0.239166 -1.65145
678 5.73395 6.79896 3.11149 -0.867414 0.172645 -1.08555
58 5.78975 6.73961 4.27127 -0.778684 -0.767079 0.264704
794 8.16534 6.8391 3.35765 -0.659427 -0.505092 -0.67876
360 9.96573 6.61216 3.44462 -0.445287 -0.984676 -0.194286
681 0.21785 6.31331 2.2483 1.91005 -0.48795 -0.981872
504 0.839875 8.14993 3.68288 -1.85105 -0.975166 -0.396127
128 2.42799 8.34472 5.28686 1.41633 -0.275434 1.29627
461 4.92369 7.42191 2.72497 0.418133 1.62855 -1.10514
118 3.47499 8.58493 3.83573 -0.224377 0.763596 -0.944397
315 3.87796 7.35659 4.33332 0.011986 0.0400843 -0.842968
192 6.62313 9.2575 2.57214 0.86637 1.61825 -1.20991
383 5.47029 8.08943 3.39925 -0.906796 1.39797 -0.21549
695 6.53135 8.41834 3.69313 0.382608 -0.184994 -1.26231
334 9.11814 8.99222 3.76803 1.38742 0.400756 -0.0960496
294 8.77909 7.90738 3.69887 0.124619 0.415657 0.69627