ITEM: TIMESTEP
49220
ITEM: NUMBER OF ATOMS
864
ITEM: BOX BOUNDS pp pp pp
0.0000000000000000e+00 1.2000000000000000e+01
0.0000000000000000e+00 1.2000000000000000e+01
0.0000000000000000e+00 1.2000000000000000e+01
ITEM: ATOMS id x y z vx vy vz
99 3.99063 2.41962 0.310953 -0.129336 1.33254 1.36523
77 1.22129 1.20501 0.633349 -1.19735 0.95097 0.75617
417 2.3358 1.17567 0.983152 -3.93497 0.964228 -0.0926139
497 8.70952 0.0542014 1.43269 1.13162 -1.09189 0.918029
775 7.85476 0.771002 1.45858 -0.416906 1.43093 0.820191
361 10.6222 0.968965 0.805955 1.10224 1.30542 0.757534
522 11.5531 1.42898 1.06241 -0.165122 0.655402 0.494215
154 0.363387 2.37156 0.624516 1.32944 -0.581315 -0.21194
750 1.86525 2.50724 0.47145 0.544346 0.766698 0.670422
657 3.06161 1.80066 0.308295 0.887449 1.03714 2.03142
262 3.84838 1.50995 0.914682 -0.565839 -1.33614 -0.945776
415 5.03954 2.43977 0.622564 -0.259793 -0.229884 0.18801
491 7.16576 2.62327 0.802963 0.122466 -0.653346 -0.549131
285 6.06323 2.30387 1.24353 -1.70339 0.817821 2.56008
836 2.49609 0.00957328 2.86013 -0.253506 -0.915826 -0.150941
712 8.06111 1.7731 0.887834 -0.46037 0.412555 -0.631844
94 9.10145 1.99264 0.623043 0.737485 -0.128191 1.2918
402 9.64671 2.67901 1.34741 -1.1356 -0.496484 0.866061
650 9.01989 1.23182 1.83629 -1.24282 -2.74421 1.40248
696 10.3871 2.00903 0.757289 -0.316606 0.70536 2.48146
771 11.2475 2.566 1.15337 0.436427 0.375284 0.3009
573 11.4119 2.37269 0.195959 -1.22212 0.644101 -0.420712
157 0.98768 3.00821 0.238562 1.43593 -0.258372 0.452534
29 1.3728 4.06434 0.675017 -0.729029 0.341516 0.0370381
840 2.44455 3.42396 0.730659 0.592947 2.13654 -0.186735
741 2.27385 4.47941 1.28373 0.28503 -0.675725 1.30294
620 3.41812 4.20196 1.69581 0.608655 0.361901 2.23695
849 3.50992 3.34131 0.626114 -0.131253 -0.275771 0.0952167
59 4.55781 4.03339 0.835683 -1.14109 -0.604187 -0.791844
738 5.41564 3.33509 0.939623 -0.114365 -0.0612562 0.697114
251 7.12672 4.64415 0.245168 0.207965 1.24489 0.534086
812 6.48193 3.68793 1.1488 0.410096 -0.688737 0.532445
713 8.21393 3.82064 0.947665 1.33028 0.78023 0.169802
188 9.19823 3.23066 0.555906 0.343133 -2.97959 -1.4526
180 9.39056 5.62876 5.93664 0.0305683 -2.11443 0.131099
859 10.3995 4.48242 0.376554 -0.47627 0.695812 -0.679297
79 10.4154 3.13657 0.811958 -1.30815 -1.15178 0.825116
15 11.2288 3.77381 0.452395 0.151651 -0.097854 -0.433313
135 0.745618 5.94267 0.326691 -2.1382 -0.0370728 0.95226
494 0.0133917 5.09842 0.803207 -0.320619 1.05213 -0.524691
430 1.57916 5.26946 1.30292 -0.69359 0.296808 -1.42436
239 2.74804 5.40535 1.11078 -0.562148 0.057167 1.14451
764 9.40721 5.91656 0.234772 0.442755 -0.987752 1.46151
663 3.17635 4.59832 0.298099 0.297478 -0.114909 1.39835
819 3.92675 5.54584 0.974153 0.922048 -1.10249 2.17942
266 5.65662 5.9279 1.5973 -0.943519 -0.223072 0.631026
801 5.01652 5.17119 0.943779 0.416986 0.170345 -1.42154
492 6.11789 4.98916 1.14214 -0.138135 0.889485 0.599507
107 7.38042 5.3387 1.03065 1.99018 0.439462 -0.634584
742 8.3495 5.881 0.44933 0.46223 -0.601384 -2.01937
659 8.27109 4.82509 1.05649 -0.10858 -1.00027 -0.307062
399 10.4616 5.33094 1.45579 0.38627 0.763698 1.73703
450 2.83167 0.0100762 1.05361 0.0430736 0.29017 0.0420037
202 9.69051 2.48098 0.0344752 -0.879805 0.0137169 -0.0150971
744 9.31369 4.78681 0.824253 -0.126276 -0.716819 0.309046
646 7.91118 2.51058 0.00408112 0.965407 1.26061 0.125952
298 1.56541 0.283788 1.44329 -0.922986 -1.0033 -1.21716
279 1.81575 0.827174 2.80317 -0.725089 0.620557 0.837774
11 2.82938 1.19461 2.11959 -0.452054 0.370272 0.553436
76 11.416 0.0568376 4.61454 -0.0183198 -0.064893 -1.08776
214 10.0495 0.451915 1.62678 0.482957 -0.643388 -1.83777
579 9.21268 1.43615 2.80099 0.231456 -0.542783 0.204377
110 10.518 1.11944 2.99662 1.33662 0.267975 1.02732
550 11.4386 0.581052 1.99814 1.16321 -1.70917 -0.0703213
72 1.53621 2.05546 2.76134 -0.536472 -1.63681 1.05829
726 1.74816 2.32095 1.73727 0.800208 1.52345 1.14543
380 2.52719 2.43816 2.56504 1.03714 -1.63578 0.188997
538 3.02984 2.1066 1.64085 0.597086 -1.91037 -2.09726
224 6.72087 2.73128 2.26787 -1.15732 -0.656732 0.0757368
765 7.6834 2.11769 2.07075 0.38067 -0.991005 -1.46433
685 10.505 1.48963 1.74695 -0.697548 1.04268 -0.414946
768 10.3761 2.65871 2.10553 1.76531 -0.341424 -0.286398
354 10.1371 2.14655 3.00888 1.14077 1.86566 -0.153267
12 8.98928 2.45328 2.70574 -0.670452 -0.428559 -1.01294
64 0.216025 3.97087 2.28827 -0.658268 0.499218 -0.195048
500 0.80406 3.00686 2.61304 -1.09865 1.0239 0.36628
267 0.894077 4.60602 2.86146 -0.506973 -0.106629 0.371602
114 1.52137 3.28925 1.2551 -0.0657502 -1.95191 -0.851822
630 2.14832 3.33669 2.65936 -0.960705 -0.617912 0.548557
536 3.99325 3.41322 2.09166 0.365157 0.573498 1.77134
413 2.95282 3.21981 1.70732 -2.29508 1.44011 -0.214792
368 5.83289 3.53016 2.18344 0.722037 -0.0212824 -1.92537
611 5.24102 4.19486 1.65374 1.49786 -0.826528 -0.134986
488 6.75519 4.29701 2.47319 -0.0877869 -0.171691 1.2233
468 8.21387 2.99838 2.06526 0.126304 -0.864102 1.08158
477 7.70412 3.90788 2.467 0.623885 1.30048 1.44535
254 8.78351 3.91142 2.13876 1.46981 -1.74875 -2.31367
137 9.64122 3.84898 1.26387 -0.534182 0.49665 -1.27182
53 10.9512 3.69309 1.78163 1.41091 -0.0528811 1.00858
596 11.7066 2.82452 2.54284 1.30616 -1.46693 -0.608893
822 11.2587 4.65836 2.11435 -0.97207 1.29963 -1.60588
627 1.81613 5.23597 2.39857 1.51402 0.799199 0.698603
327 4.39503 4.43421 2.25181 -0.186258 -1.28257 -0.993065
606 4.30491 5.58433 2.81306 0.813592 -1.20804 -0.606845
119 4.97163 5.24565 1.91337 0.0813491 -1.22886 -0.201519
410 10.4018 0.170196 0.369322 1.66936 -0.552718 1.29336
35 5.40932 4.85082 2.75052 -1.2175 0.0667202 0.636788
577 7.20584 5.86016 2.61734 -2.07661 0.830912 0.897578
306 7.41273 4.21776 1.60233 0.816387 -2.48151 -1.48142
226 8.19875 4.97579 2.14855 -3.1785 -0.343938 0.938843
129 9.38912 5.88587 2.36979 -1.21527 1.12813 0.494461
28 9.28006 4.99898 1.84506 0.7164 -0.272481 0.345729
343 10.1631 4.39127 2.51716 -1.08202 -1.02807 -1.75588
615 11.4631 5.70093 1.66354 -1.41182 -2.22905 -0.506163
580 6.23445 5.35357 0.178322 1.04085 0.695328 1.65735
798 0.498988 0.814832 3.30187 1.58104 0.579477 0.874829
367 0.568573 0.0938565 4.24458 -2.20961 0.312317 -0.158651
288 2.79756 0.843696 3.37446 -0.277574 0.0439028 0.308388
571 1.79195 0.685477 3.90865 -0.274016 1.33912 0.836621
652 2.93615 0.84962 4.52141 0.23939 0.48124 1.30947
758 3.72524 0.647968 3.03071 1.36936 -0.493195 -0.657789
346 5.28999 0.0579016 4.14164 -0.56303 -0.22249 0.0796967
236 5.1795 1.39253 4.25777 -0.0942027 -0.00508238 -0.970299
705 6.55308 0.828231 3.26846 0.916094 0.48313 -1.65095
814 8.74303 0.552616 3.06072 0.871714 1.8137 -0.149925
199 7.7893 1.20823 2.73161 -0.992791 -0.662424 -2.16299
173 3.70905 0.804274 0.161437 0.84635 -1.06959 0.340766
614 9.69624 0.336562 3.46754 1.04565 0.661895 -1.09776
73 10.3981 0.583682 4.28298 -1.20736 -0.00555049 1.77922
684 11.3569 0.150963 3.51606 2.00492 -1.09929 -0.38272
231 0.0579762 2.23806 3.26863 -0.89654 1.72576 -0.119987
272 1.05316 2.21796 3.74056 1.88988 1.52964 -1.96394
387 2.18091 1.64308 3.52288 1.20145 -1.04346 -0.288992
198 2.28809 2.21408 4.41151 -1.13153 -1.14858 -1.06549
286 3.19596 1.85466 3.46836 -0.705425 0.0927273 -0.985687
834 4.36118 1.68945 3.25979 0.472189 -1.20761 0.320966
679 3.98203 1.6742 4.44558 -0.0587411 -0.170064 1.38585
193 6.17027 1.91799 4.24024 0.97553 -0.99699 0.241559
105 7.5463 1.18225 3.98724 1.42779 -2.06329 0.297222
617 6.33674 2.42182 3.26663 1.00684 0.177345 -0.968462
590 7.40495 2.17873 3.14882 -0.491077 0.511353 -0.719657
749 7.40872 2.41298 4.26009 -0.29962 -0.643884 0.390088
156 8.45254 1.50633 3.66539 0.768787 -0.073413 -0.874099
397 8.46914 3.07504 3.90038 -1.23661 0.213533 -0.927442
276 9.36114 2.37747 3.93961 -2.00068 1.44128 0.764659
320 10.613 1.76181 3.87227 0.673757 0.253974 -1.26363
174 0.0974052 3.46977 3.87931 0.779175 2.48027 -0.127811
311 1.31385 3.30878 3.50483 -0.389235 -0.555727 -0.336164
341 2.6572 4.26472 2.95049 -0.416342 -0.326749 -0.565754
96 2.80951 3.13052 4.42554 0.219566 -0.490576 0.177482
133 2.00654 3.8952 4.40541 2.83992 1.16303 1.07406
858 3.19954 2.91414 3.19109 -0.203648 -0.277609 -0.963727
261 3.62146 4.2858 4.45439 0.987286 -0.563613 1.68563
427 5.03309 3.74688 3.08729 -0.907693 0.650603 -1.16554
2 5.44072 3.11355 4.11588 -0.866533 -0.309444 1.11584
540 4.47532 4.60011 3.87882 -1.5184 0.685624 -0.399277
562 6.21797 4.31125 3.36184 0.573994 -0.0478085 0.705288
299 7.25577 4.32039 3.52608 0.318076 0.447763 0.95878
464 6.80618 3.35753 3.93756 0.315391 -0.142015 -0.89894
106 10.6958 3.58118 3.01748 0.401864 -0.943161 -1.5572
437 2.16333 5.0144 3.49206 -0.348866 -0.391952 1.0673
479 4.05729 5.48521 4.18566 -0.927061 2.4035 -0.449246
722 3.64225 4.71224 3.35863 -1.48536 -0.399414 0.141079
537 6.53198 5.24681 3.35409 -2.02718 -0.576107 -1.06371
87 7.71934 5.46324 4.26408 1.02037 1.67091 -0.196231
804 8.14486 5.56329 3.25593 1.14343 -1.33903 0.689294
243 9.17961 5.07025 4.78035 0.308579 0.664556 -0.0413506
730 9.1843 4.97652 3.14864 -2.3515 0.526558 -0.362436
436 10.2602 5.48855 3.05557 0.479378 0.773592 -1.33032
177 0.0274545 1.00596 4.87781 1.1751 2.26592 -0.442414
660 1.1759 0.226704 5.46701 0.518862 -0.611949 -1.1515
190 1.19294 1.45191 5.16337 -0.654624 0.0328543 -0.632445
353 2.16367 0.585801 5.5718 -0.173144 -0.8086 -0.310836
108 3.28552 0.181161 5.93198 0.674376 0.0168433 0.613842
43 3.8564 0.88992 5.22907 -0.238377 0.915738 -0.0735438
692 4.61617 1.2271 5.99406 0.408665 1.86629 0.518837
78 5.83795 0.0791215 5.27873 -0.0538979 -1.85604 0.484696
124 6.70788 1.18829 5.0842 -0.140576 -0.272954 -0.67549
507 6.85676 0.2485 5.49095 -0.352018 -0.107692 1.23258
517 7.51661 0.832113 5.97598 -0.256594 0.0141785 1.31562
247 8.4803 0.657508 5.11909 0.785019 1.44806 0.0828603
147 9.29121 0.265512 4.65498 -1.36496 0.620873 0.381687
259 5.8578 4.00768 5.89309 -0.223513 -0.744508 -1.65906
682 10.38 0.568558 5.48704 -0.63765 -0.166397 -0.798645
163 9.35244 1.39988 5.71998 -0.328896 1.34679 -0.336207
195 7.14796 5.58284 5.15414 -0.0606838 -0.00698887 0.5107
458 10.9199 1.31305 4.8513 -1.36997 -0.442322 -1.05193
3 11.5514 1.02145 5.81421 -0.0468829 1.0245 0.200646
307 0.36793 2.69347 5.13801 -0.166488 0.36796 0.480529
215 1.4143 2.69247 5.04839 -1.85682 0.038216 -1.74695
418 2.52759 1.91062 5.51459 -0.261764 -0.65549 1.36091
770 3.93544 2.05062 5.55902 -1.69284 -0.927521 0.114663
295 5.69118 1.76379 5.17146 -0.290585 0.433948 -0.564829
168 4.8394 2.28804 4.74398 1.76858 -1.46506 0.00143963
740 5.53725 2.8594 5.38624 0.466172 -0.752746 -1.1845
280 6.57934 2.00982 5.76576 -0.274702 1.23855 -1.71267
82 8.48468 2.03368 4.758 -0.963075 -0.208323 -0.306508
273 10.022 1.65989 4.63043 -0.663004 -2.39954 0.959825
653 10.5158 1.84385 5.69024 1.226 0.648262 -0.65052
691 11.7498 2.15809 4.33786 0.366425 -0.308266 -2.39359
290 11.5832 2.07886 5.67647 -0.796588 -0.957266 -0.772774
51 10.8451 2.68045 4.80598 0.390302 0.917506 -0.372699
300 2.4951 3.34561 5.39918 -0.820524 0.83788 -0.663307
848 3.96973 4.83908 5.70953 0.198036 1.94952 -1.25114
264 4.29562 3.05677 5.81411 1.65304 -0.547784 -0.813994
62 4.39565 3.79748 5.02995 1.66262 -0.40118 0.468615
132 5.52791 4.15352 4.48109 0.854063 0.142882 0.12597
514 7.19573 4.07637 5.43144 -0.0460801 3.25572 -0.33743
785 6.71511 4.5753 4.35719 -0.219547 0.554097 -0.702412
565 6.80793 3.09719 5.46721 -1.01085 -1.02296 -0.820741
662 7.56291 3.32279 4.7538 1.44107 -0.964957 -0.595294
200 8.42209 3.84775 5.16912 -1.23898 0.482334 -0.56308
175 9.98161 3.28159 5.35513 -0.546553 -1.33499 0.0964631
628 10.7923 3.52898 5.94862 1.0816 0.747139 0.986412
388 2.85356 5.51883 4.47323 -1.1566 1.0289 -0.495973
335 5.53983 5.61736 5.66181 -0.693573 0.585977 -0.113385
724 5.07918 4.82908 5.12375 0.140956 -0.383791 1.15174
527 6.01399 5.38545 4.27522 -1.14491 0.60799 -1.23526
297 3.71069 0.156611 4.48194 1.1823 0.615475 -0.155072
703 5.7683 0.930512 5.77711 0.802208 0.761818 -0.478506
506 6.40361 4.9387 5.95872 -0.258247 -0.200174 -0.266553
40 6.78512 0.100986 4.16216 -0.31082 1.13136 0.115663
474 4.15626 5.03111 0.028896 0.00210423 0.577014 1.27304
638 5.09032 0.0588344 3.2238 -0.0472759 1.12363 -0.807255
66 1.85758 1.46176 6.1465 -0.0852938 1.73009 -0.33774
246 1.63977 0.313253 6.64301 0.516885 0.221155 1.53236
467 1.6536 1.08581 7.5186 -1.11567 0.383472 0.124189
326 4.10476 0.161488 6.86407 -0.507987 -1.16726 0.547599
366 3.45392 1.0462 6.8901 -0.258168 -0.74332 -2.04223
665 4.61375 5.67572 11.3316 -1.37602 0.0856304 0.742825
766 5.40986 0.145722 6.66684 -1.1409 -1.69763 0.233037
42 6.42492 1.64067 6.64312 -0.285146 -1.64527 -1.13546
19 7.21303 1.0202 6.91029 -0.474456 0.628351 -0.851526
324 8.25383 0.768384 7.13826 0.508425 -0.441739 -2.326
187 10.3688 5.50737 11.6923 -0.492524 -1.33289 -1.75533
225 9.28027 1.44165 7.13401 0.971716 0.471769 1.41651
392 9.74654 0.576883 6.5343 -1.89365 1.1984 0.0065779
593 2.25372 2.44478 6.53463 1.20491 -0.292679 1.58456
406 5.97775 2.23509 7.33285 -0.951794 0.384419 0.746147
757 4.70958 2.31152 7.77663 -1.34907 -0.413143 1.37804
457 5.51323 1.97182 6.29829 0.335137 -0.208556 0.556609
425 7.39719 1.91972 6.39825 -0.287133 -0.164935 -1.01398
104 8.80865 2.70159 7.16022 -0.307711 0.415605 0.826542
376 7.65901 2.60469 7.2568 -0.242052 -0.00917661 -1.70288
255 8.40036 1.7451 6.34809 -1.66292 0.199082 0.942134
292 10.0552 2.32888 6.49536 -0.491874 0.869878 0.181362
314 11.096 3.047 6.8832 0.222951 -0.599646 0.678629
811 1.66607 3.31516 6.7484 -0.495963 0.923099 0.510803
221 2.72075 3.82059 7.1883 0.419602 0.201395 -0.366901
171 3.83862 3.93916 6.42669 -0.181935 0.784763 -1.05655
302 5.43207 3.17083 6.51482 0.129206 0.629362 2.81391
793 1.51032 5.06106 11.9401 -1.63517 -0.79693 -0.751368
183 6.82063 3.64004 6.54271 0.120719 -0.121091 -0.661317
268 8.43364 3.54251 6.85855 0.694125 -0.0483352 -1.24992
265 7.76202 3.04559 6.03183 0.76088 -1.70687 0.133474
578 10.2565 3.62159 7.22867 -1.01315 0.167609 0.170339
591 6.06217 5.82492 10.8907 -1.49954 0.536386 -0.672913
780 0.884619 5.22013 7.3039 0.502161 -0.188963 -0.375712
269 1.95115 5.73254 7.31566 0.0300139 1.84128 0.939987
637 3.56973 5.48913 6.93157 -1.9786 -1.91897 -0.550768
332 5.73035 5.94575 6.89263 -1.06575 0.898244 0.996363
790 4.5708 5.63423 6.84113 1.06421 0.119477 -0.149097
160 5.31438 4.75448 6.35703 0.712867 -3.00702 1.73489
121 7.3131 4.54605 6.65273 1.74198 -1.22483 -1.13029
783 7.28754 5.63341 6.65662 0.209877 -0.447467 -0.0840677
838 6.10875 4.67434 7.14367 -0.70097 1.35186 -0.786381
735 1.97534 5.94803 9.76855 1.03914 0.283451 2.91996
748 8.38506 5.15263 6.62645 -0.772349 0.986754 -0.413849
483 11.435 5.03605 10.6635 0.243592 0.041865 0.0659754
677 9.61346 4.52176 7.24837 0.823892 -0.5919 0.973922
153 0.904436 4.55324 10.9561 0.951008 -0.316667 -0.939976
365 11.6862 5.29395 6.91356 2.00187 0.598687 -0.304197
325 1.23715 0.910784 8.63499 0.0284677 0.0130632 1.37134
339 2.47004 0.287853 7.37818 -0.907625 -0.678793 -0.677352
718 4.42327 0.308376 7.90135 0.345472 -2.16503 -2.61268
169 3.31682 0.211024 9.07001 0.11211 0.0929964 0.717488
204 3.54226 1.04463 8.26728 0.357796 -0.325603 -1.10879
599 6.74497 1.07992 8.60682 1.35241 -0.259716 0.335627
686 7.52946 0.896016 7.96053 0.2661 -1.32633 1.25678
186 8.31716 1.40953 8.25241 1.82939 2.07567 0.399969
83 8.66509 0.25376 8.65183 0.566696 -0.756246 -0.211184
648 7.39214 0.0310105 8.68358 -1.9274 0.49713 0.986354
395 9.62353 0.53893 7.81069 1.40297 0.660358 -0.0187856
213 10.6112 0.434306 8.09778 1.35652 -0.969723 -0.288821
140 3.77198 2.92105 7.47322 0.431251 0.217074 -0.711199
432 3.59002 2.19714 8.28642 -1.34061 0.672755 0.0449639
473 6.94546 1.78471 7.50847 -1.22837 1.52156 0.127537
328 6.04853 2.27624 8.40188 0.888066 0.726374 -2.18993
282 7.26922 2.49984 8.21339 -0.840104 1.04497 0.606521
131 8.56943 2.2064 8.85485 -1.20039 0.55335 0.735725
806 9.28567 3.22648 8.51646 0.507099 1.92603 0.0691741
518 10.4045 2.50728 8.70712 1.6892 0.176123 1.23501
26 11.6239 1.67735 8.33739 -0.939766 0.0718637 -0.189907
13 0.72346 3.26153 8.17317 -0.446201 -0.274635 0.591845
719 1.61371 3.98433 8.93365 0.421188 0.362966 0.544595
519 2.41623 4.87077 7.72378 -0.13098 1.90112 -0.575137
810 2.35072 2.88402 7.94389 0.109737 -1.232 -0.114448
459 3.01987 3.90218 8.34456 -2.48757 -0.614901 0.177802
643 4.71296 3.91025 8.956 2.72367 0.405619 -0.266823
481 6.19173 3.35504 7.85733 0.453232 1.35109 0.561293
139 6.89074 4.07608 7.62622 -0.164752 -1.73947 0.430626
852 7.75522 3.4311 8.20978 -0.672822 0.988316 -1.45945
860 8.06753 4.39754 7.87861 -1.29601 -0.341229 0.480942
701 9.11206 4.58308 8.61198 0.871015 0.248389 0.0718489
31 10.6947 3.50459 8.21346 -0.571638 -0.784122 -0.570248
45 11.6747 3.98926 8.91373 1.097 -0.479515 1.14066
390 1.30193 4.7511 8.02819 0.350843 0.0359296 0.34011
818 1.60904 5.0886 9.02906 0.683876 -1.27827 0.703514
112 2.5623 5.62571 8.456 1.42402 -0.0399267 0.212191
125 4.74614 5.29655 7.90296 1.09734 -0.335558 0.238936
728 5.7065 5.59628 7.86849 0.0555813 -0.409858 0.520112
731 6.17079 4.42389 8.60713 -0.301193 -1.19337 0.811854
453 6.88673 5.03136 8.16686 -1.63936 -0.542841 0.755779
358 7.73873 5.39101 7.61099 -0.686863 -0.693266 0.477078
743 7.77043 5.07215 8.64764 1.19067 -1.02664 0.539773
116 9.84367 5.18678 8.28325 0.0738808 0.739111 -0.269023
844 11.6824 3.19478 11.5862 0.124545 1.36186 0.0314155
47 11.5601 5.91021 8.88175 -2.55823 -0.0105953 0.152281
486 1.29063 1.0481 10.1612 0.432829 -2.57072 -0.860801
610 2.33593 0.724035 8.74296 1.72311 0.691915 -1.49461
634 2.51334 1.04593 10.2579 0.430697 -0.627311 -0.344396
95 3.58192 1.35092 9.73307 1.38491 1.72412 -0.284075
61 7.72805 5.28029 11.6956 1.01731 0.239386 -0.381972
802 4.12236 0.604336 10.1045 -0.271139 -0.81214 0.191862
49 4.51451 0.630718 8.96977 -0.149391 -0.402487 0.348907
560 5.47416 0.795008 9.86718 -2.10937 -0.580642 0.144042
619 7.28449 0.37246 9.9667 1.39195 0.535634 0.998856
37 7.68978 1.19663 9.39617 0.410298 1.12877 -1.15154
669 8.93526 1.20482 9.2744 0.911178 -0.601305 -1.13503
283 9.77048 0.468894 9.78013 0.5894 -2.4248 1.23928
7 7.05249 0.0490636 6.64087 -0.341181 0.0719623 0.500891
799 11.56 0.767436 9.54027 0.0278329 -0.120479 -0.150081
219 10.8028 0.0975056 9.4127 -1.46498 -1.5981 0.233405
632 0.609736 2.60991 8.9939 1.14911 -0.258712 0.238102
71 0.0311641 1.83056 9.82324 -0.985934 1.38775 1.26219
568 0.484133 2.78579 10.3459 0.68179 0.0242128 -0.386497
240 1.69292 1.87492 9.46212 0.0198899 -0.960231 0.345882
792 4.09244 2.14815 9.24764 0.682215 -2.06093 -1.06577
370 3.57928 2.45284 10.1838 0.0525764 -0.121943 0.267122
122 5.43984 2.86316 9.26778 0.569474 0.617228 1.43943
393 5.95989 2.23556 10.4536 0.505713 -0.562712 0.694989
821 7.62717 2.49138 9.65064 1.38969 -0.139302 -0.69379
697 6.84866 1.76737 9.73039 0.032603 0.410376 -0.273307
381 8.37858 1.75066 9.862 0.351218 0.932538 -0.251674
616 8.72158 2.89966 9.80557 0.925337 0.535404 0.194517
403 10.8482 1.50955 9.20332 0.696439 -0.127156 0.357897
41 11.088 1.30967 10.3145 0.0194812 -1.83142 0.985946
760 11.266 2.73166 10.2431 -0.521567 -0.665285 0.57131
217 1.50112 3.23836 9.78196 0.464673 -0.503399 0.532557
296 2.7068 3.14509 9.75753 -0.234252 0.361587 -0.278337
242 2.47895 4.49136 9.17949 -2.02874 1.42747 0.209882
441 3.70801 3.93034 9.34195 0.265603 1.15877 -1.4839
828 7.36912 3.22914 10.4899 -0.96436 -0.839074 -0.0598718
234 6.34229 3.51199 9.59393 -0.549108 -0.391114 -1.04981
258 7.74378 3.51827 9.44387 1.10443 0.316559 0.558473
756 10.0246 4.64219 9.49522 -0.254593 0.796504 -1.00725
612 9.29138 3.77439 9.3946 -1.21167 1.66739 -0.544522
853 10.337 3.60531 9.51243 -1.63752 0.408677 0.880317
401 10.786 4.22042 10.3544 -0.612543 -0.428037 0.77631
825 11.9367 4.13314 10.0478 -1.08016 -0.582749 -0.628323
440 0.134547 5.32999 9.72001 -2.67099 0.0187374 1.10956
635 1.02487 4.1047 9.89782 -0.179464 -1.6786 -1.60686
808 8.64819 5.08565 11.3116 0.0593129 1.02789 0.413173
252 3.17798 5.11457 10 0.396059 0.639744 1.32207
229 3.95965 5.82563 10.0256 1.81362 -1.23376 -0.864231
127 4.56697 4.96248 10.4612 0.247587 -0.156034 1.05638
687 5.16481 5.02034 9.56478 1.81161 -1.38731 0.607742
355 6.9967 5.74829 10.1605 0.360284 0.914721 0.650333
826 6.09999 4.7063 10.2098 -1.81346 0.0266357 1.23883
854 7.86323 5.26844 10.3936 -0.919184 -1.32221 0.939261
404 8.97287 5.96845 9.60814 -0.0620793 0.00677086 0.510398
530 8.60566 4.50677 9.61431 -0.770777 -0.752764 0.244822
382 10.2546 5.94127 9.40168 1.48292 0.425012 0.366991
747 9.32231 5.01946 9.96848 -2.21742 0.891974 -0.636109
769 11.1205 4.73905 9.57395 0.126544 -0.58573 -0.70549
833 10.301 5.38383 10.609 0.612576 0.116497 1.58311
159 11.1016 5.8314 9.93426 -1.18541 0.384471 0.261719
250 0.421561 0.548381 10.7884 -0.506128 1.07087 1.5815
745 1.35865 0.959246 11.3152 1.15622 0.3326 1.04241
729 0.416704 1.03428 11.8411 0.324767 0.348106 -0.0583984
661 0.894123 0.0977994 11.737 0.0372863 0.144736 -0.39957
566 2.56458 0.671689 11.2614 -0.460863 -0.751428 0.314693
345 1.97706 1.59626 11.8436 -1.67355 0.637002 0.171054
305 4.14326 1.37797 11.003 0.620947 0.131114 0.762766
369 6.82674 5.16164 11.2011 0.495817 -0.400134 -0.231455
146 2.63194 5.4787 11.2353 -1.4659 -0.569116 -0.673783
414 6.55627 0.732376 11.764 -1.71847 0.775118 0.892439
227 7.24479 0.471953 11.0883 -1.20606 -0.67156 1.79496
435 7.68818 1.41139 10.6881 -0.997799 0.686119 0.767244
205 8.34186 0.492873 10.7216 -0.474838 -0.740362 -0.542197
816 10.2691 0.0977656 11.1648 1.01505 0.571539 1.72297
843 9.86628 1.45088 11.493 -1.05229 -0.462125 -1.93574
54 7.88487 3.98705 11.9374 -2.09229 0.0690881 0.536701
301 11.3885 0.593115 11.508 0.106805 -1.24574 -0.533372
508 1.78812 2.24773 10.3568 1.8888 1.31996 -0.97477
68 0.426709 2.36788 11.4836 1.00078 -1.94186 -1.17403
57 2.79744 2.48427 10.9536 1.61956 -0.786469 1.20504
782 3.23537 1.57979 11.2512 -0.236998 0.0749585 -0.619715
815 4.53248 2.78181 10.6288 1.77717 1.01335 -0.983815
618 5.23431 5.00932 11.7636 0.217348 -1.10216 1.00003
115 6.32358 2.07208 11.848 0.933638 0.846541 -1.05885
515 6.26295 3.19981 11.0641 1.19611 0.54872 -0.763498
512 7.22096 2.41301 11.1244 -1.44512 -2.23895 0.413297
754 8.30737 2.93497 10.8747 1.33811 1.86694 -0.575876
489 8.88256 2.11737 11.3247 0.336922 0.419973 -1.16488
220 1.67694 5.24758 10.5541 1.44817 -1.17888 -0.868361
431 10.1272 1.34708 10.1549 0.465735 -0.0830131 -1.20379
586 10.1638 2.36505 10.9325 -0.886989 -1.10464 1.13609
151 10.9853 1.68502 11.5492 -0.34582 -0.383089 -2.12478
103 0.707569 4.01013 11.8522 1.51828 -0.17169 -0.324557
312 1.39264 3.21981 11.2175 -1.31595 -1.1251 0.542125
499 2.31114 4.27636 11.5786 -0.838346 -0.88156 0.0437323
344 2.36581 3.05763 11.7851 1.57274 0.548599 -1.46536
424 2.89485 3.91802 10.6283 -2.5003 0.823064 -0.151145
549 7.5378 4.27074 10.9487 0.42553 1.20986 -0.594827
542 5.97481 4.01056 11.9238 -1.08793 1.63745 0.400992
490 8.75949 4.10105 11.03 1.69516 0.135819 -1.18872
371 9.51803 3.19466 10.999 -0.498276 0.48912 2.0014
338 9.76433 4.29371 10.9778 2.35155 0.947733 -0.637216
666 9.36701 4.02356 11.9638 0.329497 -1.21637 0.992657
405 10.2157 3.62989 11.5916 0.170558 -0.752751 0.897732
655 11.1431 4.23943 11.4841 0.225573 -0.551289 -0.95105
363 11.3932 5.53498 11.9878 -0.831088 -0.526472 -0.904588
471 3.4402 5.85091 11.9856 -0.482717 -2.87983 -1.85814
704 1.01779 7.50607 1.20413 0.838879 -0.157903 -0.742106
18 1.8238 6.94357 0.737502 1.86614 -1.11115 -1.21183
714 2.52998 7.42978 0.0316908 -2.30983 0.459971 0.243651
235 2.29757 6.20436 1.65058 0.703713 -1.00303 0.893905
746 3.03999 6.709 0.531555 0.230751 0.411268 -0.514625
851 4.17772 6.98506 0.4299 0.325617 -0.138917 -1.55185
191 4.33517 6.11065 5.90199 0.574651 -0.918343 -1.60157
189 5.16334 7.02154 1.43868 -0.459489 -0.366994 0.428429
434 4.7778 6.12769 0.578695 -0.196451 -1.09772 1.40744
831 5.23874 7.32779 0.24012 -0.872827 -1.65327 0.711005
93 6.29323 6.8118 0.845543 -0.846094 1.3983 -1.06236
90 7.14626 6.35735 1.14028 0.489809 -0.228957 -0.199868
86 7.72055 6.70722 0.204772 -1.37239 -0.0213872 -0.859809
317 8.42755 7.00942 0.975868 -0.871652 0.0806713 1.64958
466 9.89899 6.8941 1.27444 -1.26586 0.771888 0.957128
716 10.8554 7.51757 0.991199 -1.66244 0.987508 0.857879
510 0.104834 6.50371 0.934294 1.25009 -1.38534 -0.308242
70 10.9584 6.28292 0.952514 0.501443 1.58899 0.743359
400 11.7598 7.16152 0.189728 -1.28497 -0.364348 -0.0767716
762 1.62999 8.02669 0.414561 0.437447 -0.355692 -0.317959
336 2.47595 9.04314 1.4774 -0.280643 0.310391 1.45707
710 2.25338 8.00578 1.21173 0.146952 1.07584 -0.622993
228 3.16404 8.12022 0.596468 0.377882 -0.382275 1.11376
839 7.34367 7.53069 0.839378 0.695645 -0.183111 -0.319342
688 6.04555 8.13887 0.396509 -1.85107 -0.27962 0.584676
98 7.75358 8.56264 0.573602 -1.18823 -1.06007 1.83885
379 9.22458 7.71856 1.56413 0.00653136 0.250298 1.23759
143 9.9114 7.69165 0.432356 1.08736 -2.1904 0.0938284
503 9.21547 8.7071 0.85539 1.06825 -1.32506 -1.30745
411 10.3008 9.07244 0.703425 -0.00111707 1.48141 1.27614
212 0.0497015 8.24396 1.25837 -0.661257 1.76823 -0.917832
293 11.057 8.50639 0.367164 -1.04578 -0.405191 0.332494
543 0.875065 9.64094 0.639518 0.280461 -2.20397 -0.356785
667 0.200588 10.396 0.375813 0.705457 -0.366479 -3.38363
649 2.77759 10.0165 0.631639 1.71401 -1.34432 -0.089714
820 4.08199 9.09149 0.854709 -0.508381 -1.057 1.17112
496 5.77272 9.50777 0.638919 0.782102 -0.927992 -1.29284
245 5.15021 10.365 0.595831 -1.02719 1.43373 0.478633
304 6.95916 9.0253 1.36266 1.60751 -1.4095 -1.32798
668 8.77 9.56556 0.914352 1.14427 0.287345 -0.955532
658 9.45126 10.4826 1.1193 -0.91555 0.323924 2.02903
533 11.789 9.43721 0.582895 0.359602 -1.56313 -1.11401
664 10.9747 10.0872 0.745863 -0.20027 -0.545963 0.0856783
767 1.21314 11.3005 0.841157 -0.0391238 1.40256 0.597014
384 1.47083 10.4854 0.31253 1.09436 -0.338118 -0.863868
774 1.75339 10.5648 1.47949 -0.685444 0.505479 -0.217509
389 11.3471 10.9737 5.18864 0.436516 -0.648197 0.504488
602 2.12446 11.5039 0.44326 0.70326 -1.09741 0.00134121
351 4.65358 11.3986 1.01038 0.653681 0.70024 -0.706263
623 6.90382 10.9874 0.666375 1.20099 -0.839113 -2.82204
778 8.08079 10.6812 0.486348 -0.311803 -1.23695 -0.00153572
260 8.62784 11.8734 0.139245 0.553381 -0.856688 1.64357
419 9.59673 11.5781 0.771075 -0.806516 -0.225983 1.17611
629 11.0367 11.9837 1.16342 -0.00973964 1.11877 0.108897
287 10.7116 11.0249 0.228866 -0.214949 -0.0237388 0.746279
609 1.6627 7.36218 2.70173 1.95102 -0.884482 0.930548
681 1.08985 6.14029 1.45948 0.204452 0.750314 -1.2352
525 0.385299 6.59411 2.33846 2.30893 0.664485 -0.805855
24 2.64953 7.10019 3.10989 -0.486153 0.60847 0.833324
581 4.66306 6.29414 1.96986 -1.66555 0.285302 0.0788935
678 5.81768 7.11139 2.84641 1.91306 1.02608 0.843823
737 8.267 6.2718 2.22735 0.62882 -0.0785276 -0.5166
753 7.31654 7.01231 1.96111 -0.860931 0.247354 0.720393
787 9.21769 6.96629 2.24609 1.65675 0.786757 1.03804
36 10.5282 7.65978 2.81423 0.155717 0.315416 0.980644
337 11.3117 7.03339 2.03896 0.75212 1.48998 0.470531
449 11.4114 6.17288 2.87383 1.47011 -0.112759 0.0659322
861 11.9877 8.89763 2.38959 -0.564006 1.04184 0.238643
270 1.35976 8.25207 1.96689 -1.50451 -0.436491 -0.777235
52 3.30749 8.07818 2.93347 -2.45069 0.295432 1.83648
34 5.07086 8.37987 1.28453 1.37259 0.975772 -1.06838
478 6.11828 8.08677 3.07277 0.506558 -1.0385 1.33983
461 4.90383 7.65224 2.29519 0.972361 0.709677 -1.01595
582 6.7028 8.22083 2.04449 0.926632 0.90037 1.01276
233 8.91811 8.67344 2.82175 0.755582 1.38502 -0.827036
120 10.9837 8.22631 1.92025 0.475238 1.26185 0.0783396
126 0.266016 9.88381 1.54653 -0.325421 0.818457 0.296033
249 1.37616 9.72767 3.05021 2.05556 1.33306 -0.969153
823 0.0798727 9.83979 2.94959 0.178429 -0.467654 1.46
717 1.46615 9.5534 1.77997 -0.889586 -0.838675 1.68053
513 2.56771 10.1946 2.23589 -0.443023 -0.273744 0.0433008
67 2.1651 9.08489 2.55666 1.68675 0.383351 -0.194981
253 3.29213 9.18497 2.1288 0.782664 0.569951 0.410477
75 4.3855 9.70567 1.87776 -0.323793 -0.21038 0.234243
16 4.05829 9.26082 2.89078 -1.71895 -0.932945 -0.114878
493 5.93427 9.13141 1.76373 -0.160212 -1.02024 1.31221
502 5.21816 9.38623 2.56116 1.67416 0.225733 1.26185
856 6.21909 9.79179 3.05428 1.44462 -1.08217 -0.902567
192 7.59869 9.99226 2.88179 1.92349 0.996279 -0.857864
528 8.30407 10.2749 1.90405 -1.26801 1.18866 0.297719
277 9.57526 9.427 1.73319 0.00505855 -0.975675 -0.279038
720 10.3472 8.87393 2.68306 0.122335 -1.05586 -0.744271
309 9.06776 10.5563 2.76318 -1.12103 0.621862 -2.06136
138 10.9231 9.60162 1.66312 -1.28813 -0.146694 1.18375
708 10.8422 10.1655 2.8867 -0.0694163 -1.01446 0.195371
809 1.1552 11.3162 1.97531 1.03651 0.295417 -0.574183
206 0.78306 10.7339 2.85773 -0.64686 -1.22939 1.07306
725 2.25264 11.4777 1.93489 -0.823241 1.54986 -0.416338
27 0.371939 11.8239 1.56924 0.72867 -0.399834 1.91284
487 3.0852 11.0616 1.33652 0.479742 -1.01738 -2.24756
535 4.5741 10.7924 1.94449 -0.874482 -0.620169 -0.790191
445 3.84539 11.7139 2.61352 1.96576 0.138009 0.902839
526 5.55253 11.1005 1.63244 0.612735 0.459753 -1.83338
429 6.35797 11.7207 2.49707 0.203679 0.32125 -0.604647
570 7.80976 11.4828 1.84343 0.090995 0.593808 0.390072
733 10.544 11.1183 1.34361 0.460327 1.43122 -1.41936
8 9.28395 11.7117 2.53182 0.979391 0.117733 1.87299
621 10.0538 10.885 2.32559 0.616627 1.68915 -0.831732
592 11.6278 11.1314 1.21488 -1.15409 0.440365 -0.0241201
532 10.5254 11.7594 2.71267 -0.996159 -1.10015 -0.143648
91 11.2792 11.1952 2.14611 -1.09455 0.371859 -2.99271
209 1.18179 6.53548 3.12424 0.656005 0.546575 0.175426
170 2.46405 6.14421 3.8348 -0.339539 0.426473 0.569733
641 4.03733 6.66156 3.52277 0.587127 0.202361 -1.94739
575 5.23238 6.14419 3.72874 0.161215 0.0981971 0.50823
451 4.86404 7.42877 3.93059 -0.220373 -0.627097 1.31248
794 8.50207 7.17858 3.22511 1.25978 1.82836 0.325686
100 7.95041 7.44928 4.25846 0.409271 1.81856 -0.420408
321 8.34333 6.42796 4.13737 1.06691 -0.371277 -2.24011
360 10.1877 6.55749 2.9877 0.474397 0.868131 -0.423874
164 9.37715 6.99161 4.48054 -1.57787 -0.257938 -0.750652
504 0.898493 7.93985 3.91964 1.314 -0.511049 1.6233
777 2.02966 8.63888 3.96028 -0.510874 0.210093 0.322671
118 3.41732 8.75742 3.70236 -0.592991 2.26363 0.527524