LAMMPS (29 Sep 2021 - Update 2)
#RDF

units		lj
boundary	p p p
atom_style	atomic

lattice		fcc ${rho}
lattice		fcc 0.7
Lattice spacing in x,y,z = 1.7878071 1.7878071 1.7878071
region		box block 0 10 0 10 0 10
create_box	1 box
Created orthogonal box = (0.0000000 0.0000000 0.0000000) to (17.878071 17.878071 17.878071)
  1 by 2 by 2 MPI processor grid
create_atoms	1 box
Created 4000 atoms
  using lattice units in orthogonal box = (0.0000000 0.0000000 0.0000000) to (17.878071 17.878071 17.878071)
  create_atoms CPU = 0.001 seconds
mass		1 1.0

velocity	all create $T 87287 loop geom mom yes rot yes
velocity	all create 1.0 87287 loop geom mom yes rot yes

pair_style	lj/cut 2.5
pair_coeff	1 1 1.0 1.0 2.5

neighbor	0.3 bin
neigh_modify	every 20 delay 0 check no
thermo		100

#Equilibration

fix		thermos all nvt temp $T $T 1.0
fix		thermos all nvt temp 1.0 $T 1.0
fix		thermos all nvt temp 1.0 1.0 1.0
run		20000
Neighbor list info ...
  update every 20 steps, delay 0 steps, check no
  max neighbors/atom: 2000, page size: 100000
  master list distance cutoff = 2.8
  ghost atom cutoff = 2.8
  binsize = 1.4, bins = 13 13 13
  1 neighbor lists, perpetual/occasional/extra = 1 0 0
  (1) pair lj/cut, perpetual
      attributes: half, newton on
      pair build: half/bin/atomonly/newton
      stencil: half/bin/3d
      bin: standard
Per MPI rank memory allocation (min/avg/max) = 2.706 | 2.706 | 2.706 Mbytes
Step Temp E_pair E_mol TotEng Press 
       0            1   -5.2272486            0   -3.7276236   -4.5801933 
     100   0.68063352   -4.7400697            0   -3.7193746  -0.71596489 
     200   0.71603449   -4.7248036            0   -3.6510204  -0.47862207 
     300   0.75180039   -4.6946013            0   -3.5671826  -0.32450228 
     400   0.80077973    -4.678298            0   -3.4774287  -0.16907098 
     500   0.84289862   -4.6495333            0   -3.3855015 -0.089680928 
     600     0.873187   -4.6012389            0   -3.2917858   0.18609525 
     700   0.91978882   -4.5814703            0    -3.202132   0.23311107 
     800   0.95743484   -4.5549645            0   -3.1191712    0.4062717 
     900   0.98872764   -4.5285337            0    -3.045813   0.50022411 
    1000    1.0095849   -4.5007985            0   -2.9867998   0.65629206 
    1100    1.0378596   -4.5047471            0    -2.948347   0.57927778 
    1200    1.0398093   -4.4935653            0   -2.9342413   0.65599281 
    1300    1.0429271   -4.5107579            0   -2.9467583   0.62093679 
    1400     1.019873   -4.5148761            0    -2.985449   0.58343899 
    1500   0.98974541   -4.5149676            0   -3.0307206   0.58150152 
    1600   0.98170141   -4.5379984            0   -3.0658144   0.40043696 
    1700   0.97109822   -4.5401642            0    -3.083881   0.42629246 
    1800   0.96746707   -4.5308935            0   -3.0800557   0.53194265 
    1900    1.0046688   -4.5619733            0   -3.0553468   0.35289209 
    2000    1.0005844   -4.5228901            0   -3.0223887   0.51602501 
    2100    1.0238718    -4.528941            0   -2.9935173   0.49273166 
    2200    1.0215835   -4.5044477            0   -2.9724555    0.6150805 
    2300     1.015664   -4.4908802            0   -2.9677651   0.64408951 
    2400    1.0192978    -4.508999            0   -2.9804345   0.56654518 
    2500     1.017539   -4.5292547            0   -3.0033278   0.52714582 
    2600   0.99854098   -4.5293434            0   -3.0319064   0.46946125 
    2700   0.98177978   -4.5259366            0   -3.0536351   0.51304005 
    2800   0.98026162   -4.5331916            0   -3.0631667   0.46435634 
    2900   0.99121269   -4.5489422            0   -3.0624949   0.43479514 
    3000   0.98090227   -4.5180466            0    -3.047061    0.4793977 
    3100   0.99537596   -4.5154081            0   -3.0227174   0.51853115 
    3200    1.0008556   -4.4997093            0   -2.9988012   0.66240151 
    3300    1.0202334   -4.5147576            0     -2.98479   0.58256137 
    3400    1.0074207   -4.4925977            0   -2.9818444   0.63034741 
    3500    1.0123524   -4.5091391            0   -2.9909901   0.57338603 
    3600   0.99130142   -4.4950699            0   -3.0084895   0.61360052 
    3700   0.98135183   -4.4995284            0   -3.0278687   0.63127967 
    3800   0.98023802   -4.5114032            0   -3.0414138   0.59783549 
    3900   0.98285042   -4.5205327            0   -3.0466257   0.55186284 
    4000   0.98850984   -4.5242498            0   -3.0418558   0.49106731 
    4100   0.98132984    -4.502176            0   -3.0305492   0.60985583 
    4200    1.0080663   -4.5274482            0   -3.0157268   0.53618265 
    4300     1.018492    -4.530471            0    -3.003115   0.48839706 
    4400    1.0172443   -4.5205151            0   -2.9950301   0.55870196 
    4500    1.0121602   -4.5121102            0   -2.9942494    0.5730901 
    4600   0.99984935   -4.5037259            0   -3.0043268   0.63249105 
    4700    1.0058773   -4.5250048            0    -3.016566   0.52001969 
    4800   0.99381152   -4.5232959            0   -3.0329513   0.53742422 
    4900   0.99400731   -4.5370237            0   -3.0463855   0.44459312 
    5000   0.98531607   -4.5303898            0   -3.0527852   0.51295212 
    5100   0.98174821    -4.523102            0   -3.0508478   0.48419629 
    5200   0.98135607   -4.5112139            0   -3.0395478   0.52275539 
    5300   0.98956175   -4.5074889            0   -3.0235174   0.57246074 
    5400    1.0091754   -4.5205619            0   -3.0071773   0.54965908 
    5500   0.99787817   -4.4909731            0   -2.9945301   0.60510692 
    5600    1.0082704   -4.5022087            0   -2.9901812   0.58896293 
    5700    1.0030976   -4.5001929            0   -2.9959227   0.60038213 
    5800   0.99619479   -4.5051774            0   -3.0112588   0.56508039 
    5900   0.98892591   -4.5118571            0   -3.0288391   0.56545318 
    6000    1.0039262   -4.5455102            0   -3.0399974   0.42439905 
    6100   0.99289943   -4.5340202            0   -3.0450434   0.43048389 
    6200   0.98592546   -4.5217347            0   -3.0432162   0.52802849 
    6300   0.99045505   -4.5178462            0    -3.032535   0.52182627 
    6400   0.99212903   -4.5029641            0   -3.0151426   0.57407657 
    6500     1.017006   -4.5242985            0   -2.9991708   0.48779199 
    6600     1.021378    -4.518416            0   -2.9867319   0.55569472 
    6700    1.0161353   -4.5094518            0   -2.9856299   0.51673729 
    6800    1.0076713   -4.5081386            0   -2.9970096   0.54531174 
    6900    1.0101527    -4.530061            0   -3.0152108   0.46881454 
    7000     1.004613   -4.5381567            0    -3.031614   0.46990661 
    7100    0.9808406   -4.5155469            0   -3.0446538   0.57817268 
    7200   0.97795115   -4.5157788            0   -3.0492188    0.5185942 
    7300   0.98550896   -4.5224164            0   -3.0445225   0.57527036 
    7400   0.99921251   -4.5278475            0   -3.0294034   0.51444993 
    7500    1.0058247   -4.5156234            0   -3.0072636   0.54261213 
    7600    1.0128067   -4.5111674            0   -2.9923372   0.56477621 
    7700    1.0195316   -4.5186926            0   -2.9897776   0.53911544 
    7800    1.0102361    -4.514551            0   -2.9995758   0.57019533 
    7900   0.99532907   -4.5060376            0   -3.0134172   0.58063274 
    8000    1.0059931   -4.5304382            0   -3.0218258   0.47114515 
    8100    0.9964641   -4.5195861            0   -3.0252636       0.5218 
    8200    0.9927374   -4.5141902            0   -3.0254563   0.51762173 
    8300   0.99683682    -4.518253            0   -3.0233716   0.56720329 
    8400    1.0014756    -4.520587            0   -3.0187491   0.55773005 
    8500   0.99845166    -4.511626            0   -3.0143229   0.52952281 
    8600    1.0141809   -4.5294437            0   -3.0085527   0.54169843 
    8700    1.0100536   -4.5160914            0   -3.0013897   0.59989273 
    8800    1.0151411   -4.5153751            0   -2.9930441    0.5319573 
    8900   0.99776104    -4.486353            0   -2.9900856   0.62880178 
    9000    1.0037288   -4.4970593            0   -2.9918424   0.60141991 
    9100    1.0080639   -4.5138213            0   -3.0021035   0.56917923 
    9200      1.00508   -4.5254166            0   -3.0181735   0.51393717 
    9300   0.99261842   -4.5239142            0   -3.0353588    0.5260608 
    9400   0.99165209    -4.530575            0   -3.0434688   0.47306747 
    9500   0.99888395   -4.5428239            0   -3.0448725   0.37694125 
    9600   0.98667447    -4.513757            0   -3.0341153   0.55084183 
    9700    1.0013874   -4.5092773            0   -3.0075717   0.54295778 
    9800    1.0237879   -4.5166267            0   -2.9813287   0.55587828 
    9900    1.0282181   -4.5197944            0   -2.9778528   0.53458192 
   10000    1.0202692   -4.5169409            0   -2.9869197   0.55168564 
   10100    1.0104725   -4.5163756            0   -3.0010458   0.50797839 
   10200    1.0129098   -4.5344953            0   -3.0155104   0.46713066 
   10300    1.0033868   -4.5317637            0   -3.0270598   0.46881351 
   10400     0.987287   -4.5156159            0   -3.0350557   0.55178694 
   10500    1.0000416   -4.5370381            0   -3.0373507   0.46358291 
   10600   0.98396592   -4.5107827            0   -3.0352028   0.52881533 
   10700    1.0023881   -4.5263025            0   -3.0230963    0.4703257 
   10800    1.0208871   -4.5333151            0   -3.0023672   0.53260312 
   10900      1.01928   -4.5017284            0   -2.9731907   0.58814198 
   11000    1.0328564   -4.5031775            0   -2.9542801   0.57362129 
   11100    1.0220248    -4.488695            0    -2.956041   0.66970776 
   11200    1.0232404   -4.5079012            0   -2.9734243   0.60956652 
   11300    1.0176493   -4.5169288            0   -2.9908364   0.54603494 
   11400     1.001351   -4.5049491            0   -3.0032981   0.57592458 
   11500   0.99798809   -4.5116544            0   -3.0150465   0.58631975 
   11600    1.0041534   -4.5338955            0    -3.028042   0.46581689 
   11700   0.99887234   -4.5359718            0   -3.0380378   0.49042079 
   11800   0.97157022   -4.5012075            0   -3.0442165   0.58074512 
   11900   0.97100398   -4.4968326            0   -3.0406907   0.63482071 
   12000    1.0024228   -4.5254471            0   -3.0221889   0.46447265 
   12100    1.0183236   -4.5260422            0   -2.9989387    0.5000471 
   12200    1.0220534   -4.5208717            0    -2.988175    0.5092506 
   12300    1.0201341   -4.5192386            0     -2.98942   0.55004932 
   12400    1.0025069   -4.5020298            0   -2.9986454   0.61825074 
   12500     1.004003   -4.5120925            0   -3.0064646   0.53037058 
   12600     1.010756   -4.5287661            0   -3.0130111   0.49525596 
   12700   0.98802433   -4.4984275            0   -3.0167615    0.5913784 
   12800    0.9901471   -4.5051946            0   -3.0203453   0.51661694 
   12900   0.99407218   -4.5126919            0   -3.0219564    0.5510636 
   13000    1.0046496   -4.5271957            0    -3.020598    0.4537449 
   13100   0.99189693   -4.5034259            0   -3.0159524   0.60884074 
   13200    0.9926516   -4.4968838            0   -3.0082787   0.59885259 
   13300    1.0091069   -4.5080409            0   -2.9947589   0.62362629 
   13400    1.0128346   -4.4965784            0   -2.9777063   0.60746221 
   13500    1.0137358   -4.4912193            0   -2.9709958   0.62178845 
   13600    1.0269805   -4.5189724            0   -2.9788867   0.56363346 
   13700   0.99708264   -4.5003066            0   -3.0050565   0.62432518 
   13800   0.99146572   -4.5165641            0   -3.0297374    0.6168289 
   13900   0.99220597    -4.528539            0   -3.0406022   0.50021842 
   14000   0.98163527   -4.5153402            0   -3.0432554   0.52072094 
   14100    1.0066694   -4.5468124            0   -3.0371858   0.43228007 
   14200   0.99823505   -4.5228553            0   -3.0258771   0.55643971 
   14300    1.0041467   -4.5192488            0   -3.0134052   0.54060169 
   14400    1.0087018   -4.5142936            0   -3.0016191   0.56274977 
   14500    1.0168094   -4.5159452            0   -2.9911123   0.52675823 
   14600    1.0215513   -4.5169877            0   -2.9850439   0.55811441 
   14700    1.0150658   -4.5115459            0   -2.9893278    0.5725288 
   14800    1.0000166   -4.5085535            0   -3.0089036   0.54050931 
   14900    0.9937667   -4.5202267            0   -3.0299493   0.48257582 
   15000   0.98628381   -4.5221522            0   -3.0430963   0.43262154 
   15100   0.98024868   -4.5147202            0   -3.0447148   0.52256205 
   15200    0.9863767   -4.5156392            0   -3.0364441   0.51349319 
   15300   0.99675371   -4.5100029            0   -3.0152461   0.56980398 
   15400     1.012291   -4.5143104            0   -2.9962534   0.55798037 
   15500    1.0112141   -4.5063188            0   -2.9898768   0.63710321 
   15600   0.99873926   -4.4919219            0   -2.9941876   0.61097417 
   15700    1.0043465   -4.5104698            0   -3.0043266   0.59033446 
   15800    1.0059264   -4.5222334            0   -3.0137209   0.57783719 
   15900    1.0041049   -4.5290625            0   -3.0232816   0.56537063 
   16000   0.99828106   -4.5269288            0   -3.0298816   0.49786357 
   16100    1.0067752   -4.5433217            0   -3.0335365   0.46550237 
   16200    1.0037929    -4.539118            0   -3.0338051   0.47795248 
   16300   0.99038392   -4.5171129            0   -3.0319084   0.54404334 
   16400   0.98803955   -4.5091017            0   -3.0274129   0.62920182 
   16500    1.0110296   -4.5336661            0   -3.0175008   0.48204878 
   16600    1.0192847    -4.523278            0   -2.9947332   0.57306416 
   16700    1.0133015   -4.4864986            0   -2.9669263   0.73022815 
   16800    1.0233087   -4.4940128            0   -2.9594335   0.66620161 
   16900    1.0176823   -4.5009005            0   -2.9747587    0.6549223 
   17000   0.99219629   -4.4902708            0   -3.0023484   0.63731765 
   17100   0.98752865   -4.4978958            0   -3.0169732   0.63790853 
   17200   0.98389889   -4.4973946            0   -3.0219152   0.55678294 
   17300   0.99971474   -4.5226107            0   -3.0234134   0.53316838 
   17400   0.99437387   -4.5148588            0   -3.0236709   0.53109703 
   17500    1.0016391   -4.5237266            0   -3.0216436   0.56213699 
   17600    1.0004767   -4.5142843            0   -3.0139445   0.54937213 
   17700   0.99332292   -4.4910114            0   -3.0013995   0.65732103 
   17800    1.0222516   -4.5211739            0   -2.9881798   0.50496071 
   17900    1.0279062   -4.5234877            0   -2.9820138   0.50481899 
   18000    1.0157535   -4.5156091            0   -2.9923597    0.5680519 
   18100   0.99589788   -4.5124017            0   -3.0189283   0.59286316 
   18200    1.0026334   -4.5440948            0   -3.0405206   0.41774413 
   18300   0.98612716   -4.5268979            0   -3.0480769    0.4658987 
   18400   0.99304426   -4.5328018            0   -3.0436078   0.50280296 
   18500   0.99399237    -4.522765            0   -3.0321492   0.52017462 
   18600    1.0030782   -4.5226387            0   -3.0183975     0.556143 
   18700    1.0142036   -4.5293197            0   -3.0083946   0.52406077 
   18800    1.0090292   -4.5181689            0   -3.0050035   0.54271313 
   18900    1.0115292   -4.5283465            0    -3.011432   0.50268449 
   19000   0.99325411   -4.5222716            0   -3.0327629   0.53545403 
   19100   0.98724199    -4.546863            0   -3.0663703   0.45101321 
   19200   0.98128228   -4.5488043            0   -3.0772488   0.40502503 
   19300   0.96893309   -4.5223844            0   -3.0693481   0.48597415 
   19400   0.98834301   -4.5303367            0   -3.0481929   0.52700835 
   19500   0.99094957   -4.5133924            0   -3.0273397   0.51384129 
   19600   0.99106462   -4.5003573            0    -3.014132   0.60595232 
   19700   0.99946249   -4.5084453            0   -3.0096264   0.58150386 
   19800    1.0003466   -4.5089984            0   -3.0088536   0.58909319 
   19900   0.99111038   -4.5000359            0    -3.013742   0.60796045 
   20000    1.0006981   -4.5202948            0   -3.0196229   0.53124201 
Loop time of 15.1897 on 4 procs for 20000 steps with 4000 atoms

Performance: 568806.648 tau/day, 1316.682 timesteps/s
99.7% CPU use with 4 MPI tasks x no OpenMP threads

MPI task timing breakdown:
Section |  min time  |  avg time  |  max time  |%varavg| %total
---------------------------------------------------------------
Pair    | 9.8954     | 10.036     | 10.119     |   2.7 | 66.07
Neigh   | 1.4456     | 1.458      | 1.4756     |   1.0 |  9.60
Comm    | 2.9647     | 3.0517     | 3.1915     |   5.0 | 20.09
Output  | 0.0034603  | 0.0043507  | 0.0070062  |   2.3 |  0.03
Modify  | 0.54857    | 0.56173    | 0.57536    |   1.3 |  3.70
Other   |            | 0.07821    |            |       |  0.51

Nlocal:        1000.00 ave        1005 max         993 min
Histogram: 1 0 0 0 1 0 0 0 0 2
Nghost:        2485.00 ave        2506 max        2451 min
Histogram: 1 0 0 0 0 0 1 0 1 1
Neighs:        31445.0 ave       31956 max       31132 min
Histogram: 1 1 0 0 1 0 0 0 0 1

Total # of neighbors = 125780
Ave neighs/atom = 31.445000
Neighbor list builds = 1000
Dangerous builds not checked
unfix 	thermos

fix 	1 all nve

run 	20000
Per MPI rank memory allocation (min/avg/max) = 2.706 | 2.706 | 2.706 Mbytes
Step Temp E_pair E_mol TotEng Press 
   20000    1.0006981   -4.5202948            0   -3.0196229   0.53124201 
   20100   0.99022546   -4.5048061            0   -3.0198393   0.58764506 
   20200    1.0122331   -4.5380639            0   -3.0200938   0.44035083 
   20300   0.99450598   -4.5114877            0   -3.0201016    0.5866577 
   20400    1.0028555   -4.5247494            0   -3.0208422   0.49632642 
   20500   0.99886839   -4.5182804            0   -3.0203524   0.52613487 
   20600    1.0028338   -4.5248024            0   -3.0209277   0.51881685 
   20700    1.0002034   -4.5208584            0   -3.0209285   0.56908527 
   20800   0.99523538   -4.5135281            0   -3.0210482   0.54496124 
   20900   0.99135536    -4.506888            0   -3.0202267   0.58495434 
   21000   0.99612058   -4.5150795            0   -3.0212722   0.54463379 
   21100    1.0084935   -4.5328572            0   -3.0204951    0.4963018 
   21200   0.99856471   -4.5180672            0   -3.0205946   0.55699055 
   21300   0.98970538   -4.5050182            0   -3.0208313   0.59526875 
   21400   0.99273305   -4.5100912            0   -3.0213639   0.51658035 
   21500   0.99771035   -4.5173941            0   -3.0212027   0.54564376 
   21600   0.99737219   -4.5174417            0   -3.0217574   0.53850987 
   21700    1.0033116   -4.5269399            0   -3.0223486   0.49612613 
   21800     1.006886   -4.5312784            0    -3.021327   0.44732522 
   21900    1.0025937   -4.5250694            0   -3.0215548   0.47632194 
   22000   0.99286697   -4.5102521            0    -3.021324   0.54574561 
   22100   0.99799106   -4.5191871            0   -3.0225748    0.5255332 
   22200    0.9900862   -4.5060829            0   -3.0213249   0.57137925 
   22300    1.0064079   -4.5311824            0   -3.0219479   0.45109726 
   22400   0.98678527   -4.5021975            0   -3.0223896   0.61561785 
   22500   0.99471916   -4.5137097            0   -3.0220039   0.57102742 
   22600    1.0069439   -4.5334487            0   -3.0234104   0.42764435 
   22700    1.0072986   -4.5332299            0   -3.0226597   0.47838627 
   22800    1.0040354   -4.5283478            0   -3.0226712   0.50280215 
   22900   0.99630021   -4.5174893            0   -3.0234126   0.57264819 
   23000    1.0028373   -4.5270055            0   -3.0231256   0.48780799 
   23100   0.99979484   -4.5220721            0   -3.0227548   0.50602131 
   23200    0.9961622   -4.5167627            0    -3.022893   0.56056847 
   23300    1.0032164   -4.5276332            0   -3.0231848   0.49469746 
   23400   0.98970905   -4.5078836            0   -3.0236911    0.5687755 
   23500    1.0005488   -4.5237691            0   -3.0233211   0.48720441 
   23600    1.0002557   -4.5234812            0   -3.0234727   0.55602457 
   23700   0.99327325   -4.5128314            0    -3.023294   0.55670745 
   23800    1.0011938   -4.5248734            0   -3.0234582   0.53228658 
   23900    1.0049287   -4.5309579            0   -3.0239418   0.53346183 
   24000   0.99509025   -4.5162122            0     -3.02395   0.48933896 
   24100   0.99808657   -4.5197862            0   -3.0230307   0.56906094 
   24200   0.99553108   -4.5167918            0   -3.0238685   0.51248522 
   24300    1.0084036   -4.5360912            0    -3.023864   0.52402861 
   24400    0.9886547   -4.5064067            0   -3.0237954   0.56416607 
   24500   0.99326401   -4.5141151            0   -3.0245916   0.55975219 
   24600   0.99862329   -4.5221045            0   -3.0245441    0.5229861 
   24700   0.98400945   -4.5002648            0   -3.0246196   0.59014827 
   24800   0.98647232   -4.5042726            0   -3.0249341   0.58247686 
   24900     1.003832   -4.5305938            0   -3.0252223   0.45552635 
   25000    0.9908711   -4.5112378            0   -3.0253027   0.51417861 
   25100   0.98989212   -4.5093443            0   -3.0248773   0.60401503 
   25200   0.99952067   -4.5242265            0   -3.0253203   0.51378679 
   25300     1.023349   -4.5598834            0   -3.0252436   0.35931058 
   25400   0.98788706   -4.5060167            0   -3.0245565   0.60387038 
   25500    1.0093334   -4.5387063            0   -3.0250846   0.44732042 
   25600    1.0068842    -4.536156            0   -3.0262073   0.47434695 
   25700    1.0035368   -4.5304596            0   -3.0255308   0.48490937 
   25800   0.99470435   -4.5176986            0   -3.0260151   0.51696936 
   25900    1.0054987   -4.5340194            0   -3.0261484   0.45448869 
   26000   0.99812992   -4.5222907            0   -3.0254701   0.51302671 
   26100   0.99915769   -4.5248172            0   -3.0264553   0.47376861 
   26200   0.99240246   -4.5145379            0   -3.0263063   0.56043762 
   26300   0.99921508   -4.5250875            0   -3.0266396   0.57630274 
   26400    1.0017208   -4.5287188            0   -3.0265132   0.58653663 
   26500   0.99843369   -4.5239737            0   -3.0266975   0.50237894 
   26600    1.0003753   -4.5270849            0   -3.0268971   0.57495031 
   26700    1.0044789    -4.533563            0   -3.0272212    0.4683507 
   26800    1.0043163    -4.532749            0   -3.0266512   0.49139951 
   26900   0.99618498   -4.5212939            0     -3.02739   0.49529416 
   27000   0.99782116   -4.5231723            0   -3.0268147   0.50466972 
   27100   0.99195181   -4.5150071            0   -3.0274514   0.51387188 
   27200    1.0045115   -4.5343425            0    -3.027952   0.45353137 
   27300   0.99046239   -4.5131543            0   -3.0278322   0.56118834 
   27400   0.99748552   -4.5236314            0   -3.0277772    0.5277153 
   27500   0.99476339   -4.5198541            0   -3.0280821   0.54712688 
   27600   0.99264598   -4.5160925            0   -3.0274958   0.49121074 
   27700   0.99701513   -4.5223695            0   -3.0272207   0.51368529 
   27800   0.98582212   -4.5062526            0   -3.0278891   0.57963939 
   27900    1.0066029   -4.5377736            0   -3.0282467   0.55071048 
   28000   0.99879765   -4.5257275            0   -3.0279056   0.47594023 
   28100   0.98751999    -4.508869            0   -3.0279594    0.5352086 
   28200    0.9905943   -4.5138309            0   -3.0283109   0.59258361 
   28300   0.99904128   -4.5268475            0   -3.0286602   0.52378268 
   28400   0.99955147   -4.5277428            0   -3.0287904   0.51988885 
   28500    1.0018934   -4.5309372            0   -3.0284727   0.52109446 
   28600   0.99754411    -4.525001            0   -3.0290589   0.49926943 
   28700   0.99815458    -4.526042            0   -3.0291844   0.46207704 
   28800   0.99016086   -4.5127853            0   -3.0279153   0.56587829 
   28900    1.0087047   -4.5420886            0   -3.0294097   0.44932223 
   29000   0.99369084   -4.5193405            0   -3.0291769   0.50650693 
   29100   0.99412576   -4.5195658            0     -3.02875   0.51020544 
   29200   0.98831666   -4.5117718            0   -3.0296674   0.56134652 
   29300   0.99590519   -4.5232664            0   -3.0297821   0.54217311 
   29400   0.98793933   -4.5107428            0   -3.0292042   0.55768788 
   29500   0.98222042   -4.5027821            0   -3.0298198   0.55303444 
   29600     0.984694    -4.506899            0   -3.0302273   0.57310989 
   29700   0.99304259   -4.5196879            0   -3.0304964   0.52919361 
   29800   0.99460611   -4.5214883            0   -3.0299521   0.51186788 
   29900   0.99235083   -4.5185215            0   -3.0303674   0.50443194 
   30000   0.99841442   -4.5267413            0   -3.0294941   0.47936412 
   30100   0.99448055   -4.5213823            0   -3.0300344   0.50793203 
   30200   0.99733428   -4.5264975            0   -3.0308701   0.53666545 
   30300   0.98570798   -4.5082507            0   -3.0300583   0.55016727 
   30400   0.98833715   -4.5126404            0   -3.0305053   0.56165786 
   30500   0.99350359   -4.5204432            0   -3.0305604   0.52228187 
   30600   0.99522581   -4.5235098            0   -3.0310443   0.48602433 
   30700   0.98898837   -4.5143585            0   -3.0312468   0.53814628 
   30800   0.99045022   -4.5165776            0   -3.0312737   0.52139114 
   30900   0.99335544   -4.5219266            0    -3.032266   0.47804823 
   31000     0.993505   -4.5212533            0   -3.0313684   0.48359602 
   31100   0.99730187     -4.52756            0   -3.0319811    0.5040601 
   31200   0.97814553   -4.4977556            0   -3.0309041   0.62297063 
   31300   0.99328986   -4.5214716            0   -3.0319093   0.48871212 
   31400   0.99266829   -4.5200845            0   -3.0314543   0.53451771 
   31500    1.0015736   -4.5339825            0   -3.0319976    0.4843576 
   31600    1.0050786     -4.53891            0   -3.0316689    0.4379959 
   31700   0.98992496   -4.5171716            0   -3.0326554   0.51591093 
   31800   0.99216605   -4.5201582            0   -3.0322812    0.5276938 
   31900   0.99803585   -4.5293292            0   -3.0326497   0.49434277 
   32000     0.989222   -4.5156262            0   -3.0321641   0.49383116 
   32100    0.9924199   -4.5205188            0   -3.0322611    0.4615366 
   32200   0.98906211    -4.516042            0   -3.0328197   0.53485163 
   32300     1.004914   -4.5391872            0    -3.032193   0.42276598 
   32400   0.99644877   -4.5267438            0   -3.0324443   0.51332007 
   32500   0.99437926   -4.5240897            0   -3.0328937   0.50094607 
   32600   0.99447951   -4.5241773            0    -3.032831   0.54036944 
   32700   0.98982496   -4.5170191            0   -3.0326528   0.54718655 
   32800   0.99526406   -4.5254257            0   -3.0329028   0.48701356 
   32900   0.97652188   -4.4979418            0   -3.0335251   0.55243908 
   33000   0.99538815   -4.5260507            0   -3.0333417   0.48391618 
   33100   0.99800444   -4.5301846            0   -3.0335522   0.44926184 
   33200   0.97880239   -4.5014309            0   -3.0335944   0.63061456 
   33300   0.98953026   -4.5180856            0   -3.0341613   0.54808958 
   33400   0.99104683   -4.5206662            0   -3.0344676   0.50717412 
   33500    1.0068811   -4.5430972            0   -3.0331531   0.45728619 
   33600   0.97985399   -4.5030208            0   -3.0336073    0.5992255 
   33700   0.99534547   -4.5264564            0   -3.0338114   0.48968909 
   33800   0.98855821   -4.5162111            0   -3.0337445   0.49243145 
   33900   0.98311015   -4.5081878            0   -3.0338912   0.57384398 
   34000   0.99320378   -4.5243352            0    -3.034902   0.54192515 
   34100   0.98855758   -4.5171702            0   -3.0347045   0.57313058 
   34200   0.99887158   -4.5328337            0   -3.0349009   0.50552993 
   34300    0.9665258   -4.4834951            0   -3.0340688   0.62402407 
   34400    1.0036538   -4.5397261            0   -3.0346218   0.43623385 
   34500   0.98532141    -4.512985            0   -3.0353724   0.59132866 
   34600   0.99871866   -4.5327238            0   -3.0350203   0.48574234 
   34700   0.97873152   -4.5029159            0   -3.0351857   0.54324719 
   34800    1.0058363     -4.54474            0   -3.0363628   0.38492499 
   34900    1.0004806   -4.5355764            0   -3.0352308   0.44989773 
   35000   0.99036094   -4.5204007            0   -3.0352306   0.53356903 
   35100   0.98623523   -4.5148294            0   -3.0358464   0.53676046 
   35200   0.98998106   -4.5200153            0   -3.0354149   0.52195383 
   35300   0.99096318   -4.5221959            0   -3.0361227   0.52656138 
   35400     0.989408   -4.5194954            0   -3.0357544   0.50871236 
   35500   0.99483409   -4.5281915            0   -3.0363134   0.50839378 
   35600   0.98745097   -4.5166666            0   -3.0358604   0.50579928 
   35700    0.9986822   -4.5337271            0   -3.0360784   0.43768894 
   35800   0.98453845   -4.5127632            0   -3.0363247   0.54547531 
   35900    1.0050277   -4.5442206            0    -3.037056   0.40953467 
   36000   0.99870635   -4.5340381            0   -3.0363531   0.52906243 
   36100   0.98869504    -4.519481            0   -3.0368092   0.50227096 
   36200    0.9953849    -4.529832            0   -3.0371279   0.44748003 
   36300    0.9884327   -4.5192362            0   -3.0369579   0.54843636 
   36400   0.99292641   -4.5270923            0    -3.038075   0.49960452 
   36500    0.9893447   -4.5216052            0   -3.0379592   0.47412171 
   36600   0.97283064   -4.4960973            0   -3.0372162   0.60096671 
   36700   0.98334337   -4.5114361            0   -3.0367898    0.5484035 
   36800   0.98529147   -4.5147824            0   -3.0372147   0.55735833 
   36900   0.98677352   -4.5173365            0   -3.0375463   0.57015321 
   37000   0.99903132   -4.5356809            0   -3.0375085   0.50847583 
   37100   0.98950205    -4.521881            0   -3.0379989   0.49812247 
   37200   0.99026645   -4.5230085            0   -3.0379802   0.54770139 
   37300    0.9911232   -4.5236049            0   -3.0372918   0.54559697 
   37400   0.99827696   -4.5352311            0     -3.03819   0.46205196 
   37500   0.98991109   -4.5230016            0   -3.0385062   0.54027928 
   37600   0.98402044   -4.5137462            0   -3.0380846   0.52499473 
   37700   0.99223021   -4.5269001            0   -3.0389269   0.50922595 
   37800   0.99251801   -4.5275424            0   -3.0391376   0.47532534 
   37900    1.0027008   -4.5422339            0   -3.0385587   0.47501882 
   38000   0.98623372   -4.5179367            0   -3.0389559   0.50612267 
   38100   0.99248161   -4.5278668            0   -3.0395166   0.47905722 
   38200    1.0014305   -4.5413065            0   -3.0395363   0.44070082 
   38300   0.98114032   -4.5112083            0   -3.0398657    0.5551686 
   38400   0.98387473   -4.5142853            0   -3.0388422   0.57312081 
   38500    1.0048708   -4.5464071            0   -3.0394777    0.4313257 
   38600   0.99509262   -4.5306245            0   -3.0383588    0.4737758 
   38700   0.99405357   -4.5306947            0   -3.0399872   0.49625701 
   38800    1.0030582   -4.5439445            0   -3.0397334   0.41449643 
   38900   0.99490363    -4.531431            0   -3.0394487   0.51111775 
   39000   0.98543625   -4.5176132            0   -3.0398284   0.52223349 
   39100   0.99768068   -4.5358743            0   -3.0397274   0.51324083 
   39200   0.98751064   -4.5204769            0   -3.0395813   0.52705146 
   39300   0.99642008   -4.5343265            0   -3.0400701   0.49726693 
   39400   0.99501153   -4.5318832            0    -3.039739   0.49221396 
   39500   0.99286113   -4.5295079            0   -3.0405885   0.50719982 
   39600    0.9819566   -4.5128224            0   -3.0402557   0.61273409 
   39700   0.98804496    -4.522754            0   -3.0410571   0.56390606 
   39800   0.98887414   -4.5237253            0   -3.0407849    0.4933582 
   39900   0.98632619   -4.5201697            0   -3.0410503   0.55152093 
   40000   0.98956655    -4.524258            0   -3.0402793   0.54251302 
Loop time of 14.9947 on 4 procs for 20000 steps with 4000 atoms

Performance: 576202.658 tau/day, 1333.802 timesteps/s
99.7% CPU use with 4 MPI tasks x no OpenMP threads

MPI task timing breakdown:
Section |  min time  |  avg time  |  max time  |%varavg| %total
---------------------------------------------------------------
Pair    | 9.9398     | 10.028     | 10.119     |   2.0 | 66.88
Neigh   | 1.4513     | 1.457      | 1.4634     |   0.4 |  9.72
Comm    | 3.1178     | 3.2053     | 3.3033     |   3.7 | 21.38
Output  | 0.0054888  | 0.0095265  | 0.02069    |   6.6 |  0.06
Modify  | 0.21707    | 0.21789    | 0.21924    |   0.2 |  1.45
Other   |            | 0.07667    |            |       |  0.51

Nlocal:        1000.00 ave        1006 max         987 min
Histogram: 1 0 0 0 0 0 0 1 0 2
Nghost:        2474.50 ave        2479 max        2469 min
Histogram: 1 0 0 1 0 0 0 0 0 2
Neighs:        31507.2 ave       31942 max       30951 min
Histogram: 1 0 0 0 0 0 2 0 0 1

Total # of neighbors = 126029
Ave neighs/atom = 31.507250
Neighbor list builds = 1000
Dangerous builds not checked

compute 1 all msd
compute 2 all vacf

dump		vel all custom  1000 dump.* id x y z vx vy vz

thermo_style custom c_1[4] c_2[4]
thermo 100

run 40000
Per MPI rank memory allocation (min/avg/max) = 4.760 | 4.760 | 4.760 Mbytes
c_1[4] c_2[4] 
           0    2.9679575 
  0.25650891  0.059078135 
  0.56222668  0.043655157 
    0.885888 -0.017873798 
   1.2224118 -0.00068736872 
   1.5327733  -0.01604647 
   1.8707615  0.032625077 
   2.2097832  0.022369406 
   2.5555976 0.0059658492 
   2.9063483  0.041468286 
   3.2593669 -0.0002887611 
   3.6155816   -0.0299928 
   3.9580438  0.020515242 
   4.3177439 -0.017866952 
   4.6892276  0.016073989 
   5.0176981 -0.005754978 
   5.3479252  0.062996956 
   5.6707391  0.054458117 
   5.9956018  0.014860794 
   6.3705043 0.0059699157 
   6.7121219  0.036890063 
   7.0206778 -0.025482274 
   7.3364659 -0.024011352 
   7.6564823 -0.015939811 
   7.9885964  -0.03607951 
   8.3300809   0.03666296 
   8.6106482  0.037785795 
   8.9196465  0.003954687 
   9.2130781  0.040084795 
   9.5291344 -0.013278999 
   9.8607641 -0.032156392 
   10.189619 -0.017011517 
   10.530523 -0.037658992 
   10.857276  0.028498732 
   11.209599  0.048489677 
   11.568827 -0.020815197 
   11.925399 -0.019630636 
   12.268516  0.012753779 
    12.58884 -0.017234569 
   12.874426  0.035576925 
   13.238454 0.0083485797 
    13.60795 -0.039777392 
   13.937798 -0.021315259 
   14.230231 -0.027601419 
   14.547147 -0.0045177408 
   14.850777 -0.029252678 
   15.191168 -0.015415048 
   15.531966 -0.024054754 
   15.917718 0.0013686514 
   16.320804 -0.036319266 
   16.680505   0.06944965 
   17.059507  0.062560005 
   17.424775  0.028934127 
   17.788375  -0.04313614 
   18.101316 0.0069071392 
   18.512521  0.023031351 
   18.898811 -0.0078709368 
   19.299343  0.012826451 
   19.660012  0.035746287 
   20.027151 -0.029332273 
   20.341683  0.062608565 
   20.717219  0.016556311 
   21.057238 -0.013439799 
   21.394192  0.017115999 
   21.759218 -0.0085802046 
   22.018297  0.052214376 
   22.356993 -0.027728756 
    22.65251 -0.00072516169 
   22.909484 -0.016088823 
   23.218574 -0.019500556 
   23.444628 -0.019187465 
   23.710025  -0.06081574 
   24.028743 -0.034031851 
    24.38068 -0.022513997 
   24.717464 -0.053860429 
   24.966384  0.060280844 
   25.389771  0.053844755 
   25.774021 -0.015812119 
    26.13232 -0.017848255 
   26.473766  0.027517162 
   26.816502 -0.031649693 
   27.215637  0.034142819 
   27.573763  -0.03280212 
   27.875775  0.026002863 
   28.227275 -0.0082286448 
   28.559307 -0.017513804 
   28.919559 -0.0036599306 
   29.292559 -0.041577668 
    29.59599 -0.030504988 
   29.854185 -0.003256335 
   30.180414  0.069287751 
   30.589916  0.022998013 
   30.898924  0.032062032 
   31.218241 -0.0052576805 
   31.537217 -0.034689557 
   31.719191 -0.0029941804 
    32.10503  0.012881715 
   32.435905 0.0086088372 
   32.787642 -0.024181706 
   33.101596 0.0010640737 
   33.423357 -0.025497232 
   33.814335  0.047319338 
   34.111382 0.0096185719 
   34.451061  0.028411859 
   34.846705   0.01294637 
   35.187464 -0.00090909669 
   35.511964  0.016669878 
   35.956967  0.062236932 
   36.281125   0.03555828 
    36.52229 -0.014227838 
   36.810225 -0.041057064 
   37.090916 -0.038035952 
    37.38705  0.015486612 
   37.738666 -0.048950423 
   38.050761  0.067239632 
    38.43963 -0.0069212608 
   38.718826 -0.029396826 
   39.020223 -0.028608451 
   39.303693 -0.050172448 
   39.694547 0.0024222268 
   40.043098  0.012913983 
   40.490481  0.026158572 
   40.811784 -0.015406085 
   41.235252 -0.030551921 
   41.657798 -0.024313237 
   42.019895  0.027016157 
   42.324335 -0.035507569 
   42.667502  0.030484546 
   42.920371  0.051807175 
   43.384715 0.00093262461 
   43.769538   0.02481712 
   44.139125 -0.0036687725 
   44.461909 -0.018156322 
   44.757744  0.018861655 
   45.029235 0.0069432005 
    45.28361 -0.0015323133 
   45.508381 -0.026405422 
   45.823349 -0.024105777 
   46.232369 -0.029690743 
   46.687231 -0.026553702 
   47.073045  0.014126194 
   47.499097 -0.0039025392 
   47.903961  0.013191371 
   48.323374  0.022519147 
   48.656337 0.00072317649 
   49.019295  0.017637578 
   49.342185 -0.020374993 
   49.659907 -0.027835592 
   49.911439  0.017308729 
   50.151801 -0.031200137 
   50.535968 -0.049712397 
   50.912976 -0.010857572 
   51.288048 -0.014585579 
   51.568764   0.02555213 
   51.910791 -0.014241376 
   52.210928  0.032615078 
   52.463062  0.028851622 
   52.829849  0.032168384 
   53.233697 -0.034108083 
   53.681379  0.032274971 
   54.061948 -0.012633976 
   54.474416  0.043266805 
   54.866079 -0.012633357 
   55.383281 -0.049107975 
   55.781656 -0.0087671243 
   56.102312 0.0071409452 
   56.340257 -0.012510889 
   56.623892  0.044565229 
   56.981574 -0.041580223 
   57.357507  0.019560217 
   57.706363 -0.029623349 
   57.895609  0.034653046 
   58.170417  0.026330905 
   58.435703  0.013379889 
   58.831627 -0.031326865 
   59.294008 -0.019467341 
   59.674222  0.030468098 
   59.984269 -0.010053666 
   60.414319  0.015339424 
    60.70855  -0.11021567 
   61.076521 -0.021341165 
   61.562699  0.019249339 
   61.857376 -0.041870051 
   62.224904  -0.00761787 
   62.528194 0.0050524173 
   62.899381 -0.013904745 
   63.219783 -0.015358747 
   63.586112  0.027131396 
     63.9056 -0.012012309 
   64.266329  0.038335524 
   64.622568  0.012463306 
    64.92125 -0.027517857 
   65.128886 -0.0032589613 
   65.379489 -0.00062469978 
   65.804851  0.010953124 
   66.134092 -0.0019088941 
   66.496037 -0.013492205 
   66.950157  0.046465495 
   67.188763 -0.0042931251 
   67.427871  0.015746352 
   67.762247 0.00057359639 
   68.210688  0.045388423 
   68.488731 -0.010748104 
   68.757395  0.019750022 
    69.20978 -0.055621288 
   69.559124 0.0092541331 
   69.805607 -0.0042068196 
   70.190206 0.0086561398 
   70.652131 -0.035414191 
   70.923843  0.017502991 
   71.264804  0.031516858 
   71.495644  0.020780947 
   71.853157 -0.013041707 
   72.316148 -0.0080970658 
   72.688175 -0.0098481307 
    73.10159 0.0049387608 
   73.513978 0.0065643977 
   73.911432   0.02299618 
   74.459854 -0.0075286673 
   74.754522  0.020097825 
   75.165121 -0.020908171 
   75.589948 -0.041054191 
   75.932763 -0.023745402 
   76.287027 0.0093917675 
   76.804258 -0.019621995 
   77.230505   0.04897539 
   77.631806 -0.010233874 
   77.928185  0.054065815 
   78.222087 -0.0083831917 
   78.647826 -0.057408858 
   78.973562 -0.050740794 
    79.43092 -0.027623539 
   79.742299 -0.021661113 
   80.234116   0.04084125 
   80.711361    0.0227019 
   81.124904  0.012874655 
   81.539543 -0.030185124 
   81.958011 0.0051555266 
   82.382588 -0.0029315785 
   82.924446   0.03303221 
   83.476467  0.018059772 
   83.935089 0.0019448089 
   84.230652 -0.015828959 
   84.678826 -0.017730753 
   85.001438  0.072642707 
   85.309073  0.050635348 
   85.792672 0.0016548529 
   86.102101  -0.03306099 
   86.481254 0.0063847969 
   86.892431 -0.018054584 
   87.242816 -0.021182804 
   87.436275  0.017768052 
   87.690589 -0.012620632 
   88.110305 -0.033427474 
   88.524972 -0.036773764 
   88.852291 -0.031592499 
   89.165643 -0.015593083 
   89.548746 -0.049530571 
   90.064996  0.021883203 
   90.526121 -0.0036450196 
   90.967903  0.014754652 
   91.201572 -0.042357918 
   91.634957   0.01479406 
   92.002146 -0.033710156 
   92.299821  0.015553631 
   92.603563 0.0099560613 
   92.913798 -0.016258592 
   93.308749 -0.045030867 
    93.64896 -0.0095708178 
    93.81567 0.0064301035 
    94.07561 -0.024814122 
   94.520398 0.0025393199 
   94.879193   0.01455758 
   95.138884 -0.0035826629 
   95.413316 -0.035265175 
   95.769419  0.035376913 
   96.108506   0.02267437 
   96.586235 -0.015398302 
   96.840679 0.0063063687 
   97.221214  0.026626936 
   97.572541  0.012454029 
    98.08877 -0.056181546 
   98.461593  0.024633261 
   98.615546 -0.022826136 
   98.985257  0.070480588 
   99.545499 -0.050714411 
   99.894255  0.064204961 
   100.03684 0.0049607866 
   100.20205 -0.011243394 
   100.45629 0.0059693909 
   100.69515 -0.014534862 
   101.07947 -0.021721145 
    101.5096 -0.027721579 
   101.88145 -0.014204377 
   102.21324 -0.015503042 
   102.55259 -0.039346945 
   102.91596  0.015112887 
    103.3689  0.041643555 
   103.73408  0.022425236 
   103.95855 -0.011485829 
   104.19519 -0.030887864 
   104.40791 -0.020117557 
   104.79824  -0.01665167 
    104.9417 -0.019110121 
   105.36308 -0.031175755 
   105.65874 -0.046989595 
   105.97826  -0.01109066 
   106.29634 -0.0094723698 
   106.60348 -0.020675065 
   106.92089 -0.057128018 
   107.17294 -0.039500189 
   107.43361 -0.025697246 
      107.85  0.010327369 
   108.22695  0.029509567 
    108.6149 -0.056248006 
   109.07052  0.026504526 
   109.39607  0.007459123 
   109.72264  0.011558379 
   109.98841 0.0070144585 
   110.24307  0.012346442 
   110.61097 -0.022087389 
   111.00467  0.013662265 
   111.30462 0.0071434623 
   111.48981 0.0091445458 
   111.88702  0.025956155 
   112.10246  0.024802124 
   112.56039  0.038458981 
   113.03562 -0.0068633357 
   113.65971  0.011630112 
   114.18509 -0.028688661 
   114.53684 -0.038507692 
   114.90617  0.023620107 
   115.30204 -0.0085012471 
   115.65611 -0.061433061 
   115.94065  0.025609024 
   116.62435 -0.015607378 
   117.11195 -0.010746024 
    117.4564 -0.040233985 
   117.68227 -0.038814972 
   117.94372 -0.0034119818 
   118.25723  0.014928466 
   118.55448  0.010342744 
   118.83901  0.011366334 
   119.05023  -0.03870928 
   119.65146  0.035883951 
    120.0396 -0.024929579 
   120.38027  0.011392936 
   120.75282 0.0069683139 
   121.08277 -0.035686493 
   121.45794 -0.043676485 
   121.71171 0.0055810542 
   122.10359   -0.0101105 
   122.59342  0.006541462 
   122.92159 -0.037852809 
   123.34217 0.0034038693 
   123.59735    0.0419802 
   123.97116 -0.003065624 
   124.30506 0.0075694192 
   124.58661   0.01362505 
   124.98032 -0.0071380544 
    125.3949 0.00087441859 
   125.68998 -0.045854777 
   125.91976  0.014971622 
   126.31356 0.0037871642 
    126.8043 -0.045287679 
   126.99853 0.0023583781 
   127.35211 -0.0056587035 
    127.7685 -0.030726746 
   128.03083 0.0022157068 
   128.09222 0.0023210902 
   128.57294  0.012400235 
   128.81546  0.033395115 
   129.08154  0.018963975 
    129.4246 -0.044718458 
    129.6709  -0.02678269 
   130.28197  0.026760169 
    130.7633 -0.021645957 
     131.199  0.026225505 
   131.67253 -0.0055077084 
    132.1492  0.021257037 
    132.4686  0.044490589 
   132.65128 -0.0011096506 
   133.07965  0.052792298 
   133.45177  0.012516825 
   133.80997 -0.031901286 
   134.27361 0.0042384831 
   134.69935  0.012951169 
   135.14346 -0.018985962 
   135.55877 -0.016772674 
   136.16884 -0.031886159 
   136.60711  0.027384027 
   136.98364 -0.021439397 
   137.36947  0.031784319 
   137.66043 -0.013349517 
   138.06371 -0.028480577 
    138.2017 0.0092939166 
   138.47299 -0.023266166 
   138.83684  -0.02386477 
    139.1402  0.025402894 
   139.50369 0.0076236037 
   139.80947  0.020152089
