ITEM: TIMESTEP
43380
ITEM: NUMBER OF ATOMS
864
ITEM: BOX BOUNDS pp pp pp
0.0000000000000000e+00 1.0726842421158810e+01
0.0000000000000000e+00 1.0726842421158810e+01
0.0000000000000000e+00 1.0726842421158810e+01
ITEM: ATOMS id x y z vx vy vz
175 10.7218 0.887041 1.11296 1.97821 -0.557262 1.02907
591 0.746204 0.881504 1.86712 -0.202396 0.687828 1.67591
170 5.87181 5.04627 5.12839 -0.751929 -1.10151 -0.147992
162 1.58549 1.75718 0.537798 2.32617 0.480411 -0.753672
476 4.6437 5.28903 4.54534 1.56918 -0.732991 0.455902
102 2.35546 0.478085 1.05839 -0.293401 -0.68139 -1.40771
152 2.62939 1.80697 0.563338 -0.769087 -1.07987 0.331036
731 3.58474 0.584483 0.967604 0.665516 0.949306 -0.938121
140 3.96957 1.92436 1.82943 -1.03152 1.53236 -0.390309
507 3.58155 1.47908 0.267721 2.35267 -0.324769 -0.809157
19 10.422 4.7406 3.63425 -0.708524 0.338626 -0.574356
681 4.59148 1.74918 0.933424 0.392341 1.21326 0.491429
403 5.63116 1.90108 0.831736 -1.31033 -1.02054 -0.359706
770 4.98478 0.753596 1.34968 -2.55529 1.92822 -1.67707
835 5.23556 0.709043 0.181202 1.27599 2.04707 -0.660621
801 6.13228 0.839392 0.782918 -1.60592 -1.15713 -0.922419
694 6.78002 0.583144 1.9142 0.517796 -0.0608215 -0.523062
31 7.15614 1.1066 0.683415 0.585282 0.717375 -0.371215
134 8.65677 1.306 0.640657 -1.40762 -0.169525 -0.0416643
809 7.95484 1.77943 1.24669 2.29001 1.53301 0.104682
177 7.64414 0.25374 1.13916 0.243687 0.80151 1.99135
14 8.91671 0.137252 1.05998 0.29757 0.887395 -0.769627
493 8.74757 1.24927 2.21644 -1.25012 -0.84696 1.10866
689 9.75627 0.667312 0.891775 -1.66707 0.348817 -0.444779
310 0.300898 2.75117 0.877125 -0.65043 3.10068 -1.79367
553 10.5486 1.82511 1.73688 -1.0107 -0.860612 0.214109
106 0.178183 3.76531 0.270448 1.19155 1.66959 0.657964
223 1.35889 2.82583 1.6208 -0.249736 -0.25 0.618426
265 1.85346 1.73267 1.57517 1.5264 -1.31447 -1.03474
730 2.26174 2.81318 1.09004 1.6581 -0.471922 2.31169
138 2.8456 1.40472 1.52065 1.38641 -2.56595 0.57114
33 3.93751 2.84926 0.52356 2.40437 -1.54484 -1.00821
240 4.95136 2.85657 1.07994 -0.384637 -0.306879 -2.2054
13 4.4826 3.74507 1.29327 -0.756215 1.83727 -1.86057
678 8.9798 5.2723 0.313022 1.75496 -2.36729 -0.437865
93 6.76443 3.07125 1.53005 -0.642693 0.135331 1.00713
525 7.79325 2.76495 0.41048 2.70854 3.51114 -1.88047
137 6.9278 2.12064 1.03577 3.08107 -2.01384 -1.31572
215 6.26069 2.72857 0.328321 -1.31168 1.22258 0.601036
105 10.6798 0.0665742 4.4659 -1.25976 1.83246 0.230045
542 10.5047 0.341136 2.89003 -0.476301 0.0487976 1.05098
599 9.46752 1.91796 1.70478 -1.19981 -0.0646113 1.26135
464 9.74804 3.05335 1.44015 1.4386 -1.0795 0.897237
374 9.6972 3.53199 0.583093 0.914843 -0.0254845 -0.49152
639 9.43681 2.02915 0.658308 0.460643 -0.789557 1.66033
686 10.5652 1.84391 0.754711 1.08697 -1.49842 1.20954
156 0.477105 4.6662 0.944823 -1.01436 -0.0739906 -0.739206
627 1.30515 5.06321 0.361628 0.155263 1.49623 0.586519
589 1.14768 3.29555 0.311159 -0.433326 0.0914718 0.718681
230 2.88741 3.56298 1.00134 -0.246462 0.327468 0.699518
418 2.23612 4.8285 0.763669 1.02761 2.76132 0.30081
345 1.63288 4.1288 1.29915 -1.07308 -1.11749 0.568173
245 7.45673 0.0579859 2.99606 0.961816 0.651115 -3.65929
391 3.30472 4.77625 0.684903 0.654659 0.430623 -1.35693
68 6.10438 3.89143 1.39749 0.92115 -0.262167 0.628635
28 4.34419 0.0427915 0.745183 0.722365 -1.98859 -1.12102
62 5.11137 5.09109 1.01074 0.87447 1.29251 0.056129
528 5.71158 4.83561 1.93107 -0.710585 -0.344098 1.00488
582 6.82119 4.55309 0.99106 1.35871 0.81315 0.725756
296 6.57334 5.24023 1.73387 1.93857 1.59075 -0.641959
593 7.18539 5.15705 0.0119702 -0.264578 1.88335 -1.11236
283 8.13081 4.13136 0.203594 0.143755 -1.35591 0.683371
826 7.63861 3.74378 1.02834 1.00902 0.0079409 -0.472522
576 8.17094 4.97743 0.929401 0.879965 -1.3661 0.00248535
119 10.3501 4.85471 1.7097 0.0556113 -1.37394 2.50544
294 10.605 3.69052 1.34339 -0.267507 0.156046 -0.0520946
252 10.0012 4.54562 0.647084 -1.98766 -0.596346 0.527526
780 8.83322 4.06002 1.69824 -1.14378 0.405901 0.39857
231 5.11051 2.55638 0.150332 -1.42557 1.31357 0.669299
609 8.81721 5.03529 2.07523 0.104938 -0.670254 0.949223
587 10.5827 1.22166 2.48137 -0.592634 2.94959 1.28411
530 9.29015 5.17569 3.74192 1.84141 0.362833 -2.04114
303 1.05479 0.823359 3.30242 -0.767383 1.18508 -1.02903
578 10.1578 3.77555 4.04991 0.457193 0.964266 -0.640768
683 1.64623 0.646586 2.47805 -1.11362 -0.79041 -0.0760572
614 6.37353 3.71785 3.68059 1.07299 -1.49643 -0.49153
142 2.56526 0.933122 3.04915 1.28495 -0.338635 1.31662
603 2.59172 1.73664 2.35491 -0.439344 -2.28274 -0.83042
370 3.47745 1.33808 2.81631 -0.0333972 0.507889 0.452531
268 2.92479 0.478188 2.11231 -0.147594 -2.63011 0.0106482
840 4.16253 0.317524 1.90595 -1.34306 -2.1435 -0.138062
642 5.68692 1.32117 1.80644 -0.888858 0.628935 1.00527
350 5.88768 0.781962 2.67346 -0.777563 -0.72128 0.214286
153 5.26656 1.68058 2.83098 1.38983 0.485171 0.854484
343 5.49006 0.83389 3.81566 -1.61367 0.662395 0.558763
225 6.71376 0.217353 4.10431 -0.367354 -4.05221 1.41379
522 6.98842 1.44588 2.3334 0.335875 1.28051 -2.03909
89 7.73277 0.518204 2.19851 0.601931 -0.375039 0.758877
496 7.87619 1.71548 2.5824 0.876566 1.64773 0.0281901
228 8.76479 0.282802 2.56261 0.351232 -1.55045 0.0731108
858 9.51554 0.7468 2.98231 0.993076 0.57005 1.89597
685 9.21781 1.87525 3.67304 -1.30268 1.10457 -1.64979
551 9.94199 0.234484 1.933 -0.435094 -0.0868835 1.49368
851 1.17066 2.33336 2.56216 3.84562 0.970173 -1.6973
183 0.248711 2.47236 2.89812 -1.29256 0.69409 1.29785
779 0.378555 2.92337 1.96988 1.36161 0.500207 2.03341
392 2.47396 3.94004 1.85827 0.663815 2.38529 -0.44452
490 1.63543 3.3435 2.63447 -1.00564 0.35904 -1.23962
564 2.76004 2.81849 3.38127 0.460729 -0.0902954 0.779671
295 3.16408 2.32157 1.18283 0.465184 2.02766 -1.303
179 4.20687 2.1219 2.82863 -0.196716 -1.77567 0.607763
204 3.57184 2.17746 3.55959 -2.17774 -1.22976 0.327614
538 2.86592 2.67201 2.13698 -1.92372 0.157031 -1.32588
482 5.45096 2.95828 2.06535 0.420413 -0.591083 -0.0910761
680 4.86089 2.14 3.72541 -0.551249 -0.18251 0.906063
622 6.05446 2.58398 3.26229 0.680137 -1.66676 -0.538425
42 7.38859 2.61012 2.4427 0.0150744 -0.64186 0.18912
247 6.38139 2.35339 2.23151 -1.06483 -3.30603 -0.118311
669 7.51534 4.33257 3.14871 2.96149 0.378082 -0.627763
383 7.17853 1.97979 3.5009 1.61433 0.212499 0.360922
760 8.22354 3.22199 1.67929 -1.81647 0.931094 -1.1301
293 8.98992 2.24544 2.77298 0.559364 1.26284 -1.5318
527 8.32765 2.95601 2.74748 0.385624 -0.0783797 -0.239478
425 9.05174 3.77704 2.56415 1.13706 -0.73025 0.299201
209 9.84835 1.74624 2.93157 0.156512 -1.9995 -0.0117061
843 9.99903 2.71109 2.32879 0.0596356 -0.172108 0.676196
357 9.63452 3.20227 3.38178 -0.292272 0.915585 -1.31164
863 6.21622 4.85269 3.73283 -2.16283 1.08127 0.699061
124 0.508492 3.55141 3.16746 1.63031 -0.53745 -1.45572
512 0.742157 4.04905 1.7291 -2.15462 1.04898 -1.26723
335 1.27866 4.42037 3.52816 -0.157731 -0.0184239 -0.0241459
443 3.20645 4.71668 2.05352 0.288916 -1.67514 -0.052124
80 2.08201 4.82363 2.17921 2.22356 -1.23577 1.60941
98 2.66432 4.88546 3.02354 -2.46411 -1.01438 -2.46748
184 4.28221 4.90646 1.93221 1.65112 -1.34923 1.0634
284 3.41724 3.35261 1.81471 -0.290617 -0.98325 1.09436
560 3.98007 4.14906 2.70067 -0.773035 0.560699 -0.801851
60 3.36988 4.5975 3.88055 -0.550198 -0.395153 -0.853177
605 3.31605 3.47491 3.77098 -1.85022 2.22538 -1.1312
402 5.08322 4.64584 2.97872 -1.86404 0.30896 0.704637
429 4.25661 4.24521 3.70649 -0.800501 -2.53958 1.46976
400 5.05348 3.94205 2.15434 0.102821 -0.929724 -0.858704
157 5.43481 3.61216 3.06009 1.23469 -0.838184 0.651447
488 6.50773 3.40982 2.49848 1.43597 0.274664 0.266719
595 6.95939 5.3046 2.77329 -0.0244376 0.0298298 -0.449262
842 6.81781 4.25964 1.94808 0.843036 1.19428 1.34777
624 7.98064 4.4038 2.11081 -0.0399562 2.36521 0.83192
354 8.37862 4.00907 3.23559 0.856909 0.826674 0.0651302
73 8.28646 4.99558 2.87397 -0.489279 0.39013 2.20582
190 10.4234 4.00315 2.6904 0.266304 0.438397 0.579466
470 9.61558 4.68739 2.66128 2.18483 -0.855417 0.211573
151 10.5644 5.1526 2.6104 1.39014 0.744154 0.643723
432 7.314 5.08015 4.12872 -1.62479 0.118876 -1.27431
461 0.760184 0.739206 4.38077 -1.16636 -1.67133 0.178775
847 2.35804 3.62221 0.1127 -0.196349 -0.67548 1.24631
664 1.72698 1.34178 4.3738 -1.20227 -0.287204 0.659778
219 2.00234 1.81091 3.29909 0.303099 -0.00632578 0.216044
363 2.01505 0.51234 3.78265 -0.342844 -0.883848 0.809989
414 4.10584 1.37137 3.72798 0.747195 -0.351672 -2.50691
278 3.721 0.477465 3.52592 1.17372 1.57777 -1.84366
435 4.71594 0.548526 3.11175 1.07756 1.38255 -1.74963
242 7.85503 3.66463 4.39295 0.306566 -1.89343 -0.0960339
419 6.76531 4.04896 5.02929 1.02662 -1.2615 -0.419303
394 6.33339 1.24474 4.39803 -1.73829 0.488074 -1.12499
676 5.73371 0.440119 4.75722 1.27066 -0.126695 1.78934
612 4.84012 1.04842 5.11999 -0.839269 2.47678 0.601234
171 9.28476 4.19222 4.03424 -0.234024 -1.63632 0.664086
180 7.54827 1.03164 4.62912 0.919914 0.888106 2.36614
536 8.38342 0.724672 3.42499 1.3423 0.0360747 -0.0193149
713 8.0907 1.55867 3.95482 2.12117 1.87243 -3.19448
629 8.99795 0.910352 4.29339 -2.05627 1.08924 1.41754
453 10.0385 1.43547 4.56238 -0.635448 -0.313746 -1.79144
845 3.53153 0.0299395 4.42312 -0.649893 0.806118 -1.62466
21 10.3719 1.15545 3.44695 0.916936 0.207633 -0.393022
449 0.944792 1.97976 3.68925 -0.563389 -0.38938 -0.494729
168 1.60692 2.95789 3.72725 -0.530919 -2.9845 -0.34382
480 2.63852 0.815291 5.00104 -1.47821 0.3726 -1.36242
793 0.464955 2.84586 4.06553 3.62574 -2.20176 0.67525
380 1.02496 3.35733 4.88456 -1.38281 0.769404 -1.05734
77 0.345341 1.691 5.09598 2.26578 -0.515212 0.780869
733 3.45338 3.06405 5.01935 1.98202 -0.411309 0.0484405
523 1.68011 2.56269 4.77938 -1.19952 -1.54706 -0.280866
569 2.62921 2.68022 4.5667 -0.487012 -2.31462 2.55593
753 4.40815 3.32819 3.99264 0.00624588 -0.234727 -0.303988
437 3.07976 1.62631 4.34615 -1.06732 -1.61848 -0.203429
347 4.21674 2.18944 4.70394 0.947671 -2.94667 0.00261632
634 5.93242 2.22406 4.16132 -0.945018 0.790471 -1.14201
837 5.56101 2.54408 4.94492 0.126422 -2.77408 -0.878705
647 5.34638 3.24484 4.12828 0.903812 -0.811004 -0.771997
641 4.70867 3.34744 5.11307 -3.02436 -0.516237 2.70282
34 6.67972 3.11235 4.60441 0.401537 0.384091 1.62038
492 7.06963 2.12172 4.46319 1.60738 -0.833531 -0.480339
803 7.31505 3.24324 3.23688 -1.171 1.51759 -1.34588
696 8.04662 2.25213 4.83477 -0.075454 -1.20897 -2.24285
371 8.71842 3.06861 4.21599 0.230726 0.424062 0.366624
85 9.16375 2.31198 4.79019 -0.83654 0.447824 0.58517
222 10.356 2.062 3.73958 -1.78894 -0.69451 -0.223048
650 9.61211 3.20022 4.82914 -0.874019 -0.0377016 0.657157
657 10.4339 4.61474 4.81984 -0.960123 -0.606484 -0.377575
834 0.195427 3.76839 5.29675 0.577155 -1.07218 0.477511
286 0.438451 4.1185 4.21388 -1.17383 -0.65553 -1.93083
491 1.04822 4.84464 4.86013 1.06307 1.0989 -0.496685
467 0.648829 5.14316 3.91341 -1.83627 -1.2669 0.397528
207 2.17922 3.91308 3.34448 -0.0434924 -0.0939812 -1.70151
518 2.11927 4.84408 4.09932 0.327058 -1.59046 -0.336049
393 2.99741 3.88505 4.64949 0.987398 0.0926684 0.149407
221 1.96588 3.6802 4.45395 -0.913626 -0.570212 -1.17166
775 3.73982 5.10753 4.89264 -1.11766 2.378 2.25208
267 3.94565 4.07999 4.95035 -1.11978 0.671349 0.02384
711 5.6093 4.04118 5.30059 -0.988829 -3.28806 0.696212
176 5.00662 4.15845 4.51055 -1.04439 0.784364 1.79827
321 5.79912 0.11075 1.81557 1.29412 -0.71087 0.627243
297 3.81142 0.625085 5.20074 0.0850814 0.105112 -0.69376
504 6.27397 1.89773 5.28155 -1.00615 0.415843 -0.916981
658 0.9469 5.18609 2.44169 0.00689021 -2.3704 0.360294
550 6.82826 0.775735 5.30676 -0.775965 -1.43658 -0.141762
446 7.72743 0.296078 5.14455 -0.252513 -1.71838 -1.49602
513 4.88347 0.0180179 5.264 1.0322 0.0893727 -0.368696
727 4.53842 0.0118045 4.10365 0.327864 0.868123 -0.772845
846 7.63265 3.13351 5.34674 -0.626588 0.984004 -2.0266
667 6.97785 5.0037 5.33911 -1.90975 1.62327 -1.29833
420 3.29925 1.6731 5.35668 1.51682 0.445094 -0.79979
309 0.211251 0.873665 6.27203 -2.08729 -0.63428 0.179614
315 1.20818 1.04084 5.57877 1.77784 1.30466 0.633535
517 1.25939 0.784132 6.70711 0.70512 -0.894541 -1.22213
544 2.32119 0.817617 6.40007 -0.880034 -0.0865286 0.342577
472 6.8882 0.452617 7.54948 -1.06991 0.984827 -1.83779
327 3.08834 1.53243 7.45372 1.3559 1.34492 1.13419
799 2.15143 1.68066 5.6283 -0.0705207 -0.76799 -1.85842
250 2.89662 1.8046 6.29647 -1.75051 1.29523 -0.64622
262 3.71276 0.93092 6.33008 -2.34756 -0.147089 -2.17388
376 8.03232 0.118813 6.42075 1.81977 -1.32277 -1.335
18 5.17897 0.744594 6.27733 0.863018 2.17078 -1.40867
703 5.80441 1.00801 5.54979 -0.477337 0.0534299 0.571697
30 6.27027 0.0633684 6.18287 -0.713556 -1.24981 0.960584
785 7.55543 0.86661 6.82733 -0.780654 1.12181 0.310737
22 9.44197 0.726157 5.4183 -1.23966 0.178167 1.91559
594 9.05661 0.061717 6.05382 -3.33188 0.1419 1.13109
261 7.7994 1.31972 5.90155 0.554375 1.06818 -2.24491
39 8.64885 1.04303 6.29186 0.357216 -0.753882 -0.126604
290 3.49775 0.104818 8.62111 -0.564601 1.16481 0.522213
196 8.80842 1.85486 5.71483 -0.708133 0.330972 -1.97614
79 9.58897 1.16273 6.34803 -1.60738 0.623262 -0.874856
653 1.10993 1.9527 6.58651 0.976706 -0.175827 -0.258015
611 0.179977 2.83993 5.79708 0.457821 0.800999 -0.277132
555 1.28713 3.09755 6.77863 -1.39434 -0.999967 2.13724
266 1.94482 2.60639 6.16636 0.171416 -0.255677 0.61088
258 3.0237 3.14329 6.35241 1.49535 1.87129 0.0383781
692 1.78585 2.81542 7.62523 0.462287 -1.00888 -1.41337
789 3.93952 2.41545 5.76145 1.29989 -2.40167 0.122501
439 3.77453 2.2091 7.11275 1.70621 -0.150045 1.80557
744 4.55208 1.46981 6.64535 -0.198755 -0.126014 1.48137
516 4.07025 3.4384 6.56272 0.706669 -0.209931 0.484282
706 6.10822 3.28389 6.97895 0.626952 -0.327805 1.12435
191 5.39668 2.0989 6.07193 -1.57267 0.37724 0.356715
216 4.85128 2.64016 6.64581 0.395609 -1.33704 3.28716
44 6.76761 3.00259 5.85213 -0.922984 -1.50729 0.55205
360 4.92605 1.95485 7.65681 -1.7679 -3.56314 1.29369
404 7.3895 2.88788 6.91862 -1.09698 1.46679 1.4803
543 6.97864 1.80892 6.68212 0.962968 1.40266 -1.68228
211 7.26294 2.19337 5.63151 -0.205906 -0.601667 0.575435
272 4.65271 5.23208 6.48296 0.291259 0.723583 -0.561334
659 3.66638 5.35828 5.96053 -2.02506 -0.294605 1.46473
244 8.29884 2.34089 6.31952 -2.16151 -0.115253 -0.507439
651 7.8281 1.95607 7.11944 -0.744434 1.72794 0.3618
40 8.31164 3.51122 6.89072 -0.754672 1.268 -0.483684
120 8.9333 3.0269 5.61379 3.2857 -0.442172 0.923265
301 0.0721342 1.88941 6.24971 0.260926 -1.87335 -0.946806
718 9.69704 2.04136 6.86037 1.12254 1.24443 -0.658129
160 9.89397 2.11598 5.59471 0.641186 -1.16799 1.06297
427 9.94065 3.34201 5.92653 -0.313149 0.567119 0.592691
600 9.18259 3.3668 7.46705 -0.973009 0.679874 -0.220137
697 10.5006 3.88844 6.58996 -0.241355 0.509531 -1.54852
448 1.40357 3.83369 5.87386 1.29135 -0.669146 1.24019
748 0.309228 5.22588 6.70546 0.237464 -0.442483 0.982297
395 1.23699 5.00945 6.19166 -0.188321 0.0787112 1.11226
53 2.49739 3.75185 5.68815 0.229493 0.741999 1.62132
127 2.67536 4.73908 5.65456 -1.4505 -0.461613 0.774931
597 2.04977 3.79551 6.90624 0.40514 1.53437 0.138338
364 2.99634 4.90693 7.28434 0.21938 0.189798 1.10602
691 4.26275 4.37662 6.00159 -0.350336 0.889887 2.89991
306 3.21208 4.15508 6.44827 0.16091 -0.543565 0.789045
673 4.04804 4.56234 6.92594 -2.08144 0.393364 0.190425
579 5.52749 3.0493 5.89113 0.441447 -1.7565 1.48891
257 4.97989 4.85539 5.52939 -2.61974 -0.496004 -0.242944
515 5.24012 4.63341 7.03424 -1.78789 -1.99074 -0.417439
757 6.34023 4.0295 6.12263 -0.33387 -0.292677 0.221635
699 7.66484 4.14363 6.35438 2.24727 -1.20875 -1.32573
451 3.57619 0.0318345 10.1396 0.780144 1.626 1.74595
665 8.86399 4.6669 6.17703 1.95542 -0.0513743 0.694579
583 0.0468217 0.103062 10.3684 1.1506 -1.61221 -1.755
54 8.5706 4.4289 7.22884 -0.624413 -0.279805 1.03647
253 9.79072 4.56417 6.8395 0.512061 1.52991 -1.32547
849 10.026 4.65665 5.7793 0.0553439 0.783055 1.87867
243 1.06471 0.544895 7.7492 2.38551 2.29287 1.05051
567 0.669486 1.4435 7.51826 -0.23233 -2.77223 -0.274345
197 0.00939545 0.907074 8.36225 -0.252322 0.406844 1.02303
384 1.13523 1.11175 8.69134 -0.649329 2.51252 -0.409366
596 1.86679 1.33016 7.44583 2.25142 -1.47161 0.979979
372 2.28672 0.146923 7.87377 0.709544 -0.0327856 -1.24337
133 2.84208 1.3579 8.54718 0.977873 0.682552 -0.500616
661 3.96269 0.339609 7.50778 0.0346457 -0.608095 1.64515
361 4.58915 0.403797 8.58546 0.839112 -2.16281 -0.734952
270 5.55569 0.711023 8.09625 -0.694973 -0.68993 0.62304
524 6.17897 1.19194 6.90611 -1.01318 -1.64422 -0.108313
251 9.53264 4.40129 10.4939 0.765527 -1.10418 -0.334469
390 6.70053 1.78442 7.97318 1.27414 2.05161 -0.216998
210 7.62749 1.17951 8.01223 0.406335 -1.00923 1.67195
26 6.62343 0.809806 8.4874 0.00786868 1.0274 1.20692
773 8.6628 0.995668 8.73313 0.150088 0.714357 1.33291
174 0.759408 0.138148 9.14753 -2.01576 0.522448 0.00550201
426 8.9346 0.712609 7.48047 -0.757084 -0.029887 -0.0813799
110 10.3868 0.74507 7.43652 0.661466 -0.883496 0.106143
571 8.16831 3.99079 5.50673 -0.393255 -0.260891 -0.310874
130 9.47345 0.296234 8.48749 -0.968483 -3.63411 -0.964379
509 0.459659 3.58386 7.63097 -0.376551 -0.150692 0.429313
275 0.533425 2.57784 7.82499 -0.127203 -0.0356781 -2.34246
88 1.26141 2.91264 8.47172 -0.462993 -0.79302 0.279582
417 2.33561 3.61238 8.30523 1.04021 2.38293 0.131151
17 2.87453 3.16113 7.65118 -0.102494 -0.269335 -0.414069
232 1.9183 1.93288 8.86426 -0.111069 -1.45393 -0.194699
505 2.72659 2.42176 8.49624 -1.44368 -0.863732 0.0275536
269 3.94637 1.31575 8.14609 0.510694 -2.50338 0.535288
126 3.56221 2.1002 9.02984 1.97156 -0.0830121 1.07569
520 3.86091 3.35939 8.63542 -0.138912 -0.0458553 -0.366628
759 4.94495 0.990064 7.38568 2.89426 -1.74372 -1.61484
478 4.25617 3.25207 7.57791 0.572349 0.557784 0.420089
389 5.74982 1.70707 8.36708 -1.28963 1.613 1.85804
146 4.9103 2.78906 8.22404 1.10387 -1.58475 0.627491
97 6.08999 3.49639 8.3134 -0.863504 0.0019116 -2.2334
709 6.13064 2.58209 7.77664 -0.24853 0.680903 1.06018
274 7.01368 3.16591 7.73388 1.5405 -0.0319335 -1.33232
325 7.86103 2.26349 8.2796 -0.903206 -0.537075 0.35515
149 8.84261 1.93441 7.71546 -0.210912 -0.108769 -0.998096
45 7.99 3.4114 8.61298 0.143419 1.17394 4.41901
458 8.8246 2.76328 8.48761 -1.62331 0.0367303 1.06906
346 10.2238 1.70777 7.5487 0.0732505 0.34562 0.415798
701 10.5167 2.88441 6.89131 0.498306 -1.04743 -0.358444
161 10.0785 2.6988 7.90005 -1.28315 1.4877 -0.591926
445 9.16034 1.83978 8.89334 -0.261126 -1.52278 -0.26749
728 0.297402 1.92277 8.68742 0.524806 -0.620454 -0.742605
724 0.578878 4.76734 8.41777 0.179987 -0.220268 -0.773633
839 0.132098 4.60775 7.42579 -0.979295 0.789582 -0.0857258
76 1.41587 3.79013 7.65465 0.209451 0.301973 -0.675053
715 1.04218 5.15856 7.47601 -2.72075 0.556627 0.960864
159 2.04473 4.78882 7.45086 -1.02173 -0.905155 -1.01623
401 1.75049 4.56739 8.78849 -2.03625 1.26431 -0.395022
104 3.82135 5.09769 7.99473 2.09193 -2.72313 0.149474
11 3.05544 4.32285 8.8299 -1.15457 2.66442 1.3488
203 3.43283 4.10288 7.56216 1.34019 -0.698959 -0.0942341
833 4.66493 4.81747 9.14998 2.10846 1.2209 -0.370737
797 1.06729 2.31063 5.65471 0.870489 0.149857 0.205489
511 4.37294 4.22125 8.12589 -1.06101 0.815794 3.43398
10 5.45405 4.32875 8.27328 0.506082 0.586225 -0.650621
92 6.67628 4.21875 7.0727 0.716308 1.90314 -1.46082
56 7.3901 5.08459 7.39047 0.327719 1.36313 -0.672054
375 7.22175 4.20585 8.40772 1.16386 -1.38952 -0.637307
413 6.27991 5.15864 7.48665 -0.971511 -0.0915175 0.127776
531 6.3668 4.68156 8.80819 -0.280162 0.387447 0.755772
442 7.57439 3.94607 7.45804 -0.486795 -0.378965 -0.316766
260 8.98157 4.23107 8.44101 2.38876 -0.718124 1.09068
844 8.25469 4.94311 8.01995 2.21988 1.42577 -1.66303
716 8.11255 1.94137 10.7209 -2.17633 0.329337 0.508862
719 10.1982 3.69625 7.53789 0.516737 -1.13722 0.736622
280 9.83737 4.82255 8.13057 -0.0364679 0.430861 -1.48564
292 10.3236 3.80453 8.62947 0.697841 -0.64396 -0.726944
660 1.18146 0.950427 10.0195 0.63359 -0.515039 0.335179
141 0.348853 1.03809 9.38208 0.986257 1.23181 0.157677
49 5.86016 0.0754098 7.11404 -0.911244 -0.416935 1.60008
410 2.01616 0.676486 9.41065 1.14364 -0.175088 -0.746191
218 3.14829 0.687416 9.30526 -0.0772125 1.56459 0.805167
415 2.06428 1.02361 10.5881 0.383597 -2.67605 2.19822
328 3.35793 2.02281 10.1264 0.100196 0.900356 -0.135305
812 3.98426 1.23349 9.33353 0.627725 -0.632461 -0.363261
131 4.19069 0.951454 10.428 0.466914 -1.02157 -0.592013
254 5.42906 0.443378 9.31913 0.0314179 1.15207 1.30006
825 5.24044 1.35111 9.79842 0.278865 0.40757 -2.09003
29 4.75603 1.50833 8.63583 1.84245 0.794035 -0.24195
353 9.1141 3.63518 9.72655 0.0284956 1.48469 -0.463944
684 6.19373 1.22763 10.3853 -0.952947 1.97824 1.90738
169 7.05594 0.676758 9.36245 0.564402 -0.579052 -0.0562484
64 6.45935 1.83242 9.01673 -0.81437 0.563301 -0.247563
352 9.1648 0.511805 9.64476 1.18364 0.0450314 0.134058
291 8.57237 1.45837 9.81025 -0.841389 -0.101238 -2.80661
182 7.58418 1.21186 10.1037 1.29585 0.106919 -0.907021
4 8.4971 0.67965 10.5248 0.028341 -0.72686 0.470639
588 10.3033 0.422011 9.4719 -1.36852 0.363348 -0.923978
762 9.77826 0.76189 10.4584 0.177949 1.39938 0.589426
500 10.1659 1.50362 9.46806 0.571729 0.749671 0.238729
662 0.805757 2.62393 10.2576 0.804521 -2.73699 1.08121
32 1.02123 1.8276 9.5021 -0.182583 0.493636 -0.603513
428 10.4567 2.62334 10.32 0.206531 3.41553 0.0984914
154 0.286726 2.91259 9.01495 0.478932 1.52491 0.322024
123 2.18614 3.53839 9.25235 0.495796 1.06397 1.98561
743 2.97876 2.80324 9.37838 2.3676 -1.84462 -2.59252
271 2.1331 2.51981 10.3953 -0.206114 -0.609229 -0.66356
198 4.4384 1.83968 10.1846 -0.273312 0.439224 -0.0795317
282 4.04648 2.89638 9.5943 -2.31114 -0.93991 -1.08445
103 3.15098 2.99667 10.3994 -1.16504 0.974707 1.78831
810 5.02037 2.52562 9.51511 -0.178298 -1.06845 0.479555
7 5.90443 2.29732 10.2013 0.55732 -0.442542 0.60801
57 2.57552 5.19188 8.18303 2.37667 0.446247 -1.00227
205 5.34445 3.28888 10.1586 -0.195598 0.713449 0.0279766
783 6.18722 3.06566 9.32133 2.75611 -0.296768 -0.521855
475 6.96321 2.05512 9.97363 0.031083 0.134184 -0.883854
663 6.85093 2.70996 8.62301 1.08553 -2.70736 2.2086
189 7.70207 2.61369 9.42789 0.32469 -2.27346 -2.00049
351 8.81761 2.54976 9.6079 -1.602 0.365063 1.4234
460 9.50749 2.04882 10.288 -0.196459 -1.16443 1.36429
438 1.47163 3.60029 10.0189 -0.22023 -0.136727 -0.193817
2 0.528256 4.67333 10.3229 2.44786 0.0784575 -0.12992
311 10.5053 4.51508 9.33622 -1.24468 -0.494273 -0.23382
125 0.652591 3.95315 8.93754 -0.842051 -0.40792 -0.416377
344 0.826032 5.30471 9.55537 -0.599569 -0.787119 0.00230237
632 2.62777 5.19692 9.32013 1.3196 0.571999 -0.343239
111 2.01159 4.50848 10.3085 1.37035 0.690404 -1.92399
406 3.20099 4.70173 10.2916 0.520686 1.29237 1.07703
739 7.82762 0.11674 9.88879 -1.89217 1.40422 1.77387
864 3.00473 3.81506 9.8275 -1.20903 1.33184 2.13221
23 3.68263 4.82792 9.29599 0.773769 0.536755 0.861287
698 4.21333 3.99275 9.66514 -0.867842 -0.87485 -0.33571
508 8.98261 2.91834 10.6554 -1.32829 1.80853 -3.18441
545 4.92715 3.61605 8.8362 2.134 -0.871482 -0.968815
637 5.73002 4.06961 9.49987 -0.636906 -0.670284 -0.216694
619 5.20532 4.58472 10.4423 0.285312 0.366612 2.0554
409 7.12226 3.53186 9.26338 -0.50225 0.79977 -0.28678
37 7.17744 3.10866 10.452 -1.18595 -1.58918 -0.317845
541 6.63475 4.81527 9.84453 -0.645869 0.964895 -1.15264
412 7.52423 5.12813 9.24034 0.161839 -0.228343 0.68145
592 7.4621 4.2309 10.1918 -1.37392 -0.556758 -0.297756
139 8.03835 4.1306 9.32328 -0.607145 -1.01021 -0.513794
585 8.13465 3.3365 9.98691 1.61743 -0.266896 0.113926
778 8.6879 4.75497 9.66535 0.698876 -0.428509 -3.55705
195 10.7184 3.56961 9.94401 0.121367 1.22727 0.466594
66 6.23195 4.38615 10.618 -0.0168528 -0.115887 -1.11998
229 9.52573 4.94989 9.06716 -1.3154 0.42418 -1.77017
305 6.93108 5.01002 6.43968 0.0873558 0.78587 -0.986825
58 4.2407 3.51194 10.4959 -0.180994 -0.363098 -1.89348
71 3.18576 0.0987857 6.88076 0.0365693 0.690564 1.24616
769 0.711071 0.0150868 5.61234 0.773918 -0.117155 -0.497779
828 0.596716 5.69077 1.51235 -1.68868 -1.00077 0.27996
630 0.79895 7.32906 2.00044 0.0620914 -0.0256019 -0.957981
3 0.331857 6.92226 1.11379 0.327625 0.682969 0.824341
165 1.89252 6.54822 1.35922 -2.24738 2.1291 -0.869625
695 2.51132 6.19439 0.286292 1.42111 0.501142 0.388382
721 1.67555 5.62544 1.41452 0.93044 -0.0125071 -1.19303
201 3.24064 5.6486 1.41007 -1.43798 0.00900822 0.443156
823 4.03608 7.28667 0.862145 1.28486 2.61065 -0.790161
385 0.386843 5.51458 0.338648 -1.95484 0.0383606 1.83132
398 4.24652 5.87294 1.09233 0.198243 0.178728 0.501515
167 4.26191 6.5053 1.88511 -2.51788 -1.17362 1.50672
9 5.42973 6.59562 0.620678 -0.453601 1.14481 -0.810403
113 5.2064 7.24006 1.37241 -3.36782 4.00353 2.19443
862 5.75902 5.78318 1.29421 -1.59226 0.441411 -0.176856
574 6.70466 7.17806 0.777826 -1.94371 1.99394 -0.451875
621 6.08954 6.65099 1.60888 0.792455 -1.62632 -0.264642
635 7.42617 6.68347 1.46179 0.0943744 1.75381 2.19647
112 6.51419 6.13029 0.620291 -0.147824 -0.397861 -1.63366
502 7.86133 7.03945 0.331315 0.1715 1.55249 -2.60124
471 8.21678 5.91314 1.23455 -1.36599 2.00505 -0.388044
573 7.92369 5.90475 0.29521 -1.28776 0.165627 0.950885
193 9.40733 6.17306 0.523269 0.47929 -0.29351 -1.53698
532 10.4453 5.83538 1.16645 -0.856002 0.581036 -1.73995
822 1.11674 7.87166 0.750401 0.305704 0.609242 -1.35003
734 9.41913 7.15595 5.16372 -1.05643 -0.415562 -3.28731
824 0.0410511 7.86745 1.48963 -1.1579 1.99738 -0.587045
289 2.5482 8.15828 1.30287 0.456825 -1.46312 0.345066
368 2.42194 8.30886 0.206214 0.0765078 0.94379 -1.67075
861 2.64921 7.35114 0.747872 0.0269321 -2.11292 -1.18771
794 3.61255 8.17416 0.0275376 -2.31339 1.26656 -1.00927
800 3.8677 8.08024 1.55756 1.95774 0.0554303 -0.162424
469 4.54443 8.22955 0.603717 -0.669572 1.12589 -1.46554
486 4.98937 9.14664 1.05608 1.4263 0.875883 -0.617525
333 5.86216 7.93121 0.92411 1.05809 -1.5099 1.49932
50 4.24116 5.40091 3.50954 1.82884 0.663302 0.495386
831 7.20048 8.16248 1.11893 -0.94718 0.968523 -0.885044
473 6.69986 8.5859 0.133042 1.76712 -0.262612 -0.175103
814 8.81282 9.14471 1.01552 0.119566 0.647344 -0.768165
746 8.40406 7.84045 0.750718 0.876701 1.56156 1.24152
382 8.12418 9.47568 0.13337 0.0606376 0.974282 -2.07271
623 8.62479 6.72568 1.70082 -1.86632 1.91866 -0.57407
81 9.97708 7.01541 0.981147 -0.525893 -0.367901 1.96029
791 0.152788 8.04908 0.326634 1.02474 -0.916113 -1.31011
158 9.1823 8.06156 1.45141 0.0427891 -3.05825 2.55854
521 10.4596 9.39381 0.973341 -1.03803 -0.674414 0.271492
1 0.506137 9.84878 1.41913 1.03238 -0.179275 -0.735457
340 1.92121 9.27605 0.275835 2.11394 -2.34909 -1.61275
377 0.690055 8.91328 0.509439 -0.0739027 0.187435 -2.66229
421 1.52278 9.77809 1.37095 0.467218 0.070287 -0.152691
369 1.19951 8.63773 1.35265 1.03472 -1.65365 3.6446
788 2.36631 9.09158 1.6891 0.11283 0.631169 -0.700776
362 3.46326 10.2744 0.272949 0.475321 0.257831 0.430752
48 3.10912 9.10437 0.80223 -0.674981 -0.796631 0.690305
615 4.01864 9.58233 1.42268 0.288028 -0.120686 0.241585
424 3.08826 9.94726 1.56849 -0.8942 0.203516 -1.66426
366 4.40223 9.62757 0.301791 1.55146 -0.455647 0.315035
838 4.97888 10.1627 1.55273 -0.985107 -0.292672 0.255543
654 6.20685 8.96513 0.988379 -0.613346 -0.201102 -2.11313
811 0.637741 10.5711 3.72254 -1.07184 -1.75721 -0.776322
334 6.19128 10.3771 0.878297 -1.12226 -0.16436 0.495087
829 7.2444 10.3081 1.77777 -0.404241 -0.805564 0.490682
859 7.24587 9.39488 0.929935 -0.320177 -2.15847 -0.239633
86 8.33083 10.5189 0.141737 0.764392 2.21846 0.568777
233 9.41095 9.90191 1.57972 -0.789029 -0.135666 -1.17538
648 9.28022 10.1506 0.592063 0.845497 1.40444 -0.330161
570 10.5943 10.4827 0.897179 0.306931 -0.661548 -1.71986
463 1.43581 6.6665 2.55332 2.11886 2.92479 -0.831398
483 0.636867 6.03691 3.10279 -1.1581 -0.62175 -0.394475
135 2.8947 6.38784 3.11859 0.892981 -0.508907 1.02872
416 2.61217 5.82613 2.134 0.698066 -1.94447 -0.917264
43 3.81649 5.39166 0.205105 -0.493781 -1.56129 4.28342
568 4.7877 6.57274 2.90963 1.01134 -2.76043 -1.00809
150 1.87679 6.07365 3.09981 -0.404166 0.512484 -3.44738
65 3.82219 5.81948 2.49201 0.279648 -2.15656 1.34159
820 5.98143 5.51021 2.52156 -1.59961 -4.28627 -1.06602
688 4.90124 5.7062 2.00078 -0.987968 -0.140341 1.7062
255 5.63409 6.51508 3.95101 1.02077 -1.23054 -0.0529749
433 5.33216 5.5892 3.48061 0.388081 0.276284 1.4035
132 6.4499 5.97928 3.39992 0.0130454 -0.745011 -0.433303
752 7.10611 6.21199 2.54563 -0.242058 0.598934 -1.37369
732 7.74623 5.57901 2.09891 2.26334 -1.64863 -0.625682
440 8.3957 7.15809 3.59765 0.474729 3.27195 1.48759
474 7.8931 7.20448 2.52033 -0.953284 -0.0880153 0.602686
15 10.4352 6.91093 1.90863 0.472382 -0.874104 1.41203
450 9.64668 6.02861 1.74241 1.48131 -0.219683 -1.31011
479 9.36572 5.79116 2.90939 -2.07198 1.02023 0.757736
546 10.1199 6.73963 2.82738 -0.165495 0.506962 1.80749
781 0.712302 8.47213 3.05986 1.81584 -1.45943 -0.372197
129 0.298561 7.13619 2.92408 -0.0867995 -1.82062 0.876991
200 1.63656 8.22056 2.40376 0.492138 2.22951 1.4353
745 1.85818 7.8184 3.32792 -0.812854 0.446102 0.414101
751 2.60112 8.3348 2.49425 -0.783701 -1.04861 0.832785
484 3.07969 7.34416 1.98764 -0.138663 0.771556 -1.0936
581 1.55614 9.31102 2.60375 -1.64194 1.69823 0.86028
452 4.15638 7.40857 2.8009 0.34529 -0.389563 1.22126
304 4.31886 8.16603 3.93426 -0.158796 1.10164 0.80117
565 3.41547 8.08247 3.10179 -0.20079 -0.181529 1.03944
378 5.19193 7.46638 2.46072 1.00917 1.52787 -1.1745
714 5.02722 8.27877 1.65955 -1.63991 0.000420531 -0.100637
235 5.28752 8.25301 3.26141 -2.95048 -1.06372 -2.12574
423 5.86099 6.68374 2.60873 -1.53012 -0.935708 0.952643
736 6.17284 8.1459 2.22553 -0.553133 -0.525096 1.29709
212 6.88872 7.18089 2.23171 0.650472 -1.31124 0.962849
813 7.40276 8.45052 2.41418 0.0354741 -1.84551 0.241495
74 7.00545 7.31755 3.24257 0.759892 -0.566769 0.345904
672 8.06043 8.38958 1.64759 2.75607 2.0671 -0.000771874
656 8.59206 7.93414 2.64355 -0.406156 -0.109712 -0.535723
20 9.20219 7.1356 2.38569 -0.449701 -1.99549 -0.229672
537 9.73782 7.38115 3.70519 0.18209 -0.0578746 -0.260619
606 10.0752 8.28267 3.03152 -2.74942 0.697829 0.882788