ITEM: TIMESTEP
41800
ITEM: NUMBER OF ATOMS
864
ITEM: BOX BOUNDS pp pp pp
0.0000000000000000e+00 1.0726842421158810e+01
0.0000000000000000e+00 1.0726842421158810e+01
0.0000000000000000e+00 1.0726842421158810e+01
ITEM: ATOMS id x y z vx vy vz
660 0.771425 0.838025 0.0103548 0.00107123 -1.1063 -1.4019
421 1.3893 0.359867 0.797797 0.439798 1.2579 -0.346442
591 1.94138 1.21049 1.10889 1.63301 0.237765 -1.16539
835 3.37594 0.00834717 0.366547 -1.22601 -0.596278 -1.61528
124 0.619931 4.77357 2.96894 0.852097 -1.63241 -1.68265
131 2.73278 1.04767 0.490063 -0.155049 0.596176 -0.683912
731 3.3639 0.588512 1.17593 -0.81493 -2.50136 -0.934015
140 4.26101 0.76071 0.741418 0.155151 -1.21294 0.352104
642 5.54625 0.814899 0.945888 1.00679 1.29207 0.79401
120 9.09779 3.15993 5.2783 3.02717 0.921867 -1.55563
403 4.69618 1.70324 0.347084 2.26469 0.0951999 -2.1325
694 6.5103 0.323702 1.23817 -1.49277 -0.449456 -0.589295
31 6.6165 1.62955 0.868491 -0.598359 -1.83893 -1.10935
330 8.00042 0.198604 0.506801 0.573734 -1.34962 -0.800328
134 7.55856 1.13497 1.29874 -1.9299 1.52193 -1.19875
804 7.03466 0.835076 0.360023 0.108354 -1.80484 -1.04395
14 9.10443 0.653267 0.364705 1.47122 -3.09173 1.83365
418 3.51907 4.38857 0.420376 0.398368 -2.5195 2.72933
599 9.78929 1.03072 1.37501 0.059249 0.366922 -0.277746
583 10.4114 0.398359 0.28918 -1.12048 -0.145394 -0.560859
19 10.311 4.60361 4.05336 -0.664212 0.32494 2.51116
310 0.980947 2.03512 1.00914 -0.959022 0.418433 0.324083
420 2.66454 2.53718 5.27021 -1.08124 1.61738 0.0606467
271 2.6277 2.24015 0.238763 -0.76985 1.7547 -0.57143
438 2.0669 3.02511 0.521087 -0.207853 1.97557 -1.10436
103 3.11074 3.00463 0.712462 0.0276574 0.443031 0.738663
295 3.76755 1.71361 0.890306 -0.24051 0.187591 1.08295
507 3.9161 2.58974 1.25239 -0.839735 -0.63662 -0.838752
179 4.49983 2.33366 2.25174 -1.11557 -0.789583 -0.0155635
93 5.66056 2.17534 0.787092 1.14809 1.67142 1.49594
647 5.40433 3.35087 5.1019 0.583131 0.301673 2.52965
58 4.90537 3.00207 0.641355 -0.540635 -1.28465 1.49104
215 6.50193 2.39437 0.0898714 -0.715623 -1.47649 -1.371
37 7.11737 3.40048 0.166818 -1.79059 -0.874275 0.968345
225 7.05573 0.336012 2.94846 -0.118736 -0.0919162 0.558221
525 6.88454 2.5411 1.33199 -0.589431 -1.22692 -0.285743
475 7.52118 2.26337 0.419309 -1.62598 -1.10716 -1.03897
42 7.97024 2.05599 1.51723 0.293371 -0.755274 0.121384
809 8.91063 1.60959 1.54551 1.24887 -0.407469 1.1295
257 6.34953 5.0347 5.10972 -0.928738 -0.173531 0.664433
493 9.99393 1.45736 0.439316 -2.20507 2.14613 -0.210386
464 9.35808 2.62959 0.869217 -0.599644 1.47008 -1.45551
689 0.078046 0.689497 1.32182 0.176762 -1.054 1.66007
294 10.376 3.30291 1.71377 2.7524 1.71011 -0.735865
662 0.881563 3.03638 0.385037 0.026626 0.149685 -1.20331
576 7.66034 5.32111 1.19687 1.01113 -2.56465 -0.341899
228 8.13559 0.414272 2.97345 0.813147 -0.620564 0.393346
627 1.06908 4.4807 1.32357 -1.56749 -2.25209 2.49029
111 1.69363 4.12387 0.456542 0.741704 -0.233784 -0.63267
345 2.00582 4.63984 1.77902 0.090504 -0.9024 0.532278
394 5.27691 1.52354 5.0653 0.569762 1.93362 0.342672
184 4.37168 4.71079 0.440583 -0.0589159 2.22444 0.603321
443 2.41684 3.93805 1.05428 0.500411 -0.157141 0.0604761
560 3.3054 4.12664 1.80864 0.395358 1.2348 -0.981554
391 4.09811 3.64508 1.3426 0.460795 1.46763 0.974213
538 4.4009 3.80513 2.43764 0.495335 -0.539637 -0.382825
712 6.77513 4.94973 4.08226 -0.0485255 0.722967 2.10645
575 5.91888 4.09328 0.448581 2.56522 1.24526 -0.516793
283 7.86161 4.48173 0.646892 0.782659 1.96024 -1.30819
821 8.76158 4.82151 4.79293 -0.362527 -0.363728 2.31788
834 0.0382879 3.0871 5.31111 0.217318 0.808243 -0.82846
508 8.02257 3.59697 1.05192 3.37323 -0.730207 0.638081
374 8.77297 4.10719 0.558806 3.3296 -1.05474 -1.76996
190 10.4181 4.4828 1.72873 -0.890071 2.04657 2.03187
252 9.63656 4.84305 0.418613 -0.00392717 -1.3106 0.696279
553 10.6681 2.03324 1.83077 -1.44122 0.986574 -0.268862
447 1.54264 0.434439 3.08546 -1.74331 -1.40621 1.74688
683 1.16508 1.01816 1.67234 1.04535 1.87224 -0.917291
587 0.609085 0.806624 3.41859 -1.35292 1.88728 0.378611
851 0.619509 1.75169 2.67636 0.666606 -1.09753 -0.127016
696 9.08846 1.26961 5.11963 -0.207405 0.294458 -1.73679
392 1.63521 1.31521 2.66979 -0.877943 -2.71899 0.407901
144 2.01853 0.528481 1.83665 -0.0228143 1.25313 0.295948
142 2.67504 0.175073 3.1588 0.762252 -2.51636 0.46389
106 10.0362 3.29144 0.248779 4.01883 1.10476 -1.46376
370 4.25709 1.53562 2.86102 2.05619 -1.54737 1.88773
138 2.61214 2.29597 1.28043 0.091361 -0.848569 -2.52734
612 4.96765 0.699407 3.90363 2.39259 0.276926 2.25028
240 4.40153 1.30691 1.75576 1.09673 0.634222 -2.0074
268 4.5035 0.241809 2.0457 1.24415 -1.25744 0.020006
350 6.02934 0.628832 2.10261 -1.37382 -0.164907 1.32382
676 5.80995 0.512584 3.38027 0.384834 1.29054 0.581616
137 6.70846 1.7236 1.8752 0.798763 0.303603 1.89191
522 6.55408 1.27889 2.801 -1.18385 0.508755 -2.81584
293 8.71794 1.31726 2.65461 0.394676 1.92811 1.13878
496 7.61769 1.13135 2.48463 -0.120805 -0.674879 0.668634
425 8.94471 2.05693 3.31246 1.32584 0.302518 -0.758337
629 9.57616 0.420601 4.00774 0.666495 0.474755 -0.466564
685 9.52845 0.334971 2.83412 -0.605616 -0.75554 -2.14225
209 9.60539 2.05546 2.39537 1.09639 0.903948 -0.660837
858 10.3671 0.0317109 3.33398 0.700642 -0.127771 2.22796
223 0.508853 2.91272 2.12442 -2.59043 0.421834 0.736691
843 10.3837 2.70871 2.61276 -2.20229 -1.09312 0.240723
603 2.57871 2.4582 2.41836 0.59435 -2.4566 -3.86276
265 1.57841 2.11904 1.99239 -0.314254 1.30964 0.312838
33 2.45128 3.20026 1.77232 -0.802975 -0.622634 0.421045
449 1.7316 2.29316 3.12497 1.07941 -0.22426 1.57495
490 1.77562 3.16479 2.63068 -0.704159 0.969651 -0.688973
284 3.61956 2.89687 2.16579 0.689089 1.65633 -0.860887
845 4.00267 1.96709 4.19899 -0.522177 0.106286 -0.236323
482 5.7717 2.47052 2.06226 -1.28179 0.837945 -0.367775
680 5.82193 3.054 2.89012 -1.90024 -1.35496 -1.75137
204 4.31906 2.47326 3.30966 0.470625 1.13034 1.67879
68 5.98356 3.24091 0.878594 1.95842 -0.585956 0.573193
488 6.56707 3.58006 3.30053 -0.347682 0.898283 0.139751
153 5.52104 1.66472 2.64761 -0.431344 0.40964 -0.780956
837 6.35422 2.25096 2.89704 0.701821 -1.37316 0.350018
826 6.88762 3.50601 2.20049 -1.38094 1.41193 0.0448446
247 7.24894 2.47645 2.52582 -1.1717 -0.137257 -0.742542
624 8.03264 2.92271 2.4218 -0.830277 -0.510108 -1.7514
760 8.93728 2.62647 1.78512 -0.0374828 0.124308 -1.30629
183 10.0494 2.16165 3.35272 -1.40176 -1.17736 -2.30512
171 9.66819 3.358 3.07472 0.00163918 1.08594 -0.0358099
650 0.0864976 3.01261 3.89797 -1.28913 -0.562644 0.304914
512 0.987771 3.9666 2.50904 0.168112 2.06383 -0.730523
156 0.632105 5.23254 1.9938 0.405634 1.42194 -0.761548
730 1.43948 3.38909 1.14478 -0.332957 -1.20497 -0.159288
286 0.347196 4.10112 3.85051 0.356592 -0.69852 1.72017
150 1.77453 5.04031 3.17545 -1.77856 0.982145 -1.75237
416 2.92613 5.10245 1.93777 -0.79861 0.991668 -1.4707
180 6.84248 0.787935 4.76617 0.69105 -0.688833 -0.104384
80 2.27656 4.17273 2.58403 -1.2731 -0.861873 1.69797
207 2.62183 4.79928 3.83736 -0.27941 -0.684134 1.1762
60 3.59609 4.56004 2.76014 -1.87084 -2.01436 0.896285
564 3.28173 3.63338 2.80203 1.4111 -0.0520949 -0.786614
175 0.283952 1.68396 0.253071 1.43173 -1.6022 -1.00431
753 5.31476 4.07885 2.99106 -1.3876 -0.502975 0.926021
429 4.86615 4.93728 2.03483 0.049842 -1.02721 0.392899
605 4.36072 3.86835 3.56184 -1.34991 -0.351411 0.321503
13 5.40059 3.42977 1.69878 -2.15586 0.647082 -0.0662968
2 1.75457 5.30341 0.651739 -3.12499 -0.710816 -0.888931
400 6.10131 4.06131 2.29396 0.1155 1.9214 -0.917485
614 6.92291 4.73409 2.80386 -4.14901 1.12473 -2.41803
470 9.49387 4.4279 3.19779 0.256726 0.246237 -1.39165
780 9.45413 3.71573 1.36857 0.318406 -0.256695 0.00831511
609 8.30642 3.85478 1.98376 -0.41185 -0.626433 0.0467546
528 7.16158 4.54208 1.60632 -0.744612 1.04346 -0.652457
595 8.00382 4.76794 2.6612 -0.800181 0.0835099 0.234529
354 8.83736 3.60179 2.75767 -0.407019 -1.64 0.198938
779 10.6366 3.65977 3.05685 1.30341 1.64007 1.54585
589 0.481583 3.97737 0.531708 -0.693831 -0.37576 -3.58937
842 9.27964 4.56823 2.09668 -1.38429 1.08538 2.66975
222 0.545797 1.78228 3.80064 0.983438 1.13428 -2.27726
461 0.341008 0.901965 4.41135 -0.433011 -1.99978 -0.529171
288 9.76767 5.18278 5.28036 0.788175 -0.859333 1.36784
303 1.51357 1.23272 3.74909 0.425625 -0.147771 1.33069
315 1.15887 1.10737 4.94861 -0.874159 -1.71031 0.686636
219 2.66357 1.84232 3.57884 -0.645709 0.719974 1.19537
480 2.91023 1.13288 5.33931 -0.0448995 -2.54674 0.999479
278 3.28359 0.378274 4.55159 0.234452 -1.0665 -1.18748
297 4.05273 1.19305 4.77249 -1.58898 -0.860246 1.32904
414 3.21414 1.01722 3.22801 -1.75091 3.12389 0.327153
664 3.04171 1.86306 4.5576 2.81649 -1.52828 -1.38768
716 8.54458 1.98067 0.115897 0.0652016 1.3218 1.44561
343 5.09036 2.50782 4.51224 -0.615466 -2.23663 -1.18446
678 8.78318 5.12736 0.967707 -0.39061 0.99425 1.79308
102 1.77334 1.06694 0.065393 -0.539946 -0.132543 0.411184
206 6.66336 0.190705 3.98042 1.10948 -0.321357 1.69037
527 6.96103 1.70186 3.68947 1.04152 0.660698 -0.680784
487 5.92275 0.679804 4.4271 -0.172991 -2.78694 -0.658549
536 7.57831 0.754539 3.90196 -2.0832 0.182901 -0.950792
446 8.15076 0.575319 5.25452 -0.439136 -1.26598 3.22388
16 1.43475 0.207912 4.68628 -1.25483 2.27758 -1.80322
21 10.2614 1.2229 3.83619 -0.457524 -0.855299 -0.440802
77 10.5608 2.09662 4.84033 -0.634619 1.46338 1.58434
357 9.34262 1.83797 4.19199 1.83267 0.456577 1.32411
85 10.1071 1.35543 5.29271 -2.76407 1.68069 0.365787
168 0.784264 2.81968 3.14179 -1.32568 -1.26834 -0.242477
793 0.984089 2.53983 4.50388 -1.34765 0.0375718 -0.278026
78 0.446342 0.368509 2.41953 -1.00655 1.2039 0.52739
380 0.889059 3.51074 4.38182 -0.435005 1.0164 0.442165
571 9.40379 4.12853 4.37265 -0.173819 -0.525606 1.52056
799 1.8926 2.00322 4.27991 -0.337329 -0.951029 0.476516
523 1.92315 3.08588 4.32967 0.146446 -1.15874 -0.542138
160 9.64908 2.22782 5.13797 0.855391 -1.31493 -0.799261
437 3.53834 3.14869 3.92772 -2.19814 -0.201988 0.716752
347 4.44178 2.36059 5.35359 1.0388 -0.576327 0.431483
622 5.16658 3.27222 3.81425 0.614263 -1.49999 -0.136975
504 5.9407 2.56186 5.28421 0.143072 -1.14598 0.648454
634 5.83636 2.01667 3.75416 -1.43705 -1.0441 -1.27074
383 6.13122 3.13425 4.22517 1.8382 0.192507 -0.0438934
492 6.40158 1.98612 4.60633 -1.21145 0.482808 0.479945
582 7.59965 3.89967 2.96193 0.817642 2.04162 0.577442
669 7.52752 2.77573 3.66145 0.131809 1.5976 0.43039
328 3.99757 2.40206 0.190421 -1.83025 -0.171761 -0.317282
211 7.14899 2.94082 5.03832 -1.20709 -1.03758 1.18475
249 10.6331 5.18841 0.589603 -0.269763 1.1147 0.428221
713 8.41117 1.48993 3.9328 1.10967 -0.956197 1.93011
803 8.33003 2.02231 4.97581 1.28511 -2.00478 0.721211
371 9.68907 3.04268 4.31191 -0.3792 0.464388 -2.11968
151 10.0901 5.05882 2.69854 0.929363 -0.838038 0.453796
578 10.5592 4.09367 5.03238 -0.433765 -0.42278 -0.662693
846 8.31956 2.92608 4.18063 -0.350051 2.07033 0.948325
467 0.683476 5.01341 3.98039 -0.289594 1.81422 -0.678108
733 3.69484 3.98228 5.32148 -1.48809 1.77489 0.422005
491 0.855171 4.49524 4.76212 -0.141318 1.22808 -0.230359
335 1.34826 4.03574 3.51382 0.333625 2.14103 -1.60439
518 1.8267 4.13954 4.53332 0.763736 -0.0672184 -1.55618
393 2.35271 5.09273 4.73287 -0.415878 0.113585 -0.375848
569 2.64152 3.57328 3.70052 -1.07126 -0.343198 1.09851
112 6.53779 4.67979 0.920408 1.73911 -0.583224 -2.38132
221 3.02402 4.21047 4.59443 2.42392 0.23815 -0.290941
267 3.91621 4.68968 4.35507 0.878605 0.0769309 -0.5223
176 4.55647 5.20284 3.29716 -0.179211 1.79725 0.790665
73 7.97803 4.65211 3.70229 1.86517 0.142239 -0.62966
641 5.07523 4.36624 4.6263 -2.14866 -1.9307 0.064114
462 3.75762 0.164063 3.02494 -0.944126 -0.275805 1.6831
691 3.97009 5.06476 5.29893 2.72481 -0.158412 1.70199
419 7.1145 3.9581 5.00208 -2.60224 0.233255 -0.150597
242 7.17634 4.04419 3.91076 0.428777 0.427797 -0.0974677
711 6.12595 4.06311 4.63593 0.121702 -1.00625 -0.314664
432 7.81702 4.95151 5.08368 0.577774 1.9613 0.981516
170 8.3057 3.7841 4.85085 0.569112 1.45602 2.71645
177 8.34169 0.410871 1.45686 0.493792 0.684631 -2.10435
188 8.78979 0.147199 4.64505 -0.534695 0.337197 -1.56856
309 0.026423 0.934067 7.05666 0.190177 -0.192058 -1.98811
611 0.886003 1.93088 6.54963 0.293628 0.382101 -1.09459
7 6.07465 1.00287 10.6199 0.492228 -0.143255 -0.120541
105 0.336023 0.669723 5.49523 0.666332 0.154301 0.961489
585 8.34028 2.96085 10.6317 0.133073 -1.0242 -2.04405
797 1.34666 2.00098 5.43083 -0.240764 1.87947 -0.511595
653 1.42246 1.10114 6.10075 0.506487 0.446699 1.12198
789 2.73018 1.70979 6.44628 1.88064 2.42308 -0.959466
592 7.96104 3.84327 10.5373 0.634153 -1.28647 0.468463
250 3.60317 0.938802 6.48783 -0.536008 0.51964 -1.3699
311 0.162842 4.69378 9.74361 0.402748 -0.423034 1.81703
53 2.20248 3.62214 5.41897 -0.212527 -1.89536 -0.597306
703 5.04174 0.071118 6.15087 0.0443346 -1.00182 -2.93501
390 5.5717 0.409726 7.27118 -0.217678 0.896279 0.0872475
191 6.07346 1.88349 6.9807 -0.914584 0.404069 0.136998
88 1.40856 3.68235 10.2303 0.807226 0.60066 1.72589
352 9.39604 0.201008 8.91501 0.304523 -0.115084 2.05273
543 7.43537 2.16537 6.7103 1.99518 -0.572173 -0.873121
30 6.29997 1.40986 5.46466 -1.48415 -1.21173 -1.21769
376 7.37831 0.537902 6.83676 1.3249 0.255781 0.389618
196 8.35787 1.34197 6.49742 -1.05809 0.211666 -1.09431
307 7.00287 0.85196 5.83373 -0.522309 -2.10681 -0.593012
34 6.30001 3.49357 5.60248 -0.3943 1.35216 1.05207
773 9.91873 0.988326 7.84213 -0.662177 -0.225271 0.00827342
830 10.4218 0.258384 6.14224 -1.06744 1.46062 0.312599
453 9.06051 0.703458 5.99235 -0.125272 0.752785 0.0985534
266 1.17965 3.10275 5.71043 0.54405 1.34549 -1.38973
346 10.3685 1.9613 7.57128 -0.401718 -2.21816 2.99287
697 0.460597 3.78002 6.07475 -0.819702 1.25109 -0.207367
17 2.61427 3.17083 6.57666 -0.345479 0.711334 0.0546476
258 1.93627 2.49164 6.05346 -0.587815 -0.313047 -2.21207
505 3.28076 2.7733 7.57493 2.04898 -1.15564 0.608327
269 3.39565 1.69064 7.191 -0.358408 0.383031 0.350895
439 3.99996 2.48926 7.0169 1.02325 0.636 0.702356
850 5.69264 5.02943 8.0722 -1.30793 -0.669657 -0.456008
262 4.77906 1.65766 6.81937 -0.648211 -1.24269 0.732275
18 5.32011 2.18287 6.10919 -1.39623 0.370672 0.321925
550 7.73511 1.4043 5.59593 0.553798 -2.13594 1.64815
706 6.29712 2.8677 6.4947 -0.130226 2.72266 -0.182169
244 8.17659 2.9033 5.64178 -0.674299 -0.143043 2.03869
709 6.77417 2.5591 7.60336 -1.56685 3.50057 -1.49011
404 7.33408 3.23623 6.31761 -1.90464 -1.00783 -0.567529
261 8.91211 2.1248 6.01576 0.727214 -1.54713 -1.10012
426 9.32532 1.72842 6.96838 -0.90318 0.818796 -2.28843
701 9.74103 2.96832 7.5662 2.5991 0.667757 0.0506858
253 10.1876 3.42415 6.86296 -0.659343 2.45999 0.872599
79 9.91844 1.25691 6.39334 -0.309479 1.01222 0.739502
417 1.20891 3.39564 6.85848 0.954866 0.37411 0.32802
839 0.357226 4.59679 7.11862 0.56359 2.26998 1.55702
306 2.36232 4.57797 5.53063 -0.146734 1.49068 0.346899
597 2.23387 4.06958 6.31299 1.39924 0.17834 -0.0823449
364 2.36993 5.05999 6.97323 1.19055 -1.06729 -0.397507
203 3.10341 4.0735 6.77889 0.476682 -1.56672 0.758521
516 4.25758 4.43555 6.34125 -0.831144 -2.92764 0.0981172
741 4.63141 5.22944 7.38527 -0.227391 -0.935722 0.464418
665 8.80022 4.84153 6.26552 0.644132 0.569104 0.659279
216 5.1216 4.37978 7.03701 -1.1693 1.94225 0.315967
744 5.50587 3.52692 6.11929 0.829172 -2.19595 -0.772103
757 6.35563 4.78079 7.40523 -0.0105883 1.17375 0.336126
217 7.14864 5.21932 5.85842 2.54275 2.6268 -0.546898
92 6.17962 4.08094 6.67177 0.229372 -0.0578778 0.815437
441 7.03283 4.58936 6.68126 -1.2801 -0.536381 -0.757556
667 8.74285 3.27984 6.34923 -2.66207 -0.46502 0.378267
699 7.74173 3.854 5.76625 -1.86325 -2.19861 -0.814106
849 0.328624 4.8933 5.51381 -0.952192 -0.505859 -0.347278
317 9.99033 4.97038 6.30461 -0.994777 1.92926 -1.87731
772 9.30382 5.32388 7.03882 0.815916 1.19385 0.0436761
427 9.58384 4.22229 5.6838 -1.88751 -0.325016 -1.20209
750 3.38671 5.15484 6.4864 0.70568 -0.597709 0.106078
567 0.634281 1.67013 7.52542 0.634134 0.180123 0.116693
110 0.525072 0.994149 8.33248 0.502002 -0.903883 0.464936
692 2.17542 1.37096 7.45969 -0.695721 0.597815 -0.707382
4 8.5408 0.0043416 10.4087 2.84161 -0.233047 0.4355
517 1.51758 0.637071 7.76725 0.818215 -0.0918894 0.577959
544 2.20327 0.274686 6.37939 -1.99504 -1.5784 -0.900952
596 2.05438 2.07625 8.23553 1.3537 1.16435 0.831352
384 2.11324 0.999566 8.64261 -1.32007 -1.08372 0.21425
87 4.88228 1.23287 8.34332 3.35517 0.168917 1.70828
661 3.98595 0.895329 7.77224 0.115271 -0.408227 -0.964633
126 3.46097 1.26528 8.4737 0.163065 -1.36422 -1.26794
122 4.53704 5.18087 10.0691 -1.40068 2.42065 2.25791
409 6.36873 2.68192 8.54222 0.457417 1.28706 1.37792
389 6.0481 1.14155 8.56208 -1.4571 -0.0406499 1.17512
785 6.60392 1.02157 7.48923 -1.23851 -1.7758 0.67566
270 6.33156 0.018793 7.89024 1.3669 0.415059 0.448706
39 8.24983 1.38263 7.56224 1.35055 -0.137977 -0.992385
422 8.10982 0.0321664 8.25876 0.661407 -0.286032 0.153133
351 8.21489 1.76909 8.49295 2.34249 1.3483 -0.859424
72 10.5857 0.250087 8.07917 -1.01553 -0.0954324 -0.350554
600 9.26231 1.9707 8.11283 -0.95537 2.09199 -0.710485
291 8.96808 1.34966 8.99406 0.398658 -0.774001 0.966087
555 0.36277 2.71541 7.28178 -0.654796 0.365245 -0.171053
197 0.391702 1.80679 9.07774 -0.0165775 -1.9923 -0.0214882
32 0.812341 3.22098 8.30012 -1.58528 0.27753 1.01689
232 1.96503 2.58808 7.22501 -0.264375 -0.0749594 -0.108253
864 2.25462 3.15319 8.17 0.683679 2.70108 1.29096
520 4.03766 2.59042 8.45859 -0.992336 -0.551808 -0.152467
759 4.29269 1.96453 7.75087 0.278073 0.495353 1.72063
478 4.58205 3.10026 7.69356 -1.38477 -1.66345 0.868547
360 5.37074 2.78555 7.1621 -0.768676 1.38252 1.14898
810 4.92863 2.27666 8.60213 -0.987983 -0.221719 -0.634128
524 5.49389 1.99009 7.75385 0.755954 0.0778824 -1.7318
412 6.8581 3.57812 9.3267 -0.645084 3.17786 -0.217071
40 7.71354 2.98634 7.46723 0.937107 -1.49316 0.628852
651 8.53687 2.50546 7.12605 2.54301 0.287098 -0.956895
260 8.72412 3.28755 7.87039 -1.21565 -0.387074 -0.0490536
229 8.93375 3.81082 8.68136 0.131679 1.78332 0.221252
161 10.508 2.63597 8.35473 -0.584712 1.42108 0.337397
458 9.56777 3.01406 8.87861 0.892403 -0.295834 1.66456
54 9.63695 4.29393 7.12619 0.362891 0.356077 1.19627
719 9.88961 3.86803 8.10314 -2.0215 -0.514769 -0.881901
401 1.0421 4.69986 8.08077 1.5239 0.573537 -1.38464
812 3.9209 0.30754 9.9201 0.217605 1.84193 -3.34361
76 0.131296 3.75831 9.10239 -1.4659 0.761963 -1.6256
545 3.15735 3.46035 8.45429 1.28897 -0.528577 1.12294
104 2.81367 4.37126 7.88783 0.675041 0.571453 0.855133
632 2.35718 4.02807 8.69684 -0.763214 -0.7346 0.000662864
11 1.75199 3.85503 7.58686 0.397682 -1.67901 2.27737
251 9.30596 4.27786 10.1958 0.442478 0.153099 -0.00390634
673 4.12845 4.18341 7.43781 -1.2302 0.108175 0.96493
146 4.1621 3.57295 8.81707 1.58883 -2.04919 0.0144776
515 5.02504 4.35219 8.22288 0.517456 -0.840619 0.702098
448 1.25898 4.39183 5.84528 -0.0629626 0.397438 0.755054
97 5.49341 3.52451 8.0483 -1.55463 -0.973595 2.18198
513 3.70831 0.396138 5.58815 -0.22128 0.742907 1.645
56 6.72256 3.56339 7.50465 0.709833 -1.26161 0.317346
91 6.22845 4.78269 9.19038 -0.00591572 -0.0681022 0.348648
844 7.80746 4.70612 8.36788 -1.16294 -0.567525 -0.00496135
375 6.68444 4.63629 8.34134 1.20915 -0.763192 -1.29959
790 8.85041 4.91404 7.95685 0.494357 2.06813 -0.711765
243 0.508566 0.109909 7.30781 1.20775 -0.130417 0.724198
442 8.0052 3.98481 6.86495 0.160021 -1.24021 -0.192244
96 8.82669 4.8348 9.55842 0.457943 1.27213 -1.23041
832 7.25998 5.17904 7.50909 1.09772 -0.717404 1.30663
631 10.265 5.29819 7.55652 0.823685 1.94647 -0.0492962
509 0.155013 3.99847 7.86489 1.53066 -3.44895 0.710909
159 1.37965 4.94495 7.15442 0.969243 0.557183 -2.96969
141 0.922895 0.754209 9.36837 -0.705193 -0.748874 -2.96913
292 9.80587 4.43992 9.23604 0.0521326 0.320367 1.19605
149 10.2345 1.53333 8.87694 0.102306 1.55347 0.0688733
566 8.7166 5.26703 10.4978 -0.377353 2.91622 0.291157
748 0.76283 5.1805 6.333 1.32027 -1.37607 0.994416
133 3.04535 0.652594 9.37852 0.0949393 -1.24993 -0.703476
410 2.06236 1.53439 9.80726 -1.72582 0.874174 -1.45253
218 2.99826 1.30693 10.2119 0.769395 -0.273754 0.714379
593 7.1149 4.44511 10.3515 0.935917 0.292479 0.170991
698 3.67831 3.50757 10.4366 1.11789 0.819657 -1.4177
339 4.53217 0.49135 9.05552 1.12652 -0.822723 0.0687038
717 5.69416 0.0139741 9.52035 -1.5996 0.169782 -1.54331
825 5.01104 0.902013 10.1434 0.792493 0.0377229 -0.164302
29 4.72562 1.42516 9.31597 0.553477 -1.93812 0.360274
325 7.32676 1.7159 7.93261 2.47708 -1.0301 1.32913
26 5.87034 1.08651 9.61049 1.90578 0.378541 -1.75521
169 6.90049 0.841045 9.98781 -2.39141 1.37598 -1.25672
210 7.16333 0.371486 9.00785 -1.94672 0.628197 -3.15494
739 8.30869 0.6052 9.2983 0.538538 -3.26265 -0.886525
663 7.43334 1.5317 9.20688 -2.68224 1.53199 0.281225
182 8.03971 1.1127 10.5191 0.535894 0.0699584 -1.70053
681 4.00179 1.22905 10.5054 -0.0790601 2.65181 1.6625
130 10.3412 0.661331 9.45046 0.965493 0.143503 0.400941
445 9.17827 2.19688 9.44548 -0.230694 -0.682637 1.3585
762 9.55617 0.694095 10.0646 1.15817 -0.196201 -0.288196
500 10.1673 1.68688 10.0117 -0.861398 0.904907 -0.237483
428 1.14966 3.09357 9.55367 -1.08844 -0.594024 1.07539
686 10.6924 2.73028 10.6765 -0.0477727 -0.0711858 -0.189476
162 1.09818 1.85356 9.76196 0.71799 -1.83274 0.364696
301 10.3963 2.14192 6.57214 -0.104925 -1.20066 1.46449
123 2.17064 2.90754 9.15065 -1.93596 -1.25792 -0.114912
743 2.68395 2.96842 10.3001 -0.981582 -1.39303 1.85565
154 0.426229 3.85949 10.2092 1.00575 -0.532999 0.0916058
415 2.9529 2.34557 8.86955 0.312821 -1.33253 2.06124
327 2.79557 0.633442 7.93822 1.4488 0.132235 0.274112
275 1.52042 3.94519 9.11258 0.565339 0.270372 -0.547147
282 4.35124 2.39372 9.70377 -3.31659 -0.591927 0.276595
198 3.69026 1.42288 9.39833 0.557901 1.85406 -0.482941
847 3.2632 3.70333 9.37503 0.798456 1.82105 0.237274
57 2.04074 5.11973 8.87133 -0.400146 -0.812039 -1.03516
619 4.08113 4.3367 9.93546 1.95984 -0.831492 -2.70899
637 5.46117 2.95651 9.10942 1.60697 0.605377 0.900737
231 5.294 2.38043 10.3967 -0.902488 -0.694708 -0.251924
62 4.95812 4.02927 10.6156 -1.27171 0.0558491 -2.3613
45 7.9959 2.76895 8.53823 -0.076897 0.0741154 -2.39462
783 6.23449 2.38311 9.74474 0.977206 -0.238719 0.494558
66 5.72921 3.30299 10.4937 -1.31403 0.332349 -1.17462
189 8.14739 2.2648 9.70845 -0.154038 -0.192214 -1.84081
353 9.18714 3.17334 9.94517 -1.6187 -1.1647 1.31259
280 0.1037 4.872 8.42892 -1.71423 -0.342226 0.406894
728 10.2901 2.45626 9.43613 -0.667815 1.148 -1.00404
639 9.59465 2.30598 10.6171 -1.36004 -1.15484 2.10675
460 10.2515 3.38788 9.89207 0.753877 -0.330677 -1.17494
344 1.05193 4.92902 9.15924 0.517811 0.79014 -1.13817
718 9.69063 3.02634 6.07016 -0.48307 -0.662648 0.716565
766 3.14326 4.64449 9.89912 -0.437899 0.526118 1.9992
406 2.44808 5.26484 10.6591 0.078418 0.722231 0.207817
230 2.58474 4.02528 10.5883 0.366551 -0.975846 -1.056
833 3.63862 5.12322 8.11634 1.29097 -0.0437136 -2.16684
511 4.3206 4.76334 8.9044 0.423501 0.613154 -1.66512
44 5.86474 4.40997 5.76284 -1.8194 -1.97551 0.144958
531 6.0673 4.15553 9.96323 -1.22094 -1.2922 -1.83593
205 4.60441 3.34465 9.89653 2.02453 1.51627 3.22371
27 5.34343 5.20017 9.34418 0.438615 2.1875 0.0646893
10 5.23019 4.06622 9.19111 -0.471796 1.41784 -0.0667612
9 5.36295 5.10701 10.6702 -2.29253 -0.0638667 0.452597
274 7.39984 3.61979 8.35569 -0.289088 -1.96869 -0.634188
778 7.78224 4.74399 9.49248 1.25783 0.993255 -0.522472
64 7.42562 2.85222 10.1362 -0.0102104 -1.05354 -0.237766
139 8.42709 3.77751 9.53454 0.781927 0.210871 -0.703932
499 0.861346 0.0826834 8.64966 -0.151234 0.642762 -1.48832
758 2.05041 0.104901 9.17975 -2.13686 -0.13961 -0.523518
801 5.40451 0.100408 10.49 -0.64501 -0.976542 -1.2796
579 4.98453 5.26577 6.11402 1.96644 -0.968271 0.618376
195 10.3312 4.21426 10.5672 -1.98974 -1.72788 -2.18213
532 9.75939 5.29777 10.2677 0.550547 -1.20829 2.51646
152 1.34563 1.99827 10.718 1.9551 -1.41638 0.28452
125 0.90459 4.77994 10.6967 -0.912735 0.137382 -2.2111
483 0.746649 6.64168 1.76806 -0.167126 -0.830129 0.541614
721 1.61757 5.7009 1.76546 0.947028 -1.40175 1.04867
276 10.1508 7.08149 4.92791 0.46557 -0.752145 -0.733651
828 0.697719 5.82333 0.928221 0.833215 -1.51955 0.214677
633 8.23435 8.32806 3.96712 -0.151408 -0.751131 -1.36092
157 5.95963 5.7274 3.52133 1.05481 -1.05746 2.44206
630 10.6238 6.14625 0.170371 -0.158431 -2.29177 1.88181
165 3.06538 6.6446 0.930986 -1.01895 0.886444 -0.221147
341 6.44458 8.93477 3.28703 -1.48155 0.489966 -0.218731
84 2.78558 5.54909 0.983425 -2.49349 -0.817763 1.10401
167 5.24055 6.56994 0.783206 -1.0546 1.13781 0.425107
245 7.59047 10.3364 3.72818 0.18379 1.36213 -1.81075
574 6.62068 7.04794 0.599935 -0.193576 -0.302637 0.0802629
621 6.1628 5.68356 0.594296 -0.262299 0.415156 1.55816
635 7.11869 6.14971 0.8408 -0.152064 0.120707 -1.38894
820 5.81888 6.23492 1.57975 1.23499 1.58584 1.17487
255 6.50997 6.93366 2.17117 -2.85578 0.506868 1.28942
61 9.29763 10.2631 3.6089 1.23694 0.071121 4.04028
186 7.6889 7.39353 0.779897 0.529173 -0.578058 0.997591
398 3.81788 5.89816 0.341308 1.18823 -2.02878 -1.06741
502 8.37478 6.53086 0.774545 3.56435 1.82409 0.191024
732 8.5904 5.75428 2.13998 -0.843081 0.769377 -1.11822
450 10.4982 6.56286 1.83874 0.143724 -2.07009 0.315449
471 9.49835 5.91398 1.36633 -0.493851 0.34878 1.31193
640 1.46529 8.70355 5.31912 1.21959 -2.77231 0.131015
695 0.958737 7.32283 0.337979 0.938179 -1.27457 -0.746569
824 0.183532 8.33032 2.32207 -0.601767 -0.0769037 0.419628
15 0.773589 7.78029 1.32715 -0.239316 0.900767 1.95149
1 0.359457 8.95069 1.3999 -2.104 0.426074 -0.188597
751 2.52638 8.95001 2.10754 -0.809114 0.15224 0.753581
289 1.93758 8.32831 0.483966 0.886536 0.995578 1.30542
469 4.64179 7.43344 0.317932 0.48687 -0.283661 0.0732184
362 3.97031 9.25708 0.757432 1.70944 -0.0388922 -1.99797
48 2.94815 8.90332 0.509071 -0.430644 -0.638687 -0.827625
794 4.03631 8.3655 0.0335786 0.216451 -0.0360316 -0.570569
823 3.90719 7.43257 1.17145 0.98942 1.61567 -2.13702
714 5.51497 8.40273 1.79389 -1.00412 -0.469527 0.166919
486 4.77178 8.36588 0.940512 0.404565 0.372065 -0.419047
333 5.68939 7.80647 0.717094 -0.512322 -0.963229 -0.0565978
831 7.07398 8.15123 1.04685 0.423911 2.31132 0.942838
654 6.63532 9.09197 1.26047 -1.1023 1.63755 0.00969236
644 10.3396 9.94478 3.91289 1.78194 -0.523386 1.52965
814 8.24302 8.15642 0.813351 1.05269 1.53811 -0.384498
94 10.1833 8.10208 0.477623 -0.25678 1.35702 0.327016
746 8.59006 7.29887 0.208647 -1.41797 -1.17618 0.663195
672 8.73056 7.54696 1.75378 -1.02541 -1.43252 1.58192
81 10.6752 7.23155 0.851253 -0.15736 -0.55474 1.99718
235 6.23437 9.93516 3.67291 -2.06085 -1.18597 -1.39691
158 9.90989 7.65747 1.45103 -1.26091 1.71566 -0.695697
822 1.57008 8.92061 1.33425 -1.16054 -2.79043 0.149195
466 0.895796 9.50912 0.0859017 0.714286 -0.216393 -0.602157
377 1.1399 9.98965 1.9489 0.402248 -1.26948 1.93885
28 3.3363 10.1443 1.20439 0.573916 -0.445929 0.997328
369 2.53045 9.50437 1.32341 0.355546 -0.768365 1.37668
788 2.0342 10.4113 1.37147 1.18471 1.32493 -1.62834
340 1.53939 9.88612 0.70702 1.21128 -1.13129 -2.56982
838 4.70201 9.82571 0.280355 1.65275 -1.02456 0.00119791
557 3.75989 7.90369 5.21258 -0.85413 0.395807 -0.971029
199 3.37241 9.51063 1.9953 -0.177119 0.853783 -0.340953
465 8.79171 9.392 3.98125 -0.57912 0.0386768 -3.07926
366 5.77453 9.16365 0.421276 -0.8287 0.304069 -0.187749
224 6.63396 10.3353 2.20815 -2.15146 1.06412 1.51723
601 5.43635 10.6591 4.70518 0.240794 -1.68252 -0.412122
382 8.01409 9.17873 1.14717 2.68187 -0.138471 2.45255
334 6.08427 10.4501 0.571416 -1.36787 -0.658134 0.789128
829 7.28916 10.3021 0.852106 -1.43971 -2.03838 2.07775
358 8.87396 10.155 0.730122 0.202878 2.83683 0.332546
373 9.35669 9.75109 1.70214 1.03 1.62907 0.544385
135 2.11091 6.12861 2.48412 -2.36743 0.174449 0.156909
521 10.0397 9.31538 1.10258 0.171396 -1.24703 0.887207
791 0.0568866 8.86626 0.452088 0.0110897 0.0351513 -0.757613
554 9.83721 10.1207 0.518603 -2.50055 -1.0442 -0.540872
745 1.50449 6.91955 2.8554 1.31426 -1.03448 -0.369742
781 0.376519 7.48641 3.28419 0.402942 -0.0901159 2.79663
859 6.97676 9.65532 0.13834 -1.11264 -0.751803 0.367921
725 2.39453 6.65908 3.45503 0.0974285 -0.185303 2.5629
129 1.22755 7.80634 2.42432 -1.41469 1.49045 0.276075
463 2.09288 6.38168 1.09323 -1.04346 0.102231 -0.750791
436 2.88344 5.77469 3.52038 -0.0149554 0.954074 0.767518
65 3.26413 6.86943 1.88813 -0.156083 2.59382 0.875104
568 3.56711 6.79768 2.85751 0.419477 -0.265635 0.410162
476 4.52213 6.34319 3.19063 0.157981 1.45753 1.23988
452 4.9823 6.9325 2.31723 -0.574909 0.339632 -1.43959
688 4.47176 6.13851 1.68555 0.89646 -0.881931 0.203897
132 6.54674 6.3034 2.96506 -2.08089 1.37454 0.171653
101 5.49873 6.59777 3.79349 0.110299 -2.00751 0.110319
402 5.64772 5.48808 2.30478 1.14203 -1.88426 -0.1429
501 7.19656 7.17376 3.49139 -0.231225 1.06114 1.1493
818 0.841767 8.31095 0.310184 1.32248 1.86352 -1.51726
863 7.40076 5.59972 3.06574 1.33859 -1.05921 -0.10484
296 7.51887 6.06974 2.03944 -1.58043 -0.257017 -0.00448694
479 9.46025 5.92 2.88346 0.0468468 0.596588 -0.62115
440 8.68806 6.6997 2.64829 -0.0210235 -1.02009 -1.14749
546 10.1551 6.76863 3.13683 1.13064 0.317046 -0.992186
623 9.48024 6.86611 2.14117 1.63067 0.997371 0.335648
580 9.58224 9.79928 4.75582 -0.39266 2.76674 1.38199
119 10.4281 5.39279 1.55187 -2.77756 -1.12398 -1.75091
192 0.843657 8.50724 3.27514 0.530223 2.05178 0.915385
570 10.1036 9.33215 2.24018 2.4031 1.06492 -2.19109
298 10.0001 7.70332 3.68861 -0.347745 0.307974 0.916593
682 1.70221 7.54848 3.60755 1.45088 1.35596 2.55696
200 2.8844 7.64077 0.634931 -1.26223 0.512513 -2.49806
484 2.52021 7.68265 2.3916 0.415793 -0.191862 0.249158
90 3.15986 9.002 3.82568 -0.648043 -1.44214 -0.553162
636 4.29674 8.40286 4.30425 0.287415 1.32992 1.44118
800 3.26442 8.43928 1.29329 -0.512473 -1.48946 -0.121939
378 4.06302 7.76778 3.20968 -0.133954 -0.435521 1.26834
107 5.3657 8.25376 4.21469 0.434269 1.07804 1.14375
643 5.38848 8.72414 3.20617 -1.14706 2.61406 0.0205353
423 5.81796 7.40916 1.56513 0.607876 -1.05336 -0.794315