ITEM: TIMESTEP
51960
ITEM: NUMBER OF ATOMS
864
ITEM: BOX BOUNDS pp pp pp
0.0000000000000000e+00 1.0726842421158810e+01
0.0000000000000000e+00 1.0726842421158810e+01
0.0000000000000000e+00 1.0726842421158810e+01
ITEM: ATOMS id x y z vx vy vz
660 0.959876 0.986189 1.04768 0.417187 0.394837 2.93456
310 10.5071 1.33918 0.11481 -0.46409 1.11291 -0.264852
812 1.12048 1.46448 0.117403 1.04834 2.18933 -3.20474
822 1.68895 0.6823 0.0562955 -0.334108 -1.50574 -0.422611
791 2.09894 1.3058 1.22144 -1.30487 0.14361 0.0566156
443 3.47437 3.17765 1.43977 2.63434 -0.596694 0.182897
369 2.784 0.41571 1.7719 2.21489 0.074047 1.29557
825 3.05863 0.50181 0.706791 -2.89277 -1.96918 -0.0591149
652 8.06241 5.16764 0.832072 1.71026 -0.0995956 1.6112
783 5.98581 2.70455 0.265184 1.031 1.56559 1.29701
284 4.66178 1.25405 0.730392 0.828723 0.521549 0.644913
366 5.27206 0.760658 1.40064 -1.24559 1.85176 1.06727
460 4.34604 1.43454 1.83345 -0.454171 -1.17273 -1.10753
383 6.37139 1.46354 1.83435 0.582643 -1.45917 -1.71626
189 5.99019 1.23729 0.814729 0.0692709 -1.09328 2.08137
37 7.46666 1.15717 2.11117 1.37984 2.09419 0.364337
684 7.09889 0.954606 1.283 -2.4066 0.165352 1.28693
690 8.95311 2.34575 0.541439 -1.94007 -2.98429 0.792305
174 9.14301 0.745827 0.534391 1.17516 -0.66031 1.24428
505 0.0999212 3.10192 0.655929 0.235376 -2.77103 1.96231
716 10.0898 2.23247 0.643195 -0.752641 -0.551449 -1.10607
14 10.1953 1.04248 1.04377 -1.41061 1.7193 -1.42556
42 9.63901 0.139902 1.36304 -0.280666 -1.86996 1.85476
758 10.6042 0.155487 0.666734 -0.535279 -0.568058 1.33862
686 0.546303 2.2803 0.269538 0.814435 0.119449 -1.55039
862 5.16746 4.66675 0.61533 0.789386 -0.071779 -1.14509
864 3.45357 2.70074 2.29638 -0.251511 -0.544821 0.0698303
98 2.24017 2.31671 1.24894 2.0453 0.784334 -0.75212
302 6.89417 0.182516 4.92821 -0.284021 -2.29782 -0.349124
403 3.20985 1.42395 1.01706 -0.421882 -0.544637 0.44612
215 4.38737 2.35323 1.19288 1.13385 -0.663469 1.63228
810 2.79113 4.02884 1.16081 1.35101 1.18461 -0.489458
835 5.40937 2.10309 0.871351 -2.01094 -0.488519 2.21102
296 6.48643 2.56977 1.25637 0.526238 0.40431 2.46836
223 4.94381 2.63369 0.136672 -1.44362 -2.62796 -1.48013
859 9.64631 0.0194903 2.52893 -1.36615 -1.34646 -2.43038
438 8.10605 1.48265 0.0389176 1.38894 -0.489224 -0.34907
432 7.5697 2.64242 0.745333 1.15903 1.36776 -0.837835
120 7.51926 1.9056 1.36906 -1.762 1.1679 0.155963
621 8.35678 3.20524 0.443044 0.524274 -0.213277 -1.02731
760 8.79782 2.99321 1.41413 -2.18505 -0.681041 -0.0795216
388 10.4033 4.01309 0.641187 -0.836234 0.55397 -0.000325976
129 1.24251 5.29496 5.03881 -0.790136 -2.27745 -0.705681
780 9.53597 3.20557 0.785428 0.272233 1.0852 0.355893
553 1.47634 3.81993 0.356363 -1.24095 1.40932 2.87273
464 0.406266 3.87497 1.38643 -0.20953 0.782031 -1.91252
156 0.194607 4.87786 1.331 0.51767 0.70946 0.356287
488 8.09448 0.345482 0.584849 -0.8931 1.17154 0.323989
416 2.72886 5.25823 2.91136 0.96683 0.178556 1.45335
62 2.61489 3.12444 0.687903 1.28071 0.140901 -0.873318
119 2.07838 4.89481 1.53962 -1.75754 0.775874 1.12816
305 9.99462 4.08766 4.46939 1.18385 -0.482676 -1.27982
141 1.39513 2.87439 0.89225 0.821504 -1.2966 -0.534014
2 3.75639 4.38222 0.611553 0.157776 1.67375 1.00212
23 3.88902 3.57521 2.43311 -0.432938 -0.381232 1.66731
66 3.90856 3.34105 0.355145 1.04705 0.77065 -0.622852
536 0.929465 0.460006 3.93228 -1.55074 -0.747397 -0.560659
820 4.64284 3.3354 1.13017 -1.25561 2.49298 0.0930795
90 5.09779 3.60001 2.19749 -0.374285 0.112318 1.58744
93 5.49741 4.16515 1.46514 -1.14856 0.29992 0.0644557
675 5.11922 0.144062 3.92298 1.22826 -0.215686 0.67167
635 4.98144 3.94724 0.0225 -0.846071 1.83852 0.131574
529 6.62091 4.12877 1.17312 -0.300272 -2.87718 -1.05577
842 6.09243 4.85098 0.891421 1.81365 1.2008 0.141925
439 5.88341 3.60909 0.687505 -2.19394 -1.2647 -0.363211
712 7.09241 4.94686 2.34869 -0.294935 0.732424 1.65292
212 7.90941 4.0031 1.5771 -0.0918102 -0.150867 -1.9366
106 8.75441 4.63631 1.52794 -0.462859 0.306899 -0.262561
599 9.49548 4.64824 0.540132 -0.844693 -0.54526 0.828407
809 9.81338 4.66435 1.62247 1.5222 0.889257 2.42904
581 0.88689 0.522936 2.71772 -0.18311 -1.73313 -0.426082
578 1.79817 0.85107 2.3282 1.32953 -0.523838 -0.156938
858 0.467477 0.429234 1.71847 -0.463622 -1.031 1.07501
294 0.65467 5.34651 0.506257 -0.186594 0.816055 -0.744706
606 2.65924 0.621034 2.91047 1.19644 0.730211 -0.888894
564 1.66461 1.53298 3.11344 0.739109 1.25365 -1.16636
643 2.58794 0.812733 5.01613 0.00287332 -2.66367 2.57875
424 3.58902 0.694589 2.35395 -0.250135 -1.54516 1.00675
163 4.96411 0.603486 2.91951 -1.29465 0.274445 -0.641485
144 2.69853 1.41383 2.22213 -0.151381 0.30028 1.20917
391 3.8864 1.94801 2.88302 -0.949284 -0.810578 1.58594
681 5.99237 0.450131 2.34409 0.360254 0.706419 -1.10638
414 6.0091 1.03808 3.62356 1.47013 2.51105 0.114532
629 6.83087 0.758204 2.9374 -1.6448 1.12967 -0.66262
231 4.86631 1.26148 3.6711 0.0446587 -0.903724 -0.875021
190 10.6927 3.71254 3.52537 -0.566444 -0.83822 -1.36619
158 3.19334 4.95514 1.26847 2.03442 1.61893 -0.220095
542 7.85691 0.974701 3.06815 0.526174 -0.0266264 1.87491
240 7.09498 2.25799 4.23246 -0.252385 1.64942 -1.64841
224 7.26786 1.06625 4.28183 -0.212862 -1.10346 -1.18357
293 8.2563 0.907572 1.40241 0.208549 -0.844967 1.27426
373 0.293367 0.716315 5.15437 0.168571 1.32909 -0.339713
522 9.28418 1.81771 1.3626 -0.229343 2.47673 0.605967
180 9.77238 1.05934 2.05157 -2.12783 -0.682949 -0.0399405
175 9.73911 2.70172 1.70168 -1.02731 -0.0584282 -0.743117
151 9.28268 2.27411 2.98166 2.11028 -0.344386 0.663535
603 1.23741 1.68417 2.0356 1.9054 -0.144627 -0.287482
363 0.32649 1.81949 1.24013 -0.0576884 -0.509716 -2.05562
428 1.24089 2.6911 1.91389 0.272762 0.387694 -0.25644
183 2.34926 3.28402 1.73385 -1.02578 -1.69496 1.98345
490 1.94158 2.33656 2.51042 2.59685 -0.641707 -0.640676
828 2.90589 2.33903 4.31585 1.32017 0.30573 -0.346845
779 2.92813 1.80799 3.40362 -1.78395 1.4189 2.08694
591 3.87584 2.06351 3.9198 -2.64363 3.12567 1.18772
392 5.14929 2.74188 3.98258 -0.415736 -1.94361 -0.0666206
184 4.75251 2.49369 2.78523 -0.970202 -1.3735 0.865295
733 3.56941 2.93181 3.55813 -0.651785 -0.727666 1.13217
770 5.52504 2.73924 1.81458 0.0856199 -1.18282 -2.65031
713 5.54718 1.49709 2.75437 -0.0370076 -1.66994 0.3255
482 6.34572 3.46466 3.00648 1.57631 -2.59206 1.11991
607 6.59383 2.49014 2.29333 -0.0264504 0.849135 -0.664942
614 6.59175 2.01233 3.38714 0.421097 0.789285 -1.90426
394 7.63248 2.1405 2.35467 0.874993 0.659886 -1.03121
179 5.70461 2.46522 3.19372 1.97395 1.52838 1.14937
527 7.48678 3.43973 2.72552 -0.753934 1.22209 -3.17787
371 8.52373 2.91826 2.56695 -0.661807 -0.141997 0.212144
755 8.61301 1.66836 2.30426 -0.649405 -1.02283 -1.50561
846 8.40918 3.70375 3.34575 -0.338674 -1.83685 1.90019
512 10.5203 1.73669 2.53599 -1.51202 -0.281747 -2.01456
137 0.156458 2.67975 1.97624 0.955574 0.195978 -0.80869
611 0.436047 3.58527 2.53452 -0.565566 0.00275042 -1.39733
124 1.04207 3.18524 3.6963 1.88437 0.6135 -0.551748
78 1.94971 0.0879189 1.16114 1.21625 0.178174 -0.544512
24 1.18987 4.26907 1.99961 0.608999 -2.32476 -1.78744
283 1.27508 4.95926 2.95358 0.553137 0.793965 0.497486
523 1.32984 3.78108 2.99312 2.28099 -0.236672 0.581176
165 2.54667 4.19317 2.50844 0.516077 -0.489977 -0.141674
467 3.34813 4.58334 3.31916 1.12573 -0.718495 0.474264
484 2.09418 4.62351 3.69045 0.248582 1.06146 1.16253
3 4.46721 4.49606 1.47587 0.795932 -1.35433 0.26011
530 0.0082181 4.08895 5.30009 -0.8396 -0.381312 2.99494
402 4.21385 4.11645 3.24414 -1.15309 0.994497 0.791149
65 4.098 5.07944 3.95769 2.08142 1.67857 -2.09893
407 9.44891 4.47221 3.43772 -0.000256035 1.43863 -1.54979
400 5.46152 3.9173 4.14381 0.820685 -0.778654 -1.39504
766 5.77323 4.20678 2.7632 0.829927 1.04341 1.76388
405 1.96523 2.52318 0.187221 1.56633 -0.0924359 -0.257116
807 6.19617 4.80838 1.99295 -1.55548 -0.0511718 1.85766
619 6.2795 3.45105 1.80273 -0.405453 0.685561 -0.604964
1 0.574443 0.650926 0.0151089 -0.692431 0.295948 -0.923242
678 9.07029 5.02854 2.42247 0.502156 -2.04329 0.354777
135 4.40703 5.15363 2.77518 -2.0114 -2.04524 -0.651667
351 10.1827 3.46591 2.10033 0.88809 2.15148 1.53506
801 6.01005 0.1401 1.07743 -1.91609 0.780689 1.00922
354 8.95975 3.77504 2.0714 -0.754533 -0.944415 -0.65009
479 10.6381 4.40712 2.22254 1.31181 -2.75719 0.867159
168 0.506958 1.4613 3.61524 -2.84869 -0.0315873 -1.23164
7 6.91576 1.91066 0.312039 1.28491 -1.8953 0.833344
142 2.02659 1.61828 4.15703 0.740785 -0.0505311 -2.60666
480 1.32649 0.445264 5.01173 -1.30341 1.24288 -1.13331
449 1.68654 0.262568 3.29776 -0.546591 -1.1599 -0.0489997
435 3.50689 1.13144 3.80107 -0.995865 -0.464203 2.24232
563 5.33369 5.33037 1.97122 0.0350604 -0.867501 -0.0992511
166 5.74838 0.398376 0.169203 1.55085 -0.249156 0.832097
331 4.40743 0.850008 4.60042 -2.12757 3.38068 -0.0826062
336 9.42679 2.93949 4.23363 0.0984836 -2.21292 1.26405
774 5.52629 0.0641494 5.26169 -0.291655 0.0170516 0.850719
571 8.90546 4.63221 4.55172 0.678065 1.3027 -1.41681
753 5.9681 0.808402 4.58711 0.455542 2.0352 -0.836687
601 7.9384 0.770673 5.00788 -0.516663 0.770343 1.25152
242 7.71204 4.22854 5.01592 -0.700375 -0.399231 -0.913774
494 9.26007 0.0819519 4.25968 -0.813425 1.91105 0.402858
222 8.18463 0.580601 4.04391 1.485 -1.19051 0.682245
209 7.8894 1.94463 3.39894 -0.800022 1.60009 0.192631
317 9.62087 5.17879 5.05578 -2.14603 -1.38994 0.737622
504 7.04286 1.37497 5.26593 0.0885767 -0.714783 -1.69774
172 10.304 1.19513 4.40379 -0.697847 -0.00805527 -1.12237
228 10.3064 1.95018 3.59172 0.192631 1.75711 -1.6339
21 9.82556 0.984726 3.35041 -0.777093 0.875756 -1.51983
192 10.5227 0.229501 3.80611 1.33823 0.694993 0.128884
427 2.14528 2.81469 3.6008 0.00323623 -1.55997 -0.866554
834 10.0051 3.22253 3.04379 -0.588712 1.17432 -2.57673
130 1.32883 1.99744 4.82955 1.0179 0.688551 1.04884
657 0.635361 2.26644 2.94486 -0.941395 1.92363 -2.93309
315 2.66024 3.49529 4.19354 1.03592 -1.46542 -1.84266
301 3.33199 3.15932 4.88812 0.195874 1.17109 -0.222189
605 4.20066 3.03803 4.37389 -2.22763 0.935577 0.538516
278 4.65059 1.84843 4.83242 0.642314 1.19995 1.46709
538 5.70187 2.89243 5.20423 2.38949 0.699128 0.419362
433 5.70241 1.87707 4.10624 0.693486 -0.194963 -0.201454
680 6.03692 1.77951 5.14366 1.57255 -1.02375 0.0154866
34 6.21963 2.80176 4.22562 -0.949313 1.61229 0.531029
356 6.22624 5.15144 5.29432 -2.08309 1.29338 -0.718202
85 7.4862 3.37301 3.79877 1.63508 1.69229 1.78253
757 8.17033 1.6327 4.4752 -0.860749 -0.15948 -0.86614
350 8.55397 2.76245 3.74367 0.248224 -0.5183 -0.132402
253 8.36259 3.41699 4.67983 0.0556221 1.0887 -1.11947
349 6.8247 0.632253 0.403493 -0.878376 -0.929311 -1.21274
658 9.80705 2.0163 4.67113 -0.104341 -0.670043 0.168497
149 8.87149 1.39204 3.76312 -2.36844 -0.0935744 -4.66136
453 0.34077 2.39409 4.26512 0.303655 -0.276279 -0.706975
519 2.75351 4.12939 5.03808 1.72973 1.11978 0.682232
650 0.814669 4.30979 3.87944 0.127268 0.123423 -0.466786
483 10.3895 5.18793 3.63143 -0.491049 -0.0482688 0.0197889
393 0.777822 3.20258 4.74663 0.168398 -0.277654 -0.153795
12 1.72214 4.10579 4.38525 0.375284 0.515607 -1.09857
314 2.20079 5.35425 4.7228 -0.142652 1.2206 0.674073
476 3.36792 5.20711 4.8048 1.33309 0.938699 -0.691055
297 4.82496 4.23868 4.8628 -0.904266 0.972096 0.851876
575 3.81696 4.00886 4.14071 1.99455 2.16472 -2.20499
288 5.46292 5.08893 4.42254 0.456885 0.269783 0.0933302
826 8.50855 4.21733 0.703569 -0.57136 -1.34874 0.0594691
281 10.413 5.07503 0.100784 -0.15015 2.08356 -1.41175
219 10.5355 0.325168 2.79877 0.610825 2.12215 -0.511662
429 6.28236 4.76822 3.69483 0.209645 -0.991085 -0.220033
501 6.60616 3.64897 4.05112 1.33079 -0.0084909 -1.21447
803 7.23052 4.45105 3.55372 1.03612 1.34265 2.1897
847 1.95695 4.72577 0.501111 2.63438 -0.415325 -0.0259485
576 7.37003 3.66871 0.643145 -0.566308 0.226709 0.621111
498 7.2679 5.08908 4.87309 -0.278828 -1.35915 0.242068
54 9.24855 3.76382 5.17232 -1.07937 1.36747 1.64002
423 8.06942 5.08365 3.29654 0.809274 1.40951 -0.337574
6 7.07965 5.1857 1.17537 -1.67594 -0.216302 0.470006
782 7.29647 0.055316 3.60364 0.346153 0.578626 -1.33658
550 7.57047 2.61429 4.9514 1.60399 1.35812 1.99512
796 1.92317 3.26157 4.99933 1.07334 -0.47382 0.193027
617 9.24384 1.20099 4.78684 -0.609552 -1.22348 0.983557
80 3.55414 2.41485 0.660761 -0.0591441 -1.8984 0.0504927
262 0.291329 0.617341 6.70646 -1.84299 -0.0387447 1.4226
243 0.951196 1.82188 6.16527 1.34051 0.0204769 -0.0524565
727 5.08754 2.20713 5.65108 1.48659 -0.671543 1.83989
759 1.95086 1.3967 6.15312 -1.44096 -1.67672 -0.825747
217 6.56187 5.29017 7.51225 0.226114 -0.0249552 -0.13637
140 5.13176 0.863367 5.72528 1.29288 -0.0482025 0.547625
152 2.74533 1.84634 10.3614 1.90662 1.28465 0.45575
664 4.07935 0.736285 6.3453 -0.0424747 2.57878 2.58704
375 8.5173 5.31265 5.37686 1.17534 1.75046 -0.521015
524 4.99335 0.781476 6.97923 0.679947 0.823938 0.261496
18 4.52472 1.88651 7.15446 -0.314379 0.983304 3.43585
651 6.07556 0.209654 6.44444 0.805798 -1.06928 -0.282645
295 4.88936 5.16752 9.89625 -1.13857 0.675852 1.15822
30 8.0676 1.01983 6.12051 2.06039 -1.56218 0.63863
445 7.00276 0.843721 6.62734 -1.38753 -1.23904 2.52012
592 8.80685 4.90566 10.53 0.884139 0.590652 0.265067
446 8.53658 1.66699 6.99937 -1.57128 0.254871 2.21357
343 9.07111 0.332256 5.41219 0.725527 -1.02433 0.309775
309 8.11603 0.836703 7.75484 0.974849 0.111502 1.39348
762 10.1242 0.107805 8.85725 0.912603 -1.10802 -0.781393
588 10.1289 0.83662 5.85271 1.0968 -0.61225 -0.50248
160 9.65237 1.92433 6.71462 -0.328504 -0.886034 0.388434
594 0.0238227 1.78978 5.4628 -1.35117 0.496554 0.619608
275 0.405964 2.76456 5.6849 0.568768 -0.440711 1.03382
16 1.28074 2.82983 6.76 0.00366754 -0.365782 1.37442
555 2.9515 3.34342 6.89471 -0.16663 -0.520601 -0.99534
513 2.50516 2.30843 6.64777 -0.482373 0.424336 1.35354
286 1.66457 3.8678 6.26298 1.27395 0.543289 0.475227
687 2.62249 3.46546 5.88073 -0.376636 2.74732 -0.702854
793 3.19479 1.65369 6.2972 -1.93101 0.191851 0.202524
789 3.66909 2.50329 6.81485 0.560525 -0.702067 -2.39262
290 3.45652 4.46611 5.68258 -1.63157 -0.507474 -2.05349
518 4.77202 2.72899 6.40064 0.663541 0.298753 1.4073
673 4.98045 3.47381 7.56546 -0.320217 -2.18309 -0.788565
844 9.87872 5.08999 6.30592 2.12882 0.50973 -0.970848
225 5.96036 1.23377 6.74436 -0.421672 0.39102 0.72676
837 4.64184 3.17547 5.45859 -0.118023 -0.666604 -0.00136432
426 6.42384 2.48853 8.01838 1.56181 -1.80313 -1.04488
622 5.58879 2.39961 7.12996 -1.64385 -0.837988 0.510115
827 8.24629 5.25768 7.72567 1.1769 1.36013 0.287288
44 6.25776 1.94965 6.11719 -2.56349 -2.03562 -0.879973
404 6.58218 2.55502 6.98507 -0.592002 0.127416 0.397918
40 6.88133 3.25892 5.59816 1.18833 -1.04701 -1.07584
92 8.01354 3.85962 6.02966 0.718606 -0.088383 0.97586
244 7.56739 2.24574 6.08042 0.405468 1.09614 -1.40036
718 8.44875 2.4023 7.83842 -0.179744 -1.82901 -0.0809368
112 7.45383 4.6809 10.6582 -1.62176 0.274725 1.25491
587 10.3346 2.49986 6.38344 -1.40697 0.742789 0.770841
19 8.65666 2.6379 6.48892 1.69333 -1.20837 1.84954
585 9.70287 4.35238 10.1013 0.39046 0.158439 -1.27247
665 9.62798 3.28716 6.54149 0.984552 -1.44989 -0.579203
696 9.54502 1.95376 5.67227 -2.69163 0.542358 0.100812
491 1.08186 3.97687 5.4762 -0.694173 0.280789 0.16778
211 8.62299 2.83232 5.46493 -1.58139 1.03728 1.74707
569 2.07076 4.64241 7.32873 -0.133249 0.580374 0.601477
347 2.81174 4.47283 6.54292 1.16494 0.509775 0.692616
647 1.857 4.58598 5.55566 -0.492731 0.411775 -0.0469056
730 3.76499 2.47847 10.089 -1.88082 -0.620535 0.934536
157 5.88883 3.10027 6.27653 -0.0857469 2.21071 2.47898
398 4.37828 4.76737 6.01316 0.545158 0.0672322 -0.410684
860 10.3231 3.64278 10.4812 -0.38481 -2.58709 0.265543
612 4.96276 3.79974 6.26964 -0.556114 -1.93444 2.31554
685 9.87039 0.419252 10.6475 0.72684 -1.36298 1.65946
318 5.51555 5.03221 7.1332 -0.194487 2.27263 -2.04997
711 7.41971 3.30678 6.84217 3.35374 -0.0446266 -1.6597
634 6.06677 4.5429 6.4218 -0.828981 -0.584465 0.331701
56 7.07889 4.41235 5.73632 0.266787 -1.44769 1.26185
709 3.68651 0.851538 10.6364 1.52936 0.0746993 -0.2448
413 8.88648 4.6244 6.27364 -1.50737 0.0534847 -1.85704
86 9.17537 1.52756 8.95056 -0.44499 1.60658 1.17734
719 9.40308 4.40959 7.10155 0.248919 0.191091 1.67559
748 10.4829 4.06897 6.49877 -0.26559 -1.04933 -0.0796625
792 1.11432 0.752915 8.03415 -0.343771 -0.147744 1.94042
596 1.67055 1.64141 7.26041 0.0820839 0.785582 1.1349
499 0.210189 2.03212 8.19139 0.630593 2.33848 -1.09188
797 0.949986 0.733264 6.00284 0.265436 1.13062 -0.127245
372 1.7985 0.488052 7.33499 -0.869755 1.07622 0.809131
87 2.73493 0.825082 7.10377 1.00803 0.219744 -1.95482
29 5.32289 1.66484 10.5616 -0.867671 -2.27542 -3.97549
691 3.05399 1.79591 7.37508 0.815879 0.584629 0.835735
269 2.03896 1.87959 8.32751 1.31098 -0.34475 -1.42168
258 4.05125 0.87839 8.68747 1.97934 -0.0121914 0.60945
566 7.93494 4.52158 9.78646 -2.07898 -0.304816 1.32242
856 6.32984 0.725009 5.559 -1.98148 -1.43936 0.88755
210 5.65781 1.63954 7.69985 2.15327 -0.291003 0.135686
663 4.6268 0.396335 7.93271 3.23388 1.69709 0.35102
191 7.05628 0.660845 7.9696 0.466748 1.73234 0.48408
197 0.135558 0.57882 7.72694 -0.698532 -0.376197 -2.44779
182 6.68707 1.53547 7.71868 1.73819 -1.0879 0.451621
722 7.66144 1.90587 7.50817 -1.24422 -0.0372046 0.274624
117 8.52937 0.640415 9.00361 -1.67188 1.65009 3.56025
72 9.10774 0.424147 8.06055 -2.19086 0.775904 1.3793
154 9.07165 0.771415 6.64435 -2.95517 0.396541 -0.216719
352 10.0638 1.23245 8.2907 2.52909 0.323987 -0.423869
653 10.3067 1.20315 7.07698 0.696232 -1.54118 -2.1005
556 0.507533 3.04136 7.77175 -0.958895 1.09654 0.987778
88 0.265197 3.12569 6.77824 -1.43062 0.0179604 0.489871
509 0.531245 3.446 9.08224 0.112051 -1.13538 -1.56888
103 1.39693 2.63917 8.02348 1.5271 0.249407 0.146031
250 1.17613 3.67334 7.33175 -1.54532 0.821119 0.6563
327 2.75843 2.74747 7.73143 0.405152 0.831969 -0.780957
420 3.67263 3.37211 7.91235 -0.870621 -0.843459 0.75506
444 3.8241 0.90943 7.42606 -1.96312 -1.94847 -0.0218039
126 3.91184 2.30108 7.92298 -0.265774 -0.410764 -0.915827
328 3.03482 1.21803 8.15861 -1.75223 -1.36183 0.117818
676 5.03223 2.43619 8.15114 1.87535 -0.434751 -0.983479
216 5.17907 3.66127 8.52721 -1.15426 -0.44381 -1.07571
266 5.00764 1.21637 8.74679 0.396226 -0.97449 -0.793332
458 6.8852 1.79566 8.93964 3.29001 -0.702558 1.67587
508 7.57538 2.46358 8.333 -0.118347 1.54229 1.07625
203 6.37424 3.58881 8.42213 -0.653358 -0.0460466 1.44737
701 9.19833 1.60964 7.78491 -0.844691 1.13483 -1.07068
291 8.19985 1.65418 8.59863 0.918225 0.752179 1.27485
346 9.66921 2.34471 8.47512 1.72 0.137513 0.410438
5 7.90119 3.46088 8.00161 -0.160048 -0.25801 -0.719351
161 9.48231 2.77759 7.47958 -0.174946 0.0527888 -3.92276
77 10.1971 2.06695 7.49317 -1.23055 -0.0558653 0.886356
567 10.2465 3.65388 7.34788 -0.660774 -0.309272 0.956746
364 1.12641 4.63494 7.62384 2.29908 0.228201 -1.02799
46 10.3713 0.792599 9.76814 -1.86401 2.3661 -1.58828
849 0.76665 4.5788 6.35806 1.42506 -0.143207 -0.922737
380 1.25761 3.78751 8.41295 -1.11849 -3.01208 -1.50292
406 0.122912 4.08419 8.16729 0.239062 0.0140681 0.00757521
395 0.744029 4.58189 8.86077 -0.780768 0.706335 -0.162474
799 2.10127 3.51944 7.75503 -0.54419 -2.34675 -1.29864
150 2.69651 5.25118 5.76194 0.663048 1.07027 0.120468
127 2.07589 4.65994 8.45515 -0.815297 1.49934 -0.607491
515 6.2326 4.64637 8.39781 1.5829 -1.96807 0.500253
33 3.28346 3.65218 8.77407 0.147641 1.1575 -0.202291
579 4.32096 4.17436 8.11673 -0.0381591 0.844439 -0.633086
560 6.1904 3.94068 5.47874 0.293687 -0.460092 -0.498381
833 2.96551 4.27977 8.01229 0.41452 0.606477 0.577542
101 6.21704 4.02052 7.30623 0.203514 0.131102 1.75174
257 3.97379 3.45993 6.55945 -1.45151 -0.520187 -2.60935
593 4.9641 4.9583 8.64884 -0.431524 0.699734 2.50603
699 7.19011 4.52806 7.72745 -2.31268 -2.17697 -0.483594
41 7.32272 5.06217 6.83341 -0.872464 0.236637 -0.718844
10 6.56162 4.87909 9.33842 3.36933 2.74442 -0.190428
697 8.94069 4.08602 9.26611 0.560756 0.927438 0.915216
545 8.67485 3.42887 7.11126 0.584306 1.40847 -0.0884149
261 6.05709 0.379634 7.71404 0.402851 0.00929345 0.531774
715 7.54736 5.16365 8.87865 -3.33807 -1.89636 0.467357
409 7.80693 3.91538 8.97762 -0.824542 -1.64065 -0.172364
353 8.53774 4.17951 8.15567 -0.756384 -2.15105 2.65558
384 9.55243 4.05562 8.25208 -0.147869 -1.51455 0.252955
839 9.80645 4.69915 9.03471 -0.640132 0.530666 2.14806
342 1.28811 1.61716 8.85567 0.596846 -0.718273 1.35241
795 0.502019 0.882601 8.95143 0.294732 2.34938 -0.132987
133 1.75593 1.09738 9.87049 -0.654884 -1.02114 0.760933
723 6.3814 0.0689096 9.92478 -0.884178 -1.97451 -2.14549
662 9.1223 3.8867 10.7151 -1.05197 0.139026 -0.529234
339 1.66186 0.204936 8.90324 -0.904277 0.0892033 -0.701345
461 1.77567 2.44719 5.67999 -1.60801 2.578 -0.182019
345 0.601139 4.00761 10.6393 0.476598 -0.120082 -0.986153
22 8.65482 1.78288 5.73819 1.28125 -2.23669 0.323743
64 4.77349 0.735202 10.5057 -1.49064 -1.57831 -1.57844
717 6.40483 1.16624 10.3188 0.959765 -0.345138 -0.785784
773 5.02514 0.159558 9.59661 0.337452 -0.0950018 1.35331
26 5.91072 0.688162 9.12768 0.692034 -0.455267 -0.208704
274 10.1517 2.98394 5.55773 -1.3256 0.554239 0.771705
45 7.38717 0.765875 10.0854 0.900385 -1.58619 -0.191706
401 10.4281 3.81384 9.48744 -0.839122 1.16485 0.0200446
325 7.57946 0.760687 8.86655 -3.38254 1.82903 -2.65401
500 9.10147 1.36913 9.89524 -0.695334 -0.754717 -1.25754
143 9.39508 0.539832 9.42548 0.537045 0.0531935 0.510877
583 10.6245 1.70026 9.11828 -1.75694 2.10629 -0.0529657
207 1.71642 2.49094 9.88407 -2.09192 -0.642655 0.0455409
162 2.06892 2.76818 8.89427 -0.0716538 -2.01095 1.8828
410 1.12962 2.64428 8.99907 2.23735 -0.0886308 -1.40234
374 0.687425 1.71686 9.8099 -0.4281 -1.05815 -1.74881
271 0.952157 3.01662 10.3997 0.714875 -2.33235 1.81853
159 8.50441 4.90914 8.74879 -1.17112 -2.22951 1.41218
806 2.49598 1.94154 9.39467 0.57783 0.0596071 -2.79377
79 2.86735 2.18169 5.57269 0.313106 -0.472944 2.09915
146 2.64502 2.83316 9.86161 0.999484 0.370379 0.284196
13 4.8738 1.74668 9.64083 -2.41549 -0.670006 1.10651
282 4.28252 3.13333 8.93177 1.52047 -1.07329 0.74842
641 3.604 4.77962 7.2306 0.55204 -3.746 -0.423528
589 3.15959 2.73199 8.78567 1.42586 2.82105 -1.72724
230 3.88963 2.01333 9.14633 2.46915 0.328476 -1.34678
769 9.91816 0.181075 7.21321 2.92409 1.86502 1.03632
478 5.60654 2.80365 8.95056 1.6457 -0.417836 0.34819
131 3.97639 0.910684 9.65652 -1.26246 -0.451204 1.17209
415 8.53097 0.23541 10.0808 -1.10692 0.482211 2.76471
176 6.8267 3.62546 9.4615 0.448765 0.90611 -0.556658
706 7.7908 2.54254 9.35198 0.0731411 -0.196213 0.838846
610 7.57726 3.61257 10.0883 -1.53 -0.0339973 0.472111
97 6.69937 2.60159 9.93641 0.08603 -0.66442 -0.285066
475 5.90575 1.80526 9.45635 -0.401361 -1.24 -1.15967
669 8.44573 3.10234 10.1798 -0.634627 -0.762753 -1.43762
32 8.66705 3.26437 8.91387 1.93542 0.673064 0.270066
637 8.70002 2.16788 10.2274 -0.839914 1.80005 -1.9587
525 7.66142 2.36768 10.327 -0.930735 -1.1348 0.245996
232 7.95419 1.44331 9.73195 0.253269 -2.38393 1.72357
743 10.7266 2.74518 10.1211 0.356897 -1.4134 -0.0467727
76 10.5451 2.86039 8.59173 -1.50958 -0.160756 -0.0113001
249 9.96819 1.87505 10.1967 0.538482 -0.343721 3.12911
728 9.4984 3.32364 9.81099 2.29998 -1.58743 -0.577393
39 7.14974 0.0298001 6.17257 0.69696 0.406303 -0.0546541
495 0.381861 4.80882 9.78343 -0.478326 1.21857 0.474124
517 1.32131 3.83809 9.67073 -0.276849 -1.00242 0.414354
260 10.1094 5.05586 7.51994 1.14903 -0.63525 -0.0674945
17 2.19906 3.67407 9.15758 -0.350759 1.94632 0.859172
688 1.68775 4.99972 9.58237 0.0607026 1.48911 -0.367642
511 6.11089 4.51136 10.4424 1.68885 -0.0315134 0.80488
58 2.80879 5.11045 9.0702 -1.91594 2.1871 -0.0439525
661 4.23965 3.77781 10.2127 -0.00887566 -1.30772 0.148363
68 3.84571 4.75317 10.1163 -1.89154 -1.53317 0.422592
205 4.94811 3.11563 9.7847 0.691931 0.142685 0.767217
36 4.25926 4.15574 9.23381 -1.43719 -0.348066 0.942121
418 4.06338 5.23416 9.01589 1.18247 1.44278 -1.74148
104 6.04908 3.45919 10.1053 -0.7692 0.873462 -1.52828
91 5.54704 4.52347 9.41607 1.05429 -0.384608 0.383828
516 3.93739 2.32484 5.58779 0.0540618 -2.26798 2.328
851 3.67328 0.324765 5.3753 0.0671739 -0.247068 0.860671
627 3.01796 3.85512 10.721 0.0893962 2.33355 -2.09338
252 2.00175 5.78718 0.925452 0.775766 0.926726 0.0477113
824 1.06887 6.9104 1.36836 0.96352 -0.351952 -0.654338
471 10.5651 6.16296 1.06809 -1.41106 2.65962 1.01696
703 8.64436 10.6913 1.27868 1.27977 -0.00896412 1.23899
463 2.72224 5.79495 1.70304 0.866497 -1.93823 0.632748
639 9.0779 10.1224 0.119972 1.16189 -1.66186 1.03631
115 2.08463 6.67451 0.13896 1.07987 -0.478024 1.54928
304 6.2534 10.4974 4.31661 0.104059 3.50435 -0.724809
285 4.52822 6.93758 1.40174 -0.0930175 2.11203 -1.24968
528 3.82321 5.45963 0.411723 -1.15733 -0.849088 2.14709
633 4.39173 6.45306 2.52681 -1.35865 -0.243793 2.51802
83 3.16593 5.40408 3.87503 -0.057474 1.54249 -3.18569
584 6.23774 7.042 0.610708 1.03825 -0.0681384 0.904907
9 5.7889 5.75087 0.402958 -1.10845 1.32744 -0.241306
307 8.47692 10.5479 3.14797 -0.590538 -1.58094 0.708479
506 9.18428 5.60822 4.08572 -0.482613 0.116185 2.94704
193 6.79016 6.11379 0.470906 -0.584019 0.0267245 0.0862009
330 7.95041 6.54845 0.848082 -2.19298 -0.113982 0.224057
425 9.97876 5.50783 2.05496 -2.02137 1.00474 1.04709
533 9.67544 6.65454 1.43799 0.334709 1.05331 -1.25604
510 10.3298 6.51657 2.30797 0.725629 0.727017 -0.656436
843 8.9294 5.68459 1.53631 0.940187 1.47928 -0.908893
855 1.7914 6.66246 4.83386 -1.54533 0.88417 1.04868
61 2.26074 9.52249 0.792028 1.37322 1.97652 0.856851
94 1.21245 7.8441 0.937253 -0.102842 0.876878 -2.40735
289 0.881773 6.49335 0.142943 0.478236 -0.504742 -0.708147
48 2.83207 7.52783 0.671958 1.03604 -0.321197 0.561636
861 2.03414 7.36634 1.66008 0.402613 1.18125 1.95196
800 3.79247 7.74752 0.922486 -1.03713 -0.128339 -0.674841
199 2.92531 6.84923 1.50198 2.94134 -1.34272 -0.961623
254 2.39732 10.3724 0.258477 -0.534754 -3.52272 -0.191411
802 4.80433 7.35205 0.368907 0.0181585 1.50785 -0.337108
736 4.86217 7.97951 1.44361 2.25565 0.095296 -0.486486
535 4.59398 9.35721 0.121313 0.459458 0.377584 -0.383927
805 6.02711 8.93068 1.44604 2.15055 -0.306344 1.93789
341 5.29669 6.3976 1.90651 -0.1743 -0.606349 1.58695
767 7.13543 9.39504 0.260257 -0.802838 -1.45012 2.07267
186 7.10494 7.35461 0.0988162 -2.5814 0.861348 -0.541499
857 6.43702 8.34077 0.554513 1.34229 -1.14786 0.619795
739 7.53391 8.44693 0.575972 0.623523 0.884441 -0.353588
674 0.0854458 7.05716 0.516055 1.29325 1.02014 0.95239
267 10.5809 5.74538 5.2462 -1.92127 1.16964 -2.15436
586 10.0068 8.80806 1.13895 -2.09405 -1.64647 1.14642
440 8.07839 7.63749 0.659531 -0.903669 1.15486 -0.635811
96 9.65555 7.74865 1.52243 -0.943144 -0.87073 -0.400198
136 1.20427 9.5926 1.45129 -1.0725 -0.511138 -1.90442
456 5.32944 7.19967 4.99331 2.34187 0.311572 -1.10897
672 0.326893 8.8576 0.732873 -1.42371 1.33435 -2.49953
771 1.16178 10.5884 0.535952 1.21453 0.655044 -1.2998
25 2.70737 8.68677 0.61916 0.382411 -1.10365 -2.04534
233 1.30758 8.53223 0.147541 -2.4031 -1.41258 -0.099147
421 4.14998 9.5622 1.19487 0.803402 -1.66611 -0.005839
60 4.37506 6.62086 4.64865 1.07447 1.20002 -1.4028
348 5.50608 9.92822 4.78011 0.235382 0.76657 -0.48495
204 5.04842 9.18986 1.61009 0.539603 -1.22065 0.586681
28 5.51627 9.90554 0.985329 0.417669 0.162043 0.696638
321 7.13072 9.05489 1.60844 -0.249945 1.46167 0.305571
358 10.021 8.79517 3.63147 -1.33049 -0.062441 -2.27835
776 8.20105 9.76782 1.93015 1.42972 -0.162646 1.02059
838 6.30293 9.98259 0.337326 2.56232 1.28728 -1.15473
4 7.93142 9.8607 0.453136 -1.31089 -0.211676 -0.771314
811 10.5082 10.4712 5.16206 -0.311725 -1.04247 0.0640101
89 9.09886 9.24431 0.854086 1.25987 -0.259573 1.23079
221 3.67951 5.86279 2.9593 -0.540791 0.105186 -1.35082
493 10.6024 9.56013 4.39827 1.13365 -2.80063 1.68403
381 1.12766 9.56771 0.385189 1.7797 1.57189 0.831294
752 8.04088 5.45949 2.202 -1.05188 1.06742 0.556362
746 8.80024 8.13103 1.09464 -1.16977 -1.56895 -1.37326
829 9.53629 9.78033 1.85329 -2.3531 1.77064 2.2621
616 10.2888 9.80677 0.826387 -1.30412 1.10073 -1.57298
624 0.691982 5.76025 2.0684 1.00496 -1.39709 0.332228
81 0.659207 7.34225 2.7069 1.09944 0.44727 -1.46482
656 1.64166 7.26086 2.75022 -0.770903 1.2927 -1.22036
51 1.637 6.05378 1.82719 -1.00727 -0.170045 -0.830765
122 2.67505 6.44163 2.6342 -0.164211 2.46383 0.793327
132 6.9533 5.59728 3.53545 -0.940883 -1.32447 0.157323
378 3.64432 7.15311 2.94717 -0.897326 0.470328 -1.73225
447 2.54094 10.3703 4.94567 0.864092 -1.1644 -0.0678098
786 8.30823 5.92861 0.170847 -1.58072 -1.34816 -0.402613
107 5.94846 6.8569 2.50705 -1.40748 1.71535 0.411337
20 6.38359 5.82422 1.7592 -1.34754 0.947676 -1.76648
725 6.9736 7.01496 2.18017 -2.21838 -0.382454 -0.80243
419 6.7966 6.93199 3.15114 -0.171165 2.67277 1.18236
492 7.64011 6.43008 2.82559 1.0783 0.436723 -0.360716
595 8.90814 6.35182 3.41725 0.44091 1.81306 -0.609566
666 8.50995 7.12064 2.73299 -1.07361 0.305174 -1.63161
229 9.54364 5.979 0.140763 0.884457 -0.864871 -0.257619
344 8.81742 6.70184 1.75694 -3.04364 -1.96981 0.814076
502 9.57506 5.65562 3.1041 -0.153125 1.06889 0.748375
580 10.0495 5.97542 4.13368 2.50951 -1.96337 -1.3262
737 10.5979 7.14406 1.52143 2.00112 0.6002 1.4448
734 1.14099 8.11947 2.3818 0.407724 -1.68668 0.0809036
485 1.6049 8.55556 1.44441 0.427973 -2.18804 -3.48201
623 0.127447 8.19623 1.57906 -0.80962 0.0963387 -0.215189
761 2.32556 8.25293 2.25531 -0.426689 0.792709 -0.147058
465 0.965224 7.9433 3.80004 -0.179872 -1.82984 -0.895451
781 1.33761 8.7159 3.29102 0.0383566 -1.43575 -1.08772
362 3.78756 8.64917 0.73361 1.97711 -0.476165 -1.91896
167 5.00017 7.05129 3.32938 2.40232 -1.22106 0.567578
615 3.72011 7.60509 1.92159 0.927403 -0.70434 -0.171289
788 4.08023 8.69437 1.91737 1.55748 -2.0754 -0.811025
604 5.28853 8.46024 2.2796 0.732507 0.445942 -1.19635
235 5.5778 7.30214 1.22432 -0.974016 -1.11884 0.598422
487 6.1922 7.80684 1.87794 1.11269 0.75666 2.18674
116 5.78013 8.82615 3.53754 2.82707 -0.297763 -0.745729
540 7.06357 7.47929 1.08525 0.361456 0.424384 -2.40044
537 5.71678 7.85591 2.96008 0.630287 -1.76752 0.299498