ITEM: TIMESTEP
47120
ITEM: NUMBER OF ATOMS
864
ITEM: BOX BOUNDS pp pp pp
0.0000000000000000e+00 1.0726842421158810e+01
0.0000000000000000e+00 1.0726842421158810e+01
0.0000000000000000e+00 1.0726842421158810e+01
ITEM: ATOMS id x y z vx vy vz
415 10.6282 0.969055 0.418261 -2.05854 1.43044 -2.83289
660 1.34286 0.191426 1.27149 -0.0172903 -0.770438 0.569748
1 0.531833 0.148646 0.304728 0.272102 0.161858 0.876243
686 0.982052 1.67452 0.122485 -0.363439 0.558405 -0.777832
152 2.85838 1.36821 1.39465 1.62236 -0.569184 0.276324
162 2.19783 1.44418 0.36377 0.754369 0.609376 0.514414
421 2.48658 0.533962 1.81657 0.53381 0.658983 1.53062
131 2.18729 0.301418 0.570948 2.67391 -0.456435 -2.3584
507 4.38478 1.09379 0.570129 2.36149 -0.459341 1.19214
28 4.31691 0.246166 1.39473 -0.0602101 -2.88772 1.33169
681 3.98488 1.39412 1.61692 1.1651 -0.889712 -1.32271
720 3.34248 0.591545 0.277016 1.4708 0.740377 0.433865
801 5.23376 0.971232 1.38162 0.291097 -1.04395 0.773001
611 10.3725 3.37113 4.77856 -0.096813 -1.3452 -0.438265
247 6.2517 0.606231 1.09786 -0.198169 0.635184 -1.58889
684 6.47088 1.4617 0.602068 0.466537 1.02098 0.388215
383 7.47649 0.869749 0.472041 0.656712 0.428372 -0.429576
189 7.35463 1.62746 1.41947 -0.685446 -1.80319 -0.330508
42 8.46243 1.54305 1.67094 -1.48253 -0.537102 0.0424846
177 8.63363 0.0310953 0.300251 -2.61233 -0.292657 0.0511452
460 8.42089 1.08726 0.761829 0.75461 -3.99283 -0.330266
498 7.22075 5.29173 3.79142 1.38334 -0.760285 2.92334
689 9.38651 0.358295 0.934988 0.712991 -0.0439368 0.0362646
716 9.30322 1.45151 0.977125 -1.16241 2.58127 0.547969
357 10.3818 1.44113 1.53038 -0.277011 -2.23659 -0.904298
78 10.1182 0.419933 1.5981 -0.629327 -1.41438 -0.738306
599 0.158745 2.63763 1.07973 -0.995097 0.133952 1.24151
310 0.707589 1.66688 1.3542 -0.21777 -1.5023 -0.137394
124 0.982195 2.74591 1.52793 -0.694585 -0.977063 1.30235
363 1.97937 1.95277 1.30874 -1.42481 0.84653 0.633846
345 1.77393 3.18233 1.12422 -0.629207 -1.99273 0.836298
553 2.78325 2.41807 0.744223 -1.82854 1.19614 0.174457
627 2.62751 3.46647 0.756343 -0.245401 1.6879 1.87459
141 1.83901 2.45886 0.351952 1.58637 1.10508 2.52766
443 3.61394 2.74956 1.10615 -0.472023 -0.705445 0.828018
284 5.01398 3.18059 1.07203 1.30771 -0.195128 -0.605899
231 5.21024 2.11002 1.50201 0.319547 0.191263 1.436
7 5.90269 2.5978 0.492492 0.360969 2.13821 1.66423
825 5.02854 2.0152 0.362313 0.389726 -1.36085 2.84175
835 6.23239 2.00675 1.53381 0.645739 0.0296259 -0.106104
93 7.00599 2.44629 0.99034 2.29774 0.893741 0.30365
669 6.85254 3.33226 0.591633 -0.801679 1.38544 1.15907
760 7.96011 3.43797 1.12543 0.823576 0.314211 1.08564
488 8.04303 2.27199 0.766905 0.33306 -1.44902 0.863739
371 8.89807 2.58976 1.46365 -0.370668 0.428026 -0.811972
428 10.537 3.57636 1.44394 0.267297 1.61157 1.50263
780 10.0704 2.17286 0.609707 -1.02778 -2.49041 -0.674582
294 0.334223 4.55878 1.56206 -2.37572 0.474207 0.927946
374 1.36878 4.56585 0.218577 -0.999049 -1.97237 -1.25532
106 0.617304 3.64011 0.762222 1.11225 -1.72594 -0.73448
251 0.30541 4.75884 0.138726 -0.589816 1.1915 -1.86123
2 2.29977 5.0037 0.341187 1.24843 -1.06818 0.711651
864 2.8907 4.56417 1.23274 0.464146 -1.38786 -0.782344
335 1.91665 4.32912 1.11944 -2.68383 -0.328416 -1.40618
43 4.49871 4.73145 1.06166 1.92227 -0.825324 0.83282
391 3.48921 3.74056 1.57177 -0.233763 -1.33711 -1.62437
215 4.49101 3.85929 0.519388 3.02245 -0.381555 0.945599
62 3.43929 4.50007 0.309345 -0.830125 -1.1436 -1.81736
766 5.16669 5.30489 1.73761 0.46974 2.72427 1.24948
184 4.45834 3.6646 1.81575 -2.34882 -1.64146 3.31974
68 5.46173 4.37814 0.549482 -1.0682 -0.259154 0.578406
678 7.70898 4.55645 1.33341 0.396893 -2.26599 -2.11404
826 7.5748 4.73442 0.22907 -0.344422 -0.696813 -1.19826
296 6.56201 4.21135 1.0709 -1.60945 -1.31595 -0.263359
283 9.13388 4.63599 0.765139 1.69675 -1.33909 -0.294552
809 9.80436 4.68623 0.0598712 -0.119001 0.572803 -0.889388
843 10.087 4.37395 1.07365 1.17822 1.8803 -2.47191
190 9.52928 4.1836 3.98566 1.70335 0.346303 -0.232726
226 10.668 0.383691 2.74515 -2.30657 0.993543 -1.41294
175 0.539822 1.3082 2.42958 -3.52547 -0.522669 1.10843
142 1.05279 0.543376 3.45342 -0.705451 0.624871 -0.94489
685 0.401368 0.415777 1.61692 -0.631181 -0.932907 -2.19366
851 1.34662 1.82573 3.34538 1.06562 0.459431 0.0829768
219 0.251231 1.17089 3.40025 -1.29031 -1.41697 -0.96828
490 1.67043 0.640377 2.47317 1.09184 -0.238897 -1.10662
370 3.02961 1.62227 3.21768 -0.157856 1.60557 0.64791
102 4.26386 0.431931 2.38965 1.35431 -0.67328 1.10142
138 3.13922 1.22533 2.26523 1.38589 0.0032379 -0.531164
643 4.08948 0.935273 3.33556 0.562944 1.87289 -1.16973
268 3.16118 0.190077 2.61557 -0.981277 -0.846656 -2.71973
642 5.11332 0.966356 2.53549 -1.15294 -0.838284 -2.14092
435 4.91749 0.477669 3.52825 1.69604 0.417384 -0.163746
153 5.81829 0.451601 3.11939 -1.98914 -1.27611 0.473049
403 5.99057 0.833672 2.12257 0.0234312 0.832903 0.82319
179 6.15009 1.79998 2.65638 0.913749 1.08034 0.9392
350 6.83823 0.499428 2.76661 -0.786099 -0.951396 0.900718
89 7.75404 0.848783 1.94084 0.143044 -0.0581091 0.911125
224 7.76662 0.104649 3.37927 1.21096 0.284805 1.37356
622 6.46162 1.53584 3.60109 -1.98299 1.20198 0.0567024
493 8.85752 0.191599 3.3102 0.0383598 0.863314 1.99804
307 8.62703 0.429195 2.30104 -0.413079 -2.40063 0.293853
703 7.97152 1.34008 3.07942 -0.556796 -0.104693 -0.893377
522 9.35775 0.938056 1.80824 -0.883534 -0.598639 0.680838
819 9.57866 0.839865 2.9279 0.0135788 -1.0354 1.45447
542 0.300203 3.06377 2.34281 -2.3198 1.21269 -0.613252
603 1.29524 2.19615 2.27887 -1.69483 0.267357 0.0955246
578 10.5657 2.50067 3.35095 -0.486675 0.557138 -1.35763
80 2.71465 2.75653 1.87139 -1.27415 -0.63481 -1.10543
204 2.36278 1.79271 2.35915 0.927423 -0.483164 -0.722467
779 2.95551 2.56136 3.01392 -0.247271 -0.434339 -2.59311
512 1.96459 3.30524 2.70485 0.384323 -0.837101 0.917753
207 1.63674 2.98758 3.7767 0.0735596 -1.24515 2.03368
591 3.45515 2.17756 2.18214 1.20079 0.670819 0.0111322
770 4.30981 2.67761 1.92069 0.552302 1.2581 0.983809
140 4.13774 2.07755 2.99887 -0.613059 -0.320477 0.801104
392 3.75522 3.06968 2.77607 0.302794 1.89532 1.56863
240 5.59975 3.04078 2.00245 0.876901 -0.135365 0.655889
400 5.12217 2.23146 2.64614 1.12752 3.92674 -1.5533
680 5.66101 2.6685 3.50246 1.32138 -0.470593 -0.871073
713 7.17943 1.97608 2.55989 0.349049 -1.12642 -1.02299
394 7.2853 3.18338 2.82017 0.861947 0.735331 0.0115836
293 7.92833 2.7944 2.13845 0.222303 3.25273 -1.98349
629 8.11947 2.42604 3.05226 -0.629917 -0.794599 -1.59892
858 9.09132 1.71973 2.50372 2.50051 -0.455228 -0.743947
755 8.83967 3.09975 2.38811 -0.21443 -3.31267 -0.464761
137 9.86397 2.85138 1.72564 1.38562 -0.987829 -0.0253834
388 10.6677 2.21822 2.00896 1.10331 -0.0239837 -0.5849
209 10.3875 3.47379 3.12198 -0.800257 -0.472583 0.947828
151 0.742821 3.3921 3.44404 -1.47847 -2.71448 -0.474838
658 1.5359 4.14493 3.22879 1.11545 1.3984 1.99466
483 0.296913 4.76392 2.62975 -0.120663 -0.796336 -0.354419
464 1.01676 3.71974 1.64883 0.927437 1.70125 -1.95739
828 1.25779 5.04275 1.88907 2.04601 0.173591 0.612598
98 2.38221 4.39339 2.68537 -0.272661 -3.14846 0.902156
398 2.84331 3.55153 3.20938 0.996085 0.333704 1.29425
165 1.67974 5.28679 3.01251 -0.907797 -1.14576 0.971749
710 3.88677 5.10036 2.97261 -0.871888 0.0266787 0.605196
568 3.88887 4.07226 2.94638 -1.22837 -0.158709 0.0205938
575 4.50329 4.69139 2.15568 -0.232144 0.327413 0.0741405
467 3.23914 4.41704 2.24184 -1.52113 0.129845 0.895183
402 5.17407 3.50843 2.79752 -1.56303 0.24252 -3.18976
820 5.49389 4.15879 2.03149 -0.263697 0.121473 -0.0145589
132 5.10914 4.76949 3.21589 -0.582367 0.774624 -1.69685
482 6.47293 3.61441 2.31366 -0.126869 -0.603613 -0.768854
432 6.52143 4.41495 3.03624 -0.0996898 0.211347 -0.752707
423 6.96656 5.11338 2.27953 -0.960981 -1.33871 -1.80427
425 8.75528 4.2268 2.10094 -0.155245 0.280864 0.285276
527 7.623 4.57914 2.85918 0.959093 -3.32523 -0.726823
354 8.59604 4.97396 2.8406 -0.980088 -0.990405 0.613017
120 7.78091 3.87669 2.0841 -1.23148 0.386612 -0.856387
492 8.55146 3.95205 3.31797 2.33404 2.00138 -0.0500387
470 9.43286 4.95619 1.7832 -2.26283 0.695104 -1.56349
666 9.5387 5.06488 3.48822 -0.429008 1.72849 2.26505
479 9.92794 4.15024 2.43507 -1.07488 -0.435475 -0.0693717
506 10.4718 4.68676 3.45757 -0.254173 0.21694 -0.874233
449 0.162288 0.152781 3.76262 -2.30775 -0.68574 -0.726195
437 0.678909 1.06113 4.60302 0.648536 0.495398 1.00016
461 1.43909 0.350034 4.3324 0.529591 0.077532 1.67501
521 7.92775 0.0356121 1.1661 1.78598 1.03602 -1.67052
845 2.35695 0.531045 3.65954 0.0920339 0.814044 -1.55567
163 3.27594 0.337126 3.70555 0.483475 1.07847 0.0656973
777 3.30231 0.571276 4.83026 1.5175 0.51212 1.50926
297 3.49128 1.58243 4.36712 0.438116 -0.236827 1.35334
687 4.00425 1.45609 5.2685 1.89072 3.0477 -0.289983
278 4.24046 0.717008 4.51239 -1.9371 0.098795 0.286702
414 5.50027 1.46136 3.31731 -0.88575 -0.506335 0.525889
601 5.53046 0.412611 4.49653 1.26304 2.63798 -0.519303
225 6.17152 0.99984 5.19648 1.55857 0.713247 -0.458127
753 5.04506 1.05587 5.08717 1.65302 -0.158651 1.10261
39 7.2643 1.05995 5.08144 -0.653326 -0.722499 0.354808
504 6.48843 0.496406 3.90409 0.497265 -0.557349 -0.693196
550 7.3866 1.08964 3.97184 2.44652 -1.60688 0.730283
494 6.91393 0.182086 4.80439 -0.343021 0.771413 -2.83724
782 7.85018 0.198739 4.46 1.28342 2.54411 -0.260706
180 8.50506 1.22596 4.14232 -0.661357 -0.19794 -0.952052
757 8.29432 1.5113 5.19422 -0.417228 -1.12221 -0.871731
67 9.06905 0.361748 4.68263 0.336394 0.814723 2.37004
228 10.2531 0.233342 5.02931 0.225366 -0.486482 2.33676
21 10.4015 1.25393 4.8851 -1.59335 0.0914921 0.535222
811 9.97898 0.590878 4.00654 -2.67413 -1.79324 -0.509003
453 9.66369 1.69883 3.87643 2.04633 0.508513 0.255973
168 0.737713 2.45101 4.37992 2.36796 -1.07968 -0.783471
650 0.696639 3.38453 4.5863 -0.328246 0.28604 0.885348
664 1.73196 1.79336 4.53999 0.967651 -1.80947 0.177035
523 2.09179 2.84931 4.72755 0.0146882 -0.409487 -1.2758
564 2.67349 2.24496 4.02973 2.35587 -1.12631 0.769851
518 2.848 2.212 5.04679 -0.430318 0.452394 -1.99344
733 3.16354 3.22287 4.93339 -3.23283 0.166057 0.313737
605 3.69763 2.60127 4.20909 1.36047 -0.773009 0.787041
560 4.67035 2.61641 3.66616 0.493613 -0.593339 -0.095492
538 4.58432 1.75862 4.3318 1.31871 -1.14863 -0.28632
513 4.07395 2.52622 5.2537 -0.699031 -1.11488 0.487112
647 4.64865 3.3709 5.26114 -0.92966 2.55321 -0.668324
157 5.72814 3.10549 4.88692 0.901384 -0.828835 0.172066
614 6.70434 3.14954 4.01683 0.182687 -0.945066 0.49032
446 6.80464 1.87218 4.7756 -2.4114 0.576476 -1.1865
34 6.78803 2.89156 5.05415 0.960693 1.76875 1.42554
837 6.00486 2.2889 4.36582 -0.831322 -1.0575 3.59914
211 7.31899 2.18913 3.98667 1.62835 -0.0072359 1.21645
65 3.66298 5.22798 1.70778 1.29809 -0.277294 2.19739
85 8.86562 3.0953 4.26344 0.463708 1.32651 -1.99413
253 8.03017 3.2993 5.08744 0.381056 -2.32402 0.148801
846 7.86835 3.23068 3.90857 0.401678 0.476748 -1.06142
696 9.4584 2.24055 4.75776 0.79204 0.917983 0.0751913
587 10.5307 2.30097 4.85732 -2.0788 -0.811039 -0.23903
222 10.026 2.79672 4.12594 -1.23832 1.34631 -1.82163
19 9.33226 3.48376 5.12305 0.628438 1.50525 1.32402
314 0.0959661 4.60197 4.40871 1.65881 0.454103 -1.03191
530 9.27782 5.20834 4.56667 1.14522 -1.97546 -1.01004
355 1.01905 5.13847 4.09999 1.59393 1.94189 -1.46339
657 1.09023 4.1161 5.07766 -0.045128 -1.52108 -0.978827
53 2.11528 4.85935 5.13593 0.886588 -0.335636 -1.567
183 1.66799 3.78585 4.26517 1.77748 0.118652 0.407143
12 2.05538 4.88393 3.97216 0.0529173 -0.533518 0.26393
221 2.72812 4.12644 4.15831 -0.192849 -0.285039 1.94354
50 4.00834 4.28024 4.16442 -0.0434927 -1.40847 0.969983
476 3.7605 4.14375 5.19742 -3.84982 -2.75072 -0.64764
60 4.38867 5.28817 4.35429 2.12506 1.82678 -0.471258
288 4.96131 4.32724 4.74832 -2.01595 2.69403 -0.781115
429 4.90591 3.68643 3.80854 -1.70491 -0.657186 -0.537432
433 5.98906 3.78366 3.64807 0.274645 -1.97108 -1.49307
863 5.98379 4.73298 3.90636 0.699073 0.185462 0.00797493
803 7.27155 4.21551 3.84675 -1.42597 0.681933 1.20592
501 6.90543 5.09998 4.69904 2.4289 0.792835 1.50326
634 6.52017 4.04954 4.69542 -0.0594027 -0.446596 -0.767493
419 7.50549 4.14001 4.87546 -0.162569 -0.543726 2.20025
667 8.15805 4.94765 5.01838 -2.98694 -0.186825 1.83814
571 8.63717 4.05141 4.52374 1.19765 -1.04125 0.423147
407 8.22838 5.00632 3.94558 1.63043 -0.299052 0.18301
317 9.78045 4.44408 5.10401 1.3981 -1.12622 -0.810488
528 5.32591 5.30448 0.276512 -1.69871 -0.240682 -0.492818
842 6.15527 5.29358 1.17183 -0.320231 -1.05986 -1.38104
570 9.68643 0.98924 0.14896 -3.0157 -0.334245 1.65602
230 3.37798 3.01518 0.0325619 0.361322 -1.19395 0.418359
712 6.30365 5.33476 3.10808 -1.9021 -0.649703 2.51765
40 8.84577 2.62108 5.3986 -0.163527 1.54454 -0.046147
315 0.899295 1.07461 6.3345 -0.326534 1.64412 -0.0896313
769 0.405003 0.528934 5.47048 -0.646334 0.57077 -0.483041
130 10.4563 1.64592 6.24998 -0.614823 0.766622 -1.78095
79 0.655826 1.79364 5.51977 0.870621 1.93943 -0.958672
313 2.70076 1.20492 5.71991 -1.75639 -1.0547 0.329758
797 2.032 1.21999 6.53464 0.549219 -1.4683 0.122606
480 2.04789 0.179662 5.53852 -0.240901 1.31639 1.31205
516 3.32116 0.927249 6.46855 -0.322592 -0.298937 1.31229
744 4.23247 0.861714 6.82836 -0.317878 0.929078 -0.0122424
856 4.08814 0.45393 5.83441 0.0161175 -0.807749 -1.09259
444 4.77591 1.72892 6.00211 0.154186 2.32201 0.0430026
18 5.19688 1.27661 7.01075 1.23955 1.24563 0.43483
30 5.43092 0.0306156 5.39146 -1.25264 0.169239 0.603322
676 5.65949 1.12468 6.09944 -0.624527 -0.887745 1.59817
759 5.61089 0.0806971 6.61222 -1.28442 0.0854684 1.4495
261 6.98372 0.142455 5.99239 -0.737998 0.182889 -0.574678
44 6.82908 1.46785 5.90786 0.562717 -0.889691 -1.29857
651 6.57809 0.851937 6.73283 1.53486 -1.91974 0.154818
426 7.32595 1.43359 7.16974 -1.8148 -0.467677 0.0171313
166 7.25391 0.155845 7.02924 1.74066 -0.500059 0.52679
244 7.87119 1.04374 6.29208 0.368196 0.288036 0.528931
617 8.92205 0.432442 6.33542 -0.902148 2.10993 -1.61216
149 8.81239 1.74825 6.02398 -1.67965 -0.456031 -0.109451
594 10.1272 0.381197 6.14339 1.49228 0.378506 0.191007
22 9.22272 0.941089 5.47583 -1.70365 -1.64434 -1.47554
834 0.441862 2.87023 5.47095 0.168397 0.0874692 0.681487
567 0.757291 2.46793 6.56206 -0.678617 0.421789 0.635408
286 1.48442 3.09049 6.01561 0.786095 0.454133 0.174693
275 0.458089 3.69887 6.85389 2.7864 1.06954 -0.945526
347 2.38308 3.05346 6.49091 -0.84621 0.102773 -1.60851
793 1.71161 2.12311 5.66694 1.21126 -0.315846 0.598295
569 2.33912 3.34806 5.52052 -0.922392 0.345973 -2.25755
555 1.78544 2.17323 6.83707 0.750057 2.19129 -1.51098
789 3.53388 1.89961 6.87137 -1.70432 -0.437843 -1.29214
641 3.2222 2.73201 6.03547 0.813388 0.36884 1.93097
216 4.4468 2.61353 6.56732 1.64769 -0.693259 0.427724
727 6.02577 2.0831 5.49879 1.37233 -0.359674 -0.468108
612 5.38431 2.9006 5.79448 0.368599 -0.187054 -0.370501
272 5.21505 3.47779 6.64319 -0.73004 -0.723591 -1.1426
711 6.57108 2.59341 6.223 1.74954 -1.08922 -0.0587952
699 7.17003 3.46765 5.85457 -2.70942 -0.734387 -1.76305
191 6.13369 1.81986 6.95507 -2.01208 -0.753879 1.58119
160 8.86979 1.93146 7.05499 0.696712 -0.731979 0.354554
404 7.91069 2.23538 6.34147 1.59507 -0.497642 -1.7883
718 8.70585 2.94136 6.34492 0.346808 1.89774 1.55921
274 7.79284 3.45765 6.9419 -1.09962 1.01184 0.207341
427 10.3218 3.16576 5.95237 -0.876992 2.55602 0.694519
77 9.80441 2.08387 5.74602 0.262602 1.67531 0.776426
384 9.65678 2.6882 6.68347 0.0313966 1.33556 -1.98441
491 10.6053 4.15552 5.56817 -1.62994 -1.83494 -0.614298
849 1.39045 4.3315 7.03903 0.801075 0.472479 0.0463788
764 0.984464 4.62154 6.10055 0.582562 0.389451 -1.9647
659 3.11476 5.19147 5.46764 1.64617 -0.584647 -1.15667
670 2.20418 4.51442 6.4567 0.0930448 1.95314 0.591795
841 4.12029 4.80358 5.87269 0.268848 -0.596619 1.14463
306 3.02202 5.03748 6.66773 -0.758912 1.5598 0.730156
673 4.0422 4.81976 7.05188 0.0383986 -0.60538 2.26529
267 2.98932 3.89231 6.23957 -2.49788 -0.0882036 -0.0460613
519 4.13092 3.87982 6.43839 0.374609 -0.978564 0.302275
101 6.10318 3.86293 6.02659 1.61562 -0.975204 1.07322
318 4.97713 4.60701 6.41647 0.451322 -1.18105 0.358353
242 7.44205 4.50312 5.80499 -1.07045 2.03138 1.76744
170 6.20194 4.98447 5.78267 -1.80547 0.91304 -0.887299
92 6.78965 4.45804 6.79285 0.250001 -0.519901 0.880353
413 7.45827 5.1336 7.32239 1.27312 0.449496 2.56444
305 8.1136 4.90862 6.42138 0.952779 -0.264584 0.353722
336 8.85753 4.8083 5.56199 2.7168 -1.4829 -1.37594
375 8.45355 3.96567 5.94171 -0.0389266 -0.290695 -0.882593
260 8.19323 4.27206 7.24388 0.163259 1.79571 2.39773
54 9.22504 3.78493 6.58475 -0.262496 -1.46694 0.038103
665 10.4339 4.82735 6.46212 0.386866 1.53722 0.33698
719 9.2698 5.06933 6.70373 -0.420099 -0.154249 -0.149349
301 0.3837 1.6975 7.28352 0.936741 -2.19787 -1.5705
117 0.227397 1.22623 9.03047 -0.130279 -2.6703 3.52585
197 0.365363 0.717352 7.95267 1.28925 0.271086 1.45955
556 1.35285 1.18721 7.347 0.306651 2.19737 1.00236
517 2.19951 1.67914 7.68415 3.25601 0.393221 1.34297
596 2.29112 1.76622 8.75502 0.418256 -0.222993 0.505252
342 2.1334 0.722232 8.25627 -1.11636 0.474616 1.17508
544 3.63073 1.18553 7.48246 0.198145 1.6534 -0.549097
290 3.42393 1.10226 8.41107 -0.451594 -0.524782 -0.474042
270 3.87804 0.245493 8.02754 -1.83094 0.128811 1.44947
309 9.26448 0.0307721 7.59892 -0.411883 0.2547 -1.76944
360 4.68603 1.03878 8.19608 -0.326267 -0.213507 -1.03246
524 5.90783 0.69866 7.7104 -0.337711 -0.861883 0.148385
210 6.56109 1.48684 7.92034 2.27765 -0.147161 1.48714
291 6.78047 0.210647 7.92705 -1.93996 1.24858 3.43022
325 7.57763 1.47224 8.40982 -0.42754 -0.323271 0.67495
445 7.8238 0.666576 7.67985 -0.50695 -1.43632 -1.01393
172 9.04135 1.01349 7.29197 1.03746 1.37301 -0.4143
352 8.97803 0.638942 8.44043 -1.21579 0.919396 -0.854266
72 10.5575 0.0461498 7.19595 1.48435 -2.24804 0.100806
701 9.98459 1.28938 7.12963 -1.41548 -0.164732 0.650968
728 9.7454 1.64633 8.31225 -0.382842 0.205146 -1.47187
588 10.0388 0.493353 8.35594 1.67828 -0.643532 1.95555
653 0.672072 1.70546 8.27112 -1.9617 -2.17268 -0.422405
395 0.692342 2.94577 7.7656 -0.898853 1.54892 -2.36932
743 0.89958 3.37347 8.90675 1.17044 -0.869819 0.418295
380 1.35166 3.10235 7.01137 -2.07276 0.32076 -1.17807
250 2.98362 2.55884 7.43177 -0.77497 1.9665 0.767224
799 1.5878 2.51034 8.0438 0.338306 -0.975328 -1.32873
661 2.30808 2.87065 8.86901 1.13285 0.810168 2.74434
520 1.87848 3.58047 8.08654 -1.43431 -0.350526 0.46612
691 4.15274 3.36041 7.34665 -0.531205 0.0461462 -1.51886
327 4.4576 1.89803 7.60824 -0.396906 -0.661878 0.580259
692 3.0103 3.45779 8.1299 -1.47545 1.49517 0.199675
126 3.58633 2.43388 8.76246 -2.89305 -1.41907 -0.60497
543 5.50709 1.78782 7.94737 -0.569594 -0.441632 -1.76121
266 4.94665 2.35889 9.10589 -0.383741 -0.271321 0.966107
258 4.93221 2.78793 8.07014 -1.02467 -1.67277 0.730426
663 6.01779 2.64288 8.81145 -1.60999 -1.56823 -0.0643858
176 6.06558 3.21902 7.27828 -0.662884 0.298578 0.998101
579 7.07573 3.61805 7.58166 -1.12739 1.29161 -1.85852
706 7.08055 2.81761 8.54494 1.60873 1.14382 -1.10938
458 7.07396 2.46863 7.36945 2.94287 3.02555 -0.989447
346 8.04889 1.97459 7.63326 -0.535614 0.502917 1.39144
353 8.49466 2.96514 7.45007 -0.0807543 -1.11973 -1.65119
508 8.06785 3.43359 8.26502 -3.51962 -1.71428 -1.06171
637 8.23159 2.4412 8.6121 -0.765689 -0.918504 -0.279606
697 9.81584 3.47042 7.43419 1.32546 -0.32939 0.928363
88 10.6662 2.31738 8.74354 1.41065 2.42733 0.15701
161 9.2489 2.61606 8.01506 0.55272 1.25075 -0.486421
509 10.5528 2.51855 7.57824 0.17188 2.34685 -0.671247
76 10.0446 3.23514 8.34222 -0.390711 -1.05761 2.09843
159 0.297243 5.1322 7.96206 -1.89954 -1.68238 0.758877
417 0.857992 3.99958 7.82686 -1.38286 0.693094 -0.496277
11 1.32539 5.01642 8.89296 2.51788 1.05261 0.617504
401 0.041519 3.89126 8.69967 -1.1265 -0.497363 0.370782
420 2.26752 3.85816 7.19939 -0.599425 1.90773 -0.846302
17 2.15974 4.36023 8.71015 -0.223336 1.04297 0.832424
127 1.94601 4.63492 7.81009 -0.434678 -0.387808 0.549629
741 2.95368 5.11164 8.66378 -0.430478 -1.1257 0.0634378
33 3.48459 4.29817 8.53704 -1.02291 2.34948 -1.17057
328 4.34665 3.80048 8.30972 -0.144774 1.52467 0.320193
758 0.683464 0.21824 9.82302 1.1629 1.64701 -2.24598
860 10.2196 3.68924 10.5665 -0.0663839 1.45561 0.701584
833 4.76018 5.14615 7.89497 -1.326 -0.550893 0.949493
203 5.1107 4.30101 7.37704 1.06109 -1.31331 1.12177
478 5.59189 3.46428 8.3301 0.420359 -0.151045 -0.0566175
205 5.29287 4.30803 8.8999 1.04199 1.70698 -0.2048
545 6.05424 4.84227 7.8905 0.8983 1.53841 -0.788367
97 6.60079 4.19381 8.70562 0.807128 -1.06539 -1.56459
559 5.03781 0.0744972 7.58529 -3.02009 0.713805 0.412873
409 7.48971 4.39545 8.23868 -1.39985 -0.783355 0.333482
5 8.31007 4.33757 8.70698 -1.30384 -0.794789 1.23031
154 9.14207 3.90003 7.97012 -0.979176 0.0162087 0.338229
338 0.0774077 5.21628 5.40764 0.368069 2.60869 0.784771
839 10.2926 4.39712 7.64941 1.02079 -0.964318 -3.06144
125 9.34983 4.9244 7.89657 -0.0110889 -0.506001 1.61393
32 9.9144 4.7018 8.86627 0.344682 0.538623 0.456089
243 1.20731 0.736749 8.97923 -0.584181 1.24761 0.543415
583 0.437284 1.18689 10.2159 -2.44574 0.319113 3.608
812 1.34169 0.710294 10.7174 0.549308 -0.739312 2.05255
133 1.58246 1.43492 9.9775 1.23593 -0.211861 0.620768
218 2.90164 1.20553 10.4225 0.0828739 0.681417 -0.716766
405 2.37357 0.608879 9.72822 -0.686257 1.86278 2.44747
269 3.31052 1.40764 9.54134 -0.158184 -1.3352 -0.185728
198 3.37715 0.388138 9.9551 1.30124 0.838373 -2.91786
29 4.71135 1.61213 9.9642 3.48671 -0.443139 0.309527
146 4.1785 1.5881 8.90655 -0.0539012 -0.432904 -1.99203
254 4.27147 0.570031 10.3607 1.68423 -1.47926 -1.43265
709 5.73103 1.63703 9.40455 0.0963775 0.567306 0.384024
717 5.86908 1.60974 10.3293 -0.84869 -1.33847 -1.39594
64 5.28773 0.752993 9.75085 1.05622 1.09485 0.90508
804 6.21329 0.431175 10.154 -0.282804 -2.44213 -0.145706
349 6.0961 0.613806 9.07766 0.409638 0.201063 0.0460105
690 7.62243 1.8735 10.6793 2.62324 0.900984 0.852364
262 1.67884 1.19362 5.40159 -1.20313 -0.0283046 0.698818
31 7.54805 0.842378 9.4889 0.646464 -0.734862 0.938969
182 8.82922 0.534092 10.2248 0.270842 -0.799256 0.794819
86 10.3978 0.453422 10.1671 -0.678679 1.54422 -1.44353
111 0.26514 5.2423 9.41669 -1.50191 -0.838123 -0.291967
500 9.54849 1.35538 9.21267 -2.18603 -0.973284 1.19398
648 10.4459 0.297086 9.20971 -1.12358 0.0637566 1.31394
410 0.699 2.63071 10.1099 1.34083 -1.18265 -1.28642
103 1.19948 2.45319 9.10936 -2.68373 -0.923312 -2.22863
249 0.799463 3.5026 10.519 0.0332982 1.02895 -0.32584
271 1.72025 2.9494 9.72779 -1.11027 -0.342468 -0.774035
730 2.54525 2.28001 10.1637 -1.46757 1.73611 0.556608
196 8.14065 0.574254 5.46129 -0.563287 -3.10045 0.923535
223 4.46769 2.95362 10.6244 1.68381 1.87791 -0.085283
282 3.98564 2.92602 9.57644 0.804214 -0.225285 -1.04891
589 3.75964 2.05473 10.4693 -0.838549 -1.59605 -0.191921
58 2.95201 3.62109 9.3395 -2.07825 0.0779456 -0.953579
619 5.45525 3.50052 10.5619 1.49088 1.11783 -0.570108
13 4.90309 3.42605 9.40623 0.303884 0.962604 -0.663721
295 5.25614 2.51835 10.0018 -1.16046 0.146297 0.186732
26 6.63015 2.11181 9.38274 -0.75677 -1.26213 -2.68557
783 6.16587 3.20299 9.6763 -1.80518 1.44665 -1.37231
475 6.53566 2.57622 10.3455 -0.363631 -0.695201 -1.92914
525 8.8583 3.13101 9.18253 -0.140999 -1.79512 0.197815
37 7.7782 3.17402 10.2585 -0.545094 0.317557 1.39014
585 8.69245 2.00552 9.48651 0.144882 0.259275 -0.27246
45 7.65211 2.37092 9.65261 0.711542 -0.425869 -0.114644
662 10.1259 2.62577 10.4049 -1.82312 -0.221429 -0.410027
505 10.3547 1.85954 9.74888 -0.37103 0.0916193 1.18889
232 10.0554 3.45205 9.62513 -1.35743 0.116658 -0.607903
174 9.59319 2.35533 9.05218 -1.51014 2.86837 3.58629
438 9.37501 1.94044 10.4626 -1.07041 1.01059 1.24885
351 9.20496 3.30771 10.2641 -0.42268 1.10406 1.67385
406 0.777385 4.23262 9.80915 -1.87927 -0.232532 -2.00177
57 1.95317 4.86425 9.65191 0.192139 1.10537 0.374074
847 2.54268 3.45672 10.3166 -0.068455 0.138489 0.839274
698 2.86306 4.54978 9.87585 0.702696 0.927572 0.261898
742 4.04791 4.93039 9.54346 -0.539274 0.00981289 -0.318269
810 3.63217 3.94638 10.1479 -1.67788 0.0325147 1.00527
688 4.66376 4.40192 10.191 1.51412 1.42874 -0.207758
439 5.60358 4.2914 9.93927 1.67758 0.614077 -0.223588
576 6.72387 3.7972 10.2247 0.0216283 0.247003 0.20462
582 7.58995 4.9531 9.77752 2.8763 1.82372 0.822577
511 7.55991 3.71786 9.32111 1.26326 0.816514 0.272525
112 6.25584 4.96249 9.63713 -0.195188 -0.213665 0.326171
66 6.23917 4.51038 10.6149 1.71021 -0.47119 -0.457603
592 8.59382 3.99398 9.65625 1.79822 0.124778 0.576129
195 8.89222 5.24352 9.06492 0.621947 -0.627508 0.582541
495 10.333 4.7936 9.9591 -2.06275 -2.48772 -0.8041
257 5.66554 5.35635 6.94935 1.70514 -1.78697 -1.53803
385 1.48872 6.82026 0.63022 1.63158 -0.435862 -1.80723
156 0.949634 6.31087 1.24106 1.87755 2.23929 -0.188303
536 8.76715 10.3213 4.14361 0.53171 -1.61342 -0.135185
721 1.6328 5.56969 0.957833 0.549184 1.00401 -0.701459
84 2.69344 6.61013 1.75049 0.14321 2.56128 2.78447
289 2.78201 6.80411 0.606465 -2.30972 1.43705 0.215614
613 4.55946 7.07172 0.508698 -0.448653 -1.03829 0.218363
51 2.98201 5.92234 1.00965 -1.48002 -1.00626 1.5924
802 4.44857 5.87312 1.16238 -0.997146 0.531803 1.04194
199 3.67853 6.75832 1.33191 -0.111237 0.739399 0.717752
23 3.94731 5.71745 0.0204267 1.19228 0.887163 0.238005
580 10.0329 9.14208 4.56322 0.408257 -0.0742607 1.16164
675 4.19037 7.38758 5.14814 -0.836635 0.761051 -2.61725
862 5.44009 6.19153 0.89286 -0.0495461 0.421845 -0.0862591
9 5.68027 6.78237 0.199459 0.454189 -1.02839 -2.10997
621 6.58209 6.64392 0.959858 -1.1228 -0.584132 0.0946212
752 7.52615 6.14601 0.479036 0.296692 -0.776184 -0.787493
784 8.34039 10.2146 5.18958 1.9376 -0.817939 -1.25211
607 7.86195 9.68701 4.39524 -0.36936 -0.083554 -0.442067
595 7.45815 5.78662 1.54636 2.2473 -1.03804 0.704471
502 8.33382 5.44164 0.992121 -0.44619 1.30166 0.67619
574 7.93374 7.04442 0.147926 -0.121336 0.049066 -1.05237
746 8.48646 7.34865 1.329 -0.102588 2.57183 0.674759
652 8.75874 6.33458 0.402592 0.725976 -0.105997 -0.306925
471 9.8765 7.236 1.77686 0.569119 0.929245 2.80748
586 0.0645081 6.35243 0.144304 0.95964 2.22467 -0.0283886
344 9.64428 5.66729 0.33899 0.797187 -0.041304 1.34687
624 9.51424 5.92337 1.33473 1.03003 0.525276 1.01802
381 0.485549 8.72609 0.109914 -1.85784 -1.02502 0.363607
532 0.101575 7.41088 1.67611 0.0380995 1.6871 -0.10452
747 0.507176 7.64886 0.486076 -0.296024 -1.506 -0.290083
630 1.02788 7.57479 1.34206 0.305634 0.399366 -1.10372
61 0.174514 8.60707 1.37958 -1.26592 0.850406 -0.128204
485 2.17667 7.36169 1.37253 2.55712 -0.244139 0.0134943
695 2.3737 8.46332 0.480803 1.16167 1.64888 -0.720507
122 3.66709 7.74039 1.65906 -2.90771 -0.621457 -0.36034
800 3.79485 8.5809 0.985858 -1.74879 -1.79499 1.25874
590 3.4178 8.80783 0.0211822 0.390123 -0.386909 -0.200558
534 4.58306 9.04288 1.83845 2.12131 -0.134967 1.71858
25 3.61482 7.68599 0.264224 -0.560406 0.164365 0.28412
368 4.58764 7.77145 1.17832 -0.125409 1.04886 -0.326699
838 5.57626 8.70991 1.11592 -0.655813 -0.966913 -1.18672
540 5.44339 7.76411 0.372503 0.747338 1.70572 2.13412
714 6.60791 7.9697 1.3737 -1.30271 0.339438 1.36808
635 7.22319 8.74962 1.67621 0.954204 0.684305 0.468377
654 6.71212 8.06463 0.168399 -0.252343 1.07245 0.744758
440 7.45923 7.40562 0.924483 0.603913 0.74085 -1.25118
382 8.99597 8.93336 0.388141 -0.584216 0.237709 1.92788
831 7.69491 8.58022 0.733823 0.0178403 -1.00831 1.80826
859 9.18524 8.1191 1.29364 0.224326 -2.35089 0.479464
814 8.28518 8.98766 1.7239 0.216102 0.139013 -0.529035
94 9.31823 7.12456 0.755819 -0.280239 -1.87157 1.29713
377 10.2474 9.00314 0.614515 -0.521493 0.856585 2.45741
683 1.05553 9.96872 0.988204 1.83109 0.000436054 -2.59659
233 1.46914 8.89515 0.743692 0.51181 -0.300376 -2.7602
791 0.147188 9.59695 1.61959 -0.687125 0.113698 1.78466
745 0.980694 5.45017 5.11467 -0.0867414 1.55237 0.212655
466 2.08131 10.27 1.26934 0.469731 -0.82514 1.28827
362 2.78985 9.33574 1.50697 1.12889 0.0899506 0.663559
340 2.09859 9.75575 0.407391 -0.536975 2.04161 1.57628
469 4.27614 10.5034 0.392614 -0.710583 2.50902 0.808535
366 3.31255 10.6383 1.14038 0.549638 -0.897431 1.77504
731 3.13815 10.1646 0.0979444 -2.34657 0.258761 0.780037
604 4.05836 9.67861 1.35714 -1.05181 1.22255 0.955448
694 5.78641 10.611 1.81973 -0.418292 0.591053 1.22846
333 4.93906 9.59844 0.267448 -0.743696 -1.96431 -0.689147
739 7.11846 10.4118 0.59836 1.55363 -1.35178 -0.476569
489 6.74156 9.10896 0.858349 -2.10003 0.251522 0.213596
358 7.46954 9.67625 1.57637 -2.18013 -1.10832 3.94957
829 8.97762 10.3781 1.57789 -0.462355 1.55438 -0.269587
616 10.0266 9.13649 1.63026 1.14591 0.624981 0.775086
14 9.58856 9.86461 0.906842 -0.131083 0.670768 1.45084
771 10.1657 10.6652 0.49289 -0.147755 0.14255 1.34484
115 0.520185 6.84673 2.9082 -0.442416 0.712257 -0.343904
119 0.349772 5.67206 1.87167 1.54424 -2.53698 -1.36202
75 0.855015 5.64158 3.30044 0.649941 -0.818343 -2.44711
158 1.42726 6.25449 2.5787 -1.63459 0.836138 -0.869918
3 2.55266 7.13269 2.68268 -0.810529 -1.15819 2.92824
416 2.08591 5.56311 1.83645 -1.13547 -1.00541 -0.666398
484 3.01656 6.17789 2.67511 0.230416 0.390327 -0.127864
781 1.57241 7.36372 3.28541 -0.391654 1.77214 -0.553748
704 1.68223 6.13184 3.73215 -0.431112 0.735204 2.88324
285 3.72463 6.95438 2.35578 0.902199 3.27157 0.17341
167 3.79384 6.11234 3.62642 0.960816 0.0773366 2.03648
90 4.46255 6.12541 2.42776 0.110342 -1.07111 -0.776424
378 3.72374 7.07776 3.3836 -0.164001 -1.04397 -0.72891
201 5.55851 5.75723 2.65074 -0.040185 -1.04048 0.463508
135 4.96308 6.29092 3.316 0.321034 0.163036 2.53464
857 5.90393 6.47359 3.21319 -0.380404 2.252 -1.39874
187 4.67796 7.11807 1.91179 -1.69929 0.88256 -0.337116
431 3.20208 10.1541 5.2885 0.67926 -2.49658 -1.72094
212 6.64316 6.31675 2.07788 -0.39896 -0.705416 -1.66843
373 9.84294 10.1592 4.27538 0.298663 0.17738 -1.92513
73 8.61234 5.65487 1.96485 2.3039 -1.71253 -0.284043
732 8.17878 5.9042 3.1983 -0.923391 0.497681 0.745796
20 7.67807 6.70572 2.04416 0.477624 1.96 -0.758571
609 8.92185 6.65934 2.10637 -0.471148 2.44097 0.00396655