ITEM: TIMESTEP
46260
ITEM: NUMBER OF ATOMS
864
ITEM: BOX BOUNDS pp pp pp
0.0000000000000000e+00 1.0726842421158810e+01
0.0000000000000000e+00 1.0726842421158810e+01
0.0000000000000000e+00 1.0726842421158810e+01
ITEM: ATOMS id x y z vx vy vz
415 0.0591762 0.814157 1.38902 -2.04026 1.15127 -1.43251
683 1.52983 0.516898 1.20865 -2.30472 -0.926366 -1.54484
660 0.912171 1.55951 1.03012 -1.19555 1.12569 1.83418
1 0.351122 0.306515 0.582961 1.31377 2.56791 0.50312
591 2.55665 1.8512 1.54936 1.56164 0.451309 0.298163
152 2.66679 0.744227 0.940125 -0.69765 1.80495 0.497141
162 2.14711 1.49523 0.0890886 -0.199165 1.71502 -0.515267
461 1.75116 0.105263 4.66716 0.877693 -0.405827 0.735032
507 3.42662 1.77989 0.813769 1.18086 -0.996049 -0.0981418
642 4.58266 0.862346 1.73566 1.28114 0.529523 0.832635
28 3.80889 0.630107 0.794496 2.01497 0.457667 -1.30446
835 5.9042 1.65501 1.10075 -0.865396 0.00303967 0.604424
801 5.25373 1.09098 0.519922 0.349631 0.298932 -0.168122
247 6.5043 0.94766 0.598053 0.129532 0.123522 1.26564
684 6.88862 1.89449 0.581648 1.02715 -0.144765 1.06095
383 7.50541 0.860329 0.656931 1.80094 -0.394765 -0.281655
713 6.9239 1.71062 1.58166 0.822133 1.85517 0.840995
334 7.11208 0.112927 1.26333 0.154389 -0.511837 0.0656388
42 8.52874 1.25208 0.935103 0.34234 -0.803002 -2.59025
177 8.16107 0.00149604 0.174364 0.442321 -0.564269 -1.37844
689 9.08982 0.247026 0.957418 1.69113 0.20462 -1.01694
570 10.2586 1.00768 0.525593 -1.07791 -0.580399 0.257974
522 9.60058 1.10833 1.26641 0.580686 0.528586 1.54674
716 9.22273 1.50302 0.162728 0.580598 -1.08565 0.59343
860 0.0873401 3.19092 0.170434 0.0225639 0.477745 1.73295
363 1.63782 2.01621 1.63938 0.177517 0.0215234 -0.956061
599 0.898417 2.47185 0.462352 -1.19042 1.88896 -1.05686
345 1.5726 3.30379 0.977675 -2.21559 -2.10885 -0.42477
553 2.56369 2.69483 0.836227 0.126505 -0.373438 0.136356
80 2.80123 3.22995 1.77207 0.270229 -0.125286 0.963857
770 4.56751 2.35462 1.69342 -0.309126 1.73849 -1.04366
53 2.80652 4.19116 5.21756 0.562487 0.0514901 -1.3892
443 3.63614 2.85909 1.24938 -0.857706 0.985937 1.11699
184 4.60554 3.51225 1.8102 -0.125413 0.453633 1.76978
284 4.87039 3.03782 0.769654 -1.33411 0.0717028 -0.00894248
240 5.57595 2.884 1.55605 0.573616 -0.99087 0.602228
231 4.6749 2.03273 0.495167 -0.729549 -1.47481 1.33391
7 6.0304 2.56989 0.645925 -0.054393 -0.375807 -0.765355
93 6.69647 2.75162 1.4456 -1.45222 0.560289 1.55559
760 7.48424 3.40868 1.71304 -0.260816 1.46574 0.0170011
68 6.14297 3.54435 1.04186 0.26238 -1.51441 0.481776
488 7.64917 3.04951 0.353493 3.13032 -1.58484 1.20672
137 8.92835 2.97555 1.50494 0.467167 0.00902369 1.44742
189 7.68435 2.2722 1.06679 -1.47639 -2.36267 0.466476
460 8.6434 2.52083 0.150816 -1.18539 -2.7119 1.09418
357 10.6942 2.15191 0.97672 3.52219 0.180632 -2.79771
662 10.095 2.13035 0.134031 1.83818 -2.10608 -2.07349
428 0.00223067 3.3546 1.25478 0.17368 -1.41161 0.0552724
294 0.0549516 4.64307 1.71506 -0.678455 -0.185301 1.56992
374 0.118606 5.0796 0.626713 0.76056 0.414283 -0.425542
106 0.751826 4.30464 1.04484 0.973367 -2.99822 1.4339
2 1.79241 4.82448 0.0677852 0.453263 -1.35833 -0.410842
627 2.46313 4.11012 0.597932 -0.176042 0.508035 -0.148768
864 2.94136 4.87484 1.18749 0.965267 -0.651306 -0.515086
43 4.09067 4.61092 1.09796 -0.930521 -0.235711 -1.25487
391 3.70824 3.82299 1.66014 1.07045 0.0498419 0.338422
215 4.18212 3.66417 0.428492 -0.201143 -0.195075 0.309718
23 4.17811 4.73545 0.0203922 0.488997 2.16883 -0.647833
62 3.29826 4.32273 0.00373073 -0.0210978 -1.21413 -0.809667
66 6.06692 4.89709 0.493245 0.494306 1.27566 -0.33771
688 5.3764 3.91634 0.56878 0.0305544 1.28092 -1.89102
321 4.99058 0.00254574 1.30323 -3.47059 0.0541617 1.97572
669 6.9272 4.17459 0.950563 1.33726 0.0459347 -1.92944
780 8.63538 3.51343 0.653931 0.899169 -1.7897 2.93358
425 8.48675 3.9882 1.59585 1.45473 -0.30724 -2.16654
624 9.14236 5.22596 1.0895 -2.04128 1.20606 2.4189
678 8.20797 4.52341 0.460082 -1.82881 -0.939696 2.95226
809 9.67189 3.82336 0.398229 -0.332657 1.19558 -0.99715
223 3.98843 2.46818 0.0412559 1.44366 1.33278 1.63944
175 0.655859 1.50252 2.52384 1.93139 0.733777 0.846216
142 1.08193 0.45641 3.52199 0.0907926 -0.397771 0.266185
581 0.680534 0.263126 2.31386 0.433027 0.324421 0.461071
490 2.04584 0.832359 2.75289 -1.53014 -0.504998 1.36945
204 2.57301 1.93095 3.30273 -2.02867 -0.405517 0.0331946
138 2.99805 0.97622 2.07019 -0.84245 -1.03725 0.060072
681 3.94062 1.53967 2.30365 -0.922633 1.41489 -0.019199
140 3.69805 1.37905 3.39726 -1.23608 1.06955 -1.55012
317 9.68931 4.26713 5.1103 0.221114 -1.10012 -1.19014
435 5.03448 0.357605 3.17604 1.47266 -1.38064 0.895502
331 6.09657 0.00956892 2.62859 2.61994 -2.48743 -1.39232
153 5.62043 1.32015 2.99844 -0.434862 0.606325 0.389345
403 6.39831 0.697819 1.81354 -1.52835 -1.46727 -2.53309
350 6.74178 1.22345 2.60919 -0.466497 -0.458282 0.0981288
89 7.54417 0.721607 1.91483 -1.10434 1.06791 0.543174
224 7.12285 0.594563 3.37715 2.72831 1.50747 0.374712
493 9.10573 0.896934 3.11808 -1.24513 -1.88146 1.26592
496 8.8474 0.679832 1.9886 -0.0897106 0.0436669 -0.250568
293 7.88158 1.66505 2.33961 0.893015 1.48278 -0.275894
307 8.04005 0.698213 2.90108 0.253338 -0.661478 -2.38603
226 0.013768 0.255715 3.16881 0.367687 -0.805158 0.319631
685 10.3439 1.62842 1.89245 0.918389 0.397296 2.32342
819 9.90179 0.400418 1.92804 0.159991 0.737958 1.07894
310 0.35006 2.58968 1.98264 -0.78417 -0.83087 -0.798567
542 0.689761 2.99254 2.89153 2.23323 1.69522 0.955673
851 1.5505 2.08485 3.43597 1.50169 -0.426757 0.397204
124 1.2562 3.27511 1.91509 0.611291 0.300828 0.0540975
603 1.84979 2.49376 2.60144 0.564773 0.778013 -0.12434
779 2.89043 2.40538 2.36541 -0.0499615 -0.685539 1.70311
605 3.4719 3.00621 3.58401 0.442801 1.36685 1.45303
392 3.85019 2.69461 2.23871 -2.04434 -0.00193577 -1.11739
400 5.09789 1.89883 2.28599 -0.504432 -1.23775 1.26407
680 5.9036 2.48714 3.23223 0.183013 -1.98529 0.0670331
560 4.69934 3.2853 3.25594 -1.94679 -1.64177 0.47362
179 6.38456 2.37149 2.33107 1.42915 -1.48237 -0.272529
394 7.07269 2.36915 3.07181 -0.0361342 -1.1149 0.072216
482 6.8525 3.21799 2.52687 1.14222 -0.710065 -0.661202
614 6.729 3.11265 3.81604 1.91272 0.747179 1.14045
803 7.86975 3.17813 2.77117 -1.50663 0.286948 2.11846
629 8.31704 2.39652 3.38711 -2.39746 0.488518 -1.61087
371 8.74234 1.87716 1.68857 -0.193785 1.83431 -0.149521
858 9.03813 2.53182 2.68562 -0.58963 -0.53627 -3.18995
388 10.0829 2.83044 2.45537 3.11107 0.963741 -0.0738529
843 9.624 3.75703 1.66263 0.257445 2.39179 -2.22967
151 1.07756 4.76548 3.12465 -0.777766 1.07799 -0.330661
335 1.08357 4.25764 2.02401 1.37742 1.10218 -2.39341
611 10.3471 2.98178 5.30124 0.415395 1.45816 -1.62228
183 1.50666 3.52726 3.43008 1.16792 0.477765 0.303169
512 2.03839 3.9321 1.63717 0.0541745 -0.937036 -0.0998786
207 2.32661 3.42274 2.93059 -2.21171 -2.30103 -0.687783
658 2.08935 4.71784 2.93151 -1.62606 -0.0107883 1.02971
288 5.88959 4.86894 5.32586 -0.56533 -0.894678 -0.278423
98 2.79297 4.44591 2.07158 0.129748 -0.923114 -1.00355
398 3.49167 3.69639 2.62547 -1.40926 -0.433963 -1.64396
65 3.60119 5.26817 2.10398 0.034752 1.33726 -0.177463
568 4.57573 4.29537 2.98758 1.82565 -0.807982 -0.521329
402 5.46154 3.58997 2.60542 -2.64528 -0.979785 0.645727
575 5.18906 4.58515 2.13314 -0.596896 -0.765738 1.09466
527 7.45961 4.44644 2.28301 -0.88092 0.765108 -1.65003
432 6.62541 4.08204 2.87683 -0.296942 -0.224278 0.786493
820 6.10065 4.26938 1.82252 -0.462133 -0.852417 -1.35308
666 9.75994 4.74913 4.28862 -1.39342 -0.0860289 -1.57182
423 7.18721 5.3163 2.75856 -0.113032 1.21091 -1.44951
354 8.80298 5.12539 2.37956 0.963929 -1.06172 0.398659
120 8.69971 4.09863 2.6883 -0.969583 -0.617212 -0.460684
483 10.1189 4.85671 3.21904 -0.00562479 0.574504 -1.05132
209 10.1186 3.55325 3.22633 -1.86583 0.527019 -0.496314
464 10.6003 3.81011 2.29412 0.0319973 -0.942343 1.57478
479 9.59089 4.3623 2.39684 0.394681 -1.94061 -0.35376
150 2.39296 5.33027 3.66143 -1.69718 -0.405545 0.171221
449 0.533347 0.382921 4.31835 -0.592306 -1.24657 -0.482319
219 0.779993 1.77809 4.07208 -0.164279 -0.19941 -0.475113
437 1.26161 1.03817 4.48807 0.256166 0.185391 -0.632153
777 2.66868 0.467601 4.88153 0.836148 1.96829 2.90142
297 2.80562 1.60223 4.34727 -0.466141 1.72066 -1.19649
845 1.96479 0.985988 3.70867 -1.20547 2.31925 1.12103
252 9.91474 5.20027 0.506608 2.58222 -0.425987 0.167362
687 3.67161 0.390096 5.25616 0.438399 0.407478 -0.168587
643 4.12603 0.229749 4.04076 -0.0785501 -1.12695 -0.153156
370 2.96998 0.65294 3.74689 -1.31129 0.0706007 -1.77879
278 4.15595 1.17968 4.51492 1.30938 1.22699 -0.228786
414 5.17354 1.51484 4.59756 0.495804 -0.656145 1.12227
601 5.43116 0.531025 4.52956 1.07094 -1.53151 -1.42899
504 6.23645 0.712689 3.72702 0.316317 -1.26758 1.75385
196 7.99248 0.721829 4.93171 1.10224 -0.698951 0.885163
550 7.09165 0.345239 4.37053 0.466417 0.529633 2.06665
703 7.67904 1.4751 3.39212 -1.11235 -1.14889 -2.50192
446 6.63063 1.63956 4.57987 1.38093 1.35065 -0.00968439
225 6.31919 0.631564 5.03175 -1.01603 1.71807 0.697132
696 9.26036 1.38437 4.74004 1.52257 1.61174 -0.747906
468 9.37601 0.0971182 3.9298 0.923989 -0.0116478 -0.540231
180 8.45015 0.837477 4.006 0.965955 0.507165 -0.165193
314 10.6727 4.13834 5.18254 -0.477581 -0.096478 0.314486
228 9.70393 0.574627 4.8584 0.165041 -0.489066 2.26053
21 10.5775 1.12739 4.61898 1.53367 2.06704 -0.382964
811 10.1664 0.999946 3.39538 1.9093 -1.66256 -0.263668
834 0.722368 2.84902 5.20298 0.321856 -0.0293669 0.795815
168 0.764411 2.79995 4.01632 -0.00748897 -1.57937 1.97509
664 1.81213 1.95101 4.72408 1.72096 -0.939595 -1.33361
523 2.07468 3.08643 4.79558 2.90637 0.610516 0.392723
564 2.14432 2.78971 3.85008 0.575323 -0.79919 -0.392101
538 3.86038 2.10632 4.21204 0.718436 0.418992 1.99844
518 3.10846 2.97112 4.69658 -0.435315 -2.10708 1.65454
753 4.5724 2.09903 5.09836 -0.772245 -1.50036 0.333869
429 4.08178 3.17024 4.6872 -1.91954 0.870763 -2.62444
157 4.97387 2.32431 3.94585 -0.215802 1.14239 -0.263182
647 5.23935 3.06481 4.79408 -0.120623 -0.265909 0.624159
433 5.58485 3.34777 3.80728 -0.111219 2.72693 -0.982434
34 6.91397 2.61271 5.23529 -0.469216 -2.14139 -0.945361
757 7.65841 1.752 5.15672 0.381084 -1.79345 -0.714814
622 6.56248 1.68519 3.62314 0.161579 1.50178 -0.79786
837 6.00137 2.51656 4.4586 0.118256 -1.08708 0.46872
211 7.5125 2.62471 4.36158 0.135235 0.691973 -0.18018
453 9.3424 1.8185 3.66416 1.13186 -0.351175 0.364774
492 8.45586 3.50698 3.61135 1.05565 -0.357599 0.822315
85 8.68615 2.55124 4.29639 -0.696779 -1.95409 1.54317
190 9.57875 3.25261 4.03714 0.226497 -0.56925 0.838034
587 10.7138 2.14876 4.855 -0.245351 0.68556 1.72522
578 10.2364 2.57377 3.51774 -0.145708 0.490593 -2.88698
650 10.6354 3.40923 4.37422 1.64961 0.873221 1.34311
222 9.82854 2.31924 4.51071 1.83391 2.80077 -0.455871
19 9.39313 3.31597 5.10586 -1.19245 0.739973 0.385667
355 0.861032 4.99199 4.95248 -1.25504 -0.442971 0.925376
506 0.204532 4.48915 4.13258 -1.56246 1.07903 -1.18098
657 1.31311 3.97162 4.68475 0.14437 -0.99091 2.44829
501 6.49255 5.23599 4.49225 1.265 0.0731438 -0.703829
12 1.94887 4.41397 4.05227 1.46786 -0.817818 -0.259949
769 0.924591 0.441259 5.33408 -1.04114 -0.562386 -0.318947
221 2.74667 3.8589 4.01253 0.0666067 1.34613 0.486564
467 3.66748 4.85231 3.35252 0.238524 1.26325 -1.86797
60 3.66767 4.71952 4.97514 0.906207 0.429725 -0.0231353
50 3.74555 3.98208 4.11562 -2.28906 -0.463524 -0.699727
132 5.06785 4.61506 3.96382 -0.930053 -1.266 -1.53996
476 4.54937 4.04385 4.88687 -0.274034 1.0481 1.7975
667 7.57632 5.331 5.10647 2.04706 -0.450751 -2.03861
242 7.42199 4.09614 5.10087 0.151877 0.236377 0.729418
634 6.31376 3.81867 4.66129 0.141546 0.541762 0.852396
419 7.4335 4.16642 3.95861 -0.364501 0.300921 1.18426
863 6.34713 4.70042 3.63211 0.310084 -0.763875 -0.552765
67 8.75894 0.111159 4.85773 -0.561706 0.306703 -0.821003
571 8.47671 4.44797 4.73916 -0.56861 -0.652361 -1.15735
755 9.34867 4.21104 3.54184 2.47135 1.67892 0.348009
846 8.28258 3.31895 4.8099 -1.25743 -0.350497 -0.375238
407 8.71116 5.16852 3.65106 -0.117376 -0.939344 -1.89365
296 6.96736 5.32397 0.964535 -1.41609 0.427385 1.22671
470 9.85511 5.32712 2.00878 -2.30414 0.0155395 1.77551
766 5.23509 5.23919 0.6779 0.425723 -1.8516 -1.82964
301 0.660482 1.29554 6.60224 1.0679 -0.347169 1.82257
79 0.729943 1.50655 5.39096 -0.513978 0.550742 -1.51459
796 0.885237 0.241313 6.46896 -1.45032 1.22062 -1.46549
5 9.18805 5.34992 8.88665 -1.36854 -0.104833 -2.28816
315 2.10799 1.1417 6.60412 -2.07418 -0.136615 1.67791
480 1.8477 0.104798 5.93108 0.18778 1.56062 -0.823299
361 2.65999 0.271825 6.89766 2.90942 0.932734 0.751737
313 2.84489 0.73912 5.76485 -2.03288 -0.0455551 0.150379
513 3.76316 1.75477 5.77191 -2.01375 1.33991 0.831824
516 3.26839 1.13792 6.79038 -1.2163 -0.197257 -0.549347
444 4.3323 0.506346 6.06002 0.508758 1.15934 -1.61029
347 2.79915 2.06479 5.97132 0.0638933 -0.672166 1.51089
18 4.80735 1.05047 6.76888 1.22283 0.348939 1.87749
30 5.26458 0.353406 5.66812 0.507682 -0.357415 2.1306
261 6.20389 0.152477 6.13675 -0.167778 1.36271 -2.24364
727 5.58639 1.89333 5.4315 2.67812 0.784832 -1.74509
44 6.69715 1.61963 5.73087 -1.22329 0.242413 -1.50441
651 6.59111 1.04766 6.98836 -1.22715 -1.73011 1.47594
22 8.94821 0.968417 5.75486 1.53672 -1.25098 -0.950346
160 8.77973 1.22586 7.01671 -0.944764 1.96599 0.179795
244 7.89593 0.800637 6.16892 -1.84938 1.83044 1.32187
617 8.9329 0.119186 6.90329 0.580446 0.083079 -1.57552
426 7.6147 1.41904 7.15537 -0.936155 1.10392 1.51022
130 10.4113 1.51832 6.15074 0.557184 0.21043 -1.15426
594 9.5782 0.261486 6.05557 1.02375 0.563475 -0.51009
567 0.476845 2.40652 6.72537 -1.56227 0.167474 -0.370188
286 1.31483 2.77133 5.99049 -1.34755 -1.11025 -2.11445
793 1.83555 1.94013 5.91169 -0.907232 -1.3963 -2.35964
569 2.84685 3.17221 5.67383 -1.00045 1.62333 -1.98583
797 2.41634 2.14098 6.87908 -1.49359 0.239119 0.0246798
380 2.33948 3.61316 6.90053 -1.03367 2.23203 2.39953
789 3.6767 2.3928 6.59717 -0.841707 -1.22519 0.566403
733 3.63396 3.71051 5.50493 -0.75572 2.60105 -0.4969
676 5.62417 1.71285 6.54959 0.267337 -0.0142975 -0.489247
641 4.37203 2.79393 5.7948 -2.24059 -0.333086 -0.168222
176 6.01309 3.40314 6.94385 0.540823 -0.383852 0.384096
216 4.83265 2.32026 6.73717 0.333211 1.07221 -1.43094
612 5.64833 2.78333 5.9438 -0.507102 1.12233 0.826138
711 6.77883 3.02313 6.36277 1.53792 2.64443 -0.754679
699 7.64254 3.34566 5.7055 0.186815 0.0611356 -2.62357
404 7.60151 2.39454 6.71257 0.667072 -0.144535 1.48651
718 8.39511 2.98614 6.63302 1.52899 -0.956191 0.952926
149 8.34858 1.85314 6.2378 0.65837 -3.32115 -0.368791
40 8.57439 2.60331 5.44 1.69206 -0.245773 -1.34318
833 5.41651 5.33353 8.33528 0.199124 -0.266758 -1.12111
427 9.37128 2.95896 6.25501 1.36579 0.31304 1.84422
701 9.65884 1.91184 6.95613 -0.0990378 -2.10662 -1.79106
275 10.5411 3.35383 6.76207 0.358498 0.645568 1.29891
77 9.50435 2.0561 5.69887 -1.03181 -0.220255 -1.08189
491 0.819046 3.73694 5.58114 -1.31674 -1.60578 -0.241059
849 0.398188 4.33649 6.77223 1.40268 0.136195 0.592443
659 2.5743 4.99468 6.07939 2.86942 -2.07619 -1.30158
448 1.74588 4.68528 6.8349 -0.221676 2.27646 1.79542
306 2.74668 4.54246 7.06237 0.23015 1.479 1.23586
670 1.81671 3.99866 5.69019 0.576362 1.09715 2.46801
691 4.22942 3.43473 7.02985 -1.91335 -0.81065 2.14386
673 3.83486 4.54786 7.2913 2.01379 -0.624032 -0.236696
841 3.82423 5.32998 6.44133 1.70112 0.679493 -0.300733
267 3.40524 3.84938 6.6126 2.08325 -0.423612 1.27691
257 5.42362 4.92091 6.94372 -0.905994 1.62687 1.17258
272 5.06944 3.96661 6.548 0.979557 0.172572 0.11014
764 0.389343 5.09455 5.87115 0.0587915 -1.69217 -0.813969
715 0.655059 5.24881 6.94015 1.96337 0.944551 0.0755644
170 6.53355 3.81068 5.69323 0.342254 0.859449 -0.434882
92 6.89965 4.09606 7.02924 1.43141 -0.898291 1.06667
305 7.05004 4.6747 6.19286 1.85503 0.255405 0.618524
336 8.12755 4.77885 5.81177 1.90659 -0.193749 0.691021
253 8.69773 3.88831 5.83193 -1.76657 -0.278065 -2.09854
375 7.74801 3.81529 6.55772 -3.83708 -0.445548 0.0671546
54 8.91166 4.88658 6.51523 0.705102 -1.86292 -2.31024
697 9.70346 3.96062 7.10135 0.361695 -0.373133 0.0935734
406 1.82447 5.07788 9.69296 -2.55948 -1.23244 2.76849
748 10.1921 5.09239 6.35648 -0.472457 1.98301 0.996997
665 10.0102 4.10944 5.99846 -0.60993 0.9796 -1.22198
653 0.693341 1.72608 7.52876 -1.45314 -1.95155 2.38532
117 0.228508 0.81761 8.81363 0.730068 1.63633 0.253859
197 10.6797 0.973504 7.77306 -0.467507 0.258966 -0.615637
243 1.27178 0.566302 8.29623 1.18796 0.315093 0.0271059
250 2.90808 1.70969 7.76054 0.881804 0.652295 1.16559
517 1.73957 1.18622 7.65757 -0.721007 -0.686998 -0.441076
596 2.12085 1.27484 8.59416 -1.99556 0.536574 -1.02441
544 3.38329 0.563422 7.85815 -0.360423 -0.0775845 -1.10414
342 3.03465 0.371799 8.73028 0.231914 -1.44489 -1.15855
744 4.25721 0.170895 7.21135 2.2019 -0.887217 -0.836025
360 5.0176 0.621431 7.84181 -0.966542 2.19873 1.92045
327 4.00502 1.35132 7.54873 -0.145188 -0.868259 -0.799582
290 4.00521 0.546713 8.699 -0.519371 1.43218 -1.41815
543 5.6913 1.55381 7.61764 1.00186 1.35289 2.83636
524 6.02727 0.474158 8.18866 0.989162 1.34649 0.207253
556 1.6597 0.158262 7.15717 0.000396716 0.810715 1.82006
166 7.10259 0.109821 7.51916 1.61227 0.885698 -0.602309
210 6.41372 1.56116 8.30008 -0.218464 1.21637 0.555656
291 7.15447 0.708397 8.4246 0.177265 0.932959 -0.301607
445 8.09247 0.929273 7.88926 0.133079 0.212882 -0.224364
346 8.54367 2.29535 7.89291 -1.4843 0.874555 1.07191
172 9.02158 1.10542 8.25342 1.42097 -0.536162 -1.32957
72 9.62919 0.435865 7.62458 0.327998 0.314632 -1.2953
728 10.1671 1.59076 8.33435 -0.231085 -1.15159 0.473849
588 9.85095 0.560348 8.74932 1.10132 2.02219 0.0157738
395 0.691468 2.73277 7.80633 0.804766 -2.83276 0.627449
384 10.6026 2.29803 7.5329 2.26527 -0.762804 -0.765905
88 0.122987 2.25417 8.64629 -2.62379 -0.517604 -0.153173
555 1.60303 2.82185 7.14422 0.834362 -0.420559 -0.789856
799 1.69855 2.27781 8.17732 1.36782 1.33995 0.870616
661 2.68375 2.60205 8.60285 -1.43867 0.243125 -0.724284
692 2.596 2.93131 7.54435 0.661609 -0.186061 -0.497815
743 0.913395 3.28655 8.7054 -0.322903 0.286747 1.3149
520 2.10498 3.49707 8.45269 -3.01135 1.53261 -0.377885
266 4.23256 2.8721 7.99099 0.88306 0.16246 0.945287
420 3.30062 3.65446 7.73256 0.0698704 0.716664 2.40556
17 3.48582 3.37817 8.63847 -0.901427 1.19678 0.851797
126 3.72591 2.40984 8.67859 -0.531576 -0.453923 -2.10386
709 5.52151 1.85521 8.81027 -1.98217 -0.961426 0.51387
258 5.06405 3.41918 7.55576 0.678516 1.16337 0.00320015
663 5.95306 2.62862 7.97319 1.71507 -0.771818 -0.742588
191 6.64932 2.12789 7.29112 -0.886527 -0.348533 0.344677
579 6.88654 3.29015 7.66523 -0.782558 -1.00504 0.674577
706 6.66972 2.38006 8.84528 0.989241 0.568999 1.20206
97 6.27242 3.6261 8.52073 0.547168 0.735401 0.965666
274 8.04611 3.02248 7.56334 -0.774373 0.335557 -0.697066
325 7.35091 1.68555 8.86044 -1.83868 -0.13255 -1.92081
458 7.37969 2.20912 7.94745 -1.72375 -0.579652 1.3248
161 9.24036 2.04267 8.6425 0.977873 0.641484 -0.306078
353 8.87131 3.13451 8.28777 -1.05969 0.499965 0.114278
509 9.67799 2.79502 7.78816 -0.519751 1.94787 -0.304992
154 9.83267 3.37056 8.6066 0.0123788 1.05463 0.60178
839 0.178593 4.67332 7.75669 -2.67167 -0.0719927 0.878432
76 10.7089 3.77279 8.44231 -5.09881 -1.04874 0.468387
773 8.40873 0.173599 8.53588 -2.35224 0.0660764 -1.90235
159 1.00858 4.3476 8.27297 -0.433757 -1.36327 0.264561
417 1.0653 3.60183 7.17072 1.88913 -2.0282 0.622978
127 2.00004 4.89309 7.99424 -1.29817 0.829684 0.654116
11 2.0643 4.60975 8.88404 -1.30245 0.636735 1.17942
104 4.42262 5.35327 8.78202 0.433618 0.894736 0.548998
33 4.00749 4.42267 8.43451 -0.734461 0.288548 0.784691
618 3.07215 4.74243 8.02035 1.19344 -1.44847 -0.498378
203 4.70851 4.80629 7.75264 0.626082 0.744893 1.43099
328 4.95159 3.77721 8.49129 0.304533 1.52475 1.09298
478 5.61523 4.48227 7.8807 1.75805 -2.3701 -0.425201
762 9.05791 0.227315 9.50699 1.00843 1.53368 -0.806518
442 6.59833 4.73027 8.01421 -0.433875 0.26941 1.3245
531 7.46474 5.08275 8.58271 -0.190111 -0.979274 -0.879229
409 7.60923 3.89103 8.15449 1.70834 1.26209 0.0710671
600 8.27055 4.79039 7.96178 -0.708081 0.570531 0.178386
260 8.47597 4.14093 7.15181 -1.14071 0.119949 0.600954
125 9.21764 4.42547 7.94677 -0.411559 1.71145 -1.55359
719 9.92157 5.01826 7.32937 -1.20173 0.681787 -0.294145
292 10.0249 5.07448 8.42197 3.43826 -1.39029 1.5134
32 10.2115 4.21206 9.24806 -1.47379 0.804362 1.61255
131 2.58348 0.51887 10.6051 -0.503803 -0.037878 -0.316757
505 0.21297 1.7917 9.58327 -1.44333 -1.98604 1.09057
583 0.353683 0.820234 10.056 -1.30627 -0.461925 1.58962
686 0.452453 1.60101 10.6546 -0.524485 0.532197 0.957063
410 1.06726 1.15325 9.36944 -2.22522 0.902719 -1.69158
133 2.40352 1.63478 9.68205 -0.0435923 0.134812 -0.04786
812 1.7431 0.713201 10.088 -0.0677599 0.312123 0.605568
405 2.09655 0.0909249 9.31146 -0.426948 -1.03547 -0.309965
720 3.75184 0.122334 10.6642 -0.894594 -1.98489 0.360624
269 3.25047 1.4226 9.12096 -0.535261 0.17084 0.363931
198 3.09615 0.447197 9.79909 1.52472 -0.262322 -2.22777
29 4.005 0.984607 9.7836 -2.52156 3.06797 -0.0170653
282 3.91641 2.05802 9.74277 1.67374 -0.114518 -0.211415
218 3.29837 1.28469 10.6085 -3.26893 -0.214813 -0.980219
826 7.19295 5.1103 10.4942 -0.943911 0.24783 1.2365
389 4.98945 0.519526 8.90428 3.5287 -2.76959 -0.0405735
146 4.38941 1.51439 8.71872 -1.12763 0.186799 -1.12704
254 4.8541 0.403281 10.2472 -1.50047 -1.25433 -0.376743
804 6.27856 0.558673 10.1947 -0.0434872 1.52178 1.09638
717 6.21475 1.79145 10.3966 0.289982 1.27088 -0.874541
349 5.99613 0.502999 9.21984 1.12169 -0.9342 -1.5893
26 6.6947 1.29953 9.57509 -1.35871 0.519872 3.05841
690 7.31376 1.35219 10.3845 1.25283 1.78355 1.13318
4 7.16097 0.28002 10.5748 -0.43053 0.128786 -0.475735
825 4.3508 1.15454 10.6535 0.557504 -0.149188 1.11889
262 1.84108 0.942449 5.43149 -1.2505 0.307612 -0.00345284
31 7.86368 0.4562 9.88823 -2.75097 1.54632 0.906244
352 8.37579 1.21203 9.26215 -0.227534 -2.35124 -0.0469193
759 5.35451 0.0631113 6.99645 -1.26703 -0.0402706 -3.19466
500 10.2087 1.4122 10.0038 -0.945495 0.468048 1.00168
597 1.55159 5.18529 5.64108 0.700921 -0.353876 0.397326
639 9.35535 0.399444 10.4957 1.84518 -2.02167 -0.306849
232 0.305384 2.8485 9.60322 0.479819 0.45262 -0.418123
271 1.15324 3.22271 9.93846 0.507984 -1.70024 -1.62013
141 2.04911 2.359 10.3289 2.65583 -0.0741041 1.73877
230 2.56804 3.48336 10.2536 0.474291 -1.78116 1.56532
589 3.05561 2.30276 10.2977 -0.271888 -0.61952 0.782843
847 1.84845 3.8661 9.6517 -2.66032 1.522 0.35128
103 1.69313 2.37436 9.22291 -1.35795 2.14139 -1.64294
58 3.98728 3.32526 10.1747 0.342523 1.90584 -0.289115
730 3.06491 3.09753 9.47628 0.458374 0.519063 -0.805957
13 4.2392 3.28238 9.20329 0.229083 1.0907 1.00178
295 4.97536 2.55083 10.0553 2.07171 -0.218168 -0.778642
439 5.56125 3.66418 9.60594 -0.509176 0.289268 1.38584
64 5.26572 1.18274 9.70309 -1.08589 1.27235 0.526177
783 6.3785 2.94878 9.63689 -0.155691 -0.74361 -0.394317
37 8.38799 3.06982 10.0753 -0.0689829 -0.00888638 -1.52493
475 7.14553 2.57453 10.2288 3.08055 1.3117 -0.614723
637 7.89142 2.73611 8.91198 1.02434 -0.926275 -0.923003
585 8.7841 2.83825 9.21759 1.00249 1.5047 -1.37329
45 8.0521 1.9549 10.0438 -1.21528 -1.53263 0.707119
174 9.92914 2.51489 9.21852 -0.224664 1.19849 -1.71596
438 9.20455 1.99053 9.73835 0.0164597 -1.7723 2.09156
351 10.1747 3.02753 10.0969 -2.46423 -0.45723 -0.149534
401 1.04934 4.24171 9.31167 -0.28327 -1.39836 2.4021
249 0.991814 4.0764 10.5671 1.03286 0.154403 1.49262
123 2.85124 4.94997 9.99793 1.55772 2.05977 -0.516568
742 3.96761 5.2386 9.80689 0.43237 -0.328285 0.198211
698 3.06129 4.41272 8.92685 -1.2111 4.24622 -1.13198
205 4.74085 4.47235 9.28316 2.47259 0.294044 -1.62871
112 5.62523 4.96008 10.2626 -1.7781 1.44351 0.41621
545 5.83864 4.46822 9.0887 -0.409506 0.779204 -1.36101
810 4.91761 4.02285 10.4848 -0.641365 -0.261996 -2.24291
182 8.23197 1.14315 10.6706 -1.93003 -0.464962 -1.29017
511 7.11376 3.64347 9.43539 -0.563831 -0.875243 -0.45131
619 6.32087 3.96757 10.6074 -0.481934 -2.90244 -0.270612
582 6.36294 5.18371 9.52267 -0.248034 0.397588 -2.88769
508 8.53196 3.8738 8.69912 -0.433558 -0.95935 -2.47602
525 8.98673 3.77736 9.652 3.14172 0.667954 -1.58837
283 8.39087 5.0012 10.1711 0.861162 1.33952 -0.0274861
592 7.97441 4.20814 9.50908 0.297268 3.10255 1.18565
576 7.58555 4.12359 10.4608 0.447047 -0.0919639 -1.10767
251 10.4583 3.94057 10.2967 0.254371 0.159992 -1.01429
495 10.6983 5.1325 9.97329 0.564563 1.76189 1.27597
344 9.41691 5.25432 10.0476 0.621242 -0.079388 2.35427
519 4.67834 4.86756 5.92116 -1.77683 -2.1452 0.637797
372 2.47787 0.0115723 7.95449 0.365776 0.620235 0.219823
101 5.57554 3.93326 5.37503 -0.774054 -1.17218 0.713416
385 0.477853 6.83086 0.589197 0.243494 0.407134 0.12845
158 0.748926 6.26353 1.7904 0.670814 0.167735 0.0763573
156 10.6039 5.87912 1.34607 0.0869563 0.467394 0.636063
626 9.64037 10.1615 5.24813 -2.14708 -0.332726 0.0516392
3 2.08482 7.04764 1.64562 -0.127115 1.33081 1.9085
418 3.56108 6.59739 0.281978 1.83066 1.18935 -2.3388
201 4.35443 5.81112 1.3803 0.897324 0.584825 -0.417575
613 4.75313 7.01755 0.670035 -0.841823 0.482238 0.294332
338 0.408963 5.91185 5.21433 -0.850942 -1.23439 0.580793
621 5.78529 6.70437 0.681614 2.32956 -1.16444 0.636869
828 0.72374 5.37667 2.34217 0.0139983 -1.56761 0.187171
84 2.47285 6.0653 0.335794 1.29011 1.32843 1.59986
752 7.13163 6.66437 0.956987 1.67339 -0.202751 0.670013
528 6.25879 5.89003 0.32409 0.238166 0.97496 -1.40365
821 5.50583 7.12703 5.23433 -1.08334 0.444133 -1.50172
842 5.8753 5.37506 1.52376 -0.70603 -0.634931 0.902161
652 8.88759 6.37296 0.463696 -1.76646 0.846297 -0.451379
502 8.17353 5.79657 0.787558 0.825507 -0.239763 -0.167811
471 9.85745 6.37445 0.830808 -1.01366 1.4781 -1.23479
379 5.53052 9.1896 5.17312 1.1936 -1.26457 -0.817388
51 3.37016 5.41026 0.350643 -1.06008 1.3348 1.4098
485 1.37593 7.26173 0.63401 1.37314 -1.45218 0.138311
818 2.44074 8.20384 0.182571 2.21221 -0.166959 -0.213723
695 1.69226 8.13026 1.35922 0.385684 -1.33835 0.369322
289 2.86742 7.26609 0.600572 0.791493 0.419843 -0.709779
861 2.7107 8.07993 1.3585 -0.422 -0.435277 1.41158
285 3.05116 7.2916 1.97855 1.62609 -0.410765 1.00508
122 4.12893 7.2914 1.74111 1.64445 -1.24153 -0.242959
800 3.81692 8.33629 1.18354 1.0736 1.20728 -0.713348
25 3.995 7.59696 0.00208806 -0.50807 -0.196541 -1.89638
368 4.92588 8.11222 0.569961 -0.00601637 -1.46043 0.540328
6 5.93278 7.91211 0.300477 1.6606 -2.08287 -1.36095
714 5.94439 8.01834 1.41607 0.611736 -0.575567 0.254442
574 7.45378 7.60245 0.476255 -0.160515 -1.90742 -1.99228
635 6.97692 8.18397 1.26686 -0.732662 1.66081 -0.615665
802 4.33055 5.79704 0.239416 1.17867 -0.0353226 2.31671
746 8.93487 6.90086 1.24988 -2.6967 -3.06694 -0.604874
859 8.11284 7.74332 1.35124 0.239913 -1.12577 0.431724
94 9.22491 7.29419 0.398468 -0.927557 -1.93247 0.586102
814 8.29835 8.90409 1.25263 0.275539 -1.07983 0.159817
532 10.6454 6.92399 1.76337 1.08893 -1.10059 0.270486
747 0.0818311 8.40598 0.705325 0.125312 0.578909 0.824633
96 10.1891 7.20935 0.143467 0.981297 -0.304902 0.588933
616 9.38978 8.27145 1.21415 -1.92471 1.48793 -1.33901
854 1.26364 9.8954 0.352388 0.109985 1.20404 0.0317859
233 0.81729 9.39921 1.21354 1.35246 -0.245444 -0.278088
78 0.17685 10.5009 1.5574 -2.06935 1.90683 0.398122
421 2.45088 10.4598 1.34984 -0.150862 0.865142 1.16434
590 3.24592 8.6914 0.496418 2.97313 -1.52363 -0.686733
466 1.92074 9.50732 1.05589 0.859079 0.881673 -0.0762907
721 1.17608 5.37003 1.0607 -0.899319 1.75555 0.779859
362 2.89268 9.35204 1.26072 0.427671 -0.60533 -0.320923
366 3.60572 10.117 1.27378 -0.52444 -0.0934055 0.941851
731 3.49148 9.8506 0.237811 -0.658212 -1.34282 0.334038
604 4.46875 9.29039 0.989777 -1.56949 2.45659 -0.0669286
838 6.22039 9.50853 1.02255 0.546939 -1.56032 1.06737
694 6.04558 10.4855 1.32565 0.124383 -0.16459 -0.166292
323 0.989456 8.77799 4.94983 2.22232 0.115399 -1.07643
333 5.41169 9.33715 0.328513 0.977384 0.803728 -0.509212
514 5.26064 10.676 0.303611 1.69152 -0.502429 1.40741
535 6.54142 9.47611 0.108972 0.398719 0.869405 0.623637
739 6.545 10.4265 0.47835 -0.783337 -0.386554 1.68104
654 7.36414 8.91461 0.615479 -0.146643 -0.903076 0.00399165
14 9.01526 9.8446 1.00841 -2.59924 1.00577 -2.05557
358 8.09414 9.50447 0.142686 -0.597188 1.29243 0.265767
521 8.16176 10.522 1.20271 -0.498137 0.127324 1.14412
393 2.58807 5.65423 4.80901 -0.58207 1.91803 0.300528
829 8.57053 9.58792 1.99011 1.87354 0.31005 1.04934
465 10.3131 10.2102 3.78641 0.952194 -1.52464 -1.69699
791 9.96387 9.3924 0.663784 1.95448 -0.692795 -1.54603
771 10.108 10.5126 0.784179 1.70356 1.72437 -1.57127
143 0.140059 9.98778 0.4749 0.00597097 0.633879 -0.0977091
165 1.58906 6.02265 2.63531 0.121964 -1.51735 -0.3125
115 0.791376 6.41692 3.24523 2.67249 1.24015 -2.06475
416 2.60073 5.67564 1.94879 -0.599823 0.0799102 -0.699098
167 3.19338 5.85768 2.86252 -0.0257269 -0.291691 1.85317
484 2.45138 6.65815 2.49188 1.25251 -2.59467 0.0659172
90 4.22705 6.38201 2.73866 0.954545 0.675881 -2.41005
199 3.40192 6.31683 1.82899 1.15501 -0.596524 -1.61491
862 5.49218 6.65314 1.75952 -0.852189 2.06776 -0.227427
378 4.3768 7.55915 2.83528 -0.576141 2.29016 2.19277
857 5.10279 6.3124 3.47138 0.457213 -0.316145 1.2017
725 5.75761 6.98369 3.28871 0.505404 -0.551828 2.08813
187 6.46979 6.0077 2.69866 1.18966 1.64303 -1.98112
212 7.28994 6.52977 2.94862 -1.40591 -0.272983 0.384766
595 6.85736 5.94042 1.816 -0.151922 -2.31666 -0.959852
732 8.2557 5.87087 3.14769 3.23796 -0.145532 0.45967
20 7.92518 6.67724 1.97792 0.274801 -1.39229 -3.18343
656 8.78006 7.01174 2.47993 2.56102 0.549639 1.20356
609 8.96332 6.21023 1.90249 -0.00497209 -0.0166191 -0.0138239
119 10.5789 5.80221 2.64937 -0.99456 2.15742 -0.183549
450 9.50895 5.91513 3.02622 1.08924 -0.537686 1.99872
15 9.92313 6.73051 2.4844 0.537799 1.02769 -0.128113
337 9.61407 7.10754 3.43597 0.226256 0.480948 2.03805
824 0.993069 8.90006 2.02909 -2.27791 -0.391024 1.91663
81 0.0876443 7.84315 2.68706 0.851612 -0.305996 1.17001
630 1.18278 7.32135 2.18519 0.00479091 -0.146972 -0.783663