ITEM: TIMESTEP
44380
ITEM: NUMBER OF ATOMS
864
ITEM: BOX BOUNDS pp pp pp
0.0000000000000000e+00 1.0726842421158810e+01
0.0000000000000000e+00 1.0726842421158810e+01
0.0000000000000000e+00 1.0726842421158810e+01
ITEM: ATOMS id x y z vx vy vz
175 0.703796 1.25428 1.71489 -0.524381 3.46615 2.01981
591 1.61356 0.904573 1.37309 -0.185738 -0.0365749 -2.14264
860 0.531736 1.7526 0.643536 -2.94234 2.51483 0.27833
513 4.47098 0.606386 5.30961 -2.00821 -0.165594 -0.921253
102 2.77679 0.0248607 0.944339 -0.143503 -1.30941 1.55552
152 2.60269 0.926698 0.405817 -0.641289 -2.30209 -0.342894
265 2.66762 1.36391 1.50873 0.562776 -2.30793 0.23073
415 1.35232 0.68458 0.399754 -4.12515 -0.0620025 -0.450991
77 10.5831 1.48357 5.30936 -0.804561 0.608773 1.16032
770 4.31719 1.18123 0.620235 0.585071 -0.190803 -0.990246
138 3.68658 0.983341 1.28419 1.07562 -2.68934 -0.00286276
78 0.918154 0.17861 1.2465 -0.710079 -1.37504 0.828099
295 3.47875 1.55723 0.337393 0.445583 -0.453344 -1.72334
681 4.49327 1.91202 1.95299 -0.90768 -1.80648 2.20257
835 5.22061 1.69152 0.583884 0.492024 0.219024 0.711571
801 5.72531 0.799057 0.914313 1.42833 -0.0199338 0.113005
642 4.73818 0.892323 1.67028 -0.486992 -0.176857 -0.664026
717 6.48111 0.451847 0.128066 -1.25304 0.558325 -1.77581
31 7.9032 0.965197 0.297822 0.66694 0.57314 -1.42121
247 6.93444 0.883783 1.15295 -0.287629 0.624896 -1.46294
134 9.05013 0.922036 0.766257 0.49537 -0.917363 0.016243
177 7.93593 0.287528 1.36984 1.68969 -0.272382 0.373041
522 8.24985 1.33533 1.22388 1.84985 -1.02487 -1.10164
86 9.78178 0.371049 1.08371 1.55527 0.444976 -1.04638
689 10.5781 1.14211 1.30292 -0.573892 1.17338 -0.0374453
639 9.71534 1.53215 0.358554 -1.25117 -3.18821 1.57407
570 10.5542 0.658662 0.226981 1.20658 1.46353 0.793289
310 0.498934 2.76114 0.890478 -0.0536692 0.465638 1.22545
553 0.579505 2.71961 1.9007 1.40593 0.988412 1.24653
223 1.6444 2.48369 1.07392 0.845475 1.6556 1.08069
331 5.06281 0.324529 2.50476 0.0405992 -0.579515 -0.407345
648 9.05074 0.0460938 0.014951 -2.86013 2.74391 -1.8431
490 2.47453 2.89027 1.85822 1.7075 0.402417 -0.139983
847 1.98725 4.09289 0.137627 -0.782182 1.22568 0.75663
284 3.12844 2.18641 1.21291 -0.115346 0.980144 -0.418007
739 7.47942 0.145228 0.408528 -0.0142019 1.56707 0.258426
403 6.43836 1.86513 1.16073 -0.352187 -0.586197 1.26025
240 5.40342 2.5934 0.988807 0.988343 -2.46634 0.715642
215 4.98819 3.66916 0.339093 -1.11589 1.68648 -1.28012
7 6.0228 2.46616 0.132614 1.64328 0.177983 -1.28682
231 4.23445 2.21901 0.888368 0.371863 -0.38114 1.24706
93 6.52199 2.93723 0.924664 0.0463729 -1.75726 0.583605
684 6.97816 2.04863 0.361847 1.12465 -0.808217 -2.76247
809 8.96473 2.13928 0.946502 0.0381315 -0.779223 -1.45443
525 8.76524 3.45205 0.0235686 -1.93914 -0.878118 0.193746
137 7.68945 2.9714 0.555685 1.9661 0.543819 1.13495
464 10.2275 2.74375 1.5867 -1.72574 0.387928 1.09072
307 7.39155 0.0365447 4.26557 -0.154045 0.4432 -0.277307
156 0.0270809 4.65836 1.28784 0.849135 -1.1379 -0.559922
627 1.09226 4.69605 0.83022 -1.64855 -0.861661 1.06641
345 1.35512 3.66046 0.849026 -0.122336 -0.888581 2.56465
294 0.38728 3.57591 1.39625 -0.230819 0.0427104 1.51775
230 2.80401 3.49196 1.06339 -0.216945 -1.82037 0.672675
498 8.53943 5.18675 4.91265 0.165264 0.759688 -0.980245
80 2.08826 4.50515 1.13789 -0.0256192 -0.467547 -1.27442
864 2.36397 5.05359 0.34436 -0.611392 4.34631 0.130433
13 3.83969 3.62207 0.669125 1.56304 -0.461628 1.1993
391 3.28218 4.48405 0.903447 -0.767516 1.3533 -0.0716766
62 4.68267 4.61944 1.03273 0.417493 0.660584 0.56615
68 5.80302 3.54992 1.04625 -1.68364 0.101184 0.225978
657 10.4393 4.31984 4.26163 1.90778 -0.0482755 1.10344
66 5.62976 4.49177 0.603885 0.118831 0.677361 0.0954828
37 6.13115 3.69041 0.119736 -0.659335 2.11777 -0.360497
826 6.84899 4.6733 0.730491 0.601615 1.00072 -0.513844
842 6.63813 4.68928 1.74511 -1.07776 0.567261 0.712483
687 3.98855 0.0184452 4.35104 1.05666 -0.967455 -0.338285
576 8.01649 5.03496 0.607955 -0.49073 -2.04825 -2.40377
780 7.70556 4.01757 0.688443 -1.92389 -0.0721152 1.27227
28 5.10209 0.197119 0.420879 -2.0368 0.0304331 -0.977006
374 9.95829 3.9589 1.20279 -1.11039 0.962905 1.77137
252 9.80361 4.70314 0.489694 -0.811178 -0.165877 -0.453298
587 0.276182 1.78344 3.70407 -0.963683 0.771038 1.29187
683 1.2266 1.01547 2.6896 1.04706 0.142069 1.05698
603 2.09737 1.77096 2.92842 1.61833 0.751849 0.744539
268 3.10215 0.0295755 2.49005 0.166948 -1.77688 -1.69466
363 2.14767 0.905564 4.01861 0.396469 1.42716 1.34311
370 3.23867 1.14233 2.54606 -0.0625806 -0.98804 -0.0554286
414 4.28467 1.72899 3.82002 -0.71789 -0.335232 -0.996182
278 4.01871 0.537698 3.34255 -1.7658 1.53833 3.44382
435 4.56886 1.13074 2.83998 -0.763535 -0.76805 0.253727
321 5.96818 0.759264 1.97686 1.42085 -1.71438 -1.67339
694 6.90909 0.294576 2.12109 -1.12101 0.16801 1.18045
350 6.56276 0.451105 3.00556 0.152196 0.112458 0.231575
383 7.3388 1.26427 1.94541 1.96437 -0.65679 -1.22984
14 8.8621 0.516768 1.89558 0.00130179 -0.353588 -0.64413
493 8.62378 0.995846 2.98507 0.400473 -0.54968 -0.0764459
89 7.83679 0.427362 2.66399 -0.820601 -0.72992 0.209329
171 9.73502 5.02259 4.8074 1.59893 2.6796 -0.549583
713 7.27495 1.34898 2.93574 -3.75287 -1.95228 -0.699149
542 10.58 1.10066 2.86244 -0.883548 -0.567953 -0.77757
599 10.0115 1.86085 2.16156 2.26613 0.543255 -0.43763
858 10.0756 1.96456 3.20895 -0.363095 1.81632 -1.49994
551 10.0349 0.462408 2.29867 0.742643 2.82384 3.2596
851 0.95051 2.18512 2.6541 0.300556 -0.0438192 1.25986
183 0.373867 2.92718 3.60689 -0.540139 1.29264 1.8417
779 1.47385 3.19075 1.93649 0.548778 -0.136594 -0.390926
124 0.840341 3.59511 2.94478 1.2781 -1.86151 0.181594
392 3.31565 3.5458 2.05051 2.92433 -0.271435 0.515775
564 2.51175 2.59936 3.75 0.12813 -1.26521 2.63584
538 2.90327 2.56423 2.73011 -0.923722 1.07947 1.09509
605 3.36119 3.41879 3.08778 -0.898478 0.905471 -1.80429
140 3.90155 2.40175 2.61857 0.107935 -0.605792 -0.969753
204 3.17118 1.70363 3.44157 -0.589696 -0.762592 0.237558
400 4.82148 2.92457 1.99555 0.283813 1.98657 -1.1117
753 4.05706 2.82379 3.52134 1.74779 0.266344 -0.120894
153 6.21465 1.70986 3.19754 -0.226625 -1.70225 -0.52824
179 5.54779 1.95325 1.97948 -0.929242 3.03803 -1.03048
482 6.25596 3.18911 2.04919 1.84379 0.654208 0.736266
680 4.97014 2.12346 2.93032 0.831307 0.679165 -1.66025
622 5.55771 2.89645 3.36898 -0.12275 1.27319 -1.53878
42 7.17857 2.5702 1.66204 2.59068 -1.23263 -0.740128
803 6.93294 2.69449 2.79703 -1.12375 -0.256584 -0.217371
496 7.98532 2.24677 2.07055 0.430633 -1.49924 0.144196
685 9.01178 1.97151 2.90168 1.66435 0.11978 1.02661
760 7.71693 3.35924 1.98537 -0.892196 0.54483 0.0941105
293 8.98014 2.65646 1.96174 -0.174907 -0.814249 0.94407
527 8.09003 2.96502 2.86419 -0.927892 1.17712 -1.01266
209 10.5772 2.59437 2.71507 -0.263677 0.882782 -1.49673
843 9.80729 3.72813 2.30402 -0.962032 0.379849 -0.56415
357 9.45654 2.86189 2.98037 0.311735 -1.23249 -1.08085
828 0.421275 5.25214 1.95604 -1.45529 -0.200921 -0.574132
512 1.39002 4.53936 1.93856 0.783527 0.30924 -0.913804
151 0.321346 4.58959 3.41683 -0.769418 -0.144002 0.0586229
658 1.18746 5.13456 3.01395 -1.9371 0.496811 0.624052
98 2.37979 4.43141 2.17147 0.871837 -0.304127 1.17628
207 2.01407 3.60064 2.60159 0.100646 1.15467 0.597182
50 4.55265 4.75729 3.70409 -1.1655 -2.17117 0.182961
65 3.55859 4.84021 3.35677 2.45296 -1.95452 -1.34885
443 3.65888 4.62401 2.31409 0.520945 -0.832398 1.27427
560 4.36986 3.58921 2.7647 2.42908 -0.870188 1.03004
688 5.4739 4.65807 1.98245 -1.37414 -0.0332107 0.722657
184 4.50379 3.95566 1.76292 -1.69149 -0.491945 -0.244594
402 5.20065 4.24277 2.958 0.217736 0.137803 -1.46457
669 7.09827 4.00053 2.53268 -1.25304 2.30136 -0.5278
488 7.00966 3.76831 1.29507 1.03352 -0.894228 -1.79613
595 7.17081 5.19214 2.4625 0.98717 0.501866 0.607391
432 7.56363 4.11209 3.58311 1.29185 -0.731934 -0.607527
820 6.28863 4.50582 2.87224 -0.524037 0.0480119 0.280476
425 8.88008 4.43557 1.5227 1.07982 1.92552 -1.70577
624 7.82272 4.69999 1.56988 1.03304 2.06438 -2.03195
354 8.56798 3.86792 3.54255 1.90173 -0.674899 1.33338
73 8.20333 4.17091 2.46224 -1.16271 -1.26312 -1.24689
119 0.206891 4.30064 2.23333 -0.25668 0.121168 0.556377
190 10.2066 3.82306 3.20491 -1.81589 1.82033 0.438426
470 9.674 4.77973 2.82925 0.842518 0.0416151 0.112442
162 1.55756 1.72587 0.297369 -0.519451 -0.977551 0.165141
461 1.67602 0.3899 5.00595 0.653383 -3.06058 -1.99064
664 0.888389 1.43383 4.76094 -2.13963 0.0569175 -1.97049
449 0.857443 0.87197 3.79118 0.839535 -0.231667 -0.899992
703 6.48978 1.6214 5.25431 3.51232 0.339271 -2.29867
437 2.62206 1.65557 4.48715 1.65332 -0.677456 -0.988604
142 2.98903 0.257083 3.69967 -0.531166 -0.981514 -1.117
297 3.54122 0.993182 4.68065 -2.37781 0.054058 -0.585223
343 5.31716 0.748494 3.49069 -2.0527 0.644592 0.0273701
769 0.586636 0.637406 5.33002 0.258968 -0.680709 -0.996725
612 4.58062 2.1429 5.09215 -0.749576 2.33647 -1.19764
727 4.65357 1.10035 4.41178 -0.257153 1.64346 1.78762
211 7.50953 1.6565 4.42519 0.698208 0.0459067 0.423965
225 6.24944 0.389116 4.00462 0.488652 2.10247 -0.0212789
394 6.72669 1.18328 4.34286 0.478994 0.623034 -2.47468
180 7.80682 0.839116 3.82103 2.48443 -0.969287 -1.62292
550 6.48756 0.198979 5.03096 0.913144 -1.85155 -1.1463
629 8.42744 1.7676 3.83138 1.01433 2.73878 -2.31838
67 8.39023 0.290104 4.6116 -1.78774 0.0783711 -0.470713
446 7.53596 0.637709 5.0823 -2.19912 0.223813 1.71657
388 9.41638 1.14539 3.91344 2.07102 3.10823 1.98618
494 5.16364 0.00513878 4.51869 -1.12143 -1.60501 -0.262549
453 9.73599 1.34706 4.95869 -0.310872 0.773744 0.998161
21 0.0576135 0.875154 4.42995 -2.00481 -2.02218 1.92123
168 0.857671 2.42831 4.21994 -0.892214 1.55768 0.774254
793 0.982146 2.40093 5.31139 0.365581 -1.28028 -1.0994
219 1.58405 1.75143 4.02407 -1.37685 -0.0921357 -0.669008
305 6.67454 4.4951 5.28892 2.75711 0.54933 1.05975
589 1.1584 2.85856 0.169873 1.05275 -1.12384 0.0464435
569 3.02322 3.28724 4.4531 0.723496 -0.678042 0.115927
221 1.55451 3.31663 3.57454 1.95502 0.205844 -0.468543
733 3.93791 3.1031 4.95615 1.42421 -2.45872 1.71073
347 3.65977 2.24827 4.53187 0.18128 0.147662 0.102073
157 4.92535 3.56056 3.85096 0.780091 -0.0998372 0.356143
837 5.05899 2.42128 4.17655 -1.62307 -0.875216 -1.05021
647 6.05504 2.89727 4.77651 -1.08385 0.384311 -0.17084
504 5.64221 1.7047 4.63563 0.96147 -3.36243 -1.01905
614 6.8306 3.48798 3.46883 0.343743 0.308765 -0.605457
634 6.62202 2.26949 4.05754 0.776713 0.533628 -0.0303868
34 7.02875 2.69278 5.0254 1.26116 0.362569 2.55771
492 7.45145 2.52339 3.66059 -0.960042 1.91369 0.378606
696 8.45111 2.7609 4.95569 0.863823 0.362691 -0.194881
371 8.71379 2.82419 3.7378 -0.519104 -0.00475457 -3.33862
578 10.1059 3.1007 4.00644 1.26087 0.355742 -0.999784
85 9.41446 2.23046 4.13869 -0.666668 -2.12677 0.228103
222 10.0755 2.37681 4.98945 -1.76897 -0.605875 0.886705
650 10.2332 3.46958 4.96253 -0.313243 2.74599 -1.65286
120 9.09484 3.33853 4.5729 0.424627 1.16756 -2.67567
335 1.72939 4.3813 3.28992 -0.722469 -0.73819 -3.29903
286 0.944011 3.73721 4.38593 0.409334 -0.0820302 -0.0730072
491 1.28938 4.77666 5.2708 1.92898 -1.13595 1.29995
467 1.21842 4.65897 4.06931 2.368 -1.05283 0.566933
144 1.90847 0.175019 1.89054 -0.362504 0.655829 -0.928869
518 2.52855 4.04368 3.89285 0.0578036 0.635017 -0.701355
393 2.21075 4.63279 4.95153 0.20259 0.823991 -0.33147
314 0.220384 4.81658 5.19984 -3.1395 -2.38266 0.875336
476 4.80134 4.36106 4.63315 -0.55367 -1.84026 0.383355
60 3.20813 4.60399 4.42543 -1.83562 0.562678 1.53818
429 3.9193 3.83874 3.99091 -1.29549 -0.467297 -1.41825
267 4.0208 4.0873 5.31547 2.72372 -0.963869 -0.156325
568 5.23199 5.30458 2.98701 1.00911 -2.81021 -1.01292
101 5.7029 4.43012 5.07001 0.186163 -1.48358 0.161464
176 5.083 3.183 4.84226 1.25995 0.744199 1.17121
433 5.79215 4.89333 3.79692 -0.880496 -0.738434 1.22775
863 6.65544 4.29552 4.31404 -0.0377477 -0.90508 -0.814588
419 7.79237 4.38992 4.67409 -2.36791 -0.319298 -0.123871
428 10.1447 3.15422 0.644765 1.32543 -1.71014 3.60421
571 8.916 4.28537 4.55812 2.22791 0.129928 0.309399
242 7.57075 3.30908 4.42563 -0.735766 -0.678384 1.66092
755 8.817 4.96179 3.69219 0.664521 -2.35198 -0.293604
19 9.49881 4.29571 3.66954 -0.948709 0.698492 -1.99887
506 10.1853 5.13668 3.67315 -0.181257 1.43146 0.103786
228 9.22217 0.129965 3.27664 -1.18176 -0.456622 1.14616
315 1.53137 0.887206 5.85234 1.50078 -0.222618 0.111915
796 0.564218 0.421565 6.37546 -1.6391 1.72468 0.977535
653 1.2382 1.45983 6.91919 -0.484304 0.131543 0.538707
301 0.705423 1.40035 5.88799 -1.19534 0.471341 -2.6096
676 5.32076 1.22019 5.56932 0.129544 1.17172 0.655021
523 2.29481 2.67264 5.40225 0.139824 1.96394 -1.87025
517 1.70244 0.474189 6.81049 1.72958 1.52505 1.62602
544 2.7535 0.8826 6.93645 0.627959 -0.873257 0.656311
777 2.36477 0.130368 5.62548 -0.164173 0.836536 0.503275
262 3.06279 1.47513 5.46018 0.36318 0.317455 0.383945
789 4.11543 1.35411 5.79657 -1.6021 -0.967324 1.15125
313 3.51021 0.506544 5.74241 -0.909008 -0.269286 0.57107
342 2.45725 0.0447366 8.93367 -2.10823 1.52518 -1.48815
380 1.7294 3.75815 5.45655 0.840335 -0.742618 2.10896
18 4.80859 0.860412 6.62208 -1.64908 -0.0162245 -1.58213
30 6.1139 1.00756 6.20691 -0.98444 1.09113 1.63674
758 1.11891 0.0608297 10.2911 1.08018 0.561601 0.511278
261 7.659 1.28327 5.98204 0.343611 0.457149 1.76551
785 8.24507 1.69973 6.82436 3.18118 1.0814 1.1187
594 9.09852 0.0571502 6.04004 -1.89814 1.3458 0.88739
39 8.39065 0.656456 6.77688 0.967842 -0.564704 -0.773925
196 8.47418 1.64889 5.53792 -0.748803 -0.0747012 -0.582157
79 10.3755 0.935802 6.22024 0.288905 1.84403 -0.483601
678 9.26756 4.98325 10.4719 0.957542 -1.62585 -0.365067
22 9.17929 1.24352 6.2393 -1.41879 0.934444 0.544682
611 0.608738 2.36012 6.47037 -1.19542 -1.65141 1.60058
555 1.3338 2.82396 6.85516 1.17397 2.0269 0.177086
797 1.44514 2.12037 6.15286 -0.191833 -1.28977 0.633566
266 2.48724 2.9228 6.37694 1.03402 0.490217 1.65791
53 2.79672 3.65338 5.40109 1.58293 2.59201 -0.717363
799 2.31334 1.87367 6.63762 0.562499 -0.706926 1.36594
250 3.40202 1.71763 6.63298 1.18958 1.92811 0.56237
258 3.56021 2.91875 6.60253 0.101957 -0.301509 1.09652
516 4.4751 1.87059 6.70452 -0.846705 1.13008 0.812095
420 3.62324 2.44707 5.65496 0.0285765 0.640487 1.19395
191 5.7564 1.98077 6.79202 2.08053 1.20834 0.591091
579 5.37741 3.17705 6.44596 0.421632 -2.13439 1.71382
641 4.53098 2.71807 5.88009 1.4833 1.81591 0.65785
711 5.52116 2.2661 5.55779 1.28314 0.123979 -0.401505
706 6.59709 2.81776 6.94473 -0.675356 0.500181 0.0258896
44 6.51402 2.41128 5.86732 -0.91651 1.05034 1.136
404 7.71158 3.09059 6.68597 0.696019 -0.179286 0.279887
543 6.69838 1.6323 6.86949 -1.34406 -1.01719 -0.633731
244 7.52867 2.33722 5.92861 0.0360537 0.696702 -0.555955
651 7.49883 2.34236 7.32658 -0.805827 -2.94093 1.38697
40 8.96917 3.57985 6.62326 -0.343347 0.781814 1.05708
317 9.52985 4.86255 5.85366 -1.03173 -1.1546 -0.353982
718 9.59628 3.10759 7.30264 -1.45785 -1.54073 0.129177
160 9.47219 2.21318 6.30757 0.0425745 -0.10708 2.85565
427 10.214 3.18727 6.08613 -1.68688 0.763989 0.744312
701 10.4012 2.40622 7.0124 0.914848 0.431137 0.306505
697 0.582018 3.74535 6.47026 -0.911902 -0.369038 -0.405906
748 10.5254 5.14088 6.21293 -1.27688 -0.825324 -0.113355
395 0.892118 4.72225 6.71428 -0.0788098 -1.73823 -0.970778
448 2.78782 4.49172 6.168 1.88816 -0.138455 -0.475845
127 2.37629 4.81175 7.05612 1.24028 -1.50616 -1.36084
597 1.72961 4.07053 6.78883 -1.38896 -0.79375 -0.80344
659 3.53914 4.89716 5.52876 -1.8876 2.08143 -1.39417
691 3.63573 3.84609 6.19361 1.0434 -0.170852 -1.62179
306 3.20103 3.62659 7.36689 1.06367 2.19231 -2.05171
673 3.81527 4.86546 6.75006 0.263888 -0.0807128 -0.413068
257 4.74954 3.79489 5.88485 0.0519072 -0.0966991 -0.146046
515 4.81668 4.38487 6.79578 0.323318 2.60099 0.651399
272 4.39797 4.96421 5.93542 0.211975 -0.48862 -0.556443
145 4.20213 5.18469 8.16387 1.31796 -0.98164 2.68068
757 7.02525 3.31111 6.06005 0.510335 -1.63209 0.612976
699 7.80775 4.08273 6.57677 0.319205 0.537454 1.08858
92 6.89359 4.84258 6.80308 0.671128 -0.712027 -0.153696
110 10.3096 0.0624535 7.01257 0.607433 -0.563621 -0.505687
665 9.39613 3.7221 5.45213 0.258603 0.988838 -0.616988
336 8.40014 5.00763 6.00682 -0.0480102 -0.627761 -0.572176
849 10.4427 4.16852 5.69978 -0.511095 -0.316591 0.407607
253 9.77018 4.26699 7.00622 0.559021 -0.180016 0.472283
243 1.47777 0.325543 8.06385 1.89445 -2.27811 1.21837
567 0.191294 1.38228 7.02528 -0.208482 -0.150459 -1.53574
384 0.789217 1.38681 7.83309 -0.861729 -0.0441984 1.50726
174 0.880762 0.917746 8.69123 1.61003 -0.231719 0.380374
596 1.92663 1.22191 7.70189 -0.345472 1.55716 0.916961
103 3.18881 3.23819 10.532 1.36123 1.50384 -3.81839
133 2.65774 1.11883 8.69078 -1.11703 -0.641682 0.081763
327 3.88625 1.78245 7.62392 -0.125207 1.307 0.206352
744 4.16247 0.813342 7.5386 -0.359045 -0.227219 1.36144
360 4.47052 1.22102 8.4494 0.683417 -1.71847 -0.362317
661 3.25003 0.616956 7.99423 -1.74718 0.410907 -0.860118
269 3.58616 0.774532 9.13301 -0.878945 0.602351 -0.0958075
361 4.08428 0.237964 8.46442 0.673668 -0.956791 0.951635
270 5.22525 0.289215 8.42738 -0.281586 -1.1475 0.367795
524 5.68835 1.03138 7.465 -0.724164 0.0267506 1.35953
759 4.88579 0.0794884 7.47175 -0.924906 0.255851 0.54067
389 6.20252 1.20287 8.77433 0.716655 0.641896 1.43013
472 7.09958 0.11746 7.66119 1.56355 -2.69751 -0.588297
26 7.13797 1.29582 9.05675 0.694293 0.00878185 -0.054932
349 6.43692 0.142702 8.75477 0.838377 -2.07644 0.802745
210 8.14865 0.897638 7.89207 -0.628522 -0.685227 -2.22314
773 8.13946 0.673791 8.9007 -0.987794 0.507473 1.15837
426 8.71262 1.86464 7.78528 -0.00263206 1.00112 3.4832
197 0.24743 0.384705 7.6987 0.573244 -0.140202 0.120212
130 9.54588 0.643363 7.30535 -2.00376 -0.359511 -0.36318
346 9.745 1.62438 7.22602 -0.17572 2.28509 -0.739884
445 9.35438 1.09996 8.45474 -2.10944 -0.824626 -2.32227
509 10.4374 3.01158 8.09141 -0.764624 0.632074 -1.32417
275 0.549189 2.55258 7.60119 -0.169342 -1.42068 -1.18772
88 0.746088 2.12054 8.99974 -2.15243 1.30665 1.36253
728 10.5241 1.82063 8.19994 -0.545933 0.253077 -0.469592
76 1.07085 3.61112 7.45907 0.746218 1.01782 -2.34405
125 0.807643 3.14535 8.40266 -1.53522 -1.20818 -0.00356252
692 1.62885 2.28535 7.69593 0.068259 1.417 0.669946
417 2.00488 3.20734 7.88116 0.802829 -1.77898 0.676684
17 3.06752 2.58575 7.59843 -0.546686 0.156803 2.85556
505 2.5005 2.14582 8.34688 1.38315 -1.38285 0.0578789
439 3.95721 2.68646 8.08704 -0.978131 0.433645 -0.832108
126 3.25685 1.99584 8.94882 -1.42191 0.150483 2.29162
520 2.8573 3.35484 8.44346 -1.60916 -0.722064 3.56039
216 4.91189 1.78741 7.52711 1.3373 0.0769549 -0.246951
478 5.20094 3.0566 8.38496 0.835641 -1.00082 0.587014
146 5.29402 2.19626 8.8808 0.0720514 -0.918072 -0.297597
390 7.00541 1.45709 8.0363 -0.190381 -2.52531 0.20313
709 6.23989 1.97364 7.79394 -0.151095 -0.638242 -0.936724
274 6.96975 3.17201 8.19402 -0.312939 0.528785 -0.296252
663 6.71272 2.22685 8.85464 -1.09757 -0.745667 -1.28315
600 7.98655 3.59908 7.5281 -1.08932 2.02995 0.967843
325 7.68904 2.19005 8.36594 -0.849447 -0.226249 -0.252609
149 8.5594 2.62558 6.94957 1.40225 0.361755 -1.67503
458 8.66742 2.96423 8.1991 -1.46292 -0.130264 -1.26165
161 9.61343 2.41345 8.1191 -0.769042 -1.05427 -0.595089
724 0.567392 4.32715 8.16761 -0.151708 1.25279 0.756575
839 10.7008 4.84319 7.29095 0.0223522 1.02041 -0.476916
364 2.44177 5.30542 7.99912 -2.05374 1.20434 0.752272
159 1.54184 4.68128 7.65929 0.211645 -0.720175 0.714878
401 1.76804 3.86204 8.58797 -2.45744 0.753147 1.14403
104 3.72906 4.16601 8.36227 -1.14849 -1.63619 1.1292
203 4.24846 3.74837 7.49414 -0.187597 -1.23871 -2.37866
833 5.07289 4.15156 8.19566 -0.352138 3.78677 0.247188
10 5.83639 4.65351 7.68442 1.19355 -0.880317 1.83901
97 5.93834 3.50928 7.96869 -0.226445 -0.452922 0.219488
531 6.99783 4.71545 7.96115 -0.624542 -1.30091 -1.39617
442 6.86625 3.73442 7.07204 0.494966 -0.53047 -0.632535
541 6.19735 5.28174 8.50909 -1.40566 0.329347 0.526461
54 8.79453 4.50664 6.82378 0.02107 -1.41189 -1.46383
480 2.00505 1.69997 5.37351 -1.38901 0.803629 -0.597625
375 7.85813 4.57599 7.47635 -1.10414 0.0674386 -3.30625
170 5.92568 3.48196 5.49832 1.1587 -0.144137 -0.210813
319 10.6669 5.25011 8.56145 1.9859 2.29944 0.654512
260 9.45009 3.76544 8.08447 0.316889 -0.0412123 1.0134
719 10.6164 3.76642 7.46047 1.33004 0.10555 -0.689689
280 9.61452 5.2959 7.61832 -2.03603 0.470122 -1.86406
292 10.5567 3.79708 8.69644 -0.289111 0.0358489 -1.18132
583 0.236356 0.463587 9.75081 1.74331 1.28841 -1.05064
660 0.96421 1.20048 10.0488 -1.0694 -0.451874 1.89924
588 10.6562 1.5328 9.22556 -0.991373 0.777976 1.23003
232 1.97831 2.05075 9.41844 -0.619126 -0.661138 0.793439
846 8.21244 3.66662 5.4925 2.23507 1.4585 0.792531
410 2.25859 0.788884 9.995 -0.736106 1.37064 -0.443874
218 3.13933 1.5143 9.953 0.185666 -0.113588 -0.0585952
601 5.44003 0.0897898 5.54943 -0.177239 0.623221 -0.674478
507 3.96462 0.692805 10.0974 2.22304 -2.71608 2.10312
198 4.1808 1.75147 9.60348 0.785461 0.156793 2.39752
131 4.78025 0.0992077 10.2422 -1.53286 3.04213 1.745
254 5.77312 0.483544 10.1222 -1.43406 -0.354908 1.13151
825 5.05923 1.28561 10.3426 -1.05164 -0.539043 2.23096
29 4.62289 0.719099 9.36362 -0.816348 -0.935007 0.934362
64 5.81245 1.59408 9.70083 -1.37721 -1.09599 0.333048
690 6.86535 0.815807 9.87615 0.631648 -2.46277 -1.33918
406 3.43058 4.95095 10.51 -0.390397 -1.6339 0.178153
352 8.81854 0.695795 9.52696 0.864061 -0.615084 1.19831
291 8.76942 2.03071 9.01212 -2.35672 -0.270339 1.35736
182 7.85236 1.13137 9.8324 -1.52816 -0.249511 1.78645
376 7.03809 0.182293 5.92553 -0.00633674 0.0897817 -0.184454
716 7.87294 2.08114 10.6271 1.59853 0.178884 2.17457
172 10.1663 0.638485 8.92175 -0.896913 -0.378438 -1.05846
762 9.92055 0.883888 10.2114 0.141851 -1.21894 -1.09636
141 0.843055 2.42611 10.0891 -0.600076 1.69932 -0.433201
662 10.6271 2.54137 10.5571 -0.0762828 -0.47386 -0.180736
32 1.21317 3.21619 9.39839 0.560724 -0.726226 0.223492
154 10.3532 2.5328 9.17543 -0.803681 0.16555 0.437632
438 0.175481 3.28803 9.73164 0.232695 0.305299 -0.609783
743 2.19816 2.93 9.05219 -0.143058 1.96114 -0.340439
271 2.21417 2.95287 10.1066 -0.265044 -0.347866 -0.917627
328 3.23784 3.01524 9.43407 1.38337 -0.15189 -1.04503
282 4.93805 3.0836 9.38433 0.988876 -0.303624 1.67403
33 3.90299 2.62516 10.2141 2.04516 2.40591 -0.288319
810 5.00104 2.36964 10.1201 -2.41692 -0.847257 -0.984779
783 5.92131 2.82413 9.57208 -0.300349 0.30752 1.44087
475 6.75326 1.93981 9.98572 1.13975 0.545523 0.743204
49 6.0606 0.0823644 7.60716 2.28033 -0.999056 2.23534
585 7.51706 2.98054 10.3117 0.724653 0.822178 -0.903137
45 8.41634 2.87494 9.44764 1.99166 -0.664597 0.181005
189 7.62919 2.208 9.31222 -2.52596 -0.864984 0.280738
460 8.84181 2.32705 10.1411 0.116185 0.950155 -1.3867
500 9.83383 1.9912 10.1427 -2.26645 0.0382721 -1.0495
495 1.27371 5.02706 8.58558 -0.820741 -0.890636 1.03788
351 9.43294 2.85594 9.38607 0.999461 1.89937 -1.16221
2 1.41295 4.90049 10.5478 0.528205 -1.1451 0.521253
344 1.00321 4.10767 9.27733 0.0442607 0.454476 2.14588
195 10.5591 4.2912 9.91987 -0.798372 -0.366858 -1.91018
123 2.37439 4.23876 9.87284 0.344887 2.58738 -1.40233
302 5.59705 0.0422513 6.6615 2.44024 1.48691 1.49819
11 2.4938 4.87906 9.05836 0.570224 0.488765 -1.31839
58 4.33771 4.34577 10.5971 -0.0572513 1.68313 1.23678
23 4.5984 5.24743 9.73031 1.09419 -0.875644 -1.39233
698 3.95526 3.6511 9.72846 1.25649 -1.23575 -0.457484
511 4.83496 4.20487 9.47362 -0.1317 -0.277202 -0.312478
205 5.43455 3.59454 10.1638 -0.420004 0.300587 0.118921
545 6.80725 4.45076 8.91169 1.56788 0.105638 -1.28748
637 6.39772 4.23892 9.9442 1.9384 -3.48046 -1.01233
619 5.54772 4.80285 10.1842 0.941109 -1.49838 0.0492101
610 5.44091 4.95685 9.14168 3.38889 -0.106177 0.321794
409 7.7703 3.64107 9.41511 0.506069 1.38157 -1.41593
592 7.42223 4.45605 10.4487 0.184571 1.19089 -0.400449
668 1.45921 5.3587 6.12865 -3.58282 0.310521 0.88267
283 8.38204 4.215 10.1755 -0.844614 0.766462 -1.88399
353 8.52046 3.85243 8.61986 -0.863273 -0.074999 -0.123228
139 7.68313 4.94679 9.64381 -0.372843 0.77928 0.499062
778 8.63026 4.92982 8.79372 -0.213825 1.39035 -4.13972
229 10.2517 5.24342 9.54796 1.97314 0.640904 -2.70437
251 9.87781 3.90443 10.5495 1.08334 0.286655 -0.618171
311 9.63677 4.61092 8.57481 2.40374 1.74143 2.14201
508 9.29929 4.05006 9.77538 3.91989 2.6031 -0.550817
686 0.0119131 1.56627 10.3659 1.07203 1.33002 0.156226
499 1.41243 0.220218 9.13887 0.0938628 0.862424 -1.09933
166 8.98518 0.0016246 8.32973 0.60464 0.563068 -1.91378
812 2.98014 0.0267569 9.74163 -2.92961 1.31709 1.04255
372 2.44396 0.00947814 7.84749 0.191573 1.48773 0.792456
730 2.55368 2.15872 10.7222 0.240962 0.271197 -2.00455
106 0.807364 4.0057 10.704 0.95377 -1.91643 -1.99473
834 0.608328 3.57509 5.37188 2.21804 -1.37511 0.604136
3 0.301927 6.74303 1.48988 -0.036701 -0.42997 -1.5654
721 1.41074 5.72116 1.70857 1.03915 0.419153 -0.542132
385 0.496367 5.4074 0.83885 0.770905 -2.61095 0.944802
586 0.577643 6.31053 0.305088 -2.87431 -0.459646 1.30281
695 2.62524 6.867 1.14615 1.41677 2.17488 0.972229
514 5.30614 9.90133 0.295979 -0.554339 -0.627242 0.128954
51 2.91885 6.7958 0.0688734 0.0885898 -0.782745 1.22697
201 3.47495 6.21227 1.18775 -1.0808 2.34439 0.294147
113 4.05603 7.42102 1.61976 -0.528896 0.00149264 -1.19162
163 3.35647 9.96349 5.05539 -1.94155 -0.503752 0.244407
43 4.11813 5.43356 1.05046 -0.431209 -1.66998 0.564135
9 5.91474 6.67403 0.362743 1.29367 2.03062 0.118928
862 5.75592 6.08638 1.93324 1.79037 0.0733019 0.296145
575 5.14149 5.78373 1.17008 -1.42495 0.608268 1.59534
378 5.02172 7.54448 1.51135 -1.83454 0.801794 1.50294
122 4.48017 6.55949 1.29867 0.181699 0.358145 -0.229
574 6.85269 6.67498 0.750895 1.63346 2.32737 0.348584
621 6.10898 6.97004 1.56126 0.747086 -0.516076 -1.33962
635 6.9767 7.38258 1.72233 0.448391 0.460709 -0.949843
670 2.00513 5.80836 5.11655 -1.48737 2.07341 0.411049
471 9.29767 7.37469 1.08096 1.61452 -0.959818 0.664806
296 8.27303 6.25354 0.66635 -2.17881 0.318352 1.11654
532 10.2436 6.13178 1.03903 0.170442 1.64197 0.610606
96 10.4103 7.11043 0.254457 -1.94193 2.04728 -0.379568
822 0.563966 9.30434 0.955278 1.99378 1.76713 1.49658
369 0.782564 8.86883 2.27978 -0.533255 1.40253 2.22526
485 0.739845 7.28793 0.624087 2.25726 0.201122 -0.533743
289 1.59522 8.48071 1.33359 0.12064 -0.459798 2.19507
775 3.22253 5.61644 4.79714 0.0409024 1.96528 -1.28447
861 2.51155 8.01823 0.636134 -0.804846 0.376846 -3.05843
25 1.87682 7.16906 0.459461 0.233444 0.306476 1.01417
800 3.5656 8.42649 0.852488 1.31868 1.62288 0.803655
469 3.99312 9.00201 0.197182 -2.74939 1.71871 -1.10185
285 3.72615 7.28493 0.603584 -0.536346 0.978388 -0.515317
823 4.4818 8.18263 0.629975 -0.840938 1.69157 -1.30422
333 5.79217 8.45929 0.962659 2.9986 -2.33695 -1.80357
535 5.02869 8.94803 0.348917 1.19683 2.80529 -0.026135
831 6.99305 8.49118 1.19312 1.8281 -1.2911 -0.243238
609 8.91443 5.62829 1.25063 -1.29616 1.2095 0.264964
502 8.05457 7.35308 0.354507 -0.872053 0.248824 -0.564817
746 8.79132 8.03651 0.560635 -2.13609 -0.630661 -2.01332
623 8.28587 7.94569 1.45439 -0.311198 2.14779 0.289565
824 0.15966 8.39507 1.32845 1.33634 -0.629809 0.129396
81 10.2613 7.42453 1.26768 -3.34701 -1.09856 1.33768
791 10.2232 8.3521 0.614178 0.204269 -0.248326 1.2243
672 9.64296 8.29324 1.62518 0.635058 1.08652 2.02909
667 7.13647 5.3763 4.71603 0.672931 0.25204 -0.0671071
418 2.17085 6.17315 0.534923 -0.58225 0.594534 2.05191
447 1.49109 10.6856 3.46903 0.764018 -1.81833 -0.350073
421 2.02429 9.95756 1.3821 1.46224 1.29191 -0.355394
48 2.65446 8.88909 1.28223 -0.51662 0.0835616 -0.0955613
424 2.97685 9.80314 1.98928 -0.224847 -0.833193 0.199874
854 1.20064 10.1592 0.540976 -1.60106 -1.74939 -0.99684
652 9.21224 6.15914 0.335709 0.850164 -2.16275 -2.15978
362 3.38606 9.66841 0.877514 -0.902246 -0.565809 0.56719
615 3.94704 9.1675 1.64203 1.98032 0.884517 0.748042
366 4.4505 9.92249 0.793502 -1.47504 -0.288703 -0.97313
830 0.0438658 8.52989 5.06335 2.63363 -3.31293 0.0176859
486 5.09434 9.08899 1.43861 -0.532777 -1.62895 0.118263
838 4.97983 10.4331 1.7868 -0.128265 2.34762 -0.574698
334 6.07743 10.1015 1.07622 2.05664 -0.527195 0.312031
654 6.45864 9.14955 0.504131 0.72063 -0.253933 -0.178344
859 7.42065 9.43097 0.891811 0.296177 -1.61076 -0.557795
303 0.529263 10.5494 4.33634 -0.773965 -0.332189 2.96024
466 0.930127 9.1427 0.141047 -0.247049 -0.300951 0.258425
814 9.00455 9.08155 0.545372 -0.693683 -1.79765 1.03082
358 8.27643 9.9485 1.29971 0.998842 -0.691557 -1.78304
771 9.75863 9.38789 1.2721 0.259442 2.24621 -0.187453
233 0.0676725 10.5666 0.93257 1.93241 0.121564 0.967007
451 2.50724 10.3637 0.0455032 -1.01936 -0.419407 1.19589
483 0.346621 5.95227 2.78385 -1.75443 1.06787 -0.206622
129 0.75299 6.96245 2.52791 0.271137 -0.201227 2.21214
135 2.83339 5.56682 3.83174 2.04092 0.72114 -1.09199
150 1.7419 5.93435 2.60075 1.04133 -1.1332 0.0629469
398 4.32687 5.98913 2.02131 -2.35026 -3.95006 -1.7159
167 3.2668 6.06931 2.62597 2.02108 -0.0756252 0.387356
484 3.09149 7.08774 1.9498 -2.40369 -2.31834 0.681125
725 4.44259 6.92507 3.60115 -0.719283 -1.09499 1.42103
811 10.2009 10.439 3.84273 1.48703 0.000959888 0.0497874
255 5.3804 6.30627 3.75656 0.395222 -1.03443 1.03803
423 6.18033 6.40902 2.73437 -0.756466 -1.43419 0.804088
132 6.29 5.53886 3.20925 -1.1154 -0.196777 0.959919
752 7.01067 6.21187 1.81177 -1.67451 0.447761 1.50113
474 6.9931 7.05211 3.0843 -0.131385 -2.35393 0.593826
74 6.28111 6.83809 3.88812 0.0126149 -0.311986 -1.35849
732 8.05616 5.96071 1.85946 0.543836 0.0945485 2.63289
479 9.11666 5.86151 3.1765 0.905422 -1.65064 -1.99287
20 7.62798 6.87848 2.31486 -0.469288 -0.674216 0.0163068
501 7.86333 5.39314 3.36323 0.276014 -0.684062 1.01908
15 10.2102 6.00766 2.14098 -0.828748 -1.02025 0.908794
450 9.2937 6.58357 1.8043 -0.716293 -0.406523 -0.476891
546 9.46368 7.17485 2.67599 -0.292446 1.28141 -0.784229
630 0.745334 7.86408 2.02344 1.54747 -0.116985 -0.125234
463 1.89337 7.89116 2.77717 0.891928 -2.15443 0.322471
781 0.867893 7.92169 3.0483 1.38542 -0.434157 -0.348224
165 1.7346 7.24758 1.63939 0.4035 -1.53285 0.4078