ITEM: TIMESTEP
42560
ITEM: NUMBER OF ATOMS
864
ITEM: BOX BOUNDS pp pp pp
0.0000000000000000e+00 1.0726842421158810e+01
0.0000000000000000e+00 1.0726842421158810e+01
0.0000000000000000e+00 1.0726842421158810e+01
ITEM: ATOMS id x y z vx vy vz
160 10.5567 2.48226 5.30071 -2.32598 0.675195 -0.55541
689 10.5873 0.24968 1.18003 -2.15082 -0.0532673 -0.621482
683 1.37301 1.45442 2.14966 0.342593 2.02202 0.793922
175 0.697706 1.46365 1.07708 -1.49922 0.0715723 0.83802
156 0.528334 4.96182 2.19509 0.318684 -1.30916 1.23149
591 1.6699 1.11792 1.12662 -1.84036 -0.880046 -0.564939
131 3.32013 0.780647 0.182465 -1.37934 -0.929166 -0.354007
731 2.67206 0.810824 1.07247 1.95238 1.6589 -0.539187
140 4.21398 0.894672 1.01627 0.244713 1.86509 0.766381
295 3.55204 1.58572 1.73499 -0.276391 3.1087 0.740463
119 10.4629 5.29888 1.51337 1.05885 -0.242953 2.13071
642 5.6934 1.60233 1.73932 -0.369307 -0.04193 2.92556
403 5.50534 1.29297 0.481854 -0.349946 -1.65767 -0.19771
402 6.31778 4.93029 2.62079 -0.294602 0.466283 -1.31143
240 4.4934 1.97114 1.34436 -2.28262 0.264524 0.383409
770 5.24152 0.306781 1.1787 0.328201 1.52738 0.79753
694 6.00494 0.557445 1.73284 -0.199979 -1.44138 0.497092
31 6.50844 1.2339 0.715727 0.696107 -0.137137 0.332123
134 7.74068 1.21909 0.616399 0.787536 -2.08769 -1.75633
804 7.36279 0.437774 0.228493 1.41158 -0.401907 -0.242545
578 9.78992 4.3503 4.54336 0.194564 0.270027 -0.0888915
809 8.35402 1.60421 1.40243 -3.61108 1.45941 1.39314
177 7.94423 0.193742 1.09836 1.62894 -0.135167 1.82194
14 8.97663 0.616138 1.01752 0.195192 -0.113097 1.68634
599 10.4969 1.75957 1.42048 0.906673 2.07782 -1.42895
583 0.00352144 0.760999 0.177672 -0.0836769 -1.15056 -1.53437
493 9.53963 1.56671 0.892171 -0.582268 -0.258768 2.26666
310 0.740612 2.74389 1.06756 -0.243777 0.170985 -0.305032
120 9.32969 3.13691 5.23002 -0.32265 1.36757 1.64155
730 1.96646 3.06874 1.44623 0.235907 -1.61831 -1.02794
438 1.50738 3.19311 0.223425 -2.61957 -0.373725 0.101842
103 3.37251 3.10067 0.440026 1.71487 -0.729043 -2.0627
138 2.71767 1.9725 1.14644 -1.10841 -0.0943532 -0.544913
33 2.82433 2.58374 2.00802 -0.207978 0.317963 -4.01838
152 2.12079 1.60105 0.362693 2.12244 -2.09522 -1.3634
507 3.71978 2.15661 0.747966 0.192479 -1.2497 -0.645905
89 8.36403 0.298077 2.01159 -1.46053 0.0335109 -0.864083
93 6.38697 2.6667 1.13908 0.12929 1.5775 0.887179
58 4.44438 2.971 0.435978 -1.11959 1.34737 -1.46251
68 5.83729 3.64244 1.22113 -1.29856 0.866137 0.208612
13 4.3893 3.29679 1.8979 -0.560713 -2.00815 -1.14076
230 2.47147 3.71793 0.774197 0.60704 1.07499 -0.256629
525 7.4762 2.25126 0.928751 0.132776 2.26867 0.920536
98 2.24871 5.23613 3.2789 2.31574 0.109481 -0.0773358
42 7.51595 2.3591 2.22622 1.28777 2.51793 -0.185948
508 8.61599 2.91736 0.515205 0.983816 -0.91071 -2.83014
760 8.94952 2.46955 1.93714 -0.158332 2.28155 0.103851
716 8.60382 1.99072 0.00436044 -0.932455 -0.299179 -0.381568
464 9.54408 2.75113 1.03887 -0.701293 -0.62946 -1.6735
553 0.603125 2.03864 1.92783 0.744517 0.754318 0.710815
106 10.2987 2.77413 0.327216 0.379358 0.536848 1.65931
627 0.677411 4.65929 1.16737 0.115225 0.11808 -0.864903
66 5.91876 3.49495 0.144464 -0.0895087 0.725928 -0.515084
589 0.406579 4.06785 0.428213 0.805915 -0.128673 1.61769
111 1.76235 4.28572 0.202859 1.71719 1.45533 -0.381923
443 2.60372 4.46955 1.83588 -0.962639 -1.50469 2.69688
418 3.33961 4.74908 0.477066 -1.62054 0.68303 -0.0918712
184 4.38401 5.34435 1.50238 0.146614 0.499779 -0.677574
391 4.02235 4.20016 1.11746 -0.513706 0.669408 -1.3071
575 5.7671 4.59061 0.492476 1.58608 1.41689 -0.653673
62 4.83075 4.2719 0.437657 -2.0207 -0.0597883 1.65477
105 0.0598731 0.389997 5.24408 0.79118 1.00128 -1.24467
283 8.43563 4.66735 0.119643 0.691056 -1.28254 -0.46882
678 9.54311 5.29168 1.16142 0.418682 0.647708 -1.55398
294 10.5105 3.1738 1.24578 1.45295 -1.50519 -0.663933
374 9.25863 3.79532 0.1954 2.55096 -1.06791 -1.35688
252 10.0684 4.47144 0.753215 -0.396175 -0.398425 0.202516
780 8.87974 3.42952 1.75248 0.691247 1.30285 -0.720817
249 10.6767 5.25533 0.271508 -1.00835 1.08238 -1.12916
733 3.37814 3.78928 4.95542 -1.54592 -0.0621307 0.512436
587 0.439417 1.01858 3.08087 0.205173 -0.21379 0.836124
851 0.862729 2.06841 3.06385 -0.432456 0.8338 1.0209
78 0.446493 0.177222 2.06384 1.98604 -0.496679 -0.079813
392 1.86569 2.24826 2.37266 0.194397 0.819969 -0.483047
144 2.24602 0.678869 2.04497 0.0133609 -1.02887 -1.90466
142 2.27398 1.06113 3.15604 1.56756 0.895726 1.34199
603 2.67254 1.61996 2.20875 0.791966 2.11798 0.130597
414 3.24188 1.57864 3.71925 -0.766551 2.3251 0.87439
462 3.37989 0.165808 3.00752 0.513873 0.152069 0.506516
370 4.09415 0.960334 3.54384 -0.301396 -0.430182 -0.948316
268 3.61367 0.697562 2.03338 0.331485 0.996693 -0.398546
350 5.60537 0.86267 2.67304 -0.372245 1.40842 0.303063
676 5.35092 0.238308 3.51248 1.50587 0.331688 0.0152956
153 4.75832 1.93878 2.54209 -0.458304 -1.56115 -1.22155
634 5.75353 1.23166 3.55197 0.287832 2.35861 1.1472
225 7.01604 0.489355 2.64068 0.0698773 0.28511 -0.944924
137 6.80135 1.58213 1.79083 0.612609 0.423232 -1.28027
522 6.97348 1.51268 2.91115 -0.638005 -1.94381 0.904815
496 7.94958 1.25618 2.56968 0.699461 1.27237 0.768971
228 9.0184 0.744649 3.03199 0.4931 -0.366411 -0.631313
293 9.00028 1.7109 2.8525 -0.118445 1.44381 1.8086
685 10.116 1.20788 3.15914 -1.67061 -0.181912 0.437041
223 1.10933 2.97406 2.02187 -1.53778 0.371045 -0.582025
265 1.58637 2.17423 1.28589 -0.96101 -1.53554 -2.19985
449 1.28252 2.55226 4.07748 -1.32747 -0.431714 0.542767
168 0.707992 3.14325 3.45119 -0.467223 1.38863 1.48909
490 1.70457 3.09686 3.05698 -0.881548 -0.241408 0.550796
179 3.74412 2.47692 2.19648 2.41042 -1.18109 -0.0163422
284 3.42784 3.43995 1.91286 -2.03519 1.03086 0.269247
204 3.90042 2.58217 3.52032 -0.520386 -2.48734 -0.30454
564 3.06561 2.69754 2.97947 -1.40079 0.939125 1.49921
482 5.57422 2.98766 2.09942 0.965223 0.367509 0.436065
680 4.76265 3.0409 3.12328 1.40555 0.931037 1.507
837 5.90095 2.34695 3.87196 1.23902 -0.399729 1.78007
826 7.14202 3.41744 1.18456 0.124425 0.348006 -2.87443
247 6.54231 2.50288 2.66548 -1.92635 -0.355557 -1.83555
527 7.72932 2.07924 3.31532 1.03689 -0.535257 -1.76852
669 7.43573 3.63786 3.16771 1.11198 0.163355 -0.771717
425 9.08266 3.28473 3.01953 -0.566877 0.274486 -0.317552
624 8.1477 3.34144 2.41587 -0.0369971 -0.979864 1.74831
354 8.26936 3.60246 3.63476 -1.50276 0.98075 0.772451
209 9.98888 2.03468 2.4479 1.61412 -1.13321 -1.30011
843 9.86764 3.22167 2.32578 1.66021 1.02802 -0.824774
183 10.298 2.73844 3.15355 2.79896 -0.702187 1.02117
171 10.1256 3.60372 3.72639 -3.72936 -1.52426 -1.20181
124 0.558171 4.27113 3.10127 -1.92908 -0.536388 -0.519504
512 1.46394 3.85864 2.35192 -0.798961 -1.43721 1.29491
681 4.2572 1.50785 0.136519 1.23108 0.430564 0.321558
779 0.132755 3.51378 2.21348 -0.848502 -2.14945 -2.24453
335 1.53005 4.01209 3.83505 1.09243 0.436905 -0.5344
345 1.60874 4.31617 1.21598 0.0193697 -0.216576 -2.00001
863 7.07458 5.19982 3.96698 -1.602 -1.75048 1.57375
80 2.41931 3.52267 2.2699 1.2598 1.95892 1.68113
207 2.4746 4.10109 3.28685 0.321693 -0.0649772 0.811437
560 3.5704 4.87459 2.14263 1.22335 -0.817571 0.419678
538 3.90421 3.64262 2.81272 -1.22901 1.02239 -0.14057
60 3.60248 4.97035 3.25782 1.35361 -2.86711 0.469373
753 4.6457 3.92499 3.69566 -1.04365 0.00133861 -0.807687
429 4.55732 5.07701 2.44178 0.458967 -0.740449 0.191285
400 5.1616 4.22702 2.30222 -0.369968 1.11471 0.720345
157 5.55566 4.42481 3.28087 0.218085 -1.07691 -0.553895
488 6.31171 3.68107 2.45678 1.02724 2.54955 -0.839718
614 6.89516 4.4326 3.27939 -0.925562 -0.208263 1.82058
528 6.1409 4.61731 1.65312 -1.29778 0.95503 1.97824
582 7.29314 4.31896 1.913 -2.26057 -0.284694 -1.43406
609 8.77106 4.37888 1.56503 -0.203823 0.861435 1.16341
595 7.37936 5.21779 2.9865 0.406863 1.1089 0.117471
842 8.1533 4.71036 2.41803 -2.14837 -2.94185 1.88612
190 10.0646 4.25139 2.0182 0.0663149 0.435827 -1.53519
470 8.81246 4.21563 3.05799 -1.08285 1.63347 -0.424556
151 10.0714 5.1669 2.56387 1.01099 0.76081 -1.07102
461 1.11904 1.11116 4.529 2.57345 -2.5388 -0.886659
303 1.45223 1.55052 3.58054 0.675572 1.88154 -2.02826
34 6.6943 3.19368 4.85938 0.562009 -0.173498 0.794483
16 1.81115 0.455159 5.05515 1.21867 -1.29047 -0.0486434
278 3.27519 0.273664 4.04276 -2.78874 0.468467 -2.28272
551 9.81203 0.584652 1.82652 -0.125414 0.648753 0.320995
664 2.20105 1.18767 4.34156 -0.145565 1.33414 1.74701
435 4.36895 0.14825 4.16586 0.16704 0.687206 0.0810823
811 1.11884 0.290547 3.49328 -0.406579 1.73621 0.643458
612 5.17724 1.10668 4.36978 1.84508 0.0552567 -0.907955
180 7.69433 0.925634 4.8695 0.2415 -0.963043 0.578899
487 6.10947 0.521955 4.30325 -0.942938 -1.37224 0.751311
536 7.22829 1.00551 3.72627 1.05218 0.31399 0.974461
188 8.29274 0.530115 3.84777 -0.510286 -1.8012 -1.9866
696 8.47827 1.53588 4.97881 -0.846731 0.582376 0.0458853
840 4.47627 0.234421 2.98096 -1.69277 0.794966 -0.103335
713 8.53197 1.54779 3.8297 0.363782 0.560338 0.0468368
797 1.11304 2.02537 5.19625 1.19498 1.95035 -0.721223
629 9.3939 0.651579 3.96934 -0.59836 -1.22779 -0.754072
835 4.19552 0.113553 0.118369 2.38131 0.436013 1.0868
85 9.97393 1.49918 4.67384 0.680242 3.48514 -0.891252
21 0.0451097 0.764104 4.19519 -1.09545 -1.28555 0.269148
834 0.0719446 3.73988 5.21116 0.516576 1.3243 2.06724
222 0.462847 1.92831 3.92506 -2.87478 0.773837 1.44587
793 0.516896 2.66511 4.63387 0.401607 -0.577268 -2.4036
380 1.20621 3.4764 4.6207 -1.2196 -3.16295 -0.614744
420 3.09865 1.72567 5.31612 2.04007 1.42959 -0.49053
219 2.40246 2.09135 3.43575 -1.53572 -0.958281 2.44926
721 1.4227 5.28128 1.54643 -0.704377 0.560032 -1.25195
523 2.09562 2.46069 4.83618 -0.839643 -1.51224 2.29383
569 2.23474 3.04422 3.924 1.50629 -2.54399 -0.212456
845 3.99419 1.4326 4.62854 -0.551541 -2.18122 1.61548
437 2.98381 2.9807 4.48762 -0.209858 -1.89298 0.327476
647 5.59955 3.59254 4.38277 0.156084 0.637394 -1.77827
343 4.71391 1.97514 3.72593 -2.14055 -2.0056 -1.48841
622 6.29096 3.60105 3.60296 -0.0880583 -2.43464 -0.446219
383 7.00031 2.80096 3.67008 -2.34872 -1.77814 0.24013
492 6.77973 1.80138 4.38898 1.86389 -0.690628 -0.634115
211 7.59691 2.52792 5.18832 1.43022 0.608821 -0.336336
803 7.78394 2.95066 4.15046 -0.767372 0.747137 1.4595
846 7.74118 3.71798 5.03794 -1.18894 0.444189 2.17751
150 1.45317 4.84348 2.58033 1.33939 -0.773881 -0.541396
650 10.0012 2.92152 4.50642 0.357424 -0.682854 0.662643
77 0.143533 1.34022 5.3334 -1.78552 -1.37627 0.754177
357 9.46654 2.10646 3.77994 1.49561 3.02873 -0.803392
22 9.95302 0.178332 4.74056 -2.01051 0.122372 -0.509432
371 8.94818 3.07672 4.34052 0.0475903 0.130256 0.00644467
286 0.182535 3.9817 4.18255 1.84346 0.170844 -0.144059
571 8.56871 4.24089 4.33845 -2.17482 -2.42189 -0.0669606
491 0.930907 4.5096 4.79006 0.0620765 1.35081 -0.698316
363 2.10922 0.158062 3.68743 0.915826 0.25523 -0.316966
518 1.87253 4.92622 4.33908 -1.65018 0.90858 -0.505699
393 2.83209 4.9067 4.84119 -0.41621 -1.02843 0.0582742
504 6.51475 2.35764 5.29003 0.38569 -1.76932 1.40285
605 3.23654 3.69164 3.76318 -1.59331 0.298012 1.23604
221 2.42199 3.96089 4.32709 -1.46142 -0.797765 -0.00484505
267 3.69301 4.49145 4.26579 -1.0498 -2.26949 1.22474
641 4.58167 3.50072 4.6959 1.45564 0.184056 1.32195
711 4.96429 4.42822 4.64838 0.67492 0.387603 1.77442
467 0.999144 5.09367 3.98838 0.894302 -1.04037 1.6851
860 0.956436 0.429113 0.474514 3.11669 1.69851 0.497452
593 6.8469 4.51576 0.0694722 -2.04334 0.265904 1.52741
242 7.14444 4.16565 4.23142 0.251249 2.75085 -0.133959
703 5.50597 0.50542 5.22348 -0.453664 -0.513582 0.629271
19 10.3405 4.7363 3.57266 1.44004 1.02633 0.290803
576 7.90347 5.23071 1.33386 1.5206 -0.814675 -3.30576
73 8.29132 5.23149 3.41762 -1.42327 -1.05304 1.90999
432 7.84158 4.98725 4.539 0.367367 0.698398 -1.72831
686 10.4015 1.74585 0.386575 0.538082 -0.452291 -1.10175
176 4.60044 5.02485 3.82322 -1.06002 -1.00724 2.51928
347 4.11794 2.64751 4.5792 -0.846901 1.23881 -0.476853
801 6.24253 0.276263 0.299938 -0.0846789 1.05823 0.262782
102 1.94057 0.406696 0.304181 -0.437733 -0.831554 -0.312847
2 1.19564 5.23104 0.105947 -1.62641 -1.87994 -1.29968
28 3.65488 0.0312715 1.23912 -1.66687 -0.853389 0.227836
70 2.67514 0.0236174 4.80935 -1.05054 0.663978 0.85825
53 1.99439 3.9427 5.34684 1.1116 1.87469 -0.457038
309 0.656262 1.00248 6.72417 0.122263 -0.346108 0.397011
691 4.13319 4.65736 5.39735 1.42825 -1.47548 0.327301
653 1.21398 1.70188 6.36236 0.455085 1.34569 0.643294
588 10.0404 0.441604 9.86592 -0.711351 0.401884 1.54745
544 1.88872 0.403289 6.10187 0.691126 -0.112108 -0.591028
480 3.00228 0.841961 5.84073 -0.608869 -0.608401 0.329492
250 3.03684 1.83528 6.35526 0.0666594 -0.775399 0.652056
513 3.7674 0.442909 6.09605 3.1744 -1.07574 -0.279509
660 1.13329 0.113653 10.0913 1.18361 0.04496 2.2459
262 3.94677 1.31656 7.00918 -1.19956 -0.705997 0.576682
30 6.5416 0.563928 5.44937 2.8596 -0.657405 0.715847
315 1.04754 0.954204 5.76376 -1.45544 0.543653 -1.5561
550 7.26324 1.50045 5.62293 -0.0857533 0.398286 0.405724
376 8.19998 0.16524 6.81727 3.08083 -0.870103 -0.560626
196 9.0323 0.655812 6.56259 0.461305 -0.362129 -1.05795
453 9.51172 0.848379 5.46635 1.0991 0.00622482 -1.8419
830 9.99881 0.303578 6.47815 -2.23035 -0.816079 -0.475912
426 9.72895 1.16636 6.97726 -0.636277 -1.42114 1.59837
79 10.3421 1.28969 6.07224 1.73085 -0.344821 -1.7297
611 0.553727 2.38974 5.92078 -0.148605 0.777749 1.62997
266 1.40211 2.95303 5.55064 0.616635 -1.01756 2.34665
417 1.27004 3.66819 7.02536 -0.1203 -1.65458 2.04457
662 1.17813 2.68818 9.87768 -0.577704 0.276501 -0.161656
789 3.25012 2.91855 5.61339 0.133941 1.5838 -2.58472
17 2.8114 2.88592 6.98125 2.99383 -2.27812 0.803435
258 2.25918 2.63349 5.87757 -0.326564 0.547506 -2.30842
297 4.00303 1.81373 5.94015 -2.42604 0.83331 -0.743211
439 3.82966 2.40633 6.73587 1.09986 1.00447 -0.717263
18 5.05269 1.57885 6.38325 0.515249 -1.4456 0.275774
706 5.77734 3.16153 7.10145 0.566999 2.59107 1.81731
744 4.65636 2.64 5.71231 -0.843738 -0.466154 -2.04026
717 5.35336 0.00504543 9.93004 -0.801791 0.0359008 0.631911
191 6.03393 1.9436 6.45001 -0.485906 -0.683222 1.54267
170 7.8333 4.86312 5.5544 -0.206846 2.48767 1.17571
404 6.54827 2.83943 6.49835 1.1549 0.504404 -1.41171
543 7.25909 1.79593 6.56363 -2.35694 -0.283426 0.964418
244 8.47166 2.83398 5.69823 0.504396 -1.04875 0.368225
261 8.34334 1.69339 6.03991 -0.42124 -0.592521 -0.241432
667 8.49759 3.88704 5.92872 -4.42355 1.66846 -1.97444
651 8.71858 2.51255 6.94261 -0.164816 -1.3512 0.0633525
301 0.0894203 1.86929 6.71003 0.6343 0.116222 -2.22324
718 9.71459 2.16858 6.44857 0.5826 -1.50754 -0.718406
697 0.204887 3.6614 6.24562 -1.13087 0.225619 0.752285
448 1.00845 4.02712 5.63054 0.852981 -0.1382 -0.482328
748 0.56474 4.60517 6.55193 -0.6915 -0.0289052 -0.48148
306 3.10598 4.22547 5.8077 1.03455 -1.17069 0.535651
597 2.27877 3.60179 6.63123 0.653112 1.59405 1.1562
364 2.95493 4.79065 6.79431 1.12416 1.33165 -1.99859
159 2.04845 4.27684 7.45901 0.625928 -0.799331 -0.10138
419 6.77504 4.12784 5.48432 0.207885 -0.557116 -0.46238
203 2.95299 3.94791 7.36584 1.71297 -0.682639 -0.863228
516 3.84512 3.36438 6.46611 -0.229653 -0.331277 -0.540123
684 6.29765 0.270684 9.94813 1.65881 -0.210029 0.730065
724 0.61824 5.16276 8.67893 -0.913824 -0.44625 -2.14947
216 5.06234 3.74134 6.52909 -0.517513 -1.02601 -0.0964882
92 6.532 3.87524 7.48512 -0.0587088 0.288721 1.22544
44 5.71134 4.08081 5.77073 -0.167375 0.804226 0.725611
579 5.074 4.78045 6.15892 0.743598 0.523264 -0.901046
757 6.35774 4.67159 6.93408 2.17914 -0.697206 -1.06691
475 7.39885 1.81421 10.6431 -0.457125 -0.0338533 -0.686315
699 7.29896 3.66017 6.22607 -1.39277 -0.429838 0.294809
665 9.21929 4.72931 6.1332 -0.963165 0.930814 -1.19684
442 8.21535 4.0175 6.92554 -0.664753 1.77737 1.34035
336 7.99553 5.19899 6.46459 0.684104 0.803091 -0.373854
253 10.405 4.35448 6.98941 1.71906 1.91144 1.60536
849 10.3106 4.57832 5.63768 -1.31735 0.57518 0.229384
195 10.3013 3.91315 10.5787 -1.25042 0.342955 -1.12547
427 9.86472 3.88208 6.19347 -0.469221 -1.41857 -0.726075
567 1.2853 1.58831 7.60979 -0.81717 -1.86124 1.25421
110 0.207887 1.07743 7.75167 0.272908 -0.845905 0.594313
517 1.5343 0.746703 7.11773 -0.0662799 1.07365 0.0829154
197 0.525058 1.50655 8.62441 -2.0179 0.477346 -0.878263
243 0.715217 0.0747217 7.36101 -0.863385 1.47944 -1.63417
692 2.04835 1.90816 6.93663 -0.534535 2.29273 0.641877
384 1.43745 0.676501 8.05973 0.200146 -0.940397 0.0484568
327 2.55359 0.960227 6.7553 -0.438559 0.062839 -2.1473
269 3.13631 1.84374 7.39988 -0.353944 0.930086 -1.58355
661 3.5265 0.891214 7.97938 -2.01225 0.741886 -1.65716
126 3.96917 1.28078 8.76711 1.57863 -1.53552 -1.10374
390 5.91095 1.02293 7.12243 0.119575 0.634345 -0.307373
87 4.59828 0.725743 8.25988 -0.772166 -1.97335 1.29216
741 4.834 5.10713 7.1537 -0.300935 0.487767 -1.62232
328 3.28728 1.82573 10.5067 0.364795 -1.33369 0.743232
389 5.86776 2.06183 8.49611 -0.113418 0.903105 1.15765
785 7.31579 0.547775 7.07293 0.458878 1.39067 -1.31986
325 7.67045 1.81734 8.45986 -0.728922 0.784087 1.06232
210 7.21766 0.783409 8.72216 -1.44014 1.1237 -0.775495
39 8.34267 1.11725 7.35744 0.63289 0.214518 -0.628598
351 8.55697 2.10787 8.87953 -0.503352 2.64585 -0.867587
773 9.50613 0.723417 8.00439 0.0415682 1.55864 0.601248
72 0.546321 0.266889 8.38943 0.284742 -0.326962 1.36304
149 9.33339 1.58538 8.4113 -0.640136 0.0770959 -0.107016
555 0.88681 2.57643 7.10974 0.636232 3.80786 -2.40174
32 1.42636 2.33393 8.88782 -0.924114 -0.0465135 1.73435
596 2.38958 1.35741 7.96361 0.369484 -1.89367 -0.469082
232 1.94876 2.57146 7.84318 -2.36262 -1.80538 0.665267
864 3.22655 3.58311 8.95995 -0.188387 0.0942564 0.336392
505 2.95967 2.59798 8.19946 -0.305463 -0.523447 1.92883
520 3.73277 2.44175 9.09358 0.20526 2.18759 0.377224
759 3.99677 2.22368 7.94406 -1.3561 0.116375 0.551055
478 4.05811 3.27708 7.64935 -1.66177 0.794571 -0.237108
360 4.72811 2.73739 7.02301 -0.7803 -0.318185 -0.378001
810 4.91408 2.66832 9.25895 1.59233 -0.0674942 0.135168
524 4.84356 1.60348 7.43706 0.44439 -0.16017 -0.0213954
146 5.11084 3.18329 8.20142 0.688385 -1.2589 -1.86203
97 6.06588 3.16978 7.99465 0.688713 1.45343 -1.42956
709 6.64011 2.24424 7.41736 -0.311369 0.0875963 -0.280712
409 7.39816 3.16521 9.51695 -1.27292 0.945488 -2.81491
40 7.78509 3.0377 6.83893 1.24356 1.22788 -2.58688
274 7.23698 3.32415 7.94883 1.5134 -1.57344 0.390631
260 8.51792 3.72732 7.94038 -0.702153 1.12773 0.39968
45 8.14601 2.82621 8.17778 1.31303 -0.238023 0.944377
346 10.2432 1.83043 7.59292 -1.61555 -0.781197 -0.669614
701 10.3209 2.96368 6.78425 1.41665 -1.30749 0.307821
600 9.52159 2.70067 7.52775 -2.74078 1.22169 -0.292182
161 10.4495 3.03698 8.2386 -1.38047 -0.0398113 -0.409969
458 9.14802 3.02316 8.42134 1.3387 -1.6127 -0.545054
839 0.292742 4.85638 7.64931 -1.03207 -1.33818 0.608687
401 1.28865 4.3266 8.30977 0.459731 -1.70243 2.43953
509 0.242684 3.74429 7.58755 -0.343347 -1.30321 0.17892
104 2.93674 4.51622 8.1427 0.625527 1.36249 0.733255
632 2.22933 4.18894 9.3069 -0.771275 0.53959 0.575971
11 2.34607 3.51165 8.2137 1.51523 1.55038 -0.61305
257 6.02139 5.14023 5.82409 -0.457405 -2.36799 -2.55984
37 6.81573 2.9517 10.5144 0.521966 -0.14073 0.341474
545 4.09565 4.2148 9.08387 2.30446 0.125295 0.825006
673 4.2506 4.37294 6.91619 0.50527 1.02355 -0.995834
799 2.06611 1.41783 5.55657 1.14811 -0.332521 2.20924
511 4.88575 4.56164 8.00512 1.01193 -0.719689 -1.71064
850 5.79619 5.08665 8.11063 -0.416785 1.18413 -0.175224
515 5.5169 4.30681 7.25209 -0.138957 -1.3781 -1.04564
56 7.32323 4.69983 7.19328 0.413746 -0.144341 -1.15204
375 6.86735 4.63609 8.31892 2.2091 -1.81972 0.575354
372 2.30201 0.229675 8.00494 0.220499 0.467107 0.658884
229 8.94374 4.29286 8.67364 -1.09886 2.14461 -0.191712
844 7.95221 4.77039 8.11609 0.217503 1.01686 0.266004
446 8.35308 0.537549 5.72142 -1.23156 0.57224 1.10193
54 9.26707 4.50522 7.20815 -1.70063 -1.25829 0.102899
719 9.68101 3.66868 7.68123 0.473984 -0.180143 -1.41349
76 0.182375 4.38542 8.56368 0.807244 -0.371242 -1.60673
280 9.88014 4.78841 8.2381 -0.136935 0.720739 -1.09521
422 8.43512 0.170125 8.72102 1.25069 1.35681 3.09638
141 0.652572 0.790706 9.49972 -1.4868 1.26811 1.45399
162 0.637199 1.65587 10.6264 1.68406 0.585175 1.43984
559 4.73589 0.177087 6.78405 0.623524 1.42282 -0.366683
133 2.80822 0.958132 8.83219 1.38433 1.24067 -0.2956
410 1.84072 1.45018 9.24182 -0.885335 -1.2851 3.17619
218 2.4167 0.913679 10.154 1.70696 0.376221 2.6623
758 1.93742 0.223674 9.4785 0.795898 -0.965195 -0.198339
812 4.15439 0.65591 9.87608 0.935678 0.4242 1.61884
270 6.13473 0.176117 7.67911 0.881647 -2.56001 -0.606057
198 4.33475 1.91753 9.83864 -0.54805 0.861852 -0.444565
7 5.97021 1.31748 10.1453 -0.844416 1.39654 -0.747578
254 5.37011 0.0638838 8.50679 0.656073 -0.262274 2.46237
825 4.95607 0.828732 10.4449 1.19576 2.29988 -0.787036
29 5.16354 1.02005 9.36613 -0.100773 0.0716179 0.486499
26 6.24028 1.05387 8.93151 0.0537642 0.66947 0.150125
169 7.26875 0.856647 9.87563 0.906819 -0.455981 -0.835915
444 3.97944 0.0583524 7.51328 -1.19397 1.6492 -2.41591
291 8.64376 1.04629 9.27579 -0.479782 -0.758357 0.521312
182 8.18308 1.12067 10.3951 -1.00398 1.70457 -0.136033
352 9.20891 0.114121 9.28518 0.474862 0.151257 0.490052
130 10.2928 1.05411 8.84993 -1.6524 2.32003 -2.24103
762 9.12375 0.79367 10.3974 -0.194775 1.31442 -0.753475
500 9.96918 1.37942 10.1004 -1.97762 -1.62651 0.257436
428 0.396098 1.80559 9.61216 1.82459 -0.948138 2.04758
23 3.21864 4.8154 9.20926 -0.0687102 0.115502 -1.50434
123 2.28632 2.70349 8.91077 0.771701 1.12021 -1.29218
743 2.89717 2.76568 9.972 2.7028 -0.653145 -0.938004
415 2.81802 1.93467 9.33205 -1.37178 -2.46405 0.00837581
271 1.92987 2.02407 10.0186 -1.08108 -1.24369 -1.42358
698 3.96865 4.02355 10.5771 1.46777 0.600926 -0.243211
282 3.77468 3.28731 9.93519 -0.227599 0.815667 1.32375
637 5.56308 3.70269 9.68407 -0.805298 1.84975 1.03799
231 5.07752 1.97101 10.4326 -1.55441 -0.273244 0.266813
833 3.91166 5.2925 8.32235 0.80123 0.0365061 2.22431
205 4.7672 2.99148 10.2107 1.25845 -0.297785 1.65694
663 6.84553 2.65841 8.6631 -0.236335 0.0509472 0.925203
783 5.95283 2.63929 9.53574 0.164872 -0.306168 0.873976
215 6.18599 2.23757 10.5589 2.07363 0.573676 0.344642
64 6.82964 1.73046 9.48938 0.0859343 -2.03425 -1.7913
585 8.02149 2.72286 10.3241 1.60034 2.39682 2.539
189 7.96513 1.83783 9.64954 -0.884099 -0.438108 1.69662
445 9.71575 2.42021 9.24683 -1.48921 -0.787311 -0.517216
353 8.75181 4.12844 9.97572 0.0507689 2.0513 -0.135462
728 10.4727 2.09052 8.68166 1.60378 0.208498 -1.78159
639 9.54905 2.35394 10.4312 -0.85896 -0.695947 1.88489
460 10.1293 3.06881 10.1444 1.07429 -0.310104 0.0276601
311 10.2967 4.69906 9.72778 1.07085 -0.989925 -1.20855
125 0.781429 4.24485 10.2108 -0.4143 -0.977315 -1.83906
154 0.106319 3.43115 9.48517 -0.663151 -1.35831 -0.627853
275 0.853784 3.04303 8.05192 -0.866641 -2.12175 -2.83166
344 1.34186 4.58396 9.36567 -0.0577694 -0.234942 -0.969948
88 1.26944 3.57211 9.06976 -2.50169 -0.413529 0.34066
406 2.36758 4.96799 10.2453 2.8358 -2.86086 -0.439379
739 8.28104 0.0837075 9.93746 -0.792685 -0.960418 0.0104901
394 5.72644 1.45425 5.52516 1.36763 -0.431438 -2.11135
847 2.82376 3.89081 10.2322 -0.636228 0.481539 1.99303
619 5.02 4.49197 9.83118 0.932688 1.34207 1.00024
766 3.51443 5.21193 10.0683 1.35677 0.715045 -0.515737
610 4.33321 5.14333 9.24358 2.01761 0.711611 1.8766
531 6.28249 4.46767 9.30755 -0.341944 1.01733 -0.844437
395 1.87615 4.83079 6.2409 0.124528 -2.00926 0.590991
10 5.85722 4.06752 8.39856 0.987402 -0.848424 -0.569237
412 7.56134 4.70727 9.2255 0.172353 1.08987 -0.405382
361 3.60678 0.177077 8.68616 -0.229333 0.656927 1.9491
715 1.31018 5.01062 7.5429 0.369024 -3.90997 0.15422
592 7.7986 3.88957 10.2287 -0.266752 1.3493 -0.637998
251 9.67566 4.80061 10.6889 -0.386766 0.35107 1.18009
399 8.81987 5.30854 7.56553 1.45509 -1.4531 0.842696
778 8.55857 4.9855 9.4923 -0.404453 -1.23538 1.92641
139 8.1277 3.67662 9.13396 -0.652851 0.200196 0.0361955
292 9.78988 3.79395 9.29699 -0.235525 -1.20872 -0.837199
727 4.34829 0.0239418 5.40113 1.60408 0.545533 -3.77302
441 6.90187 5.36308 6.22897 1.31947 -0.477116 1.1007
828 0.413962 6.0699 1.48445 0.894697 0.188359 0.411942
566 8.96711 5.48284 0.238994 1.49099 -0.784831 -0.00820882
84 2.21978 5.57948 0.547249 0.806042 0.886915 -0.850564
463 1.27121 6.58966 1.27646 -0.00234529 -0.670784 1.82211
263 8.77485 8.32148 5.15023 -0.10743 -1.67592 0.0994941
165 2.29842 6.71662 1.43344 -1.8897 0.249949 0.745892
398 4.57626 5.90633 0.525814 -1.02372 -0.165944 1.92864
201 2.85431 5.74493 1.24272 -2.26707 -1.29478 -1.08225
167 5.59977 6.73049 0.797785 -0.40465 0.277528 1.00214
820 5.43676 5.97798 1.9424 1.55656 -2.07503 0.022138
688 4.31352 6.29134 1.72788 -1.56352 0.733369 1.31124
574 7.18694 7.15436 1.27503 1.44137 1.54644 -1.12382
621 6.54621 5.97197 1.12898 -1.24563 0.601436 -0.372266
635 7.51645 6.2481 1.46072 1.61628 -0.589926 0.439262
186 7.35347 6.63853 0.130482 -2.54257 0.0848497 -0.203534
502 8.37973 6.50713 0.7378 -1.68876 0.756222 -0.0763551
644 10.3735 8.8834 4.23191 0.198149 -0.141599 0.559704
630 0.743134 6.74607 0.561814 -0.0313092 1.47879 0.876181
81 10.2884 7.10123 0.819641 -0.602218 1.54721 -1.45241
854 2.72169 10.3896 0.207193 -0.884621 0.680804 -1.30677
193 9.35944 6.8821 0.277339 0.374132 -1.39448 0.901171
695 1.89331 7.02983 0.091302 2.14355 1.03689 -0.892042
15 0.169746 6.95211 1.94422 -1.51971 0.193408 2.36731
1 0.473778 8.80259 1.48613 1.62936 -0.74181 0.130516
822 1.4447 8.04138 0.961664 2.00569 -1.34746 -0.822137
791 0.465529 8.3623 0.565266 -0.804988 1.84914 2.70476
465 8.64534 9.13059 4.15402 2.37918 0.982543 -0.650164
289 2.45212 8.30213 1.0235 0.434149 0.159791 0.382611
200 1.76584 7.16328 2.2307 1.8294 0.152809 1.4508
794 3.62674 7.69173 0.459346 1.9541 -1.04832 0.943568
823 4.12672 6.68895 0.836854 -0.727218 -0.951915 -0.156055
800 3.15473 7.29953 1.34311 0.715394 -1.22994 0.299656
469 4.74375 7.4857 0.985941 -0.952152 0.869099 1.29937
486 4.36833 8.66125 0.448097 -1.4577 -0.088156 -1.49778
333 5.64006 8.11982 1.16845 -0.459127 -1.88083 -0.30735
423 6.12764 7.17127 1.61144 1.43839 -0.92059 -0.392619
831 6.70519 8.17438 1.12111 0.704231 0.396746 0.71764
814 8.87037 8.58082 1.44834 -0.270374 -1.24253 -1.36163
746 8.18231 7.49248 0.785215 -1.93219 0.031969 0.648007
94 9.9746 8.17796 0.276932 -1.0343 0.923225 1.08584
158 9.3189 7.62359 0.913782 -1.15783 1.96769 -0.721109
521 9.98097 8.62738 1.14404 -2.04378 0.783029 -1.18352
771 10.41 9.1921 0.187471 -0.20304 -0.667455 -2.83633
594 9.17649 10.6105 5.32975 -0.194568 2.04122 2.01448
369 1.58517 9.44294 1.88549 -1.79492 0.0801197 1.03922
788 2.82214 10.0466 1.02792 0.765604 3.13313 -0.997201
340 2.0407 9.56443 0.715844 -0.32107 0.476256 1.25296
362 3.89613 9.84453 0.449253 -2.41191 0.897977 1.25499
48 3.3615 8.90304 0.567288 -0.308901 -1.09535 -1.02118
173 4.00871 8.52106 4.99983 -1.86224 -0.459217 -1.04289
615 4.47914 9.54627 1.44336 -1.49277 0.792226 0.9661
838 5.07538 10.19 0.670594 0.359867 -1.18702 1.40205
447 1.63544 10.534 2.66008 0.109501 -3.03664 -0.574937
334 6.21827 10.3737 1.21766 0.158231 0.515892 0.621303
534 5.14367 8.87816 1.60514 -0.151491 1.18228 1.00468
321 5.33209 10.5065 2.36131 -1.00435 1.39787 1.70829
654 6.08018 9.23102 1.01983 -0.403655 -1.64884 -0.617319
829 7.19583 10.7194 1.80593 0.641707 0.0168476 1.52252
859 6.89696 10.1224 0.251341 1.05851 2.51751 -0.678247
382 7.53956 8.70902 1.32755 0.0705106 -3.35961 -1.40493
358 8.76223 10.1755 1.39371 -1.68817 0.536787 3.20749
233 9.39813 9.35828 0.769382 0.15231 -0.377893 1.00271
86 8.61379 9.58831 0.100022 0.431485 -0.242544 0.376331
373 9.42838 9.45724 2.10785 0.618357 -0.160878 0.15373
554 9.56941 10.6822 0.0361678 -0.723019 -0.326143 -1.87023
4 8.36466 10.6159 0.233242 0.322039 0.624448 0.62088
483 1.05609 6.52546 2.52815 -2.20148 -2.19602 1.53919
648 8.41971 8.48327 0.224987 0.863993 0.946342 1.54343
745 1.75058 7.52096 3.30076 -1.37071 -0.0501321 -1.79097
99 1.98301 6.17341 3.85749 1.55878 -1.31588 0.407363
658 0.355312 5.70737 2.86059 1.63561 -0.510607 1.19784
135 2.05917 6.43198 2.85896 2.43862 -1.2128 1.17568
436 3.24528 5.84514 3.67619 0.0799951 -0.00725139 1.75124
568 3.70934 6.63119 2.98593 1.89368 1.83238 -0.262914
50 3.36564 5.66714 2.61648 -1.14588 -0.474382 1.55256
818 1.37151 8.66084 0.035403 -0.435356 -1.45087 -0.374098
476 4.50769 5.90806 3.39449 -1.36895 0.517105 1.80296
452 4.21223 7.55397 2.11241 0.292867 1.59287 -0.937426
113 6.30218 6.62561 0.104497 -1.30605 -0.0252972 -0.680461
255 5.94986 7.11432 2.74642 -0.35389 -0.188011 2.29882
132 6.25192 6.06909 2.95269 -0.990011 -0.5814 1.13932
501 7.25631 6.22066 3.41631 0.678817 -2.0092 0.628834
532 10.1743 6.25893 0.336028 0.459865 0.53352 0.949462
296 6.76238 5.6146 2.07073 -0.703497 -1.91575 -1.75225
752 6.66738 6.6181 2.22673 -0.964637 2.1767 0.244244
732 7.82381 5.86077 2.45865 0.0778656 -0.318624 0.700384
440 8.86425 6.99742 3.00905 0.75137 1.54945 2.03046
755 8.42619 6.06311 3.94579 -1.59135 0.538488 1.16991
450 10.2123 6.06398 2.04063 -1.02057 0.404367 -1.12094
471 8.82547 5.93661 1.62038 -1.53157 -0.768934 -0.669537
479 9.15031 5.76866 3.01978 1.39709 -0.519713 0.630722
546 0.0840771 6.7711 2.91862 -1.2766 -1.2846 1.44471
623 9.65815 7.05788 2.09439 -0.238106 -1.32102 -1.41922
824 10.5559 7.94313 1.57379 1.10928 0.16312 -2.58248
781 0.655312 7.76487 3.14899 -0.50187 1.22157 1.56724
129 0.664778 8.00352 2.19585 -1.32141 1.40595 -2.88543
192 0.825492 8.87449 3.17494 -1.05133 2.05273 0.732407
751 2.26144 8.36139 2.13651 0.968624 1.19617 0.130616
484 2.65393 7.43429 2.70717 0.614426 -0.994652 1.06617
581 1.79575 8.84886 3.05522 2.20215 -0.219527 -0.643758
65 3.32139 6.466 1.92274 1.75586 1.74861 1.54977
378 4.81139 7.82707 3.24187 1.30682 -0.500646 -0.188423
645 4.03695 8.55698 2.06002 1.77626 -3.02756 2.22184
304 3.5015 7.96278 2.84678 -1.82268 -1.44783 2.92918
714 5.18578 8.13687 2.29713 0.391899 1.12346 -1.27962
433 5.02112 6.83445 2.94687 -2.05096 -0.950971 1.89883
341 6.81362 8.50596 3.49807 -0.803933 1.24987 2.60886
736 6.41397 8.72611 2.25769 0.884282 1.52677 -0.624431