ITEM: TIMESTEP
48580
ITEM: NUMBER OF ATOMS
864
ITEM: BOX BOUNDS pp pp pp
0.0000000000000000e+00 1.0726842421158810e+01
0.0000000000000000e+00 1.0726842421158810e+01
0.0000000000000000e+00 1.0726842421158810e+01
ITEM: ATOMS id x y z vx vy vz
660 0.495614 0.553059 1.39097 -0.365531 -0.410772 -0.554268
310 0.233758 1.63771 0.404036 0.190646 0.793481 0.775402
354 9.27973 5.25237 2.33024 0.945724 -0.595339 1.2975
812 2.06537 1.46699 0.621518 -0.0211294 2.85608 0.764274
204 3.32685 1.08524 1.14794 1.07099 -1.37993 -0.0273176
131 3.81833 1.19047 0.258107 0.458895 -1.25053 -0.239707
681 3.83586 0.382179 1.72529 -1.79367 -2.30772 2.23758
856 4.11242 0.549259 5.29277 0.812151 0.356897 0.588489
119 1.75918 5.03099 2.05148 1.62566 -3.04894 -2.34771
28 5.42295 0.310495 1.19919 -0.115605 1.32651 -1.84882
307 8.08076 0.0443848 2.40066 0.505225 0.614211 1.55136
825 4.77239 1.0722 0.811109 2.53698 -1.08705 -2.40209
720 4.46872 0.196841 0.0165618 -1.54726 -0.235863 -0.077173
403 5.97213 2.21248 1.78268 -0.860709 -1.32694 -1.65329
383 7.71373 0.309971 0.725683 1.12027 -0.494531 0.172888
801 6.66991 0.217662 0.60475 1.76174 0.752413 -0.720377
317 0.492314 4.64072 4.5141 0.828326 -0.241854 -0.838097
189 6.82407 1.49686 0.919411 -1.51713 0.308557 0.502407
460 7.66272 1.23424 1.62876 -1.04034 1.49749 0.872344
689 8.67974 0.571547 1.20863 -1.50909 -1.66402 0.239679
357 8.91898 1.73919 1.57763 0.971753 1.61704 0.839099
685 10.5713 0.667303 0.597738 -0.654921 0.441392 -1.27963
686 0.980961 2.68331 0.207789 -0.766443 -2.46571 -0.243442
130 0.531954 1.75923 5.048 0.682213 -0.366169 1.21851
388 0.377716 2.09253 1.35043 1.50224 -0.608858 0.549854
152 3.16857 2.12615 0.761231 2.33185 -1.71663 -1.6505
162 2.36202 2.35915 0.249897 1.71709 -2.70512 0.533712
363 1.33469 2.03656 1.04848 -1.58074 1.6344 -1.67219
553 1.89655 3.23431 0.791834 -0.692347 -0.942293 -1.34479
443 4.17703 1.83068 1.04209 -1.07833 -0.439182 0.0828463
391 4.02186 2.81661 1.38677 1.8391 -1.17556 2.49006
591 3.0576 2.30677 2.01477 -0.109254 -2.82416 1.40402
770 5.15975 2.75181 1.51241 -1.44198 -0.694104 1.30057
284 5.38066 2.60062 0.310218 -0.0198566 1.72551 -0.506676
7 6.25555 2.22664 0.472808 -0.453668 -0.288837 -0.379523
37 7.44613 2.62762 0.048967 0.519583 -0.334346 1.06361
835 7.47857 2.25452 1.105 -0.610654 0.175418 0.0213763
93 6.76076 3.7072 1.60796 0.273958 1.79532 -0.30299
296 6.03462 3.22792 1.13973 1.63794 0.77336 -2.16893
760 8.59061 3.58203 1.00975 1.32547 -0.200624 -0.0270167
488 8.17562 1.05499 0.177764 -0.639187 -0.996382 -2.21914
293 8.3768 2.87736 1.61472 -1.74422 1.95874 1.51457
438 8.4861 2.40046 0.648197 0.32139 0.117185 -0.825768
716 10.1731 1.70402 2.12385 -0.667853 0.665562 0.972725
599 10.5158 2.57967 0.656528 -0.63423 1.06561 -1.67176
780 9.48699 2.37095 0.909689 0.163685 -0.486448 -0.215099
351 9.54746 3.39358 1.33437 1.147 0.76241 -0.824742
345 1.03925 3.78418 1.00323 1.54055 -0.235316 0.928187
144 1.16688 0.265223 2.81122 -0.0721573 1.13856 -0.32178
106 0.00829805 3.80114 0.4879 -0.385517 0.0577198 -0.294051
335 1.21742 4.96277 0.998459 0.523431 1.17518 -1.56896
627 2.13183 4.28758 0.90647 -1.67556 -1.50797 0.00934964
864 4.11443 3.61701 0.628886 -1.46696 -1.39955 -0.921202
43 4.79065 4.90524 1.11596 0.523904 0.733217 -1.31218
215 4.35199 2.8362 0.0155935 0.364163 0.2502 -0.4439
62 3.13421 3.54005 0.889066 0.631212 -0.694624 0.0108096
23 3.49842 4.5558 0.679481 -1.30027 -1.14332 0.0598143
68 4.69961 4.77072 0.0141725 -0.227369 1.76725 -0.742256
845 2.8058 0.150098 2.55697 0.176282 0.597697 0.486417
820 5.12727 3.71986 0.400361 -0.686483 -0.487026 -2.45255
619 7.07759 3.49831 0.377684 1.75283 -1.96201 0.0389897
66 5.89553 4.15625 1.31323 -0.625261 -1.71136 -0.562884
423 6.99153 4.08713 2.52453 -1.75452 -0.167246 0.223172
283 8.76858 4.56987 0.917098 -1.21897 -0.0156872 -0.624058
295 6.16115 3.61895 0.113854 -0.23145 1.20686 0.88063
120 7.59673 4.3135 1.23908 0.394638 0.593605 -0.66778
570 9.16681 0.667359 0.0326801 -1.05439 -0.50305 -0.618129
163 3.39973 0.0170456 4.30182 0.862755 -0.638226 2.5201
371 9.48175 4.2011 1.85771 0.526614 1.10914 0.397184
428 0.242992 3.72851 1.7852 1.52854 -0.00748559 1.446
809 9.90216 4.34431 0.615711 0.358801 1.42976 1.06167
470 0.156017 4.80802 0.925092 2.44128 -0.445138 -0.745427
581 0.320863 0.521932 2.37313 -0.0996438 -0.608683 1.64754
175 0.431745 1.49231 2.20255 -1.36783 0.566139 1.43022
142 1.66721 1.03564 4.08461 0.772219 -0.923631 -0.394512
578 0.52268 0.734485 3.33488 -0.282349 -1.68429 -0.577102
490 2.22445 1.06994 2.46277 -1.01344 2.88617 -0.849794
370 2.32637 1.63677 1.63758 -0.536873 -0.910065 -3.40232
79 1.47788 1.99099 4.30089 1.12834 -0.333276 -2.6187
138 2.78424 0.330873 1.64019 -1.43108 -0.0653674 -1.93527
643 3.22895 0.762553 3.47726 0.166917 0.843395 0.432005
642 3.2075 1.11223 2.15771 -0.546406 -0.374746 1.47582
435 4.16805 1.24273 2.43551 -0.715793 2.46458 0.800363
331 5.09201 0.648774 2.98095 -0.210143 3.11823 1.71392
153 4.90223 1.27001 1.67947 -0.181933 -0.0268764 0.5416
414 5.18673 1.60551 2.60053 -0.957096 -1.13213 -0.638607
334 5.98088 0.626229 2.43113 -2.26499 -0.309883 1.15668
350 6.21527 2.25318 2.9865 -0.0465135 1.60992 1.21806
89 7.07534 0.415203 1.85229 -0.230287 -0.111421 -1.7232
224 6.10186 1.29521 3.31468 1.41457 0.394428 1.82987
713 7.2206 1.50772 2.75378 0.981382 0.201697 -1.29975
42 8.10721 1.09327 2.53991 -1.66081 1.66107 0.874346
703 8.15363 1.42732 3.68309 -0.19314 0.445211 -0.255626
819 8.81645 0.661803 3.14258 0.851205 -1.09759 -2.28851
226 10.1944 0.158477 2.71077 -0.757163 -1.1904 1.27833
858 9.94571 0.88195 1.64462 -0.158595 0.308075 0.216876
124 0.456446 3.16955 2.77794 2.08177 2.37336 1.32536
603 1.47372 2.27347 3.04884 1.65526 -0.444985 3.39934
512 0.980047 2.85655 1.54979 -0.645325 -1.15874 -0.75923
151 0.272277 2.22787 3.13922 -0.816685 -1.02122 0.873405
80 2.18095 2.63303 1.6909 0.628759 4.34139 -1.98415
207 2.3802 2.14703 2.79017 0.266916 -0.480759 -2.29808
98 1.97564 3.12103 2.67197 1.01752 -0.413042 -1.99148
779 3.08552 3.04715 3.01205 0.62467 -0.0321912 1.24226
140 3.22305 1.73155 2.93493 0.884837 -1.4156 -0.881821
392 4.54376 3.48363 2.81508 0.27523 0.445903 1.35482
231 4.32005 2.21261 2.73761 -0.39746 -0.898624 -0.346018
240 5.3246 2.7309 2.67235 0.553811 -0.0734857 -0.291617
400 5.36217 3.98543 3.46011 0.222193 2.32948 0.226097
179 6.38989 3.0183 2.33668 0.372555 -0.162925 1.33814
394 7.53283 3.2364 2.07848 -1.09731 -1.99136 -1.24968
614 7.24875 3.51515 3.39411 -1.44038 -0.109463 2.30508
629 7.90532 2.30311 2.50021 -1.06302 0.660328 -1.80542
755 8.97269 3.04832 2.45798 -1.55229 0.553644 0.0259422
85 8.3754 3.27697 3.49065 -0.197215 -0.888337 -1.55772
222 9.23692 1.872 3.96627 1.40462 -0.29501 -0.0964383
542 9.97592 2.33881 2.97743 0.273639 -0.123537 -0.280679
137 10.0391 3.2371 2.31626 0.340076 -1.93374 -0.446411
209 9.40977 3.48926 3.32641 1.58876 -0.334844 -1.197
483 0.429758 3.80153 3.81824 -0.206723 0.0977123 -1.07262
464 1.12709 3.71594 2.17566 1.3465 -2.72251 1.76575
165 1.80375 4.40002 2.95872 0.545012 0.215662 -2.37182
75 0.556023 4.45351 3.06237 0.66819 -1.44594 0.0863652
828 2.64904 4.6607 1.85658 0.81634 -0.836935 -0.0887027
467 3.24677 4.64592 2.80391 -0.79067 -1.56036 -0.173853
461 2.18982 0.132076 5.12253 -0.950298 0.68998 0.250227
184 3.06607 3.39785 2.06362 1.37818 1.6172 0.368207
398 3.7987 3.78269 3.35352 0.796623 0.142249 -0.796203
568 3.96764 4.97271 3.51653 0.0182924 1.15342 1.45345
575 4.45908 4.62317 2.32115 -0.166496 -0.858377 0.584828
766 6.08067 4.97997 2.33001 -0.880739 -0.198058 1.20404
402 4.51008 3.65539 1.61319 -1.80279 -0.764265 -2.29572
201 5.29314 5.0668 3.1663 -0.891961 -0.10813 2.12338
132 6.38556 4.11317 3.41896 2.51073 -0.180831 1.18147
482 5.64577 3.74558 2.35312 -1.28123 -0.555805 -1.39956
529 6.11612 5.09677 0.0908026 -1.16798 -1.60389 -0.507235
425 8.53867 4.83431 1.82938 0.490032 1.70065 1.51049
527 8.19745 4.10363 2.70916 0.508072 -0.640009 -1.11655
294 0.638577 5.24086 1.78679 0.759254 -1.98779 0.942731
432 7.05769 5.19687 2.40971 0.63504 -0.66473 -3.03076
24 10.396 5.04022 2.39888 0.172404 0.138236 0.932526
492 9.1114 4.43559 3.18976 -0.786394 0.267154 1.16741
479 10.2525 4.06918 2.73793 -2.16482 -0.864206 -1.23441
506 10.4302 4.56286 3.69033 0.170416 -2.2984 0.266304
437 0.202876 0.548722 5.10852 0.0586589 -1.60867 0.0318455
168 0.647408 1.4363 4.01723 0.495416 1.26353 0.200902
851 2.4835 1.65795 3.73618 0.954658 1.31772 -1.27167
190 10.4349 3.60873 4.46326 -0.0908633 0.784424 -0.833621
262 1.38302 0.878693 5.17011 -2.9172 -1.05204 3.35937
530 10.3761 4.50217 4.99434 0.00241062 -0.127401 0.280235
664 2.62278 0.912402 4.60321 2.19963 -0.488651 2.1146
606 2.27443 0.280081 3.60503 -0.948351 -1.11793 -0.357246
687 4.03459 2.77112 4.7659 1.17253 2.20288 -0.705948
278 3.95345 0.968434 4.14207 0.595271 0.233016 -1.64468
621 6.81426 4.97652 0.820262 -0.953149 -0.0839081 -0.205086
601 5.86823 0.47104 3.85924 -0.0810968 -0.269143 1.17231
753 5.20614 0.565502 4.74695 1.78424 0.657 -0.110014
538 4.97891 1.3375 3.58253 0.679258 -0.730203 -1.18288
225 5.99806 1.07674 5.2744 0.692362 1.4258 -0.441278
504 6.9834 1.01239 4.95836 -0.378114 0.863273 -1.51453
446 7.92285 1.45134 4.805 0.0216252 0.239161 -1.82774
793 2.1079 1.69191 5.08354 0.286366 0.239023 -0.745507
407 9.4052 3.49553 4.28999 -0.229398 -0.179413 1.74075
782 7.8272 0.559062 4.11236 -0.859999 -2.82701 -1.24387
607 7.15055 1.13431 3.697 -1.31681 -1.56912 0.984586
219 9.7801 0.267987 3.7467 -1.58195 -1.8477 -1.17353
180 10.4468 1.27327 2.9432 -3.23583 1.24789 -0.635298
21 10.2803 1.08558 4.26739 0.250924 0.402443 1.83257
811 9.01868 0.237775 4.90813 0.148562 -0.884645 -0.961173
611 0.524236 2.55363 4.3829 0.498 -0.521144 -0.976153
650 0.698265 3.63842 4.82616 0.230388 0.515729 0.576086
523 1.33508 3.62456 3.56418 -2.09684 1.38421 0.816557
564 2.49982 2.89108 3.78382 -1.45105 -0.312961 -1.84495
733 2.8139 2.83396 5.18853 -1.9353 -0.62368 2.14785
657 1.89422 3.03002 4.61618 -3.4481 0.880018 0.569312
297 3.45305 1.97597 4.61852 -0.153845 0.787905 0.477546
605 3.87742 2.57113 3.66402 -0.522834 0.170277 0.264005
667 9.0936 4.77459 4.55021 1.97135 0.474972 -0.218842
34 6.13226 3.37259 4.93768 1.15383 1.61351 0.550749
680 6.84405 2.22723 3.96705 -1.10449 2.27978 0.42266
560 4.94231 2.92986 3.60311 -1.32037 1.09317 1.74108
157 5.09411 3.4117 4.68753 -0.316582 -1.73035 0.99756
837 5.0001 2.21696 4.32325 0.538765 0.655144 -0.828116
622 6.48663 2.34133 5.06205 -2.4913 0.481304 -0.990373
253 7.15424 3.00709 4.46505 0.860615 0.230255 0.0033359
433 5.97269 3.14443 3.58693 0.665061 -0.401011 1.54881
550 7.87812 2.41411 3.65272 -1.60914 2.09617 0.186542
757 8.83681 0.990104 4.2765 0.207882 -0.458312 1.22889
211 8.52939 2.69251 4.74774 1.55344 -0.881314 1.17575
842 5.79186 5.19281 1.17852 1.25412 -1.77872 0.378943
453 10.1136 2.2768 4.36677 -0.816248 -0.269278 3.03313
355 1.12555 5.32519 2.98385 -0.265105 -1.59775 -2.31958
658 10.3987 3.19682 3.39267 -2.65945 -0.730789 -1.50309
170 5.52778 5.30092 5.2401 -1.39668 0.921932 -0.075331
314 1.54932 4.55695 4.47106 -0.894956 -2.02798 1.43971
183 2.49642 3.90631 3.82451 1.96958 0.519168 0.526682
174 9.11299 1.68042 0.0474065 2.13474 0.472584 0.765211
221 3.39701 3.37865 4.34656 -3.67149 0.223875 -1.2119
393 2.57719 4.88368 4.57362 0.282732 1.40221 0.34823
150 3.56539 5.21456 4.60101 -0.538671 0.866426 0.352344
476 3.07674 4.10812 5.13474 0.0391763 -0.478843 -2.16064
50 4.53631 3.94778 4.02054 -0.606928 1.75613 1.2115
288 4.72452 4.96389 4.50735 0.672314 -0.842288 -2.66819
429 5.81518 4.32757 4.34354 0.146166 -0.915386 -2.67401
1 1.94923 0.395365 0.423762 -0.034206 0.833241 -0.500739
700 7.78797 4.88819 4.98947 -0.785721 0.712878 0.381891
419 7.33204 4.77428 3.31624 0.567451 0.995944 -0.36764
863 6.49141 5.32964 3.86477 0.481847 3.61039 0.987368
803 7.10967 4.41127 4.26281 0.113446 -0.270491 0.136521
501 6.4358 4.68602 4.96272 0.883159 -1.95231 0.315152
181 8.19764 5.30428 3.88369 1.35907 0.240258 2.81321
571 8.56173 3.91712 5.08398 0.11205 -0.023896 -0.387504
846 8.3473 4.2271 3.9922 0.321184 1.45532 -0.833684
662 9.99149 3.32593 0.196895 -1.56715 -1.90955 -0.706351
149 9.07575 1.41228 5.22269 0.670852 -2.20365 -1.04783
822 1.26878 1.23125 1.91845 2.03163 -0.257595 0.440102
65 3.72016 5.10713 1.45908 -0.550739 -0.349977 0.169491
14 9.6073 0.202797 0.999071 2.17831 -0.721223 1.54525
636 4.44755 0.0155763 4.33083 0.333762 0.130236 0.942546
315 1.62417 1.85816 6.00009 -1.22276 1.13213 1.74231
717 5.98604 1.18095 10.6663 0.327457 0.0703934 -0.175314
582 8.83756 5.06701 9.46802 -2.33747 0.94486 1.23024
301 0.837508 1.44198 6.59165 0.115528 0.598871 -1.29628
796 0.754245 0.380828 7.61833 0.275632 1.76518 -0.274155
313 2.94178 0.661615 5.90744 1.14111 -1.6239 -1.57363
797 1.7742 0.80679 6.84944 -1.06588 1.88088 -3.14001
52 1.95247 4.87378 10.0979 -0.0206988 -1.53611 0.350354
516 3.04285 0.372419 6.91722 1.68541 0.523243 -1.37719
592 8.30095 4.55136 10.1929 1.05135 2.12843 -0.962548
12 2.15374 3.98655 5.41742 0.156522 0.718054 -0.33372
18 4.50099 1.39062 6.07473 -2.85159 -0.0393055 -0.391571
676 5.61297 0.963552 6.30914 -1.36701 0.0462952 0.514401
759 5.35241 0.021112 5.69851 -0.272958 -0.461359 0.515931
524 5.53878 0.190703 6.94884 0.448074 0.565211 -0.188352
44 7.50154 1.75012 5.77911 1.33757 1.62189 -0.846687
651 6.51744 0.648869 6.65856 -1.76695 0.374988 -0.917942
426 6.81653 1.75231 6.84044 -0.203049 1.25624 -0.516362
244 8.38833 2.18708 5.98692 -2.03032 0.546513 -2.9891
22 8.19624 0.420116 5.46957 1.32598 0.178903 0.0222248
172 8.88228 0.975622 6.52117 -0.148399 0.653263 -0.859321
39 7.33712 0.585592 5.9884 0.29811 -1.24948 2.28002
617 9.63804 0.158095 6.07506 0.801747 -1.22029 0.447605
594 0.36488 0.334603 6.35574 -0.254973 0.354066 0.0923949
701 9.40818 1.87398 6.14606 1.90565 -0.289727 0.234611
228 10.0646 1.00318 5.79318 0.395695 -0.683976 0.880634
409 7.91601 5.24662 8.33256 2.18379 -1.45552 1.67439
567 0.237463 3.32995 7.13814 0.467615 0.120881 -0.386086
286 1.73055 3.04236 5.72166 0.948006 -0.429437 -0.893385
469 3.8655 0.181425 8.87072 -1.17614 0.052585 -0.856301
347 2.82698 3.63756 6.31934 -2.67812 2.08582 -0.884288
491 1.32006 4.76971 5.47597 1.08044 -0.526736 1.48774
555 1.52761 2.56322 6.94629 -1.0694 -1.16071 0.0686206
789 2.45227 2.49201 6.32746 -0.777917 1.99327 -2.04718
444 4.35107 2.5989 6.41224 -0.427924 -0.838569 -0.487921
641 3.70782 3.92685 7.14685 -1.93487 2.86691 -2.17095
519 4.29318 3.87725 6.35935 -0.154067 -0.705599 1.10588
518 3.48028 1.51738 5.68026 0.921736 -2.01612 -0.436556
691 3.19451 2.66195 6.9911 -0.532225 -2.89979 0.607246
727 5.29965 1.96288 5.39464 0.248312 -0.54316 -0.246261
612 5.56062 2.87996 5.95214 0.24687 0.110646 -1.27166
191 5.80269 1.48269 7.18244 0.645563 -2.50714 0.225855
711 6.43064 3.04148 6.91275 -1.13492 -0.48022 0.445441
404 7.43229 2.51569 6.39429 0.730272 0.675601 -2.07995
92 7.2814 3.58362 6.54507 -0.830157 -1.27771 -0.249242
375 6.15526 3.75226 5.97158 0.778477 0.397402 -0.436662
834 0.256088 2.86187 5.39388 0.571937 0.0114134 0.375495
160 9.13097 2.00149 7.12207 0.758276 -0.417917 0.568807
718 8.58888 2.84319 6.93365 -0.0136197 -0.193432 2.32254
11 1.72857 5.23785 8.92686 -1.39279 0.646015 -0.0907283
19 9.2796 3.89256 6.14 -0.0909052 1.70602 1.37018
77 10.5929 2.05952 6.53459 1.31211 -2.09963 1.3756
384 9.85202 3.46385 7.04015 0.868531 0.101942 -1.81884
509 10.3711 2.48313 7.66305 -0.158377 0.298666 2.22344
275 0.65339 3.68623 5.89108 -0.270222 -0.19026 0.782494
764 1.28559 5.30602 6.45877 -0.265693 1.60386 0.164939
569 1.81582 3.94569 6.66306 0.478754 -0.751503 1.70456
267 1.9954 4.98944 7.03232 -0.838366 0.361457 -0.63292
53 2.17586 5.21037 5.8058 -1.09406 0.0339781 -0.00759301
841 3.36388 4.69412 6.43973 -1.87362 -0.765801 2.41105
659 3.15902 5.24021 5.55869 -0.754077 -0.62585 0.683794
860 0.330839 4.31174 10.3884 -1.14125 -0.347267 -3.85291
101 5.4235 3.79713 6.77103 -0.60162 0.43594 -1.42481
318 4.91272 4.91242 6.16081 0.380768 -0.875276 1.93618
257 5.58061 5.0119 7.02293 -1.28513 1.7246 0.961622
699 6.60932 4.29438 6.87606 -0.468055 -0.895794 -0.602364
56 7.06251 5.08613 5.77088 -0.681868 -1.0596 -0.493874
242 7.06487 4.09698 5.50497 1.74439 0.0592524 -0.732632
274 8.22755 3.88901 6.02366 -0.618196 -0.846067 -0.96071
305 8.45636 5.30282 5.50345 0.0654698 0.900368 0.0799514
413 7.63398 4.6078 6.92658 2.34894 -0.922666 -1.19833
54 8.77983 4.72459 6.42396 -0.563107 0.521342 -1.3679
427 10.353 3.42386 6.08752 0.454742 -0.100623 -0.141729
336 9.61863 4.74103 5.68154 -1.15047 -0.648006 -1.34816
665 0.0276339 4.51831 6.1921 -0.476264 -0.780165 0.0362099
653 10.4778 1.08634 7.81075 2.05246 0.153237 -0.69113
243 0.446957 0.612175 8.76536 -0.998039 0.339924 -1.4411
342 1.22349 1.11991 8.1169 0.910632 -1.86969 -1.50251
290 2.73967 1.30361 7.12986 0.0969396 -1.26905 -2.93207
339 2.00061 0.51351 9.02477 0.0179554 2.67131 2.73839
544 3.35777 0.831891 8.05092 -0.112691 -1.08456 2.26613
360 4.41552 1.04786 8.67036 1.69794 0.252718 1.28235
198 2.3631 1.25205 8.26253 -0.132231 1.09636 -0.52637
543 5.01773 1.28653 7.93601 -0.596837 0.0892814 0.500123
559 4.36895 0.4793 7.36146 -2.38307 -0.984727 0.166835
422 5.62964 0.185623 8.08453 -0.969562 -2.05246 -1.60852
210 6.56151 0.976703 7.69339 1.72926 -0.505977 -0.571373
325 7.96461 1.46781 8.20145 0.192843 0.251955 1.38053
326 8.35587 0.600397 8.42233 0.221213 3.52567 -1.14815
445 8.09993 1.9709 7.15881 0.311065 2.73715 -0.71629
352 9.04038 0.807936 7.68192 1.01103 1.70088 1.72314
588 9.83558 1.18281 6.85379 0.77325 -1.04584 -2.80429
762 9.49817 0.207566 8.46986 0.187185 -3.60964 1.1289
556 1.80553 1.81002 7.60025 0.509301 -0.342213 -0.550783
395 1.07122 3.58044 8.71029 0.358703 0.644813 1.89191
103 1.22676 2.43281 8.80889 -1.94451 -1.15297 -0.703299
517 2.31392 2.74886 9.08496 -1.39165 2.53299 0.605955
250 2.58929 2.43664 7.92071 -0.831074 0.336919 1.69495
799 1.89431 3.17726 8.0429 -0.919534 0.928812 0.294919
126 3.32254 2.99358 8.90037 4.04307 -1.10344 -0.420524
327 3.33274 1.74646 8.44302 0.758691 -1.00905 1.9128
258 4.53011 2.80355 8.44841 -0.0403197 0.132114 -1.77616
328 3.63851 3.17683 7.89426 0.405182 -0.291659 1.5122
216 4.48228 3.26293 7.11372 -1.1306 -1.58262 1.42985
663 5.97418 1.50364 8.23313 -0.708606 -2.05479 -0.148016
176 5.62349 2.53106 8.33915 -1.19959 0.194742 -0.447919
579 5.19174 3.59112 8.07039 -0.816165 0.348393 0.130702
706 7.38154 3.239 8.64023 1.69283 0.834611 -0.319878
458 7.15145 2.40312 7.61786 0.257671 -0.324262 1.08583
26 6.82352 2.32976 8.57875 1.10312 -0.395985 0.898873
346 7.89567 3.13264 7.69222 0.890854 1.79643 -0.358224
353 8.6251 3.87786 7.0304 2.84289 1.99864 -1.2638
637 7.67105 1.99039 9.23117 0.138051 -0.385951 1.48089
154 8.82637 2.58948 8.05323 -0.0370183 -2.71841 -0.436474
728 9.59417 1.56545 8.41748 -0.701019 1.81449 0.901598
88 0.51298 1.74629 7.84789 -0.686312 0.929594 0.222466
161 10.5196 3.393 7.96469 -0.141885 0.907588 -1.57656
849 0.477679 4.52777 7.11034 -0.679335 0.866357 1.86672
577 9.4831 4.80609 10.3973 2.2976 -0.515322 2.27388
380 1.08554 3.68276 7.57845 -0.459349 1.79257 1.2677
417 0.562159 5.07539 8.29447 -0.77652 0.660337 0.528012
401 10.4011 4.10103 8.79882 1.42697 -0.994139 1.01796
750 3.63592 4.76438 7.91037 -0.635051 0.140558 0.339782
520 2.08296 4.30493 8.55023 0.442772 0.181839 0.132694
420 2.62615 3.52443 7.41012 0.0176625 -0.816002 -0.198622
127 1.50543 5.06465 7.94762 -1.19264 -2.71995 0.900052
673 4.72289 4.53414 7.15327 -0.887314 0.57669 0.382257
33 3.15419 4.08712 8.56302 0.0912148 -0.773025 -0.561706
833 4.58678 5.28676 7.86108 -0.548733 3.78564 2.21727
36 5.68818 4.91646 8.13536 2.13725 0.429863 -0.830022
272 4.20433 3.96407 8.0255 -0.993656 0.489059 0.658277
205 5.56459 4.17916 9.10243 1.8278 -1.41187 2.75471
610 6.57062 4.47085 9.12237 -0.718903 0.790074 1.13544
508 7.03974 3.5411 7.64201 2.43228 -1.4992 -0.745202
203 6.02326 4.00513 7.61768 0.138862 0.183593 -0.723296
545 7.09576 4.8624 7.96762 -0.696225 0.185892 -0.792318
97 6.32086 3.56766 8.65844 -1.3818 -0.783493 2.37957
684 7.18519 1.48701 10.6745 0.65555 -0.51063 0.971372
260 8.76865 4.76243 7.74049 -0.465643 0.246151 0.396551
5 7.88204 4.17678 7.99245 1.01042 0.768069 -1.25018
32 8.67126 4.10176 8.68856 -0.911093 -0.526961 -0.651357
719 10.137 4.5352 6.95917 1.9009 -0.409794 -1.30369
697 9.62137 4.0347 7.91896 0.329119 2.14742 1.69731
839 10.5229 4.45984 7.92241 1.80302 1.78882 -1.47955
125 9.44426 5.02943 8.57355 -2.55339 -0.426049 -2.42802
405 1.41907 1.32351 10.5268 -1.87251 1.3139 0.154624
410 0.626744 1.54404 9.07221 0.0497188 0.644437 -0.4872
145 3.71657 5.25132 8.78475 1.60962 1.41952 0.826876
451 2.30356 0.470419 10.0414 0.68092 1.87776 1.62963
596 2.02328 1.50196 9.24238 0.548846 0.440158 1.95513
46 1.00058 0.434925 9.62109 1.41464 -2.39263 -0.181139
254 4.15323 0.761342 9.84052 1.42292 1.93237 -0.0637863
806 3.0096 0.818719 9.3166 -0.356649 0.175045 -0.944405
104 5.90462 5.30713 9.06824 0.508641 -0.593975 1.46606
709 4.14508 1.84925 9.41489 -1.12275 -0.672826 2.88068
64 5.1651 0.800113 9.40114 -1.36249 -3.01194 1.75025
291 6.72708 0.947778 8.79318 -0.296407 -0.0688592 -1.20605
349 7.04951 0.603968 9.95788 1.3298 0.976301 -1.67413
31 7.86845 0.993467 9.20647 -0.776422 0.608791 1.54101
475 6.42689 1.53375 9.55925 -0.489523 1.76985 -1.69131
117 10.3608 0.206742 9.3641 -1.67206 1.15247 2.72284
585 9.14226 2.26881 9.39986 0.68224 3.95333 -0.601428
182 9.00952 1.06826 8.9429 -0.919457 1.55689 0.121355
505 9.8572 2.18695 10.1897 1.4323 5.9048 0.2774
583 0.122712 0.939037 10.0614 -2.43455 0.867774 0.763493
500 9.55132 1.06672 9.86356 0.00666596 -1.1654 0.159779
251 10.5679 5.22656 10.2568 1.16853 1.26333 -2.94227
743 10.6668 3.12578 8.95094 -0.393793 -1.68109 0.216216
133 0.683345 1.97436 10.0452 0.100047 -0.015376 -0.320656
374 10.5989 2.74214 10.1767 1.52063 -0.450228 -2.49783
661 2.79573 3.80742 9.58745 0.882169 0.250544 0.489599
269 1.9193 2.39968 10.0558 -2.93903 -0.161834 0.359666
271 1.20814 3.21108 9.98404 0.930367 2.50889 -1.49501
730 2.22358 3.51069 10.4192 0.00683797 0.522493 -0.332436
218 2.40973 1.4474 10.3779 1.98443 0.174506 -2.36735
146 3.1528 2.01069 9.45144 -0.0365884 0.279054 1.73628
566 9.50107 4.12985 9.34929 -0.348518 -0.705409 -0.0692492
282 3.63673 2.81017 9.78589 0.123643 0.521165 1.44453
589 3.73226 1.96818 10.3982 -1.42727 1.13087 -2.87164
810 3.6943 3.82113 10.1735 -0.362197 -0.565065 0.115608
266 5.4779 1.93094 9.27843 0.600159 0.166216 -1.74073
478 5.15874 3.22211 9.17922 -0.0186735 -0.0571448 1.19196
223 4.99677 2.62555 9.93846 -0.857729 0.632014 0.750525
111 10.295 5.24256 9.14592 -0.941677 -0.577208 -0.0960129
783 6.04872 2.95397 9.65338 -1.40494 1.08159 1.05649
45 7.31668 2.84437 9.72807 -1.4793 1.36137 -0.423507
576 6.85234 3.76866 9.76541 0.157702 -0.161578 0.269756
690 8.38004 1.91964 10.0913 -0.619785 -0.0928708 0.996784
525 8.1635 3.4605 9.443 -2.06776 1.06765 2.18378
232 9.43503 3.24524 10.0861 0.590064 -1.85546 -0.662028
16 2.30375 0.278805 7.70831 2.82286 -2.20999 0.226528
495 10.3188 3.77208 9.93673 -1.04183 1.47793 -0.78339
76 9.2151 3.16498 8.90675 -0.146404 -1.31168 0.598851
249 10.4437 1.89409 9.33749 0.0157536 0.666847 -0.140029
513 3.65635 3.06804 5.64125 -0.155783 -1.63636 -0.393979
511 7.5584 4.46325 9.15255 1.99849 1.60629 1.74761
406 0.400801 4.87802 9.41225 2.0294 -0.554868 0.20175
72 9.18044 0.078467 7.03803 -0.373723 -1.95518 -1.71735
692 2.65967 4.90998 9.3352 0.228377 1.24559 2.13483
17 1.62018 4.03947 9.49326 2.82262 -1.49608 0.134054
29 4.93371 1.42238 10.4294 -0.484769 -0.453588 -0.638285
847 2.9364 4.61265 10.4253 -1.67485 0.750756 -0.410418
58 4.35427 3.93028 9.31023 0.253054 1.54234 0.964237
826 6.95443 4.526 10.6291 -3.21662 -2.06066 0.280841
742 4.69765 4.81971 8.74864 1.71839 0.884425 1.20939
688 4.14605 4.88216 9.675 -0.0927884 1.86379 -1.28111
439 6.06791 4.39234 9.97795 -0.246511 -0.19243 -0.611792
13 5.03168 3.90926 10.0964 0.643465 -1.33296 0.735582
722 7.90473 0.926286 7.31251 -0.478257 0.543884 -0.805934
141 1.25566 4.0066 10.7193 -0.09914 0.411215 0.446399
634 5.27505 4.25609 5.44899 1.0174 0.184193 -0.901312
773 6.11501 0.461652 9.49996 0.0553043 2.65992 -0.41273
40 7.67645 3.10611 5.54885 -0.350634 2.59204 1.85422
86 9.13783 0.224778 9.72647 -1.93588 1.83876 -0.822277
696 9.46599 2.90701 5.62698 0.378791 -1.28695 2.61028
647 3.97454 4.53084 5.46664 -1.41961 0.991303 0.685631
669 7.97076 3.56673 10.5946 1.4258 -2.44819 -2.23276
300 7.41698 0.237259 8.48523 -1.64735 3.61158 0.0502064
587 10.0443 1.93894 5.41159 1.79735 1.52917 1.82037
91 6.56278 5.31238 6.99885 -0.180063 -3.42474 1.95479
442 7.03787 5.34895 8.79071 -0.384035 -2.48408 0.852462
230 3.24583 2.89124 10.7223 -1.39295 0.0521275 -1.50877
156 1.4667 6.03061 1.63326 0.633627 1.63322 0.934746
123 3.19463 6.65796 0.186751 -1.23317 -2.17293 -0.256585
252 0.147276 6.84523 0.760451 -2.15401 0.80768 1.48546
721 1.67497 6.09044 0.372338 -0.68754 0.732246 0.696209
84 2.5122 7.08917 0.878216 -0.80576 0.697718 -0.401736
51 2.44588 5.85205 1.4103 -0.893075 3.40825 -0.294401
199 3.86816 5.95474 0.739652 0.990679 -0.00483159 2.24184
338 0.17125 5.38527 5.29242 0.696074 -1.26683 1.51587
187 4.1146 6.97807 0.31632 2.19181 0.585876 -4.45893
802 5.01149 7.13075 0.775496 0.285236 0.198303 1.13848
528 4.84194 6.13075 0.59625 0.499057 0.0242243 0.240156
584 6.08357 6.22374 0.595902 -1.54229 1.55507 -0.640607
747 1.03416 8.04485 0.0372844 0.358498 -2.38119 -1.18606
752 7.78018 5.50759 1.63067 0.529635 1.16602 1.4365
652 8.34611 6.56606 0.591176 1.52276 -1.03432 -1.91813
73 8.34388 6.7301 1.63299 -1.15664 1.49278 -1.18911
20 7.37256 6.58693 1.08416 4.02792 -0.121147 -1.24122
609 8.99914 7.48247 1.58594 -0.0170264 2.30463 0.822023
843 0.701555 6.03587 1.0059 0.315243 0.237272 1.21268
586 9.31883 6.75469 0.937702 -1.35952 -1.08506 0.0339397
217 4.30819 5.49162 5.27908 0.727065 -1.64579 1.00946
707 8.78705 8.11855 5.03501 -1.24186 1.33908 -0.0711721
115 1.12819 6.97941 1.32302 -0.103969 0.499436 -0.177235
48 1.35196 8.93164 1.30141 -1.23604 2.81674 -0.249951
289 1.54303 7.21655 0.288767 -2.13393 -0.415045 -0.639011
431 2.19655 9.60075 5.28226 -1.14113 0.342665 -0.412066
485 1.86794 7.88661 1.67907 2.58993 -1.15365 0.0244787
818 2.86594 7.70179 0.101492 0.954555 -1.28109 0.509946
800 3.47839 9.15289 1.18424 0.132248 0.371192 0.381426
25 2.76346 8.26642 1.03558 -0.831849 0.817121 -0.648687
368 4.13943 8.37854 0.374014 -0.832988 -1.17619 -0.830217
805 3.79911 7.67801 1.58868 -1.62937 -1.4893 1.22649
646 6.19688 9.06639 5.27563 -0.204874 -1.02129 -1.56399
714 5.49624 8.0022 1.33064 -1.36704 1.42608 -1.64475
535 4.52971 8.99619 1.10546 -0.147687 1.33018 -0.733713
540 6.52445 7.10588 0.949212 -0.469542 -0.201974 -0.0886616
440 7.32387 7.41059 0.359564 -0.0466342 -0.282379 1.58871
489 6.57304 8.06517 1.23149 -0.0783978 -0.426185 1.71294
776 7.2927 8.89862 1.22997 1.28832 1.76279 0.145537
746 7.96502 8.0464 0.713829 0.961746 -0.417178 0.655856
814 7.95508 8.5036 2.1347 -1.93485 0.248257 0.892128
373 10.3492 10.5621 4.70521 0.718905 -0.550331 -0.318718
494 7.72188 10.4017 4.84192 1.68435 -1.59402 -0.93735
96 9.16285 8.12308 0.590444 0.602594 -1.38859 0.709389
532 0.0509684 8.03499 1.05024 0.178959 -0.678606 -1.10594
859 9.62181 8.75727 1.59692 -0.623687 1.63763 0.296834
94 10.2761 7.24533 1.67261 1.55561 0.769742 -2.07716
61 0.0168104 9.07152 1.53702 0.451448 -0.569877 -1.85762
683 1.41355 10.3175 0.344585 -0.0883866 0.665893 0.0612258
791 1.07137 9.98215 1.31721 -0.54965 -0.191969 -1.76376
421 2.56713 10.5098 0.882533 -0.521547 0.785087 -1.23489
695 2.15968 9.77475 1.43019 1.16611 -1.61359 -0.233606
452 2.61517 7.00488 5.25739 -0.352824 -0.271702 0.439559
121 2.11084 9.3248 0.5388 0.0948986 0.14613 0.866837
268 4.17013 9.74967 1.69152 0.00621014 -0.93007 1.45461
731 3.12313 9.72012 0.407706 -0.547801 -1.32807 -0.204617
333 4.1714 9.61471 0.477812 1.08239 -0.0327489 0.848685
838 5.87078 8.93 1.796 1.25251 -0.461509 0.404662
514 5.11097 10.0618 1.41831 0.482784 -0.36091 0.0899304
774 5.28867 8.7097 5.19278 -1.31943 0.473972 -1.07685
694 6.30448 10.1252 1.33929 -0.70725 1.14514 0.197821
399 9.73721 5.69018 5.24179 0.126251 0.903077 -1.74355
739 7.11015 9.88219 0.827104 -1.08362 -0.422585 -1.31191
343 6.8748 10.6676 4.10924 1.07261 0.120928 1.75541
382 8.75693 9.04888 0.940573 -2.49263 1.56661 1.91053
829 8.77924 10.2742 0.99695 -0.741678 -0.429483 -0.940199
377 9.94845 9.10043 0.498222 -0.5454 -0.880654 0.115276
484 2.93394 5.70278 3.62232 -0.831814 2.525 0.556622
771 10.2053 10.1494 0.570193 1.84299 -0.171632 -0.547248
855 0.876989 6.68722 5.34545 -0.646625 0.801358 0.0454061
656 1.05897 6.35718 2.5905 -0.198763 0.323827 1.01704
158 2.03641 6.89594 1.94116 0.193654 -1.0417 1.39332
3 2.77501 6.36255 2.78706 -0.0683432 -1.76807 -1.79581
416 2.27144 5.51623 2.7258 0.172488 -1.188 0.502749
671 2.10712 7.01151 3.07297 1.88207 -0.133622 0.495061
285 3.0635 6.64558 1.68849 -0.441567 0.652087 -2.0946
135 4.71346 6.09707 2.76305 1.31251 -0.0104488 1.43806
710 3.69621 5.86096 2.7205 -0.158184 -0.420269 1.74324
90 5.34942 5.87783 1.85828 0.262053 -1.72112 0.192802
857 5.89732 7.21026 1.66202 1.69574 -0.284445 0.299406
807 5.68768 6.1773 3.33996 1.89725 0.444183 1.00561
712 6.51284 6.05604 2.69818 -1.26069 -1.98073 -0.263846
212 6.68135 5.97553 1.49619 0.218116 1.04502 0.994594
725 7.66139 6.90469 3.17098 1.04561 0.0455317 0.29703
633 7.47014 6.34868 2.2786 -1.46322 -0.682122 0.948326
498 7.19211 6.02428 3.44777 -0.869969 0.843699 -1.30499
732 8.40206 6.4814 2.68531 1.48334 0.788854 1.86045
510 9.29989 7.36306 3.00036 1.41068 0.571804 -2.59906
813 7.72641 7.41185 1.98267 -1.36734 -1.3004 -0.493955
471 0.0843167 6.14195 1.80724 0.269329 2.66876 -1.44029
624 9.93075 5.70505 1.48779 1.43615 -0.0120472 0.507671
450 9.16245 6.63985 2.21791 -1.16074 -1.54874 -1.41214
337 9.82686 6.48549 3.91581 -4.35497 -0.111477 -0.097112
298 10.2463 5.57783 3.38474 -0.190236 -0.782517 -0.562444
824 0.857861 8.17011 1.79736 -1.34473 0.123436 0.725042
81 0.538025 6.52519 3.45114 2.05596 -1.41308 -0.0750357
122 2.61936 7.53436 2.2889 -0.175586 -0.253052 -1.29866
781 2.88613 7.60059 3.25539 -0.824811 1.20819 1.8278