ITEM: TIMESTEP
49740
ITEM: NUMBER OF ATOMS
864
ITEM: BOX BOUNDS pp pp pp
0.0000000000000000e+00 1.0726842421158810e+01
0.0000000000000000e+00 1.0726842421158810e+01
0.0000000000000000e+00 1.0726842421158810e+01
ITEM: ATOMS id x y z vx vy vz
660 0.497505 0.729359 1.17451 -0.0984465 1.68265 -0.223626
310 0.706774 1.40905 0.397036 0.212656 0.104576 0.952579
388 10.0453 2.47177 1.17576 3.05892 1.54245 1.43542
822 1.59233 0.493429 0.275187 -0.306966 -0.512772 1.49458
812 1.48195 1.5417 1.48124 0.155039 -0.525835 -1.32993
484 2.16795 5.18542 3.80702 -2.64179 -1.09269 -1.30092
370 2.36317 0.786894 1.31386 1.536 0.0437858 -1.53364
219 0.467941 0.85214 3.89859 0.98696 -1.86731 1.83495
686 0.374735 2.67826 0.308979 -0.291097 -0.89365 -0.372518
204 3.49965 0.535948 0.3598 2.10764 -1.2856 -1.26469
650 0.934433 4.12273 5.25826 -1.29197 -0.157815 -0.902889
443 3.9704 1.32664 1.4613 -1.06227 -0.403477 1.02414
810 3.64857 3.68513 0.845432 -0.588023 -0.951516 1.04783
403 5.14991 1.35986 1.1903 -1.27246 -0.0789755 -1.30068
727 5.64884 2.24212 4.98426 -1.50379 -1.10872 -1.0317
189 5.94162 0.655146 1.21611 -2.15316 0.484813 -0.351016
460 6.49414 1.51235 1.40271 -1.2952 2.01506 -0.327229
274 9.87801 2.94822 5.25683 0.0579416 0.72268 1.11749
684 6.7362 0.244895 0.447604 0.568941 -1.29812 -0.528683
383 7.44578 0.80802 0.894222 -2.58826 0.392356 -0.530031
37 7.69101 2.67884 0.657514 -0.194469 0.993972 2.0757
685 9.8215 0.904085 0.358646 -3.52757 -0.423943 1.09768
758 0.0859282 0.352015 0.143071 -2.8104 -0.151221 0.30872
716 9.1435 1.44318 1.26271 1.3499 -1.05279 -1.96756
174 9.04704 0.449903 1.12892 0.530538 0.639445 2.2966
363 0.366365 1.86673 1.37129 -0.725541 1.03957 1.52831
286 1.96316 3.93134 5.2412 -0.614199 -1.02539 0.454622
345 1.07977 3.052 0.977763 0.940559 0.0913213 0.863252
62 2.22069 2.7825 0.91899 -0.44551 2.08714 0.580367
80 1.55362 2.49647 1.70228 0.0114189 -0.639081 -1.16166
152 2.92918 1.52592 0.671469 -0.757666 -0.697755 -0.754016
864 3.38537 2.49877 0.93186 2.40171 -0.794696 -1.96826
215 4.61432 2.10696 0.869289 0.274178 -0.506579 0.792131
770 5.7123 2.85968 0.696955 0.736185 -2.65108 1.32854
284 5.26666 1.78467 0.0630555 -0.285962 -0.772938 -0.724701
690 8.21424 1.67313 0.597275 -0.120588 -1.66868 1.72208
835 6.50432 1.75112 0.203386 1.95664 2.47742 0.953192
296 6.62544 2.59692 1.05391 0.389472 -2.25478 0.972033
619 6.9188 3.1459 1.99246 -1.81196 1.01761 2.80821
357 7.58611 1.34256 2.24104 -1.0746 0.143058 1.24939
293 8.51725 2.27791 1.8466 1.61932 -2.35557 0.898301
438 7.42268 1.53706 0.00390927 0.366606 0.0950493 0.0837764
662 9.91935 2.97837 0.16037 -1.4997 0.888948 2.03626
599 0.105634 3.46416 1.41596 -0.00461995 -0.0315477 1.64715
780 9.38228 2.92661 1.82607 -1.17831 -0.803162 -1.13755
106 10.4721 4.03498 0.484253 -0.467148 2.25163 -1.10821
405 1.55528 2.47532 0.213079 -0.705211 1.70011 -0.527256
150 3.14938 5.22981 4.83887 0.197089 -1.42799 0.903846
294 0.643274 4.28023 1.16672 0.64695 0.46221 -0.0583433
119 2.06343 4.04245 1.17483 0.14815 -0.855552 1.38782
211 9.07438 2.38748 5.21366 0.391052 0.408023 -0.639183
627 2.68464 4.05503 0.360467 1.53508 -0.410091 1.08004
828 2.96484 3.71667 1.57463 -0.361185 -1.2467 -0.246373
23 3.63299 4.61693 1.48219 -0.833291 -0.0219337 -0.0827602
90 4.74906 5.14106 1.7917 -0.140008 0.308383 -0.753711
402 4.27789 3.74954 2.49336 -1.65281 -0.250999 2.23083
43 5.16514 5.15204 0.175135 -0.00123799 -0.708143 -1.83908
820 4.3786 3.12055 1.40087 0.376919 -0.874885 -2.02064
66 4.85803 3.99693 1.18053 -0.632873 0.135175 -0.691481
295 5.88154 4.49331 0.637863 -1.4164 -0.203685 -0.108857
516 4.02422 1.49679 4.55907 -1.052 -0.526415 3.25808
93 6.86442 4.42728 1.99482 0.548194 -1.13017 0.200078
826 7.2204 4.0038 0.0744544 2.15549 0.329752 -1.27692
621 6.95985 4.51701 0.948417 -1.82619 -1.35727 0.686247
760 9.00524 2.42967 0.732171 -0.0462788 -0.646625 0.802688
120 8.08532 3.62373 0.705917 -0.541195 -1.78959 -1.11357
678 8.81093 5.03377 1.05344 0.326451 -0.0149731 -0.116443
351 10.327 4.14212 2.09828 2.29267 0.0908278 0.230715
283 10.1265 5.15827 2.527 -0.338135 0.683617 1.0802
809 9.72104 4.1417 1.22543 -0.354015 -1.7869 0.877703
144 1.92637 1.05815 2.45278 2.20027 0.165417 -0.629994
581 0.161416 0.768154 2.99017 -1.91797 -0.0520127 -0.22714
578 1.24929 1.19046 3.16287 1.8391 -2.06398 -0.895667
603 0.724609 1.04687 2.08357 -2.57553 -0.53274 0.69921
490 2.20227 1.50127 3.31034 1.49223 -1.41946 -1.31972
643 2.49177 0.568912 3.72776 1.45628 1.47296 1.56227
811 9.36427 0.043055 5.23855 0.583572 -1.58727 3.39825
681 4.24308 0.180997 1.58629 1.17107 0.894591 2.41944
435 4.37476 0.8328 2.72746 0.589549 -2.2417 0.512202
140 4.01458 1.28296 3.53114 -0.702795 -1.21472 0.334144
424 3.52925 0.0129353 2.53464 0.984412 0.582233 -0.0288187
331 4.67458 0.397923 3.7218 0.896895 0.330319 -0.118265
153 5.23358 0.835179 2.21496 -0.38481 0.140015 -1.05105
414 5.30617 1.29671 3.20121 -0.656109 0.0772666 0.128322
307 7.42261 0.237549 2.49031 -0.532071 -0.259408 -0.0439683
228 0.0626563 1.54758 5.25798 0.297052 -1.0732 -2.08918
713 5.61695 1.96886 1.86357 -1.29005 -0.869499 -2.25163
607 6.62024 1.78015 2.58496 1.6354 2.06493 1.24247
689 8.06457 0.259344 1.4607 -1.42047 1.22975 0.954814
42 8.5502 0.86401 2.16802 -1.80365 0.255479 0.49979
703 8.72364 0.730218 3.36813 1.4551 -1.53879 -1.35805
407 9.24701 2.6812 3.83963 0.283866 -0.649701 -0.259534
175 9.96355 2.11008 2.42166 -0.621493 -0.70533 -0.40312
858 10.2163 1.1172 1.9462 0.972386 0.678514 1.25005
180 9.85596 0.875535 3.28954 -0.698523 0.617312 -0.259445
124 0.345347 3.55292 3.05199 0.396089 -0.722698 0.292624
512 0.128045 1.76938 2.79699 0.606778 -0.725084 -0.312019
207 3.13369 1.85744 1.78187 -2.50143 -2.64791 -2.2916
98 1.98493 2.78255 2.54906 -0.988522 0.648094 -0.125549
564 1.41979 1.94195 2.45696 0.354013 2.52089 0.548578
391 4.65475 1.74079 2.1962 0.115259 -2.407 -0.466883
591 3.6804 1.5395 2.63329 0.326935 -0.029157 2.07704
779 3.20874 2.41703 3.20784 -0.621567 0.745234 0.498486
231 4.95428 2.28464 3.01641 1.79115 0.203046 0.514868
350 7.03075 2.16271 3.53866 0.556608 0.855387 -0.53612
240 5.87686 2.41711 3.21109 -0.876826 -0.667656 -1.03434
394 7.67269 2.36379 2.38067 -0.456724 -0.529162 -1.33299
614 7.07786 3.32859 3.18882 0.22684 -1.92484 0.116055
629 7.18376 1.06789 3.09193 -3.14359 -2.91838 -1.59508
755 8.67394 2.91871 2.96285 0.352255 -1.35191 -0.164127
85 7.86543 3.21088 3.76332 -1.61624 -0.49854 0.438372
209 8.05004 2.19412 3.56771 -0.231122 -1.8161 0.458471
151 9.24691 1.5299 3.81313 -1.53522 1.50817 -0.752359
542 8.62963 1.79438 2.90022 -1.75164 -1.16109 2.1622
137 10.5616 2.93572 2.28561 -0.733466 0.0647522 -1.5146
658 10.3558 2.3799 3.41487 -0.871629 0.103743 -0.492627
428 0.80299 2.72533 2.54166 0.173574 0.423153 0.172931
464 1.59991 3.915 2.1447 -0.645607 -2.60146 0.443701
75 1.16881 4.94246 3.25698 0.382918 1.10086 -1.82821
165 2.504 4.65782 1.91191 -0.683085 -0.89993 0.145852
523 1.464 3.64826 3.13015 -1.99318 -1.28277 -1.10272
392 4.1003 2.97341 3.13673 0.136486 -1.25941 -0.91328
467 3.19668 4.16581 2.54325 0.102772 0.801218 0.34093
184 3.55221 2.82381 2.2822 1.36876 0.321538 2.21693
575 4.0497 4.51053 3.24517 -0.676536 -2.193 0.917338
65 3.7552 5.23299 2.46721 3.04009 -0.933473 0.805966
400 4.94406 3.58833 3.21235 1.10664 3.42049 -0.309544
179 6.22877 3.57708 2.49581 0.89525 0.757048 -1.23279
766 5.76362 4.64461 2.20629 -0.83021 -0.295284 -0.483368
201 5.00777 5.13581 2.8955 -0.187105 -0.799201 -0.370693
482 4.94046 3.00241 2.31081 -0.38317 0.668958 -2.05106
423 7.14834 4.61419 3.00811 -0.488669 -0.100047 -1.54044
132 5.76012 4.51755 3.36936 0.438575 2.24683 -0.954653
432 8.23319 4.59879 1.84378 0.998633 -1.37374 -0.067002
371 8.48489 3.63264 1.85342 0.339855 -0.0156452 -0.0311914
425 9.04348 4.99639 2.45008 1.13913 0.145654 -0.937975
527 7.6101 3.83403 2.34634 -0.408858 -0.85243 0.31093
825 4.37825 0.941431 0.492584 -0.3633 1.33994 1.19348
419 7.8056 4.51323 3.72907 3.91034 1.06639 -1.38804
354 9.4293 3.86786 2.40534 -0.718019 0.76053 -0.500439
24 0.452066 4.45838 2.57562 0.601317 1.57252 -0.414118
479 10.2357 3.86631 3.69793 -1.21715 0.645014 -1.47073
334 6.26403 0.281943 2.54802 1.51814 -1.03699 1.03534
168 1.00198 0.941262 4.76362 1.06419 -0.873173 0.376953
705 4.36161 0.426818 4.69834 -1.50118 -1.06954 0.296922
142 1.87226 0.859308 4.4193 -1.36122 0.339049 -0.828639
664 3.07842 0.955631 4.61607 0.135502 0.0166784 1.00547
791 1.21782 0.139561 1.81567 3.5893 1.49152 -0.234042
278 5.23756 1.64572 4.22367 2.26669 0.142682 1.27496
224 6.07139 1.06099 3.97912 1.81383 0.223881 0.735551
601 6.83055 0.403096 4.06695 0.754787 0.22107 -0.697742
753 6.05468 1.04023 5.00099 -0.304852 -0.286557 -0.844608
375 6.64704 3.8911 5.14027 -0.0162342 1.49618 -1.73269
506 9.5355 4.81401 3.55997 -0.165303 -0.780962 -0.345995
504 7.05438 1.09882 4.79127 -0.885096 0.905102 2.26005
446 8.18152 1.54794 5.13311 1.03453 2.44259 1.33973
782 7.61677 0.282028 4.62783 -1.30941 -0.158667 1.19752
757 9.10976 0.576916 4.3527 -2.26593 0.0499999 -0.113036
222 7.99079 1.17871 4.12182 -0.412086 -0.828101 -0.259555
149 9.45108 1.43217 4.86565 1.50528 -0.265154 -1.47559
21 10.199 0.852496 4.29626 0.625483 -2.57203 -0.957419
40 7.21662 3.14974 5.29043 -0.0378323 2.71696 0.929332
834 1.1619 3.34684 4.4025 0.351788 -1.23721 -0.270305
611 0.447751 1.94466 3.86433 0.942133 3.50189 -1.42686
657 1.55252 2.64323 3.52151 -0.578479 -0.507903 1.06135
79 2.40733 1.87255 4.81784 2.26453 1.85772 0.385821
851 2.95984 1.66034 3.91994 2.71656 2.65586 -1.42628
733 2.32552 3.09288 3.95889 1.1493 -0.310196 -1.10251
221 2.48974 3.64571 3.11769 -1.16045 0.987621 -2.47075
398 3.69662 3.942 5.00748 -2.64196 -0.595443 1.29329
687 2.82323 3.41428 5.22901 -2.1909 0.0788006 -0.0049598
297 3.25059 2.30343 4.91766 0.243323 0.23703 -1.84812
605 4.05586 2.36027 3.88001 -1.85191 0.695923 -1.15362
538 4.8928 2.80462 4.114 -0.517372 0.124535 1.60829
560 4.65345 3.98621 4.41317 1.70025 1.10549 -0.897573
157 5.61036 3.25802 4.80553 0.753604 -0.674823 2.32721
837 4.01761 2.83282 4.99133 -0.877015 -0.96133 0.580266
51 1.57396 5.28121 1.67769 -0.863059 0.195491 0.437737
433 5.89288 3.57273 3.61623 0.587169 0.622709 -0.408145
34 6.77479 3.08271 4.16553 1.00625 0.501965 0.864235
680 6.44074 1.91249 4.34413 -0.637937 -0.309478 0.261081
550 7.44959 2.124 4.70775 -0.273043 -0.875081 1.19384
253 8.13728 2.90829 4.98365 -0.236525 -0.153094 -0.37621
336 9.70052 4.13154 5.11443 1.90416 -2.63827 0.810701
190 10.661 3.45465 4.6779 1.85098 0.905145 1.25252
453 10.4113 2.24546 4.58076 -1.34607 0.668122 0.0784166
317 0.655207 5.16675 4.35444 -2.09064 0.728017 0.149675
530 0.0425278 4.52855 5.14876 -0.40002 -0.558202 2.09392
483 0.543136 4.26285 3.91639 2.09598 1.8407 -0.808384
2 2.27226 5.35402 0.850755 -1.76262 -0.0379214 -0.075351
130 1.13813 1.96129 4.75632 1.95164 -0.45358 -1.64275
12 3.06198 4.42849 4.21815 1.52662 -0.905245 1.21707
314 1.62661 4.38771 4.19386 0.719883 0.0561548 1.57551
183 2.04427 4.5522 2.8935 -0.927937 -2.47516 0.231911
245 5.66801 0.239217 3.43378 -0.269513 -1.91259 -0.952007
476 3.08975 5.02978 3.28971 1.36263 1.60706 0.750091
568 4.00871 4.80284 4.39909 1.68574 -0.994174 1.31207
522 9.61479 0.0520266 1.90613 -0.161803 0.24364 1.7472
449 1.19021 0.0600544 4.08806 0.156589 0.134989 0.627785
288 4.73833 4.94085 5.17564 1.94218 -0.45207 -0.362905
429 4.84172 4.85044 3.8127 0.399127 1.88987 0.0530592
803 6.76589 4.14646 3.9864 -0.53564 -1.20134 -1.00053
501 5.79863 4.74637 4.59764 -1.48081 -1.0478 1.26672
863 6.59888 5.16954 4.17853 0.0298318 1.81017 2.2466
571 8.4235 3.8027 4.62962 0.211772 -0.710254 -0.0458659
846 8.87263 3.75106 3.59385 -0.54835 1.67255 -0.785266
667 9.10507 4.766 4.49831 -0.800619 1.35389 -2.12193
700 7.69145 4.7086 4.86884 -1.28705 0.178126 1.77307
13 5.01542 3.804 0.278329 1.27969 0.849632 -0.296178
843 10.393 5.29047 0.756363 -1.25852 -1.15447 -0.426092
783 6.22897 3.59279 0.0180588 -0.461691 -0.427191 0.916989
301 1.0443 1.84122 5.91736 -0.714064 -1.30411 -1.13373
594 0.0584827 1.56668 6.33632 -0.18759 -0.865633 -1.26386
262 0.746806 0.471046 5.74177 0.192758 0.0643178 1.69749
797 2.51368 0.498573 6.32557 1.43896 -1.08147 0.965558
793 3.19751 1.22997 5.70814 -0.70971 0.454798 -2.76278
827 7.50785 5.21532 5.68439 -0.795499 -0.472948 0.751057
18 3.99709 1.12493 6.70441 0.778979 0.697018 0.113546
162 2.50961 1.63745 10.4059 -0.802844 0.959603 -1.30105
290 3.49816 1.94523 6.58156 -1.15815 -0.1338 -1.82942
10 6.97442 4.99696 8.25461 1.77563 -0.308254 1.35471
676 5.09734 1.7883 6.77483 0.825754 0.345835 1.88849
524 4.66656 0.421544 6.92296 -1.41042 -2.0935 0.397368
225 5.86403 1.46094 5.87365 1.26233 -0.837148 1.57322
651 5.65526 0.951068 7.0977 -1.36378 -0.339193 0.598263
426 6.04146 2.42438 6.69092 0.0631191 0.603862 0.9871
39 7.53177 0.979877 6.20558 1.65403 -0.372926 1.49063
50 4.83289 3.74968 5.4813 2.07101 0.913609 0.313486
111 9.54304 5.27772 9.33879 -1.91581 1.61045 -1.6099
172 9.02266 1.3974 5.75232 2.45874 -1.05022 -0.345577
701 9.75495 1.3691 6.51877 -0.23039 0.668175 -0.0685513
143 10.4719 0.0318864 9.56267 -0.103541 0.746975 -0.706432
588 10.1703 0.813207 7.52918 0.701176 0.985068 -0.0410829
617 9.18652 0.33816 6.19195 0.141472 -1.63031 -1.86611
759 5.13813 0.136736 5.80476 -2.30153 0.823824 0.148781
567 10.7254 3.43089 6.8945 -0.966441 0.322585 -0.0345055
555 1.62967 2.4844 6.49383 1.60867 0.943599 0.188055
315 1.37515 3.0006 5.41091 0.993245 -0.0578058 -1.56188
622 6.24348 2.86939 5.44976 -0.338463 -0.153144 -0.271194
789 2.35637 1.57378 6.65143 -0.158585 -1.64052 -0.779504
444 4.70391 2.76998 7.14316 -0.941016 -2.579 0.284788
519 3.87553 2.99502 6.32761 0.0144619 0.731056 1.32312
518 4.45812 1.84727 5.95215 1.05278 -1.26472 -0.50713
513 2.81586 2.34228 5.84578 -1.01496 -0.686765 -1.51164
669 8.72933 2.7729 10.6023 0.32521 -0.730459 -0.00918973
612 5.29275 3.00598 5.97446 -1.55322 2.0965 -0.208568
711 6.395 3.43206 6.29777 -0.0801135 0.454234 -0.291801
216 5.58005 2.72756 7.59839 -0.903058 1.32405 2.07043
44 6.72363 1.90657 5.62197 -1.22305 -0.38145 0.425544
404 7.24985 2.77195 6.26824 -0.0802625 -0.857297 0.0756749
92 8.01344 3.44094 6.67794 2.31222 -0.132618 0.702301
244 8.18404 2.80032 5.91854 1.08047 0.0334307 -0.893211
718 8.52955 2.66528 7.13827 0.951798 -1.81522 1.38365
72 9.20918 0.294875 7.16379 1.41418 1.34309 2.76702
91 6.13319 4.92053 7.73684 0.522878 -0.082008 -0.608815
77 9.60067 2.21912 7.33595 -0.307268 1.70763 0.420921
387 5.6795 5.17941 6.47993 -1.20746 1.48901 -0.687085
696 9.88645 2.025 5.67199 0.502249 0.561617 0.181281
587 0.0972907 2.58601 6.35969 0.653887 1.37303 1.55427
491 1.32903 4.47888 6.16916 -1.29847 -1.39788 0.363843
275 0.829175 3.35795 6.38695 -0.534426 -0.938071 -0.25954
849 0.38163 4.44906 7.13629 -1.33253 -0.686817 1.00145
347 3.21051 3.73088 6.19562 -0.675712 1.10742 0.553926
267 2.25892 4.98627 6.44557 -0.777985 -1.18062 -0.193444
618 3.90439 4.36308 5.92533 0.33432 -0.0460103 0.466976
647 2.84246 4.51342 5.41705 0.710857 1.1779 0.185506
634 5.81474 4.16029 5.68173 1.0145 2.24524 -0.849127
101 5.54217 3.52264 6.81818 -0.210964 -1.37457 -0.547452
318 4.87964 4.60958 6.18755 0.538149 -1.11738 -0.990582
792 1.70454 0.332974 7.82486 -1.02158 0.248345 1.20024
699 6.1713 4.34771 6.75944 0.313624 2.22161 0.48836
56 6.80723 4.37327 5.95068 0.185507 -0.800389 0.752696
242 8.04113 3.99065 5.69011 -0.728338 -1.09885 1.41744
413 7.80014 4.55444 6.52309 1.89497 -0.251401 -2.36956
470 0.368699 4.89211 10.6601 -1.77471 0.264209 0.967817
19 9.92222 2.99236 6.28548 0.180527 -0.605052 0.238261
54 9.16176 3.62828 6.33097 -2.58766 -1.34517 -0.458797
665 10.524 3.7059 5.79426 1.24796 0.93854 1.14909
719 9.98704 4.24131 6.81 0.27178 2.37373 0.823992
192 9.98208 0.870378 5.5918 1.44735 -0.19738 -0.567402
748 10.4601 4.96291 6.28796 -0.312528 -0.253803 0.175712
796 1.46356 0.860202 6.52684 -0.531368 0.647521 -0.0660405
653 0.338514 1.5987 7.45977 -0.709603 -0.499256 1.00395
410 1.00101 1.64565 9.30594 1.8281 0.630038 1.23695
691 3.15056 1.60538 8.11709 0.14125 0.116423 2.52311
342 1.02768 0.44289 8.87062 -2.91107 -0.0162344 0.708989
198 2.6207 0.5772 8.26281 -0.736808 -0.650406 0.847584
16 1.81062 1.49181 7.58485 -1.80795 0.968609 -0.118991
469 3.8568 0.878841 8.62964 -2.34885 2.25141 -0.93123
544 3.4698 0.723808 7.53849 -2.90534 0.0198207 0.791466
360 4.87569 0.973681 8.99608 0.839768 -0.357397 0.662652
543 4.4915 1.33312 7.72055 0.448642 -2.02343 1.91217
577 10.2599 4.47607 9.75554 0.312432 0.482113 -2.4543
191 6.44515 1.03336 7.8703 2.04996 0.120078 0.82661
422 4.71829 0.313504 8.04863 1.42392 -1.4705 0.337992
663 5.50629 1.11148 8.11971 -0.581671 -0.899972 0.550799
210 6.64074 1.45536 6.66668 -1.1137 1.07418 -1.67504
291 7.6233 1.59219 8.0167 0.118059 1.33221 0.108082
7 6.85348 2.7312 10.5738 1.49887 0.682737 -0.157959
762 9.63647 0.0545242 8.20037 -0.0066555 -1.05293 -1.91916
722 8.64632 1.00899 6.62566 0.589157 1.26529 -2.39657
243 0.666803 0.38586 7.28835 -2.10188 0.195797 -0.712707
352 9.80032 1.61067 8.15671 2.21912 -0.698797 0.513585
103 1.48632 2.37599 8.67577 0.959312 0.0795837 -2.55422
88 0.733084 2.48778 7.55809 0.2539 -1.46319 -1.47574
380 0.555425 3.6486 7.91838 0.404569 1.4206 0.813091
556 1.00988 1.38776 8.29064 -1.30504 -2.12186 -0.582336
250 2.2163 2.47766 7.66757 -0.153695 0.276299 -1.91168
420 3.17482 2.99731 7.27592 -1.7839 -0.552102 -0.571981
33 3.42103 3.6989 8.21213 0.944505 2.12378 -0.606711
126 4.19785 3.21416 8.69393 -1.91726 1.52948 0.080919
327 3.03032 2.67249 8.46492 -0.115964 0.245032 1.96531
328 3.87709 2.372 7.77152 -1.08822 -0.0614211 -0.181731
258 4.93828 2.32771 8.53903 1.9495 -0.995785 -1.86729
176 6.32511 2.80223 8.56652 0.283892 -1.41694 -1.08549
579 4.76762 3.45673 7.90895 -1.70292 1.00182 1.07104
706 7.33439 2.60525 8.47198 -0.02856 -0.762824 0.465951
458 6.40977 2.13559 7.82788 -0.694842 -2.26019 1.98323
26 6.82216 2.05943 9.04705 -1.98289 -0.458411 0.0871404
325 7.82701 1.86938 8.93337 -1.19252 0.45305 0.658458
445 7.81239 1.92701 7.08599 -2.11715 0.864137 -0.613754
346 8.39066 2.84828 8.24043 1.64354 -1.32638 -2.22639
154 8.97038 0.939721 8.13051 0.104713 -1.413 -1.06987
160 9.15018 2.34946 6.36947 -1.59376 1.97779 -0.34782
384 9.4794 3.33456 7.41253 1.33713 -0.588521 0.854366
509 10.3084 2.8817 7.83063 -0.0785403 -0.811691 -0.429709
743 10.6897 2.09215 8.43256 -2.13121 1.08578 0.710137
76 9.65615 2.56879 8.5771 -1.21424 1.10496 0.907869
569 1.74955 3.64501 6.92366 -2.12526 -1.40472 -0.546187
799 2.01546 3.26145 8.38215 0.828669 1.43648 0.910463
520 2.65049 4.44419 7.25539 0.500655 1.08641 -0.391143
127 1.42631 4.36901 7.90071 -0.30879 -0.928418 -1.03411
641 3.67572 3.91074 7.04957 1.96417 0.4031 -2.17154
218 2.57964 0.558091 10.5213 1.91302 -1.86354 -1.11892
272 4.36819 4.18489 8.69357 -0.997978 -1.60232 0.982452
833 3.84183 4.67802 7.7857 0.638476 0.744432 1.24798
257 4.90419 4.89762 7.15216 -1.00642 -0.0537531 1.05364
673 4.56714 3.74497 6.53086 1.7054 -0.699275 -0.923731
36 5.75211 4.22647 8.3801 -0.150748 -0.873317 -0.841667
203 6.16097 3.55004 7.74929 0.881683 0.908288 1.21321
508 7.01392 2.93971 7.30958 0.0384677 -1.75277 -0.862974
545 7.1786 4.3193 7.35759 1.6071 0.467721 -2.48106
409 7.98366 4.48926 8.45114 -0.0523109 -0.444151 0.156002
353 8.72388 4.15362 7.66496 -0.403204 0.646297 -0.5944
260 8.68201 5.05105 6.94254 -0.55855 -1.46676 0.880929
5 7.79167 3.55828 7.87796 0.926413 -1.33826 0.824755
32 7.44416 3.49383 9.19324 -0.207235 -0.321954 1.76674
161 9.5006 3.64352 8.58144 -0.935449 -0.770733 1.12438
697 9.17769 4.61545 8.699 -1.40494 -0.130778 -0.330902
839 10.239 5.04925 7.7783 -0.599549 0.710222 -0.272683
499 0.192861 0.739813 8.35796 0.240399 2.75825 -0.29355
46 0.80556 0.544125 10.1846 -1.66307 -1.01421 -1.68143
339 1.9812 0.877209 9.73884 -1.36482 2.6721 -2.36062
461 1.87911 1.15634 5.63329 2.36594 0.713744 -0.773754
806 2.79872 1.21766 9.14352 -0.861446 1.02162 -0.788995
254 3.61276 0.820755 9.79018 -0.881574 -0.0850277 0.977535
717 6.07148 0.916075 10.2234 0.681847 0.233461 -0.382795
418 5.13922 5.10068 9.68749 1.31338 -1.11153 -0.81215
64 4.70132 0.418014 10.113 0.0396613 -0.8048 1.68506
29 5.08463 1.57965 9.67257 1.36467 0.477883 -0.153246
349 6.90157 0.338847 9.6921 0.396397 -1.77758 0.446182
31 7.49469 0.944476 8.93029 -0.0579952 -0.956324 -0.919082
773 6.45007 1.14613 9.18764 1.18235 0.443506 -0.607843
488 7.93097 0.662028 9.87504 -3.25161 -0.21904 -0.657585
182 8.71739 1.0177 9.12213 0.825458 -1.81649 -2.7205
112 7.21347 5.11629 10.5772 1.21407 -1.00388 -0.076507
415 9.68704 0.0874722 10.3195 -0.659928 -0.402905 -1.43607
117 9.76065 0.902887 9.18582 -1.4385 0.0278563 0.550668
583 10.335 1.15063 10.1925 -1.47261 1.75962 0.0881028
500 8.99579 0.915044 10.1476 0.815112 -1.25873 1.13413
249 10.7069 1.37909 9.32985 1.11483 -0.388219 -2.01565
166 5.7945 0.420427 9.4245 -0.987706 -1.18024 -0.26988
133 1.40764 1.69265 10.2857 2.97774 -0.776696 -2.03801
374 10.6483 2.25235 10.0657 -0.116913 -1.81501 0.41808
269 2.22196 2.14395 9.49996 1.45427 -1.09529 -0.181936
517 2.48621 3.33909 9.54828 -0.0167187 0.419486 -0.318427
309 7.91955 0.703265 7.24452 0.0617502 0.890309 1.23947
596 2.0194 1.32881 8.56909 0.394341 -1.39721 -1.37153
146 3.42772 3.17754 9.30018 -1.18646 -0.983651 -0.386882
709 4.65236 2.77321 9.4878 -1.53492 2.01696 0.785289
282 4.45685 3.56669 10.1789 0.997078 1.3152 0.467121
589 3.27787 2.07864 9.28797 0.249531 -0.874446 -1.96902
742 3.45295 5.17806 8.9475 -0.774659 -1.18506 0.97554
97 6.57937 2.98734 9.42387 -0.736161 -1.51667 -0.0753248
475 6.17067 2.17388 9.86974 0.602824 -1.16318 -0.401393
266 5.8055 1.74477 8.7852 0.211864 1.70389 0.270474
478 5.18987 3.39968 8.94501 0.512976 -2.8369 0.799822
223 5.4842 2.83749 10.4107 0.0465194 -0.42124 1.69262
427 0.305609 2.77702 5.36832 1.23601 0.441409 -0.0442486
393 1.95867 5.09809 5.45319 -1.06781 0.991468 -0.495491
45 7.15444 1.28155 9.84271 1.2308 -0.479444 1.61868
637 8.32742 2.03691 9.82418 0.60251 1.95762 0.250887
305 9.69119 5.14638 5.62942 0.527325 0.0725187 1.52076
525 7.83078 2.84011 10.0309 -1.39286 -0.335909 -0.166351
22 8.33417 0.55046 5.65532 0.233764 -1.51483 -0.138312
728 9.45416 1.8259 9.50679 -1.39162 0.188519 0.112972
585 9.69339 2.79369 9.83057 -0.480918 3.0254 -1.39878
511 7.05981 5.32283 9.39114 -1.02176 1.98305 -1.78036
52 1.51359 4.41437 9.94065 0.220064 0.933009 0.647038
860 0.647166 3.86234 10.1764 -1.88469 -1.06331 1.124
395 1.21574 3.91225 8.88372 2.2761 -1.7271 -0.306764
401 10.5922 4.73153 8.74768 0.615297 -0.0933168 -1.08946
251 0.542731 4.83412 9.47637 0.0966116 1.95404 0.770818
271 0.977065 2.87672 9.78085 -0.728378 -0.00422308 1.54322
406 0.640941 5.05597 8.06784 -1.79063 0.970909 -2.24814
11 1.62081 5.2714 9.19128 -0.0168691 -0.260678 0.509804
730 3.44892 3.45789 10.4606 -0.192766 0.950342 1.86184
17 2.63881 4.38463 9.02686 0.501896 0.597624 -1.23787
847 2.53616 4.64969 10.2087 0.0588083 -0.554769 -1.96221
661 3.58326 4.2303 9.47513 0.531286 -0.45086 -0.0927685
495 0.348814 3.4195 9.2387 1.99309 -0.0245737 -1.06489
692 2.30531 5.06013 8.40737 -0.788389 0.0924543 -0.0116107
58 4.34012 4.67552 10.3617 -0.386738 0.793317 1.98913
104 6.15208 4.77201 9.22169 -0.457158 0.420953 -0.161598
856 4.69889 1.04167 5.38825 0.361867 -0.589585 0.13013
30 6.73902 0.704696 5.81084 -0.270553 -1.29592 0.571679
205 5.41316 3.77809 9.88379 0.767034 -0.175059 -0.332224
439 6.07339 4.72812 10.3375 -0.503904 -0.401855 1.04989
131 4.23923 1.6204 10.459 0.570393 -0.0503107 -2.35264
505 9.32703 1.90665 10.6268 -1.07254 1.44684 -0.446744
610 6.63388 3.73382 8.57539 -0.285384 -2.09014 0.256001
576 6.68368 3.98171 9.82433 -0.724297 0.812865 0.913535
592 8.6772 3.86541 10.606 0.167881 -0.622968 1.39623
261 6.8879 0.418058 6.85276 -0.617211 -0.474848 -0.386971
566 8.38037 4.96614 9.48525 -1.21819 -1.5548 0.426889
232 8.69595 3.37188 9.50241 -0.48265 -0.0208873 0.133222
365 1.16096 5.21298 6.99693 -0.858818 -1.929 -2.92136
480 1.84624 0.175774 5.49198 -2.36816 -1.37128 -1.04737
553 2.46983 3.14429 10.6425 3.02557 0.291297 0.302374
230 3.23165 2.35039 10.527 -0.814711 0.590891 2.69794
593 5.07215 5.05723 8.3765 1.82379 -0.372893 -0.344642
570 8.7176 0.168546 10.7099 0.289285 0.731332 1.27435
715 9.25957 5.14636 7.67642 -0.807961 -1.53832 0.784969
300 7.21775 0.121423 7.81531 0.393317 2.09439 0.346671
141 1.53176 3.53232 10.7008 1.45329 -1.4017 0.380215
87 2.57356 0.0770176 7.35437 -1.64293 2.22712 -0.546278
507 5.78496 0.0340647 10.5299 1.85898 0.996839 0.225298
726 3.43257 0.278375 5.37105 -0.631186 0.418334 1.71163
497 5.57689 8.60829 5.09159 -0.799807 -0.592932 -0.194298
252 0.641841 6.64737 0.472689 0.267225 -1.21545 1.57794
721 1.60191 6.5508 0.793964 -1.19854 -0.545344 -0.607794
68 4.16738 5.48641 0.464441 0.667095 -1.03327 0.262855
123 2.98993 6.36089 0.742633 -0.0437863 -0.3654 -0.904043
84 2.47195 7.61215 0.684585 0.630511 0.459717 0.52763
163 3.84569 10.597 3.48107 0.570342 1.41881 -1.58321
536 10.2204 10.1508 3.61189 1.23904 1.03147 1.62567
199 4.19201 6.36426 0.777574 -0.436128 1.71386 0.501413
533 9.25165 6.03276 0.440836 0.185069 -0.911367 1.22656
802 4.90453 7.57094 0.641001 -1.25548 -1.17032 -2.73747
584 6.50907 6.44261 1.42726 0.456457 -0.562209 0.972826
89 7.21466 9.78827 0.781015 2.23669 -3.27184 -1.55782
6 7.09949 6.19968 0.221864 2.09438 1.7418 -1.18157
20 7.48398 6.87613 1.19029 0.0333054 -0.605205 2.03071
540 6.84294 7.49051 2.269 -0.003518 0.916566 2.86238
212 7.56528 5.42806 1.25222 0.903236 -3.83897 -2.54071
752 8.47786 5.76435 1.79714 0.53519 -0.690126 1.54993
624 0.61544 6.36602 2.14228 0.487455 -1.07955 -0.434636
344 9.46951 5.62524 1.58891 -0.990381 -0.194217 1.01663
115 1.38038 7.68548 0.891493 0.498725 -0.93261 -0.918003
48 2.27664 8.66562 0.650384 -1.22766 1.52524 1.91116
14 10.2376 10.6727 1.10291 0.243702 0.6584 -0.534231
532 0.280601 8.30295 0.0805141 -0.455549 1.29644 -1.42332
824 0.599109 8.24627 1.73858 2.87625 0.201758 -1.46844
485 1.68307 9.12698 1.52966 -0.0958129 -1.97762 -0.92555
25 3.24908 8.43226 0.76612 2.86919 0.984993 0.458104
818 3.50558 7.21999 0.505882 0.614453 2.06484 -0.147361
800 3.4538 8.85009 1.76808 1.42435 -0.86273 -0.811545
368 4.36842 8.4598 0.767154 0.512267 0.566393 -0.844228
805 5.13104 8.2286 2.01717 0.330828 0.944731 2.16349
285 4.24338 7.62451 1.79772 1.85378 -0.979514 -0.499405
714 5.62589 8.56273 0.189009 -0.549054 -0.635667 3.39026
857 5.98838 8.13056 1.33636 1.35143 2.08704 -0.22426
330 7.04498 7.77569 1.10836 0.95195 1.73629 -1.4355
776 7.1623 9.17919 1.92822 0.337008 -1.58449 -1.26136
654 5.9173 7.62662 0.185231 0.443374 0.328495 -1.47485
440 8.26794 7.78961 1.16906 -0.244055 0.173613 -0.737038
746 8.11609 9.30024 1.16445 -1.10164 2.5426 -2.15974
586 9.49385 7.30622 0.896022 -0.748304 -0.794958 -1.21372
96 9.21061 8.55652 0.907345 -0.562886 1.55853 0.695377
94 10.2409 8.55801 1.09238 -0.226393 1.05579 -1.24162
492 8.41747 5.39911 3.68129 -0.244258 0.413976 0.472187
61 1.25715 8.6232 0.629296 0.412034 0.871822 -0.708535
642 2.93525 10.5603 1.32977 -0.393313 -1.78492 -0.0625361
170 5.6554 6.59748 5.21508 0.636482 0.482307 -0.930769
771 0.702373 10.5706 0.826766 -0.573705 -0.603746 -0.616258
78 0.284479 10.6548 1.99449 1.9489 0.772293 1.59531
421 3.65575 9.83313 1.29754 0.857928 1.16175 -2.7664
695 1.55233 10.1584 1.26872 -1.10865 2.54458 -3.31106
121 2.64082 9.551 1.09321 1.40157 0.300439 1.26675
47 9.77472 8.10289 5.05954 0.117797 -0.424634 -2.84214
535 4.62175 9.06543 1.84186 0.906745 0.838346 2.80547
731 3.49539 9.5527 0.344167 0.572333 -0.680966 -1.9708
366 4.32993 10.5408 0.701839 0.455787 -0.814382 -1.45608
838 5.97746 9.25632 1.54681 1.86512 1.34098 -3.58732
514 4.8607 9.406 0.801218 -0.805611 -0.584542 0.16131
193 8.17681 6.65344 0.182066 0.425453 -0.422921 -0.240408
694 6.39545 10.3968 1.23287 0.197384 0.205045 -0.999662
739 6.61577 8.69374 0.631673 0.350825 -2.02742 -1.15355
382 8.70165 10.2268 1.8782 -1.24236 0.897826 -1.03661
639 8.2839 10.2558 0.866893 0.0372872 -0.358246 1.01217
829 9.34307 10.2544 0.70841 -0.536046 -1.26606 -0.585587
616 10.2985 9.7948 1.85424 -0.105814 0.151427 0.114536
355 1.12961 5.88252 2.85493 0.841319 1.26355 0.0769548
656 1.66636 6.72065 2.8167 -1.07273 0.907889 0.156888
471 0.0635988 7.57487 0.81506 -1.57474 0.604314 -0.674514
81 0.643276 6.83899 3.02125 -0.638513 1.45317 2.06105
416 2.30412 5.85615 2.32019 0.491156 -0.642954 -1.63457
158 2.35537 6.90814 1.49258 -0.118511 0.607149 -0.609551
671 2.96655 6.81593 4.0603 0.94372 0.935302 2.27467
3 3.41912 5.93712 1.62549 1.62966 -0.197031 -0.491704
378 4.35403 6.39832 2.21192 0.391009 0.0717565 -0.573474
167 4.07683 6.78477 3.26554 1.32272 -0.126125 -0.579525
710 3.07712 6.19803 3.18112 0.362466 0.211429 0.000486279
135 5.15814 6.27757 2.8861 0.548757 0.592513 0.288351
35 8.34269 8.61385 0.21118 1.16131 -0.230727 0.174182
807 6.09665 5.6801 2.98057 0.207188 -1.11496 -0.936084
526 6.05744 6.85829 3.40033 -0.855881 -1.06935 -0.46186
712 6.78004 5.55856 1.99333 1.61581 0.458313 -1.80776
633 7.64022 6.21944 2.21044 1.09173 0.664272 -1.26427
498 7.14235 5.89676 3.27467 -1.4604 -0.115607 -0.523772
635 6.05545 6.73098 2.37718 -2.15923 0.177074 -1.4505
73 8.64695 6.71584 1.46858 -2.38154 -0.657023 -1.28452
732 9.44382 7.34917 2.02187 -2.56766 -0.557368 0.552019
595 9.20414 6.11754 2.70052 2.26951 -3.27015 2.33101
474 8.48358 6.61876 3.45533 -0.391033 1.94431 0.58485
450 10.3541 7.26887 2.89953 -0.954767 -0.156411 -0.649197
367 0.00174777 7.77118 4.77002 -0.167281 -0.723599 -2.62216
502 10.1655 6.22956 2.29948 1.83058 -1.33932 -0.207559
463 1.51595 7.28883 1.83576 -0.288279 -2.07312 1.56279
761 1.53581 7.80759 2.76256 0.210298 -2.79798 -2.19523
122 2.66932 6.97822 2.4974 0.168726 0.343818 -0.584093
861 2.69302 7.88473 1.68758 -1.10692 -0.519199 -0.065486
83 2.2821 7.55997 3.53249 -1.04763 0.0831446 0.755431
615 3.18336 7.78564 2.71156 1.35243 -0.0480616 -0.642021
736 4.92192 7.30995 2.76921 -2.66299 1.89384 0.458203
565 5.26115 9.25499 2.43397 -1.11618 0.0109688 2.05016
604 4.19184 8.27386 2.70761 -0.986871 1.31677 -1.20236
235 5.50046 8.18199 3.43847 -1.31648 -0.822589 -0.33839
489 7.78084 8.2452 1.99681 -1.95045 1.51862 1.74158
725 7.3478 6.97455 3.0028 -2.46624 -0.97076 2.10904