ITEM: TIMESTEP
49880
ITEM: NUMBER OF ATOMS
864
ITEM: BOX BOUNDS pp pp pp
0.0000000000000000e+00 1.0726842421158810e+01
0.0000000000000000e+00 1.0726842421158810e+01
0.0000000000000000e+00 1.0726842421158810e+01
ITEM: ATOMS id x y z vx vy vz
660 0.374862 0.875693 1.1805 -1.29 0.373188 0.382059
310 0.804521 1.55261 0.371186 1.05732 1.68372 -0.888514
388 10.4117 2.65873 1.27244 0.688231 0.80364 -0.90347
822 1.53396 0.46632 0.469327 -0.676829 1.60518 0.806499
812 1.46828 1.3028 1.25496 -0.316622 -1.42658 -1.96947
484 2.07661 5.04673 3.63278 0.947015 -0.391109 -0.275095
370 2.48886 0.712125 1.13219 -0.248968 -1.80205 -1.52623
219 0.507345 0.71184 4.02748 -0.526772 0.14887 0.195949
686 0.327841 2.54972 0.262453 -0.242471 -0.743627 -0.0416106
204 3.62446 0.330534 0.228822 0.142524 -1.77447 -1.21924
650 0.861261 4.02668 5.10938 0.693232 0.483954 -0.283494
443 3.83304 1.2252 1.53002 -1.56421 -0.668284 -0.165416
810 3.67866 3.58255 0.886859 -0.00771527 -0.0868529 0.683816
403 5.10187 1.26978 1.18316 -0.230196 -0.144517 0.693228
727 5.46779 2.21123 5.1713 -1.13162 0.27438 2.50245
189 5.83858 0.50779 1.14706 0.91745 -2.43317 -0.950013
460 6.36513 1.48632 1.39322 -0.841857 -2.27678 0.163574
274 10.0273 2.93865 5.33949 1.48963 -1.69943 0.958817
684 6.62897 0.372107 0.513344 -0.860401 1.78856 0.463616
383 7.23013 1.1281 0.951913 -0.498496 3.66301 1.69639
37 7.68852 2.53677 0.886655 2.49518 -1.91369 0.516505
685 9.42038 0.781519 0.399252 0.280521 0.361441 -0.499114
758 10.3858 0.380183 0.11318 -2.76637 0.686163 -1.3966
716 9.38165 1.5082 1.15438 2.61589 0.417827 1.05223
174 9.00694 0.357474 1.33941 -0.9598 -0.516635 0.61369
363 0.346665 1.96079 1.63483 1.03667 -0.330926 2.48077
286 1.83782 3.96764 5.35615 0.906328 0.271147 1.83172
345 1.07434 3.30426 0.949042 -0.124132 2.56074 -1.06691
62 2.29387 3.10542 0.948945 1.23644 0.998543 -0.630227
80 1.60795 2.42866 1.5894 0.432424 -1.07258 0.113954
152 2.90276 1.45898 0.501164 0.78951 -0.394586 -1.04094
864 3.68891 2.4363 0.899749 -0.298814 -0.181553 1.39783
215 4.61571 2.0656 0.842609 2.3863 -2.55618 -1.2303
770 5.69684 2.49857 0.89519 -0.399942 -2.26962 0.799504
284 5.286 1.66468 0.0640396 0.384696 -0.956405 1.18416
690 8.35063 1.45057 0.987512 1.21616 -1.66213 3.52598
835 6.4832 2.03038 0.339562 -1.2374 0.3655 0.694214
296 6.76474 2.54114 1.24578 -0.87793 0.972707 1.95351
619 6.89402 3.00355 2.05699 -1.17926 -0.107663 -0.440234
357 7.46561 1.30393 2.25646 -1.00502 -0.57205 -0.286365
293 8.75602 1.8735 1.94255 1.4291 -3.01839 0.598497
438 7.64986 1.6222 0.137821 1.60846 1.3055 0.325634
662 9.69577 3.08607 0.448097 -1.67909 0.752849 2.09066
599 0.20497 3.48638 1.39428 1.53226 1.27563 -1.02487
780 9.35124 2.85973 1.74328 2.01157 -0.390607 0.751056
106 10.3181 4.15958 0.416067 -2.23857 -1.21986 0.471125
405 1.43502 2.47318 0.155535 -0.565575 -0.60202 1.06514
50 4.89105 3.96725 5.29616 -1.16074 0.786849 -1.20441
294 0.768163 4.40897 1.14837 0.954258 1.07186 -0.0796958
119 1.91192 3.95351 1.22492 -1.83721 1.06716 -0.529921
211 9.05841 2.42123 5.09295 1.49421 0.908359 -0.989349
627 2.85767 4.09926 0.537885 0.2602 0.906838 1.40434
828 2.88173 3.49783 1.7271 -0.535631 -1.33604 1.85152
23 3.51871 4.6112 1.50283 -0.751107 -0.14623 0.308105
90 4.70819 5.1691 1.65291 -0.26395 0.281336 -1.58
402 4.06037 3.7909 2.46445 -0.0524649 -0.174585 -1.68875
78 0.564515 0.0218705 2.10087 1.93843 -0.0320114 0.40982
820 4.42136 3.05392 1.20946 1.50671 1.29538 -0.0456459
66 4.73767 4.14755 1.32784 -0.955168 1.19853 1.29174
295 5.72553 4.48107 0.767192 -0.927575 0.694611 2.11379
516 3.94219 1.45791 5.00837 0.0752502 -0.151159 2.60234
93 6.80537 4.31065 1.94264 -0.816152 -0.908322 -0.419471
315 1.53311 2.89828 5.29542 1.4125 -1.37627 -0.228087
621 6.71908 4.33205 0.906141 -1.23153 -1.43098 -1.55787
760 8.98263 2.41955 0.951305 -1.26614 0.903484 -0.120433
120 8.05458 3.5735 0.690829 -0.0922925 0.0675188 0.849613
678 8.87996 4.96751 1.01917 0.549926 -0.529275 -0.321338
351 10.5103 4.15703 2.12125 -0.053202 -0.0226846 0.264608
283 10.1789 5.14726 2.67615 2.16762 -1.32792 0.40623
809 9.64177 3.87959 1.36423 -0.532642 -1.99315 0.936587
144 2.3533 1.04863 2.17516 4.76183 1.20234 0.094326
581 0.00358037 0.749438 3.01603 0.900601 1.96157 1.91703
578 1.30201 0.848 3.13175 0.0230428 -2.67506 -0.0879069
603 0.620243 1.01363 2.20172 2.1928 -0.0611182 -0.130055
490 2.42643 1.48511 3.20079 1.08552 0.345008 -1.01724
643 2.87944 0.576837 3.7177 2.85486 -1.0476 -1.92449
570 8.78524 0.1645 0.26697 -0.0757018 -0.9457 0.0145842
681 4.44152 0.420451 1.8508 1.7146 1.02588 -0.00986798
435 4.34176 0.753529 2.79507 -0.860848 1.41587 1.85071
140 3.96853 1.08704 3.83127 -0.208143 -1.38979 2.61898
424 3.5514 0.100699 2.34357 -0.617264 0.148724 -1.69463
331 4.80601 0.518152 3.82324 0.288463 0.647011 1.75821
153 5.37565 0.7311 2.03765 1.9905 -1.19681 -0.192385
414 5.2283 1.23166 3.17588 -0.27819 -1.03138 -1.16856
307 7.45982 0.278196 2.4582 0.85763 2.20852 1.08469
228 0.127035 1.43337 4.95429 -0.157877 0.119727 -2.34075
713 5.46718 2.03848 1.7065 -1.2457 1.7057 0.666414
607 6.75964 2.01878 2.53986 0.420764 0.600148 -2.07948
689 7.77874 0.450363 1.57339 -1.65883 1.50948 -1.59544
42 8.45879 0.869116 2.2488 0.157924 -1.79374 -1.36001
703 8.81952 0.532579 3.14074 0.0907521 -1.19723 -0.843343
407 9.29239 2.68692 3.86311 0.0518232 1.41534 0.753866
175 9.75641 2.00881 2.3514 -2.04016 -0.54371 -0.365386
858 10.3164 1.15278 2.08578 -0.229977 -0.184255 0.46691
180 9.73138 0.96412 3.21854 -0.87318 1.09527 -0.367565
124 0.173116 3.50485 3.14733 -2.68958 -0.0732198 0.777758
512 0.268315 1.85058 2.75965 0.601561 2.19381 0.429314
207 2.71923 1.58546 1.53625 -2.21214 0.218094 -1.49138
98 1.9118 2.83885 2.56115 -1.03837 -2.4422 -0.14366
564 1.45076 1.87414 2.70432 0.167662 -1.56261 1.81809
391 4.6 1.54283 2.18151 -0.271892 -0.402189 0.326484
591 3.60772 1.66393 2.74986 -0.70418 1.15336 0.612246
779 3.00393 2.67707 3.09572 -1.55451 1.95743 -1.56797
231 4.87755 2.17248 3.06524 0.226803 -2.17674 0.0808124
350 7.02152 2.29968 3.60255 0.345806 0.232497 2.3161
240 6.10123 2.4313 3.21431 0.461931 0.933381 0.917049
394 7.66653 2.40617 2.29677 2.28114 0.137521 -0.170628
614 6.91217 3.14598 3.05431 -1.69682 -0.00831694 -0.842782
629 6.69762 0.889809 3.05691 -2.46345 1.78038 -1.78629
755 8.67847 2.72401 2.87016 -0.143534 -1.45215 -0.927176
85 7.82632 3.18748 3.90926 -0.31598 0.842018 -0.71737
209 8.02825 2.08356 3.90124 0.579402 -0.195669 2.89641
151 9.03362 1.67622 3.79048 -1.39282 -0.258056 0.556127
542 8.52684 1.56826 2.91279 -0.876523 0.336836 0.756291
137 10.3633 2.89969 2.3034 -1.55212 -0.161501 1.88006
658 10.1577 2.46702 3.35416 -1.00385 0.599529 -0.754435
428 0.799883 2.83087 2.5116 -0.103299 0.142603 -0.962906
464 1.4687 3.60057 2.0685 -1.88598 -1.36138 -0.992527
75 1.15178 5.05653 3.21099 -0.501847 0.717526 1.00579
165 2.41953 4.63728 1.93764 -0.51879 0.308205 -0.177917
523 1.27261 3.50251 3.19502 0.129633 -0.337996 1.58546
392 4.28003 3.0256 3.19639 0.635049 2.55964 1.09314
467 3.21749 4.37529 2.57768 -0.720148 2.59256 0.313555
184 3.56865 2.84609 2.18262 -0.190868 0.0124779 -2.16979
575 3.96033 4.30064 3.52499 -0.460987 -0.829082 2.83573
65 4.07316 5.08661 2.51875 -0.731329 -1.41817 -0.290472
400 5.08321 4.09664 3.22113 0.518158 3.73826 -0.191109
179 6.00505 3.88235 2.64606 -1.33506 1.10275 2.31262
766 5.64864 4.63718 2.10042 -1.00118 1.05932 -1.98956
201 5.03128 5.13239 2.69843 2.19645 0.655387 -0.357731
482 4.94724 3.0713 2.06098 0.382895 0.437649 -0.91188
423 7.04166 4.65535 2.93146 -0.726735 0.733207 0.415356
132 5.87878 4.73911 3.30019 0.75038 -0.924417 0.854719
432 8.26457 4.57631 1.84865 -0.308993 -0.268073 0.153875
371 8.52982 3.45086 1.79357 -1.03246 -0.973982 -0.647175
425 9.1506 4.91356 2.36281 0.403272 -1.01451 -0.333024
527 7.70166 3.72089 2.51289 1.20682 -0.645685 1.49454
825 4.27536 1.11468 0.479769 -2.15871 0.941625 -1.88686
419 8.1919 4.56934 3.6285 -0.034512 1.61642 -0.178554
354 9.30979 3.9528 2.39519 -0.40014 -0.189346 0.388157
24 0.577061 4.69575 2.47146 0.247713 1.23406 -2.00462
479 10.0769 3.92017 3.50482 -1.08971 -0.226022 -1.13415
334 6.39079 0.00829913 2.57182 -0.0878075 -3.40274 -1.33168
168 0.919502 0.804779 5.14182 -0.0543987 -0.946276 2.12339
705 4.0047 0.218712 4.69293 -3.61772 -1.24658 -0.350836
142 1.89731 0.99895 4.33164 0.30917 1.12421 -0.42129
664 3.03359 0.913423 4.64535 -0.390541 -0.292675 0.44602
791 1.6032 0.515266 1.79587 -0.219579 0.882811 -1.33093
278 5.31894 1.50129 4.15509 -0.917277 -1.02359 -0.47098
224 6.17249 1.08601 3.82196 0.898098 2.00268 -0.384843
601 7.02495 0.36794 3.91755 2.64557 -0.471581 0.659262
753 5.86773 0.951102 4.9822 -1.69033 -0.687585 0.195709
375 6.53459 4.17417 4.7485 0.325844 1.23861 -1.30417
506 9.51872 4.75204 3.35401 -0.775824 0.196017 -1.73221
504 7.03796 1.15346 5.05686 0.646266 -1.69155 0.444039
446 8.31383 1.78932 5.36153 -0.326084 0.59056 1.96901
782 7.5843 0.16892 4.90463 -0.561069 -0.990543 1.76795
757 8.7862 0.771792 4.48636 -1.40348 2.70132 1.29427
222 7.91771 1.05334 4.08918 -1.17123 -1.13058 -0.251557
149 9.7445 1.46173 4.59399 2.26913 0.0850688 -1.83046
21 10.2139 0.486591 4.22479 -0.607909 -2.36626 -0.168875
14 10.2869 0.0230031 1.10484 -0.231556 0.243346 1.35512
834 1.17754 3.23522 4.29993 -0.216103 -0.242042 -0.921551
611 0.525554 2.35957 3.70914 -2.2027 2.20297 -0.645346
657 1.51697 2.51598 3.59528 2.76705 -0.547985 -0.314224
79 2.26756 1.89651 4.76719 0.665491 0.575554 -1.81956
851 3.08684 1.65705 3.90318 -1.82793 -2.57449 0.289024
733 2.53967 3.06142 3.90376 1.24687 -0.109887 0.222369
221 2.60728 3.57237 2.87835 2.70987 0.267959 -0.694296
398 3.54254 3.81605 5.15974 0.146867 -1.18394 1.29928
687 2.625 3.18873 5.21877 -1.30316 -2.01196 -0.392708
297 3.35672 2.35617 4.6865 -0.261097 1.08985 0.467476
605 4.0602 2.37223 3.94582 3.35791 0.769321 0.158763
538 4.8956 2.8468 4.31457 0.193969 0.128208 0.874309
560 4.97978 3.97352 4.26597 1.80498 -1.0511 -1.95964
157 5.59104 3.37579 4.90454 0.872231 0.829899 0.00611616
837 4.31257 2.98583 5.16307 2.85681 1.67823 1.76896
51 1.44729 5.27761 1.78456 -1.20488 -0.179799 0.998304
433 5.99179 3.46933 3.60728 0.0692033 -1.73125 0.223917
34 6.87116 3.05724 4.38957 0.240848 -0.463202 1.99947
680 6.38248 2.04601 4.46608 -0.919792 1.2309 0.990521
550 7.35545 2.144 4.78228 -0.530551 0.802297 0.163641
253 8.13213 2.76485 4.71304 0.791895 -1.45475 -0.531742
336 9.85169 4.00875 5.18189 -0.564842 1.15825 -0.041428
190 0.102974 3.62164 4.73956 -1.48967 -0.103219 -1.08431
453 10.2028 2.36218 4.55895 -1.12419 0.800275 -0.758623
317 0.384532 5.35815 4.41329 -1.45703 1.1666 -0.548513
530 10.5897 4.65129 5.33994 -0.457512 2.05953 0.897107
483 0.797395 4.33237 3.76708 1.2034 -0.76288 -0.529847
2 2.12488 5.34626 0.8655 -0.791162 0.0675002 0.180882
130 1.35721 1.9561 4.53412 -0.861779 0.210978 -1.96728
12 3.12274 4.22995 4.23886 -0.355824 -1.29743 -0.636337
314 1.66711 4.31748 4.44457 0.0657801 -0.294812 0.947505
183 1.88524 4.43862 2.79925 -1.0385 -1.09204 -1.76149
245 5.755 0.313423 3.49376 1.06058 0.403352 0.434286
476 3.22658 5.18974 3.40464 -0.544606 -0.556339 0.997811
568 4.08296 4.67946 4.5856 -0.00889578 -0.761727 1.12474
522 9.54802 0.0782601 2.16641 -1.1788 0.16797 1.58412
449 1.26586 0.0788749 4.02231 -0.64868 0.937322 -2.30256
288 4.88326 4.97914 5.16013 -0.656283 2.64571 0.255383
429 4.99505 5.08417 3.91102 1.6067 0.872395 0.241853
803 6.82114 4.1192 3.77512 1.69889 0.638759 -2.67681
501 5.68838 4.52912 4.61145 0.336946 -0.983121 -2.03959
856 4.83674 1.00884 5.28998 1.48585 0.174061 -1.60679
571 8.48457 3.88589 4.5667 0.417096 1.13664 -0.577023
846 8.91421 3.88772 3.46438 2.58879 -1.44768 -1.41689
667 8.91412 4.93909 4.33683 -1.35596 0.874589 -0.393819
700 7.55183 4.54538 4.95227 -0.936916 -1.49102 0.390557
13 5.25775 3.86737 0.0728842 0.159401 0.27163 -1.45273
843 10.1781 5.16491 0.766082 -1.91483 -0.371477 0.916703
783 6.19513 3.56196 0.148246 1.00907 -0.184664 0.937484
212 7.71273 4.90731 0.925618 1.21182 -3.58557 -2.28345
163 3.77786 0.09116 3.53468 -0.679128 1.63063 1.22062
68 4.21389 5.32099 0.583574 0.178046 -0.135583 2.21766
343 6.50468 0.00869975 4.79545 -0.442711 1.66489 -0.11313
393 1.94649 4.99436 5.35736 -0.20141 -1.18048 -0.900939
301 0.967583 1.6648 5.71297 -0.113185 -0.990296 -1.62345
594 0.0424372 1.39025 6.185 -0.00305595 -1.4296 -0.588775
262 0.669019 0.569503 6.06771 -1.80439 0.147869 2.35311
797 2.5938 0.559374 6.25406 0.776695 -0.790281 -1.57983
793 3.10848 1.52338 5.5278 0.614676 2.07909 -0.151881
827 7.26321 5.20658 6.05194 0.357598 1.02149 3.78961
18 4.13331 1.17959 6.72676 1.02178 0.315352 0.361617
162 2.6627 1.62229 10.3093 1.82013 -1.34229 -1.92696
290 3.3127 2.03451 6.38324 -0.826763 0.664843 -0.548871
10 7.20591 4.9756 8.4144 0.634442 0.173831 0.416126
676 5.24668 1.81211 7.00995 1.5002 -0.182069 1.40326
524 4.59208 0.102796 7.0406 -0.177026 -1.33367 1.79014
225 5.66085 1.2823 6.08045 -2.78532 -1.47211 0.905416
651 5.53881 0.794973 7.11194 -0.487701 -1.92994 -0.198124
426 6.07362 2.51574 6.79626 0.47114 0.275724 0.484354
39 7.71083 1.00166 6.41568 -1.03023 -0.0691201 0.591932
43 5.19676 5.15016 10.6666 -0.425211 0.974887 -1.08644
141 1.66344 3.59994 10.7254 0.229634 1.97263 0.0792426
172 9.28737 1.28869 5.56758 1.26978 -0.619294 -1.86642
701 9.7342 1.44603 6.66726 0.0429369 0.599757 1.48254
143 10.4478 0.238965 9.51008 -0.190493 2.34234 0.433741
588 10.1875 0.807245 7.35796 -0.001461 -0.821592 -2.75499
617 9.12938 0.298102 6.33838 -3.01772 1.43713 -1.97309
759 4.84842 0.14937 5.9197 -2.50319 0.31808 0.679787
567 10.4874 3.54972 7.0629 -1.54124 0.412242 1.35752
555 1.85282 2.59515 6.49889 1.38906 0.357097 -0.808418
87 2.31201 0.275275 7.26686 -2.54586 0.716639 -0.444202
622 6.34545 2.78472 5.55068 -0.135312 0.360519 0.239464
789 2.33002 1.56826 6.57843 -0.264275 2.17111 0.0432084
444 4.48446 2.54112 7.11408 -1.27699 -0.562878 -0.0558445
519 3.82922 2.96227 6.47507 -1.15293 -0.321925 0.389719
518 4.53312 1.8724 5.97084 0.392197 1.07136 0.460584
513 2.56462 2.32833 5.66431 -3.03004 1.12042 -0.715883
669 8.67158 2.87879 10.5266 -0.414027 1.36097 0.21513
612 5.23153 2.90845 5.88601 0.4813 -2.21139 -1.21292
711 6.44187 3.45202 6.31915 -0.693531 -1.46692 1.35996
216 5.43758 2.92212 7.74881 -1.88416 1.42319 -0.143742
44 6.72884 1.88678 5.6254 0.300434 -0.720121 0.777598
404 7.16949 2.61427 6.22405 -1.07098 -0.320483 -1.57413
92 8.10708 3.49324 6.95845 -1.07331 0.329839 2.75392
244 8.18063 2.79713 5.84489 -2.03321 -0.733217 -1.27944
718 8.57186 2.43607 7.16063 -1.31894 -1.53738 -1.16966
72 9.41043 0.357242 7.21608 0.957468 -1.13499 1.02804
91 6.12957 4.88538 7.7704 -0.472249 -1.01128 2.20784
77 9.60355 2.3127 7.34534 0.919285 -0.458018 -0.0495155
470 0.24103 4.94389 10.6988 0.757897 1.73097 -1.02259
696 10.1046 2.03818 5.72554 1.74031 -0.244746 0.329135
587 0.233739 2.4657 6.55304 0.467492 -1.93621 1.12857
491 1.2056 4.13233 6.08186 -0.126311 -1.59817 -1.16928
275 0.859219 3.2684 6.17019 -0.0877981 -2.33518 -2.16054
849 0.241143 4.42626 7.23359 0.304352 0.396181 -0.0231678
347 2.88562 3.74089 6.24341 -2.2827 -1.57378 1.53564
267 2.10721 4.84428 6.40321 -1.22895 -1.29566 -0.848131
618 3.97231 4.44593 5.95822 0.154714 0.558632 -0.00430258
647 2.80354 4.53173 5.62129 -0.541822 1.13343 0.72972
634 5.91563 4.46207 5.66783 1.43491 1.84001 0.66094
101 5.59429 3.39171 6.97021 0.187512 0.46681 -0.323741
318 5.00851 4.61696 6.16631 0.302024 0.185178 1.73524
792 1.42224 0.397152 8.03719 -2.13335 0.265875 1.58946
699 6.20213 4.4922 6.78991 -0.052004 -0.139245 -1.1049
56 6.95229 4.21344 6.10905 1.74157 -1.61479 0.321295
242 8.097 3.73929 5.67889 2.51379 -0.105254 -0.765685
413 7.97612 4.47733 6.32629 0.784233 -1.74436 -1.58084
715 9.192 5.09187 7.88664 -0.0489674 0.974591 0.383744
19 9.93485 2.9723 6.43114 0.204898 0.116156 1.35656
54 8.93097 3.50189 6.18536 0.489906 -0.585378 -1.65381
665 10.7163 3.73229 6.037 0.980171 -0.077197 1.67517
719 9.85933 4.41168 7.00495 -2.37281 0.0466938 0.373417
192 10.2122 0.789202 5.53469 1.72344 -1.16082 -0.362921
748 10.6796 5.04006 6.30304 1.94986 0.439515 0.460904
796 1.44815 0.979146 6.62218 0.699437 1.05665 1.23406
653 0.217852 1.50914 7.50709 0.217436 1.35849 -0.460549
410 1.13446 1.77964 9.23352 -0.235245 1.86927 -2.03037
691 2.94036 1.79962 8.27098 -2.98015 1.33985 -0.411696
342 0.886968 0.605985 9.05709 -0.00116004 1.7916 -0.0977637
198 2.6336 0.453891 8.41319 0.244012 -0.286464 0.758726
16 1.54633 1.62448 7.38314 -1.72445 1.13055 -2.15206
469 3.71308 0.963403 8.6268 0.035457 -0.780891 0.865415
544 3.21531 0.782151 7.61485 -0.430287 1.10442 0.0630925
360 4.85443 0.766759 8.99803 -0.978023 -1.0955 0.537815
543 4.45617 1.12634 7.91413 -0.679446 -1.00111 0.710239
577 10.272 4.55603 9.52986 -0.301503 0.60738 -0.11753
191 6.66527 0.994792 8.04235 -0.0694609 -0.771126 2.0849
422 5.01781 0.139551 8.00025 2.27352 -1.23902 -1.96674
663 5.55488 1.03784 8.19394 2.31823 0.675848 0.658482
210 6.66955 1.59775 6.65647 0.627905 0.547688 1.0216
291 7.56128 1.6808 8.00311 -0.736112 0.470698 0.0765691
7 6.88455 2.85415 10.6707 -0.891139 1.42322 1.64061
300 7.29364 0.210903 7.9136 0.559893 -1.98795 0.890502
722 8.72287 1.27619 6.55324 1.72728 2.3864 0.668659
243 0.54904 0.592248 7.10859 0.452548 2.59851 -1.92528
352 9.89582 1.45451 8.26608 -1.25236 -0.294619 1.02932
103 1.62047 2.34074 8.3099 0.852229 -0.450302 -2.3965
88 0.850821 2.4587 7.36653 1.23063 0.104505 -1.07951
380 0.557774 3.78633 8.05947 -0.442956 0.590867 1.07998
556 0.947432 1.29254 8.22142 -2.07596 0.172923 -0.24019
250 2.14344 2.50151 7.45589 -1.12214 -0.214093 -0.611147
420 2.99871 2.98684 7.15151 -0.132158 0.655751 -1.28347
33 3.41309 3.95835 8.09697 -1.08259 0.475986 -0.56134
126 4.00893 3.01257 8.61196 -0.952588 -2.35111 -0.918699
327 2.90953 2.74699 8.45384 0.204461 0.128537 -0.697062
328 3.72971 2.34637 7.80496 -1.2909 -0.237192 0.668034
258 4.89649 2.1949 8.28191 -2.78023 -1.74313 -1.29076
176 6.21601 2.79589 8.42206 1.33148 0.908745 0.340204
579 4.6581 3.661 7.89184 -0.451412 1.69741 -0.731639
706 7.3722 2.73035 8.34351 -0.397325 0.398812 -0.525984
458 6.28094 1.90737 7.82246 -2.2528 2.04859 -1.41896
26 6.83089 2.05887 9.04479 1.07886 0.78343 -0.809729
325 7.81071 1.90301 9.17616 0.26885 -0.180733 1.27566
445 7.52196 1.99109 6.88261 -0.421876 -0.893933 -0.833709
346 8.6773 2.6235 8.27478 0.86901 -1.1499 1.77455
154 8.90647 0.90944 8.01292 -0.892932 1.1254 -0.477813
160 9.13036 2.36567 6.29331 1.76457 -1.86357 -0.767881
384 9.50867 3.41795 7.45383 -0.5374 1.44935 0.0743046
509 10.4848 2.82469 7.75077 1.91042 -0.333049 -0.536547
743 10.6285 2.27742 8.65838 0.415388 1.51504 2.24645
76 9.50135 2.54104 8.72906 0.342066 -1.51784 1.41822
569 1.55958 3.51418 6.95411 -0.439668 -0.332056 1.30906
799 2.28697 3.42636 8.40856 1.87909 1.90358 -0.973851
520 2.77218 4.55428 7.29939 1.11168 0.669731 0.767682
127 1.46785 4.28375 7.7136 0.995612 -0.265914 -1.55538
641 3.9128 4.04063 6.99176 0.733741 1.38873 0.804118
218 2.61046 0.497068 10.4317 -0.412616 0.155892 -0.364074
272 4.37662 4.301 8.80106 0.829415 1.49486 0.513333
833 3.93973 4.78769 7.9658 0.696206 0.421651 1.30342
257 4.83782 4.78594 7.29742 -0.0662862 -1.23409 0.813737
673 4.6933 3.61862 6.45799 0.600115 -0.308138 -0.620869
36 5.61405 4.0735 8.41067 -0.979322 -1.74389 0.558663
203 6.35667 3.62055 7.56466 2.64321 0.764132 -1.29651
508 6.97202 2.73421 7.31911 -0.836008 -0.734992 1.20421
545 7.33306 4.30597 7.09278 0.430927 -0.899086 -0.902838
409 7.99662 4.34259 8.48863 -0.515297 -2.02284 -0.0178049
353 8.65784 4.0957 7.63732 -0.390884 -1.90349 0.67998
260 8.62281 4.92601 7.0395 0.907922 0.907294 1.34553
5 7.81929 3.4814 7.91079 0.306583 0.395435 -0.321804
32 7.54751 3.57321 9.33073 1.60821 2.07629 -0.0933846
161 9.35682 3.61705 8.7115 -1.06987 0.40773 0.664068
697 8.90431 4.5228 8.718 -1.2396 -0.916725 2.02463
839 10.2745 4.9677 7.66001 -0.0969245 -0.0127107 0.206307
499 10.6285 0.807735 8.28222 -1.57437 -2.68173 0.0432906
46 0.602115 0.432924 9.96033 -1.60338 -0.787247 0.206222
339 1.80125 0.998202 9.34223 -1.02707 -1.42792 -1.62689
461 2.15132 1.25535 5.53665 0.057061 -0.839878 0.427572
806 2.82896 1.11727 9.18377 0.802452 -1.22299 0.865057
254 3.52207 0.935678 9.91476 -0.349861 1.89226 0.950877
717 6.23214 1.07399 10.2267 0.369303 -1.6562 1.25431
418 5.22119 4.91798 9.61902 -0.970996 -1.73127 -0.0853276
64 4.78607 0.558026 10.2621 0.86322 1.88255 0.797341
29 5.2588 1.77217 9.73595 -0.968374 0.750928 -0.367704
349 6.79018 0.343715 9.90926 -1.34234 1.10007 2.05326
31 7.50569 0.763962 8.74073 0.218303 0.845488 -0.632219
773 6.4447 0.879871 9.03732 -1.23619 -0.441655 -0.977008
488 7.93345 0.444161 9.83809 1.7593 -1.12646 0.121777
182 8.58536 0.785525 8.98135 -2.06015 -1.55912 0.91263
112 7.416 5.00055 10.5691 1.49895 -0.331943 -0.00524993
40 7.20521 3.30783 5.39648 -2.2421 -0.325254 -0.401807
117 9.71856 0.812163 9.24867 -0.238264 -0.335177 0.0702157
583 10.0325 1.25137 10.2705 -1.87402 -0.34769 0.624121
500 9.12598 0.979077 10.125 -0.325323 0.606913 -0.94612
249 0.149996 1.37144 9.13573 1.15476 0.291988 0.571672
166 5.73205 0.246813 9.41878 0.0897121 -1.30798 0.862848
133 1.52135 1.69565 10.3144 -0.815283 -0.0568569 1.2401
374 10.6751 2.09406 10.087 0.695252 -0.300355 -0.29034
269 2.31628 2.10192 9.32453 0.197605 0.300631 -2.07546
517 2.24235 3.45556 9.5565 -2.40888 0.993585 0.365904
309 7.99439 0.869595 7.44066 1.31635 1.54956 1.4519
596 1.94433 1.31681 8.44072 1.2788 0.876004 -1.3734
146 3.33426 3.0698 9.57103 -0.632324 -0.616508 3.17904
709 4.36836 2.80174 9.71648 -2.02636 -0.902335 1.49099
282 4.47328 3.77987 10.1357 1.12941 1.28648 -1.63916
589 3.5538 2.03181 9.20047 2.8602 -0.193901 0.222888
742 3.40941 5.02537 8.97681 0.0152388 -0.433502 -0.366507
97 6.51691 2.99415 9.67167 -0.586559 0.474549 1.80019
475 6.19361 2.04169 10.0087 1.46987 2.93366 1.37536
266 5.78077 1.94437 8.91422 -0.259551 0.249578 1.0005
478 5.40138 3.09814 8.87426 1.14039 -1.85665 -0.52913
223 5.45536 2.76999 10.5346 -0.264809 -0.550568 0.339131
427 0.463056 2.74497 5.40259 0.608875 -0.746191 0.274889
164 6.77708 0.0331729 8.8086 -0.424572 -1.11649 -0.0307557
45 7.08589 1.50116 9.84203 -0.100701 1.88766 -0.436419
637 8.47938 2.10769 9.90501 -0.318894 0.00511075 1.24947
305 9.65996 5.19391 5.73157 -0.475807 0.531871 0.327429
525 7.74956 2.86884 10.0429 1.32745 -0.956016 0.614581
22 8.33215 0.37085 5.52924 0.440598 -0.414627 -0.993597
728 9.35911 1.86086 9.47019 1.34315 -0.400511 -1.24623
585 9.62649 3.19492 9.65318 -0.189746 2.50564 -1.00741
507 5.97756 0.126074 10.5448 0.112518 1.78727 -0.328492
52 1.48295 4.49335 10.0245 -0.444515 -0.00803097 0.795042
860 0.366229 3.75409 10.3521 -1.92649 -0.584798 1.29516
395 1.45772 3.82828 8.93535 0.825924 0.704366 1.14777
401 10.575 4.67197 8.5889 -0.739475 -0.796157 -0.893811
251 0.64875 5.03478 9.63999 0.450063 0.589614 0.804332
271 0.963103 2.77283 10.0739 -0.30976 -0.766512 1.61322
406 0.696147 4.93679 8.066 2.17888 -0.914208 0.168637
11 1.61549 5.2582 9.27819 0.279326 0.207637 0.429569
730 3.61839 3.66374 10.5964 0.739425 1.41899 0.143063
17 2.68258 4.25635 8.94831 -0.251193 -1.8907 -0.947495
847 2.6216 4.57686 9.91999 0.97667 -0.438911 -1.77854
661 3.65141 4.10797 9.59531 0.0521918 -1.06472 1.56841
495 0.467354 3.45571 9.02561 0.145301 0.103574 -1.22924
692 2.19138 5.1621 8.25254 -0.50279 0.347853 -1.43684
58 4.21225 4.64915 10.4721 -1.50996 -0.694613 -0.447834
104 6.14409 4.79898 9.15803 0.964982 -0.166555 -1.01443
229 9.95626 5.3062 10.4549 -0.129289 -1.03309 -0.21951
30 6.58179 0.551307 5.77758 -1.08915 -0.659231 -0.339145
205 5.64115 3.81738 9.84458 1.62767 0.185859 -0.815111
439 6.02669 4.65534 10.4071 0.336984 -0.407056 0.254932
131 4.2724 1.62413 10.1117 0.133831 0.155866 -2.29115
505 9.31136 1.92609 10.5617 0.383995 -0.2238 0.296604
610 6.72603 3.66936 8.78236 -0.306885 0.315735 0.842758
576 6.63007 4.04144 9.88239 0.746198 -0.20532 -0.268516
592 8.79604 3.86224 10.6644 1.47053 1.06687 -0.264848
261 6.78933 0.339402 6.82274 -0.582589 -0.481093 0.107718
566 8.14513 4.73229 9.46513 -1.824 -1.40611 0.0214505
232 8.59387 3.35232 9.5233 -1.20325 -0.148943 0.0737659
365 0.912957 5.07218 6.62925 -1.762 0.0972665 -1.44327
480 1.60339 0.163294 5.39011 0.116356 1.41639 0.332518
553 2.56032 3.13436 10.6598 -0.465336 0.262465 -0.285542
230 3.25603 2.30746 10.6705 1.4857 -0.596584 -0.570241
593 5.25382 5.11079 8.32034 0.697934 1.13433 -0.34851
726 3.34739 0.335154 5.61103 -0.189277 -0.17728 1.71439
826 7.50908 3.9663 10.5947 1.79498 -1.16789 -1.74617
497 5.60748 8.72838 4.95575 0.87176 2.83492 -0.958381
252 0.472014 6.47697 0.638157 -1.55156 -1.23655 1.07416
721 1.67825 6.52876 0.779603 0.828161 -0.944458 -0.474308
4 7.85255 10.5173 0.0337396 -0.341996 -0.338461 -0.909036
123 3.04175 6.33488 0.652445 0.556406 -0.128683 -1.04762
84 2.54337 7.73272 0.723719 0.459591 1.00817 -0.734623
784 8.76388 8.28643 5.30065 -0.978338 -0.918161 -0.762332
536 10.4152 10.3048 3.89584 2.79809 0.55368 2.0316
199 4.13653 6.73292 0.904569 -0.267927 2.44461 1.03835
533 9.25851 5.8981 0.627873 0.31586 -0.737129 1.33921
802 4.77754 7.48817 0.455361 -0.399673 1.05379 1.20169
584 6.52987 6.42794 1.49075 -0.245491 0.137076 0.0150966
89 7.1956 9.48551 0.406748 -0.869021 -1.04852 -1.95668
6 7.35898 6.44744 0.198693 0.37124 1.22254 0.739621
20 7.45782 6.87147 1.34116 -1.32274 1.69608 -0.80539
540 7.03428 7.59107 2.5495 1.56557 -0.764681 1.95163
114 8.67523 9.55363 0.132175 0.368623 -0.391704 -0.373928
752 8.45183 5.59215 2.01082 -0.560683 -0.985466 1.10373
624 0.654177 6.31211 2.03016 0.217252 -0.551201 -0.223898
344 9.58743 5.66662 1.69994 1.74117 0.634278 0.408748
115 1.43033 7.51555 0.79031 0.0469951 -0.517608 -0.378719
48 2.33426 8.7247 0.786184 1.65103 -0.924882 0.673551
338 0.0901539 5.61644 5.30479 -1.32533 -0.100744 -0.00347445
377 9.84632 9.0267 0.173802 1.54202 0.706732 0.138055
824 0.987474 8.24365 1.52456 1.58135 -1.28362 -1.39159
485 1.61054 8.95447 1.6005 -0.0389304 0.560574 1.91198
25 3.41987 8.52508 0.799967 -0.479931 0.438683 -1.19402
818 3.59734 7.54775 0.496343 0.280459 1.6076 0.989908
800 3.50118 8.75154 1.80259 -3.15455 -0.776868 1.33062
368 4.51181 8.44389 0.701304 1.3172 -0.857408 -0.137723
805 5.07992 8.34914 2.22497 0.51384 0.543201 0.846423
285 4.47559 7.48838 1.70518 1.45501 -0.908477 -1.02684
714 5.49848 8.69211 0.691492 -1.22775 1.41992 2.75177
857 6.13391 8.35286 1.43293 1.17785 0.976029 2.12505
330 7.26481 7.90538 1.02243 1.88137 -0.0884951 0.234247
776 7.08552 9.07901 1.66571 -1.02569 0.123223 -2.71391
654 5.99589 7.6396 0.0705756 0.409632 1.35777 0.207245
440 8.25775 7.79384 1.05226 0.522424 -0.161893 -0.862535
746 8.2309 9.21392 1.13179 1.86275 -1.72576 0.852526
586 9.37122 7.1989 0.727074 -0.991413 -0.787229 -1.21097
96 9.09311 8.5595 0.933548 -0.0138691 -0.363427 1.05493
94 10.2771 8.70056 0.962812 0.957878 0.593949 0.351705
492 8.49638 5.65292 3.72221 0.783314 3.05092 -0.186299
61 1.0448 8.7748 0.549975 -2.48774 0.908138 -0.146783
642 2.84075 10.5426 1.38274 -0.542334 0.42206 0.718173
170 5.71227 6.69471 5.09223 1.34035 0.643333 -0.355349
771 0.520066 10.5972 0.71192 -1.6264 0.486572 -1.18213
181 7.58499 5.70864 4.33419 0.667793 1.18098 -0.624199
421 3.82036 9.83334 1.08106 0.0371897 -1.67131 -0.466211
695 1.71096 10.2764 0.740596 1.38909 -0.43753 -1.45009
121 2.81226 9.4381 1.33957 1.3351 -1.28612 1.90773
47 9.73852 8.22916 4.77287 -0.0103109 0.944663 -2.22113
535 4.52345 9.01931 1.74956 2.20709 -0.813829 -2.37499
150 3.23909 5.38057 4.83286 0.232455 1.10515 -0.207805
366 4.48562 10.6123 0.780395 2.6543 2.26638 1.40898
838 6.24075 9.41167 1.05386 1.94154 -0.262556 -3.13976
514 4.78251 9.47926 0.837846 -0.524964 1.59899 0.330235
193 8.40126 6.68247 0.146766 3.6791 1.94664 -0.611482
694 6.30671 10.3803 1.19989 -0.521386 0.478215 0.938912
739 6.67833 8.67476 0.518117 0.157034 0.219129 -0.668027
382 8.63273 10.2776 1.83286 0.0112988 -0.377228 0.893443
639 8.21282 10.4704 0.935515 -1.36227 0.7637 2.35684
829 9.36781 10.0812 0.671308 1.25664 -0.903581 0.577187
616 10.3179 9.90561 1.79594 0.769605 1.63282 -0.883986
355 1.43818 5.88951 2.77125 2.32777 -0.522814 -1.94469
656 1.76321 6.83236 2.87769 0.945404 0.226492 -0.796842
471 10.5784 7.63961 0.713131 -1.4664 0.378399 -0.942428
81 0.496644 6.91094 3.26845 -0.512573 -0.35844 0.614028
416 2.3868 5.79427 2.11114 0.689809 -0.2093 -1.37899
158 2.43438 6.80612 1.36683 1.06484 -1.01172 -0.20066
671 2.95408 6.72498 4.11754 -0.515329 -1.19908 -0.403593
3 3.65542 5.87815 1.57963 1.5798 -0.723864 -0.396778
378 4.39117 6.40672 2.12963 0.452718 0.119365 -0.431372
167 4.17527 6.78766 3.18752 0.336405 0.635285 -0.44629
710 3.09331 6.25997 3.15298 -1.03349 1.29159 -0.621233
135 5.20073 6.23901 2.90591 -0.264308 -0.878515 0.413177
35 8.3101 8.61149 0.208386 -2.13662 -0.636865 -0.94429
807 6.10866 5.59978 2.861 -0.122354 1.34154 -1.73351
526 6.16954 6.67983 3.302 0.746689 -1.68046 -1.07128
712 7.01248 5.49039 1.83162 1.815 -1.35031 -0.671237
633 7.71316 6.33474 2.20404 0.249789 0.104735 1.9765
498 7.00644 5.81581 3.2396 0.0523137 -1.1785 0.241994
635 5.75886 6.71157 2.1494 -2.12493 -0.959061 -1.82535
73 8.45961 6.60207 1.17259 0.175337 -1.10352 -2.09025
732 9.22328 7.27277 2.06999 0.179912 -0.424424 -0.173735
595 9.45101 5.72115 3.04513 0.715291 -1.47286 2.77099
474 8.42511 6.91126 3.52447 -0.321213 2.13384 0.406345
450 10.1289 7.19772 2.83347 -1.82899 -0.601638 -0.19328
367 0.0815843 7.68171 4.44614 0.763811 -0.834225 -1.75267
502 10.425 6.132 2.24151 0.86807 -0.164613 -0.649631
463 1.33506 6.90904 1.79414 -0.565727 -2.15423 -1.78631
761 1.55729 7.92455 2.64796 0.344757 3.38089 -0.520696
122 2.6409 6.94002 2.4269 0.30094 -0.182498 -0.62765
861 2.59077 7.85691 1.76929 -0.482076 -1.23891 0.361314
83 2.18972 7.45402 3.4513 0.954415 0.513648 -0.287943
615 3.34386 7.83894 2.64539 0.12631 -0.217315 -0.638892
736 4.625 7.61703 2.75543 -2.08428 1.62532 -0.428702
565 5.40471 9.02731 2.9361 1.01348 -2.54693 2.91045
604 4.12245 8.50465 2.52187 -0.00362042 1.96977 -0.359742
235 5.32867 8.01686 3.31334 -0.571786 -1.15759 -1.00659
489 7.6479 8.27382 2.29159 0.424975 0.190369 1.09302
725 7.10443 6.85596 3.38459 -0.108667 0.0533582 3.13104