ITEM: TIMESTEP
42100
ITEM: NUMBER OF ATOMS
864
ITEM: BOX BOUNDS pp pp pp
0.0000000000000000e+00 1.0726842421158810e+01
0.0000000000000000e+00 1.0726842421158810e+01
0.0000000000000000e+00 1.0726842421158810e+01
ITEM: ATOMS id x y z vx vy vz
421 1.06203 0.536108 0.953752 0.020609 -0.0261278 -0.575723
689 0.177596 0.45712 1.31776 -0.635465 -1.03554 -1.73437
683 1.00961 1.33329 1.55777 -0.930041 -0.598058 -0.65149
175 0.489201 1.23287 0.398974 1.75051 -0.85593 2.97445
854 2.44325 0.0848471 0.318903 0.426235 -1.38962 -0.632413
591 1.86275 1.31997 0.960189 -0.675102 -0.813972 -0.764747
131 3.00059 1.07615 0.199963 0.251019 0.340104 0.54983
731 3.12978 0.416091 1.24102 0.226115 -0.0646643 1.26445
140 4.30189 0.679864 0.743784 1.59842 1.57538 1.33209
295 3.63864 1.42528 1.28353 -1.30524 -0.144136 2.15664
835 3.59077 0.190014 0.0757708 0.566223 -0.8836 -1.13629
642 5.78907 1.30268 1.59969 -1.1388 1.07295 0.442186
403 5.1802 1.49637 0.410806 -0.232421 -0.421461 0.096234
801 5.75296 0.0575602 0.0405269 2.57017 0.752516 -0.414191
240 4.63502 1.51548 1.29245 0.42398 1.20355 -0.516076
770 5.31614 0.479714 1.11106 0.743218 1.81749 1.19401
694 6.39606 0.466182 1.35803 -0.238048 0.359063 0.50052
31 6.5855 1.56727 0.728653 0.180391 -1.37814 0.532635
134 7.69119 1.1858 1.24335 0.653997 -0.0398013 0.457687
804 6.96227 0.660506 0.224844 -0.898401 -1.17447 -1.45287
578 10.3012 4.00552 4.83912 0.746394 1.77592 -1.55451
809 8.88815 1.50315 1.73179 0.853303 0.0426514 2.17522
177 8.30773 0.509605 1.155 -2.41145 -0.790358 -2.36983
14 9.37704 0.654049 0.681855 0.674238 -0.102028 0.227736
599 9.96741 1.0754 1.51675 0.439999 1.37148 1.31949
583 10.491 0.680763 0.285835 0.0976738 0.7826 1.38641
493 9.69602 1.56528 0.414749 0.0484952 1.66617 -0.981906
310 0.712212 2.48316 1.0382 -1.09292 2.52823 -0.280174
70 2.61618 0.0604687 4.72187 1.15662 0.633588 -0.460891
730 1.46959 3.37442 1.35589 1.35465 0.823444 -1.38414
438 2.02792 3.18242 0.37844 -0.94211 -0.945887 -0.155445
103 3.04495 3.18298 0.688838 1.931 -0.0879078 -0.774422
138 2.71349 2.00815 1.03099 0.0480676 -2.62436 -0.225845
33 2.33726 3.05048 1.81607 0.652891 -1.19404 0.57194
152 1.52549 2.14852 0.389678 -0.680467 0.174425 1.77621
507 3.8557 2.37416 0.962643 -0.586836 -1.27011 -0.801119
89 8.62532 0.0775764 1.91287 -0.253085 1.30591 -1.11456
93 5.93689 2.30505 0.931462 2.09514 1.19352 1.36378
58 5.1001 2.83322 0.834335 -0.30134 0.937026 -0.151135
68 6.00715 3.459 1.41673 0.809022 1.139 1.54782
13 5.04384 3.37606 1.70672 -2.31139 -0.534605 -0.0237504
37 6.93842 3.24286 0.0764332 0.26671 -0.6066 -1.45992
525 7.07897 2.41781 1.10601 1.11847 0.56762 -0.272772
475 7.49315 1.94416 0.113746 0.295132 -1.77859 -0.795209
42 7.92907 2.13669 1.62762 -0.0143602 1.80243 1.53007
508 8.30726 3.19842 0.878391 -1.08274 -0.860997 -0.262672
760 9.05253 2.71634 1.70583 -0.751485 -0.810107 0.869208
716 8.46962 1.74464 0.730414 -0.913675 -0.305118 -1.06148
464 9.79271 2.48018 0.93619 4.09276 -3.02762 1.96822
553 10.502 2.1581 1.52662 0.45289 0.197128 -1.07599
106 10.1376 3.44038 0.399706 1.39659 -0.880272 -0.979265
627 0.61386 4.56573 1.08258 -0.142213 3.35072 -0.677176
2 1.22073 5.33763 0.579582 -0.98662 1.34967 0.112225
589 0.52196 3.68716 0.227301 0.454503 -0.938504 1.88074
111 1.41402 4.14127 0.718193 -1.76274 -0.165954 -0.34557
443 2.71149 4.00891 1.19152 0.433347 3.44675 2.13632
418 3.54162 4.19695 0.436876 -0.555138 0.894275 -1.28818
184 4.22799 4.93066 0.82009 0.176662 1.21117 2.01805
391 4.32669 3.92944 1.35735 -0.422004 1.06103 -0.631758
575 6.01616 4.29365 0.173579 0.315714 1.28958 1.38376
862 5.37275 5.10772 1.26427 -0.423399 0.892923 -1.99149
112 7.02729 5.1425 0.46839 -1.78737 0.369842 -0.755242
283 8.2416 4.82618 0.118538 0.351868 -0.863405 -0.771894
678 9.07057 5.2723 1.21376 1.5185 0.605926 0.132104
294 0.0881512 3.4569 1.26588 1.45059 -1.8966 0.793006
374 9.17349 3.69002 0.204076 -2.58271 0.198632 0.120782
252 9.77313 4.42963 1.01396 1.14151 -0.686621 -0.639719
780 9.40615 3.58652 1.62209 -0.879785 -2.11764 2.35079
249 10.7115 4.96678 0.445052 0.142277 1.20167 -0.53482
447 1.25723 0.13678 3.04227 1.34532 -2.05532 -0.259114
587 0.345391 1.00414 3.22117 -0.157702 0.408746 0.201479
851 0.447015 1.85668 2.43276 -1.95997 2.05679 -0.129702
78 0.235089 0.416161 2.39377 0.444536 -0.00405089 -1.63122
392 1.66346 1.48415 2.71736 0.693502 1.81316 -0.115511
144 2.35317 0.685873 1.9488 -0.269027 -2.31233 -1.13914
142 2.42365 0.446434 3.0511 -1.32174 2.71946 -0.923672
603 2.8698 1.46617 2.19579 1.96056 -0.58971 -0.25938
414 3.17705 1.38602 3.14986 0.779638 0.137655 1.28467
462 3.83257 0.334526 3.21406 -3.23562 -1.74483 -1.6554
370 4.62475 0.886341 3.32068 2.70742 -0.235124 0.104123
268 4.27923 0.387649 1.93868 -3.62362 0.354569 -0.833136
350 5.4823 0.616948 2.26314 -1.15295 -0.987758 1.90485
676 5.7041 0.406927 3.48134 -1.78709 -1.1017 0.475948
153 5.2717 1.61889 2.3972 -0.730498 0.313108 -0.23718
634 5.58547 1.47511 3.54221 2.5115 -0.758321 -0.27634
225 7.09499 0.285496 2.87973 0.229544 0.951333 -0.588857
137 6.67975 1.53473 1.75915 3.62114 0.790236 0.391056
522 6.58865 1.4272 2.87508 -0.47104 1.49118 1.35082
496 7.67224 1.21254 2.47397 0.857467 0.327661 -0.533869
228 8.61593 0.498913 3.15547 1.58507 1.11593 -0.16413
293 8.67539 1.37162 2.68783 0.314243 0.747243 0.418
685 9.9235 0.930551 2.97437 1.3203 2.84341 0.561478
223 0.537579 2.9096 2.07033 0.963249 -0.653169 -0.526117
265 1.42231 2.20322 1.87052 0.0723601 -0.401799 -0.988257
449 1.44811 2.25028 3.38926 0.482632 -0.118256 0.893386
168 0.630537 3.03092 3.23199 0.358874 0.0893772 1.67841
490 1.76725 3.05239 2.82855 1.11686 1.18001 0.99264
179 4.44089 2.1974 2.17231 -0.187171 0.386421 -0.57896
284 3.58695 3.2399 1.85597 -1.07671 0.980173 -1.12115
204 4.42832 3.02607 3.33093 -1.15937 -0.510987 2.29542
564 3.17626 3.30972 3.11545 0.129164 -1.28325 -0.709927
482 5.5137 2.41827 1.85426 0.201626 -2.44695 -0.0605888
680 5.17008 3.11517 2.64654 0.0891109 0.259035 0.130686
837 6.11514 2.38235 3.096 -1.19408 1.47079 0.459636
826 6.87842 3.49392 2.19574 -0.633773 -0.712588 -0.138045
247 7.01546 2.43645 2.43931 -1.22487 -1.86797 0.443795
527 7.21625 2.09599 3.47628 0.535344 1.8417 -0.815161
669 7.17862 3.17025 3.32927 -0.709948 0.453005 -2.24245
425 8.9033 2.51858 3.24848 -0.276441 -1.39791 -1.1151
624 8.05911 3.13921 2.02251 -0.225922 0.336218 -0.240179
354 8.55004 3.66722 3.16162 0.120294 2.80739 1.51709
209 9.53825 2.00987 2.21937 0.154377 -0.44021 0.109254
843 10.3512 2.91555 2.38716 -1.77003 0.695256 -0.866169
183 10.153 2.13771 3.09519 1.4928 0.712632 0.512043
171 10.0319 3.61253 3.19434 1.17043 0.721447 0.121749
124 0.391788 4.76422 2.84275 -1.54821 -0.0757345 1.08846
512 1.12066 4.04201 2.45202 0.274053 0.205933 1.1908
681 4.06061 1.61231 0.0256573 0.409381 0.43228 0.596681
779 0.19491 3.7364 2.70415 -1.36675 -1.24494 -1.25431
335 1.19911 4.50225 3.51821 -0.881006 1.42465 0.844691
345 1.79985 4.28825 1.72625 -0.608581 0.591503 -3.29117
416 2.77052 5.22927 2.24619 -0.0448209 -1.79843 0.829664
80 2.31905 3.91063 2.57759 1.53819 -1.88065 -0.61756
207 2.46043 4.59456 3.51067 -1.53994 -1.30907 -0.734049
560 3.35298 4.40035 1.90556 0.753224 0.680987 1.30066
538 4.22941 3.72885 2.6169 -1.74894 1.20716 0.00285724
60 3.43494 4.82609 2.97337 0.628507 -0.287648 0.0709347
753 5.03385 4.07534 3.35992 -1.01963 0.144142 1.51201
429 4.38213 4.60469 2.10747 -3.04182 0.7441 0.689685
400 5.60901 4.31215 1.81563 1.05356 -1.86544 0.522989
157 5.90715 4.56825 3.41004 -1.46087 -3.67876 -0.136299
488 6.26981 3.73217 3.10985 -1.13974 -0.010385 -0.774828
614 6.71441 4.85798 2.88522 -0.231212 -1.57088 1.75169
528 7.11898 4.46709 1.94777 -1.43353 -0.260476 -1.30059
582 7.63818 3.93575 2.7687 -0.87739 1.5945 -2.74269
609 8.18685 4.07817 1.76314 0.979251 1.2118 -1.81663
595 7.81012 5.09802 2.50415 -0.763012 1.45766 1.93216
842 9.11689 4.96769 2.3063 1.08992 1.39577 -0.00389484
190 10.1354 4.10251 2.17138 -1.57347 -1.01545 0.374918
470 9.35036 4.45841 3.28739 -0.37068 -0.454159 -2.76428
151 10.056 5.02645 2.85182 -1.11249 -1.39053 -0.876353
461 0.525502 0.986922 4.48273 0.747343 0.7334 0.355348
303 1.46585 1.2119 3.74871 -0.293853 0.581339 -0.54251
315 1.11527 1.24185 5.32141 -1.07021 -0.29283 2.2439
16 1.37029 0.259147 4.72225 1.72508 -0.770986 1.02361
278 3.53289 0.406148 4.13627 0.125229 0.256428 0.516124
297 3.93509 1.2906 5.31777 0.540105 1.66111 1.80798
664 2.91934 1.29117 4.53771 -1.78686 -1.97745 -0.323562
435 4.39984 0.115639 4.95069 -0.324932 -1.1407 0.672994
394 5.31637 1.60922 5.21485 0.454502 -0.52108 0.625905
612 4.94953 1.09601 4.37567 0.350453 2.05988 1.81474
180 7.39247 0.897835 4.91808 0.731418 0.350479 -0.536917
487 6.26488 0.701751 4.47935 0.88191 0.267573 -0.549788
536 7.43942 0.867581 3.63511 -1.2648 -0.597931 -1.15425
188 8.52392 0.233684 4.15527 1.08939 0.253607 1.80961
696 9.07514 1.36311 4.82518 -0.395937 1.8637 0.569479
446 8.29818 0.55729 5.19979 1.31643 -0.476766 0.137464
713 8.28195 1.24627 4.00539 -0.364292 1.25684 -0.897902
797 1.0898 2.50684 5.29897 1.43852 -0.969669 -1.97352
629 9.52019 0.467529 4.05965 -0.845116 -0.867698 0.0076517
858 10.3984 0.237431 3.56699 -0.757934 -0.986045 -0.418187
85 10.1316 1.05533 5.13803 -0.498577 -0.271706 -2.74297
21 10.3958 1.18882 3.9886 1.08125 0.341074 0.942854
834 0.257394 3.06637 5.23821 -1.92155 0.621399 -1.02919
222 0.530859 1.85938 3.80793 -3.19847 -0.286506 2.22563
793 0.90139 2.7558 4.20585 -0.63369 1.0462 -0.894569
380 1.12139 3.68434 4.48401 -0.0295407 1.63251 -0.56278
420 2.8668 2.3125 4.9288 1.47596 -1.12541 0.681679
219 2.62304 2.30561 3.9309 -0.769542 -0.953484 -2.1833
799 1.93294 1.78673 4.84275 1.41216 -0.304198 0.962549
523 1.87692 2.77068 4.42404 -0.487852 -1.22708 2.37342
569 2.39121 3.41127 3.82041 -0.986372 -0.239275 0.590945
845 3.84159 1.80288 4.03556 -1.99466 -1.48229 -0.459662
437 3.42472 3.04102 4.22558 2.09561 1.18531 1.63506
647 5.3684 3.1305 5.13624 0.74163 -2.59241 -1.78464
343 5.05709 2.4053 4.37475 0.214675 0.490849 0.801982
622 5.70579 3.29794 3.91489 2.64667 1.21587 0.413859
383 6.61044 2.89141 4.26379 0.565642 -0.618156 0.850809
492 6.28296 1.77396 4.26451 -0.580988 -1.48634 -1.13543
211 6.86778 2.52891 5.23601 0.0656248 -0.305154 -0.925494
803 8.37989 2.01953 4.82485 -0.132196 0.482491 -1.59541
846 8.62562 3.34408 4.53285 -0.190363 1.13525 0.701038
120 9.51684 3.32707 5.08476 -1.16473 -1.33022 0.821615
650 10.5162 2.77233 4.01643 -0.937306 -0.9232 0.108013
77 10.5797 1.95582 4.91644 0.497074 -1.66826 -0.224539
357 9.73063 1.91035 4.2378 0.50513 -0.480655 -1.52471
160 9.65463 2.09459 5.23533 1.76479 -0.216284 1.05314
371 9.35873 2.76793 4.17749 -0.64019 0.308178 1.11613
286 0.344119 4.35894 4.14064 -0.140489 0.397032 0.57741
571 9.01476 4.343 4.40347 -2.38479 1.18263 1.8367
491 1.06103 4.64686 4.8749 -0.850892 1.2362 0.691167
127 1.84371 5.33897 5.17518 2.42091 -0.261286 -0.0549751
518 1.99262 4.31288 4.31408 1.03218 0.718632 -1.04249
393 2.68964 5.12144 4.43627 2.56351 0.649127 -0.392645
53 2.07884 3.72121 5.16638 -0.14774 0.382166 -0.459496
605 3.86141 3.91702 3.67418 -0.92231 1.46717 0.720913
221 3.11872 4.07605 4.31086 -0.511747 -0.22088 -0.62455
267 4.12271 4.8472 4.13435 -0.560437 0.156625 0.155106
641 4.43464 3.80605 4.58778 -2.05626 -1.80511 -0.250124
711 5.52257 4.25371 4.33494 -2.37314 1.29299 -0.939914
657 0.172572 5.26559 4.75508 -2.04643 -1.15366 -1.20815
712 6.91832 5.3173 4.43865 0.394427 1.78994 -0.113957
419 6.95099 4.4485 5.13847 -0.589573 0.632221 2.30386
242 7.54497 4.12576 3.92545 1.33191 0.610994 -0.0944248
821 8.8644 5.19388 5.24728 -0.0789584 -1.46061 0.794516
530 9.32537 5.35106 3.89461 1.08507 0.754582 -0.416801
170 8.35806 4.1393 5.34562 -0.527547 1.68413 1.26848
73 8.37241 4.70461 3.66975 -0.860183 -0.215109 -0.535709
432 7.84805 4.89065 4.7954 -0.152795 -0.628989 -1.89219
19 10.2229 4.83428 3.88103 1.25831 0.299307 -2.44215
288 9.81695 5.16156 5.17823 -0.0609809 0.767002 -0.185063
576 7.6714 5.25279 1.30079 0.773017 -1.6514 1.47418
66 5.6869 3.08671 0.0304601 -0.4514 0.705105 1.86672
309 0.396388 1.03152 6.80515 2.37155 0.220171 -0.247323
105 0.123979 0.695975 5.62703 -0.796136 0.123608 0.160081
653 1.46436 1.36157 6.2757 -0.70462 2.86701 0.549616
588 10.4178 0.110353 10.0878 1.12428 -0.297392 0.248159
544 1.74156 0.216984 6.35459 -0.199411 -0.603 -0.804226
480 2.75237 0.590125 5.57133 -0.321138 -0.23387 1.33826
250 3.36461 1.27974 6.50604 -0.742335 0.473393 -1.10216
513 3.83031 0.395269 6.01425 -0.463736 0.852122 2.515
71 3.37438 0.0111138 7.01564 -0.48217 0.11421 -0.794518
262 4.7203 1.50389 6.92046 -2.36724 0.450753 0.725936
30 6.28488 1.00746 5.626 1.11126 -1.39132 1.71145
307 7.03592 0.143813 6.04474 -1.30185 0.534141 -0.413731
550 7.17487 1.67986 5.61081 -2.85619 -0.288404 0.461894
376 7.58092 0.579798 6.8817 -1.42076 -1.45724 1.224
196 8.46861 1.18846 6.53548 1.34218 -1.5591 1.0469
453 9.23542 0.690383 5.93005 1.42853 -1.01859 -1.10907
830 9.96515 0.181353 6.40868 -0.68377 -0.847576 1.87034
426 9.34733 1.73272 7.08687 1.71656 -0.0907054 0.708987
79 10.1227 1.28578 6.26296 0.871974 -0.0182675 -1.40762
611 0.828465 2.22931 6.39904 -1.19824 0.832263 1.12176
266 1.21185 3.32418 5.86 2.52296 0.00171785 -0.60996
417 1.36501 3.38934 6.96883 -0.535533 -0.181993 3.00183
662 1.11628 3.01724 10.58 1.40238 -0.948741 -2.89984
789 3.13551 2.34465 5.93441 1.68531 1.29721 -1.81869
17 2.69715 2.94091 6.74676 -0.879996 -2.28215 0.709957
258 1.82206 2.56372 6.13956 0.127135 0.173903 0.766859
347 4.32249 2.42922 5.4041 -1.07149 0.882324 0.158222
439 4.20933 2.54855 6.71803 -2.05517 -0.651877 0.931064
18 5.29529 2.10029 6.27237 0.460703 -0.102425 -0.822116
706 5.93262 2.85959 6.61056 -1.49309 -0.257836 1.59255
744 4.90128 3.26889 5.98146 -0.591102 -2.47988 -1.33894
504 5.94395 2.46221 5.61658 -1.13143 0.213712 -2.31404
191 6.30577 1.64243 6.35348 2.58312 -2.70653 -0.526219
34 6.48376 3.48905 5.7708 -0.248331 -1.3854 -3.33246
404 7.05993 2.93825 6.39484 -1.7573 -0.467976 0.313662
543 7.85937 2.08934 6.63983 -0.277671 0.077436 0.539532
244 7.86711 2.58547 5.6722 0.873456 1.066 -0.367934
261 8.98185 1.85171 5.8788 -0.684812 0.220995 0.827283
667 8.66855 3.57807 6.13702 -0.412522 0.684601 -1.26289
651 8.64499 2.6279 7.00288 -0.745729 1.28843 -0.987435
301 10.4634 1.98432 6.94179 0.606052 -1.01509 0.643285
718 9.62352 2.59246 6.38456 -0.661515 -1.90084 0.920491
697 0.362692 3.86798 6.07101 -0.406283 -0.790294 1.29119
448 1.51696 4.3738 5.75643 0.25179 -0.367514 0.483538
748 0.512255 4.90554 6.46355 0.401652 -1.35391 1.54935
306 2.47456 4.56482 5.64527 -1.92502 -0.395146 0.340314
597 2.23859 3.92588 6.63448 1.09735 -0.669667 0.0677765
364 2.87078 4.87422 6.92242 0.655198 -0.444165 -0.275991
159 1.63426 4.72517 7.30072 0.190735 -1.36301 0.965842
733 3.63623 4.33653 5.63262 1.1304 -1.47925 -2.90291
203 3.15432 3.83031 6.99147 -1.83172 0.89437 1.26189
516 4.03768 3.8452 6.6586 -1.38616 -1.53783 1.45712
691 4.63491 4.80638 5.50704 -0.722168 0.875487 -0.677681
750 3.80724 4.82229 6.47432 0.414074 1.79574 1.17749
216 5.04616 4.03676 6.8486 0.416584 -2.5114 -0.408347
92 6.07332 3.94486 6.62186 -1.93835 1.01223 0.23434
44 5.4419 4.04091 5.7979 3.32116 -1.17427 0.711873
579 5.39805 5.1856 6.39092 -0.783246 -0.860318 -0.909237
757 6.15079 4.95741 6.91221 0.0177254 -0.587374 -1.0125
441 7.1688 4.73294 6.27094 -0.119752 1.74726 -1.05138
699 7.60398 3.7549 5.93104 1.13447 -0.636338 0.838956
665 9.02883 4.92034 6.21187 1.91471 1.32879 -0.0162593
442 7.93999 3.91719 7.01288 2.74155 -0.446524 -0.146155
336 8.16788 5.05498 6.76088 -0.494387 -1.80438 -0.0331952
253 10.308 4.15875 6.84847 -0.822634 2.21622 -0.881093
849 0.0182459 4.66392 5.58022 -0.5016 -0.422383 -1.10733
317 10.1091 5.09736 6.42504 0.513042 -1.00395 0.631765
427 9.59333 4.06675 5.89571 3.81781 -0.700567 1.28137
567 0.933409 1.86234 7.39119 1.21814 0.21128 -0.820593
110 0.448778 0.820279 7.89001 0.10038 -0.367746 -2.28511
517 1.53062 0.588658 7.6818 0.269624 0.0398603 -1.33437
197 0.405138 1.63983 8.75712 0.792409 -0.981832 -1.38985
243 0.69873 0.0441006 7.18454 -0.6674 0.714299 -0.659908
692 2.15957 1.5299 7.18056 0.220038 -0.298077 -0.74638
384 1.71721 1.01346 8.5893 -1.37372 -0.603093 -1.64331
327 2.699 0.727619 7.66411 -0.592129 1.30017 -0.992255
269 3.33321 1.5718 7.44544 -0.467641 -0.226931 -0.342538
661 4.07529 0.752172 7.63805 -2.64612 1.07654 1.57743
126 3.36493 1.36642 8.53189 -0.760013 -0.37917 1.73965
390 5.49962 0.96674 7.08095 1.5902 2.19918 -1.67173
87 4.85612 1.05886 8.33108 -1.07401 0.681694 0.75578
339 4.4973 0.0698056 8.86999 0.365569 -0.451134 -0.217673
254 5.26878 0.014661 8.04987 0.0247352 -2.16391 0.717146
389 6.21982 1.39419 8.38052 -0.656933 2.15925 -0.25362
785 6.65252 1.00129 7.11777 1.16366 0.282478 -2.63824
325 7.59644 1.48425 8.20643 0.546423 -0.411815 0.220613
210 7.45631 0.559206 8.62053 3.63764 -0.260087 0.448925
39 8.50299 1.15523 7.67927 -2.6411 -1.6474 -0.714013
351 8.59833 1.83279 8.59834 0.662231 0.641156 1.98655
773 9.39303 0.629525 7.86097 0.0527936 -2.46402 0.777235
72 10.6792 0.174205 8.50009 1.86481 0.0748402 -0.145848
149 9.75616 1.79723 8.74473 -0.659445 0.381745 -1.10974
555 0.566252 2.77622 7.27614 2.81419 -0.0538233 -0.267401
32 1.0391 2.8342 8.64294 0.654777 -0.666453 -1.54867
596 2.40018 1.80322 8.45784 1.50414 -1.42886 0.212717
232 1.7887 2.59131 7.3131 -0.545891 -0.0589829 0.869556
864 2.61741 3.26214 8.30354 0.865665 1.44165 1.10162
505 3.21644 2.64602 7.63813 0.0132757 -0.332311 -0.746246
520 3.90519 2.42463 8.7975 -0.680895 1.65524 0.847407
759 4.2966 1.89064 8.03219 0.17241 0.125776 -0.597587
478 4.19178 2.95769 8.07135 0.113568 1.57248 -0.976227
360 5.17015 3.12534 7.45191 -1.70508 0.557433 -0.23333
810 4.91732 2.40035 8.94286 0.318692 0.598937 1.10604
524 5.45971 1.96435 7.71938 -0.434113 -0.0224394 -0.313725
146 4.78761 3.4244 8.85647 0.268092 1.26913 -0.639244
97 5.75069 3.0153 8.4241 2.77016 -0.260581 0.347928
709 6.44961 2.30436 7.56862 -0.155221 -1.40216 1.17438
409 6.5874 3.00472 8.89549 1.15933 0.637578 1.83411
40 7.5988 2.84949 7.43954 -0.533627 0.59253 1.78114
274 7.28298 3.61092 8.25104 0.791262 1.1433 -1.23354
260 8.78607 3.61626 7.89425 -0.121941 1.46709 0.323978
45 7.99671 2.78592 8.47595 -0.075615 0.777373 -0.52863
346 10.6236 1.90292 7.94814 1.44424 1.02189 -0.46954
701 10.067 2.99852 7.24438 -0.0969051 1.85364 -1.39666
600 9.28161 2.42559 7.99021 1.07077 1.42073 0.291859
161 10.6234 2.89551 8.46407 0.297937 -0.917377 -0.92138
458 9.26173 3.3192 8.83751 -1.73235 -1.04313 -1.10192
839 0.469164 4.89577 7.44272 -0.385644 -0.580345 0.27506
401 1.13657 4.84777 8.14963 -2.01089 0.325663 0.165218
509 0.071087 3.80718 7.73906 1.2069 0.857506 -0.0157209
104 2.90287 4.40022 8.00047 -0.85636 -0.343411 0.254875
632 2.5009 4.23007 8.86555 -1.48901 0.0506936 0.405144
11 1.82147 3.6804 7.74133 1.39157 -0.708542 0.589184
57 2.05541 5.11898 8.59765 1.15119 0.655439 0.981771
741 4.67393 5.14553 7.25077 1.85769 2.12255 1.69444
545 3.58205 3.75927 8.66142 0.578704 0.876487 3.07475
673 3.94001 4.14567 7.61955 1.042 0.889506 -1.30363
541 7.09826 5.33909 9.48136 -0.781482 0.0471118 -0.906854
511 4.3325 4.87448 8.50213 0.616598 -2.10898 -1.13204
850 5.40058 5.29223 8.11552 0.318946 -0.311317 0.109963
515 4.99797 3.95452 7.991 0.519903 -1.68591 -3.18686
56 6.80433 4.30291 7.32864 0.0878283 2.78634 1.19017
375 6.66613 4.56223 8.32396 -0.611217 0.0900041 0.622048
832 7.58728 5.1831 7.70947 0.221434 0.0734183 1.31696
229 9.02214 4.23755 8.65553 0.693378 -0.717258 0.162976
844 7.91243 4.42277 8.40755 -1.23916 -0.808444 -0.600405
790 8.96734 5.15389 8.05355 0.0334932 2.05508 0.747522
54 9.62097 4.75369 7.21641 0.126009 1.12024 -0.125748
719 9.82603 3.72086 8.03169 0.355876 -0.151946 -0.219452
76 10.6945 4.00348 8.73959 0.420588 1.06823 0.142667
280 10.3173 5.02516 8.5399 -1.67651 0.473664 -0.773938
660 0.764441 0.306384 10.0861 -0.490279 0.0187818 -0.569968
141 0.963717 0.909142 9.1631 -0.121191 1.3291 -0.640856
162 0.950315 1.39878 10.1349 -1.24891 -2.61299 0.883825
102 1.82857 0.994732 10.4095 1.34909 -1.84592 2.11675
133 2.70897 0.635334 9.08529 0.139515 -1.6739 -1.61243
410 1.73579 1.59016 9.49796 -3.22123 1.75598 -2.58106
218 3.0669 1.19078 9.93916 -2.68043 -2.89143 -0.289394
758 1.70931 0.263612 9.70619 1.42058 0.407825 0.206677
812 3.96224 0.417075 9.65458 0.318823 -0.0993253 1.53362
270 6.36317 0.189344 7.99649 0.313216 2.87714 -0.176241
198 3.81462 1.57133 9.46165 0.14151 0.743556 0.0623781
7 6.03214 1.09799 10.5475 0.701003 0.659754 -1.02712
717 5.66035 0.174857 9.49639 -0.898947 1.64724 1.94698
825 4.85724 0.875763 10.2854 -1.68175 -1.16887 -0.426701
29 4.76106 1.36323 9.39312 2.07521 -3.69283 -0.183821
26 5.78723 1.30078 9.55774 2.28263 -1.89561 -0.904922
169 7.16021 0.978267 9.93177 0.235722 0.0138255 0.206592
4 8.79179 0.0921417 10.5845 -1.37355 -0.14995 0.657462
291 8.75613 1.06676 9.48162 -0.404585 0.218484 -1.00202
182 8.10096 1.01412 10.1288 -2.39598 -0.757266 2.83868
352 9.24331 0.253999 9.18864 0.268502 -0.95614 -1.02005
130 10.6772 0.729195 9.3183 -0.263707 2.21974 -0.507124
762 9.5027 0.801687 10.1542 -0.442165 -0.232276 1.1503
500 10.1761 1.56221 10.0935 0.0762694 -0.875538 -0.466232
428 0.916637 2.22583 9.5369 -0.21127 -2.49004 -1.07883
686 0.0543253 2.18108 10.6104 -0.461928 -0.255444 4.89832
123 1.86817 2.60601 9.35079 1.96277 -0.729491 0.365441
743 2.64494 3.03566 9.8855 -0.731615 3.02914 0.734857
415 2.95041 2.11755 9.30887 0.152705 -2.04206 -1.68912
271 2.40762 2.03723 10.5812 -1.50064 2.24876 -1.51443
698 3.86693 3.57541 10.4787 0.489708 -0.0562656 0.137005
282 3.60942 2.74051 9.73666 -0.977185 1.94757 -0.907686
637 5.57315 3.18688 9.49462 -1.50629 1.57613 -0.197095
231 5.22933 2.12785 9.95345 -1.61877 1.04281 0.901783
833 3.63136 5.34845 7.82925 -0.15546 -1.21949 -0.591273
205 4.66327 3.2001 10.0077 -0.480558 0.316066 1.93
663 6.98318 1.91754 8.89609 0.20871 0.731101 -1.99913
783 6.13749 2.28711 9.47299 -0.171703 -2.08201 -3.69425
215 6.2103 2.17307 10.5016 0.55691 -2.0874 0.346183
64 7.09088 2.58382 9.98564 -0.722139 -0.817559 -0.567837
585 8.1747 2.46256 10.3937 1.18367 -0.786525 -1.0976
189 8.06045 2.08755 9.41268 -1.03053 -0.852109 1.49606
445 9.36155 2.45788 9.50233 0.447845 2.6642 -1.19442
353 9.27706 3.38158 9.93039 -0.751388 0.837515 -0.223515
728 10.4321 2.35169 9.30025 -0.910848 -0.703992 -0.667479
639 9.28768 2.29847 10.5318 -0.99304 -0.813429 -1.09742
460 10.3611 3.19133 9.75407 -0.342778 -1.94522 -0.0874344
311 0.0911562 4.61744 9.45508 -1.39664 -1.05523 -0.303231
125 0.969199 4.77837 10.3024 0.244124 -0.764404 -1.67424
154 0.509445 3.69588 9.98982 0.939774 1.06039 -0.858112
275 1.00176 3.85442 9.04526 -0.850408 -0.858848 -2.18619
344 1.24561 4.90243 9.16692 1.443 -0.678323 1.77104
88 1.77812 3.59453 9.83669 0.752892 -0.537863 -2.34126
406 2.14148 5.07151 10.6089 -0.523848 -3.63379 -0.760415
230 2.76731 4.11668 10.6526 -0.892213 0.636446 0.876429
122 4.43864 5.16961 10.0765 -1.58651 -0.00925743 -0.193186
847 3.21628 4.09705 9.77934 -0.352685 0.264708 1.67188
619 4.31396 4.21271 9.48954 1.23888 0.108153 -0.49034
766 3.35576 5.07891 10.2749 2.38384 -1.27628 -0.176693
62 4.78398 4.31611 10.546 -0.20912 -1.63065 0.318865
531 6.19119 4.12346 9.73584 2.26654 1.36498 -0.661474
27 5.15977 5.24509 9.30695 1.19695 0.600849 -0.986271
10 5.50761 4.23756 8.81674 2.42879 -0.336458 -1.06235
412 7.15761 4.19274 9.21586 2.73849 0.53037 -0.420209
91 6.13907 4.9872 9.14088 -0.125235 1.83882 0.209793
593 7.16429 4.52638 10.1745 -0.484671 -0.265354 0.00940563
592 8.09434 3.61658 10.5977 0.384026 -0.92011 0.488499
251 8.86411 4.51252 10.0664 -1.01979 2.69772 -0.647816
96 9.02154 5.2886 9.41551 0.0940138 1.85663 -0.658385
778 8.06413 4.67923 9.6003 1.52967 -0.207849 0.539446
139 8.26741 3.64849 9.27511 -0.755881 -1.63984 -2.63292
292 9.69698 4.19056 9.31311 -0.109376 1.10988 1.08348
257 6.03632 5.00992 5.48952 -1.42009 -0.38106 1.70458
195 10.1452 4.28048 10.4254 -0.603667 -0.941284 0.300415
395 1.68255 5.31052 6.25103 -0.94092 -0.791192 1.7692
703 5.36689 0.220417 5.48487 0.937384 2.46187 -0.449937
422 8.29567 0.00508848 8.1368 0.489379 1.42134 0.108377
328 3.32571 2.53187 10.7105 -1.96895 -1.51042 -1.07485
828 0.356832 6.01616 1.13546 -1.17802 1.20655 1.87026
721 1.4218 5.37426 1.72941 -1.25156 -0.555494 0.104012
84 2.27319 5.48486 0.93797 0.131767 0.424313 0.229687
463 1.8064 6.5201 1.28556 0.411923 0.426138 -0.0569088
594 9.73849 10.6677 5.3579 0.234324 -2.08148 1.23376
165 2.83519 6.53246 0.882801 -3.01803 0.498166 0.709643
398 4.02837 6.04175 0.48129 3.50961 -0.158674 0.879623
201 3.2102 5.55523 1.33612 -1.66332 -0.51851 0.548418
167 5.05047 6.52127 0.987598 -0.200223 -1.32208 0.0525312
820 6.05729 6.35376 1.86408 0.824933 1.15172 1.22326
688 4.813 5.94084 1.73058 -1.45621 0.332123 -0.631436
574 6.48952 7.08329 0.869016 0.870886 -0.603577 1.02067
621 6.2934 5.95585 0.860763 1.60846 1.33094 1.159
635 7.2538 6.25617 0.970885 -0.181593 0.82742 1.80705
186 7.71112 7.11476 0.650397 0.537438 0.387234 -1.42486
502 8.41993 6.60464 1.20247 -0.209143 -0.193924 -0.706331
644 10.2797 9.23717 3.94748 -0.341823 -2.42521 -0.193573
630 10.6739 6.31659 0.287206 0.966194 1.43819 -1.33864
81 10.6748 6.87663 1.39284 0.0693979 -2.20151 -0.166198
119 10.2006 5.46694 1.2574 1.42509 0.0365066 0.734158
193 9.63009 6.12766 0.766496 -1.28408 1.82331 2.14934
695 1.04605 7.19001 0.316572 0.0351631 0.377902 0.431326
15 0.449551 7.7121 1.56195 0.298438 -2.1457 -1.00848
1 0.400773 8.66822 1.48153 -1.98981 -2.07173 1.05718
822 1.37695 8.4943 1.5004 -1.351 -1.24618 -1.18255
791 0.183951 8.71749 0.467838 0.28604 -1.29732 -0.232263
150 1.21956 5.39297 2.69083 -0.944215 1.31246 -0.0840316
289 2.26236 8.61178 0.744719 1.39176 -0.591312 1.22671
200 2.27532 7.36914 0.87467 -1.98669 -0.782873 0.860062
794 3.77608 8.21769 0.217916 -0.217683 -1.28167 2.09693
823 3.87849 7.51715 1.12532 0.691838 -0.95336 -0.0849537
800 3.15642 8.33328 1.46436 3.36434 -0.120178 -1.87625
469 4.83535 7.44688 0.510353 0.044913 -0.219535 2.14188
486 4.84478 8.53393 0.842125 -1.54863 -0.62232 0.117878
333 6.11194 8.10392 0.566656 3.21044 -0.621236 -0.561191
423 5.70661 7.29858 1.44136 0.704111 -0.176578 -0.137325
831 7.38435 8.64745 1.23304 2.10446 -1.04946 -0.986746
814 8.38851 8.50993 1.09301 -1.07431 0.267855 2.6109
746 8.80651 7.6148 0.452205 -0.895534 -1.23719 2.28325
94 9.72625 7.98204 0.413852 0.131624 -0.325791 -0.585917
158 9.52429 7.71187 1.34687 -1.74473 -0.740002 -0.716845
521 9.93976 8.77396 1.2284 0.127275 -0.244521 1.78952
771 0.133334 9.69302 1.02025 -2.22161 -1.04259 -1.72162
860 0.745942 10.3808 0.209914 0.994703 1.21078 0.439034
369 2.21344 9.49071 1.35397 -2.12866 0.421424 0.380387
788 2.3398 10.5225 1.37894 -0.226725 -0.0288343 0.385649
340 1.84774 9.46315 0.353659 -1.90006 -0.40293 -2.3995
362 4.18634 9.36086 0.364367 1.22383 1.12187 -1.83865
48 3.22404 8.96308 0.736279 0.24928 0.0510951 0.875754
28 3.53397 9.9881 0.946698 -0.216629 -0.247314 -1.49292
615 4.67256 9.80785 1.19433 0.146963 -0.0259657 0.0656947
838 5.00211 10.0618 0.252258 -0.779027 0.387918 1.26045
366 5.74564 9.05453 0.637437 0.116274 2.73 -0.134234
334 5.90444 10.0667 0.808823 0.164558 0.128927 -1.08008
534 5.2688 9.0998 1.60823 -1.31436 -1.31751 0.831717
321 5.40271 10.2395 1.71867 0.495753 0.62069 1.72872
654 6.44338 9.1407 1.3787 -2.3954 -1.23259 0.557525
829 7.0841 10.3625 1.7716 -2.4574 3.04171 1.17813
859 6.90553 9.80124 0.348039 0.451261 0.590581 0.00649001
382 7.63747 9.58305 1.36657 -2.22545 0.994897 1.03883
358 8.68599 10.325 0.949811 1.08533 -0.161415 0.0600826
233 9.09638 9.31463 0.727199 0.602348 0.557154 -0.819106
86 8.23156 9.58749 0.0667622 1.70771 -0.249581 0.246103
373 9.34205 9.72928 1.66876 -0.126642 0.483093 0.76115
554 10.0519 10.1574 0.73808 1.24839 2.31511 1.23594
551 9.54895 10.6904 1.50495 -0.904701 0.611583 0.35603
483 1.00761 6.36415 1.96194 -0.500811 -0.884448 2.09464
156 0.493406 5.44475 1.96228 -0.464686 -1.46479 -2.11165
745 1.57671 7.4622 3.01409 2.31136 2.72584 0.752914
99 1.07959 6.50476 3.33477 1.64981 1.73736 0.362263
658 0.388912 5.95282 2.92213 1.20843 -0.563963 0.418158
135 2.286 6.04086 2.73418 -0.633833 2.50586 0.71857
436 2.70033 5.70751 3.57914 0.501129 0.922642 0.894213
568 3.46772 7.06662 2.9168 -0.805472 0.689723 -0.182065
50 3.70352 5.8224 2.9432 0.00807826 1.17178 -0.292977
402 5.50723 5.43345 2.32421 0.297512 -1.09719 3.33907
476 4.66199 6.44696 2.88878 -1.35449 -1.17953 -2.04519
452 4.85271 7.16127 2.13114 -1.50645 0.577007 0.652092
176 4.86186 5.44814 3.40573 2.4244 0.331814 -1.3453
255 6.30979 7.19918 2.69024 -0.435337 0.716327 1.04619
132 6.20824 6.25632 3.17477 -0.0961914 -0.998999 -0.977375
501 7.15001 6.74768 3.34867 -0.844901 -1.25419 -0.977014
863 7.51855 5.52174 3.4785 0.96401 0.618297 3.13878
296 6.93818 5.62724 2.13757 -2.00565 0.0214266 -0.476636
752 7.10907 6.77422 2.00449 -1.74582 -1.34249 0.991682
732 8.1623 6.01028 1.92033 -2.07458 0.387888 -0.419214
440 8.68207 6.67734 2.61393 1.6247 1.468 1.61381
755 8.2229 6.26869 3.50264 1.82144 -0.283496 0.681427
450 10.4598 6.17382 2.0065 -1.76838 -0.160773 0.437088
471 9.39545 6.19638 1.8701 -0.201625 -0.265931 -1.4829
479 9.56825 6.02305 2.88756 -1.71562 0.469483 -0.835166
546 10.4141 6.88122 2.84172 0.035441 0.446959 -0.0897269
623 9.98205 7.153 2.02874 0.816394 1.12203 0.497082
824 10.5815 7.99329 2.42409 -3.21202 -1.02 0.108266
781 0.486216 7.45904 3.08249 0.813556 -0.865459 0.63231
129 1.19091 8.20972 2.50144 -1.32468 -0.757131 -2.14522
192 0.739155 8.81071 3.24067 -0.611572 -1.76415 -2.427
751 2.30797 8.54328 1.90558 -1.32887 -0.71018 2.43989
484 2.48895 7.67558 2.53528 -0.0142218 -0.227211 0.315919
581 1.93556 8.55314 3.10267 -0.955594 -2.193 1.53132
65 3.45638 7.2662 1.96914 0.273895 -1.1534 2.0911
378 4.15961 7.86751 3.76726 0.482057 0.620881 1.74866
645 4.07723 8.44559 1.7854 -0.800925 -0.436816 -0.811661
304 3.39374 8.36449 2.69468 0.566918 -2.4724 0.128276
714 5.25507 8.14344 1.9249 -1.5001 -1.28109 0.979215
433 5.22738 7.37213 3.24498 0.456358 1.07267 0.561133
341 6.31024 8.5821 3.45795 0.223556 -1.58217 0.618028
736 6.31251 8.4523 2.14394 -0.773332 2.52909 -1.35925
672 8.74983 7.51743 1.97734 0.734202 2.64061 0.895109