ITEM: TIMESTEP
42800
ITEM: NUMBER OF ATOMS
864
ITEM: BOX BOUNDS pp pp pp
0.0000000000000000e+00 1.0726842421158810e+01
0.0000000000000000e+00 1.0726842421158810e+01
0.0000000000000000e+00 1.0726842421158810e+01
ITEM: ATOMS id x y z vx vy vz
775 3.72739 5.18681 4.88961 0.796795 0.039259 1.07051
689 10.1771 0.236918 0.873135 -1.62476 0.186347 -1.66393
683 1.54245 1.32239 2.31979 0.978825 -0.600876 0.354913
175 0.383633 1.36604 1.14775 -1.31982 -0.437203 0.49485
156 0.650026 4.46605 2.04011 -0.21003 -1.06058 -3.30769
591 1.5338 0.926253 1.27693 -1.5075 -0.290515 1.24593
131 3.5385 0.311577 0.225565 1.87089 -1.69798 0.0368302
731 3.15084 0.960833 1.13056 1.54582 -0.982201 0.142541
140 4.15978 1.25154 1.29327 -0.118767 2.51858 1.12784
295 3.34872 1.82936 1.68756 0.0316176 0.45195 1.79777
119 10.4391 5.08858 1.50897 -0.0436994 -1.48397 -0.0248554
642 5.69869 1.7855 1.96242 -0.870372 -0.205718 -1.2828
403 5.62044 1.31606 0.695163 0.697523 1.79572 0.708891
402 5.93982 4.95773 2.80696 -2.41336 -0.49867 1.19066
240 4.68655 2.17937 1.50842 1.52796 0.394863 0.505253
770 4.97184 0.472967 1.346 -0.870086 -0.101358 1.80769
694 6.36179 0.656684 1.88752 1.52361 1.91005 -0.92263
31 6.83961 1.28494 0.656322 1.49793 0.15002 -1.12971
134 8.12358 1.23482 0.870283 1.45927 0.39055 1.33474
394 5.96989 1.26877 5.01804 1.14513 -0.517471 -1.52551
578 9.91212 4.39606 4.5308 0.259695 -0.313305 0.0290361
809 7.91444 1.74391 1.72644 1.20167 -0.533778 0.199066
177 7.91796 0.209167 0.988766 -0.886885 0.16152 -0.0239528
14 8.9126 0.488794 1.34264 -0.64615 -0.83312 1.14124
599 10.4878 2.10675 1.13022 0.680931 -0.908067 -0.686932
453 9.78742 1.18932 5.14719 1.21943 1.5371 -1.18654
493 9.35226 1.56213 1.43742 -0.841495 0.0199615 2.21301
310 0.615144 2.52474 0.944324 -1.26153 -1.01537 -0.0437187
858 10.073 0.292475 3.38423 -3.24878 1.75841 -0.497257
730 1.76521 3.04947 0.936882 0.105755 -0.0190458 -2.72897
438 1.23679 3.27872 0.212521 1.6772 1.33343 0.859496
4 8.41748 0.0774767 0.178945 -0.676243 1.16316 -1.33193
138 2.46656 2.09693 1.15144 1.31394 1.51371 1.14257
33 3.05402 2.87024 1.4675 1.57742 0.952394 -1.49661
152 2.30177 1.52941 0.103568 0.924716 0.639552 -0.60083
507 3.48345 2.07991 0.616173 -0.397688 -2.23426 1.10471
89 8.04134 0.229284 2.40867 -2.63354 -1.7531 -0.0585784
93 6.34783 2.90902 1.40008 -0.0673471 0.850111 1.2547
58 4.48442 3.33383 0.535099 0.20846 1.75547 -1.61721
68 5.54713 3.73811 1.23697 -0.0589513 -1.27194 -0.0270154
13 4.67465 3.21161 1.50138 1.84043 1.16385 0.467062
230 2.74687 3.88355 0.912554 -0.166873 -0.384303 0.900467
525 7.44084 2.7125 1.05613 -0.373305 1.30025 -0.0618655
98 2.67803 5.27812 3.37044 1.39956 0.758811 -0.0972204
42 7.3986 2.71815 2.12221 -3.16633 0.955729 -0.0306235
508 8.65247 2.96381 0.304138 -1.39486 0.114416 0.140756
760 8.90423 2.47077 2.00444 -0.856758 -1.01412 -1.51606
28 4.02949 0.200501 1.12246 2.92212 -0.0529831 -1.86301
464 9.45491 2.64558 1.18916 -1.68734 1.62829 1.41408
553 0.41938 2.00943 1.90895 0.727919 -0.178173 -0.761643
106 10.5243 2.84397 0.181637 1.75369 2.80174 0.0135015
627 0.820561 4.75994 0.920752 1.36469 -0.393798 -2.05984
66 5.91744 3.64356 0.0588069 0.375591 -0.221587 0.118862
589 0.354388 3.72203 0.525409 -0.693936 -1.23298 0.735266
658 0.315811 5.26255 2.70374 0.240189 -0.634777 -2.49865
443 2.60367 4.62139 2.04018 1.34971 1.11354 -0.389198
418 2.83798 4.82544 0.396657 -1.74878 0.554535 -0.0505039
184 4.36173 5.00774 1.56168 0.501873 -1.55871 0.574009
391 3.61652 4.37902 0.96635 0.225934 2.07958 -2.15548
575 5.80177 4.61106 0.293651 1.68041 -0.0898709 -0.559156
62 4.83283 4.29049 0.792295 -2.27649 0.646261 1.35666
105 0.248458 0.242067 5.09957 0.11298 -0.936025 0.0141918
283 8.48325 4.3607 0.232272 0.136527 -0.984289 0.546485
288 9.27934 5.09377 5.1985 -1.41371 -2.68215 0.181021
294 10.4121 3.36116 1.29777 -0.86808 3.03619 0.195486
374 9.72753 3.53828 0.0565241 2.875 -0.675618 -0.127166
252 10.2678 4.19082 0.677411 -0.199317 -0.038644 -1.50978
780 9.20431 3.7501 1.43781 1.2428 1.35395 -1.80832
120 9.23724 3.38306 5.29063 -1.20533 0.390034 -1.16572
733 3.10528 3.5188 4.98613 -0.325732 -2.9111 0.561429
587 0.209323 1.11132 2.94908 -1.4872 -1.8288 -4.41319
851 0.907153 2.41777 2.77353 0.615401 -0.813625 -2.1143
78 0.956436 0.0347073 2.10759 0.776022 0.149731 1.36619
392 2.16132 2.61159 2.20153 1.90964 -0.289498 -1.55186
144 2.42304 0.381386 1.94831 1.77894 -1.53678 1.36612
142 2.78489 1.08912 3.14661 0.531695 -0.0550461 -0.793533
603 2.57409 1.77831 2.47371 -0.524134 0.705118 0.325744
414 3.35159 1.63481 4.23397 1.73247 -1.60047 1.55982
462 3.11591 0.154456 2.93989 -2.73822 -0.514497 0.235488
370 3.74536 1.13006 3.31398 0.968905 2.1926 -2.86729
268 3.69781 0.926402 2.18778 0.376514 2.27991 1.32227
350 5.44328 0.900767 2.83833 0.222807 0.023676 0.37732
676 5.51127 0.274518 3.63421 1.13982 -0.982754 1.55649
153 4.672 1.3783 2.41028 -1.68205 -2.37182 -0.5733
634 5.9321 1.63505 3.62221 -1.0686 0.827942 1.29255
225 7.09072 0.637001 2.73832 1.15884 1.19992 0.572495
137 6.76701 1.773 1.70511 -2.21046 0.833373 0.209005
522 6.76902 1.50719 2.7576 0.568668 -1.19083 -3.37465
496 8.21252 1.40808 2.64609 0.975174 0.770177 1.25349
228 9.10944 0.770051 2.78024 -0.703562 1.44404 0.294782
293 8.89859 1.98587 3.00066 -1.54297 -2.61718 0.215371
685 9.76872 1.2969 3.32093 -1.15607 1.66532 0.405749
223 1.16784 2.98543 1.88843 -0.759856 0.229085 -0.223631
265 1.52005 1.95299 1.0682 -1.04743 0.411785 1.76961
449 1.32498 2.22979 3.97028 -1.78771 -1.03682 0.697598
168 0.652678 3.21574 3.74641 0.558195 -0.458096 2.65099
490 1.54133 3.1226 3.18495 -0.714971 1.51987 -2.73428
179 4.33042 2.65181 2.5544 2.7903 1.54176 -0.527453
284 3.08792 3.78626 1.82055 -2.02439 0.0551734 1.52597
204 3.79212 2.45148 3.57539 0.497738 -0.589871 1.46715
564 2.86378 2.63324 3.22369 -0.672334 -1.27329 -1.07408
482 5.55438 3.21203 2.1369 -0.0717369 -0.142484 0.328416
680 5.18187 3.01798 3.29254 1.22364 -0.802623 0.174344
837 5.79431 2.4865 4.68164 -2.41357 0.0925223 4.02877
826 7.23991 3.70005 0.684401 1.28069 0.322394 1.10675
247 6.44064 2.43224 2.40437 1.61689 2.37905 0.337773
527 7.93615 2.36677 3.17246 1.18159 2.23133 -0.291215
669 7.00172 3.34608 2.85396 -0.45201 -3.39595 -0.887576
425 9.12245 3.05637 2.85166 -0.808065 2.32442 -0.561811
624 8.10949 3.39114 2.43206 -0.597068 1.83837 -1.54159
354 8.25717 3.61318 3.48482 0.0795556 0.77216 -0.46836
209 10.1955 1.78391 2.25492 -1.23175 -1.30779 0.334874
843 9.82642 3.17847 2.14483 0.803774 -1.21659 -1.21125
183 10.6553 2.65181 3.48885 1.20134 0.715993 0.907766
171 9.57972 3.80315 3.64754 -0.882362 3.80759 -0.645172
124 0.299371 4.0259 3.22537 0.0418019 -0.19324 2.64812
512 1.24629 3.92684 2.62509 -0.216439 -0.262402 0.416589
681 4.32912 1.41552 0.235676 0.635489 0.890578 2.35954
779 0.239923 3.50884 2.29142 -0.154762 -1.14015 -1.14475
335 1.24619 4.12649 3.57179 -1.04981 0.763466 0.681394
345 1.68479 4.12715 1.123 0.0791578 -0.727678 0.101716
863 6.61601 5.32305 3.89816 -1.59707 -0.992759 -1.68134
80 2.18934 3.64598 2.59725 -0.970334 2.45212 -0.425811
207 2.37845 4.22616 3.41943 -0.601608 -1.39385 1.59716
560 3.80112 4.50268 2.20705 0.984119 -0.606553 2.2217
538 3.58929 3.51126 2.72474 -1.52043 -2.65243 -0.887838
60 3.72029 4.68192 3.31996 -0.904574 1.78024 -0.35226
753 4.48303 3.69621 3.66381 0.0326026 -2.4871 0.360463
429 4.60859 5.22278 2.79001 0.691957 0.19309 0.502414
400 5.17653 4.08402 2.25999 -1.30495 -0.100747 0.100062
157 5.47275 4.15159 3.24594 -2.04396 -0.570759 -1.56713
488 6.26999 4.08376 2.49352 -1.14153 -0.286738 0.395314
614 6.56125 4.28159 3.64712 -0.322315 -0.616057 1.87874
528 5.88847 4.69899 1.71803 -0.0199486 1.3384 -0.135193
582 6.91489 4.35835 1.33628 -0.878223 -0.578687 -3.40082
609 9.11288 4.88958 2.02514 2.96342 1.90797 2.63599
595 7.00976 5.11316 2.96861 -1.47989 -0.330037 -0.459647
842 7.46874 4.23877 2.50228 -1.91233 -0.321113 -0.825195
190 10.0162 4.19451 2.04073 -0.300658 -0.782934 1.58711
470 9.17816 4.48904 2.9952 3.12044 0.0236046 -0.831603
151 10.0519 5.10394 2.5589 -2.86781 -0.520778 -0.0542598
461 1.15937 1.07831 4.44544 -0.771468 1.86489 0.555278
303 1.21733 1.24691 3.29804 -0.146122 -0.893152 -1.01754
34 6.56185 3.0542 4.7102 -0.525754 -0.466865 -1.05557
16 1.92869 0.575675 5.09945 0.964666 0.293486 -0.587468
278 3.02644 0.563775 4.09712 -0.774511 0.457561 2.46655
551 9.76185 0.831242 2.04495 1.19353 1.0693 0.289006
664 2.44524 1.21817 4.58337 1.12493 -1.89776 -0.0871489
435 4.51424 0.469318 3.8097 0.319398 1.83062 0.378555
811 0.847361 0.180253 3.36307 -2.29315 -2.05229 -2.14185
612 5.09382 1.0234 4.48878 -1.44316 -0.818236 0.196594
180 7.75205 0.510802 4.82342 1.36736 -1.50511 -0.675679
487 6.20953 0.456091 4.52364 1.06188 -0.600028 0.982996
536 7.62413 0.855432 3.84288 1.51748 -0.347847 -1.50856
188 8.23821 0.0865346 3.32172 0.965784 -0.857988 -1.81487
696 8.39003 1.7907 4.99256 -0.472935 1.05775 0.214534
840 4.28968 0.302777 2.8142 -0.463346 0.460145 -2.7333
713 8.58704 1.54415 3.9409 0.16234 -0.465597 0.0427011
797 1.14206 2.09057 5.09844 1.27972 0.918105 0.489567
629 9.13114 0.52381 3.81654 -1.5632 -0.335832 -0.26664
835 4.742 0.231979 0.36767 1.92377 0.386154 0.240581
85 9.72839 2.16913 4.60722 -2.61015 1.76079 0.0558951
21 10.6101 0.818049 4.31155 -0.800605 0.621303 0.25996
834 0.104531 3.89706 5.30437 0.184774 0.431505 -0.167326
222 10.5141 1.71321 3.73353 -2.8616 1.27603 -0.420051
793 0.164735 2.77775 4.67458 0.114243 0.244493 -1.76437
380 1.30044 3.27179 4.64883 0.956089 -0.248007 0.175619
420 3.12733 1.73732 5.20815 -0.0576975 -1.55277 2.78784
219 2.34994 1.94232 3.7023 0.167827 -1.37539 0.525338
162 1.04416 1.67385 0.0969832 0.306287 -1.10615 -1.53525
523 2.09373 2.40564 4.90401 -0.894218 1.68339 0.70681
569 2.11374 3.08696 3.93118 -0.343362 0.316246 2.42334
845 3.90005 0.876139 4.89024 -0.48819 -2.46182 0.688137
437 2.99325 2.61233 4.23144 0.635509 -1.64061 -0.563442
647 5.55378 3.61814 4.13629 -0.0488449 -1.8806 0.401309
343 4.86759 1.54596 3.49142 1.78539 -1.33111 -0.723986
622 6.10144 3.14678 3.22432 -2.30353 -2.55035 -1.2427
383 6.93155 2.32533 3.4814 0.621372 0.654804 0.226124
492 7.14601 1.81122 4.48442 1.33899 0.351091 1.50549
296 6.86009 5.27698 1.71378 -0.952733 -1.11065 -0.28106
803 7.69028 3.11877 4.2197 -0.500743 0.432978 -1.07757
716 8.33381 1.93963 0.125701 -0.677525 1.83707 0.860883
150 1.7415 4.97688 2.75046 -0.47335 1.38303 2.22725
650 9.84657 3.27816 4.50798 -0.887547 2.98393 1.68862
77 0.123367 1.70365 4.71352 -1.45836 1.06156 -0.981517
357 9.66072 2.51154 3.51544 -0.183979 -0.866922 1.17103
215 6.23157 2.19337 0.208335 0.434621 0.539201 2.80204
371 8.84219 3.06332 4.20433 -0.858977 -0.539025 -0.166928
286 0.421402 4.23904 4.26205 0.221103 0.598184 0.218443
571 8.41381 4.04998 4.99595 0.432117 -0.166983 2.83616
491 1.02123 4.74572 5.03211 0.986639 1.91987 1.44902
363 1.96016 0.20216 3.67583 -0.281186 -0.158433 0.185608
518 2.07968 4.97199 4.21726 -0.351153 1.74927 -1.07115
393 2.92484 4.62248 4.88102 -2.19999 -3.91399 0.82463
639 9.51557 2.20403 0.204752 0.146303 -0.43931 1.69259
605 3.38705 3.48111 3.83897 2.41205 1.69428 -1.10805
221 2.16157 4.03853 4.51721 -1.59084 0.597402 1.34249
267 3.88024 4.24001 4.38093 1.49698 -2.75764 0.24329
641 4.70104 3.47075 5.06646 0.129717 0.562915 0.61852
711 5.39888 4.34225 4.96926 2.14094 0.2583 1.59429
467 0.964008 5.06717 3.85211 1.47091 -1.12876 1.54919
860 0.696324 0.55634 0.579155 -0.119713 -1.24652 1.69711
593 7.07009 4.47752 0.135607 1.39274 1.60323 -0.779639
242 7.24368 4.16787 4.36303 -0.0369687 -1.29674 -0.807084
419 6.69398 4.16481 5.21391 0.33276 -1.11714 -0.832905
19 10.367 4.6677 3.49152 -1.58966 -1.78554 1.25586
576 7.83655 4.95794 1.03405 -1.99002 -0.603423 -1.7383
73 8.13922 5.10633 3.37493 -1.24823 0.758289 -1.11952
432 7.8162 5.04487 4.51845 0.0120338 0.75137 -0.689688
686 10.5114 1.84716 0.192782 0.772473 0.660245 -0.253887
176 4.84953 4.94268 3.96915 3.01288 0.546696 -0.264033
347 4.08836 2.68995 4.42434 0.487018 0.587106 -0.290061
801 6.09729 0.393878 0.360228 -0.733764 0.52322 -0.817339
102 1.93251 0.505176 0.418693 0.122771 -1.40388 0.821473
657 10.6772 5.00195 4.55279 -0.354252 -1.6958 0.736532
309 0.545536 1.06716 6.51866 1.45242 0.712911 -1.09754
691 4.23234 4.23595 5.56253 -0.55857 -1.68579 0.72156
653 1.25446 2.00032 6.3833 -1.30047 1.11722 0.395505
588 10.2886 0.265908 9.90363 -0.734656 -0.141189 -1.53966
544 1.96692 0.463816 6.12463 1.40967 2.30083 0.0446647
480 2.95653 0.671344 5.43863 0.402773 0.77849 -1.29712
250 3.11834 1.78255 6.25328 2.16132 -0.306758 -0.215917
513 4.29504 0.0881863 6.00649 1.07666 -1.39449 -0.992502
660 1.2508 0.318475 10.3724 -0.956401 1.58523 -0.635229
262 3.84834 1.26031 6.69288 -0.116988 -0.972155 -2.01382
30 7.00507 0.415472 5.65028 -1.03312 -1.1643 1.13118
315 0.916883 0.972754 5.43622 0.218393 0.960634 0.015545
550 7.37574 1.39437 5.5042 -1.46522 -0.617195 -1.96568
53 2.28226 4.11135 5.53158 -0.169063 -2.42615 1.00626
196 9.125 1.03547 6.15622 0.771995 2.61962 -1.19522
127 2.21422 5.23133 5.69965 0.158502 0.429584 2.10689
830 9.99255 0.0336067 5.95512 -0.569118 -0.552246 -1.47809
426 9.66342 0.970985 7.18728 -0.669404 0.352754 1.24606
79 10.2396 0.967302 6.25851 1.02899 0.10928 -0.130022
611 0.221246 2.77127 5.61434 -0.489504 1.70698 0.0349303
266 1.57398 2.99003 5.85282 1.93323 -0.763477 0.0587572
417 1.34277 3.63885 7.52242 0.251134 -2.04351 -0.125423
662 0.846847 2.94317 10.0158 -1.94703 0.414561 -1.20481
789 3.59394 2.77033 5.60975 -0.273259 -2.24953 -0.547391
17 3.06196 3.01603 7.11227 0.506292 1.25348 0.524043
258 2.51401 2.72174 6.0268 0.0805835 0.384914 0.228051
297 4.0613 1.62866 5.72281 0.744934 -2.07272 -1.01834
439 4.02503 2.25448 6.76818 0.699703 0.831446 0.540007
18 4.96361 1.2809 6.31147 -0.833812 -0.0579265 -0.900145
706 5.94288 3.1332 6.85393 1.26486 -0.892469 -0.960572
744 4.49911 2.49667 5.42568 1.69187 -2.50889 0.496345
804 7.38307 0.168648 10.6982 -2.05176 -2.24656 -0.111507
191 5.8872 2.11115 6.57807 -1.57052 1.42178 -0.133238
170 7.37836 5.10594 5.4592 -3.09542 0.753199 -0.291871
404 6.78615 2.83572 6.36824 1.65702 1.08358 1.4144
543 6.96017 1.73442 6.7259 -0.659177 0.763796 -0.360444
244 8.70865 2.52559 5.87457 2.25603 -1.22991 -0.32841
261 8.26898 1.60812 6.00665 0.881595 0.758535 -0.467921
667 7.97583 4.39475 6.00606 -1.83917 1.91282 -0.660509
651 8.51366 2.07354 6.93512 0.112561 0.419732 2.35964
301 0.0914995 1.89773 6.8807 -0.412799 0.263254 1.59995
718 9.68048 1.89632 6.50412 -1.32441 -1.53523 3.02837
697 0.18568 3.67811 6.39376 0.956681 0.433096 -2.1453
448 1.18484 4.08713 5.84901 0.568876 -0.395014 -0.164711
748 0.629875 4.74398 6.40789 -0.656183 1.43585 0.264137
306 3.18412 4.10281 5.89333 1.15587 0.367948 -1.56832
597 2.42354 3.55564 6.41008 0.098263 -1.13479 -0.543076
364 2.85237 4.85799 6.56611 -0.804897 0.204577 -0.252071
159 2.28517 4.37524 7.36368 -0.414374 0.606856 -1.95535
160 9.81475 2.40463 5.62446 -4.31199 0.35574 -0.139063
203 3.22487 4.11938 6.96139 0.274658 1.20057 -0.212561
516 3.81324 3.32548 6.44863 -0.783478 -1.48405 2.40178
684 6.38461 0.793516 10.1315 0.325553 0.979619 0.525831
724 0.813892 5.20584 8.40776 0.634729 -0.542626 -1.54772
216 4.8237 3.50453 6.18336 0.866315 -0.3973 -2.07392
92 6.63513 4.05913 7.41856 -1.06359 -0.5077 -1.26012
44 5.73373 3.7309 5.89065 0.707628 -1.67343 0.350851
579 5.17601 4.74905 6.00579 1.80273 -2.00338 -0.225084
757 6.32208 4.58502 6.26241 -1.21624 -0.097095 -2.90076
475 7.23122 1.91829 10.5505 0.240155 -0.237405 0.59993
699 7.10381 4.00353 6.29295 0.119277 0.966177 0.727588
665 8.96672 4.69049 6.04426 0.475787 0.0171437 -1.27327
442 8.05156 4.10042 6.99911 -1.41837 -0.168279 1.86226
336 8.39399 5.21535 6.76819 -0.618836 0.392457 -0.387645
253 10.239 4.57125 6.78548 0.83881 1.2942 -1.95894
849 10.1311 4.65435 5.75006 -0.747846 -1.28595 0.25587
195 10.5504 4.14357 10.4255 0.46327 0.35046 0.18235
427 9.85624 3.58435 6.53343 0.763631 -2.28714 1.44883
567 0.938158 1.51234 7.6637 -2.11376 -0.211583 -1.1007
110 0.00897368 0.933098 7.60373 -1.72716 0.371594 -1.08399
517 1.35731 0.798175 7.05187 -2.58245 0.618105 -0.0870896
197 0.672959 1.20782 8.78214 -2.13284 -1.06366 -0.00473132
243 0.759467 0.0169763 7.38409 1.43505 -0.528458 1.34799
692 2.22168 2.42002 7.02998 -0.347409 1.99016 -0.408416
384 1.36997 0.545994 8.36345 -0.0373192 0.296349 -0.292153
327 2.72003 0.99428 6.87353 1.03662 0.316527 1.31278
269 2.99891 1.86593 7.45922 0.376726 0.269131 0.227631
661 3.23572 0.666216 7.72897 0.929878 -1.38333 -0.654882
126 4.0794 1.44434 8.87312 -0.0215341 1.40351 -0.923449
390 5.96596 1.04554 7.21917 2.64424 1.58758 1.58587
87 4.61537 0.0913009 8.13345 0.270106 -1.99884 -1.08093
249 10.5689 5.12486 10.7052 -1.04254 -0.933363 -0.950407
328 3.21274 1.48487 10.3571 -1.04765 -0.921078 -1.12688
389 5.75266 2.13347 8.69489 -0.561462 -1.23207 -0.558658
785 7.42318 0.805439 6.75644 0.779218 -0.298228 -0.58767
325 7.79796 1.88149 8.55625 3.10041 -0.369774 -0.482775
210 7.15098 0.931158 8.4993 -0.130727 0.415776 -1.45355
39 8.56794 1.08532 7.12993 1.14681 -1.56259 -1.09547
351 8.57384 2.48614 9.28694 0.826484 2.37106 1.13271
773 9.25455 0.657341 8.27425 -2.24898 -0.603784 1.62503
72 0.174688 0.270201 8.49061 -1.72551 -0.240404 -0.0254844
149 9.163 1.98236 8.2945 -0.885897 0.476545 -1.53695
555 0.998318 2.99711 6.77918 -0.0155593 1.60772 0.692514
32 0.999132 2.21942 9.02214 -1.48984 0.331471 0.250126
596 1.91926 1.21285 7.74067 -1.94973 0.534462 -0.0851872
232 1.70732 2.24217 8.23815 0.868373 -0.955331 1.97528
864 3.23867 3.70593 9.20335 1.62174 0.989408 2.35878
505 2.92271 2.57661 8.29629 -1.08977 0.709482 0.631765
520 3.88347 2.88828 8.94389 1.83127 0.401864 -1.53826
759 4.17738 2.06062 7.9112 1.20444 -0.919562 -0.259506
478 4.10293 3.08877 7.7724 0.956436 -1.67794 0.778762
360 4.96206 2.61997 6.91985 1.00955 -1.39513 -1.73706
810 5.00001 2.69396 9.1871 -1.53011 1.07704 0.656202
524 4.95143 1.60541 7.49569 1.01908 -0.320643 -0.453813
146 5.09642 2.9647 8.03593 0.905166 -0.497214 1.49733
97 6.1916 3.20335 8.21665 -1.57274 2.09493 1.18954
709 6.46442 2.36556 7.50782 -0.629954 -0.133771 -0.170464
409 7.04693 3.48931 9.3915 -0.979343 2.04216 0.274774
40 8.06471 3.23101 6.50639 0.20418 0.635215 -1.14405
274 7.24216 3.24112 7.87911 -0.4715 0.3704 -0.626974
260 8.49106 3.87626 7.9995 0.987098 -0.585688 -0.287946
45 8.46999 2.77316 7.98735 0.720116 -0.951155 -1.97565
346 10.0425 1.99469 7.62956 -0.134314 -0.0108832 0.11593
701 10.43 2.827 7.09646 -1.60433 1.06308 1.63998
600 9.34698 2.70645 7.28758 -0.730896 0.712194 -1.19273
161 10.2215 3.06504 8.16655 -0.200731 -1.11684 -0.748131
458 9.23961 2.92611 8.53987 -0.937253 0.249517 0.81773
839 0.010203 4.81425 7.60545 -1.19684 -1.22938 -1.45601
401 1.52441 4.01679 8.44672 1.9577 0.484914 1.45268
509 0.251061 3.59199 7.47406 1.14824 0.630109 1.56894
104 2.98929 4.73855 7.97854 0.199125 -1.27078 1.09186
632 2.33014 4.15469 9.36941 -0.945631 1.01179 0.574208
11 2.75388 3.64557 8.21682 1.21924 -0.182412 -0.544984
257 5.93269 5.04223 5.45144 -1.61445 1.22266 0.253149
37 6.89744 3.28992 10.4349 -2.20125 0.747375 -2.23308
545 4.57607 4.02678 9.28729 1.96867 -0.604705 0.849275
673 4.12299 4.46993 6.60898 0.208118 1.73879 -1.39012
799 2.02528 1.51269 5.89594 -0.0306601 -0.196804 -0.203917
511 4.77246 4.38837 7.99466 -0.871524 -0.462267 0.347954
850 5.62255 5.32167 8.07611 -1.50872 0.570261 -0.091052
515 5.51164 4.57048 7.0189 -0.332962 2.2277 -0.739798
56 7.32647 4.80703 7.19628 1.74957 -0.262782 0.0990754
375 7.18446 4.1912 8.44353 0.429543 -2.31049 0.606437
372 2.39561 0.160502 7.9676 -3.06434 -0.539635 -2.30084
229 9.12837 4.48383 8.91578 3.01142 -1.27762 1.78742
844 8.03411 4.8112 8.24648 -0.252334 0.0181624 0.542731
446 7.90036 0.617043 5.97296 0.0888113 -2.28024 1.67082
54 9.18304 4.27424 6.88161 -1.14711 0.559406 -0.622206
719 9.83363 3.72962 7.54046 -0.251946 -0.327771 0.500978
76 0.177467 3.88038 8.48209 1.95658 1.26079 -0.43744
280 9.84145 4.90257 7.91444 -0.636544 -0.130954 -0.46428
422 8.1212 0.129777 8.81032 -1.30675 -0.00269568 -0.640212
141 0.425636 0.913214 9.75004 0.118785 1.21642 0.0386613
583 0.00259753 0.91802 10.6089 -0.966103 1.02583 -0.633173
559 5.22909 0.404661 6.97146 0.497236 -2.09322 1.33414
133 2.80715 1.02741 8.71908 -2.26628 1.81361 -0.471792
410 1.40418 0.94494 9.32598 -0.357958 -1.00161 1.63848
218 2.76487 0.673194 9.73056 1.51383 -1.68222 -3.15181
211 7.59851 2.37934 5.46901 -0.668435 -0.0301257 1.81764
812 3.97796 0.958395 10.1417 -0.512838 0.882506 -1.06642
504 6.52369 2.09816 5.58661 -0.432699 -1.35498 -0.751648
198 3.98086 1.99385 9.74542 -0.904743 0.673979 1.28349
7 5.81099 1.73922 9.63277 -1.65733 0.152375 -2.78879
254 5.51396 0.159662 8.91847 -0.817395 0.0318257 0.706646
825 5.1564 0.926103 10.3738 0.796068 0.117134 0.0901149
29 4.97153 1.18084 9.19307 -0.986779 2.53103 -0.890838
26 6.03874 1.06686 8.83604 1.63588 1.40023 -1.01304
169 7.29777 0.490108 9.43161 -0.199475 -2.49981 -2.23537
444 3.97763 0.202324 7.13887 1.39639 -1.55778 -1.56949
291 8.63471 1.36115 9.43057 0.976793 2.35456 -1.6331
182 8.02588 1.13828 10.2538 -1.68045 0.210922 -0.52918
413 6.5423 5.33657 7.57865 -1.04942 -0.436515 2.33716
130 10.1711 1.35773 8.58664 0.359235 -0.1339 -0.251678
762 9.15525 0.723868 10.4018 1.70301 -1.08334 0.517554
500 9.9499 1.53192 10.034 1.6527 -1.99411 0.947645
428 0.595037 1.93137 10.0071 -0.70978 -0.642777 1.23129
23 3.28795 4.76348 9.12437 0.840176 -0.770501 -1.69485
123 2.18801 3.16636 9.19666 -0.772941 1.11944 1.43498
743 3.11076 2.47157 9.82655 -0.0245511 -0.560633 -1.18563
415 2.4663 1.65234 9.5226 -2.11639 -0.615969 0.47932
271 1.81741 2.19119 10.2726 -1.55613 2.37243 0.112697
698 4.0751 4.46777 10.5755 0.00364371 1.97811 0.299882
282 4.01978 3.42081 9.93397 1.22872 0.289677 -0.0717664
637 5.71149 3.83186 9.69249 1.59571 1.6204 -1.46009
231 5.28094 2.09559 10.6319 -0.825285 -0.36359 0.889952
833 3.98864 5.18602 8.50032 1.37477 -1.67916 0.0560092
205 5.13423 3.07285 10.2473 0.399494 0.412475 0.196687
663 6.72674 2.46416 8.93496 -0.15706 1.13431 0.908725
783 6.23987 2.75529 9.81509 1.97551 3.60829 1.55317
451 3.52479 0.0200706 9.80582 0.410781 -1.50262 0.279754
64 6.82527 1.40982 9.51543 -0.731835 -2.5996 2.00296
585 8.15962 3.26228 10.1299 1.73115 1.725 -2.66596
189 7.67005 2.0596 9.69633 -1.9506 0.783156 0.341143
445 9.54431 2.19693 9.34948 -1.59422 -0.524802 -2.72315
353 9.18853 3.89669 9.89225 0.919464 -0.910277 -0.234043
728 10.6177 2.27844 8.61907 2.34372 -0.334322 2.15619
769 0.395081 0.102663 6.1316 -0.819277 -1.24755 -1.91539
460 10.0408 2.77737 10.032 -1.31325 -0.559468 2.15439
311 10.6386 4.50946 9.25692 1.51405 -0.324238 -2.72346
125 0.635834 3.88463 9.85289 0.557735 -1.64391 -2.07046
154 10.6046 3.10189 9.2655 0.319386 -2.25306 -0.687952
275 0.505295 2.52314 7.81242 -2.46846 -1.84435 -0.859663
344 1.06342 4.95535 9.36959 -0.663767 0.670185 0.993348
88 1.14189 3.32205 9.07222 0.888011 -1.16653 -0.753855
406 2.8531 4.90069 10.0906 0.103519 0.685643 0.550056
541 6.74062 4.93601 10.0211 -0.163754 -1.47697 1.40577
339 4.61489 0.167219 9.53172 0.555477 -1.08365 1.99458
847 2.7083 3.81638 10.4367 -0.890334 0.745996 -1.46073
619 5.09113 4.84053 10.3314 -1.70444 -1.78449 0.410199
766 3.91177 5.28497 9.97764 2.28269 0.546645 -0.562535
750 3.63095 5.3421 7.57253 0.819122 1.16322 -0.112247
531 6.18117 4.76011 9.05326 -0.756955 0.710795 -1.90449
395 1.78282 4.62227 6.49672 -0.872309 1.08001 2.38357
10 5.89101 4.17693 8.26711 -0.333154 0.633331 -1.3769
412 7.52281 4.82908 9.2117 -0.708177 0.127039 0.000559477
361 3.81115 0.478649 8.96042 1.22866 2.04654 -1.44025
715 1.14541 4.76527 7.42307 -0.755478 1.37405 -0.872354
592 7.56733 4.24469 10.0171 -0.686387 1.42712 -1.28578
251 9.52802 4.74181 10.5181 -1.0567 -0.706111 -0.282428
399 9.0317 5.15692 7.5024 1.33226 -0.278344 0.884295
778 8.37415 5.051 9.80112 0.107533 -0.466943 2.25351
139 8.2254 3.93824 9.02807 -0.569479 0.780055 0.494722
292 9.71308 3.61458 9.13683 -0.0541765 0.611671 -0.769276
2 0.785096 4.78881 10.5155 -0.835621 -2.31574 -1.53307
111 2.03076 4.54427 10.6144 -0.670422 0.0349668 -1.42027
703 5.62025 0.313507 5.48896 1.48916 -0.216722 1.16665
720 6.64461 0.0354527 8.70504 0.709572 0.664792 -0.24052
71 2.9472 0.0322431 6.76464 -0.18651 0.404989 0.964203
270 6.1785 0.0090268 7.77152 -1.05958 1.04398 1.8018
290 2.907 0.0154767 8.93919 1.18115 1.14901 0.42614
103 3.37113 2.8107 10.7137 0.590643 -0.408237 -1.70916
846 7.64866 3.49094 5.41737 0.327016 -1.91519 3.50494
828 0.330247 5.96339 1.58332 -0.01627 -0.0309737 0.259914
566 8.95288 5.92913 0.104116 0.191507 -0.187505 -1.3313
84 1.99173 5.52715 0.104144 -0.99705 0.0471885 -0.95089
463 1.29601 6.37677 1.90363 -0.18524 -0.213381 1.35244
263 8.98074 8.01861 5.17458 1.61894 -0.439626 -1.26694
165 2.56499 6.6228 1.46434 0.274469 -1.0246 -0.962112
398 4.78878 5.76745 0.873393 0.991912 -0.546947 2.63316
201 2.93948 5.51551 1.22925 1.1621 -1.00143 -0.766324
167 5.02671 6.69723 1.07435 -3.11755 0.55272 1.32967
820 5.76125 5.7465 2.22423 0.494245 0.105411 -0.447698
688 4.65067 6.09383 2.13536 2.29095 -3.20135 1.59671
574 7.13597 6.98344 0.909493 0.044641 -1.42418 -0.418978
621 6.26415 6.40185 1.44046 0.889484 1.09207 1.6422
635 7.47369 6.0423 1.49746 -0.91067 0.407255 -0.475816
421 1.63264 10.328 1.65411 -0.448208 -0.628489 0.644947
502 8.18541 6.64775 0.678606 -0.114673 1.46425 -0.830938
644 10.3123 8.57032 4.31568 0.211557 -0.724722 -1.06992
630 0.428889 6.90012 1.02128 -1.14668 0.621159 2.98898
81 10.308 7.15512 0.519078 0.928672 -1.21707 1.55866
245 7.64141 10.1892 3.96299 -0.696221 -0.476238 -0.180939
193 9.25593 6.71338 0.582084 -1.23219 0.406824 1.99643
695 2.17543 6.73211 0.457113 1.1538 -2.05642 1.79493
15 10.5656 7.18696 1.92209 -1.86033 0.544983 -2.09928
1 0.628999 8.98048 1.57564 -0.435389 -0.196598 -0.501848
822 1.73377 7.64041 0.700135 0.881949 -1.18497 -1.17828
791 0.0908353 8.43312 0.369161 -1.50858 -0.104027 0.0272474
465 8.97947 9.24869 3.89375 -0.563295 -0.300797 -2.03257
289 2.62703 8.37003 1.13253 -0.177396 -0.655397 -0.242771
200 1.73619 7.39915 2.12369 0.406518 2.25014 -0.851089
794 3.82836 7.80567 0.494767 -1.7438 2.09062 -0.176358
823 3.77633 6.51165 0.877597 -0.287352 -0.309339 1.23085
800 3.28852 7.50183 1.32303 0.59028 2.16372 0.404151
469 4.59066 7.66287 1.22051 -0.910205 0.178309 1.31119
486 4.54933 8.74837 0.736225 1.24553 0.223178 1.64042
333 5.53448 8.01087 1.03303 0.21832 1.74333 -1.78427
423 6.2646 7.44023 1.63736 -0.19139 1.43282 2.82444
831 6.62973 8.28861 1.13375 1.81395 1.0142 -0.843338
814 8.55064 8.73423 1.54841 -1.70905 0.277787 -1.00524
746 8.05644 7.90739 0.941777 0.664785 1.02473 0.215281
94 9.95164 8.24412 0.0168742 -1.77859 0.835465 -2.12328
158 9.21579 7.69756 0.81285 1.0626 -0.249762 0.846546
521 9.85956 8.73319 1.28445 -0.322622 0.591381 -0.708519
721 1.50667 5.5667 1.35159 1.20039 -0.606895 -1.66738
604 4.58309 7.10215 0.228492 1.02635 0.381644 0.911343
369 1.65729 9.21472 1.81744 1.96862 -2.58808 -0.426424
788 2.55719 10.0541 1.24291 -0.294353 -1.00852 0.189955
340 1.72346 9.48101 0.83805 -2.22789 -0.634334 -0.479791
362 3.36638 10.1323 0.552536 0.685131 0.7984 1.73844
48 3.22607 8.88043 0.434246 0.826483 0.436244 -0.139079
173 4.03469 8.76044 4.75343 0.361679 0.037555 -0.930549
615 4.0788 9.6569 1.1118 -0.781753 -0.0404469 -0.477815
838 5.23599 9.93528 0.946152 0.858827 -0.168609 0.157592
447 1.6766 10.0326 2.70109 -0.497939 -0.530712 1.64661
334 6.16137 10.3625 1.05567 -0.187222 -0.933667 -0.184622
534 5.01477 9.27578 1.66147 -1.70654 1.00138 1.17351
321 5.27105 10.6818 2.15728 1.16952 -0.266397 -2.14732
654 5.97633 9.03086 1.01611 -1.05411 1.09047 -0.633244
829 7.31591 10.5779 1.71482 -0.705941 -0.522434 -0.854857
859 6.95936 9.98918 0.355194 1.4411 -1.82312 1.2959
382 7.56969 8.85251 0.513124 -1.69077 1.98389 -2.50193
358 8.35453 10.1225 1.91342 -1.988 -0.666792 1.38714
233 9.44793 9.76108 1.09564 1.02646 2.49847 0.827783
86 8.44361 9.71763 0.23596 -1.39743 1.34488 0.253074
373 9.19796 9.37647 1.99888 -0.161446 0.258441 1.30127
827 10.1145 7.93411 5.08165 -0.212914 -0.81189 0.922705
41 7.38273 7.33447 5.00968 0.115514 0.931547 -0.619602
483 0.784924 6.44345 2.85783 -0.581139 0.261828 2.71991
648 8.98879 8.65521 0.341139 3.97544 0.905311 -0.718337
745 1.67005 7.68798 3.17101 0.828832 1.03645 -0.4156
99 2.15433 5.91167 3.97559 -0.387378 0.695638 1.14091
368 2.12398 8.77519 0.235695 -0.167355 -0.979712 1.827
135 2.46347 6.45893 3.11878 0.243759 2.07219 0.424498
436 3.21145 5.72817 4.08988 -1.18929 -1.53794 2.71409
568 4.06033 6.77314 2.89374 2.89183 -1.90175 -0.860628
50 3.47276 5.78893 2.85236 3.19911 -0.775467 0.689083
818 1.06252 8.52833 0.0758812 -0.284472 -0.734754 0.0409855
476 4.19115 5.63898 3.53335 0.179199 -1.1617 0.771624
452 4.22372 7.3211 2.12816 -0.592044 1.03964 0.409212
113 5.9472 6.6849 0.356478 -1.41486 0.230912 1.66611
255 5.92275 7.16269 3.39986 1.3562 -0.0466143 1.77293
132 6.28844 6.0209 3.18876 1.90423 1.39576 1.21614
501 7.36586 5.85468 3.67778 0.676619 -2.71503 0.187966
532 10.2704 6.13519 0.783487 0.881381 -0.0575537 2.72328
530 9.37674 5.42287 4.07312 -0.234923 0.406628 -2.83324
752 6.77992 6.65323 2.39872 -0.870686 -0.830188 0.141152
732 8.34387 5.81244 2.54814 3.17189 -3.39094 0.481652
440 8.80612 7.11785 3.10095 -1.10784 0.0587821 -0.0122515
755 8.5809 6.11786 3.97392 2.58014 -0.841294 -0.657123
450 10.1028 6.03458 1.97633 -0.591483 -0.672959 0.0375745
471 8.62357 5.76397 1.47966 0.188896 -0.69472 -0.937234
479 9.09064 5.63298 3.12776 -0.107218 -0.712766 0.625629
546 10.523 6.60494 2.84042 -1.31444 -1.12305 -0.605661
623 9.39591 7.24606 1.73971 -0.892298 1.46661 -1.69475
824 0.042443 8.0064 1.39626 1.23782 0.966819 0.519572
781 0.766816 7.98136 3.49384 1.71183 0.208009 0.410012
129 0.785558 7.6716 2.35714 1.21177 -1.61907 2.12238
192 0.636027 8.96165 3.47423 1.27861 1.70598 0.476845
751 2.49541 8.52743 2.20839 0.282242 -0.0489801 1.50182
484 2.71174 7.48325 2.55493 -0.345706 1.39244 -2.71721
581 1.81124 8.78771 3.10276 -1.67371 -1.07621 -0.295536
65 3.22133 6.51349 2.16536 0.586114 -0.921087 -1.18456
378 4.96164 7.63726 3.02532 -0.574901 -0.448784 -0.402903