ITEM: TIMESTEP
100000
ITEM: NUMBER OF ATOMS
6912
ITEM: BOX BOUNDS pp pp pp
-8.9628094931143298e+00 8.9628094931143298e+00
-8.9628094931143298e+00 8.9628094931143298e+00
-8.9628094931143298e+00 8.9628094931143298e+00
ITEM: ATOMS id x y z
290 -8.22276 -8.23949 -7.54646
3497 6.01844 -0.0372484 -8.93168
35 3.69436 -8.88368 -8.12681
8 -7.49264 -8.10457 -8.26844
12 -5.92215 -8.18973 -8.18994
4939 6.72694 -0.0305251 -0.76213
1846 -0.786027 -5.25148 0.0085855
226 3.72794 -2.21057 -8.97529
1727 8.196 -1.46532 -0.811257
59 -5.23275 -7.46784 -8.23726
298 -5.21582 -8.21727 -7.48165
4617 -5.96832 0.0170335 -2.97177
1161 -6.05113 -8.90016 -3.07123
16 -4.44187 -8.2411 -8.20754
20 -3.02033 -8.12111 -8.25283
302 -3.82818 -8.27287 -7.39931
24 -1.44859 -8.22728 -8.24962
37 4.41831 -8.88992 -8.89947
306 -2.17136 -8.19279 -7.46118
310 -0.837993 -8.19326 -7.43769
873 -5.95149 -8.92362 -4.50895
357 -1.52475 -7.44625 -7.47475
28 -0.0247875 -8.15057 -8.17253
314 0.735904 -8.27242 -7.43501
4913 -3.04409 0.0401325 -1.42218
581 -7.47361 -8.89277 -5.96563
32 1.50821 -8.129 -8.14921
318 2.24536 -8.20908 -7.38836
3465 -5.98282 -0.100434 -8.92611
1181 1.42013 -8.92129 -2.94139
36 3.00296 -8.16941 -8.20941
40 4.47095 -8.07037 -8.22998
33 2.97619 -8.86732 -8.95303
230 5.27183 -2.26548 -8.88098
4069 4.45115 0.0238999 -5.96597
44 5.95597 -8.14303 -8.26914
326 5.31309 -8.15962 -7.51503
619 6.75262 -8.94477 -5.19396
48 7.44539 -8.27193 -8.29058
91 6.67768 -7.4775 -8.32593
381 7.37789 -7.50273 -7.57578
293 -7.51077 -8.97033 -7.48858
4 8.92099 -8.22461 -8.20038
334 8.24384 -8.27452 -7.43839
593 -3.0218 -8.85678 -5.97521
282 6.7452 -0.768614 -8.92527
4367 8.10783 0.0181959 -3.7968
1471 2.19557 -8.92638 -0.754955
51 -8.28612 -7.43487 -8.19475
99 -8.19032 -6.11982 -8.26796
55 -6.70888 -7.50859 -8.28524
56 -7.41945 -6.77264 -8.21621
60 -5.9442 -6.72856 -8.23868
103 -6.71002 -5.98906 -8.28682
345 -5.90275 -7.43026 -7.50955
47 8.22025 -8.91607 -8.22951
2014 8.21888 -0.799242 -0.0574588
611 3.74292 -8.99348 -5.24347
107 -5.19292 -6.01249 -8.21444
353 -3.02591 -7.55124 -7.49829
64 -4.49545 -6.73191 -8.24364
63 -3.77238 -7.49828 -8.13038
111 -3.73134 -5.98878 -8.15792
349 -4.53604 -7.52492 -7.41862
1453 -4.49031 -8.98832 -1.49865
68 -3.00333 -6.89274 -8.22445
67 -2.27389 -7.53462 -8.21395
354 -2.18895 -6.73733 -7.44075
115 -2.29911 -6.00977 -8.1298
405 -1.48705 -6.03769 -7.43405
72 -1.4595 -6.76042 -8.23074
71 -0.734345 -7.48402 -8.33993
76 -0.0400244 -6.75208 -8.16133
75 0.756445 -7.44276 -8.22663
362 0.720953 -6.74901 -7.46193
123 0.685502 -6.00728 -8.24611
1873 8.90075 -4.49061 -0.0109583
66 -2.29978 -6.75537 -8.94605
79 2.27136 -7.50031 -8.22558
1153 8.89498 -8.96136 -2.9699
80 1.54753 -6.78021 -8.14214
127 2.17005 -6.00188 -8.12718
366 2.23951 -6.75449 -7.48712
83 3.71102 -7.32254 -8.2675
84 2.93892 -6.72914 -8.29268
88 4.50325 -6.68165 -8.27397
417 2.92812 -5.93912 -7.5218
1941 -1.55863 -2.92964 -0.0214801
4353 2.97818 -0.0503824 -4.45734
87 5.21549 -7.44086 -8.2918
92 5.90882 -6.75778 -8.299
135 5.22695 -5.96059 -8.25552
3749 -7.43059 -0.0637677 -7.48556
903 5.2903 -8.978 -3.77248
269 1.51615 -1.4576 -8.97272
425 5.94107 -5.9587 -7.46308
377 6.05285 -7.37402 -7.54544
378 6.74767 -6.64602 -7.52454
599 -0.756552 -8.96922 -5.11476
95 8.17087 -7.41512 -8.31508
52 -8.94387 -6.73863 -8.25964
96 7.45434 -6.67732 -8.34394
1467 0.829905 -8.95101 -0.690406
104 -7.54044 -5.29051 -8.22083
100 -8.93012 -5.25612 -8.27575
147 -8.17481 -4.53416 -8.1725
3471 -3.75578 -0.0286316 -8.28548
1175 -0.783599 -8.96027 -2.11501
313 0.00500593 -8.94837 -7.50766
108 -5.98559 -5.21513 -8.23608
151 -6.72683 -4.51015 -8.30011
155 -5.11053 -4.54828 -8.17695
445 -4.45338 -4.53317 -7.48663
397 -4.48042 -5.97604 -7.48189
112 -4.36983 -5.20826 -8.32509
159 -3.66599 -4.40314 -8.28507
398 -3.75826 -5.20537 -7.51572
116 -2.91815 -5.2308 -8.20525
867 -8.20002 -8.9682 -3.6878
453 -1.41504 -4.45814 -7.45735
34 3.66171 -8.11822 -8.90992
120 -1.4991 -5.23023 -8.17653
119 -0.795277 -5.99033 -8.26202
124 -0.0149065 -5.2015 -8.15787
406 -0.784437 -5.21999 -7.44523
409 0.022222 -6.01241 -7.45594
102 -6.7039 -5.23233 -8.95973
171 0.589015 -4.43814 -8.22208
410 0.696008 -5.23532 -7.41753
4917 -1.52415 -0.0296048 -1.44478
413 1.38787 -5.95865 -7.44068
128 1.41506 -5.15807 -8.18347
175 2.18705 -4.43875 -8.35524
414 2.13248 -5.20194 -7.5413
132 2.93675 -5.29437 -8.32904
465 2.84899 -4.47252 -7.61462
579 -8.27767 -8.87054 -5.28454
131 3.71217 -5.99933 -8.28358
179 3.66476 -4.50658 -8.27321
136 4.5171 -5.25269 -8.2758
418 3.70525 -5.2166 -7.55598
245 -7.50368 -1.4884 -8.90121
140 5.94016 -5.18249 -8.13735
139 6.65263 -6.07487 -8.27714
473 5.9891 -4.39029 -7.46661
221 1.45305 -2.99238 -8.94797
30 2.20068 -8.1542 -8.98113
143 8.26304 -5.9333 -8.31113
144 7.45811 -5.16505 -8.20612
4919 -0.821271 0.0527664 -0.785336
191 8.21298 -4.50117 -8.3079
477 7.44688 -4.47451 -7.50489
429 7.44975 -5.92019 -7.56784
434 -8.17693 -3.78096 -7.49412
195 -8.15048 -3.05463 -8.21229
481 -8.89649 -2.98137 -7.45137
152 -7.44773 -3.79567 -8.22601
156 -5.98458 -3.77219 -8.23705
199 -6.77427 -3.02583 -8.21182
160 -4.39923 -3.81815 -8.25422
203 -5.25712 -3.06076 -8.2489
442 -5.25211 -3.74815 -7.55281
164 -2.89658 -3.59436 -8.19624
207 -3.72338 -3.00054 -8.25208
1455 -3.77603 -8.86683 -0.610109
446 -3.77138 -3.78699 -7.47606
182 5.17586 -3.76232 -8.91505
163 -2.1571 -4.39474 -8.17314
450 -2.23228 -3.71584 -7.40966
19 -2.24121 -8.89972 -8.23632
168 -1.42609 -3.71051 -8.18203
167 -0.679054 -4.50039 -8.24041
454 -0.692384 -3.6833 -7.40712
505 0.0183777 -2.91293 -7.35226
1155 -8.25711 -9.00344 -2.22146
172 0.0170058 -3.54299 -8.17143
176 1.41029 -3.7543 -8.21507
126 2.17974 -5.26927 -8.98232
4335 -3.82351 -0.0842494 -3.72276
461 1.43796 -4.46557 -7.41982
462 2.17346 -3.74188 -7.49028
587 -5.21979 -8.93139 -5.21297
180 3.0391 -3.73989 -8.25688
466 3.6724 -3.79017 -7.49855
184 4.35466 -3.86554 -8.29229
513 2.95026 -2.99334 -7.43748
1958 5.25126 -2.25486 -0.112597
1878 -6.6938 -3.67574 -0.0574741
183 5.23566 -4.45175 -8.13022
188 5.97153 -3.77768 -8.2437
231 5.16333 -3.00392 -8.20177
469 4.48747 -4.46223 -7.4612
470 5.27763 -3.70932 -7.44904
23 -0.661085 -8.9065 -8.30377
249 -5.92925 -1.54602 -8.95161
1998 2.2 -0.718882 -0.0278299
187 6.64101 -4.47766 -8.16717
148 -8.92003 -3.73482 -8.2198
192 7.43227 -3.76137 -8.3561
239 8.17559 -2.98421 -8.23354
246 -6.72272 -0.731544 -8.95018
196 -8.82037 -2.29035 -8.21487
200 -7.38778 -2.22704 -8.09269
243 -8.16483 -1.47353 -8.12049
154 -5.22412 -3.83542 -8.86161
204 -5.97159 -2.25186 -8.15747
489 -6.00807 -2.99933 -7.42092
247 -6.68171 -1.46801 -8.24668
4365 7.45821 -0.0326374 -4.48616
208 -4.43495 -2.30144 -8.23315
490 -5.16223 -2.2883 -7.52568
251 -5.23008 -1.51587 -8.20927
212 -2.96524 -2.24367 -8.26386
3787 6.63666 -0.0561364 -6.6994
211 -2.18559 -2.91441 -8.19715
498 -2.21706 -2.32361 -7.43518
259 -2.19868 -1.51656 -8.20005
216 -1.4856 -2.21082 -8.16959
198 -6.70862 -2.25854 -8.87792
215 -0.788666 -2.9971 -8.25046
263 -0.738189 -1.54371 -8.26352
501 -1.5117 -2.97732 -7.40709
502 -0.693653 -2.20332 -7.49875
165 -1.38379 -4.43967 -8.9231
219 0.778284 -2.94356 -8.26365
220 -0.011268 -2.30287 -8.20908
506 0.793201 -2.24076 -7.43316
605 1.50756 -8.97123 -5.93661
4647 5.22782 -0.0335987 -2.2543
224 1.5303 -2.26408 -8.21632
223 2.20947 -3.04536 -8.25941
228 2.92147 -2.28793 -8.22971
227 3.67674 -3.01193 -8.22018
275 3.73569 -1.46124 -8.21971
309 -1.51074 -8.95773 -7.50908
232 4.42783 -2.23822 -8.14658
279 5.15118 -1.52518 -8.2383
565 4.54463 -1.48947 -7.4668
4331 -5.36254 -0.0856253 -3.71105
1769 6.02541 -8.89297 0.00380936
229 4.41396 -3.0286 -8.93131
236 6.03472 -2.21286 -8.17957
235 6.73048 -3.02814 -8.26777
283 6.7108 -1.41902 -8.18745
521 6.00664 -3.00794 -7.49939
240 7.48808 -2.21416 -8.19084
617 6.00746 -8.97488 -5.92663
114 -2.10793 -5.17812 -8.94295
248 -7.45247 -0.739009 -8.16614
244 -8.96634 -0.699327 -8.22301
533 -7.43298 -1.4277 -7.39234
530 -8.18686 -0.728818 -7.49752
3485 1.53892 -0.031125 -8.98289
909 7.51509 -8.92359 -4.46418
534 -6.61743 -0.796334 -7.50613
307 -2.2042 -8.97074 -6.69105
879 -3.7721 -8.96306 -3.71905
252 -5.92286 -0.820573 -8.22403
256 -4.48811 -0.726207 -8.2509
538 -5.18688 -0.685184 -7.47861
4055 -0.684601 -0.0727935 -5.24216
206 -3.69485 -2.15179 -8.99752
255 -3.74737 -1.50169 -8.19899
260 -2.91666 -0.758577 -8.19285
321 2.97276 -8.91931 -7.48539
4649 5.96531 -0.0228013 -3.02868
27 0.738943 -8.81057 -8.21668
4071 5.15611 -0.0550881 -5.22963
549 -1.46732 -1.48455 -7.47527
546 -2.22383 -0.702172 -7.45658
3757 -4.49796 0.00565152 -7.52584
162 -2.13233 -3.66258 -8.81603
3773 1.37486 -0.0126024 -7.48594
264 -1.4195 -0.76672 -8.23781
550 -0.745589 -0.783988 -7.52744
1475 3.78324 -8.8244 -0.880119
267 0.830325 -1.59655 -8.18863
268 0.0480732 -0.780577 -8.20551
272 1.54622 -0.744162 -8.27217
554 0.810184 -0.760765 -7.52893
553 0.00354329 -1.50992 -7.52584
3763 -2.22583 -0.0629271 -6.68506
271 2.21563 -1.52587 -8.22369
276 2.95701 -0.781182 -8.22845
883 -2.36218 -8.95034 -3.67633
4639 2.33121 -0.0544314 -2.24271
1195 6.7397 -8.86729 -2.18313
562 3.72096 -0.709933 -7.51041
1469 1.46394 -8.88472 -1.51413
241 9.01532 -1.55036 -8.96214
1728 7.46724 -0.708887 -0.718754
280 4.49661 -0.69435 -8.18547
325 4.54087 -8.87926 -7.4606
1457 -3.04205 -8.97461 -1.53069
4063 2.21343 -0.103967 -5.21438
284 5.94875 -0.792576 -8.21534
323 3.83934 -8.88402 -6.69624
287 8.29287 -1.47438 -8.23708
288 7.47346 -0.783931 -8.17329
2009 5.89172 -1.46024 -0.00633855
1997 1.37455 -1.46446 0.00747798
1723 6.69343 -1.53511 -0.718074
4905 -5.93921 0.029008 -1.46304
1901 1.47343 -4.47632 -0.0334691
296 -7.48995 -8.27391 -6.71502
578 -8.24643 -8.18902 -5.99866
339 -8.24223 -7.55333 -6.79452
294 -6.72841 -8.16335 -7.53124
1185 3.02094 -8.91533 -2.96831
300 -5.95874 -8.16444 -6.75128
582 -6.68639 -8.20858 -6.11507
347 -5.24725 -7.45274 -6.75661
586 -5.23408 -8.21234 -5.95876
2001 3.05747 -1.53218 -0.0806692
304 -4.51235 -8.2084 -6.72035
590 -3.80408 -8.19785 -5.98195
327 5.21776 -8.9028 -6.63254
308 -2.96294 -8.18658 -6.72684
594 -2.28436 -8.15256 -5.90252
355 -2.19637 -7.4738 -6.6661
2005 4.48551 -1.42615 -0.00703355
46 8.25398 -8.24445 -8.96037
312 -1.50466 -8.23218 -6.65121
359 -0.65904 -7.43659 -6.67628
645 -1.52874 -7.47128 -5.90157
361 0.0218298 -7.52407 -7.46716
1719 5.19678 -1.47982 -0.752928
1179 0.697223 -8.95832 -2.32421
316 0.0270882 -8.23001 -6.74479
602 0.668891 -8.21658 -5.87435
363 0.760785 -7.43222 -6.65011
653 1.3599 -7.52655 -5.91271
320 1.44325 -8.26957 -6.60177
367 2.22665 -7.42726 -6.72724
606 2.32669 -8.19541 -6.00287
3785 5.91758 -0.0844918 -7.45405
369 3.00957 -7.42733 -7.47581
322 3.78226 -8.16755 -7.44745
324 3.06423 -8.20677 -6.75025
371 3.79032 -7.37571 -6.7319
373 4.47132 -7.3555 -7.50745
328 4.5204 -8.11202 -6.75986
375 5.27137 -7.39437 -6.73215
332 5.9682 -8.21062 -6.7119
330 6.71147 -8.2548 -7.47858
665 5.91365 -7.46184 -5.96121
379 6.7116 -7.45166 -6.7298
4065 2.98008 -0.102223 -6.07061
292 8.97704 -8.18718 -6.73851
336 7.44639 -8.18321 -6.66236
338 -8.21641 -6.74059 -7.48402
389 -7.42199 -5.94967 -7.51081
385 8.92039 -5.86019 -7.41768
344 -7.46955 -6.74754 -6.80685
387 -8.19313 -6.01546 -6.72123
341 -7.41424 -7.4354 -7.47356
342 -6.71682 -6.70595 -7.53345
343 -6.68296 -7.43861 -6.74815
391 -6.71699 -6.00163 -6.78968
393 -5.97976 -5.85941 -7.51031
346 -5.2351 -6.68616 -7.45985
633 -5.93312 -7.46704 -5.93548
348 -5.97715 -6.73544 -6.7217
681 -5.99832 -5.97819 -5.97616
634 -5.24636 -6.72265 -6.01548
350 -3.7105 -6.69274 -7.41689
351 -3.71697 -7.52031 -6.7555
352 -4.45361 -6.67013 -6.74248
638 -3.72566 -6.72164 -6.02666
637 -4.54955 -7.45656 -6.00855
356 -2.93733 -6.84653 -6.81181
642 -2.33102 -6.70141 -5.95089
403 -2.2803 -6.04162 -6.68086
641 -3.02151 -7.4972 -5.93965
358 -0.727978 -6.84648 -7.44644
360 -1.51485 -6.74226 -6.73655
646 -0.861057 -6.68652 -5.97356
364 -0.0428939 -6.73212 -6.67961
650 0.670265 -6.64772 -5.99671
368 1.50366 -6.65437 -6.76882
365 1.47315 -7.53259 -7.36458
654 2.1972 -6.702 -6.00562
372 2.89482 -6.7394 -6.77754
370 3.69576 -6.66529 -7.52093
658 3.7108 -6.63177 -6.0292
374 5.25845 -6.59938 -7.52314
376 4.49523 -6.61798 -6.81234
423 5.22776 -5.89167 -6.63553
380 6.06642 -6.73416 -6.67559
384 7.39119 -6.67499 -6.70126
427 6.76079 -5.91124 -6.75901
713 6.02538 -5.96934 -6.00538
337 8.89204 -7.4727 -7.56622
382 8.08403 -6.7736 -7.54935
383 8.13838 -7.43566 -6.85368
340 -8.96745 -6.70804 -6.87154
386 -8.1735 -5.28515 -7.47667
437 -7.39066 -4.46296 -7.49161
435 -8.24709 -4.38268 -6.73668
390 -6.71991 -5.23862 -7.5036
441 -5.96169 -4.55239 -7.48997
392 -7.47377 -5.19172 -6.70983
439 -6.67675 -4.57271 -6.81053
729 -5.94681 -4.56113 -5.88302
394 -5.13432 -5.29129 -7.53991
396 -5.92028 -5.19901 -6.67021
395 -5.25572 -5.94957 -6.7131
400 -4.45581 -5.13812 -6.74507
682 -5.13109 -5.21599 -5.92711
733 -4.51155 -4.36531 -6.05193
399 -3.74216 -5.91122 -6.68651
404 -2.96939 -5.19557 -6.70552
686 -3.66563 -5.21001 -6.00998
447 -3.71826 -4.46089 -6.77218
401 -3.04812 -5.94242 -7.46667
402 -2.21764 -5.17011 -7.46777
690 -2.22334 -5.2882 -5.96147
449 -2.90784 -4.4923 -7.48603
741 -1.53934 -4.55095 -5.96309
408 -1.49245 -5.29816 -6.69435
407 -0.750731 -5.99167 -6.7765
455 -0.79578 -4.53338 -6.6026
745 -0.0902762 -4.52246 -5.85893
411 0.664922 -5.98174 -6.7705
701 1.39934 -5.969 -5.96948
412 -0.0766622 -5.23366 -6.74417
459 0.724496 -4.46116 -6.71935
698 0.677559 -5.283 -5.97076
415 2.23494 -5.94552 -6.76678
416 1.33895 -5.22843 -6.67021
702 2.08485 -5.26841 -6.01575
463 2.07649 -4.46447 -6.65828
419 3.60922 -5.91959 -6.73839
420 2.85447 -5.13707 -6.77896
706 3.68277 -5.18907 -6.07903
753 2.88523 -4.52459 -6.01488
421 4.54737 -5.85508 -7.50819
424 4.50363 -5.16651 -6.71368
422 5.2441 -5.16583 -7.33632
710 5.23376 -5.19784 -5.94156
426 6.69589 -5.2585 -7.52117
428 5.9617 -5.1185 -6.7019
475 6.70918 -4.43864 -6.7557
714 6.73137 -5.1733 -6.00882
430 8.15807 -5.17549 -7.49128
433 -8.89754 -4.56907 -7.53731
431 8.16291 -5.84681 -6.71243
432 7.48739 -5.13269 -6.73762
717 7.45217 -5.82021 -6.01534
388 -8.90491 -5.24268 -6.66676
483 -8.14455 -2.92744 -6.73523
440 -7.44457 -3.82119 -6.71031
436 8.96562 -3.67542 -6.72513
438 -6.6743 -3.79768 -7.43169
444 -5.93131 -3.77367 -6.71063
485 -7.44794 -3.07194 -7.45548
777 -5.97108 -3.07114 -5.87221
493 -4.38285 -3.00705 -7.49581
443 -5.16909 -4.52471 -6.74962
448 -4.5526 -3.66706 -6.7507
491 -5.25135 -3.0117 -6.70331
737 -2.86064 -4.44886 -5.99381
495 -3.75215 -3.00523 -6.70974
734 -3.72557 -3.7512 -5.98951
451 -2.18387 -4.5053 -6.71954
452 -2.978 -3.79323 -6.70086
497 -2.97594 -2.99865 -7.42857
738 -2.23446 -3.72638 -5.96207
785 -3.02994 -2.90933 -5.99702
789 -1.47581 -2.97325 -5.93993
456 -1.4722 -3.70009 -6.71467
460 0.00134982 -3.7738 -6.65469
457 -0.016716 -4.48616 -7.45991
458 0.692535 -3.69978 -7.49828
507 0.699136 -3.01625 -6.60064
746 0.719946 -3.74597 -5.84312
464 1.43122 -3.7104 -6.73328
468 2.87512 -3.7675 -6.7714
511 2.17191 -2.94276 -6.73415
750 2.17349 -3.7464 -5.9617
467 3.64123 -4.49128 -6.77867
472 4.50404 -3.67046 -6.66507
515 3.65348 -3.10213 -6.73681
517 4.50366 -3.05266 -7.46294
757 4.44013 -4.48951 -6.04435
754 3.73666 -3.71239 -5.94438
471 5.17997 -4.39197 -6.68794
758 5.23965 -3.67307 -5.96539
476 5.97316 -3.64201 -6.75404
474 6.75496 -3.75387 -7.5206
480 7.43921 -3.64543 -6.6993
478 8.23938 -3.71925 -7.62583
479 8.33291 -4.44661 -6.68689
527 8.18844 -3.07297 -6.79348
525 7.45585 -2.97453 -7.5224
482 -8.17009 -2.22047 -7.39585
484 8.86486 -2.20663 -6.75049
488 -7.42439 -2.22717 -6.76514
770 -8.1032 -2.25479 -6.00804
486 -6.68927 -2.21129 -7.44658
487 -6.75824 -2.95984 -6.78116
492 -5.97568 -2.35512 -6.67453
535 -6.70399 -1.48093 -6.73317
537 -5.82037 -1.54481 -7.46162
539 -5.27554 -1.60546 -6.71034
496 -4.53054 -2.23974 -6.77387
541 -4.48227 -1.53638 -7.48224
494 -3.70285 -2.25877 -7.55722
782 -3.77954 -2.17118 -5.99456
781 -4.54411 -2.93788 -6.02224
499 -2.1912 -2.92075 -6.6384
500 -3.00904 -2.23635 -6.80927
786 -2.18753 -2.13936 -5.97772
504 -1.46003 -2.1883 -6.75516
503 -0.716555 -2.95075 -6.62426
790 -0.671082 -2.25807 -5.91252
551 -0.70004 -1.52055 -6.69315
509 1.42608 -2.98707 -7.47796
508 0.0149374 -2.26249 -6.66475
510 2.19465 -2.2355 -7.44546
512 1.36395 -2.31017 -6.66698
516 2.9463 -2.29614 -6.72185
797 1.54044 -3.01402 -5.98347
798 2.15158 -2.24285 -5.95966
514 3.65354 -2.27548 -7.47156
520 4.36812 -2.27341 -6.72043
801 2.89028 -3.01816 -5.98056
805 4.34446 -2.94354 -5.94153
802 3.65672 -2.24948 -6.01311
519 5.22338 -2.98311 -6.72596
518 5.25844 -2.27422 -7.50456
806 5.19698 -2.27209 -5.99661
567 5.19504 -1.63101 -6.73183
569 5.92591 -1.49526 -7.4798
522 6.82243 -2.17634 -7.47042
523 6.75844 -2.88665 -6.72655
809 5.98598 -2.93437 -5.95005
524 5.96512 -2.2653 -6.73715
857 6.00968 -1.46056 -5.8965
810 6.72215 -2.2105 -5.956
528 7.51131 -2.23005 -6.6858
526 8.29509 -2.31042 -7.52055
813 7.46891 -3.01591 -5.95642
814 8.24319 -2.27021 -6.00816
531 -8.24926 -1.44838 -6.69676
529 -8.9379 -1.52657 -7.53372
532 -8.9515 -0.684452 -6.75165
536 -7.35536 -0.698618 -6.72961
1761 3.03411 -8.86382 -0.0231308
39 5.2449 -8.97571 -8.20582
540 -5.89266 -0.766031 -6.80821
1721 5.88593 -1.48278 -1.45841
1874 -8.28481 -3.74221 0.0271488
865 -8.88759 -8.95704 -4.53264
544 -4.46891 -0.715681 -6.71484
61 -4.55097 -7.51809 -8.91861
542 -3.77243 -0.773514 -7.50753
545 -2.95319 -1.55011 -7.5296
543 -3.72592 -1.57368 -6.79603
548 -3.0198 -0.789044 -6.82721
833 -3.03954 -1.57546 -6.03787
830 -3.64219 -0.71607 -6.0053
585 -5.97247 -8.97858 -6.00866
547 -2.22928 -1.5211 -6.76262
834 -2.25259 -0.847103 -6.04477
3789 7.51069 -0.0590962 -7.47911
552 -1.48761 -0.766914 -6.71688
838 -0.704995 -0.705987 -6.01582
556 0.108344 -0.76265 -6.84242
837 -1.3829 -1.44906 -5.95984
555 0.834371 -1.46158 -6.71706
841 0.020392 -1.42624 -6.02215
1720 4.57882 -0.734162 -0.776179
560 1.46504 -0.738234 -6.73102
557 1.50569 -1.55746 -7.47058
559 2.21392 -1.49795 -6.66517
558 2.20768 -0.784885 -7.49968
564 2.91207 -0.779282 -6.75251
561 2.92889 -1.53716 -7.40346
563 3.72017 -1.38738 -6.76013
568 4.5317 -0.875719 -6.72353
1724 5.9239 -0.693022 -0.771988
566 5.22404 -0.753292 -7.46381
572 5.93746 -0.82017 -6.72718
571 6.63335 -1.54129 -6.79441
570 6.65346 -0.785747 -7.44911
1993 0.0880113 -1.49842 -0.00751912
911 8.216 -8.92942 -3.7379
285 7.39189 -1.47925 -8.94613
574 8.24396 -0.794576 -7.45143
573 7.52084 -1.4888 -7.4808
575 8.17404 -1.474 -6.74179
213 -1.44925 -2.98255 -8.95422
576 7.37689 -0.742768 -6.81005
862 8.22942 -0.804724 -6.03204
627 -8.12902 -7.42515 -5.16726
584 -7.45951 -8.17413 -5.24668
917 -7.34109 -7.41153 -4.47738
629 -7.40819 -7.4856 -5.98481
631 -6.75711 -7.47402 -5.28919
921 -5.92811 -7.39736 -4.47644
117 -1.57062 -5.98951 -8.93333
1966 8.17307 -2.32965 -0.0828777
588 -5.97451 -8.15001 -5.19992
635 -5.2314 -7.393 -5.22033
874 -5.19284 -8.16404 -4.49204
592 -4.52818 -8.13714 -5.2168
596 -3.07957 -8.21573 -5.22531
878 -3.82501 -8.16995 -4.42409
577 8.8993 -8.92511 -5.94888
600 -1.56405 -8.205 -5.19159
882 -2.29737 -8.21846 -4.37774
189 7.51624 -4.53373 -8.92552
649 -0.0947336 -7.39482 -5.87877
598 -0.750745 -8.24916 -5.86412
647 -0.771357 -7.50436 -5.13622
937 -0.0476756 -7.39225 -4.35637
604 0.0783322 -8.22517 -5.0922
890 0.826174 -8.20152 -4.42549
608 1.48898 -8.21322 -5.20429
655 2.18236 -7.47233 -5.2571
612 2.94969 -8.28679 -5.20597
3747 -8.22523 -0.00128021 -6.76015
610 3.79685 -8.17938 -6.03105
616 4.49615 -8.128 -5.23
657 3.0241 -7.33558 -5.95792
659 3.66959 -7.52535 -5.21965
949 4.47116 -7.5118 -4.486
614 5.22324 -8.18273 -5.92299
661 4.47139 -7.43743 -5.96702
663 5.19178 -7.41881 -5.21762
902 5.20675 -8.21416 -4.51565
618 6.69709 -8.2338 -5.99408
620 5.98773 -8.25025 -5.2549
667 6.74547 -7.47348 -5.26021
624 7.48584 -8.1747 -5.24018
669 7.41351 -7.43495 -6.02462
622 8.17996 -8.14692 -5.91179
580 -8.94636 -8.14567 -5.2995
671 8.23538 -7.44371 -5.18262
4931 3.76728 -0.0455443 -0.775838
626 -8.22657 -6.83913 -6.08479
677 -7.43747 -6.00302 -6.0542
632 -7.43232 -6.72897 -5.27052
673 8.88124 -6.01246 -6.02482
675 -8.21777 -6.09417 -5.29491
630 -6.73999 -6.67841 -6.01134
679 -6.77516 -5.93228 -5.3093
969 -5.9781 -6.0092 -4.41185
636 -5.99244 -6.71855 -5.28975
683 -5.19235 -5.97346 -5.30083
922 -5.22041 -6.66223 -4.55159
639 -3.74402 -7.49904 -5.1621
640 -4.48635 -6.69918 -5.20781
644 -2.99947 -6.73467 -5.2554
687 -3.77146 -5.99257 -5.21113
926 -3.78235 -6.76482 -4.45873
925 -4.54329 -7.42323 -4.43475
643 -2.21107 -7.43315 -5.11532
929 -3.00607 -7.53054 -4.49086
930 -2.30319 -6.76775 -4.43567
648 -1.55218 -6.69444 -5.1043
652 -0.187607 -6.67522 -5.13277
651 0.690563 -7.3749 -5.15947
699 0.755119 -6.08008 -4.9923
985 -0.110048 -6.07102 -4.33495
938 0.642617 -6.71551 -4.362
656 1.46463 -6.6939 -5.32177
703 2.1501 -5.97249 -5.33717
660 2.97315 -6.64341 -5.19513
946 3.77675 -6.72494 -4.47639
707 3.68806 -5.9842 -5.2784
664 4.43858 -6.7539 -5.19996
662 5.16393 -6.74291 -5.95923
997 4.48631 -6.00649 -4.53043
666 6.712 -6.67127 -5.94942
668 6.00246 -6.75106 -5.25456
672 7.40735 -6.66361 -5.31057
625 8.84105 -7.36926 -6.11212
670 8.16887 -6.6774 -6.10945
628 -8.91886 -6.81441 -5.24938
719 8.19131 -5.97024 -5.29975
674 -8.19586 -5.25612 -6.03279
676 -8.89979 -5.287 -5.24352
962 -8.19942 -5.23058 -4.45736
680 -7.50809 -5.2221 -5.30724
1013 -7.47575 -4.41752 -4.54687
678 -6.6749 -5.17245 -5.94127
727 -6.74312 -4.50173 -5.15464
684 -5.98798 -5.29923 -5.21017
966 -6.73261 -5.22332 -4.47371
1017 -5.93619 -4.56438 -4.486
970 -5.20128 -5.26016 -4.5298
973 -4.47408 -5.89247 -4.51481
731 -5.16315 -4.40164 -5.20174
1021 -4.45281 -4.48484 -4.4387
685 -4.43646 -5.96221 -6.00525
688 -4.39195 -5.11053 -5.2942
692 -3.00056 -5.15971 -5.20607
974 -3.77952 -5.22863 -4.48812
689 -2.98243 -5.90858 -6.01047
693 -1.5516 -6.03383 -5.93946
691 -2.2921 -5.98962 -5.20908
696 -1.59399 -5.27675 -5.17484
739 -2.20758 -4.45123 -5.22866
977 -3.03674 -5.88261 -4.49666
978 -2.27984 -5.20529 -4.45525
697 -0.10532 -5.96846 -5.96389
694 -0.847174 -5.31096 -5.95191
695 -0.850648 -5.9287 -5.12448
743 -0.833238 -4.62372 -5.17831
700 0.0132214 -5.31825 -5.14272
986 0.671458 -5.33379 -4.35993
705 2.89737 -5.91372 -6.01047
704 1.39418 -5.32036 -5.22586
708 2.86083 -5.24914 -5.27698
994 3.74714 -5.28297 -4.53678
709 4.47471 -5.92389 -6.03621
711 5.19352 -5.95856 -5.31938
712 4.43704 -5.22665 -5.31867
716 5.97135 -5.23914 -5.27537
759 5.23416 -4.43211 -5.24299
998 5.17171 -5.24696 -4.53474
715 6.73911 -5.97254 -5.23687
720 7.4718 -5.14136 -5.24601
765 7.5038 -4.46593 -6.00003
718 8.29624 -5.21181 -5.96487
767 8.19079 -4.47149 -5.20899
725 -7.49112 -4.47259 -5.94847
722 -8.18905 -3.67224 -6.00611
723 -8.21464 -4.4679 -5.21178
728 -7.45817 -3.76517 -5.25888
724 -8.94838 -3.68452 -5.21445
726 -6.6567 -3.79965 -5.93179
732 -5.97846 -3.75821 -5.09678
775 -6.78536 -2.98157 -5.17266
730 -5.23752 -3.74886 -5.93537
736 -4.38556 -3.75644 -5.23483
779 -5.12152 -3.00767 -5.14693
735 -3.68775 -4.41065 -5.16443
1022 -3.74779 -3.77113 -4.44234
740 -2.87308 -3.71194 -5.15381
783 -3.66981 -2.9719 -5.19408
1025 -2.99089 -4.54747 -4.43246
1069 -4.47821 -2.99369 -4.40963
1026 -2.14815 -3.78372 -4.42087
742 -0.767186 -3.75517 -5.87369
744 -1.5295 -3.77572 -5.17403
791 -0.823711 -2.98412 -5.18056
1029 -1.47518 -4.55773 -4.44502
1077 -1.53686 -2.85868 -4.52014
1030 -0.770072 -3.7826 -4.43563
747 0.747019 -4.53825 -5.19258
1033 -0.0144944 -4.57658 -4.53574
748 -0.0194911 -3.66755 -5.17521
1037 1.4614 -4.60128 -4.50204
1034 0.749168 -3.77113 -4.50186
749 1.37993 -4.52021 -5.91392
751 2.17941 -4.43706 -5.29463
1041 2.94742 -4.59345 -4.48151
752 1.46044 -3.63152 -5.21678
1038 2.24065 -3.83528 -4.53436
755 3.67021 -4.48288 -5.27889
756 2.9098 -3.69599 -5.25064
760 4.4958 -3.71417 -5.23481
1042 3.68246 -3.80554 -4.59192
1089 2.92515 -3.02634 -4.46598
761 5.96642 -4.41035 -5.99627
764 5.96953 -3.68446 -5.26255
1045 4.49883 -4.5279 -4.58441
1046 5.22005 -3.69059 -4.5122
762 6.76274 -3.67467 -5.89796
763 6.64958 -4.43664 -5.22545
1050 6.72173 -3.75434 -4.44681
721 -8.90072 -4.36637 -5.92922
768 7.48752 -3.8467 -5.18768
766 8.17004 -3.71395 -5.97058
815 8.16751 -2.99325 -5.29759
769 -8.96622 -2.97447 -6.02618
771 -8.16399 -3.00336 -5.30917
776 -7.46935 -2.17769 -5.22996
819 -8.25525 -1.43871 -5.25844
821 -7.43272 -1.41592 -5.95442
1058 -8.19921 -2.15725 -4.57078
773 -7.37811 -3.05053 -6.01214
774 -6.75438 -2.24436 -5.99619
825 -6.05961 -1.49414 -6.0023
780 -5.99989 -2.25972 -5.27375
823 -6.71894 -1.49231 -5.24058
778 -5.2003 -2.24666 -5.94918
829 -4.45494 -1.44545 -6.06351
827 -5.24642 -1.57174 -5.239
1066 -5.24346 -2.27152 -4.49921
784 -4.47758 -2.23679 -5.25263
1117 -4.52342 -1.48143 -4.45762
831 -3.76 -1.48366 -5.25283
1073 -3.01 -2.92178 -4.4956
788 -2.92246 -2.19696 -5.17765
787 -2.1697 -2.87832 -5.23842
1074 -2.24409 -2.16027 -4.4304
792 -1.49814 -2.09558 -5.20536
839 -0.713834 -1.46253 -5.24699
793 -0.0213614 -3.01287 -5.98362
1081 -0.0819768 -2.9319 -4.4072
1078 -0.789259 -2.1862 -4.43059
1125 -1.48423 -1.41891 -4.48394
795 0.731453 -2.96232 -5.05476
794 0.725628 -2.21513 -5.95829
796 0.0266138 -2.24721 -5.23975
1082 0.726872 -2.22058 -4.41371
849 2.9387 -1.56076 -5.96871
799 2.23779 -3.00735 -5.22979
800 1.43746 -2.20959 -5.24568
804 2.92128 -2.29612 -5.19493
803 3.70293 -3.04015 -5.16461
1090 3.68804 -2.28433 -4.43026
808 4.4393 -2.28501 -5.20081
851 3.70216 -1.50329 -5.23881
1093 4.49255 -3.05917 -4.46869
807 5.1815 -2.94637 -5.23484
855 5.22318 -1.53209 -5.31881
1094 5.16044 -2.24937 -4.46486
812 5.95341 -2.24806 -5.18561
811 6.71094 -2.924 -5.1425
859 6.70565 -1.43553 -5.23694
1098 6.75576 -2.16706 -4.47374
816 7.47991 -2.16568 -5.26072
772 8.96551 -2.25883 -5.24012
817 8.9106 -1.48108 -6.03734
818 -8.22399 -0.716021 -6.01851
824 -7.53517 -0.777005 -5.23493
1765 4.47148 -8.95118 -0.030331
822 -6.67309 -0.720409 -5.95175
1738 -5.2691 -8.25486 0.000481292
1110 -6.68098 -0.796204 -4.45034
826 -5.16767 -0.725208 -5.96017
145 -8.87089 -4.39646 -8.98206
828 -5.95393 -0.816851 -5.24726
1716 2.95849 -0.777273 -0.801576
832 -4.51412 -0.72296 -5.20053
1118 -3.79933 -0.739154 -4.52993
4037 -7.47229 0.00161866 -6.04012
836 -2.98104 -0.715078 -5.21014
835 -2.22436 -1.41986 -5.26768
840 -1.47317 -0.734689 -5.23934
1121 -3.08005 -1.5071 -4.49414
1122 -2.17474 -0.631391 -4.45511
844 0.0399745 -0.73448 -5.21723
1126 -0.641481 -0.725445 -4.43755
842 0.765833 -0.803545 -6.00472
843 0.742032 -1.47754 -5.20161
1130 0.646274 -0.656807 -4.50665
846 2.22372 -0.749192 -5.9522
1133 1.49121 -1.55503 -4.4778
847 2.22685 -1.45837 -5.22174
848 1.45974 -0.774982 -5.03631
845 1.52361 -1.50127 -5.9394
1134 2.25121 -0.759945 -4.45997
852 3.02593 -0.744341 -5.26889
850 3.70286 -0.699933 -5.95998
1138 3.68408 -0.770965 -4.54554
853 4.3996 -1.51573 -5.99794
854 5.23775 -0.856901 -5.99847
856 4.4841 -0.811291 -5.25623
1142 5.25354 -0.808779 -4.53305
1821 7.48039 -7.47149 -0.0377435
860 5.97254 -0.636034 -5.22671
858 6.71734 -0.702576 -5.96078
1145 5.92575 -1.51375 -4.51083
1146 6.7143 -0.758098 -4.50947
861 7.42336 -1.50224 -6.04355
1917 7.48093 -4.47406 -0.015054
863 8.23939 -1.45144 -5.25441
820 -8.95955 -0.737878 -5.20303
864 7.46768 -0.798736 -5.27626
1150 8.20687 -0.798709 -4.57349
4615 -6.65425 -0.041894 -2.2343
262 -0.611053 -0.828459 -8.93134
3783 5.16927 -0.0861348 -6.66538
866 -8.21403 -8.23495 -4.46702
868 -8.93623 -8.19303 -3.76667
870 -6.6613 -8.22375 -4.49429
872 -7.43687 -8.17065 -3.75825
1158 -6.75873 -8.2305 -2.94062
4337 -2.96583 -0.0363025 -4.46045
1977 -5.9612 -1.4554 0.0043129
3491 3.72332 -0.0127834 -8.15028
876 -5.88048 -8.18255 -3.79908
1162 -5.29639 -8.25978 -2.94857
923 -5.23549 -7.48294 -3.67435
4651 6.72528 -0.0535863 -2.25118
1850 0.77929 -5.18734 0.00392621
335 8.2158 -8.95015 -6.72984
880 -4.46001 -8.18646 -3.70668
1166 -3.75413 -8.3038 -2.96587
884 -3.09712 -8.20955 -3.66386
303 -3.7206 -8.88952 -6.65987
3463 -6.67269 -0.0618821 -8.18171
888 -1.55013 -8.26032 -3.71874
931 -2.23568 -7.48155 -3.66736
1170 -2.32939 -8.24596 -2.88506
886 -0.770211 -8.28849 -4.377
1174 -0.824876 -8.29626 -2.94216
125 1.50346 -5.97105 -8.89802
892 -0.0464392 -8.19579 -3.7839
939 0.752244 -7.44314 -3.69258
1178 0.6686 -8.15597 -3.01817
1225 -0.0399964 -7.45588 -2.93112
894 2.18632 -8.19774 -4.459
896 1.46349 -8.21831 -3.63801
943 2.18836 -7.4983 -3.65204
900 2.96024 -8.15551 -3.7095
898 3.69499 -8.19882 -4.45627
947 3.73938 -7.46624 -3.6413
1237 4.50988 -7.43269 -2.9547
904 4.48857 -8.23041 -3.75948
908 5.99868 -8.20371 -3.74302
951 5.24395 -7.48253 -3.77016
3475 -2.30865 -0.0205168 -8.21941
906 6.68998 -8.16267 -4.51284
957 7.50174 -7.43476 -4.48216
955 6.68446 -7.41128 -3.8017
3781 4.45394 -0.0145927 -7.46504
910 8.24734 -8.18603 -4.54788
913 -8.9143 -7.41816 -4.44149
912 7.47679 -8.10742 -3.7194
959 8.25976 -7.47932 -3.77462
1889 -3.10125 -4.50818 0.0139524
914 -8.18196 -6.71445 -4.4509
965 -7.40446 -5.96309 -4.45828
915 -8.22932 -7.50142 -3.78285
963 -8.18342 -5.97346 -3.74287
916 -8.91295 -6.67785 -3.7267
1202 -8.17217 -6.73888 -2.87709
918 -6.69397 -6.65802 -4.49561
1205 -7.40227 -7.4507 -3.05642
919 -6.64827 -7.46814 -3.73282
920 -7.45376 -6.64994 -3.69421
924 -5.88504 -6.75333 -3.71762
1213 -4.52589 -7.47038 -3.02605
928 -4.45505 -6.73351 -3.72344
927 -3.7323 -7.47045 -3.67254
932 -3.08602 -6.6624 -3.71166
1214 -3.76755 -6.78476 -2.9465
933 -1.53115 -7.452 -4.40621
1217 -3.04716 -7.53162 -2.94701
1218 -2.33189 -6.74309 -2.98162
936 -1.58253 -6.76398 -3.68165
934 -0.838029 -6.74979 -4.36029
935 -0.794909 -7.51051 -3.65164
983 -0.848429 -5.93133 -3.64356
1269 -1.66134 -6.01894 -2.87101
941 1.41814 -7.43356 -4.51017
940 -0.0550607 -6.69136 -3.58093
1273 -0.0320971 -5.97131 -2.8846
987 0.659936 -6.07156 -3.66326
1226 0.701226 -6.66208 -2.95664
989 1.4986 -6.0315 -4.38863
944 1.54588 -6.75811 -3.72912
1277 1.40032 -5.92566 -2.99557
942 2.16179 -6.71916 -4.55025
991 2.18091 -5.91057 -3.65058
1229 1.47575 -7.54801 -2.94172
1230 2.14866 -6.67865 -2.91516
945 3.0207 -7.37422 -4.49114
948 2.88737 -6.69327 -3.69078
1281 2.95207 -5.9943 -2.97434
952 4.56676 -6.70054 -3.78211
995 3.72647 -5.96919 -3.81574
950 5.26011 -6.69202 -4.57978