ITEM: TIMESTEP
0
ITEM: NUMBER OF ATOMS
6912
ITEM: BOX BOUNDS pp pp pp
-8.9628094931143298e+00 8.9628094931143298e+00
-8.9628094931143298e+00 8.9628094931143298e+00
-8.9628094931143298e+00 8.9628094931143298e+00
ITEM: ATOMS id x y z
1 -8.96281 -8.96281 -8.96281
2 -8.21591 -8.21591 -8.96281
3 -8.21591 -8.96281 -8.21591
4 -8.96281 -8.21591 -8.21591
5 -7.46901 -8.96281 -8.96281
6 -6.72211 -8.21591 -8.96281
7 -6.72211 -8.96281 -8.21591
8 -7.46901 -8.21591 -8.21591
9 -5.97521 -8.96281 -8.96281
10 -5.22831 -8.21591 -8.96281
11 -5.22831 -8.96281 -8.21591
12 -5.97521 -8.21591 -8.21591
13 -4.4814 -8.96281 -8.96281
14 -3.7345 -8.21591 -8.96281
15 -3.7345 -8.96281 -8.21591
16 -4.4814 -8.21591 -8.21591
17 -2.9876 -8.96281 -8.96281
18 -2.2407 -8.21591 -8.96281
19 -2.2407 -8.96281 -8.21591
20 -2.9876 -8.21591 -8.21591
21 -1.4938 -8.96281 -8.96281
22 -0.746901 -8.21591 -8.96281
23 -0.746901 -8.96281 -8.21591
24 -1.4938 -8.21591 -8.21591
25 0 -8.96281 -8.96281
26 0.746901 -8.21591 -8.96281
27 0.746901 -8.96281 -8.21591
28 0 -8.21591 -8.21591
29 1.4938 -8.96281 -8.96281
30 2.2407 -8.21591 -8.96281
31 2.2407 -8.96281 -8.21591
32 1.4938 -8.21591 -8.21591
33 2.9876 -8.96281 -8.96281
34 3.7345 -8.21591 -8.96281
35 3.7345 -8.96281 -8.21591
36 2.9876 -8.21591 -8.21591
37 4.4814 -8.96281 -8.96281
38 5.22831 -8.21591 -8.96281
39 5.22831 -8.96281 -8.21591
40 4.4814 -8.21591 -8.21591
41 5.97521 -8.96281 -8.96281
42 6.72211 -8.21591 -8.96281
43 6.72211 -8.96281 -8.21591
44 5.97521 -8.21591 -8.21591
45 7.46901 -8.96281 -8.96281
46 8.21591 -8.21591 -8.96281
47 8.21591 -8.96281 -8.21591
48 7.46901 -8.21591 -8.21591
49 -8.96281 -7.46901 -8.96281
50 -8.21591 -6.72211 -8.96281
51 -8.21591 -7.46901 -8.21591
52 -8.96281 -6.72211 -8.21591
53 -7.46901 -7.46901 -8.96281
54 -6.72211 -6.72211 -8.96281
55 -6.72211 -7.46901 -8.21591
56 -7.46901 -6.72211 -8.21591
57 -5.97521 -7.46901 -8.96281
58 -5.22831 -6.72211 -8.96281
59 -5.22831 -7.46901 -8.21591
60 -5.97521 -6.72211 -8.21591
61 -4.4814 -7.46901 -8.96281
62 -3.7345 -6.72211 -8.96281
63 -3.7345 -7.46901 -8.21591
64 -4.4814 -6.72211 -8.21591
65 -2.9876 -7.46901 -8.96281
66 -2.2407 -6.72211 -8.96281
67 -2.2407 -7.46901 -8.21591
68 -2.9876 -6.72211 -8.21591
69 -1.4938 -7.46901 -8.96281
70 -0.746901 -6.72211 -8.96281
71 -0.746901 -7.46901 -8.21591
72 -1.4938 -6.72211 -8.21591
73 0 -7.46901 -8.96281
74 0.746901 -6.72211 -8.96281
75 0.746901 -7.46901 -8.21591
76 0 -6.72211 -8.21591
77 1.4938 -7.46901 -8.96281
78 2.2407 -6.72211 -8.96281
79 2.2407 -7.46901 -8.21591
80 1.4938 -6.72211 -8.21591
81 2.9876 -7.46901 -8.96281
82 3.7345 -6.72211 -8.96281
83 3.7345 -7.46901 -8.21591
84 2.9876 -6.72211 -8.21591
85 4.4814 -7.46901 -8.96281
86 5.22831 -6.72211 -8.96281
87 5.22831 -7.46901 -8.21591
88 4.4814 -6.72211 -8.21591
89 5.97521 -7.46901 -8.96281
90 6.72211 -6.72211 -8.96281
91 6.72211 -7.46901 -8.21591
92 5.97521 -6.72211 -8.21591
93 7.46901 -7.46901 -8.96281
94 8.21591 -6.72211 -8.96281
95 8.21591 -7.46901 -8.21591
96 7.46901 -6.72211 -8.21591
97 -8.96281 -5.97521 -8.96281
98 -8.21591 -5.22831 -8.96281
99 -8.21591 -5.97521 -8.21591
100 -8.96281 -5.22831 -8.21591
101 -7.46901 -5.97521 -8.96281
102 -6.72211 -5.22831 -8.96281
103 -6.72211 -5.97521 -8.21591
104 -7.46901 -5.22831 -8.21591
105 -5.97521 -5.97521 -8.96281
106 -5.22831 -5.22831 -8.96281
107 -5.22831 -5.97521 -8.21591
108 -5.97521 -5.22831 -8.21591
109 -4.4814 -5.97521 -8.96281
110 -3.7345 -5.22831 -8.96281
111 -3.7345 -5.97521 -8.21591
112 -4.4814 -5.22831 -8.21591
113 -2.9876 -5.97521 -8.96281
114 -2.2407 -5.22831 -8.96281
115 -2.2407 -5.97521 -8.21591
116 -2.9876 -5.22831 -8.21591
117 -1.4938 -5.97521 -8.96281
118 -0.746901 -5.22831 -8.96281
119 -0.746901 -5.97521 -8.21591
120 -1.4938 -5.22831 -8.21591
121 0 -5.97521 -8.96281
122 0.746901 -5.22831 -8.96281
123 0.746901 -5.97521 -8.21591
124 0 -5.22831 -8.21591
125 1.4938 -5.97521 -8.96281
126 2.2407 -5.22831 -8.96281
127 2.2407 -5.97521 -8.21591
128 1.4938 -5.22831 -8.21591
129 2.9876 -5.97521 -8.96281
130 3.7345 -5.22831 -8.96281
131 3.7345 -5.97521 -8.21591
132 2.9876 -5.22831 -8.21591
133 4.4814 -5.97521 -8.96281
134 5.22831 -5.22831 -8.96281
135 5.22831 -5.97521 -8.21591
136 4.4814 -5.22831 -8.21591
137 5.97521 -5.97521 -8.96281
138 6.72211 -5.22831 -8.96281
139 6.72211 -5.97521 -8.21591
140 5.97521 -5.22831 -8.21591
141 7.46901 -5.97521 -8.96281
142 8.21591 -5.22831 -8.96281
143 8.21591 -5.97521 -8.21591
144 7.46901 -5.22831 -8.21591
145 -8.96281 -4.4814 -8.96281
146 -8.21591 -3.7345 -8.96281
147 -8.21591 -4.4814 -8.21591
148 -8.96281 -3.7345 -8.21591
149 -7.46901 -4.4814 -8.96281
150 -6.72211 -3.7345 -8.96281
151 -6.72211 -4.4814 -8.21591
152 -7.46901 -3.7345 -8.21591
153 -5.97521 -4.4814 -8.96281
154 -5.22831 -3.7345 -8.96281
155 -5.22831 -4.4814 -8.21591
156 -5.97521 -3.7345 -8.21591
157 -4.4814 -4.4814 -8.96281
158 -3.7345 -3.7345 -8.96281
159 -3.7345 -4.4814 -8.21591
160 -4.4814 -3.7345 -8.21591
161 -2.9876 -4.4814 -8.96281
162 -2.2407 -3.7345 -8.96281
163 -2.2407 -4.4814 -8.21591
164 -2.9876 -3.7345 -8.21591
165 -1.4938 -4.4814 -8.96281
166 -0.746901 -3.7345 -8.96281
167 -0.746901 -4.4814 -8.21591
168 -1.4938 -3.7345 -8.21591
169 0 -4.4814 -8.96281
170 0.746901 -3.7345 -8.96281
171 0.746901 -4.4814 -8.21591
172 0 -3.7345 -8.21591
173 1.4938 -4.4814 -8.96281
174 2.2407 -3.7345 -8.96281
175 2.2407 -4.4814 -8.21591
176 1.4938 -3.7345 -8.21591
177 2.9876 -4.4814 -8.96281
178 3.7345 -3.7345 -8.96281
179 3.7345 -4.4814 -8.21591
180 2.9876 -3.7345 -8.21591
181 4.4814 -4.4814 -8.96281
182 5.22831 -3.7345 -8.96281
183 5.22831 -4.4814 -8.21591
184 4.4814 -3.7345 -8.21591
185 5.97521 -4.4814 -8.96281
186 6.72211 -3.7345 -8.96281
187 6.72211 -4.4814 -8.21591
188 5.97521 -3.7345 -8.21591
189 7.46901 -4.4814 -8.96281
190 8.21591 -3.7345 -8.96281
191 8.21591 -4.4814 -8.21591
192 7.46901 -3.7345 -8.21591
193 -8.96281 -2.9876 -8.96281
194 -8.21591 -2.2407 -8.96281
195 -8.21591 -2.9876 -8.21591
196 -8.96281 -2.2407 -8.21591
197 -7.46901 -2.9876 -8.96281
198 -6.72211 -2.2407 -8.96281
199 -6.72211 -2.9876 -8.21591
200 -7.46901 -2.2407 -8.21591
201 -5.97521 -2.9876 -8.96281
202 -5.22831 -2.2407 -8.96281
203 -5.22831 -2.9876 -8.21591
204 -5.97521 -2.2407 -8.21591
205 -4.4814 -2.9876 -8.96281
206 -3.7345 -2.2407 -8.96281
207 -3.7345 -2.9876 -8.21591
208 -4.4814 -2.2407 -8.21591
209 -2.9876 -2.9876 -8.96281
210 -2.2407 -2.2407 -8.96281
211 -2.2407 -2.9876 -8.21591
212 -2.9876 -2.2407 -8.21591
213 -1.4938 -2.9876 -8.96281
214 -0.746901 -2.2407 -8.96281
215 -0.746901 -2.9876 -8.21591
216 -1.4938 -2.2407 -8.21591
217 0 -2.9876 -8.96281
218 0.746901 -2.2407 -8.96281
219 0.746901 -2.9876 -8.21591
220 0 -2.2407 -8.21591
221 1.4938 -2.9876 -8.96281
222 2.2407 -2.2407 -8.96281
223 2.2407 -2.9876 -8.21591
224 1.4938 -2.2407 -8.21591
225 2.9876 -2.9876 -8.96281
226 3.7345 -2.2407 -8.96281
227 3.7345 -2.9876 -8.21591
228 2.9876 -2.2407 -8.21591
229 4.4814 -2.9876 -8.96281
230 5.22831 -2.2407 -8.96281
231 5.22831 -2.9876 -8.21591
232 4.4814 -2.2407 -8.21591
233 5.97521 -2.9876 -8.96281
234 6.72211 -2.2407 -8.96281
235 6.72211 -2.9876 -8.21591
236 5.97521 -2.2407 -8.21591
237 7.46901 -2.9876 -8.96281
238 8.21591 -2.2407 -8.96281
239 8.21591 -2.9876 -8.21591
240 7.46901 -2.2407 -8.21591
241 -8.96281 -1.4938 -8.96281
242 -8.21591 -0.746901 -8.96281
243 -8.21591 -1.4938 -8.21591
244 -8.96281 -0.746901 -8.21591
245 -7.46901 -1.4938 -8.96281
246 -6.72211 -0.746901 -8.96281
247 -6.72211 -1.4938 -8.21591
248 -7.46901 -0.746901 -8.21591
249 -5.97521 -1.4938 -8.96281
250 -5.22831 -0.746901 -8.96281
251 -5.22831 -1.4938 -8.21591
252 -5.97521 -0.746901 -8.21591
253 -4.4814 -1.4938 -8.96281
254 -3.7345 -0.746901 -8.96281
255 -3.7345 -1.4938 -8.21591
256 -4.4814 -0.746901 -8.21591
257 -2.9876 -1.4938 -8.96281
258 -2.2407 -0.746901 -8.96281
259 -2.2407 -1.4938 -8.21591
260 -2.9876 -0.746901 -8.21591
261 -1.4938 -1.4938 -8.96281
262 -0.746901 -0.746901 -8.96281
263 -0.746901 -1.4938 -8.21591
264 -1.4938 -0.746901 -8.21591
265 0 -1.4938 -8.96281
266 0.746901 -0.746901 -8.96281
267 0.746901 -1.4938 -8.21591
268 0 -0.746901 -8.21591
269 1.4938 -1.4938 -8.96281
270 2.2407 -0.746901 -8.96281
271 2.2407 -1.4938 -8.21591
272 1.4938 -0.746901 -8.21591
273 2.9876 -1.4938 -8.96281
274 3.7345 -0.746901 -8.96281
275 3.7345 -1.4938 -8.21591
276 2.9876 -0.746901 -8.21591
277 4.4814 -1.4938 -8.96281
278 5.22831 -0.746901 -8.96281
279 5.22831 -1.4938 -8.21591
280 4.4814 -0.746901 -8.21591
281 5.97521 -1.4938 -8.96281
282 6.72211 -0.746901 -8.96281
283 6.72211 -1.4938 -8.21591
284 5.97521 -0.746901 -8.21591
285 7.46901 -1.4938 -8.96281
286 8.21591 -0.746901 -8.96281
287 8.21591 -1.4938 -8.21591
288 7.46901 -0.746901 -8.21591
289 -8.96281 -8.96281 -7.46901
290 -8.21591 -8.21591 -7.46901
291 -8.21591 -8.96281 -6.72211
292 -8.96281 -8.21591 -6.72211
293 -7.46901 -8.96281 -7.46901
294 -6.72211 -8.21591 -7.46901
295 -6.72211 -8.96281 -6.72211
296 -7.46901 -8.21591 -6.72211
297 -5.97521 -8.96281 -7.46901
298 -5.22831 -8.21591 -7.46901
299 -5.22831 -8.96281 -6.72211
300 -5.97521 -8.21591 -6.72211
301 -4.4814 -8.96281 -7.46901
302 -3.7345 -8.21591 -7.46901
303 -3.7345 -8.96281 -6.72211
304 -4.4814 -8.21591 -6.72211
305 -2.9876 -8.96281 -7.46901
306 -2.2407 -8.21591 -7.46901
307 -2.2407 -8.96281 -6.72211
308 -2.9876 -8.21591 -6.72211
309 -1.4938 -8.96281 -7.46901
310 -0.746901 -8.21591 -7.46901
311 -0.746901 -8.96281 -6.72211
312 -1.4938 -8.21591 -6.72211
313 0 -8.96281 -7.46901
314 0.746901 -8.21591 -7.46901
315 0.746901 -8.96281 -6.72211
316 0 -8.21591 -6.72211
317 1.4938 -8.96281 -7.46901
318 2.2407 -8.21591 -7.46901
319 2.2407 -8.96281 -6.72211
320 1.4938 -8.21591 -6.72211
321 2.9876 -8.96281 -7.46901
322 3.7345 -8.21591 -7.46901
323 3.7345 -8.96281 -6.72211
324 2.9876 -8.21591 -6.72211
325 4.4814 -8.96281 -7.46901
326 5.22831 -8.21591 -7.46901
327 5.22831 -8.96281 -6.72211
328 4.4814 -8.21591 -6.72211
329 5.97521 -8.96281 -7.46901
330 6.72211 -8.21591 -7.46901
331 6.72211 -8.96281 -6.72211
332 5.97521 -8.21591 -6.72211
333 7.46901 -8.96281 -7.46901
334 8.21591 -8.21591 -7.46901
335 8.21591 -8.96281 -6.72211
336 7.46901 -8.21591 -6.72211
337 -8.96281 -7.46901 -7.46901
338 -8.21591 -6.72211 -7.46901
339 -8.21591 -7.46901 -6.72211
340 -8.96281 -6.72211 -6.72211
341 -7.46901 -7.46901 -7.46901
342 -6.72211 -6.72211 -7.46901
343 -6.72211 -7.46901 -6.72211
344 -7.46901 -6.72211 -6.72211
345 -5.97521 -7.46901 -7.46901
346 -5.22831 -6.72211 -7.46901
347 -5.22831 -7.46901 -6.72211
348 -5.97521 -6.72211 -6.72211
349 -4.4814 -7.46901 -7.46901
350 -3.7345 -6.72211 -7.46901
351 -3.7345 -7.46901 -6.72211
352 -4.4814 -6.72211 -6.72211
353 -2.9876 -7.46901 -7.46901
354 -2.2407 -6.72211 -7.46901
355 -2.2407 -7.46901 -6.72211
356 -2.9876 -6.72211 -6.72211
357 -1.4938 -7.46901 -7.46901
358 -0.746901 -6.72211 -7.46901
359 -0.746901 -7.46901 -6.72211
360 -1.4938 -6.72211 -6.72211
361 0 -7.46901 -7.46901
362 0.746901 -6.72211 -7.46901
363 0.746901 -7.46901 -6.72211
364 0 -6.72211 -6.72211
365 1.4938 -7.46901 -7.46901
366 2.2407 -6.72211 -7.46901
367 2.2407 -7.46901 -6.72211
368 1.4938 -6.72211 -6.72211
369 2.9876 -7.46901 -7.46901
370 3.7345 -6.72211 -7.46901
371 3.7345 -7.46901 -6.72211
372 2.9876 -6.72211 -6.72211
373 4.4814 -7.46901 -7.46901
374 5.22831 -6.72211 -7.46901
375 5.22831 -7.46901 -6.72211
376 4.4814 -6.72211 -6.72211
377 5.97521 -7.46901 -7.46901
378 6.72211 -6.72211 -7.46901
379 6.72211 -7.46901 -6.72211
380 5.97521 -6.72211 -6.72211
381 7.46901 -7.46901 -7.46901
382 8.21591 -6.72211 -7.46901
383 8.21591 -7.46901 -6.72211
384 7.46901 -6.72211 -6.72211
385 -8.96281 -5.97521 -7.46901
386 -8.21591 -5.22831 -7.46901
387 -8.21591 -5.97521 -6.72211
388 -8.96281 -5.22831 -6.72211
389 -7.46901 -5.97521 -7.46901
390 -6.72211 -5.22831 -7.46901
391 -6.72211 -5.97521 -6.72211
392 -7.46901 -5.22831 -6.72211
393 -5.97521 -5.97521 -7.46901
394 -5.22831 -5.22831 -7.46901
395 -5.22831 -5.97521 -6.72211
396 -5.97521 -5.22831 -6.72211
397 -4.4814 -5.97521 -7.46901
398 -3.7345 -5.22831 -7.46901
399 -3.7345 -5.97521 -6.72211
400 -4.4814 -5.22831 -6.72211
401 -2.9876 -5.97521 -7.46901
402 -2.2407 -5.22831 -7.46901
403 -2.2407 -5.97521 -6.72211
404 -2.9876 -5.22831 -6.72211
405 -1.4938 -5.97521 -7.46901
406 -0.746901 -5.22831 -7.46901
407 -0.746901 -5.97521 -6.72211
408 -1.4938 -5.22831 -6.72211
409 0 -5.97521 -7.46901
410 0.746901 -5.22831 -7.46901
411 0.746901 -5.97521 -6.72211
412 0 -5.22831 -6.72211
413 1.4938 -5.97521 -7.46901
414 2.2407 -5.22831 -7.46901
415 2.2407 -5.97521 -6.72211
416 1.4938 -5.22831 -6.72211
417 2.9876 -5.97521 -7.46901
418 3.7345 -5.22831 -7.46901
419 3.7345 -5.97521 -6.72211
420 2.9876 -5.22831 -6.72211
421 4.4814 -5.97521 -7.46901
422 5.22831 -5.22831 -7.46901
423 5.22831 -5.97521 -6.72211
424 4.4814 -5.22831 -6.72211
425 5.97521 -5.97521 -7.46901
426 6.72211 -5.22831 -7.46901
427 6.72211 -5.97521 -6.72211
428 5.97521 -5.22831 -6.72211
429 7.46901 -5.97521 -7.46901
430 8.21591 -5.22831 -7.46901
431 8.21591 -5.97521 -6.72211
432 7.46901 -5.22831 -6.72211
433 -8.96281 -4.4814 -7.46901
434 -8.21591 -3.7345 -7.46901
435 -8.21591 -4.4814 -6.72211
436 -8.96281 -3.7345 -6.72211
437 -7.46901 -4.4814 -7.46901
438 -6.72211 -3.7345 -7.46901
439 -6.72211 -4.4814 -6.72211
440 -7.46901 -3.7345 -6.72211
441 -5.97521 -4.4814 -7.46901
442 -5.22831 -3.7345 -7.46901
443 -5.22831 -4.4814 -6.72211
444 -5.97521 -3.7345 -6.72211
445 -4.4814 -4.4814 -7.46901
446 -3.7345 -3.7345 -7.46901
447 -3.7345 -4.4814 -6.72211
448 -4.4814 -3.7345 -6.72211
449 -2.9876 -4.4814 -7.46901
450 -2.2407 -3.7345 -7.46901
451 -2.2407 -4.4814 -6.72211
452 -2.9876 -3.7345 -6.72211
453 -1.4938 -4.4814 -7.46901
454 -0.746901 -3.7345 -7.46901
455 -0.746901 -4.4814 -6.72211
456 -1.4938 -3.7345 -6.72211
457 0 -4.4814 -7.46901
458 0.746901 -3.7345 -7.46901
459 0.746901 -4.4814 -6.72211
460 0 -3.7345 -6.72211
461 1.4938 -4.4814 -7.46901
462 2.2407 -3.7345 -7.46901
463 2.2407 -4.4814 -6.72211
464 1.4938 -3.7345 -6.72211
465 2.9876 -4.4814 -7.46901
466 3.7345 -3.7345 -7.46901
467 3.7345 -4.4814 -6.72211
468 2.9876 -3.7345 -6.72211
469 4.4814 -4.4814 -7.46901
470 5.22831 -3.7345 -7.46901
471 5.22831 -4.4814 -6.72211
472 4.4814 -3.7345 -6.72211
473 5.97521 -4.4814 -7.46901
474 6.72211 -3.7345 -7.46901
475 6.72211 -4.4814 -6.72211
476 5.97521 -3.7345 -6.72211
477 7.46901 -4.4814 -7.46901
478 8.21591 -3.7345 -7.46901
479 8.21591 -4.4814 -6.72211
480 7.46901 -3.7345 -6.72211
481 -8.96281 -2.9876 -7.46901
482 -8.21591 -2.2407 -7.46901
483 -8.21591 -2.9876 -6.72211
484 -8.96281 -2.2407 -6.72211
485 -7.46901 -2.9876 -7.46901
486 -6.72211 -2.2407 -7.46901
487 -6.72211 -2.9876 -6.72211
488 -7.46901 -2.2407 -6.72211
489 -5.97521 -2.9876 -7.46901
490 -5.22831 -2.2407 -7.46901
491 -5.22831 -2.9876 -6.72211
492 -5.97521 -2.2407 -6.72211
493 -4.4814 -2.9876 -7.46901
494 -3.7345 -2.2407 -7.46901
495 -3.7345 -2.9876 -6.72211
496 -4.4814 -2.2407 -6.72211
497 -2.9876 -2.9876 -7.46901
498 -2.2407 -2.2407 -7.46901
499 -2.2407 -2.9876 -6.72211
500 -2.9876 -2.2407 -6.72211
501 -1.4938 -2.9876 -7.46901
502 -0.746901 -2.2407 -7.46901
503 -0.746901 -2.9876 -6.72211
504 -1.4938 -2.2407 -6.72211
505 0 -2.9876 -7.46901
506 0.746901 -2.2407 -7.46901
507 0.746901 -2.9876 -6.72211
508 0 -2.2407 -6.72211
509 1.4938 -2.9876 -7.46901
510 2.2407 -2.2407 -7.46901
511 2.2407 -2.9876 -6.72211
512 1.4938 -2.2407 -6.72211
513 2.9876 -2.9876 -7.46901
514 3.7345 -2.2407 -7.46901
515 3.7345 -2.9876 -6.72211
516 2.9876 -2.2407 -6.72211
517 4.4814 -2.9876 -7.46901
518 5.22831 -2.2407 -7.46901
519 5.22831 -2.9876 -6.72211
520 4.4814 -2.2407 -6.72211
521 5.97521 -2.9876 -7.46901
522 6.72211 -2.2407 -7.46901
523 6.72211 -2.9876 -6.72211
524 5.97521 -2.2407 -6.72211
525 7.46901 -2.9876 -7.46901
526 8.21591 -2.2407 -7.46901
527 8.21591 -2.9876 -6.72211
528 7.46901 -2.2407 -6.72211
529 -8.96281 -1.4938 -7.46901
530 -8.21591 -0.746901 -7.46901
531 -8.21591 -1.4938 -6.72211
532 -8.96281 -0.746901 -6.72211
533 -7.46901 -1.4938 -7.46901
534 -6.72211 -0.746901 -7.46901
535 -6.72211 -1.4938 -6.72211
536 -7.46901 -0.746901 -6.72211
537 -5.97521 -1.4938 -7.46901
538 -5.22831 -0.746901 -7.46901
539 -5.22831 -1.4938 -6.72211
540 -5.97521 -0.746901 -6.72211
541 -4.4814 -1.4938 -7.46901
542 -3.7345 -0.746901 -7.46901
543 -3.7345 -1.4938 -6.72211
544 -4.4814 -0.746901 -6.72211
545 -2.9876 -1.4938 -7.46901
546 -2.2407 -0.746901 -7.46901
547 -2.2407 -1.4938 -6.72211
548 -2.9876 -0.746901 -6.72211
549 -1.4938 -1.4938 -7.46901
550 -0.746901 -0.746901 -7.46901
551 -0.746901 -1.4938 -6.72211
552 -1.4938 -0.746901 -6.72211
553 0 -1.4938 -7.46901
554 0.746901 -0.746901 -7.46901
555 0.746901 -1.4938 -6.72211
556 0 -0.746901 -6.72211
557 1.4938 -1.4938 -7.46901
558 2.2407 -0.746901 -7.46901
559 2.2407 -1.4938 -6.72211
560 1.4938 -0.746901 -6.72211
561 2.9876 -1.4938 -7.46901
562 3.7345 -0.746901 -7.46901
563 3.7345 -1.4938 -6.72211
564 2.9876 -0.746901 -6.72211
565 4.4814 -1.4938 -7.46901
566 5.22831 -0.746901 -7.46901
567 5.22831 -1.4938 -6.72211
568 4.4814 -0.746901 -6.72211
569 5.97521 -1.4938 -7.46901
570 6.72211 -0.746901 -7.46901
571 6.72211 -1.4938 -6.72211
572 5.97521 -0.746901 -6.72211
573 7.46901 -1.4938 -7.46901
574 8.21591 -0.746901 -7.46901
575 8.21591 -1.4938 -6.72211
576 7.46901 -0.746901 -6.72211
577 -8.96281 -8.96281 -5.97521
578 -8.21591 -8.21591 -5.97521
579 -8.21591 -8.96281 -5.22831
580 -8.96281 -8.21591 -5.22831
581 -7.46901 -8.96281 -5.97521
582 -6.72211 -8.21591 -5.97521
583 -6.72211 -8.96281 -5.22831
584 -7.46901 -8.21591 -5.22831
585 -5.97521 -8.96281 -5.97521
586 -5.22831 -8.21591 -5.97521
587 -5.22831 -8.96281 -5.22831
588 -5.97521 -8.21591 -5.22831
589 -4.4814 -8.96281 -5.97521
590 -3.7345 -8.21591 -5.97521
591 -3.7345 -8.96281 -5.22831
592 -4.4814 -8.21591 -5.22831
593 -2.9876 -8.96281 -5.97521
594 -2.2407 -8.21591 -5.97521
595 -2.2407 -8.96281 -5.22831
596 -2.9876 -8.21591 -5.22831
597 -1.4938 -8.96281 -5.97521
598 -0.746901 -8.21591 -5.97521
599 -0.746901 -8.96281 -5.22831
600 -1.4938 -8.21591 -5.22831
601 0 -8.96281 -5.97521
602 0.746901 -8.21591 -5.97521
603 0.746901 -8.96281 -5.22831
604 0 -8.21591 -5.22831
605 1.4938 -8.96281 -5.97521
606 2.2407 -8.21591 -5.97521
607 2.2407 -8.96281 -5.22831
608 1.4938 -8.21591 -5.22831
609 2.9876 -8.96281 -5.97521
610 3.7345 -8.21591 -5.97521
611 3.7345 -8.96281 -5.22831
612 2.9876 -8.21591 -5.22831
613 4.4814 -8.96281 -5.97521
614 5.22831 -8.21591 -5.97521
615 5.22831 -8.96281 -5.22831
616 4.4814 -8.21591 -5.22831
617 5.97521 -8.96281 -5.97521
618 6.72211 -8.21591 -5.97521
619 6.72211 -8.96281 -5.22831
620 5.97521 -8.21591 -5.22831
621 7.46901 -8.96281 -5.97521
622 8.21591 -8.21591 -5.97521
623 8.21591 -8.96281 -5.22831
624 7.46901 -8.21591 -5.22831
625 -8.96281 -7.46901 -5.97521
626 -8.21591 -6.72211 -5.97521
627 -8.21591 -7.46901 -5.22831
628 -8.96281 -6.72211 -5.22831
629 -7.46901 -7.46901 -5.97521
630 -6.72211 -6.72211 -5.97521
631 -6.72211 -7.46901 -5.22831
632 -7.46901 -6.72211 -5.22831
633 -5.97521 -7.46901 -5.97521
634 -5.22831 -6.72211 -5.97521
635 -5.22831 -7.46901 -5.22831
636 -5.97521 -6.72211 -5.22831
637 -4.4814 -7.46901 -5.97521
638 -3.7345 -6.72211 -5.97521
639 -3.7345 -7.46901 -5.22831
640 -4.4814 -6.72211 -5.22831
641 -2.9876 -7.46901 -5.97521
642 -2.2407 -6.72211 -5.97521
643 -2.2407 -7.46901 -5.22831
644 -2.9876 -6.72211 -5.22831
645 -1.4938 -7.46901 -5.97521
646 -0.746901 -6.72211 -5.97521
647 -0.746901 -7.46901 -5.22831
648 -1.4938 -6.72211 -5.22831
649 0 -7.46901 -5.97521
650 0.746901 -6.72211 -5.97521
651 0.746901 -7.46901 -5.22831
652 0 -6.72211 -5.22831
653 1.4938 -7.46901 -5.97521
654 2.2407 -6.72211 -5.97521
655 2.2407 -7.46901 -5.22831
656 1.4938 -6.72211 -5.22831
657 2.9876 -7.46901 -5.97521
658 3.7345 -6.72211 -5.97521
659 3.7345 -7.46901 -5.22831
660 2.9876 -6.72211 -5.22831
661 4.4814 -7.46901 -5.97521
662 5.22831 -6.72211 -5.97521
663 5.22831 -7.46901 -5.22831
664 4.4814 -6.72211 -5.22831
665 5.97521 -7.46901 -5.97521
666 6.72211 -6.72211 -5.97521
667 6.72211 -7.46901 -5.22831
668 5.97521 -6.72211 -5.22831
669 7.46901 -7.46901 -5.97521
670 8.21591 -6.72211 -5.97521
671 8.21591 -7.46901 -5.22831
672 7.46901 -6.72211 -5.22831
673 -8.96281 -5.97521 -5.97521
674 -8.21591 -5.22831 -5.97521
675 -8.21591 -5.97521 -5.22831
676 -8.96281 -5.22831 -5.22831
677 -7.46901 -5.97521 -5.97521
678 -6.72211 -5.22831 -5.97521
679 -6.72211 -5.97521 -5.22831
680 -7.46901 -5.22831 -5.22831
681 -5.97521 -5.97521 -5.97521
682 -5.22831 -5.22831 -5.97521
683 -5.22831 -5.97521 -5.22831
684 -5.97521 -5.22831 -5.22831
685 -4.4814 -5.97521 -5.97521
686 -3.7345 -5.22831 -5.97521
687 -3.7345 -5.97521 -5.22831
688 -4.4814 -5.22831 -5.22831
689 -2.9876 -5.97521 -5.97521
690 -2.2407 -5.22831 -5.97521
691 -2.2407 -5.97521 -5.22831
692 -2.9876 -5.22831 -5.22831
693 -1.4938 -5.97521 -5.97521
694 -0.746901 -5.22831 -5.97521
695 -0.746901 -5.97521 -5.22831
696 -1.4938 -5.22831 -5.22831
697 0 -5.97521 -5.97521
698 0.746901 -5.22831 -5.97521
699 0.746901 -5.97521 -5.22831
700 0 -5.22831 -5.22831
701 1.4938 -5.97521 -5.97521
702 2.2407 -5.22831 -5.97521
703 2.2407 -5.97521 -5.22831
704 1.4938 -5.22831 -5.22831
705 2.9876 -5.97521 -5.97521
706 3.7345 -5.22831 -5.97521
707 3.7345 -5.97521 -5.22831
708 2.9876 -5.22831 -5.22831
709 4.4814 -5.97521 -5.97521
710 5.22831 -5.22831 -5.97521
711 5.22831 -5.97521 -5.22831
712 4.4814 -5.22831 -5.22831
713 5.97521 -5.97521 -5.97521
714 6.72211 -5.22831 -5.97521
715 6.72211 -5.97521 -5.22831
716 5.97521 -5.22831 -5.22831
717 7.46901 -5.97521 -5.97521
718 8.21591 -5.22831 -5.97521
719 8.21591 -5.97521 -5.22831
720 7.46901 -5.22831 -5.22831
721 -8.96281 -4.4814 -5.97521
722 -8.21591 -3.7345 -5.97521
723 -8.21591 -4.4814 -5.22831
724 -8.96281 -3.7345 -5.22831
725 -7.46901 -4.4814 -5.97521
726 -6.72211 -3.7345 -5.97521
727 -6.72211 -4.4814 -5.22831
728 -7.46901 -3.7345 -5.22831
729 -5.97521 -4.4814 -5.97521
730 -5.22831 -3.7345 -5.97521
731 -5.22831 -4.4814 -5.22831
732 -5.97521 -3.7345 -5.22831
733 -4.4814 -4.4814 -5.97521
734 -3.7345 -3.7345 -5.97521
735 -3.7345 -4.4814 -5.22831
736 -4.4814 -3.7345 -5.22831
737 -2.9876 -4.4814 -5.97521
738 -2.2407 -3.7345 -5.97521
739 -2.2407 -4.4814 -5.22831
740 -2.9876 -3.7345 -5.22831
741 -1.4938 -4.4814 -5.97521
742 -0.746901 -3.7345 -5.97521
743 -0.746901 -4.4814 -5.22831
744 -1.4938 -3.7345 -5.22831
745 0 -4.4814 -5.97521
746 0.746901 -3.7345 -5.97521
747 0.746901 -4.4814 -5.22831
748 0 -3.7345 -5.22831
749 1.4938 -4.4814 -5.97521
750 2.2407 -3.7345 -5.97521
751 2.2407 -4.4814 -5.22831
752 1.4938 -3.7345 -5.22831
753 2.9876 -4.4814 -5.97521
754 3.7345 -3.7345 -5.97521
755 3.7345 -4.4814 -5.22831
756 2.9876 -3.7345 -5.22831
757 4.4814 -4.4814 -5.97521
758 5.22831 -3.7345 -5.97521
759 5.22831 -4.4814 -5.22831
760 4.4814 -3.7345 -5.22831
761 5.97521 -4.4814 -5.97521
762 6.72211 -3.7345 -5.97521
763 6.72211 -4.4814 -5.22831
764 5.97521 -3.7345 -5.22831
765 7.46901 -4.4814 -5.97521
766 8.21591 -3.7345 -5.97521
767 8.21591 -4.4814 -5.22831
768 7.46901 -3.7345 -5.22831
769 -8.96281 -2.9876 -5.97521
770 -8.21591 -2.2407 -5.97521
771 -8.21591 -2.9876 -5.22831
772 -8.96281 -2.2407 -5.22831
773 -7.46901 -2.9876 -5.97521
774 -6.72211 -2.2407 -5.97521
775 -6.72211 -2.9876 -5.22831
776 -7.46901 -2.2407 -5.22831
777 -5.97521 -2.9876 -5.97521
778 -5.22831 -2.2407 -5.97521
779 -5.22831 -2.9876 -5.22831
780 -5.97521 -2.2407 -5.22831
781 -4.4814 -2.9876 -5.97521
782 -3.7345 -2.2407 -5.97521
783 -3.7345 -2.9876 -5.22831
784 -4.4814 -2.2407 -5.22831
785 -2.9876 -2.9876 -5.97521
786 -2.2407 -2.2407 -5.97521
787 -2.2407 -2.9876 -5.22831
788 -2.9876 -2.2407 -5.22831
789 -1.4938 -2.9876 -5.97521
790 -0.746901 -2.2407 -5.97521
791 -0.746901 -2.9876 -5.22831
792 -1.4938 -2.2407 -5.22831
793 0 -2.9876 -5.97521
794 0.746901 -2.2407 -5.97521
795 0.746901 -2.9876 -5.22831
796 0 -2.2407 -5.22831
797 1.4938 -2.9876 -5.97521
798 2.2407 -2.2407 -5.97521
799 2.2407 -2.9876 -5.22831
800 1.4938 -2.2407 -5.22831
801 2.9876 -2.9876 -5.97521
802 3.7345 -2.2407 -5.97521
803 3.7345 -2.9876 -5.22831
804 2.9876 -2.2407 -5.22831
805 4.4814 -2.9876 -5.97521
806 5.22831 -2.2407 -5.97521
807 5.22831 -2.9876 -5.22831
808 4.4814 -2.2407 -5.22831
809 5.97521 -2.9876 -5.97521
810 6.72211 -2.2407 -5.97521
811 6.72211 -2.9876 -5.22831
812 5.97521 -2.2407 -5.22831
813 7.46901 -2.9876 -5.97521
814 8.21591 -2.2407 -5.97521
815 8.21591 -2.9876 -5.22831
816 7.46901 -2.2407 -5.22831
817 -8.96281 -1.4938 -5.97521
818 -8.21591 -0.746901 -5.97521
819 -8.21591 -1.4938 -5.22831
820 -8.96281 -0.746901 -5.22831
821 -7.46901 -1.4938 -5.97521
822 -6.72211 -0.746901 -5.97521
823 -6.72211 -1.4938 -5.22831
824 -7.46901 -0.746901 -5.22831
825 -5.97521 -1.4938 -5.97521
826 -5.22831 -0.746901 -5.97521
827 -5.22831 -1.4938 -5.22831
828 -5.97521 -0.746901 -5.22831
829 -4.4814 -1.4938 -5.97521
830 -3.7345 -0.746901 -5.97521
831 -3.7345 -1.4938 -5.22831
832 -4.4814 -0.746901 -5.22831
833 -2.9876 -1.4938 -5.97521
834 -2.2407 -0.746901 -5.97521
835 -2.2407 -1.4938 -5.22831
836 -2.9876 -0.746901 -5.22831
837 -1.4938 -1.4938 -5.97521
838 -0.746901 -0.746901 -5.97521
839 -0.746901 -1.4938 -5.22831
840 -1.4938 -0.746901 -5.22831
841 0 -1.4938 -5.97521
842 0.746901 -0.746901 -5.97521
843 0.746901 -1.4938 -5.22831
844 0 -0.746901 -5.22831
845 1.4938 -1.4938 -5.97521
846 2.2407 -0.746901 -5.97521
847 2.2407 -1.4938 -5.22831
848 1.4938 -0.746901 -5.22831
849 2.9876 -1.4938 -5.97521
850 3.7345 -0.746901 -5.97521
851 3.7345 -1.4938 -5.22831
852 2.9876 -0.746901 -5.22831
853 4.4814 -1.4938 -5.97521
854 5.22831 -0.746901 -5.97521
855 5.22831 -1.4938 -5.22831
856 4.4814 -0.746901 -5.22831
857 5.97521 -1.4938 -5.97521
858 6.72211 -0.746901 -5.97521
859 6.72211 -1.4938 -5.22831
860 5.97521 -0.746901 -5.22831
861 7.46901 -1.4938 -5.97521
862 8.21591 -0.746901 -5.97521
863 8.21591 -1.4938 -5.22831
864 7.46901 -0.746901 -5.22831
865 -8.96281 -8.96281 -4.4814
866 -8.21591 -8.21591 -4.4814
867 -8.21591 -8.96281 -3.7345
868 -8.96281 -8.21591 -3.7345
869 -7.46901 -8.96281 -4.4814
870 -6.72211 -8.21591 -4.4814
871 -6.72211 -8.96281 -3.7345
872 -7.46901 -8.21591 -3.7345
873 -5.97521 -8.96281 -4.4814
874 -5.22831 -8.21591 -4.4814
875 -5.22831 -8.96281 -3.7345
876 -5.97521 -8.21591 -3.7345
877 -4.4814 -8.96281 -4.4814
878 -3.7345 -8.21591 -4.4814
879 -3.7345 -8.96281 -3.7345
880 -4.4814 -8.21591 -3.7345
881 -2.9876 -8.96281 -4.4814
882 -2.2407 -8.21591 -4.4814
883 -2.2407 -8.96281 -3.7345
884 -2.9876 -8.21591 -3.7345
885 -1.4938 -8.96281 -4.4814
886 -0.746901 -8.21591 -4.4814
887 -0.746901 -8.96281 -3.7345
888 -1.4938 -8.21591 -3.7345
889 0 -8.96281 -4.4814
890 0.746901 -8.21591 -4.4814
891 0.746901 -8.96281 -3.7345
892 0 -8.21591 -3.7345
893 1.4938 -8.96281 -4.4814
894 2.2407 -8.21591 -4.4814
895 2.2407 -8.96281 -3.7345
896 1.4938 -8.21591 -3.7345
897 2.9876 -8.96281 -4.4814
898 3.7345 -8.21591 -4.4814
899 3.7345 -8.96281 -3.7345
900 2.9876 -8.21591 -3.7345
901 4.4814 -8.96281 -4.4814
902 5.22831 -8.21591 -4.4814
903 5.22831 -8.96281 -3.7345
904 4.4814 -8.21591 -3.7345
905 5.97521 -8.96281 -4.4814
906 6.72211 -8.21591 -4.4814
907 6.72211 -8.96281 -3.7345
908 5.97521 -8.21591 -3.7345
909 7.46901 -8.96281 -4.4814
910 8.21591 -8.21591 -4.4814
911 8.21591 -8.96281 -3.7345
912 7.46901 -8.21591 -3.7345
913 -8.96281 -7.46901 -4.4814
914 -8.21591 -6.72211 -4.4814
915 -8.21591 -7.46901 -3.7345
916 -8.96281 -6.72211 -3.7345
917 -7.46901 -7.46901 -4.4814
918 -6.72211 -6.72211 -4.4814
919 -6.72211 -7.46901 -3.7345
920 -7.46901 -6.72211 -3.7345
921 -5.97521 -7.46901 -4.4814
922 -5.22831 -6.72211 -4.4814
923 -5.22831 -7.46901 -3.7345
924 -5.97521 -6.72211 -3.7345
925 -4.4814 -7.46901 -4.4814
926 -3.7345 -6.72211 -4.4814
927 -3.7345 -7.46901 -3.7345
928 -4.4814 -6.72211 -3.7345
929 -2.9876 -7.46901 -4.4814
930 -2.2407 -6.72211 -4.4814
931 -2.2407 -7.46901 -3.7345
932 -2.9876 -6.72211 -3.7345
933 -1.4938 -7.46901 -4.4814
934 -0.746901 -6.72211 -4.4814
935 -0.746901 -7.46901 -3.7345
936 -1.4938 -6.72211 -3.7345
937 0 -7.46901 -4.4814
938 0.746901 -6.72211 -4.4814
939 0.746901 -7.46901 -3.7345
940 0 -6.72211 -3.7345
941 1.4938 -7.46901 -4.4814
942 2.2407 -6.72211 -4.4814
943 2.2407 -7.46901 -3.7345
944 1.4938 -6.72211 -3.7345
945 2.9876 -7.46901 -4.4814
946 3.7345 -6.72211 -4.4814
947 3.7345 -7.46901 -3.7345
948 2.9876 -6.72211 -3.7345
949 4.4814 -7.46901 -4.4814
950 5.22831 -6.72211 -4.4814
951 5.22831 -7.46901 -3.7345
952 4.4814 -6.72211 -3.7345
953 5.97521 -7.46901 -4.4814
954 6.72211 -6.72211 -4.4814
955 6.72211 -7.46901 -3.7345
956 5.97521 -6.72211 -3.7345
957 7.46901 -7.46901 -4.4814
958 8.21591 -6.72211 -4.4814
959 8.21591 -7.46901 -3.7345
960 7.46901 -6.72211 -3.7345
961 -8.96281 -5.97521 -4.4814
962 -8.21591 -5.22831 -4.4814
963 -8.21591 -5.97521 -3.7345
964 -8.96281 -5.22831 -3.7345
965 -7.46901 -5.97521 -4.4814
966 -6.72211 -5.22831 -4.4814
967 -6.72211 -5.97521 -3.7345
968 -7.46901 -5.22831 -3.7345
969 -5.97521 -5.97521 -4.4814
970 -5.22831 -5.22831 -4.4814
971 -5.22831 -5.97521 -3.7345
972 -5.97521 -5.22831 -3.7345
973 -4.4814 -5.97521 -4.4814
974 -3.7345 -5.22831 -4.4814
975 -3.7345 -5.97521 -3.7345
976 -4.4814 -5.22831 -3.7345
977 -2.9876 -5.97521 -4.4814
978 -2.2407 -5.22831 -4.4814
979 -2.2407 -5.97521 -3.7345
980 -2.9876 -5.22831 -3.7345
981 -1.4938 -5.97521 -4.4814
982 -0.746901 -5.22831 -4.4814
983 -0.746901 -5.97521 -3.7345
984 -1.4938 -5.22831 -3.7345
985 0 -5.97521 -4.4814
986 0.746901 -5.22831 -4.4814
987 0.746901 -5.97521 -3.7345
988 0 -5.22831 -3.7345
989 1.4938 -5.97521 -4.4814
990 2.2407 -5.22831 -4.4814
991 2.2407 -5.97521 -3.7345
992 1.4938 -5.22831 -3.7345
993 2.9876 -5.97521 -4.4814
994 3.7345 -5.22831 -4.4814
995 3.7345 -5.97521 -3.7345
996 2.9876 -5.22831 -3.7345
997 4.4814 -5.97521 -4.4814
998 5.22831 -5.22831 -4.4814
999 5.22831 -5.97521 -3.7345
1000 4.4814 -5.22831 -3.7345
1001 5.97521 -5.97521 -4.4814
1002 6.72211 -5.22831 -4.4814
1003 6.72211 -5.97521 -3.7345
1004 5.97521 -5.22831 -3.7345
1005 7.46901 -5.97521 -4.4814
1006 8.21591 -5.22831 -4.4814
1007 8.21591 -5.97521 -3.7345
1008 7.46901 -5.22831 -3.7345
1009 -8.96281 -4.4814 -4.4814
1010 -8.21591 -3.7345 -4.4814
1011 -8.21591 -4.4814 -3.7345
1012 -8.96281 -3.7345 -3.7345