ITEM: TIMESTEP
200000
ITEM: NUMBER OF ATOMS
6912
ITEM: BOX BOUNDS pp pp pp
-8.9628094931143298e+00 8.9628094931143298e+00
-8.9628094931143298e+00 8.9628094931143298e+00
-8.9628094931143298e+00 8.9628094931143298e+00
ITEM: ATOMS id x y z
290 -8.18689 -8.26885 -7.39796
337 -8.85824 -7.48307 -7.50881
51 -8.2313 -7.4802 -8.30115
587 -5.21838 -8.90975 -5.32662
889 0.0293948 -8.94574 -4.54868
591 -3.73369 -8.8928 -5.26237
8 -7.40136 -8.17684 -8.25208
12 -5.94949 -8.22235 -8.25282
3497 5.93012 -0.0406814 -8.86682
298 -5.20445 -8.17559 -7.45782
110 -3.70364 -5.24698 -8.94627
85 4.52116 -7.39874 -8.93431
16 -4.44346 -8.21566 -8.33251
63 -3.69446 -7.5088 -8.2013
349 -4.41161 -7.44144 -7.49566
20 -2.96801 -8.24433 -8.2471
306 -2.25176 -8.1609 -7.48523
24 -1.49118 -8.14627 -8.24086
67 -2.24255 -7.42875 -8.25128
615 5.26485 -8.9127 -5.23982
4639 2.1522 -0.0163694 -2.19622
233 5.89205 -2.96282 -8.95258
357 -1.56336 -7.47734 -7.50047
310 -0.772957 -8.15573 -7.48697
71 -0.754619 -7.41555 -8.27265
28 0.0415327 -8.20822 -8.27607
4079 8.18812 -0.0452092 -5.17766
218 0.647073 -2.21402 -8.95129
32 1.63507 -8.19641 -8.25726
75 0.77196 -7.42235 -8.21781
897 3.06103 -8.96051 -4.54437
36 3.01803 -8.17703 -8.28574
79 2.35234 -7.32818 -8.173
1185 3.05972 -8.95718 -2.96488
318 2.29498 -8.09374 -7.5349
83 3.73135 -7.51823 -8.2404
322 3.86168 -8.18273 -7.50441
599 -0.654009 -8.89379 -5.27796
4629 -1.4438 0.0100327 -3.08578
40 4.55438 -8.21136 -8.19592
44 5.97605 -8.18679 -8.22666
585 -5.94938 -8.9462 -6.06218
114 -2.31539 -5.17314 -8.92416
30 2.33928 -8.28718 -8.94231
4619 -5.17216 0.00721164 -2.27341
48 7.48518 -8.32191 -8.22742
91 6.7178 -7.61321 -8.21874
381 7.47811 -7.49343 -7.51532
887 -0.700838 -8.90015 -3.81477
4 -8.93045 -8.19954 -8.22974
589 -4.39594 -8.91989 -5.99109
334 8.21251 -8.22807 -7.45961
99 -8.22949 -5.89174 -8.23149
4901 -7.36323 -0.0161202 -1.41824
338 -8.17834 -6.68409 -7.56314
4365 7.43498 -0.0275003 -4.49515
55 -6.64326 -7.41087 -8.22925
56 -7.43668 -6.65195 -8.22778
103 -6.69576 -5.86594 -8.12984
342 -6.75756 -6.72292 -7.42934
323 3.74854 -8.92196 -6.73854
59 -5.25004 -7.53016 -8.26262
4057 -0.0179199 -0.0609758 -5.96237
60 -6.04693 -6.63274 -8.189
64 -4.53095 -6.721 -8.2166
269 1.41185 -1.56523 -8.94154
257 -2.96863 -1.49805 -8.98365
3475 -2.31142 -0.0931139 -8.17801
4051 -2.259 -0.0398021 -5.14531
301 -4.4691 -8.87374 -7.50235
68 -3.03296 -6.74091 -8.18894
354 -2.19958 -6.6264 -7.46153
4917 -1.51566 -0.0622902 -1.5297
5221 4.45147 -0.0218555 -0.039997
72 -1.5271 -6.72255 -8.30495
119 -0.673726 -5.97698 -8.27351
245 -7.53847 -1.44415 -8.95983
409 0.0147112 -5.96098 -7.52957
76 0.0210473 -6.6642 -8.27838
80 1.56511 -6.67598 -8.2653
123 0.792177 -5.93748 -8.329
43 6.69727 -8.97954 -8.2857
362 0.797036 -6.59492 -7.57067
365 1.54857 -7.38738 -7.52959
366 2.29648 -6.58082 -7.53534
4349 1.46604 -0.0862502 -4.46318
84 3.05617 -6.62597 -8.25184
88 4.46317 -6.73292 -8.24092
131 3.7677 -5.97888 -8.24712
87 5.23638 -7.49309 -8.25309
135 5.30561 -6.03832 -8.30876
92 6.06263 -6.73206 -8.23449
96 7.38557 -6.70337 -8.21326
378 6.73999 -6.786 -7.4444
139 6.69548 -5.95783 -8.15398
429 7.56147 -5.9979 -7.47601
1913 5.99281 -4.50029 -0.0532773
425 5.99342 -5.93305 -7.43495
95 8.23081 -7.46191 -8.22553
52 -8.95465 -6.77187 -8.27046
143 8.14147 -6.00446 -8.27939
385 8.89833 -5.99085 -7.54635
4937 5.97323 -0.0445664 -1.50746
147 -8.17481 -4.45319 -8.21563
100 -8.96627 -5.16358 -8.35445
104 -7.47408 -5.21286 -8.20863
4915 -2.23571 -0.072913 -0.734894
389 -7.50654 -5.87809 -7.48285
390 -6.72602 -5.22474 -7.44845
393 -5.95125 -5.96722 -7.4243
151 -6.6562 -4.48946 -8.27043
4323 -8.20172 -0.0757702 -3.70785
107 -5.28962 -5.99024 -8.22675
108 -5.94513 -5.13656 -8.15837
155 -5.2028 -4.43446 -8.2324
111 -3.74747 -5.89609 -8.24676
112 -4.49809 -5.23819 -8.15695
159 -3.78861 -4.44749 -8.13332
116 -3.04111 -5.1116 -8.15326
1814 5.20278 -6.74201 -0.0730382
1837 -4.53018 -6.06278 -0.0712069
115 -2.40434 -5.96445 -8.22445
163 -2.24539 -4.47912 -8.17295
3489 3.09546 -0.0289222 -8.88521
597 -1.48931 -8.8547 -6.00657
120 -1.4882 -5.25651 -8.21767
124 0.0899202 -5.23105 -8.28432
1954 3.68784 -2.28045 -0.0426355
4627 -2.15925 -0.0429906 -2.2416
77 1.49289 -7.50198 -8.92154
461 1.51755 -4.48465 -7.55247
171 0.749069 -4.52951 -8.28106
457 0.0508843 -4.52558 -7.45727
127 2.20049 -5.89481 -8.26228
128 1.50492 -5.18301 -8.26127
414 2.25213 -5.1795 -7.47516
1183 2.23587 -8.94614 -2.22881
132 3.01842 -5.12975 -8.2157
136 4.58498 -5.22881 -8.26579
179 3.82238 -4.46422 -8.2977
465 3.00298 -4.47274 -7.53234
1467 0.786139 -8.85964 -0.767504
234 6.73317 -2.25564 -8.93047
183 5.25824 -4.51204 -8.20144
422 5.3039 -5.22986 -7.4555
473 6.03536 -4.58366 -7.50505
469 4.51832 -4.57338 -7.54748
140 5.9576 -5.19038 -8.31962
426 6.76446 -5.27625 -7.48395
2006 5.2566 -0.738551 -0.0745589
4071 5.27639 -0.0242243 -5.30091
144 7.44198 -5.26036 -8.1981
191 8.13399 -4.45837 -8.14036
195 -8.24139 -3.04453 -8.21788
485 -7.54626 -2.9911 -7.52947
434 -8.31376 -3.72495 -7.42196
437 -7.45052 -4.52015 -7.4469
152 -7.48152 -3.66535 -8.25022
438 -6.74715 -3.70138 -7.56494
156 -6.03248 -3.70914 -8.23236
199 -6.7294 -2.94685 -8.26151
442 -5.27236 -3.72031 -7.51146
441 -6.03133 -4.3676 -7.41857
160 -4.46924 -3.75771 -8.23022
203 -5.2684 -2.98859 -8.27313
214 -0.872293 -2.22265 -8.95473
207 -3.77244 -3.06333 -8.21548
607 2.28163 -8.95263 -5.22104
1962 6.63539 -2.22333 -0.0120672
453 -1.46286 -4.47631 -7.50143
164 -3.03145 -3.78485 -8.14619
168 -1.52969 -3.79783 -8.25155
22 -0.719094 -8.13913 -8.95775
167 -0.752149 -4.46263 -8.21521
215 -0.749624 -2.94881 -8.18084
58 -5.29967 -6.66752 -8.94269
106 -5.14766 -5.20786 -8.89608
101 -7.40707 -6.00661 -8.91525
172 -0.0315135 -3.84953 -8.22989
176 1.44446 -3.73132 -8.29391
4341 -1.54982 -0.0107046 -4.4571
175 2.23155 -4.4383 -8.3593
223 2.22118 -3.00437 -8.23113
4907 -5.21584 -0.0540665 -0.707455
462 2.27167 -3.73961 -7.54107
509 1.48288 -2.99216 -7.62102
865 -8.85757 -8.96247 -4.53514
180 3.06306 -3.73649 -8.27898
466 3.77374 -3.76615 -7.49386
184 4.56809 -3.71878 -8.22983
188 6.0713 -3.80271 -8.19955
231 5.27737 -3.01959 -8.2069
1483 6.65381 -8.95244 -0.755209
187 6.78634 -4.517 -8.2325
477 7.43882 -4.43144 -7.39132
148 8.93255 -3.81045 -8.28841
192 7.47472 -3.72456 -8.21357
239 8.20566 -3.03892 -8.16871
478 8.2201 -3.80404 -7.41091
601 0.0117353 -8.90935 -6.05936
243 -8.22324 -1.52699 -8.22683
481 -8.94019 -2.93866 -7.43363
200 -7.49106 -2.14942 -8.25992
486 -6.75244 -2.26233 -7.45829
247 -6.70283 -1.47639 -8.2126
204 -5.97714 -2.27309 -8.26523
208 -4.50237 -2.23813 -8.20248
251 -5.22834 -1.55865 -8.21549
490 -5.27417 -2.26922 -7.51104
537 -5.98219 -1.49038 -7.49473
541 -4.55225 -1.40235 -7.42757
891 0.778103 -8.90396 -3.81637
255 -3.75044 -1.51464 -8.26057
493 -4.50442 -3.02797 -7.58265
494 -3.80232 -2.20437 -7.36352
212 -3.01806 -2.24375 -8.17903
211 -2.24901 -3.03654 -8.17807
216 -1.47496 -2.2526 -8.20972
210 -2.26027 -2.30802 -8.91446
259 -2.2291 -1.57323 -8.17224
1897 0.00580529 -4.50878 -0.0279974
873 -5.93219 -8.9065 -4.54794
219 0.598249 -3.06769 -8.23636
220 0.00990433 -2.24241 -8.21536
267 0.696388 -1.50459 -8.13786
224 1.38143 -2.26569 -8.25653
510 2.20808 -2.30023 -7.50566
228 3.04509 -2.22307 -8.17826
513 3.0679 -3.07752 -7.49914
4337 -3.06154 -0.0450556 -4.53775
227 3.78217 -3.0397 -8.286
514 3.66843 -2.24319 -7.45666
565 4.55286 -1.55168 -7.40831
315 0.668562 -8.85161 -6.81937
232 4.49783 -2.25819 -8.16094
517 4.41011 -2.98899 -7.4675
518 5.24709 -2.27782 -7.35859
236 5.94765 -2.21189 -8.15902
235 6.69856 -2.95072 -8.17321
283 6.64546 -1.44371 -8.16749
573 7.43964 -1.50762 -7.42528
196 8.90898 -2.30433 -8.30848
240 7.45279 -2.3176 -8.14099
526 8.31434 -2.26366 -7.49078
529 8.98241 -1.52413 -7.4907
82 3.75671 -6.6959 -8.96751
2005 4.47496 -1.44366 0.0201488
248 -7.47691 -0.734774 -8.20357
161 -3.07434 -4.42427 -8.94644
1684 8.94301 -0.786897 -0.746422
530 -8.16304 -0.67306 -7.43815
533 -7.47574 -1.51847 -7.48564
1742 -3.75817 -8.31469 -0.0796694
877 -4.53839 -8.90516 -4.49751
225 3.07719 -2.97627 -8.94225
534 -6.7295 -0.776824 -7.47123
252 -5.8748 -0.78847 -8.24824
285 7.54458 -1.49766 -8.87259
256 -4.50355 -0.704076 -8.21907
165 -1.61401 -4.54676 -8.92267
545 -2.93037 -1.6637 -7.38031
542 -3.69575 -0.799096 -7.44322
3473 -3.03583 -0.0279241 -8.95582
282 6.67404 -0.729997 -8.86237
1727 8.20471 -1.43545 -0.776136
260 -2.96551 -0.873082 -8.19517
546 -2.23166 -0.783701 -7.4683
549 -1.42643 -1.50582 -7.47159
274 3.86457 -0.75972 -8.88431
38 5.24111 -8.21807 -8.89625
263 -0.804643 -1.42431 -8.21346
264 -1.52245 -0.684242 -8.23704
4353 2.95 -0.0641355 -4.50915
62 -3.71635 -6.76739 -8.94832
4343 -0.68367 -0.0392704 -3.73308
268 -0.0286283 -0.682495 -8.15826
272 1.51173 -0.761074 -8.10335
554 0.743041 -0.711233 -7.4093
271 2.24953 -1.49387 -8.29363
557 1.50102 -1.59244 -7.47507
558 2.25737 -0.780524 -7.43164
276 3.0323 -0.767446 -8.17577
3481 -0.0728617 -0.0233505 -8.96671
275 3.77212 -1.47994 -8.1114
561 2.93356 -1.53845 -7.47237
562 3.74368 -0.719211 -7.44454
3771 0.799261 0.000695178 -6.66987
213 -1.479 -3.04508 -8.95417
280 4.49103 -0.66476 -8.14517
279 5.16013 -1.46956 -8.2084
566 5.17914 -0.779176 -7.40476
284 5.90219 -0.749821 -8.03628
288 7.47321 -0.847918 -8.13436
875 -5.15658 -8.93991 -3.75333
287 8.28265 -1.45368 -8.24231
244 -8.87537 -0.790074 -8.19566
574 8.27675 -0.753957 -7.46211
4923 0.754066 -0.0494403 -0.792054
578 -8.18907 -8.19115 -6.04199
142 8.21719 -5.19408 -8.98143
339 -8.24824 -7.40333 -6.72461
294 -6.66082 -8.30565 -7.4848
4359 5.18619 -0.0158885 -3.70273
296 -7.37862 -8.16965 -6.74815
582 -6.68127 -8.18701 -6.03024
149 -7.56521 -4.53949 -8.98753
300 -5.98043 -8.20777 -6.75757
637 -4.49388 -7.39634 -5.99554
304 -4.41688 -8.23395 -6.6915
302 -3.70186 -8.16995 -7.53081
308 -2.98952 -8.1712 -6.78609
590 -3.64128 -8.08926 -6.04231
4345 0.0213329 -0.0690676 -4.43776
129 2.94689 -5.92192 -8.93076
594 -2.23029 -8.18356 -5.98481
355 -2.24156 -7.35877 -6.75263
312 -1.46377 -8.25589 -6.75542
316 -0.0290899 -8.19227 -6.78655
359 -0.680601 -7.45988 -6.76477
361 0.001874 -7.53717 -7.54972
314 0.769786 -8.22534 -7.53912
1870 8.27471 -5.22458 0.00199598
363 0.800019 -7.37026 -6.92946
369 3.06197 -7.45592 -7.54785
320 1.4767 -8.18313 -6.83053
324 3.16221 -8.17377 -6.80326
606 2.2446 -8.13843 -5.98899
1155 -8.18199 -8.94557 -2.37144
371 3.86731 -7.41571 -6.74827
1195 6.71993 -8.964 -2.27626
326 5.33387 -8.20902 -7.46289
328 4.59705 -8.15594 -6.77553
332 5.96987 -8.24883 -6.6927
330 6.75705 -8.33826 -7.46638
336 7.496 -8.25239 -6.80155
1862 5.28691 -5.26206 -0.0257687
118 -0.835297 -5.23086 -8.89212
4351 2.29995 -0.0402549 -3.66526
1 -8.94221 -8.90712 -8.9499
292 -8.90929 -8.34977 -6.73063
383 8.21776 -7.55388 -6.77155
625 8.93078 -7.59017 -6.03307
340 8.91275 -6.72594 -6.76035
626 -8.19668 -6.68895 -6.04843
673 8.94893 -5.97819 -5.93799
341 -7.42574 -7.44457 -7.48327
345 -6.01997 -7.46327 -7.46401
344 -7.51946 -6.70452 -6.79273
343 -6.7348 -7.39736 -6.73335
630 -6.73038 -6.6924 -6.06965
346 -5.30831 -6.73218 -7.5178
347 -5.21668 -7.41354 -6.73092
348 -5.99837 -6.68591 -6.72051
395 -5.19283 -5.97558 -6.71443
633 -6.03111 -7.45019 -6.05379
350 -3.68701 -6.66323 -7.50774
401 -3.01251 -5.9261 -7.43504
352 -4.41945 -6.70311 -6.82056
351 -3.81305 -7.38721 -6.76669
356 -2.90882 -6.66933 -6.64864
353 -2.94338 -7.47444 -7.47957
641 -2.9386 -7.48471 -5.96995
693 -1.51828 -5.87604 -5.91899
358 -0.787084 -6.78688 -7.54472
405 -1.58315 -5.94245 -7.586
360 -1.47377 -6.64815 -6.74321
407 -0.789063 -5.98545 -6.74079
646 -0.712172 -6.66173 -5.98752
364 -0.0110634 -6.64098 -6.78675
411 0.753718 -5.88935 -6.77808
650 0.798114 -6.67526 -6.00907
368 1.49959 -6.691 -6.86654
367 2.34488 -7.52668 -6.72636
415 2.28224 -5.95985 -6.78136
654 2.25178 -6.67086 -6.03984
372 3.03636 -6.69912 -6.74972
413 1.53451 -5.9083 -7.51451
417 3.10236 -5.96074 -7.50527
370 3.83447 -6.68501 -7.51357
421 4.57018 -5.97455 -7.51065
376 4.56253 -6.71207 -6.74152
419 3.80631 -5.94184 -6.69902
377 6.02085 -7.50146 -7.49625
375 5.29498 -7.46473 -6.67517
373 4.56414 -7.48024 -7.49301
374 5.34198 -6.74647 -7.50343
380 5.9798 -6.79604 -6.64283
662 5.16232 -6.68619 -5.96081
379 6.67015 -7.46124 -6.73957
384 7.44642 -6.76904 -6.74662
717 7.46157 -6.04037 -6.00817
382 8.25703 -6.68798 -7.52222
431 8.22834 -5.89942 -6.79162
670 8.23989 -6.76138 -6.01836
386 -8.30117 -5.14026 -7.44952
387 -8.27769 -5.86574 -6.77159
674 -8.28169 -5.22143 -5.97302
677 -7.47053 -5.93732 -6.07772
721 8.91682 -4.45672 -6.01505
392 -7.53574 -5.19676 -6.75674
391 -6.6791 -5.91821 -6.72457
396 -6.03027 -5.10438 -6.68405
678 -6.69951 -5.23643 -5.96399
397 -4.60504 -5.96825 -7.46281
394 -5.28478 -5.27965 -7.37363
682 -5.25421 -5.21221 -5.97709
398 -3.78854 -5.17142 -7.37945
399 -3.72611 -6.03143 -6.7761
400 -4.5415 -5.22113 -6.72386
447 -3.81299 -4.43287 -6.56981
404 -3.00182 -5.14884 -6.67412
402 -2.27901 -5.16431 -7.4924
403 -2.22439 -5.85743 -6.687
689 -3.02502 -5.95897 -5.88565
408 -1.47548 -5.18322 -6.76718
406 -0.766539 -5.16308 -7.53211
455 -0.781307 -4.45379 -6.74531
697 0.0496297 -5.97409 -5.96257
694 -0.723347 -5.22555 -5.94042
741 -1.44561 -4.48897 -6.00992
412 -0.119347 -5.23537 -6.7749
410 0.829254 -5.20124 -7.5122
698 0.8125 -5.2539 -5.99838
459 0.788424 -4.50194 -6.77731
701 1.52249 -5.96831 -6.10433
416 1.552 -5.12566 -6.72346
702 2.31914 -5.16264 -6.03827
418 3.82196 -5.2651 -7.55191
420 2.98432 -5.16578 -6.78346
467 3.68492 -4.51817 -6.724
706 3.70997 -5.23096 -6.0223
423 5.34901 -6.02187 -6.739
424 4.55991 -5.2427 -6.6177
471 5.29748 -4.56277 -6.69083
428 6.04937 -5.24648 -6.65899
713 5.95347 -6.01753 -5.91581
427 6.742 -5.97034 -6.7431
475 6.73609 -4.54131 -6.65464
432 7.52381 -5.2365 -6.78613
430 8.28013 -5.21345 -7.56484
433 8.94285 -4.42596 -7.48861
388 8.92284 -5.20937 -6.76118
718 8.16531 -5.30155 -6.00663
435 -8.28339 -4.46239 -6.74921
436 8.95359 -3.74495 -6.68021
483 -8.22728 -3.04917 -6.687
440 -7.45793 -3.67827 -6.70843
773 -7.54072 -3.04746 -5.93966
439 -6.7244 -4.40916 -6.69655
729 -5.98706 -4.37071 -6.04607
489 -6.00439 -3.00485 -7.51361
725 -7.44487 -4.47954 -5.93188
726 -6.69611 -3.66273 -5.89779
445 -4.47203 -4.40972 -7.43229
444 -6.08109 -3.668 -6.74968
777 -6.01881 -2.96174 -5.88098
443 -5.22738 -4.42017 -6.78806
491 -5.31201 -3.02007 -6.68016
446 -3.75107 -3.73077 -7.43925
449 -3.03959 -4.41247 -7.41119
448 -4.53817 -3.66099 -6.76234
452 -2.98381 -3.78288 -6.68055
495 -3.74677 -3.0033 -6.72116
450 -2.27628 -3.78252 -7.40335
451 -2.20689 -4.50705 -6.72792
456 -1.53266 -3.73318 -6.67138
454 -0.766314 -3.73847 -7.49143
503 -0.782377 -3.03542 -6.73063
742 -0.660386 -3.72178 -6.02126
745 0.0391926 -4.54086 -5.98949
458 0.69586 -3.72659 -7.39597
460 0.0251252 -3.80449 -6.72158
746 0.824196 -3.72511 -5.98532
464 1.47482 -3.65048 -6.77981
463 2.15291 -4.43005 -6.79242
753 3.05331 -4.48524 -6.0218
750 2.27175 -3.7708 -5.96504
749 1.49855 -4.42576 -6.00203
801 2.99271 -3.04661 -5.90373
468 2.99943 -3.83434 -6.7062
515 3.74796 -3.0128 -6.70321
472 4.51215 -3.81079 -6.78126
757 4.54143 -4.54704 -5.90619
470 5.1962 -3.76017 -7.41911
476 5.95651 -3.74515 -6.69601
521 5.94342 -3.00505 -7.45097
809 5.97617 -2.99102 -5.88492
474 6.6974 -3.71369 -7.45684
525 7.49884 -2.96099 -7.4449
523 6.69477 -2.95874 -6.69635
813 7.45209 -2.95896 -5.95874
479 8.20682 -4.46494 -6.69649
480 7.37883 -3.62839 -6.72671
766 8.13201 -3.70069 -5.9897
482 -8.22667 -2.22167 -7.46068
484 -8.95917 -2.16011 -6.7644
770 -8.28628 -2.19946 -6.10372
531 -8.19719 -1.4025 -6.72397
817 -8.94947 -1.47531 -6.0242
488 -7.47829 -2.20739 -6.69832
487 -6.81671 -2.95297 -6.68625
492 -6.08793 -2.27766 -6.65015
535 -6.73911 -1.49719 -6.67956
825 -5.97954 -1.44978 -5.91186
539 -5.35838 -1.52044 -6.66816
496 -4.56023 -2.23754 -6.70142
500 -2.96853 -2.29508 -6.66192
829 -4.5954 -1.50386 -5.99969
501 -1.48839 -3.09838 -7.4931
497 -3.02391 -2.99133 -7.49269
499 -2.25403 -3.03102 -6.66941
498 -2.19265 -2.30667 -7.42754
504 -1.51185 -2.22387 -6.70827
547 -2.23262 -1.50681 -6.70491
502 -0.780942 -2.3084 -7.39962
551 -0.816707 -1.44324 -6.70486
508 -0.021433 -2.21157 -6.64145
790 -0.76715 -2.2173 -5.97885
505 -0.0428014 -2.98932 -7.41654
506 0.756748 -2.31292 -7.50597
507 0.753553 -3.00142 -6.72776
793 -0.0136099 -2.98806 -5.98851
794 0.752121 -2.28853 -6.04897
511 2.26987 -3.06001 -6.77126
512 1.52529 -2.33078 -6.74968
516 2.94103 -2.28003 -6.71014
563 3.71964 -1.49377 -6.72513
802 3.76466 -2.22793 -6.0085
520 4.48297 -2.27538 -6.71274
805 4.46924 -2.90093 -5.9433
519 5.14291 -3.02972 -6.70687
524 5.96983 -2.2653 -6.6222
806 5.2601 -2.22817 -5.95665
567 5.2537 -1.47114 -6.61829
569 5.97418 -1.49115 -7.36824
522 6.72926 -2.14976 -7.44466
528 7.44498 -2.24282 -6.63321
810 6.70262 -2.28382 -5.8588
571 6.69388 -1.5983 -6.59908
857 5.95827 -1.56174 -5.92131
527 8.20828 -2.96538 -6.75007
575 8.20747 -1.53428 -6.79552
536 -7.49323 -0.74896 -6.76464
818 -8.26577 -0.700162 -5.90446
265 0.0143044 -1.39837 -8.89604
1926 -6.6967 -2.15061 -0.0237582
540 -5.99419 -0.798817 -6.72696
1989 -1.42787 -1.47163 -0.04372
313 -0.0157795 -8.90875 -7.5207
1777 -8.90883 -7.44472 -0.0298739
538 -5.27908 -0.716475 -7.38942
826 -5.30364 -0.750398 -5.97505
543 -3.7381 -1.48823 -6.71277
544 -4.50368 -0.756368 -6.7188
4063 2.151 -0.0937397 -5.21013
548 -3.00498 -0.76099 -6.75925
834 -2.27683 -0.692307 -5.98023
1724 5.96801 -0.777671 -0.807992
4061 1.53046 -0.0976095 -6.01503
553 -0.0751978 -1.55398 -7.48854
550 -0.87389 -0.714778 -7.46601
552 -1.5093 -0.66252 -6.73398
556 0.00052699 -0.782562 -6.73717
841 -0.0715024 -1.4781 -5.93581
555 0.733824 -1.57801 -6.77316
842 0.730539 -0.777345 -5.91594
3769 -0.0445449 -0.0398554 -7.45225
559 2.3233 -1.54988 -6.72545
560 1.47923 -0.778263 -6.71029
853 4.44428 -1.49743 -6.05371
564 2.95116 -0.711999 -6.77206
850 3.74303 -0.712413 -5.94328
568 4.51044 -0.763735 -6.71415
854 5.21746 -0.730117 -5.99681
611 3.83226 -8.96062 -5.27662
572 6.04054 -0.739622 -6.62266
570 6.72013 -0.800271 -7.4162
858 6.78106 -0.814913 -5.87912
1950 2.22419 -2.27208 -0.043032
532 8.96356 -0.709134 -6.72197
881 -2.97451 -8.91278 -4.47248
576 7.48287 -0.78217 -6.71967
862 8.19221 -0.7505 -6.06562
866 -8.1416 -8.20067 -4.5876
3463 -6.66838 -0.0414829 -8.22886
584 -7.40048 -8.21412 -5.35397
631 -6.6997 -7.43473 -5.30652
921 -5.97481 -7.41428 -4.46157
4065 2.90943 -0.0156366 -5.99402
1728 7.43845 -0.757856 -0.755934
621 7.39737 -8.95856 -5.92428
586 -5.19195 -8.13159 -6.00294
588 -5.94717 -8.22155 -5.31319
874 -5.25703 -8.15573 -4.49997
592 -4.54601 -8.182 -5.24573
929 -2.96513 -7.48601 -4.51388
596 -3.0139 -8.19957 -5.15678
600 -1.45866 -8.18223 -5.29702
643 -2.29702 -7.41996 -5.26305
882 -2.13253 -8.21663 -4.45896
598 -0.729892 -8.16491 -6.00704
649 0.115012 -7.41082 -6.13984
645 -1.53392 -7.43418 -6.00493
933 -1.46471 -7.44091 -4.53154
647 -0.742394 -7.47865 -5.29105
604 -0.0250458 -8.11953 -5.32495
1723 6.74324 -1.51549 -0.82447
602 0.820695 -8.14363 -6.02533
653 1.51991 -7.39537 -6.08117
608 1.4666 -8.21116 -5.26061
937 -0.016241 -7.4899 -4.54285
890 0.722656 -8.20513 -4.48571
609 2.9744 -8.85842 -6.09994
894 2.20158 -8.27194 -4.50999
612 2.9907 -8.21347 -5.25317
879 -3.78957 -8.99283 -3.65553
610 3.77715 -8.2047 -6.02867
898 3.76303 -8.13056 -4.63053
657 3.07461 -7.3878 -5.9546
659 3.79332 -7.35701 -5.2249
1721 6.01899 -1.5485 -1.53835
661 4.50324 -7.49613 -5.96167
616 4.52967 -8.24535 -5.20918
614 5.20562 -8.2228 -5.95774
663 5.22885 -7.47772 -5.27223
3751 -6.71328 -0.0578741 -6.76698
1806 2.2108 -6.72647 -0.100178
618 6.76851 -8.177 -6.03642
620 6.01936 -8.21099 -5.20861
667 6.74049 -7.52322 -5.25229
277 4.45627 -1.52307 -8.85689
669 7.56494 -7.53736 -6.04646
580 -8.91123 -8.24615 -5.25214
624 7.52158 -8.25516 -5.20016
622 8.26852 -8.32351 -5.92376
629 -7.46656 -7.46003 -6.02563
627 -8.20286 -7.40169 -5.29035
632 -7.46845 -6.71667 -5.28671
628 -8.90586 -6.72767 -5.32092
914 -8.26695 -6.72199 -4.55511
681 -5.96708 -6.00756 -6.01566
917 -7.48969 -7.41458 -4.52169
918 -6.73951 -6.7269 -4.53959
679 -6.78952 -6.00915 -5.27875
634 -5.24616 -6.64359 -5.96619
635 -5.23415 -7.4722 -5.26099
636 -5.95899 -6.71846 -5.29091
922 -5.31973 -6.64863 -4.49442
640 -4.50248 -6.73435 -5.23088
973 -4.54174 -5.99175 -4.46351
685 -4.42939 -6.02764 -5.99583
638 -3.6868 -6.6697 -5.98043
639 -3.75997 -7.46325 -5.2733
926 -3.78951 -6.66713 -4.50018
642 -2.22712 -6.64354 -5.96648
644 -3.05194 -6.72254 -5.23511
648 -1.50032 -6.7088 -5.28035
652 0.0182413 -6.68903 -5.20391
651 0.735139 -7.4017 -5.23271
941 1.50339 -7.47086 -4.49701
938 0.774488 -6.68033 -4.51043
655 2.23759 -7.52001 -5.23926
656 1.54507 -6.68694 -5.28055
660 3.03778 -6.62595 -5.2948
942 2.31351 -6.6902 -4.62405
658 3.89268 -6.64897 -5.9376
946 3.73435 -6.63126 -4.41106
997 4.5161 -5.98953 -4.51645
709 4.49742 -5.87776 -5.88319
665 5.97099 -7.47313 -5.90567
664 4.55063 -6.67587 -5.15255
668 6.00547 -6.77547 -5.19176
666 6.78327 -6.79449 -5.96608
954 6.77863 -6.78484 -4.45881
672 7.43195 -6.73881 -5.20905
715 6.83004 -5.89699 -5.22526
913 -8.93649 -7.47852 -4.52277
671 8.22171 -7.42812 -5.26609
719 8.19603 -6.07762 -5.3292
675 -8.21173 -5.99968 -5.32796
723 -8.1836 -4.51394 -5.24898
962 -8.12437 -5.23569 -4.54793
965 -7.45612 -6.02133 -4.4504
680 -7.44282 -5.23954 -5.27632
966 -6.70688 -5.2717 -4.46972
727 -6.66115 -4.44514 -5.29212
969 -6.07833 -5.94389 -4.49703
683 -5.2291 -5.9258 -5.22791
684 -5.9586 -5.1186 -5.21068
970 -5.18808 -5.15226 -4.55799
1017 -5.927 -4.44115 -4.45053
733 -4.52292 -4.49252 -5.92873
687 -3.70354 -5.88887 -5.1431
688 -4.43904 -5.23207 -5.20363
686 -3.77419 -5.26258 -6.00778
974 -3.70894 -5.14623 -4.47748
690 -2.26003 -5.18256 -6.00144
737 -3.05391 -4.41588 -5.90355
981 -1.51257 -5.97114 -4.47961
691 -2.25633 -5.94296 -5.21138
692 -2.98344 -5.1829 -5.20214
739 -2.31548 -4.4579 -5.15865
695 -0.774226 -5.94658 -5.14646
696 -1.57586 -5.17309 -5.20173
743 -0.726997 -4.45853 -5.20132
985 0.0318008 -5.90775 -4.57884
982 -0.815003 -5.17258 -4.46926
700 0.0480961 -5.18248 -5.22335
699 0.767852 -6.01773 -5.25325
986 0.757113 -5.26306 -4.49359
704 1.49627 -5.30316 -5.19834
989 1.5227 -5.94979 -4.40639
703 2.25011 -5.93296 -5.38275
708 2.98937 -5.16911 -5.30889
1037 1.49403 -4.46488 -4.5049
993 3.01086 -5.86428 -4.54802
990 2.22926 -5.21435 -4.50841
705 3.02069 -5.92987 -6.05138
707 3.76709 -5.87799 -5.25472
755 3.77642 -4.53888 -5.27767
712 4.54048 -5.22011 -5.17603
994 3.81441 -5.20094 -4.42638
761 6.03158 -4.53381 -5.89199
711 5.29617 -6.00603 -5.13692
710 5.28482 -5.20244 -5.95035
716 6.0652 -5.18267 -5.1528
714 6.75704 -5.26954 -6.0222
720 7.49841 -5.1849 -5.27837
1002 6.76155 -5.12558 -4.43322
676 8.88576 -5.21135 -5.29337
765 7.50011 -4.4812 -5.94858
1006 8.19762 -5.2062 -4.45031
1053 7.52659 -4.42465 -4.46569
722 -8.22863 -3.8378 -5.94223
1010 -8.18253 -3.80272 -4.48222
728 -7.40916 -3.80538 -5.20789
771 -8.2231 -3.09352 -5.27399
732 -5.95812 -3.72228 -5.22561
1065 -6.01243 -2.9937 -4.5079
775 -6.76526 -3.0275 -5.13937
1014 -6.7116 -3.82775 -4.47358
731 -5.22656 -4.50868 -5.24702
730 -5.23102 -3.75224 -5.98095
736 -4.59736 -3.73835 -5.22032
734 -3.76091 -3.63119 -5.90356
781 -4.52321 -3.0335 -5.92175
735 -3.71556 -4.35989 -5.16341
783 -3.77507 -2.94384 -5.16564
785 -2.999 -2.99794 -5.96729
740 -3.02701 -3.65575 -5.17245
738 -2.30309 -3.76793 -5.95439
744 -1.43434 -3.76048 -5.25594
1030 -0.62073 -3.72367 -4.48455
791 -0.731269 -3.0036 -5.22933
747 0.783334 -4.5153 -5.25791
748 0.142747 -3.75857 -5.27353
797 1.54416 -2.97914 -5.95834
1033 0.094777 -4.50329 -4.45226
1034 0.698964 -3.69641 -4.45465
1081 0.0410361 -2.97033 -4.48276
752 1.43868 -3.68707 -5.20518
751 2.21663 -4.46685 -5.21801
756 3.03475 -3.85176 -5.26677
754 3.86739 -3.70754 -6.03613
759 5.21127 -4.42067 -5.17847
760 4.46536 -3.69432 -5.20857
758 5.25995 -3.78416 -5.98166
764 5.98922 -3.80411 -5.21399
1049 5.92292 -4.43685 -4.452
762 6.72646 -3.74156 -5.94411
763 6.80452 -4.49544 -5.22522
811 6.6533 -2.94053 -5.10463
767 8.16059 -4.41634 -5.22655
768 7.38188 -3.6313 -5.18728
724 8.96072 -3.83996 -5.25608
769 8.8492 -2.93425 -6.04507
819 -8.24136 -1.52447 -5.26783
776 -7.55309 -2.25166 -5.29833
1109 -7.46247 -1.48015 -4.49497
772 8.95683 -2.25277 -5.20255
1061 -7.45063 -3.04566 -4.45113
1058 -8.17295 -2.28015 -4.53357
774 -6.77188 -2.12862 -5.92353
780 -6.05046 -2.24012 -5.13612
823 -6.72563 -1.40092 -5.21377
1062 -6.82165 -2.23991 -4.49708
778 -5.19378 -2.27265 -5.95983
779 -5.29754 -2.97085 -5.18141
1066 -5.19604 -2.2034 -4.52315
1069 -4.52193 -2.93658 -4.48831
782 -3.79532 -2.30815 -5.96741
784 -4.51393 -2.23316 -5.24399
788 -3.07952 -2.21463 -5.30166
786 -2.26171 -2.18331 -5.95511
787 -2.20084 -2.99159 -5.24884
837 -1.48618 -1.38167 -5.95884
1074 -2.2718 -2.22491 -4.47088
789 -1.53396 -3.01481 -5.97962
792 -1.42062 -2.29539 -5.26223
839 -0.746019 -1.48067 -5.18552
795 0.787502 -2.90191 -5.30886
796 0.0351175 -2.1599 -5.27724
800 1.48846 -2.26609 -5.24763
843 0.765705 -1.56783 -5.29222
799 2.25402 -3.02533 -5.21
798 2.25155 -2.28563 -5.94535
804 2.95756 -2.28317 -5.23878
803 3.71378 -2.99032 -5.20879
808 4.4615 -2.18778 -5.21251
1090 3.71356 -2.16947 -4.46037
1141 4.46827 -1.37949 -4.42289
807 5.14222 -2.9583 -5.16441
1097 5.92887 -3.04025 -4.40847
861 7.51232 -1.50782 -5.8872
812 5.95002 -2.19477 -5.10375
816 7.42195 -2.28836 -5.08137
814 8.15118 -2.2591 -5.97388
815 8.24947 -2.99952 -5.20794
1101 7.50508 -3.07665 -4.36829
1102 8.28173 -2.21823 -4.50444
1149 7.46129 -1.4225 -4.51129
821 -7.47799 -1.38075 -5.94359
824 -7.49276 -0.69118 -5.2025
1106 -8.18988 -0.732705 -4.48451
1719 5.27945 -1.50974 -0.786611
1982 -3.68718 -0.713649 -0.110301
822 -6.77359 -0.642627 -5.99929
828 -6.05039 -0.702374 -5.25382
1110 -6.72121 -0.667851 -4.49134
867 -8.1459 -8.93547 -3.78838
827 -5.29951 -1.45385 -5.15377
832 -4.53256 -0.763912 -5.25116
1114 -5.21702 -0.774395 -4.40189
4033 8.92839 0.0113334 -6.03696
833 -2.98882 -1.48029 -5.93313
830 -3.80153 -0.793025 -6.03851
831 -3.78143 -1.53663 -5.25998
1121 -2.95775 -1.4763 -4.41236
1117 -4.44351 -1.47889 -4.46384
1118 -3.73941 -0.795183 -4.48595
4641 3.01324 -0.028284 -3.03656
293 -7.46411 -8.96736 -7.55044
836 -3.04522 -0.727493 -5.25473
835 -2.2774 -1.50058 -5.2794
840 -1.49301 -0.750724 -5.23586
838 -0.785427 -0.697178 -5.9531
1167 -3.71629 -8.96598 -2.35471
845 1.51932 -1.53336 -5.99448
844 -0.0305092 -0.835125 -5.20863
1813 4.47065 -7.5764 -0.0497454
847 2.14422 -1.50426 -5.25559
848 1.44098 -0.746161 -5.19902
846 2.23331 -0.839737 -6.07311
1134 2.24365 -0.809059 -4.49889
1137 2.94364 -1.45071 -4.5446
1966 8.2065 -2.23015 -0.00362542
849 2.99522 -1.47028 -5.94618
852 2.97016 -0.697131 -5.27144
851 3.72005 -1.50241 -5.26081
856 4.43021 -0.639912 -5.30596
855 5.14031 -1.40952 -5.13577
860 5.96903 -0.729007 -5.16627
1142 5.15101 -0.6995 -4.45092
859 6.65494 -1.48665 -5.16955
864 7.46397 -0.761885 -5.21713
1761 3.0109 -8.98292 -0.0784326
1145 5.94728 -1.41241 -4.3964
1146 6.6667 -0.651663 -4.42386
820 8.92293 -0.687714 -5.19511
863 8.26642 -1.49577 -5.27242
1150 8.20961 -0.751641 -4.50343
1105 -8.9404 -1.50721 -4.50615
237 7.44724 -3.0136 -8.89157
915 -8.18726 -7.5151 -3.77384
1154 -8.13981 -8.17062 -3.02493
870 -6.68825 -8.18473 -4.47706
872 -7.43982 -8.11329 -3.7826
919 -6.66324 -7.42025 -3.68318
319 2.22962 -8.90188 -6.7942
876 -5.97208 -8.22375 -3.7902
880 -4.47063 -8.20879 -3.64265
1209 -5.91258 -7.46026 -2.99333
878 -3.73309 -8.1512 -4.48725
927 -3.79741 -7.42423 -3.76867
884 -3.08354 -8.22451 -3.75863
1217 -3.03602 -7.45214 -3.00417
925 -4.50244 -7.45172 -4.42648
1886 -3.7187 -3.72853 -0.0478177
1170 -2.21949 -8.21295 -3.04664
931 -2.36208 -7.4987 -3.778
888 -1.42496 -8.18844 -3.6909
886 -0.766788 -8.18687 -4.53371
892 0.0347601 -8.20495 -3.75904
1174 -0.729346 -8.24103 -3.01125
896 1.50994 -8.26636 -3.72623
4899 -8.17252 -0.0792087 -0.833093
1182 2.26375 -8.13664 -3.03509
900 2.94399 -8.17668 -3.87346
4059 0.693838 -0.091702 -5.25413
3759 -3.63881 -0.023318 -6.74488
1890 -2.18825 -3.81325 -0.0492162
1186 3.75463 -8.15458 -2.96916
949 4.49824 -7.48949 -4.45773
902 5.27673 -8.16962 -4.4876
904 4.45125 -8.24515 -3.67157
2013 7.43082 -1.44117 -0.0415929
908 5.97868 -8.18429 -3.78578
906 6.81058 -8.18133 -4.38203
912 7.61786 -8.27975 -3.72415
955 6.74018 -7.50391 -3.73998
305 -3.01575 -8.97017 -7.49601
1715 3.68298 -1.52323 -0.698785
910 8.29168 -8.30745 -4.46665
868 -8.95188 -8.32673 -3.70583
959 8.29252 -7.53259 -3.70631
916 -8.91571 -6.72078 -3.75925
961 8.92868 -5.95686 -4.60226
1202 -8.22357 -6.73468 -3.02304
920 -7.44315 -6.78726 -3.73405
1206 -6.67865 -6.66144 -2.97043
924 -6.02895 -6.61253 -3.78336
967 -6.74279 -5.94832 -3.6754
923 -5.25955 -7.41026 -3.7341
971 -5.24296 -5.90304 -3.74643
1210 -5.32787 -6.67564 -3.02997
1261 -4.56717 -5.93124 -3.00888
928 -4.53586 -6.68286 -3.76242
1265 -2.9621 -5.97167 -2.98096
932 -3.02374 -6.69942 -3.77956
975 -3.69835 -5.85662 -3.73376
930 -2.21536 -6.74162 -4.5891
977 -3.00009 -5.91656 -4.45418
979 -2.23864 -6.025 -3.71
936 -1.44604 -6.78678 -3.79275
1218 -2.20159 -6.76917 -2.99338
1269 -1.54429 -6.04739 -2.95595
934 -0.752452 -6.72321 -4.54371
935 -0.693302 -7.44672 -3.73404
983 -0.77582 -5.95587 -3.77947
1273 -0.0507648 -5.98877 -3.04597
1225 0.0165127 -7.46591 -3.02372
940 -0.00431276 -6.70601 -3.8705
939 0.746738 -7.49068 -3.74292
1229 1.47875 -7.53251 -3.05353
1226 0.7516 -6.76743 -2.99787
945 3.02154 -7.46688 -4.58798
943 2.2325 -7.42769 -3.75852
944 1.51453 -6.69172 -3.77318
1230 2.21851 -6.76074 -2.91645
991 2.29647 -5.93315 -3.77125
1281 2.97375 -5.97469 -2.98847
947 3.70631 -7.46695 -3.76139
948 2.96191 -6.76416 -3.81613
1234 3.66532 -6.71597 -3.00078
952 4.43295 -6.58474 -3.71857
953 6.01227 -7.49732 -4.52388
950 5.34668 -6.7366 -4.48887
951 5.24854 -7.31703 -3.73762
999 5.32634 -5.99814 -3.79697
956 6.0242 -6.6342 -3.68464
1241 6.06112 -7.55443 -2.94017
1237 4.48683 -7.42551 -3.06142
1285 4.44908 -5.94419 -2.93472
1003 6.77654 -5.94199 -3.75378
1005 7.46632 -5.92585 -4.51693
1242 6.80055 -6.79527 -3.00434
957 7.59524 -7.48775 -4.52892
960 7.60906 -6.70571 -3.76885
958 8.24696 -6.71124 -4.5723
1007 8.34755 -5.95968 -3.72654
963 -8.28273 -5.97314 -3.88308