LAMMPS (29 Sep 2021 - Update 2)
variable t string 1

units lj
boundary p p p
atom_style atomic

lattice fcc 1.2
Lattice spacing in x,y,z = 1.4938016 1.4938016 1.4938016
region r1 block -6 6 -6 6 -6 6
create_box 1 r1
Created orthogonal box = (-8.9628095 -8.9628095 -8.9628095) to (8.9628095 8.9628095 8.9628095)
  1 by 2 by 2 MPI processor grid
create_atoms 1 box
Created 6912 atoms
  using lattice units in orthogonal box = (-8.9628095 -8.9628095 -8.9628095) to (8.9628095 8.9628095 8.9628095)
  create_atoms CPU = 0.002 seconds
mass 1 1.0

pair_style lj/cut 2.5
pair_coeff * * 1.0 1.0

velocity all create $t 322 mom yes rot no
velocity all create 1 322 mom yes rot no
reset_timestep	0
timestep 0.001

#### Equilibration ####
fix start all nvt temp 1.0 1.0 1

compute 1 all msd average yes

thermo_style custom c_1[4]
thermo 1

dump		vel all custom  100000 dump.* id x y z

run 200000
Neighbor list info ...
  update every 1 steps, delay 10 steps, check yes
  max neighbors/atom: 2000, page size: 100000
  master list distance cutoff = 2.8
  ghost atom cutoff = 2.8
  binsize = 1.4, bins = 13 13 13
  1 neighbor lists, perpetual/occasional/extra = 1 0 0
  (1) pair lj/cut, perpetual
      attributes: half, newton on
      pair build: half/bin/atomonly/newton
      stencil: half/bin/3d
      bin: standard
Per MPI rank memory allocation (min/avg/max) = 5.316 | 5.316 | 5.316 Mbytes
c_1[4] 
           0 
1.3331404e-06 
4.683143e-06 
9.6974113e-06 
1.6262359e-05 
2.4318343e-05 
3.3820135e-05 
4.4725123e-05 
5.6989012e-05 
7.0564055e-05 
8.5398285e-05 
0.00010143521 
0.00011861372 
0.00013686814 
0.00015612837 
0.00017632008 
0.00019736491 
0.00021918079 
0.00024168227 
0.00026478081 
0.00028838524 
0.00031240215 
0.00033673635 
0.00036129136 
0.00038596994 
0.00041067461 
0.00043530828 
0.00045977478 
0.00048397955 
0.00050783018 
0.00053123713 
0.00055411433 
0.00057637984 
0.00059795644 
0.0006187723 
0.0006387615 
0.00065786461 
0.00067602919 
0.00069321023 
0.00070937056 
0.0007244812 
0.00073852158 
0.00075147973 
0.00076335242 
0.00077414513 
0.00078387204 
0.00079255584 
0.00080022753 
0.00080692609 
0.00081269813 
0.00081759739 
0.00082168426 
0.00082502522 
0.0008276922 
0.00082976194 
0.00083131529 
0.00083243654 
0.00083321267 
0.00083373264 
0.0008340867 
0.00083436565 
0.00083466019 
0.00083506026 
0.00083565439 
0.00083652915 
0.00083776853 
0.00083945352 
0.00084166156 
0.00084446616 
0.00084793652 
0.0008521372 
0.00085712781 
0.00086296283 
0.00086969138 
0.00087735707 
0.00088599791 
0.00089564624 
0.00090632869 
0.00091806622 
0.00093087412 
0.0009447621 
0.00095973442 
0.00097578999 
0.00099292252 
0.0010111208 
0.0010303686 
0.0010506455 
0.0010719264 
0.0010941821 
  0.00111738 
0.0011414835 
0.0011664529 
0.0011922458 
0.0012188169 
0.0012461186 
0.0012741014 
0.0013027142 
0.0013319043 
0.0013616182 
0.0013918015 
0.0014223995 
0.0014533575 
0.0014846209 
0.0015161356 
0.0015478484 
0.0015797072 
0.0016116612 
0.0016436613 
0.0016756602 
0.0017076128 
 0.001739476 
0.0017712097 
 0.001802776 
0.0018341402 
0.0018652704 
0.0018961377 
0.0019267166 
0.0019569848 
0.0019869233 
0.0020165165 
0.0020457521 
0.0020746212 
0.0021031182 
 0.002131241 
0.0021589904 
0.0021863706 
0.0022133886 
0.0022400545 
0.0022663811 
0.0022923838 
0.0023180806 
0.0023434916 
0.0023686391 
0.0023935475 
0.0024182425 
0.0024427518 
0.0024671041 
0.0024913292 
0.0025154579 
0.0025395217 
0.0025635524 
0.0025875822 
0.0026116432 
0.0026357675 
0.0026599866 
0.0026843317 
 0.002708833 
0.0027335199 
0.0027584208 
0.0027835625 
0.0028089707 
0.0028346694 
0.0028606807 
0.0028870253 
0.0029137214 
0.0029407855 
0.0029682317 
 0.002996072 
0.0030243159 
0.0030529707 
0.0030820409 
0.0031115289 
0.0031414342 
 0.003171754 
0.0032024827 
0.0032336122 
0.0032651321 
 0.003297029 
0.0033292874 
0.0033618891 
0.0033948136 
0.0034280381 
0.0034615374 
0.0034952843 
0.0035292495 
0.0035634016 
0.0035977076 
0.0036321325 
0.0036666399 
0.0037011921 
0.0037357498 
0.0037702728 
0.0038047198 
0.0038390489 
0.0038732173 
0.0039071819 
0.0039408994 
0.0039743264 
0.0040074194 
0.0040401355 
 0.004072432 
0.0041042669 
0.0041355991 
0.0041663884 
0.0041965958 
0.0042261836 
0.0042551157 
0.0042833575 
0.0043108761 
0.0043376408 
0.0043636227 
0.0043887952 
0.0044131338 
0.0044366165 
0.0044592238 
0.0044809385 
0.0045017462 
 0.004521635 
0.0045405957 
0.0045586218 
0.0045757095 
0.0045918575 
0.0046070675 
0.0046213436 
0.0046346924 
0.0046471233 
0.0046586481 
0.0046692807 
0.0046790376 
0.0046879375 
0.0046960008 
0.0047032503 
0.0047097104 
0.0047154071 
0.0047203682 
0.0047246227 
0.0047282008 
0.0047311341 
0.0047334547 
0.0047351958 
0.0047363911 
0.0047370748 
0.0047372813 
0.0047370453 
0.0047364014 
0.0047353841 
0.0047340274 
0.0047323652 
0.0047304305 
0.0047282557 
0.0047258724 
0.0047233112 
0.0047206016 
 0.004717772 
0.0047148492 
0.0047118591 
0.0047088257 
0.0047057716 
0.0047027179 
0.0046996838 
0.0046966869 
 0.004693743 
0.0046908661 
0.0046880683 
0.0046853599 
0.0046827493 
0.0046802431 
 0.004677846 
 0.004675561 
0.0046733892 
  0.00467133 
0.0046693812 
0.0046675386 
0.0046657969 
0.0046641492 
0.0046625869 
0.0046611004 
0.0046596788 
0.0046583101 
0.0046569812 
0.0046556784 
0.0046543868 
0.0046530912 
0.0046517757 
0.0046504241 
0.0046490198 
0.0046475462 
0.0046459865 
0.0046443242 
0.0046425428 
0.0046406263 
 0.004638559 
0.0046363257 
0.0046339121 
0.0046313045 
0.0046284899 
0.0046254564 
0.0046221931 
0.0046186901 
0.0046149386 
0.0046109311 
0.0046066613 
0.0046021241 
 0.004597316 
0.0045922345 
0.0045868787 
0.0045812491 
0.0045753474 
 0.004569177 
0.0045627423 
0.0045560493 
0.0045491055 
0.0045419192 
0.0045345004 
0.0045268603 
 0.004519011 
0.0045109659 
0.0045027394 
0.0044943469 
0.0044858047 
  0.00447713 
0.0044683405 
 0.004459455 
0.0044504923 
0.0044414721 
0.0044324143 
0.0044233392 
0.0044142671 
0.0044052185 
0.0043962138 
0.0043872735 
0.0043784176 
0.0043696659 
0.0043610379 
0.0043525525 
 0.004344228 
0.0043360822 
0.0043281319 
0.0043203932 
0.0043128816 
0.0043056111 
0.0042985954 
0.0042918465 
0.0042853759 
0.0042791935 
0.0042733085 
0.0042677288 
 0.004262461 
0.0042575109 
0.0042528828 
0.0042485802 
0.0042446051 
0.0042409588 
0.0042376413 
0.0042346516 
0.0042319877 
0.0042296468 
0.0042276248 
0.0042259172 
0.0042245183 
0.0042234217 
0.0042226204 
0.0042221064 
0.0042218713 
0.0042219061 
0.0042222012 
0.0042227465 
0.0042235314 
0.0042245451 
0.0042257764 
0.0042272138 
0.0042288455 
0.0042306597 
0.0042326445 
0.0042347879 
 0.004237078 
0.0042395029 
 0.004242051 
0.0042447108 
 0.004247471 
0.0042503209 
0.0042532498 
0.0042562478 
0.0042593052 
 0.004262413 
0.0042655626 
0.0042687462 
0.0042719564 
0.0042751866 
0.0042784307 
0.0042816835 
0.0042849402 
0.0042881969 
0.0042914503 
0.0042946976 
0.0042979367 
0.0043011663 
0.0043043855 
0.0043075938 
0.0043107916 
0.0043139794 
0.0043171583 
0.0043203298 
0.0043234956 
0.0043266579 
0.0043298189 
0.0043329812 
0.0043361475 
0.0043393205 
0.0043425033 
0.0043456985 
0.0043489092 
0.0043521382 
0.0043553881 
0.0043586618 
0.0043619617 
0.0043652901 
0.0043686492 
 0.004372041 
0.0043754673 
0.0043789294 
0.0043824285 
0.0043859657 
0.0043895415 
0.0043931563 
0.0043968101 
0.0044005025 
 0.004404233 
0.0044080005 
0.0044118037 
 0.004415641 
0.0044195102 
0.0044234091 
0.0044273347 
0.0044312841 
0.0044352538 
0.0044392399 
0.0044432383 
0.0044472444 
0.0044512535 
0.0044552604 
0.0044592595 
0.0044632453 
0.0044672116 
0.0044711522 
0.0044750606 
0.0044789302 
0.0044827543 
0.0044865257 
0.0044902375 
0.0044938826 
0.0044974537 
0.0045009438 
0.0045043456 
0.0045076521 
0.0045108564 
0.0045139515 
0.0045169307 
0.0045197876 
0.0045225159 
0.0045251097 
 0.004527563 
0.0045298705 
0.0045320271 
0.0045340279 
0.0045358686 
0.0045375451 
0.0045390537 
0.0045403912 
0.0045415547 
0.0045425419 
0.0045433509 
  0.00454398 
0.0045444284 
0.0045446953 
0.0045447808 
0.0045446851 
 0.004544409 
 0.004543954 
0.0045433217 
0.0045425144 
0.0045415349 
0.0045403863 
0.0045390724 
0.0045375971 
 0.004535965 
0.0045341811 
0.0045322508 
0.0045301799 
0.0045279747 
0.0045256417 
0.0045231879 
0.0045206207 
0.0045179476 
0.0045151767 
 0.004512316 
0.0045093741 
0.0045063596 
0.0045032815 
0.0045001487 
0.0044969705 
0.0044937559 
0.0044905144 
0.0044872552 
0.0044839877 
 0.004480721 
0.0044774643 
0.0044742267 
0.0044710169 
0.0044678437 
0.0044647154 
0.0044616402 
 0.004458626 
0.0044556802 
0.0044528101 
0.0044500224 
0.0044473234 
0.0044447192 
0.0044422153 
0.0044398166 
0.0044375278 
 0.004435353 
 0.004433296 
0.0044313597 
0.0044295469 
0.0044278599 
0.0044263004 
0.0044248698 
0.0044235688 
 0.004422398 
0.0044213573 
0.0044204465 
0.0044196648 
0.0044190111 
0.0044184839 
0.0044180816 
0.0044178021 
 0.004417643 
0.0044176019 
0.0044176758 
0.0044178617 
0.0044181563 
0.0044185562 
0.0044190576 
0.0044196568 
0.0044203497 
 0.004421132 
0.0044219995 
0.0044229475 
0.0044239715 
0.0044250665 
0.0044262276 
0.0044274496 
0.0044287271 
0.0044300547 
0.0044314267 
0.0044328374 
0.0044342809 
 0.004435751 
0.0044372415 
0.0044387462 
0.0044402586 
 0.004441772 
0.0044432798 
0.0044447752 
0.0044462514 
0.0044477015 
0.0044491185 
0.0044504957 
 0.004451826 
0.0044531027 
0.0044543188 
0.0044554676 
0.0044565426 
0.0044575372 
0.0044584452 
0.0044592605 
0.0044599772 
0.0044605898 
0.0044610929 
0.0044614816 
0.0044617513 
0.0044618979 
0.0044619175 
0.0044618069 
0.0044615631 
 0.004461184 
0.0044606675 
0.0044600125 
0.0044592182 
0.0044582844 
0.0044572115 
0.0044560005 
0.0044546528 
0.0044531705 
0.0044515562 
 0.004449813 
0.0044479447 
0.0044459553 
0.0044438495 
0.0044416323 
0.0044393092 
0.0044368861 
0.0044343691 
0.0044317646 
0.0044290795 
0.0044263207 
0.0044234954 
0.0044206108 
0.0044176743 
0.0044146934 
0.0044116756 
0.0044086283 
0.0044055588 
0.0044024746 
0.0043993826 
  0.00439629 
0.0043932035 
0.0043901297 
0.0043870751 
0.0043840455 
 0.004381047 
0.0043780848 
0.0043751644 
0.0043722903 
0.0043694673 
0.0043666993 
0.0043639902 
0.0043613435 
0.0043587623 
0.0043562491 
0.0043538066 
0.0043514366 
0.0043491409 
0.0043469208 
0.0043447774 
0.0043427113 
 0.004340723 
0.0043388126 
  0.00433698 
0.0043352249 
0.0043335466 
0.0043319443 
0.0043304171 
0.0043289636 
0.0043275824 
 0.004326272 
0.0043250308 
0.0043238568 
0.0043227482 
0.0043217027 
0.0043207183 
0.0043197925 
0.0043189231 
0.0043181074 
 0.004317343 
0.0043166271 
 0.004315957 
0.0043153297 
0.0043147424 
 0.004314192 
0.0043136752 
 0.004313189 
0.0043127298 
0.0043122943 
 0.004311879 
0.0043114801 
0.0043110941 
0.0043107172 
0.0043103454 
0.0043099749 
0.0043096018 
 0.004309222 
0.0043088317 
0.0043084268 
0.0043080035 
0.0043075579 
0.0043070862 
0.0043065849 
0.0043060504 
0.0043054793 
0.0043048687 
0.0043042154 
0.0043035169 
0.0043027708 
0.0043019749 
0.0043011274 
0.0043002269 
 0.004299272 
0.0042982621 
0.0042971966 
0.0042960755 
0.0042948989 
0.0042936676 
0.0042923825 
 0.004291045 
0.0042896566 
0.0042882195 
 0.004286736 
0.0042852088 
0.0042836407 
 0.004282035 
0.0042803951 
0.0042787248 
 0.004277028 
0.0042753088 
0.0042735714 
0.0042718202 
0.0042700598 
0.0042682947 
0.0042665297 
0.0042647694 
0.0042630186 
 0.004261282 
0.0042595643 
0.0042578701 
0.0042562041 
0.0042545707 
0.0042529744 
0.0042514193 
0.0042499098 
0.0042484497 
 0.004247043 
0.0042456932 
0.0042444038 
0.0042431781 
0.0042420191 
0.0042409297 
0.0042399122 
0.0042389692 
0.0042381027 
0.0042373144 
 0.004236606 
0.0042359787 
0.0042354336 
0.0042349712 
0.0042345922 
0.0042342967 
0.0042340847 
0.0042339557 
0.0042339093 
0.0042339445 
0.0042340605 
0.0042342558 
 0.004234529 
0.0042348784 
0.0042353022 
0.0042357983 
0.0042363645 
0.0042369985 
0.0042376977 
0.0042384596 
0.0042392815 
0.0042401606 
0.0042410939 
0.0042420786 
0.0042431116 
0.0042441898 
0.0042453099 
0.0042464688 
0.0042476633 
0.0042488899 
0.0042501453 
0.0042514261 
0.0042527289 
0.0042540504 
 0.004255387 
0.0042567354 
0.0042580921 
0.0042594539 
0.0042608175 
0.0042621795 
0.0042635369 
0.0042648865 
0.0042662253 
0.0042675506 
0.0042688594 
0.0042701493 
0.0042714177 
0.0042726623 
 0.004273881 
0.0042750717 
0.0042762326 
 0.004277362 
0.0042784585 
0.0042795207 
0.0042805475 
0.0042815377 
0.0042824907 
0.0042834056 
0.0042842819 
0.0042851192 
0.0042859172 
0.0042866756 
0.0042873944 
0.0042880736 
0.0042887133 
0.0042893136 
0.0042898749 
0.0042903973 
0.0042908811 
0.0042913268 
0.0042917346 
0.0042921049 
0.0042924382 
0.0042927347 
0.0042929948 
0.0042932189 
0.0042934073 
0.0042935602 
0.0042936779 
0.0042937606 
0.0042938085 
0.0042938217 
0.0042938003 
0.0042937442 
0.0042936536 
0.0042935284 
0.0042933683 
0.0042931734 
0.0042929433 
0.0042926778 
0.0042923766 
0.0042920394 
0.0042916658 
0.0042912554 
0.0042908078 
0.0042903225 
0.0042897991 
0.0042892371 
0.0042886361 
0.0042879957 
0.0042873156 
0.0042865953 
0.0042858349 
 0.004285034 
0.0042841928 
0.0042833113 
  0.00428239 
0.0042814292 
0.0042804296 
0.0042793921 
 0.004278318 
0.0042772084 
0.0042760652 
0.0042748901 
0.0042736855 
0.0042724539 
 0.004271198 
 0.004269921 
0.0042686264 
0.0042673178 
0.0042659992 
0.0042646749 
0.0042633495 
0.0042620277 
0.0042607144 
0.0042594148 
0.0042581343 
 0.004256878 
0.0042556517 
0.0042544606 
0.0042533103 
0.0042522063 
0.0042511538 
0.0042501582 
0.0042492243 
 0.004248357 
 0.004247561 
0.0042468404 
0.0042461993 
0.0042456413 
0.0042451698 
0.0042447877 
0.0042444976 
0.0042443016 
0.0042442017 
0.0042441992 
 0.004244295 
  0.00424449 
0.0042447842 
0.0042451778 
0.0042456703 
 0.004246261 
0.0042469487 
0.0042477321 
0.0042486095 
0.0042495791 
0.0042506386 
0.0042517856 
0.0042530174 
 0.004254331 
0.0042557234 
0.0042571912 
0.0042587308 
0.0042603387 
0.0042620108 
0.0042637433 
0.0042655317 
 0.004267372 
0.0042692595 
0.0042711897 
 0.004273158 
0.0042751596 
0.0042771898 
0.0042792435 
0.0042813159 
0.0042834021 
0.0042854971 
 0.004287596 
 0.004289694 
0.0042917861 
0.0042938678 
0.0042959344 
0.0042979813 
0.0043000044 
0.0043019994 
0.0043039622 
0.0043058893 
0.0043077771 
0.0043096223 
 0.004311422 
0.0043131734 
0.0043148743 
0.0043165226 
0.0043181164 
0.0043196543 
0.0043211353 
0.0043225585 
0.0043239234 
0.0043252297 
0.0043264775 
0.0043276672 
0.0043287993 
0.0043298746 
0.0043308941 
 0.004331859 
0.0043327705 
0.0043336303 
0.0043344398 
0.0043352007 
0.0043359148 
0.0043365839 
0.0043372095 
0.0043377937 
 0.004338338 
0.0043388441 
0.0043393137 
0.0043397484 
0.0043401494 
0.0043405183 
0.0043408561 
0.0043411641 
 0.004341443 
0.0043416939 
0.0043419174 
 0.004342114 
0.0043422841 
0.0043424282 
0.0043425463 
0.0043426384 
0.0043427046 
0.0043427446 
0.0043427582 
0.0043427449 
0.0043427044 
0.0043426361 
0.0043425395 
 0.004342414 
 0.004342259 
0.0043420738 
0.0043418579 
0.0043416105 
0.0043413314 
0.0043410199 
0.0043406757 
0.0043402986 
0.0043398885 
0.0043394453 
0.0043389693 
0.0043384607 
0.0043379202 
0.0043373484 
0.0043367463 
 0.004336115 
0.0043354559 
0.0043347706 
0.0043340609 
0.0043333287 
0.0043325762 
0.0043318059 
0.0043310203 
 0.004330222 
 0.004329414 
0.0043285992 
0.0043277806 
0.0043269615 
0.0043261449 
0.0043253341 
0.0043245324 
0.0043237431 
0.0043229693 
0.0043222144 
0.0043214813 
0.0043207733 
0.0043200934 
0.0043194445 
0.0043188294 
0.0043182508 
0.0043177114 
0.0043172137 
  0.00431676 
0.0043163525 
0.0043159935 
0.0043156847 
0.0043154282 
0.0043152255 
0.0043150781 
0.0043149875 
0.0043149549 
0.0043149814 
 0.004315068 
0.0043152154 
0.0043154242 
0.0043156951 
0.0043160282 
0.0043164239 
0.0043168823 
0.0043174031 
0.0043179861 
 0.004318631 
0.0043193372 
0.0043201039 
0.0043209302 
0.0043218152 
0.0043227575 
0.0043237557 
0.0043248082 
0.0043259132 
0.0043270686 
0.0043282722 
0.0043295214 
0.0043308137 
0.0043321461 
0.0043335155 
0.0043349184 
0.0043363512 
0.0043378101 
0.0043392911 
0.0043407898 
0.0043423017 
0.0043438221 
0.0043453462 
0.0043468689 
 0.004348385 
0.0043498891 
0.0043513759 
0.0043528398 
0.0043542752 
0.0043556766 
0.0043570384 
0.0043583549 
0.0043596209 
0.0043608307 
0.0043619793 
0.0043630617 
0.0043640728 
0.0043650083 
0.0043658636 
 0.004366635 
0.0043673186 
0.0043679112 
0.0043684099 
0.0043688123 
0.0043691163 
0.0043693205 
0.0043694237 
0.0043694255 
0.0043693258 
0.0043691251 
0.0043688242 
0.0043684249 
0.0043679289 
0.0043673389 
0.0043666578 
 0.004365889 
0.0043650364 
0.0043641041 
0.0043630968 
0.0043620194 
0.0043608774 
 0.004359676 
0.0043584213 
0.0043571193 
 0.004355776 
 0.004354398 
0.0043529916 
0.0043515634 
  0.00435012 
0.0043486679 
0.0043472139 
0.0043457644 
0.0043443261 
0.0043429052 
0.0043415082 
0.0043401412 
0.0043388104 
0.0043375215 
0.0043362802 
0.0043350921 
0.0043339623 
0.0043328959 
0.0043318976 
0.0043309717 
0.0043301224 
0.0043293534 
0.0043286683 
  0.00432807 
0.0043275614 
0.0043271446 
0.0043268216 
0.0043265939 
0.0043264626 
0.0043264284 
0.0043264915 
0.0043266518 
0.0043269088 
0.0043272617 
 0.004327709 
0.0043282493 
0.0043288806 
0.0043296005 
0.0043304067 
0.0043312964 
0.0043322665 
0.0043333141 
0.0043344357 
0.0043356281 
0.0043368879 
0.0043382117 
 0.004339596 
0.0043410375 
0.0043425331 
0.0043440797 
0.0043456742 
0.0043473139 
0.0043489963 
0.0043507191 
0.0043524801 
0.0043542776 
  0.00435611 
0.0043579761 
 0.004359875 
0.0043618058 
0.0043637685 
0.0043657627 
0.0043677889 
0.0043698475 
0.0043719394 
0.0043740657 
0.0043762279 
0.0043784275 
0.0043806665 
0.0043829471 
0.0043852716 
0.0043876428 
0.0043900633 
0.0043925361 
0.0043950643 
0.0043976513 
0.0044003002 
0.0044030146 
0.0044057978 
0.0044086532 
0.0044115843 
0.0044145943 
0.0044176864 
0.0044208636 
0.0044241287 
0.0044274843 
0.0044309326 
0.0044344756 
0.0044381148 
0.0044418515 
0.0044456864 
0.0044496198 
0.0044536514 
0.0044577805 
0.0044620059 
0.0044663258 
0.0044707379 
0.0044752394 
0.0044798269 
0.0044844965 
0.0044892438 
 0.004494064 
0.0044989518 
0.0045039015 
 0.004508907 
0.0045139619 
0.0045190595 
0.0045241927 
0.0045293544 
0.0045345372 
0.0045397337 
0.0045449364 
0.0045501377 
0.0045553302 
0.0045605064 
0.0045656592 
0.0045707813 
0.0045758661 
0.0045809068 
0.0045858973 
0.0045908314 
0.0045957037 
0.0046005089 
0.0046052422 
0.0046098993 
0.0046144761 
0.0046189692 
0.0046233755 
0.0046276923 
0.0046319174 
0.0046360489 
0.0046400855 
0.0046440262 
0.0046478703 
0.0046516174 
0.0046552675 
0.0046588209 
0.0046622781 
0.0046656398 
0.0046689071 
0.0046720812 
0.0046751634 
0.0046781553 
0.0046810587 
0.0046838754 
0.0046866075 
0.0046892572 
0.0046918266 
0.0046943184 
 0.004696735 
0.0046990791 
0.0047013535 
0.0047035611 
 0.004705705 
0.0047077883 
0.0047098141 
0.0047117859 
 0.004713707 
0.0047155808 
0.0047174108 
0.0047192006 
0.0047209535 
0.0047226732 
0.0047243631 
0.0047260266 
 0.004727667 
0.0047292877 
0.0047308916 
0.0047324817 
 0.004734061 
0.0047356319 
 0.004737197 
0.0047387584 
0.0047403182 
0.0047418781 
0.0047434396 
 0.004745004 
0.0047465722 
0.0047481449 
0.0047497226 
0.0047513055 
0.0047528933 
0.0047544857 
 0.004756082 
0.0047576814 
0.0047592826 
0.0047608842 
0.0047624845 
0.0047640818 
0.0047656738 
0.0047672582 
0.0047688325 
0.0047703941 
0.0047719402 
0.0047734678 
0.0047749737 
0.0047764549 
 0.004777908 
0.0047793297 
0.0047807167 
0.0047820655 
0.0047833728 
0.0047846353 
0.0047858495 
0.0047870124 
0.0047881206 
0.0047891712 
0.0047901612 
0.0047910879 
0.0047919487 
0.0047927411 
0.0047934631 
0.0047941127 
0.0047946883 
0.0047951883 
0.0047956118 
 0.004795958 
0.0047962263 
0.0047964167 
0.0047965293 
0.0047965647 
 0.004796524 
0.0047964083 
0.0047962194 
0.0047959593 
0.0047956304 
0.0047952354 
0.0047947774 
0.0047942599 
0.0047936866 
0.0047930615 
0.0047923889 
0.0047916734 
0.0047909197 
0.0047901328 
 0.004789318 
0.0047884805 
0.0047876258 
0.0047867596 
0.0047858874 
 0.004785015 
 0.004784148 
0.0047832923 
0.0047824535 
0.0047816373 
0.0047808493 
 0.004780095 
0.0047793797 
0.0047787088 
0.0047780871 
0.0047775197 
0.0047770113 
0.0047765662 
0.0047761889 
0.0047758831 
0.0047756528 
0.0047755013 
0.0047754318 
0.0047754471 
0.0047755498 
 0.004775742 
0.0047760257 
0.0047764022 
0.0047768728 
0.0047774383 
0.0047780991 
0.0047788553 
0.0047797067 
0.0047806525 
0.0047816918 
0.0047828232 
0.0047840449 
0.0047853549 
0.0047867506 
0.0047882294 
0.0047897881 
0.0047914233 
0.0047931314 
0.0047949082 
0.0047967496 
0.0047986511 
 0.004800608 
0.0048026154 
0.0048046681 
0.0048067611 
0.0048088888 
0.0048110458 
0.0048132267 
0.0048154258 
0.0048176376 
0.0048198565 
0.0048220769 
0.0048242934 
0.0048265006 
0.0048286932 
0.0048308664 
 0.004833015 
0.0048351345 
0.0048372204 
0.0048392685 
0.0048412749 
0.0048432358 
0.0048451481 
0.0048470086 
0.0048488147 
0.0048505641 
0.0048522547 
 0.004853885 
0.0048554537 
0.0048569599 
0.0048584031 
0.0048597831 
0.0048611001 
0.0048623545 
0.0048635474 
0.0048646797 
 0.004865753 
0.0048667689 
0.0048677294 
0.0048686367 
0.0048694932 
0.0048703015 
0.0048710641 
0.0048717839 
0.0048724638 
0.0048731067 
0.0048737156 
0.0048742935 
0.0048748433 
0.0048753679 
0.0048758701 
0.0048763527 
0.0048768182 
 0.004877269 
0.0048777076 
0.0048781361 
0.0048785563 
  0.00487897 
0.0048793789 
0.0048797841 
0.0048801868 
 0.004880588 
0.0048809883 
0.0048813882 
 0.004881788 
0.0048821878 
0.0048825874 
0.0048829865 
0.0048833848 
0.0048837815 
0.0048841761 
0.0048845676 
0.0048849552 
 0.004885338 
0.0048857148 
0.0048860848 
 0.004886447 
0.0048868004 
0.0048871441 
0.0048874773 
0.0048877992 
0.0048881093 
 0.004888407 
0.0048886919 
0.0048889637 
0.0048892223 
0.0048894675 
0.0048896993 
 0.004889918 
0.0048901237 
0.0048903166 
 0.004890497 
0.0048906653 
0.0048908215 
0.0048909661 
0.0048910991 
0.0048912207 
0.0048913309 
0.0048914296 
0.0048915166 
0.0048915914 
0.0048916537 
0.0048917026 
0.0048917372 
0.0048917566 
0.0048917596 
0.0048917446 
0.0048917101 
0.0048916545 
0.0048915757 
0.0048914718 
0.0048913407 
0.0048911801 
0.0048909875 
0.0048907608 
0.0048904973 
0.0048901946 
0.0048898505 
0.0048894623 
 0.004889028 
0.0048885451 
0.0048880117 
0.0048874259 
0.0048867858 
0.0048860901 
0.0048853375 
0.0048845268 
0.0048836574 
0.0048827289 
 0.004881741 
0.0048806941 
0.0048795887 
0.0048784257 
0.0048772063 
0.0048759322 
0.0048746053 
0.0048732281 
0.0048718032 
0.0048703336 
0.0048688227 
0.0048672742 
0.0048656921 
0.0048640806 
0.0048624442 
0.0048607877 
0.0048591159 
0.0048574341 
0.0048557475 
0.0048540613 
0.0048523811 
0.0048507123 
0.0048490605 
0.0048474312 
0.0048458297 
0.0048442614 
0.0048427316 
0.0048412453 
0.0048398075 
0.0048384228 
0.0048370957 
0.0048358305 
0.0048346311 
0.0048335014 
0.0048324447 
0.0048314643 
0.0048305629 
0.0048297433 
0.0048290077 
0.0048283582 
0.0048277966 
0.0048273243 
0.0048269428 
0.0048266531 
 0.004826456 
0.0048263523 
0.0048263424 
0.0048264268 
0.0048266056 
0.0048268789 
0.0048272466 
0.0048277086 
0.0048282645 
0.0048289139 
0.0048296564 
0.0048304913 
0.0048314179 
0.0048324354 
0.0048335427 
 0.004834739 
0.0048360229 
0.0048373933 
0.0048388486 
0.0048403874 
0.0048420081 
0.0048437089 
 0.004845488 
0.0048473434 
0.0048492731 
 0.004851275 
 0.004853347 
0.0048554869 
0.0048576924 
0.0048599612 
0.0048622912 
0.0048646801 
0.0048671256 
0.0048696255 
0.0048721777 
0.0048747798 
0.0048774299 
0.0048801258 
0.0048828654 
0.0048856468 
0.0048884678 
0.0048913265 
0.0048942209 
0.0048971491 
0.0049001089 
0.0049030982 
0.0049061151 
0.0049091572 
0.0049122224 
0.0049153082 
0.0049184122 
0.0049215318 
0.0049246644 
0.0049278071 
 0.004930957 
0.0049341109 
0.0049372657 
 0.004940418 
0.0049435642 
0.0049467008 
0.0049498239 
0.0049529295 
0.0049560136 
0.0049590719 
0.0049621002 
0.0049650939 
0.0049680483 
0.0049709587 
0.0049738202 
0.0049766278 
0.0049793762 
0.0049820603 
0.0049846746 
0.0049872137 
0.0049896719 
0.0049920436 
0.0049943229 
0.0049965041 
0.0049985814 
0.0050005487 
0.0050024002 
0.0050041301 
0.0050057324 
0.0050072014 
0.0050085314 
0.0050097168 
0.0050107524 
0.0050116328 
0.0050123531 
0.0050129086 
0.0050132948 
0.0050135076 
0.0050135433 
0.0050133985 
0.0050130701 
0.0050125556 
0.0050118529 
0.0050109605 
0.0050098773 
0.0050086027 
0.0050071369 
0.0050054804 
0.0050036346 
0.0050016013 
0.0049993829 
0.0049969826 
0.0049944041 
0.0049916519 
 0.004988731 
0.0049856471 
0.0049824064 
0.0049790157 
0.0049754825 
0.0049718147 
0.0049680208 
0.0049641097 
0.0049600907 
0.0049559735 
0.0049517683 
0.0049474853 
0.0049431351 
0.0049387284 
0.0049342762 
0.0049297893 
0.0049252787 
0.0049207554 
0.0049162301 
0.0049117136 
0.0049072162 
0.0049027482 
0.0048983195 
0.0048939398 
0.0048896183 
0.0048853637 
0.0048811845 
0.0048770886 
0.0048730833 
0.0048691754 
0.0048653714 
 0.004861677 
0.0048580974 
0.0048546373 
0.0048513008 
0.0048480913 
0.0048450119 
0.0048420651 
0.0048392527 
0.0048365764 
 0.004834037 
0.0048316353 
0.0048293715 
0.0048272452 
0.0048252562 
0.0048234035 
0.0048216862 
0.0048201028 
0.0048186519 
0.0048173319 
0.0048161408 
0.0048150767 
0.0048141376 
0.0048133211 
 0.004812625 
0.0048120469 
0.0048115843 
0.0048112346 
0.0048109951 
 0.004810863 
0.0048108353 
0.0048109091 
0.0048110811 
0.0048113479 
0.0048117061 
0.0048121519 
0.0048126815 
0.0048132906 
0.0048139751 
0.0048147304 
0.0048155516 
0.0048164338 
0.0048173717 
  0.00481836 
 0.004819393 
0.0048204647 
0.0048215692 
0.0048227002 
0.0048238513 
0.0048250162 
0.0048261883 
0.0048273609 
0.0048285276 
0.0048296817 
0.0048308167 
0.0048319262 
 0.004833004 
0.0048340439 
0.0048350402 
0.0048359873 
0.0048368798 
0.0048377129 
 0.004838482 
0.0048391831 
0.0048398124 
0.0048403667 
0.0048408434 
0.0048412404 
0.0048415559 
 0.004841789 
 0.004841939 
0.0048420061 
0.0048419908 
0.0048418941 
0.0048417179 
0.0048414643 
0.0048411359 
0.0048407359 
0.0048402677 
0.0048397355 
0.0048391434 
0.0048384961 
0.0048377985 
0.0048370558 
0.0048362733 
0.0048354564 
0.0048346108 
0.0048337419 
0.0048328554 
0.0048319569 
0.0048310517 
0.0048301451 
0.0048292422 
0.0048283479 
0.0048274668 
 0.004826603 
0.0048257607 
0.0048249434 
0.0048241542 
0.0048233961 
0.0048226713 
0.0048219819 
0.0048213293 
0.0048207148 
0.0048201389 
 0.004819602 
 0.004819104 
0.0048186443 
0.0048182219 
0.0048178356 
0.0048174838 
0.0048171646 
0.0048168757 
0.0048166147 
0.0048163789 
0.0048161653 
0.0048159707 
0.0048157921 
0.0048156258 
0.0048154685 
0.0048153164 
0.0048151661 
0.0048150137 
0.0048148557 
0.0048146883 
 0.004814508 
0.0048143112 
0.0048140943 
0.0048138541 
0.0048135871 
0.0048132904 
 0.004812961 
0.0048125959 
0.0048121925 
0.0048117483 
 0.004811261 
0.0048107285 
0.0048101488 
0.0048095202 
0.0048088411 
0.0048081101 
0.0048073261 
0.0048064879 
0.0048055949 
0.0048046463 
0.0048036418 
0.0048025809 
0.0048014638 
0.0048002903 
0.0047990609 
0.0047977759 
 0.004796436 
0.0047950422 
0.0047935955 
0.0047920972 
0.0047905489 
0.0047889525 
0.0047873099 
0.0047856236 
0.0047838962 
0.0047821307 
0.0047803303 
0.0047784986 
0.0047766394 
 0.004774757 
0.0047728559 
0.0047709408 
 0.004769017 
0.0047670896 
0.0047651646 
0.0047632476 
 0.004761345 
0.0047594628 
0.0047576077 
0.0047557862 
 0.004754005 
0.0047522708 
0.0047505904 
0.0047489706 
 0.004747418 
0.0047459392 
0.0047445408 
0.0047432291 
0.0047420102 
0.0047408899 
 0.004739874 
0.0047389677 
0.0047381761 
0.0047375038 
0.0047369552 
0.0047365341 
0.0047362439 
0.0047360878 
0.0047360684 
0.0047361877 
0.0047364474 
0.0047368487 
0.0047373924 
0.0047380786 
0.0047389071 
0.0047398773 
0.0047409881 
0.0047422377 
0.0047436242 
0.0047451453 
0.0047467979 
 0.004748579 
0.0047504849 
0.0047525117 
0.0047546552 
0.0047569109 
0.0047592739 
0.0047617393 
0.0047643017 
0.0047669556 
0.0047696954 
 0.004772515 
0.0047754086 
0.0047783699 
0.0047813926 
0.0047844702 
0.0047875963 
0.0047907641 
0.0047939669 
0.0047971981 
0.0048004507 
0.0048037182 
0.0048069935 
0.0048102701 
 0.004813541 
0.0048167998 
0.0048200399 
0.0048232548 
0.0048264382 
0.0048295842 
0.0048326867 
0.0048357401 
 0.004838739 
0.0048416782 
 0.004844553 
0.0048473587 
0.0048500912 
0.0048527465 
0.0048553212 
0.0048578121 
0.0048602164 
0.0048625317 
0.0048647559 
0.0048668873 
0.0048689245 
0.0048708666 
0.0048727128 
0.0048744628 
0.0048761165 
0.0048776742 
0.0048791364 
0.0048805038 
0.0048817774 
0.0048829584 
0.0048840482 
0.0048850483 
0.0048859604 
0.0048867863 
0.0048875278 
 0.004888187 
0.0048887659 
0.0048892665 
0.0048896909 
0.0048900412 
0.0048903193 
0.0048905274 
0.0048906674 
0.0048907412 
0.0048907506 
0.0048906974 
0.0048905832 
0.0048904096 
0.0048901781 
  0.00488989 
0.0048895466 
0.0048891491 
0.0048886987 
0.0048881963 
0.0048876428 
0.0048870392 
0.0048863863 
0.0048856848 
0.0048849355 
 0.004884139 
 0.004883296 
0.0048824071 
0.0048814729 
0.0048804941 
0.0048794713 
0.0048784053 
0.0048772967 
0.0048761463 
 0.004874955 
0.0048737236 
0.0048724532 
0.0048711448 
0.0048697996 
0.0048684188 
0.0048670038 
0.0048655562 
0.0048640776 
0.0048625698 
0.0048610348 
0.0048594746 
0.0048578915 
0.0048562881 
0.0048546668 
0.0048530305 
 0.004851382 
0.0048497245 
0.0048480613 
0.0048463956 
 0.004844731 
 0.004843071 
0.0048414195 
0.0048397801 
0.0048381568 
0.0048365533 
0.0048349737 
0.0048334218 
0.0048319016 
0.0048304167 
 0.004828971 
0.0048275681 
0.0048262115 
0.0048249046 
0.0048236507 
0.0048224528 
0.0048213137 
0.0048202359 
0.0048192219 
0.0048182736 
0.0048173929 
0.0048165813 
  0.00481584 
0.0048151698 
0.0048145712 
0.0048140443 
0.0048135889 
0.0048132044 
0.0048128898 
0.0048126438 
0.0048124644 
0.0048123496 
0.0048122966 
0.0048123023 
0.0048123632 
0.0048124754 
0.0048126344 
0.0048128354 
0.0048130732 
0.0048133421 
 0.004813636 
0.0048139485 
 0.004814273 
0.0048146023 
 0.004814929 
0.0048152457 
0.0048155445 
0.0048158173 
0.0048160563 
 0.004816253 
0.0048163996 
0.0048164877 
0.0048165093 
0.0048164566 
0.0048163217 
0.0048160972 
0.0048157759 
0.0048153508 
0.0048148153 
0.0048141634 
0.0048133892 
0.0048124877 
0.0048114539 
0.0048102838 
0.0048089736 
0.0048075202 
0.0048059212 
0.0048041746 
0.0048022792 
0.0048002343 
0.0047980399 
0.0047956967 
0.0047932058 
0.0047905691 
 0.004787789 
0.0047848686 
0.0047818114 
0.0047786217 
0.0047753042 
 0.004771864 
0.0047683068 
0.0047646386 
0.0047608661 
0.0047569961 
0.0047530357 
0.0047489927 
0.0047448747 
0.0047406899 
0.0047364464 
0.0047321529 
0.0047278176 
0.0047234495 
 0.004719057 
 0.004714649 
0.0047102341 
0.0047058211 
0.0047014184 
0.0046970346 
 0.004692678 
0.0046883566 
0.0046840784 
0.0046798512 
0.0046756823 
0.0046715789 
 0.004667548 
0.0046635961 
0.0046597295 
0.0046559542 
0.0046522759 
0.0046486999 
0.0046452312 
0.0046418746 
0.0046386345 
 0.004635515 
0.0046325199 
 0.004629653 
0.0046269174 
0.0046243162 
0.0046218523 
0.0046195283 
0.0046173465 
0.0046153091 
0.0046134178 
0.0046116745 
0.0046100804 
 0.004608637 
0.0046073449 
 0.004606205 
0.0046052177 
0.0046043829 
0.0046037007 
0.0046031704 
0.0046027912 
0.0046025621 
0.0046024814 
0.0046025473 
0.0046027576 
0.0046031097 
0.0046036006 
 0.004604227 
0.0046049852 
0.0046058712 
0.0046068807 
0.0046080091 
0.0046092514 
0.0046106025 
0.0046120569 
0.0046136091 
0.0046152533 
0.0046169836 
 0.004618794 
0.0046206784 
0.0046226308 
 0.004624645 
0.0046267148 
0.0046288343 
0.0046309973 
0.0046331981 
0.0046354309 
0.0046376898 
0.0046399696 
0.0046422647 
  0.00464457 
0.0046468804 
0.0046491912 
0.0046514977 
0.0046537953 
0.0046560798 
 0.004658347 
0.0046605931 
0.0046628143 
 0.004665007 
0.0046671678 
0.0046692936 
0.0046713812 
0.0046734278 
0.0046754306 
0.0046773872 
 0.004679295 
0.0046811518 
0.0046829556 
0.0046847044 
0.0046863964 
0.0046880301 
0.0046896039 
0.0046911166 
 0.004692567 
0.0046939541 
 0.004695277 
0.0046965352 
0.0046977279 
0.0046988548 
0.0046999156 
0.0047009103 
0.0047018387 
0.0047027011 
0.0047034978 
0.0047042292 
0.0047048958 
0.0047054981 
0.0047060371 
0.0047065135 
0.0047069284 
0.0047072827 
0.0047075777 
0.0047078146 
0.0047079949 
0.0047081199 
0.0047081913 
0.0047082108 
0.0047081802 
0.0047081016 
0.0047079772 
0.0047078092 
0.0047076002 
0.0047073527 
0.0047070697 
0.0047067543 
0.0047064097 
0.0047060394 
0.0047056471 
0.0047052366 
 0.004704812 
0.0047043776 
0.0047039378 
0.0047034973 
0.0047030607 
0.0047026329 
0.0047022188 
0.0047018235 
 0.004701452 
0.0047011095 
 0.004700801 
0.0047005315 
 0.004700306 
0.0047001294 
0.0047000065 
0.0046999419 
0.0046999402 
0.0047000057 
0.0047001425 
0.0047003547 
0.0047006458 
0.0047010195 
0.0047014791 
0.0047020276 
0.0047026678 
0.0047034026 
0.0047042342 
0.0047051648 
0.0047061965 
0.0047073311 
0.0047085702 
0.0047099151 
0.0047113671 
0.0047129271 
0.0047145961 
0.0047163746 
0.0047182633 
0.0047202623 
0.0047223719 
0.0047245921 
0.0047269227 
0.0047293633 
0.0047319133 
 0.004734572 
0.0047373383 
 0.004740211 
0.0047431887 
0.0047462696 
0.0047494518 
0.0047527329 
0.0047561104 
0.0047595815 
0.0047631429 
 0.004766791 
0.0047705221 
0.0047743319 
 0.004778216 
0.0047821694 
0.0047861871 
0.0047902636 
0.0047943931 
0.0047985697 
0.0048027871 
0.0048070389 
0.0048113186 
0.0048156193 
0.0048199342 
0.0048242565 
0.0048285792 
0.0048328952 
0.0048371978 
0.0048414799 
0.0048457348 
0.0048499558 
0.0048541363 
  0.00485827 
0.0048623505 
0.0048663719 
0.0048703283 
 0.004874214 
0.0048780238 
0.0048817526 
0.0048853956 
0.0048889483 
0.0048924065 
0.0048957665 
0.0048990246 
0.0049021777 
0.0049052231 
0.0049081583 
0.0049109814 
0.0049136907 
0.0049162851 
0.0049187637 
0.0049211263 
0.0049233728 
0.0049255037 
0.0049275198 
0.0049294222 
0.0049312125 
0.0049328926 
0.0049344644 
0.0049359305 
0.0049372934 
0.0049385559 
0.0049397208 
0.0049407913 
0.0049417702 
0.0049426608 
0.0049434661 
0.0049441889 
0.0049448322 
0.0049453986 
0.0049458907 
0.0049463109 
0.0049466612 
0.0049469438 
0.0049471601 
0.0049473119 
0.0049474002 
0.0049474263 
0.0049473909 
0.0049472948 
0.0049471385 
0.0049469225 
0.0049466473 
 0.004946313 
0.0049459202 
 0.004945469 
  0.00494496 
0.0049443937 
0.0049437709 
0.0049430923 
 0.004942359 
0.0049415723 
0.0049407337 
 0.004939845 
0.0049389082 
0.0049379258 
0.0049369004 
0.0049358349 
0.0049347327 
0.0049335973 
0.0049324325 
0.0049312425 
0.0049300317 
0.0049288047 
0.0049275663 
0.0049263216 
0.0049250756 
0.0049238338 
0.0049226014 
 0.004921384 
0.0049201869 
0.0049190158 
0.0049178759 
0.0049167726 
0.0049157111 
0.0049146964 
0.0049137334 
0.0049128266 
0.0049119805 
0.0049111991 
0.0049104863 
0.0049098454 
0.0049092795 
0.0049087914 
0.0049083833 
0.0049080573 
0.0049078148 
 0.004907657 
0.0049075847 
0.0049075981 
0.0049076974 
0.0049078821 
0.0049081514 
0.0049085044 
0.0049089395 
0.0049094553 
0.0049100498 
 0.004910721 
0.0049114665 
0.0049122841 
0.0049131712 
0.0049141254 
 0.004915144 
0.0049162246 
0.0049173645 
0.0049185615 
 0.004919813 
0.0049211171 
0.0049224714 
0.0049238741 
0.0049253235 
0.0049268177 
0.0049283555 
0.0049299353 
 0.004931556 
0.0049332165 
0.0049349157 
0.0049366528 
0.0049384269 
0.0049402374 
0.0049420833 
0.0049439642 
0.0049458793 
 0.004947828 
0.0049498096 
0.0049518234 
0.0049538686 
0.0049559446 
0.0049580504 
 0.004960185 
0.0049623475 
0.0049645366 
0.0049667512 
0.0049689897 
0.0049712508 
0.0049735328 
0.0049758338 
0.0049781518 
0.0049804847 
0.0049828303 
 0.004985186 
0.0049875492 
0.0049899172 
 0.004992287 
0.0049946556 
0.0049970197 
0.0049993761 
0.0050017213 
0.0050040519 
0.0050063643 
0.0050086549 
0.0050109201 
0.0050131563 
0.0050153601 
0.0050175279 
0.0050196564 
0.0050217425 
0.0050237829 
0.0050257749 
0.0050277157 
 0.005029603 
0.0050314346 
0.0050332086 
0.0050349234 
0.0050365778 
0.0050381708 
0.0050397019 
0.0050411707 
0.0050425773 
0.0050439222 
0.0050452059 
0.0050464296 
0.0050475945 
0.0050487023 
0.0050497548 
0.0050507542 
0.0050517028 
0.0050526031 
0.0050534578 
0.0050542697 
0.0050550418 
 0.005055777 
0.0050564785 
0.0050571492 
0.0050577923 
0.0050584108 
0.0050590076 
0.0050595857 
0.0050601479 
0.0050606967 
0.0050612348 
0.0050617646 
0.0050622881 
0.0050628076 
0.0050633247 
0.0050638412 
0.0050643584 
0.0050648775 
0.0050653994 
 0.005065925 
0.0050664545 
0.0050669884 
0.0050675264 
0.0050680684 
0.0050686138 
0.0050691616 
0.0050697108 
0.0050702599 
0.0050708073 
0.0050713509 
0.0050718887 
0.0050724181 
0.0050729364 
0.0050734408 
0.0050739281 
0.0050743948 
0.0050748375 
0.0050752524 
0.0050756357 
0.0050759833 
 0.005076291 
0.0050765548 
0.0050767703 
0.0050769332 
0.0050770392 
 0.005077084 
0.0050770634 
0.0050769732 
0.0050768093 
0.0050765679 
0.0050762452 
0.0050758376 
0.0050753419 
 0.005074755 
0.0050740743 
0.0050732974 
0.0050724224 
0.0050714476 
0.0050703719 
0.0050691947 
0.0050679158 
0.0050665356 
 0.005065055 
0.0050634752 
0.0050617984 
 0.005060027 
0.0050581641 
0.0050562133 
0.0050541787 
0.0050520649 
0.0050498773 
0.0050476214 
0.0050453033 
0.0050429297 
0.0050405074 
0.0050380437 
0.0050355463 
0.0050330231 
0.0050304823 
0.0050279322 
0.0050253813 
0.0050228383 
0.0050203119 
0.0050178108 
0.0050153438 
0.0050129193 
0.0050105459 
 0.005008232 
0.0050059856 
0.0050038146 
0.0050017265 
0.0049997284 
0.0049978271 
0.0049960288 
0.0049943395 
0.0049927645 
0.0049913085 
0.0049899758 
  0.00498877 
0.0049876943 
 0.004986751 
0.0049859421 
0.0049852688 
0.0049847317 
 0.004984331 
0.0049840662 
0.0049839361 
0.0049839394 
0.0049840738 
 0.004984337 
0.0049847259 
0.0049852372 
0.0049858672 
0.0049866119 
0.0049874669 
0.0049884278 
0.0049894895 
0.0049906474 
0.0049918961 
0.0049932306 
0.0049946455 
0.0049961355 
0.0049976953 
0.0049993196 
0.0050010032 
0.0050027409 
0.0050045276 
0.0050063586 
0.0050082289 
0.0050101343 
0.0050120701 
0.0050140325 
0.0050160176 
0.0050180218 
0.0050200418 
0.0050220747 
0.0050241177 
0.0050261686 
0.0050282251 
0.0050302856 
0.0050323485 
0.0050344126 
 0.005036477 
 0.005038541 
0.0050406041 
 0.005042666 
0.0050447267 
 0.005046786 
0.0050488443 
0.0050509016 
0.0050529582 
0.0050550143 
0.0050570701 
0.0050591259 
0.0050611815 
0.0050632369 
0.0050652919 
0.0050673461 
0.0050693988 
0.0050714492 
0.0050734963 
0.0050755388 
0.0050775751 
0.0050796036 
0.0050816221 
0.0050836285 
0.0050856205 
0.0050875952 
0.0050895501 
0.0050914822 
0.0050933886 
0.0050952661 
0.0050971116 
0.0050989222 
0.0051006948 
0.0051024265 
0.0051041145 
0.0051057562 
0.0051073491 
 0.005108891 
0.0051103799 
0.0051118141 
0.0051131921 
0.0051145129 
0.0051157756 
0.0051169796 
0.0051181247 
0.0051192109 
0.0051202386 
0.0051212082 
0.0051221207 
0.0051229768 
0.0051237779 
0.0051245251 
0.0051252199 
0.0051258637 
 0.005126458 
0.0051270043 
0.0051275042 
0.0051279592 
0.0051283707 
0.0051287401 
0.0051290687 
0.0051293576 
0.0051296082 
0.0051298213 
 0.005129998 
0.0051301393 
 0.005130246 
0.0051303191 
0.0051303592 
0.0051303674 
0.0051303444 
0.0051302914 
0.0051302093 
0.0051300993 
0.0051299625 
0.0051298005 
0.0051296148 
 0.005129407 
 0.005129179 
 0.005128933 
0.0051286711 
0.0051283958 
0.0051281098 
0.0051278157 
0.0051275165 
0.0051272153 
0.0051269153 
0.0051266198 
0.0051263322 
 0.005126056 
0.0051257947 
0.0051255519 
0.0051253309 
0.0051251352 
0.0051249682 
0.0051248331 
 0.005124733 
0.0051246706 
0.0051246487 
0.0051246697 
0.0051247357 
0.0051248485 
0.0051250097 
0.0051252203 
0.0051254811 
0.0051257925 
0.0051261544 
0.0051265664 
0.0051270275 
0.0051275366 
0.0051280919 
0.0051286913 
0.0051293322 
0.0051300117 
0.0051307266 
0.0051314732 
0.0051322476 
0.0051330454 
0.0051338624 
0.0051346937 
0.0051355345 
0.0051363799 
0.0051372248 
 0.005138064 
0.0051388926 
0.0051397055 
0.0051404978 
0.0051412646 
0.0051420014 
0.0051427037 
0.0051433673 
0.0051439884 
0.0051445632 
0.0051450886 
0.0051455615 
0.0051459792 
0.0051463394 
0.0051466399 
 0.005146879 
0.0051470554 
0.0051471678 
0.0051472154 
0.0051471976 
 0.005147114 
0.0051469645 
0.0051467493 
0.0051464686 
 0.005146123 
0.0051457132 
  0.00514524 
0.0051447045 
0.0051441078 
0.0051434512 
0.0051427361 
0.0051419638 
0.0051411361 
0.0051402544 
0.0051393203 
0.0051383356 
 0.005137302 
 0.005136221 
0.0051350944 
0.0051339238 
0.0051327108 
0.0051314572 
0.0051301643 
0.0051288338 
0.0051274671 
0.0051260656 
0.0051246309 
 0.005123164 
0.0051216665 
0.0051201395 
0.0051185843 
0.0051170022 
0.0051153945 
0.0051137623 
0.0051121068 
0.0051104295 
0.0051087316 
0.0051070145 
0.0051052796 
0.0051035285 
0.0051017627 
 0.005099984 
0.0050981941 
0.0050963952 
0.0050945892 
0.0050927783 
 0.005090965 
0.0050891518 
0.0050873414 
0.0050855366 
0.0050837404 
0.0050819562 
0.0050801871 
0.0050784368 
0.0050767088 
0.0050750069 
 0.005073335 
0.0050716972 
0.0050700975 
0.0050685399 
0.0050670287 
0.0050655681 
0.0050641621 
0.0050628151 
0.0050615309 
0.0050603136 
0.0050591669 
0.0050580947 
0.0050571002 
0.0050561869 
0.0050553578 
0.0050546155 
0.0050539627 
0.0050534015 
0.0050529338 
 0.005052561 
0.0050522843 
0.0050521046 
0.0050520221 
0.0050520369 
0.0050521486 
0.0050523562 
0.0050526586 
0.0050530542 
0.0050535407 
0.0050541158 
0.0050547766 
0.0050555199 
0.0050563421 
0.0050572392 
0.0050582071 
0.0050592412 
0.0050603368 
0.0050614888 
0.0050626922 
0.0050639416 
0.0050652317 
0.0050665569 
0.0050679117 
0.0050692907 
0.0050706883 
0.0050720992 
0.0050735181 
0.0050749399 
0.0050763597 
0.0050777728 
0.0050791746 
0.0050805608 
0.0050819274 
0.0050832707 
0.0050845871 
0.0050858734 
0.0050871266 
 0.005088344 
0.0050895232 
 0.005090662 
0.0050917585 
0.0050928111 
0.0050938185 
0.0050947794 
0.0050956929 
0.0050965583 
0.0050973753 
0.0050981434 
0.0050988627 
0.0050995333 
0.0051001556 
0.0051007299 
0.0051012572 
0.0051017383 
0.0051021743 
0.0051025667 
0.0051029168 
0.0051032264 
0.0051034976 
0.0051037324 
0.0051039333 
0.0051041028 
0.0051042439 
0.0051043594 
0.0051044527 
0.0051045273 
0.0051045867 
0.0051046348 
0.0051046755 
0.0051047131 
0.0051047517 
 0.005104796 
0.0051048503 
0.0051049193 
0.0051050077 
0.0051051203 
0.0051052618 
 0.005105437 
0.0051056508 
0.0051059078 
0.0051062128 
0.0051065704 
0.0051069852 
0.0051074615 
0.0051080038 
 0.005108616 
0.0051093023 
0.0051100664 
0.0051109118 
0.0051118419 
0.0051128597 
0.0051139679 
 0.005115169 
0.0051164649 
0.0051178574 
0.0051193479 
0.0051209373 
0.0051226261 
0.0051244145 
0.0051263021 
0.0051282883 
 0.005130372 
0.0051325516 
0.0051348251 
0.0051371903 
0.0051396446 
0.0051421848 
0.0051448077 
0.0051475095 
0.0051502863 
0.0051531338 
0.0051560476 
0.0051590228 
0.0051620547 
0.0051651382 
0.0051682681 
 0.005171439 
0.0051746454 
0.0051778819 
0.0051811428 
0.0051844224 
0.0051877152 
0.0051910154 
0.0051943175 
0.0051976158 
0.0052009049 
0.0052041792 
0.0052074335 
0.0052106626 
0.0052138614 
0.0052170253 
0.0052201494 
0.0052232294 
0.0052262612 
0.0052292407 
0.0052321645 
0.0052350292 
0.0052378319 
0.0052405698 
0.0052432407 
0.0052458425 
0.0052483736 
0.0052508328 
0.0052532192 
0.0052555322 
0.0052577717 
0.0052599379 
0.0052620313 
0.0052640527 
0.0052660033 
0.0052678845 
0.0052696982 
0.0052714462 
0.0052731309 
0.0052747545 
0.0052763197 
0.0052778292 
0.0052792857 
0.0052806921 
0.0052820511 
0.0052833656 
0.0052846384 
0.0052858722 
0.0052870693 
0.0052882323 
0.0052893634 
0.0052904644 
0.0052915373 
0.0052925835 
0.0052936044 
0.0052946011 
0.0052955742 
0.0052965244 
0.0052974518 
0.0052983566 
0.0052992385 
0.0053000971 
0.0053009317 
0.0053017415 
0.0053025256 
0.0053032828 
0.0053040121 
0.0053047121 
0.0053053817 
0.0053060197 
0.0053066247 
0.0053071959 
0.0053077321 
0.0053082326 
0.0053086967 
 0.005309124 
0.0053095144 
 0.005309868 
0.0053101852 
0.0053104666 
0.0053107132 
0.0053109265 
0.0053111082 
0.0053112601 
0.0053113847 
0.0053114846 
0.0053115627 
0.0053116223 
0.0053116667 
0.0053116998 
0.0053117254 
0.0053117477 
0.0053117708 
 0.005311799 
0.0053118368 
0.0053118886 
0.0053119586 
0.0053120514 
0.0053121712 
0.0053123219 
0.0053125077 
0.0053127321 
0.0053129988 
0.0053133108 
0.0053136711 
0.0053140823 
0.0053145466 
0.0053150658 
0.0053156415 
0.0053162749 
0.0053169665 
0.0053177169 
 0.005318526 
0.0053193934 
0.0053203184 
0.0053212997 
 0.005322336 
0.0053234251 
0.0053245651 
0.0053257531 
0.0053269865 
0.0053282617 
0.0053295754 
0.0053309236 
0.0053323021 
0.0053337065 
 0.005335132 
0.0053365735 
0.0053380258 
0.0053394833 
0.0053409403 
0.0053423907 
0.0053438285 
0.0053452472 
0.0053466404 
0.0053480015 
0.0053493237 
0.0053506005 
0.0053518249 
0.0053529902 
0.0053540898 
 0.005355117 
0.0053560654 
0.0053569288 
 0.005357701 
0.0053583763 
0.0053589491 
0.0053594143 
0.0053597671 
0.0053600031 
0.0053601182 
0.0053601089 
0.0053599722 
0.0053597054 
0.0053593065 
0.0053587739 
0.0053581066 
0.0053573042 
0.0053563668 
 0.005355295 
0.0053540901 
0.0053527538 
0.0053512884 
0.0053496969 
0.0053479826 
0.0053461494 
0.0053442019 
0.0053421449 
0.0053399839 
0.0053377248 
0.0053353737 
0.0053329375 
 0.005330423 
0.0053278378 
0.0053251894 
0.0053224857 
0.0053197348 
0.0053169449 
0.0053141244 
0.0053112818 
0.0053084254 
0.0053055637 
0.0053027049 
0.0052998572 
0.0052970286 
0.0052942267 
0.0052914591 
0.0052887326 
 0.005286054 
0.0052834295 
0.0052808648 
0.0052783652 
0.0052759355 
0.0052735797 
0.0052713015 
0.0052691038 
0.0052669892 
0.0052649596 
0.0052630161 
0.0052611596 
0.0052593901 
0.0052577075 
 0.005256111 
0.0052545993 
0.0052531708 
0.0052518234 
 0.005250555 
0.0052493628 
0.0052482442 
0.0052471962 
0.0052462156 
0.0052452993 
 0.005244444 
0.0052436467 
0.0052429042 
0.0052422134 
0.0052415716 
0.0052409759 
0.0052404239 
0.0052399131 
0.0052394416 
0.0052390075 
0.0052386091 
0.0052382452 
0.0052379147 
0.0052376169 
0.0052373511 
0.0052371171 
0.0052369149 
0.0052367448 
0.0052366071 
0.0052365025 
0.0052364319 
0.0052363965 
0.0052363973 
0.0052364359 
0.0052365137 
0.0052366324 
0.0052367937 
0.0052369992 
0.0052372509 
0.0052375504 
0.0052378994 
0.0052382995 
0.0052387522 
0.0052392588 
0.0052398205 
 0.005240438 
0.0052411122 
0.0052418433 
0.0052426314 
0.0052434763 
0.0052443773 
0.0052453335 
0.0052463435 
0.0052474057 
0.0052485179 
0.0052496778 
0.0052508827 
0.0052521296 
0.0052534151 
0.0052547358 
0.0052560878 
0.0052574672 
0.0052588699 
0.0052602919 
 0.005261729 
0.0052631772 
0.0052646325 
 0.005266091 
0.0052675493 
0.0052690038 
0.0052704516 
0.0052718901 
0.0052733169 
0.0052747304 
0.0052761291 
0.0052775123 
0.0052788798 
0.0052802316 
0.0052815688 
0.0052828924 
0.0052842045 
0.0052855072 
0.0052868034 
0.0052880962 
0.0052893892 
0.0052906862 
0.0052919913 
0.0052933089 
0.0052946434 
0.0052959994 
0.0052973815 
0.0052987942 
 0.005300242 
0.0053017291 
0.0053032595 
 0.005304837 
0.0053064649 
0.0053081462 
0.0053098836 
0.0053116789 
0.0053135339 
0.0053154495 
 0.005317426 
0.0053194633 
0.0053215607 
0.0053237166 
 0.005325929 
0.0053281952 
 0.005330512 
0.0053328756 
0.0053352814 
0.0053377246 
0.0053401998 
0.0053427012 
0.0053452225 
0.0053477571 
0.0053502984 
0.0053528392 
0.0053553724 
0.0053578909 
0.0053603875 
 0.005362855 
0.0053652865 
0.0053676754 
0.0053700152 
0.0053722999 
0.0053745238 
0.0053766819 
0.0053787695 
0.0053807825 
0.0053827177 
0.0053845721 
0.0053863438 
0.0053880313 
0.0053896339 
0.0053911515 
0.0053925849 
0.0053939354 
 0.005395205 
0.0053963963 
0.0053975125 
0.0053985575 
0.0053995358 
 0.005400452 
0.0054013117 
0.0054021205 
0.0054028845 
0.0054036101 
0.0054043039 
0.0054049728 
0.0054056238 
 0.005406264 
0.0054069004 
0.0054075402 
0.0054081903 
0.0054088578 
0.0054095492 
0.0054102713 
0.0054110303 
0.0054118322 
0.0054126828 
0.0054135873 
0.0054145507 
0.0054155776 
0.0054166721 
0.0054178378 
0.0054190779 
0.0054203952 
0.0054217919 
0.0054232698 
0.0054248303 
0.0054264742 
 0.005428202 
0.0054300139 
0.0054319094 
0.0054338878 
0.0054359483 
0.0054380894 
0.0054403096 
0.0054426072 
  0.00544498 
0.0054474259 
0.0054499423 
0.0054525269 
0.0054551768 
0.0054578891 
 0.005460661 
0.0054634893 
0.0054663708 
0.0054693021 
0.0054722796 
0.0054752996 
0.0054783583 
0.0054814515 
0.0054845749 
0.0054877241 
0.0054908942 
0.0054940804 
0.0054972773 
0.0055004796 
0.0055036814 
0.0055068768 
0.0055100596 
0.0055132234 
0.0055163616 
0.0055194674 
0.0055225339 
0.0055255541 
 0.005528521 
0.0055314273 
0.0055342662 
0.0055370305 
0.0055397134 
0.0055423082 
0.0055448086 
0.0055472082 
0.0055495015 
 0.005551683 
0.0055537478 
0.0055556915 
0.0055575102 
0.0055592007 
0.0055607602 
0.0055621869 
0.0055634793 
0.0055646367 
0.0055656591 
0.0055665473 
0.0055673025 
0.0055679269 
 0.005568423 
0.0055687942 
0.0055690443 
0.0055691778 
0.0055691995 
0.0055691147 
0.0055689293 
0.0055686494 
0.0055682812 
0.0055678315 
0.0055673069 
0.0055667145 
 0.005566061 
0.0055653535 
0.0055645989 
0.0055638038 
0.0055629749 
0.0055621186 
0.0055612409 
0.0055603476 
0.0055594443 
 0.005558536 
0.0055576275 
0.0055567231 
0.0055558266 
0.0055549415 
0.0055540707 
0.0055532168 
0.0055523818 
0.0055515674 
0.0055507748 
0.0055500048 
0.0055492579 
0.0055485341 
0.0055478331 
0.0055471543 
 0.005546497 
  0.00554586 
0.0055452421 
0.0055446418 
0.0055440576 
0.0055434879 
 0.005542931 
0.0055423853 
0.0055418491 
0.0055413207 
0.0055407987 
0.0055402815 
0.0055397679 
0.0055392565 
0.0055387463 
0.0055382362 
0.0055377254 
0.0055372129 
0.0055366981 
0.0055361804 
0.0055356593 
0.0055351342 
0.0055346047 
0.0055340705 
0.0055335312 
0.0055329866 
0.0055324362 
0.0055318798 
 0.005531317 
0.0055307477 
0.0055301715 
0.0055295881 
0.0055289973 
0.0055283988 
0.0055277926 
0.0055271785 
0.0055265563 
0.0055259263 
0.0055252884 
 0.005524643 
0.0055239904 
0.0055233313 
0.0055226662 
0.0055219962 
0.0055213222 
0.0055206456 
0.0055199678 
0.0055192906 
0.0055186159 
0.0055179456 
0.0055172821 
0.0055166277 
0.0055159851 
0.0055153568 
0.0055147457 
0.0055141546 
0.0055135863 
0.0055130436 
0.0055125293 
 0.005512046 
0.0055115962 
0.0055111823 
0.0055108063 
0.0055104703 
0.0055101756 
0.0055099237 
0.0055097155 
0.0055095516 
0.0055094322 
0.0055093572 
0.0055093262 
0.0055093383 
0.0055093923 
0.0055094867 
0.0055096199 
0.0055097896 
0.0055099936 
0.0055102295 
0.0055104946 
0.0055107861 
0.0055111012 
0.0055114372 
0.0055117911 
0.0055121603 
0.0055125423 
0.0055129344 
0.0055133345 
0.0055137406 
0.0055141509 
0.0055145639 
0.0055149784 
0.0055153937 
0.0055158091 
0.0055162243 
0.0055166395 
0.0055170551 
0.0055174715 
0.0055178899 
0.0055183112 
0.0055187367 
0.0055191679 
0.0055196063 
0.0055200537 
0.0055205116 
0.0055209819 
0.0055214662 
0.0055219661 
0.0055224831 
0.0055230188 
0.0055235743 
0.0055241508 
0.0055247493 
0.0055253706 
0.0055260152 
0.0055266835 
0.0055273756 
0.0055280916 
 0.005528831 
0.0055295935 
0.0055303782 
0.0055311841 
0.0055320101 
0.0055328545 
0.0055337158 
0.0055345918 
0.0055354803 
0.0055363789 
0.0055372847 
0.0055381949 
0.0055391062 
0.0055400151 
0.0055409181 
0.0055418111 
0.0055426904 
0.0055435515 
0.0055443903 
0.0055452024 
0.0055459833 
0.0055467285 
0.0055474335 
0.0055480938 
 0.005548705 
0.0055492628 
0.0055497632 
0.0055502021 
0.0055505758 
0.0055508809 
 0.005551114 
0.0055512724 
0.0055513533 
0.0055513545 
0.0055512741 
0.0055511106 
0.0055508626 
0.0055505295 
0.0055501108 
0.0055496064 
0.0055490167 
0.0055483426 
 0.005547585 
0.0055467455 
0.0055458262 
0.0055448292 
0.0055437572 
0.0055426133 
0.0055414008 
0.0055401234 
0.0055387852 
0.0055373905 
0.0055359438 
0.0055344501 
0.0055329145 
0.0055313422 
0.0055297388 
0.0055281097 
0.0055264606 
0.0055247973 
0.0055231255 
0.0055214508 
 0.005519779 
0.0055181157 
0.0055164662 
 0.005514836 
0.0055132301 
0.0055116535 
0.0055101108 
0.0055086065 
0.0055071449 
0.0055057297 
0.0055043648 
0.0055030535 
 0.005501799 
0.0055006043 
0.0054994721 
0.0054984048 
0.0054974049 
0.0054964743 
0.0054956153 
0.0054948295 
0.0054941188 
 0.005493485 
0.0054929296 
0.0054924543 
0.0054920607 
0.0054917503 
0.0054915248 
0.0054913858 
0.0054913348 
0.0054913735 
0.0054915036 
0.0054917265 
0.0054920439 
0.0054924573 
0.0054929683 
0.0054935783 
0.0054942887 
0.0054951008 
 0.005496016 
0.0054970353 
0.0054981599 
0.0054993908 
0.0055007288 
0.0055021747 
 0.005503729 
0.0055053921 
0.0055071644 
0.0055090459 
0.0055110366 
0.0055131361 
0.0055153439 
0.0055176593 
0.0055200812 
0.0055226084 
0.0055252392 
0.0055279717 
0.0055308037 
0.0055337326 
0.0055367555 
0.0055398691 
0.0055430699 
0.0055463538 
0.0055497166 
0.0055531536 
0.0055566598 
  0.00556023 
0.0055638585 
0.0055675398 
0.0055712677 
 0.005575036 
0.0055788385 
0.0055826687 
  0.00558652 
 0.005590386 
0.0055942601 
0.0055981359 
0.0056020069 
 0.005605867 
  0.00560971 
0.0056135302 
0.0056173218 
0.0056210796 
0.0056247985 
0.0056284737 
0.0056321008 
0.0056356757 
0.0056391946 
0.0056426542 
0.0056460515 
0.0056493839 
0.0056526489 
0.0056558447 
0.0056589697 
0.0056620226 
0.0056650024 
0.0056679084 
0.0056707402 
0.0056734976 
0.0056761807 
0.0056787897 
0.0056813252 
0.0056837878 
0.0056861784 
0.0056884978 
0.0056907473 
0.0056929278 
0.0056950408 
0.0056970874 
0.0056990691 
0.0057009872 
0.0057028432 
0.0057046384 
0.0057063744 
0.0057080525 
0.0057096741 
0.0057112406 
0.0057127534 
0.0057142137 
0.0057156227 
0.0057169817 
0.0057182917 
0.0057195537 
0.0057207688 
0.0057219378 
0.0057230616 
0.0057241408 
0.0057251761 
0.0057261683 
0.0057271177 
 0.005728025 
0.0057288907 
 0.005729715 
0.0057304984 
0.0057312414 
0.0057319442 
0.0057326073 
0.0057332312 
0.0057338162 
0.0057343629 
0.0057348719 
0.0057353438 
0.0057357793 
0.0057361793 
0.0057365446 
0.0057368764 
0.0057371758 
0.0057374441 
0.0057376827 
0.0057378931 
0.0057380771 
0.0057382365 
0.0057383733 
0.0057384896 
0.0057385877 
0.0057386699 
0.0057387386 
0.0057387965 
0.0057388463 
0.0057388908 
0.0057389327 
 0.005738975 
0.0057390206 
0.0057390727 
0.0057391343 
0.0057392084 
0.0057392984 
0.0057394072 
0.0057395383 
0.0057396947 
0.0057398797 
0.0057400966 
0.0057403486 
 0.005740639 
 0.005740971 
0.0057413478 
0.0057417726 
0.0057422485 
0.0057427785 
0.0057433656 
0.0057440126 
0.0057447223 
0.0057454973 
  0.00574634 
0.0057472526 
0.0057482372 
0.0057492956 
0.0057504295 
0.0057516403 
 0.005752929 
0.0057542967 
0.0057557441 
0.0057572716 
0.0057588794 
0.0057605676 
0.0057623359 
0.0057641839 
0.0057661109 
0.0057681158 
0.0057701977 
0.0057723551 
0.0057745865 
0.0057768901 
 0.005779264 
0.0057817058 
0.0057842134 
0.0057867841 
0.0057894153 
 0.005792104 
0.0057948473 
0.0057976421 
0.0058004852 
0.0058033734 
0.0058063032 
0.0058092712 
0.0058122741 
0.0058153084 
0.0058183707 
0.0058214575 
0.0058245657 
0.0058276918 
0.0058308327 
0.0058339852 
0.0058371463 
0.0058403129 
0.0058434823 
0.0058466514 
0.0058498177 
0.0058529784 
0.0058561309 
0.0058592728 
0.0058624015 
0.0058655147 
  0.00586861 
0.0058716851 
0.0058747378 
0.0058777658 
0.0058807671 
0.0058837395 
0.0058866811 
0.0058895897 
0.0058924638 
0.0058953013 
0.0058981008 
0.0059008606 
0.0059035794 
0.0059062559 
0.0059088891 
 0.005911478 
0.0059140221 
0.0059165208 
0.0059189738 
0.0059213809 
0.0059237422 
0.0059260578 
 0.005928328 
0.0059305532 
0.0059327339 
0.0059348704 
0.0059369633 
 0.005939013 
0.0059410197 
0.0059429836 
0.0059449047 
0.0059467828 
0.0059486174 
0.0059504079 
0.0059521532 
0.0059538521 
0.0059555029 
0.0059571039 
0.0059586527 
 0.005960147 
0.0059615841 
0.0059629608 
 0.005964274 
0.0059655203 
0.0059666961 
0.0059677977 
0.0059688212 
0.0059697628 
0.0059706185 
0.0059713845 
0.0059720568 
0.0059726317 
0.0059731054 
0.0059734746 
0.0059737359 
0.0059738861 
0.0059739224 
0.0059738423 
0.0059736434 
0.0059733237 
0.0059728818 
0.0059723164 
0.0059716268 
0.0059708125 
0.0059698736 
0.0059688106 
0.0059676245 
0.0059663169 
0.0059648896 
 0.005963345 
 0.005961686 
 0.005959916 
0.0059580388 
0.0059560588 
0.0059539809 
0.0059518101 
0.0059495523 
0.0059472133 
0.0059447997 
0.0059423181 
0.0059397754 
0.0059371791 
0.0059345364 
0.0059318551 
0.0059291429 
0.0059264075 
0.0059236569 
0.0059208986 
0.0059181404 
0.0059153898 
0.0059126541 
0.0059099403 
0.0059072553 
0.0059046054 
0.0059019968 
0.0058994352 
0.0058969257 
0.0058944731 
0.0058920818 
0.0058897554 
0.0058874973 
0.0058853101 
0.0058831961 
0.0058811569 
0.0058791938 
0.0058773073 
0.0058754977 
0.0058737646 
0.0058721074 
0.0058705248 
0.0058690154 
0.0058675773 
0.0058662082 
0.0058649058 
0.0058636673 
0.0058624898 
0.0058613706 
0.0058603064 
0.0058592942 
 0.005858331 
0.0058574137 
0.0058565395 
0.0058557058 
  0.00585491 
0.0058541498 
0.0058534235 
0.0058527293 
 0.005852066 
0.0058514328 
0.0058508291 
0.0058502548 
0.0058497103 
0.0058491962 
0.0058487134 
0.0058482635 
 0.005847848 
 0.005847469 
0.0058471287 
0.0058468296 
0.0058465742 
0.0058463654 
 0.005846206 
0.0058460988 
0.0058460466 
0.0058460522 
0.0058461183 
0.0058462473 
0.0058464416 
0.0058467031 
0.0058470337 
0.0058474349 
 0.005847908 
0.0058484538 
0.0058490729 
0.0058497655 
0.0058505314 
0.0058513703 
0.0058522813 
0.0058532632 
0.0058543147 
0.0058554338 
0.0058566187 
0.0058578668 
0.0058591755 
 0.005860542 
0.0058619632 
0.0058634356 
0.0058649557 
0.0058665198 
0.0058681239 
0.0058697641 
0.0058714362 
0.0058731359 
 0.005874859 
0.0058766011 
0.0058783578 
0.0058801247 
0.0058818976 
0.0058836721 
0.0058854442 
0.0058872096 
0.0058889644 
0.0058907049 
0.0058924271 
0.0058941278 
0.0058958034 
0.0058974508 
0.0058990673 
  0.00590065 
0.0059021966 
0.0059037048 
0.0059051727 
0.0059065986 
 0.005907981 
0.0059093188 
0.0059106112 
0.0059118574 
0.0059130571 
0.0059142104 
0.0059153175 
0.0059163788 
0.0059173953 
0.0059183679 
0.0059192982 
0.0059201877 
0.0059210384 
0.0059218524 
0.0059226322 
0.0059233805 
0.0059241003 
0.0059247948 
0.0059254673 
0.0059261214 
0.0059267609 
0.0059273897 
0.0059280119 
0.0059286316 
0.0059292531 
0.0059298806 
0.0059305186 
0.0059311712 
0.0059318428 
0.0059325376 
0.0059332597 
0.0059340131 
0.0059348018 
0.0059356294 
0.0059364994 
0.0059374153 
  0.00593838 
0.0059393967 
0.0059404679 
0.0059415961 
0.0059427835 
0.0059440323 
 0.005945344 
0.0059467203 
0.0059481625 
0.0059496716 
0.0059512486 
0.0059528942 
0.0059546087 
0.0059563924 
0.0059582455 
0.0059601678 
0.0059621589 
0.0059642183 
0.0059663453 
 0.005968539 
0.0059707982 
0.0059731216 
0.0059755076 
0.0059779546 
0.0059804603 
0.0059830227 
0.0059856391 
0.0059883068 
0.0059910228 
0.0059937838 
0.0059965862 
0.0059994262 
0.0060022999 
 0.006005203 
0.0060081311 
0.0060110795 
0.0060140436 
0.0060170184 
 0.006019999 
0.0060229804 
0.0060259576 
0.0060289255 
0.0060318792 
0.0060348138 
0.0060377244 
0.0060406066 
0.0060434559 
 0.006046268 
0.0060490391 
0.0060517653 
0.0060544434 
0.0060570704 
0.0060596433 
0.0060621599 
0.0060646181 
0.0060670163 
0.0060693532 
0.0060716278 
0.0060738398 
0.0060759891 
0.0060780759 
 0.006080101 
0.0060820655 
0.0060839709 
 0.006085819 
0.0060876121 
0.0060893527 
0.0060910438 
0.0060926884 
  0.00609429 
0.0060958522 
0.0060973788 
0.0060988736 
0.0061003406 
0.0061017838 
 0.006103207 
 0.006104614 
0.0061060084 
0.0061073932 
0.0061087716 
 0.006110146 
0.0061115183 
0.0061128901 
0.0061142621 
0.0061156344 
0.0061170066 
0.0061183775 
0.0061197451 
0.0061211068 
0.0061224591 
0.0061237981 
 0.006125119 
0.0061264165 
0.0061276848 
0.0061289175 
0.0061301078 
0.0061312487 
0.0061323328 
0.0061333528 
0.0061343013 
0.0061351708 
0.0061359542 
0.0061366445 
 0.006137235 
0.0061377197 
0.0061380928 
0.0061383493 
0.0061384848 
0.0061384955 
0.0061383784 
0.0061381313 
0.0061377528 
 0.006137242 
0.0061365992 
 0.006135825 
0.0061349212 
0.0061338899 
0.0061327341 
0.0061314571 
0.0061300631 
0.0061285563 
0.0061269418 
0.0061252245 
0.0061234099 
0.0061215035 
0.0061195107 
0.0061174372 
0.0061152884 
0.0061130694 
0.0061107855 
0.0061084413 
0.0061060414 
0.0061035898 
0.0061010901 
0.0060985458 
0.0060959597 
0.0060933341 
0.0060906714 
 0.006087973 
0.0060852404 
0.0060824746 
0.0060796762 
0.0060768457 
0.0060739833 
0.0060710891 
 0.006068163 
0.0060652048 
0.0060622143 
0.0060591912 
0.0060561352 
 0.006053046 
0.0060499233 
0.0060467669 
0.0060435765 
0.0060403522 
0.0060370937 
0.0060338011 
0.0060304744 
0.0060271137 
0.0060237192 
0.0060202912 
0.0060168299 
0.0060133357 
0.0060098092 
 0.006006251 
0.0060026616 
0.0059990421 
0.0059953933 
0.0059917166 
0.0059880134 
0.0059842854 
0.0059805346 
0.0059767632 
0.0059729739 
0.0059691696 
0.0059653536 
0.0059615296 
0.0059577017 
0.0059538743 
0.0059500524 
0.0059462412 
0.0059424463 
0.0059386736 
0.0059349293 
0.0059312201 
0.0059275527 
 0.005923934 
0.0059203714 
 0.005916872 
0.0059134433 
0.0059100928 
0.0059068277 
0.0059036555 
0.0059005833 
0.0058976182 
 0.005894767 
0.0058920363 
0.0058894321 
0.0058869604 
0.0058846267 
0.0058824358 
0.0058803924 
0.0058785005 
0.0058767636 
0.0058751847 
0.0058737661 
0.0058725096 
0.0058714166 
0.0058704877 
0.0058697228 
0.0058691216 
0.0058686829 
 0.005868405 
0.0058682858 
0.0058683223 
0.0058685114 
0.0058688491 
0.0058693312 
0.0058699528 
0.0058707087 
 0.005871593 
0.0058725998 
0.0058737224 
0.0058749539 
0.0058762871 
0.0058777145 
0.0058792282 
0.0058808203 
0.0058824825 
0.0058842064 
0.0058859836 
0.0058878055 
0.0058896636 
0.0058915493 
0.0058934542 
0.0058953697 
0.0058972876 
0.0058991998 
0.0059010983 
0.0059029754 
0.0059048234 
0.0059066351 
0.0059084034 
0.0059101216 
0.0059117832 
0.0059133821 
0.0059149124 
0.0059163685 
0.0059177452 
0.0059190377 
0.0059202413 
 0.005921352 
0.0059223657 
0.0059232789 
0.0059240884 
0.0059247914 
0.0059253854 
0.0059258683 
0.0059262382 
0.0059264937 
0.0059266338 
0.0059266576 
0.0059265649 
0.0059263556 
  0.00592603 
0.0059255889 
0.0059250332 
0.0059243644 
 0.005923584 
 0.005922694 
0.0059216967 
0.0059205946 
0.0059193904 
0.0059180873 
0.0059166885 
0.0059151975 
0.0059136182 
0.0059119544 
0.0059102104 
0.0059083906 
0.0059064995 
 0.005904542 
0.0059025231 
0.0059004479 
0.0058983219 
0.0058961507 
  0.00589394 
0.0058916957 
0.0058894239 
 0.005887131 
0.0058848234 
0.0058825077 
0.0058801906 
0.0058778789 
0.0058755797 
0.0058732999 
0.0058710466 
0.0058688267 
0.0058666474 
0.0058645156 
 0.005862438 
0.0058604214 
0.0058584724 
0.0058565973 
0.0058548021 
0.0058530927 
0.0058514745 
0.0058499526 
0.0058485319 
0.0058472167 
0.0058460111 
0.0058449187 
0.0058439426 
0.0058430856 
0.0058423501 
0.0058417379 
0.0058412507 
0.0058408894 
0.0058406549 
0.0058405474 
 0.005840567 
0.0058407132 
0.0058409853 
0.0058413823 
0.0058419026 
0.0058425446 
0.0058433062 
0.0058441851 
0.0058451787 
 0.005846284 
0.0058474978 
0.0058488169 
0.0058502375 
0.0058517558 
0.0058533678 
0.0058550693 
0.0058568559 
0.0058587231 
0.0058606664 
0.0058626811 
0.0058647624 
0.0058669058 
0.0058691066 
  0.00587136 
0.0058736616 
0.0058760068 
0.0058783914 
 0.005880811 
0.0058832615 
0.0058857392 
0.0058882402 
0.0058907609 
 0.005893298 
0.0058958481 
0.0058984083 
0.0059009756 
0.0059035473 
0.0059061207 
0.0059086935 
0.0059112631 
0.0059138273 
0.0059163839 
0.0059189306 
0.0059214652 
0.0059239856 
0.0059264895 
0.0059289746 
0.0059314387 
0.0059338793 
 0.005936294 
0.0059386801 
0.0059410351 
0.0059433561 
0.0059456402 
0.0059478846 
0.0059500863 
0.0059522422 
0.0059543491 
0.0059564041 
0.0059584041 
0.0059603461 
 0.005962227 
0.0059640442 
0.0059657947 
0.0059674762 
0.0059690863 
0.0059706227 
0.0059720837 
0.0059734676 
0.0059747731 
0.0059759991 
0.0059771448 
  0.00597821 
0.0059791944 
0.0059800982 
0.0059809221 
0.0059816667 
0.0059823332 
0.0059829231 
0.0059834379 
0.0059838796 
0.0059842502 
 0.005984552 
0.0059847873 
0.0059849587 
0.0059850687 
  0.00598512 
0.0059851154 
0.0059850575 
0.0059849488 
0.0059847921 
0.0059845899 
0.0059843445 
0.0059840582 
0.0059837331 
 0.005983371 
0.0059829739 
0.0059825432 
0.0059820802 
0.0059815861 
0.0059810619 
0.0059805084 
 0.005979926 
0.0059793152 
0.0059786763 
0.0059780094 
0.0059773144 
0.0059765913 
0.0059758399 
0.0059750597 
0.0059742506 
 0.005973412 
0.0059725435 
0.0059716447 
 0.005970715 
0.0059697539 
0.0059687611 
0.0059677362 
0.0059666786 
0.0059655882 
0.0059644647 
 0.005963308 
0.0059621181 
0.0059608951 
0.0059596392 
0.0059583509 
0.0059570306 
0.0059556792 
0.0059542974 
0.0059528863 
0.0059514473 
0.0059499818 
0.0059484916 
0.0059469786 
0.0059454449 
0.0059438931 
0.0059423256 
0.0059407455 
0.0059391557 
0.0059375595 
0.0059359605 
0.0059343623 
0.0059327688 
 0.005931184 
 0.005929612 
0.0059280571 
0.0059265236 
0.0059250159 
0.0059235385 
0.0059220958 
0.0059206922 
0.0059193323 
0.0059180202 
0.0059167602 
0.0059155565 
0.0059144131 
0.0059133339 
0.0059123225 
0.0059113826 
0.0059105173 
0.0059097297 
0.0059090228 
0.0059083991 
0.0059078612 
0.0059074112 
0.0059070511 
0.0059067826 
0.0059066073 
0.0059065264 
0.0059065409 
0.0059066517 
0.0059068595 
0.0059071646 
0.0059075673 
0.0059080677 
0.0059086655 
0.0059093606 
0.0059101523 
0.0059110399 
0.0059120226 
0.0059130992 
0.0059142686 
0.0059155292 
0.0059168797 
0.0059183181 
0.0059198425 
 0.005921451 
0.0059231412 
0.0059249107 
 0.005926757 
0.0059286773 
0.0059306688 
0.0059327285 
0.0059348531 
0.0059370393 
0.0059392835 
0.0059415822 
0.0059439314 
0.0059463273 
0.0059487656 
0.0059512422 
0.0059537528 
0.0059562927 
0.0059588573 
 0.005961442 
0.0059640418 
0.0059666517 
0.0059692668 
0.0059718818 
0.0059744917 
0.0059770912 
0.0059796751 
0.0059822383 
0.0059847756 
0.0059872819 
0.0059897523 
 0.005992182 
0.0059945662 
0.0059969007 
0.0059991812 
0.0060014038 
 0.006003565 
0.0060056615 
0.0060076904 
0.0060096494 
0.0060115363 
0.0060133495 
0.0060150878 
0.0060167505 
0.0060183373 
0.0060198482 
0.0060212836 
0.0060226445 
 0.006023932 
0.0060251476 
0.0060262931 
0.0060273706 
0.0060283825 
0.0060293311 
0.0060302191 
0.0060310493 
0.0060318247 
0.0060325482 
0.0060332229 
 0.006033852 
0.0060344388 
0.0060349866 
0.0060354988 
0.0060359788 
0.0060364304 
0.0060368572 
0.0060372631 
 0.006037652 
0.0060380282 
0.0060383958 
0.0060387592 
0.0060391231 
0.0060394922 
0.0060398713 
0.0060402654 
0.0060406797 
0.0060411192 
0.0060415893 
0.0060420953 
0.0060426425 
0.0060432362 
0.0060438816 
0.0060445838 
0.0060453479 
0.0060461786 
0.0060470805 
0.0060480579 
0.0060491148 
0.0060502547 
0.0060514811 
0.0060527967 
0.0060542039 
0.0060557046 
0.0060573002 
0.0060589915 
0.0060607789 
0.0060626621 
0.0060646404 
0.0060667124 
0.0060688763 
0.0060711297 
0.0060734697 
0.0060758929 
0.0060783953 
0.0060809728 
0.0060836205 
0.0060863334 
0.0060891061 
0.0060919328 
0.0060948076 
0.0060977243 
0.0061006766 
0.0061036579 
0.0061066618 
0.0061096818 
0.0061127112 
0.0061157438 
0.0061187731 
0.0061217931 
0.0061247977 
0.0061277814 
0.0061307387 
0.0061336646 
0.0061365545 
 0.006139404 
0.0061422091 
0.0061449664 
0.0061476728 
0.0061503257 
0.0061529227 
0.0061554622 
0.0061579426 
0.0061603632 
0.0061627232 
0.0061650226 
0.0061672615 
0.0061694404 
0.0061715603 
0.0061736222 
0.0061756276 
0.0061775782 
0.0061794758 
0.0061813226 
0.0061831206 
0.0061848724 
0.0061865804 
0.0061882471 
0.0061898751 
 0.006191467 
0.0061930254 
0.0061945528 
0.0061960517 
0.0061975243 
0.0061989731 
0.0062004002 
0.0062018077 
0.0062031975 
0.0062045713 
0.0062059307 
0.0062072772 
 0.006208612 
0.0062099362 
0.0062112507 
0.0062125563 
0.0062138536 
 0.006215143 
0.0062164248 
0.0062176991 
 0.006218966 
0.0062202255 
0.0062214774 
0.0062227216 
0.0062239578 
0.0062251857 
0.0062264053 
0.0062276163 
0.0062288188 
0.0062300129 
0.0062311989 
0.0062323772 
0.0062335488 
0.0062347145 
0.0062358758 
0.0062370344 
0.0062381925 
0.0062393523 
0.0062405169 
0.0062416894 
0.0062428735 
0.0062440732 
0.0062452927 
0.0062465368 
0.0062478105 
0.0062491188 
0.0062504673 
0.0062518614 
0.0062533068 
 0.006254809 
0.0062563736 
0.0062580062 
0.0062597119 
0.0062614959 
0.0062633629 
0.0062653173 
0.0062673632 
0.0062695041 
 0.006271743 
0.0062740826 
0.0062765248 
 0.006279071 
0.0062817222 
0.0062844786 
  0.00628734 
0.0062903056 
0.0062933741 
0.0062965436 
0.0062998119 
0.0063031761 
 0.006306633 
0.0063101792 
0.0063138107 
0.0063175234 
0.0063213128 
0.0063251743 
 0.006329103 
 0.006333094 
0.0063371421 
0.0063412422 
0.0063453891 
0.0063495775 
0.0063538022 
 0.006358058 
0.0063623397 
0.0063666423 
0.0063709607 
0.0063752901 
0.0063796257 
 0.006383963 
0.0063882975 
0.0063926252 
0.0063969419 
 0.006401244 
0.0064055279 
0.0064097905 
0.0064140287 
0.0064182399 
0.0064224215 
0.0064265714 
0.0064306877 
0.0064347688 
0.0064388133 
0.0064428201 
0.0064467882 
 0.006450717 
0.0064546059 
0.0064584547 
0.0064622633 
0.0064660317 
0.0064697601 
0.0064734489 
0.0064770983 
0.0064807088 
0.0064842809 
0.0064878152 
 0.006491312 
 0.006494772 
0.0064981954 
0.0065015827 
0.0065049339 
0.0065082492 
0.0065115284 
0.0065147713 
0.0065179775 
 0.006521146 
0.0065242761 
0.0065273663 
0.0065304151 
0.0065334207 
0.0065363808 
0.0065392929 
0.0065421541 
0.0065449614 
 0.006547711 
0.0065503994 
0.0065530222 
0.0065555751 
0.0065580534 
 0.006560452 
0.0065627658 
0.0065649895 
0.0065671174 
0.0065691439 
0.0065710634 
0.0065728701 
0.0065745582 
0.0065761223 
0.0065775567 
0.0065788562 
0.0065800158 
0.0065810307 
0.0065818965 
0.0065826092 
0.0065831653 
0.0065835617 
0.0065837958 
0.0065838656 
0.0065837696 
0.0065835069 
0.0065830772 
0.0065824809 
0.0065817188 
0.0065807924 
0.0065797038 
0.0065784557 
0.0065770513 
0.0065754944 
0.0065737892 
0.0065719404 
0.0065699533 
0.0065678333 
0.0065655865 
 0.006563219 
0.0065607375 
0.0065581486 
0.0065554594 
0.0065526767 
 0.006549808 
0.0065468602 
0.0065438408 
0.0065407568 
0.0065376154 
0.0065344238 
0.0065311891 
0.0065279182 
0.0065246179 
0.0065212952 
0.0065179566 
0.0065146088 
0.0065112584 
0.0065079118 
0.0065045754 
0.0065012556 
0.0064979587 
0.0064946911 
0.0064914589 
0.0064882684 
0.0064851259 
0.0064820373 
0.0064790089 
0.0064760465 
0.0064731561 
0.0064703432 
0.0064676137 
0.0064649728 
0.0064624257 
0.0064599774 
0.0064576327 
 0.006455396 
0.0064532715 
0.0064512632 
0.0064493746 
0.0064476091 
0.0064459696 
0.0064444587 
 0.006443079 
0.0064418323 
0.0064407205 
0.0064397451 
0.0064389071 
0.0064382076 
0.0064376472 
0.0064372261 
0.0064369446 
0.0064368022 
0.0064367987 
0.0064369332 
0.0064372045 
0.0064376114 
0.0064381522 
0.0064388249 
0.0064396272 
0.0064405566 
0.0064416102 
0.0064427849 
0.0064440771 
0.0064454832 
0.0064469993 
0.0064486211 
0.0064503443 
0.0064521642 
0.0064540763 
0.0064560756 
0.0064581572 
0.0064603161 
0.0064625473 
0.0064648458 
0.0064672064 
0.0064696242 
0.0064720942 
0.0064746115 
 0.006477171 
0.0064797681 
0.0064823978 
0.0064850555 
0.0064877363 
0.0064904356 
0.0064931486 
0.0064958707 
 0.006498597 
 0.006501323 
0.0065040437 
0.0065067545 
0.0065094505 
 0.006512127 
0.0065147791 
0.0065174021 
0.0065199914 
0.0065225423 
0.0065250502 
0.0065275109 
0.0065299201 
0.0065322737 
 0.006534568 
0.0065367994 
0.0065389645 
0.0065410604 
0.0065430844 
0.0065450342 
0.0065469076 
 0.006548703 
0.0065504192 
0.0065520551 
0.0065536102 
0.0065550841 
0.0065564771 
0.0065577894 
0.0065590218 
0.0065601752 
0.0065612509 
0.0065622503 
0.0065631752 
0.0065640273 
0.0065648087 
0.0065655216 
0.0065661685 
0.0065667516 
0.0065672738 
0.0065677375 
0.0065681456 
 0.006568501 
0.0065688065 
0.0065690653 
0.0065692803 
0.0065694547 
0.0065695918 
0.0065696949 
0.0065697673 
0.0065698124 
0.0065698338 
0.0065698351 
0.0065698199 
0.0065697918 
0.0065697546 
 0.006569712 
0.0065696678 
0.0065696258 
0.0065695898 
0.0065695638 
0.0065695517 
0.0065695573 
0.0065695846 
0.0065696376 
0.0065697201 
0.0065698361 
0.0065699894 
0.0065701838 
0.0065704232 
0.0065707111 
0.0065710511 
0.0065714467 
0.0065719011 
0.0065724173 
0.0065729983 
0.0065736467 
 0.006574365 
0.0065751553 
0.0065760196 
0.0065769594 
0.0065779761 
0.0065790706 
0.0065802435 
0.0065814953 
 0.006582826 
0.0065842352 
0.0065857224 
0.0065872866 
0.0065889267 
 0.006590641 
0.0065924278 
0.0065942849 
0.0065962099 
0.0065981999 
0.0066002521 
 0.006602363 
 0.006604529 
0.0066067463 
0.0066090106 
0.0066113175 
0.0066136623 
  0.00661604 
0.0066184453 
 0.006620873 
0.0066233172 
0.0066257723 
0.0066282324 
0.0066306914 
0.0066331432 
0.0066355819 
0.0066380012 
0.0066403953 
0.0066427582 
0.0066450842 
0.0066473678 
0.0066496037 
0.0066517868 
0.0066539122 
0.0066559755 
0.0066579725 
0.0066598994 
0.0066617526 
 0.006663529 
0.0066652258 
0.0066668406 
0.0066683712 
0.0066698161 
0.0066711739 
0.0066724437 
0.0066736249 
0.0066747174 
0.0066757213 
0.0066766374 
0.0066774665 
0.0066782103 
0.0066788705 
0.0066794494 
0.0066799499 
0.0066803751 
0.0066807286 
0.0066810146 
0.0066812376 
0.0066814025 
0.0066815146 
0.0066815797 
0.0066816037 
0.0066815932 
0.0066815547 
0.0066814951 
0.0066814218 
0.0066813418 
0.0066812626 
0.0066811917 
0.0066811366 
0.0066811045 
0.0066811029 
0.0066811388 
0.0066812191 
0.0066813504 
0.0066815389 
0.0066817905 
0.0066821102 
0.0066825031 
 0.006682973 
0.0066835237 
0.0066841578 
0.0066848775 
0.0066856839 
0.0066865777 
0.0066875585 
0.0066886251 
0.0066897755 
0.0066910069 
0.0066923154 
0.0066936965 
0.0066951449 
0.0066966544 
 0.006698218 
0.0066998282 
0.0067014768 
0.0067031549 
0.0067048532 
0.0067065619 
0.0067082709 
0.0067099699 
0.0067116484 
0.0067132958 
0.0067149015 
0.0067164552 
0.0067179468 
0.0067193665 
0.0067207049 
0.0067219532 
0.0067231032 
0.0067241474 
0.0067250789 
0.0067258918 
0.0067265808 
0.0067271417 
0.0067275709 
 0.006727866 
0.0067280254 
0.0067280482 
0.0067279345 
0.0067276852 
0.0067273019 
0.0067267871 
0.0067261436 
0.0067253753 
0.0067244863 
0.0067234814 
0.0067223656 
0.0067211443 
0.0067198234 
0.0067184087 
0.0067169064 
0.0067153226 
0.0067136636 
0.0067119355 
0.0067101445 
0.0067082967 
0.0067063979 
0.0067044539 
  0.00670247 
0.0067004516 
0.0066984038 
0.0066963313 
0.0066942386 
  0.00669213 
0.0066900094 
0.0066878806 
0.0066857472 
0.0066836124 
0.0066814793 
0.0066793509 
0.0066772299 
0.0066751189 
0.0066730203 
0.0066709364 
0.0066688695 
0.0066668215 
0.0066647944 
  0.00666279 
0.0066608099 
0.0066588556 
0.0066569286 
0.0066550302 
0.0066531613 
0.0066513231 
0.0066495163 
0.0066477417 
0.0066459998 
0.0066442913 
0.0066426165 
0.0066409758 
0.0066393695 
0.0066377976 
0.0066362606 
0.0066347584 
0.0066332912 
0.0066318592 
0.0066304623 
0.0066291006 
0.0066277742 
 0.006626483 
0.0066252269 
 0.006624006 
  0.00662282 
0.0066216685 
0.0066205512 
0.0066194676 
 0.006618417 
0.0066173988 
 0.006616412 
0.0066154557 
0.0066145287 
0.0066136297 
0.0066127572 
0.0066119097 
0.0066110854 
0.0066102826 
0.0066094992 
0.0066087333 
0.0066079827 
0.0066072454 
0.0066065189 
0.0066058011 
0.0066050896 
0.0066043823 
0.0066036767 
0.0066029707 
0.0066022622 
 0.006601549 
0.0066008294 
0.0066001014 
0.0065993637 
0.0065986148 
0.0065978539 
0.0065970802 
0.0065962933 
0.0065954934 
 0.006594681 
0.0065938569 
0.0065930226 
  0.00659218 
0.0065913315 
0.0065904798 
0.0065896285 
0.0065887811 
 0.006587942 
0.0065871158 
0.0065863072 
0.0065855216 
0.0065847644 
0.0065840411 
0.0065833575 
0.0065827192 
0.0065821318 
0.0065816009 
0.0065811316 
0.0065807289 
0.0065803975 
0.0065801415 
0.0065799644 
0.0065798694 
0.0065798589 
0.0065799345 
0.0065800974 
0.0065803479 
0.0065806855 
0.0065811091 
0.0065816166 
0.0065822055 
0.0065828722 
0.0065836126 
 0.006584422 
0.0065852951 
 0.006586226 
0.0065872083 
0.0065882352 
0.0065892995 
0.0065903939 
0.0065915108 
0.0065926425 
0.0065937813 
0.0065949196 
0.0065960499 
0.0065971648 
0.0065982574 
 0.006599321 
0.0066003494 
 0.006601337 
0.0066022786 
0.0066031696 
0.0066040061 
0.0066047848 
0.0066055031 
0.0066061594 
0.0066067522 
0.0066072814 
0.0066077472 
0.0066081505 
0.0066084932 
0.0066087774 
0.0066090061 
0.0066091826 
 0.006609311 
0.0066093956 
0.0066094411 
0.0066094527 
0.0066094357 
0.0066093955 
0.0066093378 
0.0066092683 
0.0066091925 
0.0066091161 
0.0066090446 
0.0066089831 
0.0066089367 
0.0066089102 
0.0066089079 
0.0066089338 
0.0066089917 
0.0066090848 
0.0066092158 
0.0066093873 
0.0066096012 
0.0066098589 
0.0066101617 
  0.00661051 
0.0066109042 
0.0066113438 
0.0066118284 
0.0066123568 
0.0066129276 
0.0066135389 
0.0066141887 
0.0066148744 
 0.006615593 
0.0066163417 
0.0066171168 
0.0066179147 
0.0066187316 
0.0066195633 
0.0066204056 
 0.006621254 
 0.006622104 
0.0066229509 
0.0066237901 
0.0066246166 
0.0066254258 
0.0066262127 
0.0066269727 
0.0066277009 
0.0066283926 
0.0066290431 
0.0066296478 
0.0066302021 
0.0066307016 
 0.006631142 
0.0066315191 
0.0066318286 
0.0066320667 
0.0066322295 
0.0066323134 
0.0066323148 
0.0066322304 
 0.006632057 
0.0066317919 
0.0066314322 
0.0066309756 
0.0066304197 
0.0066297628 
 0.006629003 
 0.006628139 
0.0066271697 
0.0066260944 
0.0066249126 
0.0066236244 
  0.00662223 
0.0066207303 
0.0066191264 
0.0066174201 
0.0066156134 
0.0066137089 
0.0066117096 
0.0066096193 
0.0066074419 
0.0066051821 
0.0066028449 
0.0066004359 
 0.006597961 
0.0065954266 
0.0065928395 
0.0065902068 
 0.006587536 
0.0065848347 
0.0065821109 
0.0065793727 
0.0065766285 
0.0065738865 
0.0065711552 
0.0065684431 
0.0065657584 
0.0065631097 
 0.006560505 
0.0065579524 
0.0065554599 
0.0065530351 
0.0065506854 
0.0065484178 
0.0065462392 
 0.006544156 
0.0065421742 
0.0065402994 
0.0065385367 
0.0065368911 
0.0065353666 
0.0065339671 
0.0065326959 
0.0065315559 
0.0065305494 
0.0065296784 
 0.006528944 
0.0065283474 
0.0065278888 
0.0065275684 
0.0065273855 
0.0065273393 
0.0065274286 
0.0065276516 
0.0065280062 
0.0065284901 
0.0065291006 
0.0065298345 
0.0065306885 
 0.006531659 
0.0065327421 
0.0065339336 
0.0065352292 
0.0065366241 
0.0065381135 
0.0065396925 
0.0065413558 
0.0065430981 
0.0065449137 
0.0065467972 
0.0065487426 
0.0065507441 
0.0065527958 
0.0065548916 
0.0065570254 
0.0065591913 
0.0065613831 
0.0065635949 
0.0065658205 
0.0065680542 
0.0065702901 
0.0065725225 
0.0065747457 
0.0065769545 
0.0065791432 
0.0065813069 
0.0065834405 
 0.006585539 
0.0065875978 
0.0065896124 
0.0065915783 
0.0065934914 
0.0065953475 
0.0065971429 
0.0065988738 
0.0066005366 
0.0066021281 
0.0066036451 
0.0066050846 
0.0066064437 
  0.00660772 
0.0066089108 
0.0066100141 
0.0066110276 
0.0066119495 
0.0066127781 
0.0066135118 
0.0066141492 
0.0066146892 
0.0066151309 
0.0066154733 
0.0066157159 
0.0066158582 
0.0066158999 
0.0066158408 
0.0066156812 
0.0066154213 
0.0066150615 
0.0066146027 
0.0066140456 
0.0066133914 
0.0066126415 
0.0066117975 
0.0066108612 
0.0066098348 
0.0066087207 
0.0066075213 
0.0066062395 
0.0066048784 
0.0066034412 
0.0066019315 
0.0066003527 
0.0065987089 
 0.006597004 
 0.006595242 
0.0065934273 
0.0065915639 
0.0065896563 
0.0065877086 
0.0065857252 
0.0065837104 
0.0065816685 
0.0065796035 
0.0065775198 
0.0065754212 
0.0065733117 
0.0065711953 
0.0065690756 
0.0065669564 
0.0065648412 
0.0065627336 
 0.006560637 
0.0065585546 
0.0065564899 
0.0065544459 
0.0065524259 
0.0065504329 
0.0065484699 
0.0065465399 
0.0065446456 
  0.00654279 
0.0065409758 
0.0065392055 
0.0065374816 
0.0065358067 
0.0065341829 
0.0065326126 
0.0065310975 
0.0065296396 
0.0065282404 
0.0065269014 
0.0065256238 
0.0065244085 
0.0065232562 
0.0065221675 
0.0065211427 
0.0065201817 
0.0065192843 
0.0065184502 
0.0065176788 
0.0065169691 
0.0065163203 
0.0065157311 
0.0065152004 
0.0065147267 
0.0065143087 
0.0065139449 
0.0065136339 
0.0065133742 
0.0065131646 
0.0065130036 
0.0065128901 
0.0065128231 
0.0065128017 
0.0065128251 
0.0065128929 
0.0065130045 
0.0065131598 
[...]
0.0079429943 
 0.007945983 
0.0079489068 
0.0079517674 
0.0079545667 
0.0079573068 
0.0079599899 
0.0079626186 
0.0079651956 
0.0079677235 
0.0079702052 
0.0079726435 
0.0079750414 
0.0079774016 
0.0079797268 
0.0079820198 
0.0079842829 
0.0079865186 
0.0079887289 
0.0079909157 
0.0079930807 
0.0079952253 
0.0079973506 
0.0079994574 
0.0080015465 
0.0080036182 
0.0080056726 
0.0080077097 
0.0080097291 
0.0080117304 
0.0080137129 
0.0080156758 
0.0080176182 
0.0080195388 
0.0080214366 
0.0080233099 
0.0080251575 
0.0080269776 
0.0080287686 
0.0080305285 
0.0080322553 
0.0080339471 
0.0080356013 
0.0080372158 
0.0080387877 
0.0080403145 
0.0080417931 
0.0080432205 
0.0080445935 
0.0080459088 
 0.008047163 
0.0080483525 
0.0080494741 
 0.008050524 
0.0080514989 
0.0080523956 
0.0080532109 
0.0080539419 
0.0080545859 
0.0080551407 
0.0080556042 
0.0080559751 
0.0080562522 
0.0080564348 
0.0080565229 
0.0080565168 
0.0080564171 
 0.008056225 
 0.008055942 
0.0080555701 
0.0080551116 
0.0080545688 
0.0080539446 
0.0080532419 
0.0080524637 
0.0080516133 
0.0080506938 
0.0080497087 
0.0080486611 
0.0080475544 
0.0080463918 
0.0080451766 
0.0080439118 
0.0080426007 
0.0080412464 
0.0080398519 
0.0080384201 
0.0080369541 
 0.008035457 
0.0080339317 
0.0080323815 
0.0080308093 
0.0080292186 
0.0080276127 
0.0080259951 
0.0080243694 
0.0080227395 
0.0080211094 
0.0080194831 
0.0080178649 
0.0080162593 
0.0080146706 
0.0080131036 
 0.008011563 
0.0080100535 
0.0080085801 
0.0080071476 
0.0080057609 
0.0080044248 
0.0080031442 
0.0080019239 
0.0080007685 
0.0079996828 
0.0079986713 
0.0079977383 
0.0079968882 
 0.007996125 
0.0079954525 
0.0079948743 
0.0079943935 
0.0079940129 
 0.007993735 
0.0079935616 
0.0079934941 
0.0079935333 
0.0079936796 
0.0079939328 
0.0079942918 
0.0079947554 
0.0079953216 
0.0079959879 
0.0079967514 
0.0079976088 
0.0079985564 
0.0079995902 
0.0080007059 
0.0080018992 
0.0080031654 
   0.0080045 
0.0080058983 
0.0080073556 
0.0080088673 
0.0080104288 
0.0080120358 
0.0080136839 
 0.008015369 
0.0080170871 
0.0080188345 
0.0080206076 
0.0080224032 
0.0080242182 
0.0080260498 
0.0080278955 
0.0080297532 
 0.008031621 
0.0080334975 
0.0080353816 
0.0080372727 
0.0080391704 
 0.008041075 
0.0080429872 
0.0080449079 
0.0080468386 
0.0080487812 
0.0080507377 
0.0080527107 
0.0080547029 
0.0080567172 
0.0080587568 
0.0080608248 
0.0080629243 
0.0080650586 
0.0080672307 
0.0080694435 
0.0080716997 
0.0080740016 
0.0080763513 
0.0080787503 
0.0080811997 
0.0080837002 
0.0080862517 
0.0080888536 
0.0080915045 
0.0080942024 
0.0080969443 
0.0080997264 
0.0081025442 
0.0081053921 
0.0081082638 
0.0081111519 
0.0081140485 
0.0081169444 
0.0081198298 
0.0081226941 
 0.008125526 
0.0081283137 
0.0081310449 
0.0081337067 
0.0081362864 
0.0081387707 
0.0081411468 
0.0081434016 
0.0081455226 
0.0081474977 
0.0081493152 
0.0081509644 
0.0081524349 
0.0081537177 
0.0081548043 
0.0081556877 
0.0081563616 
 0.008156821 
0.0081570621 
0.0081570821 
0.0081568794 
0.0081564538 
0.0081558057 
0.0081549371 
0.0081538507 
0.0081525502 
0.0081510406 
0.0081493273 
0.0081474169 
0.0081453166 
0.0081430343 
0.0081405788 
 0.008137959 
0.0081351847 
 0.008132266 
0.0081292132 
0.0081260369 
0.0081227479 
 0.008119357 
0.0081158752 
0.0081123132 
0.0081086815 
0.0081049905 
0.0081012503 
0.0080974705 
0.0080936603 
0.0080898286 
0.0080859835 
0.0080821327 
0.0080782833 
0.0080744419 
0.0080706143 
 0.008066806 
0.0080630217 
0.0080592657 
0.0080555418 
0.0080518534 
0.0080482032 
0.0080445939 
0.0080410276 
0.0080375063 
0.0080340316 
 0.008030605 
0.0080272279 
0.0080239014 
 0.008020627 
0.0080174058 
0.0080142392 
0.0080111286 
0.0080080755 
0.0080050816 
0.0080021486 
0.0079992788 
0.0079964742 
0.0079937373 
0.0079910708 
0.0079884775 
0.0079859602 
0.0079835222 
0.0079811666 
0.0079788967 
0.0079767157 
0.0079746268 
0.0079726332 
0.0079707377 
0.0079689433 
0.0079672526 
0.0079656678 
 0.007964191 
 0.007962824 
 0.007961568 
0.0079604241 
0.0079593925 
0.0079584735 
0.0079576663 
  0.00795697 
 0.007956383 
0.0079559032 
0.0079555276 
 0.007955253 
0.0079550752 
0.0079549896 
0.0079549908 
0.0079550725 
 0.007955228 
0.0079554498 
0.0079557295 
0.0079560584 
0.0079564268 
0.0079568245 
0.0079572408 
0.0079576645 
0.0079580839 
0.0079584871 
0.0079588617 
0.0079591957 
0.0079594766 
0.0079596923 
0.0079598311 
0.0079598816 
0.0079598329 
0.0079596751 
 0.007959399 
0.0079589962 
0.0079584596 
0.0079577832 
0.0079569623 
0.0079559932 
 0.007954874 
0.0079536037 
0.0079521829 
0.0079506135 
0.0079488986 
0.0079470426 
0.0079450512 
0.0079429309 
0.0079406895 
0.0079383355 
0.0079358784 
0.0079333284 
0.0079306964 
0.0079279939 
0.0079252327 
0.0079224253 
0.0079195843 
0.0079167227 
0.0079138535 
0.0079109897 
0.0079081445 
0.0079053309 
0.0079025617 
0.0078998492 
0.0078972055 
0.0078946422 
0.0078921701 
0.0078897996 
0.0078875399 
0.0078853999 
0.0078833873 
0.0078815087 
  0.00787977 
0.0078781757 
0.0078767297 
0.0078754343 
 0.007874291 
0.0078733002 
0.0078724612 
0.0078717721 
0.0078712302 
0.0078708318 
0.0078705723 
0.0078704463 
0.0078704478 
  0.00787057 
0.0078708057 
0.0078711469 
0.0078715855 
0.0078721132 
0.0078727212 
0.0078734005 
0.0078741424 
0.0078749378 
0.0078757777 
0.0078766532 
0.0078775556 
0.0078784761 
0.0078794062 
0.0078803376 
0.0078812618 
0.0078821708 
0.0078830565 
 0.007883911 
0.0078847264 
0.0078854951 
0.0078862094 
0.0078868618 
 0.007887445 
0.0078879516 
0.0078883745 
0.0078887067 
0.0078889414 
0.0078890722 
0.0078890928 
0.0078889971 
0.0078887796 
0.0078884349 
0.0078879584 
0.0078873455 
0.0078865925 
0.0078856961 
0.0078846535 
0.0078834624 
0.0078821214 
0.0078806293 
0.0078789858 
0.0078771911 
0.0078752459 
0.0078731516 
0.0078709101 
 0.007868524 
0.0078659963 
0.0078633304 
0.0078605303 
0.0078576004 
0.0078545458 
0.0078513717 
0.0078480839 
0.0078446886 
0.0078411925 
0.0078376026 
0.0078339263 
0.0078301715 
0.0078263463 
0.0078224592 
0.0078185191 
0.0078145348 
0.0078105157 
0.0078064712 
0.0078024108 
0.0077983439 
0.0077942801 
0.0077902287 
0.0077861988 
0.0077821991 
0.0077782382 
0.0077743239 
0.0077704637 
0.0077666643 
0.0077629318 
0.0077592716 
0.0077556882 
0.0077521852 
0.0077487656 
 0.007745431 
0.0077421826 
0.0077390205 
0.0077359439 
0.0077329513 
0.0077300402 
0.0077272077 
  0.00772445 
0.0077217628 
0.0077191415 
0.0077165812 
0.0077140765 
0.0077116223 
0.0077092135 
0.0077068449 
0.0077045121 
0.0077022107 
0.0076999372 
0.0076976884 
0.0076954622 
 0.007693257 
0.0076910721 
0.0076889077 
0.0076867647 
0.0076846449 
0.0076825507 
 0.007680485 
0.0076784516 
0.0076764542 
0.0076744971 
0.0076725848 
0.0076707216 
0.0076689117 
0.0076671594 
0.0076654683 
0.0076638418 
0.0076622827 
0.0076607934 
0.0076593757 
0.0076580305 
0.0076567586 
  0.00765556 
0.0076544341 
0.0076533803 
0.0076523972 
0.0076514836 
0.0076506378 
0.0076498581 
 0.007649143 
 0.007648491 
0.0076479008 
0.0076473714 
0.0076469024 
0.0076464934 
0.0076461447 
0.0076458571 
0.0076456316 
0.0076454699 
 0.007645374 
0.0076453465 
0.0076453903 
0.0076455089 
0.0076457058 
 0.007645985 
0.0076463507 
0.0076468075 
0.0076473598 
0.0076480124 
0.0076487701 
0.0076496375 
0.0076506194 
0.0076517203 
0.0076529446 
0.0076542963 
0.0076557794 
0.0076573972 
0.0076591526 
 0.007661048 
0.0076630853 
0.0076652656 
0.0076675893 
0.0076700561 
0.0076726649 
0.0076754137 
0.0076782997 
0.0076813195 
0.0076844687 
0.0076877421 
 0.007691134 
0.0076946379 
0.0076982469 
0.0077019536 
0.0077057501 
0.0077096283 
0.0077135798 
0.0077175962 
 0.007721669 
0.0077257896 
0.0077299496 
0.0077341406 
0.0077383546 
0.0077425836 
0.0077468201 
0.0077510565 
0.0077552859 
0.0077595014 
0.0077636968 
0.0077678657 
0.0077720026 
 0.007776102 
0.0077801588 
0.0077841683 
0.0077881263 
0.0077920289 
0.0077958727 
0.0077996546 
0.0078033719 
0.0078070225 
0.0078106045 
0.0078141168 
0.0078175582 
0.0078209282 
0.0078242266 
0.0078274535 
0.0078306092 
0.0078336941 
0.0078367091 
 0.007839655 
0.0078425328 
0.0078453435 
 0.007848088 
0.0078507675 
0.0078533827 
0.0078559347 
0.0078584242 
 0.007860852 
0.0078632188 
 0.007865525 
0.0078677712 
0.0078699577 
0.0078720849 
0.0078741529 
0.0078761619 
0.0078781119 
0.0078800029 
0.0078818349 
0.0078836076 
0.0078853207 
 0.007886974 
0.0078885671 
0.0078900997 
0.0078915713 
0.0078929815 
  0.00789433 
0.0078956166 
0.0078968413 
0.0078980039 
0.0078991049 
0.0079001446 
0.0079011237 
0.0079020431 
0.0079029039 
0.0079037077 
 0.007904456 
0.0079051509 
0.0079057944 
 0.007906389 
0.0079069371 
0.0079074413 
0.0079079046 
0.0079083295 
 0.007908719 
0.0079090756 
 0.007909402 
0.0079097006 
0.0079099734 
0.0079102224 
0.0079104489 
 0.007910654 
0.0079108384 
0.0079110022 
0.0079111451 
0.0079112662 
0.0079113642 
0.0079114374 
0.0079114834 
0.0079114996 
0.0079114829 
0.0079114299 
 0.007911337 
0.0079112003 
0.0079110158 
0.0079107796 
0.0079104877 
 0.007910136 
0.0079097208 
0.0079092385 
0.0079086857 
0.0079080596 
0.0079073574 
0.0079065769 
0.0079057161 
0.0079047735 
0.0079037479 
0.0079026387 
0.0079014455 
0.0079001682 
0.0078988075 
0.0078973639 
0.0078958387 
 0.007894233 
0.0078925487 
0.0078907876 
0.0078889518 
0.0078870439 
0.0078850663 
0.0078830222 
0.0078809147 
0.0078787471 
0.0078765233 
0.0078742473 
0.0078719232 
0.0078695556 
0.0078671494 
0.0078647098 
0.0078622421 
0.0078597521 
0.0078572459 
0.0078547297 
  0.00785221 
0.0078496935 
0.0078471869 
 0.007844697 
0.0078422307 
0.0078397949 
 0.007837396 
0.0078350404 
0.0078327343 
0.0078304832 
0.0078282923 
0.0078261663 
 0.007824109 
0.0078221236 
0.0078202125 
0.0078183774 
0.0078166188 
0.0078149366 
0.0078133295 
0.0078117954 
0.0078103314 
0.0078089335 
 0.007807597 
0.0078063162 
 0.007805085 
0.0078038965 
0.0078027433 
0.0078016177 
0.0078005116 
0.0077994169 
0.0077983254 
 0.007797229 
0.0077961198 
0.0077949904 
0.0077938339 
0.0077926437 
0.0077914141 
0.0077901401 
0.0077888175 
0.0077874429 
 0.007786014 
0.0077845293 
0.0077829882 
0.0077813912 
0.0077797394 
0.0077780352 
0.0077762816 
0.0077744826 
 0.007772643 
 0.007770768 
0.0077688639 
0.0077669374 
0.0077649957 
0.0077630466 
0.0077610982 
0.0077591587 
0.0077572369 
0.0077553415 
0.0077534812 
0.0077516648 
0.0077499009 
0.0077481978 
0.0077465634 
0.0077450055 
0.0077435311 
0.0077421468 
0.0077408584 
0.0077396713 
0.0077385899 
0.0077376181 
0.0077367589 
0.0077360143 
0.0077353859 
0.0077348743 
0.0077344796 
0.0077342011 
0.0077340374 
0.0077339868 
0.0077340471 
0.0077342156 
0.0077344892 
 0.007734865 
0.0077353395 
0.0077359095 
0.0077365715 
0.0077373223 
0.0077381587 
0.0077390777 
0.0077400764 
0.0077411521 
0.0077423023 
0.0077435247 
0.0077448172 
0.0077461778 
0.0077476046 
0.0077490958 
0.0077506499 
0.0077522651 
0.0077539398 
0.0077556726 
 0.007757462 
0.0077593063 
0.0077612043 
0.0077631544 
0.0077651554 
 0.007767206 
 0.007769305 
0.0077714515 
0.0077736446 
0.0077758836 
0.0077781683 
0.0077804983 
0.0077828739 
0.0077852953 
0.0077877633 
 0.007790279 
0.0077928435 
0.0077954584 
0.0077981256 
0.0078008469 
0.0078036247 
0.0078064611 
0.0078093585 
0.0078123194 
 0.007815346 
0.0078184405 
0.0078216049 
0.0078248409 
  0.00782815 
0.0078315334 
0.0078349917 
0.0078385253 
 0.007842134 
0.0078458173 
0.0078495738 
0.0078534021 
0.0078572998 
0.0078612644 
0.0078652927 
0.0078693811 
0.0078735255 
0.0078777213 
0.0078819635 
 0.007886247 
0.0078905658 
0.0078949139 
 0.007899285 
0.0079036724 
0.0079080691 
 0.007912468 
0.0079168618 
 0.007921243 
 0.007925604 
0.0079299372 
 0.007934235 
0.0079384899 
0.0079426943 
0.0079468407 
0.0079509221 
0.0079549314 
0.0079588619 
0.0079627071 
0.0079664611 
 0.007970118 
0.0079736727 
0.0079771202 
0.0079804561 
0.0079836766 
0.0079867783 
0.0079897583 
0.0079926142 
0.0079953443 
0.0079979473 
0.0080004227 
0.0080027701 
0.0080049901 
0.0080070838 
0.0080090525 
0.0080108985 
0.0080126242 
0.0080142328 
0.0080157276 
0.0080171125 
0.0080183917 
0.0080195696 
0.0080206509 
0.0080216404 
 0.008022543 
0.0080233636 
0.0080241071 
0.0080247782 
0.0080253816 
0.0080259216 
0.0080264023 
0.0080268273 
0.0080271999 
0.0080275229 
0.0080277988 
0.0080280294 
 0.008028216 
0.0080283596 
0.0080284605 
0.0080285185 
 0.008028533 
0.0080285029 
0.0080284268 
0.0080283025 
 0.008028128 
0.0080279007 
0.0080276176 
0.0080272759 
0.0080268725 
0.0080264043 
 0.008025868 
0.0080252606 
0.0080245791 
0.0080238208 
0.0080229832 
0.0080220641 
0.0080210616 
0.0080199746 
0.0080188019 
0.0080175433 
0.0080161988 
 0.008014769 
0.0080132552 
0.0080116591 
 0.008009983 
0.0080082298 
0.0080064028 
0.0080045059 
0.0080025435 
0.0080005202 
0.0079984413 
0.0079963123 
 0.007994139 
0.0079919276 
0.0079896845 
0.0079874163 
0.0079851297 
0.0079828319 
0.0079805297 
0.0079782304 
0.0079759411 
0.0079736689 
0.0079714212 
 0.007969205 
0.0079670274 
0.0079648954 
0.0079628158 
 0.007960795 
0.0079588397 
0.0079569558 
0.0079551494 
0.0079534261 
0.0079517911 
0.0079502495 
0.0079488059 
0.0079474646 
0.0079462295 
0.0079451042 
0.0079440919 
0.0079431953 
0.0079424169 
0.0079417586 
0.0079412222 
0.0079408088 
0.0079405193 
0.0079403541 
0.0079403131 
0.0079403959 
0.0079406017 
 0.007940929 
0.0079413762 
0.0079419411 
0.0079426212 
0.0079434134 
0.0079443145 
0.0079453209 
0.0079464288 
0.0079476341 
0.0079489327 
0.0079503203 
0.0079517925 
0.0079533451 
0.0079549738 
0.0079566747 
0.0079584439 
0.0079602776 
0.0079621724 
0.0079641254 
0.0079661335 
0.0079681943 
0.0079703055 
0.0079724649 
0.0079746709 
0.0079769217 
 0.007979216 
0.0079815523 
0.0079839294 
0.0079863459 
0.0079888004 
0.0079912915 
0.0079938174 
0.0079963761 
0.0079989655 
0.0080015829 
0.0080042253 
0.0080068892 
0.0080095705 
0.0080122648 
 0.008014967 
0.0080176715 
0.0080203723 
0.0080230626 
0.0080257352 
0.0080283824 
0.0080309959 
0.0080335671 
0.0080360869 
 0.008038546 
0.0080409348 
0.0080432436 
0.0080454623 
0.0080475813 
0.0080495905 
0.0080514803 
0.0080532413 
0.0080548643 
0.0080563406 
 0.008057662 
0.0080588209 
0.0080598103 
0.0080606241 
0.0080612567 
0.0080617038 
0.0080619617 
0.0080620276 
0.0080619001 
0.0080615782 
0.0080610625 
 0.008060354 
0.0080594548 
 0.008058368 
0.0080570971 
0.0080556465 
0.0080540212 
0.0080522267 
 0.008050269 
0.0080481542 
 0.008045889 
0.0080434801 
0.0080409346 
0.0080382594 
0.0080354617 
0.0080325487 
0.0080295276 
0.0080264058 
0.0080231907 
0.0080198896 
0.0080165104 
0.0080130606 
0.0080095482 
0.0080059813 
0.0080023681 
0.0079987171 
0.0079950371 
0.0079913369 
0.0079876258 
0.0079839131 
0.0079802083 
 0.007976521 
0.0079728611 
0.0079692383 
0.0079656624 
0.0079621431 
  0.00795869 
0.0079553123 
0.0079520191 
 0.007948819 
0.0079457202 
0.0079427304 
 0.007939857 
0.0079371063 
0.0079344844 
0.0079319966 
0.0079296474 
0.0079274406 
0.0079253794 
0.0079234663 
 0.007921703 
0.0079200907 
0.0079186298 
0.0079173204 
 0.007916162 
0.0079151535 
0.0079142937 
0.0079135812 
 0.007913014 
0.0079125903 
0.0079123082 
0.0079121657 
0.0079121608 
0.0079122918 
 0.007912557 
0.0079129549 
0.0079134842 
 0.007914144 
0.0079149334 
0.0079158521 
0.0079168998 
0.0079180767 
0.0079193832 
  0.00792082 
 0.007922388 
0.0079240884 
0.0079259226 
0.0079278925 
0.0079299999 
 0.007932247 
0.0079346361 
0.0079371697 
0.0079398502 
0.0079426802 
0.0079456621 
0.0079487982 
0.0079520908 
0.0079555415 
0.0079591517 
0.0079629223 
0.0079668535 
0.0079709449 
0.0079751952 
0.0079796023 
0.0079841628 
0.0079888727 
0.0079937265 
 0.007998718 
0.0080038394 
0.0080090821 
0.0080144361 
0.0080198907 
0.0080254339 
0.0080310528 
0.0080367337 
0.0080424622 
0.0080482232 
0.0080540012 
0.0080597803 
0.0080655445 
0.0080712777 
0.0080769637 
0.0080825868 
0.0080881314 
0.0080935825 
0.0080989256 
 0.008104147 
0.0081092337 
0.0081141734 
0.0081189551 
0.0081235685 
0.0081280046 
0.0081322551 
0.0081363133 
0.0081401733 
0.0081438304 
0.0081472811 
0.0081505231 
0.0081535549 
0.0081563763 
 0.008158988 
0.0081613918 
0.0081635903 
0.0081655869 
0.0081673859 
0.0081689923 
0.0081704116 
0.0081716499 
 0.008172714 
0.0081736109 
 0.008174348 
0.0081749329 
0.0081753736 
0.0081756778 
0.0081758538 
0.0081759094 
0.0081758526 
0.0081756913 
 0.008175433 
0.0081750853 
0.0081746553 
0.0081741501 
0.0081735763 
0.0081729404 
0.0081722483 
 0.008171506 
0.0081707191 
0.0081698927 
0.0081690319 
0.0081681416 
0.0081672263 
0.0081662904 
 0.008165338 
0.0081643732 
0.0081633998 
0.0081624214 
0.0081614415 
0.0081604635 
0.0081594904 
0.0081585249 
0.0081575697 
0.0081566271 
 0.008155699 
0.0081547873 
0.0081538934 
0.0081530184 
0.0081521631 
0.0081513281 
0.0081505137 
  0.00814972 
0.0081489469 
0.0081481943 
0.0081474618 
0.0081467492 
0.0081460561 
0.0081453823 
0.0081447277 
0.0081440924 
0.0081434766 
0.0081428808 
0.0081423059 
0.0081417529 
0.0081412231 
0.0081407182 
  0.00814024 
0.0081397908 
0.0081393728 
0.0081389886 
0.0081386409 
0.0081383324 
0.0081380657 
0.0081378438 
 0.008137669 
 0.008137544 
0.0081374708 
0.0081374513 
 0.008137487 
0.0081375788 
0.0081377274 
0.0081379325 
0.0081381937 
0.0081385096 
0.0081388782 
0.0081392971 
0.0081397627 
0.0081402714 
0.0081408183 
0.0081413982 
0.0081420054 
0.0081426333 
0.0081432752 
0.0081439237 
0.0081445713 
  0.00814521 
0.0081458321 
0.0081464295 
0.0081469943 
0.0081475189 
0.0081479959 
0.0081484182 
0.0081487793 
0.0081490733 
0.0081492947 
0.0081494389 
 0.008149502 
0.0081494806 
0.0081493721 
0.0081491749 
0.0081488877 
0.0081485099 
0.0081480418 
0.0081474837 
0.0081468369 
0.0081461026 
0.0081452826 
0.0081443788 
0.0081433933 
 0.008142328 
0.0081411852 
0.0081399668 
0.0081386746 
0.0081373104 
0.0081358756 
0.0081343715 
0.0081327991 
0.0081311593 
0.0081294526 
0.0081276795 
0.0081258403 
0.0081239352 
0.0081219647 
0.0081199288 
0.0081178282 
0.0081156633 
 0.008113435 
0.0081111445 
0.0081087932 
0.0081063831 
0.0081039165 
0.0081013964 
0.0080988261 
0.0080962094 
0.0080935507 
0.0080908551 
0.0080881277 
0.0080853746 
0.0080826019 
0.0080798162 
0.0080770244 
0.0080742336 
0.0080714509 
0.0080686837 
0.0080659392 
0.0080632247 
 0.008060547 
0.0080579132 
0.0080553296 
0.0080528025 
0.0080503377 
0.0080479404 
0.0080456153 
0.0080433667 
0.0080411981 
0.0080391125 
0.0080371121 
0.0080351986 
 0.008033373 
0.0080316356 
0.0080299861 
0.0080284235 
0.0080269464 
0.0080255527 
0.0080242399 
0.0080230051 
0.0080218451 
0.0080207563 
0.0080197349 
0.0080187771 
0.0080178791 
 0.008017037 
0.0080162471 
0.0080155058 
0.0080148098 
0.0080141561 
 0.008013542 
0.0080129653 
0.0080124241 
 0.008011917 
 0.008011443 
0.0080110015 
0.0080105923 
0.0080102157 
0.0080098722 
0.0080095625 
0.0080092878 
0.0080090494 
0.0080088487 
0.0080086871 
0.0080085661 
0.0080084871 
0.0080084516 
0.0080084607 
Loop time of 354.184 on 4 procs for 200000 steps with 6912 atoms

Performance: 48788.224 tau/day, 564.679 timesteps/s
99.4% CPU use with 4 MPI tasks x no OpenMP threads

MPI task timing breakdown:
Section |  min time  |  avg time  |  max time  |%varavg| %total
---------------------------------------------------------------
Pair    | 297.28     | 298.08     | 299.05     |   4.3 | 84.16
Neigh   | 20.41      | 20.498     | 20.702     |   2.6 |  5.79
Comm    | 16.619     | 18.189     | 19.394     |  27.0 |  5.14
Output  | 4.3174     | 4.59       | 5.3863     |  21.5 |  1.30
Modify  | 7.005      | 7.9063     | 10.474     |  52.7 |  2.23
Other   |            | 4.921      |            |       |  1.39

Nlocal:        1728.00 ave        1746 max        1709 min
Histogram: 1 0 0 0 1 1 0 0 0 1
Nghost:        3867.25 ave        3886 max        3849 min
Histogram: 1 0 0 0 1 1 0 0 0 1
Neighs:        96127.0 ave       97341 max       94695 min
Histogram: 1 0 0 0 0 1 1 0 0 1

Total # of neighbors = 384508
Ave neighs/atom = 55.629051
Neighbor list builds = 5785
Dangerous builds = 0
unfix start
Total wall time: 0:05:54
