ITEM: TIMESTEP
70000
ITEM: NUMBER OF ATOMS
4000
ITEM: BOX BOUNDS pp pp pp
0.0000000000000000e+00 7.3680629972807722e+01
0.0000000000000000e+00 7.3680629972807722e+01
0.0000000000000000e+00 7.3680629972807722e+01
ITEM: ATOMS id x y z vx vy vz
2724 28.1834 1.63377 0.677075 0.224449 0.3242 -0.283999
1879 33.9319 2.50819 0.558485 0.865747 -0.16841 -0.34374
2137 10.9158 2.99523 0.874606 -1.10021 1.04931 -0.496162
1969 15.6585 3.84793 1.24863 1.17267 -0.0561507 0.890277
3420 33.8126 3.99924 1.29833 -2.642 -0.0436321 1.21644
2325 68.5749 5.79697 0.0638269 -1.84177 -0.0781492 -0.0885342
590 18.2942 7.74478 1.34117 -0.198906 0.813957 0.692465
739 22.3384 7.37607 1.13962 -0.502202 -0.336888 0.485705
2420 50.0898 8.11961 1.36171 -1.23479 0.903739 0.300283
574 55.7119 8.0735 1.20913 0.447255 0.29772 -1.05766
831 10.1744 10.1007 0.535944 -0.149595 0.286123 -0.342431
2975 13.9242 10.1071 0.980567 -1.13181 1.30975 0.399813
2944 39.5825 10.8091 0.660591 1.66839 -1.03926 0.304512
2071 50.7331 10.4013 1.24774 -0.999868 1.12896 -0.999614
2858 64.5846 10.2056 0.912383 -1.05788 -0.150919 0.0352944
640 14.4257 11.8536 1.13054 1.71703 1.24452 -0.844791
973 73.5539 12.4561 0.142444 1.12307 0.939684 0.769041
32 21.0325 13.9229 0.0480398 -0.360206 0.0533187 -0.549726
630 12.1895 15.5466 0.966954 0.357844 -0.386973 0.340798
2371 6.10064 16.7648 0.602151 -0.3756 -1.45955 -1.49014
1629 30.0996 16.1946 1.37324 -0.0283004 0.285854 -1.542
3930 73.1182 20.791 0.36405 -0.351695 0.935863 -1.40315
836 28.4356 22.457 0.321601 0.888052 -1.00577 -0.517251
1061 55.3986 22.0976 0.147774 0.683904 -0.582444 0.391366
1264 19.61 24.0015 1.27954 0.641296 -1.7399 0.249267
2154 61.2727 24.4123 1.13081 -0.00719484 -0.0440971 -1.10034
1920 14.9283 26.5723 1.37404 1.59318 0.447171 -1.29458
1846 18.9226 26.1576 0.762777 0.141605 2.48626 0.242933
2529 63.7224 28.2043 1.01578 1.30714 0.866041 1.42363
3524 32.6289 28.4492 1.36166 0.471958 -0.124821 1.01055
52 67.4743 28.577 0.30806 0.768829 -0.748395 -0.295059
3978 69.9688 28.6979 0.603658 -1.44933 -2.30857 -1.67043
682 46.3141 30.8993 1.13213 -1.60779 -0.350103 1.99268
697 47.7682 30.869 0.245681 -0.867569 -1.47557 -0.530026
3674 64.5925 31.1425 0.614469 -0.193642 0.209282 0.147953
1561 70.7839 30.6218 0.966943 0.188181 -2.45829 -0.481006
3725 13.023 33.3853 0.727085 -1.79033 0.560906 0.491894
2746 60.4071 34.5875 1.21313 0.0352422 2.06241 0.771557
2637 52.0196 35.8977 0.0497129 -0.0832594 -1.14945 -0.290328
1458 3.98667 2.26346 2.16722 0.192111 -0.39486 1.90176
2821 10.852 5.25209 2.21865 -2.00943 -0.301051 -0.851317
648 34.1861 5.40351 1.57104 0.255501 -0.778112 -0.135712
3207 55.0788 4.44649 1.77476 -0.140887 -0.243819 -0.496145
3819 12.7374 5.94454 1.73104 -0.944948 0.329759 -0.0237132
2509 22.1622 7.06285 2.06754 -0.209131 -0.895631 -0.742932
2831 73.2437 9.69841 2.60387 0.760788 2.11222 0.21883
1387 24.2758 9.93429 2.80057 -0.820515 -0.305697 -1.32786
3113 43.414 12.0733 2.07525 0.742158 -1.34037 0.386689
216 52.321 11.3796 1.4901 -2.16766 -1.29045 -0.833978
756 59.9742 13.0542 1.71143 0.0586191 0.946195 0.117449
3542 68.0665 13.427 1.43124 1.51925 -0.785815 -0.301235
1575 48.1752 14.4683 2.45975 -0.600216 0.557336 -1.20245
598 33.4396 16.0926 2.79894 0.276135 0.724451 -0.328509
588 45.3751 16.5701 2.71858 -0.15577 0.376185 -3.02192
1126 57.9582 15.6924 2.63126 -0.289816 -0.146124 -0.730702
972 57.2952 15.8469 1.78175 -0.939919 -1.65063 0.190741
3125 10.0695 18.243 2.80128 -0.548892 0.27206 1.73268
2884 33.8777 17.5567 2.17812 1.04647 0.149393 0.629245
255 0.167787 18.71 1.56942 -1.45863 2.41735 0.489673
2181 14.2168 18.9768 1.44018 0.249192 -1.28835 1.13175
1015 21.2767 18.9836 2.08818 0.649192 -0.138142 0.336282
3270 48.4267 19.4265 2.73422 -0.151317 -0.88907 0.404702
2094 58.2775 20.1502 2.15487 -0.442767 1.27386 -0.376244
1556 1.55008 21.9384 2.20915 -0.516918 -0.111659 0.450025
2148 17.369 21.6993 2.5474 0.0875125 -0.813575 0.599918
688 52.1601 22.4987 2.12042 1.42681 0.75511 -0.897865
1637 53.3655 22.2228 1.86079 1.64098 1.6897 -0.277501
1331 24.9858 22.8123 1.43342 1.40178 0.449029 0.472722
2233 8.75068 25.2642 1.69462 0.305694 -0.714478 -0.567457
311 15.6524 27.8413 1.90992 -2.40448 0.627713 -0.234859
2421 16.8477 28.2464 1.97121 -0.296851 -0.516621 -0.0783506
377 25.6096 27.8484 2.13817 -1.884 -1.28232 0.931533
1212 70.3759 27.3076 2.74431 1.33262 -0.344432 -2.08954
649 34.2135 28.3928 1.7131 -0.12602 0.609819 0.0312854
2296 8.07342 30.3803 2.49198 -0.0790639 -1.13793 0.606469
1654 28.2444 30.7971 1.91326 0.313814 -0.20917 0.511995
2205 31.4877 30.19 2.10793 1.21369 0.637552 1.37481
3953 50.3996 30.705 1.76315 1.51722 0.572503 0.626667
1273 33.5286 32.3383 1.68076 -0.621616 -0.232005 1.7979
523 66.6642 31.6808 1.65525 0.185052 -0.121896 -1.01005
132 44.5663 32.629 1.62012 -0.999432 -0.984863 -1.20161
2126 10.8985 35.6315 2.23851 0.310934 -1.10033 -1.41576
3006 12.5855 35.8694 1.86188 -0.292739 -2.18792 -0.871539
3767 16.1689 2.14118 3.08339 0.263495 -1.39354 0.321912
1388 28.4024 1.99545 2.9653 1.29121 0.761507 -0.332246
2263 30.458 3.11446 3.89577 -0.608639 0.999796 0.953385
2234 7.13732 5.40757 3.67147 -1.52143 0.647041 1.04773
299 32.3198 4.92104 4.2327 0.528317 -2.14336 -0.728519
628 56.9396 5.021 3.90796 0.859948 -1.42004 -0.810832
1137 19.4222 6.58783 3.4333 -1.23574 0.578382 -1.22662
12 58.305 7.08061 3.31914 0.860468 -0.997204 -0.470967
1055 8.46861 8.22078 3.22968 -1.68795 0.0384887 0.0290447
79 50.3894 7.65927 3.61818 -0.56291 -0.00251235 -1.37899
1572 28.1884 9.87435 4.18095 -0.78459 -0.670872 0.334942
1036 19.6296 10.8732 3.90095 -0.306567 -0.464358 1.86754
2217 25.3199 10.9549 3.7607 -1.2532 0.674422 0.756984
2497 28.2269 11.3753 3.94622 -0.541112 0.25027 0.057723
2868 16.7148 13.4494 3.42123 1.00766 -0.854285 -0.258856
2321 0.816243 14.5232 3.00913 0.260643 0.0523455 0.236565
3805 48.9772 14.7502 3.42299 -0.379514 -0.609937 0.456563
1194 5.57672 15.7748 3.58738 -0.609629 2.80032 -1.06589
3553 7.40639 19.5333 3.56035 -0.200588 1.85032 -0.00899854
2815 27.9927 22.5525 4.23297 0.591124 -0.913523 -0.691133
2026 32.6373 21.62 3.91849 0.856888 -0.548431 0.287427
1071 22.026 23.3082 4.134 -1.43865 -0.0607137 0.5569
2761 41.2485 23.8599 3.98454 -1.65335 1.84746 -0.987216
3738 54.3418 23.0859 2.9599 1.87763 0.33948 -0.85527
1600 69.6266 26.5496 3.13013 0.586354 -2.06044 -0.521834
3153 6.30059 28.1448 3.3356 0.407416 -0.551056 0.540866
2495 9.54299 28.3032 4.18396 -0.890538 0.246031 0.0463753
2241 57.2004 28.5193 3.77618 0.362079 -1.05941 -0.898458
2077 37.5813 32.1739 4.12065 -0.697956 0.902561 -0.16597
947 54.2537 32.2073 4.24264 -0.751767 0.566183 0.459459
3325 62.5867 31.5339 3.79069 0.315694 -0.286511 -0.0180405
3504 8.62109 35.0017 3.73247 -1.60081 0.262986 0.390331
1882 42.6668 35.222 3.81485 0.123609 0.998402 -0.448332
2382 49.1534 35.3511 2.95272 1.37315 -0.998121 -1.1841
1401 39.7191 36.3577 4.16208 -0.615053 -0.981889 0.410904
1779 48.4669 36.8195 4.10905 0.138037 -0.203442 -1.90755
2124 6.55465 1.17308 5.17319 -0.174554 -0.0130961 -0.0236858
1800 53.0356 1.37403 5.3685 -0.662974 0.620294 -0.395415
1581 72.5362 0.799661 5.59542 -2.81729 -1.26093 0.0664932
2228 33.4414 2.49888 4.87892 -1.03565 0.461156 -0.111064
2682 17.4253 3.35759 4.35321 1.70441 -0.25995 0.209291
3507 22.451 3.37947 5.63852 0.772225 0.892615 0.465402
3363 44.5604 3.86714 5.17335 0.291375 -1.5252 -0.00833533
1821 52.5771 3.50524 5.339 0.735557 1.33262 0.127377
3945 12.6802 5.23333 5.09536 -1.04281 -1.30659 -1.22861
120 35.9298 6.14679 5.43141 -0.101424 0.789512 0.70108
53 63.5088 8.36634 5.65413 -0.292632 1.90191 -1.08558
1992 54.6102 8.59745 4.61703 -0.71063 -1.82088 0.0713263
3890 17.4784 10.5473 4.73586 1.11957 -0.786159 0.77291
1233 17.4312 12.0808 4.41216 0.110533 -0.718393 -0.743107
2373 60.7436 11.8567 5.2797 -1.01398 -0.481498 -0.111772
1104 21.8489 16.5065 5.42059 -0.342509 -0.968342 0.967659
2183 22.9079 16.5683 5.13493 -0.782514 -0.406444 0.579443
1896 67.4579 15.9711 5.18147 -0.720949 1.25667 1.1973
3015 23.7422 17.2204 4.63027 1.17473 0.340861 1.62638
2842 45.8478 19.3337 4.91181 -1.54538 -0.938725 -1.19185
1692 66.1245 19.3032 5.273 -0.551131 0.0801499 0.301773
2185 72.9642 18.8808 4.3719 0.187091 -0.0139394 -1.0769
3327 16.9206 20.3077 5.45026 1.55125 -0.507396 -0.02321
2536 54.1848 20.4729 5.36208 1.07487 0.775405 1.93061
2732 41.4901 21.3446 5.19964 -0.458344 1.05972 0.496905
1646 59.3837 21.609 5.6086 0.206828 -0.238326 -0.972961
1762 38.1798 23.6073 5.15175 -1.15829 0.099501 -1.58104
602 37.2352 24.4551 5.18559 1.36695 -1.44789 -0.0492057
1327 54.5824 24.1151 4.70597 -1.54677 -1.4609 -0.172741
2458 5.81594 29.5693 4.78305 1.06121 0.893621 -0.80481
1265 25.0746 28.7511 5.56431 -0.110274 -0.385848 -0.767895
2389 27.5359 29.1338 4.3369 0.365499 -0.479514 -3.19759
1979 34.8322 29.3183 5.03618 -0.921005 -1.50547 -0.841147
3434 41.2427 29.3665 5.03602 -0.633522 1.20293 -0.16328
1532 25.6753 31.2366 5.34318 1.02582 -2.30688 -0.0544611
1371 25.7204 32.5657 5.48324 1.89609 -0.622587 1.28455
3601 53.4463 31.8671 5.2686 0.0874236 -1.77373 0.25046
875 70.0398 31.2503 4.40534 -0.456508 -0.321467 -0.99557
3313 18.6945 33.706 4.42913 0.151413 -0.611185 -1.66152
3711 19.5943 33.7661 5.5577 0.221249 -0.818777 0.0333612
2075 12.4145 35.3739 5.56098 1.53193 1.0257 1.01933
983 72.4104 36.0775 5.46275 -0.794644 -1.05527 -0.613626
3777 25.4251 0.845053 7.007 0.651395 -1.25612 -0.0207378
325 15.2393 1.6488 6.56736 0.00523669 0.137736 1.37043
3289 38.4103 3.1636 6.67861 -0.225388 1.09191 1.64189
2801 29.1329 6.61764 6.9342 0.202214 -0.141771 -0.959208
885 20.9362 8.29414 7.02826 -1.62946 1.3834 -1.69054
1315 65.8645 7.13607 7.00381 -1.3745 0.587818 -0.604231
3495 30.6417 10.1228 6.2675 -0.95905 0.90807 -0.100128
2424 50.1704 11.1426 6.60261 -1.50385 -0.000811363 2.24449
1085 31.64 11.8113 6.69981 -0.561909 2.04961 0.14371
727 45.9326 12.0862 6.59752 0.161404 -1.49592 -1.3571
2691 55.6542 11.8527 5.91715 -1.21776 0.993737 0.788561
364 56.0467 14.547 6.14849 -2.6836 0.491858 -0.756814
2960 58.8939 16.3807 5.69103 -0.403563 -0.0653945 0.215226
3484 67.858 16.9215 5.80202 -0.356077 -1.62931 -0.87555
1686 0.444164 18.1223 6.11685 -1.72076 -0.224262 -0.18855
3104 48.459 19.3337 6.32665 0.0334208 1.84662 0.176634
3436 50.3532 19.7668 6.5557 -0.234882 -0.67563 -0.270694
2266 49.0527 20.0313 6.76795 0.0623622 -0.834409 -1.00181
65 1.87009 22.347 6.11456 -1.21791 0.714126 0.336598
324 20.9696 21.2583 6.73569 -0.546952 0.939498 -2.16349
3258 43.6024 23.9264 6.97596 0.569511 0.445014 0.647836
1756 47.5489 23.6493 5.97179 -0.268099 1.62335 -1.39084
696 29.3097 26.393 6.05238 1.12018 -0.493521 0.810781
2744 57.5244 26.3048 5.68123 -1.25906 -0.553814 2.07113
1225 31.5393 27.4324 5.90382 0.712023 0.820658 0.136343
1026 13.1724 28.8902 6.45207 -0.194642 0.958757 -2.18563
945 12.4334 34.4019 6.68242 0.779746 1.27651 -0.0983686
3927 68.2721 35.2942 6.95031 -0.301465 2.11801 0.966833
1916 0.792172 2.91413 8.31392 -0.0400513 0.994175 2.02599
2388 42.4777 3.18882 8.18923 0.302415 -0.287626 -0.664243
408 51.7659 3.46319 8.05176 0.143968 -0.329369 1.38359
2130 65.653 4.99007 8.20556 -1.19475 -0.504226 1.06054
833 40.273 6.00751 7.85925 1.425 0.273313 -0.103033
2920 41.1106 6.92342 7.80066 0.20175 1.56627 0.619052
1337 45.8671 6.45391 7.19595 -1.19625 0.88405 -1.65908
1455 68.8067 6.43749 7.66997 1.09239 0.177916 -1.65141
252 4.63039 8.76065 8.08896 -0.54932 -1.48235 0.067999
606 42.6106 8.79719 8.27742 -0.539136 -0.519958 0.374896
1168 13.3837 10.3184 7.79438 1.3353 1.7319 -1.82982
1835 65.808 11.2843 8.3432 -0.992685 0.111073 -0.915627
675 69.657 10.6044 7.5103 0.240582 0.829211 -0.548362
3887 56.928 11.4898 7.85226 -0.0826556 1.28947 -1.11447
1010 12.0926 13.1021 7.15937 1.39394 0.767904 -0.180435
1563 49.4372 13.5665 7.64141 1.38718 -0.891205 0.216363
1082 42.233 16.9521 7.64885 0.583495 -2.3876 1.97922
3638 58.6262 16.1106 7.60406 -0.257735 0.438932 -1.12243
2040 71.9117 16.5673 7.28164 -2.71342 0.910233 -0.445508
1395 4.08038 19.1144 7.68092 0.349108 -1.08405 1.16857
2883 31.5454 19.4554 8.30667 -0.295983 -0.921535 -0.773032
3025 61.5769 19.0384 8.31667 -1.02848 0.859436 1.29456
3879 62.0613 20.1686 7.50581 -0.453906 -0.684131 0.483039
3455 30.5826 22.2436 7.45525 -1.24024 0.450873 0.477741
1058 24.1436 22.979 8.03245 -0.161641 -1.08707 0.155161
3350 51.1302 23.2811 7.16212 0.871212 -0.409591 -0.973309
438 45.2809 26.8683 7.5943 -1.89657 -1.60444 1.15332
1832 16.875 27.2156 8.30519 0.824812 0.0193077 -0.825962
2527 42.6695 28.1947 7.50733 -0.707413 0.0314203 0.854492
42 62.1466 27.8985 8.22515 1.53899 1.12737 -0.00283145
3331 24.8329 29.3103 8.4423 -1.62306 -1.31142 -1.58762
1815 43.8101 28.9495 8.04471 -0.33515 -0.353445 -0.865538
960 51.5099 30.5226 8.08784 -0.770783 0.912039 -0.469693
2853 73.0266 31.3899 7.96614 -0.547415 -1.23311 0.636842
581 20.2973 34.3867 7.6185 0.939704 -0.416371 0.845378
1669 49.8984 36.0036 8.21318 0.0973072 -0.420633 -0.218704
3934 5.15963 0.967268 9.26744 1.45164 0.201651 0.73314
1766 37.9098 2.00999 9.01349 0.92043 -0.421474 -1.3566
656 38.8982 1.93035 9.81749 1.2898 -0.783366 0.641377
2584 50.9811 1.64568 8.6537 0.660652 -0.497994 0.829248
529 34.9047 4.70712 9.65933 -0.361288 -1.10928 -0.504963
881 42.6536 4.75778 8.90497 -0.684039 -0.539632 2.23905
1891 36.0452 7.52821 9.38166 0.33149 0.254074 0.536315
1083 57.1374 7.13456 9.77962 -0.62318 0.365622 -0.610191
3079 21.0138 9.64774 9.91195 1.38998 -0.800938 -0.52781
2121 62.3487 9.67599 9.64927 0.119684 0.332521 -0.239893
2850 18.8809 10.1749 8.6471 0.714891 2.51595 0.347083
823 17.4704 13.7427 9.84983 -0.644884 -1.49268 -2.56371
2456 39.2782 13.0122 9.03551 -1.37728 0.370048 0.892089
564 46.0278 14.0863 9.08293 0.0809131 -1.07756 2.02692
2555 21.5617 14.3956 8.84385 -2.59419 -0.714487 0.204551
1023 6.44773 15.8242 9.87756 -0.371314 -0.838618 1.10145
1179 10.4485 16.3195 8.51191 -1.06313 -0.921121 0.456006
2208 12.0855 16.4591 9.36381 0.75223 0.18286 0.339512
1017 29.9093 16.7962 8.56119 -1.47858 -1.23735 0.419014
2213 46.4768 15.6145 9.22284 -0.516068 1.27735 1.68911
1393 11.3025 17.9449 8.64307 1.97578 -1.84186 0.17224
3809 64.0082 18.1476 9.17872 0.68259 0.0915136 0.0355247
3389 11.5815 18.8527 9.88003 1.22534 1.49653 -1.3524
3589 33.1939 18.7017 9.05373 0.304719 -0.0779917 -0.677259
3893 4.09779 20.2985 8.61648 1.87208 -0.41637 -1.17897
1911 56.389 21.0255 9.79618 0.431397 0.120544 -0.304
317 72.5789 20.8705 9.5504 -1.38001 0.453741 0.541246
3517 3.98232 23.584 9.51155 -0.628326 -0.763219 -0.0894661
172 71.4182 24.7535 8.7935 0.222031 0.454739 -1.19514
1456 61.7029 26.7125 9.62546 0.472264 0.496686 -0.0227164
2113 65.7036 25.9271 9.17985 -1.56999 0.186916 1.11411
518 66.4812 27.1593 9.54929 0.132328 0.770599 -0.637156
441 66.8857 28.2774 9.33024 0.454071 0.219531 -0.114739
179 14.4664 28.8213 9.87256 -0.772885 -0.855374 -0.171833
482 29.0952 29.2227 8.87001 0.0541609 0.185227 -0.151657
2563 31.097 28.6741 9.46222 -0.0778936 1.28094 0.274007
3320 39.4336 28.8412 9.40098 -0.345685 -0.1702 2.04429
3238 66.9159 29.243 8.80536 0.334166 0.120654 0.0950147
705 19.4577 29.941 8.8328 -0.861745 -0.123267 1.93747
103 49.2561 30.84 9.18297 -1.07604 -0.863341 0.0797268
721 54.9291 30.839 8.56867 -0.094754 1.81145 0.932324
2394 30.7792 31.9693 8.89441 -0.0803603 -0.830627 0.436198
991 42.1474 32.3283 9.1479 0.152471 -0.314848 0.984736
3286 52.9696 31.4344 9.21731 0.980286 -1.63598 -0.788208
3569 46.2067 34.8701 9.245 -1.55831 0.121147 -0.253114
2377 7.41582 36.2563 9.23791 0.258854 -0.547028 -0.663991
963 18.4606 36.1225 8.63625 -0.388662 -0.911219 0.733834
3156 20.3034 35.9807 9.21383 -0.512157 0.342047 0.630715
1714 68.898 35.7978 9.19382 0.406192 -0.078555 -0.574213
1231 31.5473 0.060083 10.3557 0.778743 -0.0889207 1.50223
2673 44.2434 0.738633 10.4221 0.640907 1.07635 0.292143
254 60.4749 0.722876 10.4426 0.758531 1.16928 -0.869014
2011 41.7613 2.53551 10.7993 -0.858177 0.125455 -0.369033
1967 71.9097 5.30266 10.8984 -1.16916 2.04787 -0.850828
1303 18.172 6.98789 11.1304 -1.6624 -0.694492 -0.0292223
2492 49.6712 6.71342 10.1888 -0.888423 -0.061951 0.0883755
609 54.3793 6.84441 10.2765 0.162031 0.731361 0.0521912
2043 12.2884 7.90304 10.8596 0.426132 1.29362 1.79752
1694 45.3179 9.02896 9.92534 0.495467 0.0577308 0.792621
2392 18.2627 11.1513 10.8035 -2.20429 0.661558 -1.03416
3884 38.9534 11.0729 11.2816 0.419345 3.35343 1.64802
1476 5.62156 12.2035 9.93612 0.239269 -0.0586674 1.85172
2554 27.5302 11.5302 10.6317 0.102588 1.29308 0.34908
1084 17.2668 13.5916 11.2454 0.358198 -0.297124 -0.394852
943 25.4637 13.5502 10.1962 -1.30563 -0.412663 -0.163151
1338 3.21758 15.1192 11.0756 0.691606 -0.841143 -1.96156
3822 4.4459 14.9334 11.2604 -0.669997 1.0672 -0.485804
2369 13.108 15.4479 10.5602 0.388798 0.393082 -1.6114
3795 35.801 14.4316 10.1038 -0.259833 1.02032 -0.426709
3183 38.6101 15.3829 10.306 -0.129384 0.278214 -1.93219
3632 69.258 16.8757 11.0357 -1.97494 -1.04335 -0.934976
2598 71.793 18.1922 10.0029 -0.968561 -1.35123 -0.839513
3917 54.7566 19.7682 11.0585 -0.731442 -0.401204 -0.219837
1947 15.9218 21.2376 10.1228 -0.623787 0.143949 0.909674
1628 33.1132 20.3413 9.93471 -0.587738 -0.174459 0.108838
1170 36.568 20.3189 10.7184 1.01522 0.284208 0.627899
3530 64.7041 21.1203 9.97813 0.835555 0.0821263 -1.24951
3964 65.2117 20.057 10.9516 1.6395 0.709293 1.31806
826 72.7531 20.1747 10.2739 -0.791363 0.790769 0.756352
1657 4.05354 22.3669 10.5894 -0.515894 0.326274 -0.949253
767 26.9673 21.8035 10.0446 -2.06556 1.49237 -1.2845
2890 43.8551 21.602 10.681 -0.360485 -0.426343 0.877003
970 65.5295 22.1427 10.6911 -1.25979 -1.77623 0.418334
790 19.8798 24.4234 11.245 -1.09993 0.125941 -0.529507
840 34.1273 25.4985 10.0133 -0.609876 1.08201 0.291861
162 68.212 25.4452 11.1343 0.516248 -0.795344 -0.794776
1985 68.4726 24.7638 10.0196 -0.977134 1.07289 -0.426344
112 1.63412 26.8884 10.6325 0.828943 -0.121547 2.7
2748 65.7159 26.5423 10.9987 -0.0484012 -1.14754 -0.306089
1618 0.0997199 29.5345 10.1624 -1.09898 -0.613682 0.201731
1743 70.4825 28.6702 10.5602 -0.37393 0.688193 -0.102951
3412 66.9035 30.7666 9.98826 0.272991 0.760622 1.18115
3102 51.2702 33.2315 11.1692 -0.718076 0.0186467 0.776819
3481 28.0327 35.0942 11.3236 -0.399005 -1.0731 -0.120995
3861 67.1567 34.0344 10.895 -0.175713 2.05184 -0.617481
820 37.0574 3.08032 12.6198 -0.787489 0.000574666 -1.46337
3549 62.926 4.05934 11.8866 -0.930126 0.204557 -0.800034
391 69.2179 3.08398 12.0138 1.04069 0.289728 -0.0941016
1914 19.1414 4.26313 12.7192 -0.467568 -0.0327135 -1.15984
757 55.9702 4.82059 12.3618 -0.263134 0.530592 0.215669
3871 32.2671 7.52938 11.7302 -0.837167 -0.499609 -1.61579
2361 44.963 7.28505 11.9551 0.363018 -0.132169 0.00180707
1207 9.46606 9.00553 11.8131 1.01162 -1.20411 -1.68567
2003 44.4274 8.60727 11.8693 -0.5924 -1.4264 -0.852204
1320 22.8065 9.93265 12.7357 -0.401649 1.59687 -2.26056
3875 30.027 12.6122 11.6142 -1.10357 -1.64694 0.0795861
1883 35.6559 11.4365 11.6041 -0.231711 -0.623408 -0.405954
1642 67.9443 14.3148 12.0979 -0.85345 0.556074 -0.988078
37 40.8493 15.7482 12.0792 0.0581079 0.519447 -1.64522
3294 3.32656 17.673 12.4208 1.06641 0.288751 -0.561497
2634 32.1372 18.3651 12.2802 -0.883749 1.35718 -0.968186
199 35.5372 17.2153 12.295 -0.76003 -0.452214 -0.354506
3397 24.7091 19.7409 12.5426 0.309292 1.51739 2.04154
3836 47.571 18.5536 11.4021 0.848661 0.634494 0.460421
809 0.869269 20.6725 12.4701 -0.0719335 -1.18969 0.271909
1041 11.3485 20.4312 11.795 1.32877 -0.287865 -0.712935
3460 56.9742 21.0074 12.4041 0.409477 -2.63512 0.389636
143 64.8261 20.7732 11.8499 -0.183597 -0.0120667 1.19035
225 46.8275 21.9579 12.0224 -0.783863 0.720517 -0.232505
1655 37.2124 24.9048 12.685 0.182834 -0.721307 0.465871
397 56.0777 25.6877 11.8461 -0.289336 0.234628 0.597386
2516 20.1422 28.1784 12.4013 0.288194 -0.199629 0.201069
1202 21.4866 28.2098 12.1422 -0.868834 1.1601 -0.397568
3858 24.6942 28.1056 11.4864 0.786863 -0.021662 1.0403
2190 9.44502 29.5098 11.8553 0.693599 1.05216 1.2379
1153 46.5856 29.6982 11.7502 -0.104405 1.75505 0.608247
3493 9.4404 31.0735 11.8262 1.39062 0.432776 -0.271626
1735 40.4811 30.9404 12.615 -0.881108 1.07805 0.704488
2474 25.2069 33.0258 11.573 -0.342742 -0.650205 -0.275729
2501 19.9281 34.8829 12.7036 1.74065 2.09996 -1.86216
559 65.1525 34.3291 11.4912 -0.880856 0.874956 0.0321265
1334 34.7334 36.3883 12.2282 1.76018 -0.715998 -1.65437
375 2.8089 0.0242193 13.2595 0.103197 0.580732 -1.42099
87 13.1167 0.244706 14.1477 -0.265108 0.236456 -0.64006
499 57.6718 0.0990664 13.584 0.698214 -0.567187 0.781226
36 25.2844 3.17763 13.5152 -0.0377602 -1.5885 -1.05121
460 29.7149 3.5109 13.1048 1.11665 -0.203504 0.243483
892 46.0689 3.35763 13.5596 -0.539425 0.898476 0.107316
842 69.3105 2.83542 13.0472 0.694034 2.36219 -0.341207
888 69.0019 3.11067 14.0081 -0.761833 -1.45018 1.72361
3867 2.77584 5.32525 13.1854 1.08445 0.687284 -0.276921
3264 64.6708 4.65441 13.0731 0.968314 0.516797 0.507804
614 12.3818 6.6102 14.1569 0.900051 2.47087 -0.622354
3042 45.9264 10.953 13.3553 -0.540052 -0.655625 -0.385586
2572 62.2194 11.1927 13.7043 -0.0404689 -0.797598 0.364758
2838 65.6236 11.3022 12.8266 -0.145239 1.19214 -0.0212576
2092 7.014 12.8747 12.8444 -0.939797 0.0360154 1.00065
1223 53.3275 13.2863 13.3432 -0.570755 0.328918 0.561629
2353 66.6611 13.9486 13.6133 1.52571 1.65972 1.18717
3450 58.0866 14.2526 13.2925 -0.719205 -0.241081 0.0370006
3551 38.9791 16.3078 13.2491 0.919001 1.77526 -0.0238526
3985 49.3225 16.1944 13.3905 1.50964 0.37436 1.2749
3658 50.1644 17.8316 13.519 1.74927 0.972002 1.06834
672 56.8745 19.5338 13.8532 -0.866402 -0.322 -0.686183
2765 45.5816 20.7582 13.6197 1.62696 0.0164058 -0.405208
3635 54.5955 20.729 13.394 0.156551 -1.387 0.836042
513 64.588 20.0076 12.8319 1.30548 -0.974108 -1.1712
3536 68.823 20.7946 13.6842 -0.83546 0.66876 0.897719
135 7.37256 25.1416 12.9724 0.698294 0.95215 1.69907
289 1.08021 26.5753 13.7425 0.25587 0.231263 -0.566809
1430 35.2774 25.6384 13.2805 -0.514659 0.803206 2.20805
83 46.0278 26.8845 13.427 -0.84142 -0.243587 -0.58762
498 40.108 27.9456 13.1072 1.34516 -2.04316 0.364838
1451 49.3739 29.3022 13.1091 1.65754 0.814487 -0.0646187
1496 59.7295 29.0573 13.4751 -0.905502 -0.962339 -0.992583
661 26.1867 30.3686 12.942 1.64754 -2.46149 -0.252487
799 42.664 30.6873 13.6135 -0.150172 -0.992268 -0.427634
3210 64.0849 30.2347 12.9264 -0.755156 -0.788659 0.291971
822 70.6857 31.0645 13.4309 -4.17448 1.16924 -1.07062
2246 45.3155 31.8255 13.2551 -1.04113 1.21576 0.593486
1516 19.3141 33.9008 13.7008 -0.167126 -1.02332 0.740354
3199 28.5923 33.9501 12.7575 -0.209334 0.25395 -0.863465
3168 32.408 32.9686 12.819 -2.41292 0.845603 0.410943
3011 49.4102 32.8265 13.027 -2.15253 -1.22359 0.239282
2543 64.0025 34.3527 13.0816 -0.711486 0.0802879 -0.861068
953 46.9703 36.7364 13.7585 1.64409 0.648817 -0.530368
3566 7.21343 0.227124 14.7786 1.56353 0.0971116 -1.48503
3046 13.7951 1.61509 14.5336 0.856452 -0.523313 -0.773707
2951 58.6049 2.01005 14.9103 -0.066308 -0.807671 1.02519
3719 65.3585 1.82031 15.2592 1.54301 -1.56529 1.0436
3157 2.03895 3.40882 14.929 0.543628 -0.935975 -0.248798
2740 37.7396 3.13718 14.2402 -1.30087 -0.922305 -0.583512
62 12.55 4.67305 15.0795 0.100438 -1.4009 -0.53427
3573 32.5717 4.25932 14.5064 -1.83439 -0.720838 2.41299
205 12.5234 6.49648 15.4194 -1.72378 0.798844 1.42154
2775 40.9217 6.83185 15.4264 -0.391803 -0.822515 0.474905
243 1.9634 7.75407 14.8028 0.39332 2.17435 -0.184614
1760 13.7062 7.52619 15.1631 -1.0976 -0.0704027 0.771561
1796 43.1486 7.15714 15.3953 1.63212 2.70737 -0.787715
56 5.70701 9.35218 14.6075 0.190157 0.141288 -0.0490829
3365 12.5066 10.0835 14.7278 0.371337 0.387732 0.672063
1029 47.8512 11.0083 15.3162 -0.536069 0.052789 0.571027
450 70.6129 11.0342 15.4789 -0.884833 0.0668798 -1.09064
827 36.8814 12.1288 15.5376 -0.574572 0.581163 -1.29831
1261 60.2975 11.4012 14.5564 -0.746135 1.82367 0.607432
869 58.4492 14.9525 14.1707 -1.29831 0.0923695 -0.717664
3697 60.8796 16.1277 14.8035 -1.07702 -1.17456 1.16967
627 40.8216 17.7874 14.3901 0.0700608 0.385669 -1.18472
2785 48.6707 17.8645 15.1633 1.22323 -0.859269 0.112342
30 41.5647 18.534 15.315 1.38259 -0.154928 2.00092
3903 53.3669 19.6105 15.0048 -0.823621 -0.407995 -0.436685
1376 8.39482 21.0078 15.1524 0.880914 0.452827 -1.45742
1679 26.7758 20.2891 14.5171 -0.295855 1.93771 1.35584
2758 39.6571 20.2443 14.9437 -0.412123 -0.693182 0.0725722
1343 58.0027 19.9709 15.5021 0.270611 0.0482339 0.717541
2667 20.6299 22.471 14.8604 0.210835 1.53313 0.322966
2333 22.1224 21.5222 14.3559 -1.53402 -0.569496 0.230536
2112 10.3094 23.2722 15.1698 -1.88429 -0.0656024 -0.632533
2293 16.6138 23.5065 15.474 0.756743 -1.58942 -0.338296
2899 39.4099 25.3385 14.708 0.614822 -0.318707 0.669912
2171 61.9119 27.7199 15.2696 -0.103645 -1.588 0.201869
1369 33.2921 29.2875 15.1682 -1.44165 0.435135 -0.0391344
432 3.5561 30.3463 15.3592 -0.0162496 -0.506135 -1.95944
3995 12.7413 30.5959 14.7331 -1.37003 0.240883 -0.212066
1035 18.6783 30.033 14.4393 0.328383 0.821468 0.807571
2841 5.96589 31.4884 14.5929 -1.31872 -0.403807 0.299764
3108 22.9867 31.4282 14.7783 1.07293 0.23104 0.79748
2599 23.1604 32.5194 15.3311 -1.27029 -1.3253 0.443103
1919 46.3853 34.7528 15.2446 -0.50348 -0.428785 -0.648904
3781 16.9715 35.9395 15.3752 0.591874 1.76451 -0.283836
543 45.384 35.4917 15.1969 -2.49486 1.22883 0.312228
1626 34.1544 2.60102 16.0321 0.495993 -0.116208 -0.229687
2087 16.5875 2.94396 16.6012 1.35775 0.518491 0.766122
631 17.4165 3.87566 16.9856 0.634147 0.999307 0.304586
2675 27.8366 3.54646 16.468 -0.254415 0.467046 0.282976
335 71.9327 3.89984 16.081 -2.8342 0.889172 0.619041
3064 11.2368 5.40217 16.4141 -1.09671 -0.00301037 -0.903532
1413 37.4043 6.30006 15.6913 -0.50637 1.5228 -1.05355
3666 49.7009 6.05807 16.4115 0.657516 -0.367518 -0.395564
2301 73.1836 7.97772 15.796 1.26432 -1.2328 0.579705
3185 8.24086 10.172 16.0603 -1.67234 0.622159 1.48997
1573 56.9139 11.6434 16.5364 1.32996 2.43388 -1.89989
1803 67.1554 12.7434 16.4792 0.135987 1.01903 -0.453571
3361 71.6684 11.6069 16.6741 0.0579491 -1.21109 -1.12564
1578 3.0528 14.2024 15.9989 1.02125 0.733135 -0.105992
1830 9.94906 15.5906 15.902 1.01723 0.595066 -0.10975
1171 24.9853 16.51 16.5786 0.150706 -0.0104994 2.93844
3816 27.0036 16.5696 16.8256 -0.742373 -1.21068 1.44612
333 47.1908 16.825 16.5285 0.568279 1.10101 -1.57575
1761 46.9269 19.7664 15.9712 0.210043 -1.71186 -2.74009
3776 48.6167 20.7626 15.8078 1.98702 -1.86806 0.358366
2298 12.9413 21.6663 16.9854 -0.60619 1.6725 1.1433
2772 41.3662 21.4429 15.8402 -0.317356 -0.143421 0.417445
3592 13.5293 23.1494 15.7313 0.183135 0.582651 -0.770117
818 34.9143 23.6045 16.6876 1.04655 -0.939413 -1.23252
228 58.6717 22.8618 15.8911 0.183898 -1.24937 -0.56064
3334 34.349 25.413 16.6114 -1.3526 0.905563 0.810872
2603 0.958273 25.5253 16.7556 -1.41542 -1.23156 1.10678
153 59.4636 28.0705 16.2797 -1.17975 0.691536 0.741244
1086 20.7892 29.3469 16.6898 1.23607 0.0840618 -0.119546
2692 36.1867 28.6943 16.7459 0.432571 0.311443 -1.20885
1054 50.3625 29.1995 15.8091 0.562898 1.26846 2.49884
2697 0.172848 30.6558 16.9333 0.68447 -0.349983 0.657987
2621 38.8618 30.0031 16.7649 -0.0998464 2.50094 0.563401
2339 54.0564 29.7811 16.8473 2.70789 0.275103 0.563403
186 4.05704 31.6212 15.6963 -0.118722 0.0498072 -0.967596
789 6.94223 31.9033 16.2132 0.0039906 -0.324288 0.0553711
3037 28.1406 32.3436 16.3367 -0.838303 1.36962 1.30861
305 30.6434 31.3247 16.3577 -0.106052 0.527729 1.38101
2946 42.4641 32.2378 16.953 -0.251136 -1.61495 0.123769
194 4.38707 33.4506 16.7228 -0.882671 0.253478 -0.544621
2305 65.6188 32.9559 15.8314 -0.580132 -0.414648 0.953811
775 68.0781 0.331666 17.2141 -0.667507 -1.57001 1.47379
3701 70.029 0.335908 17.0159 1.86292 0.77003 0.996025
1341 62.6037 2.17483 17.7931 -1.4867 -0.43631 0.530383
2307 31.4406 6.18051 17.9357 0.0724479 0.493797 0.0244296
1400 62.4409 6.16517 17.6678 -1.65144 0.991813 2.50975
1024 24.6843 9.47471 17.6553 0.224583 0.164128 -1.33726
2134 68.6342 9.74578 17.0975 -1.16089 1.88443 -1.0414
2922 3.09168 12.1079 17.8465 -0.599243 -1.55916 -0.0989727
1663 43.1423 11.4706 18.0156 0.579046 -0.535408 0.359484
1244 51.1172 12.0507 17.6989 0.282056 -0.0930115 -0.123933
3169 44.184 14.0266 17.1819 -0.520226 1.22409 0.169703
1096 24.944 14.8592 17.2485 -0.210276 0.237292 1.0489
3483 35.6028 14.4151 17.0151 2.4488 1.65415 0.890825
3512 36.6907 14.3156 17.8744 -1.92625 -0.440786 -1.01022
3746 3.13037 16.9733 17.5875 -2.4996 0.0516947 0.569746
2048 4.71126 16.7939 18.1701 -1.12605 -1.71694 0.448003
1493 26.7807 15.7052 17.3853 0.457479 0.254118 -0.253324
1250 59.7086 16.7346 17.1899 -0.110744 0.614977 -0.117386
1063 61.4831 16.1208 17.9085 0.733174 2.50302 1.55033
2749 55.1219 17.5125 18.0264 -0.327101 -0.667657 0.258255
1405 68.5863 19.4531 17.5448 0.722571 1.1221 0.176429
2595 20.4492 20.0553 18.0736 0.962492 -0.816218 -0.742319
1886 31.7286 20.2769 17.8294 0.281841 0.365685 1.86758
1191 19.8237 21.4983 17.2526 -1.73247 0.981191 0.111075
713 52.292 23.5996 17.0958 0.769613 1.20087 0.824484
3851 49.6983 24.5989 18.1065 -0.811851 0.989479 -0.157831
1296 71.7241 25.0923 17.1391 -0.0845334 1.00362 -2.50436
2903 72.6441 25.4985 17.4497 0.71878 1.19688 -0.548049
3222 3.05448 27.1368 18.1608 0.449915 0.271232 -0.436247
2741 9.19098 27.53 18.0338 0.68036 -1.21449 0.0503728
2588 27.7859 27.0118 18.1692 -1.3392 0.0260228 0.0772205
3905 34.2008 28.0932 17.3515 0.438984 -0.684459 1.3775
2249 48.1627 27.0746 17.1199 -0.373329 0.699427 -1.22769
3561 61.8529 27.2657 18.0936 -0.83621 0.403224 -1.61083
1238 69.4627 27.6589 17.8375 -1.12658 1.78744 0.664498
50 2.17835 29.9968 17.2812 1.52147 -1.56123 -0.160735
84 10.2979 30.4802 17.9558 -1.20798 -1.22618 -1.15502
3007 32.8524 32.3385 17.7702 -0.316447 1.61896 -0.616816
3415 68.1611 31.6995 17.8895 1.25852 0.47543 -1.11123
2560 67.4384 32.7546 17.554 -0.59723 -0.178643 -1.41614
3910 70.5262 33.8976 17.0671 0.451241 -1.98053 -0.0305273
1471 5.08894 34.7716 17.2535 -0.147655 2.66227 -0.240673
3709 5.60863 34.647 18.3812 0.161729 0.173149 0.566259
2962 18.7576 34.1674 17.4985 -1.11777 0.316274 1.1442