ITEM: TIMESTEP
59000
ITEM: NUMBER OF ATOMS
4000
ITEM: BOX BOUNDS pp pp pp
0.0000000000000000e+00 7.3680629972807722e+01
0.0000000000000000e+00 7.3680629972807722e+01
0.0000000000000000e+00 7.3680629972807722e+01
ITEM: ATOMS id x y z vx vy vz
2779 49.1963 0.762457 0.405155 -0.713293 -0.493242 -0.45695
2058 65.0299 2.95275 0.966615 0.641469 -0.0597905 0.78758
1456 12.6325 11.6966 1.30815 0.836009 0.39493 -0.140257
1183 23.8249 12.1972 1.12722 0.1206 -1.12927 -0.888779
3814 50.7323 11.8733 0.479371 1.47355 -1.62704 1.11297
1717 14.4885 14.2122 1.02032 -0.175761 1.12173 0.919818
3229 38.4163 15.1261 0.297777 -0.349319 -0.101403 -0.499353
2833 46.3684 15.2455 0.399685 0.156673 -0.0790296 -0.992229
3820 12.1257 18.3395 0.429585 0.128961 0.0746713 0.545398
852 33.4277 18.3566 1.11688 -0.786689 1.62024 -0.0080447
1588 42.6354 17.6449 0.179323 -2.12279 2.52374 0.127024
2296 45.0573 18.3935 1.27697 -0.411617 -1.16888 1.52541
1233 52.8861 17.3708 0.0801965 1.534 -0.393677 0.57303
1767 54.7821 17.1377 1.25982 0.258714 1.74359 -0.43835
2374 9.61888 19.3193 0.713989 -0.685975 -0.371512 1.05008
2319 73.3423 18.543 0.456041 0.776549 1.16855 0.582154
3074 45.0621 22.9965 0.74863 0.968234 0.58717 1.81517
3696 50.4648 23.9793 0.894026 0.432343 -0.0270839 -1.85821
1887 53.9232 22.6831 1.11529 -0.758855 0.220516 1.62807
3572 57.6294 23.3096 0.369625 -0.206482 -1.66067 -1.62506
1942 59.009 23.8667 1.06902 -1.52164 -1.12099 0.128159
15 6.08467 24.1187 1.20845 0.417762 -0.162486 -0.441014
3370 23.7875 25.3579 1.12696 1.2041 -0.265637 0.959943
3839 24.5852 24.2936 1.30744 1.393 -1.79498 0.193863
3780 24.8614 24.6045 0.0999845 -0.344095 0.027246 -1.61717
1825 61.6803 25.0812 1.05089 -0.689546 0.21588 0.47516
150 63.5647 24.9288 0.796857 -0.344537 0.648375 -0.684191
3616 67.9334 25.1044 0.209274 -0.124704 -2.50306 2.01235
840 11.5888 25.9378 0.156921 -0.311995 0.413258 1.06046
2838 38.1838 25.7647 0.106687 0.772992 2.1236 -0.415474
2660 31.2049 27.2939 0.255145 0.210233 -0.2749 1.05009
3254 49.4539 28.3563 1.36689 0.537741 0.417586 -0.684572
3492 64.1453 30.6435 0.794878 -0.165277 0.351476 -0.333363
1163 1.74388 31.5069 0.355214 0.143226 0.690996 -1.4484
1176 4.31168 31.6915 1.05474 1.32694 0.91721 -1.13385
689 21.3853 31.576 1.03918 -0.771288 -0.94237 0.273671
470 50.702 34.6099 0.00616365 0.418885 1.16518 -1.29399
1723 53.291 35.1321 1.29527 -2.72642 1.8851 1.75001
3475 4.96324 36.7229 1.3613 2.20868 -0.44595 -1.37356
1890 6.14 36.3328 0.226241 0.741896 -0.413144 -0.364513
1489 60.4476 35.4612 0.964931 0.542826 -0.523783 1.23262
471 44.9501 1.13366 2.71012 1.26705 0.74378 0.843077
1791 42.7796 1.8001 2.42368 0.20964 -0.238175 -0.43377
2281 23.8309 5.50008 1.42924 0.650857 0.954682 -0.199239
1086 1.44877 14.6549 2.23548 -1.32046 0.983531 -0.305752
3133 26.372 15.0987 2.83218 -0.480339 0.856327 -0.113833
2871 44.8005 15.4001 1.87784 -0.858561 0.134779 -0.71691
672 1.56558 16.3586 2.21938 0.858745 -0.44646 1.42995
3245 43.6176 20.4111 1.87703 -1.04655 0.0817579 -0.845696
1916 63.6384 20.758 2.49424 -0.00424916 1.1385 1.0877
2306 33.9672 22.9696 2.41788 -0.326572 -0.410275 0.0926257
1281 73.0821 23.0163 1.64737 0.673771 1.95236 1.17019
2932 7.40193 26.1616 2.55814 0.9909 -0.701217 0.278253
3181 23.3932 25.6463 2.78266 -1.61821 -0.713956 -0.859404
3745 8.15907 28.1141 2.09915 0.810873 0.216496 1.00242
670 4.85726 29.4202 2.66828 -0.0937184 0.402151 0.752427
2028 16.4616 28.4128 2.77484 0.651656 -1.03099 -1.27991
1814 17.1396 30.8843 2.75628 -0.562526 -2.3058 0.0467811
3313 48.6476 32.7562 2.4202 -0.513266 1.87461 1.01073
3028 20.1615 35.454 1.93395 1.79234 0.818665 1.52866
2992 59.8197 35.7259 1.66403 0.148727 1.32789 0.722014
1127 34.6207 1.38695 3.70332 0.461596 1.35662 1.40009
3551 31.3066 1.79628 3.22613 0.219964 1.84946 0.423224
3608 33.5786 2.09389 3.3746 -0.876238 -0.801365 1.71412
1912 50.6705 2.36947 3.10321 -0.401678 -0.0390886 -1.332
3939 56.9468 3.89242 3.24277 0.531179 -1.55411 -0.26711
1625 9.55684 4.91649 3.02749 -0.380664 0.547123 -1.55181
2668 16.5093 4.49422 3.64138 -0.904292 0.239622 0.349831
996 29.2196 8.4268 3.42825 -0.49571 -0.0235414 -0.33595
379 52.7179 10.9846 3.94748 1.48416 0.445872 -2.23138
1993 57.2649 10.6082 3.00958 0.319537 2.36712 -0.822386
957 6.91805 11.3768 3.58069 -0.28848 -0.688825 0.89122
1421 56.9176 11.7217 2.86994 0.974428 0.0539089 0.642256
242 67.5354 11.911 2.89354 0.386171 0.294131 0.234431
1405 72.7249 15.9482 3.42616 2.0314 0.423093 0.935971
873 13.5324 17.9162 3.73248 0.639187 -0.741675 -0.884987
3746 16.2813 19.137 4.14279 -0.918128 0.121013 0.238008
224 32.0707 19.1339 3.18689 0.98807 -0.793748 -0.0985503
2641 53.1276 23.0021 3.82117 -2.34592 1.88069 -0.719324
3773 66.7389 22.7522 3.01301 0.0102728 -0.128674 -2.21424
436 34.448 25.0259 3.15017 -1.5576 -0.24589 0.256538
1774 7.28823 27.6202 3.28757 -0.655273 0.941311 -0.954366
1878 62.4083 28.9707 3.24826 -0.494655 0.498445 -1.83729
3914 15.7033 33.9425 3.98547 -2.32107 -0.465988 -0.817711
2144 59.5263 33.1961 3.64811 0.565905 0.243059 -0.0685032
3953 4.80724 36.1442 3.04196 0.550954 -0.92719 0.271859
1595 5.9171 36.1846 3.10923 0.344309 0.501303 0.172394
3846 30.9274 35.681 4.08085 -0.53331 -0.72286 0.457292
2258 29.808 36.363 3.72286 1.56377 -0.737098 0.676026
3548 66.4687 35.4438 3.30692 -1.66014 0.117429 -1.06484
2602 44.2795 0.0935779 5.62995 0.183081 0.541653 -0.785735
2569 4.18355 1.92968 4.88527 -0.118779 -1.31844 -0.491762
1964 35.8299 2.35537 5.53641 -0.204668 -0.0389801 1.76239
212 69.4761 2.42985 4.86546 -0.481836 -0.700753 1.27386
2789 57.6244 5.26841 4.78852 0.933193 0.0341066 0.0994431
707 20.9583 6.56476 4.87571 -0.415249 0.694805 0.666259
1753 48.5886 6.05626 4.71208 0.517332 -0.682825 -0.528803
3490 8.77091 11.0254 4.27428 0.102984 0.941972 -1.31788
248 59.9279 11.1508 5.26283 -0.684671 -0.0295992 -0.0464071
1030 65.113 10.2111 4.91942 -1.51777 -0.0822268 1.52731
3607 9.60266 11.4386 5.086 -1.04996 0.263381 -0.500293
1438 46.0689 11.3398 4.37751 -0.0658537 -0.588572 2.07301
3163 57.391 11.4091 4.43554 0.0291319 0.44333 1.52769
2889 73.4497 11.6782 4.26075 0.0720004 -0.884774 0.769746
252 67.1255 13.0214 4.67979 0.88188 0.598428 -0.296415
1391 4.37159 16.2313 5.11362 0.0317651 -0.225644 -2.47432
1775 47.0667 15.7621 5.17901 -0.672581 0.856393 1.88886
1711 15.347 18.2117 5.50395 0.234876 -0.262844 -0.246627
2659 9.48938 19.7577 5.34735 -0.544196 -1.27745 -0.797583
1527 13.8056 18.7582 4.48593 -1.59114 1.07009 0.226051
1266 17.1681 19.1896 4.60112 -0.763673 0.493584 1.21331
760 29.2315 19.004 5.31983 0.149737 -0.355156 0.0966932
2037 31.8873 18.586 4.66323 -0.0879663 -2.08038 -2.12064
2060 16.8469 21.1176 5.1239 0.371971 -0.678985 -0.360707
3070 24.9364 20.8464 4.91657 0.2732 -0.938058 0.141487
1498 0.361099 22.5316 4.73167 -1.05266 0.932517 -0.149786
1297 26.3424 21.2755 5.03829 -2.06027 0.176671 -0.00440627
2690 44.3705 24.5991 5.53737 -0.252887 -1.01462 -1.17779
2816 55.0273 24.6526 5.16 0.973136 -0.846701 0.699919
1402 68.271 25.8083 4.68863 -0.579341 -1.05828 -0.442383
1642 35.9285 27.5607 5.13729 -0.481058 -0.523879 -0.456478
2520 57.9632 28.0367 4.9207 0.898209 0.626023 -0.352375
3589 22.1493 29.4003 4.42626 0.0776152 -0.012691 -0.17317
3583 71.7412 29.706 5.13691 0.146242 -1.82272 -0.662839
709 28.5377 30.3948 4.3965 0.318035 0.32122 -0.100549
2997 15.1929 32.715 5.51693 0.350319 0.315481 -0.532656
859 13.5876 34.329 4.42818 1.02105 1.24086 0.595797
2090 13.6843 35.3757 5.18822 1.0761 -0.684448 1.83642
1423 18.7513 34.8484 5.29429 1.90919 -0.888011 0.422873
145 50.9366 34.546 4.87886 -0.970467 -1.17684 0.352325
3657 25.9738 35.7067 4.80208 0.564236 -1.06982 0.000292697
1036 55.385 1.31256 6.37165 0.103217 0.0459773 0.487879
315 68.0556 0.871943 6.76563 -0.0237916 0.588813 0.1946
3021 27.6659 2.24755 6.74044 -0.243651 0.0039828 1.90797
3832 28.8782 1.90817 6.62733 -0.753919 -0.0485542 0.245156
869 28.6213 3.63611 6.44749 -0.34405 -0.030541 0.278623
2975 5.76526 4.43207 5.8007 -1.06258 -0.674249 -0.188201
3526 45.8261 4.87356 6.36208 1.02857 0.125384 -1.24893
1679 12.7391 5.71598 6.08987 -0.596268 0.453956 -0.969459
3424 3.15815 7.58785 5.84832 -0.412072 0.997292 -1.83403
2198 34.5835 7.10719 6.75534 0.796049 1.51226 1.46164
1562 11.2186 9.11637 6.30846 -1.32247 -1.56607 0.0973665
1786 33.2415 10.9198 5.98544 -1.14632 -0.165984 1.13503
2075 46.5126 10.7099 6.19031 1.87045 1.16949 2.09855
3334 54.318 10.0215 6.87292 0.0270473 1.02538 0.603602
563 33.0765 16.7977 6.01252 0.221223 -0.160179 -0.108222
3170 43.542 20.2823 6.28028 0.26592 0.859462 -0.48465
2802 8.59859 22.5357 6.13257 1.37106 -0.925571 -1.55439
2964 36.938 21.5503 5.76924 0.440367 -0.786098 -0.101942
822 45.1864 29.8839 5.75842 -1.0902 -0.498202 -0.128902
2483 59.8347 30.3363 6.73187 1.37705 -0.174813 -1.27299
3072 21.4099 31.1816 6.85922 -0.0553605 1.83487 0.775478
435 40.0234 31.4194 6.62723 -1.96795 0.272362 0.00630071
2521 61.9575 31.3964 6.09108 0.629477 -0.303416 0.654783
2807 9.44206 34.9052 5.94506 -0.715235 -1.2262 0.669813
2781 45.8231 35.8199 5.952 -0.404206 -0.0429354 0.910982
240 53.423 36.411 6.58266 -0.212769 -1.31563 0.738504
2638 14.4214 2.16855 8.37308 0.575991 0.889048 -0.177207
3428 15.3875 2.2033 7.7326 -0.806267 0.661795 -0.315621
334 1.07478 3.40599 8.04052 -0.923699 -0.0240527 -0.315721
3549 51.6668 3.64412 7.40088 -0.865294 -0.852891 -0.333987
3720 53.2391 3.89619 8.49043 -0.975827 1.1786 0.151432
1374 53.254 3.24483 7.36267 -0.608498 0.175544 1.81152
1481 62.4853 2.85543 7.97223 -1.87427 2.13957 0.470662
2865 68.4099 5.64079 7.8477 1.45285 -2.37674 1.28099
2487 56.2906 6.22485 7.88565 -0.519305 -2.13676 0.568276
2611 70.9016 6.04718 7.71583 -0.0959648 0.660639 0.939596
3575 13.7011 9.29417 7.81587 0.181917 -0.564543 1.59632
953 18.3277 9.78944 8.32786 0.911152 -0.25816 0.780316
1273 62.2455 9.90748 7.61794 1.62221 0.864919 1.50257
2156 8.20408 10.3332 7.30942 1.87916 1.13017 1.78377
784 39.955 11.7931 7.68685 -0.168055 -0.373147 1.37459
1519 61.6651 14.6747 7.40044 -0.562861 2.11829 -0.0175635
3246 25.7069 18.3384 7.70417 -0.0500888 1.78963 0.253752
3296 32.0764 18.3062 8.36841 1.56395 -0.274982 -0.903216
3215 51.245 17.1712 8.4452 0.603871 -0.184558 -1.57983
3557 35.1498 19.6979 7.55284 0.341733 0.86183 -0.544136
2167 60.2226 18.8336 7.82733 -0.82284 -0.620282 -0.638415
3642 21.6777 21.1598 7.64194 0.128804 -0.247447 -0.96479
3365 44.0602 20.0039 7.53939 0.457216 0.41935 0.36472
2567 71.1276 20.9008 7.51569 0.765746 0.208069 0.825252
3443 67.4401 23.9648 7.9959 0.221604 0.485913 -0.582752
2079 10.3848 25.3854 8.04721 0.162847 0.404834 -0.144188
54 31.4777 25.3583 7.9118 1.21345 1.14959 0.472484
427 35.3249 26.4004 7.7341 -0.496325 -0.268393 1.44793
34 46.1452 25.585 7.32388 -0.0865639 0.288333 -0.278244
1287 5.52135 26.9576 8.17409 0.502636 1.06247 0.0537288
2376 10.1256 27.6909 7.82358 -1.08976 -0.997793 0.857361
2249 21.3057 27.6924 7.9473 0.404384 -0.412904 -0.355975
1332 23.1323 27.5355 7.52525 1.13055 1.17679 0.174433
61 34.3906 28.1756 7.22697 1.26168 0.117326 0.906563
3032 59.7964 28.3273 7.9269 -0.0065089 -2.58946 1.14582
747 37.4722 28.7657 7.9737 0.787917 -0.4962 0.772675
936 71.6144 29.9427 7.35909 0.230628 1.12302 0.307947
2739 15.2398 31.2637 8.3664 1.35806 1.95827 -1.61886
1327 58.8822 33.3732 7.28531 -0.141149 -0.616814 -0.412123
2385 4.45178 34.2187 8.46245 0.0120019 -0.659303 0.976261
415 19.5141 34.6448 7.20349 0.7455 -2.67547 -0.568393
1785 27.0538 34.6147 8.5003 -0.685554 -0.228077 0.962798
710 11.6045 36.6334 7.61497 -0.484254 -0.683808 0.371539
3588 39.3406 0.825813 9.56728 -0.372852 0.939403 -0.125508
130 66.1309 1.30576 9.73201 -1.1045 2.69848 -1.16787
729 9.62205 2.81592 9.78719 -1.03765 0.70979 -1.81726
129 10.5898 2.20365 9.40966 -0.632078 0.317672 0.941343
3222 33.8976 3.35678 9.20681 -0.156591 0.287118 -1.45319
409 16.7155 5.50142 9.35656 1.22939 -1.33008 -0.914689
3740 40.5815 6.04145 9.8634 -0.332402 0.0704651 -0.048044
39 70.6556 7.05913 9.00499 -0.109037 -0.969148 0.615159
1153 23.9968 9.47312 9.13164 -2.01956 -0.450948 -1.22933
2960 30.9158 9.26747 9.80365 0.0676464 -1.71187 -0.924697
2589 38.2709 9.74411 9.82926 1.96137 -1.26142 -0.553903
847 20.6984 11.1398 9.66843 0.753418 0.00111776 0.884194
3592 37.9129 10.6147 9.22366 0.973412 -0.17658 0.36889
1688 45.5285 13.2313 8.58313 1.92274 -0.701386 -0.0568674
989 54.8225 13.7435 8.54074 -0.665342 -0.566468 1.1809
377 36.6216 15.0244 9.34251 -2.67687 -0.209534 0.795866
2516 11.1852 16.0625 8.56594 -1.45663 0.475318 1.28812
705 12.5561 16.0425 8.92849 -0.857142 0.380188 -0.413817
3545 23.4875 16.0247 9.48631 0.0675321 -0.49908 0.19571
2847 28.1505 16.171 8.82678 0.620528 0.525016 -0.433397
3574 55.5745 16.2446 9.27548 1.66545 -0.138229 0.210195
3520 31.5992 17.57 9.75876 -0.180162 -0.134331 -0.216077
2384 32.5442 17.4035 9.54359 1.72632 0.549605 -0.692342
657 6.68572 19.3207 9.74169 0.638083 -0.258497 -0.76481
1628 13.4006 18.6314 8.96016 0.317134 0.207403 0.412771
1038 48.8339 19.7004 9.57395 -0.491851 -0.743077 0.615572
3299 62.3144 18.7574 8.67598 1.16454 0.616284 0.752752
2450 61.202 19.1024 9.01479 -1.29255 1.02299 0.561271
3024 42.422 21.1275 9.15551 0.826901 -3.10033 -2.26368
3301 48.9236 20.927 9.29903 0.594081 -1.07575 -0.529014
101 11.6871 22.1793 8.84563 -2.38302 -0.637321 0.0602751
461 66.8166 23.8841 9.24688 1.22276 -0.669404 0.268859
2820 55.0995 24.3746 9.40592 -0.116625 0.0334567 0.0651056
2143 14.5954 25.5811 9.74062 -0.232366 -1.07744 -3.05169
1572 15.0557 27.5025 9.16077 0.650592 -0.908891 -0.0223639
1598 29.0833 28.0193 8.9451 -1.03247 -0.484792 -0.48779
3645 12.0205 36.2852 8.95187 0.960928 -2.02353 -1.93207
2722 25.1527 35.7102 8.76227 0.80585 -1.53429 -2.25927
1953 71.3636 35.7716 9.16959 1.45164 0.926937 2.3898
2514 17.524 0.953397 10.4937 -0.210709 0.279981 1.01555
1502 27.97 0.215624 10.5168 0.53105 0.319816 0.456238
2414 67.192 1.3559 10.5292 -0.321326 -0.177335 -0.958642
38 30.4944 2.46797 10.3645 -1.19947 0.287213 0.718037
2252 36.1701 1.65105 10.6676 0.952967 -1.34916 0.557575
2657 52.8447 2.48134 10.2677 -0.847066 0.181492 -1.42427
3114 66.0839 2.00935 11.312 1.39908 1.13571 -1.90907
1610 31.9498 3.84288 11.2772 -0.578534 -0.599253 -0.18698
2724 44.5407 3.55276 10.0756 -0.400972 -0.158054 -0.0545676
3701 62.1283 3.69265 10.8758 -2.49584 -1.606 0.150433
3605 70.824 4.79666 10.5457 -0.0486592 -0.589403 -0.662932
756 27.3048 6.17479 11.2225 1.04139 -1.01605 0.323185
1180 72.1288 6.62863 10.3975 2.0709 -0.136174 0.249412
1334 2.89246 7.09477 10.1243 2.57498 1.27788 -1.13348
3388 48.906 7.62694 10.3317 -0.710665 -0.321996 0.778044
3323 70.2638 7.19276 10.9022 0.441309 0.538798 1.0932
2387 60.6297 8.94999 10.7256 1.56852 0.374706 0.770093
2941 70.4976 9.107 10.5478 -1.99356 -0.890783 0.506848
3124 58.3628 10.0309 10.8598 1.81219 -1.81282 0.501
452 66.979 9.95901 11.0049 -0.642225 -0.088912 -1.22765
3230 11.1744 13.0521 10.2421 -0.418295 0.854478 0.476645
2666 32.6182 14.7192 11.0521 -0.692902 -0.901129 0.293457
2527 48.4567 16.7279 11.0313 -0.487539 0.179619 0.771097
2241 7.49148 17.7631 11.2983 -1.55835 1.81133 0.358653
1849 57.2994 17.5262 10.4014 -1.27707 0.836 -0.385316
42 5.58092 18.521 11.2098 -0.560382 -0.984705 1.17153
1692 27.998 23.273 10.8411 0.389827 -0.396226 -0.0808493
1629 18.8525 24.2024 10.8806 1.18796 -0.950744 0.635823
25 49.4682 24.7849 10.1004 0.937971 0.207411 1.04825
3838 50.4926 24.2631 10.1636 -1.13635 0.651624 -1.36873
2013 9.15655 27.7839 9.98398 -1.01069 1.61414 0.585117
3459 44.9029 27.8929 11.0358 -0.800047 -1.14265 -0.318573
1640 45.9582 28.3321 10.36 -0.332606 -1.62248 -0.651856
1100 19.7657 29.4021 10.6319 0.583916 -0.00201859 0.184622
849 2.60197 30.7107 9.94746 -0.507806 -0.205641 -1.25169
2548 12.8785 30.8662 11.2195 2.10943 0.436373 0.532388
3192 20.0703 30.7209 10.1384 0.555488 -0.208302 0.375421
1529 49.2729 29.8706 10.7346 0.0370371 0.149607 2.18
3579 72.938 30.3367 10.9338 0.919928 -0.475876 0.252277
1841 49.8022 31.8371 10.8785 0.0909383 -0.0351322 -0.595941
2295 65.7288 32.0269 10.7112 -0.0561095 -1.02242 1.46172
3892 26.669 34.3593 11.3161 0.863631 1.87634 1.40296
3039 57.7101 34.3552 10.5366 -0.312674 -0.372305 -0.465936
2460 25.4412 36.8208 10.5008 -0.178777 -0.454336 -0.519375
3286 58.8612 36.1163 11.035 -1.24248 1.63597 -0.0212852
3482 58.1303 2.24494 11.49 0.285017 -1.00825 0.052313
2397 5.75124 4.07211 12.4706 -0.205802 0.212028 1.27596
3390 71.4126 4.13802 12.2735 -0.647869 0.337483 -0.658741
4 72.4862 3.76945 11.6338 -0.925534 0.16664 -0.0628738
536 71.1616 7.18277 11.4154 1.31372 -0.703783 -0.951402
2723 18.8696 9.20038 11.9053 0.785851 0.242882 -1.1442
1294 39.2076 8.63848 11.878 -1.02853 -0.183742 -0.582222
2285 58.6079 12.3611 12.5173 -0.399577 -1.25706 -1.52752
2621 21.2975 14.1405 12.7153 -0.980257 -0.669079 0.352025
1083 62.4154 13.4634 12.6248 0.665684 -0.783324 0.0714451
3458 70.3184 13.9784 12.0787 0.646787 -1.93828 -0.385601
1632 68.4719 15.3777 11.4966 -0.953108 -1.62487 -1.85871
1973 2.3216 16.743 11.6099 0.824172 0.19475 1.95955
3946 7.96121 16.666 11.8683 -1.35812 1.03234 -0.0386077
3541 59.094 15.981 11.5357 0.683417 0.799394 -0.263115
1304 11.4669 18.1602 11.741 -0.330916 -0.226565 -0.180006
3 12.275 18.7249 11.9055 1.36436 -0.370729 0.260871
2489 17.4732 18.8473 12.011 1.13511 -0.246916 0.802778
1645 57.6024 19.5983 12.5508 -2.1208 -0.209554 0.0213207
1780 19.5077 19.8507 11.3568 -0.24943 1.02249 -0.674467
3354 24.2833 22.3093 11.4258 -0.254097 -1.87494 0.161171
2188 28.1952 22.2294 11.7395 0.559235 0.153292 0.153004
1599 59.4203 21.5867 12.2448 -0.015478 0.904201 0.570853
380 44.8026 23.8787 12.6302 0.0955048 0.630117 -0.765531
1560 6.73882 24.9674 11.4753 -0.302892 0.649989 2.72419
472 19.7732 24.1009 11.5279 0.836725 -0.653115 -2.27306
713 40.1365 24.1716 12.1027 -0.604677 -0.307531 -0.71375
2085 44.2836 24.7127 12.0529 2.3176 0.400068 -0.447529
2334 49.5679 24.1286 12.6833 1.37166 1.21544 -0.269675
1409 13.2103 26.5887 12.4313 0.675105 -0.447956 1.32091
1533 50.7731 26.6827 12.2867 -0.783009 -1.18743 -0.904302
875 72.6902 26.5247 11.5293 0.0301834 0.39812 0.18591
3479 53.587 27.9994 12.2492 -0.471577 -1.42762 -1.31056
2133 60.4803 28.4865 12.6018 -1.61427 -0.632265 -0.994047
3009 57.8813 30.1192 12.3491 0.259107 0.690314 0.953353
1556 59.2866 29.8327 11.5314 0.746084 -0.736169 1.47819
1480 58.7347 30.782 11.8493 0.387575 0.599309 0.385169
504 67.6354 30.3007 11.9255 -0.25765 -0.845336 1.15166
2824 62.7685 31.5322 11.8994 -0.645051 -0.656845 -0.21131
1312 52.9169 33.3264 12.261 -1.06108 -1.62112 0.469375
676 49.5537 34.0531 12.3098 -0.190296 -0.286549 0.73398
3617 32.8616 36.2047 12.6581 -0.0177524 0.774224 -0.534291
1108 33.9458 2.62786 13.7034 0.189075 -0.309751 -1.74777
569 72.3222 2.60146 13.4346 2.20541 -0.485562 -1.35097
543 62.9591 3.06754 12.7865 -0.618007 -0.180344 0.399803
829 70.3202 4.42904 13.0387 1.12799 2.69314 -0.182838
3673 1.00706 6.07953 13.2409 0.861327 0.337287 0.582144
1651 11.9427 6.91752 12.7812 -0.69357 -1.08326 -1.5865
3791 22.5928 9.32418 12.9044 0.625667 1.16991 -0.0624434
1111 36.4029 10.3 13.5615 -1.83453 -0.18228 -0.702574
1938 62.9969 10.0763 12.9345 0.934184 -0.815496 2.48047
1246 19.9443 12.4478 13.6708 0.601483 1.71108 -0.466456
502 72.4747 12.2659 14.1166 0.858615 -0.634797 0.406952
3156 4.14044 12.8392 14.1691 0.0388892 -0.733216 0.773513
414 7.79324 13.9488 12.9257 -1.25608 -0.029435 -0.658715
2505 35.3227 13.4606 12.802 0.548065 -1.07802 0.189752
2431 2.94725 14.6968 13.8103 0.623436 -1.18358 -1.20886
2636 45.724 15.0146 13.5973 -1.53507 0.221361 0.303089
2036 56.0534 15.681 13.2028 -1.29115 -0.240051 -0.200717
833 29.437 19.7751 13.2747 0.0238521 1.11755 1.62672
3364 26.1507 20.6337 13.54 1.2303 -2.1045 -0.112697
2299 16.696 22.5414 13.4769 -0.0973597 0.201919 0.481626
3721 55.2152 22.2497 13.9126 0.0387618 1.43578 1.24539
458 40.4348 25.2184 13.409 -1.9554 0.468846 -1.03593
1871 66.4435 25.345 12.9773 -0.932656 0.302623 2.15626
3394 0.572618 25.5082 13.7243 1.48986 0.049466 0.302925
256 43.7369 25.6754 13.1726 1.03641 0.517643 1.40283
1955 15.7703 28.3033 13.8831 1.53739 0.362943 -0.803607
2500 37.6185 28.082 14.0618 0.997977 -0.0836608 -1.81676
3386 67.1136 27.3499 14.0133 0.356005 -0.698459 1.13982
3015 5.5504 28.6467 14.0034 0.418612 1.09921 0.448033
3975 8.07905 28.4825 13.427 0.992746 1.57175 1.65854
3893 63.4088 28.6544 13.7193 -0.0608481 0.0247502 -0.464721
3830 38.3043 34.2572 13.5686 -0.722268 -1.29224 0.98402
2220 41.8837 35.3013 12.8731 1.3346 0.143263 -1.02544
1596 70.1423 35.1641 13.1994 0.10724 -0.646041 -0.0913654
479 66.8359 35.6617 13.1023 0.988667 0.121348 -2.12609
3278 69.5276 35.5707 14.0756 -0.69286 -1.4479 -0.726408
2524 6.66326 0.694008 14.5794 -0.392699 0.727014 2.11551
629 61.5383 0.434535 15.0482 -0.489252 -1.46691 0.91389
1702 68.5501 3.69821 15.5471 -0.0199641 0.391704 -1.22852
1158 18.1616 5.38398 14.5781 -0.278974 0.835731 0.112367
696 64.4438 4.90019 14.4328 -0.733652 -0.639725 -2.92711
3018 39.6888 6.3262 15.5494 1.12235 -1.06178 -0.518573
824 62.7096 7.02797 15.1574 0.863938 0.182414 1.60334
1613 3.83845 9.91659 15.077 -1.1205 0.136812 0.151123
2231 49.7955 13.0092 14.6508 1.10333 -0.54382 0.487088
1062 72.1746 13.5321 14.4963 1.53451 0.95022 -0.84596
1508 20.4142 15.1606 15.4753 1.38877 0.738551 -0.771724
3102 3.12485 16.0985 15.5639 -0.398614 -1.87399 0.0879013
2147 47.0832 16.5166 14.3498 0.650498 -0.69486 -3.13693
3350 47.3452 17.2645 15.2746 1.58758 0.319548 0.00451266
89 71.5263 18.2103 14.3611 -0.694014 -0.757685 -1.11396
1330 52.4154 20.7751 14.9538 3.16777 0.351868 -0.84103
545 25.4502 21.3511 14.8068 0.942584 -0.185176 -0.0985662
2998 35.3606 21.4726 14.9117 -1.61365 -1.15831 1.33692
3328 36.6129 22.2379 14.5322 -1.58726 1.06938 -1.26722
3868 54.0786 21.9827 14.6731 -0.830346 0.98636 -0.957104
1980 39.1493 23.3212 14.6945 0.160122 -1.47616 1.0205
275 28.507 24.614 14.9153 0.465393 2.26304 -0.164252
2661 68.984 24.7596 14.925 0.0181902 1.96596 0.993142
1687 69.1267 26.1271 15.0798 0.131471 -0.0689042 0.976527
2868 56.8998 27.7298 14.9865 0.861735 0.834637 -0.28221
1881 57.8911 28.0078 15.1559 0.220676 0.365513 0.829015
3090 41.323 29.6493 15.434 -0.314744 -0.169051 0.118747
1370 55.7843 28.5329 14.1872 0.41996 0.928241 -0.0152559
3529 66.593 28.7062 14.5481 -0.234305 1.10414 -0.118557
3654 68.0049 29.6916 15.3879 -0.499406 -0.761268 1.72111
770 11.4763 30.6289 15.0496 -1.12086 -1.36915 -0.79422
1872 7.85145 31.8879 14.3266 1.17923 -0.86525 -0.709844
3304 44.5202 32.5812 15.1428 -0.582965 -0.445336 -0.0290079
1895 9.18053 33.8477 14.2964 2.04184 -0.00114385 3.46294
3324 32.4404 33.3796 15.0383 -2.29638 -0.733412 0.786445
1452 38.8994 33.6425 15.3438 -0.427692 1.20374 0.0144951
3983 69.0126 34.653 15.0367 0.903097 1.13268 1.68497
2475 67.7492 36.7817 14.2786 0.90759 -1.12107 1.06622
1242 1.14675 2.33604 16.079 0.415122 -1.47214 0.228818
581 64.014 1.93237 15.7533 0.755056 0.882509 0.563529
1703 70.6543 2.49083 16.524 -1.3154 -0.666914 -0.48949
3754 6.77012 3.28167 16.8383 -0.744198 0.502128 0.246302
429 7.76215 3.18276 15.8259 0.87324 1.08926 -0.116024
3486 11.2592 3.25778 15.8863 -0.893971 0.507477 1.37959
2291 32.8456 3.13925 17.0001 1.08252 0.248047 0.711538
1379 50.1195 3.5327 16.8012 1.31515 -1.64534 -0.977744
3663 61.1725 2.89079 15.6938 -0.613251 0.915913 -0.177809
1097 0.644413 6.80673 16.7672 0.576435 0.285658 -0.760186
183 42.1555 7.85351 15.9047 -0.44929 -0.437799 1.20125
1960 53.0581 9.32933 16.3563 0.269243 1.55644 -1.32619
3615 4.15843 11.2215 15.7492 1.48429 -1.69673 -0.20547
637 40.9354 10.2461 16.929 1.06223 -0.188228 0.379297
1860 58.5355 9.99566 16.8347 -0.244394 -2.38511 0.195524
1042 64.4561 10.9047 16.6385 1.78575 2.14954 1.4611
1858 16.7961 11.9668 16.2815 0.536541 1.27754 -1.57987
910 43.5916 11.6257 16.7527 0.896515 0.335302 0.56654
520 34.7511 12.9506 16.4712 -0.565195 -1.00308 -1.4178
2963 4.87281 14.238 16.1195 0.750156 0.0843178 0.369593
2907 20.452 14.8411 16.8339 1.0893 -1.39379 2.37281
3888 21.5418 14.3806 15.7454 0.607602 -1.01797 0.997195
1319 45.9307 15.1801 15.8947 -0.740182 0.522429 1.01982
3097 62.5167 15.0295 15.6864 -1.76753 0.820767 0.84461
666 68.1604 14.9877 16.621 0.773461 0.696738 0.12223
3684 18.271 16.837 16.8802 0.268042 -1.36268 1.40448
482 29.6672 16.8939 16.3407 0.0339643 0.459362 -0.361979
1622 13.0757 20.5186 16.9638 -0.417575 -0.550141 0.294536
2136 32.8996 20.7333 16.3304 -1.56109 -0.320492 0.146327
1137 70.9138 20.1549 16.3446 0.205787 0.674251 -0.233225
2612 42.2478 22.201 15.6935 -0.525436 0.83159 -0.265177
1302 48.5334 21.6052 16.4402 -0.0766802 0.553981 -2.12668
329 17.8554 23.0851 16.7126 -0.0217142 0.396984 1.07722
692 36.6146 23.1695 16.4475 -0.232937 -1.21138 -0.206027
2373 15.9179 26.951 16.0792 0.456964 0.378343 0.386262
2477 18.8525 27.1897 16.4158 -0.995737 -1.20018 0.219297
2398 1.18366 31.3376 16.6215 0.201092 0.126267 2.06826
2705 51.7014 35.1692 16.6284 0.485764 0.158887 0.960478
1584 20.3121 36.2972 16.715 -0.505873 -0.802703 -2.08375
2394 24.7638 36.5901 16.0228 0.195397 1.15496 -0.694137
357 40.9521 36.16 16.8517 -0.333898 -0.0270459 -0.948595
2624 53.5249 1.37298 17.5533 0.290791 -0.83149 -1.98402
3510 53.8672 0.389257 17.7714 1.38159 0.812879 0.752527
1566 8.25707 1.7954 17.4048 0.30039 0.590644 0.712066
844 31.3915 1.62892 17.2092 0.677853 -0.638389 -0.260412
3171 70.7918 4.71378 17.2441 0.3304 -0.768553 1.50989
3531 35.2135 7.27769 17.1868 -0.762163 0.583265 0.547169
3243 22.9364 9.47235 17.8313 -0.479318 -0.162917 0.0939713
3921 53.9353 8.59532 17.4846 -0.554362 -0.00871447 -0.56723
3503 60.3374 9.20217 17.7673 -0.318728 0.0917052 -3.37443
1745 20.9317 10.0275 17.9097 0.299122 1.19737 -0.542583
1408 61.9832 10.4227 18.0042 0.494051 -0.302872 -0.575192
2001 30.7623 12.7497 18.2562 0.105276 0.292358 1.92768
2466 15.2421 15.3282 17.6076 0.377469 -0.66596 1.40196
469 68.4091 14.3739 17.9933 -0.157952 -1.07545 -0.586548
749 18.2115 16.9621 18.1019 -0.266709 0.831851 0.375582
807 32.9921 17.9351 18.229 1.47534 -0.106688 0.808779
774 47.2859 17.4605 17.5479 -2.14501 0.647932 -0.619783
1241 41.3937 19.1429 17.3051 0.818893 -0.155505 0.199494
683 60.9087 19.8083 17.0815 2.37107 -0.103306 0.718056
2906 23.6302 21.2121 18.1139 -0.156902 0.860059 -0.377362
112 43.6956 20.1402 17.1783 -2.61155 0.383466 1.07985
1024 71.2025 21.0776 18.377 -0.449011 0.0269305 0.434962
3188 39.8131 23.7219 17.2736 -1.39069 0.25559 1.78093
2605 68.4005 23.5546 17.8862 -1.7436 1.72366 0.00823786
330 46.2218 24.1202 17.0058 -0.433986 0.802621 0.58868
971 59.3586 24.7851 17.3745 -0.509648 -0.26527 -1.63915
3041 70.3824 24.6295 17.2458 -0.91126 -0.0998656 -0.19928
1164 20.5235 26.0089 17.7164 1.02422 0.0869619 0.60295
2367 69.6271 27.6268 17.4045 0.295483 -0.997093 0.885938
1889 39.5083 29.0079 17.1027 -2.56173 -0.566625 0.984687
3464 49.1134 28.4212 17.7464 -0.341669 -1.45025 -0.650848
2395 51.829 29.1695 17.5716 -0.849893 -0.703526 -0.177583
2025 19.3279 30.6395 17.1785 0.101636 -0.470112 0.455239
743 65.0559 30.3264 17.5919 0.0161936 1.41773 0.486697
2574 34.0712 31.5895 17.3031 0.230602 1.95211 0.0948187
2823 57.8022 32.1421 17.3091 0.840339 1.18751 -0.740891
690 3.95814 33.4428 17.4602 0.538354 0.880376 0.816581
2801 29.4738 33.0854 17.9371 -0.797327 1.53073 2.0204
744 46.3925 34.8525 17.5703 3.57526 0.308593 -0.177844
606 1.40519 35.7975 17.3002 0.447353 0.308049 0.401069
2116 32.2539 36.0288 17.3809 -0.384177 -0.0172657 -0.825524
259 45.5019 35.4798 17.3731 -0.5417 -0.922755 -0.45847
126 4.56912 2.69489 19.5031 -0.664482 -0.0509509 1.03308
2817 13.278 2.70983 19.6154 -1.07788 -0.965629 0.24368
3346 26.2496 3.70378 19.516 -1.86019 -0.15889 -2.21721
3376 30.9397 2.9724 18.551 1.45858 -1.19744 1.2022
3527 64.6148 3.32977 18.842 0.976928 -1.1601 -0.390133
225 10.2372 4.67282 18.7795 -0.27619 1.05822 -0.665276
2634 10.9648 6.09241 19.5637 -0.470899 1.25922 -0.666986
1891 43.8058 8.16182 19.0797 -0.808872 0.202327 -0.0382726
620 47.6314 7.41944 19.1357 0.17112 -0.0790764 -0.0494724
2890 1.14645 8.9614 19.4945 -0.909466 1.3906 0.654243
2652 18.8079 8.64357 19.6541 -1.37646 0.731941 -0.344301
799 27.0818 8.54935 19.7092 1.79429 0.161839 0.97452
531 33.2356 9.71492 18.8597 -0.202068 0.43493 1.12998
3564 6.38955 10.7889 18.8377 -1.3151 -0.814861 0.15155
1477 54.72 11.7701 19.6615 1.05931 -1.82035 -1.05414
1630 31.0184 13.5635 18.9339 -0.43745 0.881718 0.499033
375 33.124 14.1513 19.6756 -0.60563 -0.526681 1.55002
1621 37.2448 14.6648 18.4281 -0.984498 0.889562 -0.502666
2799 29.5212 16.1047 19.1391 2.26851 1.28393 1.05123
2436 11.3697 17.9318 18.5709 -1.22916 0.305504 0.964974
2610 31.1192 17.476 18.9349 1.22017 -1.71523 -0.169804
3152 7.08178 20.5325 18.7796 0.150288 -0.599648 0.293926
3841 5.86242 21.7365 18.701 -0.925397 0.450712 -1.21246
3991 61.0542 22.2675 19.0054 -0.109847 0.208994 -0.181384
2584 14.2112 22.9559 18.5264 -1.17268 -0.114078 -0.657425
2454 31.0618 23.7919 19.1126 -0.627277 0.437615 1.11635
3722 48.6067 24.5446 19.0198 0.684522 0.782562 -0.766711
2120 11.7557 25.6802 18.685 0.193407 0.619161 -0.974429
794 25.0549 26.6193 19.4418 0.47603 -0.146972 -1.28145
752 43.5869 26.0969 19.7205 0.324639 0.313063 -1.63155
3410 64.54 27.8678 19.2139 -0.825865 -0.698612 0.308859
3596 63.0257 29.2643 19.0931 0.885878 -1.30148 -2.71714
467 47.8888 30.3173 19.2963 -1.1781 -0.885831 -0.0321778
583 32.9186 31.5111 18.8152 0.36313 -3.78589 -0.568147
3778 67.2846 33.4356 19.6274 -0.124894 -0.422532 1.20278
187 24.2154 34.9352 18.4616 -0.221587 1.04733 0.484072
234 34.3077 34.093 18.9239 0.99643 -1.83228 1.53384
2413 71.2283 34.5808 19.6656 0.604559 -1.50828 0.752785
3709 11.3472 0.737699 19.9031 -0.861821 -0.235494 -1.19311
926 22.9348 0.0323989 20.9512 -0.849762 1.11612 0.369815
861 63.3939 0.899439 21.0783 -0.254722 1.40721 0.706697
3375 12.0356 1.45429 20.5236 -0.361831 -1.33286 0.158864
3374 52.7068 1.83595 20.2656 1.46157 -0.202169 0.603176
2647 4.86791 3.67697 20.0491 -0.93946 1.46521 1.68466
1787 45.246 5.53801 20.0037 -0.112565 1.24925 0.540699
708 41.7226 6.55146 20.3069 1.13756 -1.0443 0.459455
2803 48.7604 7.03707 20.3752 1.44769 1.41491 0.65325
3051 51.2539 6.29228 20.4552 -0.122182 -1.19752 1.69118