ITEM: TIMESTEP
49000
ITEM: NUMBER OF ATOMS
4000
ITEM: BOX BOUNDS pp pp pp
0.0000000000000000e+00 7.3680629972807722e+01
0.0000000000000000e+00 7.3680629972807722e+01
0.0000000000000000e+00 7.3680629972807722e+01
ITEM: ATOMS id x y z vx vy vz
1859 45.433 0.104766 0.0442773 1.11597 1.56503 -0.35598
2039 53.1865 0.129306 0.902882 -0.220225 -1.30994 1.9879
2917 48.7229 2.81271 0.33093 -0.700869 -1.19445 -0.610423
2767 11.6158 4.26675 0.0308972 -0.00422032 -1.16218 -2.05105
3917 21.9136 4.39015 0.0227673 -1.42129 0.585484 0.564472
989 40.2413 4.96391 0.254425 -1.67048 1.36027 0.749838
2214 19.2602 6.96181 0.518376 0.661055 1.25282 0.794367
1428 13.6157 8.0869 1.10133 -0.169208 0.40493 0.527604
2232 3.00762 9.83911 1.09787 -0.294204 -0.31094 -0.669911
2892 5.15952 9.34104 0.924146 0.948437 -0.218632 -2.04084
1686 10.0057 9.72511 1.41645 -0.222507 1.03973 1.4961
3331 11.5285 10.8753 1.04056 -0.261954 0.102285 -0.0976201
98 64.265 10.7215 0.373087 0.737533 -0.22819 -0.367738
3299 72.3976 11.9397 0.21298 -0.144974 0.443463 0.0746176
2730 58.7854 13.3753 0.111016 0.936113 1.90673 -1.23161
709 40.5275 15.3437 1.37627 -0.232641 0.37751 -0.130213
2160 9.77266 15.6063 1.26055 -0.503549 0.801206 0.544813
1791 24.5734 18.376 1.03986 0.297871 -0.0363273 0.384393
622 37.908 17.3541 0.807537 -0.220589 -0.0654883 -0.627089
3942 46.4816 18.3057 0.797263 1.23789 -1.78414 0.149647
239 55.4548 17.9661 0.0992583 0.615578 -0.704879 1.03849
3184 9.55585 20.4209 0.119298 0.616181 -0.770316 1.24131
288 46.8819 20.3916 1.14897 0.24967 1.11053 1.11945
2523 26.1697 22.0713 1.13246 -0.838568 0.444612 -0.434535
763 4.73143 25.0006 0.692081 -0.0700597 -0.751979 -2.10552
2999 44.6918 24.6358 0.170575 0.571062 0.358451 -0.604979
1557 50.112 26.1473 0.35071 0.327116 0.195346 -0.785294
2123 56.9109 26.198 1.34645 -1.41228 -0.659228 1.13972
2359 1.14257 28.0851 1.26437 0.996971 1.68685 -0.562649
78 30.2809 27.2088 0.824705 0.192194 1.05492 -1.95943
2712 27.7685 29.4886 1.3896 -0.943069 -0.20782 1.27565
261 32.6185 30.9171 1.40927 0.494463 0.300104 -1.65824
3092 11.1702 32.2695 1.30622 0.989644 -0.122748 -0.580575
1286 40.5937 32.5226 1.00266 0.203695 0.299813 0.430181
3770 51.79 32.2988 1.27393 -0.625573 1.15592 0.450027
172 64.1863 33.9145 1.18608 -0.707312 0.772132 0.169616
818 8.0276 35.005 0.486326 0.085114 0.685363 0.720485
2736 70.0927 1.41233 2.74867 -0.355173 0.348307 -0.124786
3087 43.7151 2.53091 1.62407 -1.57972 -0.482066 0.296523
1730 61.4231 1.71203 1.83621 2.00023 -1.16087 -0.275864
542 7.90064 4.16486 2.27134 0.690094 -1.09977 1.12912
1561 9.97708 3.89529 1.71392 -0.553652 0.472178 -1.09321
3969 70.3675 4.81827 2.51298 -0.0593968 -0.45938 0.369795
3415 4.67552 6.78197 2.00274 1.54082 -1.21641 -1.36161
213 21.3005 6.87748 2.16649 -1.66784 -0.169621 1.47352
2480 55.1367 6.44686 2.55295 -1.48293 0.421787 0.200355
1024 19.0027 7.51331 1.88897 -1.37561 0.280517 0.202981
3614 32.492 8.68309 1.83586 -0.143818 -2.13845 2.02651
3366 66.5448 8.85787 1.88461 -1.06211 -0.620453 -0.468557
1988 40.1891 12.2538 2.58984 -2.51768 -1.89804 -0.519616
1346 65.1784 12.6643 1.97743 1.23326 0.141659 -0.770212
3480 70.0851 13.0668 1.87531 -1.7721 -0.45438 -0.87597
1470 42.2905 15.285 1.60935 1.28239 0.0184802 1.2698
1211 48.5578 15.1964 2.43074 -0.463775 1.50231 0.761541
2687 16.1706 15.6935 2.56019 -0.759389 0.776086 2.09099
1802 32.3554 17.4544 2.0562 -0.0561568 0.0102103 0.57844
1236 40.1432 17.1888 2.5771 -1.2193 -0.266276 -0.488752
2539 33.1425 18.4722 1.75288 0.0268706 1.30734 -0.288097
2387 38.5353 18.7603 2.60986 -0.104988 0.778888 0.755687
3022 3.86149 23.8862 2.64438 1.47872 0.643615 -0.754558
2446 9.43746 26.2328 2.65809 0.160144 -0.785945 -0.515588
3592 5.02127 28.0061 1.93989 1.03153 -1.42204 -0.704154
802 56.9041 28.1659 2.18943 -0.353276 1.35383 0.00592193
933 59.6916 27.4855 2.2068 -0.903244 -1.30106 -0.678456
1939 22.3771 30.5339 2.59869 0.909841 0.125168 -0.472534
3987 52.05 30.7049 1.97205 1.04067 0.939702 0.759119
2725 30.4448 32.1851 2.39328 -1.41115 -0.624447 0.666204
1473 20.8404 35.6498 1.81533 -0.190031 1.02055 -1.62915
668 27.8642 35.6326 2.82703 1.78948 -0.0404674 -0.755289
2720 46.0717 35.6738 1.93674 -0.437243 0.0828565 0.227754
797 32.6481 0.745036 3.89631 1.43223 -1.51097 -0.28196
2085 7.31562 2.06337 3.93983 1.8043 1.56335 2.17141
3683 37.2148 2.13396 2.88114 -0.804639 1.197 0.28096
2845 1.31072 3.78477 3.43137 1.09109 0.280972 0.211293
1631 52.3188 5.1064 3.86151 0.0502265 0.554384 0.263332
1176 4.19937 5.87878 3.67941 0.629646 -0.775277 1.29634
3945 5.24885 9.07038 3.11186 -1.30498 0.103795 -1.41659
548 34.2951 9.62548 3.17953 1.10129 0.374511 -1.15688
1928 48.0798 9.67882 3.98314 1.1891 0.755095 0.397454
1105 67.2995 8.72827 3.77546 -0.368073 -0.641206 -0.636742
1801 35.2605 10.3508 3.48296 0.539544 -0.641073 -0.85452
2384 18.0501 12.8166 3.68431 0.231578 -0.301121 0.0464457
619 44.7441 13.103 3.23795 0.0364956 -0.994056 0.540575
2098 58.6748 15.2336 3.22063 -2.06672 0.891947 0.915158
280 36.869 16.4034 4.14998 -1.332 -0.0520147 0.122841
1262 58.0372 16.2507 2.8434 0.687572 -0.80003 1.48323
3704 12.0291 18.7509 3.80015 1.21942 -0.0139579 -0.480217
1525 34.6117 19.1841 4.02291 -0.947126 0.232217 -1.81757
2137 39.2728 18.5085 3.43587 -0.556804 -0.835249 0.254615
3587 69.1779 19.5236 3.54073 -1.11841 0.17574 0.593379
1892 50.2552 19.9324 3.97296 0.279469 0.515065 -0.013856
3426 57.42 24.9218 3.74938 0.404725 -0.346981 0.62885
3811 62.373 24.9684 4.24279 0.938306 0.738726 -0.515832
1990 20.2475 27.8444 3.55103 -1.02019 1.86218 1.06103
3028 13.279 29.4578 3.88365 0.361095 0.644043 -1.17247
2180 24.345 28.8366 3.63244 0.245122 -0.350217 0.164255
2045 58.9578 29.4428 3.91882 -0.138638 -0.586927 -1.46167
1675 63.039 29.156 3.97974 0.416553 1.33377 -0.446323
1138 32.6091 30.6444 3.16215 0.573068 -0.630801 0.965369
1018 34.9524 30.7364 3.93801 -2.07753 -0.05434 -3.0213
2158 24.4607 31.8565 3.47512 1.67191 -0.816239 -0.877289
1642 40.6012 32.7326 3.32594 1.06711 -0.740118 -1.17734
549 33.5441 35.3918 2.95534 0.225645 -0.386797 -1.05227
2888 47.2649 34.9382 4.18994 -0.628804 -0.0594295 2.56832
2697 65.7235 34.8003 3.69343 -0.644357 0.00415342 -0.714821
694 26.4478 1.25721 5.12205 1.46375 -0.652153 0.873468
1920 26.4387 0.133691 5.1444 -1.32464 -1.35816 1.04277
268 27.5731 1.2225 5.60019 0.095207 0.354049 0.399248
1679 16.0894 2.0407 5.23928 1.81992 -0.618728 1.17894
2012 24.6561 4.00971 4.46115 -1.13727 0.437211 -0.946349
20 27.7728 3.70914 4.2603 -1.72314 -2.0209 -0.452994
3129 5.0848 5.58307 4.29385 0.115602 -0.0189491 -0.619376
149 20.3143 6.65186 4.96601 0.721646 -0.266773 -1.11621
2493 16.1618 8.44411 4.85157 0.426878 -0.958641 0.416802
704 0.381766 10.8781 5.19448 -0.120003 -0.10789 1.52161
3247 71.728 10.398 4.76837 -1.60371 -1.92178 -0.101
3082 72.6711 10.9423 4.34488 -0.205552 -0.151332 1.58511
1409 16.9645 13.8349 4.68487 -1.07815 -1.60554 -0.00681113
1973 44.4008 15.5045 5.46434 0.861958 -0.619217 0.184112
3656 70.3069 14.3725 5.21399 0.99374 2.41185 1.51144
3646 12.0296 16.6779 4.92631 0.663944 -1.1751 1.96663
2257 45.3453 17.6309 5.53947 0.527349 0.850878 0.111829
1773 62.3747 17.4309 4.40397 -0.0608455 -1.0157 -0.845173
1458 7.7566 19.5007 5.53433 -0.381629 0.00632982 -0.507318
2282 59.562 20.0434 4.8457 0.757029 -0.553408 -2.98684
3979 11.9504 24.9684 5.35798 0.142501 2.29705 -2.21989
2175 14.7155 25.4783 5.38466 -0.69324 0.154845 1.108
3763 21.3468 24.1361 4.494 -0.90416 0.160193 -0.139575
624 38.0441 27.8037 5.52326 -0.138235 1.17853 0.235181
879 58.9279 27.3378 5.63376 0.742199 0.388032 0.458673
1076 32.1511 28.824 5.61263 1.31737 -0.268118 -0.689789
357 41.8331 28.6614 4.35643 0.515571 -0.933904 0.98063
897 14.7089 32.0879 4.85998 0.410927 0.746018 -1.55773
1898 20.1498 31.5536 5.15952 0.712026 -0.20719 -0.428397
3327 12.6168 33.779 4.47572 -0.0495292 -1.5594 1.63321
2551 24.6145 34.4322 5.03706 1.3912 0.0105211 1.12705
1025 50.4377 1.64029 6.33455 0.0688615 -0.912466 0.791557
739 12.1092 3.65907 6.46676 0.738628 0.409944 0.615896
1088 52.7776 3.53778 6.11951 -0.49918 0.65332 -1.13162
936 36.9199 5.07316 6.24499 -1.0824 2.52716 0.294336
554 47.0244 4.86291 6.1654 1.24444 -1.29726 -1.06033
2118 16.8519 6.53155 6.86963 0.937112 1.35541 -0.647277
1153 27.985 5.83863 5.68981 -0.835981 -0.708368 0.594301
55 54.8369 6.17986 5.84937 -0.122375 -2.42368 -1.07383
702 17.0457 7.66639 6.75227 1.06327 0.602049 -0.65781
130 40.1089 7.41134 5.8616 -0.89052 -0.759108 -1.63943
3113 45.7624 8.03962 6.11173 -0.495304 -0.62632 -2.02307
3212 3.33844 8.7147 6.54828 -1.38245 0.20219 1.28279
2130 47.2658 9.77418 6.54853 0.394923 -0.494175 -0.48047
1630 60.9471 11.0149 6.05093 0.573999 0.517399 -0.274061
1634 69.6379 11.428 6.54349 0.239728 -1.11329 0.829167
1530 73.5184 11.6564 6.06856 0.885034 -0.540667 -0.744142
420 71.8993 15.5106 6.80322 1.51272 -0.598568 -0.425648
2887 3.85179 15.5951 5.99471 -0.272101 -0.892254 -0.301903
2622 28.0601 15.9719 6.2017 0.213649 -1.14005 0.442818
2689 4.5824 17.5539 5.95004 0.556552 -0.130892 -1.27296
3246 38.6521 18.1297 5.74905 0.00379063 1.42353 0.686179
2386 26.3728 18.9208 6.30362 -0.230568 1.09731 -0.676927
785 59.9731 19.5793 6.13845 0.546813 -0.647013 -1.14981
3375 12.0814 20.0111 6.66866 -0.370792 1.16276 -2.6507
3220 67.9387 21.0623 6.00755 -0.784511 -0.858919 1.14805
2524 18.4292 22.2042 6.18706 0.506093 -1.00823 1.12095
205 41.7774 22.4798 6.78407 -0.74571 -1.7461 0.984997
3741 68.4234 21.5059 7.01 1.52256 0.115445 0.156385
1516 7.34984 23.7613 6.83703 -0.940339 -1.97116 -0.0808354
3569 27.6269 23.5264 5.9166 -0.198896 -0.305188 0.655998
3018 64.8883 23.1163 6.78654 1.24927 0.41564 -0.289372
3170 71.1204 23.5982 6.38185 -0.285434 1.11805 0.450574
1932 15.6105 24.8763 6.43565 1.11249 1.47828 -0.388641
1526 45.322 24.1312 6.93461 -0.249657 -0.149702 0.268588
1698 63.7061 29.9021 6.35809 0.405669 0.832596 0.345601
842 73.3455 31.3311 7.06707 -0.745506 -1.62332 0.122877
3119 41.6488 32.6477 6.87291 -0.377535 0.198922 -0.114592
3653 54.0479 33.4141 6.28909 -2.04108 -0.135794 1.41738
103 64.2534 35.0272 6.99821 0.961184 2.40462 1.82364
388 36.7806 35.6749 7.02127 -0.991676 1.06517 -1.51915
3901 58.0102 36.7912 6.40622 -1.09045 -1.35654 -0.114306
2817 55.5344 0.522162 7.88017 0.887027 0.698917 -0.638546
2852 32.2181 2.21838 7.57253 -0.253018 -0.185821 0.517257
3819 63.4621 2.63834 8.00329 2.13352 0.636788 -0.785911
606 30.1935 3.51964 8.22574 0.856965 1.7917 1.12455
1902 21.9149 5.01033 8.4157 -0.323222 0.39467 -1.27271
2764 5.53531 7.01989 8.07355 -2.61694 -0.407441 -0.112255
3241 17.053 5.87405 8.11473 -0.131999 0.844123 1.64431
3304 20.8061 6.40273 8.28439 0.85485 0.641375 1.65144
2379 52.1851 8.10773 7.57069 -1.09595 1.17132 -0.703024
3955 46.5017 9.26962 7.10062 0.767199 -0.666954 -0.390951
224 1.08201 10.7749 7.24756 1.08278 0.372713 -1.34728
3788 63.2246 10.0742 7.53486 0.758172 -0.511783 -0.0860458
3855 0.595349 12.6877 7.95653 2.23983 -1.37969 1.07573
243 7.92904 13.695 8.47416 -0.994966 -0.832843 -0.996781
478 70.7724 12.9775 7.81588 -0.144273 -0.785652 2.40168
36 25.7613 14.6906 8.08084 0.609878 2.50929 0.838239
559 49.7745 15.2621 8.37676 0.463232 2.1005 -0.616597
3124 69.7884 14.7734 7.316 -0.751487 -0.435125 -0.100134
2975 29.4282 15.6393 7.76181 1.51007 1.83419 -0.704195
2051 72.6557 16.9229 7.75673 0.968854 -0.377351 0.966333
3013 22.6648 18.1048 8.09931 -0.467611 -0.863918 2.49241
2691 29.9671 17.2629 8.45451 0.255582 2.22333 0.611316
1840 65.8168 20.3469 8.11348 -1.58646 -0.895867 -0.17067
1260 67.5745 20.7765 7.49909 -0.857293 0.194672 -1.52276
1221 56.5566 22.7446 7.61767 -1.41714 0.0591247 -0.636864
3443 23.8991 26.0411 7.61501 0.711928 0.765857 0.659726
2564 57.6088 26.1646 7.66973 0.74084 0.582615 0.681409
2837 35.3879 28.7365 7.1954 2.05142 -0.387324 -1.34824
3133 66.0835 32.5563 7.87671 -0.777678 1.75281 -1.37031
2835 26.0395 32.6186 7.93965 -0.321462 2.89468 0.416802
1349 45.2677 32.6211 8.40632 1.63649 -1.97521 -0.866661
1015 51.6591 34.2616 7.31123 -0.373321 1.06921 -0.346102
1915 62.7537 35.1737 7.80889 -2.28752 1.06863 0.806378
3025 28.6194 1.4748 9.66373 -1.2381 -1.43916 0.168757
1331 32.5857 1.8175 8.87429 1.32924 0.554456 -2.12131
346 38.6737 2.15173 9.01314 0.773168 -0.560576 2.34141
2574 66.9188 1.79479 9.32917 1.01491 -0.557025 0.8859
2110 35.8543 3.17229 9.79334 1.37355 1.48573 1.57321
2205 56.8903 3.12308 8.78252 0.507715 -1.19494 -1.63504
1132 66.1846 2.84881 9.86364 -1.0042 0.395465 -0.365591
3196 38.9484 4.41677 8.8486 0.754035 0.658651 -0.935409
3621 2.63921 6.39126 9.09662 -0.0714282 0.61589 0.268233
432 49.043 6.63813 9.04298 2.00635 -1.6718 -1.92856
627 28.4303 7.52014 9.48595 -0.491669 -0.00997531 0.5675
1356 10.4652 9.19351 8.72146 0.137274 2.4769 -1.66129
451 29.6473 9.39432 9.46907 -2.36343 1.30774 1.62775
820 26.9517 10.2514 8.96504 0.363594 0.544597 -0.989828
3671 67.831 10.9299 9.42636 -1.51421 -0.163219 -0.958049
3535 9.94648 12.0555 9.14473 -1.38674 -0.580837 -2.74376
3950 64.5402 11.8054 9.72601 0.0282972 -1.22204 0.624865
1945 11.3346 14.9538 9.34542 0.740391 -0.552941 -0.0239284
2674 30.2149 14.4534 9.17616 -1.54312 -1.14636 0.00573996
703 31.3249 14.1837 9.72028 2.28033 -1.17625 -0.340295
379 50.9223 15.4717 8.84786 1.38663 -0.756263 0.469554
1480 68.1294 14.8128 9.00048 1.40629 -0.307476 0.400947
1405 25.4556 16.8952 9.25349 0.369798 -0.252566 -1.20672
2352 59.9508 16.4668 9.4327 1.2687 0.783167 0.148434
1152 37.3411 18.0194 8.69124 -0.90277 0.550251 -0.77316
3389 51.3516 17.8018 8.90425 -0.655551 -0.29339 -0.59956
1187 48.6076 23.5336 9.50654 -0.617186 -0.713033 -1.4905
2575 3.50873 24.2798 9.31743 1.21351 -0.498903 -0.585765
2638 36.724 25.9212 8.59738 0.87372 1.0981 0.680479
2632 1.79267 27.4786 9.3445 0.573433 -0.86038 0.209478
2319 20.7566 28.0786 9.07569 1.26851 2.24272 -0.024328
1376 68.7884 29.1003 9.08312 0.645654 1.07831 -0.86745
2276 45.3765 30.6133 8.50382 0.611392 -1.20662 -0.967695
154 51.8704 29.9139 9.38403 -0.846862 0.0436428 0.759075
206 6.53438 31.8795 9.09487 -0.450948 0.394601 1.12015
3636 46.8882 31.8491 8.75561 0.0449706 0.489918 0.0009431
1986 65.1014 32.2038 8.60459 -0.199544 0.0852893 1.91305
1412 33.0365 34.2199 8.68061 0.470737 -1.74561 -1.45189
560 36.8335 35.6908 9.79924 1.42947 -0.183057 0.260762
1150 12.2655 1.11667 10.9616 1.28579 -0.312919 -0.106796
752 61.1777 0.483692 10.2467 -0.38809 -0.153882 -1.38301
100 34.4093 3.52173 11.0503 1.5581 -0.0593772 -1.08832
3127 22.4084 4.80462 11.0511 0.436315 -1.05034 -0.131995
2478 34.4324 4.62581 10.8734 0.436242 0.532176 1.20525
3906 39.7019 5.03898 11.2198 0.245091 -1.83084 -1.33574
252 61.698 5.17646 10.7785 0.0982328 -0.569764 -0.14515
3151 32.6705 7.56113 10.9237 1.52927 -0.0541567 -0.293452
1408 44.3405 8.28239 10.8131 0.262028 0.265801 -0.250831
1282 72.951 8.45038 10.6764 -1.54121 0.826574 1.35608
3397 27.6465 8.68051 10.9703 0.71189 0.0410653 -0.647403
3029 31.4086 9.5412 10.2985 -0.486319 1.25148 0.575364
3425 42.6488 8.68702 10.0053 -0.223513 -1.123 -2.10565
3737 48.5935 9.36546 10.1619 1.29231 0.408233 0.248924
2628 69.3496 9.81235 11.0914 -1.51609 0.869164 -0.774457
672 1.03294 10.6626 11.0187 0.203077 -1.15262 0.60029
1295 1.66335 11.6614 11.2422 -1.45652 1.58924 -0.827545
3554 62.9984 11.6942 10.623 0.19935 -0.942038 1.08789
124 65.7655 11.4313 10.105 -2.00814 0.708238 0.631483
2361 24.935 13.6398 10.5151 0.0769331 -1.45137 0.107654
441 26.9125 13.6577 10.8664 -1.21725 0.00993856 0.644688
956 11.3722 15.5002 10.5082 -1.43569 -0.664317 -0.182293
1547 35.4505 14.9884 9.931 -0.448941 1.76923 -0.461967
2247 32.3846 16.0022 11.095 -0.350709 0.0332696 0.95063
959 67.5416 17.5197 10.769 2.09027 -1.01716 -1.05379
2334 69.223 18.0599 10.9629 -0.779218 -0.481711 1.19332
2243 17.4225 19.5461 10.9806 -1.84042 -1.33483 -0.285918
3267 20.5797 18.4358 10.4211 -0.436399 0.880242 -2.09471
503 40.0379 19.1533 10.3874 -1.58844 -0.0299383 0.882974
3988 67.17 19.3412 10.5852 1.22821 -0.353759 -0.892277
3524 12.0864 20.7961 10.6481 -2.74028 0.59497 -0.0564682
3647 41.2906 20.6204 11.1938 0.0607863 1.62757 0.244627
1168 73.3296 24.8112 10.2002 -2.00532 0.65818 -1.70811
3260 13.5534 26.4207 11.0558 -1.33873 0.0974713 -2.7416
1934 28.5364 26.3008 10.5052 0.00486728 1.57958 -0.78204
354 45.1602 26.5697 11.1371 -0.613609 -1.28213 1.95886
3604 60.5907 27.2717 10.1613 -0.111196 -0.944466 -0.486104
161 32.36 29.5739 10.0564 -1.05666 0.196522 -0.139369
1466 39.262 29.3094 10.152 0.156608 0.361126 -0.928519
3061 41.3612 29.5411 9.97662 1.62407 1.21981 0.491765
1215 7.65972 30.6351 10.8189 0.181051 0.227006 -2.61947
2081 46.8431 31.6407 10.355 -1.16246 0.859482 0.396127
3222 17.9504 32.7912 10.252 0.966339 -0.7193 -0.195484
75 61.5753 33.987 10.0688 -2.16441 -2.29717 -1.27599
2421 0.396325 36.369 10.6114 0.591811 -0.809655 -0.870124
2042 69.056 35.9351 10.7556 -0.562994 0.975911 -0.628621
839 28.5989 0.635089 12.4602 -0.74408 0.905816 0.785339
1552 41.2637 1.14618 11.356 0.111274 -0.0839814 0.958616
570 49.8834 0.544925 12.2247 0.226252 -0.16072 -0.559474
3463 56.5659 1.03179 11.5256 1.22955 0.35302 -0.0867214
3131 1.6896 2.69908 11.5215 -2.18955 1.79982 1.19539
3432 25.0492 2.30427 12.7175 -0.29438 -0.481294 -0.127548
546 37.6047 1.75981 12.6251 -0.786323 0.000878658 0.866498
22 62.7058 1.69391 12.6736 0.092125 -0.409705 0.92939
196 13.3528 6.89911 11.8225 0.715438 1.78628 0.0495524
409 20.7778 6.74154 12.5701 -0.255671 -1.4999 0.545766
2280 30.9096 5.89709 11.759 -1.94304 0.642916 -1.4217
642 32.2808 6.01395 12.591 2.13833 -0.0486708 1.08972
942 63.6004 11.1717 11.9545 1.46099 -1.47325 -1.36623
487 13.5206 14.0377 12.6765 -0.526328 0.691043 -1.5803
1815 6.39985 14.5312 12.7182 0.0326405 -0.358235 0.261783
1821 27.267 15.8804 12.5281 0.115096 0.640998 -0.538358
150 25.7038 17.1675 11.6762 -2.00462 0.807568 0.206262
2761 27.1455 17.9759 11.4739 -0.609357 -0.945751 0.405048
1738 50.9541 17.6774 12.6797 0.658118 -1.00854 -0.357201
2668 26.62 18.5074 12.2125 -3.18018 -0.146331 0.470812
3444 55.6032 18.5975 12.1997 1.14409 0.797236 -1.53692
283 4.46234 21.0463 12.7024 0.244824 0.711617 1.40902
675 61.3954 19.9328 12.6943 1.02565 1.40038 1.80483
2722 14.6905 21.6876 12.7431 0.520687 1.80653 -2.57367
609 11.3175 25.1978 11.4208 -0.544029 0.803467 0.75835
2611 71.7299 24.1944 11.6779 -0.899211 -0.585566 -0.158292
1424 29.8774 26.8161 12.3508 -0.237029 0.45079 0.135746
289 39.8034 25.5834 11.4488 -0.16577 -1.74967 1.87663
87 45.2946 27.9567 11.3426 1.33073 -0.800994 0.727032
2397 65.2073 26.9955 11.4254 -0.214138 -0.371818 -0.779316
3505 19.633 29.5463 12.4993 0.560812 1.39085 0.947177
3725 31.2436 33.1072 12.0063 1.21606 -0.0767305 0.457666
1118 35.7521 32.6615 11.8781 -0.056046 -1.78454 0.265493
718 57.1721 32.8262 12.3905 0.900797 -0.668178 -0.247618
3052 64.6134 33.3326 12.426 0.832336 1.64823 1.3945
535 69.5374 33.2695 12.2618 -0.652539 0.378991 -0.0852391
381 27.3833 34.9114 11.8918 -0.477711 -2.70034 0.852774
695 28.1645 35.5015 11.6508 -0.98603 -1.15729 0.416929
3699 1.23597 0.128314 13.7246 0.217111 -1.52301 0.0323883
2772 13.4926 0.213097 13.6809 0.860166 1.57839 -0.673474
2609 29.7683 1.03135 13.1812 -0.348418 0.67782 0.391348
1658 34.9228 1.38555 12.7929 -0.615242 0.33453 -0.698101
3510 0.421579 3.67276 13.3644 0.78047 1.13049 -1.05473
1083 54.2533 3.20894 13.8859 0.620826 0.514052 -0.868668
3433 27.5505 5.08554 13.8727 -0.126199 0.0674048 -0.983412
3404 46.9719 6.11091 13.5688 -1.32319 1.03282 -0.0144181
3296 66.7486 6.75808 12.7595 0.44522 -0.129558 0.716954
3152 3.02407 7.10079 13.6309 -0.0528022 1.13237 -1.01205
355 26.2459 9.64171 13.2452 -0.579207 0.362631 -0.596649
1503 57.5385 9.19065 12.9156 -1.03501 0.404149 0.598775
2072 49.411 10.6552 13.4177 0.0341884 -1.01 0.0900553
2412 38.644 11.9494 13.8549 0.659189 -0.560347 1.98964
2211 49.0289 14.4456 13.651 2.02073 -1.60645 -0.53107
2976 27.9627 18.0414 13.5159 0.654942 0.760718 0.213024
3931 23.5868 19.4854 12.9299 2.50064 1.33624 -0.998167
2690 47.8601 19.5919 13.0364 -1.06989 -1.89156 -0.820654
308 5.20122 20.6801 13.4104 1.0554 0.536185 -0.471708
33 28.7793 20.6937 12.7931 -0.0751761 0.204041 0.0729758
3922 29.825 20.4021 13.001 -1.22192 0.464854 -0.354742
3544 38.2175 21.5247 14.0331 1.48856 -1.74416 0.386473
2369 19.7599 23.677 13.8237 -1.05829 1.60259 -0.717795
3533 10.2501 24.4783 13.7831 -0.556467 0.687778 -0.135134
84 8.92766 28.9113 13.952 0.489578 -0.689402 -1.49528
1841 10.5247 29.2104 13.6906 -0.453758 0.961482 -0.0174094
1520 41.6631 29.0199 13.4251 2.40986 0.42807 -0.514176
2244 67.5843 28.8653 13.0945 1.03095 -0.238247 -0.345185
2439 29.7147 32.2457 12.9133 1.2707 0.641884 0.0637576
3259 28.6418 31.5073 13.055 -0.330714 1.7167 -0.515378
1743 48.6769 32.9423 12.8439 0.53538 0.639294 -0.0841023
3666 38.6199 34.2697 13.2805 -1.04786 0.121211 0.614354
3503 3.6048 1.3156 15.2144 -2.88965 1.15133 -1.22016
2466 57.8959 0.163405 14.3416 1.38331 0.607728 -0.641245
3271 43.2615 1.50197 15.5052 3.34184 -0.175333 0.769134
2199 45.3355 1.43034 14.6091 1.03357 -1.41655 -1.13203
2977 54.5949 1.63904 14.6371 0.652328 1.28674 0.474811
484 28.5189 4.32636 14.5128 -9.38886e-05 0.63493 1.58765
3690 23.3559 7.04723 15.2449 -0.60975 0.136484 0.959174
2914 53.7211 5.76928 14.3787 1.07168 -1.55118 -0.325396
2669 43.1307 8.38434 15.21 2.2179 -0.352177 0.472703
3149 53.5067 7.57437 14.7268 1.49906 -0.664142 1.31717
1797 52.6731 7.90057 15.4493 1.05282 -0.557634 2.01744
1897 67.6168 8.22652 14.7856 1.24617 -0.109855 0.0374048
1290 55.0498 9.0245 14.6738 0.0915686 0.862426 0.309368
3122 67.4552 9.13857 14.2003 -1.37989 -0.192768 -0.0581545
3153 13.9134 10.6402 14.9829 -1.5239 1.56869 -1.03193
2106 46.3965 10.7697 15.5776 -0.049512 -2.03084 -1.3902
1085 68.2761 10.9955 15.4893 0.58948 -1.50135 -0.982194
2428 22.9054 11.8701 14.9673 0.154784 -0.229762 -0.533854
1777 28.6309 12.0066 15.1218 -0.848355 0.32638 0.0101879
3721 69.4319 12.0862 15.4838 -0.163937 1.60708 1.2426
3710 35.2122 13.2276 14.2834 0.389803 1.91825 -1.09165
1697 36.5272 13.6688 14.249 0.540054 0.0335036 -1.19212
3120 62.601 13.5973 14.8796 -0.0444049 -0.560838 -1.80454
2588 27.0732 14.9009 15.4254 -1.44081 -1.53253 0.102982
1872 61.3122 15.3068 14.8977 -1.43215 1.23577 0.914304
2067 42.0969 16.452 15.397 -0.576991 -0.367123 -0.354983
3836 1.82316 17.5617 15.4377 -0.145971 0.0964518 0.787689
2798 30.4586 17.1867 15.0861 0.600535 1.0471 -0.612835
3156 5.61967 19.6395 15.4766 1.46531 0.491314 0.53001
3808 5.86473 19.7984 14.3778 -0.579949 0.391345 0.412645
3176 42.7345 19.0478 14.2583 -0.995266 -0.121404 -2.30811
1245 56.0929 19.8063 15.3546 -0.371925 -0.55155 -1.47938
3487 24.7097 20.7969 14.7753 1.17576 -0.0393776 0.0573532
2868 49.4714 21.2009 15.1882 0.962869 0.356026 0.164959
3322 16.6003 21.6304 15.4349 -0.830155 -1.57995 -0.624584
658 21.0543 22.3088 14.7712 1.16387 0.882685 -0.306602
1878 52.2019 22.584 14.536 0.228181 -0.45375 0.242605
2265 20.4461 23.7114 15.2514 -0.994979 -0.748328 0.339776
1427 43.1631 24.0287 15.4921 -0.676028 -0.499358 -0.0374075
2686 6.85342 25.9027 14.7831 -2.19167 0.332278 1.93698
2009 29.4861 26.2274 15.0823 1.19752 -0.561063 -0.174359
3182 71.0996 25.9757 14.3786 -0.00407154 -0.285026 -0.247754
1020 13.5209 27.1723 15.4257 -0.709111 -0.227365 0.838268
2284 28.7695 28.1771 15.3214 0.0696473 0.0572137 1.25619
2918 61.1573 27.8789 15.53 -0.00195488 -0.845468 0.160685
826 9.04169 28.8362 15.3402 0.054235 -1.0627 2.36866
3787 40.528 29.4358 14.5737 -0.626604 0.0879059 1.24899
1544 43.8444 29.2467 15.2497 -0.920041 -0.519475 1.10589
3828 0.735839 31.5538 14.578 -0.543382 0.865334 -2.1625
3542 7.85604 31.8798 15.001 0.819863 -0.399194 -1.28275
930 39.9438 32.9899 15.4182 -0.869285 1.16044 0.347072
2413 42.0746 33.0516 15.1378 0.426159 0.210086 0.0176092
119 64.1451 33.4952 14.8921 -0.792709 0.221073 -0.908834
3316 48.6854 34.0687 15.4903 -0.8537 -0.960637 -1.06316
2516 11.8884 36.3639 14.6377 0.39918 -1.22761 0.0833931
3882 21.2513 35.5134 15.2029 0.73128 -1.52798 1.4265
178 50.469 36.1254 14.9461 1.39791 -1.27777 0.410435
259 70.1645 36.5229 14.1768 0.577427 -0.400329 0.434242
2701 7.38111 1.03156 16.7102 0.978158 0.0517492 0.492305
650 20.4983 1.28 16.1325 1.08881 -0.45271 -1.74313
3121 57.0741 0.00414931 16.0754 0.00579909 0.639839 -0.198791
2684 62.7809 0.886326 16.6281 0.555259 -0.0765897 1.59339
2620 18.7789 5.6227 16.4921 -1.35574 -1.3199 -1.73471
275 20.3647 5.68152 16.4892 -0.04669 -0.79362 0.742831
90 36.8127 7.94015 16.5796 -0.638623 2.28139 0.164546
1691 53.7454 8.16415 15.708 -1.19374 1.6447 1.10958
3143 70.2517 7.5496 15.9094 0.13326 -0.253657 0.929358
128 20.2986 8.84508 16.9185 0.681789 2.20028 0.178064
3785 41.1016 8.97612 15.6112 -0.367708 0.561966 -1.33823
2884 36.3097 10.4221 16.4643 0.193311 -0.531311 0.679286
3402 38.0295 10.0648 16.9883 0.864036 0.875764 -0.696005
1375 69.7415 11.0238 15.7398 1.09821 2.06634 -0.416676
1942 60.7002 11.8975 16.9041 -0.794755 1.81235 0.185928
1104 33.8491 16.3001 15.9487 -0.782232 0.0880507 -1.24751
3885 27.0097 18.6114 16.7289 0.373747 -0.140018 -0.688336
2044 40.6973 19.0618 16.896 0.363537 0.526145 1.07363
3775 41.8757 19.0405 16.6165 -0.0755646 0.372109 2.23718
1639 71.2523 19.5557 16.1228 -0.948904 -0.570133 -0.087172
2393 6.25957 20.9539 16.6607 -0.147551 -0.677919 -0.831769
1574 15.6126 20.9038 16.2047 -0.0672277 -1.54567 1.84293
1852 16.5032 20.175 15.7669 0.634268 0.565344 -0.530997
3812 65.0076 20.2052 16.5633 0.499327 -0.690161 0.0201632
2078 55.7327 22.5739 16.1121 -0.709051 0.504651 -0.97407
3072 27.947 23.6484 16.3571 0.0178618 0.0254132 -0.747389
924 33.4543 25.414 16.5597 -0.214588 -0.838981 0.278973
1388 63.742 25.5119 15.8522 0.269179 1.15067 0.650221
3692 17.5575 28.218 16.0821 0.0746418 0.575053 -0.0514158
2881 45.2215 27.9322 15.6984 -1.47252 -0.00937063 -0.0617196
1518 30.879 28.6939 16.9803 0.380839 -0.522124 -0.205813
2911 53.6069 29.8118 16.4662 -0.50267 -0.338232 -1.8549
2735 70.9148 30.3397 16.8106 0.376007 -1.11848 1.11564
2517 56.1083 31.1925 16.4247 1.11553 0.415277 0.460261
2795 55.3415 32.092 16.7486 0.200704 0.381236 -0.857173
3759 39.1324 33.289 16.2802 -0.737001 -0.719026 0.155508
1960 43.0754 33.712 16.5378 1.04727 0.890219 1.87847
725 61.3367 33.294 16.5599 -0.296099 0.398392 -1.47594
1291 18.4104 34.7507 16.1091 -0.92837 1.36103 -0.975173
1192 29.7827 34.01 16.6513 1.35149 0.906397 0.139242
3508 49.2019 35.5247 16.0078 0.177975 0.243103 -0.155854
2941 66.3179 36.4121 15.7905 -1.43208 -0.923597 -0.476033
2299 68.3561 35.5617 16.5219 2.70082 1.0954 0.297833
486 45.7466 1.14841 17.0881 -0.171262 -0.512978 -1.26668
3563 46.9764 1.32896 18.3575 0.329723 0.0733787 -1.02356
3627 69.9341 1.96566 17.5071 -0.186564 0.35319 -0.661676
413 29.0668 3.94054 18.0601 1.42682 -1.4987 0.903023
3913 1.78117 6.13199 17.9318 1.17604 0.922867 1.36692
1800 54.765 6.23645 17.7229 -1.23582 0.47778 -0.377716
3696 8.69332 9.56001 17.2805 0.676931 1.10179 -0.526606
1169 52.4271 8.54184 18.0149 1.79372 -1.00093 -0.22338
1145 57.5884 9.66052 17.5033 -1.04184 -1.41584 1.88755
1573 33.9595 10.2617 17.3874 -0.530481 -1.17036 0.0273618
3313 7.69069 11.5164 17.4731 -2.95219 0.664766 1.52997
2921 11.0659 12.4492 18.2642 -1.1452 0.171712 -0.745029
2536 14.9055 12.7347 17.1873 0.652128 0.0434188 0.689588
447 38.4989 12.6296 17.1877 -0.340706 -0.832343 0.276926
2766 9.47401 13.1479 18.3938 -1.14448 0.560503 1.31598
1177 37.196 13.3841 18.2268 -0.690442 -0.0990494 -1.13395
1415 41.7505 13.3891 18.1949 -0.146508 -1.01677 0.816006
286 17.8175 14.887 17.9792 1.89524 -2.0042 0.637527
2406 19.2869 14.3527 18.0956 1.42887 0.0946048 0.676105
345 45.827 16.4399 17.0926 -0.180321 -0.510442 -0.776707
626 46.3532 16.3098 18.0777 0.494429 -0.900124 0.924214
1885 12.2055 17.7845 18.2062 -0.785545 0.0436603 -1.13673
3605 45.4547 17.9035 18.0801 0.795601 0.60366 -1.82689
3281 3.23715 21.0273 18.1398 -0.373661 0.49534 1.51931
42 10.6401 20.7319 17.2231 -0.88014 -0.986805 -1.3415
173 25.8373 21.0329 17.6891 0.258845 3.11094 0.20553
3023 16.024 21.7973 17.9345 0.459077 -0.670396 1.18897
341 24.7339 21.2944 17.4153 -0.707041 0.420028 0.627154
2331 27.0287 23.641 17.2806 -2.0865 -0.2406 0.215534
1127 44.0134 23.3378 17.9968 0.395724 1.80562 1.02623
915 56.2971 22.8962 17.8125 -0.177518 0.349532 0.900212
467 18.642 24.6506 17.2384 0.124288 -0.244658 0.908111
446 32.7577 24.8289 17.5697 0.520772 0.391131 0.904603
2222 10.2015 26.5441 17.0624 1.25453 0.0889785 -0.368105
3744 33.7118 26.0082 17.6456 0.80964 -0.196614 -0.320637
1587 28.9518 29.0102 17.9737 0.636083 0.0316752 -0.679165
1844 59.1552 30.9663 17.0751 -0.565571 -1.1559 1.88995
3192 44.809 31.2515 18.2608 -0.544691 -0.367455 -0.576818
1632 5.65273 32.6012 18.0381 0.282024 -1.56482 -0.310821
2348 58.7106 32.7034 18.2602 -0.112241 1.2541 -0.868797
2275 21.5072 34.8889 18.1383 1.85871 0.509895 -2.22779
3094 63.8375 34.2335 17.9855 0.343735 -1.12138 -1.74541
3020 10.5038 35.6929 17.7253 0.239022 -0.0588746 -0.524535
3876 35.0648 36.6122 18.0857 0.305013 0.145291 -1.13301
126 0.316745 0.714007 19.824 1.41662 2.0549 -2.13763
3815 3.4971 2.78699 18.481 -1.02269 0.813564 2.28608
2463 66.3015 1.54918 18.5913 1.29516 0.383426 -0.374688
3664 72.7498 2.13456 19.3846 0.313039 -0.858389 -1.41778
2234 39.3503 3.71428 19.2395 -0.79338 0.975572 -1.12751
3814 37.6624 6.70158 19.0838 -0.113729 0.337411 -0.31831
3468 70.3233 6.93491 19.0055 -0.042357 -2.66943 -2.2049
2010 31.7154 7.54369 19.0721 0.697979 -1.93692 -0.123954
721 9.31621 8.79475 18.7558 0.726526 -2.14698 0.382526
2830 8.67913 12.3006 18.4472 0.293627 0.936592 -0.684555
1431 64.1685 12.3475 19.7412 -0.657924 -0.583961 0.742809
3607 69.0957 13.1016 18.9035 0.338399 -0.24631 -2.05428
3577 61.4396 14.7015 19.5623 1.19728 -1.87468 -0.893861
2302 42.3657 16.8553 18.6575 0.171392 0.553269 0.928054
3190 45.3525 16.4213 19.8301 1.81737 -1.48667 -0.408667
736 40.934 18.1789 18.6197 1.02986 1.41824 -0.483229
1209 61.9899 17.476 19.7521 0.579685 -0.955698 0.221101
1204 17.3551 20.3035 18.5082 0.0799587 0.660732 0.0706783
1703 36.3627 22.4738 18.5101 -1.1959 -0.550383 0.859622
994 39.1908 21.9041 18.7852 -1.46142 0.599836 1.13668
2605 71.872 22.2854 19.3224 1.39695 2.03089 0.619424
211 5.34398 22.8674 18.991 1.56316 -2.04998 -0.0347536