ITEM: TIMESTEP
80000
ITEM: NUMBER OF ATOMS
4000
ITEM: BOX BOUNDS pp pp pp
0.0000000000000000e+00 7.3680629972807722e+01
0.0000000000000000e+00 7.3680629972807722e+01
0.0000000000000000e+00 7.3680629972807722e+01
ITEM: ATOMS id x y z vx vy vz
3240 20.5257 1.02751 1.25938 -0.27244 -1.34965 -0.0905141
2088 26.7217 0.318214 0.519711 1.12339 -1.06343 1.36439
421 29.1916 0.739601 0.96444 0.211703 -0.0193775 -0.444925
3487 33.2977 0.640214 0.141452 -0.954563 -1.17667 0.749966
3623 14.5802 2.38139 0.192733 1.18416 -0.077014 0.617655
2443 34.5205 1.86082 1.24316 -1.37408 0.340709 1.23566
460 27.3515 3.87585 0.172416 0.205039 0.341604 0.195628
1617 61.1438 3.98908 0.823174 0.692129 0.515824 -1.31586
3727 49.6338 4.39865 0.835673 0.516514 -1.01317 0.250062
2112 59.156 5.51696 1.23514 -0.833777 -0.453404 0.139527
3119 64.7704 6.77338 0.288506 0.952715 -0.047492 -0.391103
2076 16.9663 8.3061 1.02595 0.374627 1.81336 0.66458
3603 40.1091 7.36288 0.769893 -0.62975 1.94302 1.33785
2273 2.92893 9.32925 1.20842 -0.57155 -1.01332 -0.436255
46 6.78794 9.3078 1.22602 0.102611 0.360164 -1.352
2964 43.0991 10.3707 0.798837 -0.390948 2.1827 -1.55792
3320 35.0154 11.4201 1.37894 2.26332 0.814579 1.15967
2463 20.0875 12.7944 0.566667 -0.240276 1.33909 -0.797558
3560 17.5006 16.4545 1.07682 1.52842 -1.01435 -0.795828
1855 5.38765 18.2105 0.00531623 0.290818 1.0425 -0.18283
414 32.5075 17.0335 0.955726 0.644297 1.15102 0.208463
2133 13.954 18.7339 0.785133 -1.10897 -0.554289 -0.146472
798 61.3445 19.2567 0.0511803 0.743277 -0.741612 -0.684925
2107 28.7811 20.9109 0.107336 0.329159 -1.26889 -0.320723
2422 39.6274 19.9038 1.06451 0.495177 1.99066 0.00689753
3891 61.8889 20.9993 0.689731 -1.26056 -1.74542 0.44114
1575 66.3638 20.5055 1.18074 -1.48201 0.760292 -0.0313495
3554 69.6985 21.6672 0.266998 -0.91191 0.55487 0.148972
2291 25.8474 24.5742 1.39657 2.33544 1.6459 1.37757
35 3.16704 25.8818 1.03566 -0.388239 1.73217 1.26407
2849 53.4604 26.457 0.592899 -0.804749 0.192458 1.91169
3722 52.9947 25.594 1.31481 0.0364169 -1.24413 1.32416
2595 55.3316 26.0148 0.898585 0.685428 -1.15789 -0.041602
3876 17.6312 28.2995 1.3445 0.713366 0.282566 0.498685
1251 34.8945 28.2895 0.0271111 -0.0318616 0.235305 -0.50571
3207 37.9515 27.7342 0.170605 -0.0285351 -0.0602445 -0.325348
917 54.0482 27.465 1.12853 0.488316 -0.975478 -1.78797
224 0.961158 29.2764 1.00793 -1.16454 -1.59055 -1.09024
2850 38.4241 28.6401 0.952184 -0.646852 1.56589 -0.131998
2709 73.5443 30.7178 0.0966268 2.04588 0.00650224 1.20808
1213 34.2781 33.3185 1.00992 -1.2446 -0.505936 1.91635
6 9.37897 34.6622 1.32709 -0.739069 -0.283062 0.66318
599 4.33687 36.4995 0.59367 1.00842 -0.288495 -0.954861
3040 16.4428 2.39052 1.83166 1.76977 -1.02817 0.41366
1314 69.9435 2.52469 2.53095 1.6637 0.281142 -0.565922
2039 19.0815 3.96316 1.92886 -0.311949 0.162571 -0.172913
2326 25.2046 4.86922 2.26831 0.777816 -0.732271 -0.764177
1361 38.3646 5.50591 2.7386 -0.255338 -0.0929435 -0.701012
2097 5.2852 6.43242 2.58133 1.18246 -0.573295 0.851878
2800 50.8442 9.9418 1.5729 -0.509193 -0.861748 1.11975
1455 24.0702 11.7847 2.21768 2.95458 -2.33175 -0.777454
425 28.9411 12.528 2.49763 -0.0623821 0.5743 -0.504667
135 35.5689 12.0542 2.37792 0.192464 -0.65487 -0.73992
1868 55.8431 12.0123 2.00934 1.25446 -1.91914 -0.269777
3884 8.74757 13.688 2.04427 -0.312429 0.151786 0.0713067
894 51.1289 13.3274 2.73071 -0.22918 -1.01121 -1.04954
655 52.6963 14.1292 1.89741 0.321511 0.160894 -0.0858825
2119 73.3462 13.5714 2.74778 0.778797 0.0819826 -0.325845
3943 12.3162 16.2962 2.11899 0.470478 -0.340072 -0.914255
1156 35.715 16.9312 2.81672 -1.65984 1.36906 0.193826
2199 57.5641 18.186 2.77433 0.861561 0.634241 -2.05761
3276 24.5962 18.715 1.92511 0.101696 -0.35512 -0.339595
2213 31.7749 19.2081 2.24213 -0.268776 0.817334 -0.950189
1432 65.9061 19.2232 2.7501 -1.46242 -0.925157 -0.448292
2512 68.2478 19.0637 1.46245 0.583125 -0.326455 -0.19581
1482 65.633 20.3364 2.34295 1.86821 -0.380673 1.35316
3228 26.9024 21.6102 1.68667 2.0691 0.66929 -0.708019
3855 30.6375 21.7105 2.34468 0.487783 -0.914228 0.236305
120 55.555 22.5785 1.80821 -0.0465042 1.37825 -0.704369
2485 72.6126 21.8897 2.36526 1.51241 0.632407 0.435915
3192 54.3926 22.8774 2.52376 0.476943 0.925096 -0.130686
2613 29.293 26.263 2.81026 -1.21782 -0.17322 -2.3268
3868 52.5206 26.7226 2.59243 0.0951192 0.156905 0.206024
2853 17.953 26.9456 2.32801 0.936167 0.929067 -0.386123
3013 27.9144 28.457 1.96221 1.34004 0.0810987 1.02738
2670 46.6113 29.699 2.04748 -0.860545 0.00561896 -1.34286
3681 32.0522 34.0004 1.87866 0.735605 -0.320565 0.678816
568 23.4223 35.2126 2.68125 -0.00629694 -1.40727 -0.343374
3548 19.8994 36.0089 2.39745 -0.269179 1.58255 -0.6653
3419 65.3887 36.2364 2.15783 -1.00665 0.509334 -2.71124
3503 16.3397 0.869139 3.69878 -0.768014 -0.295712 -0.197394
2519 65.253 0.757018 4.23734 -0.2057 1.04249 0.584771
1301 21.4454 1.71021 2.88983 0.179084 0.467277 -0.732981
1600 23.2463 1.64369 4.15313 -1.19565 1.16727 -0.871245
1376 66.9719 2.54941 4.11672 0.282213 -1.1537 0.0463705
777 7.59073 3.88126 2.85118 0.0469056 -0.0241339 0.63256
1857 9.69403 4.02884 3.1708 1.00346 -0.384134 -0.416853
947 9.70349 5.04861 3.26127 -0.484936 0.0700916 -0.153662
958 10.8885 6.59444 3.70737 -0.86957 1.12635 -0.7372
196 66.0198 7.31511 3.28885 -1.81169 -0.623638 0.797983
1326 24.127 9.83171 3.03164 -1.47123 0.1984 -0.37921
2167 42.9178 8.89006 3.38677 -0.0226714 -0.21073 -1.72053
1670 65.2099 9.02346 3.33398 0.408165 -0.341235 -0.0128954
2483 4.87669 10.8339 3.04871 -0.648735 -0.295476 0.11214
3787 41.8372 11.4385 3.7306 -0.813784 -0.154723 -0.253039
2812 47.6154 11.8223 3.97559 0.989989 0.179381 0.650429
3130 51.0705 13.4672 4.03705 0.580176 -2.33552 -0.303733
861 29.4514 14.6777 4.01381 -0.914367 1.1358 -0.221964
2029 64.3932 14.3105 3.6905 -0.825493 0.330138 0.407622
2396 42.4829 16.8451 3.32254 -0.69311 -0.831226 -0.774589
2930 56.0842 17.4412 3.53662 -1.01949 1.02506 0.777531
538 53.6867 19.5736 3.36047 0.0887134 0.808977 0.518924
1706 57.3004 18.7334 4.06904 0.65525 -1.21376 -1.09186
445 46.5592 21.0308 3.77374 0.180401 -0.632381 -0.816213
2665 51.9952 21.8741 3.05637 -1.25959 1.32872 -0.636822
1769 15.1623 23.5143 3.12773 0.135894 -0.301272 -0.749337
1414 4.96877 25.4808 3.69796 0.303357 0.620893 0.487678
2369 57.4141 25.2913 3.57585 -0.0370602 -0.225179 3.44189
3803 69.5389 24.8936 3.74104 -1.91872 -0.917173 -0.455408
2828 51.7441 26.6405 3.68376 -0.160794 0.182492 0.76678
1991 66.5694 26.7379 3.77006 0.937764 0.871731 0.112686
504 27.993 27.2763 3.34716 0.14502 -0.322853 -0.163559
164 32.5342 28.1221 3.73382 1.71594 0.335856 1.66595
384 67.7859 29.1962 4.23552 1.46642 -0.137676 0.183653
1169 25.6238 30.2209 3.01286 1.05388 0.259633 -0.547614
2357 31.9564 30.4337 3.80274 1.02437 -0.200267 -0.725522
3174 58.9593 31.1562 3.23202 2.02074 -0.0903896 -0.266062
3 14.1069 32.2536 3.92634 1.48156 1.4227 -0.174543
3435 15.167 31.5727 3.31357 -0.628838 1.95907 0.184547
3606 19.1077 33.6157 3.49622 -0.117308 1.31967 -0.61882
2785 50.4922 32.868 3.29137 -1.76989 0.756879 -0.365719
2864 36.8691 34.3429 2.93793 0.716952 1.81717 1.90875
1816 49.9915 34.1634 3.38875 -0.74041 -0.312815 -1.01862
3639 47.0444 35.4559 4.0819 -0.145526 -0.696856 -1.75162
1104 18.8649 2.00588 4.83719 -1.2064 -0.174835 1.45285
1546 24.7183 2.76876 5.46619 0.223245 1.81791 0.358288
1499 63.1908 1.6773 4.62819 -0.807976 0.980191 0.416844
325 19.4351 3.35307 4.5984 1.43912 0.560164 0.080725
3100 11.4471 5.54904 4.78012 -1.44221 1.52778 -1.00636
3137 6.46634 6.70242 5.04689 -1.08676 2.34165 0.702532
103 44.8556 7.95897 4.67108 0.156683 -0.189424 -0.831126
455 61.681 7.58762 4.89239 0.179999 0.804483 0.0457822
871 16.3112 9.81054 5.53705 -0.444083 -0.795595 2.01975
2834 43.5785 8.79244 5.47937 -0.232063 0.0194975 -1.05527
1764 30.3564 10.886 4.61721 -0.662945 -0.812605 1.47239
341 34.4198 10.0798 4.74108 1.03506 -1.53649 2.28735
287 70.9784 12.9438 5.55395 0.198007 -0.45635 -2.49219
2182 60.9582 14.279 4.70873 2.03539 -0.5414 -0.690587
3677 30.9244 15.892 5.52663 -0.176368 0.144439 -1.63512
3026 33.5491 15.7934 5.11627 0.0348328 -0.713058 -0.376777
11 28.6195 17.0156 5.07435 -0.880632 1.25357 0.998359
2016 53.1987 18.1251 4.41919 1.34744 -0.452171 0.225829
2827 24.0107 18.8229 4.3929 1.679 0.488411 -0.107194
2375 32.1867 18.8911 4.51336 1.17837 -0.158197 -0.529962
3886 71.002 20.7721 5.23626 0.0399621 -0.843993 0.186439
3227 39.5801 26.1959 4.47875 0.0200753 0.62338 -0.232358
1980 73.272 26.5835 5.64985 -0.650055 -0.189394 -2.59337
1373 31.4761 28.624 4.91336 0.569891 0.0524042 1.28102
1520 1.10098 30.4125 4.49696 -0.557964 -1.56687 0.62601
110 7.36841 30.68 5.48887 1.78576 1.91704 0.330421
1858 42.0767 30.4683 5.54393 0.966792 0.527923 0.0567786
1594 66.8929 30.8186 5.44829 0.00741652 0.783452 1.4675
3851 28.2239 31.4041 5.66223 -1.28287 -0.0526953 0.580362
381 58.5226 31.9384 5.22729 -0.38895 -0.82589 1.07485
3178 70.2068 31.3209 4.93178 0.231851 -0.496439 -0.892877
549 71.6602 32.4845 4.74034 -0.193235 1.08476 0.33811
1165 73.5013 31.5381 4.98605 -1.04999 -0.797706 -0.673448
467 72.4823 31.8908 5.21038 -0.855298 1.7043 -0.17987
533 0.972571 33.6955 4.92147 1.03959 -0.0961681 -1.85467
1254 26.7309 33.7962 4.3078 1.73183 0.415536 0.276463
228 0.833603 34.9593 4.75958 -1.36696 -0.8728 0.720065
3650 49.5552 34.8353 4.70703 0.248063 -0.311616 1.18782
717 19.8996 35.6951 5.22241 1.50743 0.549719 1.09521
3168 44.3295 36.1024 5.06374 -0.390042 -0.233926 -0.0440321
2732 47.9849 36.7059 4.5617 -0.197711 -1.69837 -0.120068
2560 49.0275 36.3629 4.96736 -0.879961 0.679502 -1.41282
1709 19.9374 0.777979 6.70273 -2.65085 0.874309 1.05508
3432 41.198 0.272589 6.32935 0.0959178 -0.981105 -0.253158
3384 20.5056 2.05643 7.06749 -0.243938 -0.951933 1.15744
294 28.8714 1.59922 7.07304 -0.842663 0.919811 1.23601
2224 50.1722 2.41325 6.49926 -0.663939 -1.31119 -0.203908
3611 59.2587 5.64526 5.70255 0.121863 -0.0379303 -0.936601
250 64.4668 5.28293 6.72865 0.0831828 0.679402 -0.463634
3908 10.9486 7.67098 6.19069 1.32306 -0.858588 -2.05508
199 28.6909 8.17222 6.33432 0.176611 0.805514 -1.1077
1125 48.1288 8.21048 6.63687 0.36445 0.0469005 0.840673
3498 64.5946 7.30724 6.87026 0.400665 -0.522098 -1.30998
1971 68.411 14.2838 6.94367 -0.847984 1.81374 -0.109914
296 10.92 16.858 6.374 0.292039 0.0673173 0.621838
2054 23.1229 16.4118 5.73926 -0.554672 -1.15962 2.42598
2900 43.9893 18.3564 6.11645 -0.0778741 0.175732 -0.681958
1203 4.79441 19.6264 6.98091 -0.537252 -1.16825 -0.945157
1193 60.6548 20.6897 6.68825 0.684612 1.82393 -0.344495
64 41.214 22.2525 5.82472 0.0548598 1.76582 -1.52592
2052 54.0776 22.5909 6.25785 -0.249825 -1.55645 -0.450652
31 52.1649 26.5886 5.94561 0.242561 -0.349182 -0.691036
3613 59.4868 26.2028 6.6771 -0.256859 -0.742022 0.0185238
320 61.0523 26.1695 5.91731 -0.534225 0.268322 2.50834
2635 45.266 27.8889 6.69812 0.688559 -1.25139 1.84411
44 57.652 27.5136 6.68622 0.0274166 0.275141 1.00664
1505 32.0597 29.358 5.81047 0.0121164 1.08563 -0.159955
270 4.32032 30.0767 6.54975 -0.204569 -0.562332 -0.351444
3376 53.9501 29.9257 6.55184 -0.146668 -0.547448 -0.199291
2149 66.9697 30.6267 6.93007 1.07097 -1.32143 1.13194
3333 22.3826 31.3175 6.0173 -0.67944 0.286264 -0.229975
265 71.0023 31.8702 5.73028 -0.885745 1.9 0.226538
3415 5.05262 33.6019 6.5871 0.433198 -0.932658 -0.0785042
1518 34.7569 33.2953 5.79585 1.42112 -2.00361 -0.553418
730 58.1079 35.2474 5.69555 2.1902 0.914014 -0.0990792
610 71.584 34.7802 6.74964 0.80632 1.68375 -1.28541
2498 47.4723 0.0896561 7.30813 -0.695872 -1.23408 -0.9727
2337 54.5093 1.62296 8.25445 -0.345055 -2.24336 -0.825191
3646 48.7893 3.89716 7.8675 -0.566995 -0.636432 1.67407
2033 59.0704 3.40029 7.73364 -0.600142 -0.0943069 -1.16207
3561 69.398 4.19434 8.05477 -0.00902237 -0.248708 1.01052
1552 56.0818 4.48375 8.36512 1.30834 1.15919 -0.517953
2151 14.4704 6.82161 8.02218 -0.671635 0.340691 1.26054
1999 28.7747 7.64267 8.19803 1.11013 -0.200987 -1.74288
3731 43.8342 7.82085 8.1074 -0.498685 -0.230448 0.675463
3278 5.82089 9.44606 8.41354 -0.0793501 1.67917 -0.99113
3365 14.6115 10.3932 7.11553 0.168593 -0.396941 0.730863
2945 45.8302 10.557 8.25753 0.142708 0.857587 2.81154
3260 57.0398 12.1144 8.17376 1.13039 0.100462 0.890784
2330 70.3629 12.6791 7.95578 -0.99498 0.246283 0.776261
2004 65.5727 13.3393 7.45273 0.836054 -1.61515 0.221408
78 38.5006 15.5505 8.4203 -0.402857 0.201056 -0.231159
355 66.552 14.217 7.16529 -0.766272 1.93824 1.1664
188 73.2994 14.1847 7.77296 2.37354 -0.753353 -0.864184
1022 17.0706 15.8904 8.27257 0.482516 -0.40389 -2.96603
1382 38.6283 16.6321 8.39003 0.782466 1.1429 -0.0424255
1368 4.11633 17.7113 7.7664 0.336806 -0.937814 -0.27096
3475 7.03872 17.4873 7.4911 0.549453 0.33315 0.911518
486 24.9028 18.2606 7.98399 -0.696362 0.313083 0.573093
3911 27.666 17.1015 7.71242 -0.823775 -0.0831291 -0.692574
2644 44.8802 17.5656 7.12287 0.310687 1.23907 -1.65545
2431 52.0159 17.0955 8.04278 0.285965 1.70783 -1.21194
1740 14.804 18.9111 7.15643 0.806477 -0.0437446 -0.260833
2208 48.3991 19.4938 7.55507 0.896114 -0.264074 -0.736943
2738 67.1345 20.9383 7.25664 -0.393448 0.84366 0.929064
1876 15.9962 21.4733 7.16381 -1.23782 -0.593424 -0.352492
2363 17.9016 22.5079 7.90013 -0.848784 0.00410397 -1.85399
587 25.2173 21.9885 7.52008 -2.03795 -0.915466 -1.82622
1408 40.8322 22.1825 7.54559 -0.267201 0.0116945 -0.880226
111 3.80614 24.0041 7.16639 -1.35852 -0.697606 -0.38957
3148 32.7557 23.2727 8.07254 -0.44156 -0.567092 -1.12237
571 38.427 23.5712 7.10278 -1.31737 -1.66115 -1.23935
3942 61.2602 23.9415 8.02461 -0.310701 1.28665 -1.96573
2043 12.5203 24.8985 7.8703 -1.27201 0.700548 0.548554
3173 32.8185 24.1942 7.63194 2.07117 1.04953 0.754397
788 25.1534 26.7092 7.58824 0.722163 0.0827228 0.282677
3032 25.3667 27.8716 7.615 0.263448 0.704496 0.22895
2639 17.3416 30.555 7.92627 -1.74156 -0.802981 -0.883515
974 59.2791 32.1489 8.40361 0.905289 1.87388 0.817922
466 10.9103 33.8276 7.77867 -0.0415543 -0.461754 -1.35941
1790 46.135 33.0729 7.56091 -0.211495 0.198229 -1.21274
1248 12.542 0.709966 9.65083 -0.0131782 0.4172 -0.0170428
1485 66.5501 1.9953 9.84037 -0.377941 0.379235 -0.23576
240 35.3994 3.57213 8.61548 0.78558 -0.262585 0.552065
2193 23.692 5.17949 9.81432 -1.47823 0.312973 1.11862
2153 62.8593 5.06385 8.79334 -0.631374 -0.307309 0.266088
279 15.329 5.71223 8.54641 0.463679 -0.212377 1.43672
80 57.9269 6.18776 9.16595 1.12827 0.31999 1.29723
1763 71.2792 6.74727 9.40723 0.976213 2.34692 0.225182
1556 26.0907 9.12236 8.59252 2.19124 -0.912593 -0.47479
1900 52.7494 9.31641 8.65841 0.127346 0.406616 0.649325
2791 38.3645 10.0959 8.62365 -1.89353 1.17467 -0.572234
643 46.541 9.98843 8.81735 -0.420988 0.978334 -0.0507927
3321 20.8494 11.5915 9.6794 -0.446883 -0.862824 0.576012
470 23.6416 13.3035 8.61181 1.65752 -0.586905 -0.649934
3468 28.4521 13.2713 8.69734 -0.0573753 1.11508 -1.38213
3654 40.1355 13.7389 9.76776 1.14912 -0.271103 -0.775176
2596 48.0972 13.3576 9.29942 0.576486 -0.627507 2.06652
2890 25.5381 14.7697 8.54926 -0.776928 0.710199 -0.642962
267 36.8679 14.2431 8.81213 1.75143 0.65718 0.284199
388 56.3458 14.6187 8.84982 -0.303466 1.37394 -0.169959
1598 30.4539 16.4731 8.62724 -0.951842 -1.3489 -0.310859
983 54.2129 17.3653 8.64414 -2.07549 0.841461 2.34576
680 63.2172 23.7896 9.81774 0.540558 -0.514992 -1.40271
3893 18.9898 24.2926 9.11015 0.62545 -1.19986 0.733004
2716 29.0326 25.3231 9.76834 0.98054 -0.129144 -2.62891
507 15.2156 28.1593 8.6452 -1.55608 -0.179138 -0.235992
1643 25.5604 26.9716 9.23921 -0.196929 -1.56992 0.0457666
1585 2.39223 31.408 9.53027 -0.206773 -1.09162 -0.738195
2270 50.7926 31.9733 8.5117 1.7564 1.64619 -1.5138
2730 5.53893 32.8771 9.46305 -1.19291 -0.38588 0.761718
3034 41.3881 33.6016 9.89487 0.978555 -1.60467 0.0179736
2889 4.82145 36.3641 8.79887 1.0755 -0.260653 0.825727
3991 48.4743 36.78 8.64683 0.156874 -2.13763 1.02524
3388 18.1558 1.26772 11.1101 -0.8925 0.208009 0.121154
3707 21.2747 1.0209 10.963 -0.77055 -0.489477 1.27252
696 32.569 2.1699 10.5962 0.225983 -0.854468 -3.41017
40 41.6639 2.02212 10.3898 -1.2389 1.23376 -1.09025
1460 56.5652 2.71117 10.9316 0.548642 0.0982524 0.32955
57 17.3652 3.8819 10.3852 0.271716 0.538269 0.56329
1425 11.412 4.51435 10.2724 0.900634 0.869724 0.0943968
598 46.2343 4.31804 10.5183 0.336714 -1.53073 -0.330406
1383 27.1702 6.52938 10.8513 0.259283 -0.0119305 2.41469
2824 44.5699 5.80827 10.9317 0.731474 -1.84612 1.14785
500 17.6953 7.36404 11.2825 0.495948 0.566272 -0.0560746
1824 18.2503 11.1852 10.2651 1.14762 -0.702549 -2.16358
2736 18.917 11.6333 10.8395 1.63023 0.956453 1.5754
2117 32.7328 11.539 10.1778 -0.292319 -0.775292 0.858149
2509 63.7058 13.6431 11.3193 0.77554 0.430941 0.687186
1698 24.6762 15.8224 10.8305 -0.0567829 -0.15296 0.954177
857 26.7039 17.1786 9.97257 -0.28784 -1.29559 -0.285756
1179 35.0919 17.554 10.0017 1.75608 -0.501707 0.0601822
448 68.9797 18.0736 11.1691 -1.62672 -2.40127 -0.361799
3996 71.1089 17.0102 10.0845 0.508009 0.535521 1.14516
2795 66.9487 20.9161 10.8179 0.0720219 -1.40389 -0.790128
439 17.5511 21.903 10.4563 -1.15223 0.321788 -0.448568
3402 66.741 22.6193 10.9082 1.17013 0.508142 -0.184886
2062 1.01936 23.662 11.0421 -0.963329 0.75606 0.210501
1874 21.3007 23.254 10.3106 -0.0375313 0.0786206 -0.487563
198 43.9988 24.3064 11.1444 0.256716 0.104009 -0.637113
3915 5.05268 26.7189 11.2661 -0.063412 -1.3103 -0.827909
557 9.48075 25.5932 10.3912 0.0300393 -0.0186276 0.668084
282 60.7251 26.524 10.5272 0.686343 -1.34804 -0.393219
210 5.32707 27.1977 10.3149 0.00586014 0.184832 -1.11803
3964 53.8385 29.3959 10.4566 0.347647 0.531776 -0.649068
147 58.0244 29.7224 10.2218 0.402725 0.0209242 -0.0133454
908 2.89127 30.4172 10.4335 -0.568874 -0.289897 1.12722
2533 55.6087 31.1602 11.0216 -0.648378 2.16512 -0.835322
3235 62.307 29.8574 11.1639 0.0846342 0.596022 0.313161
1535 26.7216 32.5666 10.185 -0.458749 0.127074 -1.23632
1661 72.8577 32.5012 10.359 0.062889 0.856894 -0.763392
409 40.9159 33.2038 11.2943 0.363773 0.0847677 -1.59137
1116 49.0165 33.9884 10.8938 -0.123582 1.12654 -1.83896
2155 52.2852 32.7388 10.4379 -0.51979 0.69023 -1.42187
2327 52.8809 33.9404 10.8893 0.570372 -0.08818 -1.55652
263 59.7065 2.22447 12.192 -0.915851 0.908813 -0.72068
3919 72.2676 2.5883 12.3502 -0.535423 1.58743 0.602513
1506 33.3987 2.9356 11.5991 -0.194047 -0.405332 0.658292
506 64.2288 3.67044 11.6419 0.30653 0.142243 -1.08211
1159 20.096 4.69891 11.4828 -0.571748 -0.538438 -0.396861
1528 37.9839 5.47859 12.6997 -0.321114 0.555262 -1.0662
2927 49.0864 4.55952 11.8249 0.323048 0.412342 -0.338505
2531 46.5718 6.3346 12.4267 -0.516806 0.607934 -1.97314
2017 4.20315 8.64246 12.7109 1.12495 -0.902564 0.969624
510 29.6922 9.38588 12.1767 -0.0105176 -0.50308 0.530309
1751 38.8598 9.85941 11.5112 -0.357946 0.0641061 -0.454288
1162 16.2487 10.8889 11.6545 1.05252 -0.360206 0.53511
473 37.7739 10.1214 12.3402 -0.167217 -0.0389756 0.0890232
107 69.9445 13.3113 11.4732 0.833847 0.96379 1.01396
1843 22.1952 15.271 12.2094 1.09329 0.892634 0.730038
882 53.5657 16.0072 12.2919 0.331725 -0.85936 1.09154
3877 43.7352 18.1086 12.2883 -1.62676 -1.1584 -0.824189
74 46.2314 17.44 12.3657 1.9621 1.35476 -0.274187
373 11.5691 19.3588 12.6765 -1.78821 -1.85008 1.01174
1561 13.676 19.8267 12.5579 0.242108 -2.18651 -0.00403842
41 27.9979 19.9822 11.9361 -0.140523 0.916169 0.476838
891 23.6925 21.9244 12.3804 2.0063 1.08854 0.462317
2971 56.943 21.6172 12.1753 0.0190314 -1.12675 -0.8771
731 11.0385 23.0238 11.9314 -1.05889 0.574785 -0.197545
502 59.5221 28.2227 11.3859 -0.620085 -0.448629 0.462157
1353 61.1995 27.6238 12.5067 -1.59024 0.519651 0.29959
374 64.16 28.979 12.3344 -0.0983272 -0.629524 -2.13717
3493 5.25246 29.8047 12.3244 1.00845 1.38043 1.39868
3050 9.16464 29.8947 12.5694 -0.708339 1.2564 1.07712
3092 9.03874 31.807 12.4059 -0.667067 -1.00578 0.501394
1666 70.8575 35.829 11.7349 -1.23927 -0.679021 0.755528
1394 53.1446 1.06934 13.5374 -0.706132 -1.7625 -0.134844
1091 6.30139 4.9622 14.0293 -0.199313 1.48202 -0.432625
3840 7.39317 5.18981 13.4997 -0.295796 -1.66193 -1.45294
1780 20.9429 4.78144 13.1723 -0.116185 0.716734 -0.743898
3054 6.13648 6.39896 13.1084 0.963328 1.46368 -0.837767
579 26.8987 8.46758 13.451 -0.583615 1.14208 -0.469373
1199 55.5266 9.00582 13.8463 -0.661165 -0.713196 0.215373
419 61.5922 9.22994 13.3633 0.86354 -1.94719 0.392173
816 67.6766 9.4342 13.7865 0.101212 0.300234 0.606371
2380 32.0019 11.0099 12.8665 0.348053 1.332 0.798385
2655 7.89924 12.0184 13.544 -0.715179 1.03874 -0.344948
2216 9.65233 12.3938 13.4196 -1.08594 -0.975173 -0.366853
3353 41.1175 12.339 13.2067 -0.493545 1.11298 -1.33872
1888 53.1818 12.5539 14.0607 -1.12532 0.43962 0.386893
1201 72.5568 13.608 13.8809 1.54119 -2.42342 -1.24504
2935 63.3553 15.7696 13.7909 1.67447 1.07971 0.691943
1564 17.6037 19.1085 12.7978 -0.605167 0.544001 0.0777824
1730 19.1493 19.4458 14.0278 -1.82348 0.294077 -0.558547
239 23.95 18.9605 13.5964 0.366155 -0.051555 3.21581
1069 44.1242 19.0122 12.929 0.391667 -0.63578 -0.107938
1295 21.1878 21.1121 13.8125 -0.263855 -0.476995 -0.358435
1713 42.4368 21.1791 13.8284 -1.68374 0.279203 -1.27696
3945 68.1647 20.4514 12.949 -0.525602 1.97576 -0.745796
3413 22.7018 21.5405 13.6783 0.655305 0.149822 -1.03216
3684 61.3702 23.6255 13.1232 0.707568 -0.563673 -0.616933
3512 25.0627 24.8109 12.9144 -1.68506 1.50383 0.737254
1195 71.5043 24.7701 13.465 -0.729066 1.04136 -0.0319551
3564 10.3887 26.4118 12.8986 2.86361 0.313919 0.694499
1650 17.276 25.763 13.4932 -1.75937 -0.557753 0.685906
2491 24.4888 25.6044 13.6581 0.879888 -0.732779 -0.802503
391 67.2822 26.6677 13.8114 -0.481348 -1.39058 1.31656
1163 0.796762 27.9261 12.9106 0.480594 1.78413 0.804476
1948 3.51378 27.9151 13.6158 -0.890909 -0.567501 0.263747
2411 42.6164 27.7267 13.4373 1.39307 0.330611 0.909675
911 43.3719 26.9861 13.6933 0.224413 0.724135 -0.985776
2535 61.3845 27.8721 13.9251 0.190537 0.585697 0.728158
3946 14.2329 28.8209 13.23 0.31159 -0.689106 -0.657913
3900 66.0309 29.3973 14.0328 -1.44049 -1.00577 -0.503839
845 39.4543 30.5838 13.6041 -0.393058 -0.235096 1.4004
1283 60.9473 32.3868 13.578 -0.349606 0.224117 1.40381
2592 24.2336 3.08827 15.0053 -0.764042 0.440522 -0.692643
193 42.2239 4.19571 14.4528 0.669125 -0.269924 -1.03289
2064 70.7646 5.64782 15.2071 0.281754 -3.3466 0.880766
229 21.9589 6.69933 15.1539 0.351476 0.250648 -1.24026
1036 55.6531 7.44103 14.2418 0.641925 0.132513 0.0631778
1920 71.1415 7.81525 14.792 1.27952 0.447058 -0.921423
3460 61.6434 12.2188 14.8735 -0.744737 -1.53128 0.584595
2300 39.5315 13.7159 14.9154 2.67829 -0.154287 -0.0746701
151 24.0977 14.9935 14.6223 -1.5341 1.24385 1.83854
1436 47.0368 14.7532 14.8919 0.518999 0.9301 2.39575
3969 31.8532 16.6288 14.6068 -1.24699 -1.12512 -0.519232
2319 67.5259 19.0283 15.4918 0.622578 0.647523 -0.92875
1976 14.15 20.572 14.2133 -2.07712 -0.720015 1.09884
3856 44.4287 20.4715 15.2936 0.717376 -1.53262 -1.61592
636 55.6005 23.4899 14.8819 0.0236394 0.3121 0.149953
2568 12.8121 27.009 14.2063 2.20818 1.39413 -0.278345
2010 14.5159 28.801 14.3123 -0.846088 -0.850301 0.090551
2611 37.175 29.2622 15.5444 1.33328 -0.378904 0.0555751
1357 59.0238 29.5435 15.4405 1.91278 -0.57918 0.970956
2467 14.1655 29.9098 15.3211 1.02533 0.223555 1.71407
905 17.2078 30.431 14.5098 1.5567 0.170429 -0.198641
3608 56.2677 31.0053 15.0869 -1.35355 0.027255 0.582727
2858 59.3774 0.789307 16.1028 -1.18642 0.681378 -0.438607
205 13.7688 3.28805 16.2119 -0.047525 -0.445512 -0.623624
3434 18.537 2.8716 16.4179 0.901054 1.08198 -1.44108
1374 27.7525 6.25458 15.9839 0.012056 -0.316643 -0.871593
611 46.5283 6.79338 16.558 -0.619863 -0.0573672 -0.721843
2706 30.3811 8.08017 16.9475 1.0925 -1.71919 1.32121
3349 43.5765 8.24526 16.6598 1.2898 0.395849 0.0430915
21 2.92248 9.48427 16.5596 -0.960285 0.694654 0.149796
544 23.8431 9.89661 16.408 0.362297 -0.814369 0.37706
3793 54.787 11.4584 15.8472 0.826509 -0.0039434 -1.65872
3386 1.05276 13.4455 15.8224 0.577536 -0.463217 -2.10247
2557 14.9404 13.881 16.4956 -1.37069 -1.80649 0.578468
3557 34.9265 12.8677 16.8514 -0.581165 -1.61868 1.66864
3128 61.5289 13.7234 16.6139 -1.44383 0.544274 -0.12501
849 53.586 15.2678 16.8398 -0.204958 0.733861 -0.483335
2773 7.13209 15.8846 15.7195 1.76342 0.573628 0.297951
710 11.1817 20.7723 16.8216 -1.309 0.811121 1.21063
3446 28.1288 22.2245 16.3495 -1.55408 -0.585668 -0.217358
1825 58.8442 21.8726 16.2691 -0.735827 0.596672 0.903565
208 10.5683 23.8471 16.2891 0.57723 -1.35841 -0.201724
401 12.1022 22.7941 16.6732 -1.18952 0.219593 1.14166
3543 38.3429 23.1157 16.0878 -0.235693 -0.581039 -0.997775
1056 50.5878 23.1578 16.2446 0.059999 0.559181 0.804473
971 57.4107 23.6257 15.8378 -0.753537 0.405751 2.06485
2521 63.2928 23.3972 16.6612 0.669094 -1.06483 0.5615
1789 1.43768 24.8421 15.7327 0.419285 -1.21809 0.812045
776 4.71251 25.4919 15.7535 -0.507862 0.585182 0.0249575
2103 2.03543 25.8532 15.9565 0.351791 -1.27115 -0.350637
3553 13.9391 26.2415 16.6235 -0.468006 -0.285354 -0.274364
2863 31.3262 25.8226 16.1138 0.537424 0.244653 -0.340794
1928 15.4713 28.3043 16.4053 -1.04395 -2.35463 -0.572406
592 14.4341 28.9665 15.7602 1.72483 -0.564488 -0.929863
2015 51.7095 29.5432 16.2478 0.573927 -0.590596 0.636721
54 69.4163 28.6926 16.0016 0.888949 0.331571 -0.167509
2739 13.8319 31.0029 15.7781 -1.96139 0.654277 0.0408069
1859 25.543 30.323 15.9165 -1.24577 -0.69449 -0.672351
530 32.6203 30.0732 16.7673 1.20015 0.402217 -1.13936
292 10.1473 32.5851 16.6794 -0.726955 0.245846 0.494399
1703 17.5039 31.2434 15.6378 0.800395 -0.115956 -0.336201
2563 28.3682 32.274 16.8861 0.583683 -0.177726 -0.916303
2203 67.3319 32.0134 15.5864 -0.0591367 0.242487 1.38833
3447 6.71844 33.5015 16.6323 -1.59483 1.39532 -1.55096
1038 24.0115 34.5824 15.9567 0.721927 -0.154294 -0.583395
3736 32.5569 35.0905 16.293 -1.76141 0.343226 -0.656226
392 62.1921 2.01605 18.1035 -0.792664 0.439851 -0.750118
3981 19.1391 3.5828 17.5989 2.19347 0.497278 -2.4955
3082 25.7196 3.75276 17.6649 0.776294 -0.98541 0.640618
863 53.9684 3.61478 18.3921 -0.850073 -0.562431 0.656024
3768 61.3533 3.61219 18.2628 -0.420368 -0.312254 -1.18327
2252 9.53164 7.48285 17.224 -0.0539673 0.0195592 0.544073
1321 19.0055 8.63079 17.5853 -0.354612 0.964215 -0.122079
1450 18.4702 9.98339 17.2369 0.933343 -1.05988 0.104817
2124 22.1357 10.2589 17.7807 -0.638182 0.310274 -0.0486259
2831 26.0515 11.2836 17.9837 0.554122 -0.000661473 0.278762
720 46.1741 11.0162 17.2046 0.0357794 0.720325 -0.600629
3075 52.8966 11.3106 17.8695 -0.342306 -1.37531 -0.116245
3972 60.2422 11.1577 17.3755 0.11349 -1.78013 1.80014
1885 22.9656 13.6159 17.9095 1.35814 -0.200799 -2.49904
2725 13.6459 15.0359 17.7546 0.287091 0.344369 0.970431
3031 24.5456 16.5839 17.399 0.654934 0.0587756 -0.726109
3449 58.7328 16.4141 17.5858 2.01918 -1.00622 0.33107
2814 71.8629 16.3498 17.3905 -0.925414 0.322677 1.56797
744 15.937 17.3807 18.0454 0.359614 -0.928065 -0.0798405
764 9.48275 20.074 17.0897 -0.44943 0.160784 0.35549
1410 55.0254 21.2028 17.4977 0.117403 0.325854 -0.849799
1603 63.5309 21.8231 17.7813 0.820201 -0.651542 -0.3828
3872 4.05774 23.6431 17.6269 -0.410397 0.978792 0.941243
1543 9.9333 23.544 17.263 -0.900885 -1.46598 1.4895
2277 45.3975 23.3336 17.6342 -1.14407 -0.540667 0.426929
1750 29.0561 25.1143 17.9603 -0.386749 1.69874 -0.00030602
2750 58.0914 25.0491 17.4703 1.25931 -1.19226 -0.0302998
2684 39.0133 25.6208 17.7337 0.286857 -0.800461 -1.11625
1707 38.8113 27.1677 17.8954 0.101758 0.0710453 0.567694
1240 31.7613 28.6686 18.2312 -0.280837 -0.442146 -1.31668
3088 1.31663 30.2746 17.1334 1.15188 1.54541 0.390126
582 4.8806 29.9497 18.1877 -0.115332 -0.31048 0.209653
297 14.4563 30.7362 17.2155 0.649296 -0.761591 0.736882
1491 46.6551 30.8231 17.0769 1.40358 0.418325 -0.400765
2355 5.2705 31.3195 18.0254 -0.757756 -0.214829 1.90098
3360 32.9092 31.5255 17.0214 -0.243661 -1.56002 0.377676
1221 26.4254 32.6556 17.2637 0.455221 0.381431 -1.6939
762 55.5078 35.398 18.1862 -0.386262 0.0997659 1.22885
2616 52.5219 36.3779 17.7867 -0.106452 0.815665 -0.0991406
1927 8.82482 1.02465 19.3928 -1.96175 -1.29779 0.524949
794 15.1821 0.556733 19.3787 0.311442 -2.20476 -0.789295
268 14.9482 1.32157 18.64 0.771945 -1.73136 -0.496223
1237 26.487 2.48017 18.6433 -0.486332 1.6867 0.414373
3953 69.6352 4.14407 19.4707 -0.780663 -1.36889 -0.0431116
3065 73.6806 5.52915 19.0078 -0.471629 0.216915 -0.0115027
3312 26.9007 5.85598 18.5308 -1.77674 -0.421939 0.101696
2290 47.6688 8.21852 19.1949 1.05126 -0.372162 -0.560575
3338 61.9979 7.62694 19.6971 1.451 0.561515 0.00232572
3539 64.3463 9.2972 18.939 -0.77798 -0.980966 0.598326
3956 49.8586 11.1182 18.435 -0.093251 -0.12157 -0.996063
3476 40.0841 12.791 19.2671 -0.294242 -0.447376 0.734568
3112 53.2001 13.598 19.0703 -0.513982 -1.1984 -0.878215
3926 60.4932 14.3648 18.9985 -0.98267 0.417167 -0.325875
1623 27.2582 16.8618 19.7134 1.4355 -0.658695 -1.33593
3327 5.70202 18.6015 19.4097 1.78619 -0.30167 0.345499
3743 49.7977 20.1683 18.4844 1.23468 -1.56747 -0.239652
2910 13.7998 22.2022 18.7005 0.131678 0.0680687 -1.37824
1571 28.4494 22.5532 19.0362 0.192129 -1.28092 0.754243
3134 34.931 21.9732 19.0465 -1.19976 0.069851 -1.34534
759 34.5374 23.7477 19.0573 -0.615836 1.5304 -2.21346
3791 34.9903 22.8107 19.7524 0.856639 -0.445017 -0.835228
2837 45.9566 23.4987 19.8364 -1.61222 -0.501313 0.288511
714 45.5481 23.0675 18.8198 -1.72806 -0.756782 -0.0147543
2353 44.3603 25.3574 19.2687 -1.47284 1.83645 -0.333824
1822 65.149 24.8197 18.7756 0.644345 0.459992 -1.33584
1684 63.52 25.6414 18.8106 1.36168 0.81446 0.497227
3182 64.5075 26.1507 19.2535 1.20361 1.86203 0.110018
2826 39.893 28.0403 18.5225 -0.489484 -0.759088 -0.469947
2817 33.319 29.9673 18.6957 -0.557851 0.973419 -0.386304
1136 48.1399 32.2329 18.5793 -0.236609 -0.496797 0.681425
1167 49.6605 31.9623 19.6166 0.84936 0.864374 -0.740469
3198 44.95 33.2088 18.7468 -0.222549 0.781363 -1.50971
745 52.4412 33.6331 19.8002 -1.31948 -0.3175 1.23177
2500 4.42112 35.7993 18.9232 -0.637206 -2.26506 0.761367
1043 11.7224 35.6436 19.0721 1.13495 1.29225 0.390329