ITEM: TIMESTEP
43000
ITEM: NUMBER OF ATOMS
4000
ITEM: BOX BOUNDS pp pp pp
0.0000000000000000e+00 7.3680629972807722e+01
0.0000000000000000e+00 7.3680629972807722e+01
0.0000000000000000e+00 7.3680629972807722e+01
ITEM: ATOMS id x y z vx vy vz
2562 38.5312 2.02556 0.385799 -0.289524 0.173263 0.944106
3457 42.6051 2.65681 0.841341 0.31093 0.636202 1.24057
2499 37.4361 3.98897 0.810529 1.28213 -1.09916 0.0969758
1000 50.4381 4.17494 1.06843 0.804079 0.874675 -2.50932
1698 64.686 3.24026 1.26666 -0.612859 -0.0155603 -0.702778
2716 70.9034 6.17836 0.0110907 -0.4301 -2.55474 -0.519313
3705 40.7616 7.55912 0.401813 -1.96395 0.980999 0.727435
2211 4.54843 9.23939 0.385915 -1.321 0.0226906 0.173519
3455 47.6256 9.65408 0.0664549 0.758341 -1.39447 -1.85348
3762 47.1768 10.7322 0.13305 1.48294 -0.0985737 -0.55719
726 29.9588 12.376 0.422802 -0.222837 0.87529 0.799557
1148 44.6962 12.6852 1.40162 -1.39371 -0.764754 -0.369806
3741 52.7251 14.0455 1.327 -0.264088 -1.45387 0.786555
567 22.802 14.5706 0.93815 -0.473066 -0.463314 -0.69386
2560 31.7159 14.5186 1.37125 -1.01408 1.4847 -0.39072
402 48.4814 14.563 0.665304 1.02765 -1.01722 0.706094
1643 21.9167 16.9105 0.479458 -2.56884 -0.32385 1.79463
3965 20.1502 18.2584 0.198204 0.106658 -1.09791 0.652787
2237 40.3184 18.401 0.90362 -1.37444 -0.273187 0.501723
393 69.8076 18.5413 1.13065 -0.220158 -1.81689 -0.824076
1105 5.16347 20.4053 1.21229 -0.0946352 -0.5713 -0.109366
1108 41.4558 24.9726 0.881977 1.22795 -1.09231 -0.0149251
2968 10.6697 26.8414 0.349568 -0.228161 1.73639 -1.62826
3214 18.4227 26.1852 0.248933 -0.244826 1.59236 -0.405738
1919 22.2401 25.5717 0.662678 -0.515077 1.20815 -0.0562742
1072 42.6899 25.851 0.494267 -1.66884 -0.519332 0.690229
750 4.10578 28.1431 0.670504 1.51936 -0.222245 -0.7016
79 26.2133 27.8796 0.906767 -2.06069 1.00622 -0.335532
893 20.0536 28.4221 0.213569 -0.153654 -0.941598 0.512522
430 27.1219 28.7757 0.671053 1.37903 0.120278 -1.07645
1081 38.7269 30.2566 1.2045 -0.96764 -1.13146 0.56651
3443 65.1566 30.5316 0.938995 -0.331848 0.517126 0.822501
109 14.5232 35.907 1.36682 -0.334518 0.511052 1.6355
2745 71.5369 35.5336 1.02789 -0.722915 0.319919 1.61413
315 67.5946 1.09978 1.59628 0.228542 0.500897 1.8112
1059 30.7657 6.03363 1.64872 -1.37535 -1.12966 -1.06754
1015 54.4713 6.31355 1.82568 0.0607988 0.856669 0.662163
159 70.9429 5.74392 2.58996 -0.314919 -2.08588 1.07004
1901 59.195 7.53536 1.89645 -2.2644 1.87479 1.39361
3244 32.3367 9.87644 1.93155 0.850155 0.578346 -0.650099
1333 39.7651 9.03252 1.75645 -0.840423 0.748166 0.566145
834 20.0703 10.2393 2.34956 0.675653 -0.555113 1.00867
3459 55.3224 9.99383 1.51302 0.945879 -1.0638 0.295557
375 63.6555 10.997 2.75733 -0.549872 -1.10198 2.72792
1253 13.9312 12.4652 2.62813 0.497878 -0.60432 -1.80663
3493 32.7502 11.9169 2.63376 -0.089471 -0.111587 -0.638309
2527 52.4991 11.7615 2.56149 0.0206903 0.381601 -0.94035
2384 11.8195 13.8674 2.01065 0.161515 0.0295395 -0.742539
467 31.2409 14.6958 2.56057 0.523202 1.67441 0.732314
3539 39.8739 15.5724 1.88506 -1.49181 -0.185593 -1.0554
889 56.2574 14.6219 2.37341 1.12836 0.637909 0.0582139
2028 58.0034 15.2254 2.12949 -0.242002 -0.628909 0.85073
2101 35.9955 16.4785 2.36255 -1.59764 1.87451 0.153435
2733 11.0352 17.1218 2.7377 0.509021 -1.06484 0.689221
1462 64.386 18.9752 2.59536 -0.594223 1.02814 0.597924
765 72.3106 19.2819 1.99858 0.724618 0.163476 -0.573001
2598 53.7336 20.1803 2.72001 -0.124192 -0.303645 -0.833668
1631 1.36841 24.2014 1.92977 -0.801681 -1.77763 0.351132
2869 11.8177 26.6374 1.48848 0.207531 -0.215809 0.168003
2240 13.8305 25.6287 2.06918 -0.545635 -0.819455 -1.72146
251 42.3782 26.438 1.7819 2.65927 0.60434 -2.07851
2863 64.8027 25.8473 2.14379 -1.06102 -2.33778 -1.46614
1997 67.2576 26.0068 2.12856 0.381011 0.0171325 1.31744
3976 4.524 27.1715 2.19809 1.07232 -0.459079 0.802144
3031 2.48738 28.4853 2.61358 0.619221 0.399143 -0.00584792
336 27.175 28.5474 2.00633 -0.750768 -1.49666 -0.37459
761 36.6989 29.1127 2.33753 0.959482 0.590382 -0.485989
100 9.73935 29.9311 2.44948 1.19407 -1.64505 0.0996374
1896 60.8163 29.9778 2.40837 -1.30747 0.0846599 -0.631506
1308 22.3364 32.5847 1.62904 0.90093 0.665002 0.585983
50 23.5753 32.038 2.4219 -0.914082 -1.7149 1.44633
2508 0.660997 33.0442 1.94487 -0.82037 0.474382 -0.884883
291 31.3975 34.0272 1.4448 -0.671322 -0.173665 1.4627
3634 52.8151 35.3431 2.04495 0.384865 1.10929 -0.978215
2918 38.7164 35.6407 1.9076 -1.93452 -0.712968 -0.0142867
2068 4.88035 2.70368 3.76672 -1.04591 -0.741446 0.398667
1165 16.5931 2.29524 3.56636 -0.956177 -2.09167 1.02115
2917 56.6193 1.6355 3.88062 -0.0105473 -0.130238 1.14413
1057 22.2317 2.88802 3.24208 1.09732 -0.0793407 -1.55405
1976 61.2428 2.91592 3.55566 0.705655 0.675491 0.0457655
3156 5.82491 4.37637 3.08835 -0.918521 0.195702 -1.39106
1293 58.3517 4.28609 4.15046 0.672738 -1.27749 0.56742
1842 30.3231 6.66862 3.60928 1.03164 -0.0893055 -0.544866
1204 1.68187 9.20885 3.08377 0.75552 0.223376 0.442894
903 38.1198 9.30263 3.40049 1.08047 -0.141178 -1.49248
3154 62.8112 12.9781 3.72126 -0.48976 0.571657 0.887613
1607 37.9921 15.1249 3.13063 0.58381 -1.22125 0.593536
330 67.78 15.3334 4.00192 -0.210119 0.305677 1.41432
2674 73.6018 14.8273 3.2339 -1.50261 -0.692177 0.362387
2718 72.3996 15.9 3.86364 -0.427389 1.40792 -1.60561
496 46.4828 17.3371 3.80236 -0.0177229 1.85399 -0.530411
742 62.9463 18.2763 3.49115 1.56397 -0.123789 -0.658945
392 13.439 18.4742 3.58588 -0.295852 0.107894 -1.94663
2409 27.5377 19.074 3.88882 -0.116793 0.02965 0.80444
2600 66.9485 18.766 3.06974 -0.709694 0.368569 0.490465
57 24.8716 20.0648 3.98809 0.520429 1.76587 1.0363
2650 34.9623 21.4774 3.41396 -0.343456 -2.66617 0.210681
734 33.3382 22.7153 3.66805 0.843979 0.263314 1.0875
975 30.5879 25.2003 4.09699 -1.30783 1.51553 -0.348905
937 39.9149 24.725 2.90178 -1.14652 -1.5167 0.978489
1562 56.2356 24.6897 4.13101 0.887914 1.05534 0.426498
3666 64.3153 24.4355 3.42472 -0.195511 0.587451 0.47846
2856 56.1867 26.8201 3.6782 -0.576692 1.61453 -0.302552
2490 22.7131 27.8554 3.86966 0.998863 0.610518 -0.29924
570 33.3381 27.4298 4.12895 0.0535984 -1.05206 -0.872677
1418 10.6845 29.2745 2.98061 -0.408789 -2.12619 0.017066
2555 50.8758 28.4186 3.01002 -0.0337808 0.365714 -0.0237593
3003 29.8009 31.7595 3.80325 0.280651 -0.935292 -0.234248
3660 36.1152 33.5648 3.89833 1.38865 0.757036 0.573835
1530 65.3312 33.9347 3.41098 0.71475 0.831656 -0.465008
628 7.21274 34.5636 3.05119 0.118771 -1.13221 -0.507645
711 5.40193 35.8154 2.96489 1.14417 0.637539 -1.08584
2411 65.3071 35.7148 3.56763 -0.0387878 -2.28529 1.24469
558 5.53856 0.724761 5.10931 0.990486 -0.900612 1.8394
2852 43.7098 1.29774 5.46027 -0.644012 0.168567 -0.627001
3383 62.7642 1.09148 4.96492 -0.800998 -0.704271 -0.668666
2391 20.7813 2.81875 5.53163 0.820073 1.2346 0.984914
1171 20.5659 2.23008 4.55586 -1.12537 1.63602 0.339358
2273 2.91625 4.03022 5.13078 -1.30426 -0.0316671 -0.970426
2854 33.8017 3.76836 5.02114 -1.14095 0.657029 0.390446
515 25.7353 5.31133 4.94707 0.269535 -1.25045 -0.684086
3331 15.7273 5.93385 4.87915 0.058371 0.158781 -0.16845
3717 22.8807 6.1796 5.06034 -1.0836 -1.58046 1.39684
3006 47.8112 8.33116 4.93321 1.01997 -1.64714 1.14615
1697 52.9884 8.26294 5.31927 1.49306 -0.0647001 0.914472
1674 70.5506 7.92634 5.35768 -0.390992 0.625526 -1.42038
2330 35.1041 9.20503 4.40933 0.402083 -1.07518 -0.449759
1402 34.7242 10.7277 5.32172 1.25286 1.02261 -0.684511
3414 19.9714 12.1879 4.47839 -1.31424 -0.146012 -0.901677
3076 21.6727 16.4159 4.28984 -1.41612 1.98531 -1.01371
781 39.7123 15.8688 4.8936 -0.0744375 0.0139035 -1.18809
2951 24.0413 19.7693 5.65952 2.08956 -0.298891 0.704371
597 55.6999 18.9993 5.50411 1.01498 0.206054 -1.89945
1049 54.7579 20.2412 4.90624 -1.76403 0.702034 -0.190099
2289 9.30462 21.7303 5.48139 0.274233 -0.741137 1.13064
1617 46.4321 25.6304 4.49045 1.84496 0.356009 -0.681314
3061 6.3464 27.4691 5.01099 1.07222 0.871008 0.0772258
1967 54.5927 28.1723 4.38751 0.934488 0.378599 0.641321
7 59.2002 27.7854 5.11166 -0.332239 0.344653 -0.204027
2741 53.0197 28.4918 5.21037 -0.0339658 -0.923504 -2.13354
295 52.1286 30.4598 4.40298 -1.02556 1.85054 -0.101405
3578 23.0233 31.4044 4.48087 0.162705 1.53496 0.368348
3899 31.124 31.8001 4.79245 -0.385665 0.802117 -0.867226
2299 37.3999 33.9027 5.35387 -0.678115 0.495643 0.861982
2196 55.3826 33.3391 4.67237 -1.21875 0.224018 -0.197175
546 62.3719 33.5934 4.68479 -0.49503 -1.41818 0.78764
673 6.06616 34.9207 4.63245 1.05031 1.53797 2.33872
1840 0.557615 35.7999 4.37326 0.0122826 -0.544819 0.142642
1633 69.6283 36.0326 5.04803 -1.0482 -0.885674 -1.02382
1538 6.95805 0.236444 6.53475 0.0510714 -0.0252958 -0.910819
3382 9.1097 0.816563 5.71666 -0.68443 -1.3107 0.697547
114 44.7188 1.4844 6.54264 0.54307 -0.813597 0.155838
1766 66.039 1.49539 6.0524 -0.481145 0.0855728 0.617972
3380 71.7097 1.5651 6.5958 -1.87433 0.264738 -2.16213
3855 32.8637 3.4197 6.67217 -0.193967 1.92356 -0.349888
1494 7.41012 5.50172 6.05577 -0.393691 -0.257927 -1.12876
1446 46.2722 6.70157 6.61088 -1.22947 -0.526728 0.625657
560 2.25307 7.83686 6.90484 1.34604 2.10026 0.197335
3059 5.76104 8.84565 6.74965 -0.0264027 0.828816 1.25342
2422 21.1151 9.90002 6.38611 0.983938 -0.574597 -1.03455
3240 36.6467 9.78161 6.28806 1.68901 -0.697708 0.241819
256 37.638 9.47364 6.70344 -1.32012 -1.82247 -0.565059
16 49.5253 9.52846 6.54532 1.41128 -0.414221 0.137356
2251 66.8138 9.0176 5.9935 0.187804 1.33207 1.19131
95 46.3843 10.5053 6.73974 -0.147276 -1.24607 -0.608705
1749 0.703995 12.8721 6.4898 -0.91742 -0.508684 -0.972476
3444 21.1044 15.7881 6.37496 1.33903 -0.284936 0.336423
192 32.4566 17.3219 6.91756 0.302899 -0.398026 -1.00378
2477 41.512 17.6888 5.93773 1.2959 -1.41557 -0.755448
1029 6.93074 19.3954 6.81679 -0.461057 -0.741274 2.36432
1646 10.0097 19.6051 5.79261 -1.00903 -0.442289 0.659582
1581 64.2839 18.9555 6.51732 -2.29637 1.10052 1.03065
739 68.9151 19.2077 6.35483 0.701735 -0.927147 -0.559712
1759 20.0615 20.9202 6.02262 1.12784 1.48719 0.714377
1721 60.9233 20.6084 5.91477 0.472883 1.10064 -0.679094
3680 59.8873 20.2725 6.96669 0.981007 0.564675 0.551151
1958 17.6799 23.6403 6.85499 0.354277 1.31832 -2.4128
3299 69.8584 23.1488 6.9379 -1.2437 -0.00542691 0.647264
1101 27.7014 24.5194 6.57602 -1.28352 -0.454666 -0.876393
1186 48.894 25.3499 6.53554 1.1526 0.265096 -0.659574
3904 33.1618 26.4135 5.76343 -0.369906 0.971514 -2.73081
485 0.1009 31.0049 5.74425 -1.01603 1.01654 -1.90541
3587 28.4372 30.8286 6.18365 -2.06763 -0.0983308 1.29953
924 33.1436 31.6623 5.73662 -0.455179 0.353335 0.310249
2684 36.3219 32.7401 6.6941 0.535869 -1.81818 1.16397
334 52.1268 34.8248 6.44903 2.04541 -0.510124 0.134542
465 0.684368 35.4616 6.87443 -0.566148 -1.15298 0.633378
2914 50.4507 36.282 6.68175 -0.727504 0.146791 1.16547
3186 56.2636 35.9414 5.87783 2.08122 -1.37424 0.842227
2319 63.4404 36.2567 6.83508 0.587623 1.6086 -0.160585
2139 67.6282 35.4705 7.04319 1.20459 0.754649 0.260221
808 48.5028 3.47957 8.44357 0.239178 1.40948 -1.54593
34 18.1761 5.08228 7.1933 1.60105 0.847962 -0.30852
3576 31.8955 5.23141 7.46974 0.307519 -0.00291481 -0.865586
471 34.2821 4.76425 7.58604 0.846279 1.68855 -1.28884
2444 12.1001 5.80706 8.31356 1.86161 -1.10322 0.515972
3308 12.6315 6.44433 7.67452 -0.0916983 -1.38871 -2.09974
957 14.3392 6.31495 7.5273 -0.897369 0.599512 -0.314326
3638 38.6299 7.54372 7.58157 -0.860982 -0.0908413 0.99098
3495 69.197 7.60293 8.38998 -0.6798 -1.49192 -0.233324
968 68.6717 8.30076 7.64286 -0.610707 2.33478 1.15161
585 72.8615 10.9986 7.98749 1.4475 -0.335175 1.5347
2823 44.6386 12.9553 7.39043 -0.813327 0.421666 -1.17917
2924 53.188 13.2719 7.24746 -0.913332 -0.538348 0.949947
2594 56.4217 14.4131 7.79769 2.20421 0.527984 -0.534877
2123 2.24417 16.9065 7.73531 -0.0929436 0.540906 0.0643228
2178 28.8704 16.4165 8.4473 0.215859 0.204114 -0.81922
2243 31.7694 15.8596 8.46136 1.13077 -0.334362 0.459908
3341 62.0491 15.9316 7.86849 0.918802 0.329867 -2.06109
1077 38.4146 18.3931 8.12953 1.10972 -1.46939 -1.07648
1684 62.8706 17.1554 7.24015 -0.823565 -0.590697 -0.848387
2285 11.2522 19.8292 7.77364 -1.604 -0.939046 -1.26651
208 32.8633 19.7532 7.50512 -0.167078 0.243007 -1.18478
1431 65.2067 19.0624 7.96424 -0.878636 -1.0733 0.596831
1249 33.138 21.2356 8.0436 -0.0516235 0.79642 -1.04446
2722 37.7214 20.0803 8.11753 0.595966 -0.727962 -0.7588
2483 59.6419 20.3693 8.38646 -1.27354 -1.16371 -0.167867
1375 5.06586 21.2743 7.47439 -1.40506 -0.243907 0.0125378
3187 13.6715 21.749 7.71176 -0.21768 -2.0467 -1.09957
1860 16.5604 22.1663 7.46205 1.10233 0.753965 0.767378
2605 70.3886 22.1505 7.89848 0.684868 -0.235582 0.0265979
102 65.8885 24.008 8.34279 -0.449329 0.743406 -0.626535
2621 7.13062 24.3312 7.19917 -0.576999 -0.102496 1.6425
3659 20.0519 27.7108 7.19782 -0.372785 0.666397 1.21692
3350 29.3067 27.3233 8.07238 -1.07213 -0.75595 -1.0954
2536 13.6402 29.5056 7.256 -0.379189 -1.56636 0.0313709
3841 34.0612 28.5326 8.35192 0.125828 -0.122414 -2.06038
535 43.3146 29.309 7.36229 1.13534 0.0721931 -0.0143039
2067 47.2621 32.4476 7.36253 -0.133532 -0.408127 0.0499668
3755 70.7972 31.7644 7.71952 -1.14297 -1.5141 -0.00552335
2302 46.4522 33.071 7.63056 0.333498 -0.912001 1.16702
277 53.4985 35.1189 7.22504 0.14269 -0.576544 0.622351
905 40.3444 36.475 8.17166 -0.463838 0.551606 -1.17892
2860 45.0191 36.1197 8.20138 -1.66044 0.265338 1.74006
3562 10.1217 1.3583 9.56146 -1.05045 -0.765101 1.46578
1459 72.2568 0.160771 8.51821 0.512536 -1.27317 1.56564
255 3.94185 1.73527 9.64487 0.934133 0.796105 -0.104601
732 34.936 2.51802 9.44803 -0.374644 -0.897917 0.20476
2599 33.9845 3.67441 9.91159 -1.51275 1.58173 1.86426
1710 16.959 4.68955 8.76967 0.134115 0.0864193 1.58289
586 56.8225 4.35853 9.63144 0.565117 1.33783 1.76111
3553 41.013 6.00315 9.51031 1.29389 -0.102104 -1.43505
2425 62.1856 5.70387 9.91247 -1.42788 1.22618 0.980094
2066 63.6283 6.54644 9.64768 -1.04758 -0.403525 -2.25169
1790 0.0823087 7.34929 9.2753 -0.865021 -0.955356 0.781516
2229 45.8709 7.98995 9.65402 -0.956625 -0.412014 -0.27788
557 28.1206 8.59999 9.43905 0.369536 -1.98336 0.252921
1624 67.7147 9.27612 9.81856 -2.29119 -0.358349 0.295874
3294 66.5332 14.3757 9.80694 -0.645192 -0.603873 0.855671
1444 44.124 17.7409 8.75311 0.587696 -0.473655 -0.703932
3781 26.3276 19.1664 9.12322 -0.672396 1.27475 0.254877
3922 42.7803 19.4054 8.79471 -2.69713 -0.368179 -1.06342
1088 43.9296 18.9615 8.69933 -0.0792784 -0.89834 0.459428
2356 45.7137 20.79 9.38676 0.118917 -1.92434 -0.345408
3464 56.7543 20.6251 8.95869 0.857268 -0.706104 -1.64001
1183 39.8745 21.7842 9.19049 -2.83324 1.51424 -0.242951
862 0.161849 23.0243 8.62539 0.527481 -1.64495 -1.01933
410 18.0678 23.4525 9.41699 2.77154 0.258214 1.00639
2131 37.3561 22.9811 8.64335 -0.195656 0.114931 -1.17247
3203 47.354 22.7464 8.88132 0.414818 0.0943287 0.311276
3176 55.6441 23.9251 9.2943 0.138921 -0.770139 -2.28988
2668 54.6346 24.3122 9.18147 -1.09052 -0.121422 1.00867
3400 9.39549 26.1972 8.51083 1.90841 -1.17191 1.33384
228 25.7494 28.2716 9.89358 -0.514065 -0.498217 -0.757691
1469 55.5294 29.6849 8.95051 -0.879026 0.146261 0.529621
1441 43.4863 32.1722 9.14522 -3.18806 0.0666007 -1.28412
1214 16.033 33.3482 9.24162 -0.0035195 -0.584699 0.593413
3649 30.4609 33.0836 8.69521 1.79565 1.41677 -0.52817
1544 56.6212 32.596 9.11401 0.844374 0.698031 -1.41527
556 16.6947 34.1649 9.06917 0.827316 0.456234 -0.435584
1846 46.122 36.0087 8.85074 0.143979 0.766144 0.371833
2992 26.0804 0.557372 10.6365 -0.348087 -0.626021 -1.19254
3189 1.95565 6.8281 10.6761 -0.698189 -0.799762 0.318047
3729 11.0942 5.74231 10.595 -0.565693 0.396779 -1.04931
3556 20.6174 6.25607 10.2641 -0.568797 2.0051 -0.852671
2410 32.7426 6.4584 10.5001 -0.372399 1.32031 -1.59345
2638 44.2072 5.70008 11.1668 -0.766566 -0.982312 0.422465
852 1.82517 8.31413 11.3116 0.133601 -1.325 0.237151
2747 45.0477 7.94757 10.3913 1.75779 -1.80056 -1.81333
305 66.6511 7.44325 10.1422 1.67218 -1.12884 -2.57238
1622 43.7557 10.8357 10.368 0.626378 0.411879 0.499192
2837 7.6884 14.0304 10.7624 1.84033 1.24587 0.175504
1811 14.2155 14.2488 11.2407 -0.409999 0.0525281 -1.97143
3393 34.6332 15.1025 10.8099 -1.37317 -0.260182 -0.996714
1422 47.8647 15.5601 10.911 0.0153965 2.06098 -0.602826
3687 41.5244 15.858 10.1316 0.942153 0.261247 -1.05604
913 35.8513 19.7583 10.6108 0.952064 0.754953 0.737871
2799 37.6253 21.9561 11.2011 1.00721 0.0278663 -0.207347
3811 67.7797 25.5876 11.216 -0.431983 -1.1432 -0.356684
2051 21.9942 27.2855 10.6376 0.537807 -1.31894 -1.43067
1657 12.8646 30.3334 10.5587 0.718212 2.01379 -0.743858
1385 43.6791 30.5538 11.1779 -0.103391 0.797504 0.653263
1955 33.6367 31.5955 10.6348 0.422266 0.566732 -1.38381
3177 7.57002 33.4644 10.586 0.646741 -0.896175 -0.984093
792 19.9801 33.1594 10.9431 -2.45607 0.62033 -1.39118
117 5.50386 34.7615 9.97262 0.884347 1.13531 0.529491
3077 5.75396 35.9121 10.7708 1.31431 1.37301 1.94389
1344 70.4199 0.358341 12.2279 2.39155 -0.0825582 0.0150084
484 8.53686 2.67135 12.0549 1.5843 1.53314 0.0349219
480 8.81574 1.73166 11.7009 -1.55778 0.716735 0.576074
882 58.8876 2.25826 11.8553 0.0492572 -1.68856 2.0531
1124 64.5497 2.80722 12.4421 0.811089 0.0416978 -0.648062
1055 22.1156 3.68424 12.2326 0.206124 -1.8012 -0.565331
816 10.0545 4.33978 12.0884 -0.641412 0.462159 0.669935
1566 2.51169 9.18002 11.6609 0.70928 -1.06928 0.825976
1962 67.438 9.07346 11.6677 0.233321 0.954349 -0.440281
1153 20.1329 10.9817 12.6263 0.368009 0.0221231 -0.468287
700 16.0577 13.7046 12.746 2.12512 0.632807 -0.139593
346 29.3189 16.441 11.849 0.276809 0.0524523 -0.40366
1177 57.9884 17.8219 12.2498 -0.978485 0.390653 0.286191
1390 8.21872 18.6375 11.9456 -1.36181 -0.894764 2.16304
537 26.8526 19.2585 11.6518 -0.709621 -0.349808 1.36067
3743 34.9891 21.0209 11.456 -0.575861 -0.486561 -0.171853
1420 54.3825 22.5953 12.302 0.228692 0.42234 1.19985
2881 8.24179 23.4719 12.6669 -0.543258 -0.186482 0.0831924
1221 24.626 23.2291 11.4621 0.706981 0.326027 0.101318
86 16.2359 24.6655 11.6149 -2.01237 1.29248 -1.65687
2208 25.0554 26.4583 12.2801 -1.15981 0.496298 -0.324991
2413 38.7036 25.8577 12.0974 -0.589621 0.665975 0.133587
1120 39.1533 26.7456 12.6998 -0.191216 2.04501 1.79763
1680 42.4711 26.4645 11.5314 -0.694451 -1.56643 -0.911657
3945 71.7283 26.2443 12.101 0.579103 -1.2963 0.503573
181 9.84393 27.0783 12.3093 -0.942488 0.640989 -2.10549
1889 68.6063 29.5116 11.9641 -0.757164 -0.817014 0.102773
2573 23.3727 30.7935 11.8642 -0.171263 0.453202 -2.6295
1634 67.5854 30.1857 12.0841 0.962791 0.481153 0.683957
3023 65.0342 34.4918 11.6748 -0.284053 -1.01282 1.3614
67 6.85978 35.5112 12.4783 -0.84337 1.17838 -0.359414
1656 72.6441 35.4435 11.54 0.235961 0.737364 -0.333416
2547 53.0638 1.28768 13.3502 -0.506464 -0.766997 0.907289
3798 56.5302 0.447206 12.8115 0.106629 -1.62137 1.17714
1599 72.5225 2.44196 13.86 -0.59664 0.94441 -1.79084
1658 42.6788 3.85774 13.5241 -0.897606 0.247955 -0.337292
3846 72.8217 3.12127 13.0411 0.935963 -0.0570575 -1.15454
1627 43.1734 5.02628 13.3804 1.52478 0.2038 -1.12797
3315 63.7667 5.34106 13.4919 1.85217 -0.213728 -0.0386705
1864 32.051 5.74837 13.5463 -0.583522 0.892957 -1.78016
1026 47.1169 5.78497 13.8073 -0.810642 -0.307795 -0.627828
644 66.2409 6.22973 13.823 0.816871 0.967457 -0.59408
3588 24.6385 8.00957 13.817 -0.549555 1.05103 -0.764481
891 56.9826 9.31061 13.8492 0.936954 0.865711 -0.125045
980 61.2279 8.79758 13.5833 -0.532516 0.460798 1.39906
3306 5.30464 10.1278 12.7731 -0.0479602 -0.966631 -0.766647
2002 8.54013 10.4262 13.3321 0.282139 0.752455 0.443973
1434 20.985 10.2176 13.2851 0.11918 0.16089 -0.101333
2368 16.9328 11.5731 13.0805 -0.308576 0.0681813 -1.09321
3328 27.4659 13.2765 13.9849 1.02007 0.384128 0.255038
870 29.1498 15.5538 13.9174 -2.32904 0.572264 -0.46403
2091 33.7566 14.7567 13.0234 1.81042 0.172958 0.890261
98 53.8272 14.2768 14.0029 -0.52208 0.44311 -0.551403
596 64.2037 16.8319 13.3121 -0.471148 1.47834 2.38845
29 27.257 17.836 13.1213 0.792799 -0.407154 0.951936
2142 12.6834 20.6543 12.9968 0.607107 0.229778 0.589337
2074 54.8228 21.1709 13.3672 -0.549014 -1.34367 0.439562
3145 58.9815 24.0185 13.3528 0.384182 0.520065 1.0997
446 16.5624 24.9944 14.0071 0.919612 0.1491 -0.0706041
3220 18.5457 25.3586 12.8519 -0.330262 1.12396 -0.812018
3337 19.1123 28.2557 12.7888 -0.329976 -0.440473 -0.204227
2697 8.7028 28.8519 14.1372 -0.3423 -0.00369619 0.788332
2580 67.9789 31.4248 13.2447 -0.951554 -2.72047 -0.175661
987 46.7893 35.3907 13.131 -0.617735 1.30249 0.424749
697 51.0159 34.9038 13.7865 -0.109056 -0.709705 -1.93592
3773 60.2313 35.3672 13.348 -0.92798 -0.0167226 1.80958
2004 4.07221 36.552 13.8301 -0.0737274 -0.267744 -1.16785
2457 18.8685 36.4092 13.8175 0.411376 0.768193 -0.389391
2520 71.3844 36.497 13.1856 0.960489 1.31428 0.875005
129 56.615 2.88587 14.5859 1.30231 -0.0896396 0.859839
110 24.1728 4.70347 14.3269 -1.56754 0.570469 1.76873
1301 0.874609 5.67087 14.6126 0.550131 -0.286044 0.0441646
1179 69.052 6.16357 15.4153 -0.442473 -1.60129 -1.49502
3432 10.7003 8.30957 15.5686 0.516536 0.709025 0.0900176
1670 4.86462 9.84367 15.4833 -0.754744 -0.645229 0.650918
1297 6.72128 8.85115 14.8558 0.369275 0.520652 0.12193
3722 15.0233 8.71571 15.437 0.482528 2.67548 0.591929
1775 48.6146 9.03758 14.4036 -0.115895 -0.571834 -0.0427427
352 50.761 8.73302 15.3109 -0.724436 -0.657481 -2.88587
1018 69.0728 8.65407 15.3898 -0.963815 0.550256 0.797298
3854 12.2049 10.1418 15.2821 -1.03031 1.15172 -0.402111
1636 53.7867 10.3328 15.0711 0.353294 -0.148747 0.723973
916 32.9872 12.8182 14.5336 -0.376218 -0.270407 1.20336
1060 21.6864 15.8873 14.7271 -0.275992 -0.360724 -1.08776
379 13.4476 17.9596 14.2741 -0.540947 -0.279912 1.17097
3513 36.0659 19.6491 14.655 -2.10748 -1.7695 -0.121885
3889 29.0336 21.3856 15.3189 0.170898 -0.21608 1.72957
462 5.954 23.0988 14.8924 0.274421 0.709575 0.45938
3767 0.926378 25.1499 14.8349 -0.0988012 -0.621534 -1.01213
1838 52.6313 24.6579 15.4867 -0.197108 0.286866 -1.2691
3037 73.2444 24.2807 15.5191 -0.41485 -0.769497 1.96432
207 2.35036 26.5415 15.5573 0.873591 0.338418 2.64475
2864 30.8667 26.5905 14.8238 -0.933585 0.174969 -0.105563
1138 23.0335 27.3404 14.5579 0.2814 -0.0785793 0.100743
2798 36.5297 27.2309 14.609 -0.347886 -0.693058 -0.272181
2072 42.0375 28.2159 14.5709 0.08921 -0.504992 -0.0413717
2390 43.7381 27.3253 15.2516 1.28016 -0.0757621 -1.14474
1751 55.9387 27.7691 15.2631 -0.253555 -0.0918894 1.30641
1002 65.804 28.2021 15.4608 -0.469023 -1.03292 -0.944141
2427 0.412655 32.2094 14.7944 0.747764 0.00265234 0.319382
1135 10.436 31.672 15.0533 0.617698 -1.33874 -2.70029
1782 24.0223 31.78 14.4002 -0.407595 -0.244551 -1.02006
2528 32.6523 31.4021 14.3953 -0.326027 -0.183839 0.726367
3286 50.08 32.2369 14.9071 0.260558 1.44209 0.83706
795 19.7232 33.4069 15.3788 0.40255 1.42239 0.29741
2601 30.5754 33.1684 15.2263 -1.2362 0.066579 -0.426032
2336 58.1332 33.3153 15.1057 0.465173 0.56915 0.64911
3130 73.561 33.8213 15.4755 1.055 0.990177 0.0296588
3197 28.6742 36.3824 14.6629 0.0545613 0.360065 0.302293
554 72.8966 36.7473 15.4303 2.50565 -0.0382371 -0.404893
238 39.513 1.03052 16.5583 0.428812 -0.94808 -0.0324335
642 29.2713 1.45218 16.8062 1.30345 -0.298375 -0.0835228
479 29.2854 1.93602 15.7325 -0.894132 0.224489 -0.401586
1824 40.8941 1.64621 16.3554 -2.00168 -0.754863 0.0758607
2495 54.095 1.46693 16.4068 1.4579 0.657196 -0.305428
974 58.9076 2.51011 16.2782 0.667108 2.06473 -2.99429
2191 60.9184 1.42493 16.2957 0.961752 0.266962 -0.041702
3089 43.0243 3.23136 16.8952 -0.125027 -1.64352 1.90437
3465 62.5093 3.88801 16.4242 0.402738 -0.460881 -0.135206
636 39.8144 5.65933 16.8902 -0.482838 0.583671 -0.84459
2838 33.0486 6.03486 15.9256 0.309889 0.271324 -0.539613
1687 52.3269 6.96084 15.9346 -0.773074 0.117987 1.94645
31 52.7998 7.83732 16.6254 0.684706 -0.117659 0.589421
3692 20.0464 8.76891 15.8314 -0.393618 0.553719 0.152207
2523 41.6658 10.1561 15.833 -0.309934 0.481048 0.641188
2355 55.8768 10.8463 15.7556 -0.036511 2.66439 -0.49338
307 40.3867 14.2882 16.0634 0.253506 -1.62002 -0.130563
3919 47.5127 14.9102 16.6302 -0.215168 -0.661465 -1.12839
3073 39.4822 16.3225 16.9361 0.42519 -0.928257 -0.040307
982 47.6777 16.8112 16.8537 0.367837 -0.170161 -1.56153
704 22.5934 18.3549 16.4207 -0.818746 -0.126657 -0.383061
3801 56.6599 18.3943 16.1209 -2.24742 -0.210056 -1.04901
3110 26.7543 20.0405 16.2698 0.143691 -1.04064 -0.568514
1852 58.7078 20.5126 16.527 -1.30624 0.928692 2.11399
3736 27.375 23.4426 16.4839 1.07723 -0.638967 0.40417
1878 62.7327 23.3303 16.1183 -0.394193 0.268562 -0.092306
217 53.8434 24.8861 16.9642 -1.16641 -0.42947 -2.05777
1346 37.0423 25.7204 16.8742 0.758008 -0.48416 1.05369
3146 54.5744 27.9906 15.8281 2.23583 1.46894 0.776018
1265 62.1634 28.093 16.885 0.355404 1.56484 2.09896
910 1.23703 29.1385 16.8394 -1.29147 -0.548338 0.0218557
1386 72.7054 28.7954 16.675 -0.612609 -0.940243 0.0530488
314 27.6391 30.0583 15.9606 -0.0521757 0.750891 -0.293805
3091 1.47578 33.9416 16.8921 -0.531816 1.71862 1.21326
233 5.08267 33.7214 16.2974 -2.07348 1.24085 -1.06502
36 43.3457 32.7365 15.7487 -1.19408 0.491259 -0.00831474
1472 0.483599 34.6058 16.8937 0.465623 -0.538628 0.0392994
2653 30.8868 34.1033 15.9758 -1.29218 0.0485896 2.21802
2640 46.001 34.8843 16.969 0.28135 -0.727547 0.0598674
1231 49.5868 34.1066 16.3207 0.0666576 0.697612 -0.293007
3496 34.0939 36.7482 16.7502 -0.621012 0.844375 0.376166
501 30.3511 0.932771 17.8821 -1.90933 1.07391 0.185778
3892 38.4553 0.988669 17.9654 0.533748 -0.133198 -3.0356
3715 27.0078 2.39113 17.3204 -1.18909 -0.141959 0.396643
264 47.2296 2.87944 17.898 -0.695358 -3.01317 1.25505
3279 39.6384 4.26921 17.5014 0.334411 -1.05235 1.46494
1295 19.4903 6.06749 17.7069 0.307712 -0.19414 -0.298296
3940 6.11543 7.82632 17.7601 -0.45623 -0.585951 -0.042907
569 49.4706 7.27996 17.0527 0.727505 -1.25023 -0.74325
1315 41.4453 10.3763 18.1964 0.655585 0.00696325 0.363597
2980 61.1981 11.6642 17.7271 -0.0948137 0.310912 -0.569103
2447 0.943875 14.5766 17.9164 0.0172945 -0.612536 0.374844
2270 15.0623 15.5111 18.2828 -1.03794 1.6716 -0.0617775
2205 25.5814 14.2813 18.2355 0.673603 0.190948 0.0544942
949 0.347137 16.1203 18.2924 0.91669 -0.58532 -0.520408
1498 51.0187 16.9119 17.1227 -2.3607 0.534369 -0.661991
939 11.0691 17.1438 17.5968 -0.528837 2.24871 -0.00715822
3853 10.101 17.8067 17.8371 -1.91448 -1.06788 -1.39465
424 4.58451 18.4268 18.192 -0.803421 -0.796495 -0.158945
2491 1.1556 20.0591 17.815 0.329578 0.0707438 -2.10654
3487 68.3205 20.3644 17.9486 1.64276 0.805729 -1.11999
906 6.60201 22.3773 17.7356 0.856829 -1.11192 -0.445762
797 8.21137 22.5558 17.3835 0.633949 -0.348109 1.02354
1969 28.2474 21.7756 17.9532 1.2931 1.10504 0.891869
2661 10.9789 25.2777 17.0841 1.76893 0.854841 -0.319977
2833 18.8017 24.7322 17.9363 1.18028 0.0679861 0.301917
1141 36.3183 24.7608 17.4357 -0.373312 -0.693601 -0.27477
3783 26.0363 27.3945 17.2248 0.0702494 0.952817 0.0519514
1020 39.112 28.0825 17.5088 -0.466912 -0.758162 -0.819768
978 62.2867 27.7492 17.976 1.59997 -0.136868 -0.846481
1914 22.0065 29.1681 17.5243 0.140591 -0.763884 0.922348
158 42.7418 29.5766 17.8977 2.2598 -0.504385 0.550565
3598 19.5502 29.7758 18.3401 -0.167142 -0.799631 -0.3721
1788 64.6673 30.7167 17.4633 -0.414044 1.00855 -1.61945
1232 55.1955 32.1861 17.6929 1.53766 1.49915 -0.906403
2009 31.3065 33.2742 17.4766 0.365334 0.186788 -0.299928
1600 50.4465 33.3093 18.249 -0.740979 -1.50881 -1.49294
2541 56.7068 33.9635 17.3829 -2.418 -0.717248 0.498382
497 69.3901 33.0151 18.4045 -1.49142 0.196178 0.844347
2347 35.3524 36.7218 17.3563 0.234372 -1.12585 -0.484284
2497 70.7797 35.6015 17.3418 0.779185 -1.32524 -1.43123
3671 1.61547 0.35628 19.2961 1.33159 0.580659 0.699728
3002 16.0318 0.76162 19.3661 1.8619 0.108141 1.06848
536 53.4899 1.36687 18.674 0.772837 1.78973 1.57794
1841 60.9077 1.75965 18.6749 1.22483 0.452537 0.633947
3763 7.40115 3.63236 19.4001 0.131311 0.134012 0.638384
139 44.0935 4.60003 19.5572 2.05391 1.19352 -1.64883
2794 53.0567 4.39444 19.003 -0.536225 -0.479662 0.394391
2224 4.52461 5.84732 19.3383 1.00163 -0.188134 -2.56672
488 71.7718 6.82836 18.6426 0.436996 0.836778 -0.1322
143 1.56304 8.05055 19.0291 -0.755208 0.299491 0.625328
140 11.0219 8.92826 18.8435 -0.0326004 0.0228978 1.8798
1085 10.5604 10.0169 18.5032 -0.487016 2.17518 0.35867
3022 51.7076 10.9435 18.7335 1.83087 0.049732 -0.631452
3416 4.43541 11.6908 18.8625 -2.02193 -0.570299 0.0623684
1756 16.2025 12.0276 18.4629 -1.1989 -1.74323 0.218068
2222 47.3684 13.1503 19.4871 1.398 0.453315 0.637915
3788 39.4092 16.334 18.9329 -0.14483 0.240228 -0.48186
1743 32.8496 17.0943 19.6266 0.78563 0.24826 -0.118653
3027 43.5997 17.5071 19.0472 -0.35421 0.698604 -0.434211
2645 57.7428 17.4728 18.4917 0.223818 0.0601007 0.243934
3182 64.8123 17.4384 19.6036 0.676533 0.880792 -0.908861
409 39.9171 21.3202 18.4769 3.50704 0.0314235 0.839006
573 47.9604 22.3663 19.3355 -0.0878704 0.422424 1.20836
269 2.05348 24.5248 18.9667 -0.013015 -0.626477 -0.947846
1510 58.1564 24.3756 19.2289 1.10524 0.955187 0.733623
3403 47.7868 26.215 18.7326 -0.483652 -0.739476 0.398244
3936 28.7105 27.1709 18.9956 0.465202 -1.4072 0.984712
1859 22.8906 29.114 18.853 2.3222 0.123893 -1.12118
3636 37.882 30.6701 18.4507 -1.12656 -0.976221 0.183641
3992 51.708 29.8133 19.3294 0.158114 1.31876 -0.287674
449 36.5964 32.8634 19.1165 0.576749 1.07542 0.0263336
3515 56.2349 33.0711 18.6434 0.235064 -0.455871 -1.31966
2114 36.2164 35.0944 18.7047 -1.19106 0.338316 0.614244
3871 8.62152 35.4578 19.6665 1.6314 -0.23976 -1.04745
2952 19.457 1.29507 20.2733 -0.143399 0.164424 -1.0178
1694 51.004 1.44417 21.228 -0.141953 0.989007 0.094537
1913 49.3584 2.95614 21.1093 1.54295 -0.888381 -0.502239
1492 70.0322 5.09347 19.8497 0.0200631 1.91414 0.528057
333 2.35557 5.84079 20.9035 0.372624 -0.325055 0.721613
624 45.9515 6.78705 21.0181 -1.05169 0.529233 -0.900699
1715 54.7003 6.43223 20.4884 -1.27473 1.21608 -0.487621
626 37.4358 10.5401 21.2062 0.240455 1.01638 -0.362524
755 47.7882 12.7849 21.0563 0.36196 1.3187 0.258633
1970 64.8399 13.9811 20.0098 1.07076 2.23427 -0.235268