ITEM: TIMESTEP
75000
ITEM: NUMBER OF ATOMS
4000
ITEM: BOX BOUNDS pp pp pp
0.0000000000000000e+00 7.3680629972807722e+01
0.0000000000000000e+00 7.3680629972807722e+01
0.0000000000000000e+00 7.3680629972807722e+01
ITEM: ATOMS id x y z vx vy vz
1110 25.6616 2.18693 1.15172 -1.00148 1.41054 -0.984828
3189 0.820736 4.068 0.872598 -0.194749 -1.9045 -0.049872
1541 30.3969 3.96777 0.241766 1.59357 0.680656 2.40512
433 73.2044 2.90388 1.04823 0.578472 -0.816353 -0.442321
79 20.0163 5.58779 0.202189 0.0447851 0.347673 -0.480525
531 0.417313 7.07965 0.581655 -0.942107 1.39562 -0.250017
3881 10.8925 6.56259 0.755603 -0.778957 -0.470461 -0.924182
1628 4.09699 8.31039 0.333999 0.890715 0.712398 -0.692683
925 9.16692 8.25257 0.999398 0.890615 1.18271 1.74274
3306 25.1799 7.57351 0.522557 1.31168 -0.823104 0.893608
1393 9.71164 10.301 0.309292 -1.50215 0.30325 -0.609026
883 10.6443 11.0782 0.999255 -0.843194 0.772292 2.13394
1023 68.5866 10.856 1.06661 0.597164 -2.63665 -0.0816864
2122 69.5868 10.7104 0.427688 1.0964 -0.630397 -1.29383
3201 0.0593995 12.6045 0.499736 -0.331658 -1.36525 0.909081
3516 25.3445 11.8294 0.447086 -0.243724 0.726579 1.50624
1959 61.5771 11.9648 0.788315 0.451885 -1.00715 0.439523
1680 22.3061 15.0443 0.76056 -2.10226 1.20151 0.597639
1170 31.7526 16.2978 0.149065 -0.599821 -0.9884 -0.834562
3530 70.0446 16.9924 1.14635 1.1574 -0.383917 0.0875715
311 71.0593 17.4782 1.00493 -1.01303 -0.795009 0.137459
1908 26.047 18.5647 0.00310208 -1.29794 1.82776 0.0783007
3377 36.4634 19.7712 0.705014 -1.48308 -0.95212 -1.48819
1558 28.3011 21.3741 1.12092 -1.65018 -1.3813 -1.10128
1431 68.3612 23.8132 0.920862 -0.514144 -1.07634 0.199228
3049 2.4395 26.5452 0.626876 -1.46876 0.296373 -0.0544131
30 31.6656 26.2223 0.697448 2.21421 1.05492 -2.83433
604 7.16622 29.5151 0.207521 -0.521692 -2.37008 -0.309223
3872 6.67207 30.8913 1.05553 -0.031358 -0.94281 0.699597
1056 32.3497 33.2276 0.583863 1.02208 -0.876559 0.733469
289 70.579 33.2806 0.116944 0.453993 1.12051 -0.986713
3263 15.1783 34.0548 0.654253 0.612371 0.0578457 -0.297618
3606 2.96608 35.694 0.451382 1.1201 -1.1678 -0.105273
3996 47.5195 0.469815 2.22533 -1.68285 -2.81121 0.742291
1408 40.1831 1.60737 1.74128 -0.631013 -1.36467 1.0969
168 43.7976 1.69116 2.61634 0.226013 -1.1203 -0.276863
2974 19.7727 3.6086 2.39055 0.582073 -0.389411 0.433825
2313 53.6828 2.89116 1.63412 0.686599 -0.222553 1.18586
811 2.77276 7.45946 1.55438 -0.658541 0.7259 0.454285
1537 59.8095 8.93386 2.17616 -1.15507 -1.0312 -0.484625
1113 65.5744 10.5496 1.82835 -0.0305058 -1.88872 1.45902
1484 69.6998 10.0514 1.41696 -0.718153 0.153127 0.0944389
2368 11.2818 12.0114 2.30789 -0.592087 -1.43041 -0.238456
1125 42.8941 12.4613 2.30023 -0.909812 0.278461 2.09062
2175 1.03892 12.7793 1.45748 0.462093 -0.748525 -0.978706
1138 26.8836 13.8022 2.64371 -1.38003 -1.84854 0.259791
282 64.44 14.6918 2.21214 -0.34484 0.906633 0.844934
1283 56.3178 16.2303 2.74385 0.531234 0.90883 -0.451184
3192 53.638 17.7995 1.85056 -0.170276 -2.25843 -0.0400981
1845 59.1354 17.7312 2.59919 -0.468097 1.46273 0.375783
2375 35.9817 18.7135 2.10325 -1.16572 0.0441174 0.629713
3382 60.542 18.9171 1.79361 0.657331 -0.0147262 -0.721897
763 10.9051 20.6499 2.78598 0.556069 1.54883 -1.64206
3787 59.5629 21.62 1.78045 -1.14357 -0.443135 -0.00856081
366 69.4719 23.1244 1.83167 1.05262 0.428173 -0.48815
2656 57.1128 25.1106 1.68685 1.11027 1.10034 -1.39796
849 1.23237 25.938 1.99029 1.02065 -1.17846 -1.93483
2833 47.6377 25.6793 2.58735 1.74779 0.827271 0.36682
271 72.0566 26.1433 1.44456 0.387869 -0.61225 0.589487
2200 28.6846 27.1327 1.55418 0.518237 0.162606 2.28817
1816 43.7482 27.4163 1.54834 1.31123 1.32316 1.59802
1843 43.7707 27.4318 2.65593 0.909767 -0.425476 0.3939
3912 63.9518 28.6807 2.29006 -1.20125 0.196646 1.39786
2828 36.7376 29.9415 2.34798 1.82963 -0.369748 1.23329
1355 22.4428 32.3169 2.23433 -0.725338 -0.899663 0.205142
952 21.5259 36.5642 2.73523 0.761951 0.0955151 -0.0669586
546 11.4035 0.0673584 4.09811 -1.15354 -0.102328 -1.48391
1903 13.2407 0.257239 2.95151 -0.163971 -3.20319 -1.08654
1868 21.9588 1.16891 3.36871 1.18472 1.19843 -0.910363
3920 44.9664 2.37083 2.93086 -0.579496 1.57371 0.351817
3538 2.86559 3.17133 3.70665 0.336536 0.472532 -1.08591
2818 39.1985 5.49959 3.034 -1.31596 0.301177 -1.85758
1137 68.9906 4.76741 3.35754 -0.678157 -0.907 1.36831
1642 44.2983 6.99356 3.96398 -1.10958 -1.59916 -0.326453
535 10.2867 7.2952 3.12962 -1.35504 2.37498 0.632047
2498 49.5914 7.54506 3.95192 -0.294242 0.18908 0.764106
1856 66.4043 10.9858 2.86178 -0.288509 0.816777 -0.745658
3926 2.57389 12.2868 3.49723 -1.02495 0.186937 1.80922
1723 43.4255 11.7277 3.82266 0.178268 0.618959 -1.21323
3235 58.4416 12.546 3.31117 -0.438112 0.681163 1.67029
3481 6.92537 13.3332 3.10219 -1.50746 -0.437114 -0.124014
1041 26.1152 13.4387 4.2332 -0.0224939 0.343696 0.277777
2923 0.567744 14.2802 2.91168 0.896442 -1.19765 -0.537176
776 18.5594 15.0929 2.95008 -1.23562 0.690349 0.64561
3635 27.9266 14.3192 2.9267 0.902266 1.15937 -0.227381
795 50.0556 16.5873 3.79511 0.540916 -0.921502 1.80147
3012 9.33283 17.6455 3.46813 -0.771657 -1.89846 1.35065
2402 43.4168 17.4766 4.21626 -0.602977 0.0892205 0.457991
92 10.9358 19.8096 3.30349 -0.328124 1.0932 0.840588
3014 37.8634 18.7121 4.05147 -0.849751 0.669198 1.68603
3064 61.0599 19.0895 3.56785 -1.14701 1.42049 0.294153
3890 0.595545 20.4632 3.75521 0.450192 1.27075 -0.225773
1029 25.7198 20.0068 3.2677 -1.43948 -0.122246 -0.233166
2638 49.6449 20.0814 2.92983 -1.3268 -0.304164 0.733955
3933 62.1146 21.2293 3.17674 0.410645 2.1901 -1.31768
44 46.2895 22.2623 4.12131 0.613362 0.933399 0.17566
52 2.58827 24.6378 3.09604 -1.38088 0.104396 0.374605
827 8.94374 25.2664 3.58603 -1.111 0.98798 -1.07091
147 49.5621 24.5933 3.12112 -0.367119 1.86115 0.674352
1196 1.54048 26.7925 3.64083 0.066344 -0.405208 -1.71179
3589 37.3597 27.8033 3.12998 0.570844 1.01379 -0.724723
2837 48.2298 27.9607 3.61736 0.495132 -1.29894 -0.053091
1217 36.6237 31.0827 2.90552 -1.04992 1.52491 1.65621
1486 61.6655 29.8662 3.89712 0.156567 -0.165249 1.30002
969 65.2442 30.5746 3.34173 0.202058 -1.19562 2.52895
1001 2.30845 32.3182 3.70397 1.1897 0.228683 2.5971
3781 3.74338 35.3395 3.63541 -1.36277 -0.154676 -0.640476
2472 14.3922 34.1962 3.2195 0.261925 0.0977884 -0.871683
1262 40.9504 34.3003 3.23711 0.0356383 -0.0934454 -1.93822
2124 5.63728 0.579119 5.43218 0.833043 0.274826 1.26716
2547 52.3781 1.21822 4.9679 2.20228 -0.111154 2.14316
273 66.255 3.19125 4.88324 -0.538032 -0.51959 0.479218
2382 22.5294 7.0779 5.40194 2.25197 -0.941109 0.933662
3392 36.9014 5.92209 4.58516 0.337868 0.389837 -0.779013
416 43.1288 6.28976 5.15587 -1.32463 0.641346 -1.79088
1213 66.7958 5.77354 4.25828 -1.83479 -1.17174 -1.33454
3570 17.5628 8.04282 4.34215 1.60235 0.365543 1.11225
3160 9.02688 12.4849 4.73088 0.77547 -0.269217 0.303192
582 6.94136 14.1306 4.7339 -0.266415 2.03993 0.643534
2332 24.3362 13.5459 4.50472 -0.972178 -0.687082 -0.276832
1774 34.99 13.5074 4.61177 -0.717248 1.47963 1.1895
756 57.862 13.315 5.20979 -0.177042 -0.66172 0.0890767
747 68.9425 13.9915 4.43128 1.12988 -0.362197 1.08625
3512 42.926 16.3963 4.97962 -0.0179587 -0.642564 0.0501042
913 55.624 16.8943 4.98471 0.168848 0.150666 -0.556636
1444 16.7139 18.0267 4.98086 -0.671219 -0.0600726 -1.5184
2535 14.2285 19.4547 4.37689 -1.47798 0.020305 -0.288803
898 15.4183 19.4225 5.5832 -2.33881 -1.44699 1.38839
3183 19.3759 20.8444 5.18394 -0.0346303 -0.035625 1.15087
3742 66.9576 19.8741 5.47758 1.37254 0.626319 1.17165
2763 31.7971 23.2818 5.14682 -0.765458 0.266744 0.323732
1828 35.7652 23.6607 4.34391 0.169954 0.686621 -0.773525
527 14.3017 24.2282 5.00887 -0.543559 -1.68504 -1.85834
3375 29.047 25.0549 5.41492 1.61253 0.152058 0.737029
3134 17.2052 25.5223 5.20446 -0.365131 0.581227 0.680362
2296 33.7665 26.4608 4.46512 -2.39439 0.928609 0.272369
1414 62.1937 25.5871 4.3787 0.296297 -1.08663 -1.68138
2468 19.6449 28.6253 5.44042 -1.23547 0.212319 -1.44887
2266 72.3059 28.6017 5.44237 2.15646 -0.206704 0.252597
390 21.897 32.2239 4.39383 -0.199832 0.625371 1.05536
3019 66.4008 32.243 4.76814 1.01833 0.756468 -0.411073
3605 6.99699 33.8795 4.89669 -0.617888 2.08547 -2.17017
3803 31.1498 33.1255 5.35751 -1.32782 0.0254051 0.0946517
618 14.0074 36.7162 5.25613 0.534635 0.876295 0.560572
2094 7.56893 1.51039 6.59706 0.988152 -1.11133 0.243015
1328 71.3643 2.36313 6.44661 1.38301 0.127594 -0.371204
199 25.571 3.97865 6.2225 0.0372121 -1.0033 0.281746
2884 48.711 5.36959 6.44239 1.39194 -0.952938 -0.732179
3706 72.224 4.58865 6.85731 2.20507 -0.530727 0.538508
3917 36.2614 8.2859 5.73135 -0.104138 0.0954341 -0.705296
1241 65.6911 7.88571 6.16918 0.193902 -1.8415 0.181825
3911 40.5847 11.0032 5.68335 0.689861 -0.393688 1.2536
1244 48.9127 10.2185 6.01981 -0.480471 0.00805898 -0.646094
2185 53.539 10.393 6.57847 -1.11278 -0.824136 -0.293712
1914 20.42 12.745 6.75359 0.134268 0.719237 -0.281454
3518 50.3925 12.435 6.45917 -0.0650794 0.0708254 1.75172
790 60.684 13.6535 6.86675 0.341811 -1.38985 0.267416
2889 16.157 14.6582 7.02472 -1.38587 0.83329 -0.22362
2132 26.511 15.1271 6.8978 -0.177459 -1.27461 0.059104
1824 48.3538 14.9698 5.87051 1.19416 -1.03705 -0.0869008
9 50.0756 14.2702 6.91339 -0.594936 -1.54558 1.84315
1795 72.4916 15.2692 6.4392 1.57827 -0.0880226 0.203697
1301 72.9889 14.3646 6.34537 -0.948729 0.888707 1.47838
2930 13.3884 15.6352 5.94614 0.173474 0.557186 -0.233615
609 73.3024 16.8986 6.63738 0.203577 0.5959 0.736129
3082 60.5983 18.5352 6.88132 1.84406 -0.50026 0.451093
1991 20.8304 20.5696 6.55521 -2.32948 -0.567003 0.804122
1552 42.3305 20.1052 6.85698 0.22189 0.546513 -0.515508
757 41.7895 20.253 5.7806 0.230204 1.05971 -0.0642897
3928 5.27689 22.5519 5.81748 0.480465 1.11576 0.0497727
2706 50.4336 22.3025 6.90522 -1.84751 -0.495314 0.512585
788 27.7573 23.2622 5.87854 -0.740451 0.00821799 0.363451
197 34.2009 23.1949 5.83114 -1.02126 -2.22745 -0.551971
826 53.6924 23.1034 6.01207 0.0423724 -0.796793 -1.1817
2457 44.3402 24.6072 6.66713 1.45815 -0.410015 1.28594
1947 34.7518 26.3757 6.64912 -1.10551 0.992558 -0.0378069
1189 56.785 27.6297 5.84847 -0.443263 -0.7863 -0.746344
3165 65.9953 28.3201 5.8877 0.218111 -0.41497 0.497943
370 46.7805 30.4494 7.00364 -0.772233 0.650101 1.2474
3771 34.5462 32.5404 6.21162 -0.893516 -1.17913 -0.460885
2104 6.87802 32.9281 6.40001 0.744961 -1.24316 -1.59159
1934 41.0059 33.0954 5.69351 1.67517 -0.346202 -0.917789
3361 16.3427 34.2036 6.39508 0.860914 0.769006 -0.753816
3915 17.6999 35.1865 6.31684 0.194506 0.526248 -1.67548
324 62.3483 34.0292 7.02729 -1.66451 0.727818 1.6981
225 27.4525 36.1811 6.92555 -0.553974 0.690907 -0.903569
1604 46.6776 0.371703 7.21227 1.33578 0.537339 -1.98518
2340 4.5133 2.17854 7.30711 -1.29005 2.03688 -0.365742
3901 46.5711 2.73426 7.49716 0.476852 0.886814 -1.08587
816 70.6379 2.48605 7.19614 -0.0876971 -0.965735 -0.580525
2060 0.277178 3.74769 7.12722 0.395519 -1.37279 -1.33537
2617 62.2304 3.53888 8.15002 1.41755 1.26986 -0.693716
1532 33.1746 4.75589 8.39605 -0.658105 -0.817707 0.465444
215 43.9465 5.00858 7.26495 1.00938 1.73029 -1.19057
3862 73.5009 5.48786 7.59074 0.00846258 -0.67395 1.0856
2568 46.6436 5.99924 7.77989 1.31107 1.03078 -0.0442139
3252 41.7396 8.18664 7.56113 -0.816535 1.08885 -0.825547
2421 66.6642 7.70435 8.39994 -1.88624 1.01893 1.56583
3507 16.1793 8.78342 7.77354 -0.852247 -0.430309 -0.669789
2947 35.0932 10.3897 8.1505 -0.309087 -0.529579 0.799288
76 46.2273 10.3428 7.8544 -0.462093 0.960276 -0.568633
1316 72.7791 12.5738 8.11694 -0.618363 -0.468259 0.0805203
1830 7.59109 14.7987 7.31137 -1.11697 0.428104 -0.867581
2399 38.0336 16.1137 7.73191 -1.82238 -1.02116 -0.0113699
3784 18.1075 17.5967 7.13306 0.85067 -0.601221 -0.299841
2850 36.0159 19.0833 7.09237 0.770089 -0.706664 -0.0838792
2148 15.4423 22.8544 8.29319 -0.680438 -0.548742 0.342289
1078 23.9112 25.4206 7.48064 -0.038877 1.99081 -0.234153
2732 50.6108 26.2738 7.81531 0.220588 0.771465 -0.274955
621 41.0978 28.6393 7.68196 -0.3438 -1.68112 -0.34663
2134 44.8689 29.7805 7.26568 -1.24165 0.129939 -0.233643
2019 2.94726 31.3423 8.06307 -1.51606 -0.551562 0.871718
2358 38.4036 33.183 7.67924 1.29244 0.185648 0.664453
2523 46.7737 33.8352 7.25901 -0.514499 -0.0268439 -1.53775
3406 55.2686 33.6578 8.46777 0.0806851 -0.192909 -1.53064
3178 0.276433 35.8482 7.58889 -0.00395352 -0.727851 -0.0765563
2579 3.09716 1.95156 9.4984 -0.879032 -0.662312 0.57701
121 44.809 1.58032 8.89993 0.185118 -2.46491 -0.437917
3887 57.0581 1.66347 8.77257 -0.00974515 -1.04997 0.654904
977 71.1199 2.70103 9.66885 -0.0916865 1.57288 1.29385
2820 71.7481 1.59753 9.17714 0.627852 -1.323 1.52639
1721 8.97895 3.40356 9.64746 0.596337 -0.00767066 -1.01531
1740 10.8992 3.49153 9.91106 -0.290695 -0.307938 -0.142342
2875 57.2008 3.94417 9.64324 -1.09157 -0.709414 -0.409253
3544 66.3755 4.01013 9.89661 0.875922 0.673334 0.809648
1497 12.4922 5.64674 9.67168 -0.429864 1.18697 1.99186
1058 29.2756 6.87078 9.72648 -1.23699 -0.411045 0.174662
2420 30.2215 7.27011 9.36674 0.938351 -0.0629441 -0.357703
974 53.8823 7.43704 9.8102 -1.68892 -0.861764 -0.510421
2161 65.4532 7.51148 8.64122 0.304382 -1.12649 -0.515563
3450 53.5931 9.27101 9.70695 -0.0113563 -0.522033 -0.0139525
1360 16.9455 10.2012 9.78211 -0.911032 0.0579193 -0.983557
3875 31.4177 10.3679 9.62854 1.1091 1.30464 0.0333748
1806 42.292 11.1232 8.87021 -2.37987 -0.653787 0.01848
869 53.3838 10.5224 9.88937 -0.157563 -0.276418 -0.28459
2224 40.3366 13.8236 9.62266 1.07463 0.379604 -0.673602
3115 44.8137 14.1497 8.55269 -0.272101 -0.980503 -1.20859
663 4.34895 15.4133 9.90517 0.144245 3.17701 -1.42035
573 58.2428 14.989 8.9302 0.663071 0.57799 -1.47367
2899 23.0193 16.5974 9.7359 -1.87086 0.264995 -0.0780719
1739 68.6333 18.4049 9.56076 0.732372 0.0702249 2.73864
281 13.6075 18.63 8.99611 -0.771729 -2.02785 0.527743
24 38.6319 18.9337 8.60774 1.69331 0.564776 -0.797882
1055 65.3183 19.1396 9.48049 0.538324 0.926479 0.530225
495 3.857 21.1686 9.45686 -0.436938 -1.39924 -0.205054
1373 21.1574 22.3843 9.48404 0.727513 -0.642351 -1.25716
2681 38.0081 23.3126 8.9518 -0.20391 -0.00591855 1.20247
1779 46.5719 23.919 8.59462 -0.222675 -0.0633528 1.54105
3517 69.6243 24.0462 9.90733 0.349974 -0.165557 0.429318
2062 19.8159 24.8378 8.839 -0.615884 -0.440192 -0.0101866
3327 57.778 25.2877 8.97803 0.530478 -0.2427 -0.802846
1625 73.6131 25.8994 8.66601 1.07435 -0.950655 -0.718384
3008 5.19414 29.0171 8.80088 -0.00317613 0.216646 1.00272
2921 16.8297 29.9453 8.73281 1.20589 0.0833229 0.732981
19 19.9736 30.3234 9.70253 -1.18279 1.24008 1.20538
3238 59.6515 31.1776 9.18436 0.0215143 0.102411 1.1489
682 33.1489 32.9431 9.29803 -0.112402 0.385946 -0.320959
3015 35.1379 33.9609 9.91576 -1.41508 1.14584 3.01231
50 34.2107 34.3429 9.27733 -0.285756 -0.222613 0.586835
602 51.8659 34.4005 9.27114 1.20154 0.905512 0.456446
1083 44.6915 35.706 9.19212 0.260528 1.82653 0.477945
1063 45.6807 35.5002 9.5903 -1.24642 -0.0107166 -0.371555
3750 62.1921 35.4491 9.05017 1.09499 0.516585 1.01463
2244 70.9426 35.7753 9.37689 -1.17549 0.316183 0.339756
3871 17.501 0.278258 10.843 -0.179177 -0.308007 1.54675
2270 27.3413 0.897735 10.7959 0.544119 -0.666815 1.13401
656 69.981 1.1989 11.2308 0.436682 -0.861369 1.18184
1632 12.3905 1.79153 11.1001 -0.967568 0.868127 -0.00207239
2483 11.521 2.41438 10.4948 0.0674248 0.923774 -1.02252
1848 70.7485 1.75043 10.4513 -0.301015 2.14969 1.65496
932 14.9147 5.28455 10.6515 0.784966 0.266096 1.00724
1878 18.6415 4.57741 10.5736 -0.62172 -0.316862 -0.132732
3057 33.1546 9.28878 11.2837 1.44092 -0.969471 -0.87762
426 9.55489 11.4502 11.1648 -0.122437 -1.69493 0.117586
2971 40.7898 14.0391 10.63 0.894855 1.15046 -0.0521946
5 19.0431 15.7179 10.649 0.200544 -1.34594 0.914536
3969 35.2935 16.9865 10.5264 1.09668 0.643787 -0.9729
1089 15.8527 18.7053 10.8231 -0.434776 0.0780328 -0.684902
2853 12.3007 21.6622 10.8185 1.126 -0.0274111 -0.924501
2010 27.4036 22.5231 10.8888 -1.64858 0.995049 -1.32063
2424 57.9975 23.8139 10.6411 1.25522 1.6039 -0.771364
751 21.9614 25.0824 10.4429 0.980544 0.269608 -1.90915
414 39.4961 25.2658 10.0995 -0.682087 -0.245396 -0.567312
3321 15.3662 26.9 10.2892 0.782278 0.36945 0.816335
2560 57.8712 25.8411 10.5918 -0.583861 0.269399 1.1732
2784 17.3986 28.0843 11.2641 0.780474 1.18838 -0.932908
3832 49.1859 28.6969 10.9574 0.583226 -0.253109 0.273114
2214 0.922562 31.4681 10.5651 0.306925 -0.540895 0.945959
1654 23.2228 31.4343 11.1619 -1.00265 -0.478859 0.198294
1331 52.0526 34.4459 10.4424 0.194595 0.936568 -0.262831
1666 53.4384 34.1583 11.0537 1.80922 -0.0616128 0.71069
2216 38.5685 36.5488 10.6676 -1.69862 -1.68371 0.937719
3363 59.4216 36.2521 10.5055 0.867569 -1.87259 0.61752
3638 46.9643 1.41208 11.5678 -1.04759 -1.19569 0.705153
3607 65.8344 0.54508 11.8412 0.151328 0.498117 0.998684
3983 1.94865 2.51881 11.7611 0.586201 1.1837 0.897018
300 54.9462 1.70289 11.58 -3.00482 -1.11822 -0.110114
2168 72.6892 1.50689 11.9958 0.310442 -0.818226 -0.646364
57 20.7339 5.60684 12.3932 -0.51835 -0.122449 0.184413
2963 38.1429 5.20109 11.3356 2.33336 -1.5164 -2.0589
599 6.80362 6.0462 12.2985 0.442586 0.0431229 -0.94483
1466 47.5352 5.97419 12.2042 1.25813 0.188627 0.526617
1556 64.8274 5.75944 11.5429 1.68624 0.721643 -0.0164365
3159 1.01286 8.15934 11.5085 0.572673 -1.67178 -0.802302
1572 18.5662 8.26963 11.6103 -0.768567 -0.708398 0.760944
1564 27.0434 8.34028 12.6212 0.260492 0.55116 -0.531024
3678 31.3678 8.0418 12.6589 0.275589 -0.459331 -0.596665
3304 64.0275 7.27324 11.9438 -0.549195 0.464817 -2.45524
2411 45.0672 8.97081 12.6529 -0.884929 -0.22703 -0.132229
863 6.83236 10.6993 11.4145 -0.317624 -0.274316 -1.14996
3347 17.3691 11.2042 11.7721 0.38282 -0.355577 0.686147
1304 41.0483 10.0703 12.4753 0.724383 -0.0535016 -1.26778
103 46.885 10.0636 12.0104 -0.651203 1.22327 -0.900623
2509 13.7922 12.2918 12.3468 -0.60176 0.55382 -0.316497
3498 0.749443 13.1355 12.7392 -1.24268 0.130065 -0.104449
2026 44.5281 14.1006 11.802 0.109178 -0.734457 0.039452
1697 48.5742 13.4659 11.6655 0.263915 1.19176 -0.95695
2119 56.6739 13.6317 12.3012 0.55103 -0.0047241 -0.425518
510 21.7853 14.5049 11.7511 -0.453994 0.253641 0.514889
2456 35.5527 15.251 11.6995 -0.927565 -0.634707 -0.305056
2608 0.543858 16.1874 11.8733 -0.0716782 1.17836 1.13162
2801 31.8546 16.7662 12.0095 1.60049 -0.390314 0.307307
3701 35.1969 16.3746 11.5002 0.726664 -1.14033 -0.0349181
1036 65.5202 16.6715 11.5588 -1.04445 0.779838 0.488516
2441 36.6383 17.2846 11.9928 -0.521863 -1.34333 0.179681
1030 38.0725 18.1125 11.5227 2.11368 -0.123568 -0.686534
793 33.5463 19.1106 12.5636 0.167847 -1.62437 -1.26868
3108 51.4971 19.2332 12.5577 1.19281 -0.490241 -0.26958
2043 21.8981 20.3858 12.0381 0.0118193 0.116055 -0.655591
2304 65.2592 20.8143 11.59 -0.894202 1.14711 -0.58092
3032 22.4787 21.2944 12.4208 0.458611 -0.00255563 -0.574718
3834 52.3318 23.6126 12.6653 0.820231 -0.0107528 0.348669
166 52.2852 22.7381 11.4106 -0.941889 -0.941207 -0.617651
745 60.5643 23.7243 12.1177 0.790686 0.683882 -0.251555
2685 56.986 28.1317 12.1467 -0.725228 -1.22728 1.67556
3601 43.6449 28.4677 11.6967 -2.05883 0.651024 1.17771
3704 59.8769 29.3749 12.0217 0.91669 0.728415 1.53144
3357 72.3461 28.6511 12.2837 -0.630533 -0.0357352 -1.55058
3006 18.5917 29.8535 11.4243 0.334123 1.34007 1.27404
678 9.11945 34.367 11.8909 -0.20916 -0.499231 0.684403
1976 58.2878 35.6307 11.618 -1.08845 0.106212 0.289337
2497 25.4941 2.23594 14.1044 0.413138 0.240491 0.435079
1453 34.3717 2.39492 12.8861 -1.04872 -0.242198 0.0329832
1641 26.8029 3.24903 13.7955 -2.43133 -0.501033 -0.730702
77 20.2589 7.44468 13.2179 0.158064 1.57226 1.51675
1905 26.5962 7.41383 14.1684 0.611376 1.27551 0.740424
120 44.2642 7.0896 13.9643 1.38565 0.54299 0.0250305
2046 32.2955 10.9311 13.8351 -0.290252 1.46141 0.0531065
356 44.8962 10.7822 13.3365 0.43874 -0.525724 -0.98635
3301 4.31478 11.5056 12.9408 2.20703 -0.780522 0.238835
3193 49.4871 11.7108 13.1189 -1.18732 0.168967 2.50727
3542 15.2647 13.3295 12.8132 0.58969 0.70792 1.34279
3420 58.41 13.7447 13.9738 2.7586 -0.285418 -0.895195
1352 61.159 13.2095 13.5053 -0.330846 1.50889 -0.88127
3548 10.8382 16.9006 13.3604 -0.394344 1.44276 0.176094
799 40.5981 16.3956 14.0518 -0.180213 -0.0300194 0.359469
1609 73.3907 18.2872 14.0686 0.79722 -0.720064 -1.43769
1543 8.04876 19.8966 13.5902 -0.831886 0.874789 0.397114
2527 33.6846 21.3264 12.9353 -0.480669 -0.834377 0.782334
450 65.4252 21.5278 12.8724 1.91785 1.81212 0.767497
3892 35.2168 22.7281 12.8996 0.325187 1.03973 -0.442152
2040 52.1273 25.2211 12.7771 0.458502 -0.124429 1.55614
2852 3.85705 25.5911 13.1512 1.74138 -1.43947 0.613132
435 27.1971 29.6276 14.1591 -0.227334 -1.4074 0.228459
2972 1.03353 35.301 13.0467 -0.111567 1.60226 -0.439314
377 27.9207 34.5272 14.033 -0.609893 1.11229 0.199766
2791 12.9478 0.946691 15.4807 -1.76797 -0.653368 0.15027
750 15.8629 1.17325 15.268 -1.16537 0.209543 2.25852
3541 23.8534 0.282376 15.1745 0.351925 0.42986 0.149669
3843 69.3757 1.21283 14.2129 -0.805769 -0.354921 -0.564148
260 39.48 2.139 14.9937 -0.829655 1.05414 1.41274
3618 3.38214 4.20474 15.3177 0.362813 0.175634 -2.20668
1327 42.2796 3.56074 15.0272 0.840848 -0.648948 -0.422708
2672 50.9815 3.93567 14.7024 -2.47433 1.31405 -0.865735
2725 13.2123 5.02259 15.1056 0.0811212 1.90018 -0.653024
1659 28.933 5.34162 15.1928 1.14726 -1.10192 -1.32212
911 31.1149 4.84316 14.8075 0.633292 1.80786 -0.233753
3611 47.4885 4.65851 14.9835 -0.276944 2.58799 -0.450936
249 44.5672 6.22646 15.0958 -1.03236 0.261776 0.938795
3369 46.0873 5.80853 14.2711 1.41053 0.327838 0.537725
749 47.8085 7.02071 15.0463 0.30032 -0.126144 1.32658
3456 61.7459 6.50551 14.6363 -0.493107 0.00907825 -0.444031
3432 59.8848 8.06205 15.1822 -1.64067 0.121955 -0.279958
2429 17.86 11.8762 15.2109 -0.562388 -1.24586 0.159496
915 67.2266 12.5665 15.4285 0.26494 0.110017 -0.278869
2176 50.3373 12.9029 15.5267 -0.935724 -0.122775 0.517062
947 29.6638 15.7382 14.7511 -0.85914 -0.546009 -0.42979
2722 32.6296 16.9152 15.0952 -0.805667 0.0650574 0.843989
2326 3.55345 17.1202 14.7197 1.178 -0.0861342 -0.939073
1840 34.1879 17.5446 15.5034 -0.677053 -0.282306 -1.77393
2160 49.649 17.2268 15.4653 0.611536 -0.437405 -1.42856
267 56.5952 17.7012 15.5647 -2.60044 -0.0754127 -1.53906
2831 11.4343 20.0043 15.4418 0.535972 1.2282 1.17253
3388 35.2751 21.008 14.8907 -0.0591029 -1.71373 -0.0495275
1254 62.2661 20.146 14.625 1.62268 1.03679 -0.916781
1618 58.3181 21.3422 14.6068 -0.223522 -0.557912 -0.047099
2407 10.6795 25.6139 15.3349 1.22029 -1.0468 1.37106
1578 20.6302 26.4434 14.4209 0.276773 0.0415456 0.0577091
1743 40.5469 26.322 14.2847 -0.0275341 -0.622187 1.58689
1271 21.9636 27.1659 14.6285 1.50917 0.471255 -1.30215
383 24.3012 27.8228 14.8955 -0.863948 -0.820188 0.131344
1911 58.853 28.0094 15.3322 -1.45744 -0.289883 -0.243139
3886 65.7676 27.4727 14.4109 0.577219 -0.68709 -0.450901
1246 19.6089 28.7763 14.207 0.54577 0.243552 -1.64121
3741 47.4336 31.2776 14.5437 2.35034 -0.4399 -0.931861
1096 47.343 32.0837 15.3354 0.847103 -3.49477 -1.23106
1071 50.0154 31.7013 14.2183 -2.27897 0.0365515 0.692402
3586 21.8269 34.007 14.6032 -1.0657 0.580059 0.750975
3953 4.35457 36.7939 15.1422 -1.09072 0.0705763 -0.0875685
1236 10.1649 35.7949 14.6273 1.01121 0.514485 0.348787
3884 15.9817 2.60185 15.6764 -1.11606 1.30719 -0.687531
780 35.9987 1.64898 16.3378 -0.111799 0.808635 0.292866
56 14.7611 6.15558 16.0119 0.171605 -1.04801 0.535822
3287 17.7206 6.23272 15.9566 -1.03187 -0.0358835 -0.375612
1888 43.3064 6.64544 16.3894 1.17168 0.0802232 0.881331
1711 46.264 5.74193 15.8807 -0.750869 -0.231501 -0.761369
2555 47.7687 6.46771 16.202 -1.95257 -0.467578 -0.742555
1747 64.522 7.75869 16.9454 -0.834763 1.54219 1.09871
453 32.9521 9.43431 15.8942 0.651538 -2.94825 0.37164
2712 8.06906 9.94577 15.928 0.570062 1.49443 -0.589759
1506 39.338 10.9129 16.5669 1.06691 -0.910544 -2.10222
655 40.2711 10.8584 16.0165 -0.350057 -0.567466 -0.204844
2061 20.0532 11.4219 16.3394 1.02404 -1.11457 -1.55568
1907 30.8942 11.939 15.7194 1.73775 -0.00352854 -0.417679
2181 38.3173 11.7551 15.643 0.091238 0.583545 1.6484
978 49.5922 11.6712 16.6152 0.383149 -0.466091 -1.63462
2673 59.1102 12.5981 16.1297 0.552937 -0.0175957 0.222892
961 15.8712 13.2794 16.305 1.43958 -1.43758 -0.80225
1554 68.0431 13.1864 16.5022 -1.67309 -0.324107 1.70493
229 14.0223 14.9917 16.2671 -0.299531 0.734938 1.3712
2743 3.26186 16.3846 15.7378 -1.96287 -0.480026 0.840222
1858 20.9558 15.5874 15.5902 0.797283 0.696113 -0.575542
272 24.3571 16.8684 16.9689 -0.698674 2.44908 0.635954
906 12.6359 19.7183 16.2143 1.25465 -0.883826 0.645278
941 23.5334 18.6165 16.5675 -0.927791 1.08561 -0.380749
3167 8.39196 20.2253 16.3884 0.767974 -0.410018 -0.907965
810 24.3397 19.9693 16.4153 -0.505513 -0.977285 -0.0684085
3590 5.08303 22.8472 16.2328 -0.942157 0.901056 -0.0766547
3335 7.77691 23.1126 16.8673 -0.171735 -0.468807 1.76806
363 32.9691 23.9122 16.9128 -0.932314 -1.99152 0.950915
1192 68.3192 23.4869 16.5169 1.28069 -0.592689 0.107427
1450 71.863 23.1245 16.3206 0.76912 -0.38732 -0.794956
775 29.1898 24.8926 16.3952 2.06937 1.92323 -1.00023
3840 6.10125 26.2045 16.8119 -0.145483 -0.145382 -0.356879
1620 72.3518 25.9196 15.6124 0.212054 -0.762849 -2.26533
3129 24.2002 27.094 16.1292 1.05106 -0.711408 -0.00633833
645 44.9521 27.2476 15.6149 2.07378 1.23137 0.4037
1398 4.17516 28.8308 16.0937 1.03237 0.257874 -0.568307
1551 42.6493 32.1125 15.8498 -0.686572 0.573852 0.482765
821 14.1632 33.2435 15.7352 -1.02711 0.612008 -0.554862
3153 60.8185 34.9096 16.9103 -1.34028 0.0906776 0.150151
513 18.644 35.6574 16.3602 1.49663 0.1913 0.986975
269 38.3364 36.585 16.6282 0.09769 0.0860832 -1.46673
1932 50.6458 35.9769 15.7459 0.473388 -2.39427 1.11487
3571 7.31958 0.991675 17.6594 -0.347049 -1.47986 -1.24876
850 68.3663 1.29246 18.3125 0.175675 0.161655 -1.02123
1009 70.4771 1.392 17.827 -1.86956 0.187626 0.890938
1722 39.126 2.22204 17.5053 1.16253 -0.0089731 -1.29249
1565 60.9184 2.4697 17.1672 -0.530934 0.825037 1.75348
805 20.9927 3.31216 17.117 -0.563412 0.131269 -2.08945
3340 30.4244 3.10354 17.9345 -0.384789 -0.848548 -0.0963542
842 68.0661 3.94179 18.1 0.653078 0.513783 -0.317617
2758 36.4681 4.31343 17.2645 0.589375 -1.71113 0.27122
238 36.5214 5.35396 17.3803 -1.05635 -1.08834 -1.18424
1094 2.93584 5.89021 17.2919 -0.904212 -1.01049 -0.6277
2174 10.3675 6.10763 17.2633 1.10463 -0.737305 -1.45126
973 11.1853 8.18508 17.0652 0.0441996 -0.24884 0.463391
632 55.7754 7.4761 17.7313 0.854733 0.875786 -0.664681
3249 70.7753 8.0864 17.4414 -2.1878 -0.944828 0.893304
406 42.7634 8.57109 17.668 0.874519 -1.23908 1.83561
226 67.8928 9.61557 17.8555 -1.41556 0.29762 0.282176
1152 32.1364 10.2231 17.151 1.49322 0.134583 1.41139
3495 60.2191 10.3018 17.8453 1.45992 -0.808702 0.80427
3877 62.5562 10.5125 17.3686 -0.880639 0.339664 0.774607
3239 6.91375 11.9765 17.3079 -1.00809 -0.676856 -0.838556
3065 8.17327 12.5898 18.3194 0.183142 -0.443216 1.01196
162 33.4067 12.0015 17.5882 1.42812 -0.523814 0.265055
3976 38.4954 12.3094 17.9224 -0.320631 -1.09248 1.4967
3309 45.9257 12.0539 17.1481 -0.256453 1.27553 -0.481431
1651 66.0661 12.7397 17.1139 -0.632407 0.754142 0.0664339
1144 70.9323 11.3852 17.4696 0.0676691 0.610028 1.68741
2570 1.5285 15.4939 17.9459 -0.816097 -1.46068 0.814458
1149 58.4672 14.3219 17.0598 -0.566737 0.723105 -1.97832
74 22.6757 16.2391 18.1628 -0.146503 -2.19913 -1.07735
358 33.5672 17.2913 18.0683 1.21656 0.969461 0.365432
1626 35.7343 17.0645 18.3219 1.41473 0.199897 1.74047
2208 30.8595 19.8001 17.7465 0.778683 0.571107 -0.517821
2829 32.9727 18.628 17.4478 -0.792102 1.14424 -1.08634
2156 4.36698 21.0825 17.8284 1.07566 0.543856 1.19122
1159 11.1178 22.2241 17.6327 1.16974 0.381665 -0.851742
714 57.8409 23.5166 17.3629 0.262259 1.84495 0.725185
876 15.2019 25.2483 18.1538 -0.174796 0.995946 0.0265401
2711 16.8177 24.2652 17.2149 -0.400716 -1.03561 -0.501362
3593 15.3069 26.4737 17.3656 0.893995 0.219934 -1.17
2086 23.317 27.735 18.3515 -1.04156 -1.28236 -0.713374
1967 46.3727 28.3005 17.2415 -1.06124 -0.133593 -0.328001
729 26.8566 28.9567 17.498 -0.904004 -1.29151 -1.34384
474 5.78153 30.6083 18.021 0.0881039 -0.540815 -1.14701
3026 31.5285 30.9111 18.0259 -0.750692 -1.83177 0.441604
88 31.4218 30.0109 17.3759 -2.08429 -0.861779 -3.10527
1205 38.1758 32.54 17.3986 0.0147298 -0.987276 -0.925708
835 43.3898 32.5723 18.2483 1.83156 0.0423116 2.43362
2145 44.0728 31.8249 17.5312 -1.19021 0.469515 -1.79599
3125 68.8153 31.802 17.6383 -0.449544 0.272282 0.00856067
385 45.6541 33.4974 17.9435 0.114634 1.08372 -1.19855
910 64.3958 33.4046 17.0554 -0.157239 -0.134726 0.626661
3318 19.6674 36.3486 17.0754 -0.324602 -0.737368 -0.340157
3515 71.6986 36.1144 17.2243 -0.186224 -1.79415 1.97511
1234 20.2159 1.05849 19.7481 0.471128 -0.624214 -1.18643
3289 28.0078 0.612607 19.0809 -0.257105 -1.31946 -0.442962
1329 41.8667 0.4047 19.7838 1.45618 0.884996 0.0973789
2736 31.8244 1.63654 19.4652 -0.272245 0.719777 -0.452003
2319 68.4096 2.54072 18.4553 2.62894 -1.56998 -0.267834
2519 38.9756 4.12671 18.5616 1.76123 -0.712932 -1.67383
1512 52.1751 3.10289 18.5369 -0.163425 1.76046 -0.1041
1231 59.8276 4.11269 19.471 1.32138 0.142099 0.266015
2 1.66897 4.32625 19.0906 0.492767 2.35481 -0.481129
1112 52.791 4.98368 19.7356 -1.37266 1.73152 1.45434
442 11.851 7.04541 19.0636 -0.371518 1.79852 0.746148
2729 37.7721 6.41143 18.6629 0.418171 -0.0877185 0.296287
861 39.7173 5.96523 19.4588 -0.156033 -0.0686212 -0.866875
325 0.517478 7.30797 19.2177 -0.622276 -0.327751 0.0933065
1174 6.5693 7.33968 19.2892 0.568578 1.49393 -1.84788
1615 5.87827 8.59624 19.0056 0.208542 1.41611 0.825117
1734 11.0947 10.8393 19.7594 -1.07724 -0.279395 -0.0905534
3959 22.6978 12.9249 19.4133 -0.135501 -0.916095 -0.767462
335 14.3179 14.8102 19.0979 -1.10856 1.42502 -0.932523
2262 17.0142 14.2021 18.5333 -0.416098 0.757085 -0.0266217
1529 61.1192 16.0522 18.918 0.171732 -1.38694 -0.0780651
764 9.49326 17.0292 19.3494 0.629086 -0.190143 -0.361517
3430 55.2302 18.1931 19.3714 -1.27438 -0.849634 -0.41371