ITEM: TIMESTEP
73000
ITEM: NUMBER OF ATOMS
4000
ITEM: BOX BOUNDS pp pp pp
0.0000000000000000e+00 7.3680629972807722e+01
0.0000000000000000e+00 7.3680629972807722e+01
0.0000000000000000e+00 7.3680629972807722e+01
ITEM: ATOMS id x y z vx vy vz
972 48.6503 0.0956525 0.828838 -1.1512 -0.915993 0.774326
1766 59.8895 0.759899 0.615314 1.6558 0.121835 -0.0769487
932 6.6863 2.39627 0.160483 0.8251 0.294682 1.0521
3602 24.2757 3.03083 0.449511 -0.151843 0.0225682 -1.46002
3003 33.1169 3.07613 0.472848 -0.369929 0.526421 2.01909
1144 70.7227 4.9582 0.859686 -0.0116792 0.667169 1.64045
3085 16.6502 6.79902 0.13601 0.746715 -1.67301 -0.546573
2254 29.4329 6.06887 0.313271 1.07502 0.278426 -0.60208
3549 48.8792 6.75179 0.125036 -1.41332 0.0850683 -0.230227
2579 12.1498 8.13089 0.612736 -0.889788 -0.291749 1.66745
273 72.0045 8.10243 0.557459 -0.568024 -0.492081 0.429322
2947 38.4281 15.7451 0.434194 -0.619159 -0.614581 0.180321
3425 58.4323 15.9032 0.318495 -2.39684 -3.64077 -0.328455
2603 50.3504 17.6054 1.28192 -1.26247 -0.751212 -1.27341
3375 16.9229 20.8065 0.941137 -1.23165 1.01386 0.35613
1100 41.4632 20.2549 0.920439 -0.43306 -1.35286 -0.445624
52 14.8922 21.4846 0.974688 1.14086 -0.0545478 0.206462
2295 38.2612 21.4008 0.379902 -3.36816 0.470271 -0.312478
311 1.68934 23.1626 0.232044 -0.416486 -0.563588 0.0761125
2296 57.6577 24.6838 0.301782 -2.38514 -0.000323481 0.464445
2706 63.6578 24.2607 0.840428 0.0733559 -1.01085 -0.00711774
3104 39.1939 25.9474 0.150433 0.509089 1.36924 -1.16032
3834 47.622 25.5798 0.315369 0.690502 -0.226426 -0.335056
2838 53.8835 27.4485 1.30945 -1.09666 1.20063 -0.394433
3238 62.9942 28.2142 1.33633 -0.305433 0.762511 -0.0952498
2330 3.5965 29.1104 1.25716 0.366032 2.20309 -0.0711553
2921 4.75946 28.8266 1.05977 1.61305 0.10484 0.832333
3006 21.1992 29.6529 0.315746 0.31118 -0.957779 0.683767
3234 20.3454 29.5837 1.24918 -1.35092 1.15779 -0.626806
2418 40.1547 28.8494 0.0575591 -0.71779 0.774889 -0.138606
278 59.6832 29.6236 0.185931 1.58499 -0.788208 -0.186821
838 51.9456 30.3671 1.06521 0.0700205 -0.478502 0.739259
788 30.387 31.2728 1.09279 -0.182201 -0.89719 0.486554
101 70.9932 32.5888 0.253993 -0.564802 0.372471 0.099232
1431 1.41893 32.5937 0.892636 -0.681056 -0.901459 0.0268309
3750 49.6987 34.0716 0.609415 1.20849 -0.178547 0.984081
441 70.5403 36.4205 0.305961 0.802846 0.215314 -1.33263
2753 19.6247 1.60958 2.58082 1.31585 -1.14487 0.718027
3646 15.3727 3.05 2.31635 2.38866 0.650931 -0.0351788
3862 0.27831 4.92696 2.78535 -0.0411547 0.0990339 0.406886
1897 2.94927 5.00967 1.61892 0.158408 1.32987 0.589813
2608 5.89126 4.49369 1.55801 -1.36177 1.84397 -0.739497
836 5.89875 6.39791 2.81202 -1.41307 -0.813807 -0.192577
3542 8.30264 5.71048 2.57604 0.668167 0.424263 0.263325
3229 64.5577 5.67185 2.17959 0.761549 0.141398 2.03173
2270 23.2564 8.22505 2.15459 0.148889 -0.855144 0.299714
3436 52.4172 8.97064 1.64797 0.152633 -0.684446 -0.300727
228 55.2659 9.03825 1.72899 -0.890446 -0.91157 -1.49205
433 69.426 11.2598 2.23204 0.350324 -0.356592 0.990328
3887 56.9515 12.3253 2.62472 0.0572015 -1.07584 0.46805
2112 70.7365 13.2387 1.86248 0.382841 -1.19494 -1.0412
1320 37.9481 15.7046 2.11313 1.66409 -0.15396 -0.047459
2402 44.9823 17.6886 2.53379 -0.192091 -0.0452457 0.32327
2763 37.3755 19.6989 2.22542 -0.239564 0.519568 0.227511
906 72.0834 20.7682 1.68784 1.07119 -2.02108 -0.068479
766 46.071 22.4444 2.26548 -3.22341 -1.03646 0.125651
2392 63.4589 21.7542 1.70515 -1.44374 0.415181 0.132826
580 12.2481 22.9617 1.62245 -0.307864 -1.99434 -0.818398
44 40.8991 23.4806 2.3471 2.02048 -0.692289 0.305868
3082 43.4985 23.3865 2.42968 0.0189364 -0.276542 0.370445
2873 34.8673 24.9205 2.30252 0.538085 1.72619 0.961458
3025 52.7232 25.3795 1.9605 -0.778182 0.621547 -1.08115
3601 58.4191 24.5886 2.27895 0.335888 -0.397956 0.469154
3657 34.6518 25.8596 2.11224 1.24616 0.804106 -2.20614
1519 69.9306 26.1618 1.56748 0.160961 0.318338 -0.840824
2244 3.42585 28.0702 2.52736 0.21897 1.22956 0.950932
1952 6.03545 28.2473 2.01207 0.743486 -0.288765 -0.454333
197 34.1002 28.2936 1.8551 0.186235 -0.407628 0.422171
2619 47.6163 29.1607 1.76068 -1.18573 1.03656 0.370907
1743 56.0701 29.6472 2.25206 -2.71738 -0.0998969 1.24594
3787 63.9606 29.5774 1.77455 -0.511512 -1.8884 -0.168358
3325 66.3499 29.5975 2.50758 0.0387482 0.442169 -0.0762827
3644 68.2051 29.4068 2.34726 -0.90191 -1.28497 -0.532014
3822 69.0596 29.9236 1.59824 -0.936933 1.5703 -1.24358
2394 26.2193 31.6072 1.9834 -0.107047 -0.704316 -0.706417
3747 55.4427 31.7651 2.34146 1.0693 1.09301 1.6702
1991 38.8757 32.9923 1.46107 -1.59825 -1.48979 0.284102
1401 34.6701 35.712 2.41549 -0.0261222 0.417611 -0.0324248
585 42.2723 35.8816 1.73391 -0.871284 1.20024 -2.84405
1883 41.2213 1.73604 4.01409 2.48497 -0.560484 0.594335
1896 43.0033 1.56607 3.91766 -1.16973 -0.977705 -0.0723765
3286 69.9766 2.13201 4.20926 1.12737 -2.22523 0.163956
79 26.042 2.84798 3.22993 -1.59042 0.024606 0.0569207
2361 43.803 7.24616 3.85635 -0.0593753 0.360101 -1.37753
3564 55.6215 9.17772 3.04952 -1.65804 0.369851 0.0119173
1055 59.8851 9.90638 4.20145 0.668445 0.802366 0.453543
3064 71.2979 10.0199 3.00109 -0.81708 0.227467 -0.858913
3512 43.1894 13.5449 4.12048 0.686104 -0.314396 -1.18551
1795 63.3933 13.5308 3.54004 0.377287 0.381443 0.121375
2332 35.9875 15.4599 3.89425 -1.04713 -0.177583 -0.0441352
1686 48.2392 15.0986 3.45221 -1.72064 -0.197163 -0.143816
3860 2.46575 17.2483 3.08402 -0.0192704 2.65176 0.562716
2421 70.0067 22.2867 3.18348 -0.0188973 -1.98153 0.238463
2474 21.7224 25.445 3.72836 -0.191399 -0.474326 -0.650544
1241 64.4947 25.8962 3.95359 -0.000819314 -1.80323 0.499183
790 67.8365 25.5291 3.07451 -3.21704 -1.04669 -0.344173
3872 1.15678 27.8479 4.16497 -0.682558 1.58444 -0.17811
1236 9.88431 27.2222 3.68184 -1.68352 0.982006 2.39897
3832 41.6383 28.8563 4.11264 0.98188 0.268917 1.11159
3595 10.2714 30.931 3.51737 0.110365 0.781009 -1.21982
495 65.0978 30.4309 3.01418 2.5312 0.581095 1.69998
3711 2.26206 32.1628 3.80681 -1.88631 -0.0745212 -0.00804826
3263 8.37467 31.5291 3.96014 0.312432 0.741633 -0.22892
2965 71.6385 31.2391 3.55985 -0.551987 -1.40038 -0.311826
953 67.2042 32.9249 3.69673 0.198033 0.265126 -1.01159
952 10.9484 36.5792 3.64105 1.26841 0.0415431 -0.150128
3629 33.2362 36.7334 3.81216 -0.387998 -0.151198 -0.0964043
1245 2.06022 0.376315 5.28218 -0.857133 -0.689467 2.5648
2011 28.5226 0.555512 5.40425 -0.882278 -0.161397 -0.357115
245 64.3555 2.52293 4.56812 -0.180957 -0.945767 -1.24994
92 18.1479 6.39756 5.34294 -0.58433 -0.696514 -1.17071
510 31.588 5.92779 5.64672 -1.74088 1.60815 0.747522
2373 39.2576 6.21677 5.26207 -1.91664 -0.464204 0.214529
2415 15.0417 9.77985 5.34952 -0.864724 -2.41208 -1.0092
2041 37.6397 8.53186 4.49457 -0.455015 -0.082463 -1.14075
1015 46.0014 9.17241 5.16852 2.23344 -0.954754 -0.174747
3928 1.14857 11.1487 5.10948 0.171187 1.09204 -0.00176704
199 26.2799 11.8843 5.25175 -0.341859 -0.0729224 -0.612321
450 59.3386 11.51 4.94187 -1.54366 -0.536354 0.424202
2094 71.2114 12.5871 4.61664 1.08412 -1.11239 0.2333
2377 11.2051 14.3883 4.42855 0.566448 -1.94437 -0.862466
3976 43.5524 14.4707 4.86024 -0.429389 0.16416 1.6117
2121 64.161 14.3213 5.45338 0.00157828 0.753609 -0.435561
1041 24.6461 15.66 4.61614 0.122715 -0.305277 -0.102587
756 59.638 19.9824 4.26551 -0.175158 -0.675148 0.0891434
2060 67.5649 21.234 4.95097 0.828974 -1.762 1.42763
1170 36.4927 22.1781 5.1949 -0.509952 -0.153291 -0.526522
833 53.4896 25.1529 5.1407 0.808304 1.27855 -0.194525
3057 19.1206 26.1632 5.64006 1.42364 -1.65071 0.771412
2266 61.1035 26.705 5.17316 0.727733 0.334416 -0.0553368
598 39.6395 29.0536 4.25951 -0.188054 1.01127 0.760104
1573 71.1836 29.6664 4.66003 1.11336 0.73214 -0.510882
2570 3.72299 30.2676 5.0717 0.407148 -0.976422 1.71685
1759 9.50227 30.6604 4.90741 2.14405 -1.19768 -1.94154
3592 16.1906 31.3258 4.94387 0.210302 0.479384 -0.620131
1085 30.821 31.6806 5.23828 0.86513 0.723672 -0.656243
3035 45.6159 34.9777 4.78029 -0.253232 0.51896 -0.357745
678 16.51 35.9133 5.41235 -1.49482 0.316243 0.417796
2257 43.5111 36.3022 4.88254 -1.54824 1.67528 0.0527438
2944 47.5377 0.78661 6.07548 0.492747 -0.339361 -0.775641
2889 30.4803 2.68263 5.87271 -1.40704 1.30449 0.286657
1691 1.05354 4.75846 5.7314 -2.67427 -1.15314 -1.12498
1453 52.7795 4.90906 5.9202 -2.3443 -0.327703 1.41287
3975 1.57379 6.59209 6.65156 0.596442 -1.17964 -1.03946
3414 3.51268 7.53055 6.81655 0.747053 -0.965549 -1.08645
3881 18.1461 8.30072 6.77624 -0.78964 0.131215 -0.494623
229 21.4236 8.0958 5.93438 -1.12263 0.165841 0.72995
3890 71.6121 7.97316 6.67711 -0.135636 1.01222 -0.838501
3867 19.1297 9.84144 5.93984 0.950258 -0.183188 -0.754638
2420 38.3224 9.50575 5.85632 -0.859575 -0.000261299 0.279698
1316 2.70986 12.2165 6.41885 0.15643 1.05141 0.201964
2884 43.9032 11.9715 6.97739 0.149178 -0.585633 0.164558
2722 20.6003 14.5402 6.14092 2.77205 -0.99741 0.954521
609 65.4268 15.3027 5.86421 1.10643 0.124072 -0.0693282
1266 23.8155 17.4807 6.35305 -0.575861 -1.94695 0.279563
1552 40.285 17.8657 6.70879 0.136815 0.356567 -0.0209139
3481 15.3285 20.9608 5.85648 -0.808242 -0.89447 -0.21926
3589 34.0819 21.5278 6.03031 -0.078662 0.238105 0.123713
1537 68.2894 22.3914 6.7362 -0.426697 -1.09394 -0.324384
3191 47.017 23.3364 6.66606 -1.23745 0.0859236 1.43421
2456 27.849 25.147 6.09579 0.638778 -0.135571 1.8251
1444 29.9883 25.3787 6.82461 0.184126 -1.47382 0.112753
1824 36.0331 24.9094 6.81573 1.24786 -0.942569 -0.0937469
2132 31.0617 25.7354 6.9621 -1.99891 -1.05391 -0.406818
3586 33.2002 28.2067 6.33934 -1.16809 0.656383 0.87639
3903 73.3723 29.2723 6.21912 1.04828 1.3883 -0.0810559
418 69.7804 32.2155 6.79423 1.7052 0.253326 1.41878
2903 11.1153 33.7394 6.67092 0.846902 0.53158 -0.675485
1934 25.8217 33.7155 6.46052 1.47429 0.0345991 0.0890044
1876 58.3602 33.7592 5.88769 -1.97428 0.726013 0.657889
3803 43.5004 35.0749 5.9321 -1.20956 -0.329551 -0.078714
3760 46.2044 35.2383 6.8624 0.159749 -1.11736 -2.29191
3129 17.624 35.8546 6.92677 1.08034 0.240482 2.00846
3079 47.7549 0.332291 8.06377 1.34589 -0.865063 0.628035
76 44.15 2.67677 7.59002 0.446343 0.622725 0.277685
454 57.5999 4.18507 7.16551 1.33874 -2.38563 0.768169
1856 67.0976 3.52193 8.43634 0.12117 0.479593 -0.686928
2497 19.6001 6.84404 7.91631 -0.628417 0.293407 0.483684
1283 51.2914 6.22201 7.14828 0.371114 1.15047 -0.426642
1393 18.4807 8.15747 8.30838 0.402697 -1.45819 -0.664189
1532 35.9505 8.47566 7.24525 0.234227 -0.125401 0.439391
3537 65.727 7.73294 7.69453 0.594405 0.460073 -1.54055
1914 20.5708 8.62607 7.84684 0.454726 0.313556 0.623677
3507 24.723 11.2811 8.12198 -0.228208 0.373699 0.248132
486 47.4821 11.2379 7.41104 -0.20488 0.714232 -2.20427
714 49.8125 10.7186 7.40739 0.80987 -0.129559 2.23047
809 69.1595 10.7739 7.44536 -0.227952 -0.283834 -1.11544
3488 14.7253 12.3689 8.1491 -1.01982 1.03867 -1.82263
1543 19.9682 13.1527 7.31372 -2.2212 0.531175 1.16047
570 21.8629 13.0429 7.20828 1.31438 -0.0745927 -0.914434
2181 30.3594 12.8962 7.97447 1.3661 -0.325214 -0.0508759
3638 53.6454 14.475 7.20889 0.205856 -1.54981 -0.219797
2148 18.6185 16.8379 8.14222 -0.0295855 0.865323 0.178744
3969 31.0037 16.7242 8.32039 0.386335 0.370072 0.779616
763 7.5141 17.5601 8.31458 -0.0267307 0.372205 -0.9586
1628 13.8477 18.0402 7.98663 -1.26377 -1.16945 -0.837778
2801 21.4548 17.6589 7.55683 -0.476624 1.32046 0.0195901
1806 64.7703 19.6852 7.69937 -2.04877 -1.3208 -0.0714737
2732 44.8454 21.8195 7.16254 0.60632 0.051707 0.0674392
1282 66.5284 21.3994 7.4225 -0.681172 -1.3964 -1.56511
2368 8.8466 23.797 7.76691 0.501581 -1.03064 -0.63946
1642 55.1124 22.7527 7.56032 -1.08111 -1.57561 -0.360027
3019 56.4295 25.0714 7.66792 0.997934 0.705231 -0.244985
602 40.3751 26.6821 7.28827 0.996774 0.378956 -0.450102
2560 69.059 26.78 7.50233 -1.07455 -0.18375 0.76565
3982 6.3566 27.4179 7.45725 -0.264702 0.66653 0.816238
289 67.6726 27.1425 7.35363 -0.0756119 -0.258807 -0.592825
2527 40.7466 28.8024 7.60374 -0.829533 -0.575948 0.562197
2134 58.8961 29.0009 8.44145 -1.41013 0.070184 -0.107947
3455 12.1967 31.1636 7.63656 -1.52966 0.734534 -0.2997
1331 43.8458 29.876 8.31773 1.28952 1.06675 0.841904
3270 37.1117 31.4077 8.07165 -0.825633 1.10364 0.641109
2440 23.5388 33.9782 7.97711 -0.1333 -1.10966 -1.33603
513 4.9023 35.3656 8.16852 1.41336 0.0829925 0.806885
2086 31.7736 34.4406 8.45436 -0.19857 -1.08737 0.610503
2887 20.8771 35.7387 7.36329 -0.921113 0.664132 -1.54805
3301 63.8923 0.269686 8.70341 1.50007 1.26993 0.461567
1223 49.2816 3.20051 9.77146 -0.169083 -0.932903 -0.298226
2929 15.0628 5.19449 8.82058 -0.231442 0.324521 0.998653
3160 1.00847 6.49601 8.96236 0.782872 0.691311 -0.480457
1036 4.25455 9.75133 9.08102 -1.41145 0.60345 0.0299384
1572 21.0259 9.4327 8.66142 -0.490048 0.74944 -0.300515
3635 41.7645 9.89026 9.74795 -1.61669 0.319878 -0.206463
2775 46.9416 10.6937 8.75216 1.76707 0.142227 -1.12509
3917 40.6675 12.0951 8.63748 -0.923055 -0.737051 -0.357381
2561 18.2249 16.4124 9.62204 2.73251 1.39015 -1.54872
1187 58.6812 15.7888 9.03165 -0.735724 -0.429549 -1.32963
1556 68.2479 16.4007 8.92606 -0.376073 -0.857028 0.377173
1354 5.89559 19.0404 9.82235 0.730253 0.197665 -1.02621
907 63.8989 19.6609 9.27884 0.125907 0.587564 1.26937
3338 58.178 20.1493 9.00103 0.790819 -0.46894 2.13716
3517 64.5502 20.3318 8.91516 0.747108 1.52538 -0.330855
914 30.3207 22.2238 9.53281 0.171784 -0.725719 -1.23975
1325 38.6264 21.8571 8.63918 -1.34068 -0.63648 -1.34616
3327 44.1885 23.3202 8.89916 1.87398 0.85985 0.378021
2830 72.3549 23.5928 9.38263 -0.887435 1.19484 0.487603
3015 32.3481 24.3876 9.66525 0.402667 1.16291 -0.207449
2062 26.2288 28.7203 9.45646 -0.742168 -0.0312836 -0.40366
1666 43.4721 30.4553 9.61658 0.826626 0.296784 0.280039
1654 31.2214 32.5585 9.58774 -0.292694 1.36444 0.85536
840 41.9466 31.7058 8.64685 1.43193 -0.422273 -0.290625
394 58.7204 32.9647 9.67665 -0.00172588 -0.379086 1.46033
1695 46.1516 34.1273 9.2654 -0.733543 0.879577 -2.45095
1836 63.6729 34.2683 8.5257 -0.209438 0.869642 -1.13789
2645 20.5302 35.937 9.09885 -0.223008 -0.652506 0.547734
1086 31.6978 35.8723 8.9135 0.199745 0.866563 -0.581828
2837 46.2576 35.9666 9.7274 0.172259 -0.497784 -0.576334
2717 59.3937 35.7337 8.75152 0.127115 -0.646652 0.738319
3666 59.5588 0.919429 10.1389 0.609832 -0.344941 -0.392382
1590 21.8522 2.37299 10.5124 -0.43675 -0.664087 -1.41233
3264 71.7306 2.50355 11.2816 -0.200197 -1.12939 -0.589881
3200 26.561 3.98291 10.918 -0.31373 0.303222 0.311105
2971 34.7595 3.47852 10.6791 0.523083 1.32756 0.327975
1781 32.4871 4.98388 11.0458 1.21678 -0.170159 -2.63994
57 36.4448 4.83619 10.318 -2.40016 0.365499 0.0798608
2602 66.7922 5.39677 10.0374 -2.32805 0.0139864 0.584991
1152 30.4602 7.01257 10.5102 -1.51394 -0.570892 0.903462
3432 72.6889 8.66917 10.3657 -0.212715 0.872705 1.61527
2930 15.9423 10.0988 10.8415 -0.549428 0.52959 -0.669514
2176 50.6162 10.6681 10.126 0.495568 0.799626 0.782843
757 47.9226 12.3833 11.1892 -0.568619 0.725558 -1.62884
3495 44.0018 13.8029 11.2993 1.5494 -0.047675 0.838803
2399 49.0565 12.759 11.1798 -1.08138 0.606725 0.529002
3450 54.002 12.8202 11.0807 0.679155 0.246339 0.101844
2185 68.0692 14.3645 10.8168 -1.79539 -0.110529 -0.59768
1078 22.6731 16.4901 10.3527 0.337387 -0.812139 -0.392478
3249 14.5334 17.3338 10.5875 -0.738543 -0.887232 0.129393
1962 5.83037 18.6128 10.8106 0.6501 -1.42198 1.36298
3659 21.2338 19.4314 11.1984 -0.651683 -0.813932 -1.99562
799 43.0711 19.355 11.0311 0.159379 -0.761119 -0.0384983
1083 50.9766 19.8111 10.3679 0.0234023 0.785889 0.572061
2040 51.8156 19.3501 11.0932 -1.18659 1.22614 -1.12032
3349 71.0922 19.8051 11.219 0.782978 -0.735406 1.6634
1960 45.4992 22.9755 11.0406 0.757549 -1.20255 1.67367
1388 48.0929 24.4109 10.7731 1.44811 1.55376 0.889205
1947 60.0343 25.8976 10.0018 -2.63155 0.0949072 0.00289971
50 23.2633 27.2543 10.3004 1.71754 0.130147 -0.174377
3261 8.98799 29.6563 10.9767 -0.727339 0.0982456 0.873743
2103 61.4335 29.418 10.3279 0.0575436 0.997175 0.410266
1071 73.4371 28.786 11.1173 -2.29706 0.429811 -0.0500541
682 36.0836 30.2319 10.8541 -0.325763 0.288821 -0.0686398
978 46.1646 30.7745 10.4 0.150781 -2.92227 1.17685
1903 12.1866 31.8819 9.93015 -0.160035 -3.09669 -0.0328734
182 44.2973 33.2658 10.4918 -1.08247 -0.61174 -1.1405
65 56.6678 33.4655 11.0167 -1.23085 0.714114 0.300417
1030 38.5781 34.409 10.8984 -0.0371607 -1.67733 0.0899148
1803 62.486 34.6708 10.8911 0.587512 2.50766 0.391268
910 65.7824 34.498 10.8435 -0.165532 -0.0995921 0.616816
3953 0.347203 36.4913 11.2606 1.67527 0.0236799 0.64659
630 11.3348 0.611273 12.6099 -0.558041 -1.48836 1.30308
656 56.5789 0.0519065 11.5896 1.32054 0.133261 -0.0344723
3548 15.9835 1.61376 12.299 0.116565 1.50929 0.0833601
2224 34.7725 2.55153 11.3578 0.820813 0.519224 0.50365
1328 70.6653 2.05242 12.3549 -0.304269 0.702819 0.0685763
1626 34.0094 3.96075 12.6746 -0.379451 -0.0473541 -0.307655
528 62.6083 4.18799 12.6926 -1.01814 -0.632075 -1.83832
3384 11.4844 4.32615 11.9672 -0.0400123 -0.613979 1.60375
1890 40.48 6.72185 11.842 -2.36802 -0.387259 -0.674856
1048 62.8464 6.1394 11.8361 1.95094 -0.995893 -0.655326
56 9.45727 9.87288 12.4625 0.534862 0.210236 -0.351106
524 14.0549 8.53236 12.2357 -1.2209 0.544576 -2.56406
1058 23.9595 9.20077 11.6293 0.465178 -0.986794 0.225752
77 25.4234 9.35823 11.3404 -0.448215 0.280292 -0.437919
973 10.6958 10.8518 12.1836 0.379437 -0.113778 1.00352
360 42.1668 9.95381 12.4546 0.938165 0.108875 0.626529
318 6.89839 11.3641 12.188 -0.751024 -0.28384 1.10368
179 1.53287 13.7468 12.601 -1.07143 -1.10678 0.870303
2778 5.5521 13.9338 11.7781 -0.586048 1.18009 -1.53598
869 54.7381 12.7702 11.8989 -0.537886 -0.329138 -0.504055
915 69.4125 14.1193 12.3999 -0.263796 0.0856276 0.843353
2407 11.9436 15.2473 12.0465 -0.69339 1.65309 -0.256931
913 55.6852 14.4144 11.4075 -0.460056 -0.0420646 -0.718222
2167 16.6703 16.5986 11.9358 0.860375 -0.924087 2.46986
2096 18.9995 16.8232 12.4437 0.236855 1.06675 0.556336
2673 53.3853 16.6824 12.3992 0.673424 -0.534075 0.27506
162 15.8312 17.1468 11.5701 2.10747 -0.377634 -0.326934
358 21.1553 17.8298 11.3968 1.23587 -0.570946 0.670074
2026 41.485 18.1117 11.3458 -0.0833912 0.0731202 0.34929
3382 56.5203 17.188 11.3476 0.26942 0.249292 -0.981981
2923 63.4404 19.1417 12.6944 0.97514 0.407317 -1.91198
2831 9.0583 20.4232 12.068 0.279856 -0.105403 0.44973
2535 18.2968 20.4297 12.1441 1.28979 -0.430902 -0.942303
2850 23.6485 22.3679 12.2726 1.55194 -0.076789 -0.739013
1976 65.6094 23.156 12.4792 -0.386715 2.39733 -0.33444
1023 70.6715 23.5128 11.9768 -0.999672 -0.370945 -1.91456
426 9.14986 27.8815 11.5645 0.603179 -1.66501 -0.419968
2161 67.8924 28.0308 11.3391 -0.451783 -2.75921 0.0351314
377 23.2798 28.4297 12.2076 0.722092 0.442481 0.215656
1840 25.5936 29.642 12.6432 1.70481 0.346519 1.45657
1063 53.6659 28.8159 11.9563 -0.655077 0.970824 -0.378288
1192 55.4474 30.9215 12.0178 -1.43366 0.936924 2.25885
2339 5.52849 32.574 11.4035 0.128132 0.84132 -1.64188
3851 37.7522 35.2848 12.515 -0.738043 0.419743 -0.697903
1257 18.6693 0.565646 13.7876 -0.757567 -0.781142 -0.197128
816 70.6673 0.397746 13.1684 -0.340286 0.214453 -0.339066
1740 15.843 3.36201 12.8855 -1.27862 0.266443 -0.0901977
2129 37.0702 3.81041 12.7605 2.06218 -2.47013 1.21539
2046 22.9632 7.2038 13.4943 1.62282 -0.238415 0.230622
2369 31.7142 9.89492 14.0772 0.744696 -0.475858 0.805063
1244 53.1584 10.5663 12.8246 -0.105526 -0.17023 -0.792184
300 63.6719 11.2474 13.8094 -0.441978 -1.51074 -0.205009
1360 15.3817 15.0004 14.0687 -0.155314 0.121366 -0.432022
827 20.3597 15.4037 13.5535 -1.19156 0.693581 -0.473679
1509 40.4248 14.9984 13.7473 -0.110124 -1.1288 2.08801
2743 23.1675 16.9072 13.5322 -1.91145 -0.142676 0.329229
1828 31.3817 16.8942 13.7823 0.518401 0.666547 -0.921092
30 26.9559 17.591 14.1372 -1.28054 0.00197661 0.00739578
1383 55.7576 17.959 13.6031 -1.61306 -0.581043 0.774941
1830 19.5374 19.248 13.3902 -1.69472 -1.43341 0.306051
581 38.3727 19.2232 13.3336 0.875346 -0.866406 0.919785
2156 63.1021 18.676 13.6088 1.82107 -0.678016 -0.104371
2410 3.5497 21.554 12.8124 -1.49103 0.623678 0.931107
818 59.2247 22.5169 13.7393 0.983789 -0.239101 0.836696
498 58.68 21.7794 13.1738 0.636944 2.46793 -0.646043
121 32.7104 23.2158 13.5529 1.08253 -2.65855 -0.945868
482 30.6824 24.6744 13.2548 0.33422 -0.348589 0.696705
3097 70.6626 24.3836 13.6032 0.082566 0.157427 1.22729
1395 3.04275 25.5789 13.9343 0.0570749 0.11637 0.591523
3065 18.5249 26.2014 13.8754 -1.16768 -1.43907 0.113918
3305 21.2653 25.6707 13.3575 0.170396 1.21273 1.40583
1618 60.3339 26.4833 13.2565 -0.132216 -0.504091 0.391386
1967 56.8451 27.2751 13.1883 -0.473854 0.65472 0.590079
3624 59.7469 28.1683 13.0113 0.246308 1.92306 0.853328
2321 10.8463 28.7522 13.157 -0.314439 0.482069 1.78155
1616 26.0227 28.5257 12.9473 0.977472 -1.39399 0.603585
3377 48.5658 31.9043 13.3871 -1.7368 -1.60412 -1.12356
1685 54.5724 31.7945 12.7898 0.41009 -1.14983 -0.737451
3334 14.7477 36.5556 13.9447 -1.58521 0.678811 -0.701626
1102 18.2466 0.169868 14.7606 0.878217 0.538092 0.341112
2513 19.3608 0.266733 14.6399 0.109458 -0.850462 -1.65422
466 33.0964 0.309846 15.1863 -0.850016 -0.651033 1.73382
1147 45.7518 0.66206 14.394 0.629715 -3.52535 -0.57541
3877 73.0947 3.40676 15.2755 -1.13299 0.890897 0.048734
2791 28.181 6.32251 14.4979 -0.739834 -0.448484 -0.296782
178 67.2584 6.21004 14.541 0.0752843 1.17419 0.221327
2509 20.8549 8.43757 14.4031 -0.680943 0.39349 -0.215459
2875 68.5563 10.488 14.2681 -1.17695 -0.605566 -0.527432
2441 32.8259 12.364 14.877 -0.22361 0.85808 -0.289938
2758 35.1557 12.1568 14.8419 -0.24611 -0.387383 0.106003
1327 38.6803 12.435 15.0872 -0.983947 -0.682482 0.809715
103 43.6863 12.717 14.7002 0.511534 -1.52605 0.234234
1299 12.702 15.5153 14.2884 -0.298544 1.54401 -1.88855
2122 64.4308 14.8898 14.3772 0.257617 -0.374517 -1.39471
745 52.5156 16.1792 15.1208 0.821179 1.41776 0.456806
974 70.0561 17.432 14.6604 -1.65028 -0.964567 -0.478943
645 26.4136 18.6364 14.3036 2.34297 -0.0351052 1.2943
2899 37.6018 20.1148 14.4951 -0.847716 -0.365287 -0.982184
205 70.3473 20.9942 14.2534 -1.62526 0.0716779 -1.95819
1578 17.3559 23.424 15.3437 0.509188 0.260583 0.0844081
1575 33.4269 23.0932 14.64 -2.0874 0.524525 1.18989
961 12.9635 25.442 14.5981 -0.485703 -1.12788 0.404835
3108 39.5286 24.2565 15.1725 1.20401 -0.524799 -0.245947
1785 55.5427 24.3649 15.3393 -0.326531 -2.47497 0.936606
2495 73.4988 25.1987 15.195 0.0474506 1.36124 1.17526
3179 25.9037 26.7792 14.3554 1.05589 -1.34559 -1.90258
3640 6.34623 29.531 14.4691 -0.175415 -1.22363 0.906667
3840 10.5436 29.6241 15.5225 -1.25366 -0.189593 0.525998
225 34.0642 29.3661 14.6367 -0.856646 0.248199 0.468538
2946 47.5773 29.4567 14.4179 1.10775 1.20342 -0.0585555
1558 47.2783 30.9836 14.2237 -1.57519 -0.0979305 -2.26068
3242 39.5843 33.1198 14.7654 0.0876347 1.22137 1.78911
1625 58.9525 32.733 15.1384 1.89255 -0.344836 -0.547975
243 4.89204 35.4622 15.4109 -0.177678 1.36177 0.155258
2769 12.0811 35.6609 15.0661 2.22028 0.479968 0.0209227
2000 26.3051 36.3882 14.6109 1.94848 0.0417305 -2.09054
3625 29.4717 36.6016 14.3446 -0.428173 -0.24108 0.902961
3538 0.512267 1.10102 15.7927 -0.0849497 -0.623882 -1.57276
661 36.6323 0.118928 16.5967 -0.732838 -1.31739 1.01987
1744 44.5552 0.0591384 16.7384 -0.973214 0.563795 -0.0389527
3933 53.5972 0.663457 16.4786 0.979253 1.84401 -1.35431
3443 63.0875 0.795067 16.6762 0.525439 1.20082 0.270871
1211 20.5343 2.53641 16.2761 1.23257 -0.0251901 -0.0479275
1231 46.6483 2.81764 16.8861 1.30868 0.107229 0.203917
3380 13.3914 3.38417 16.7027 -1.78337 -1.86297 1.38133
2048 22.2055 3.26687 15.767 1.2928 -0.996089 0.0608099
226 8.09392 5.50623 15.8831 -1.4195 0.46063 0.152666
2068 38.613 5.09844 16.8824 -1.55455 0.365755 -1.45896
1723 41.4721 5.66382 16.6316 0.199363 0.606019 -1.33697
590 9.86265 5.70869 15.8679 2.06222 -0.122127 1.48716
842 0.664088 9.13244 16.7915 -0.933731 -0.494625 0.179442
120 34.6876 10.0937 16.2189 0.926573 -0.548644 -0.794266
876 14.6991 16.63 16.9478 -0.44547 1.71024 0.709914
2333 26.5718 16.6168 16.223 0.638137 -0.901407 -0.509598
3678 25.2337 17.7643 16.5354 1.2324 -0.976788 0.444151
2841 73.3249 20.0951 16.4649 -0.26841 -0.772714 0.0409633
384 51.9763 22.1407 16.7042 -0.0255698 0.073825 0.42953
3361 12.1079 24.7466 16.2552 0.0764745 1.41503 -1.06904
3498 6.05127 28.2157 16.4628 -0.40857 -0.647021 -0.86428
2711 13.541 27.6071 16.5406 -0.126141 1.70029 1.20458
2691 37.0709 28.2692 15.6091 -2.0889 1.00292 0.310818
2183 2.0042 28.6784 16.2183 -1.55663 1.04708 0.730247
826 54.2779 28.8478 16.0176 -0.102378 0.127079 -1.03251
2472 7.90595 29.7596 16.004 1.28489 0.26765 -0.945747
1516 14.0743 30.027 16.7846 -0.809313 0.966025 0.313869
1135 50.365 30.052 16.6018 -1.13123 -1.33146 1.49009
1189 54.1142 30.9527 15.9959 0.315769 -0.795248 -1.04913
74 14.3308 31.2965 16.8555 2.36782 -0.290784 1.35919
414 45.8428 31.6231 15.7919 -0.633299 -0.722662 -0.542935
667 9.43366 33.103 16.1441 0.961786 0.805136 -1.79365
1596 23.4872 33.6802 16.1352 0.465802 -0.999666 0.762524
3153 0.745576 34.1158 15.6936 -1.33386 0.0699507 0.125302
1116 8.16033 34.7416 16.0732 -1.62884 -0.792993 0.892605
2168 6.66194 0.287835 17.6664 -1.38268 0.651773 -0.577948
460 44.8861 0.481283 17.7514 1.06621 -0.775441 -0.831132
361 21.2285 3.97956 17.1546 -1.83072 0.134432 -0.998714
1435 54.2302 4.07927 17.7645 -0.591623 -1.02011 1.46757
1905 22.4792 4.25785 17.1614 0.056393 -0.300104 -0.793616
2171 64.2726 4.78036 17.7665 0.910089 -1.49301 0.0649703
1651 71.8053 5.44337 17.0296 -0.638146 0.550701 -0.147325
3347 23.4769 7.64163 18.1851 -0.730429 0.34227 -1.01008
1655 29.1351 8.4312 18.1315 -0.895318 -1.37813 0.384018
2890 39.544 8.85577 17.9683 -0.352728 -1.18674 0.781201
2010 40.1332 9.06916 17.0434 -0.908913 1.56005 -0.700554
1907 12.1176 10.6461 18.2229 1.999 0.259597 -0.251539
238 35.1602 10.6923 17.805 1.0766 -0.561559 -0.417647
249 35.9301 10.0229 17.4005 1.22056 -1.0601 -0.557105
3244 47.6295 10.6756 17.692 -1.72732 2.14432 1.16908
501 9.06534 11.3987 17.7042 1.53967 -0.63675 0.645355
546 20.7354 12.5884 18.0745 -0.792618 -1.74244 -1.35633
749 53.0733 11.4943 17.5537 -1.23189 -0.771743 -1.59812
1734 20.7453 14.1158 18.4103 -0.737308 -0.00419083 0.16931
1029 39.561 13.5392 17.4904 -1.5795 0.83426 -1.42956
2301 3.52063 14.7251 18.0201 -0.373636 1.26211 0.0715504
3032 18.2222 19.923 17.1322 0.660219 -0.539594 -0.215531
2043 19.021 19.9992 17.9265 0.889207 0.0543045 -0.220433
3167 1.81698 21.9412 17.781 0.586769 0.699347 -0.229592
1089 19.8862 21.8084 17.7013 -0.555447 -0.506618 -0.814519
1529 68.7957 21.9014 18.1978 -1.23343 -0.115705 0.317505
2853 1.16257 23.3447 17.926 0.398291 -0.61067 0.745746
3576 13.3149 23.5324 17.8276 0.997534 -0.4412 0.529314
3784 13.689 25.1891 18.28 -1.24203 -0.716311 -0.262535
3902 15.0643 25.2469 18.1809 -0.339229 -0.240598 -0.473046
1911 65.481 24.7248 17.0506 0.552463 0.427203 0.982994
606 44.2984 25.7278 18.1813 0.0540025 1.63291 0.453161
2526 12.9555 27.9548 18.1348 2.24864 -0.665493 1.12208
19 33.8049 29.7518 17.8825 -0.480003 -0.470428 -1.69945
438 42.4707 29.038 18.2548 0.342835 3.49732 -0.562936
2300 56.5482 28.4258 17.2466 0.732927 -2.27706 0.873512
3415 1.55548 32.2614 17.9263 0.342383 -0.0418688 0.711649
2774 17.3103 31.185 17.5086 1.29906 0.0601202 1.23927
166 58.5946 33.6076 17.9608 -0.59616 -1.09276 -0.651979
3100 19.4376 35.2253 17.1181 1.19985 1.18385 -0.303436
1551 41.5445 34.3803 17.781 -0.7343 -0.0940022 -0.541493
2643 41.055 0.902015 18.8414 2.35932 -0.251817 -0.980369
2130 55.5907 0.398534 19.3553 -0.0954362 -0.103451 0.449688
2733 63.0174 1.85555 19.5136 0.144773 0.573044 0.0416181
1641 52.3849 4.16182 18.5602 -2.49126 -0.76851 0.475271
325 10.2281 4.3454 18.8765 -1.28511 0.680385 0.0198048
1458 71.1426 4.85226 19.4864 -1.37396 0.533109 0.580172
1858 11.6435 8.67535 19.3231 1.13253 0.610376 -0.415182
2424 45.5772 9.30825 19.6534 1.22076 1.1857 -1.07858
416 51.387 9.88666 18.6822 0.124947 0.000859599 -1.3319
2555 65.726 9.44854 19.5678 -1.73151 0.253461 -0.396404
3524 36.6459 9.94862 18.6659 0.0103028 -1.37066 1.31171
1891 41.3291 9.95212 19.3508 0.324724 0.104893 0.666375
3701 29.5989 12.6411 19.1763 2.19997 0.966627 0.0128046
3340 34.7253 11.4257 18.4482 -0.875863 -0.512909 0.354806
1250 71.1466 12.4297 19.4666 1.32809 -1.23821 0.340471
2217 6.30771 12.8743 19.432 -1.35214 -0.188691 0.912234
2234 58.8609 14.0642 19.5031 -1.34098 0.477675 1.07448
1213 9.39168 15.1931 19.5481 -1.46198 -0.724033 -1.77061
3420 33.3797 14.4188 19.4873 -0.893909 1.72123 1.17709
3964 1.11173 16.2621 19.1624 1.37717 -0.483314 0.760331
356 38.0769 15.7592 19.0132 1.08512 0.105514 -0.0468233
2119 59.9507 17.628 19.4272 -0.847502 -0.541701 -0.763741
2972 2.7716 19.3149 18.5207 -0.33312 1.32053 -0.83667
2307 31.7263 19.2569 19.434 0.656393 0.98124 0.976107
3998 33.1152 19.1785 19.7962 0.786955 -0.795156 -1.37499
2997 35.3091 18.8439 18.7858 -1.39872 0.0078824 -0.0718649
2978 56.8515 20.0741 19.1302 1.94258 -0.209611 0.919308
143 3.72489 22.0806 19.8297 0.760137 0.59625 0.0941645
947 37.8552 22.1216 18.5957 -0.698955 -1.29919 0.296043
2656 45.9531 21.3758 19.6952 1.52388 -0.978498 -1.89893
3115 46.748 22.1096 18.9595 0.0153993 0.275839 -0.90563
2983 36.9322 23.4498 18.8113 -1.26131 1.46909 -0.924901
374 67.589 23.1312 19.6329 1.08564 1.01686 -0.1276
2326 69.7148 22.8861 19.5528 -0.994507 0.810708 0.143172
3159 71.5436 24.0709 18.8033 0.307483 -1.42955 -0.783488
3434 52.5562 24.2911 18.4974 1.48422 -1.09304 1.44699
3125 1.5715 27.2535 18.9079 -1.22298 1.17599 -0.388935
963 20.9133 26.9281 19.3885 0.299683 -0.496891 0.70358
2127 13.3745 29.1072 19.6814 -0.208332 0.873243 -1.312
821 27.7941 29.1361 19.0393 -1.9505 0.0808029 0.114879
1225 44.1041 30.8209 18.7861 1.99126 -0.826824 0.323076
429 47.8558 30.733 19.8371 -0.748718 0.279891 -0.803854
42 5.21265 31.9387 19.4991 0.360735 -1.26316 0.120517
2278 11.7119 31.3019 18.8823 0.369264 0.238648 0.262777
793 41.6877 31.1734 18.9504 -1.18843 -1.02995 -0.409702
2397 52.0462 31.5866 19.3068 -1.15779 1.66053 0.605885
383 27.9971 32.6858 19.687 -0.540812 -0.572086 -0.412411