ITEM: TIMESTEP
45000
ITEM: NUMBER OF ATOMS
4000
ITEM: BOX BOUNDS pp pp pp
0.0000000000000000e+00 7.3680629972807722e+01
0.0000000000000000e+00 7.3680629972807722e+01
0.0000000000000000e+00 7.3680629972807722e+01
ITEM: ATOMS id x y z vx vy vz
1867 71.4699 1.95586 0.183159 0.442911 1.83947 1.63864
1637 18.9867 3.78757 0.820497 0.653576 -0.707071 0.402275
1711 32.0439 4.17334 0.139986 -0.331043 0.213287 0.306379
1067 38.0663 3.20704 0.494424 -0.387215 0.82248 1.66567
2852 38.9232 2.93858 1.01284 -1.04806 0.0897303 -0.609724
3346 63.0181 4.08808 0.56708 -0.472185 0.233158 0.830651
1129 64.0907 4.08756 1.0802 -1.15087 -1.04421 0.223117
3187 10.0755 4.63422 0.716557 -0.236838 -0.498091 -0.444442
2356 44.9778 5.47748 0.191452 -0.0699977 -1.8765 -0.0564185
566 32.5821 6.71829 0.445266 1.00608 2.63862 -0.446696
2052 53.4671 6.28128 0.0420784 1.88323 0.255646 1.6846
2346 37.4928 8.36936 1.18301 0.240454 0.813337 0.738734
739 2.91906 9.6227 0.985601 0.900106 -0.923992 -0.431382
1953 17.9686 9.35198 0.513404 0.21948 1.08739 -1.45494
3296 57.6645 8.85511 0.461847 0.456836 -0.0985752 0.592302
3827 25.2354 13.6809 1.33945 0.845224 -1.32908 0.210778
903 37.3339 15.9212 0.587082 0.826653 0.973116 -0.287509
1600 46.6294 17.7335 0.792195 0.109825 -1.64161 -1.74019
1108 54.1415 17.9933 0.696222 1.2832 -0.541252 -0.0202519
754 4.50177 19.9192 0.0205449 0.501831 -2.36123 -0.687186
1738 41.6014 22.6669 1.15526 -0.562454 1.13934 0.556963
3426 44.686 22.2401 0.0166079 0.238302 0.0778851 0.280777
3569 27.2627 23.6669 0.263737 0.447398 -0.0676366 -0.0531082
1988 52.9743 23.7098 0.446066 -1.45616 0.3457 0.539477
2551 11.5028 24.8833 0.0907893 -0.996611 1.7631 0.239547
1736 11.4071 26.1113 0.499946 -0.662923 0.245425 0.423209
1186 57.8538 28.2889 0.282349 -0.888909 0.00155731 0.832546
2784 61.7397 28.2267 0.100468 1.52947 0.157209 -0.603222
1232 63.3725 27.2749 1.29154 1.17164 -2.22391 -0.559422
2414 18.7477 30.3362 1.12002 -0.57908 0.976845 1.00949
3901 62.4594 33.3917 0.965646 0.161599 -0.0460894 0.34844
3554 72.0942 33.8685 0.159348 -1.50749 -0.105861 0.172016
3644 19.4319 35.5907 1.2123 0.0567247 -0.822372 1.36584
519 22.3122 36.4891 0.202038 -0.775354 -0.111919 0.42993
1571 40.0868 36.524 0.831017 1.33759 -1.55983 -1.16463
1960 58.1784 36.458 0.639162 -0.819866 -1.40711 0.969667
2733 9.63057 0.548958 2.49246 -1.02227 -2.33097 -0.183684
3357 24.2856 2.69818 2.63217 0.822187 -0.0824813 0.657614
3737 37.8062 2.24182 2.19948 0.331204 -0.508866 1.09551
2533 66.6901 2.50801 2.69498 -1.57122 -0.485501 0.975873
1148 37.8777 4.69472 1.84442 -0.204268 -0.944155 0.0148564
1211 42.5817 5.14615 2.73141 0.985048 -0.0533492 0.0519743
1112 64.1887 5.33941 1.55106 0.402719 -0.655211 0.742474
3119 33.2808 6.43499 1.62509 0.747337 1.30946 0.615783
3147 47.9865 7.69466 1.46361 -0.285634 -0.866797 0.563705
3542 70.0695 7.38612 2.6718 -0.270016 -0.50962 1.58356
2368 13.5126 9.63294 1.93606 -0.507389 -1.76783 -1.20881
862 7.49111 10.5899 1.49139 0.765718 -1.04871 -0.636324
3151 26.2833 10.1659 2.51126 0.231247 -0.659587 0.322778
1418 13.2514 11.6962 2.56772 -1.24442 -1.87214 0.0233412
2211 63.1013 11.4459 1.75672 -1.67097 0.161636 0.0434562
2622 15.6058 13.3824 2.37369 0.601658 -0.0233373 0.173691
1646 64.3733 15.1925 2.21244 -1.81759 -0.889405 -0.601685
1105 2.32823 16.7843 1.88054 -0.496331 0.00169802 0.32824
374 10.6176 16.4999 1.97649 -0.0430392 -2.25183 -0.529157
1135 17.1033 17.8747 2.44437 0.824311 -1.3573 0.0243842
2594 4.02016 19.0233 2.03015 2.04108 0.577015 -0.560158
1596 7.39414 21.0966 2.29634 0.19612 1.0902 0.0771956
246 20.4644 20.5822 1.59306 0.729019 1.48356 0.406998
889 56.1392 21.0772 1.53474 -0.150253 0.629705 -0.0461002
3224 8.57062 21.6582 1.75381 -1.22882 -1.77033 0.0697922
893 11.4057 23.7031 2.70025 -2.01237 0.257211 -0.127898
228 20.7136 23.0281 2.22998 -0.499166 -0.534255 -0.769651
3556 16.902 24.8234 2.14784 0.532467 1.17113 -0.581491
2051 41.1758 24.717 1.50031 2.28244 -0.0549081 -0.596626
1782 15.6341 27.7127 2.46834 -1.06187 -0.481866 -1.24959
1049 39.1081 27.7135 2.23513 -1.19019 1.11518 -0.431648
2555 49.0159 27.6841 2.76247 0.507538 -0.236161 0.807062
3385 60.5232 27.8412 2.52882 -0.10298 -1.18024 0.693366
3031 70.71 28.1712 2.29332 -1.30096 -1.26787 0.351202
1209 36.8915 29.5657 1.69747 1.44409 -0.148478 1.38945
1530 68.0257 28.5677 2.47478 0.109209 -0.853275 0.293149
1433 70.9887 29.597 2.05251 -0.0660862 0.0914425 -0.219273
3753 14.7285 30.799 1.57344 0.470475 0.872936 1.25792
467 30.6707 31.086 1.44734 -0.762812 1.7279 0.450845
1526 54.8748 30.5501 1.82145 -0.750785 -0.551303 0.186297
2560 31.3015 31.2085 2.42873 1.13273 1.63649 -0.913886
1721 64.7971 31.8488 2.14387 0.446418 1.26886 -0.303416
2004 3.43436 33.8226 2.17697 -0.0678767 -0.277181 -1.16326
3220 11.6031 33.0292 2.49928 -0.827832 0.693127 -0.97736
1048 50.3576 33.3246 2.81554 0.63951 -0.801432 -1.25132
3532 11.8326 36.3124 2.13574 0.860906 -1.13064 -0.0497264
273 47.2532 0.0253088 4.16672 -0.205016 -0.448554 0.907634
339 40.8259 2.41592 3.72433 -0.91886 1.27849 0.660506
3156 1.80456 6.18344 3.50562 -0.233329 0.194644 0.447329
1831 6.80816 6.36147 2.8909 1.4166 0.960041 -1.5417
21 26.907 5.88802 3.5271 0.75031 -0.395876 2.77541
1631 66.5127 6.30199 4.06233 -0.863994 -1.72129 -0.201661
2285 8.01103 8.15665 4.17849 -0.196745 -1.2535 -0.198145
3331 15.6482 7.48735 3.31352 -0.244228 0.192643 -0.181863
3729 5.30322 9.6246 4.03986 -0.556412 0.386302 -0.468077
630 56.4852 9.15162 3.64185 2.27106 1.40971 -0.388619
1976 68.6255 9.44405 3.42472 0.750081 0.60166 0.286094
3746 2.44048 10.8407 4.07332 -0.949045 -0.665414 1.73756
2109 60.9329 12.1308 2.93527 0.49205 1.68563 -0.760614
255 20.3772 13.8725 2.97492 2.32982 1.56944 -1.3128
570 39.5927 14.1346 4.05005 0.561995 -0.914818 1.29395
3394 50.4661 15.4832 3.19885 -0.00960758 0.464513 0.261325
2999 36.0285 18.979 3.52738 -0.570605 -0.229517 1.34234
1815 2.6605 21.2108 3.55504 0.458278 -0.232981 1.00612
2178 30.1046 20.2652 3.87752 -0.82525 0.0293095 0.173314
3855 35.7439 20.2013 3.60666 1.33787 1.17782 -1.04648
217 43.6971 20.0569 4.20673 -1.06256 -0.0787192 -1.32852
1891 55.1377 20.0947 3.95456 1.01864 -0.351084 1.99596
334 69.8405 28.3271 3.94952 1.70769 -0.652243 -0.391799
161 49.2538 28.403 3.86837 -2.13407 -0.672048 0.149359
3666 59.5219 28.4973 2.93342 -1.63284 0.693565 0.263252
1292 54.1418 31.0962 3.74332 0.0165734 -0.147544 1.2314
1898 6.69007 31.6975 3.26067 0.443896 0.0639378 0.542646
2070 23.3427 31.2421 3.61195 0.402832 -0.290749 0.939477
7 55.9783 31.3698 4.1235 -0.209292 0.112608 0.802968
2490 20.8601 32.6889 3.62404 -0.226077 0.494106 1.67336
3413 28.7558 35.904 3.36377 1.01184 -1.20339 0.299204
2196 43.3521 35.97 3.89062 -1.19986 0.267603 -0.0634179
3306 4.53366 0.645505 5.05975 -0.162388 -0.888043 -0.787278
3489 34.1083 0.392745 4.30919 1.64649 -1.63273 1.49069
2386 22.5709 2.49583 5.15382 0.608767 0.373184 0.158493
1115 21.5719 6.60159 4.50684 -0.533355 1.46949 -1.83466
1754 53.4691 7.35448 4.40201 1.49057 -0.859245 0.715351
3853 72.4905 7.4119 4.68468 -0.962381 -1.12215 -1.25078
2483 55.6484 9.26608 5.32652 0.191238 -0.764697 -0.213224
100 15.0318 12.67 5.24829 0.451303 -0.560718 0.892434
1690 71.0915 13.0295 4.25134 -0.128892 -1.07536 1.97561
2951 41.1817 15.3925 4.68351 1.25723 -0.718908 -0.262251
656 25.7902 16.7389 4.96438 -0.148441 0.538246 -0.49441
2176 39.7352 15.8008 4.28974 0.287141 1.65803 -1.68996
503 62.3572 16.8784 5.01206 0.34118 -0.694439 0.931265
1962 69.1662 16.5045 4.45312 0.180569 0.698299 -0.691612
2550 53.1543 17.6095 4.52696 0.17215 0.577721 1.37038
1853 23.0544 19.8209 5.30717 -1.81704 -2.91766 -0.619608
3513 28.1805 20.2353 4.9219 -0.133165 0.595276 -1.50614
726 29.4758 20.7353 4.67489 0.0298049 0.937847 -1.19489
982 48.6729 20.6203 4.93349 -0.35408 0.776332 -1.23645
1940 47.1448 21.9229 5.13225 -0.560107 0.406686 0.510877
3443 54.0967 21.8357 4.88518 -1.97044 -1.45024 -0.613237
2497 6.8677 23.6767 4.49413 1.04439 -1.08306 -0.831694
1462 60.7213 23.114 4.31527 -0.685035 0.353523 -0.622838
3203 46.0251 24.4523 5.15744 -0.532261 0.318751 -0.829606
2575 50.579 24.7764 5.49839 1.27916 0.660802 1.81202
1159 50.5037 25.9876 4.79599 1.43208 -0.0042062 0.606277
1557 48.8521 27.6312 4.49977 -0.384563 0.0300896 0.944886
2918 16.6835 32.1661 4.49317 -2.48368 0.0941524 0.500315
3265 61.6164 33.6072 4.47876 0.650863 -0.793926 -0.888239
2193 67.4622 34.4026 5.08482 0.751519 -0.782726 -0.0674153
43 9.80288 3.70692 5.69685 -1.07102 0.436949 -0.695119
3638 30.2805 4.69171 5.89088 -0.424998 -0.539452 -0.661896
807 51.5476 5.49658 6.09364 1.44053 -0.121014 1.47542
3988 65.1505 5.26875 6.44899 0.52049 1.36642 0.369856
3170 7.39993 7.33145 6.55783 -0.973271 0.639948 -0.913659
633 11.3276 8.75328 5.72896 -0.092055 -1.5991 0.774028
280 64.8347 9.4567 6.39172 -0.882905 0.750786 -1.57855
1370 29.32 11.6038 6.9978 0.125742 1.28056 1.89315
3922 40.738 13.7037 6.15371 -0.546751 0.503753 0.10563
2980 49.3655 14.9346 7.02264 -1.88473 0.885394 -1.3532
1643 3.07382 16.5893 6.87972 0.0559348 -0.400755 -1.46545
2237 26.4244 15.86 7.01432 -0.215606 -0.618167 2.0123
1375 63.0378 16.2884 5.75451 -1.89681 -0.350957 -0.50315
1498 24.3317 17.9378 6.90312 -3.21876 0.0571895 -0.622039
1679 50.4446 17.1956 6.10828 0.889897 -1.25328 -2.30277
3767 70.7081 17.9916 6.21256 -0.437254 -0.747785 -0.802351
3127 13.0922 20.8723 6.92838 1.95624 0.959458 1.48169
1060 30.5191 20.866 6.42453 1.04382 1.22989 0.492991
2123 0.27452 22.9849 6.32731 -0.232291 0.657116 -0.214332
1634 3.35463 24.1985 6.44661 0.881903 -0.401599 -0.668838
3976 5.92616 24.3756 5.85635 -2.30515 0.160569 -1.44093
3783 35.609 24.1707 6.47661 0.946605 -0.489948 -1.61476
2243 37.2814 25.4027 6.59699 -0.859103 0.383466 0.147049
2605 73.2065 25.4412 6.8299 -0.105113 0.220807 0.3739
437 41.5764 28.6713 6.7094 -0.543559 1.78801 1.2249
1840 0.680441 30.3518 5.79968 0.0122826 -0.544819 0.142642
3941 54.7816 30.3876 5.87364 0.557922 0.0654018 0.973759
2101 27.4876 31.2397 7.0816 -0.70287 1.32164 0.366392
1874 34.0015 33.3837 6.31049 1.11874 1.67763 0.649132
235 56.8474 33.9191 6.02755 0.152861 -0.769175 2.03071
761 34.7401 34.2152 5.9229 0.20132 -0.235998 0.452425
1730 59.5289 34.3947 6.65757 -2.22673 0.310631 0.307671
3624 11.8612 0.12407 7.27093 -1.89063 1.03812 -0.480968
2330 38.5476 1.63112 7.97082 0.333749 -0.654232 0.705474
114 43.7831 1.8817 7.62456 -0.582474 0.286771 -0.182644
501 17.6482 3.85952 7.27631 -0.985639 -0.819112 -0.582727
1281 63.3554 3.86017 7.09784 -1.42084 0.639427 1.93344
376 29.9524 4.88688 7.67384 0.521387 -1.01819 1.6688
2638 37.9665 5.70605 8.24656 -0.752552 0.494504 -1.21445
1913 46.949 6.45258 7.15899 -2.032 0.435304 -2.31453
1825 72.7434 8.33847 8.29324 -0.20939 1.32601 0.328519
2674 57.6789 9.2221 7.10521 -1.59536 -0.586241 0.425622
2042 1.10847 9.92659 7.92627 -0.466372 1.52826 0.929066
1204 7.97497 12.8829 7.89234 0.448687 0.489907 0.974483
644 0.530178 15.7265 7.88568 0.80241 0.959856 -0.585904
3743 40.803 16.6915 7.54183 2.28948 0.057943 -0.625759
3801 42.2745 16.5516 7.31022 -1.85892 0.0763835 -0.947862
3741 50.0287 16.4852 8.37804 -0.252249 0.34764 0.57087
3588 18.0449 17.4828 7.70831 -0.688866 0.840844 -0.489262
3502 41.9527 17.4527 7.96032 -0.884415 -0.673046 1.70256
734 35.4015 19.2788 8.25558 0.0743684 -1.58557 -0.671201
3198 43.2775 19.3943 8.07912 0.64491 0.496466 0.966535
3299 66.778 19.2413 7.12077 0.399966 -0.670777 -0.471043
3137 58.7374 20.1816 7.52694 0.231051 -2.69515 0.481327
1945 12.6997 21.7061 7.61772 -0.806675 1.23522 2.31382
1020 33.5659 21.6207 7.80935 -0.78585 0.0934181 0.0982688
1221 42.2689 26.0549 8.05884 2.15261 0.266692 -0.494995
412 3.13834 27.1713 7.5923 1.7877 0.781588 0.971123
560 16.3026 27.7475 7.94923 1.34002 1.89418 -0.0336518
2143 38.787 27.7955 8.14154 0.0449325 2.24854 1.82273
1214 3.20864 28.895 7.65748 -1.4219 -0.553476 -0.213011
1187 64.743 29.0159 7.74151 -0.386582 1.22001 1.11504
3061 15.3598 30.1267 8.26794 0.771601 -0.0638317 0.553297
535 54.667 30.3333 8.18017 1.12993 0.114141 0.114793
2457 19.484 32.0809 7.87704 -0.14259 -1.3708 -0.782172
3003 28.3725 33.7265 7.80134 -1.09116 0.587338 0.654745
2355 53.5356 36.6142 7.72298 -0.29256 2.40934 -1.11243
1071 66.6351 35.4267 8.07612 1.10867 0.718896 0.262164
224 50.8581 2.76908 8.95805 1.24107 0.726858 0.569302
1607 43.4582 4.07919 8.60752 0.516366 -1.09179 0.532408
16 62.213 5.12639 9.82047 1.20431 -0.443879 0.424491
3778 45.8834 6.56491 8.76923 0.0899005 1.45154 -0.00388237
34 29.0161 7.50523 8.75582 0.885199 0.0178465 0.379325
3965 16.3679 8.63598 8.81966 -1.62996 0.588509 -0.296375
636 34.042 9.86572 9.81092 -0.941974 0.313983 -0.500632
2838 35.5762 8.86614 9.83774 -0.113357 0.233776 -1.07719
402 61.2325 8.73952 9.16788 1.31391 -0.30756 0.473019
3110 24.9811 10.2089 9.87633 -0.444276 -0.484158 0.0496057
3669 8.67708 11.7797 9.26358 1.00473 -0.0102791 0.505982
2809 40.5317 12.048 9.67217 2.07057 -1.38111 0.351862
700 17.4149 13.2319 8.57059 -0.257923 -0.182373 -0.506511
3444 34.9469 13.7 9.82134 1.3526 0.028318 0.43971
2058 47.0371 14.3223 9.81451 0.584049 -0.325622 2.53122
1345 30.4293 15.716 8.53633 -0.673457 2.3237 -0.311638
98 52.124 16.1518 9.38649 0.439574 -0.266472 -0.45925
3919 54.0374 15.8491 9.03193 0.881415 0.481796 -0.617318
1670 1.44878 17.6421 8.98541 -0.119006 1.62618 -1.41793
1171 21.8825 18.1947 8.82492 -0.0581388 1.54206 -0.254082
3361 60.4848 18.2008 9.46517 0.185835 0.933512 -0.813019
1141 33.8364 18.6748 9.22933 -1.08315 -0.541135 -1.82939
1759 15.4598 22.6621 8.66415 -0.867092 -0.165026 0.146427
3705 29.4528 22.1719 8.90035 -0.316384 1.87735 0.0329711
742 2.29246 22.7834 8.60184 -0.666885 -0.83998 -0.58799
1340 3.58908 22.9622 9.15666 1.89688 -0.805239 -0.615097
1072 29.0013 25.6325 9.13612 -1.3902 0.256027 0.590031
2892 66.311 25.7687 8.97696 -0.34409 -1.33918 0.483914
3429 64.1312 27.6919 8.71479 -1.04094 -2.54044 0.900739
3487 9.19249 30.3467 9.79714 1.16934 1.43454 0.272995
3781 21.4544 30.3901 8.7709 -0.281257 0.964345 -0.31846
3023 2.42749 31.9929 9.31941 1.38795 -0.0400221 -0.550489
2208 13.4786 31.6601 8.94536 -1.11769 0.414763 -0.497346
3871 24.9246 33.0259 9.25367 1.62046 -0.266218 -0.980003
924 31.3966 33.391 9.55548 0.129533 -0.0800315 0.535198
2390 58.8078 33.0126 8.70711 1.87873 1.26619 -0.0137595
1472 69.8757 33.8041 8.871 -0.401554 -0.139612 -0.872473
2585 2.97308 34.3137 8.67857 1.18631 -0.305351 0.192728
1885 26.198 34.8739 9.02277 -0.276472 0.0081509 1.74374
1562 65.7263 35.0554 9.4352 0.405222 0.84632 1.35156
2308 24.0623 35.9797 8.53783 1.69601 -0.0966126 0.359305
3866 65.5607 36.6457 9.40949 0.687534 -0.304012 0.894498
2952 17.1457 2.23143 11.2673 -0.241557 0.0878719 -0.886561
3393 22.3756 4.16144 10.2895 -1.202 -1.19147 0.0612899
3635 12.012 4.57315 10.1154 0.244543 0.43942 2.89553
484 15.8488 5.20168 9.95364 0.526165 0.0621032 -0.117661
938 39.9707 7.66993 10.5348 -0.326774 -1.775 1.15484
1434 26.1198 11.0396 10.6972 0.757159 -0.669332 -0.708539
2619 37.5185 10.7629 10.3602 -0.619108 -2.46976 0.144984
1088 46.5586 11.0412 11.1603 -0.296718 -1.324 -0.0795218
1444 45.7622 10.7869 10.2098 0.706478 -0.252736 0.552884
1153 24.0237 12.03 10.5975 0.714694 0.419447 -0.101635
846 31.7596 12.2124 10.1841 0.96027 -1.8154 0.670986
3788 41.678 12.4885 10.1042 0.0800805 -0.671122 -1.05034
346 33.153 13.9263 10.1732 0.11074 -0.875869 0.0502727
2345 52.1984 13.2167 10.4717 -0.674698 0.595686 -1.84962
1015 56.8426 15.2183 10.843 0.36163 0.0533465 0.572774
901 69.129 19.7641 10.3982 1.00002 0.12889 2.00363
3524 48.2263 22.6697 11.2641 0.418151 -1.21295 -0.649434
2837 13.3013 24.8698 10.441 0.691494 0.551428 0.749788
2102 7.35828 28.6785 10.8311 0.00437151 -1.64628 0.468691
127 9.67351 29.3892 10.0747 0.107523 -0.199051 -1.95646
2848 70.845 29.4376 10.0777 -1.41773 0.629913 -1.29532
1422 46.9657 30.5108 10.7284 -0.501726 0.749512 0.495078
1309 58.3398 30.9809 10.8311 -1.13004 -1.56997 1.09332
3282 48.9038 32.5049 10.1326 -0.023083 0.73125 1.33184
1797 49.7296 32.3893 10.7538 -1.26852 -2.32136 -0.993246
2537 47.6704 34.2368 10.8548 1.53281 -0.999671 -1.06946
2509 73.3548 35.053 10.436 -0.906386 -1.31087 0.222782
1242 51.9603 0.867899 12.1339 0.0205338 0.071425 -0.167527
1872 13.5841 1.90264 11.6418 -0.999349 0.496999 -0.0245181
1766 61.2275 2.35112 12.2321 -0.481145 0.0855728 0.617972
1026 41.4699 3.42324 12.2196 -0.0816601 -1.00895 0.104023
2730 73.3211 3.53678 12.1005 -1.64317 0.186798 -1.15762
937 33.2866 6.41076 12.2028 -0.143139 -2.01981 0.850575
1236 45.1938 5.71195 11.8039 1.45848 0.997317 -0.29617
3546 51.6532 8.42403 12.1442 1.10211 -0.138973 1.58025
3955 59.8139 7.78372 12.5576 -1.46784 1.59328 -0.386579
1622 41.7655 8.74571 11.4323 -0.679518 -0.565942 -0.13141
624 36.6321 9.96029 11.6303 -0.0555621 0.991134 -0.468839
2563 14.3599 13.4445 12.7213 0.775561 2.05687 0.206471
3457 49.8978 13.0221 12.4576 0.728596 1.33692 1.37513
1399 11.9421 15.3025 12.5407 -0.677994 -1.2486 -1.53031
759 61.8162 14.3313 12.1192 1.09478 -1.23198 -1.10913
679 65.9411 15.131 11.5129 1.47959 -1.08757 -0.293794
704 14.4059 17.0884 12.5901 -0.818746 -0.126657 -0.383061
3755 62.8721 17.0641 11.5597 -0.162499 -1.31659 1.17997
891 64.614 18.3929 11.7287 0.378419 1.12222 -1.096
2391 19.6006 19.0833 12.3258 -0.233415 1.76341 0.843842
546 57.0614 19.7782 11.9075 -0.615022 -1.38124 0.73086
1002 65.4441 19.2865 12.3971 0.865556 -1.78578 0.490895
3576 27.6724 20.6428 11.7324 -1.09262 1.00698 0.792946
2798 34.1523 20.4943 11.6689 -0.123401 -0.710141 -0.338609
124 37.5761 22.6121 11.3851 -1.41158 -1.13711 -1.54317
2438 1.21608 24.0587 11.6917 0.162223 0.61011 -1.39479
3994 52.0668 22.8471 12.6477 1.41325 0.144114 -0.683465
465 70.6815 24.9375 12.6655 -1.82514 -1.25488 0.221138
3587 17.6673 26.3263 12.4402 -1.2122 -0.835619 -1.4601
2302 47.9851 25.7475 11.7493 -0.335009 -0.231821 0.414748
1549 71.7639 25.9457 11.7653 0.045285 -0.0123405 0.864309
3808 3.68147 28.0096 11.3385 0.60787 -1.34154 -0.118633
79 9.63041 26.9311 11.7631 -1.68907 -0.295715 1.30361
102 69.8169 27.973 12.0339 0.313185 0.531479 0.639687
3039 57.3163 28.7473 11.4101 2.57034 -0.918392 -0.692179
3690 54.327 31.0779 12.5406 -2.41123 -1.49699 0.18105
3278 69.3047 32.1179 12.2178 -0.463087 0.421632 1.36069
1860 22.7025 33.9397 11.5176 -0.329139 1.74324 -0.547983
3680 59.7794 32.5978 11.4983 0.857113 -0.277449 -0.123236
1970 68.0142 36.0213 11.8397 -0.541034 2.05778 -1.11353
3152 7.41441 0.32631 13.7212 1.25235 -0.418387 1.58147
2917 52.4868 2.21685 13.2013 -0.214194 0.900212 -0.406211
2445 54.4346 1.86664 12.9982 1.02694 -0.187282 1.00808
3772 7.16508 4.05615 13.4981 -0.232581 1.44337 0.921147
1783 43.5687 2.96163 13.6455 -1.41032 0.372972 -1.11063
1824 36.2295 5.12689 13.8117 -0.40479 0.315576 -0.29381
2902 52.3921 5.41327 13.0235 0.775418 -0.420735 0.518704
1431 56.1448 7.62497 12.8419 -0.769997 -1.31891 0.488857
375 68.4632 8.4993 12.9799 0.695309 0.312895 0.331527
2200 45.4032 9.42925 14.1289 0.395504 -1.5947 -2.29806
2028 67.4629 10.3171 13.8185 1.02798 -0.441343 1.23833
379 18.0287 11.9786 13.2326 1.03762 0.354567 -2.2441
1680 38.7481 14.3905 13.3208 -0.315137 -1.07497 0.604006
3006 66.6011 15.0971 13.8916 1.90821 1.2072 0.737006
559 58.8948 16.2296 13.6369 -1.74833 -0.4554 -0.261575
2536 6.06201 18.7739 13.9175 -0.854111 -0.942862 0.807285
2564 47.8513 19.0358 12.9217 0.267828 0.112281 -1.70375
3601 1.78986 19.8951 12.9756 -0.298238 -0.061564 -1.02166
2246 12.4698 20.1518 13.6193 0.445059 0.921453 1.33887
3154 55.6028 20.0145 13.23 -0.328972 2.04248 1.51275
3368 61.3718 20.7872 13.9459 -1.08754 -1.88372 -0.850769
3186 66.4333 19.8725 13.1772 0.20001 -2.04523 0.73226
2347 37.004 22.2951 13.6826 0.568633 -1.61318 -0.430354
1576 10.4232 23.2778 13.9574 -0.265775 1.91391 -1.1098
3182 72.5764 25.3448 12.9774 1.77253 0.16185 -0.519074
659 9.13246 25.8298 12.8306 -0.160707 0.00610736 -1.05318
1770 17.1934 26.2651 13.3813 0.0731605 -0.291184 -1.68973
446 23.883 26.8534 13.5043 0.525302 -0.012077 0.157103
1901 34.9233 25.8642 13.6441 -3.00507 1.75511 1.04454
3511 45.6922 26.6706 13.4972 1.94376 -2.06668 -0.117329
2067 48.0557 25.5445 13.1022 0.619913 -1.4806 0.220074
2443 54.2195 26.6957 13.3306 -0.916361 -1.45989 0.774179
33 35.719 28.2823 12.9767 0.415353 -1.09615 -0.0429762
1889 61.5306 27.9485 13.3386 -1.17045 -0.200851 0.160553
1469 45.4978 30.9801 13.8561 -1.26777 -0.238796 0.952227
3366 65.5554 30.7799 12.8669 -0.92873 3.38085 -0.377255
2797 47.3522 31.9781 13.9009 1.07356 -0.613187 -1.61698
2661 28.2655 33.8135 13.3197 1.64183 0.858909 -0.487477
763 13.0183 34.2447 13.512 0.203221 -0.390406 0.268205
2009 20.4146 35.2534 13.0496 -0.614708 -0.24136 -0.375251
1656 0.338606 36.7781 13.7778 -0.228946 0.0934426 0.183479
144 23.5029 35.8204 13.7226 0.168663 -0.829991 -0.359953
2966 52.0263 36.26 14.0206 -0.0739073 -1.41688 1.52382
1566 3.15615 0.317426 14.9596 0.534473 -0.119644 -0.433046
996 24.0799 4.15026 15.0171 0.842776 0.15648 1.86498
1295 22.683 3.98317 14.7962 -1.3132 -0.33715 -0.0616363
1777 46.1823 2.91637 14.2787 -0.955875 0.539806 0.0199733
2769 56.444 3.64091 14.3593 -0.50024 -1.00178 -1.33106
1446 31.3375 4.86754 14.7089 -2.10324 -0.553561 0.494302
3022 58.4974 5.92562 15.0155 0.49248 1.06438 -0.591006
1697 69.1817 7.70609 14.3001 2.31108 0.301342 0.290703
315 4.99719 9.10737 14.52 1.31258 0.875804 1.14861
2019 25.6981 10.3755 14.2096 1.81043 1.47451 1.60093
536 42.463 11.0645 14.5828 -1.34316 0.798716 -0.6333
2369 17.1987 13.8806 14.6775 0.889602 0.9155 -0.1582
797 12.5723 15.1179 14.2126 0.809077 -0.432214 -0.758884
2523 34.9285 14.7488 14.8412 -0.829315 0.353773 -0.396442
3811 58.3762 15.2386 14.4378 -0.437038 -0.283916 -0.81665
3945 7.53881 15.6693 14.9194 0.988401 -0.792082 0.224728
1166 51.3471 20.8441 15.0803 1.0098 0.351663 -1.58823
1251 67.0043 20.4091 14.3906 0.868251 0.86251 -0.808217
2288 11.3263 22.5932 14.9958 1.32148 0.913398 -0.78713
3598 17.7551 21.8574 14.6147 -0.206556 -0.772931 -0.340721
470 17.0964 23.52 15.4429 1.84962 -1.72579 -0.267847
2072 43.3487 23.0473 14.3694 0.0989553 -0.490136 0.0105763
1239 63.988 23.1926 14.5233 -0.159444 0.455438 2.14861
3337 19.6416 24.485 14.9943 0.69901 -1.76248 0.68085
291 23.1324 24.7379 15.1164 -0.833483 -0.972586 1.4749
2121 47.0528 24.7096 15.4161 -0.46863 -2.369 0.244413
1152 52.0873 24.377 14.9969 -1.43431 0.0631156 -1.10369
3007 0.0475571 26.0971 14.4416 1.02782 0.512906 -0.468454
2131 42.6596 26.3815 14.9326 0.814694 0.365492 1.08037
1939 1.68088 27.1298 15.0391 -0.750962 -0.845415 -1.34171
2914 46.419 29.6106 14.2351 -0.0193698 -0.625317 -0.0476895
725 69.5964 30.4123 14.2367 1.69758 -1.5501 0.172982
2336 48.5983 31.8596 14.3176 -2.71914 -0.310942 -0.227732
2524 37.8269 33.2161 14.8756 -1.07254 -0.426025 -0.648278
109 8.53681 34.7593 15.31 -0.711771 -0.504219 1.31121
2396 14.988 34.4045 14.2394 -0.991314 -0.358046 -1.12444
2601 21.5417 36.2685 14.3194 -0.976945 -0.266115 -0.35349
3078 23.6608 36.2591 14.7954 -0.865062 -2.22357 0.835936
3012 46.9491 1.73927 16.2293 0.00510875 0.0567323 -0.622571
852 2.94665 3.43691 16.6756 -0.296814 1.52821 0.860733
642 32.2269 3.5979 16.1952 0.196474 0.269233 -0.0858195
3087 46.5168 3.79229 16.8788 0.434553 0.541468 -1.22915
1630 48.7929 4.6538 15.7857 0.728664 -0.245479 -0.944229
3921 57.8608 4.63787 15.6178 -1.7326 -0.423372 0.922293
949 6.59734 5.70434 16.6933 0.540515 -1.06624 -0.0738014
2289 11.7699 10.9465 16.5669 0.242221 -1.11022 1.10362
2858 46.822 10.4005 16.0454 1.38196 -1.74591 -0.493944
1405 22.3426 11.5521 16.8324 0.218751 0.447696 -0.392218
1346 45.253 17.6543 16.2702 0.965459 -0.437684 -0.465465
3995 1.18272 18.6916 16.1046 -0.63302 0.527695 1.38796
164 9.43533 18.8778 16.7944 -1.23818 -0.176433 -0.946589
2321 23.6241 19.7572 16.0934 -0.164 1.72598 -0.608943
816 6.91336 20.3447 16.8163 -0.26522 1.44279 -0.00852251
3854 10.4835 23.791 15.6954 0.402975 -0.106398 0.554813
2446 11.3952 22.7784 16.1216 -0.545792 -0.00973986 -0.54944
2668 51.8824 23.7423 15.9084 0.43827 0.293638 0.69434
870 25.7202 25.1309 16.3259 1.31638 -0.25495 0.832697
262 72.3967 25.2566 16.6982 -0.101739 1.38866 -0.527241
1138 25.6022 26.819 16.1147 0.518406 1.37095 0.313735
1878 58.1109 26.7605 15.6297 -0.489235 0.375879 -0.0268188
2640 48.4815 27.9361 16.8516 0.212589 -0.67349 -0.12989
669 63.9737 28.0247 16.2282 -0.484069 -0.270411 1.77451
1671 27.3743 31.0642 16.5066 -0.921728 0.635971 -0.311743
3408 50.5186 31.0237 16.8024 -0.592644 0.795215 -1.59056
510 33.7672 32.3726 16.6643 0.0379642 -0.206764 0.539222
3072 38.0354 31.8841 16.7085 -0.264679 -0.63657 -0.20107
1788 47.1648 32.0601 16.8565 -1.9855 -0.468445 0.0778381
368 24.9531 32.9759 16.9613 1.04534 -2.29062 1.1182
1727 59.6265 34.1068 16.848 -0.0678402 -0.555512 0.470186
842 10.2697 36.4149 16.6277 -0.0940643 2.0653 -1.02751
2895 21.37 36.6483 16.3595 -2.34878 0.436705 -0.0279334
2152 25.8828 36.0231 16.5993 0.166561 1.46322 -0.406699
2413 34.5647 36.0244 16.4657 -0.254361 -0.404573 -0.470803
66 65.285 36.4267 16.9181 0.511089 -1.32003 -1.90812
2843 27.554 1.40631 18.1967 0.604647 0.639953 0.898259
3416 60.1063 2.70225 18.2552 -1.25449 -1.23684 -0.530605
190 11.3681 3.056 17.1857 -0.7052 0.10271 1.66196
2074 41.0868 4.20171 17.1424 -1.34928 -1.72505 0.428654
2034 61.7657 3.48027 17.6224 -0.603384 0.760838 0.209375
3465 71.1235 5.07727 17.6271 1.02914 0.195549 0.361201
1775 54.5663 6.70554 18.4007 0.785774 0.122905 0.502371
307 42.2989 7.42085 18.0989 -0.180883 0.23414 -0.56439
2924 43.9564 7.94304 17.0853 -1.01389 -0.441271 1.05963
3294 60.0812 8.33698 18.3636 -0.645192 -0.603873 0.855671
3763 14.2301 9.57652 18.1952 1.0806 1.13928 -0.813968
2002 3.88084 10.334 17.459 -0.552655 -0.307895 0.480298
2580 50.4637 10.4147 18.2368 -2.22213 -1.50858 0.52104
3692 14.957 13.9415 17.1337 -0.686825 0.63344 0.147241
3432 17.1367 13.7827 17.7265 0.892649 -0.824372 0.244712
3425 24.1195 13.7247 17.8071 1.7129 2.22097 0.00382123
2205 33.9527 14.6187 18.1265 0.995414 -0.232654 0.0112812
1581 58.0306 14.7279 17.5027 -0.573454 -0.504101 1.38732
269 71.9428 14.2445 17.3663 -1.66383 -1.39363 2.65761
939 14.8711 16.1595 17.4035 0.225507 0.364244 -0.0317791
50 12.9559 17.3558 17.0217 -1.04828 -1.4724 1.46806
2688 65.5045 18.2876 17.8207 -0.466033 -1.40865 -0.268618
968 65.2384 19.3556 17.4025 -1.11146 0.628882 0.638783
2621 4.98914 20.889 17.596 -0.180305 0.113243 -0.186194
2409 29.6571 20.2405 17.3677 -0.420944 -0.292408 -0.678087
1193 33.9072 21.1706 17.2592 -0.783941 -0.764741 -1.81765
626 40.0185 20.363 17.3947 0.318788 0.874632 -0.421864
1177 49.8514 21.8929 17.5346 -0.785503 0.216831 0.564911
2709 0.257008 23.1607 18.1882 0.626425 1.56754 -0.983409
978 7.86346 23.4308 17.2235 2.07583 -0.364814 -0.159493
910 67.5274 23.1063 18.3683 -0.322608 -0.634637 0.513349
1997 68.8068 24.3275 17.0224 -0.308502 -0.71235 1.81991
1009 19.464 26.3209 17.9803 -0.736347 -1.44499 1.40266
1386 67.2524 26.1297 18.3898 -0.391605 1.00037 -0.180448
2881 71.6053 25.9126 17.3072 -1.87238 0.391799 0.771296
2864 27.0219 27.2678 18.1375 0.674793 -0.295898 1.16402
3636 39.9328 27.9185 17.5286 0.510818 -0.329098 -0.26715
2611 15.5967 31.5133 18.4018 -0.386213 0.373778 0.0922105
554 25.3888 32.2628 18.2645 2.66626 -0.638341 0.278004
1625 45.6034 33.1622 17.5164 -1.47116 2.0614 -1.04848
3091 69.6154 32.9683 17.8711 -0.804651 -0.360221 -0.142082
2697 7.65305 34.2579 17.4083 -1.4898 0.378428 -0.245705
2803 30.0088 35.7807 18.1232 -0.777848 0.626018 -1.82278
116 51.6151 35.8991 17.8756 -0.627302 0.197103 0.254454
3992 52.5856 36.6855 17.8532 0.572856 0.978773 -0.19601
1773 66.1019 36.0391 17.8263 -0.840304 -1.06869 0.852694
1457 63.6829 0.716382 18.9274 0.284356 0.347063 -0.349161
355 39.2896 2.76469 18.6078 1.03095 1.32873 -0.570811
2078 65.6147 1.5201 18.5608 -0.16916 1.27245 -0.0150252
3180 71.6416 2.58625 18.8238 1.44606 1.49907 0.0756779
2893 18.6884 3.71061 19.5795 1.25574 1.01855 -0.989145
1863 46.0033 2.90529 19.2427 -0.301801 -0.889554 0.544963
2428 32.1903 4.70851 19.1568 -1.23295 0.788782 -0.623841
1301 73.0106 5.14535 19.1702 -0.518451 -0.214959 1.21459
3615 5.8348 6.95671 19.7931 -0.0592756 2.12048 -1.1888
2933 0.642306 7.7465 19.4422 1.02373 0.726964 -2.14165
1841 2.54544 8.38264 19.7079 1.42643 0.62042 0.0777054
424 71.7427 8.95571 19.365 -0.496462 -0.98168 0.352359
2447 2.69233 15.5442 19.414 -0.157554 0.452343 0.266735
2684 41.1293 14.8216 18.511 0.390638 -1.76403 1.25161
488 2.07193 17.554 19.4471 0.660005 0.918651 0.00731068
3059 4.39911 18.1996 18.5955 -0.178612 1.01048 1.12282
2425 48.7209 17.1221 19.4735 -1.37296 1.10508 0.971357
3134 29.4145 20.0596 19.7742 -1.58595 -1.04159 2.47808
1743 39.8846 21.2055 18.8416 0.481217 0.691021 0.0196827
3564 65.9465 20.1752 19.2969 0.572115 1.10974 -1.25442
909 1.31419 21.8569 19.129 -0.43279 0.538416 0.609489
683 29.0056 22.1752 18.5218 -0.173039 -2.28007 -1.40228
3290 0.50527 23.8153 19.0303 -1.42687 -0.148072 -1.6885
2142 18.9799 23.0485 18.5845 0.649772 0.256565 0.521007
1042 33.6895 24.5649 19.0156 -0.730732 0.631787 0.463847
55 28.6194 27.3601 18.8664 -0.14008 -0.909733 -0.278982
2251 66.4599 27.6569 19.4317 0.855975 2.63415 -0.198063
2427 4.7453 29.3684 18.8385 0.0532338 -0.668277 0.286551
462 8.78338 30.1296 19.4556 0.289063 0.698433 0.454064
780 35.046 30.0474 19.2859 0.843106 0.590531 -0.0104836
3431 63.1517 31.5496 19.4515 -0.329018 0.277353 -0.634962
3535 26.9187 35.3898 18.9963 -2.57402 -0.944994 1.67691
2124 48.3747 34.9461 19.7178 0.692182 -0.0897019 -0.258455
2535 29.7175 36.4726 19.2555 0.0940673 0.538502 -1.07495
3814 35.4772 1.42761 20.6633 0.348367 0.356168 0.184355
3494 63.8974 3.38394 21.2398 0.377783 -0.250713 0.117589
1150 67.9095 3.93553 19.9086 0.0412852 0.595134 -1.57138
3806 5.64874 5.87758 19.9778 0.132164 0.975947 0.747912
1624 43.8153 6.37301 19.9227 -1.41841 -0.135593 -0.589258
3189 73.5703 5.81404 19.8604 -0.574704 0.52022 0.655012
149 21.1734 7.81784 20.9519 -0.499344 -0.746638 -0.765781
1315 47.448 10.0027 20.32 0.588572 -0.0589683 0.191783
1127 21.3928 12.3324 20.1938 0.848746 0.738457 -0.536912
1424 25.8028 12.2766 19.9806 0.451963 0.468769 -1.73878
3463 43.7591 11.6003 20.9239 0.829591 -1.87539 -0.901378
3400 29.909 15.4055 21.045 2.35672 -0.888702 1.0433