ITEM: TIMESTEP
61000
ITEM: NUMBER OF ATOMS
4000
ITEM: BOX BOUNDS pp pp pp
0.0000000000000000e+00 7.3680629972807722e+01
0.0000000000000000e+00 7.3680629972807722e+01
0.0000000000000000e+00 7.3680629972807722e+01
ITEM: ATOMS id x y z vx vy vz
3927 19.1129 0.0587054 0.81537 -1.62332 2.37463 -0.762647
283 34.8319 1.11824 0.48609 -0.160001 -0.771734 2.49766
520 25.7163 3.57095 0.220724 -1.22721 -0.576748 -1.77593
452 66.1955 3.73693 0.980024 1.76261 -0.804262 0.433825
2912 16.3781 5.04291 0.383442 0.998332 0.0639933 0.891967
3201 41.4303 4.91892 1.22771 -1.76305 -1.30296 1.0016
3534 69.7258 4.27578 0.557445 -0.980634 -0.321708 1.03516
1483 18.1794 5.84616 1.34343 0.377152 0.425013 1.31788
1217 71.757 5.84066 0.430477 0.637333 -0.397188 0.312465
675 70.7101 7.40191 1.2553 1.27055 -0.637016 -0.278251
1133 69.7091 9.51525 0.219368 0.0802972 1.87191 -0.511747
1945 5.70547 12.0825 0.545313 -0.915472 0.628011 -0.0144943
2281 30.6433 12.8374 1.31678 0.653028 0.571095 0.04027
3839 35.3847 13.5588 0.389109 1.06627 -1.02007 -0.0829429
151 54.191 13.4924 0.793644 0.675786 1.56314 0.692613
1402 59.4598 14.2415 0.874579 -1.02437 -1.15347 -0.487612
1 67.8944 15.1036 1.29958 -0.219749 -1.46455 -0.993446
252 1.23963 15.9273 0.780082 0.721246 0.144996 -0.355461
2721 45.6167 17.6896 0.458649 -1.27679 0.372353 1.58023
2167 54.8126 17.0732 0.226913 -0.836758 -0.87302 -0.658621
2968 8.29123 19.6316 0.780726 -0.553138 0.737621 0.663509
1736 19.4605 19.344 0.110016 0.278055 -1.08981 0.651935
436 25.4333 19.5468 1.40114 -0.19212 -0.379743 -0.67115
3476 55.5177 22.3989 1.25612 -1.17137 1.23125 0.476338
848 12.7216 23.2465 0.930165 -1.27961 -0.32842 2.00792
458 21.406 26.439 0.679404 -1.90162 0.0738972 -1.28512
2934 35.5128 26.1013 1.08024 -0.381749 0.427699 -0.0414694
752 45.6329 26.7416 1.19741 -0.605533 -0.187064 -2.00596
97 53.8687 26.7419 0.125826 -2.489 -0.550677 1.57446
1982 49.2806 27.9935 0.369134 -0.964426 1.10484 0.683586
312 25.2456 31.0523 1.34302 0.440851 0.459646 0.590179
1428 3.42931 33.9718 0.149984 -0.41505 0.246933 0.339609
3253 48.9807 33.6599 0.0895041 0.562674 3.10772 0.287894
2520 67.1395 34.4821 1.29903 1.12218 0.503668 -0.555331
2408 4.21603 36.7441 0.639554 -1.47968 -0.00846251 -1.34396
952 47.9475 35.899 0.32007 1.94702 -1.43055 -0.172493
2220 52.0933 36.6047 0.702411 0.874945 0.123836 -1.29361
3210 4.67937 2.56243 2.26171 0.198344 1.19877 -2.15321
1562 6.73985 2.02994 2.25168 0.279349 -0.203501 -1.14368
2381 66.016 3.93548 2.80129 0.688763 0.273217 0.426786
2662 16.4418 4.94423 2.06283 -0.990435 -0.0188252 0.725029
426 29.9551 5.43618 2.47509 0.285836 0.158676 0.307896
1610 31.0676 4.30901 2.32305 -0.0355587 0.297372 -1.32907
1112 70.3734 4.82683 2.11366 -0.985233 1.04973 1.24305
1967 47.3094 6.52817 1.64264 -1.22763 -1.44023 0.407837
315 52.554 6.36554 2.62332 -1.91771 0.665203 -0.807388
1173 69.1339 6.87513 1.89729 1.72533 -0.933963 0.108202
3521 3.70525 10.228 1.86381 0.298475 0.711595 1.04285
1520 37.8247 10.0999 2.53562 1.74094 1.94367 0.455665
2602 45.8794 10.0437 1.54077 0.146411 1.33072 -0.112661
3698 61.092 12.3669 2.78082 0.895135 2.03725 -0.825063
769 7.1799 14.088 2.52493 -1.40889 1.71573 1.14143
2261 19.9094 13.236 1.61993 -0.331951 -0.0126586 0.755413
1921 25.0433 15.1736 1.86889 0.0931593 0.43227 1.02298
2964 47.6052 18.1364 2.56563 1.85055 -0.593787 0.489467
242 2.15398 19.2928 2.77208 1.67795 1.15381 -0.747623
2306 29.8364 18.8422 2.72714 -1.05054 0.95599 -0.229739
2384 47.4486 19.3865 2.80834 1.21376 0.288652 -1.1424
3687 49.2115 18.573 1.43128 0.78143 0.0879985 0.970524
1334 29.3197 20.7226 1.86805 2.60565 1.06363 0.72058
3315 39.5111 20.3126 1.46014 0.501922 -0.363498 2.13743
3245 35.3288 22.4246 2.58321 -0.38745 -0.679965 1.24505
3133 25.4028 23.4647 1.71599 1.07922 0.579273 -0.370905
1642 29.4655 23.1806 2.00183 -0.769441 -0.366462 -0.179996
2820 55.6665 23.8768 2.11038 0.249708 -0.0756318 -1.82504
1858 23.7584 24.2889 1.65841 0.0441369 1.43762 -1.17651
3760 49.4682 24.2054 2.29834 0.164129 -2.55999 -0.367747
2008 56.1778 25.4492 2.2994 -0.564327 -1.42151 0.174618
3200 8.58466 25.5217 2.57003 0.780463 -0.0499644 -1.70813
3557 39.3031 28.2704 1.84938 0.61011 0.892444 -0.424666
2354 60.3211 27.3462 2.77889 -0.5449 0.52874 1.22309
2272 55.2814 28.8661 2.70421 -0.951076 0.173451 1.22168
906 61.4261 29.1304 2.30884 1.67205 0.319352 -1.14475
1519 66.6638 29.6911 2.72623 0.429595 1.77979 0.239595
1265 30.3442 31.6014 2.63073 -0.0395909 -0.153471 1.55197
3328 20.2319 32.783 2.80832 -1.66712 1.05346 -1.1575
1586 24.5735 32.6421 2.58639 -1.51493 -1.17565 0.0415036
560 42.2225 32.8028 2.71975 -0.729502 -1.72101 0.14696
1264 43.9436 33.4377 2.12028 0.236754 -0.38968 -0.512852
2144 65.6942 34.7772 2.35354 0.146078 -0.120979 -0.112496
1884 28.9277 36.3427 1.86608 0.596819 -0.991258 0.581792
852 30.6084 35.482 1.47791 0.252257 1.87624 -1.03636
407 44.8803 1.25572 3.79604 -1.82222 -1.32845 0.860258
2772 55.076 1.21579 3.26121 -0.793425 0.344746 -0.223846
228 64.4948 1.09917 3.58088 0.200792 -0.906937 1.4299
2058 67.5862 0.348336 3.17222 -0.348348 -0.684623 -0.429837
2190 3.94197 4.20619 3.48687 -0.102515 0.617547 -0.890841
1036 48.9374 4.66186 3.31993 -1.00083 0.475806 -0.785401
1814 17.6322 6.36923 3.0539 0.608528 -2.3491 0.195183
3655 25.4694 5.91415 3.19598 1.29461 1.66605 -0.639478
1018 66.4856 7.51219 2.99175 1.29671 0.992073 -1.70543
2431 10.2243 9.19692 3.57928 0.678601 0.00221993 -0.908963
589 53.6917 9.60218 4.03211 0.489412 -0.869958 1.21162
1062 13.5589 13.3369 2.91272 1.45111 -0.235681 -1.29696
838 47.2991 14.1459 3.13548 -1.01508 0.239673 0.513834
657 13.4193 16.5162 3.18736 0.722931 -0.257419 -0.629769
2296 39.8354 16.0581 3.69222 -0.523642 -0.0376433 -0.00399257
2847 30.223 17.8261 2.8645 -0.845922 -1.37817 -0.410845
3540 32.1045 17.1523 3.37453 -0.141738 -0.640499 0.130742
1057 37.4067 17.3931 3.08111 -0.0185661 -0.492049 0.760933
2075 52.9288 22.263 4.15922 -0.0786501 1.23835 -1.0417
885 49.3213 23.6715 3.21646 0.146307 -0.783167 -0.930694
2249 27.8137 25.0523 2.99877 0.729045 0.36451 0.142039
1602 34.0511 25.5686 4.02549 -0.182225 -0.227432 1.29042
34 43.2434 25.9175 4.20845 -1.0524 -0.948882 -0.409859
1741 53.7706 26.952 3.76249 -2.02486 -0.710548 1.52222
1327 57.0672 27.9996 2.88681 0.477982 0.774119 0.217755
3589 22.5653 28.8772 4.06804 0.045611 -0.02805 0.0226237
1589 24.0298 30.671 3.10098 0.28698 0.0863537 0.932583
2133 46.3172 31.0965 3.52755 0.0692538 1.27697 -1.05272
2111 46.9868 30.1713 3.17574 -0.402679 -2.35794 1.68498
975 58.009 30.3996 3.91047 -0.615832 0.918689 0.726936
1841 48.4312 31.4622 2.98772 -0.610743 -0.0731132 -1.13979
2826 53.3572 31.9928 2.90071 -0.987862 0.161052 0.742344
1584 31.5806 34.2087 3.26183 1.96036 0.162024 0.0608344
3475 9.93276 36.6528 3.06684 -0.301782 0.020129 0.941719
3056 18.9721 36.4678 3.46929 -0.565588 -0.80892 0.274553
763 73.4621 36.4938 2.9926 0.693532 -0.891512 0.910376
3317 54.7144 0.728656 4.46635 0.337828 0.725411 -0.448035
576 56.0411 1.36296 5.2275 0.788314 0.0048319 -0.559251
1625 18.5919 5.25931 4.97834 1.28109 -0.0714158 0.707432
546 61.6191 5.01786 4.94244 -0.746895 -1.12169 0.975221
2789 68.246 4.59737 5.64702 1.78314 -0.504126 0.0344076
3070 21.4879 6.79256 5.65118 -0.416088 -1.42207 0.0392224
1294 29.0074 7.51511 5.23394 -1.01854 -0.0991478 -0.674597
248 52.1201 9.01571 5.19554 -0.702276 -0.350293 -0.0986343
3428 13.2498 10.7336 4.88589 -0.728248 0.836812 -0.0380222
2621 31.1117 12.7392 5.63893 1.16496 -0.479019 -0.529218
1640 40.987 14.0938 5.14958 -0.59688 -1.79343 -0.482967
89 70.5203 15.3061 4.7201 0.171924 0.0320356 -0.412778
2659 2.51151 18.2628 4.64486 -0.793603 0.226444 0.238474
1202 57.8801 18.541 4.33809 -1.05926 1.44155 0.0652855
156 0.517931 20.7775 4.51152 0.403456 -0.466896 1.02132
873 21.9002 20.1898 5.03746 0.755321 0.264781 0.516476
1598 17.3034 22.3032 5.57613 -2.06385 -0.914121 0.0054638
122 61.7663 21.2648 5.10501 -1.81755 0.662127 0.0206394
689 17.2677 22.6867 4.29984 0.499279 -0.719458 0.876948
3509 61.6883 24.8489 5.27276 -0.949963 -0.30776 1.00806
1330 9.11116 25.5343 4.97942 2.48144 0.131132 1.31297
1281 10.445 26.1633 5.1636 0.977164 -0.837982 -0.259899
370 39.6609 27.6521 4.63465 -0.662445 -0.188926 2.12445
3110 41.7801 27.1605 5.14833 1.85396 -1.81919 1.1512
1825 56.6199 28.4084 5.02284 -0.157906 0.82988 0.0480217
2090 11.7454 29.7634 4.55908 -0.939627 -0.587906 -0.601425
521 42.8392 30.1189 4.52242 0.131141 0.00774901 -0.0860859
971 55.8972 31.6294 5.27579 -0.731626 1.15863 -0.779331
726 45.8316 33.9262 4.5146 -0.122527 -1.79292 -1.7856
2250 29.6484 36.7115 5.43634 0.696336 0.999226 0.651271
1949 51.4095 36.1118 5.54592 -0.916939 0.829056 -1.817
2617 4.93893 2.42486 6.54505 -0.416563 0.972058 -0.75237
2374 4.52837 3.63914 6.57037 -0.364389 -2.18201 0.393868
924 1.72845 5.05186 6.75387 -0.263441 0.323155 0.400304
2015 16.2959 5.46985 6.35102 -0.0329459 -0.650576 -2.23642
1702 57.3465 5.58476 5.68513 -1.58891 0.553453 -1.106
3296 48.8646 7.34639 6.61439 1.68078 -1.37908 -0.0409731
1061 17.7247 9.77842 6.50869 -1.59343 0.646339 1.21359
2592 49.1249 9.27638 6.36374 0.57179 -0.0732519 2.57511
2638 13.2566 10.0306 6.06627 0.048335 1.13421 -0.422755
1405 20.2187 12.6657 6.6817 2.069 -0.418326 0.132015
1193 47.7487 11.7457 6.57809 -1.58168 1.33376 -1.24247
2438 66.0563 12.6803 6.25443 -2.09555 -0.268752 1.44832
3459 40.0244 14.0302 6.05996 -0.333312 -0.995541 -0.678384
469 73.3136 14.0462 6.85603 0.911198 0.423905 -1.01038
1304 6.3137 16.3458 6.67964 -0.59676 -0.0439348 -0.618011
563 34.7959 16.4305 6.45308 -1.12447 -1.00485 -0.134664
2338 55.2652 15.847 6.81369 0.00699282 0.468646 1.3846
3520 28.6122 17.4919 6.01909 -0.159767 0.0313797 -0.486242
1016 35.442 17.3292 6.71285 0.585234 0.150708 0.91542
3721 52.9822 17.5683 6.10064 0.315311 -1.10763 -1.28468
980 18.3973 20.4139 6.41023 -0.886088 -0.00987423 0.998598
2932 17.9797 21.2477 5.78553 1.80447 -0.810761 0.779013
770 73.2179 20.4008 6.80288 -0.234587 0.255863 -0.837307
3443 2.04046 22.448 6.9226 1.26304 -0.670447 -0.37824
2660 34.8543 22.4168 6.33502 0.201879 -1.01752 -0.167092
61 49.8439 22.3414 6.39151 1.88132 -0.128358 -0.930003
794 29.7631 25.2484 6.82037 0.451202 -0.098387 -1.17532
1849 44.0814 24.2053 7.06108 -1.45731 0.372629 0.158776
3912 41.7126 28.7599 5.92768 0.531712 -1.27538 1.01938
1797 58.5766 28.7094 6.63678 0.629317 -1.25088 0.831659
500 67.4814 28.7044 6.14149 -0.211526 2.73793 0.319369
2319 7.48564 30.1839 6.29276 0.759251 1.27955 0.717004
3039 55.3535 30.448 5.77061 0.642973 -0.406026 -0.742803
1498 61.5286 29.9431 5.83026 -1.30728 0.669744 0.189362
3302 46.0576 33.1582 6.24367 0.0812008 -0.270654 1.37424
3597 46.6244 35.081 5.89254 1.5656 -0.601345 -1.87365
2893 10.5437 35.8052 5.87352 0.507493 0.491086 0.926326
2258 35.7673 35.8547 6.26012 0.295091 -0.277621 0.162676
3785 52.9601 35.7833 6.51633 0.938189 -0.317366 -1.96932
2676 72.8385 36.3553 5.76662 1.36673 -1.00607 0.801856
1647 14.7674 0.0115165 8.1878 0.911415 -0.930534 -1.22329
2664 21.612 0.0842706 8.0754 -1.79928 0.694337 -0.124788
2678 67.9544 3.82672 7.58891 0.26882 2.35216 1.51884
3592 53.2796 4.66206 8.12252 0.8413 0.447459 0.0499824
2668 7.55832 6.84832 7.40756 -0.889318 0.233042 0.392707
1040 2.37882 10.8404 7.51005 -0.242777 -0.993002 0.861621
692 35.9388 11.4456 8.48083 -0.274535 -1.42581 -0.655965
1688 53.7279 11.8539 7.75047 1.08663 -0.660246 -0.36451
1842 17.3854 15.3439 7.88608 -0.679808 -0.160487 1.21382
1942 44.1695 15.0886 7.29588 -1.41326 -0.756949 0.838715
3841 70.1457 18.0564 8.48639 -1.08508 -2.16029 -0.666336
461 0.846433 19.7268 8.03402 -0.196204 -1.71698 0.164774
2516 3.03144 19.0757 7.88865 -0.872123 0.22334 -0.448478
1717 12.5499 19.241 8.27531 -0.975642 0.711508 0.201511
1233 71.7698 18.4929 7.29083 1.8724 0.308256 0.822732
2802 13.0538 20.0092 7.69783 0.901961 -0.32717 1.02986
3891 17.7286 20.7585 7.29296 1.84568 1.28429 0.914811
3545 20.4123 20.2177 7.88657 -0.40246 0.838875 -0.359527
3551 35.1172 20.282 7.33871 0.342262 1.92508 0.673213
145 42.8566 22.3758 7.20533 -0.109431 -1.06726 -0.252024
1130 21.0764 23.7128 8.41425 1.44253 0.309225 1.50613
3541 65.2869 23.6494 8.40879 0.331529 0.826351 -0.650804
822 34.5945 25.2753 8.18619 -0.1877 0.291566 0.391258
1780 15.79 25.6938 8.21824 -0.766162 0.0912404 0.42746
3885 42.6258 26.4926 8.34831 -1.09147 0.626478 0.958262
3365 43.79 26.3011 8.15849 0.066277 0.495843 0.366956
829 11.0018 26.9812 7.89125 1.40142 2.46952 0.0346441
1104 33.1849 26.9418 7.91708 1.13093 -1.40536 1.43904
2500 55.8851 28.6404 8.41535 1.99141 0.0191005 -0.201462
1489 69.9417 29.2438 7.89646 0.91955 -0.603175 0.700134
92 6.94714 31.1569 7.77041 0.265289 0.603576 1.05627
1955 27.4499 31.0624 7.41874 0.66473 0.217031 -0.740977
530 5.82477 31.3792 7.57531 0.775042 -1.23398 -0.115748
3834 19.0314 31.613 7.26454 -1.77559 -1.17648 0.784127
1069 71.1406 33.0153 7.59559 -0.978177 0.761007 0.404393
3696 45.0117 34.9889 7.38461 -1.09398 1.41315 1.40697
3246 25.2093 36.2705 7.314 0.262006 1.70631 -0.320404
2874 50.7041 35.9936 8.03925 0.331837 -0.775205 0.103913
3017 25.4028 0.125423 9.6643 -0.701499 -0.273066 -0.151909
3243 20.3454 2.78954 8.79849 -0.215301 -0.739045 -1.03791
1127 26.9166 2.55251 8.65565 -0.237481 -0.112147 0.401601
2724 40.531 1.97222 9.52995 -0.400972 -0.158054 -0.0545676
3980 70.9366 1.94474 8.86105 -0.907929 1.50394 -1.69929
2589 52.4628 4.24004 8.81473 1.77624 -1.53468 -0.244239
55 3.82341 5.77224 9.6507 -1.70334 0.606715 0.502135
2797 52.3886 6.99112 9.45762 -0.278288 2.02626 1.1031
929 15.589 9.53409 8.65806 0.0241709 0.888863 1.36135
1097 3.2117 10.9552 9.212 0.140353 0.405004 -0.834538
299 5.92015 11.8799 8.76319 -0.994873 0.916591 1.80158
424 50.6853 11.4576 9.03726 -0.695737 -0.850082 -1.71976
101 61.5598 15.4851 9.45511 -2.37961 -0.683274 0.0764458
414 68.6067 15.3576 8.59484 -1.30908 0.125723 -0.258857
661 5.34735 15.6314 8.67352 0.842285 -0.264939 -3.08452
2450 52.4903 17.0546 9.48013 -0.887186 -0.852373 -0.159869
130 59.2807 18.3686 9.85316 -1.63319 0.976257 0.238038
760 33.5222 19.3642 8.67777 0.635473 0.369402 0.329844
3370 38.1487 20.6971 9.12395 1.4367 -0.213282 0.726027
1365 17.9885 22.2975 9.02861 0.555149 -0.342757 1.09353
2188 31.5677 21.6958 9.27611 0.0259868 -0.0171022 -0.486558
812 37.8042 22.5283 9.56761 0.875881 -0.397279 -1.20301
2351 67.8481 21.3473 9.70849 -1.16496 3.10455 -0.443891
1533 51.5454 22.8541 8.57566 0.024573 -0.322631 -0.387048
35 49.5127 24.77 8.72549 -1.15348 0.646863 2.28141
840 7.95913 28.4786 9.8786 -0.418359 0.045977 0.776929
1785 22.3615 29.829 9.28623 -0.522726 -0.828486 0.183997
1916 66.1246 31.0699 9.74367 0.690823 0.750144 -0.000225054
1595 5.99518 31.3986 8.94677 0.833682 -0.562238 -0.218194
2079 9.67863 32.5522 8.5526 -0.278166 -0.383694 -0.676166
2120 13.768 31.6726 8.65295 0.185513 0.565568 -1.05518
3745 73.571 31.7972 9.86418 0.174665 0.0849775 1.5854
1332 27.587 32.693 9.77797 -1.12544 -1.00019 0.46375
1300 54.4764 32.7568 9.59581 0.0212458 2.50132 -1.70853
202 10.2742 34.329 8.93367 0.644466 1.96908 -1.18847
434 43.9793 36.8172 9.60783 -1.76728 -1.14944 -0.545819
390 31.0935 0.649345 11.1292 1.20209 0.483377 0.144305
273 70.6574 0.329466 10.0946 -0.143228 -0.220319 -0.383804
536 4.81306 3.01998 11.0061 -0.111368 -0.748906 -0.017471
3102 7.63817 3.90976 11.0215 1.41797 -0.394843 -0.450269
3818 49.835 3.08013 10.5275 -0.532254 0.683118 -1.68392
2959 28.3691 4.98133 10.5938 -0.210802 0.76193 0.547002
2369 72.1879 5.23591 10.8533 -0.937768 0.668015 1.99105
831 32.1792 5.69586 10.7169 -0.679396 0.125664 -0.438182
3174 35.8367 6.76498 11.0511 -0.357352 0.358075 1.23822
3740 37.9689 6.38564 10.0907 -0.38713 0.0163727 0.0445796
3354 23.6429 7.28408 9.9887 0.128118 -0.722482 -0.630714
1025 27.1007 7.99708 10.1763 1.92463 0.895725 1.3253
2045 29.5107 7.87499 11.2473 0.012616 0.0964264 -1.08735
3390 63.0471 8.45969 10.0674 -0.296956 1.25459 0.600198
334 68.7734 7.79241 10.8269 -0.263225 1.15622 1.01436
471 57.6699 8.72261 10.8255 1.27827 0.7638 0.799069
2414 63.3333 9.03272 11.058 -1.58024 0.431751 -0.194682
3605 71.9737 9.12487 10.0342 0.213699 0.702742 -0.128915
3921 47.4927 10.0609 10.0543 -0.66971 0.217658 -0.795551
1748 30.759 12.4643 11.1259 -1.3788 0.0135168 -1.79372
2036 44.144 13.0069 10.8037 -0.931183 -0.268017 -0.267792
3574 72.9073 16.1561 11.0218 1.71437 -0.126876 -0.362592
1872 19.1316 18.8988 10.9951 0.109376 -1.3875 0.757422
1508 36.9946 19.0311 10.8882 1.60609 0.425646 -0.402238
1572 18.529 20.3518 10.8273 1.02425 -0.577259 -0.611392
545 34.8367 21.1676 10.9531 0.546875 -1.69708 -0.390045
3791 26.392 21.8106 10.8155 0.226746 1.30757 -0.284702
2125 30.7557 22.0631 10.6473 -0.196386 -3.0194 -0.0724571
3846 34.678 22.5388 10.974 0.290251 0.369567 0.104741
1868 36.5265 22.5438 10.4481 0.452274 -1.91329 -1.65176
3672 63.6784 22.1636 11.2808 -2.26226 -0.645168 1.64361
3415 53.0896 23.7924 11.2127 -0.180233 -0.224223 0.101414
3516 20.6212 24.8813 11.1428 0.652551 -0.465614 1.54949
713 32.1153 24.4112 11.1374 0.754132 0.805482 1.14614
1293 33.846 25.1505 10.6663 1.42757 0.0234807 -1.21776
2824 55.659 25.0259 10.1654 -1.45013 -0.288821 0.664953
3864 11.2104 28.0755 9.966 -0.26587 -2.60096 0.902645
3568 30.4897 27.151 10.907 0.493466 -2.62409 1.37378
3953 6.05455 30.759 10.17 -0.459357 -0.4665 0.152209
2906 21.5236 30.4713 11.0503 -0.0927686 1.22029 -0.814001
3908 61.2355 29.8088 10.8833 -0.730536 0.671935 1.35298
3742 2.82844 31.4782 10.6886 0.0845066 -0.799878 0.759508
1214 26.6484 33.1612 10.8635 -0.258978 1.13157 1.31957
957 4.83211 0.666505 11.359 -0.604145 -1.15323 0.835653
2889 0.489062 2.83044 11.9582 0.0720004 -0.884774 0.769746
869 23.05 1.73049 12.5058 -0.609854 -0.22873 0.725105
1726 62.5178 3.6317 11.3617 -0.504379 -0.00365763 -1.05407
1408 66.9421 5.5992 11.8292 0.431875 -0.834665 -0.58714
1111 25.7427 6.94682 12.3382 -0.632467 -0.442914 0.21358
1389 33.5601 7.76502 11.5787 -0.48001 0.770076 0.107861
4 66.6408 7.48601 11.5358 0.535107 0.255881 0.196165
1083 67.5363 8.61954 12.3356 0.392933 -0.385229 -0.368093
415 22.6475 11.7848 12.5046 -0.5398 -2.2262 1.51432
3301 48.3694 12.6534 11.6149 0.289373 -0.904263 1.23293
3720 47.2407 13.6957 11.42 -1.07728 0.579018 0.423556
1038 47.3042 13.8324 12.5723 -0.312324 1.22086 0.543174
3746 9.77031 15.4129 12.3993 -0.523289 0.563632 0.107266
449 24.9411 14.959 12.0165 -0.166366 0.297133 -0.993282
3203 36.6046 15.4126 11.6783 0.671876 1.64339 0.714598
1374 47.3037 15.2352 11.4079 -0.954507 0.51406 -0.716478
1153 5.5293 16.9624 11.6632 -1.80642 1.01479 0.588491
1692 34.8074 19.5348 11.4534 1.37252 -0.325881 -0.293355
3978 10.9897 20.823 11.6081 0.850922 0.726429 -1.68882
688 42.1297 20.8571 12.4292 0.221037 2.48477 0.262649
2584 2.54833 21.8695 12.0846 -1.17915 -0.0986156 -0.632513
1960 61.4538 22.5115 11.7297 1.13816 1.25209 0.0367577
3170 47.8731 22.7583 11.9594 0.754388 -0.543211 1.35451
3278 67.724 24.6032 12.0665 0.0549455 -0.733861 -0.119494
2935 56.0414 25.6416 11.5645 1.58897 -0.00238943 1.28373
2521 67.1941 26.5643 12.481 1.02228 0.0638437 0.681454
3529 66.9365 25.5751 12.7133 -1.19531 -1.18093 -0.0831368
1445 38.1497 28.0055 12.3102 -0.909026 -1.8127 -2.03335
2973 52.3556 26.9258 11.6998 -0.0765336 -1.67665 -0.27367
1368 58.0324 27.347 12.6879 0.539519 -0.893194 -2.48255
276 70.0318 27.4297 12.5288 -1.23736 0.856022 1.0134
3192 24.7989 28.8991 12.3185 0.123631 -0.0764847 0.404561
2085 43.591 28.7197 11.4268 -0.224198 0.567783 -0.0422058
302 1.5188 29.957 11.5169 0.239446 0.0251779 2.72494
3893 60.1249 30.5877 12.3606 -0.827739 0.513888 0.484928
747 36.7679 32.0368 12.5225 0.374158 1.0845 0.750715
3434 35.5725 33.6752 11.9842 1.57694 2.6419 -0.773479
2938 25.2701 36.258 11.6513 0.377537 1.70347 -0.638329
3364 38.7492 0.893707 13.34 1.62732 -1.70357 0.227934
3034 52.5273 0.493774 13.8021 0.76188 0.594582 0.171197
2465 56.5559 1.24854 13.1216 -0.33075 -1.83521 -1.31396
3564 70.2603 4.19003 13.0872 -0.930408 -0.585935 -0.68903
185 38.0926 4.81554 13.4298 0.334565 0.845957 0.416974
543 58.3207 5.05333 13.6517 0.319719 0.808978 -0.548027
3312 21.5619 6.28811 13.834 0.198468 0.318958 -0.0755865
2723 32.544 9.91073 13.7902 1.32023 -0.579417 0.146992
265 4.77494 15.5854 13.8097 1.37491 2.1186 -1.79616
3890 5.54832 14.7259 13.5317 0.240376 -0.503888 -0.151793
129 9.72296 14.7036 13.0795 0.856763 -0.324337 0.697931
1629 22.8961 16.8959 13.0612 0.424971 -0.685432 0.248654
1645 36.3605 17.5529 12.762 -2.11847 -0.193775 -0.016559
3350 62.5407 19.0506 12.882 1.51745 0.203733 -0.345373
1628 16.7835 20.7238 12.9336 0.479527 0.214173 0.285453
3334 54.4775 20.5393 13.3319 0.0062546 1.08938 0.61146
710 15.1226 22.4305 13.9142 0.372672 -1.42446 0.65789
774 27.1488 24.4164 12.9105 -1.50665 0.903251 -0.452735
259 42.4572 25.0294 13.132 -0.339488 -1.04927 -0.433987
345 55.0245 24.5731 13.9523 0.228077 1.20679 -1.19969
2132 54.0499 24.5277 13.2452 0.312294 1.17555 -1.64076
1596 66.7352 24.1051 12.7857 0.157477 -1.61726 0.016435
3579 8.4567 25.5779 13.4566 0.920941 -0.476191 0.252725
2477 12.5129 25.9676 13.9044 0.386357 0.870764 -0.662197
2175 18.3668 26.0082 13.6936 -0.540388 0.242735 -0.889144
435 25.9172 27.8644 13.0864 -1.30746 -0.629739 0.970377
1423 41.4919 27.2027 12.8895 1.90923 -1.17032 0.768251
2612 37.1445 30.6274 12.9252 -0.403092 1.12592 -0.474863
3989 38.8729 30.9443 13.7659 0.309505 -0.0692929 -2.7211
875 72.992 30.5059 13.3884 0.0301834 0.39812 0.18591
1100 21.925 31.2885 13.1863 -0.806355 0.410907 1.44041
3717 4.87217 33.5952 13.2525 -1.28715 -0.949348 -0.275326
3722 45.3217 32.906 13.1838 -0.984363 1.20003 -0.249559
1806 44.2098 33.498 13.786 0.698525 -0.620369 -0.755227
635 65.5242 32.8185 13.5174 -0.835688 -0.408679 -1.235
529 64.9863 34.1768 13.0942 -1.28042 0.00493764 -1.07054
3043 0.219934 35.513 13.1461 0.339129 -0.337896 -0.343911
2460 18.9077 35.4525 13.5949 -0.890159 0.262882 0.451779
54 44.4501 36.1849 13.4935 1.31829 1.02161 0.617055
732 48.0301 1.24706 15.3243 -0.80423 1.89041 1.06071
717 49.3479 0.718502 15.0931 -1.2062 1.62077 -0.500916
561 62.6331 2.11333 15.1047 -0.340285 -3.18006 -1.0601
2825 8.92314 4.31288 14.4729 0.650006 -0.607535 -1.60694
1621 15.3318 4.89298 14.5221 -2.98954 -1.70969 -0.0742024
1048 20.9888 6.9418 14.7853 1.00674 1.88535 -0.795026
1128 40.0206 6.66338 15.5395 -0.141613 1.56122 -0.845782
1786 15.3398 7.63283 15.1153 -2.21355 -1.06115 1.03889
3027 1.35323 9.27627 14.1762 1.31277 -0.512069 -1.54926
1891 40.5569 9.82594 14.6977 0.524301 0.333614 -0.815766
1192 42.9992 9.42626 14.9303 0.471429 0.577208 2.20422
1092 44.4388 10.5646 15.0733 -1.44235 -2.4724 -0.873273
2666 25.9492 12.3692 15.4686 -0.533092 0.542716 0.950561
2611 73.4702 12.7252 14.8557 0.67019 0.893806 0.781612
225 5.03263 14.0096 15.3604 0.281433 0.0836616 0.320523
672 6.24517 14.1641 14.6771 -0.34558 0.720012 0.551342
2839 18.2385 13.122 14.9145 -0.755186 -0.310154 -0.981049
2376 1.91032 16.5202 14.5014 -0.784096 -1.07661 0.607076
42 7.6406 16.5948 14.5837 -0.694921 -0.899449 -0.111772
3 26.3132 15.8483 14.4526 1.69694 -0.0138735 0.29977
176 26.7856 16.9315 14.6543 -0.531289 -0.752356 -1.1903
3163 60.2379 15.7672 15.4551 0.434187 0.499592 1.00138
482 29.1357 20.086 14.2596 -0.0787117 0.218764 -0.0603667
1287 7.46864 21.3196 14.7087 0.057034 -1.28168 0.917684
2489 27.5932 22.8185 14.903 0.849257 1.11455 -0.27591
240 50.7091 23.3254 14.4595 -0.428706 -1.27475 0.922094
3299 65.5122 23.763 14.1882 -0.433807 0.265909 -0.111214
1266 10.6088 24.9106 14.424 -0.921776 0.360532 0.724612
2461 26.268 24.8829 14.3472 1.05747 -0.0166918 -1.57884
1887 45.3713 24.3534 14.5395 -0.931438 0.0889299 0.905773
1421 62.3428 26.3813 14.7648 -0.0820319 1.71866 2.23293
2241 60.9287 26.452 14.9002 -1.58858 0.192321 -0.280745
1137 0.296915 27.8102 15.107 0.905267 1.29049 0.503004
1567 69.2224 27.4602 15.2972 -1.88397 1.4203 1.08199
3304 38.846 29.1552 14.2492 -0.817791 0.67175 -1.05798
2235 22.1776 30.8014 14.2988 1.11425 -1.66246 0.674159
2714 44.4146 30.6734 14.6484 0.653353 0.628071 1.72096
3682 44.2464 33.591 15.0658 0.495614 -0.911109 -1.49261
3559 14.4205 35.3262 14.1755 0.375419 -2.20799 1.23156
3502 26.392 35.969 15.4307 0.455082 -0.828907 -0.652586
1240 33.5795 36.2392 14.1801 -0.0619518 -0.747103 -0.0446117
1424 30.8829 1.31534 16.519 1.2368 0.0287845 -0.658913
3021 23.7251 2.57422 15.5867 -0.329437 0.398091 1.48396
3832 24.9742 2.736 16.0402 -0.40233 -0.244474 0.222676
2070 32.8961 2.44888 16.8337 1.20677 -0.295247 -1.24779
2505 42.0588 2.00727 15.8541 1.02918 -1.15577 0.7428
3673 7.88498 4.68149 16.1316 -1.12338 -1.48925 -0.970461
3388 44.6937 4.38231 16.6425 0.889975 -0.356731 -0.0650175
1964 41.0367 6.39585 16.5103 -0.842956 -0.448054 0.569239
2238 46.268 6.48816 15.7262 -0.965307 1.35864 -0.585043
2718 59.107 8.794 16.8834 0.300373 1.49787 0.943313
2052 16.7609 11.0505 15.726 -0.402728 -0.127539 -1.03452
847 29.7144 11.5608 16.5615 0.985408 -0.147553 0.270588
1710 51.1528 11.6061 16.3654 0.624682 -0.263162 -0.910151
1158 15.3963 13.1869 16.0761 -0.211157 0.650513 0.225831
3464 50.6463 13.7595 15.9268 0.339366 -1.33729 0.256872
429 6.15186 15.3658 16.4942 -0.753554 1.67193 0.139388
2603 37.7313 15.0142 15.6499 -1.26432 0.344105 -2.21248
2636 31.2074 16.8263 16.5876 -1.37054 0.144036 0.285641
502 68.9645 15.7102 16.4059 -0.766157 0.513757 0.17183
749 20.5892 19.6614 16.4161 0.557703 0.983157 -0.382563
1312 42.8541 18.6776 16.0984 -0.913357 -0.923919 -0.134482
2136 16.256 20.1403 16.8337 -1.65458 -0.0569764 0.0294802
3041 63.6236 22.2154 16.3944 -0.278124 -0.686963 -0.095118
329 13.2422 22.9417 16.9462 -0.625952 -0.213387 -1.43988
2567 4.90178 24.2181 16.779 0.728971 0.461638 0.980443
2360 58.1607 26.3062 15.814 -2.34014 -1.06326 -0.0666583
3090 38.1715 28.168 16.7267 -0.47432 -0.113318 0.324031
3074 51.3398 28.1226 16.3467 0.254025 0.54615 0.905787
2373 18.3997 28.507 15.7762 -0.0513084 0.0337612 -0.43159
3377 8.24519 30.2149 16.8917 1.89155 0.849869 -2.08993
237 35.1063 30.8979 15.9971 -0.531295 1.89054 -1.15747
2527 52.272 30.7494 16.114 0.993704 1.46727 1.41499
1517 66.1009 31.7244 16.3647 -0.928703 1.70419 -0.305644
3771 19.9142 32.5943 16.7675 0.188651 -0.258821 -0.656753
1480 63.6573 33.7279 16.7098 -0.229661 -0.305897 -0.553445
2548 33.9728 35.2299 16.5434 2.10943 0.436373 0.532388
815 37.5035 34.8307 16.14 1.12923 -1.10905 -3.26778
706 16.5536 1.24888 18.2204 1.00774 1.37551 -0.142106
664 44.1758 0.0841945 17.3611 0.165663 0.430618 1.78347
462 55.2726 1.07148 18.1385 0.157214 -0.697666 -1.33517
851 58.9788 0.542049 17.1881 -1.0645 -1.56679 -0.113605
976 28.256 1.67826 18.2901 -0.0136476 1.61876 1.183
1557 57.5689 3.8585 17.8941 1.03955 0.715858 -0.0644204
1362 19.0268 6.09584 17.1427 0.983374 -0.584418 -0.952413
144 21.087 11.0681 17.2252 -2.49603 1.60546 0.684528
2652 10.842 12.1132 17.5912 -0.71777 0.156861 -0.887096
85 45.0569 11.9334 17.3834 -0.6699 -0.724466 -1.37969
1292 46.2236 12.693 18.3521 -0.870858 0.965166 -1.35769
38 27.1634 13.5596 17.3193 0.148477 2.40723 0.489376
3825 63.2372 12.7668 17.1531 0.00826142 2.14924 -0.60504
837 6.7008 15.2017 18.3388 -0.355618 0.383169 -0.69031
777 43.3193 14.9208 17.2902 -0.686247 -2.19072 0.0193457
3213 50.8015 14.7949 17.1931 -1.07457 -0.295992 -0.569829
1961 4.35034 15.7021 17.4107 1.51028 -0.825969 -1.07653
859 32.225 18.4895 17.1298 1.74364 -2.61069 1.43772
3323 65.4773 18.5315 17.7014 -0.86353 1.35758 1.0844
2634 2.78172 20.1487 17.1738 -1.2771 2.05011 0.774215
2816 48.7263 22.705 17.0134 -1.38748 0.094434 1.40091
3276 56.7641 23.2242 18.2125 1.2517 0.986119 -0.478067
2299 16.2725 24.9082 17.5074 0.115725 0.2543 0.168991
330 45.2294 25.3939 17.996 0.0593716 -0.189994 -0.102563
3991 59.2406 24.3247 17.3424 -0.636776 0.256119 -0.0382982
3212 61.8823 24.266 17.8795 0.0837962 -0.0788629 -0.0175016
3710 58.5415 26.0021 18.1572 -1.36214 0.862829 -1.1703
1241 52.19 27.9465 17.7854 1.38395 1.02679 -0.650803
2890 72.8065 27.0786 17.7184 -0.48769 1.92421 -1.15751
2385 0.970555 28.6562 17.8024 -1.4799 -1.87894 0.13318
3946 66.6676 29.7492 17.7691 -0.411009 0.883109 0.99397
3522 56.5033 32.5308 17.7851 -0.657208 1.37867 -1.72561
1556 63.3182 32.0983 17.2279 0.703688 1.14859 -0.289161
2868 61.3805 32.9168 17.7653 0.554831 0.371854 0.694694
1881 63.4713 32.6241 18.3581 1.11976 -0.264742 0.551552
1370 64.435 32.9936 17.5725 0.179299 0.366162 0.0194574
2393 38.3298 34.1235 18.231 -1.14932 0.889368 -0.673582
634 53.5176 35.5799 17.3665 0.409709 0.363527 0.681253
1599 62.3013 36.2582 17.1851 1.34935 1.75058 -0.325682
2026 20.8649 1.12177 18.9718 -0.332797 1.49125 -0.530083
3007 51.607 0.338831 19.6683 1.75748 0.658593 1.27553
2907 24.0897 3.33156 18.6607 0.000794999 -0.97736 -0.390964
1813 34.5298 5.17014 19.3861 -0.941638 1.02281 0.861122
3663 55.0443 5.61685 18.4527 0.910248 -0.818259 -0.755282
2397 2.1904 7.54976 18.9604 -0.368473 0.239695 0.765249
2524 6.77479 9.41374 19.643 0.590113 -0.396561 0.491098
3709 9.20808 9.53006 18.6569 0.469669 1.38192 -0.645872
1566 10.2373 8.53622 19.8021 -0.295337 1.1201 0.824551
3288 16.1172 9.36942 18.9725 0.892527 -0.241623 2.12372
3032 55.6679 9.71918 19.1537 -0.647457 -1.26475 1.16077
2387 2.48357 10.5226 19.1997 1.23375 0.0577652 0.894667
3156 4.48737 10.5547 19.7239 -0.46884 1.09986 -0.456659
2669 20.7768 10.6908 18.4591 -0.309387 -0.747503 -1.89416
2273 20.1506 12.0382 19.6343 1.69891 -0.0667632 -0.942583
1622 9.83398 14.1603 19.7741 0.107398 -0.696741 0.185416
583 44.992 13.3465 19.4043 1.6584 -0.83039 0.341093
245 61.6649 14.8781 18.4809 -0.908092 -0.226484 -0.397512
2667 10.5843 16.8011 19.2887 0.256767 0.0650614 -0.613783
807 50.9362 15.6275 19.0315 -0.161662 0.191036 -1.03126
883 11.8344 17.6348 19.713 -1.03177 0.0519016 -0.434423
3230 9.23811 18.6602 18.6504 0.497282 0.127594 1.0109
3137 69.1823 18.5721 19.1286 -0.516235 2.98232 -0.753222
2979 57.2369 20.6152 19.7499 2.12479 0.954555 -0.238998
2050 28.5762 21.9774 19.242 -0.837023 0.895415 -0.809942
705 73.171 21.3036 18.6902 -1.14245 0.549836 1.16421
3881 19.5289 23.4359 19.1735 -1.30186 1.62 -0.687545
3761 49.0601 22.714 19.2407 -1.01167 -0.788485 -0.420292
270 60.456 22.9602 18.5473 -0.843658 0.896111 -2.64642
2635 26.6333 26.8451 18.5048 -1.44176 -1.2235 0.29272