ITEM: TIMESTEP
78000
ITEM: NUMBER OF ATOMS
4000
ITEM: BOX BOUNDS pp pp pp
0.0000000000000000e+00 7.3680629972807722e+01
0.0000000000000000e+00 7.3680629972807722e+01
0.0000000000000000e+00 7.3680629972807722e+01
ITEM: ATOMS id x y z vx vy vz
80 45.8488 0.467282 0.945783 1.21963 0.663955 0.693231
2129 30.424 2.45081 0.143388 -1.63893 0.789812 0.039346
2078 37.1592 2.4 1.24349 -0.382079 -0.299109 1.4368
2422 36.1937 3.80656 0.907874 -0.484181 0.521663 -0.0719014
3696 34.8972 5.66307 0.670369 0.194399 -0.342496 -0.255565
1566 55.1545 4.33462 1.17343 -0.626994 -0.0852242 -0.173466
63 39.3483 6.55535 0.411479 -0.154758 1.79315 0.359187
3561 62.4555 6.76444 0.176007 1.60094 -0.14443 0.0232096
2312 70.5463 6.30938 0.956115 -0.880483 0.245467 -2.14396
1364 70.6397 7.73246 1.039 -1.67311 -0.736623 -0.309018
3884 12.0315 12.2727 1.2958 -0.427266 0.0794025 0.117192
2064 70.8447 11.5074 0.246055 -0.515671 2.02524 0.78105
2814 6.49104 12.9107 1.07751 -0.870299 0.37563 1.61825
974 50.5507 13.2415 0.302831 0.730883 1.963 0.638677
2930 70.8743 13.8865 0.881644 -1.34448 -0.956876 -0.108133
3558 72.6389 12.7737 1.3477 0.452804 -1.13518 -1.69785
2609 57.3771 15.4168 0.552837 0.356117 -2.08127 0.831286
467 4.09081 16.8893 0.768386 -0.638741 2.02956 0.463866
265 3.0875 17.2455 0.628089 -0.573718 1.64369 1.00772
1011 24.4481 17.1973 1.16789 0.298079 0.427387 0.609337
983 64.6847 17.7976 0.790513 1.03877 -0.704888 0.76739
3875 37.0626 21.3388 1.14835 0.188656 0.522097 -0.848935
3645 9.58386 24.0842 0.558829 -1.23796 0.511859 -1.57865
2554 22.0831 23.2224 1.02856 0.264297 -0.0244123 2.43398
44 57.7238 23.9365 0.810816 1.41928 -0.160818 -0.403371
2340 61.747 23.2424 0.49149 -0.522164 0.435606 -0.520863
1609 69.0904 23.8173 0.94423 -0.661219 -0.925857 -0.895705
1414 72.1257 23.343 1.13202 1.1962 0.00833557 -0.296849
3635 48.0657 24.7397 0.553101 2.09809 0.328104 0.00600758
1283 61.9893 29.6126 0.437023 0.152748 0.277956 1.18535
1598 31.5655 32.4906 0.139916 0.0744782 -1.61234 1.0515
1111 19.0987 32.8981 0.984493 2.60245 -1.51843 -0.141885
3806 19.9438 33.7699 1.2747 0.754643 -0.0391598 -0.928138
2825 72.2841 35.1781 0.296971 0.220417 -1.60376 -0.668927
3893 14.0722 36.1291 1.02809 0.186275 -1.25769 0.898006
2730 16.9973 36.5736 1.10184 -1.03207 -0.270478 0.930484
2816 20.696 36.2308 0.323045 0.277443 0.934746 1.30232
1942 36.3674 35.7188 0.355226 -0.132182 0.506054 1.22558
3262 0.266177 0.207888 1.55644 -0.416992 -0.804084 0.30953
1138 13.7228 0.240979 2.32747 -0.769627 -0.888026 -0.0722501
460 31.0386 1.40267 2.40698 -0.737182 0.225388 -0.395938
2399 10.4094 2.47364 2.20176 -1.71736 -0.558302 -1.42099
3433 33.1914 3.11846 1.837 0.0105688 -0.783003 -0.281855
240 26.9803 5.18154 2.23757 1.15392 0.732897 0.807256
3248 71.4764 8.32315 2.34547 -0.996358 -0.513079 -1.24096
2483 7.82969 10.9013 2.72703 0.264301 -0.201135 0.187989
1579 22.2151 10.7334 2.01766 -0.328537 0.210562 2.16909
414 38.1939 10.4806 1.50362 0.166529 -0.974074 -0.432043
3435 18.7957 12.1149 2.51877 -0.326592 1.9808 0.0729817
1244 61.2366 11.3417 1.93045 1.71301 -0.975653 -0.194575
2937 39.98 13.1325 1.79539 0.78826 -0.890426 -1.08955
1706 52.4843 14.0057 1.85483 0.0579388 0.811014 0.653836
486 31.9357 15.4053 2.26663 -0.706986 0.269612 0.570802
3269 35.2835 15.0027 2.71328 -0.559935 -0.273729 -1.84119
3554 4.16266 16.3396 1.80506 -0.495198 -0.39173 0.748173
2899 8.75826 15.744 1.97423 -0.596661 -0.141833 -0.674944
3189 18.6064 15.9066 2.59558 2.14958 1.71949 -1.18922
1698 27.2502 16.7615 1.62782 -1.60989 0.465222 0.544841
41 23.5207 17.1105 2.57563 0.363884 0.00225359 1.3236
2824 32.4447 21.0206 1.79738 1.84828 -0.81404 0.320314
3920 36.5564 20.2945 1.71524 -0.723041 1.26198 -0.304497
2850 41.0067 20.6547 2.40131 -0.0201105 0.12257 -0.244405
731 25.5221 22.0145 2.1865 -0.912923 -0.116237 1.18868
806 53.2399 22.3301 1.49089 -0.547758 -0.844955 -1.44869
3897 42.458 23.7391 2.22774 -0.410427 2.52902 1.48633
3174 64.4002 23.4741 2.45729 -0.745836 -0.484332 0.421821
2186 39.0927 24.7453 2.62084 -0.363345 -1.8442 -0.180208
1254 8.3559 28.7286 2.83016 1.80632 0.298561 -0.310988
2004 64.2364 30.3649 2.67458 0.118798 -1.70021 0.483609
1643 22.3777 31.591 2.45609 0.296671 -0.0659565 0.722988
430 65.6702 32.5869 1.50791 -1.27082 0.543019 -0.0462818
1252 71.1777 31.5372 1.60412 0.81178 1.29054 0.711632
2107 23.1914 33.9362 2.30605 0.813952 -1.22033 -0.215536
81 2.20026 34.9925 2.79272 -0.854211 2.17201 -0.630223
271 62.8341 2.06549 3.79314 -0.690795 -1.74622 0.109631
915 67.7171 2.76611 3.92268 -0.673536 -1.87428 -1.17384
2389 4.20864 3.02532 3.40149 -0.86792 -1.15596 -1.14759
2784 23.5337 3.71992 3.74264 0.38596 -1.78775 -0.760106
3959 27.1332 3.73823 3.15512 0.290165 0.186895 -0.692212
3452 62.8335 3.597 3.27761 0.323042 0.795081 2.53904
3152 69.1419 3.99422 3.01227 -0.252501 1.58893 -1.96298
2153 69.6348 3.15907 4.15278 -0.269921 0.282463 0.542894
1156 42.3574 4.78422 3.8476 0.277747 1.16437 -0.0334148
3049 68.7608 4.40521 4.24542 -1.10249 -1.54278 0.684579
643 46.5214 6.28726 2.94787 -0.790471 0.0648397 0.55908
1900 47.5551 6.15685 3.48227 1.47361 0.23401 -0.307118
3772 48.6983 6.32144 3.64259 0.0729434 -0.0128271 1.43166
2827 11.7981 9.85357 4.17014 0.945871 0.723502 -0.070497
2434 61.2819 9.31083 3.0044 0.698152 -2.29395 0.0708676
2273 7.3946 11.1483 3.80631 -0.191242 1.60975 -0.268924
2420 27.9613 10.6552 2.84811 -1.14409 1.52945 -0.39196
3701 28.9169 11.0681 3.63536 -1.2817 0.0351068 -0.497277
1419 33.7988 10.1186 3.49703 -0.506081 0.969866 -0.504595
110 70.594 10.5168 3.90901 -1.03347 2.26493 -0.429279
3229 52.6534 12.7061 4.14299 -0.737571 0.201357 -1.83889
3192 53.8371 11.4375 3.75508 -0.381439 1.8212 1.74116
1868 38.6498 12.9427 2.8476 1.61954 0.534975 0.200843
2382 54.6095 13.9725 3.87977 1.83896 1.17464 -0.656683
549 66.2684 13.7883 3.23989 2.14785 1.90083 -0.000693781
2017 65.8724 16.3512 2.97068 0.921213 -0.382862 1.22627
1552 51.8755 19.6389 3.84062 1.4398 -1.54532 0.752909
1991 62.506 19.1517 3.27441 -2.04856 0.229174 -0.244491
296 5.75767 21.0564 3.19651 0.360341 -1.19106 0.163008
3207 42.1084 20.9259 3.42858 -0.638915 1.25464 -0.269972
3868 52.2294 21.071 3.09783 0.229351 1.51948 -0.369306
24 55.656 20.1432 3.33974 1.27352 -0.435333 -0.342068
2568 69.3143 21.1044 3.82262 1.67902 0.895984 -0.459312
166 50.3844 22.5022 2.85223 0.425583 -0.24493 -0.227035
2828 51.2683 22.1005 3.37308 0.623321 0.265898 0.0358026
632 63.0992 23.7142 3.58107 0.103597 1.37877 -1.21247
557 11.3755 24.7472 3.24673 -0.190116 0.0978161 0.719694
1251 33.5439 25.3708 3.0675 0.199457 0.353217 0.356369
2712 16.21 26.3697 3.55495 0.43235 0.542277 -1.02858
3472 9.22071 29.2451 4.09167 0.572412 1.55915 0.183322
1198 14.8116 28.4567 3.88778 -0.833642 0.379665 -1.64654
1480 3.82366 30.5302 3.05075 0.672378 -0.974574 -1.36719
504 27.5939 30.3491 3.80485 0.0345733 -0.30722 -0.0373874
3946 2.99198 33.2019 4.24424 0.426343 1.26936 1.90204
1008 9.03879 33.9634 3.66024 -0.0275869 1.51766 2.07014
3915 7.82399 34.9208 2.92737 -1.19761 -0.693869 1.40081
339 13.1164 35.3465 3.17579 -0.0863961 -0.672138 -1.21448
760 64.9639 36.5903 3.29244 0.44492 -0.406425 -0.948186
90 33.9201 0.869958 4.91271 -1.04325 -0.520448 -0.349861
3994 39.1552 2.36371 4.77097 -1.62484 -0.428589 -1.53622
2456 50.1282 2.29341 4.4948 1.2233 -1.30671 -0.178922
961 20.8659 3.13652 4.59416 -0.133996 -0.301328 -0.504906
1886 28.0679 4.8391 4.79634 -0.892305 -0.0445644 0.199215
1301 13.7268 6.73351 4.87763 1.61675 -0.150551 -1.24487
1096 60.5039 9.06148 5.33544 0.922641 -1.16822 -0.778973
2995 14.0837 9.95081 4.88543 0.769997 0.416467 -2.57317
710 23.6762 12.3178 5.51607 -1.24563 0.867671 1.09075
1802 38.2986 12.9464 5.39876 1.13468 0.746178 -1.48165
655 48.4079 13.3768 5.40579 0.16256 0.133087 -0.784455
3787 50.2659 13.4314 5.367 -0.539885 -0.408512 0.298757
3440 11.7925 15.5336 5.23332 -1.06029 -0.28698 -0.690088
3784 27.3276 14.8164 5.65652 -1.34582 -1.98047 -0.765642
599 4.21004 19.9993 4.64814 -0.644414 2.46986 0.450076
2706 24.4098 22.3775 4.83436 -1.64806 0.364216 -0.603461
1795 1.98171 23.4402 4.76294 -0.528335 -0.0578513 -0.27253
384 56.9677 23.1976 4.68155 0.548993 0.37333 -1.60556
2203 68.9544 26.0358 4.95476 0.265807 0.0718032 1.32172
730 42.0101 27.3485 5.55473 0.462345 0.220862 -0.602218
474 3.1279 29.141 4.7737 -0.516568 0.13269 -1.23694
3548 13.3707 30.6775 5.50068 1.26648 -0.26868 0.199039
1841 62.2519 29.7623 5.01947 -0.703431 2.0945 0.297212
1455 67.0359 31.5049 4.77736 3.07628 -1.65718 -0.0559935
3178 4.00712 33.6026 4.6028 0.842536 -0.853676 0.76993
1585 7.96422 32.7547 5.55236 -0.477671 -0.649124 0.705421
875 37.2126 34.1348 4.41595 -0.840363 0.350949 0.19296
3996 56.3705 34.77 5.25243 1.60467 -2.94874 -0.352355
3972 57.5381 35.2668 5.25662 0.504675 -1.95996 1.40874
3613 61.695 34.2885 5.04202 0.594845 -0.776268 0.351462
1058 5.15998 0.691307 6.94417 -1.79722 -0.858666 -0.55455
1314 54.2096 1.09625 6.20956 1.26201 0.0580177 0.0156976
1572 18.0903 2.3882 6.70726 -0.549734 -0.615736 0.0300528
1460 49.6817 2.74313 7.00957 1.02813 -0.419507 0.501808
1824 68.5918 2.7795 6.77524 1.58264 -0.661847 0.128031
2338 20.4024 3.57913 6.70694 -1.92877 -0.448593 -0.463474
2039 21.3059 4.02563 6.12731 0.162837 -0.660567 -1.50764
861 35.7973 4.81288 6.79799 -0.720844 0.52655 -0.540733
1326 41.3819 4.7961 5.72677 -1.90069 1.23115 -0.224432
1506 33.2881 6.01793 5.67457 0.187672 -0.261931 0.502415
919 60.8049 7.36233 6.81239 0.610345 1.78817 -0.988799
1431 65.5344 7.11114 6.36888 -0.14518 -1.08943 0.866222
3493 71.8459 9.95203 5.74731 0.974227 1.9923 0.370718
267 39.0429 13.6646 6.93575 -0.701901 -0.0488611 -0.184667
2119 65.899 13.3018 6.16308 0.675859 -0.0377695 -0.395049
2224 53.1794 16.1018 5.67885 0.424822 -0.892826 -0.62316
2935 57.7577 16.5964 6.64196 0.63134 0.204458 0.651854
3026 29.9176 17.3575 6.57362 0.460641 0.116603 -0.107102
1946 52.1122 18.162 6.80192 -0.9849 -0.212697 1.72476
3606 16.181 23.714 6.40618 1.39619 -0.536769 0.376897
2535 69.4945 22.8867 5.91237 -1.09694 0.342865 0.284039
1858 33.0245 25.4453 6.83559 0.670493 0.409726 -0.73944
2674 36.441 24.2276 5.75946 -0.0195382 0.328396 1.92684
631 35.9251 26.1362 5.73858 -0.155318 0.142041 -1.70279
2182 42.9296 26.4008 6.85942 1.56282 -1.51714 0.0783618
1368 6.87824 27.8965 6.24754 -0.705088 -1.03264 0.41653
1357 50.3687 27.8254 5.92057 0.615497 -1.66704 0.830341
798 54.1408 27.0727 7.05801 0.534322 -0.788161 -0.851652
3092 11.094 31.7785 6.38356 -0.122072 -0.0785091 1.11844
1650 34.8792 31.2391 6.55758 -1.76141 -0.534158 0.703542
3803 10.303 33.3785 7.05224 -1.24379 -0.104591 -0.141482
2889 72.8431 33.8131 7.07512 0.144723 1.1316 -0.577105
3593 22.5309 34.5071 6.1728 0.687321 0.331157 -1.51845
2304 56.6919 34.3751 6.86196 -0.792619 0.73077 -0.392936
762 59.1202 34.3067 5.81225 0.129565 0.185742 1.40662
373 29.0403 35.6067 6.91816 -1.9702 -1.39599 0.0894746
2332 8.62395 0.215887 7.13171 -0.795429 -1.54358 0.71392
1041 16.5395 1.73317 7.50635 -0.121086 -1.32546 0.394221
558 36.6941 1.86344 8.44889 0.860238 -1.05792 0.726396
869 52.8705 2.26242 8.24166 0.251793 -0.260869 -0.135852
3850 6.47881 3.58281 7.55319 -0.926027 -0.323289 -1.93538
3450 53.5526 3.08123 7.60134 -0.115385 -0.755607 -0.0421861
968 55.6068 3.72439 8.34874 -1.40206 -1.0254 -1.56842
3390 36.8192 5.8654 7.55916 0.931442 0.0530418 -0.414478
816 67.3828 5.83579 8.23428 -0.818227 1.04888 -0.0942258
947 17.2797 8.11939 8.0906 -0.782315 -0.284625 -0.505246
3119 65.7244 7.32514 7.6741 0.123946 -0.342255 -0.79512
186 2.38592 9.95609 7.89018 -0.496029 0.408108 -2.05581
3228 17.5929 10.8648 7.24544 0.78182 1.03225 -0.920373
2819 23.2442 10.3428 8.00868 0.918667 -1.98017 -0.696819
2509 67.2677 11.5937 7.41812 -1.32184 -0.0295631 0.166066
120 52.0112 13.2284 7.32551 0.809175 0.628053 -0.381792
3182 52.7099 15.1918 7.37513 0.637921 0.152149 0.405868
3872 7.50266 16.1475 8.07847 -0.0617088 -0.489515 0.984663
1683 70.7705 15.8053 7.38423 1.57104 0.680418 -2.19808
1825 1.74051 17.4502 8.0798 -2.3011 0.0523267 0.84207
3 2.25237 18.3721 8.39342 1.27284 1.44513 -0.866995
2853 12.164 18.7111 7.15817 -0.0658518 0.908551 -0.496353
2411 33.9029 20.398 8.31027 0.855247 0.743457 0.49153
2375 20.0694 21.6374 7.14927 -0.370581 -1.3798 0.482534
2043 20.9071 21.3207 8.06664 0.541622 0.213894 0.120275
100 11.8845 23.808 7.78295 0.17671 0.411691 -2.04024
1169 22.9927 23.0948 8.47313 0.127584 0.0352693 -1.11088
3227 36.4475 23.6461 7.68991 0.730625 -0.310613 -0.441173
3235 60.6726 23.1242 8.30191 0.170259 0.702921 0.28135
2104 19.066 24.7309 7.15496 -0.135977 1.70397 0.332974
3032 22.4967 24.5059 8.33174 -0.405659 0.874093 -0.0914491
788 21.4192 24.1568 7.939 -0.323745 -0.153605 0.456754
978 52.9876 24.2052 7.98266 -2.61275 -0.698152 -1.0954
188 55.3428 25.3002 8.29854 1.99735 1.60218 -1.15768
3881 1.38691 26.9027 7.27598 -0.160092 1.69982 0.296819
2098 55.6977 26.3478 7.75801 -0.4132 -1.21458 1.37158
3449 39.4867 27.4799 7.33803 1.76632 -1.32211 1.44256
538 51.9085 27.4237 8.03002 0.105434 -0.248613 -0.418208
3309 46.4747 29.2165 8.27405 0.990657 0.824503 -0.936172
3391 69.0025 29.4676 8.1736 -1.59775 -0.815911 1.81977
3276 21.3389 32.5396 7.88551 0.618393 -1.36178 -0.690988
111 14.2086 32.8019 8.29582 -0.556982 -0.991268 0.67772
2442 50.2759 33.997 7.09586 0.983827 -0.798661 -1.21096
2617 1.20106 35.7234 7.10772 0.949652 3.59622 0.198222
3129 6.65256 35.9557 7.62197 -1.01256 2.26998 -0.440776
292 11.9296 35.8939 7.26449 -1.87755 0.12495 -0.239901
57 15.7453 1.32478 9.65977 -0.0319924 0.233301 -1.21527
2858 61.285 0.235034 9.00799 0.442866 0.040315 0.46525
1499 72.6483 0.58355 8.82449 -1.18256 0.261481 -1.12097
127 21.2913 1.77076 8.53792 -0.178285 0.366877 -0.886533
1193 55.163 2.54768 9.3537 0.424959 1.64906 0.251569
3239 66.1567 4.09293 9.69903 -0.793339 -0.610536 -0.299753
3429 68.4726 2.9011 9.60439 1.00928 -0.667335 -1.76574
664 51.9291 5.20876 9.74062 -1.13158 -1.96126 1.0611
1670 56.7859 5.8677 9.73711 0.824581 0.511187 -0.858071
25 70.1133 7.04474 9.74096 -0.800925 0.0250076 -2.36388
3160 12.1978 8.80346 8.79453 0.0545228 -0.801503 -0.302488
3917 35.0837 9.9431 8.91153 0.615044 0.754818 0.0981495
1750 36.919 10.7755 9.64768 -0.497305 1.56648 0.984356
2512 73.1468 9.99319 9.83197 -0.392984 0.959518 -1.03299
2326 16.85 11.7705 8.54857 0.705276 -0.644468 -0.169435
3240 29.7098 11.7704 9.67136 -0.668285 -1.23288 -1.71304
205 27.5692 12.9233 9.29218 -1.73176 -0.937416 1.32472
145 36.2639 14.6784 9.74364 0.615034 0.188565 -0.909671
1740 6.85288 16.2074 8.96269 0.486566 1.80466 0.147489
1875 15.2302 16.443 9.77813 -1.25912 -1.91235 0.0155917
3512 34.3071 17.5125 8.91302 -0.594449 0.194727 0.310929
347 62.9805 17.4021 9.05059 0.53428 0.0855297 1.37752
2062 10.1599 18.6774 8.85115 -0.63319 -0.405432 -0.0281934
302 40.1356 19.6392 8.59539 -0.331578 0.306545 -1.78211
1056 47.612 20.3777 9.22785 1.00252 -0.870317 0.552611
3943 12.2174 21.8953 9.11735 -0.115473 -0.588913 -0.786521
1735 23.7453 24.0744 8.97853 -0.527082 2.62062 -1.23967
3886 72.7384 25.2809 9.06062 -0.609325 0.0716807 -1.08561
475 2.90462 27.7646 9.79369 -1.21157 0.378544 -0.694047
1098 30.6545 27.278 9.45609 -1.212 1.17216 0.866541
2908 32.0638 27.3272 9.80763 -0.385105 -0.199023 -2.69516
2010 14.983 30.1243 9.53398 -0.423698 0.219273 0.526483
1350 29.1976 30.7234 9.43216 0.567632 0.661126 1.49425
894 50.4441 30.9137 8.90537 -0.0272928 -1.80152 -0.0716948
3252 32.9792 31.9187 9.5064 -1.54948 1.39794 1.20534
1640 41.5158 32.1786 9.38819 0.371631 1.49491 0.780901
3146 62.8049 35.9916 9.84544 -0.293263 1.09676 1.43906
2660 4.78286 2.75196 10.3825 -1.29384 0.704769 1.90963
2765 20.639 5.05676 10.9044 2.15677 1.45988 -1.54008
3108 58.4179 5.4586 10.7096 -0.41628 -1.19325 -0.323983
287 0.138849 6.53366 10.9079 -0.390566 1.143 -0.349232
850 1.98694 5.76967 10.168 0.878369 0.0618496 -0.411254
1361 41.3274 8.2594 10.7332 -0.9696 -1.02628 -1.62132
2498 50.8336 7.20716 11.2987 0.155165 -0.0999975 0.390346
2368 11.5394 8.63894 10.5899 -0.222075 0.0193082 0.731522
379 28.2515 8.61361 10.6519 -0.0244381 0.77675 -0.270122
3432 42.2298 9.53275 10.8892 -0.168121 -0.61978 -0.653268
3584 55.1718 9.91759 10.4257 0.00355762 -0.304355 -1.74201
1163 69.6969 9.21496 10.5299 0.346832 2.1005 -0.853377
1780 19.7681 9.99779 11.1457 -0.185953 -1.49258 0.860212
425 28.7752 10.3316 10.334 0.408766 -0.464017 -1.30982
1125 43.1285 11.9561 9.98777 0.252453 -0.648687 -1.37978
3109 69.59 11.8941 11.2425 -0.813054 -0.847816 -0.502409
140 42.0285 15.9073 11.2586 1.00337 -1.20749 1.41793
2768 17.7463 18.1536 11.0036 1.69293 1.33138 -1.75891
1874 20.3059 17.4691 10.4659 -0.0712678 1.9295 0.24233
1843 1.55757 19.4712 11.3029 2.63278 -0.888158 0.239201
636 54.3247 21.1256 10.6812 -0.0670261 1.00084 1.01692
2357 27.2403 22.4923 11.3216 -0.329866 1.20096 -0.68561
2971 55.5208 21.3937 10.9345 1.20716 -0.294629 0.609619
1486 67.602 22.2147 10.9751 1.09896 -0.360869 -1.76021
2988 72.6476 21.7688 11.1637 -1.59089 0.561761 1.37526
2396 49.4576 25.032 10.7651 -0.704593 -0.790077 -0.671854
1769 14.4913 26.1692 10.3841 0.0437432 -0.251751 -0.709631
3130 51.459 27.572 11.1819 -0.1931 -0.677604 -1.97935
1575 68.8203 28.0086 10.4934 -0.37485 0.0734898 -1.56796
1876 25.4829 29.56 9.98828 -0.0599626 -1.16266 -0.178342
147 52.989 29.0487 10.394 0.638288 0.220684 -0.0286555
3223 1.69426 30.3593 11.183 1.90917 -1.22044 -1.07292
507 28.2569 31.5567 10.6823 0.319466 -1.22836 -0.115124
52 55.127 32.1568 10.4232 -1.505 1.41093 0.698761
1561 7.19931 34.4057 10.1522 -0.012473 -0.410628 0.799293
2521 55.517 35.1071 10.0531 0.891946 -1.24961 0.700545
2746 15.5363 1.38737 11.7671 1.68974 -0.108798 1.87019
500 12.7358 1.70132 11.8432 0.495948 0.566272 -0.0560746
3384 17.5292 1.56787 11.953 0.526195 0.472018 -1.4262
250 63.4757 2.62854 12.5897 0.0228976 0.233176 -0.501365
883 2.38976 3.40136 11.9869 -0.564346 -0.662202 1.26748
325 8.45093 3.5124 12.3731 1.10799 -0.0447841 -0.93008
3468 38.0328 4.77225 12.3233 -1.24275 0.343038 0.0343131
1382 38.0149 6.20411 12.1832 -0.273306 1.31622 -0.544556
2736 24.5109 7.70891 11.9999 -0.503721 0.50482 -0.45683
863 63.815 9.0772 11.7012 -1.6528 -0.376378 0.65405
3082 13.2316 10.3013 12.2413 1.53881 -0.560682 0.345436
2117 18.9494 11.3276 12.6972 1.6305 0.29119 -0.617075
3128 65.629 11.2237 11.947 1.32437 -0.283311 0.870142
891 4.40041 11.6652 11.4566 1.47667 1.50807 -0.373419
103 40.4939 11.9458 11.814 -0.227476 -0.0854559 -0.722114
2167 41.7398 11.7208 12.3276 0.865122 -0.592349 -0.78498
1195 4.2131 14.3895 12.0765 -0.277332 1.37887 0.567322
2725 12.5046 14.2905 11.4186 -0.120222 -0.905808 -0.106516
1564 23.8059 14.819 11.6318 -0.615689 0.39716 0.133528
3088 67.4444 14.754 11.8794 0.644578 1.53976 0.560577
471 5.19795 16.5326 11.8673 -0.766315 -0.664621 1.80676
2576 69.961 15.8258 12.2372 0.34281 -0.884699 -0.960374
544 15.5121 18.8943 12.3512 0.721355 -1.33216 1.9355
1603 64.272 18.5574 11.4822 -0.783228 0.674276 0.74953
2625 41.9861 20.3606 12.0821 0.270869 -0.55215 1.12918
3369 38.6963 25.3395 12.1241 -0.592978 1.30493 0.021783
857 41.5755 25.7529 12.366 -1.79685 -0.788023 -0.0656805
445 44.6785 27.281 11.9701 0.213958 -0.600981 -0.830126
3460 65.9651 27.6339 11.4085 -0.332181 -1.41496 -0.000475111
1093 32.1741 29.1928 12.2168 0.119598 -1.30323 1.24385
1574 51.5239 28.9521 11.7233 1.55338 -0.380496 1.53473
3185 62.9806 30.3448 12.5054 0.15125 -0.301062 2.01178
31 50.2194 31.6313 12.363 0.0522105 -0.669042 -0.637974
1816 52.5386 32.1842 12.127 -0.361182 0.852449 0.290209
529 61.1372 31.7031 12.0666 1.35119 0.555453 1.3217
3928 15.4244 33.6161 12.1722 -0.162463 0.589744 0.264942
1571 18.3713 32.7942 11.5609 1.26825 -1.10303 0.380327
450 18.5064 33.2386 12.5559 0.575225 0.987501 2.54124
1998 3.61982 35.2318 12.7465 -0.121833 1.24167 -0.765341
941 17.1902 34.666 12.3807 1.3037 1.75263 -0.230474
357 29.0312 34.0833 12.6472 -1.18542 1.18062 -2.0535
3000 49.7527 34.0591 12.3649 0.294056 -0.507912 -1.53736
3376 54.0093 35.2314 12.5346 0.418718 -0.346349 -1.33759
270 5.225 36.1753 12.3762 0.863372 -1.2103 -0.717192
388 60.2637 0.0225066 13.7228 -0.997698 1.34618 -1.45875
1983 66.8938 0.26816 13.3059 0.962897 -1.24695 1.27747
584 35.4909 3.1728 12.9879 1.24912 -0.46675 0.572032
2680 18.788 5.02297 13.36 1.6388 -1.50698 0.967089
1247 3.07038 6.52062 13.7219 -0.274025 -0.254495 -2.28799
2252 10.2138 6.55633 12.9623 0.467907 1.06971 -0.57997
2997 30.2027 6.71345 14.1537 -1.16463 -1.22127 -1.36254
78 39.0107 7.02139 13.0646 -0.622099 2.15382 -1.49275
3611 56.9971 6.32399 13.187 0.343242 -0.0209108 -0.464798
2773 66.3518 8.19541 13.8793 -0.0278292 1.24718 -0.0674552
2831 20.1871 9.18318 13.4792 0.610803 0.336825 0.623946
3362 23.4544 9.51168 13.7572 1.66258 -2.65405 -0.638186
2890 31.7776 8.95157 13.1466 -0.552522 0.618682 -0.351336
1556 11.8286 11.2646 13.599 1.02174 0.183035 -0.418887
1751 40.8197 9.96814 13.1438 -0.661194 0.0970716 -0.519291
3498 62.0796 11.9481 14.1346 -0.294255 -0.330848 0.318344
1999 30.4771 13.1984 13.5629 -1.37212 -1.12468 0.722947
446 50.2951 16.771 12.7761 0.173239 0.402211 0.841236
764 14.9204 18.6973 13.3765 0.296857 0.252321 -0.760002
3402 52.2981 21.8154 13.1108 0.880715 0.160244 -0.731353
1353 67.0068 22.8914 13.1991 -0.392407 0.470511 0.0337124
2763 13.8686 24.909 13.1535 -1.23189 -1.28452 2.11088
3456 65.8524 24.3011 14.1181 0.430508 2.23616 1.30756
3560 4.20495 27.7673 13.2814 -0.270812 0.204812 -2.76662
282 58.2584 28.0137 13.3631 -1.2207 0.663613 -0.469025
582 5.1747 28.4296 13.4669 0.640438 0.621559 0.198943
2560 56.9868 28.6247 13.2953 0.623619 0.0337537 -0.662048
3363 62.2382 28.9161 12.9298 0.56942 0.977638 -0.323358
435 25.7058 29.8351 13.7787 -0.135437 0.673636 -0.0673601
1976 38.0369 29.8706 13.0104 -2.48098 -1.00395 -0.358355
1203 7.75341 31.2968 13.5641 0.519671 -0.953491 0.322324
876 17.433 32.5217 13.5608 -0.841942 0.536157 0.295504
1790 49.2474 36.6721 13.4508 -0.277181 -1.0458 0.136171
1563 69.306 35.6034 13.7371 1.15701 -0.410356 1.33364
2225 2.90351 1.11825 15.0007 -1.23371 0.309151 -0.35395
2927 45.8836 0.23998 15.1951 0.318336 0.446992 -0.335992
21 12.1686 2.40569 14.6439 -0.905332 0.70151 0.194459
3301 40.7179 1.43914 14.3564 1.73713 -0.968901 -0.49038
2063 58.0465 1.76294 15.3873 0.0267198 0.151927 2.72419
3265 59.7471 3.10648 14.4119 0.215132 -0.887336 -0.989874
46 5.84981 5.48933 14.7502 0.0853149 0.402688 -1.35187
1234 23.0947 5.51868 15.4067 -0.68439 -0.0385256 -0.430733
74 25.8558 5.29459 15.1192 2.04031 1.20706 -0.275456
2439 34.024 4.74705 14.4952 -0.0150648 1.19492 1.05949
2665 62.9359 5.50649 15.0687 -0.357949 1.54005 -1.32156
2672 49.1868 5.78484 14.438 0.474173 -0.362698 0.126738
1529 58.8948 6.39407 15.5004 -0.145906 -1.51204 0.0825007
1372 18.1407 8.60299 15.2511 -1.28127 -0.81801 1.34933
473 41.0488 9.79545 14.4166 0.127858 -0.144576 0.142442
3731 49.8857 8.83814 14.4535 -0.440929 -0.364465 -1.69425
2476 18.5487 10.2036 15.1566 0.133763 -0.499904 0.773287
3911 37.4057 11.1558 14.6529 -1.18841 1.03769 -0.455679
510 22.4613 13.433 15.1737 0.910655 -0.384744 -0.522863
2900 45.7055 14.9147 14.9568 -0.10867 0.366312 -0.916101
3453 58.7898 15.2872 15.4653 -0.911658 -1.17866 0.93533
849 59.6754 15.8941 15.2818 -1.21959 -0.0174637 1.32667
610 4.48493 18.3605 14.9004 -1.17659 1.6228 -0.654648
84 73.3504 18.1058 15.0613 -0.0711812 -2.04939 1.16284
776 9.82994 19.6791 15.3189 -0.469459 0.100435 1.03876
64 44.7617 19.6489 14.5473 -0.928259 -0.237717 -0.603689
1295 19.5458 22.0797 14.8213 0.185608 -0.0410805 -0.232072
2208 38.8967 21.3452 15.1362 0.946004 -0.0428305 -0.777734
598 41.4415 21.2556 14.4742 1.11212 -2.2071 -0.027109
1267 69.7474 22.7647 14.6465 0.0870177 -1.1377 -2.32356
2720 10.174 24.7299 15.3028 -0.769931 -1.09913 -2.3327
911 37.7576 24.9483 15.2503 0.220236 0.21271 0.666901
366 57.4337 24.5581 14.8928 -1.80668 0.156383 1.72912
3321 22.3273 25.6962 14.2048 -0.27659 -1.10777 -1.09002
2848 7.04368 26.9481 14.2386 0.170418 -1.69298 1.26191
297 11.9572 28.7969 14.2801 0.175198 0.132375 -0.873713
2421 40.626 29.0333 14.6137 -1.91958 1.23741 -0.0889906
1920 67.1853 30.978 14.1865 0.360987 -1.82302 0.877407
363 50.0645 32.188 14.9853 1.60988 1.16352 -0.361613
1948 9.07962 33.2727 14.4173 -0.404905 -0.268393 -0.564279
1928 7.03808 35.0871 14.8557 1.29774 1.82222 2.57203
3804 52.1233 34.6532 14.3951 -1.55327 -0.211476 -0.580078
1136 53.2597 34.7273 14.6735 -0.0435328 0.449096 -0.181405
615 68.8824 34.0205 15.5024 0.133236 0.614449 -0.0657937
2959 22.4118 1.48158 16.9082 -0.161577 0.610537 -0.407388
1512 52.6241 2.19327 16.2439 0.135515 -0.423139 -0.297954
3349 30.8257 3.89779 16.4626 1.25507 0.425434 0.011278
3430 40.7121 4.00391 16.5446 -0.0388781 -1.102 0.520657
1408 38.1225 5.64941 16.8106 0.257979 2.26875 0.162875
2202 39.9012 6.43218 15.5933 -0.386237 -0.696103 1.65534
2673 58.7502 7.15775 16.378 -0.146907 -0.358409 0.760209
1242 28.298 11.0989 16.8483 -1.24459 -0.638731 1.71312
3312 42.2186 11.3762 16.8469 -1.37135 -0.750015 -0.596833
3536 50.837 12.2835 16.9246 0.334824 -1.59589 -1.61478
3926 64.3807 12.6678 16.4641 -0.237436 -0.682339 0.866017
1316 66.7176 11.8941 15.6613 -0.685546 0.186078 0.463121
836 13.6592 13.6628 16.9273 0.870093 2.54912 0.986184
1774 16.5354 13.6368 15.9594 -1.45994 -0.730014 1.01877
1478 51.6176 13.7004 16.2797 0.477557 -1.25926 -1.09459
1036 54.32 13.3782 16.4777 -0.526628 -1.37718 -0.44217
3517 7.03034 14.733 16.962 1.29859 -0.790301 0.834342
3191 6.09222 15.5729 16.6544 -0.291475 -0.910466 0.455504
2270 38.6192 14.7355 16.4198 0.758231 1.61414 -0.185668
2213 37.27 16.3111 15.786 -0.650164 0.167731 -1.49568
3292 67.532 15.9999 16.3388 1.51878 -1.24477 -1.93828
3539 5.78047 17.8064 16.873 -1.8222 -0.813669 0.0443876
2540 35.2359 18.1934 15.9164 -0.550638 -0.242123 1.55311
1450 9.62587 19.3098 16.6674 0.841499 -0.450355 -0.938671
2402 34.9239 19.0746 16.5067 -0.042742 0.585338 1.67838
3476 45.6963 19.3183 16.0375 -0.700746 -1.02338 -0.0537896
3964 42.0873 21.9662 16.9799 1.54993 0.83855 -0.643693
754 8.51333 23.0897 16.3391 -0.575002 -0.452174 0.962925
2216 19.0204 23.0523 16.1798 -1.0833 -1.015 0.00824355
2837 52.0018 23.4984 16.0882 -0.0338296 -0.531201 1.15079
3832 55.8708 22.7668 15.698 -0.739521 -0.399712 0.297443
2152 72.9995 24.0404 16.5088 0.525616 2.80788 -0.7424
2616 48.9686 24.5561 16.4112 1.54336 0.859913 0.339817
714 53.0237 24.1934 16.9934 -0.400773 0.0152814 -0.235949
2670 55.2378 27.8991 15.7697 -0.599993 1.07989 -1.3535
2277 58.3581 27.0102 16.15 -1.24594 -0.542543 1.15667
3771 27.6641 30.8039 15.6398 0.120894 0.194662 0.937741
2750 44.4291 31.0662 16.6232 1.10867 -0.644014 -0.0864674
3944 3.3951 31.6675 16.5071 1.38767 -0.436427 1.06056
3375 45.8958 31.2036 16.195 0.605021 0.570834 0.894256
210 72.5877 31.8628 15.9119 1.21182 -0.569126 -0.427201
2557 30.9026 33.1614 15.9052 -1.74467 -1.91625 -0.5379
1788 40.4189 35.071 15.7553 2.27238 -0.645228 0.601612
1822 71.797 34.3752 16.7639 -0.766604 -1.0922 0.363545
1423 38.1521 36.2761 15.769 0.958733 0.975574 -1.6924
3590 61.6577 36.8384 16.4326 -1.44202 1.1093 0.414045
577 69.6464 35.7122 15.929 -2.03414 -0.51076 1.39578
2655 14.8605 1.2588 17.2455 -0.613911 1.0846 -0.35887
3541 25.237 0.797036 17.5893 -0.483826 -0.205752 0.225748
1442 62.5616 0.771195 18.0796 0.519993 0.852641 0.717067
3934 56.0754 3.12191 17.5112 -0.644458 0.152032 1.65608
2555 56.4766 4.16509 17.9886 0.990575 -0.45203 0.218314
3021 17.9091 5.56642 17.1047 1.08888 0.951756 0.327117
2124 22.5253 7.41957 17.1401 0.292945 0.720417 0.35937
1888 55.5109 8.41064 17.6757 0.155002 0.430779 -0.747123
898 59.4511 7.30904 17.7773 -1.5445 0.421568 0.229913
2711 20.1703 12.6642 17.7947 0.515588 -0.211884 0.062313
2300 15.8606 13.3017 17.4464 2.17527 0.431402 0.253293
1394 54.9031 14.9585 17.0603 -0.227854 -1.61078 0.551744
3183 20.9795 16.9354 17.6071 0.178923 -0.369523 0.504311
3953 0.163114 17.7792 17.9207 0.402765 -2.21155 1.24772
3877 52.989 17.9091 17.0927 -0.0804859 0.968038 0.0454863
3840 0.444182 19.656 17.8132 0.656459 -1.63129 0.604268
3654 29.1852 18.5727 17.8489 1.04667 -0.797059 -0.518771
3734 38.384 19.2994 17.2522 0.676368 -1.54539 0.648928
2363 25.2728 22.3662 17.5397 -0.644546 0.133705 -0.437716
3327 62.2481 21.2738 17.3982 1.13782 -0.0953558 0.149976
385 63.6302 21.3905 17.2217 1.76617 -2.32832 1.30593
2246 41.1224 24.4397 18.1304 0.231883 -1.34957 1.19625
2358 52.4984 25.3018 17.006 -0.020986 0.4325 0.0167183
54 60.0286 25.2644 18.0029 1.27274 0.555739 -0.461045
1707 36.3797 26.6516 17.3832 0.67611 -0.141098 -0.132044
1746 51.7391 25.7712 17.6761 -1.57996 -1.50699 -0.802207
3995 72.3605 26.252 17.2779 -0.159497 0.658468 0.958584
2607 1.73823 28.5523 17.2764 -0.753281 -1.52762 0.706555
1543 7.24752 29.6248 17.6894 0.335519 -0.533429 -0.0990634
2685 59.7843 28.6893 18.2823 1.01248 0.122406 0.516615
2629 2.23606 30.7697 17.3383 -0.0560935 0.706485 -1.56226
2467 10.5629 30.1923 17.4377 -0.501485 -0.305334 -1.15494
2015 42.9283 32.0954 17.9368 0.886003 0.455351 -0.867097
2236 19.172 34.1804 17.0523 -0.165939 -0.11681 -0.58705
2739 18.0747 35.8357 17.1463 0.0095672 -1.37529 0.639113
3241 20.8317 36.1873 17.4729 -0.847386 -1.63374 1.50669
2844 26.5622 36.4224 17.1616 0.953645 0.216881 0.10152
521 55.3952 35.8856 17.817 -1.16346 0.298424 -1.5257
1321 21.5325 0.7848 19.4915 -0.126481 0.100892 -1.35029
834 10.6152 4.23565 18.4251 0.223116 -0.229872 0.536629
3278 11.3656 2.88241 19.3737 -1.29531 -1.38277 -1.25682
1064 25.3955 4.43205 19.3559 -0.223624 0.92078 -0.343678
2033 65.0718 4.34336 19.3544 -0.600142 -0.0943069 -1.16207
3706 5.5234 6.31463 19.6104 -0.84383 -0.222817 0.178258
2479 11.6121 7.95444 19.1573 0.499352 0.524789 1.17712
229 19.5046 9.72785 18.826 0.0633897 -0.793193 0.641884
1199 63.1534 9.98677 19.6869 0.2244 0.667183 -1.60375
1159 20.7277 12.4866 18.8157 0.386029 -1.4897 0.0861824
439 28.4432 11.5287 18.77 -0.975424 1.53017 -0.68206
3237 2.94975 13.6225 19.3337 0.225166 -0.330079 2.48459
969 73.4535 14.1263 19.7251 0.648359 -0.157224 0.431657
1192 10.9178 14.9479 18.9792 0.644829 -1.13805 0.625573
2817 29.9082 15.1007 18.7821 0.504463 2.1568 -0.42228
3381 55.8468 14.8727 19.0567 0.130416 -0.878988 -0.451253
1730 37.3316 16.4885 19.195 -1.86731 0.508472 -0.450157