ITEM: TIMESTEP
66000
ITEM: NUMBER OF ATOMS
4000
ITEM: BOX BOUNDS pp pp pp
0.0000000000000000e+00 7.3680629972807722e+01
0.0000000000000000e+00 7.3680629972807722e+01
0.0000000000000000e+00 7.3680629972807722e+01
ITEM: ATOMS id x y z vx vy vz
2921 0.583554 3.0661 0.83614 0.0147121 1.80348 -1.0224
3961 33.9796 6.75122 0.554274 0.669123 -1.01158 0.695945
1891 39.9431 7.94511 1.2767 -0.310125 -0.228333 -0.470427
1405 61.6934 9.07043 0.191895 -0.396569 0.974849 1.02915
304 62.3612 8.88537 1.38143 2.17277 0.0243987 0.335172
1702 3.93102 10.7739 1.23455 -0.552746 -2.33957 -2.5832
488 19.7456 10.923 0.648505 0.142908 1.8857 -0.348481
2008 47.1951 11.3009 1.39981 -0.488919 -0.233588 0.261483
3941 46.5563 14.1116 0.617489 -0.466426 -0.218533 1.3991
1555 39.9173 14.4502 0.61473 0.591751 -1.37935 -1.01572
2638 4.10479 17.5263 0.317744 0.194429 -1.04825 -0.404297
1233 2.88991 17.3369 0.126338 -0.271884 -0.131015 0.201121
3715 52.4424 19.3156 0.140511 0.204216 -0.730468 0.234286
1921 1.01359 20.1288 1.18173 -1.85803 -1.69336 -0.339825
148 3.41078 20.8866 0.326139 0.444017 2.47304 -1.12744
2258 27.5376 20.7587 1.23089 -0.526977 -0.409302 0.00349531
3624 48.721 20.0849 1.29059 0.480953 -0.391809 -0.505133
1192 57.4724 20.3536 1.04786 0.0300641 -0.727164 2.61696
1471 13.3343 27.2384 0.703792 0.624303 0.606049 0.0807371
2048 16.6668 28.0027 1.10167 -1.18565 -0.641303 0.0263364
3113 37.4314 28.9394 1.11473 -0.111363 -0.58977 0.13156
3838 40.4349 29.7363 0.0364886 0.0523984 1.05314 0.952638
521 41.2754 28.5311 0.498167 -1.27636 -0.385032 -0.93562
3682 52.5842 29.1508 0.614128 0.448396 0.384727 -0.803684
1262 59.4215 30.814 0.340114 0.353565 1.32042 -2.01777
602 42.2785 31.8659 1.27973 -1.81875 0.167812 -0.769244
809 9.97276 32.8352 0.753865 -0.562074 -0.318122 0.90584
1447 27.417 33.0563 1.02705 -0.480477 -0.458473 -0.446473
492 33.6152 33.0653 0.670957 1.48133 -0.292448 0.378496
3492 40.1674 33.5618 0.761931 -1.38233 -0.163319 -0.176371
2872 73.5917 33.9661 0.342396 1.01878 0.291871 -1.31149
1927 72.6085 33.3101 0.538903 0.174227 -0.20885 -0.442637
1454 48.5946 35.1752 0.251855 0.952603 0.142767 0.389462
2527 62.4097 35.1472 0.261322 -0.99865 -0.391118 0.20158
1599 10.4982 0.326322 1.73827 -0.396355 0.767766 -0.202736
2813 2.70233 1.67532 2.58287 -0.118675 -1.46924 1.60047
2345 20.4708 3.13303 2.66104 -1.30595 -0.544361 -1.12753
3434 50.0026 2.94013 2.57597 -0.0929666 1.29748 0.529924
1288 2.11736 6.94966 2.52114 -1.34236 -0.443906 0.00777378
1118 9.55517 6.01594 2.00159 -0.950409 0.663701 -0.550146
563 17.1264 7.37302 2.51118 0.202889 -1.78356 -0.856798
3501 55.6299 7.1637 1.53352 0.0664418 0.112505 1.09039
1765 29.9525 9.71002 1.93405 0.878511 -0.279098 -0.447261
1225 16.9861 11.2125 1.6146 0.773109 0.87656 0.151708
2842 56.2265 10.731 1.86323 -0.438373 -0.393566 1.52464
541 24.5389 12.6671 2.17371 -0.464375 -0.599122 -1.67012
1149 55.7823 14.1192 2.62411 1.58921 -1.37471 -1.47311
2086 33.2099 14.1839 1.63588 -0.468543 -0.0541516 -0.72501
2497 32.7994 15.6289 1.60933 -0.552251 -1.2379 -0.793758
1456 44.433 16.8704 2.46435 0.923349 0.537284 0.366046
583 60.0137 16.7537 2.64444 -0.385724 1.21878 -1.06135
716 73.2179 15.6358 2.28725 1.10493 -1.02744 0.884301
1395 8.32038 17.8635 2.70307 -0.740757 0.0130296 0.100549
441 61.8539 17.2685 2.34436 -0.802654 1.8715 1.219
317 66.1715 18.7455 1.71117 2.00196 -0.619657 0.566807
1868 45.7238 19.959 1.94892 -0.450667 1.67553 -1.04403
3793 51.5756 21.254 2.31675 0.171111 0.93073 -1.37873
3345 22.8813 21.9818 2.10579 -0.0382968 1.47383 0.169985
544 13.427 23.9228 2.69698 0.842211 0.0512606 1.03886
3811 62.3826 23.7977 1.53594 -0.815177 -1.61253 -0.83837
837 8.12501 24.1867 2.28879 1.51349 1.26251 -1.31436
1945 56.4546 25.3556 1.73526 -1.74124 0.79301 0.752894
2421 9.4154 26.7939 2.68681 1.17325 0.243592 -0.0322944
168 53.0891 28.2181 1.88975 -2.17209 -0.491654 1.64684
2319 71.7983 27.9942 2.29291 0.397573 0.475522 -2.29044
3767 5.82982 28.9953 1.55705 0.566195 -1.31433 0.00452441
3353 15.3232 29.2509 1.62634 0.434977 0.435492 2.20386
334 28.3133 28.851 1.99913 1.27684 0.694691 -0.551618
789 15.9316 30.5155 2.81689 -0.908251 -1.40894 -0.18672
3271 57.1167 31.8907 2.01017 1.96701 1.31202 0.491815
2026 31.0336 33.9676 2.24966 -1.86248 0.438027 -0.971621
2434 34.6214 32.8765 1.6473 -0.388386 -0.65762 -1.21518
1196 30.2141 35.0528 2.00473 -0.618312 -1.38747 0.579718
1771 53.047 34.778 2.50538 0.987058 0.181244 1.01081
2970 41.8951 36.3142 2.37199 0.853522 0.142024 -1.83167
3081 47.9901 0.117029 3.3892 0.795204 0.333391 -0.777201
3537 3.61919 3.90238 2.87542 -1.49752 0.70803 0.870707
3820 38.5052 3.33291 4.242 1.63497 -0.913378 0.298806
3934 18.4618 4.75472 3.69164 -2.28121 0.129642 -1.29696
1835 9.39467 6.7839 3.47798 -0.750539 0.190557 1.15639
178 65.9588 5.73309 3.6291 -0.722873 -0.510904 -0.825556
847 37.2622 8.15252 4.24895 -0.633266 0.760388 -1.73737
3200 30.0013 9.09635 4.11005 0.00882771 -0.491265 0.189927
1032 37.2845 9.23582 3.38106 0.974924 0.172511 -0.232887
2748 68.0385 9.44455 3.70485 -1.51546 1.21141 0.719831
749 16.59 10.5579 3.28365 -0.567134 -0.707077 -0.697035
193 41.2706 10.9971 3.32842 0.374402 -1.20133 -2.83705
1417 27.9563 13.6207 3.4859 -0.449343 1.15486 1.24319
822 32.6913 15.3646 3.37331 -1.17623 0.188729 1.41847
390 41.6393 14.3522 2.97053 -0.922607 1.487 -0.695773
3122 65.8801 15.1912 4.0871 1.59898 0.299463 -2.34718
618 6.37981 16.4868 3.48022 -0.361211 -0.15696 -1.17821
3805 51.9255 16.9836 3.34375 0.282287 -0.540007 -1.17358
1554 53.0235 16.4798 3.52737 -0.192345 1.32151 -0.972801
1099 61.5442 16.2494 3.02785 1.43357 0.970481 1.01393
464 36.9343 17.4443 3.40734 -1.8933 0.810835 -0.902341
1533 54.2042 17.9299 3.02022 0.0694576 0.402846 -0.606554
1561 62.2299 17.7108 3.2748 1.3481 2.19552 0.933956
1924 33.8254 19.5839 2.89643 -0.400194 -1.40383 -1.94127
2344 50.389 19.4085 3.18344 0.473916 0.608805 0.617181
3589 23.3777 24.7442 3.73335 0.107948 -0.766589 -0.244774
89 53.2807 24.784 3.2916 -0.732373 1.17605 0.259289
804 54.6274 25.1343 2.84856 -0.844937 -0.499303 -1.24432
1981 70.5478 25.4421 4.23129 0.420356 0.993808 -1.45374
2135 36.1616 25.8104 3.17849 0.159712 -1.82427 0.557342
408 38.084 27.8795 3.5978 -0.205339 -1.1817 -1.4856
836 66.6384 29.6733 3.89018 3.17027 -0.20876 1.7388
3432 72.2261 28.8882 3.82484 -1.07689 0.997666 -0.507637
2944 33.7377 31.0654 3.22808 -0.527906 -1.58723 -0.554703
78 0.888648 32.7325 3.15128 0.396267 -0.236366 -0.891193
2235 19.1476 33.5464 3.75733 -0.458125 0.762618 0.559314
1621 30.5442 34.6938 4.08248 -1.73701 0.053067 -0.626302
2623 51.9641 0.392491 4.37597 0.594339 0.0156617 0.453273
1739 20.4086 2.5204 5.24431 -1.49838 1.44941 -1.11263
831 20.6065 6.70645 5.26994 -0.278506 -0.135062 0.476709
3952 48.8466 7.81264 4.70584 -0.742063 0.889185 0.38751
672 65.6206 8.23693 4.50374 -0.590723 -0.0295137 0.116526
2036 8.92695 10.5736 5.07552 -1.38708 -0.118599 -0.365643
271 48.6787 9.93984 5.12813 0.417747 0.754412 0.467625
3207 66.5757 10.2979 4.93325 -0.606 -0.0417986 -0.0587813
894 5.40824 13.5816 5.52839 -0.410836 -0.0740407 -0.956764
3493 49.013 13.3713 4.96774 1.98338 0.325792 0.463205
1692 1.70311 15.5213 4.97276 0.501114 -0.282066 -0.904882
1893 42.781 15.0847 4.97662 0.394164 -1.38702 0.340032
2960 2.21581 16.7942 5.3428 -0.508777 1.15524 0.0986229
1202 33.9441 16.0753 4.44664 -0.571524 0.0862787 1.13701
176 27.3869 17.9527 4.9658 1.1629 0.123291 0.222132
1340 45.0849 17.6409 5.2298 0.981639 0.732953 1.26821
2190 72.8677 17.6698 4.44204 -0.360388 0.629638 0.148935
1572 26.4337 18.6731 4.79479 -0.929907 0.0687172 -1.82315
1229 27.6558 18.8039 5.66693 0.705735 -0.745562 -1.09556
1542 25.8547 19.8475 5.32204 0.191101 1.37221 -1.8763
287 29.7393 20.2402 4.47824 0.398858 1.57049 1.51578
2070 44.3232 20.7513 5.62492 0.0547238 0.884606 -0.563046
1828 61.3914 20.128 4.2707 -1.18638 2.3902 0.143797
723 11.5043 21.572 5.39269 0.819338 1.97612 0.920907
2659 66.4183 21.742 5.30658 -1.00685 -0.126657 0.159967
2281 58.062 24.6149 5.07431 1.50129 -0.176909 -0.698872
3247 41.2924 27.7774 5.02946 2.72245 1.30152 0.423183
1266 64.5171 26.9672 4.37877 -0.780656 0.466024 -0.354296
99 65.9332 27.2803 5.5381 0.729868 -0.937731 -0.959345
982 16.2277 29.0531 4.98905 0.671979 1.16963 -1.01438
196 29.0978 31.0114 5.24157 -0.173505 -0.278613 -0.878192
3749 68.1565 30.7149 5.21247 -0.254033 0.136081 -0.781721
3082 22.1749 32.6791 5.37299 0.519437 -0.845701 -0.654064
1511 46.9336 32.8655 4.36378 -0.105381 2.58692 -0.830011
951 43.8166 36.1824 5.43406 -0.565161 1.18322 0.213091
659 3.39329 4.14999 6.92911 -0.309863 0.628963 0.532499
187 1.92734 4.46925 7.0438 -0.0413679 0.0177865 -1.56373
1236 26.1269 5.44267 6.38077 1.20172 -0.420593 0.233504
315 31.9014 7.02661 6.90955 -0.264552 -0.434351 0.285393
311 37.4517 6.10648 5.77033 1.34154 1.67145 -1.08645
3708 11.8358 8.63369 6.37584 -0.0163848 -0.388684 1.59335
3445 35.4568 8.67857 6.14718 1.32346 -0.573985 -0.123883
1029 51.7521 8.70543 6.93622 -0.258161 0.262091 -0.524878
314 51.1813 9.7858 6.75728 -2.05945 0.348412 1.56219
1310 72.3751 9.67567 5.99361 -1.62376 -0.682503 0.406292
1062 31.6819 11.1259 6.68961 -0.380826 1.32872 -0.897429
3301 12.3695 11.7923 6.80655 -1.14819 -1.09593 -0.457463
1597 14.9973 11.717 7.06699 1.76524 0.579416 0.502001
1312 26.0304 11.5277 5.82681 -0.224556 -0.0419533 -0.681499
3468 35.4321 12.0916 6.86548 -0.521995 -0.172927 0.566617
144 37.8672 12.0252 6.05275 -1.56408 -0.800714 0.0887287
96 72.0986 11.6461 6.53551 -0.391335 1.10444 -1.37036
2650 10.7642 13.2846 6.83413 -1.84218 -1.5469 -0.990773
1061 65.8615 14.0712 6.36981 -0.862721 0.421263 -0.639579
3365 27.0533 17.3524 6.39971 -0.638362 -1.30645 0.41875
619 40.3418 19.0064 6.17015 -0.0134193 -1.20825 -0.470737
1133 57.9671 19.5457 6.742 -1.10061 -0.490073 -0.913786
2458 69.3369 19.583 5.72659 0.0445165 0.192344 0.636511
249 29.7429 20.5993 6.80461 -0.934108 0.293185 1.5652
1911 39.1487 20.6977 5.86587 0.922095 -0.147623 0.199071
2025 57.0085 20.7567 6.68315 0.529036 0.745139 -1.80333
706 10.8928 21.7207 6.50427 1.95807 0.507593 -1.29341
2588 40.6848 22.2297 5.87944 -0.627072 0.287024 1.02752
2661 72.6525 21.3518 5.98564 0.218995 0.246909 -0.928203
2247 55.8134 23.8741 6.94336 -0.149738 0.732616 -1.06913
1023 30.1575 24.5979 6.52649 -0.4709 -1.11845 0.0138957
3094 63.894 24.209 5.7366 0.123429 0.392072 0.557705
1787 0.700374 25.7604 6.57049 1.05712 -0.000227603 0.447777
1838 13.0576 26.7153 5.68342 -0.0499753 1.01126 -1.41499
1138 25.7745 26.0923 5.95083 -0.489649 0.0560191 -0.842485
305 37.1059 26.1863 6.44314 0.039527 0.943485 -1.19933
3746 50.9205 26.8726 6.64432 -1.38679 0.155146 -0.386787
2268 52.3578 27.6163 6.52039 -0.597052 1.02019 -2.10354
543 63.0598 28.0286 6.37207 0.00810392 1.04653 0.481732
3876 53.5001 30.0746 6.19612 -0.697281 -0.0514405 0.586629
1077 0.637464 31.5034 6.5579 -0.749689 0.224731 0.346687
1258 9.45021 31.8619 6.30507 -1.87926 0.494014 0.560338
3905 23.5909 31.997 6.11317 -0.120816 0.0608083 -0.179773
2301 40.2092 31.9008 6.33085 1.93065 -0.80551 0.150952
2637 58.6895 31.6644 5.85254 -1.09136 0.237569 -1.1482
1330 12.9425 33.7415 5.90332 -1.82379 0.539996 -1.45361
1188 16.2878 33.9657 6.21173 0.187064 1.88144 -0.176079
158 24.4104 32.7575 5.8113 -0.0449072 -0.215498 0.632702
3809 58.8712 32.8523 6.81286 -0.13004 -1.58012 0.690955
12 59.1703 33.7315 5.78819 0.249145 -0.721113 0.12244
853 23.7047 35.2654 7.06531 1.90058 -0.257323 1.24435
383 23.2354 34.9591 6.196 2.24039 -0.350908 1.01084
3276 62.2413 34.2859 6.4973 -0.384065 -0.893691 -0.392027
2997 29.5615 35.9865 5.86579 0.0688497 -2.11146 0.265622
1038 39.4188 35.4261 6.85235 0.185596 0.573236 -1.15394
1362 25.2607 2.57553 7.88562 -0.648702 1.70074 0.791533
3839 37.663 1.92656 8.16731 0.840398 -1.00009 0.321085
3523 57.4399 1.49179 7.91972 -1.1232 0.308969 1.08073
1134 18.0069 3.71551 7.77155 0.0383645 -1.18169 -0.594209
1872 21.1803 5.19623 7.15908 0.701425 0.531452 -1.87542
108 39.9233 5.06621 7.42508 0.151461 -1.23361 0.221597
768 13.6476 6.84878 8.29229 0.653573 0.239705 1.37501
2585 49.5948 5.84127 7.48758 -0.247567 -0.66014 0.368614
3806 56.6024 6.55354 8.05925 1.69898 -0.358825 0.538459
2662 61.5523 5.86677 8.42437 -1.2271 -0.316018 0.298198
1063 38.9651 8.35802 7.61748 0.329203 -0.881401 -0.305894
1426 54.0073 7.6321 7.79449 -1.15561 -0.980989 -0.898102
2754 60.7853 7.6195 7.87082 -0.103893 -1.65215 -0.875051
1125 52.0818 9.83843 8.24897 0.438651 0.767057 0.471293
1267 22.8653 11.2318 8.38749 -0.810022 0.979399 0.194803
434 32.0287 10.7177 7.98895 1.25711 -0.181992 1.18537
201 39.3012 10.2855 7.92292 0.663934 0.650119 0.932838
225 65.0465 10.4748 7.42001 -0.953188 0.488923 0.335549
945 0.179501 12.0066 7.68022 1.10096 0.882789 -0.305161
2391 20.6251 13.427 7.8595 -1.53962 -0.268321 -1.28315
995 42.8876 14.4754 8.37502 1.17746 -0.868505 -0.914929
576 54.6752 15.3721 8.24946 0.439521 0.600887 1.40275
2683 26.8565 17.4578 8.37849 0.309793 0.920509 -1.39402
2251 46.0421 17.0225 7.13754 0.280995 0.0392403 0.709788
528 16.3912 19.8785 7.79132 -0.841799 -0.0582011 0.910762
3900 63.1436 21.0611 7.63658 -1.46715 -0.0132292 0.497483
535 0.249914 22.4333 8.30489 -0.183149 -1.41597 -0.763483
2373 7.2994 22.352 7.28577 -1.00433 -0.645462 -0.0654178
3361 67.7478 21.7461 7.44485 -0.268347 -0.0626417 0.162762
2094 66.0617 23.806 7.27901 -0.469391 0.307791 -1.09039
14 37.0639 27.5829 8.46097 -0.900916 -0.337497 -0.848566
3412 68.5866 27.2862 7.68904 -1.12022 -1.68502 -0.452356
870 13.5027 28.5306 7.82929 0.46912 0.87845 -2.10405
3360 11.44 29.922 7.30899 0.615005 0.484322 1.11028
3709 4.27981 32.1244 7.23919 -0.162722 1.08093 0.0510973
199 32.8999 31.8649 7.83678 0.322291 -0.802386 0.404468
3327 63.2551 32.5056 7.37721 0.419271 -1.33591 -0.110103
3968 9.06565 32.7555 7.22386 -0.834 -1.74088 2.22927
2090 8.32009 35.2342 7.66321 0.577818 1.03689 0.284053
3416 23.1894 35.8331 8.38604 0.201385 1.39429 0.322671
3428 20.7835 0.472798 8.9246 0.370376 -1.6566 0.504542
3740 32.4311 2.16446 9.11699 1.39125 -1.17309 0.300543
2790 57.4574 2.75403 9.73807 -0.0881088 2.3878 1.50042
125 72.7768 1.8583 9.12635 -1.08896 1.2151 0.196112
3966 29.4054 3.88765 8.58913 1.13904 0.0285202 0.66471
832 50.4595 5.45336 9.21346 0.245451 0.00741696 0.0314179
283 18.7462 6.39352 9.16994 0.678952 0.522613 -1.6196
1733 30.4415 6.45965 9.84203 -1.58202 0.0906874 -0.300756
1648 56.6987 9.01495 8.81747 -0.188351 -1.83562 0.713602
1676 67.5316 9.90021 9.34972 1.36765 -1.21329 0.0991974
1183 4.03702 10.9502 8.55263 -0.71567 0.261242 1.00892
1566 19.716 10.9682 8.95763 -0.129862 0.220713 0.2644
1301 28.3535 10.6823 9.89828 -2.12284 -0.286475 -0.320862
1151 17.6616 12.5785 8.6814 -0.689947 -0.78987 -1.83614
32 28.8842 11.72 9.47541 0.446547 0.37739 -1.15338
3622 0.141887 13.038 9.01866 -0.0934258 0.601957 -1.03888
1319 44.2427 13.0416 9.30688 -1.46062 -1.21946 -0.77498
3642 11.5866 15.2491 8.84777 -0.136257 -0.195746 2.12225
3317 54.3427 15.4085 9.48119 -0.634008 0.551371 0.0643897
559 70.9361 14.9856 8.68009 0.00109936 0.858332 1.59196
1734 16.1916 16.0296 9.48949 0.149966 0.9428 1.70686
430 17.9758 15.9364 8.69957 -0.125434 -0.330907 -1.12828
3027 17.6517 19.1153 9.17776 -1.42412 1.24389 0.648789
635 50.8052 19.5437 9.62013 2.05983 -0.424411 0.618762
1482 28.0434 19.8869 9.20017 -0.449814 1.04032 -0.643458
2755 15.3674 21.4899 9.4578 0.891923 -2.22767 0.943009
2361 37.5732 22.1421 9.06648 -0.243874 -0.815624 -1.27853
222 63.6248 21.9952 8.51138 0.106701 -1.26368 1.59568
3030 23.2955 23.7504 9.69429 0.681256 -1.29955 0.602803
1303 42.518 22.7996 8.76659 -0.78138 -0.857617 0.333647
1608 56.4982 22.7337 9.66109 1.70945 0.0730817 -0.792979
2031 58.5172 23.8108 8.70484 1.75074 0.470849 1.11833
1193 17.5247 24.9234 8.81374 -1.52291 1.13802 -0.222969
2033 1.29138 25.5989 9.78119 0.948973 2.31363 0.18096
942 39.8402 26.1927 8.78226 0.821261 0.249969 0.152154
2249 47.7144 25.6456 9.18396 0.371115 0.311913 0.0548741
202 34.5479 27.9576 8.61864 1.03767 -0.237863 -0.0791349
2885 45.9106 27.8618 8.98001 -0.0879416 0.952425 -0.508282
48 54.9323 28.1894 8.63551 -3.0483 -0.610592 0.055839
2305 67.71 29.1774 9.53863 0.369309 0.802529 0.64194
2868 71.2454 29.2129 9.25024 1.67567 -0.508346 -0.101667
2371 6.98828 30.5602 8.93085 0.0639134 0.101182 0.642704
235 22.8359 30.7449 8.7783 2.22058 -0.902553 -1.54497
2241 52.0732 30.2516 9.13108 0.144535 0.218593 0.625513
2088 68.3544 31.0898 9.25877 0.148456 0.678294 0.517658
2986 2.13155 31.3794 9.00994 -0.09696 -0.835328 -0.508938
2496 3.38229 31.589 8.70118 -0.646335 1.65587 -0.113904
2495 9.18071 32.2388 9.62373 -0.0899391 -0.386935 -1.06962
3504 25.0472 31.7745 9.4051 0.0928667 0.359031 -1.09318
3786 3.34135 33.1772 9.55805 0.199332 -0.906494 -0.774484
634 1.51237 35.4505 8.96808 0.990217 -0.680457 -1.01118
1983 28.4393 36.4542 9.90437 -0.0244382 0.831523 0.776643
2223 44.6508 35.8895 9.70756 0.49779 0.539236 -0.897
1646 47.9065 36.5793 9.11512 0.795388 -0.673422 -0.164698
3530 47.3097 35.6648 8.81209 0.619733 -1.72959 0.590694
881 37.0612 0.680176 10.867 -1.05418 -1.41111 -2.03007
1636 49.3181 0.632152 11.2308 -0.567136 -0.717329 1.13554
949 12.6178 2.72825 10.4312 1.25466 -1.32012 0.4452
143 17.8805 3.12254 10.8735 -2.04197 0.541397 -0.199643
2631 10.0464 6.51238 11.1949 -0.143933 -0.487121 -1.25169
2325 16.2453 6.44212 10.9382 0.25135 0.602607 -0.850939
2789 24.6649 6.60542 10.2712 -0.0553103 -0.0344199 -1.34143
2646 0.540123 8.14103 10.9748 0.305273 -0.0362268 -0.998568
3220 44.2124 9.79356 10.3869 -1.90342 0.512733 -0.0108395
2128 5.46465 10.3873 9.93609 1.3446 0.1344 1.36108
3964 41.5367 10.416 10.9647 0.116974 1.5292 -0.0475965
42 62.915 10.3862 9.92407 -1.33074 0.496675 0.523726
688 29.4756 12.099 10.6478 1.13862 -1.08185 -0.523913
2420 51.1108 12.5652 10.7962 -1.87435 -1.30339 0.785252
826 22.8851 16.2865 11.1778 -0.568155 -1.786 -0.481509
3551 40.809 16.0681 11.1018 -0.644398 -0.337414 0.0086943
3902 41.4673 16.9387 10.1803 -0.829513 -0.572806 0.908567
1557 2.49228 17.3258 10.8623 -0.0487141 -0.0981007 -0.841085
299 26.8569 17.0883 10.1756 0.392725 0.580624 -0.113545
933 48.6533 18.0938 10.76 -0.24361 0.857798 0.616157
1642 3.15136 21.2102 10.4899 -0.850866 0.146541 1.01218
2446 40.8884 20.79 10.4227 -0.577106 -0.319342 -0.774059
2749 47.5871 20.3475 11.2337 1.89313 1.39501 0.687051
3981 72.6557 20.9491 10.5822 -1.07867 0.527583 1.55061
3540 38.0035 21.6443 10.202 -0.438727 1.52973 0.560587
2621 51.2695 21.8626 11.2343 -0.695904 0.190313 -0.0325389
2032 58.0794 22.0009 10.8799 -0.132486 -0.306566 1.45124
3586 56.6077 23.275 10.7073 0.0664472 -1.0481 -1.01116
2572 57.7184 22.8596 10.038 -1.91317 1.93981 2.47091
3890 7.31853 24.2345 10.099 0.181942 0.351421 -0.132996
2432 37.5591 24.7329 10.8278 0.481251 1.09491 0.874406
2154 64.1489 25.2236 10.6348 -1.22605 1.09447 1.2567
1801 7.49549 26.3023 11.1677 0.106781 -0.0171327 -0.699853
3443 70.4834 26.8785 10.6837 -0.54068 1.09699 -0.156543
873 19.5544 28.0925 11.1398 -1.24916 0.352143 0.400834
523 50.7212 29.6735 10.1821 0.656652 -1.25615 1.48997
3436 58.0781 28.4212 11.1279 -0.967077 -0.447321 0.351311
3016 21.723 30.4223 11.1708 0.43553 1.39346 -0.691383
402 39.4987 30.7621 11.1236 1.02754 -1.80442 -0.603545
2911 47.0865 32.1884 10.2621 -0.989045 0.649832 0.673832
3180 29.2553 32.8216 10.846 -1.45844 -0.0127065 -0.538778
100 69.3467 34.787 10.2302 1.66837 1.38896 0.254574
1609 60.0979 3.10051 12.4412 0.997236 0.932157 0.451486
2907 15.1367 5.15299 12.5051 -0.524278 0.402339 0.546963
2121 36.9907 5.09703 11.8558 1.40093 0.488819 0.482969
1457 54.4355 4.43289 12.3874 -0.0707387 0.685198 -0.419141
1132 63.8192 5.38863 12.513 0.436034 -1.36695 -1.34005
206 5.82327 5.98762 12.4114 -0.344446 -0.817869 -1.22749
364 30.2599 6.45276 12.478 -1.59599 0.718254 -0.118304
3114 68.1467 6.10788 12.5223 0.117962 -1.57318 -0.733929
56 5.01788 7.36819 11.4723 -0.0557787 0.292913 0.248753
606 51.7901 7.5835 11.3563 -0.223641 1.32379 -1.38911
3021 16.4124 8.57425 11.9018 -0.372834 -1.05751 -0.00759539
548 45.8919 9.16522 11.7262 -0.629462 1.07886 -1.09181
3894 13.6389 9.98533 12.0854 0.0833505 0.269147 -0.648114
627 50.1705 11.2084 12.1199 0.286382 0.594384 1.0129
3717 44.3445 12.9845 11.7436 -0.522154 -1.72874 0.20409
1657 0.272505 16.0854 12.1158 -0.391687 0.726514 0.533288
2791 46.3731 17.9945 11.517 0.259468 -0.427543 0.626469
1917 45.3209 18.7438 11.5912 -1.53926 0.517485 1.08003
303 51.814 19.4511 12.2734 -0.964247 1.33557 -0.583956
3350 28.245 20.5477 12.2909 0.651644 0.385452 0.12982
2271 45.3566 20.0396 11.4377 -0.781268 -0.731714 2.99665
770 71.4331 20.3475 12.5289 -0.361425 -0.2029 0.719968
2785 42.948 22.2155 12.4441 -0.261258 1.22032 -0.0074368
1862 55.4765 21.4031 11.5951 0.307735 0.445263 0.637885
3861 72.4145 21.6217 11.3606 0.131285 -1.22598 -1.35089
2216 4.3626 23.9062 12.5809 -0.192312 1.05815 -3.2441
3771 35.8638 22.8469 11.8403 1.37631 -0.40216 -0.433526
482 28.2913 25.365 11.9705 0.0419357 0.192279 -0.154724
2320 35.1322 24.2122 12.6558 0.381516 0.228932 0.969129
1372 60.9213 26.3307 11.7911 -1.7033 -1.30958 0.612347
1906 46.8992 27.0748 11.7484 -0.264761 -1.61237 1.47072
1386 48.1506 27.7483 11.9895 0.512038 0.0753347 1.18128
947 55.2197 27.4057 11.6734 -0.435551 0.361728 -0.709376
1153 57.015 28.2882 11.4751 0.302018 0.00276799 0.0794796
2609 17.7756 30.1979 12.6462 1.24918 0.164451 -1.0481
3795 24.3328 29.8232 12.4374 0.894497 -1.22067 0.522757
3672 7.6429 32.1828 12.399 -2.20626 0.475977 -0.184639
2333 52.6837 31.2569 11.8348 -1.67072 -0.334349 0.0491849
681 62.0147 31.216 11.612 0.451551 0.53686 -1.41397
2720 71.5433 31.5685 12.3067 -0.0250369 -1.43435 -1.69407
111 26.3904 33.455 12.6058 1.85591 -0.0291211 0.372214
1498 41.3581 36.3662 12.1755 0.232017 -0.657079 0.953853
2553 71.3061 4.15068 13.1233 0.250071 -0.994149 -1.12659
3714 72.3183 3.38665 13.2651 0.192334 0.77737 1.37475
448 23.9761 5.14681 12.8648 -1.29126 0.785672 0.874543
133 22.7061 6.91647 13.6981 2.06194 -1.28278 -0.233019
122 37.5903 5.93758 14.1115 -3.53051 1.75061 1.18154
666 43.7521 5.82046 13.6157 1.57466 0.547382 -1.89651
444 18.5308 8.29219 13.4103 0.319818 -0.0753651 0.138162
2141 18.7513 7.48259 14.0317 -1.38497 2.63404 -0.36989
2724 28.4188 8.36626 13.2444 -0.65385 -0.870967 0.364176
3197 15.7435 9.65978 13.8085 -0.658281 0.783153 0.518399
1170 20.0897 9.35506 13.0332 -1.76269 0.109823 -0.742011
2077 41.1711 8.52088 13.1564 -0.291299 1.58039 -0.751422
3781 25.4231 11.8192 14.043 -1.03453 0.768215 0.703834
2129 72.2444 11.5884 12.9774 0.0412429 2.02493 0.598754
522 24.8846 14.1069 13.5354 0.37513 1.39208 -0.733219
2182 30.8422 12.8924 13.9246 -0.174428 0.431016 -0.993769
1883 50.3329 13.3625 13.5564 -1.50059 -1.30387 -0.415217
3716 5.55503 14.9257 14.1661 0.256956 0.725404 0.288967
2265 8.39957 15.2651 13.8733 0.211138 1.24038 0.509148
3645 11.9584 14.911 13.1223 0.335223 -0.749769 1.34326
846 12.2791 14.7698 14.1536 1.00912 0.812577 1.86453
2803 26.045 14.3661 13.7365 -0.658169 -1.60486 -0.410077
2067 39.6987 14.9049 13.3269 1.06326 -1.42776 -0.363652
2740 57.9095 15.488 13.573 -1.73951 -0.986638 1.36228
2721 25.4503 15.91 13.0382 0.51654 -0.12144 1.15657
1780 2.80227 17.6569 13.5717 -0.302076 -0.449062 0.194841
1933 51.444 19.3344 13.2423 -1.24942 0.175488 0.228219
2306 8.74514 20.86 14.0244 -0.427683 0.216165 0.903172
3311 23.5178 20.8442 13.1282 0.763505 1.25624 1.09827
238 42.568 21.9881 13.5369 -0.128976 -0.51918 0.367405
2313 60.653 23.7613 12.7737 -0.495834 -1.10141 0.778607
950 61.2844 26.6904 13.2147 0.743027 -0.0289406 0.636641
2439 12.8912 28.7345 13.622 0.392762 1.24639 0.424752
2558 13.3335 33.9738 13.0668 0.367974 -0.901371 0.69208
2171 4.35671 34.3691 13.2612 -0.304248 1.15515 1.18349
3406 69.9993 35.3873 12.8494 0.694626 0.688514 -1.61178
2892 3.58697 36.2179 13.0283 0.025185 0.746481 0.525421
2992 6.70932 35.5159 12.8493 1.01874 0.402729 0.227281
3444 17.5816 36.0058 13.1638 0.887565 -0.423959 1.92806
1106 65.0953 36.0678 13.4185 0.0767175 0.106894 -0.0511688
1587 8.07876 0.726686 14.4536 -0.270258 0.557089 -1.61458
1653 13.4614 1.19697 15.1118 2.83457 -1.95872 0.458809
3541 5.56212 2.4329 14.3982 0.200422 -2.56083 0.992302
3689 23.1605 3.02383 14.3178 0.606875 1.64992 -0.108525
2108 31.6552 3.65298 15.2759 1.03669 0.129225 0.657405
1581 34.1058 4.80421 15.0455 -0.946924 0.550497 -0.91943
43 53.1085 5.17139 14.3648 -0.840248 0.15036 1.2294
575 38.4935 8.05984 14.8099 -0.988926 0.919258 -1.03322
2357 51.731 8.10026 15.5277 -0.46455 -0.676389 0.225492
1328 12.5292 9.06319 14.9309 -0.283236 -1.51878 0.434534
1535 72.6757 11.2502 14.2548 -0.19214 -0.00216103 -1.08065
3224 31.5317 12.2514 14.4216 -0.763315 -1.32457 1.28418
574 65.8255 12.3737 14.3485 0.388045 -1.16587 -0.585827
3160 68.2996 12.4994 15.1524 -0.722111 -0.396491 -0.367654
1369 13.0293 15.263 14.9504 1.54888 -0.000373899 -0.739196
3509 35.0772 14.7647 15.1752 -1.86052 0.144619 0.551746
3117 22.7643 16.5823 14.9629 -1.20146 0.899141 1.69643
3685 9.36564 17.6694 14.5434 1.98921 0.336153 1.43458
555 12.6797 17.177 14.5543 0.613675 0.438041 0.190429
2437 14.0954 17.0743 15.177 0.23247 0.472663 -0.895571
2705 71.5064 18.6983 14.3314 0.44421 0.21477 -0.866003
1341 7.11462 19.8688 15.2976 0.116823 -1.64017 0.958182
2772 47.5037 20.108 14.3259 -0.671849 1.95577 -0.122702
1628 27.3517 22.2427 14.349 0.52148 -0.166403 -0.474461
3488 30.7103 21.6843 15.1543 0.175556 0.257134 0.209944
2883 32.2166 21.7039 14.306 2.21043 -0.0588411 0.129313
1158 32.0907 21.7385 15.5841 1.46717 0.0927411 0.983725
2543 72.021 21.6058 14.7993 -0.125609 0.249503 -0.582846
728 0.918639 22.7229 14.7031 -1.33306 1.52739 1.81597
297 13.8142 25.113 14.3797 0.57188 -0.377551 0.616207
3359 67.2201 26.8363 14.5611 0.269641 -1.80378 -0.265722
3447 13.9148 27.1685 14.6917 0.301475 -0.430425 -1.63236
3485 30.1431 27.49 14.4373 -0.136048 0.322016 1.9585
1751 11.6527 34.6262 15.5363 -0.0957271 -0.35823 1.19043
2741 69.3825 34.0811 15.3276 0.716965 -0.382512 0.117213
1135 65.6329 1.58319 16.6276 0.209632 0.950527 0.461
2307 43.6832 3.09552 16.2525 -1.45419 -0.0434859 -0.40042
3929 13.7609 5.4628 16.7479 0.119053 1.66909 -1.22108
1083 57.9354 5.88083 16.1527 0.97002 -0.533722 -0.723119
1073 10.195 7.28558 16.7935 -1.07404 -0.817252 -0.949497
320 57.5323 7.53841 15.6296 -0.735244 2.59216 0.326513
3091 30.826 11.0552 15.7072 -0.340166 0.766286 1.08548
3231 47.8971 12.2819 15.9082 0.315504 0.678325 -0.925811
1489 17.7405 12.8704 16.6713 0.489874 -0.95252 0.495197
2775 45.5001 15.5175 16.0052 0.127452 -0.540696 0.387808
1598 4.04798 16.4433 16.2814 -1.24255 0.0608452 1.23258
217 62.0389 15.8261 16.0894 1.13448 -0.656245 -2.87144
3413 63.1431 16.8274 16.5995 1.21885 0.122877 -0.259443
1114 42.7097 17.8055 16.8067 -0.351869 -0.0454205 -0.0979995
392 52.7413 17.0932 16.3366 -0.324281 0.671135 0.235938
2334 62.6494 18.439 15.8146 -0.881106 0.123021 0.514538
2161 39.2344 19.8522 16.473 -1.60215 3.38054 0.985921
1157 64.6168 20.0747 15.9703 0.885666 1.04117 0.283111
2 65.6073 20.1507 16.4979 1.20528 -1.06136 0.294392
3895 68.9626 21.635 16.1091 -0.626844 0.374893 1.92087
2201 3.60606 22.7339 15.9496 -0.512694 1.15647 1.31477
2946 55.5978 23.9149 16.2781 -1.22344 1.38547 -0.0788611
542 43.4998 25.0945 16.2479 -1.35135 -0.956181 -1.24404
2347 50.0135 24.7944 15.5934 0.417537 0.0985156 -0.300662
63 61.5618 24.7175 15.7711 0.796635 -1.14479 -0.126735
2056 18.0986 26.4337 16.522 -0.17685 -1.66875 2.03641
2185 2.19052 27.9725 16.6307 -0.405266 -1.04136 1.88308
1208 12.5227 28.1322 15.9367 -0.872957 -0.401346 1.62092
2255 17.4317 28.0285 16.1641 -2.66037 -0.209605 0.423615
935 0.953245 28.9669 16.7978 0.153826 -1.53059 -0.699584
2793 8.90321 32.1848 16.1512 -1.10018 0.832396 0.0204228
1265 25.4771 33.4621 15.7475 0.0791233 0.0523812 -0.156547
3690 9.37588 34.1818 15.8938 0.0602192 1.50704 1.58563
1349 16.3846 34.601 16.4999 -1.08551 -0.209561 -0.967644
772 14.4348 0.0175424 17.9445 1.44091 -0.436715 -1.37242
2335 21.7951 2.79707 17.849 0.671258 0.273481 0.392103
2441 20.4914 3.12262 17.5035 0.519031 0.223536 0.957325
1234 3.94457 5.55039 18.0063 -0.211512 0.804491 0.488472
2995 10.1547 5.08178 17.1924 -0.239098 0.425003 0.503433
3693 59.8746 4.41471 18.1747 0.208245 0.670458 -3.02747
3695 39.3972 6.51503 17.004 1.01594 -0.507768 -0.959613
2692 27.2707 8.27364 18.2077 1.44767 0.99463 0.800859
2723 36.1135 7.69241 18.2572 -0.126082 -0.861919 -0.0662974
47 35.897 7.71101 17.009 -2.08073 0.446942 0.806953
3766 42.4096 8.45051 17.4268 1.36561 -0.938222 1.00916
776 49.1353 7.09928 17.6841 -0.432994 -0.300716 0.393534
3978 29.7493 9.0507 18.2252 2.24369 -1.98186 0.418543
1292 33.2248 8.71774 17.0964 -1.32777 -0.427784 0.352883
2127 39.2279 8.58307 18.0009 -1.37013 1.63348 -1.57184
2050 41.2625 8.96416 17.762 -0.170328 0.490062 1.27362
596 43.4857 8.57802 18.1225 -1.21582 1.44068 0.602297
2006 27.6927 10.9985 18.3243 0.13621 -0.0202896 -0.446085
2384 11.6639 11.9076 17.2816 1.17544 0.177545 0.475096
3867 4.0258 16.2409 17.7997 -0.160097 -0.927883 -0.688984
3041 43.2772 17.0434 17.728 -1.61106 -0.0254987 -0.246316
1584 47.6317 17.6868 17.1306 0.601974 -1.42566 0.264675
2664 11.9669 20.9965 18.3254 -0.285095 1.48531 0.904878
2165 19.7889 20.1059 17.8116 0.506037 -1.98013 0.127717
925 35.2064 22.1654 17.1826 0.835075 0.58262 -0.682285
3075 42.4772 21.8107 17.5813 2.95134 0.590207 -0.589145
2509 29.8239 24.94 17.8625 -0.728132 -1.14773 -0.660418
3270 49.1616 24.6733 17.4864 -0.370074 1.42321 -2.20987
1849 33.7121 26.6741 17.2116 -1.03699e-05 0.616579 -0.419807
518 70.4931 27.9461 17.5746 -0.743406 1.37657 -0.282605
2516 13.6637 29.0956 18.2462 0.442311 -0.115359 -0.626775
3995 31.0029 29.0893 17.8828 -0.611951 0.171831 -0.0229887
37 53.5695 29.8707 18.4068 -1.14995 -0.641407 0.649155
2162 4.77014 33.6009 17.7796 -0.334516 -0.0320892 -0.659725
270 13.243 33.0382 17.6868 -1.31293 0.218677 0.789172
2815 31.3456 33.2129 18.257 -1.38076 -0.771105 -0.461859
3212 51.0929 32.8951 17.1015 -0.629521 2.49106 -1.24296
2678 63.5087 33.0823 17.4164 0.253669 -0.138711 -0.953251
530 10.0792 34.2716 17.053 0.0157587 0.345548 -0.15942
2126 15.0825 35.1358 18.1103 -0.303449 -0.0477943 0.110135
3581 33.5351 34.7352 17.8949 -0.93597 -0.277212 -0.648281