ITEM: TIMESTEP
68000
ITEM: NUMBER OF ATOMS
4000
ITEM: BOX BOUNDS pp pp pp
0.0000000000000000e+00 7.3680629972807722e+01
0.0000000000000000e+00 7.3680629972807722e+01
0.0000000000000000e+00 7.3680629972807722e+01
ITEM: ATOMS id x y z vx vy vz
2124 3.93475 1.01201 1.27328 0.411374 -0.10512 0.774597
1679 40.1208 2.34385 0.83147 -1.52521 1.43382 1.14507
756 59.4328 3.57827 0.540072 0.0510485 0.948563 0.116919
619 39.425 6.63671 1.16935 -0.964289 -1.40043 -1.30421
1694 40.0293 7.47921 0.623514 1.31808 -0.121421 1.1311
3246 52.7727 7.28362 0.670544 1.4981 1.01557 -0.053799
1896 70.4416 7.2586 1.09709 0.296683 0.817622 -0.685507
1312 20.9548 8.53075 0.704547 -0.710507 -0.489999 -0.36888
648 30.9283 10.8033 1.37652 0.423305 -0.569199 0.122525
408 46.9077 12.719 1.09238 0.821915 -1.76828 -0.101754
2092 18.9475 13.2188 1.0627 -1.39962 -0.0795854 1.30039
3927 73.4671 12.8417 0.421393 -0.687797 2.23164 -0.019453
2944 29.8237 16.851 0.950528 -0.287277 -0.72566 0.503644
3836 35.979 16.537 0.853094 1.20883 -0.23421 1.30686
2321 72.8123 15.8356 1.27632 0.12643 -0.290992 0.626421
642 4.51741 19.3927 0.427466 0.109399 1.45069 0.791167
176 28.4081 18.4899 0.350792 0.170725 0.71695 -0.0922737
1947 22.1799 19.9856 0.795684 -0.622144 0.0303229 1.03178
1017 42.9279 20.9194 0.732546 -1.041 0.289831 0.966741
3015 20.9731 22.4728 0.385866 0.100189 -0.563351 0.250433
2127 24.8602 23.6958 0.976887 -1.64473 1.25134 -2.04027
3037 34.2557 23.019 0.216836 -0.447929 0.046395 2.16216
3771 42.3607 23.7611 0.253075 0.853461 0.350486 -0.86723
1021 68.1445 24.1047 1.14811 -1.00787 -2.65437 0.0457556
2258 23.051 26.4133 0.952244 -0.557441 0.91927 -0.0780481
991 43.9594 25.5482 0.420082 -0.351223 1.18759 0.658833
1482 22.1835 28.1691 0.786743 -0.433022 0.413443 -1.22609
3858 16.9899 28.5876 0.940306 0.74538 -0.0902686 1.0755
2070 45.0523 29.3446 0.236039 0.118538 0.806328 -0.500599
1082 28.964 31.0177 0.823534 0.914831 -0.734923 0.681223
1945 52.6383 31.0655 1.12484 -0.201492 0.627639 -0.41408
2374 3.77239 32.4068 0.325085 1.13101 1.8718 -1.98248
3180 21.2082 35.5883 0.137445 -0.317001 0.607238 -1.72193
2546 65.408 35.7371 0.170016 0.929454 -0.656103 -0.50447
3301 0.0374539 1.33062 2.65989 -1.56724 -0.479639 0.0694706
3553 8.88137 1.67481 1.81055 -0.186911 1.69682 0.490649
1891 36.8531 5.43254 2.31806 -0.50284 0.0260057 1.21777
3948 39.7788 4.29799 2.37673 -0.172754 0.965521 -0.138305
973 71.9739 5.11991 1.69668 -1.00803 0.766703 -0.778407
3490 13.4978 6.09826 2.46282 -0.147148 -1.24077 2.44259
1027 29.223 8.86938 2.31417 1.06999 -1.72015 0.696449
1426 37.9209 9.62414 1.56317 -1.13228 1.46181 -0.279569
2008 41.6617 8.66111 2.51423 -0.66295 -0.294961 -0.00100439
1476 7.05916 10.5144 2.12007 -0.600934 -0.174314 1.99468
1739 8.77261 10.1033 2.54599 -1.04608 0.39867 0.164234
598 34.1474 10.1229 2.26466 -0.379569 0.644344 0.293936
3688 4.22531 13.5041 2.82989 -2.13831 -1.30911 -1.56539
1557 3.70527 15.9157 1.71114 0.32693 -0.0486853 -0.94419
3767 11.5364 15.6956 1.46113 0.579654 -1.36911 -0.0453965
3805 51.4693 16.5851 1.58639 -0.209522 -0.124427 0.170662
3168 40.0372 17.4539 2.18728 0.0731501 2.04824 0.670892
1692 72.0184 18.3336 2.6029 -0.670354 0.0642148 0.229243
3258 37.4482 19.7165 1.73835 1.07365 0.403317 -0.488539
942 47.44 19.9007 1.88762 0.581079 -1.80094 -0.373312
1125 55.2179 22.0518 2.00324 0.645896 1.53224 -0.75948
3027 15.0725 22.6855 2.15597 -0.215462 -0.437319 -0.451642
2865 36.2155 23.3591 2.78665 -0.182079 -0.830776 2.62693
3108 15.4787 26.4545 1.97953 0.670646 0.770442 1.56049
2890 48.5793 26.1175 2.09235 -0.578884 -0.444722 0.826504
1179 20.1177 27.6909 2.68141 -0.949396 -1.13485 0.586748
2026 24.3664 27.5697 2.49411 0.704785 -0.840433 0.0643464
3345 26.2383 29.0314 2.1444 -0.553576 -0.680677 1.31894
1655 27.7487 28.5689 1.66145 1.08979 -0.568305 1.09743
2213 40.216 29.569 1.9605 0.828102 -1.70809 0.0810343
158 16.5412 30.927 2.59098 -0.958352 -0.0870657 -0.616816
2527 52.4937 31.0328 2.70792 -0.924479 -0.441881 0.873957
3492 26.0392 32.9144 1.52199 -1.48465 -0.89002 -0.415518
3504 25.5179 33.7702 2.00337 -2.00147 0.849277 0.473315
417 28.5214 36.1488 2.45776 0.272134 1.5493 0.560229
3442 41.864 1.22226 4.09338 -0.574148 1.5359 -2.29913
3850 58.4141 0.122781 4.19236 -1.05707 -1.52877 -0.75552
105 0.794628 2.52491 3.7138 0.497594 -0.746985 0.139233
1288 63.2388 1.87832 3.63382 -1.14133 -0.576306 0.234048
3631 38.8884 3.8936 2.99375 -1.03964 0.994537 -1.29258
434 41.566 5.57646 4.19421 0.858048 -0.649833 -0.941705
1119 73.4788 4.56682 3.66099 0.906504 0.216241 2.05876
3506 11.5565 5.69834 3.93344 -0.615626 2.11123 -0.983055
2325 13.002 6.77388 3.18093 -0.941325 -0.862611 -1.5745
1879 25.8625 5.76473 3.52547 1.07788 0.485843 0.425512
499 53.0318 8.72419 3.7558 0.59393 -1.02371 1.32861
542 30.9693 15.4851 3.63968 -1.97869 -0.922802 -0.921741
1225 24.2085 19.25 4.11644 0.720498 0.801361 0.252583
311 33.5099 19.6727 4.13219 -1.75696 0.846075 -0.374598
3113 37.1572 19.8086 3.11139 -0.0781975 -0.931807 1.49234
2446 37.2205 19.1372 4.09638 -0.228994 0.285617 -0.788006
3586 44.7319 18.7078 3.8137 -0.0781185 0.539526 -0.922645
2036 73.497 18.6838 3.64208 -0.201047 2.03494 0.0667366
2188 40.1816 20.757 3.87911 -0.623216 -1.09307 0.203399
3238 65.2603 22.6651 3.03846 -0.522493 0.334464 1.02319
800 45.3672 23.7551 3.87455 -0.991357 -0.52255 -1.90279
3879 65.6987 23.8769 3.24235 0.411081 -0.347052 0.111194
544 36.5944 25.2744 3.69329 2.49574 0.15104 0.020532
2496 63.8876 24.9639 2.88736 -1.22355 -1.00604 -0.413845
1126 62.5785 26.8191 3.02696 -0.418153 -0.853967 0.00316885
2962 26.7537 27.8457 3.66876 -1.3061 1.54453 -0.181266
1519 27.5936 27.1591 3.81501 3.15384 0.453308 1.80578
3697 71.6497 27.8733 3.10679 -1.07702 -1.17456 1.16967
2640 7.8065 28.6547 3.16282 -0.203145 1.30833 -1.59065
2421 22.8633 29.7334 3.20783 0.3204 1.08269 0.274105
602 29.8645 31.0636 4.0662 -0.51883 0.165245 1.26555
2000 49.9353 31.1107 3.7965 -2.01063 0.958744 -2.02171
3276 52.4212 31.0882 4.08785 -1.74147 0.622581 -0.499215
3156 23.0933 31.8545 3.67429 0.867028 0.391192 -1.44123
1266 53.415 33.1371 3.62459 -1.76968 0.641743 0.218295
3325 59.4298 34.399 3.97109 0.315694 -0.286511 -0.0180405
3806 1.60951 1.09756 4.95253 1.86724 -0.513678 -0.552193
3468 34.6163 1.4154 5.21029 0.391984 -1.6898 -0.541272
3021 13.2363 2.23013 4.54905 -0.506523 0.0277318 -1.61703
3985 39.4836 1.67767 5.5768 0.727727 1.58003 0.377253
3445 49.027 2.80085 4.95024 1.33066 -0.648649 0.00417958
2955 12.086 3.43993 5.45969 0.699893 -0.535964 1.01703
3116 54.9997 3.02637 4.8265 -0.0516696 -0.395701 -0.637468
1307 55.1489 3.9917 5.23771 0.754702 -0.916392 1.23226
3104 54.0443 3.07292 4.56153 -0.810369 1.09029 0.55253
1152 25.464 4.58975 4.30735 0.942956 0.0688617 -1.30178
3200 30.122 4.53071 5.08438 0.155508 -0.58316 0.0926298
3204 60.3226 5.49403 4.95587 -0.0858544 2.44447 -0.553477
187 3.00847 6.59997 4.97281 0.228241 -0.470882 -0.0645764
2353 62.9103 7.06757 5.5765 -0.32197 0.220127 0.465024
1301 16.5321 8.48542 4.5193 -1.0572 -0.330695 -0.592245
831 16.7332 9.43699 5.30952 -0.513765 0.719118 -0.17178
1839 63.4001 9.14171 5.19639 -1.35938 -0.107933 -1.28005
2646 1.27973 10.8817 5.38306 -0.218949 1.03583 -0.542786
1733 13.0876 10.1105 4.60803 -1.50842 1.11064 -0.847337
3434 46.8788 16.4085 5.51944 -0.463652 1.38396 0.109167
1395 3.97444 17.9609 4.89526 -0.055073 0.0286052 0.362948
3929 10.3387 18.7182 4.29677 -0.59707 0.867084 -1.25374
3125 14.1026 20.6526 4.33938 -0.719501 -0.903493 -1.512
1735 49.7258 20.9369 5.52757 -0.952269 0.956978 0.70585
3363 42.6568 21.4246 5.61384 0.187722 -1.77218 -0.207161
2094 61.2663 22.4377 4.94207 -0.268273 -0.427908 -0.106811
2748 64.4176 21.8466 5.2386 0.177337 1.18572 0.454912
3094 67.0532 21.4055 4.57488 -0.687478 -0.255812 -0.192243
2190 1.00015 23.3584 4.81443 1.2105 0.365539 -0.098986
1801 8.15407 28.8993 4.74644 0.0735027 0.324197 -0.39551
3905 28.6178 29.6658 4.77597 0.294178 -0.245096 -0.951748
3635 49.0334 29.2847 4.28529 0.807253 -0.535582 0.946577
3082 27.6161 30.1334 5.04891 1.27969 0.185424 0.942137
1666 22.7596 32.3002 5.06755 -0.730705 -0.940134 -2.22184
2233 3.60861 33.0706 5.47525 0.745297 -0.827841 -0.163715
1618 7.32467 35.0854 4.78898 -0.0806901 -0.464199 1.12655
985 41.2371 35.1987 4.83736 0.210485 -0.210603 2.32092
1868 51.9545 35.2218 4.84467 1.00216 1.28501 1.2581
2986 5.2156 36.4326 4.79911 0.335349 0.813062 0.0875799
2086 27.836 35.9289 4.83165 -0.62997 2.41236 0.379779
2724 26.244 1.1358 6.06235 -0.154768 -0.666469 -0.896454
2067 48.1857 0.551428 6.48493 1.2077 -1.06521 -0.182967
57 10.7453 2.72369 6.33353 -1.26301 -0.317129 0.55599
3819 20.1411 2.31931 5.67772 -0.265958 0.450645 0.1242
3695 49.4032 2.33236 6.69629 1.38334 -0.595741 -0.967633
1063 45.9097 3.13119 6.44849 1.77843 0.205345 0.0885215
3160 67.0011 2.84532 5.98091 -0.408849 -0.597879 -1.36573
2730 28.3799 5.12722 6.37765 -0.336913 -0.81794 1.02788
3207 56.8466 7.06415 6.2982 -0.203447 -0.275071 -0.416085
2801 28.2654 7.95178 6.05127 -0.161574 -0.491753 0.910134
3658 35.0789 7.7617 6.88157 1.0515 0.614081 3.32313
2570 63.8974 8.46004 6.65168 1.02056 -1.37005 -1.82362
32 26.0694 10.8375 6.15553 -0.624912 0.555168 -0.633802
3536 5.171 11.5863 5.95745 -1.21015 1.20859 0.586645
1137 15.5296 12.0471 6.62676 0.156178 -0.770846 1.91259
2182 31.253 11.9809 6.69365 0.53877 -1.81245 -0.252383
606 48.5153 12.5716 6.89847 -0.609551 -0.237044 0.000157211
317 11.1622 13.8362 6.96828 -1.2367 0.703378 0.187585
2208 5.88862 15.6849 5.85442 0.414092 -0.203837 0.894636
2373 70.8833 16.6717 6.39742 -1.01398 -0.481498 -0.111772
775 1.63013 17.3117 6.97462 -0.472095 -2.38104 0.747386
3149 25.8332 17.0859 5.74559 1.1335 -0.208598 -1.58907
3816 31.7753 17.8084 6.39259 -0.29784 0.901162 0.910721
1170 26.6602 19.4365 6.53755 0.175795 0.368114 -0.274198
299 31.7993 19.744 6.17403 0.754629 -0.813295 -0.906932
2555 36.8574 19.2782 5.79993 0.410889 -0.616742 -1.93668
2960 67.3326 18.9858 6.91295 -0.944527 -0.409169 -0.192955
2301 58.2268 20.9409 6.67201 1.81062 -1.19384 -0.254764
1035 15.2326 21.9223 6.42029 0.697872 0.441673 0.576462
1456 53.6563 22.2111 6.10606 0.917288 0.518917 0.355326
945 6.1013 23.3231 6.21551 0.406216 1.14701 -0.154006
2545 49.8159 24.2993 6.17301 0.816857 -1.4596 -2.16392
3327 1.68148 25.6393 6.04056 1.34524 -0.583316 -0.237051
464 22.4311 26.1534 6.41961 -1.00291 0.929796 1.27743
303 44.3083 26.9095 7.02424 -0.454681 0.209467 0.0377364
202 42.2177 29.0683 6.09271 0.450153 0.561805 -1.01352
1823 44.1802 28.6674 6.8449 -0.746949 0.889603 1.84106
2495 11.1225 30.0938 6.33366 0.0780524 -0.31091 -0.304741
305 34.9772 30.138 7.07191 -0.38378 0.119111 0.600077
723 22.6884 32.1462 7.00142 2.22729 -0.0723514 0.237947
2609 27.9794 32.6041 5.70969 0.640598 0.296305 -0.225154
52 65.6213 32.9152 5.8408 0.658883 -0.778157 0.584692
1471 12.3344 35.0248 5.88605 -0.623239 0.692902 0.896202
2474 36.107 34.353 5.83117 -1.5512 0.149825 0.879801
1327 72.8217 35.3333 5.9657 -2.37653 -0.311495 -0.167594
1760 20.6216 1.80401 7.23902 -0.722195 0.430049 1.15525
2838 62.6713 1.83381 7.4782 0.98424 0.72608 1.55175
2723 20.9806 4.82048 7.58606 -0.411171 -1.6727 -0.662625
1649 10.7533 6.87361 7.91424 1.15167 -1.34471 0.54067
2298 20.1798 6.5412 7.46331 -1.03177 1.40796 0.243431
43 50.9902 6.92339 7.52339 0.869154 -0.341192 -1.56551
1569 69.2849 6.94667 8.39593 1.63705 0.893652 -1.03136
3981 68.9926 8.88301 8.31102 -0.334795 -0.908474 0.144832
1223 58.9481 10.0034 7.86842 -0.54325 0.332123 0.50441
1566 13.7072 12.2953 7.94224 1.54796 -1.19225 1.01357
826 11.0984 14.0351 8.45534 -0.975761 0.950921 -0.54787
672 59.3737 13.1337 7.72499 -0.462771 1.40728 0.407369
1096 29.9381 15.1952 8.02977 -0.664217 -0.142007 0.84238
1680 43.7818 16.7131 7.67048 1.42348 -0.772338 -1.20289
2246 53.7898 18.0313 8.24423 -0.0585367 1.99934 0.517818
12 57.7196 19.5161 7.4167 -0.429652 -1.8466 -0.61907
1756 61.6183 18.8483 7.58321 -1.00882 0.406749 0.78991
3519 6.66576 20.7405 8.26597 -1.47087 -0.415919 -1.33693
3890 10.801 21.0606 7.50023 0.137315 -0.925823 -0.529258
3589 27.3551 20.9385 7.61941 0.191219 0.323267 1.26468
2563 27.0458 19.8525 7.71706 2.14717 -0.106613 0.42105
3809 58.1481 20.61 7.89807 0.113176 -0.754654 1.18313
293 35.1729 22.4365 8.30748 -0.0948783 0.655816 -1.61704
3274 46.0754 21.649 7.68896 0.221264 1.25883 1.98252
2868 10.8249 22.8435 7.64939 0.977843 -1.10431 -0.324763
1023 15.0172 23.1955 7.30543 -1.78392 -0.0801193 -0.0636011
2077 41.104 22.7957 7.11522 0.119561 1.28348 -0.536264
3412 65.2098 23.6824 7.73217 0.00532264 0.852978 -0.161804
549 56.5209 26.832 7.87728 -0.627781 0.548076 -1.82462
162 66.0425 26.2523 7.58179 -0.198651 0.202906 0.844773
1699 68.8014 25.9844 7.72933 -0.617872 -0.0904884 1.89754
1933 44.0294 27.5372 8.0108 -0.658334 1.28709 -1.46594
2899 33.4688 28.8687 7.82025 0.512199 -0.507455 0.886549
947 54.9284 30.8109 7.29027 -0.0621957 0.106704 -0.348497
3484 71.2565 30.0808 7.17838 -0.649881 -0.934643 1.81176
2678 66.2969 31.9865 7.88413 0.376928 0.0607773 -1.00232
1058 25.159 34.1248 7.77027 -0.269372 -0.429621 -0.17373
1882 38.7301 34.5994 7.53819 0.476565 -0.420971 -0.228995
885 13.4578 0.0754751 9.76474 2.30243 0.613784 0.844352
832 47.9684 0.105427 8.57114 -0.401259 -1.39 -0.23065
1893 47.71 2.7697 9.01645 -0.246919 -0.636787 -0.0701242
2951 67.3923 2.65354 8.82678 -1.31112 0.631266 -0.00391429
2554 32.0304 3.7611 9.87987 -1.40653 -0.10516 -0.3172
1310 56.2227 3.05079 9.78495 -1.34377 -0.625315 -0.262854
2662 57.8417 3.75449 9.12308 0.361841 0.465565 1.27453
1010 71.8411 5.36772 8.93587 1.38423 0.808404 -0.167426
444 12.8644 6.39149 9.04083 1.05592 -0.906715 -0.462419
2121 51.8431 6.16974 9.48348 1.71851 0.247356 -0.376588
1581 22.7715 7.6263 8.50904 -1.42837 -0.175351 -0.185777
2821 32.4975 8.17045 9.36374 -2.04303 0.191514 -0.803575
972 60.2698 7.59936 9.25226 0.0117596 1.09728 -0.839378
143 71.0759 8.09037 8.57044 -2.03521 0.414538 -0.246311
688 37.6921 10.1268 9.13855 1.12753 1.23762 -0.512711
1637 37.7963 11.1599 8.83993 1.93086 1.29083 -0.775106
1195 26.7373 12.7436 9.12037 -0.372957 -0.166946 1.32344
1029 51.2095 11.7911 9.34941 -0.0200633 -0.316602 0.532777
943 30.7484 13.9155 9.77698 -0.38431 0.470244 1.45849
2361 40.2383 14.0757 9.4179 0.487711 -0.774385 0.490979
1481 44.8249 14.1283 9.74049 -3.14722 1.1735 0.633929
3968 68.4799 14.8611 9.05527 -1.44061 -1.71366 -0.0282323
2006 7.47596 18.1725 9.91834 -2.60702 1.01034 -1.0096
1911 49.1524 20.7249 8.51803 1.00189 0.0162349 0.271135
3493 67.7796 20.5957 9.19285 1.72129 1.28805 0.356185
2048 9.07338 21.2588 9.31698 -0.321766 -0.274723 0.972594
2811 23.2947 22.1017 8.62314 0.143964 0.691027 1.13878
3746 28.5232 21.7825 9.02876 -2.49066 -0.795125 0.320767
3530 53.5187 23.1379 9.45588 1.18063 -0.98643 0.433926
441 64.6271 23.2927 8.53331 -0.254947 -0.238467 0.411005
216 68.4654 22.8981 8.74713 -1.30157 -0.780979 -0.909878
1646 54.211 24.1722 9.65043 0.304975 -0.82372 -0.279946
2437 19.317 26.5226 9.7327 -0.172061 1.61587 -0.638216
2344 54.3704 25.737 9.80059 -0.160619 0.0552738 1.09172
2598 2.03502 27.6915 9.48894 -0.160555 -0.862701 0.332661
2556 33.2625 27.1066 9.73941 -0.61903 -1.64098 -1.74596
809 4.27176 29.6863 9.84191 -0.6929 -0.401544 0.90395
1268 39.1308 30.9131 8.7243 -0.159383 0.694367 2.16787
2305 66.2492 32.7639 9.3401 -0.400304 0.367312 0.369423
1077 67.1474 33.9295 9.04865 -0.0356565 0.216947 -1.31031
2603 9.7055 34.1447 9.28483 -0.43057 -0.0290422 1.063
3672 71.1836 35.1394 9.62105 0.493804 0.358508 -0.261228
2113 3.45486 35.5832 9.66067 -0.75577 -1.50441 -0.63363
3865 14.8151 36.3929 9.34143 1.55384 -1.65966 -1.28751
3676 20.6858 36.3131 9.74183 0.630013 -0.0613176 -1.33281
715 33.3017 36.0683 9.43097 -2.13797 -0.604175 0.616748
1184 54.4942 36.3131 8.60763 0.99679 -0.835479 0.0486816
103 59.1366 35.8683 9.04392 -1.17629 0.117133 0.00349356
108 38.71 0.725789 10.2398 0.178963 -0.115544 1.10456
335 26.708 4.05495 10.8281 -2.91742 0.444541 0.0951205
1236 35.286 7.02802 10.2031 0.609753 1.35997 0.141217
3281 40.9523 6.55045 10.5931 0.943637 0.13654 -1.35801
574 62.1972 7.43579 10.8994 -0.730748 -0.439358 -0.389803
2218 57.957 8.83335 11.1193 0.60215 -0.765984 1.94054
3365 23.7757 10.5295 10.2624 -0.417795 -0.361802 0.402895
3253 22.8235 11.5926 10.3296 -1.75426 -2.55793 -1.29394
1303 32.4682 13.4349 10.606 -1.09766 -0.886772 0.0711757
713 44.0919 13.3608 10.3687 0.610278 -0.387354 1.73532
3382 48.6675 13.7444 10.7184 -0.0575006 -0.740007 1.53354
2509 24.011 14.8938 10.9559 -0.170256 -0.66944 -0.942836
2842 50.8977 14.4428 10.3317 -0.710713 1.06925 -0.0741724
225 55.6607 15.4246 10.6492 -0.916293 0.50426 0.304684
3899 53.1215 22.4846 10.7506 -1.29997 0.63468 -0.958414
2705 68.2498 22.2234 10.4969 -1.17416 -0.955871 2.19883
2458 72.0276 22.294 10.24 0.500387 0.379711 -0.0437787
3455 44.986 23.9595 11.1451 -1.65407 -0.399756 -0.708131
3964 46.2621 23.3852 10.9541 2.85671 -0.30888 -0.421281
1153 52.177 25.3725 10.9792 -0.790739 -0.326202 0.366589
482 28.7106 27.2878 10.4233 0.0419357 0.192279 -0.154724
1992 68.0527 27.0659 10.0413 -1.57603 -2.52994 -1.64236
2371 8.55809 28.3459 10.2139 0.0025095 -0.783502 -0.137709
706 20.5015 29.0749 9.96494 0.992877 0.93058 0.319764
1608 4.33049 29.9911 10.8162 1.82047 1.07061 -0.536915
2595 14.0418 31.9626 10.1906 0.627693 -0.424677 1.85018
168 43.694 32.203 10.9203 -1.04229 0.480147 0.923699
543 55.2502 32.2192 10.7888 -0.926745 0.297475 0.433235
1771 66.2231 31.9448 10.7869 0.129922 -1.40805 1.01448
2162 1.97057 33.6901 11.3247 -0.256425 0.0284485 -0.638247
1349 5.26543 33.5234 11.2087 -1.05446 0.483831 0.0629344
958 49.4537 33.7944 10.1796 -2.42606 0.0694458 0.968265
3807 17.8759 34.0957 9.99364 -1.07833 0.952391 0.917025
1621 18.6409 35.1914 10.1961 0.00943798 -0.467869 1.20311
50 65.5229 35.5657 10.9004 1.31499 -0.140068 0.781129
1032 44.1717 1.87724 11.6435 0.744814 -0.770638 2.47592
1800 48.7353 1.49151 11.8069 1.53246 0.369056 0.0317489
2959 21.8218 3.73862 11.6536 0.66476 -0.957352 -1.14316
2585 51.9001 2.92596 11.801 0.295312 -0.163101 0.287531
1083 62.2243 3.49938 12.1027 -0.398925 0.319745 0.055598
3952 50.7342 5.97919 11.597 -0.376362 -0.629867 0.381691
716 9.76528 7.60433 11.6545 -0.380764 -0.333836 1.17373
3359 71.6262 8.12266 11.7893 0.45679 -1.95725 -0.235467
1238 7.10194 9.15895 11.6396 -1.29722 2.18074 0.321734
2118 29.3551 11.6719 12.5589 0.960444 0.191275 1.54109
1575 49.9093 11.4866 12.5509 -0.0573698 0.37228 -1.00463
1852 23.8816 13.4018 11.8758 -0.639299 -1.60191 -0.724618
125 62.009 13.9342 12.0611 -1.42866 1.07305 0.928057
153 66.5345 14.2955 12.4778 -0.284687 1.94156 0.0782108
840 45.9636 15.826 11.6309 -2.17445 0.731923 -0.721002
42 54.4926 16.9809 12.206 0.155731 0.995741 -0.389574
2997 30.2292 19.2986 11.5642 0.02259 -0.29539 1.37021
628 48.2801 19.6157 11.6148 1.28116 -1.17238 -1.01214
2572 60.7943 18.8324 11.9051 0.203923 -0.757992 0.100603
3361 68.4551 19.0948 12.738 0.584327 -0.511711 1.0157
576 52.4621 20.3214 12.1589 0.933915 0.559777 -0.27119
1417 24.9332 22.6076 12.6365 0.960736 0.437932 -1.05289
1628 31.8357 21.6034 11.989 0.452644 -0.0160236 -0.112925
3738 39.3966 22.2918 12.0231 1.10133 -0.490888 -1.33618
1597 12.8333 23.0541 12.3576 -0.152131 1.6046 0.533848
1787 16.9136 23.8227 12.0479 1.85391 -0.555321 0.603734
199 36.0278 23.6621 11.9791 -0.0232005 -0.759602 0.364646
3350 37.4521 23.3516 12.2183 1.43299 0.0174385 -0.0196261
2154 61.4584 24.9225 11.8586 -0.0201588 -0.0546073 -1.06752
84 32.3829 26.8864 11.5637 -2.30169 0.281122 0.946618
3304 33.537 26.2722 12.4399 0.330918 -0.0782674 -2.68786
2772 41.7108 25.8196 12.3164 0.159238 -0.21298 0.532764
3436 51.7225 26.0113 11.8337 -0.372327 -0.464401 -1.0554
2333 36.7669 27.1532 12.4888 -1.50059 -0.465359 0.122163
2516 20.7174 28.9573 11.6454 0.613217 0.0934339 -0.852559
2815 23.9842 28.4504 11.9208 -0.273858 -0.122757 -0.743278
2339 28.5049 29.1621 12.5798 -0.776942 0.171042 -0.716252
836 24.7188 30.0969 12.0641 3.14291 -0.916306 -0.360707
3875 42.389 30.7843 11.5484 -1.10207 -2.28723 -0.03016
523 62.846 32.4289 11.9656 2.01664 0.290324 -1.09591
2241 53.1348 33.1406 11.3931 0.178909 0.442998 -0.500781
3613 6.27733 34.8045 12.4935 -1.29507 1.31019 -1.57023
89 38.9754 35.2929 11.5791 -1.32383 1.03443 1.80573
1393 65.1611 34.1494 12.2555 0.904254 -0.448599 -0.926072
2841 12.1364 36.6009 11.4637 -0.802521 -1.06846 1.91689
1399 66.1913 35.7069 12.3911 -0.848659 -1.98236 -0.0968727
2553 5.75827 0.325763 13.6245 0.509473 0.517724 0.322351
1578 73.6601 0.952968 14.0346 -1.25668 -0.889313 -0.467032
1766 28.578 1.57019 13.5164 0.385567 0.599119 -0.117203
675 70.0146 2.24192 13.2202 -0.177601 0.835143 -0.576311
2137 23.9097 5.18984 13.6518 -1.26677 -0.913707 -1.01821
3334 43.3198 5.07937 13.4295 0.158612 3.24779 -0.38568
318 7.18107 7.07613 14.0331 -0.518239 0.260805 -2.44439
2040 22.9748 6.41785 12.7795 -2.29904 1.10703 -0.666772
2761 62.1627 6.93826 12.7814 -2.50484 1.58027 -0.639191
3192 63.3389 8.18777 13.0002 -0.765152 -1.51533 -1.74639
3537 69.6174 8.23393 13.0696 -0.271283 0.251838 0.866408
364 9.05894 10.2028 13.5898 -2.49177 0.125183 -0.467986
3941 42.3064 10.4399 14.063 -0.431511 -0.456818 1.32307
3930 1.67588 12.7764 13.7521 -0.0331016 0.59478 -1.21898
1876 14.7439 13.8681 14.1282 -0.28468 1.73039 -1.36315
2146 30.7753 13.2435 14.0937 -0.133569 0.690728 -0.735368
1883 41.7456 13.3456 14.0184 -1.02484 -0.140713 -0.0255521
1405 61.8617 13.2127 13.4459 0.548857 -0.215363 0.886076
1657 1.20675 21.6319 13.7595 0.763995 0.511837 -0.0448032
1369 29.3114 22.6106 12.9804 1.73623 0.763787 0.284224
2883 39.6444 21.42 13.581 -0.413446 0.648707 -0.566419
559 72.0176 22.6233 13.3197 0.0909518 0.881835 -0.308983
1743 2.26635 23.0321 14.1617 -1.23193 0.0147923 -0.751871
201 45.0441 23.6627 13.6134 0.514352 1.68365 0.413637
2251 52.7204 24.6113 14.1537 0.839031 0.883899 0.829066
1920 0.982531 25.9975 13.3065 1.38927 -0.0286979 -1.11939
960 63.4522 26.7265 13.5705 -1.45181 0.0427052 -0.576199
422 2.75399 27.6588 12.8424 1.38559 -1.06707 2.50852
950 65.439 28.1654 12.8073 0.319922 0.0366716 0.0231571
2758 37.967 29.589 14.1572 0.645202 -1.42139 0.0731178
1815 43.434 28.3414 13.3443 0.0757934 0.127581 -0.527406
518 66.1846 32.1069 13.6903 -0.0385257 -0.776669 -0.520147
939 23.1891 33.5501 13.4735 -0.880302 0.128276 0.336501
1265 26.4 32.8145 13.2501 -0.0822597 -0.418976 -0.750854
2440 40.9621 33.334 12.8996 1.42807 -1.22334 1.65955
875 71.4556 32.6165 13.5778 0.47272 0.961382 -0.636936
2558 15.9693 35.0289 14.0906 -0.0888827 -1.26795 -0.299553
83 49.4399 34.5563 13.7184 -0.183826 -0.860058 0.0175854
2719 23.0159 36.1135 13.7956 -0.607817 -2.59988 -2.02927
2011 50.3469 1.28386 14.4685 -0.861444 0.127435 -0.338161
1315 72.6189 1.25001 14.8299 0.503447 1.62226 0.322232
1457 54.5233 3.47646 14.2685 0.0878882 -0.895693 0.815745
3966 40.9214 4.72084 15.4258 1.18822 0.231683 0.711951
2765 42.8001 5.62416 14.3723 -1.06123 1.40338 0.558248
3501 54.8385 7.52739 14.4997 -0.547012 -0.090059 1.70179
2680 59.8864 8.14099 14.7148 0.144063 0.135053 2.73231
1835 2.3337 8.80409 14.2625 -0.599731 0.245894 1.23153
56 4.93308 8.65312 14.1748 -0.119417 0.116281 0.194718
3182 14.8638 9.42017 15.0281 0.00616978 -0.333933 -0.116598
2388 40.7924 9.04367 14.6993 -0.214737 -0.68497 -0.691574
79 53.5461 10.7028 14.24 -0.168921 -0.489659 -0.851508
2492 56.6879 10.1626 15.2017 -0.221627 -1.05379 -0.735087
3902 33.0371 11.5203 15.1275 -0.996101 -0.668191 -0.122989
3551 34.2452 12.4393 15.4774 -0.521748 -0.354735 0.543771
36 27.0828 13.6591 14.6885 -0.200683 0.326504 1.81485
1387 38.1321 13.2862 14.4226 -1.28944 -0.192504 -1.19782
63 71.8503 13.1833 14.3044 1.9167 -1.16737 -0.182156
1780 73.4874 13.0498 15.527 -0.246413 -0.530789 0.159915
1109 27.0603 15.2391 14.5654 0.211913 0.764385 -2.03489
1499 28.994 14.8959 15.4589 0.0568294 0.161624 2.20446
1629 28.4739 16.9449 15.3993 0.466567 -0.496485 -0.973167
548 41.3735 18.2208 14.4804 -0.472786 -1.43024 0.628299
1267 16.3429 18.9091 15.4908 -0.600699 0.719901 0.820291
1202 24.727 18.7561 14.4291 -0.57081 0.896792 0.234593
2621 39.9632 19.1543 14.2494 -0.285193 0.270168 -0.0825041
1340 52.2668 19.284 14.3084 -0.347262 0.0150088 0.600238
1362 18.9393 20.657 14.2555 -0.669663 1.7301 0.681182
2185 70.9204 20.1641 14.7369 0.219138 -0.211284 -0.971101
1264 28.6042 23.147 15.3727 -0.903696 0.169632 -1.76925
2785 41.3178 23.1236 14.3367 0.134673 -0.143566 0.0397646
1862 53.8822 26.3077 15.3129 -0.478723 0.623682 0.400048
3592 9.13029 27.8975 15.2329 0.66221 -1.55073 0.477406
3552 41.1343 27.7442 15.0733 1.56062 2.57218 1.66877
3861 70.8324 29.353 14.1986 0.131243 -1.15653 -0.288297
2543 71.4472 28.7915 14.8097 -0.434334 1.5413 0.250595
873 9.73147 33.4888 14.8353 0.478347 0.470932 0.211012
789 15.9657 33.8324 14.961 -1.03015 0.487508 1.34781
383 40.3426 33.0455 14.7934 0.889965 0.459611 -0.17636
983 72.8282 33.86 14.1767 0.612764 -0.27606 -1.11284
2992 13.5472 35.3306 15.0324 0.0290513 -0.800504 -0.0553571
853 40.1118 34.083 15.5431 -0.402196 0.294455 0.628702
3210 72.909 34.4371 15.2734 -0.81415 0.642952 -1.83944
425 26.2169 36.3031 14.9726 -0.926183 -0.496179 2.24802
3140 33.8961 36.7183 14.6787 -0.385669 0.779033 -0.364294
2088 67.2628 36.5307 15.2315 0.166743 0.109657 0.656203
631 6.79453 0.717525 15.9355 0.928874 -0.155555 -0.00226246
1791 31.5503 0.246446 16.9629 -0.561419 0.446646 0.671605
1698 42.4307 1.93298 16.3739 0.107679 -0.47982 1.33251
2824 43.2903 2.3949 16.5991 1.22681 -0.22138 -0.483865
1469 2.93931 4.70677 16.4366 1.04013 1.45995 1.54259
3822 4.40655 4.40086 15.7809 0.444119 0.987516 -0.669538
3887 57.3023 5.56914 15.804 -0.266888 0.262081 -0.723833
3867 2.61651 7.82845 15.5903 -0.715571 0.720711 -0.761055
3064 20.6129 8.18607 16.5778 -0.373401 -0.153991 0.133919
3030 33.4528 12.2347 16.031 1.36162 -0.661111 1.03801
2775 45.7401 12.348 16.0239 -0.246439 0.289324 -1.08331
1985 63.9909 11.4864 16.8086 0.925659 1.52913 -0.905388
627 42.4474 12.8217 16.7613 -0.612786 0.338158 0.50378
1191 30.747 15.1389 16.8263 0.592024 0.506893 -0.699057
1609 67.2765 14.4801 16.9038 -0.406814 1.10887 0.770569
635 68.6495 14.6578 16.3223 1.60718 -0.106927 0.337064
575 32.1967 15.8185 15.9928 -0.770004 -0.0786899 0.248249
1114 33.632 16.9152 16.2448 -1.58764 0.291941 0.353311
1319 37.0085 15.5913 16.8379 -0.262013 1.01428 1.68823
3909 38.8331 15.8931 16.5337 0.0642822 -1.6968 -1.00771
249 26.5547 17.5248 15.7524 0.549027 -0.596225 0.622672
3041 33.5815 18.5323 16.0656 -0.246603 0.41112 0.381298
1084 7.37207 20.5116 15.9956 1.26113 -1.42557 0.12011
1734 13.5413 20.6037 16.8491 -0.0730515 0.335851 0.027127
655 25.142 20.6384 15.9298 0.69174 -0.675308 0.383029
1158 40.6826 21.1271 16.2847 -0.183144 0.726776 1.91316
3716 9.31513 22.0232 16.9741 1.1299 0.573962 0.154862
297 19.6924 21.454 16.3354 -1.10818 -0.201911 0.746908
790 32.0601 21.8804 15.7055 -1.24376 0.311427 -0.394027
2331 5.8359 23.2075 15.8296 -0.306392 1.81291 0.724845
238 39.7721 24.6734 16.5625 -0.277462 -0.266152 0.909156
3917 60.364 25.0272 15.9545 -0.316818 -1.03198 2.19376
986 54.1618 27.2441 16.834 0.337767 -1.00549 0.918513
3569 57.8379 27.9166 15.6137 -0.908381 1.15174 -0.835807
2741 2.39604 31.0817 16.3558 0.625544 -0.193626 0.0123424
111 43.4238 30.9714 15.9335 0.289065 -1.0806 0.410389
3876 48.8625 30.3994 15.8545 -0.188188 0.0619145 1.22681
522 26.7313 32.0998 16.9134 -0.413347 2.02623 0.49947
3581 26.1604 32.0128 15.9535 0.987783 -0.746255 1.89569
3540 32.1851 32.5874 16.1773 -0.418944 0.957398 0.682334
1452 56.0772 34.0167 16.5152 0.643263 0.214514 -0.956227
3169 48.6087 0.786291 17.7076 -0.36484 1.52259 -0.252555
1329 66.4071 1.83978 18.1763 0.767385 -0.394807 -0.536755
3828 5.93765 3.9892 17.2869 0.739945 -0.88273 -0.049799
2392 34.7228 4.11636 18.1789 0.0739369 1.1146 0.0395365
3523 45.9704 2.87095 17.0279 -1.14719 0.10836 0.848386
2667 16.0864 5.32476 18.1535 0.551785 1.76032 -0.594121
1706 63.884 4.59875 18.3287 -1.55178 0.725374 1.25206
3812 13.3273 6.33703 18.1263 0.241686 -0.767668 -0.573802
3307 72.4788 6.49176 17.8016 0.589548 -0.288072 3.43252
1663 42.2302 7.20214 17.3922 0.539909 0.77892 0.256995
1250 61.8462 9.84715 18.3919 -0.223296 0.491835 -0.0386502
3714 67.0663 10.7156 17.7054 -0.100343 0.51986 0.56884
3638 62.0488 11.7351 18.2568 -0.455535 0.610025 -1.10803
869 67.6151 12.4004 17.5227 -0.324346 0.322396 -0.34872
3450 68.7019 12.537 18.0538 -1.27838 1.10559 -0.695642
122 25.8609 12.8426 18.3574 -0.314458 0.838451 0.527874
2596 36.9406 13.3804 18.3003 -3.76631 1.27821 -0.026473
2791 46.1972 16.2703 17.9687 0.271418 -0.0171264 0.688404
3945 22.9928 18.177 17.4741 -1.07741 -1.26195 -1.43837
3795 33.3953 17.6145 17.4964 1.17078 -1.24843 -0.0340738
3317 47.3619 17.0366 18.2668 -1.47725 -0.0804783 1.04074
3042 53.5226 17.195 17.2662 -0.819204 -0.651828 -0.411977
2749 55.964 19.7821 17.5453 0.0977386 0.0422125 -0.0767893
3488 32.5086 20.2724 17.5198 -0.487669 -0.839365 -0.14113
3632 16.6202 25.0399 17.707 -2.16895 0.0317487 -0.227912
2334 60.141 24.4016 17.2985 1.39574 1.80597 -0.362186
2588 42.0158 26.8173 17.6568 -1.57918 0.485437 0.434507
3900 55.858 26.4164 18.2658 -0.382705 0.682253 1.05462
3903 61.8393 26.6244 18.2502 -0.847531 -0.186055 -0.808299
2347 43.3191 27.2733 17.8913 0.604232 0.870548 0.801865
1450 53.7257 27.4631 17.8418 1.02602 -1.15094 -2.27778
3517 13.6085 29.5285 17.3781 -0.935186 -1.01612 -1.60807
3995 24.3364 29.6995 17.187 -0.657822 0.0411701 -0.09885
2031 73.3385 28.4866 18.1339 1.0311 0.887966 0.899964
3534 16.7821 30.3105 18.2913 0.550303 0.899607 2.5435
2249 42.986 31.4405 17.1415 1.95167 -0.977428 1.04866
519 45.6903 32.4562 17.2119 0.982837 -1.92311 1.38705
2326 58.1474 31.6058 17.4698 -0.0612279 -0.481305 1.36628
2085 46.0822 32.8408 18.2452 1.69811 -0.644096 1.0816
320 49.2719 33.6317 17.7137 -0.825832 2.62714 0.0605335
3630 60.1506 33.9292 18.3355 -0.71171 -1.11495 0.152839
1050 47.0403 34.2371 17.4084 1.81387 0.849791 -0.647628
799 44.4733 36.0622 17.6143 -0.643514 0.383173 -0.254977
2768 70.3472 0.47071 19.5752 -0.563976 1.83895 -0.600516
87 16.1952 3.07252 19.4526 -0.400223 -0.0587988 -0.609521
2307 31.9758 3.69473 19.2309 -0.59353 -0.00956204 0.597037