ITEM: TIMESTEP
47000
ITEM: NUMBER OF ATOMS
4000
ITEM: BOX BOUNDS pp pp pp
0.0000000000000000e+00 7.3680629972807722e+01
0.0000000000000000e+00 7.3680629972807722e+01
0.0000000000000000e+00 7.3680629972807722e+01
ITEM: ATOMS id x y z vx vy vz
1928 36.0765 0.931282 1.09511 1.20886 1.0064 0.151286
3609 67.2011 0.680158 0.8488 -0.396777 0.638827 -0.208285
3944 71.1687 0.237368 0.386549 0.807278 1.32459 -0.365094
152 50.9262 2.24809 0.265482 -0.995521 -0.0538306 0.395042
759 4.19143 5.26111 0.7535 2.0711 -0.756352 -0.944976
1176 71.2418 4.33335 0.44303 0.190439 1.27795 -0.643834
1135 24.5716 6.30682 1.22406 0.324203 -1.11496 -0.318463
1711 27.213 6.96562 1.24474 -0.22039 0.199598 -0.425117
1392 39.5563 8.17401 0.204866 -0.211164 -1.52481 -0.525049
1802 32.9533 10.8942 0.425945 -0.134711 0.929687 1.36908
2638 32.7618 13.3552 0.566089 0.0955436 1.35299 0.387342
2247 36.7677 13.4786 0.946863 -0.513121 0.211258 0.872553
379 30.563 14.7398 0.674879 1.89461 0.129766 1.28506
1480 55.5974 14.9319 1.16168 1.14564 1.10835 0.892462
2137 39.6423 16.7177 0.752567 -0.61231 0.222099 -0.347797
1698 58.4334 16.0715 1.0597 0.939132 1.35205 0.799518
2493 11.9331 17.9863 0.77964 0.422835 -0.954183 0.407112
787 20.6497 18.0431 0.716621 -0.0760491 0.827389 1.39034
1520 28.9337 17.5082 0.796246 0.0315725 -0.369545 1.56846
622 40.3646 17.4425 0.0630489 -0.588644 0.522245 1.23413
1145 68.9248 17.4276 0.531572 -1.00948 0.0331783 1.7016
2457 17.1118 18.5748 1.26617 -0.214745 -1.31267 -0.647192
3413 32.8065 18.8784 1.26734 -0.596545 -2.44647 -0.916289
3540 44.4167 19.6045 0.220125 1.00732 1.85404 1.38629
2564 50.2577 20.4886 0.668371 0.709037 0.50988 0.770464
656 24.3149 22.1082 0.0508573 -0.147529 0.536927 -0.491343
3950 63.6391 21.3109 1.07635 -0.449427 -0.708116 1.83705
3611 8.41502 26.637 0.265818 -1.11148 -0.33188 -0.170866
3426 51.3281 25.9221 0.73899 0.738651 0.329506 -0.312763
1634 70.4059 26.7679 0.83761 0.254472 -0.305079 -0.633726
3361 61.7984 27.4243 0.96626 0.179844 0.911256 -0.869752
1433 69.517 28.4554 0.543754 -0.499125 0.774732 -0.517204
2240 12.4593 30.1984 1.34127 -0.058129 -0.177959 0.543866
2980 47.6165 31.1677 0.30765 0.512479 1.93646 -0.162806
3220 2.19912 32.4695 0.583723 -0.899901 -1.2372 0.661283
998 27.2097 31.6857 0.601824 -1.27472 -0.25591 -0.319092
2551 12.6132 32.6842 0.257356 0.742383 0.517545 0.00453083
3583 73.0963 34.9766 0.379234 -0.63805 0.555418 -0.396705
3646 2.22312 35.6484 0.388989 0.790868 -1.88531 -0.382629
70 37.8684 36.3231 0.959975 0.91602 1.48744 0.971971
1813 39.75 36.8316 0.506877 -0.248893 0.724319 0.29684
451 42.5975 1.20366 1.61616 -0.79139 -0.290908 1.10322
1631 57.0985 0.400651 2.51892 -0.18506 1.12072 -0.161344
2730 56.8413 2.11315 1.78254 -1.84113 -0.350386 0.144975
752 72.562 2.76599 2.7301 -1.25071 0.238912 1.36937
2952 14.7302 3.11014 2.40165 -0.241557 0.0878719 -0.886561
571 57.3723 3.47292 2.00973 0.189192 0.380532 -2.10235
3913 68.2981 3.24398 1.6551 0.115734 -1.00405 1.59794
3621 4.51743 5.09778 2.6279 -0.24828 -0.0139013 0.819048
1211 48.0055 6.17799 1.46396 0.330341 0.146524 -0.189553
413 31.0232 7.39716 2.06759 -1.81416 1.41117 1.81075
2951 52.0774 8.12618 2.05389 1.08673 -0.726754 -0.261361
3331 13.4942 9.25474 1.99476 -0.194757 0.163872 -0.0950723
3299 71.0355 12.3471 2.11878 0.466943 -0.726846 -0.489731
3170 0.55736 13.6598 2.16115 -0.321912 0.930505 0.405752
1340 20.8607 13.9189 2.62737 1.5286 -1.04603 -0.742092
225 31.3772 14.9548 1.92299 -0.891903 -1.44597 1.32712
3505 14.5142 18.1821 1.98286 0.535635 -0.11398 1.193
2051 56.6595 18.5649 1.76262 1.08873 -1.08238 0.240405
1166 58.7836 19.6374 1.62348 -0.65749 -0.524522 -0.80648
3919 62.7114 19.1537 1.92836 1.46924 -0.42276 -0.811384
3601 72.4881 19.2794 2.75901 -0.298238 -0.061564 -1.02166
3587 6.92386 20.5876 1.6532 -1.17801 -0.657064 -0.579137
2976 19.7575 20.0395 2.70587 0.728637 -1.02563 0.480682
3588 13.324 21.3235 2.57524 -0.250928 -0.172361 -0.533308
1892 47.8017 21.338 1.89857 0.23079 -0.340605 0.254059
3976 56.8708 22.6643 1.42499 -2.25579 -0.118343 -0.278862
3007 68.5855 22.2332 2.54881 -0.950948 -0.730692 -1.12138
3554 63.6798 25.0257 1.74045 -0.00983974 -1.49967 0.796657
2123 68.9155 25.3271 1.96304 -1.42187 0.290135 -0.618549
889 53.9145 27.0997 1.74257 -0.357726 0.54874 0.0720615
2441 47.095 29.4059 1.61272 -0.675658 -0.671337 -0.0721517
1946 56.0772 30.5375 2.52633 -1.182 1.03319 1.03342
154 60.0546 29.777 1.96822 -0.807644 0.00289822 0.734657
2916 15.8289 32.1499 1.50728 -1.53869 0.192802 1.88532
2180 21.8938 32.3388 1.9899 0.245122 -0.350217 0.164255
1544 52.5879 31.8845 1.68915 -0.81696 -0.140888 1.43953
1441 3.57754 33.1221 2.09066 -1.31518 0.639913 0.785867
3092 8.20843 33.1692 1.6823 -0.241092 -0.16151 0.352372
3942 28.7818 32.6316 1.99166 1.83261 -1.32056 -0.210885
2530 33.1409 35.0768 1.81633 -0.751527 -0.087443 0.57269
84 0.580664 36.357 1.88212 0.672383 -0.342926 -0.399021
2483 59.1355 0.240627 3.16957 0.346742 -0.753365 -0.0647075
2852 35.6894 2.47635 4.07992 -0.345977 0.00926206 0.30221
2407 10.1773 3.03591 3.25723 -0.517146 -1.50851 0.923751
823 8.89278 4.58823 4.06406 -0.243368 -0.10281 2.01521
774 49.3682 5.2397 3.13766 0.0623795 0.597936 0.0216695
615 50.9469 4.6689 4.11467 0.447204 1.1109 -1.06473
2505 68.7699 4.33138 3.23964 1.04003 -0.635733 -2.26455
1897 69.901 6.60383 4.08004 -0.341637 0.38041 1.60045
2044 42.7975 8.67986 3.17995 0.944418 1.4066 0.955999
20 41.0745 11.3078 3.5259 -0.948226 -0.554564 0.246718
2359 65.4857 10.879 3.51536 0.903921 1.73261 0.0210212
402 68.0986 11.033 3.62367 0.0921093 0.737592 -1.52802
1153 30.2294 12.4365 3.40464 0.459207 -0.383258 -1.26098
441 33.3038 11.5186 3.42607 -0.853669 0.334547 -0.664293
2622 21.3625 15.269 3.90404 0.782227 0.326188 0.254383
2384 15.2204 16.3801 3.32905 0.239844 0.0148949 1.07524
624 39.4273 16.0175 3.1562 -0.138922 1.17927 0.247484
3908 49.7438 17.0208 4.05221 -0.491538 -0.0758502 -2.60443
3443 31.3843 18.6735 4.15663 -2.14146 0.260426 -0.497801
1584 57.8195 19.6855 3.08102 1.14469 -2.70298 0.718493
3778 45.4586 20.0077 3.9161 -0.118873 1.24002 -0.797286
1675 56.2156 20.9385 3.15304 0.281349 2.28781 0.539143
503 56.0793 20.029 4.07157 -1.87527 -0.43843 0.817767
2995 57.4853 20.4881 3.65149 0.213017 -0.0398672 -0.316358
3119 39.2828 21.9496 4.10903 1.00277 2.02017 0.174924
3052 56.7201 21.4285 4.19944 1.57312 -0.419342 0.0168872
1988 43.1613 22.7837 3.7615 0.124328 -0.977209 -0.0118679
1214 5.51847 24.6328 3.06603 1.16591 -0.636693 -0.819558
644 9.53338 26.9166 3.38403 0.645033 1.26087 -0.69289
1973 45.7577 26.1365 4.06403 -0.698347 -1.14087 -0.805348
1526 47.898 25.574 3.91062 -0.197781 -0.156421 0.271994
2334 64.4467 26.9183 3.02483 0.793556 -1.07172 0.530176
3781 18.0737 32.3479 3.72025 -0.351428 -0.126678 -0.812286
3725 19.3403 32.1812 4.14814 0.590109 0.736217 1.85443
467 26.9885 31.4018 2.9392 -1.30858 -1.37176 1.45285
2438 70.7759 31.7184 4.18367 -0.730929 0.659501 0.147593
1917 32.6466 35.2191 3.3518 -0.264763 0.597653 0.762888
1434 30.5713 1.09249 4.38945 0.559631 -1.28518 -0.30857
268 33.5166 1.36391 4.4861 -0.691377 0.0808721 0.156098
1428 16.192 2.2659 5.33075 -0.479541 0.740277 -1.87324
22 60.4214 2.42216 4.80029 0.234195 -0.0168841 0.745057
2140 21.4739 3.23218 5.32535 -2.28922 -0.210762 1.9596
470 25.0218 3.18654 5.53744 0.760601 -2.45378 -0.557728
1902 22.626 6.1485 4.56299 0.208633 -0.923141 2.11722
3124 71.3641 6.91333 4.42862 0.92614 0.836775 0.513512
3775 43.1222 8.27471 4.433 -0.496466 1.03784 0.933305
2764 22.9267 9.71282 5.03724 0.845206 -0.147743 1.22792
1783 30.7129 9.18347 4.3423 -1.23957 0.677392 -0.837266
709 36.1574 8.97783 4.3496 0.481322 1.07739 -0.0803162
2257 41.9575 9.58113 5.57887 -0.702411 0.985726 0.12577
2574 58.1767 9.09665 4.69167 0.855241 -0.733131 0.435357
1503 63.4786 12.3632 5.19978 -0.391099 -0.64207 0.841288
1451 14.2144 13.4125 5.15976 1.08749 2.14649 0.302068
98 57.4638 13.2231 4.41649 0.538495 -0.295657 -0.499361
1105 71.3396 15.0451 4.26216 -0.415375 -0.625382 0.0356997
2352 62.1508 15.7766 4.98697 -0.866975 -0.190292 0.578971
1530 69.9588 19.9559 5.41447 0.197691 -0.839954 0.257916
1681 6.34523 21.8056 4.31986 -0.791836 -2.30387 0.577822
2999 38.4317 21.3917 4.66502 0.149657 -0.218046 -0.142313
2868 46.6336 23.5737 5.64787 -0.375884 -1.43359 1.84786
420 3.5543 26.6069 5.32933 -1.04534 -0.951186 0.276829
683 17.3752 25.7603 4.79156 -1.26716 0.848598 -1.56362
3786 23.9268 25.7061 5.14741 -1.56456 -0.857362 2.10761
529 6.49185 30.1537 4.68598 -0.0356616 0.857115 0.182392
676 56.8307 30.3777 5.17225 -0.686744 1.59205 0.297893
2193 73.3485 30.7402 4.67782 0.182733 0.790508 -0.337081
1422 34.568 32.1065 5.33683 -0.340587 0.777828 -0.0111235
2509 68.6049 31.6551 5.24888 0.242455 0.901276 -1.0565
3901 63.249 33.7681 4.62823 -0.524613 0.606219 0.192257
3532 21.2711 34.2583 4.81241 0.953885 0.184415 0.722353
3149 50.6647 2.24859 6.11503 -0.0238293 1.16423 0.892653
1623 12.1665 3.97949 7.01641 0.11064 -0.135872 1.57148
700 13.6856 5.37996 6.23499 -0.387275 -0.994087 -0.0751847
2835 23.4867 6.79609 5.87516 1.17239 2.12354 0.107377
2386 28.6264 7.84322 6.755 0.17837 1.03843 0.472995
3087 50.0681 7.24168 6.62872 -0.00317876 1.0255 -1.10109
3296 62.2329 7.86935 6.38487 0.456836 -0.0985752 0.592302
3129 73.0794 7.16238 5.76478 0.0775656 0.161958 -0.405349
1057 19.5936 9.45086 6.24944 -0.946211 -0.966239 1.32171
1932 6.08475 10.3309 6.15626 0.747639 1.53051 0.162503
3281 0.365981 15.1217 5.88454 0.420073 0.618459 0.615803
797 19.6786 14.3743 6.31754 0.559844 -0.0397693 -0.587842
2893 27.5284 14.5292 6.36656 0.502567 1.14273 -1.81045
283 1.40019 16.3301 6.41491 1.00835 0.206123 1.37946
3216 11.5213 16.4497 5.71715 -1.12004 1.42816 -1.54023
659 9.20931 18.4603 6.61829 -0.056518 -1.46009 -1.4401
286 18.8468 19.6625 6.97741 -0.915242 0.337606 1.1825
308 6.18616 20.71 7.05616 -0.520934 -0.571466 0.387033
771 22.6644 19.9131 6.9999 1.55346 0.17223 -1.3288
1152 46.5395 20.6684 6.63359 -0.699179 -0.858772 0.0744895
3113 42.4115 22.8793 6.50358 0.66169 -1.31348 0.652221
3994 65.0716 23.3638 5.84263 1.27409 0.00884694 -0.667747
1557 48.855 26.3403 6.19962 -0.00404817 -0.267018 -0.370723
1840 71.7124 26.5785 5.91331 -0.412628 -0.518918 0.118829
3023 8.15509 27.0917 7.04978 0.904987 -0.687846 0.876929
3480 15.7931 27.0616 6.22739 -2.08596 -1.65846 -0.555845
1855 12.5045 31.073 6.58652 -0.187979 0.640954 1.99487
1130 55.2886 30.2994 5.73343 -1.03747 0.577695 -1.87819
891 60.4769 29.8957 6.40065 -1.70357 0.678468 -0.697228
3666 48.297 32.3049 6.76974 -0.909089 0.3159 0.634717
1171 21.3131 33.6063 6.22016 -0.0726869 1.61369 -0.394047
232 29.8471 33.1515 6.13883 -0.040128 2.13998 1.33472
2555 43.6778 36.3551 6.19781 -0.649366 0.558899 0.384041
751 72.0721 36.6091 5.66907 -1.16212 -0.595538 2.69054
3357 32.9783 0.398271 7.28381 0.907265 -0.24709 0.363657
3346 65.5342 0.382667 7.98611 0.77195 -0.59619 0.257598
679 7.88284 4.11582 7.78487 1.69426 -1.14141 -0.0100471
114 38.5482 5.13612 7.14851 -0.459826 0.51763 -0.0589463
3151 27.2685 6.68897 7.90102 0.000194127 -0.0341923 0.69712
2347 38.9404 6.4022 7.18087 -0.0865688 -1.85156 -0.771343
2917 49.2886 6.63248 7.29899 -0.342449 -0.915488 -0.852923
1781 26.0188 7.37288 8.2045 -0.656752 -0.489258 -2.15486
2845 64.5736 10.5398 7.56118 0.941886 -2.55192 -1.63587
1976 3.53995 12.2452 7.75798 1.298 -1.43671 0.741773
124 15.5457 12.3893 7.29477 -2.56313 -0.600968 -0.0747449
3788 53.6396 12.6619 7.20452 1.24526 0.200168 -0.0818104
421 62.8443 12.606 7.59563 -0.404593 1.92538 1.67933
2211 46.8482 13.4021 8.09642 -1.51781 0.105748 1.0307
3138 18.5576 14.3669 7.99232 1.98374 -1.40598 -1.21747
3022 63.6047 15.3844 7.95406 1.0918 0.85811 -0.643054
3767 70.1161 15.3994 7.48016 -0.0150114 -0.0288588 1.30489
672 1.72455 16.7235 7.33116 0.0504983 0.530967 0.962079
3025 40.6677 15.6705 8.20445 0.734687 -0.643655 0.234344
2409 20.3658 17.3097 7.15266 -2.00026 1.02686 -0.57872
164 71.1871 17.1583 7.19281 -1.16937 -0.196685 -0.973936
3307 10.3542 18.5814 7.84863 0.86074 0.517136 -1.39272
1466 39.1101 19.4914 7.87776 0.0487815 1.06332 0.354301
1730 48.2952 19.3556 7.40205 0.750833 -2.18108 -0.814542
1221 58.7658 20.388 7.57861 0.942387 -0.26943 -0.173691
2381 10.3088 22.1957 8.02141 0.0704276 -0.0716099 -1.31083
2109 46.9456 22.6506 7.9043 -2.33879 0.499526 2.05073
1186 47.3763 21.5957 8.39969 -1.0787 -0.824598 -0.0401355
2244 66.1455 22.5929 7.78874 -0.350968 1.0066 1.05224
3475 27.2439 26.2613 8.04134 0.735977 -1.41339 1.87161
161 40.7396 26.6723 8.20371 -0.809126 0.316352 0.201841
2446 11.2505 26.9987 8.11362 -0.358159 0.411483 -0.575166
3487 16.0539 27.1576 7.33821 0.626777 -0.717659 1.83586
1939 13.0656 29.0022 7.28101 1.1862 0.27727 -0.630684
1738 45.3675 29.5496 7.77816 0.354898 -1.34282 1.09111
1251 73.0391 29.5421 7.37717 1.19396 0.643117 -0.53088
246 30.6282 31.9851 7.1615 1.3697 0.415631 1.71703
2313 36.3443 32.8082 7.55024 0.297989 -1.70812 -1.83133
2601 14.0381 34.6215 7.44847 -0.559096 0.0549026 -1.25037
1426 19.6026 34.2652 8.16192 -0.736966 -0.829667 -1.86356
2813 29.8532 36.1247 7.71404 -1.85996 -0.639252 0.767903
2632 70.2498 36.4504 7.34099 -0.295818 -1.46182 -0.192059
2440 18.8289 0.69658 9.41283 1.4667 -0.103948 -1.87463
1129 65.5581 1.21918 8.77944 0.41759 -0.38118 1.28536
2830 3.94958 2.83034 9.61521 0.556045 0.953251 1.04437
1622 33.5691 2.80815 8.8524 -1.04869 -0.384286 -0.379793
2319 8.05704 5.60461 9.33653 1.27503 2.30202 -0.0623074
484 21.1104 5.82272 8.77703 0.526165 0.0621032 -0.117661
636 24.4165 7.05682 9.36094 -0.2348 -0.712767 -0.629637
346 34.1569 6.93184 8.83491 0.324944 -0.529692 -0.232266
3647 35.9814 7.02768 9.55086 0.69003 1.25132 0.240765
3246 42.4603 6.0629 9.29885 -0.353315 1.05462 -0.482186
1630 55.7109 6.02335 9.09191 0.51399 0.494925 -0.309787
2674 42.8427 8.74111 8.78827 -1.24575 0.640395 -0.0732627
3156 1.07267 9.93164 8.59636 0.474944 0.97867 0.688704
1797 48.5162 12.4142 9.70409 0.529963 -0.682492 -0.00404481
2892 70.2142 13.7774 9.76495 0.720206 -0.496377 -0.721237
3836 0.0158725 15.4043 8.50973 -0.111934 0.228073 0.0352894
704 6.61682 15.5073 8.95336 -0.773839 -0.161578 -0.361219
2933 0.635306 15.8465 9.31571 -0.0207818 2.01553 2.58205
2439 32.5913 16.153 8.94224 -0.37617 1.39897 0.633983
3524 39.8171 16.3643 9.14992 -2.86747 0.344863 0.39735
1236 43.3879 15.5938 8.76512 -2.10066 0.095442 -0.336129
2523 28.9556 18.0189 8.77617 0.330861 0.382959 -0.959735
3811 53.3718 17.3898 9.07501 0.6832 0.803314 -0.245853
3333 55.6513 17.7004 8.75833 0.0953953 0.361972 -1.18131
2621 9.63408 18.762 9.12603 0.765956 -1.1704 -2.08321
3922 34.861 18.6428 8.71925 -0.752749 0.336959 0.760919
3741 55.909 19.5774 9.53809 1.26942 0.00222631 -0.160205
1945 9.03514 19.8405 9.20402 -0.250839 -0.0335657 0.0510875
1020 25.4976 22.265 8.63793 -0.78361 -0.483505 0.372553
609 11.8395 24.9382 9.52212 1.10034 -1.6254 -1.26356
3259 25.2606 24.1968 8.81213 -1.08287 0.852824 1.44418
1958 42.1775 24.2567 8.67202 1.89741 -0.82998 2.32362
2588 33.1262 26.6119 8.65422 -0.217693 -1.01627 1.69584
2512 12.4501 29.5308 8.77206 0.619008 -1.30129 -1.72523
1736 4.73374 30.3165 8.59945 -1.02017 0.171522 1.14192
2524 26.7616 29.9905 8.76783 -1.13571 -0.212635 -0.585671
1960 50.2652 31.0574 8.58394 -0.764873 0.273028 0.684349
2348 62.4817 31.5089 9.02268 -0.235241 -0.183159 1.63632
1613 10.6512 33.2911 8.92322 -1.97999 0.239549 0.67918
1898 12.9837 33.5802 9.44527 0.751374 -0.168078 -0.425305
1060 39.5142 35.2626 8.59004 0.776257 1.54667 0.0498754
7 55.0388 36.1762 9.86443 0.0841184 0.637249 0.427328
1561 6.09704 0.557394 11.2639 1.42867 0.411857 -0.386816
1148 43.8459 1.34496 10.3814 0.69702 -0.19143 0.85742
273 52.6027 0.880576 11.0488 -1.27811 -1.19964 -0.664401
1070 54.4656 0.305475 10.0598 0.822785 -0.139731 1.59624
1754 68.5935 0.214745 11.1873 1.56752 -0.710432 0.628524
888 56.8258 2.552 10.7851 1.95721 0.411451 2.1589
1088 52.073 3.42452 10.2792 0.852969 -0.523848 0.41089
3143 68.5214 4.88491 10.3705 -0.101196 0.929271 0.34484
100 23.3347 9.31799 10.5713 1.13617 -0.553818 0.263079
339 32.6384 9.46532 10.6446 -0.389128 -1.38925 0.755201
2012 30.6482 11.0672 10.9407 -0.504061 -1.75971 0.233633
2130 38.728 12.6951 10.8817 1.44305 -0.0168045 0.354845
559 50.4715 12.6863 11.105 0.0880199 -0.234086 0.236886
3127 18.4509 13.457 10.2417 0.3868 -0.832741 0.135849
2798 32.2975 13.1329 10.8934 -0.663759 0.342863 0.725813
1346 54.4067 13.4577 10.6662 0.757289 -0.392952 -0.799707
3650 35.0845 14.7336 10.0387 0.354929 -0.970923 -1.3539
3385 57.971 15.8372 11.1354 0.284551 -1.87115 1.16627
3988 65.3133 15.6383 10.4866 -0.265818 0.818315 0.405711
1815 6.03393 18.1043 10.1274 0.127562 -0.329033 0.187326
409 21.411 17.3015 11.1966 0.200722 -0.458257 -0.398634
3059 10.1804 19.6252 9.97834 1.62598 0.191607 -1.03979
2593 28.6741 20.9368 10.06 -1.33147 1.86241 -1.30682
2116 7.62974 22.5177 10.3961 -1.69773 -0.236662 -1.81392
2415 9.07052 22.2612 11.0201 0.130231 -1.11866 1.46324
3763 23.8628 22.075 9.96395 0.604224 1.43952 -0.826729
1015 55.6767 23.27 10.5973 -0.412538 1.10995 -0.321684
2243 29.6689 26.1354 10.4573 -0.654567 -0.0502167 0.549943
536 35.8897 26.1909 11.1596 0.432211 2.29176 0.291904
3061 26.9424 28.6855 11.1735 1.05166 -0.109594 0.0990016
1715 47.1111 33.0912 11.1279 0.0931306 -1.27627 -1.4262
2697 72.9541 34.682 10.8817 -0.727356 -0.0789524 -0.745979
3078 19.1082 35.8604 10.436 -0.402183 1.61474 -1.1273
1137 37.6716 35.4789 10.385 -1.23185 -1.28827 -1.6058
2099 47.0727 0.809887 11.411 -0.652274 0.103742 -0.536865
204 60.967 0.00446713 12.1558 -0.745002 1.36973 1.11062
3979 5.38151 1.80818 12.4139 1.04961 2.29508 0.449836
3931 10.7439 1.80005 12.1388 0.463841 1.77085 0.599422
1925 47.9727 1.7515 11.5044 -0.450891 -0.0875397 -1.06806
3439 47.5829 1.4526 12.5788 -0.53859 0.175303 0.296215
1431 58.2781 2.74436 12.2796 0.234328 -0.185618 -0.451606
1527 62.7659 1.51497 11.7579 0.181349 -0.222029 1.38247
1375 55.7642 3.09773 12.5938 1.52513 0.663432 1.0071
1150 0.297301 4.47165 12.6334 1.08864 -0.421498 -0.0674093
307 34.6031 4.5281 11.6134 -0.480683 -0.635689 -0.96213
50 2.40974 6.41803 11.8521 -0.570185 -0.668121 -2.05551
1872 3.48943 6.86889 11.485 -1.53357 0.392521 0.323413
3760 9.56974 6.07222 12.5622 -0.339579 0.308905 -1.86374
1408 39.5015 7.45405 12.7357 0.344742 2.19961 -0.747356
3955 48.5277 14.1244 11.3935 -1.11457 -0.442119 -0.176678
1997 59.1063 13.2288 12.2661 -1.03493 -1.08782 -1.28288
2265 23.3151 14.2441 12.299 0.340877 0.914584 0.99944
3690 30.9468 15.4131 11.454 -2.07072 -1.84849 -0.730897
3808 4.76554 17.5005 11.4108 -0.830762 -0.0543371 0.169878
66 70.3379 18.5057 11.3616 0.146103 -2.10516 0.446144
3039 5.31147 21.0246 12.4192 1.69925 -0.607644 1.50828
1458 9.32087 19.974 12.1042 -0.0780929 0.372642 -0.466236
1424 29.0985 20.0443 12.1995 0.2734 0.907175 -0.0884593
1940 42.7599 20.1897 12.6951 -0.392288 -0.623339 0.982546
2369 26.1471 22.5566 12.3083 0.917615 0.76357 -0.408317
2914 45.5506 23.27 12.6498 0.0303926 -0.8345 -0.39859
1209 50.8007 23.2555 11.5774 1.30599 -0.75928 0.948915
3520 70.7196 23.4969 11.3739 0.322807 -0.670806 1.21203
2467 21.9363 25.3591 12.4821 1.03554 -0.444156 -1.92395
878 59.0827 24.1577 11.4872 0.00150857 0.420547 -1.16712
3744 37.3475 26.6562 11.6877 -1.66549 -0.00573374 2.26823
3564 63.0528 28.1308 12.0328 -0.753338 1.01726 -0.98251
2887 11.6283 29.4074 11.9735 -1.20529 -1.55079 -0.643428
3322 15.4376 28.9105 11.6636 0.485686 -1.08884 0.241947
2575 64.8099 28.6296 11.74 1.27311 -0.409956 -0.127647
1076 18.8203 31.6675 12.5598 1.55142 -0.563165 -0.693925
535 67.5909 31.4373 11.5765 1.41458 0.229824 0.3728
2918 68.416 32.587 11.5295 -2.08036 -0.0720995 0.8326
2009 18.0383 33.0898 11.7803 0.763177 -0.425051 0.603077
2321 21.2294 32.7263 12.655 -0.508493 1.31546 0.726197
1596 6.68532 35.1425 12.7301 -0.250491 1.5508 1.21503
2288 17.2991 34.9281 11.544 0.95446 1.89534 -0.93134
3699 3.0198 0.971224 13.3839 -0.788325 1.34186 0.0633619
1242 54.3182 0.491075 13.2564 0.337216 -0.199077 0.0573451
3122 55.6641 2.65353 13.9761 1.89922 0.108239 -1.26361
2076 63.3352 1.6267 12.7922 0.274047 -0.477562 2.7914
89 11.4164 3.48171 12.773 0.365638 1.12387 1.86382
3110 22.4816 6.47818 13.184 -1.06624 -0.920377 1.18234
34 38.982 6.22479 13.2119 1.2193 0.602714 0.872841
1415 43.487 7.92191 13.5201 -0.116269 0.878208 -0.550402
3663 68.6363 7.76016 13.9532 1.22213 1.00321 0.785827
2688 59.1771 11.0299 14.1463 -0.594307 -0.841109 -0.459494
3213 42.1223 12.0335 12.9543 -1.91088 -0.995837 -0.99114
3539 41.446 14.8725 13.1683 1.1677 -0.537406 3.04035
1405 24.7034 15.9999 12.9187 0.242444 0.43478 -0.393879
2072 45.3967 17.8458 14.0936 0.850755 -0.496466 -0.282222
103 55.0796 17.7842 13.7664 0.797396 1.69632 -1.2029
2357 49.1036 20.141 14.0664 0.289588 -2.12132 -1.25708
2605 69.7482 20.0381 13.5229 -0.432373 -0.754559 0.543769
3335 73.4695 21.2418 13.3642 -1.32027 -2.78626 1.37392
1624 45.6641 21.4582 13.652 0.300324 1.91481 0.00756834
1644 36.7921 23.1182 13.1979 4.23385 1.2256 0.347517
3636 46.8694 26.3572 13.7213 0.801305 0.210107 -0.376102
1773 62.4785 26.6068 13.6277 0.0335751 -0.841735 -0.960323
2070 27.426 28.2607 13.2995 0.576341 -0.319038 1.0777
1878 52.4307 27.3183 13.5737 -0.804766 -0.257729 -0.229923
3644 23.6392 28.7161 13.1995 0.70902 -0.84306 0.174085
924 31.6504 29.2963 13.3912 -0.176239 -0.850258 0.126787
2413 33.4332 34.1204 13.0716 0.117713 0.140244 -0.107429
354 40.6777 35.3204 12.7701 0.324915 -0.563684 -0.67911
1703 45.4336 34.1669 13.7242 -0.725208 -1.44581 0.235215
3408 35.9452 36.3186 13.55 -1.8762 0.735835 0.785798
1295 11.5297 1.00984 14.6669 -1.0749 -0.279567 -0.00504502
1344 44.2947 0.227173 14.9912 2.07159 -0.252933 0.535534
3669 13.0581 3.13583 15.4963 0.326842 -1.08592 0.666491
546 50.6763 3.09031 14.6025 -1.46526 -1.48707 -1.95604
1425 22.3435 5.51179 14.6098 -0.3719 1.06711 2.13013
642 34.1305 6.50873 15.1295 0.206885 0.293805 -0.103699
3256 38.8585 6.39528 14.3205 0.664441 -1.02791 1.19932
1777 37.127 8.3535 14.9978 -0.85676 0.484825 0.0126036
465 59.1983 8.72768 14.3453 -0.902857 -1.32475 0.785463
548 28.3875 10.6426 14.9555 -0.0770912 0.393883 -0.60123
627 34.859 10.7695 15.4978 -0.797023 -0.628596 -1.87162
1525 42.0629 10.6305 15.3393 -0.706615 2.09202 -0.0715541
1801 27.4285 11.4028 14.2849 0.370321 -0.333509 -1.3038
1825 65.4475 16.2197 15.0191 -0.945016 -0.0510686 1.47395
3542 72.5487 16.0911 14.5065 0.81672 2.69229 0.760712
1841 11.0542 18.3555 15.2815 0.242851 1.21497 -0.268187
1127 29.8802 19.717 14.8247 0.848746 0.738457 -0.536912
554 35.824 18.8454 15.2059 0.914437 -1.42953 -0.322088
2302 46.6696 19.4433 14.9436 -1.07667 0.311809 -0.0501361
3389 57.7208 20.754 14.9996 -0.590814 -0.325486 -0.596417
3031 65.9976 20.2008 14.6181 -0.234082 -0.843295 1.26541
3028 10.4023 22.1111 15.103 0.190317 0.858548 -1.00022
725 71.5589 23.8724 14.6762 -1.51538 0.852691 0.146883
446 29.136 26.7327 15.0754 0.525302 -0.012077 0.157103
3072 35.3582 25.639 14.5295 -0.267781 -0.624298 -0.218197
3533 8.03327 27.698 14.8588 0.575856 -1.00766 -0.0261134
1743 44.2518 27.4224 15.5044 0.411167 0.500033 -0.321667
3941 56.7439 28.3457 15.3016 -0.21087 -1.27003 0.37937
1292 58.0664 29.0391 14.5255 0.946791 -0.151762 0.215106
3791 71.1065 28.4295 14.8422 0.718738 0.652429 -1.93375
1784 6.92678 30.4239 14.2721 0.236576 -0.329122 -1.6158
763 7.4896 31.1706 15.3426 -0.661305 -0.704549 -1.63981
2991 41.515 31.5991 15.487 -0.451279 -0.905158 0.865627
2563 21.3509 32.7073 15.2309 0.924685 1.50418 0.308311
3721 2.44407 0.670608 15.7629 -1.34589 1.28872 1.63271
3463 54.0521 0.302627 15.6211 0.317922 -1.14302 -0.847325
3012 46.6037 1.50277 16.1157 0.110593 0.388735 0.673473
1002 69.6138 2.11288 16.1128 0.96581 -0.653146 0.517984
1457 69.8913 3.0198 16.7113 1.42734 -1.55308 0.0169961
570 46.2559 4.63973 15.8783 0.76345 -1.4056 0.579999
427 38.5636 6.69307 15.8687 -1.49117 -0.57046 -1.47801
3945 16.8599 7.966 16.734 -1.17864 0.0743527 -1.42963
2445 65.5891 7.36615 15.8576 0.999629 0.712266 0.654337
3671 6.438 9.93339 16.7836 -1.26086 0.282633 -0.751423
2346 43.3352 10.6004 15.5931 0.348079 -0.10107 1.63683
3415 64.531 10.0181 16.568 1.59996 0.200147 -1.24931
1697 17.5404 11.4665 15.9886 2.20025 0.378062 0.165625
2075 27.4615 11.8032 16.0589 0.440447 -1.48825 -1.09841
3444 45.9095 13.7567 16.6466 1.17147 -0.0471617 0.545022
3313 23.2264 18.1254 16.9557 -0.297436 -1.39693 -0.693167
3018 58.411 17.386 16.5337 0.203934 0.66053 -1.36548
33 38.905 18.6779 15.8432 0.0606785 -0.714349 0.910634
3477 71.2371 19.3257 16.1671 -1.02802 2.46554 0.789701
2067 46.162 20.2099 15.5899 -0.127881 -1.22383 0.720038
1260 8.4035 21.5174 15.7764 -1.41732 -0.292491 -0.952825
1867 72.5383 22.0134 16.1455 0.039792 2.03914 1.58337
3198 50.6946 23.1863 16.1197 0.61016 -0.00239302 0.609949
1639 7.56112 25.8176 16.2042 -1.09672 -0.286709 1.3213
3812 59.7833 27.0301 16.2798 0.542455 -0.673885 0.0321333
79 73.0123 27.9267 16.5487 0.217603 0.257344 0.712532
1427 50.0405 28.8187 15.6126 -0.721834 -0.426861 0.0432885
3182 71.8467 29.115 16.6087 -0.745065 -0.328476 -0.0399882
2611 7.66699 30.6591 16.6903 -0.926303 -0.762622 -0.28063
1327 57.6325 30.1733 16.5765 1.52646 0.675953 0.643599
507 57.1172 32.3898 16.9283 -1.15861 -0.142626 -2.29152
2344 6.81691 33.0659 16.4061 -1.22519 0.8546 0.658251
3787 33.3944 33.0774 16.6163 0.576186 -0.258797 -0.494191
1187 57.2958 33.669 16.4245 -0.881593 -0.13585 0.888667
1574 20.4102 35.1738 16.6584 -0.0852643 -1.27536 -0.499606
1759 23.8158 34.3771 16.7919 0.729913 -0.609957 0.540881
3258 48.6458 35.3453 15.722 0.0873963 -1.07008 0.489852
650 16.7229 0.0486107 17.166 -0.0896406 0.23957 0.981627
3186 67.2189 1.47321 17.0256 -1.24785 -1.08697 -0.206304
3980 36.3611 3.76504 17.8993 1.12254 1.1801 0.436332
807 70.0493 3.55351 18.131 2.09702 -0.314614 1.06903
341 34.8321 5.10417 17.6808 -0.924084 1.44682 -0.326642
3042 52.3306 6.33946 18.1482 -0.152135 1.90222 0.735928
3511 63.2604 6.73955 17.9673 1.49792 -0.738045 -0.423521
2157 18.1848 7.64654 17.8247 1.07056 -0.043442 0.581945
3429 57.4557 7.65795 17.8932 -0.324778 -1.6452 0.960912
2052 70.893 8.0398 18.0311 1.69163 -0.0305621 1.87994
487 24.1017 10.7843 17.4463 -1.75809 0.750625 -0.313622
2536 3.92713 11.9558 17.8821 1.14698 0.0530747 -0.174147
2102 10.899 11.6612 17.8699 0.76767 -1.81775 0.469088
2428 23.3633 11.5963 17.6005 0.171296 0.0885185 0.379475
1821 26.6827 12.719 17.4601 0.0430013 0.425339 -0.795711
3502 31.9525 12.2318 17.0972 -1.45307 -0.276425 0.391931
2205 43.9068 12.2922 18.2393 0.995414 -0.232654 0.0112812
3743 32.4818 13.1505 17.5896 -0.23976 -1.00159 1.47161
939 17.4619 14.9832 18.3657 1.29813 -0.267911 0.325138
2640 49.043 18.2777 17.3031 -0.700051 -1.74694 0.555642
372 0.604824 18.8125 17.3187 -1.81996 0.0768315 2.22306
2668 44.98 19.093 18.0473 -1.60567 -0.50174 0.219883
1309 49.229 19.4335 17.5999 0.155256 -0.70619 0.37945
2401 39.9785 20.1042 17.8183 1.75707 0.155399 -0.60949
1376 64.2278 20.507 17.6694 0.351472 0.782865 -0.852685
2689 73.3798 20.1818 18.2219 0.757108 0.127713 -1.43992
3692 14.6224 21.9852 17.3761 0.254552 0.676659 -0.113586
447 44.6692 22.6044 17.7874 -1.50471 -1.0489 -0.092847
2771 32.5878 23.6471 17.5688 -1.34764 -0.955481 -0.170992
345 42.2154 23.34 18.3469 -0.414644 -1.35289 -0.606139
2550 54.875 23.3874 18.2308 0.164051 0.584243 1.37119
721 3.63025 25.3844 17.6046 0.552649 -1.19438 -0.19315
956 18.8064 24.6268 18.3197 -1.08576 -1.02111 -0.826971
243 19.9691 24.6723 17.2244 -1.12893 -1.3298 -1.06678
626 42.5256 24.9344 17.2028 0.215793 -0.489956 0.127142
1245 53.0221 24.8789 18.255 0.498393 0.308087 -0.223238
2042 70.1254 25.2092 17.2169 -0.466372 1.52826 0.929066
310 7.37461 26.6822 17.6992 -0.583604 -1.02682 -0.0350309
3633 70.0003 27.7687 18.209 0.326848 0.259288 -0.636259
1889 51.1383 29.0007 17.4852 -0.0161559 0.150903 1.53312
1072 16.0472 29.878 17.0473 -1.3237 0.892794 0.93116
816 1.65918 33.9173 17.6987 -0.611881 1.31349 0.132339
930 45.9003 34.6612 18.2556 -0.650371 -0.316683 -0.282022
2645 61.3811 35.855 18.1675 0.342885 1.38466 -0.566833
2628 10.2811 0.624643 18.9178 -1.42992 0.945272 -0.786947
1053 37.6238 1.12474 19.5636 1.55327 -1.28251 0.0524339
2884 28.7902 1.98723 18.953 1.31481 1.08171 -0.425919
3737 39.6406 2.14153 19.2563 0.629307 -1.58926 1.29342
1444 51.6489 1.82272 19.6608 1.64608 0.234755 3.0056
2121 39.1666 3.06188 19.7669 -2.13664 -0.0308173 1.9853
1766 56.8525 3.18133 19.0048 -0.231755 0.00478253 0.875001
2127 25.2805 6.7857 19.4964 -0.611422 -1.24559 -0.688417
355 32.595 6.08791 18.6885 -0.788915 0.311081 -0.506836
2833 21.7819 8.07261 19.4915 0.258837 -1.12568 -0.171241
375 72.4227 9.36268 19.7368 -0.471353 -0.649974 0.566018
1934 29.0259 10.8489 18.8471 -0.116053 1.55043 -0.862029
3854 13.0016 11.8427 18.6734 0.413789 -1.56974 0.131744
820 26.2311 12.6172 19.2241 -0.456081 -1.20281 -1.09259
2078 61.7812 12.429 18.6165 -0.643776 0.73693 0.00873336
1204 15.6207 14.7689 18.4842 0.31154 -0.0214569 0.923403
2701 12.2347 15.8549 19.3158 0.465495 -1.44504 -0.444345
3885 11.8339 17.481 18.4769 1.53485 0.341438 -0.17559
449 18.3021 18.3388 19.5249 -0.687951 -0.45831 -0.547756
197 28.2398 20.6779 19.7141 0.564907 -2.05921 -0.162358
1852 2.8745 22.5803 19.8209 1.517 -0.243482 -0.461191
3576 17.1057 21.2917 19.6594 -0.503932 -1.23346 1.11922
2814 12.5912 23.6952 18.6221 1.28153 1.14759 -0.124624
2001 59.7774 23.0767 19.2839 -0.378926 -0.274186 -0.497226
2010 24.1646 24.534 19.1033 0.992724 -1.3465 -0.096638
2865 40.569 24.703 19.0679 -0.935324 -2.1385 -2.1283
55 41.9514 24.2147 19.215 2.59712 -0.747968 -0.477533
1192 15.1195 26.1251 19.5559 1.54867 0.683438 -0.601349
1885 19.7565 26.6523 19.5667 -0.892828 -1.59723 0.5648
915 62.0892 25.9871 19.2979 0.102173 -0.379299 0.44076
2881 58.6009 27.2217 18.6834 -1.26561 -0.163852 -0.408223
2311 8.69463 30.1249 18.8661 -0.720896 -0.0957729 0.703354
1469 43.9836 29.8646 18.5869 0.757176 0.699268 0.247746
3887 62.3717 33.7298 19.0717 -1.6852 -1.04244 1.40466
102 72.9477 33.0026 18.9609 0.303041 0.586446 0.697567
2045 59.8846 35.2482 19.4353 0.126111 -0.391275 -1.55669
1386 62.3313 35.1581 18.476 -1.30359 0.716332 0.381868
2287 73.2763 34.1649 19.7833 -0.529906 -2.15486 2.16333