ITEM: TIMESTEP
63000
ITEM: NUMBER OF ATOMS
4000
ITEM: BOX BOUNDS pp pp pp
0.0000000000000000e+00 7.3680629972807722e+01
0.0000000000000000e+00 7.3680629972807722e+01
0.0000000000000000e+00 7.3680629972807722e+01
ITEM: ATOMS id x y z vx vy vz
1610 31.4238 0.696623 0.95669 -0.336117 -0.0533562 0.820149
3600 58.6512 3.34089 0.544424 0.111365 -0.124532 -0.00802469
3820 26.1466 6.11577 0.0736889 0.0663275 0.010512 0.434804
451 48.6351 5.81116 0.83541 -0.193851 -0.207434 -2.1922
3317 57.2996 6.13837 0.181935 0.646057 0.879089 0.0958218
885 51.8731 8.42733 1.24201 0.315352 -1.03121 -0.0241683
576 57.1745 7.5141 0.0554482 -0.748961 1.18737 0.0164918
2282 20.1136 9.20926 0.806922 -0.739545 -0.202904 0.117155
1340 32.4425 8.77923 1.29726 0.846998 0.490039 -0.153345
3760 50.865 8.79476 0.40416 -0.200284 -1.07418 0.0812337
933 53.2398 10.3952 0.996701 -0.255302 0.254155 0.675084
673 60.6035 10.559 0.635835 1.61118 -0.879141 1.14112
3428 14.0275 16.8557 1.38834 0.39767 -0.474586 0.587039
1945 70.9956 16.5134 1.04769 0.226165 -0.15524 -0.372898
3200 20.0751 17.332 0.044608 0.78416 -0.568937 0.159889
3520 27.1176 17.7734 1.19331 -0.140733 0.0332163 -0.462756
3687 63.3579 17.9305 0.704692 1.6788 -0.642474 -0.175832
89 71.4338 17.8255 0.23423 -0.97663 0.876362 -0.0025587
1900 35.998 19.2486 1.33235 -0.0223446 1.61384 0.170213
1009 67.8389 19.1678 0.288456 2.01515 2.45938 0.912121
329 6.96792 19.9172 1.10497 -0.0793954 -0.257556 -1.93739
1862 48.4744 20.2613 0.53992 0.959308 -0.150386 0.455382
1554 50.1779 22.0704 0.805172 0.385527 -0.494965 0.624671
1237 64.5574 23.3929 0.00935867 1.61188 0.562994 0.0712544
3248 59.8681 25.6941 0.434405 -0.759289 0.560395 1.96415
3991 68.8616 27.4246 0.926587 0.993499 0.335042 -1.84518
156 64.1213 28.3786 0.038923 -1.50224 1.08843 -0.857612
2934 31.8517 30.8347 0.0693274 -0.296223 0.57514 -0.242807
3715 50.8239 31.783 0.0322453 -0.590785 0.504316 0.530106
529 56.8765 31.2801 0.232901 -0.364628 -0.113993 -1.64028
184 68.0912 31.9689 0.948964 0.544252 -1.98755 -1.01188
1717 16.2971 35.7052 0.0550403 -0.0574802 2.62739 -0.71747
1806 35.8314 35.836 0.810845 -1.64844 0.588787 -1.04588
2086 41.4621 3.9096 2.41164 0.288297 -0.535402 -1.46239
832 49.5197 3.24564 1.70606 0.337671 0.955678 1.34141
1402 51.8405 3.77299 2.73242 0.117353 -1.27565 -0.016904
3902 44.7969 5.3233 2.72092 -0.560414 0.400439 0.403972
2668 71.1211 7.06945 2.09226 -0.223401 -0.0548736 -2.04206
2190 4.7956 8.04989 1.45556 -0.295395 0.411323 0.520852
3117 31.3335 9.52164 1.51853 -1.88486 0.132823 -0.234898
545 35.4048 10.3616 1.52031 -0.549002 -0.706582 -2.15287
2621 45.9418 10.4484 2.12262 2.0926 0.393249 0.187699
3220 71.9334 11.1585 2.28664 -1.79433 -0.41501 0.35503
560 33.8934 15.0471 1.89927 -0.833807 -1.74942 -0.692521
1133 63.9549 17.1678 2.67486 -0.815778 0.0368256 1.01132
1232 17.3513 19.597 1.75895 -1.24894 -0.244493 1.55823
255 48.6694 18.8876 1.5302 -1.51692 2.10987 0.24803
2820 55.1909 18.9198 1.69338 -0.0619091 -0.0764621 -0.0162906
1112 65.3855 18.9494 2.69141 -0.0763664 0.474421 -1.73197
2306 19.7924 19.8828 2.79505 -2.12881 0.122301 -0.17694
449 29.6938 20.7836 2.63571 1.10353 0.856429 -0.771827
3942 39.5508 19.97 2.1532 0.394737 -0.142381 1.27843
1838 67.0964 20.3065 2.82321 0.323384 -0.116624 1.51602
1281 30.7398 23.3892 1.69263 1.94113 -0.0334635 -0.372554
130 44.0017 23.9492 1.73426 -0.80929 0.934212 -2.09719
3361 2.06694 25.0111 1.70239 -0.393221 -0.324379 0.536456
1555 18.5883 25.2637 1.83325 2.08204 -0.106504 0.579155
794 28.896 24.6172 1.62618 -0.793576 0.0374426 2.08925
2754 62.5014 24.9845 2.53973 -1.4625 -1.75302 1.53948
2258 34.063 29.3609 2.08174 0.308334 -1.11554 -0.258007
1550 35.6854 30.057 2.37835 -0.599906 -0.546738 -1.05377
1884 39.0418 30.1657 2.19304 1.15399 -0.23618 0.0228828
2872 62.3743 30.8 2.0444 0.877647 0.32489 0.740868
3056 14.2678 31.8884 1.911 -0.267998 0.00818156 -0.805996
2144 68.9848 32.5205 2.09878 0.203741 -0.306436 0.139702
2968 1.26474 32.7261 2.10434 -0.678359 1.5733 -0.171709
2120 13.2993 34.4681 1.93694 -0.153333 0.17555 -0.5247
309 16.831 35.179 1.48799 0.457492 0.455329 -0.215151
2549 27.7152 36.0577 2.33926 1.32107 -0.634543 1.64961
2760 31.0617 0.311603 3.4247 0.343978 -0.145864 0.680716
1688 64.5942 5.25147 4.10537 1.08663 -0.660246 -0.36451
209 35.3162 6.75528 3.35013 -1.05313 0.592502 0.653299
3534 71.167 6.92568 3.40661 1.1934 1.75844 0.318668
2662 6.38318 7.45866 3.29146 -1.03823 0.295201 0.0837679
201 30.0775 8.47668 3.86732 0.476486 1.45362 0.611737
248 42.4523 7.16336 3.36847 -1.45222 0.61323 1.02764
2914 22.3554 8.83238 2.88065 -1.0038 -1.04542 0.828009
3614 57.1769 8.58511 4.07804 0.968401 -0.534442 0.557573
145 42.1073 10.9181 2.91357 -0.57408 -0.912389 -1.04047
2420 65.6145 12.6338 3.25849 0.00680826 1.72316 0.381099
3921 41.5003 12.7589 2.88915 0.0367124 0.150453 -0.169951
3730 41.7232 15.5551 3.41648 -1.07683 -0.0932183 2.08863
3059 18.3484 16.2956 2.86341 -2.36465 -1.73603 2.81051
916 49.4332 16.5301 3.46175 0.0480821 -0.386913 1.63937
2315 0.105294 18.3899 3.81389 -1.66181 -1.35263 -1.25316
2638 7.36285 17.6625 3.86138 -1.25194 0.458479 0.115994
3443 8.1882 17.5872 3.13699 -0.155793 -0.279336 -0.29525
1598 13.1494 17.7019 2.9182 0.693 0.256439 0.193282
1642 18.9412 19.4312 3.32565 -0.78417 -1.22116 1.38592
1533 51.8145 20.4542 4.10653 0.0417591 -0.112865 -0.549748
613 71.5856 22.7561 2.94175 -0.921178 -0.477398 1.36327
2602 46.9047 25.16 3.67039 0.0269911 1.68272 0.594065
3224 51.0049 24.4985 4.04273 -1.22297 -0.870648 0.656003
714 13.5074 26.425 3.23925 0.655911 -0.571781 2.74879
83 30.1811 25.7698 4.0476 0.795461 0.45149 0.579536
2249 37.6433 25.8651 3.8081 1.04011 0.208134 0.202889
1660 30.7167 27.0689 3.46326 -0.542162 0.909568 1.13244
3628 9.17205 29.0789 2.8722 -0.490059 -0.120193 0.710622
3589 23.1703 28.8465 4.19085 0.048343 -0.0186422 0.0159268
2175 12.5 30.8765 3.40231 -0.702385 1.31652 -1.4296
521 43.1669 30.2959 3.54195 -0.0441437 0.0401508 -0.0324656
1825 57.2205 31.9132 3.33795 0.0336484 0.613931 -0.619131
2873 59.2541 32.1298 3.08333 -1.02872 -0.763953 0.34108
3674 36.2393 32.8324 3.59668 1.10554 1.49929 0.311549
3113 32.3012 34.7915 3.9175 -0.229727 -0.595448 -0.87189
2415 43.4799 34.9146 3.75634 -0.413483 -2.2463 -1.66115
975 52.4091 34.1455 3.52911 0.218364 -0.413271 -1.20591
1781 17.3382 36.1944 4.12192 0.932969 -0.347146 -1.25321
1428 72.9594 36.4411 3.54607 -0.41505 0.246933 0.339609
2573 68.6424 1.51669 5.03504 0.12153 -0.0449645 0.913428
1657 4.07599 4.04605 5.65249 -0.224143 0.836505 0.389672
2772 51.5331 5.23077 4.57332 -0.265837 0.359803 0.646374
627 48.6916 6.02117 5.05581 -0.0640948 -0.251052 0.343025
1275 43.3587 7.6958 4.28309 0.82684 -0.0851904 -0.101335
2238 45.4175 8.44009 4.54397 0.153829 -0.101627 -1.23336
764 57.7571 7.70847 4.554 0.322357 0.691865 2.16953
273 66.5945 7.71936 5.53416 -0.692189 1.42617 -0.735732
3540 30.248 10.8674 4.54656 -0.186686 -0.628333 0.116842
2717 70.3864 10.2267 4.37043 -0.190568 1.55579 -0.244116
2932 12.9223 12.3666 5.15845 -0.908504 -0.860424 -0.0134499
1710 49.7866 12.8302 5.49912 -0.229302 -0.173614 -1.92512
1765 34.6902 17.5555 4.81226 -0.767387 -0.811559 -0.0613286
3890 1.45493 18.9985 5.36714 0.635658 0.531087 0.67907
34 34.4205 19.3791 5.24055 -0.114293 -0.82185 0.80202
770 1.54395 21.1401 5.53137 0.0767473 0.907585 -0.247693
1233 6.04735 20.0993 4.332 -0.0209729 -0.0468532 -0.217344
2281 37.2774 19.8516 4.58946 0.909983 1.73002 2.47235
2424 32.7337 21.6579 4.99166 -2.35025 -0.32772 1.93476
1202 47.1173 22.048 5.37425 -1.13831 -0.164883 0.0851672
3529 61.9439 22.5623 4.43773 -1.65274 0.686751 -1.12006
877 72.9172 21.5832 5.37921 -1.3099 -1.83546 -1.62834
3223 55.8106 23.202 5.27467 1.42228 2.13712 0.844509
1960 71.8643 23.9923 4.67126 -2.32775 -0.198062 -2.62371
3713 56.5074 24.7064 5.62528 -0.547793 1.23219 0.914614
108 37.2007 26.7373 5.02611 -0.351316 -1.60169 0.632796
2500 4.20124 27.3765 4.34466 2.28653 -0.103699 -0.591271
3953 11.0852 27.855 5.43517 0.829982 -0.240946 -0.503455
1955 31.3535 30.0778 4.27214 -0.56769 0.0567162 -0.570519
635 59.5351 30.2433 4.77873 -0.0807361 -0.689125 -0.0996386
1716 64.0085 29.7928 4.72784 0.511536 -1.91922 1.43641
1386 48.8042 32.3922 5.0035 0.00532361 -0.556944 -1.00129
3541 68.9079 31.3129 4.86323 0.311748 0.0838178 -3.04259
2155 1.11826 32.7363 5.5247 -0.714063 0.229862 -1.46326
1334 54.1268 32.9412 4.83173 1.41949 1.5092 -1.74633
2993 63.5736 33.8258 4.74994 -1.33014 0.361273 0.715837
1150 16.4228 34.424 5.34114 0.508865 0.0598501 -1.56407
1216 4.80376 36.242 4.7318 -1.33621 -0.504805 0.567918
2108 17.5356 0.617244 6.4299 0.801167 0.283818 0.493122
3623 24.4992 3.14128 5.96619 -0.551614 0.710997 0.30633
2369 71.6491 5.33056 6.48959 0.842536 -0.652888 -2.91765
3027 17.2935 6.02054 6.1076 1.69366 -0.216201 -0.513545
1736 22.2606 8.45936 6.33025 0.280027 -1.08843 0.621603
831 26.1302 7.08476 6.66277 -0.524467 0.150027 -0.370146
1097 69.9029 7.5296 6.59186 -0.859885 -0.00635084 -0.242742
1405 41.4978 9.59204 5.82516 2.01084 -0.458155 -0.379474
3839 37.8413 11.0287 5.71296 -0.19657 -0.202343 1.05519
2724 35.6153 11.8775 6.15882 -0.444627 0.88606 0.859115
1193 33.8006 13.8573 6.82219 -0.692686 0.513638 0.438915
1868 43.6709 12.8337 6.07545 0.0242159 -1.14408 1.12439
2438 46.0003 13.9538 6.30485 -1.73402 -1.12256 -2.00942
1586 13.378 15.3694 5.76218 -1.06191 -1.82397 0.279558
2045 26.9572 14.1838 6.54321 0.915194 -1.31213 -0.722204
3350 8.01496 16.0961 6.84198 2.27766 0.478936 0.331497
249 31.9489 16.8265 5.7597 0.88463 1.11035 -2.09545
3978 17.7195 19.5474 7.02018 0.64862 -0.29451 -0.079036
434 28.5352 19.8336 6.84119 -0.185905 -2.07173 0.263508
297 10.6457 21.1287 6.90017 -0.0744487 0.483278 1.03982
85 29.5236 20.6009 7.07099 -2.31178 0.0533572 -0.308841
2659 0.686056 21.7549 5.73107 -0.473666 -0.278171 0.460825
2188 29.8981 21.9461 6.22024 -0.960812 1.76548 -1.25178
2584 65.8962 21.527 5.68212 -0.685084 0.158468 -0.670168
1558 70.8358 22.827 5.8076 -1.80944 -1.67282 0.706295
1916 71.6672 31.1366 6.86346 -0.16718 -1.98348 -0.751013
3030 15.384 31.5304 6.17917 -0.0422936 -0.178504 -0.986195
2477 16.7466 31.6749 6.0557 0.750705 0.63775 -0.9681
3502 26.6894 31.3581 5.75306 0.0492915 -0.523699 -1.22451
2635 31.8029 32.0156 5.8918 1.02557 1.34339 -1.63235
2868 68.9136 31.4958 6.89388 0.302925 0.120134 0.0558535
3557 43.2105 33.4358 7.04326 -0.245875 -0.27615 2.46718
3180 38.4142 34.4403 7.06952 0.377119 -0.102327 1.22269
1589 26.2413 35.8176 6.71016 0.351225 0.546508 0.473008
1498 50.0942 35.9548 6.93127 -1.15503 0.661393 -0.157125
1327 53.1454 36.2804 6.2011 -1.2837 0.79319 0.185909
1313 70.1649 36.6075 6.96287 1.40085 -1.22756 -0.757369
1362 28.4092 1.76366 8.3545 0.812943 -0.560041 -0.718611
390 39.1497 4.9338 8.44893 0.014232 0.409346 -0.228418
238 56.3787 9.55414 7.91709 -0.992567 1.08178 0.267734
2036 33.4129 10.9742 7.55474 -1.21768 -0.188164 -0.342568
2384 65.7241 11.3198 7.98947 1.853 -0.774881 0.72508
563 27.329 11.3732 7.14789 -0.74609 -0.273522 0.167747
2296 31.642 11.5862 8.11287 -0.707576 -0.969768 0.771802
1891 44.9509 11.5454 8.01157 0.430831 -0.156134 -0.649983
2775 50.262 12.0155 7.26578 -0.669836 0.918057 0.867647
176 26.3404 13.4332 7.75062 -0.284879 0.693811 0.486742
543 61.1975 13.3657 8.21214 0.184307 0.80696 -0.582271
3574 16.2587 14.9068 7.21672 1.70054 -0.124531 -0.384692
1572 25.6885 14.219 8.30225 -0.00278367 0.0681964 -0.685307
1039 71.5341 14.9908 7.6246 -1.60425 1.27359 -0.883625
1040 7.01789 16.7155 7.588 0.297932 0.813526 -0.66003
3488 11.7768 17.8231 7.59668 0.424132 -0.483951 1.60945
2883 13.5233 17.9549 7.5739 1.0553 0.016624 0.475174
1921 18.6134 18.0547 7.73031 -1.49967 0.260361 -0.021389
807 45.0704 18.3407 7.86573 -0.532595 -0.99631 -1.30119
3551 45.4986 19.6727 8.05198 -0.271928 0.407543 -1.02996
1596 63.9801 19.6432 8.0271 -0.773083 0.618616 0.874779
2449 66.3284 21.3447 8.01475 0.222601 0.819888 -1.23736
3567 9.06178 25.7231 8.12169 0.728281 0.262283 1.31674
1849 37.9936 25.7881 7.24027 0.734606 -0.942067 0.0166394
98 57.6085 27.9115 7.69713 -0.396038 1.68647 0.799862
151 60.9551 27.8311 7.40975 0.544028 1.08181 0.621863
2241 53.2835 28.4496 7.25838 -0.619859 0.225542 -0.875272
266 46.0398 30.4654 7.59348 1.58431 -0.115032 0.902662
942 17.3339 32.0734 7.98431 1.80164 -1.27103 0.231298
387 27.7615 32.0904 8.09223 2.13569 -0.29313 0.648998
3791 28.7507 35.2655 8.27517 0.199799 1.37117 -0.204216
1982 46.2813 34.0504 7.26224 0.534092 0.251137 0.466785
675 7.86382 0.699495 9.11518 1.87881 -0.993597 0.361677
3121 4.80918 2.29916 9.64871 0.639697 0.786396 0.263818
2399 7.11984 1.74487 9.55327 0.493694 -1.04799 1.01142
2683 24.5906 2.63527 8.99478 -0.523037 0.560775 0.709311
2931 52.7322 2.49767 9.62572 -0.861313 0.629749 0.810793
1933 53.2819 3.54814 8.91679 0.389691 1.34287 0.555904
1301 39.4901 5.01941 9.60255 1.27452 0.519217 -0.491112
1317 64.2119 5.7035 9.41112 -0.110898 -0.207077 1.14279
2644 1.59579 7.98809 9.8351 0.0342968 -1.9809 1.208
2450 43.779 7.97107 8.95623 -0.943962 -0.985972 0.0807168
3464 55.1445 8.51084 9.52552 0.3513 -0.229058 -0.782509
2273 36.2543 11.3115 9.74694 1.58229 -0.0928091 -0.935129
101 37.2091 10.2622 9.22982 -2.47789 -0.100823 -0.122087
1057 38.4737 12.7409 8.67612 0.0134313 -0.382218 0.442976
929 72.2714 11.6699 8.76149 -2.37127 -0.165242 -0.415847
2261 16.5899 13.1094 9.17406 -0.331951 -0.0126586 0.755413
2660 36.2234 13.4644 8.92562 0.0862035 -0.845225 0.221606
3605 0.203774 15.8864 9.06612 1.32289 0.772219 -0.99201
2496 72.9969 15.6403 9.77354 0.0159403 1.09437 1.09777
688 43.1181 19.0275 9.49443 -1.45989 0.268288 0.0383845
2236 20.1353 21.2631 9.57709 0.632277 -1.00418 2.47537
901 16.3834 24.7717 9.2265 -0.294808 -0.62486 1.55164
414 65.0717 24.7274 9.37373 -0.113811 1.63679 -0.47928
2461 36.7947 25.9186 9.06937 1.0845 0.119662 -0.50604
2272 44.1278 26.2503 9.27104 -1.41068 -0.829216 -0.258022
2079 19.1163 28.0311 8.98697 0.938292 -0.77423 0.718607
3825 69.1015 27.137 9.29154 0.983523 0.652577 -0.67961
1293 33.0699 33.6599 8.59776 -0.618184 1.40259 0.474712
1303 57.1766 32.9398 9.47327 -1.24243 -0.598517 -0.422772
1873 71.606 32.6136 9.51429 0.431424 -0.498043 0.230252
312 26.4959 35.2656 9.2837 0.0534306 0.325789 0.66396
1650 42.9738 36.6033 9.56385 0.525943 -2.72943 -1.31556
3879 69.1754 36.3942 9.24254 0.424683 -1.52339 0.137335
2114 10.267 1.0632 10.9119 0.573609 2.04455 0.0843571
351 20.0737 0.490615 10.8789 -0.890763 0.129851 1.4271
546 53.7889 0.587154 10.3106 -0.9688 0.202724 0.0858954
1236 7.20537 1.6251 10.947 0.237865 2.10338 -0.42848
1125 51.524 1.4987 10.1073 -1.34786 0.417884 0.0737211
2437 6.30046 2.87249 10.9683 1.6462 -0.136628 0.0544526
3202 68.911 3.56316 11.0916 -0.555717 0.786123 -0.621318
2664 15.3293 5.14368 10.643 -0.262944 0.473279 0.633182
3253 61.9109 4.99595 10.9585 1.31647 -3.11486 1.24182
3740 34.0018 6.56808 10.5854 -0.39681 0.0182654 0.049533
2070 39.5887 6.38972 11.2986 0.698929 1.0692 -0.407371
1188 11.1371 7.37146 10.8386 0.271011 1.46243 -0.519767
42 2.27788 11.1968 10.1377 -1.54689 -0.32779 -0.503514
225 1.42841 10.4943 10.4434 -0.31821 -0.434506 0.0161894
553 60.5459 10.1229 10.2886 -0.845287 1.42453 -1.49001
672 2.65418 11.9432 10.802 0.0947083 -0.809205 -0.909765
2052 18.1215 14.7926 11.3068 -0.240269 1.68562 -0.553936
1508 46.9141 14.6485 10.6205 0.451158 -1.63715 0.13586
2026 26.3478 16.5249 10.6028 0.775733 1.45285 -1.0038
1292 38.4976 16.1861 11.3029 -0.797123 -0.348557 -0.0828324
2136 72.9577 18.219 10.3004 -1.53636 -0.144392 -1.41947
2439 16.3238 18.4379 10.2038 0.468341 2.17672 0.324952
97 31.3438 18.4799 10.065 -1.72367 -1.36246 -0.120881
994 48.1171 19.9706 10.5925 1.10906 -0.192271 0.673477
1690 62.4049 20.1322 10.2749 0.642486 0.27072 -1.34731
980 16.0564 22.6248 10.3908 -0.523855 0.147635 -0.0674441
2721 34.6911 21.4207 11.3155 -1.01792 0.293824 0.175569
358 40.1721 21.3656 10.7395 0.37907 -1.8225 1.90113
2068 1.99476 23.986 10.8916 0.432625 0.0833007 1.13347
2676 6.68455 23.6979 10.2528 0.28933 -1.44567 0.176477
749 23.5827 22.7227 11.0412 0.0344684 -0.253915 -0.558103
1522 24.7292 23.9097 11.2186 -1.16245 -0.962154 -1.4752
873 29.4534 22.8377 10.2022 0.755321 0.264781 0.516476
3717 64.8113 23.3142 10.8022 -1.32539 -0.972778 0.386759
435 25.7426 25.5268 10.3411 0.470615 0.666679 -1.39088
3074 56.017 26.31 10.1423 0.702451 0.496722 -0.249859
853 2.54521 28.2328 11.1344 1.20686 0.0673797 -1.17866
3365 38.6162 29.7058 11.086 -0.430119 0.298204 -0.219314
92 8.58882 31.1059 10.6457 -0.0943081 0.297422 0.842072
2793 10.0808 31.0912 10.4371 0.990922 -0.544549 1.35639
1595 9.29306 32.0404 11.1753 0.0673496 -0.185315 -0.666825
3834 13.1598 32.2957 10.1749 0.578516 1.16299 -0.224657
2809 15.3788 31.4128 11.2426 0.2413 0.314601 2.50634
316 33.5188 32.5137 10.8847 1.91851 -1.3583 0.995637
1520 49.5981 32.1597 10.997 0.733184 1.76507 1.26651
2874 54.2553 31.9519 10.8921 1.1383 0.748665 1.79644
2826 43.5721 33.7123 10.3661 -0.99433 0.422663 0.788486
619 37.0259 34.887 10.2121 -0.711528 -0.478842 -0.204718
2085 41.3564 34.4019 11.0038 -0.192333 0.581845 -0.0481007
2911 43.514 35.1842 10.3327 0.528482 -0.670423 -1.2666
261 32.2802 36.2459 10.0205 0.941303 -0.622719 1.1013
1584 44.5622 35.8846 11.2094 -0.134131 -0.457227 1.89123
461 5.52036 0.810841 11.539 0.551783 -1.04632 1.5523
2789 9.48648 0.244318 11.7597 1.27588 -0.449257 1.05541
3233 60.1136 0.203618 11.5074 -1.50857 -1.29505 -0.5036
1395 10.6624 2.08655 12.1901 -1.15293 2.28426 -0.485748
1127 24.6188 2.68983 12.4804 -0.250882 -0.470507 0.583158
3213 40.9431 3.35442 11.8721 -0.986807 -1.40119 -0.49634
4000 63.5405 3.58068 11.5815 1.81577 0.383467 1.00055
1175 8.68821 4.78656 12.4339 1.48999 1.29074 0.527916
3016 15.3614 6.47051 12.2201 0.54335 1.56887 0.113329
1970 27.6052 6.95809 11.9756 0.719054 1.34651 0.275792
3966 28.6262 6.89633 11.4796 -0.225733 -0.268447 -1.69013
598 7.35079 9.04336 11.627 2.0019 0.738161 -1.89411
2172 63.4528 9.20904 12.7193 0.687642 2.13563 -0.579637
1505 9.909 13.4414 11.5833 -0.0705327 0.453907 1.37637
1645 16.5227 14.0961 11.9014 -0.627037 -1.27121 -0.470576
2121 20.6124 15.1941 11.5967 0.770027 -1.55336 -0.718623
3521 6.60813 15.7629 12.3861 0.325816 0.39084 0.949982
2039 47.61 16.5338 12.0451 1.42117 2.2273 -1.2854
3709 6.99635 17.9031 11.9783 -0.36628 0.55119 -0.401354
3936 12.986 20.091 11.4303 1.14679 -1.66578 -1.11801
330 46.245 21.1211 12.6655 -1.01448 -1.61945 -1.66483
3278 52.4111 20.5832 11.4539 -1.85117 -0.218493 -0.259162
334 5.26126 21.6996 11.5274 1.08495 1.36662 0.0672691
1785 17.0746 22.0614 12.1304 -0.267439 -0.676797 0.636698
1374 40.8412 22.8357 11.3773 -0.092556 0.779726 -1.04423
1038 43.1061 23.4467 12.0334 -0.0685147 1.12328 -0.00566892
1780 8.37748 24.9537 11.9891 -0.475595 -0.666631 0.597572
1077 9.16214 24.2228 11.8655 -0.0400735 1.17478 -1.48915
3720 42.5294 24.5701 12.5857 -0.098574 2.00082 0.604209
2235 27.9956 26.625 12.1426 0.648248 0.584362 -1.56235
763 6.75788 27.5207 12.1178 0.705296 -0.908175 0.916479
2373 18.0142 28.7415 11.5198 -0.0177205 0.00603786 -0.415375
3885 37.4595 29.479 11.8029 -0.57659 0.412262 0.743352
530 8.48011 31.003 12.4378 -0.3474 0.04883 0.185556
3159 38.7304 31.0422 11.3405 0.0843014 -2.90322 1.46576
3043 5.04001 31.51 12.5791 0.659688 -0.487536 0.550795
3624 39.9653 31.8271 11.6842 1.28111 -1.05993 -0.183185
3015 11.0594 33.8698 12.5793 0.608356 -0.617217 -1.67856
2489 36.3952 34.1746 12.7274 0.898442 1.09915 -0.179932
202 14.1928 35.7975 11.9953 0.602153 -1.96646 0.498904
2067 25.078 35.8113 11.5083 0.342676 -1.43562 0.706565
1483 25.7145 2.07129 12.9901 1.62172 0.804589 0.525535
899 36.1827 2.30565 12.9974 -0.683841 0.242238 -1.00389
2374 64.7147 2.47262 13.8756 -1.35639 -0.124594 0.70717
924 72.6306 1.49132 13.7167 -0.292205 -0.847484 0.901398
1617 19.5688 6.0094 13.7805 0.200904 0.663786 -0.853996
1389 39.2683 7.03537 13.5208 -0.152891 -1.99031 0.268548
1280 41.1584 5.9514 13.0197 0.354624 -0.743416 1.49037
2723 41.9214 7.98999 13.3287 0.497298 -0.0965484 -0.251208
583 61.0682 7.94485 12.8905 1.37674 -0.0457053 -1.68778
303 64.2446 7.37894 13.023 -0.0262936 1.88135 0.922275
1682 6.30254 9.42197 13.9544 1.02174 0.235584 -0.16119
1246 62.996 9.89168 14.0565 -1.07572 1.24006 0.444654
2957 64.4989 9.17675 14.1678 0.408465 0.262876 0.557217
3906 29.159 10.0745 13.0525 -0.124918 -1.38042 1.99678
3301 39.3203 10.9301 14.0565 -2.21493 0.567387 -1.00247
1312 34.3035 11.5348 13.8417 -0.686983 -0.230539 -0.430023
820 57.3254 12.1679 13.5456 0.33571 0.476552 -0.193523
3445 19.4205 14.1141 13.3548 0.437126 -1.50231 -0.688755
1016 36.1136 13.9895 13.8476 -0.0836884 -0.527816 0.579685
3160 71.6675 13.6757 13.38 1.05848 -1.0077 1.86298
2839 18.3225 15.242 13.0902 -0.57785 0.363931 0.633259
769 66.0794 14.3821 13.0492 -0.562555 -1.21019 1.17188
2667 12.2872 16.6057 13.0114 0.220421 -0.0873206 -0.651876
949 0.726371 18.0744 13.7955 0.460326 -0.800128 -0.717681
1128 43.161 17.1071 14.0546 0.554165 0.763056 0.252645
1157 59.6543 18.5018 14.1032 -0.502558 -0.991936 -0.597536
2094 61.8746 21.006 13.9772 0.776962 -0.0437251 -0.35399
482 28.3486 22.2736 13.6559 -0.0787117 0.218764 -0.0603667
3682 49.0964 22.528 13.1234 0.972671 -0.844142 -1.20429
1489 5.88498 23.9421 13.8493 0.966769 -0.198784 -0.0264881
1266 2.77572 25.0861 14.0895 -1.25215 -0.267574 -0.591855
1676 51.998 24.8486 13.0643 -0.544298 -0.586248 -0.640534
2714 51.729 25.4331 14.1113 1.38241 -0.696395 -1.60279
3746 2.72257 26.5781 13.7105 -1.0464 1.39466 1.50209
2992 0.59278 28.2817 13.5055 0.884807 -1.27632 -0.356679
1328 13.0957 27.3827 13.7011 0.275679 -1.17548 -1.04167
270 38.3457 27.9146 14.1585 -2.39087 0.363306 0.0608048
2299 21.1651 28.5954 12.9954 0.778234 0.141979 -0.744385
2195 69.0472 28.617 13.2873 -0.832952 -1.07646 0.583448
1050 30.9082 29.8854 13.8777 1.17407 0.392823 -0.569838
602 52.8375 30.551 12.8025 1.18166 0.994901 -1.34219
1927 2.99931 31.5376 13.487 -1.77468 -0.757279 -0.675058
2963 13.5717 32.32 13.2454 0.540737 1.4274 -0.341871
1265 24.445 32.4512 14.1237 -0.851598 0.367074 0.966957
2303 3.41109 33.9702 14.1567 -1.13975 -0.182841 -0.526412
2791 53.884 34.7727 13.4007 -0.527304 -1.61257 -0.278643
3795 23.6476 36.5612 12.801 -0.214521 -0.684071 -0.52801
3893 54.3441 36.8098 13.201 1.09833 0.0827204 -2.24694
2527 59.5191 35.4366 14.039 0.462553 -0.419842 -1.1906
3354 18.5678 0.36824 14.8838 -1.03882 -0.929226 2.14289
143 47.2911 0.588359 15.3447 -1.54491 0.484975 0.0339553
3388 48.1069 0.589818 14.314 0.420843 -0.758767 0.34021
283 27.0179 3.78693 15.0158 -1.20143 0.980835 0.745738
1025 32.3498 3.00837 14.9316 0.0821157 -0.733533 0.389101
2652 16.5014 6.53312 15.2458 1.30095 -1.49823 -0.0303087
4 64.9834 5.92295 15.255 -0.0374954 -0.325556 0.28262
3716 69.7056 6.28282 14.5968 1.04236 0.536121 -0.302404
1681 25.0211 9.50024 15.4998 0.881655 -0.569678 -0.843512
2959 28.5449 9.78273 15.5265 0.730472 -0.414584 0.321539
3110 56.1931 9.55491 15.4964 -0.251533 -1.98085 1.34834
2129 4.9527 10.7834 14.7884 -1.12776 0.248414 0.303589
3034 51.8032 10.9691 15.5689 -0.803852 1.45025 0.17735
55 60.4706 11.8394 14.6721 -1.70334 0.606715 0.502135
1061 4.93211 12.9914 14.661 -1.09608 -0.0371943 0.134765
2050 22.3999 13.2474 14.9864 -0.546801 -1.91401 -0.156774
2381 66.0373 13.464 15.3376 -0.373558 1.24119 1.6639
837 3.296 14.3852 15.2299 -0.131026 -0.550237 -0.374027
1692 50.5855 14.7609 15.4022 2.47613 0.457526 0.174341
245 52.5341 14.7023 14.4654 -0.985527 0.249522 -0.321455
2376 67.0818 15.636 14.9282 -0.881343 0.0367897 0.867273
471 70.5049 16.9033 14.7708 1.14234 0.862916 -0.456191
732 34.444 18.7441 15.0173 -1.28082 0.408102 -1.04324
2824 45.9586 19.1786 15.2492 -0.499046 -0.673405 0.776537
2991 13.1144 21.9102 15.2293 -0.199565 -2.23475 0.147462
3509 52.2834 21.885 15.5573 -0.934101 -0.29602 1.02334
1797 67.482 22.2335 15.2546 1.07221 -0.494812 0.862288
2757 30.9108 23.8303 15.2319 -0.988291 1.56487 -2.67162
2892 3.55304 25.1143 14.7333 -0.131462 -0.207595 -0.791766
104 30.5516 25.0192 14.899 -0.16716 -1.5787 -0.321618
2863 42.6854 25.2803 14.6725 -0.71009 0.287947 -1.09459
3436 64.0518 25.2643 15.0677 -0.838716 0.583366 -0.126019
1134 21.6462 26.5421 14.4978 -1.47015 -2.15169 -0.323925
1153 65.075 26.2409 15.4212 -0.615368 0.457459 -1.63656
429 2.87763 27.6694 15.433 0.112027 -0.352329 -1.17409
2170 69.7713 27.3412 15.2764 0.247349 0.148205 -1.61405
318 39.3324 29.5138 14.9443 -0.594666 -1.06898 0.188661
354 70.8295 28.365 15.1822 -0.790975 0.0414073 1.75097
399 18.7808 32.2208 14.1786 0.655637 -2.37313 1.04954
2227 32.1247 32.263 15.029 -0.071309 -0.573238 -0.0353273
2428 2.83543 32.9961 14.2112 -1.32862 -0.303077 -2.08916
2808 23.4371 33.5201 14.3069 -0.0384017 -1.24681 -1.08151
1911 36.4763 33.308 14.7147 -0.812927 -1.10339 -0.944789
663 53.1049 33.1847 15.5647 0.765511 -1.22777 0.276647
2354 54.5629 32.9003 14.6815 -0.641216 0.57971 1.20949
2091 11.9788 34.2166 14.9933 -1.76113 -1.06469 0.760306
78 68.6502 35.3456 15.3445 0.386924 0.513756 -0.886952
2268 55.2312 36.304 15.579 -1.03767 -1.0313 -0.833837
2912 18.16 0.564891 16.2685 -0.211534 -0.772412 1.03537
589 57.8296 0.738506 16.4396 0.411068 -0.886798 1.24144
3675 25.3288 2.55045 15.6831 -0.960099 1.88938 1.38412
1094 34.5749 1.50517 16.9601 -0.0712346 0.196596 0.493522
1759 49.6781 4.55992 16.4897 1.82994 -1.24451 -1.94239
464 61.3889 5.59769 16.9392 -1.5234 0.811971 -0.87232
1083 65.4884 5.86541 16.1476 -0.639508 0.0354266 0.342325
3772 3.21469 8.44094 16.5857 1.50457 2.85654 -1.45998
1942 31.5058 7.45687 16.5617 -1.19154 -0.710206 0.940882
3 39.5572 7.13104 16.9306 1.14795 -1.34968 0.445501
1733 46.2728 9.5016 16.3307 -0.0141508 -0.771071 -0.682652
2442 4.85942 11.054 15.7035 0.658299 0.49979 1.22834
2391 19.5344 12.0382 15.6266 2.10463 -0.150732 -0.786083
1629 24.6358 12.822 15.9718 -0.589986 0.481423 0.436266
894 10.6318 15.4575 16.3208 -0.739091 -0.883276 -0.306809
3245 33.2428 14.2843 16.1403 -0.12052 -0.881291 1.37538
2885 49.2563 14.315 15.795 -0.204629 0.645834 -0.558148
3455 50.2704 15.3168 16.8195 0.126981 -2.9514 1.06257
3406 66.581 15.7436 15.8609 1.37017 1.3421 -2.10583
1158 18.7566 17.983 15.9967 1.65513 0.063184 -0.379918
2802 7.01242 19.4674 15.9629 -0.742282 0.0100651 0.78224
66 44.4289 20.7337 16.4302 0.190594 -0.0689368 -2.55509
1961 22.5925 22.2208 15.9667 2.00988 1.2214 0.0872556
2338 55.3816 22.3334 16.282 0.0815321 0.954414 0.184567
3742 5.79907 22.8422 15.7145 0.951245 -0.968182 0.60743
3676 7.43549 22.9985 16.2658 0.997553 -0.440088 1.53689
1602 34.7473 23.6846 16.9659 0.128004 0.00559272 1.31442
2661 4.80579 25.3804 16.1364 0.0316683 0.949518 -1.03954
2803 17.3865 24.8692 15.6678 2.28327 0.819351 -0.324159
3370 45.879 24.2832 15.8291 0.0464459 0.227278 0.802289
3415 57.0004 24.1814 15.7293 -1.006 0.851147 0.5573
643 3.39674 25.6206 15.6757 0.85906 -2.64746 0.594286
1229 33.581 25.5441 16.1761 -0.696358 0.0724076 -0.993945
1492 72.3209 27.5002 16.0357 -0.978061 0.0183437 -0.0588181
921 61.6565 29.2245 16.3312 0.424251 -1.24743 1.16329
3891 29.4668 31.0175 16.5499 -0.0479457 0.678854 0.893257
2535 51.2462 30.3456 16.219 -0.188114 -0.915107 2.72354
3203 42.2592 32.5547 16.2831 0.481036 1.75253 0.345293
3167 26.1734 32.8708 16.7512 -0.385874 -0.0205005 -0.302397
2162 6.04934 34.0377 15.9224 0.759127 -0.0316377 2.54986
1258 22.3521 34.4576 16.5868 0.860121 0.372645 -0.410086
1573 35.5125 34.4449 16.4296 1.30527 0.566381 -0.960332
740 52.2466 35.2943 15.6866 0.00243691 0.610963 -0.177241
3324 72.4904 35.0575 15.7059 -1.80572 -0.398411 -0.933333
1210 73.5337 36.567 16.0036 -0.757023 0.846909 -0.346385
2245 47.4678 0.815771 18.066 0.887337 -2.1851 -0.331309
1457 53.704 0.529531 18.1703 -0.00582098 0.0919305 -0.263853
2946 0.397325 2.34023 17.0703 -1.1932 1.55453 -0.0437398
3021 22.4393 2.50788 17.0723 0.192801 0.217021 -1.65032
146 22.7282 3.49293 17.4989 -0.614054 0.822936 0.580512
842 2.10746 4.78063 17.3231 0.186809 -0.445284 -1.21861
3197 20.6348 5.37095 17.8874 0.00763366 0.284014 -0.780908
2530 2.45942 5.67779 17.0824 -0.261127 0.154674 -1.24978
1872 19.6549 7.86897 17.6192 0.0517631 -1.09406 0.65819
905 60.3274 7.13396 17.71 -1.60981 -0.217068 -0.868953
3724 63.4543 7.54571 17.4929 -1.03174 1.73551 -0.180348
460 51.5109 9.11836 17.6965 -0.418639 -0.651177 -0.945011
1048 22.8978 10.6193 17.607 0.36195 0.421373 0.66256
2414 56.4983 10.5405 17.9762 -0.458648 0.0449324 0.954417
1557 67.9644 11.0171 17.2499 1.03955 0.715858 -0.0644204
706 14.9425 12.5852 17.0401 -1.19371 0.923732 -0.64075
2360 62.4776 13.9816 17.0313 2.0054 -1.5198 0.738093
144 71.541 16.697 17.8922 -2.19908 -0.032993 -0.609805
1365 24.6237 17.9444 18.3677 0.835704 -0.529822 0.866982
1383 15.3586 19.1546 18.1608 -1.20264 -1.02878 -1.72703
1741 33.3694 19.5401 18.2883 -2.22346 0.425282 1.89268
2973 53.556 18.5615 17.1187 1.0463 0.335132 1.70227
502 61.012 20.5213 17.8557 -0.811264 0.46263 0.128714
1628 20.0479 23.1691 17.6284 0.340038 0.294775 0.659473
3544 30.5118 23.9303 17.7718 0.0180137 -1.49253 2.14803
3677 55.9138 22.978 17.867 -0.634677 -0.0203906 -1.16652
1332 14.9114 25.3582 17.2494 -1.2539 -0.633762 0.814193
3771 24.7468 24.6174 17.0232 0.0735517 -0.700993 0.311129
2347 39.1993 24.1107 17.0673 1.18269 -0.559628 -0.0475048
655 26.8933 26.8237 18.1364 -0.324102 0.179365 0.768829
3315 36.5608 26.8785 17.2288 -2.05544 1.70152 0.991724
3846 35.7907 26.0714 17.4557 -0.298798 1.46064 1.49199
805 50.4787 26.0936 17.9085 0.079455 -2.45464 -0.0697605
840 3.2699 28.9972 17.7165 -1.19758 1.1816 0.49858
1194 35.3684 28.6081 17.3016 0.183497 -1.36264 -0.155853
398 41.1962 29.6296 18.2243 -1.84486 -0.256628 -0.844237
3451 2.92309 30.0782 17.8654 1.45169 -1.73839 -0.831667
2979 4.45503 29.9287 17.118 1.86766 0.129817 0.124813
2319 9.42664 30.653 17.1711 0.760744 -0.378977 1.57038
3545 29.2959 31.8082 17.2803 1.9898 1.14634 0.947714
1653 58.0752 32.1952 17.4384 1.18899 -2.07624 -0.665592
2935 1.07963 33.7233 17.1337 1.92598 1.04102 0.399847
1382 4.55949 33.5737 17.8582 -0.225834 0.0325207 -0.773595
712 23.2229 34.9062 17.1432 -2.23669 0.480699 -0.487173
3519 33.9155 34.9928 17.9126 0.303139 -1.56304 -0.608631
1138 32.7399 34.6922 17.7538 -0.771278 -1.3428 0.943851