ITEM: TIMESTEP
72000
ITEM: NUMBER OF ATOMS
4000
ITEM: BOX BOUNDS pp pp pp
0.0000000000000000e+00 7.3680629972807722e+01
0.0000000000000000e+00 7.3680629972807722e+01
0.0000000000000000e+00 7.3680629972807722e+01
ITEM: ATOMS id x y z vx vy vz
1881 56.6353 1.95668 1.39037 -0.701705 1.34536 -1.07846
3860 2.56484 3.96812 0.178011 -0.0962114 2.62787 1.13137
529 31.6072 3.25258 1.28217 -0.441521 0.294314 -1.13983
3862 0.501471 4.43653 0.747379 -0.101291 0.0908426 0.420005
1453 64.7677 6.11947 0.186225 -2.49345 -0.0157841 0.676824
1800 46.1381 7.58564 0.60176 -0.725487 0.562172 -0.611116
2858 54.9109 7.18492 0.711844 -1.22336 -1.48086 -0.281009
3632 52.5736 9.40133 0.676184 -1.09893 -0.803797 -0.0787764
1835 55.6192 8.5174 0.855535 -0.374418 -0.417416 -0.35431
2920 42.7419 10.4485 0.437747 0.219316 1.09035 -1.51033
2763 38.5733 17.1011 1.08786 -0.239564 0.519568 0.227511
2402 45.957 17.9569 0.859085 -0.198921 -0.063861 0.349403
3887 56.6655 17.7045 0.28447 0.0572015 -1.07584 0.46805
2392 70.757 19.6764 1.04277 -1.79652 0.460286 0.0689156
2167 11.5618 20.5957 0.338418 1.03186 -0.816508 2.27633
564 43.5559 21.7476 0.584912 -0.356918 1.20977 -1.41544
2619 53.9662 24.0024 0.26013 -1.17551 1.37095 0.337859
3834 44.2644 26.8212 0.862101 1.11161 -0.215065 0.304867
3601 56.5746 26.5717 1.07636 0.302446 -0.448185 -0.43796
1192 62.2608 26.5331 0.85384 -1.15954 1.01145 2.40649
2296 69.4742 25.8617 0.0987052 -2.27566 -0.621635 -0.244064
1832 27.057 28.0387 0.287788 1.11723 -0.359153 -0.873385
766 62.1891 27.4635 0.291235 -3.33319 -1.0607 0.877577
3789 6.21759 29.477 0.405451 -0.0227931 0.227549 -0.463004
2257 46.7915 29.9029 1.02783 -0.4655 1.18852 0.836642
2060 69.6761 30.9657 0.491451 -1.56193 -1.95687 0.352977
3006 18.442 32.0781 1.36059 0.548315 -0.443907 -0.263071
3674 56.7244 33.2367 0.324438 -1.22954 0.227221 -0.144474
649 32.8919 34.3876 0.68399 -0.500406 0.629679 -0.78933
1241 65.9461 34.2211 0.973042 -0.417479 -1.49528 0.696363
156 3.12947 36.8233 1.39624 1.99538 1.00835 -0.156704
1431 4.0295 35.9941 0.592369 -0.176362 -0.888262 -0.100543
3986 27.087 35.9999 0.584537 -0.168841 -0.980597 -1.10101
1766 51.9358 0.185786 2.00029 1.50162 0.0328232 -0.434315
3113 53.4221 2.4383 2.22343 1.28653 -0.562228 0.28353
79 34.002 3.04076 2.76046 -1.54077 -0.193375 0.174795
3542 4.2595 4.39763 1.52192 0.888295 0.213766 0.218571
2753 12.4837 6.51988 1.77612 1.47193 -0.88662 -0.200022
229 26.9828 7.29348 2.38409 -1.11149 0.160311 0.709483
254 68.3926 12.5491 2.05302 0.814101 1.16613 -0.873679
1543 18.6493 13.0906 1.98058 1.32377 -0.712411 0.107804
1104 22.454 13.2062 1.95407 -0.333598 -0.500724 -0.75538
1264 23.262 17.4484 2.19435 -0.594306 0.429907 -0.41084
3530 67.5592 18.1454 2.38538 -0.328662 -1.05467 -2.2763
2722 6.76324 19.2777 1.54846 2.76709 -0.946137 0.917582
1496 50.9721 19.7153 2.53708 -0.81812 -0.880625 -1.26031
675 72.017 19.2568 1.66493 -0.0259025 1.49435 -1.53109
3872 4.12083 21.2694 1.55306 -0.303585 0.593249 2.1261
2564 9.50043 23.3589 2.33542 -0.730719 2.76874 -1.12336
598 37.9384 23.5705 1.83735 0.315781 0.49647 0.137905
2634 28.7037 25.0864 1.54171 -0.868532 -0.151702 -0.416548
3586 39.2455 24.2501 1.75698 -1.09348 1.40988 1.23202
2418 42.8142 27.2432 1.918 0.178833 -0.594368 -1.30144
1666 40.8501 29.4726 2.50848 1.21976 -0.77456 1.80885
1960 42.1786 28.739 2.63222 -0.347625 -0.399709 1.63773
1743 68.0485 29.6242 1.89359 -1.35155 -1.64321 -1.63356
3561 52.6093 30.2771 2.48635 -0.925184 0.296088 -1.5631
822 51.116 32.1187 2.68975 -0.0246362 -0.816367 -0.786168
3057 11.9758 34.464 1.87722 1.43216 -1.66591 0.740226
394 59.4062 34.9816 2.71626 -0.265894 -0.414561 1.34639
2965 0.238124 36.2682 2.73675 -0.303602 -0.320531 1.01835
960 28.9109 36.0768 2.65044 -4.0348 0.269161 -0.83239
2388 44.7191 0.436651 3.93165 0.183785 -0.305005 -0.350324
2929 16.22 3.57189 3.82732 -0.231442 0.324521 0.998653
364 38.8764 3.61023 3.36009 -0.849806 -1.83455 0.21342
2254 24.0578 4.67673 3.32367 1.07502 0.278426 -0.60208
3549 54.2967 5.64527 3.77846 -1.21668 0.237232 -0.68145
3564 55.4376 5.20773 3.28103 1.06779 0.861 -0.0441934
1994 43.7195 6.81649 3.69629 -1.83425 0.212836 -1.72986
3384 11.7333 7.21972 4.17728 -0.0329861 -0.492102 1.44375
836 13.4334 9.63438 3.47169 -1.5172 -0.617171 -0.121152
1055 65.2431 8.66124 3.52067 -1.70349 0.0729989 0.0290788
1024 26.8114 10.595 4.23979 0.148209 -0.149173 -1.32169
776 30.8384 10.7184 2.94068 0.0789078 0.268697 -1.42264
3436 51.6752 12.4319 3.19286 0.136997 -0.716478 -0.332239
3286 64.3398 13.2582 3.38948 1.12737 -2.22523 0.163956
3085 12.9166 15.1641 2.86887 0.746715 -1.67301 -0.546573
2263 27.2288 16.5267 3.73382 -0.678518 2.1053 -0.939221
1320 29.889 16.3684 2.98419 1.60877 -0.117646 -0.221196
2332 41.1815 16.4825 3.04204 -1.03048 -0.209271 0.208856
454 50.8851 16.0742 3.28341 1.35438 -2.3536 0.79968
1686 56.8424 16.0844 4.17129 -1.72064 -0.197163 -0.143816
2244 2.82938 18.0616 3.38886 0.099072 1.97126 -0.36826
2838 59.8865 21.0602 3.8389 -0.979012 1.23778 -1.05878
3517 69.9014 20.9501 3.69854 -0.576188 -1.26944 1.34468
2456 30.047 23.5677 3.66476 -1.40494 0.654536 -0.733298
3795 33.1219 23.6024 3.79139 -0.331929 0.887733 -0.890208
333 43.679 24.0292 3.25187 -0.723842 0.625517 -1.20898
756 60.3212 23.3441 3.7122 0.0506406 -0.661338 0.143083
3349 67.1583 23.4293 2.89784 0.792148 -0.708843 1.66535
3982 7.68551 24.0935 3.37248 -0.289396 0.62397 0.830911
1824 31.6675 24.659 4.23099 0.379031 1.44571 1.20991
2103 60.3698 24.7196 4.20037 0.286738 1.23634 1.92357
2421 1.9192 26.545 3.78344 -2.14476 0.131567 0.247752
790 6.40762 26.0222 3.06354 -1.76384 0.389703 -0.0747508
2975 7.89377 26.0653 4.07113 0.391143 1.58262 -0.842667
1376 6.5822 27.2338 3.76353 -1.10287 1.64842 -1.17903
551 29.0431 27.7937 3.56233 -0.10418 1.83263 -0.0205458
1876 68.0113 28.2997 3.68529 -1.79624 1.4577 0.350033
83 38.6704 28.5322 3.83055 0.213202 1.32582 -1.45264
2765 62.2012 28.8786 3.72828 1.5629 1.69831 -2.04696
3325 64.8542 29.0363 3.07082 0.162216 -0.241968 -0.0868737
3711 11.4002 31.4714 3.77471 -1.79078 0.164543 0.0289977
1401 34.5328 33.946 2.87612 0.0509657 0.333295 -0.100987
1952 5.48333 34.8565 3.19346 -0.838497 -2.62097 -0.0622878
194 71.695 34.6029 3.41342 -0.77847 0.411088 -1.17186
1857 19.9384 0.744372 5.63056 0.566412 0.220543 -1.83306
1018 28.9067 1.21799 4.71862 2.16749 0.402738 -0.825948
943 21.3939 1.92346 4.8091 0.025019 -1.46527 -0.739634
3432 70.4958 1.45044 5.15528 0.749535 1.70489 0.614191
466 36.5393 3.40467 5.60686 -0.586789 -0.590965 2.01341
2944 46.705 3.00361 5.65806 0.126462 -0.471502 0.18483
1691 12.3485 4.36533 5.38637 -1.86574 1.36046 1.50745
3928 0.482561 5.8069 5.19642 -0.494397 0.644781 -0.0138529
1316 1.45044 6.61241 5.23516 0.724564 1.59826 0.0747425
1896 48.7136 6.4951 4.29586 -1.14465 -1.07492 -0.132212
2373 49.2355 8.36967 4.6319 -2.02401 -0.310223 0.0513988
2497 22.3774 8.62126 5.58913 -0.769551 -0.393848 0.394013
2420 42.4376 9.49629 4.50838 -0.800388 -0.0219446 0.204458
84 5.0035 10.578 5.36993 -0.211158 -1.99729 -1.47518
1084 20.9668 10.8677 4.94856 0.341064 -0.175324 -0.648704
1532 34.4413 10.3347 5.36453 0.776865 -2.06823 0.114288
907 59.2933 11.0214 4.71026 0.303347 1.78114 1.38485
3969 29.0668 14.8723 4.42833 0.390067 0.363733 0.778461
1041 24.0325 17.1864 5.12907 0.122715 -0.305277 -0.102587
2094 64.9016 17.0604 4.48277 1.30089 -0.82279 -0.0833543
1657 72.3128 17.6294 4.83997 -0.0673216 0.0953192 -0.988365
3589 34.4805 20.3317 5.41888 -0.0984875 0.265437 0.090272
1509 42.6844 21.0696 5.22819 -0.505954 -0.542974 1.63123
1413 32.3308 21.5048 5.1708 -0.368682 1.34917 -1.15386
1692 58.5211 21.2781 4.60123 -1.32213 0.406346 -1.49047
2266 57.4303 24.9901 5.42334 0.763879 0.375277 -0.0318263
3270 41.3773 25.6622 5.56077 -0.838023 1.20327 0.255596
627 50.6505 25.5722 4.81482 0.808219 0.445179 -1.4007
1266 26.6948 27.2154 4.95523 -0.575861 -1.94695 0.279563
3238 65.384 27.5764 4.50994 -0.513025 -0.168381 -0.7926
1381 32.4957 32.3199 4.94056 -0.95718 1.22689 -1.60342
580 13.6413 33.1156 5.48624 -0.292709 -2.07572 -0.785242
432 2.5739 35.0154 4.65188 -0.0520566 0.511068 -1.06527
2394 27.0044 35.3245 5.36967 -0.199179 -0.77628 -0.648745
2249 44.334 34.1302 4.84788 -0.385566 0.707271 -1.22705
3644 72.0146 34.6085 5.55337 -0.763441 -1.01477 -0.610382
952 4.60683 36.3699 4.39069 1.26471 0.0579959 -0.140222
391 3.07258 6.83597 6.76015 0.281685 -0.475027 -1.7449
1914 19.8446 5.75123 7.00052 0.862304 0.450258 0.326646
2176 48.1367 6.67839 6.18576 0.48866 0.782776 0.868539
630 13.9934 8.17158 5.94645 -0.488269 -1.54073 1.37936
1572 21.2395 8.13999 6.86773 -0.441588 -0.0915353 0.095226
1883 35.1676 8.04359 5.80493 0.103046 -0.0601138 -0.705627
3507 25.864 9.41265 6.88132 -0.228208 0.373699 0.248132
1152 37.9711 10.0198 6.6366 -1.47867 -0.614377 0.748499
973 6.6583 12.7334 6.82552 0.885472 -0.978611 1.34146
609 59.9588 12.5218 6.65658 0.876057 0.51063 -0.421134
450 64.4582 11.772 6.82994 -1.06224 0.530177 -0.764168
1015 34.7579 13.7394 5.98818 2.25948 -0.878128 -0.154621
2884 42.2995 15.1002 5.9725 0.488462 -0.65942 0.200236
2129 26.4871 15.7506 5.82013 2.24599 -2.23602 1.44384
1552 39.7988 16.1733 6.87723 -0.0333442 1.19825 0.651174
1388 40.6715 16.4232 5.98574 1.45065 1.97558 1.41588
2830 3.11143 17.6186 6.94462 -0.887435 1.19484 0.487603
3305 20.442 19.5391 6.40347 0.162731 1.23087 1.38531
3327 35.0284 18.9546 6.84638 1.85231 0.831003 0.455016
833 49.4481 18.7602 6.11333 0.808304 1.27855 -0.194525
2112 70.4433 19.0419 6.58603 -0.562877 -0.441611 -1.32006
1354 3.54424 21.056 6.62331 0.199022 0.403377 -0.826567
1556 70.0824 20.62 6.83892 -0.396385 -0.578879 0.634219
3483 54.4029 23.9907 6.21318 2.35497 -0.125073 -1.72177
3822 72.8128 23.7925 5.79843 -0.496578 0.881457 -0.392175
3481 19.3697 25.4332 6.95278 -0.808242 -0.89447 -0.21926
1331 37.8555 26.8363 6.82648 0.42688 -0.0631065 0.805356
3242 38.8029 26.3266 5.75095 0.780017 1.87256 1.53188
1573 67.287 25.5993 6.27371 0.572916 0.7076 -0.207612
2321 9.05959 27.905 6.32553 1.63948 0.524119 -0.119237
2474 22.6876 27.823 6.97886 -0.230599 -0.498862 -0.641109
1654 31.5119 28.1377 5.93104 0.353892 -0.244405 0.33199
1537 70.0178 27.8487 6.49576 -0.560495 -1.19796 0.820593
2560 71.0168 27.9558 6.80806 0.674394 -0.360867 -1.22869
3844 24.6665 28.4585 6.61507 -0.963587 1.79974 -0.978846
2527 42.7697 29.9289 7.07448 0.00943598 0.162225 -0.191506
1934 18.467 33.4837 5.89441 1.45136 0.052109 0.0579603
1985 66.6239 33.3954 6.85438 0.225065 0.105102 0.495431
3129 14.4263 34.3264 6.44296 0.623855 0.346145 -0.0114676
441 66.417 34.4774 6.89249 0.650142 1.80125 -0.465463
3995 1.07041 36.3416 7.03663 -0.573324 -0.0140251 -0.829996
2011 32.9339 1.3625 7.18983 -0.882278 -0.161397 -0.357115
76 42.7649 0.253975 7.36373 0.174949 0.347646 -0.148326
2143 51.3926 0.0357826 7.27606 0.387652 1.82642 -1.82926
1563 57.4073 1.58918 8.10417 0.365675 -1.31129 -0.0950544
3602 25.035 2.91799 7.74962 -0.151843 0.0225682 -1.46002
3079 38.6188 3.5149 8.30383 1.95363 -0.489831 0.00798059
3160 71.2238 3.90831 7.48374 0.469468 0.399349 1.05875
3890 4.01868 7.2669 8.19341 -1.77471 -0.299438 0.179393
590 10.7419 7.95071 7.95907 -0.923397 -0.114683 0.60091
3064 2.12392 9.01891 7.40626 -0.969267 0.262087 -0.793963
2824 70.3076 9.77677 7.2411 0.600735 0.585454 -1.49143
2801 23.8631 11.0849 7.46834 -0.502173 1.28879 0.00943721
318 11.0522 11.5845 7.19726 -0.738501 0.194367 0.871472
2148 18.022 12.6587 8.07825 0.0719392 -0.903615 0.71442
199 28.1619 12.6886 8.49054 -0.507701 -0.323684 -0.75691
228 58.5753 13.1479 7.81993 -0.0225162 -0.617484 -1.43777
2121 63.7348 12.7873 7.20162 0.599448 -0.187318 -0.359056
645 16.5216 14.9152 7.46343 1.93714 0.763642 1.37739
2181 23.5457 14.2123 7.99744 1.36661 -0.17615 0.0476069
3495 35.6526 14.8301 8.10324 1.69103 -0.276622 0.545581
2026 40.1365 17.1772 7.3065 0.564978 -0.948833 0.0945964
2185 72.8295 17.7313 7.27079 -0.853964 -0.731261 0.855645
179 6.91452 19.3191 8.29307 -1.17586 -1.29656 0.592167
1575 41.5194 19.458 7.60014 -1.42626 0.905526 1.40019
2711 13.5294 20.9516 7.81313 0.0172889 1.20231 1.85931
3638 54.174 21.0516 8.30491 -0.483485 0.841016 0.134047
2603 56.9996 20.9739 7.54985 -1.29122 -0.796684 -1.28993
2732 41.7837 22.4116 7.61196 0.526644 -0.892232 -0.449115
3624 54.8024 21.8591 8.24764 -0.812436 -0.169639 1.65439
3025 56.7701 22.492 7.13756 -0.805374 0.657163 -0.936926
358 17.3126 23.8005 7.58199 0.168396 -1.77561 0.910419
1170 38.4773 23.059 7.29526 -0.242507 -0.192478 -0.305062
3903 66.3718 24.3969 7.85318 1.37022 0.601886 -0.76072
2368 7.80989 26.4886 7.67417 -0.921079 0.682352 1.96545
3261 13.1198 25.9421 8.15682 -0.996397 0.950634 0.862087
3263 9.46936 27.3511 7.48403 -1.07457 0.296223 -0.00349499
1100 45.9439 27.4321 7.8253 -0.902969 -1.34347 -1.63913
513 0.70929 29.6362 7.09111 0.411136 1.92323 -0.22914
3592 15.2237 28.7281 8.32944 0.169186 0.557479 -0.739618
1840 18.8273 28.9901 7.88195 1.22107 0.0823421 0.800185
1616 18.801 33.8637 7.63187 1.60163 -0.993627 1.28318
1444 32.5078 33.3106 7.10342 -0.619618 -1.53416 -0.108941
3803 50.5833 32.9452 7.90836 -1.02752 0.755124 -0.967285
495 60.7482 33.4103 7.51192 0.741598 -0.909178 -0.80636
518 66.6192 33.6384 7.86405 0.153081 -0.162276 0.363511
1456 67.6707 33.2026 7.37439 -0.353303 1.31306 -0.951571
953 62.2195 35.508 7.93616 1.20952 -0.773163 -0.79298
3953 65.6479 36.1432 8.21104 1.56531 0.481517 0.640421
1283 49.4494 0.458957 9.27044 0.368383 1.15263 -0.424414
3200 28.1296 2.4668 9.36245 -0.31373 0.303222 0.311105
2492 43.3746 6.78642 9.0071 1.95529 -0.960075 -1.35836
2361 44.1105 5.69955 9.75652 -0.406395 -0.255604 -0.0200385
3867 13.7468 9.15713 9.08195 1.09763 0.173709 -0.519503
360 38.7039 9.02933 8.83567 -0.592252 0.385388 0.555854
1641 61.1373 8.97511 9.6198 -1.34607 -1.03045 2.01368
2096 18.077 11.5805 9.06248 -0.104394 1.78354 -0.32897
1393 18.1087 13.7363 9.06798 0.476876 -0.138642 0.138556
3512 40.4706 13.8391 8.85241 0.371326 -0.0500628 -0.927856
3917 45.8849 14.9915 9.42643 -1.06468 -0.508104 -0.0641591
1083 52.7341 14.9258 9.34172 -0.368367 0.985084 0.187069
2410 10.7882 17.8231 9.00953 -1.49036 0.57616 0.543589
1642 59.5752 19.8072 8.91936 -0.86238 0.871982 -0.260214
2831 7.10928 19.8765 9.54636 0.579885 0.649191 0.726638
818 53.5337 21.7271 9.19243 2.18162 -0.557613 -0.575971
1967 59.9312 23.3488 8.93484 -0.587383 0.887319 1.01249
2377 8.37282 24.1102 8.74088 0.566448 -1.94437 -0.862466
602 36.0397 24.9742 9.10606 -0.151831 0.0685228 0.399866
377 18.7094 26.1126 9.71116 1.03682 0.387212 0.630682
3595 8.15973 27.0584 9.76951 0.7474 1.04668 -0.704445
3455 19.9042 27.5936 8.83694 -1.48662 0.776263 -0.223061
1085 26.602 27.9993 8.52425 0.826128 0.745853 -0.657815
289 70.5011 27.7167 9.75918 -0.603199 -0.0325376 -0.415355
3836 59.2662 29.4553 8.80386 0.395731 1.67509 -0.69054
65 62.9378 29.8891 9.38356 -1.25579 0.715195 0.329069
1519 67.1077 30.9943 9.57177 0.688859 -1.24947 -1.95322
3237 73.5745 29.8216 9.10822 -1.09887 -0.573275 3.41738
2769 15.921 31.9461 9.3346 -1.33066 0.790645 1.35752
3019 52.3824 32.3688 9.33389 0.781267 -1.74308 -0.343189
1815 34.3108 32.8551 9.31097 -0.452931 1.56847 0.954678
3035 49.3876 34.0812 8.62872 -1.2856 -0.0497128 -0.271639
910 66.9305 34.9532 9.15462 -0.00116049 -0.258443 -2.05637
2300 51.3442 35.7461 9.13744 0.977269 -1.02249 2.26527
962 37.0605 1.22312 10.0684 -1.14638 -0.313596 1.50597
2602 2.83941 3.14477 10.4432 -1.4903 0.75363 -0.801935
57 48.3794 2.95845 9.98935 -2.3873 0.376281 0.08489
2509 21.536 5.13324 10.6166 0.132047 0.607857 0.995926
2930 16.2712 6.70739 10.3128 0.420676 0.671514 0.86798
1223 50.1315 7.87386 11.2848 -0.198095 -0.959914 -0.41551
245 65.2603 7.25177 10.8178 -0.180957 -0.945767 -1.24994
2041 38.9661 9.53826 10.6184 0.990704 -0.417019 -0.988238
3635 49.6 10.7903 10.8903 -1.46152 -0.466151 -0.252775
2369 27.9891 12.2788 10.0318 0.745224 -0.507061 0.932707
1058 23.8666 13.7695 10.4341 -0.0177573 -0.900346 0.236127
1327 43.6001 15.8474 11.0386 -0.983947 -0.682482 0.809715
3249 16.1372 20.0916 11.2108 0.329932 -0.247527 -0.539564
2109 27.8605 21.1645 11.2153 -1.3744 0.651535 2.77841
2743 31.715 20.4169 10.7516 -1.33601 -0.174925 1.36908
1383 63.792 20.2182 10.1778 -1.8493 -0.400056 0.361528
2415 20.1566 21.5649 10.538 -1.23329 -2.41539 -1.26277
44 34.2231 21.3213 10.1912 1.04007 0.722305 -2.10119
3720 52.9356 21.3493 10.8829 1.1136 -1.23714 -1.95258
799 41.9244 22.7717 11.2551 0.236511 -0.673708 -0.0448741
1395 2.72306 24.1345 10.9653 -0.181028 0.873958 0.642043
2495 4.1447 24.1218 10.7503 -0.952983 -0.718564 0.728129
581 34.1781 25.4484 10.006 1.67291 -1.15765 -0.0947561
2134 63.03 24.7892 10.7066 -1.66907 1.36451 -0.216281
1947 72.9684 24.8233 10.7796 -2.28738 0.500535 -0.628433
1803 63.4133 25.7509 11.1361 0.577444 1.09454 -0.958352
1071 9.79776 27.9476 9.93984 -1.20666 -0.44582 0.767855
2526 4.82406 29.6529 10.6541 0.941815 0.102234 1.80102
682 37.5122 28.8587 11.1893 -0.108575 0.0759113 0.272795
2903 6.88081 31.0815 10.0483 0.846902 0.53158 -0.675485
3434 45.1355 29.7611 11.2647 1.48377 -1.09862 1.44438
840 34.9388 33.292 10.0668 0.533021 0.201162 -0.604658
2132 36.3538 33.5391 10.3013 -0.033066 -2.56968 -0.834129
3640 4.24164 36.1724 11.0195 0.635608 -1.33322 0.584391
1202 12.0983 36.5577 10.3681 -0.863208 0.913001 -0.223018
1135 56.1545 36.7014 11.1473 -0.819232 -1.05944 0.22954
1785 56.9229 36.7483 10.4725 -0.472582 -2.65448 1.32124
1303 2.4968 0.0976731 12.0953 -1.13184 -0.486848 0.54225
1856 66.4907 1.37754 12.0203 0.381302 -2.02117 -1.0843
1745 66.6915 0.218708 11.8737 -0.763669 0.70109 -0.0718535
3666 56.4876 2.62316 12.1093 0.653015 -0.293163 -0.407409
1017 15.8015 3.98018 12.0871 -0.897459 -1.55331 -0.641994
661 40.2965 6.70589 11.4973 -0.73321 -1.31768 1.01971
92 21.6038 7.60938 12.3757 -0.867244 0.59181 -1.50956
2775 42.1508 8.1297 12.3304 0.757942 0.793517 -0.679022
876 17.1137 8.98442 12.1828 -0.492879 1.41346 0.996754
3881 21.2507 8.66537 12.165 -0.50502 -0.431643 -0.863489
3420 30.6941 8.89684 12.3097 0.958814 1.03348 1.14978
1828 30.1825 12.4151 12.5784 -0.0714404 1.15422 1.55324
2271 45.8149 12.0807 12.217 0.86153 -0.298567 2.4803
2673 49.8382 12.7279 12.1548 0.708023 1.12763 -0.0220585
3975 71.6684 12.0392 11.9812 1.04539 -1.04241 -1.09801
3414 73.3811 12.2324 12.2637 0.568187 -0.980777 -1.12083
3450 54.1837 13.7235 12.296 0.447232 -0.155357 0.144217
1036 11.4113 14.2574 12.0651 -1.38457 -2.23286 -1.11603
869 55.057 14.3087 12.5107 -0.28243 -0.248949 -0.378502
1904 19.5346 17.7423 11.7701 0.574802 1.06851 2.46527
162 6.5707 19.2418 11.3613 1.81256 -0.50392 0.300773
3015 29.9225 19.0165 11.9965 0.166495 0.423237 -1.32936
1702 63.1245 20.4404 12.7442 1.42555 -1.11959 -2.33813
1628 20.6702 22.0809 11.7703 -1.37603 -0.369446 -0.34465
1911 62.7189 22.5879 12.1357 0.550273 0.437641 0.981449
2183 9.78733 23.443 12.567 -1.55663 1.04708 0.730247
3657 28.0861 25.0675 12.433 1.06381 0.322897 -2.24973
482 29.5907 24.1588 12.6397 0.326684 0.119289 -0.452103
1806 71.0834 26.3702 11.849 -1.49163 -1.6332 -0.521551
50 16.0888 27.2862 12.311 1.2687 -0.0428529 -0.459246
914 29.6394 28.256 12.5238 0.148915 -1.71731 0.598405
225 38.5476 28.0542 12.3021 -1.07383 0.461109 0.127103
2774 12.9987 28.603 11.4168 0.407784 0.826966 1.21137
2062 29.9382 28.8094 11.5549 -0.682344 0.30036 -0.855294
1261 51.775 30.4019 12.413 -0.79339 1.80527 -0.692941
1086 30.7657 32.1571 11.8107 0.177448 0.719075 -0.549778
3258 45.0666 32.4658 11.6947 -0.0803775 0.896263 0.11395
2516 25.5429 33.3232 12.6936 0.946167 1.74419 0.355407
178 66.8625 0.341078 13.3335 0.161824 1.1564 0.66963
1740 22.2232 1.72603 13.2406 -1.27581 0.329373 -0.0703693
2922 70.2475 1.70432 13.8028 -0.775305 -0.678901 -0.479406
1626 36.0689 4.13538 13.8433 -0.415267 -0.036189 -0.229468
2293 6.81277 4.97884 12.9717 -1.40618 -1.89306 -0.175728
2407 15.4595 7.1925 13.3289 -0.719525 1.57791 -0.254158
77 25.4283 8.32139 13.6035 0.0501674 0.194135 -0.481232
745 50.6961 7.71482 12.9566 -0.881516 2.07614 0.10575
56 8.00161 9.86386 13.4265 0.269503 -0.0180759 -0.169748
2399 52.1694 9.85156 13.0457 0.0953788 0.620742 -0.0873557
2234 65.5787 11.6759 14.1289 -1.41216 0.483954 1.07971
809 70.3166 12.1895 13.0125 -0.320418 -0.267613 -1.05552
2217 12.7327 13.2026 13.854 -1.23392 -0.030774 1.20732
763 7.64775 15.6991 13.1076 -0.0267307 0.372205 -0.9586
3524 35.6958 17.272 12.8369 0.261629 -1.32152 1.11882
1078 21.3497 19.6276 13.0502 0.294336 -0.421035 -0.617269
30 31.7635 19.2006 14.0467 -0.91734 -0.34679 0.0669028
1830 18.5691 20.3193 13.8889 0.670109 0.393607 -0.190687
103 41.1286 20.3473 13.529 0.513038 -1.52768 0.233323
2040 56.054 20.7997 13.7308 -0.829478 -0.627995 -0.447958
3678 21.5488 22.412 13.0473 0.543164 -0.958406 0.948914
204 46.113 21.5539 12.9361 2.19036 -0.665873 1.92172
2691 45.9952 22.4532 13.5501 -0.912587 1.41544 0.711433
2978 52.0259 21.8738 13.4983 -1.13742 -0.0890058 0.549634
1063 57.0953 24.0367 14.0034 -0.698936 0.948467 -0.42232
1618 64.0582 26.2806 13.0974 -0.781153 0.104474 0.0447215
74 4.97314 28.2166 14.0546 1.46553 -0.30032 -2.39491
3097 67.0934 29.7375 12.8741 0.744219 -1.12423 0.0744981
3153 7.30807 31.9775 12.9213 -1.15168 1.38535 1.79096
1225 39.5629 31.455 12.8825 0.771342 -0.0798034 1.26867
3065 24.389 33.4045 13.2963 -1.41878 -1.48007 0.221332
1047 59.6633 34.2766 13.9347 -0.510144 0.619841 2.04262
3840 12.5897 35.6124 14.1042 0.212451 -1.63686 0.168327
2440 25.5875 35.5234 13.686 -1.82216 0.574108 -1.0805
2513 16.6462 0.476778 15.0464 -0.229737 0.78642 0.526533
3537 62.755 5.43258 15.3973 0.594405 0.460073 -1.54055
2565 49.1093 7.06806 15.2837 0.442407 1.12601 0.124205
3264 71.3908 6.6934 15.3568 0.0733159 -0.829594 -0.824887
2595 24.521 8.65066 15.5181 -0.100032 -1.55409 0.194101
757 51.4916 9.70397 14.5638 -1.02382 0.385159 -0.311529
3786 69.2004 9.90701 15.5507 -0.852577 -2.72031 0.542206
2555 73.0777 9.61427 14.4935 -2.33396 0.265263 1.05634
1179 72.6354 8.529 14.5292 -0.118819 -0.370281 1.74989
915 1.24536 10.8841 14.8278 -1.18416 0.706134 -0.669064
842 4.01098 10.5562 15.5853 1.50634 1.13895 1.11044
3488 19.5335 10.1979 15.5256 -0.853092 -0.381504 -0.539587
120 33.215 11.0976 14.2035 -0.418936 0.213187 1.00355
1048 53.0863 11.0166 15.2936 1.94742 -1.10932 -1.06183
1976 67.3794 11.1725 14.2329 -0.237407 2.38655 -0.380867
3380 24.9903 11.5161 14.527 -2.85401 -1.37774 -0.557115
1890 50.0635 12.6299 14.3973 -0.267332 -3.1111 0.251411
913 56.7546 12.6665 15.2113 -0.459059 0.220522 -0.909874
498 53.8802 13.945 15.4444 1.30892 0.816598 -0.428538
1023 0.743148 14.2913 14.8532 -0.891554 2.15395 -0.686245
501 1.45372 15.0358 15.3481 1.95446 -0.590785 0.66594
2758 36.4704 14.2604 14.8389 -0.288612 -0.562901 -0.024091
3361 5.48814 19.0861 15.2659 1.47176 1.09192 0.348523
300 66.0347 18.7978 14.7555 -0.543223 -1.5059 -0.17159
3964 67.9044 18.6787 15.36 1.40029 -0.483641 0.768118
384 50.5073 21.1527 14.1784 1.00188 -0.126217 1.69192
1578 13.6043 21.2821 14.8612 1.15789 0.495269 -0.0761411
696 39.6151 21.9654 14.4342 -0.286061 0.146215 1.16927
1962 2.59721 22.7255 14.9148 0.576899 -0.91767 -0.821906
2554 28.7026 23.8421 14.624 -0.420585 0.554339 1.35694
2946 42.5046 25.2985 15.0903 0.452874 0.6016 -0.598182
2853 73.2686 25.0354 14.3478 0.299554 -0.254112 0.666478
947 44.3385 25.753 15.4004 -1.02156 -0.70475 1.15731
243 5.90553 28.1496 14.6062 -0.164558 1.71556 0.50996
1516 16.9443 28.3244 14.7681 0.0525754 0.104888 0.268163
1282 69.5769 27.5494 14.3441 -0.555866 -1.18351 -1.24448
1836 64.6108 29.8957 14.3838 -0.185596 0.874927 -1.17614
3553 11.0238 32.2116 14.393 1.11965 -0.246774 1.24121
3415 73.5285 32.4803 14.3765 0.328069 -0.0800485 0.678979
3493 10.4707 33.135 14.7958 -0.52368 2.35717 -0.288979
3851 41.6231 33.0964 15.3876 -0.772303 0.468483 -0.558524
2816 6.78745 35.0615 15.3783 -0.659303 -0.515395 0.519565
2667 22.3543 35.1492 15.1716 -0.39437 0.750201 -0.603115
2529 72.4034 35.7392 14.2899 0.473751 0.505818 1.06638
3877 3.83556 0.0281854 16.6715 -0.164274 -0.368284 -1.06223
460 41.4728 1.35355 16.7228 0.905147 -0.417627 0.605294
1211 16.5548 1.84038 15.8187 -0.484669 -0.844807 -0.148416
3541 18.1547 2.40464 16.9505 1.044 -0.406063 -1.23785
1257 17.0497 2.60216 16.8526 1.07614 -0.635181 -0.350699
1231 40.1432 1.84387 15.9953 1.00381 0.504054 -0.144628
1893 46.7676 2.19119 15.8174 -0.235548 0.599483 1.75019
1663 47.6567 4.2608 16.8226 0.145113 -1.14409 -1.24209
3620 52.0146 4.5224 16.0278 0.83749 -2.72589 -0.580925
2791 31.9806 8.37536 16.0423 -0.769687 -0.390441 -0.316267
1435 60.8803 8.26424 16.9798 -1.7335 -0.76904 -0.0981643
1891 39.4684 9.14027 15.7873 0.348536 0.108902 0.707613
827 26.2797 11.968 15.8918 -1.16306 0.693334 -0.45397
1244 53.7104 11.3587 16.6722 -0.0983436 -0.00361199 -0.39904
2875 0.783722 13.5116 16.7912 -1.20007 -0.624678 -0.435559
570 22.6452 14.0062 16.3183 -0.250355 -0.198383 -1.87208
2890 40.9076 13.7539 15.9901 -0.263281 -0.900298 0.40398
1655 32.7045 16.1035 16.8135 -0.497824 -1.66931 0.141859
606 44.0188 17.5567 15.9265 0.0981005 1.65106 0.401694
1187 62.3513 17.9572 15.6764 -0.732513 -0.43736 -1.32834
1734 24.5661 21.1556 16.9691 -0.569256 -1.53477 0.171207
3985 56.4358 19.8933 16.8731 -0.382696 -1.11753 1.22181
974 4.55356 22.4324 16.9859 -1.61476 -1.041 -0.433439
2535 13.1447 23.3636 16.9775 0.622305 -0.653388 -0.794335
3809 69.7118 23.9758 15.6899 0.482105 0.955094 1.26729
2841 1.01379 24.2363 16.6127 -0.428697 -0.89953 0.118068
1325 46.5581 24.6549 15.9196 -2.36714 -0.165532 -1.71135
2845 23.6517 26.7229 16.1249 -0.0638366 -1.08046 0.673117
3108 33.5085 26.8805 16.4023 1.20401 -0.524799 -0.245947
826 60.1318 26.9211 16.0317 -1.62366 0.532527 0.466998
961 16.8697 29.4434 15.7029 -1.42319 -0.517994 -0.177073
963 19.5551 29.3765 15.6386 0.135301 -0.638309 0.844893
2205 42.0223 29.0523 16.0932 0.919647 -0.351076 1.49999
3551 36.1291 30.3446 15.855 -0.488753 1.36349 0.223794
585 47.5399 30.0691 16.0214 -1.09238 1.12891 -2.86062
2850 20.0528 31.4558 16.3853 0.542035 -2.30517 -0.941375
1794 18.4563 33.4253 16.5646 -0.534307 3.16119 -0.0554648
42 0.202944 34.0751 15.651 1.35762 0.0666175 1.16639
2044 57.2503 34.809 16.6221 -0.580101 1.68845 0.0122434
705 20.4338 35.6295 15.9302 1.17398 0.236023 0.07102
935 1.42194 0.446531 17.8864 -0.520516 -1.50154 -0.419692
3934 20.3913 1.0376 17.1445 1.8891 -0.474073 0.478914
2130 55.9727 0.92373 17.0979 0.00141837 -0.102391 0.461271
1102 16.6829 1.78837 17.5004 0.43494 -0.0270569 -0.74164
2572 61.5434 2.28359 17.2599 -0.0455672 -0.83902 0.631434
1651 0.460056 3.1158 17.1551 -0.374084 0.395686 0.0794526
3075 62.9425 5.09103 18.346 0.695899 0.512042 -0.042158
1760 72.9055 5.55623 17.4261 -1.21571 -1.08712 -0.344944
1074 1.86446 5.71216 17.222 0.928532 0.86045 1.23929
1590 24.4349 6.17968 17.8521 -0.667675 -0.978377 -1.54192
1694 43.3622 5.96451 17.9622 -0.248909 0.232375 0.826276
3042 44.2257 6.41214 17.7561 -0.630248 -0.620083 0.890778
2301 5.14792 8.30627 17.8936 -0.12628 1.32663 -0.222885
2048 15.1577 8.2171 17.6401 1.39447 -0.989852 -0.406113
2046 17.5058 8.92487 18.1739 0.793286 0.194897 -1.91535
2441 32.7046 10.8396 18.1491 0.388662 -0.33311 -0.697557
3340 41.067 11.6777 18.3825 -1.42804 0.193883 0.0933587
2171 60.0488 12.3245 17.8506 0.813313 -1.51244 -0.0527307
1360 15.8831 13.3768 17.4451 -0.089629 0.472582 -0.722776
2087 26.3429 13.0533 18.0644 1.03449 0.914591 -0.43908
2307 30.1182 13.5764 18.2264 -0.351152 1.02665 0.120431
3382 57.9468 14.3854 17.3114 -0.686709 1.30922 -1.15652
438 36.2984 15.6522 18.3517 2.84838 1.15659 0.965371
1147 42.6838 18.2097 17.5878 0.580156 -3.53731 -0.643231
1069 14.199 19.1747 17.7841 0.926274 -0.0932892 -0.176267
2923 59.6257 19.3978 17.8719 0.795827 -0.0446465 -1.05397
1250 64.5062 18.6208 17.7642 1.32809 -1.23821 0.340471
3125 9.64517 20.5907 18.2058 -1.87234 1.31708 0.488463
2333 22.6599 20.8243 17.776 0.378847 0.113532 0.281888
2563 24.3026 23.2539 18.0087 -1.56028 -1.58019 0.366438
317 60.5193 22.9333 17.2556 -1.36073 -0.236305 0.813727
3314 20.3843 26.0411 18.2939 -1.99291 -1.1543 1.15699
789 7.1764 27.759 17.5999 -0.791378 -1.03427 0.316643
3100 13.0269 27.2529 18.0175 1.27782 1.76148 -0.132343
1371 47.2341 27.1273 17.3835 2.10764 -0.735007 1.60922
397 53.1844 28.0339 17.82 -0.289336 0.234628 0.597386
2278 9.8656 30.1087 17.5684 0.369264 0.238648 0.262777
614 18.7922 30.6454 17.9613 0.681571 1.55622 1.85757
3514 24.8542 31.5021 18.0359 -0.510405 1.83858 -1.44445
2472 4.7376 33.3889 17.7045 0.498706 -0.80056 -0.180469
2786 19.4619 33.5388 17.6151 -1.08872 1.41766 0.965036
3334 22.6837 33.1935 17.4382 -1.59402 0.644232 -0.685612
1695 46.5526 34.1656 18.2778 -0.0878424 -0.395633 -1.53321
414 49.2054 35.1063 18.3432 -0.65021 -0.686872 -0.491533
1369 22.5641 35.9506 17.6546 2.28029 2.20777 0.184581
325 16.7215 1.02585 18.7405 -1.39444 0.511254 0.406396
260 36.2086 0.53089 19.0646 0.737145 -0.355652 -0.980367
3614 67.6089 0.519878 19.275 -0.798636 -0.656207 -0.921752
398 70.5867 0.146762 19.0613 -0.40686 0.512875 1.06608
261 1.92629 1.72312 19.1196 0.141533 -1.02504 -1.61634
2010 45.3677 2.45083 18.8084 -1.08368 1.18756 -0.414611
1012 63.2996 2.2458 18.9876 -0.104973 0.503774 1.1519
3655 5.51316 4.62079 19.5132 -0.237646 -1.1209 -2.01497
850 14.1981 4.70869 18.8255 -0.478097 2.45235 0.968849
2675 25.4909 6.95111 19.7634 -0.836535 0.637108 0.213464
1186 30.7577 6.83727 19.6881 -0.633616 1.9289 0.588963
892 44.3109 6.76038 18.7728 0.586817 -0.724693 0.840505
2778 8.45597 8.08511 19.5457 -0.576645 1.16221 -1.56493
3701 18.6247 7.62851 19.2345 2.20141 1.03123 -0.0253843
1821 60.6784 7.31271 18.7344 0.853551 0.274733 1.48008
1907 2.15485 9.49558 18.7311 1.89722 0.110544 0.363783
2561 5.5537 12.0298 18.4466 0.225787 -0.506554 -2.88185
631 27.7745 13.3995 18.6391 1.12915 1.15874 0.241087
3294 14.2766 15.1708 19.066 1.11279 -0.385672 0.96642
356 32.7895 15.2094 19.4334 0.891952 0.14668 -0.240166
205 0.522582 16.0928 19.0181 -0.583476 1.64696 -0.199228
2043 13.9882 18.4028 18.5808 1.0678 0.568817 0.674801
765 32.4773 19.3042 19.6777 1.05657 0.526917 1.83718
3169 35.0099 19.2305 19.8186 -1.34247 -0.673714 0.486631
2997 42.4154 18.4782 19.336 -1.46749 0.246406 -0.151383
2156 53.2936 19.2204 18.9259 1.5187 0.215839 -1.35044