ITEM: TIMESTEP
60000
ITEM: NUMBER OF ATOMS
4000
ITEM: BOX BOUNDS pp pp pp
0.0000000000000000e+00 7.3680629972807722e+01
0.0000000000000000e+00 7.3680629972807722e+01
0.0000000000000000e+00 7.3680629972807722e+01
ITEM: ATOMS id x y z vx vy vz
1520 29.1883 0.436529 1.35341 1.80613 1.65452 -0.130008
3759 35.798 1.25452 0.338632 -0.685886 -1.15646 0.76716
1791 43.7467 0.51338 0.106271 0.15724 -0.285927 -0.407587
1633 47.4318 0.370774 1.36639 0.677832 0.481152 -1.41892
929 16.6643 3.78935 1.40927 -0.393617 1.34499 1.48309
3523 62.6696 3.59563 0.504956 0.415827 -1.10254 0.303448
963 42.1418 5.273 1.33935 0.849475 -1.72262 0.722072
3526 52.102 4.90733 0.202071 1.34344 -0.209136 -1.10507
1061 25.932 6.63061 0.568052 -1.70872 0.548024 1.16724
1679 9.79836 7.96249 1.19328 -0.402653 0.513368 -1.11146
143 66.9883 7.33063 0.20946 -1.29124 -1.74166 1.07262
1945 10.8922 8.75775 0.651191 -2.00279 0.467127 0.298722
3503 57.5802 9.63656 0.781476 -0.790851 0.13428 -3.21288
1183 24.2604 10.178 0.187416 0.0662596 -0.295708 -0.0856341
2281 27.2309 10.0791 0.709158 0.748984 0.623045 0.149628
546 64.5961 10.5443 0.33259 0.609706 -0.960139 0.488483
1967 52.3679 11.4962 0.353949 -0.819137 0.523709 0.320807
1456 16.8126 13.6713 0.606861 0.836009 0.39493 -0.140257
3820 13.7818 15.3915 0.0381917 0.566135 -1.42236 -0.872856
1842 20.2986 15.4588 0.672792 -0.300596 0.293548 1.95256
838 52.3839 14.356 0.447197 -0.943145 -1.13799 0.580487
3215 54.2471 16.2232 0.515898 0.567884 -0.232858 -1.62642
3839 30.0475 18.7218 0.816223 1.07124 -1.06476 -0.0931542
3583 73.2997 21.2477 0.888446 0.434743 -1.54691 -1.0129
3687 44.7385 22.6237 0.575845 0.856755 -1.1233 -0.11084
1527 7.03193 23.9016 0.951107 -1.19574 1.21781 -1.10691
2176 24.0774 23.4738 0.686607 0.792765 -0.165534 0.573241
2934 36.5679 23.3914 0.0969827 -0.189789 0.554795 0.572506
2935 52.1963 23.5744 1.07244 0.579431 0.485468 2.14429
2722 28.836 24.7492 0.801323 -0.0702185 -2.51233 -1.3869
3200 7.63741 26.3304 0.44581 0.165544 -0.127109 0.663424
3696 49.3194 27.6128 0.125742 -0.843848 1.41332 1.42807
2483 67.3552 29.8967 0.715735 1.47955 0.109274 -1.14974
2250 27.3892 32.2497 1.01367 -0.637044 0.101425 1.28243
864 66.5919 31.3155 1.04058 -0.0179053 -1.35992 -1.22383
2893 8.0062 33.3498 1.24189 0.507493 0.491086 0.926326
2641 41.4796 32.7882 0.413687 -1.98207 2.61907 -0.0391778
2417 68.8804 33.7748 0.122145 1.02147 -1.00475 -0.80532
1318 24.4843 34.8693 0.0230672 0.788406 0.610451 1.67455
1104 26.8084 34.0589 0.281975 1.94338 -1.17813 1.794
2622 45.6413 1.01588 2.05308 0.816539 -0.827588 0.791089
426 30.5558 2.58878 1.75441 -0.30792 0.93206 0.276591
3024 48.4027 2.54778 2.21766 1.39588 -4.11304 -0.837078
2369 4.54068 2.99615 2.00192 -1.40299 0.135235 1.24542
2602 45.1474 3.39008 2.10408 0.146121 1.33211 -0.11264
1753 49.9742 3.20048 2.0713 0.0494008 -0.371794 -0.617387
1625 12.2758 5.69939 1.53059 1.22656 -0.107757 0.652867
3319 5.39816 7.71562 2.39622 1.06601 -1.85891 0.556855
996 26.5947 8.50081 1.47064 -0.598877 0.28921 -0.696282
2147 48.6055 7.83646 2.72963 0.383195 -2.02139 -2.10607
2285 56.5952 10.3475 2.54862 -0.367242 0.690334 -2.60897
252 71.3257 14.9802 2.52671 0.710355 0.267845 -0.335571
1814 14.7938 18.1145 1.89713 0.00295196 -2.72856 0.0864887
2060 15.9501 18.3576 2.50359 0.0545692 0.506233 -1.21694
122 71.5389 18.2114 2.62867 -1.47543 -0.245245 1.72884
873 18.1102 18.8487 2.4556 0.836489 0.368666 0.502853
3133 23.9592 19.3863 2.26787 -0.547007 0.88926 -0.0873243
3642 22.391 20.0414 2.79418 0.215985 -0.234192 -0.99773
2306 32.1234 21.1903 2.81351 -0.400616 -0.35339 0.0527799
1016 38.5432 20.573 1.98056 -0.6054 -0.0209203 0.941482
1402 64.3304 20.2062 2.63394 -0.970788 -1.19359 -0.343448
1086 69.9442 21.618 1.77553 -1.00192 1.4077 -0.0754338
980 17.647 23.3138 2.27286 0.231002 -0.581644 0.835626
3885 42.8899 24.1688 2.54425 0.610753 0.17808 1.72504
689 17.377 26.5619 2.34073 -0.871946 -1.36899 0.353327
852 29.9447 26.5875 1.47698 0.105478 1.74952 0.149332
3509 67.3129 27.0352 1.73172 -1.28267 -0.557438 0.375323
1069 71.166 30.8394 1.94356 0.360148 0.306394 1.40122
2532 30.6666 31.5093 2.8274 -1.91207 -0.676113 -1.59605
3912 42.6673 32.3478 1.58483 -0.334711 -0.516582 0.6256
3657 29.8206 33.2203 2.11595 0.8916 -0.371501 -0.69455
2997 16.9548 34.8947 2.76873 0.362284 0.453766 -0.530944
479 71.8732 36.3721 2.62747 1.00852 0.148584 -2.10414
924 1.69879 2.33337 3.64979 0.218065 0.872991 1.13468
729 8.87347 3.13539 3.38187 -0.251668 -0.0149694 -1.7405
1025 17.3841 3.34037 3.66314 2.00329 1.15718 1.02547
707 18.9127 5.16169 3.79836 -0.415891 -0.864537 -0.74704
1192 40.6937 6.61418 3.92533 0.461011 0.562242 2.20095
452 64.4969 7.93552 3.57658 -0.522992 -2.42281 -0.983775
224 33.484 9.63153 2.99043 0.177128 -2.03838 -0.0937817
1202 63.1764 11.3332 4.01166 -1.05926 1.44155 0.0652855
1040 3.67885 15.7976 3.41423 -0.260463 -0.991327 0.817903
2296 42.5503 16.1815 3.90417 -0.546323 -0.0230761 -0.0494237
2659 6.25663 17.2717 3.15221 -0.745059 0.196543 0.302404
1711 17.2925 17.4719 2.89425 -0.302356 -0.904816 -0.798402
1233 62.1787 17.4771 3.68561 1.89785 0.100184 0.736468
1 70.4512 18.1857 2.89797 -1.63821 1.28764 0.54966
2964 39.8087 19.4024 3.66972 0.802577 0.143828 -1.21743
1942 51.2358 18.8734 3.10231 -1.41326 -0.756949 0.838715
472 28.6923 20.4649 3.3774 1.83196 -0.680731 -1.57884
3540 39.379 20.0279 2.97237 -0.773266 -2.24227 1.37463
2932 12.3466 23.604 4.09423 0.996797 -0.48709 0.303441
1365 15.1374 23.9733 3.22953 0.620291 -0.333463 1.22969
2319 3.5462 24.3392 3.34344 0.776909 1.15911 0.577425
1642 33.3114 25.019 2.93219 -0.754932 -0.399001 -0.276697
3838 50.3219 24.4347 3.30891 0.047401 -0.0602388 -1.2803
1825 58.7426 26.1569 3.26707 -0.580143 0.215429 0.440115
3516 18.4585 28.1645 3.11655 0.162968 -0.8322 1.64145
3589 22.3951 29.1812 4.02341 0.0267948 -0.0785156 0.000736179
521 37.4968 30.8545 2.85447 1.27939 -0.324911 0.638441
2520 62.4543 31.1668 3.15882 0.898209 0.626023 -0.352375
709 30.1633 32.0147 3.78676 1.04196 0.214015 -0.649775
1797 53.854 34.8338 3.09819 1.03454 -1.21223 0.656972
2144 62.7109 34.4339 3.13485 0.707181 0.244673 -0.128567
1264 46.9588 35.6643 4.11226 -0.783323 -0.575043 -0.361568
2975 0.467517 1.07247 4.80427 -1.01287 -0.630319 -0.309467
2058 68.4286 2.88193 4.9315 0.741533 0.0578331 0.798152
3222 35.5699 4.63921 4.40935 1.02068 -2.33967 -0.458877
3174 38.4473 4.96549 4.96706 -0.566824 0.357377 1.20051
2789 62.2679 5.39092 5.23638 0.927941 0.0203113 0.092754
2668 12.0049 5.68311 5.44402 -0.889318 0.233042 0.392707
953 19.9513 8.10937 4.96357 0.0338326 -0.321355 -1.31847
1632 63.4353 8.29149 4.26627 -0.235632 -0.231515 -1.05751
3551 32.6908 11.0081 5.35006 0.324176 1.8433 0.386826
248 55.8672 10.9167 5.37428 -0.752169 -0.382545 -0.030705
2374 6.70339 13.4157 4.67227 -0.448403 -1.94753 0.37232
1334 15.622 13.4348 4.34765 2.47594 1.24287 -1.2017
3070 23.3515 13.8508 5.32538 -0.351759 -1.4051 0.0788949
242 69.6755 14.4149 4.7367 0.557697 0.624714 0.273587
1717 12.381 18.1458 5.2627 -0.45217 0.717215 0.221816
2167 57.8677 17.3149 4.65289 -0.458909 0.248158 -0.990608
2802 13.5121 19.1228 4.52968 0.454058 -0.27205 0.986415
2384 40.1025 19.6367 4.87114 1.28938 0.698625 -0.659786
436 26.5487 22.5875 4.67718 -1.60452 -0.944965 0.497714
3370 30.9229 22.0668 5.62722 1.44543 -0.276386 0.697991
3479 50.6847 21.4853 5.3102 -0.925725 -0.576213 -1.40613
415 24.7477 22.8315 5.37138 1.02809 -1.94148 0.286072
3557 37.1043 23.973 4.67614 0.408432 0.850791 -0.585912
1297 18.916 24.3378 5.36678 -1.59042 0.583329 0.343997
2249 24.0299 25.3758 4.62479 0.804504 -0.809777 -1.15634
1302 48.4537 24.7736 5.55116 0.19814 0.889057 -2.30423
2660 32.6389 25.6997 4.59764 0.529276 -0.435402 0.677268
3908 64.7234 26.5744 4.38018 -0.695586 0.645303 1.29715
1498 68.065 26.5944 4.88345 -1.30728 0.669744 0.189362
3672 1.93709 27.0602 4.94825 -2.16974 -1.81237 1.08052
840 9.98204 27.9172 5.48527 -0.329595 0.379517 1.07053
3745 4.3118 29.301 5.36904 -1.68527 0.584835 0.389291
1327 58.1765 30.2892 5.2247 -0.141149 -0.616814 -0.412123
1489 65.3439 32.2597 4.39579 0.91955 -0.603175 0.700134
849 71.8379 32.0055 4.95094 -1.56766 1.11386 -0.524966
885 48.6527 32.6408 5.03969 0.156211 -2.02674 -0.594375
3914 8.6589 36.1439 4.52686 -0.563319 1.16643 0.726433
2258 33.4307 36.3584 5.24394 0.692615 0.102415 0.196925
406 4.37703 0.396414 5.9811 -1.18611 -1.46774 -0.696332
569 9.56701 0.438042 6.19875 2.33297 -0.630967 -1.55875
2959 28.6633 1.33522 7.00052 0.100209 0.402439 0.917876
1651 8.66365 1.42855 6.25093 -0.701433 -0.858402 -0.70711
3698 56.926 1.70944 6.73836 0.545174 2.28572 -0.759113
3814 58.222 3.79371 6.0789 1.50309 -1.61342 1.12113
315 61.8028 3.54912 6.75123 -1.66438 0.389674 -0.871056
334 70.1368 3.2857 6.4618 -0.926937 -0.0247955 -0.318594
471 51.2786 4.9036 6.83017 1.27827 0.7638 0.799069
2638 14.587 6.0195 6.32116 -0.765394 0.725419 -0.0334515
3203 34.7689 8.50802 5.82476 0.237133 1.25181 1.34402
1405 9.88193 14.8438 6.02162 2.06677 -0.440596 0.132061
3296 40.6264 14.7179 6.5373 1.64532 -1.47913 0.0196251
563 34.4852 16.3794 6.0033 0.312047 -0.0536223 0.0386728
1567 2.39811 18.3959 6.83357 -1.13626 1.91813 1.97832
657 9.88381 17.8614 6.3637 0.646155 -0.306616 -0.632931
760 30.5135 17.567 6.68501 0.661574 0.133313 0.656552
2847 31.0109 18.6113 5.78038 0.103169 0.039504 -0.922592
3596 67.9703 22.0393 6.03304 1.00914 -1.47307 -2.59094
3365 44.1861 22.7376 6.72749 0.237118 0.741924 0.0467231
25 51.2531 22.8509 5.81533 1.37937 -1.47738 -1.0662
1519 61.4604 23.4701 5.85132 1.36481 1.09468 -0.762195
1780 18.4467 24.27 6.54343 0.285048 0.609187 -1.64819
1598 23.8671 25.4717 6.68495 -1.09835 -0.572558 -0.399051
458 30.9495 25.9616 7.06247 -1.91362 0.112423 -1.26962
2714 41.4159 26.8379 5.99358 0.573455 0.842051 1.72726
276 3.17059 27.8538 5.68441 -1.42754 -1.24552 1.90576
822 39.1983 27.073 5.90125 -1.44917 -0.783675 0.700656
34 45.7153 27.0365 5.93539 -0.0696413 0.350903 -0.257339
145 46.0814 28.652 6.63775 -0.98739 -1.23941 0.331419
1281 4.61313 29.9721 6.18956 1.62435 -0.681294 0.057417
1588 40.1272 30.2303 6.69793 0.132704 2.45104 0.345701
670 4.42367 31.7181 6.42898 0.222032 1.24572 0.748557
1595 5.8908 32.8539 6.80006 -0.78509 -0.409737 0.080096
3760 49.2408 32.7097 7.04526 -0.47403 -1.54259 -1.04264
3742 2.37052 35.2441 6.66129 0.0911887 -0.728247 0.770544
2190 4.40698 0.0943036 7.97083 -0.00970467 0.835509 -0.879145
675 62.3585 0.154611 7.29741 1.63062 1.77612 -1.32883
55 12.0892 2.53889 7.38469 -1.6152 0.668332 0.424389
1036 53.9415 2.28283 7.24694 -1.00083 0.475806 -0.785401
1562 5.26654 2.86952 7.15463 -0.489757 0.615961 0.583968
536 4.46213 3.91639 8.37897 0.207588 -0.915214 -0.772964
3346 16.9486 2.90933 8.42997 -1.86019 -0.15889 -2.21721
1127 29.0936 3.06949 7.45219 -0.324402 0.208104 0.583846
1610 29.8887 3.24906 8.26271 -0.24228 0.496548 -1.77509
2414 65.7267 4.51844 7.9483 -0.0609065 0.930089 0.462137
3428 14.0536 6.1158 7.26689 0.520144 0.832003 -0.502253
2889 0.12906 7.25431 8.10949 0.0720004 -0.884774 0.769746
957 6.35076 8.0231 8.00185 -0.132828 -1.80604 0.588901
3592 45.4748 7.42257 8.44368 1.11513 -0.164475 0.222228
2431 6.54841 9.38444 8.02083 0.805925 0.17075 -0.856019
3288 11.7083 10.6317 8.33291 0.87095 -0.267857 2.13274
829 3.9485 14.6039 8.38082 1.44286 2.42021 -0.650297
2621 25.2869 15.1343 8.28502 1.16496 -0.479019 -0.529218
3746 12.4898 17.3995 7.17813 -0.519827 -0.386793 1.06164
3520 29.5283 17.3656 8.38817 -0.336476 -0.0115017 -0.351128
1849 50.8147 21.1956 8.2268 -1.29699 0.722469 -0.439712
1421 59.3535 20.2001 7.64645 0.622138 1.19257 1.35088
3459 43.1352 21.2871 8.09852 -0.277823 -1.84892 -0.71471
3170 45.5405 23.2872 7.21669 0.0357716 0.366683 0.219421
3443 70.7528 23.6819 7.33089 -0.157588 0.623765 -0.239248
461 70.7217 23.2487 8.34253 1.5975 -0.808144 -0.0745346
1916 63.6171 26.4505 7.93272 -0.00424916 1.1385 1.0877
3246 25.0615 27.3217 8.46957 -0.268857 1.83947 -0.172034
2133 51.8561 28.327 7.86142 -1.72906 0.0301532 -0.933688
2079 9.96623 28.4987 7.91016 -0.140013 0.653264 0.00216249
3846 32.6215 28.7799 8.05449 0.430064 -1.23536 0.790695
435 31.5118 31.4645 8.00132 -1.12445 -0.610696 0.821083
1841 50.1563 31.349 7.98349 0.0378456 -0.0328493 -0.611179
3039 56.1838 32.5622 8.22587 -0.305114 -0.358329 -0.462068
92 2.44928 33.8663 8.13362 0.431958 -0.684608 -0.449628
3953 6.1496 33.868 7.49666 -0.700275 -0.788973 0.254471
2807 7.07661 33.4235 8.06019 1.21304 0.910318 1.46666
2090 16.4435 32.703 7.56621 -0.939627 -0.587906 -0.601425
1584 21.1243 33.6177 7.63575 2.07932 0.0458308 -0.932486
2220 47.7185 35.9855 7.17045 0.874945 0.123836 -1.29361
2724 42.5359 2.76249 9.80279 -0.400972 -0.158054 -0.0545676
869 26.1093 2.85403 8.969 -0.625363 -0.203973 0.627899
1180 5.11108 4.53695 9.55735 0.857752 -0.981934 -0.832083
3740 39.0806 6.31289 9.76069 -0.177658 0.0170701 0.0822853
2589 45.4935 7.00753 9.59965 1.83716 -0.94008 -0.432034
520 31.2254 7.61963 8.81582 -0.863483 -1.11023 -1.62501
1294 34.1025 8.013 8.60406 -1.0228 -0.103036 -0.669355
1153 14.43 11.889 8.55926 -1.78255 1.01422 0.621897
3616 64.3423 11.4566 8.70722 -0.850763 -2.74396 1.65405
1688 49.6253 13.1736 8.74155 0.403762 0.243855 -0.0245786
130 67.0464 13.1832 8.72987 0.343996 2.37824 -0.141186
672 3.90072 15.3193 9.6606 0.498706 -0.309569 1.27889
1062 6.30337 14.5153 9.3975 1.45111 -0.235681 -1.29696
89 68.0533 14.4176 8.79088 -0.733551 -0.810947 -1.11869
1304 9.28954 16.5619 9.78314 -0.585369 -0.0507178 -0.61982
3545 22.4246 16.0233 9.6842 -0.40246 0.838875 -0.359527
3301 49.4799 15.9846 9.28185 0.482891 -1.58254 -0.321433
2075 53.3393 16.0565 9.38738 -0.177343 1.32181 -1.13516
2516 7.39148 18.0117 9.53059 -0.881198 0.221398 -0.0494878
1858 20.2913 18.1089 8.82983 0.768278 1.20395 -1.44407
500 66.3146 19.3559 9.6521 0.93445 0.379236 -2.39524
101 73.4601 18.877 9.12511 -2.38032 -0.672491 0.0535051
1640 42.431 20.8471 8.72532 -0.634572 -0.962111 -0.395363
1266 14.0536 22.1846 9.76527 -0.630577 0.582632 0.939835
1572 17.5606 22.8932 9.70522 0.1024 -0.726502 0.448168
1887 49.9261 23.7817 9.24351 -0.907845 0.196196 1.41852
713 36.5957 24.3108 9.80889 -0.735439 0.0742314 -0.434163
2820 54.3702 24.5785 9.72902 -0.167449 0.0454056 0.0635682
971 57.3503 25.2235 9.67158 -0.280983 1.47045 -1.03122
1330 67.9691 24.2141 9.58463 3.01698 0.571927 -1.15428
61 41.5087 25.8613 9.46983 1.39857 -1.10421 -0.31553
3074 49.34 26.0597 9.74939 0.563665 0.565614 1.69466
3328 28.4336 27.4093 8.60192 -1.59007 1.06517 -1.1859
747 37.4035 27.8362 9.83876 -0.419377 0.339122 0.528029
2500 45.8617 28.4538 9.46553 2.07961 0.175221 -0.30031
2521 64.4651 29.4833 9.03087 0.480752 -0.396446 0.570349
1423 29.635 30.4087 9.47769 2.68804 -0.235236 0.823029
530 4.13345 32.0494 8.8795 0.626198 0.202807 -2.61893
1332 27.0046 32.3848 8.53784 0.246307 0.290878 0.311709
1785 24.0237 34.288 9.33968 -0.128197 -0.907987 -0.218928
936 72.7701 35.5481 8.84961 0.231153 1.12104 0.297955
3017 29.1515 0.628787 10.798 -0.78229 0.122943 -0.315875
185 36.6909 0.583431 11.304 0.278606 0.815381 0.425495
39 70.9223 0.627236 10.4699 -0.180567 -1.40212 0.307145
3832 26.7776 2.12785 11.2186 -0.478916 -0.231899 0.330332
1702 64.8925 4.14217 10.3992 -1.36567 -0.0721057 -0.727334
1636 68.9817 3.2781 10.7564 -0.0157165 1.04481 -2.22312
3458 73.2829 4.13501 10.0788 0.474898 -1.98617 -0.432615
1389 37.1927 4.86669 11.0342 -0.823282 0.487191 0.0350162
3605 70.9052 5.61116 10.6788 0.213699 0.702742 -0.128915
4 67.9506 6.02695 11.1349 -1.23405 0.0374352 -1.04796
688 40.9593 8.48687 11.1457 0.240925 2.4681 0.2535
1111 28.9125 9.20888 11.2888 -0.642161 -0.503345 0.190526
3720 50.4275 8.92967 10.74 -0.68129 2.1722 0.444223
1374 49.653 9.68736 10.3658 -0.51547 0.277699 0.454893
2611 70.9098 8.84989 11.0197 0.080787 0.514374 0.702536
1786 26.5307 10.6582 11.0101 -2.08415 0.358735 0.513192
3163 58.1161 13.2907 10.4018 0.209279 0.371092 1.15307
414 1.26451 14.2316 10.2332 -1.23471 0.30342 -0.372357
1038 48.7613 15.5358 10.13 -0.389698 -0.239822 0.442776
3334 54.4289 15.1527 10.1397 0.0953879 0.982443 0.736616
1779 59.4219 14.5426 10.538 -0.297273 -2.10482 -2.90073
3574 64.0892 16.2304 10.6578 1.73024 0.0490721 0.294824
3143 66.3167 16.8195 10.2406 1.58287 0.099301 2.20047
1628 14.9863 19.6684 11.024 0.317134 0.207403 0.412771
3541 62.376 19.8361 10.1636 0.619889 0.74263 -0.279426
2816 55.6837 22.1814 10.0139 -1.67526 0.356144 1.4173
2450 56.7337 21.4123 10.2443 -0.526968 -1.1231 -0.162235
770 5.08928 24.7359 11.2205 -1.20598 -1.16706 -0.802062
1533 51.2637 24.5289 10.4395 0.220776 -0.286223 -0.325092
1287 7.18347 27.728 10.1203 0.057034 -1.28168 0.917684
752 46.1456 27.1433 11.3348 0.245879 -0.068321 -1.92967
2824 59.4572 28.2306 10.8947 -0.670171 -0.661943 -0.195996
710 13.23 29.6072 10.685 0.402152 -1.47475 0.591587
1955 22.7893 30.8387 10.4603 1.80385 0.0191985 -0.599688
54 37.8943 30.8489 10.6086 1.30965 1.07334 0.569967
240 52.3591 29.8328 10.2752 -0.212769 -1.31563 0.738504
2125 26.6141 32.1747 11.1129 -0.554868 -1.65381 -0.273501
2460 23.3651 34.0393 11.2299 -0.904778 0.290867 0.519722
961 18.4928 36.6907 11.0747 1.48339 -0.826133 1.84362
2781 44.6403 35.6374 11.0823 0.0554497 -0.0235082 1.17915
756 31.8797 0.317717 11.9427 0.966332 -0.753285 -0.173033
2718 57.6693 0.886736 12.1548 0.182328 1.47751 0.887545
3124 65.7502 0.250779 11.621 0.463357 -2.30583 -0.671764
3021 25.5704 2.4344 11.7864 -0.237342 0.36076 1.47351
1018 57.4968 2.72806 12.7395 1.9394 1.30735 -2.19695
831 32.8635 3.05013 11.8914 0.302762 0.830676 0.0667339
1964 37.9453 3.49759 12.66 1.00815 0.635758 0.982467
3390 66.7778 6.17628 11.6001 -0.224495 0.569933 0.815706
129 5.70018 8.75215 11.8153 0.596762 2.16605 1.1765
1030 57.3839 9.76313 12.5333 -1.57843 -0.09817 1.5163
2723 25.3519 11.0814 12.0409 1.45841 0.362588 0.470898
2666 29.2813 11.5099 12.1149 -0.619474 -0.488349 0.259276
469 68.7769 12.5053 12.4588 0.798613 0.410976 -1.78899
3354 23.1035 12.8484 12.0953 -0.111685 -1.94733 0.116187
3791 25.2582 15.2727 12.239 0.226746 1.30757 -0.284702
2036 49.709 14.3766 12.1658 -1.23368 -0.291308 -0.220718
1947 14.6716 16.4415 12.0593 0.633637 1.04446 -2.5664
1960 55.7861 16.1557 11.8483 1.14452 1.29088 -0.0947774
1894 67.5349 16.8391 11.3505 0.529618 -2.35093 2.82214
1645 46.9846 18.5636 12.6669 -2.13097 -0.197425 0.0239259
1629 20.7712 20.3231 11.8179 0.424971 -0.685432 0.248654
2567 1.27556 21.9574 11.8197 0.761851 0.251658 0.99377
2376 5.86339 21.8315 11.4643 -0.793507 -1.05571 0.60743
1692 30.422 21.4691 11.5995 0.596352 0.109587 0.265301
2527 48.9502 22.6505 12.1361 0.2161 1.34975 0.106821
3841 1.51764 23.7069 12.6933 -0.874615 0.363769 -1.21997
2188 30.5166 22.8187 11.342 0.35271 -0.352521 -0.193147
3721 51.5838 23.0301 12.7057 0.242567 -1.09201 -1.34494
3415 53.5457 25.1506 12.0796 0.467743 -0.509098 -1.75924
906 56.1066 24.8856 12.0206 0.745488 0.82215 -2.12489
1872 13.8314 26.1658 11.8694 1.19361 -1.23148 -0.429457
2085 44.462 26.5804 11.6779 -0.225785 0.328961 -0.0110778
3579 3.85705 27.9573 12.1952 0.919928 -0.475876 0.252277
1100 23.4651 29.6209 11.4349 -0.519191 0.130513 0.166955
3192 22.7769 28.7247 11.4075 1.59926 -0.238789 -0.246981
3893 63.1045 28.7782 11.3957 -0.0608481 0.0247502 -0.464721
1596 67.8382 29.4037 12.5047 -0.0233237 -1.2482 -1.01842
875 72.8411 28.5153 12.4589 0.0301834 0.39812 0.18591
859 22.3238 30.9073 11.8956 1.74108 -2.09183 2.01069
380 48.0469 30.2202 12.0123 0.55885 1.76781 0.457717
2013 3.27573 35.2588 12.7096 -1.47364 1.23702 0.510535
3615 7.11035 0.582119 13.0671 0.479453 -2.16761 -0.500139
3588 37.778 0.589537 13.9671 -0.0325951 -0.208163 1.16645
3018 45.3012 1.01685 12.9567 1.1285 -1.06692 -0.517189
3608 34.7348 1.96986 13.2309 -0.190396 0.212213 2.15009
1477 60.5416 3.08702 13.634 1.39312 -1.75151 -1.45424
1193 55.6571 5.07694 12.7904 -1.58168 1.33376 -1.24247
3243 21.4219 6.48476 13.9881 -0.215301 -0.739045 -1.03791
38 28.28 6.03517 13.9735 0.0330584 0.879929 0.69129
2351 73.3335 5.70751 13.231 -0.687988 3.31678 -0.723099
2505 38.1442 8.01372 13.5399 0.477595 -1.10795 0.103319
1097 2.42495 8.93653 13.1744 0.147393 0.415645 -0.809159
3921 50.7717 9.15553 13.9219 -0.635521 0.118986 -0.719836
1481 53.6802 9.89712 12.9335 -1.63819 0.640988 1.52145
3364 31.822 10.4788 13.2635 1.04029 -2.08895 -0.220407
1083 65.1693 10.1693 12.7613 0.446553 -0.444265 0.00701956
377 23.3102 12.4723 14.1656 -2.43733 -1.0583 1.17674
3323 69.2194 11.9422 13.3075 -0.318075 0.970925 0.842962
2198 38.6125 14.5622 14.1094 0.810017 1.49744 1.49173
3032 58.9052 16.0429 13.3499 -0.647457 -1.26475 1.16077
3230 8.94437 17.2578 13 -0.521886 0.732266 0.655102
3 19.2836 17.3532 13.2226 1.38469 -0.281644 0.259618
1508 28.6952 17.0811 13.1336 1.66519 0.367082 -0.455473
692 35.7847 17.2704 14.0493 0.164634 -1.03241 -1.29167
705 5.20261 18.5545 12.8691 -1.14245 0.549836 1.16421
545 30.7167 19.9764 13.6394 1.21138 0.056585 -0.526345
3299 66.1557 22.4002 12.8337 0.749899 0.74863 0.824687
2241 71.7964 22.001 13.3096 -2.04597 1.48604 0.0215544
3946 71.2844 23.0279 13.3042 -2.0127 0.437604 0.69248
346 8.21834 24.9573 13.4833 1.27652 0.463016 3.32812
794 27.435 25.8844 13.0346 0.47603 -0.146972 -1.28145
2120 12.7228 28.776 13.8128 0.193407 0.619161 -0.974429
3529 67.9344 28.5169 13.5468 0.37439 -0.688081 0.135342
3278 68.1201 30.3083 13.2329 -0.792376 -0.871224 0.545223
2385 4.17328 31.4309 13.5012 -0.488358 -0.327947 0.984817
1949 55.1149 31.7399 13.9042 -0.579659 0.812459 -1.75751
2548 23.4256 33.048 13.8814 2.10943 0.436373 0.532388
2973 53.2266 35.2685 12.9134 -0.313426 -1.63746 -0.16616
2116 30.4871 36.4706 12.9209 -0.305226 1.34897 -1.64996
2817 4.32359 0.173383 14.651 -1.8506 -0.309853 -1.46564
1502 27.6078 0.0315691 14.5844 -0.305027 -0.0446916 1.763
1855 27.5294 1.11859 14.6852 -1.3267 -0.49216 0.955921
2514 16.477 2.34904 15.5796 -0.171473 0.25794 1.05341
543 59.9421 2.59804 14.6353 -0.675684 0.292717 0.292715
1647 10.2103 4.66419 14.3042 0.911415 -0.930534 -1.22329
3388 45.3534 6.02259 14.2227 -0.708756 -0.306843 0.780314
3102 3.32629 8.01733 14.7469 0.664522 -1.3459 -0.10488
1438 45.9113 8.34839 15.093 -0.0311375 -0.612326 2.14446
1158 16.7667 9.56263 15.14 -0.278974 0.835731 0.112367
784 38.8367 8.5386 15.174 -0.137194 -0.719669 1.55828
1408 64.5657 8.67223 15.077 0.534362 -0.366337 -0.575753
847 24.5442 11.2922 14.4839 0.797439 0.378132 0.874412
2387 68.6003 10.1604 14.7827 1.70574 0.0571365 0.81245
2636 38.1657 16.2139 15.1867 -1.50853 0.218063 0.303079
42 7.96891 17.3537 14.7633 0.63331 -0.0466938 0.55457
3350 54.9445 18.1243 14.3015 1.51782 0.172118 -0.20296
482 29.6391 19.1249 14.6536 -0.171355 0.112478 -0.0307318
774 36.519 20.6419 14.4594 -2.16266 0.638504 -0.602093
1775 43.7038 20.0441 14.6233 -0.672581 0.856393 1.88886
2584 8.39637 22.3998 15.2904 -1.16282 -0.111187 -0.64705
1137 71.9517 23.5787 15.3284 0.204425 0.678216 -0.229431
1312 47.582 25.1896 14.7737 -0.962527 -1.62237 0.56629
3394 8.02205 25.755 15.2376 1.4918 0.0418362 0.284866
427 32.4519 25.6423 14.3598 -0.603671 -0.157806 1.26884
2612 39.6206 26.359 14.3676 -0.525436 0.83159 -0.265177
2938 23.1349 27.7738 15.1891 0.619167 1.57719 -1.09423
3722 49.4756 27.3717 14.8507 -0.827364 1.1046 -0.335201
2334 58.7958 29.0709 14.3341 1.92383 0.874915 0.483177
3304 41.6829 30.3797 15.0265 -0.499826 -0.426303 -0.00397741
259 44.1456 30.2936 15.2995 -0.332254 -1.05315 -0.432965
1370 60.0358 32.1181 14.7788 1.53853 0.173047 0.724995
2923 54.5554 33.6873 14.9608 0.325862 -1.76551 1.25474
275 30.873 35.3906 14.4786 0.516865 0.883727 0.697014
1048 18.0462 0.674668 16.3629 0.0939756 1.23065 0.465272
1813 39.658 0.340362 15.6835 -1.28792 0.63424 0.328361
3312 18.1745 1.79532 16.5478 1.35431 0.842376 -1.29265
2941 66.8941 2.34122 15.836 0.705595 -1.10574 1.75639
1726 64.261 3.63605 16.549 -0.231605 -0.00410915 -1.01962
1718 57.1896 4.29463 15.6371 -2.95074 -2.13544 -1.52037
2397 4.07311 5.94972 15.6856 -0.370638 0.721778 -0.0829403
3673 6.2439 6.87177 15.8404 1.04642 -0.153346 0.461114
3575 14.6107 6.47145 15.7975 0.181917 -0.564543 1.59632
3663 57.6726 6.74894 15.6674 -0.777387 0.213521 0.450864
3564 1.21845 7.13661 16.5484 -0.895903 -0.617732 -0.724314
2045 31.184 7.62643 16.6465 -1.097 -0.0327366 -1.01756
225 8.3091 8.81155 15.9205 0.0673761 0.620598 0.131687
429 8.56508 9.8995 16.935 -1.13413 1.43888 -0.350998
2634 7.77823 11.7943 15.8935 -0.678427 0.916208 -0.772562
1273 69.7448 13.1181 15.6258 0.848513 -0.108541 1.8549
502 72.7706 13.1982 15.5871 -0.734021 0.499166 0.13868
1621 29.8222 14.2489 15.6858 -2.57717 -2.22685 -0.649229
2156 17.429 16.0437 16.2884 1.71923 1.18596 1.83919
1745 23.6006 16.3583 16.8865 0.585535 1.37283 -0.0160525
2489 23.2408 17.6673 15.9821 1.17649 -0.313341 0.845716
2136 24.6152 20.2454 16.6942 -1.68719 0.0169455 0.0339972
3434 28.0543 20.1346 15.8845 1.53284 2.72507 -0.779467
3464 49.4034 21.0048 16.208 0.267228 -1.45794 -0.151001
2299 16.1288 23.578 16.0081 -0.180756 0.220331 0.581351
2906 22.6229 25.3754 15.6195 -0.243035 0.972752 -0.929551
1293 25.9868 24.2168 16.2686 1.52311 0.214873 -1.10937
3041 65.8252 24.5085 16.7188 -0.928292 0.203741 0.0648449
812 33.8218 27.9528 16.579 0.928007 -0.257957 -1.12383
3868 55.9738 27.7895 16.0311 0.426746 1.2178 0.59908
1599 59.3108 27.5818 15.7971 -0.0296217 1.39287 0.738107
2295 64.4666 26.9466 16.066 -0.415926 -0.932943 0.690576
3090 39.7493 28.8041 16.0277 -0.314744 -0.169051 0.118747
1556 60.3386 30.459 16.2197 0.692436 0.578245 0.0850423
1480 60.7884 31.2682 15.6775 -0.500807 -0.0398343 0.62257
1881 59.7958 31.3041 15.6834 1.48187 0.729643 -0.31438
2360 69.8612 31.6051 16.2138 -2.33845 -1.05428 -0.0980325
676 48.6022 32.6203 15.9797 -0.190296 -0.286549 0.73398
3015 7.64346 34.1428 16.2435 0.418612 1.09921 0.448033
581 67.2662 5.43763 18.209 -0.762928 -1.75277 -1.43618
851 64.5746 8.33469 18.3614 -1.2208 -1.52391 -0.475319
265 72.7032 7.32185 17.8487 1.09507 1.5982 -0.67754
2015 16.4659 8.79397 17.503 -0.0440482 -0.763904 -2.16594
1891 39.4983 8.66561 18.3135 -0.895271 -0.00675074 -0.20249
2231 56.5879 9.86341 17.1657 2.52876 -1.14592 1.20567
3156 5.38972 10.1479 17.6013 0.318507 -0.41477 0.655248
3890 4.39797 13.0147 18.0721 0.0689014 0.380066 -0.846105
449 25.6634 14.0024 17.4181 -0.135684 0.176271 -1.09891
2963 8.62359 14.6596 17.9675 0.750156 0.0843178 0.369593
1246 14.6828 14.4609 18.0449 -1.27864 0.281518 0.977416
749 18.2463 15.8918 18.2736 0.0456702 -0.38295 0.0335475
424 54.1682 15.7088 17.6415 -0.720454 -0.853768 -1.7499
583 37.0091 17.323 17.2118 1.58041 -0.841077 0.589763
1300 54.0788 20.2617 18.1494 0.102584 2.49693 -1.71118
2477 14.1987 23.7885 17.3437 -0.305611 0.270663 0.312961
3991 60.3466 23.1588 18.0943 -0.145674 0.229872 -0.207066
329 15.3861 24.4186 18.361 -1.20132 -0.628828 -0.818645
2175 21.0688 24.7945 18.1393 -0.540388 0.242735 -0.889144
1868 32.6744 28.1041 17.4186 0.714654 -1.90527 -1.64708
1517 70.4942 26.9864 17.7775 -0.848661 0.789725 -0.273585
2373 18.7052 28.351 18.0249 -0.316395 -0.0410732 -0.875863
3009 61.0949 29.0122 17.0436 -0.359878 -0.0471533 1.34672
2395 47.9525 30.0235 17.7288 -0.733551 0.876322 0.189841
949 63.7517 30.582 17.7985 1.11734 -0.851236 0.272255
2311 39.1014 31.5687 17.7752 -0.0119471 -1.0655 1.21933
2868 59.5159 31.2722 17.1348 0.170586 0.633054 0.817612
2635 33.8421 32.9626 17.0412 -1.44176 -1.2235 0.29272
504 64.7547 33.7101 17.8765 -0.930579 2.58479 -0.0447378
3244 31.0957 34.406 17.6173 -1.1448 -0.900535 1.74697
2605 60.6521 34.2303 18.1975 -1.30334 2.46359 -0.478541
635 69.876 35.241 17.4425 -1.65741 -0.777958 0.857391
726 44.0493 36.5254 17.4442 0.876523 0.0762667 -2.66631
634 50.2127 36.591 17.3765 0.722666 -0.212953 -0.0119104
3860 44.3058 1.24927 19.5516 2.19403 1.17357 0.0383748
1557 53.036 0.826588 18.5918 -0.0338161 -0.101185 -0.625954
3825 62.6756 2.12957 19.5188 0.303032 2.04956 -0.311186
3709 10.247 3.1606 19.4606 -0.176759 0.407295 -0.22972
2449 63.2584 4.63282 19.7253 0.104926 2.31604 0.884375
620 48.8633 6.98851 19.2681 0.249392 -0.0860557 0.0293756
3924 67.5472 7.00162 19.5772 -1.0426 1.26881 1.34168
637 46.0695 8.92552 19.1952 0.998369 -0.308928 0.49627
989 56.0482 9.71794 18.9128 0.139691 -0.54096 2.2237
410 36.9283 11.9401 18.5771 0.619273 -2.91524 -0.232874
1710 45.3863 12.0739 19.0107 1.48444 0.0456165 -0.228249
910 48.0742 13.3022 19.5854 0.896515 0.335302 0.56654
2839 22.0144 14.6727 19.8197 -0.755186 -0.310154 -0.981049
3213 55.5931 15.8041 19.097 -0.92186 -0.194867 -0.33738
666 71.6875 15.7178 19.3262 0.68717 0.0817212 0.568061
1622 10.9879 17.7679 18.4365 -0.417575 -0.550141 0.294536
1319 44.1003 17.3557 19.5653 0.144102 0.318358 0.290804
3167 40.3766 20.3815 19.6773 -1.28897 1.68041 0.0946343
1409 16.1244 22.75 19.5355 0.236947 -0.849839 1.61863
1241 45.2363 22.8187 19.8197 0.769634 0.906357 0.55093
777 46.3824 24.0843 19.7314 0.0269036 -1.39466 -1.74085
1092 51.6871 22.8445 19.2406 -1.4945 -2.44016 -0.772544
3212 62.2067 23.3458 19.0121 0.0442321 0.537548 -0.246096
3386 65.0893 25.158 18.9364 -0.696041 -0.422505 0.78309
2661 71.4174 25.3806 19.2049 1.02415 0.137374 0.731774
330 44.9326 26.3439 18.5089 0.0593716 -0.189994 -0.102563
256 48.3982 27.8915 19.8084 0.825734 0.48742 1.32277
1922 65.403 28.3183 18.9116 -0.587072 -1.15018 0.249806
2025 19.3677 28.5509 19.0221 0.481122 0.0155677 1.20359
3324 20.9568 29.7114 18.9706 -2.31456 -0.745661 0.78687
202 8.72491 30.7537 19.4766 0.279125 0.604998 -2.17887
3771 18.3444 34.3795 19.6872 1.08191 -1.01729 -0.0798891
529 70.4458 34.6215 18.5765 0.346948 -0.480698 -0.966267
1806 41.5508 36.7526 19.5596 0.460657 -1.24234 -1.40129
2880 46.8693 36.6923 18.8293 0.223862 -0.771009 0.339565
1424 24.1074 0.922036 20.3914 1.33605 0.0208244 -0.920316
1566 9.69773 3.50888 20.7778 0.0110868 0.178589 1.34567
3510 60.4122 3.60252 20.534 1.29516 0.652538 0.505374
3754 5.34491 5.17215 19.9011 -0.0964402 0.300699 1.27974
2291 38.1187 4.25544 20.5867 1.05369 0.222303 0.717396
2907 24.0051 8.33946 20.6881 0.115872 -1.13721 -0.449679
1613 3.08217 8.73838 20.0629 0.11586 -0.897101 1.33176
3888 22.6533 9.91583 20.3436 0.298724 -1.00774 0.772648
1362 14.3759 9.92614 20.9427 0.680587 -1.45827 -0.109605
3531 31.2141 10.7285 19.959 -0.859869 0.785693 0.488455