ITEM: TIMESTEP
50000
ITEM: NUMBER OF ATOMS
4000
ITEM: BOX BOUNDS pp pp pp
0.0000000000000000e+00 7.3680629972807722e+01
0.0000000000000000e+00 7.3680629972807722e+01
0.0000000000000000e+00 7.3680629972807722e+01
ITEM: ATOMS id x y z vx vy vz
1423 59.6411 0.692905 0.441048 0.493909 -0.832489 0.141825
2221 50.8207 1.87393 1.3024 -0.116052 0.359896 1.49541
1465 52.3127 2.71728 0.164086 -0.633365 -0.0380351 0.00218635
1331 41.5659 3.41203 0.947552 2.12264 0.393638 -1.81726
273 54.3245 3.87261 0.693015 0.567773 1.23116 -0.302152
2012 19.0783 5.09489 0.424728 -1.04165 -0.00773959 -0.696776
1538 28.5007 5.1886 0.81927 1.01172 -0.63488 0.199007
532 66.7868 5.20235 0.234624 -0.245732 0.772699 0.853679
3366 60.7422 6.83158 1.06428 -1.40067 -0.0977508 0.0778909
2736 64.7031 5.8932 1.2272 -1.12434 1.14266 0.385998
3673 66.1414 6.36081 1.18594 -0.18802 1.68731 0.45205
1088 50.4161 8.34197 1.01653 -0.490463 1.21135 -0.798417
2477 58.7797 7.3929 0.610955 -0.0605316 -1.16404 0.551836
224 0.160021 10.7456 0.128047 -2.0417 -0.716755 -0.203155
3331 8.93795 10.0595 0.846875 -0.628842 -0.362914 -0.0309649
1024 20.0485 10.5853 0.9966 0.438405 0.769106 0.00855547
3392 14.7491 13.043 0.193047 1.8699 -0.0332802 0.0288492
3299 71.6728 14.1571 0.586068 -0.144974 0.443463 0.0746176
3310 30.8393 18.1193 0.331944 -0.703456 -0.338667 0.215272
2962 33.0258 18.2253 0.185086 0.354413 -1.53646 1.20499
709 39.3943 17.6336 1.06925 -0.233179 0.467778 -0.0541052
1594 61.4539 17.958 0.85241 0.191913 -1.09307 0.260945
1346 63.8301 17.1315 0.279513 -0.838261 1.21122 -0.213368
1802 34.9936 21.4135 0.902905 0.417504 0.489603 -0.884437
1356 10.9108 22.7998 1.02978 0.165641 3.01497 -1.21803
198 53.4443 24.2138 0.531317 -1.53461 -0.718818 1.27004
1440 60.5841 25.2663 0.579218 1.13275 0.117741 0.708767
3745 66.2764 25.9028 0.173472 -0.527446 -0.672987 -0.0493383
2158 33.047 27.0924 0.0104404 1.71625 -0.945895 -0.58482
1201 58.2533 27.9336 0.226414 1.10523 0.768912 1.86833
1998 6.40879 29.1297 0.190698 -0.432457 -1.11975 -1.0522
1410 19.8354 29.2053 0.442433 0.5572 -0.453901 0.187156
1939 26.9263 31.1598 0.236023 0.909841 0.125168 -0.472534
2449 5.30921 32.2415 0.652124 -0.42923 -0.60203 0.727466
2722 14.7429 31.6964 0.447244 -0.645183 2.3332 -2.06676
190 66.8588 31.637 0.817792 -0.91376 0.769184 2.59147
3778 44.2775 33.8826 0.230973 1.21134 0.926677 0.00901857
94 53.9959 32.9903 1.18162 1.37554 -2.00859 0.815607
1961 10.9833 34.8329 0.732928 0.301627 0.0583565 1.50784
668 27.8359 35.8206 0.758352 -1.75447 -0.0956314 -0.926828
85 29.49 36.4632 0.617529 -1.03745 -1.1991 0.539575
1134 19.2812 1.19688 2.26194 -0.978381 0.827677 0.549203
2225 61.1706 1.81227 2.56586 0.844406 0.164417 1.1187
2036 65.5338 2.05545 2.05758 -0.90373 -0.104363 -0.0334925
858 66.0412 3.45896 1.41711 0.748022 2.05133 -0.74406
989 31.9824 5.1985 1.93914 -1.81532 -0.18373 0.100575
3393 70.2773 5.06233 1.93642 -0.224264 0.965469 0.102717
2480 48.4889 6.96476 2.813 -0.741373 -0.448314 -0.732384
1902 19.8362 7.81324 2.39861 -0.419754 0.569568 -1.19754
3942 52.7705 9.42894 1.60866 1.25961 -1.77523 0.167747
1181 72.2591 9.07427 1.41923 0.581549 1.07651 0.662123
702 18.4401 10.8259 2.44611 -0.460639 0.452814 -0.756893
3704 21.4391 14.6796 2.77757 2.67585 -1.75814 0.127047
2379 49.3974 15.1337 2.30568 0.00237839 1.77942 -1.31738
1330 67.8025 15.1503 2.02331 -1.28048 -0.0504263 1.52062
2387 36.5665 15.9233 2.67297 -0.823407 -0.270924 -0.296955
559 49.5611 16.0841 1.95863 -0.231319 -0.377063 -1.39854
1828 69.1175 15.8869 2.35781 1.41091 -0.944682 0.702173
112 54.2588 17.0553 1.58594 -2.53868 0.740546 1.46473
1458 6.05679 19.3147 2.81753 -0.26543 -0.0734107 -0.54708
2381 12.124 18.7605 2.60275 0.628592 0.143057 0.693395
1753 12.28 20.3613 2.28568 -0.750988 0.152349 1.59823
1525 33.4814 19.9835 1.62289 0.0266348 0.487525 0.16507
2290 38.9137 20.6043 2.38808 -1.57961 -0.773297 2.11837
2534 64.9043 23.5639 1.97659 -1.23777 -1.1694 1.60408
3592 7.79403 24.6317 2.66488 0.886082 0.154765 -0.153333
3267 16.7219 24.1056 2.3484 -0.954534 0.598776 -1.53513
1929 39.7076 25.489 1.50325 -0.568239 -0.844593 0.890638
2403 30.1763 27.5121 2.1303 0.0134976 -2.05744 0.278123
1076 38.7105 27.2512 2.35029 1.33496 -0.418592 -0.511622
3811 67.0687 28.6537 1.65151 0.942456 0.73024 -0.527982
1215 13.599 34.3434 1.45007 2.93721 1.45981 -0.641839
624 43.9223 34.9065 2.68674 1.04725 -0.29219 -1.14494
802 55.3185 34.8411 2.24138 -0.327384 1.33105 0.00530739
671 61.1915 36.5766 1.53869 -0.909005 -0.0382228 0.20589
172 62.6042 36.1803 1.61861 0.6062 0.0251976 -0.146413
1675 65.2362 35.6998 1.68072 0.468412 1.28276 -0.473124
851 5.41205 1.06773 3.47422 1.26273 1.04757 0.432012
752 59.2916 0.0985202 3.33797 -0.0485164 1.73992 -1.25946
1163 46.9167 2.46632 3.48838 0.959098 0.727108 1.30849
3247 66.1855 2.48544 4.01242 -1.09595 -1.5889 -0.175365
3969 70.3035 2.09791 3.29629 0.0696462 -0.570963 -0.166402
3129 7.78083 3.95586 3.88154 0.634665 -0.386674 -0.0993731
1409 12.2451 5.64527 3.90591 -1.01717 -1.53774 -0.232779
792 33.4108 6.52364 2.8517 0.375832 -1.29329 2.55608
3917 14.8072 7.31757 2.84513 -1.42129 0.585484 0.564472
3683 33.2732 8.10021 4.0568 -0.765973 1.14477 0.101697
2347 41.0141 7.50266 3.05987 -0.75619 0.121542 1.28108
3196 42.9062 7.65532 4.20938 0.794258 0.647389 -0.974941
942 62.3292 7.29974 4.0782 -0.147486 -0.836858 -1.47072
3862 2.02396 9.68386 3.58472 0.855373 -0.512499 1.05094
243 3.45063 8.65777 3.38482 -0.575011 -1.69431 -1.04443
2887 2.99883 10.7189 3.72453 -0.530697 -0.743494 -0.723645
1428 12.9051 9.99249 3.96147 -0.0962496 0.328506 0.649738
2005 59.4835 10.4977 3.83742 1.44631 0.540774 1.03954
2118 17.4596 11.7461 2.98706 -0.634284 1.311 -0.789687
2889 22.9043 13.8558 3.05293 0.305779 0.27517 0.69454
205 33.4192 15.1769 3.48305 -2.2886 -1.27239 -1.77027
2137 36.7983 16.4943 3.73114 -0.486177 -0.946101 -0.0407145
1791 26.0627 18.1944 2.96183 0.297871 -0.0363273 0.384393
1211 47.5436 18.3836 4.13728 0.31777 -0.942261 -0.321533
3741 70.3783 18.396 3.34417 0.388313 -0.632012 -1.01772
2160 7.00911 19.794 4.14546 -0.636129 0.862293 0.574492
1780 21.3367 18.5872 3.34312 0.328678 -1.12347 1.24092
3220 71.4935 19.1024 3.59675 0.668748 -0.424779 -0.351568
1892 51.2305 21.2417 3.41245 -0.513034 -2.77119 -1.84516
1187 44.6433 22.2011 3.48374 -1.10423 0.669258 -0.685901
1221 49.7696 21.6675 3.83431 -0.178441 -0.347157 -1.14913
2995 57.8546 21.5708 3.38239 -0.01003 1.92689 0.996219
2837 38.2583 24.0021 3.79599 -0.160169 -0.862569 -0.0402902
75 50.5539 23.0486 4.10526 -2.34903 -0.899073 -0.36471
2386 25.2199 24.4074 2.91899 -0.230568 1.09731 -0.676927
430 38.3112 24.8188 2.9368 0.0472923 -0.185055 0.0443277
3022 7.15178 25.5552 2.91968 -0.329518 -0.229062 1.21823
3763 16.8641 25.5235 4.09288 -0.858954 0.965605 0.121897
3170 70.5503 25.694 3.92255 -0.0694984 0.0872561 -0.645964
1234 40.7155 27.4017 3.11249 0.932586 0.588484 1.95035
1898 23.6036 30.424 3.02036 0.686733 -0.23298 -0.425221
1412 34.0995 30.2027 3.19873 0.0122244 -0.0429627 -0.803198
1932 17.7411 32.5705 3.32046 0.369595 1.53382 -0.628074
3276 33.8365 32.2549 3.18752 -0.970283 -2.24676 0.463771
2047 25.3865 33.7254 3.76639 0.0565301 -0.426083 0.984108
1383 6.28505 34.0719 3.28774 -0.816315 0.247793 1.64118
3771 29.4007 35.0565 3.5705 -0.864759 0.0789473 0.949414
2720 43.8065 36.1173 3.15225 -0.448725 0.822367 0.463051
104 54.2177 36.5281 3.15271 -0.964547 -1.51714 -0.276125
3828 71.613 35.7447 3.79237 -0.606293 0.754727 -2.12947
1931 9.72074 2.13008 5.21385 -0.556171 -0.355112 -3.04048
3819 0.471887 5.82926 4.32748 2.17822 0.625744 -0.609669
2845 6.99077 5.75149 5.2015 0.911804 0.404389 0.504508
2130 49.1568 6.8469 5.45146 0.752165 -1.28688 0.317985
3955 49.7666 6.52813 4.60537 -0.195572 0.460778 -0.272939
3671 63.7337 6.89385 5.42764 -0.409729 -1.80685 0.253022
2155 11.4327 7.52704 4.75268 0.698093 -0.750126 1.48265
1801 30.1663 7.54181 4.84694 -1.60626 -0.376088 0.564856
1631 52.2783 7.41763 4.64951 -0.0981704 0.441077 -0.011854
1278 30.9394 9.31166 5.36554 0.0619641 -0.508854 2.40213
3208 64.0238 8.9186 4.88418 0.180909 0.725826 0.908607
2384 18.6263 11.5683 4.60937 0.332778 -0.0490378 0.335955
3582 62.4755 12.3817 4.38398 0.428539 2.62097 1.00998
820 29.2682 13.4478 5.00466 0.577268 0.740109 -0.527025
3928 58.1206 13.6182 5.27436 -0.737613 -0.181607 2.33474
1630 63.8276 13.5738 4.72163 0.583699 0.389682 -0.0942706
487 7.21008 14.3006 5.18572 -1.41049 -0.515442 -1.28592
239 58.7934 14.6011 4.96272 1.50239 0.868784 0.649409
3184 11.6839 16.0355 5.64369 0.0919223 -1.03722 0.883879
280 30.209 16.1433 4.76418 -1.332 -0.0520147 0.122841
1881 56.3337 18.8463 5.24172 -1.94427 1.19476 1.65436
1511 62.2797 18.7764 4.54774 0.392979 -1.10483 0.949534
1152 32.4844 21.0342 5.21266 -1.04008 0.700509 -0.620793
1236 35.3253 20.0017 4.39482 -0.548414 0.794846 0.763117
3444 61.2709 22.6595 4.53014 1.08116 0.879106 -1.51085
1138 38.1832 23.1425 4.6385 0.75431 -2.96838 0.475919
2975 37.4461 24.9041 4.52055 2.7545 1.54462 -0.821576
3018 71.5088 25.3854 5.37367 1.38066 0.550509 -0.354534
1405 21.9379 26.2598 5.28844 -0.811519 2.11205 -0.743987
2276 52.4568 26.2298 4.53171 1.72549 -0.990206 -0.70686
1382 58.2965 26.1745 4.87402 -1.02038 1.1696 1.80946
2725 22.6027 28.1866 5.64862 -1.66491 -0.91632 0.934265
2180 25.9635 27.9098 4.51846 0.262456 0.0519836 0.282321
1305 69.6027 28.479 5.05066 -0.558943 -1.62874 -1.35819
1466 40.1317 31.1332 5.50852 0.172668 0.386503 -0.925959
1853 60.8244 30.9174 4.54927 0.629774 -2.77343 0.610592
1266 56.1113 32.5144 4.33663 -0.655123 -0.70741 -0.805701
2275 27.592 35.085 5.55349 1.08509 0.0046646 -2.54536
1286 43.1119 34.7494 5.4552 0.943762 1.48507 1.20042
687 21.3192 36.0551 5.62116 -1.07387 -0.687541 -0.795362
3987 57.1549 35.823 5.57728 1.10758 0.894652 0.770284
1343 66.8905 36.1402 4.26102 0.608474 -1.14378 -0.0232693
2817 57.857 1.43958 6.82849 0.492323 0.482275 -1.18101
1176 5.05137 3.0336 6.68772 0.326575 -0.477319 0.522378
3621 0.599465 5.30438 5.97297 -0.685714 -0.897355 -0.883543
213 15.8079 4.30563 6.51811 -0.822883 -0.70612 0.335856
619 44.9265 8.1327 5.94082 0.0364956 -0.994056 0.540575
2214 18.7772 9.11989 6.90531 0.662113 -0.310637 0.871708
3120 62.8975 11.1365 5.82137 0.352692 -0.171733 -1.89102
1395 8.17997 11.8551 6.4564 1.30132 1.60747 1.29942
735 16.9891 11.7162 6.13012 0.204522 -2.15195 1.87389
1530 1.56715 13.7208 6.79445 0.635432 0.850213 0.0213366
1516 2.84431 13.7452 6.05068 -0.372995 -2.09491 -0.634507
1973 48.448 12.9456 6.25285 0.721387 -0.289275 0.158156
2628 61.3515 13.7877 6.94022 -1.68905 0.54491 -0.856989
3788 63.9186 13.01 6.19105 -0.667135 1.35338 -0.772842
1295 2.58963 15.0611 5.74858 1.86726 -0.248333 -1.21158
420 4.12208 14.4071 5.94754 -0.277998 0.594767 0.57959
2909 33.9101 15.3017 6.77529 -1.05662 2.10712 1.41958
3988 73.6503 16.8561 6.37832 1.30161 -0.508742 -0.835561
2575 9.57627 21.7853 6.3886 1.21351 -0.498903 -0.585765
1262 57.2757 22.3068 6.45641 -0.159805 1.25523 0.710249
2257 47.5342 24.0307 6.57726 0.256736 2.00516 0.335367
1349 51.4433 22.8657 6.04545 0.710197 -0.0242381 1.44772
3426 59.3812 23.2283 6.61031 -0.0631386 -0.0929863 -0.555516
2123 49.85 24.1116 6.40904 -1.54224 -0.318072 0.332427
288 48.1437 25.8312 6.80214 0.256125 1.00493 1.14515
2712 23.1928 29.2759 6.89683 -0.780069 -0.130836 0.630184
2421 3.35538 32.3207 6.26076 0.591811 -0.809655 -0.870124
161 26.4451 32.2798 7.0044 -1.03965 1.17188 -1.17218
1168 62.0551 31.4276 6.68155 -2.36255 1.51016 -0.291084
1919 17.1634 33.2229 7.0765 -0.560248 -1.43212 -1.01021
3119 39.8169 33.4998 5.98315 -0.345583 0.118695 -0.261727
2806 67.8707 32.8298 6.65159 1.01566 0.683785 2.00332
3111 22.1212 0.0183503 7.62741 1.33328 -0.318046 0.770344
473 31.2587 1.75368 7.56701 -0.783489 -0.114478 0.281758
3147 56.7895 1.79745 7.30179 0.30073 0.690092 0.440158
2852 31.8553 4.20533 7.86419 0.21663 1.16832 0.398131
3993 38.0357 3.67589 7.84101 -0.0998478 1.42109 0.135523
1132 62.1213 3.68487 7.46621 -0.811929 0.156077 -0.475588
236 5.43256 5.04061 7.76974 -0.688658 1.53588 -0.718755
3397 30.7323 8.13757 7.12668 0.51353 -0.199425 -0.722168
2622 28.8974 9.84031 7.75393 0.0569984 -1.32221 0.0583284
703 41.7027 8.50382 7.63539 2.07509 -1.13008 -0.413863
1945 10.3844 11.8079 7.27866 -0.161892 -1.38144 -1.38018
2280 20.7699 12.3851 7.46641 -1.96196 1.54063 -0.562488
1928 51.2732 12.3382 7.81649 0.106605 0.374484 1.00168
3124 66.1948 12.655 7.1113 -0.739688 -0.4225 -0.0346538
1470 48.6869 14.8882 8.03126 1.36581 -0.301662 1.28354
3710 38.7312 16.8303 8.45907 0.263797 0.351749 -1.16439
1840 58.2088 15.9606 7.3917 -1.51498 -0.880529 -0.110385
936 31.5079 17.709 7.71667 -1.0824 2.52716 0.294336
1245 54.2333 17.0486 7.95769 -0.371925 -0.55155 -1.47938
303 14.8774 19.706 8.16585 0.0920645 0.113659 2.53437
3587 64.4092 21.0373 7.31736 -0.886876 0.344948 0.806471
3604 59.9272 22.624 7.91739 0.342065 -1.22734 0.647374
1547 33.3992 23.8429 7.11088 -0.377543 1.75478 -0.674218
1526 44.0635 22.9929 7.98786 -0.165576 -0.679563 0.0363014
842 69.5639 23.1367 7.41039 -0.780885 -1.65531 -0.0821914
2397 64.1366 25.1364 7.5288 -0.214138 -0.371818 -0.779316
2911 51.0109 28.1955 7.36594 -0.560534 -0.276606 -1.69516
2286 59.9113 29.3938 7.65648 -0.515705 1.65112 1.83787
879 62.6395 29.2991 7.8971 0.743528 0.446488 0.399909
199 47.7559 34.5419 7.97823 -2.10054 -0.682892 -1.7329
1698 65.7344 34.0651 8.0861 0.405669 0.832596 0.345601
1376 72.4193 34.2492 7.27129 0.818875 0.919573 0.292991
650 28.194 1.10356 9.60317 2.03822 0.938941 -1.16679
2844 59.523 0.148871 9.85773 0.33373 1.19535 -1.20649
1153 24.2419 2.32449 8.57146 -0.569157 -0.691929 0.565158
268 27.4932 1.45527 8.63399 -0.659436 -0.359745 0.99579
252 62.3405 2.3619 9.76021 0.403318 -0.435759 -0.345836
1658 31.8085 2.99804 9.18542 -0.659973 0.337382 -0.91158
1083 57.8972 3.05284 8.91157 0.252061 0.0697725 -0.761222
2914 56.7498 3.53552 9.47147 0.95307 -0.327844 -1.51629
3503 64.1186 5.49946 9.29692 -2.41217 0.575542 -1.10801
739 15.8023 5.70879 9.54623 0.738628 0.409944 0.615896
2674 23.3449 8.49228 9.35216 -1.44582 -1.23223 0.0206102
3151 40.3052 7.26263 9.49415 1.52691 -0.0598246 -0.285754
3554 68.5128 8.00197 9.25454 0.858673 0.550939 -1.66479
704 4.11757 8.80614 8.58878 0.88521 0.19855 0.545854
1408 45.3731 9.54464 9.5904 0.119258 -0.0398755 0.48173
126 5.83646 11.3323 8.97747 1.05234 2.14027 -2.17251
2690 42.5105 10.1338 8.93289 -1.07302 -1.89692 -0.824885
3785 39.3084 11.7725 8.91386 -0.358522 0.559248 -1.33949
3152 1.45813 12.8031 9.12717 -0.449418 1.08679 -0.78537
959 5.32577 15.4983 8.65581 2.05109 -0.664204 -0.491629
1686 9.28345 15.5498 8.56723 -0.2843 1.31296 1.41482
2524 22.6207 15.2554 9.20746 0.970139 -1.54812 0.362391
150 16.541 18.6239 9.41112 -1.73897 0.288699 -0.534629
1821 27.0606 19.7676 9.70582 -0.095774 0.776088 -0.546228
1697 37.6576 19.8249 8.6545 0.66606 1.60001 -1.11937
3605 49.6045 19.7829 8.7553 0.830336 0.360925 -1.86607
3569 26.7932 21.8358 8.77086 -0.201019 -0.257228 0.117121
33 25.6017 23.0594 8.90694 -0.76883 0.433583 -1.20303
3246 38.685 25.2492 9.11927 0.00666055 1.42389 0.673703
357 44.4212 24.3817 9.54928 0.431489 -0.404043 1.21292
3542 11.0794 27.1395 9.51958 0.524344 -1.1813 -0.985515
3222 22.7821 29.1947 9.27447 0.966957 -0.71922 -0.198639
3094 65.953 30.4148 8.94739 0.507445 -0.360911 -1.84451
775 4.92898 32.4974 9.32483 -0.482951 -0.933701 -0.811179
1934 29.2383 32.4873 9.02037 -0.00263709 0.606667 0.265295
2941 60.484 32.8873 9.8534 -1.15408 -0.12583 -1.46596
725 60.7803 35.1361 8.97295 0.107049 0.24497 -1.43222
1679 26.0465 0.327896 10.3582 1.98319 -0.271644 0.953307
3127 22.9142 1.58709 11.1548 -0.975927 0.923066 0.381357
2466 64.3049 3.32664 10.717 1.17167 0.658272 -0.949034
3433 28.0674 4.64933 10.2127 0.107094 -0.097236 -0.722171
2211 59.1533 6.40405 11.083 2.02877 -1.60997 -0.4953
2772 14.233 7.86521 10.8858 -0.3073 1.69554 -0.613498
441 22.5383 7.3512 11.1435 -0.466207 -1.5992 -0.0701883
627 27.778 7.50944 9.95809 -0.0279201 -0.0714999 -0.229349
100 45.715 9.3483 10.7391 2.41927 1.58964 -0.561137
1738 54.2505 12.4734 10.7781 0.139727 -1.11063 0.274481
379 55.3678 12.085 10.1009 1.55595 -1.2493 0.0886979
2243 9.02933 14.0599 10.4144 -1.25975 -0.541039 0.226588
956 12.339 13.9807 9.94821 0.0932096 0.283017 0.291248
2361 23.6594 14.6717 11.3276 -0.653654 0.784994 0.0135931
42 6.68861 15.769 10.1872 -0.605362 -0.791128 -1.74062
36 34.1782 16.6112 10.2113 1.79505 0.155831 0.378459
3176 42.3985 17.0118 10.9388 0.558015 -0.603553 0.450788
3153 6.05711 18.4752 10.1972 -1.71853 1.36052 -0.617922
3322 9.8666 20.5967 10.4779 -1.3609 -0.142459 -1.00489
2352 66.3011 20.4365 9.93994 1.33156 0.852633 0.115065
2611 67.2766 21.2871 10.8252 -0.953666 -0.633977 -0.219655
2632 4.60265 23.046 10.4217 0.535263 -0.938901 0.227468
3922 26.629 23.1135 10.6166 -0.339467 0.714177 -0.138471
3327 12.7784 24.7529 10.426 0.184583 -2.22531 0.369512
2078 52.2722 25.0864 11.325 -1.14129 0.278839 -0.806206
3389 53.1054 25.3598 10.6763 0.976769 2.04956 0.362013
3524 71.7988 24.1872 10.9138 -2.96374 0.959856 0.487348
154 53.0882 28.0616 10.1328 1.79247 -0.970642 -0.779605
2564 61.4648 28.3165 10.9973 0.658251 -0.877325 0.248486
3316 44.9263 29.6593 9.97192 -0.707501 -0.88817 -1.13136
3443 27.4588 29.8704 10.9136 0.711928 0.765857 0.659726
718 61.7455 30.0537 11.3132 1.04847 0.732405 0.208261
1841 6.57815 32.3314 10.5671 -0.643744 0.708478 -0.876406
2369 14.8006 31.4748 11.0177 -1.25857 1.48449 -0.506875
2331 21.8049 32.8635 11.2461 -0.903884 2.10246 -1.36522
2190 36.0901 33.7032 10.5382 -0.888107 -0.672834 0.395589
2551 31.5746 34.5107 10.7724 1.40893 0.0457178 1.22182
3636 44.9422 34.2548 10.3155 -0.170518 0.547954 0.405776
119 62.3516 34.0079 10.9811 -0.626419 -1.29269 -0.31418
1651 63.4396 34.6558 10.75 1.20277 -1.16638 -0.474804
3563 47.3224 0.578377 12.2001 -0.249971 -0.596612 -1.14547
1812 72.8692 0.975173 12.3617 -0.135002 0.304906 1.32539
3694 26.1381 2.33106 11.6687 -0.580755 -0.802486 2.52599
3463 62.9366 2.62165 12.0255 1.11487 0.169172 0.452909
2066 57.2874 4.61472 12.2727 1.02306 0.554692 -1.68968
1634 70.9993 5.67924 11.6616 0.127846 -1.23605 1.49166
3835 73.5682 6.00005 12.5389 -0.552023 2.22606 1.20612
140 35.139 7.64385 12.6427 0.379014 0.908529 -0.876098
3271 52.2961 7.50945 11.3628 1.77001 1.03163 -1.27795
2764 67.5875 7.71488 11.7677 -1.7069 0.324828 1.0892
672 2.03583 8.51334 11.7442 -0.00703174 -0.128502 -0.290786
2234 36.3157 8.61985 12.6376 -0.551136 0.927011 -1.41537
2098 52.3635 9.73528 11.4462 -1.29682 -1.08544 1.45433
2428 24.2233 10.9019 12.7036 0.356945 -0.202633 -0.340701
3737 55.1879 11.6856 11.4963 1.20732 1.05652 -0.0311419
3029 29.515 13.4429 12.6625 -0.0674445 -0.340481 0.246696
502 3.96211 14.2947 11.3702 0.587072 -0.734573 3.59575
1480 66.5719 14.9697 11.6393 -1.54506 0.277538 0.68357
196 16.5242 15.809 12.0104 0.462435 1.76173 0.0201614
2247 26.481 16.3754 12.6152 -1.89336 0.950288 0.0847148
1885 8.09282 18.0401 12.3737 -0.877331 0.0623374 -1.18017
1375 1.66451 22.4577 12.0997 1.21237 2.28412 -0.825932
1260 60.3211 22.326 11.7825 -1.47755 0.307743 0.960713
2798 33.6325 23.1828 12.0967 0.947869 1.6931 -0.473382
2175 17.1878 25.0425 11.4906 0.86682 -0.181551 1.1197
3656 2.1312 26.0107 12.7235 1.30212 2.09493 1.06546
2691 31.1321 27.8952 11.4465 0.224632 2.11178 0.634253
2244 72.739 27.6741 11.3686 1.03095 -0.238247 -0.345185
3647 41.5467 28.703 12.3908 0.0510547 1.61633 0.239317
84 13.5617 30.9936 11.4267 0.974 1.06527 0.377944
2638 41.0926 31.4117 11.9998 0.87372 1.0981 0.680479
2081 43.0878 33.1024 11.3391 -1.16381 -0.432615 -0.577261
3559 62.1515 33.0115 12.2462 -0.901889 -0.385837 0.0800212
535 68.0715 32.9998 12.1094 0.166999 -0.788087 0.149273
2439 31.8264 35.3408 12.3382 0.326972 0.634046 -0.22192
433 34.8505 35.3574 12.241 0.0622734 -0.0987604 -1.36263
1468 50.1167 34.7013 11.7938 1.74157 0.355065 -1.70394
3620 40.3996 0.571622 13.7431 -0.970061 1.4333 0.180243
3357 47.4525 0.153999 13.4545 1.29458 0.606115 0.335172
2134 69.6959 0.890626 13.6638 0.904318 -0.158738 0.892725
1085 1.19658 5.01289 12.8202 0.897166 -1.33688 -0.845975
3855 11.8163 5.46949 13.0148 2.24424 -1.44672 1.00766
355 20.5733 5.30289 13.6241 -0.987913 -1.66324 0.484449
3131 61.7158 5.5805 13.6786 -3.06752 -0.50554 1.07801
2493 20.855 8.22976 13.3121 0.961301 0.449377 2.29686
90 34.07 7.9394 13.2921 0.259043 -0.266641 -2.22157
1897 67.3133 7.23607 13.2394 -0.236837 -0.212143 -0.45946
3212 72.5499 8.07871 13.5895 -0.212193 -0.540424 1.63569
1177 34.9604 11.1999 13.1038 -1.02395 -0.107769 -0.877959
3082 69.0761 10.1826 12.9101 -1.4118 0.201301 1.47078
606 34.7675 12.4077 13.8976 1.54382 1.36752 1.05939
3404 42.2919 11.8033 13.7612 -0.778272 1.14566 0.0429779
2334 63.5599 13.3287 12.8531 -1.13694 -0.989988 0.32722
2051 4.05233 14.3554 12.7968 1.16471 -0.605883 0.9306
2067 39.3353 14.8249 13.6698 -0.52691 -0.288273 -0.335717
3885 28.9121 18.0757 13.2344 0.384039 -0.0713666 -0.703152
1104 33.1726 18.3055 12.9426 0.00495804 0.142023 -0.484344
1126 7.01447 18.6831 14.0445 0.301582 -0.444171 -1.64549
2687 12.3737 19.5739 13.0151 -0.759389 0.776086 2.09099
283 7.21413 21.2174 13.4859 0.171072 1.36494 0.0290314
3721 67.9876 20.4303 13.5821 -0.361073 1.69162 -0.639387
308 7.32665 22.2027 13.8792 0.417052 0.272634 1.18852
3931 35.8419 22.6063 13.5062 2.20549 -0.34414 -0.11849
3837 11.3653 23.1461 14.0147 -0.843233 -0.4389 -1.54482
3072 26.7147 23.7597 13.745 -0.276237 0.0308909 -0.506942
1118 35.4691 23.66 13.0456 0.236823 -1.9658 -0.786969
3182 71.0793 24.5505 13.1398 -0.00291801 -0.285596 -0.250925
3533 7.16545 27.6112 12.9539 -0.641089 0.613614 -0.0983924
695 24.5506 29.3824 13.7884 -0.699152 -1.26726 0.445052
1424 28.6462 29.0581 12.9593 -0.246529 0.448339 0.121225
2389 11.4603 30.0392 13.1505 -0.288892 -1.93074 -0.0767312
1875 50.7232 32.3055 13.4373 -0.193511 1.19936 -1.54048
3653 44.2605 32.8505 13.8277 -0.794375 -0.733265 2.23194
1520 48.0622 33.408 13.939 -0.246413 1.49927 0.910661
2600 55.6664 33.7979 13.6873 0.0155183 -0.88926 1.24906
560 44.2358 34.2628 13.4332 -0.909955 -0.260653 -1.00599
3901 57.2875 34.1928 13.0019 -0.100127 -0.434181 1.60076
1941 10.6593 36.2653 14.092 -0.39248 -2.39979 -0.222334
2530 28.5273 35.4262 13.6974 0.18278 -0.350291 0.751573
1743 51.1518 36.1451 12.7779 0.391361 0.623737 0.170472
2657 63.0744 36.4121 13.2459 0.205516 -1.56798 0.981324
3121 57.0982 3.40113 14.7614 -0.0756504 0.792796 -0.335695
3090 70.5027 3.67937 14.2715 -1.30701 1.13922 0.241913
2463 72.5724 3.57611 14.883 0.91558 0.333007 -1.29863
2609 26.1437 4.53825 15.3088 -1.18272 0.610841 0.257069
2478 40.1038 5.13236 14.2231 1.22311 0.353916 0.609159
3149 61.176 5.1477 14.9767 1.83179 -0.641616 -0.448457
3577 67.1185 4.91719 15.0172 0.686892 -2.19921 -0.998367
2110 34.8503 6.68509 15.136 -1.08316 0.41733 0.659759
2072 49.2246 6.15527 14.4267 -0.195964 -0.551824 0.479594
2588 19.8373 7.17487 15.4104 -1.45928 -1.5457 -0.0913569
3589 2.11499 9.23092 15.4885 0.519053 0.762799 -0.950908
2085 16.3753 9.81308 14.5566 1.62564 0.566088 1.03693
3646 15.3161 11.0424 15.1667 1.04352 -1.33434 2.1321
3241 16.2691 10.6929 15.4613 -0.244791 2.18594 2.51297
1797 50.8203 10.7582 14.7676 -1.11629 0.643221 -0.459716
1815 6.70316 12.7518 14.2697 0.102767 -1.04142 0.567332
2921 6.93199 13.8259 14.2562 -0.695658 0.568385 -0.742535
3510 7.76193 13.1082 15.2724 1.795 2.27762 0.538557
3696 13.0527 13.411 14.2574 0.934904 0.583663 -0.671778
2761 22.5139 13.1063 15.0257 -0.375055 -0.935423 0.969199
1777 23.7849 13.7153 15.0432 -1.62989 0.275641 -0.155207
1282 63.4813 13.6293 15.308 -2.18253 1.0383 0.725196
242 2.01619 14.8975 15.2296 -0.475376 0.0237386 -1.39628
2544 55.3588 15.7651 14.6894 1.23291 -1.08109 -1.16084
1639 67.2758 16.1454 14.8723 -0.294709 -0.863098 -0.699383
2668 15.8689 18.0413 14.2207 -1.38525 -1.08052 -0.350018
503 32.3367 19.63 15.2798 -1.34962 0.653473 1.27263
1878 54.6535 19.8344 15.2079 0.644247 -0.509766 0.125776
3808 8.58177 20.2304 15.2954 0.778452 -0.324868 -0.375139
322 20.1769 20.7806 15.4249 -0.347707 -0.278626 -1.02132
3487 31.3142 20.6307 14.4408 1.52922 0.293899 -0.259567
3156 7.85854 21.3474 14.6446 0.36711 -1.00454 -0.839505
2976 30.4063 22.3019 14.4733 0.358964 0.494212 0.368132
1427 39.783 21.5319 15.305 -0.676028 -0.499358 -0.0374075
87 50.8755 21.449 15.1771 1.09757 -1.32846 0.773983
2009 35.3263 23.615 14.4471 0.732055 -0.156649 1.58464
235 37.1913 23.6819 14.4117 -1.06806 0.210775 -1.46526
1291 20.7261 28.2481 14.5021 0.833184 -2.01723 -0.0991061
658 26.0204 27.6835 14.2481 1.21996 0.991209 0.0420875
1587 33.6811 28.2004 14.557 0.879459 -0.395713 -0.501619
2881 38.0608 27.6868 15.1591 -1.41323 -0.0717348 -0.0494867
609 8.8989 29.6224 15.3473 -0.459476 0.9066 0.716063
3192 42.0856 29.4142 15.3767 -0.544691 -0.367455 -0.576818
2516 13.6545 30.7504 14.5569 0.247838 -1.02373 -0.161608
3725 35.9726 32.3751 14.7444 0.896917 -0.152363 0.557596
251 63.657 32.1792 15.2045 -2.42711 -0.566638 1.57701
206 4.74239 33.6469 14.6608 -0.335793 0.39023 1.08235
3109 8.82764 33.6852 15.1729 -0.0883929 0.997022 -1.03914
2413 43.7425 32.9997 15.1941 0.670422 -0.0774847 -0.0243504
2795 58.495 33.8715 15.4256 0.802293 -0.113346 -0.759315
3020 11.6908 35.4122 15.0925 0.18054 0.0164119 -0.589859
3894 44.8351 34.539 14.3145 1.0833 -0.318097 2.57705
3953 44.1621 35.3671 15.3778 0.231475 -1.22648 -1.13924
2908 45.3583 34.1701 15.4249 0.224474 -1.1541 0.9136
1700 70.2999 34.7828 14.7593 -0.915719 0.500706 -0.844843
3876 34.2511 35.8081 15.1493 0.661092 -0.765011 -0.941981
3508 50.8209 36.3032 14.4401 0.371172 0.107579 -0.5421
546 33.6872 1.00775 16.5885 -0.693618 -2.11411 -0.17069
1552 42.3642 0.571714 15.6882 0.269244 -0.184629 0.824096
12 73.5455 0.396557 15.6958 0.252529 1.19149 -0.912159
3950 62.0628 4.05967 16.0988 -0.383824 -1.52797 1.38967
3627 68.51 3.90281 16.733 -0.137429 0.556001 0.213187
839 26.761 5.04638 16.2161 0.0902199 0.972796 0.919618
3122 65.2707 5.65398 15.7963 0.31817 -0.54252 0.492833
482 33.444 6.42085 16.3778 -0.681642 -0.460401 -0.154758
3296 68.4242 5.8473 16.9158 0.10203 -0.333539 0.784069
2488 17.2638 8.36135 16.7922 -0.0727118 0.347 -0.763439
1254 36.554 7.25982 16.7629 -0.47947 0.665432 -1.35474
3304 23.8975 10.8727 15.6046 0.107033 1.44372 1.21702
1503 52.7241 11.2182 15.8 -0.330709 0.65106 0.538799
1481 9.90413 12.6908 16.3542 0.545187 -0.0306128 -1.2677
3544 45.5557 12.5225 15.8902 0.6122 -2.35405 -0.859606
124 61.9738 12.6052 16.4188 -0.745524 0.184006 1.25036
2412 46.1404 12.992 16.8163 0.963191 -0.330717 0.834771
1290 55.0115 13.1603 16.9417 -0.0783238 0.815199 0.499467
3884 15.1599 14.5809 16.6505 0.62654 0.855877 -1.17908
345 47.1212 15.4545 16.7255 0.955905 0.925103 -0.0997718
185 6.63757 17.535 16.3659 1.68061 0.0829852 -0.707224
943 4.04491 19.7485 16.0879 -0.71116 -1.44744 -1.69536
2934 52.8367 19.1673 16.1827 3.39032 -1.21019 -1.12574
3836 72.6281 19.3158 16.6855 -0.945594 0.580635 -0.251402
128 23.7562 20.4433 16.8671 0.726795 2.48222 -0.500767
381 23.941 21.7227 15.9108 -0.937308 -2.55233 0.676428
2760 53.2354 21.6224 15.9828 -1.0826 0.147279 -1.1878
2868 53.0122 23.2903 15.7723 0.54869 0.0665074 -1.13912
2918 61.0832 23.8116 16.444 0.0103163 -0.673443 0.286994
1632 7.1214 24.7726 16.4876 0.580555 -1.55725 -0.280825
2222 8.51263 25.0145 16.7068 -1.11196 -0.436544 -0.00342425
968 61.9432 26.5951 15.6039 1.37314 0.279392 -1.22546
1518 31.4053 27.4469 15.8914 0.167389 0.00905789 -0.362073
3692 17.9817 31.1115 15.7889 0.114162 0.587043 -0.0790476
2715 54.3253 32.4506 16.0898 -0.312685 -1.10482 1.22839
2888 44.0368 33.867 16.9543 -0.476143 0.0803292 2.37181
2517 59.4837 33.3782 15.9751 0.499691 0.904258 0.421201
3971 31.3344 35.2158 16.2326 -1.87703 -1.36664 -0.577016
3666 33.9857 34.6575 16.896 -0.665719 0.228421 0.574439
930 35.5376 34.7875 16.7122 -1.81109 0.603947 0.689978
259 73.4909 35.0495 16.6293 0.830274 0.000943084 0.46973
1573 34.0806 2.72059 17.3813 0.468127 0.118298 0.79718
2227 47.9198 1.54271 17.2966 0.789636 1.5988 1.00659
3516 62.8706 1.63382 17.4271 -0.562086 0.204929 0.238072
1845 68.5179 1.48674 17.3574 -0.00783825 0.141915 0.556728
2127 39.0341 4.2498 17.3611 0.781523 1.25127 -0.849882
2669 54.4044 6.75636 17.0167 2.26509 -0.320392 0.328945
3814 37.0374 8.48111 17.5639 0.0775883 1.36519 0.118097
790 27.4759 9.79606 17.1174 -1.40673 -1.21292 -0.427061
3743 29.9865 10.3118 18.0586 0.744647 0.539901 -0.729143
3607 70.3536 9.94145 17.8242 0.631152 -0.581024 0.117591
626 47.7686 13.2135 18.3266 1.22319 -0.437703 0.712626
1691 52.6032 12.9886 17.6391 -0.265744 0.308283 -1.19135
451 21.8287 15.5263 17.9432 -0.469305 0.908799 2.16179
188 23.0694 14.7467 17.7335 -0.0129454 0.0982804 -1.20098
2830 5.03538 17.8761 18.0258 -0.876026 1.17381 0.0911676
24 17.0286 18.1629 17.7227 -0.641924 0.0450839 -0.594035
3812 66.6727 17.1789 17.5912 -0.166113 -0.386319 0.674237
543 33.2521 19.1871 17.7287 -0.456862 -0.425569 -1.24881
2265 14.4403 22.1832 17.8029 -1.89466 0.746245 1.27679
1204 20.822 22.1718 17.7376 0.975805 0.219076 -0.356287
1942 56.2786 21.422 17.9483 -1.14575 2.05485 0.330681
604 60.1008 21.4853 17.6354 1.16176 -2.10085 -2.67481
2946 11.9278 23.5966 17.3715 -1.62077 2.0229 -1.90031
2016 62.8835 23.9549 17.1859 0.415563 -1.77885 -1.12329
3744 35.5047 24.1211 18.3545 0.286944 -0.326929 0.823078
3793 52.3413 24.2411 17.6517 -0.723135 1.60356 0.287009
1020 17.8485 28.04 18.1261 1.35208 0.296386 0.443036
3989 37.8616 27.1778 17.2871 0.330595 -0.673048 -1.15948
178 56.5464 29.6583 17.4798 1.20137 -1.29229 0.512285
1986 64.5894 31.4927 17.3683 -0.185804 -0.515735 1.78473
3759 35.1896 33.6377 17.2192 -0.0559005 -0.30968 -0.13659
2535 2.10365 35.2335 17.6526 -1.79593 -0.725673 1.45912
1207 11.3733 36.7667 17.5127 -0.441992 0.267224 -1.59373
3505 22.3979 36.4983 17.2318 0.544365 1.38981 0.945717
1969 31.4926 36.1644 17.8479 1.28164 0.546195 -1.45541
2701 12.4941 1.23626 19.5477 0.727658 -1.04031 0.177967
3085 15.4992 0.952416 19.6223 0.0733161 -0.482917 -2.38257
2010 34.4809 0.0292218 19.8107 0.236596 -1.29099 -0.00735806
346 39.2852 1.02263 19.5354 -1.41097 0.486114 1.3337
424 53.4489 1.97271 19.4596 -0.187878 1.58964 -0.479305
1673 56.4541 2.2014 19.3787 -0.0358727 0.574779 -1.38744