ITEM: TIMESTEP
44000
ITEM: NUMBER OF ATOMS
4000
ITEM: BOX BOUNDS pp pp pp
0.0000000000000000e+00 7.3680629972807722e+01
0.0000000000000000e+00 7.3680629972807722e+01
0.0000000000000000e+00 7.3680629972807722e+01
ITEM: ATOMS id x y z vx vy vz
808 46.3434 1.16082 0.936383 -0.635876 -1.11359 -1.50192
566 29.4963 1.89986 0.987944 1.55213 -0.95475 0.689208
1392 53.398 1.79792 1.11836 -1.17584 1.51401 -0.433734
1494 5.44163 4.21206 0.412008 -0.394993 -0.258805 -1.12752
715 32.6234 4.09138 0.178673 -0.226431 1.59406 0.0547379
2273 70.0756 3.87189 0.278655 -1.30426 -0.0316671 -0.970426
3156 3.02296 5.30145 1.22008 -0.258314 0.153187 0.468543
352 46.3908 5.63204 0.936493 -0.463497 0.0177617 -3.27147
2849 33.1836 6.1427 1.29782 -0.918264 2.31951 -0.587416
1842 35.5193 6.06972 0.749744 0.970097 -0.213398 -0.529894
3380 61.4277 6.63814 1.26874 -2.13189 1.20908 -0.536474
1345 32.6692 8.27985 0.544528 -0.212764 0.0431299 1.50047
3240 36.337 8.69534 0.150173 0.197836 -0.413019 -2.03372
376 25.4408 11.0512 1.13121 0.919791 -1.2518 1.26903
2211 71.4456 10.3699 1.2199 -1.50261 0.34749 0.220485
1754 46.1202 11.4212 0.846019 1.50168 -0.638823 0.699712
3151 25.1271 13.4637 0.89738 0.230828 -0.656574 0.322447
3198 42.406 13.8627 1.14335 -0.404074 0.995413 1.28073
1077 44.0626 12.9771 1.16702 0.722949 -0.0850476 -2.16029
192 34.5654 14.7038 1.26174 0.529895 -0.598365 -1.23025
656 20.4878 16.3943 1.17887 1.1941 0.0127386 0.909675
1105 4.68953 17.5394 0.658426 -0.095852 -0.6375 -0.159579
2722 31.0301 18.6327 1.19605 -2.01512 -0.105447 -1.6265
437 45.0421 19.3326 1.1209 -0.860087 1.88571 0.866962
1684 59.7042 19.1443 0.59081 -0.237937 -0.456721 -1.88113
3827 21.0091 20.3266 0.28521 0.847629 -1.33391 0.215977
570 37.8393 21.1187 1.11931 0.333129 -1.42617 0.497001
1108 47.8257 20.8113 0.838596 1.24708 -0.567817 -0.0616574
901 62.5535 20.5661 1.00459 0.437277 -1.05885 2.08787
2600 63.8329 20.2022 0.411895 -0.768144 0.391793 -0.991277
208 30.4162 24.0151 1.07114 -1.07505 1.13274 -1.33522
2575 44.2258 22.6969 0.41603 1.00126 1.46681 0.734268
1187 67.0203 23.0273 1.27888 -0.461934 1.18045 1.30107
496 46.2396 26.4653 0.932398 -0.0964965 1.77819 -0.637631
161 53.1432 27.3735 0.5241 -0.568597 0.212934 0.869506
628 7.65126 29.042 0.584244 0.115563 -1.08611 -0.438752
3904 28.1875 29.0678 0.524155 -1.02307 0.425785 -0.90655
2490 23.5359 30.5225 1.32125 -0.846765 0.323927 -0.88631
3941 52.003 30.1863 0.780856 0.606215 0.0414675 1.00122
1898 4.71585 31.4203 0.280247 0.260555 0.0461883 0.719138
3899 28.1945 33.548 0.250975 -0.418489 0.378877 -0.760879
1935 36.1553 33.7794 0.69702 -2.06017 -0.824864 -0.479601
2617 7.74681 1.16764 1.58965 1.47965 -0.716894 0.864617
305 62.423 0.872586 1.6792 -1.23679 -1.33139 -1.56528
2854 28.7533 1.93491 2.16841 -0.148234 -1.58042 -1.21289
3495 3.88852 3.10537 1.94384 1.93258 -1.28703 -1.20752
1538 9.23986 3.70275 2.51773 -0.147846 1.45312 -0.650418
1211 37.6554 5.41213 2.47412 0.99299 -0.0479214 0.0330614
3553 45.802 4.73803 1.6854 0.0623279 -1.14194 -0.918098
2422 22.7591 7.72944 2.75837 -0.13494 -0.340061 -0.338528
471 37.8321 9.45218 2.2584 0.301887 0.413616 -0.877183
1148 39.0967 9.29909 1.54494 -1.06648 -0.594375 0.425025
2477 46.6542 9.62408 2.76501 0.914115 -2.03707 -0.500217
2733 11.8668 11.1074 2.77758 0.0974569 -1.35657 -0.507939
903 34.458 11.1852 1.73716 -0.925762 0.619306 0.0483684
1749 69.831 10.3237 1.6121 -0.767588 -0.520529 -1.02829
3394 50.5141 13.1607 1.89223 -0.00960758 0.464513 0.261325
974 62.0554 13.1682 1.4194 0.636446 2.17594 -2.95445
1402 40.5203 14.9003 1.912 -0.338573 0.256122 -0.914994
2823 42.917 15.0165 2.3875 1.85459 -0.493533 -0.296437
633 11.7946 16.7502 1.86002 -0.119804 -1.60254 0.766859
889 56.4989 17.8771 1.95468 -0.057059 0.641012 -0.0890185
1940 49.7996 19.4519 2.58151 -0.469971 0.500853 0.545064
503 61.6548 18.8563 1.82111 0.919754 0.45907 0.59513
2809 34.1188 20.0515 2.48186 1.59699 -0.950335 2.37788
1101 21.3581 21.4991 2.82509 -1.24281 -0.653255 -0.667763
2560 29.7571 22.5992 2.47833 -0.846081 1.85998 0.749201
1249 32.2437 23.3583 2.15937 -0.544788 0.313268 -1.21382
1135 13.0957 24.6668 2.53622 0.781302 -1.36377 -0.0775645
893 17.6673 24.8378 2.07482 -0.806967 -0.475962 0.262632
1186 54.7412 26.917 2.42229 1.24659 0.484771 -1.38985
1239 63.6237 25.9607 2.11161 0.527409 -1.13402 2.44839
1874 30.387 27.6536 2.35738 0.701461 1.11278 0.794861
1617 55.556 27.1722 1.85381 1.71991 0.141439 -0.0157421
412 70.6537 27.2052 2.0048 0.976569 -0.34446 1.17944
3031 3.85406 29.3073 2.28667 -1.45713 -0.405904 -0.801751
2555 50.4409 29.5977 2.4465 -0.400578 -0.171964 -0.0361886
181 6.61794 30.5936 2.5787 1.01569 1.0167 -1.03915
86 8.36166 29.8472 2.06403 -1.23958 0.89771 -1.97185
3224 14.0234 30.0741 1.69143 -1.08773 -1.68107 0.0114078
754 1.63502 31.6021 2.37391 0.678245 -2.11622 0.324723
1919 19.2026 31.431 1.68595 -0.0249248 1.22758 0.979206
1885 26.2556 31.5304 2.21519 0.373044 1.88943 0.622168
2918 28.9913 32.0776 1.88339 -2.16533 -0.586031 0.185317
1967 55.9694 32.4482 1.59714 -0.0622454 1.15295 -0.802207
2261 62.4016 32.0493 2.22166 -0.240505 0.924064 1.14997
1955 35.4587 33.3279 2.07651 0.282469 0.0900022 -2.16894
1530 67.7249 32.7221 1.69917 -0.0473434 -0.860163 0.0207207
1730 69.4944 32.5961 2.4925 -1.79223 0.95239 1.77974
1071 65.1759 34.5453 1.84431 -0.0442152 0.247457 1.34831
1433 71.2668 34.4366 2.62265 -0.0683393 -1.0088 -0.105611
556 19.6016 36.7147 1.84277 0.577366 0.604252 -1.73427
1544 64.9419 36.792 2.39278 2.00464 0.853152 -1.2875
2042 3.01794 2.48687 3.14185 -0.402417 1.45461 1.02741
2399 17.8705 2.31157 3.2012 -0.103114 0.407114 -1.29227
2852 41.4324 2.13022 3.261 -0.446073 0.165105 -0.431025
95 45.0448 4.00952 3.89327 -0.441514 -1.2309 -0.712881
3459 60.5333 4.73285 3.74587 1.09097 -1.10364 0.442622
3331 16.0191 6.72776 4.0369 0.058371 0.158781 -0.16845
1976 64.8153 6.22268 3.57633 0.739672 0.620161 -0.138753
957 6.77942 7.19903 3.79388 -1.49184 0.123157 -1.14621
2650 31.4748 9.01833 4.15349 -1.67089 -1.86652 0.230283
3546 46.9986 8.60884 3.15647 0.219982 1.4916 1.20726
3187 12.6386 10.4582 4.04105 -0.504671 -2.47511 -0.447394
2410 32.1823 11.2972 2.90959 0.82003 0.161955 -1.2938
938 42.2822 13.8473 3.42899 -0.699172 -0.0552517 1.65903
1631 70.9026 15.1198 3.48779 -0.921819 -1.72524 0.226343
739 72.603 14.6099 3.50064 0.837197 -1.0294 -0.520395
1811 13.9128 16.4375 2.95563 0.321426 0.877776 -1.4299
2237 33.336 17.0536 3.44297 -1.4636 -0.271386 0.519444
100 11.6868 20.1056 2.96573 0.52772 -1.36511 -0.331434
1418 13.1024 20.2851 3.32278 0.38162 -2.32293 0.528773
3502 45.7528 19.8905 2.87785 -0.533238 -0.519393 0.969871
467 30.8516 22.6322 3.16767 0.528654 1.62559 -0.493051
3350 23.8329 23.3284 3.18316 -1.1097 -0.837146 -0.821959
1049 46.2096 23.4356 3.97246 -1.7082 0.637325 -0.18707
1721 62.4106 25.6863 3.83822 0.310255 1.0709 -0.394786
3666 62.7041 27.6443 4.23166 -0.813406 0.561255 -0.143273
1183 25.7733 28.7536 2.96041 -2.76401 1.3411 -1.46943
3282 49.637 29.2236 4.14944 -0.218212 0.636381 1.23082
7 57.314 29.5928 3.88555 -0.348808 0.417639 -0.246714
697 50.4704 31.3548 4.1068 -0.111799 -0.718516 -1.93789
975 28.4978 32.9438 2.95183 1.0572 1.58289 -0.0226996
2196 49.3514 34.632 4.20771 -1.19986 0.267603 -0.0634179
2386 19.5253 0.616581 4.35664 0.611019 0.438036 0.176586
2562 36.6282 0.733409 5.51921 -0.404314 -0.324644 1.02077
3772 10.9279 3.01116 5.62887 -0.942494 -0.329028 1.78076
996 27.8779 4.00593 4.63421 -0.612515 -0.0773108 2.00611
2330 36.88 4.90305 4.44087 0.325807 -0.65966 0.724386
834 27.3147 7.37042 5.03573 2.08385 -0.394253 -0.153163
1864 29.938 9.54467 4.82809 -0.205641 0.78421 -1.8044
1204 5.45599 10.33 5.29493 0.741216 0.2407 0.430066
1015 54.6558 10.7234 5.30322 -0.368604 1.10622 1.30482
3669 4.09317 11.9489 4.26557 0.643448 0.229686 1.12865
2356 45.4286 12.504 5.17423 -0.083723 -1.35962 -1.06349
2674 65.6526 12.0309 5.14794 -1.59305 -0.552708 0.382786
2285 8.60657 14.3593 5.38075 -0.0688523 -1.22983 -0.281462
3741 51.4293 14.7733 4.90633 -0.283172 0.339801 0.70132
862 3.66252 15.8334 4.67301 0.765718 -1.04871 -0.636324
726 28.9052 16.8345 4.46615 0.00165626 1.13036 0.886079
3687 45.9718 16.5406 4.54164 0.947097 0.0201188 -1.05878
2594 67.3191 16.3405 4.81036 2.14826 0.258116 -0.648846
2178 30.0913 17.8611 4.38395 0.131374 0.213975 -0.850771
1646 0.0237136 18.925 4.96859 -1.94293 -0.449981 -0.449041
742 70.4038 22.6257 5.00648 1.29318 1.00073 0.810044
2051 29.7181 25.0398 4.61406 2.41366 -0.0368508 -0.948769
2101 30.5967 24.668 5.38457 -0.580397 1.33222 0.671031
1549 0.976597 27.0669 4.35462 -0.691152 -0.214834 1.49094
374 11.2744 27.7487 5.31977 -0.271418 -2.30938 -0.860565
79 17.9277 28.1495 5.54231 -1.65877 -0.242651 1.24284
1838 49.4993 26.9711 5.58095 -0.688131 0.469583 -2.07008
3177 10.4169 29.9946 5.16164 -0.152106 0.744886 -1.2813
3278 71.6201 30.0097 5.41439 -0.463087 0.421632 1.36069
761 32.3989 31.4456 4.84314 -0.932904 1.39815 0.129199
3003 33.2639 32.2024 4.30148 0.436726 -0.523994 0.749062
334 61.1567 31.7028 5.1577 1.76223 -0.649887 -0.278662
1840 0.619028 33.0759 5.08647 0.0122826 -0.544819 0.142642
1441 27.7468 33.354 4.27144 -3.02551 0.296298 -0.820375
3429 66.1898 33.9608 4.46891 0.508017 0.463915 0.714384
2299 36.6837 36.2068 4.90853 0.0678957 0.474499 -0.259419
2641 7.63971 0.267105 6.24241 -0.534641 0.125098 -1.48702
3988 64.0514 1.17356 5.84517 0.0727868 0.885644 0.119872
1825 0.109724 1.70842 6.65065 -0.20939 1.32601 0.328519
630 44.8532 2.54239 6.39975 2.33458 1.31237 -0.559947
2109 58.4798 3.72862 6.80355 0.489812 1.67772 -0.780194
3892 26.8636 4.53124 5.95382 -2.53597 0.748899 -2.37726
1599 72.6172 5.4347 6.59304 -0.441087 1.19124 -1.77029
3846 0.0782787 5.67888 6.144 0.412818 0.0133886 -0.874276
3457 45.4247 6.76395 6.68512 1.09067 1.09943 0.922087
3729 8.30929 7.74354 6.36179 -0.615921 0.37285 -0.46333
34 24.5901 7.41599 6.8592 0.885199 0.0178465 0.379325
1607 40.8783 9.52594 5.94024 0.515974 -1.08933 0.533462
3965 20.4077 10.7205 6.18595 0.00297405 -1.55057 1.28799
3855 32.3509 11.3321 5.78403 0.614729 1.6763 -0.460423
402 54.4718 10.593 6.37857 1.69375 -0.787614 0.891977
3576 32.8071 12.7522 6.64625 -0.616872 2.26305 0.221661
3922 40.8206 14.1423 6.56361 0.365999 -1.26395 -0.219188
2483 56.2933 14.0037 6.15504 -0.551311 -1.31593 -0.428763
2246 10.2401 15.5491 6.92437 0.472467 0.887474 1.34261
3556 17.7734 16.2816 6.00077 -0.568797 2.0051 -0.852671
3995 2.6126 18.0042 6.52775 0.0876478 -0.302309 2.35914
1643 9.34796 17.2899 6.74483 -2.51965 0.0244422 1.29569
2951 33.1976 17.77 5.67982 1.50744 -0.589459 -0.28762
2243 36.2402 18.4044 6.53125 0.10896 1.06231 -0.54235
1375 71.0615 19.1106 6.86931 -1.59346 -0.588429 -0.212237
2799 41.8096 21.2357 6.63669 0.417053 -0.559642 -1.74742
1462 63.0557 21.0157 5.79696 0.0943545 0.551912 0.566595
2605 72.2783 22.4311 6.98242 0.350593 0.0745304 -0.192719
3976 9.82539 25.0288 5.95489 1.0586 -0.426582 0.752974
1072 35.9961 24.7108 5.78036 -1.30783 -0.245465 1.07614
228 23.2094 25.6994 6.07824 -0.499166 -0.534255 -0.769651
3443 62.2234 26.9412 5.93069 -1.43463 -0.825004 0.0926238
102 65.2614 27.1221 7.06652 1.16245 -0.0262839 1.12704
3061 11.5422 31.0637 5.99495 0.734202 -0.172071 0.559065
1562 60.97 29.9737 6.60471 0.961014 0.993826 0.581533
2793 2.30901 32.5206 7.08032 -0.818627 2.12275 1.84197
2892 68.0315 32.4646 6.55739 -0.34409 -1.33918 0.483914
2102 10.9345 33.7507 6.09782 -0.863172 -0.732579 1.12714
924 30.897 33.4099 6.89451 -0.395968 0.340761 0.0490765
1232 58.0887 32.7256 7.04864 0.479363 -0.00190385 -2.19974
1308 27.3869 35.1495 5.88506 0.98713 0.518268 0.90392
2308 15.5502 36.3734 6.90048 1.70746 -0.0653151 0.300628
3137 59.2863 35.714 6.97417 -0.25869 -3.25593 0.0191105
1179 66.0808 0.793049 7.58359 -0.641923 -0.207133 -1.58757
1953 17.7205 3.71139 7.97472 -0.0692502 1.12119 -1.47833
2224 9.12752 5.51907 7.10903 0.279369 -0.403336 -1.8511
3638 34.3383 6.3369 7.35131 -0.833647 -0.316702 -0.243749
16 56.1914 7.34579 7.69802 1.20431 -0.443879 0.424491
2368 15.3713 12.083 7.60779 -0.312302 0.103876 -1.09454
2028 62.3825 12.4141 7.59051 1.01558 -0.418496 1.24586
3705 33.0956 14.0269 7.24528 -1.36037 1.18943 1.38191
1962 68.2634 13.013 7.91118 0.180569 0.698299 -0.691612
3444 27.8069 14.3786 8.01489 1.34053 -0.281862 0.327867
3154 59.0214 15.0914 7.95995 -0.864114 0.314044 0.728938
937 34.696 16.5465 7.78627 -0.322031 -2.02023 0.896411
1901 47.4351 16.7065 7.97817 -2.36939 1.82762 1.15762
560 9.22879 18.2295 8.03106 1.4701 2.00747 0.103009
2123 1.56782 19.9429 7.56532 -0.496477 0.536077 -0.14729
2491 2.84975 20.3724 7.14072 0.66362 0.186113 -2.20538
1759 19.7953 23.4873 7.93202 -0.867092 -0.165026 0.146427
734 35.2943 23.5609 7.39869 -0.30942 0.0801741 0.165717
3755 65.2381 24.1334 7.57876 -1.04122 -1.54735 -0.0722314
625 8.93594 25.5882 7.99252 -0.00839036 -1.44556 -2.57447
546 59.8204 26.5815 8.49349 -0.548909 -1.35909 0.680774
3220 15.497 29.5229 7.64636 -0.686262 0.710088 -1.11036
535 49.0174 29.7544 7.51584 1.13802 0.118331 0.157171
669 68.2863 29.658 7.10488 -1.06677 -0.330546 1.82011
291 27.1822 30.0881 7.93468 -0.83373 -1.08968 1.32851
2856 55.8033 32.4127 8.27404 0.282113 0.827686 1.16259
2004 3.76862 35.2047 7.99524 -0.0582048 -0.269789 -1.16676
1853 32.3687 34.6053 7.83475 -1.46872 -3.26127 0.0871348
2585 70.7194 35.8285 7.71831 1.18687 -0.30296 0.192047
2019 20.1419 0.983527 8.628 0.408013 2.10533 0.73472
3778 46.398 1.31801 8.7819 -0.299059 0.337116 -0.106182
2917 55.5981 0.989225 9.49247 -0.617575 -0.0844916 1.02926
1124 69.2223 0.550789 9.62097 0.968255 -1.29958 -0.535731
190 14.5636 2.30348 8.73221 -0.351663 0.266615 1.94801
1766 63.6333 1.92326 9.14226 -0.481145 0.0855728 0.617972
3312 16.0334 3.83246 8.9872 -0.920031 -0.745397 2.45059
3306 5.06484 5.2946 8.93983 -0.0479602 -0.966631 -0.766647
315 72.1149 4.72838 8.77686 1.31205 0.874969 1.15126
255 9.24669 6.25988 8.93637 1.7011 1.3151 -0.728638
1697 60.4537 7.93944 9.89163 1.49306 -0.0647001 0.914472
139 52.5249 9.90067 9.5931 1.23418 0.863684 -2.30969
1171 20.544 10.4668 8.81719 0.652148 1.88393 1.79079
2391 21.5758 10.1003 8.58437 -0.198998 1.34647 -0.387032
1088 44.7676 14.8089 9.00877 0.754738 -0.31243 0.666982
3299 66.8487 21.5776 8.72849 -0.181591 -0.372533 -0.230557
2536 10.3326 23.4882 9.8811 -0.854111 -0.942862 0.807285
3203 48.3309 22.9668 8.99853 -0.268595 0.207819 -0.635306
50 18.2656 24.66 9.70508 -1.06234 -1.46045 1.46315
2131 38.4556 24.3753 9.74162 0.853903 0.420105 1.01407
1600 47.0246 25.942 9.90101 -0.396944 -1.57263 -1.97748
1422 48.9918 26.1395 9.32675 0.745821 2.14116 0.477463
1997 69.0023 26.1526 8.82885 0.278338 0.0503127 1.38414
2390 49.6043 27.2211 9.86666 0.835519 -0.111797 -0.902943
3186 62.5646 28.3052 9.69861 0.918441 -1.57477 0.689669
1634 72.5807 27.2362 9.68058 0.931829 -0.72807 -0.529146
2302 47.253 29.5392 9.86191 -0.295802 -0.42968 1.15488
1782 20.9435 30.122 8.71629 -1.06187 -0.481866 -1.24959
57 28.2331 29.9849 9.25987 0.865335 2.2673 0.84048
1214 10.526 31.3008 8.79045 -1.54586 -0.459008 -0.260727
2443 57.6003 36.462 9.76662 -0.246578 -2.33314 0.511901
1831 0.00589531 1.35239 10.6557 1.30218 1.03863 -1.56234
2747 47.6358 0.467535 10.936 0.962979 -0.927185 0.0311925
2563 10.8641 3.22817 11.0764 -0.248842 1.64627 1.01584
484 13.1295 4.81327 10.5779 0.784147 0.205442 -0.241732
2638 40.1364 5.43831 11.2227 -0.411276 0.0419017 -0.66793
2176 41.3308 6.51982 10.4822 -0.464898 1.83406 -1.24823
3006 56.6663 9.57213 9.96709 2.13022 0.90645 0.791747
1153 22.2095 10.4398 11.1688 0.181182 0.152897 -0.0990609
3393 28.3856 10.1188 9.98304 -1.202 -1.19147 0.0612899
644 70.2318 10.9836 10.8535 0.795564 0.948225 -0.593823
3853 4.0489 12.822 11.0718 -1.07799 -1.06729 -1.28751
3588 21.54 13.3597 10.2809 -0.687265 0.92417 -0.490596
1431 60.3317 13.8276 10.407 -0.979715 -1.04489 0.484174
700 18.9695 14.2146 11.0459 -0.402976 -0.217704 -0.471194
1444 45.5044 14.9029 9.99447 -0.344978 -1.26431 -0.19362
2289 10.5588 16.4976 11.0487 0.242221 -1.11022 1.10362
1060 28.0373 16.5702 10.2957 2.27721 0.459965 -0.737287
346 30.6501 16.6557 9.98628 0.224596 0.0454464 -0.292836
98 51.0618 16.5575 11.2492 -0.669201 0.478408 -0.496155
330 66.7176 16.8599 11.1191 -0.246959 0.316401 1.54864
3743 34.1716 17.7178 10.0626 -0.113786 -0.669321 -0.283067
982 50.1816 17.0234 11.0763 0.626811 0.24214 -1.10749
2409 28.2 19.69 10.5726 0.357957 0.156036 1.57355
1680 39.8407 19.5226 10.2992 -0.109769 -0.975442 0.586471
3801 48.8225 19.0494 10.9388 -1.14815 0.124863 -0.944385
217 49.1717 21.275 10.5888 -1.23515 -0.91137 -1.01126
3767 72.8944 21.7305 10.2243 -0.437254 -0.747785 -0.802351
1221 31.5058 24.7214 10.5338 2.15261 0.266692 -0.494995
1860 22.2527 26.023 11.1695 1.43659 0.618486 0.599163
3781 22.8737 25.587 10.4447 -0.994683 1.43913 0.420956
2497 1.80884 29.4958 10.7204 1.00327 -1.16673 -1.27343
2208 19.2599 29.0022 10.6664 -1.15715 0.552026 -0.311741
2067 47.435 29.2944 10.991 0.493081 -0.936585 -0.109367
3680 57.2386 29.6606 11.2074 -0.970332 2.2902 0.872319
465 71.5343 29.6967 10.0413 -0.566148 -1.15298 0.633378
1009 23.1964 33.558 11.3165 -0.801343 -1.44177 1.23902
3265 54.2385 35.8305 9.98252 1.82284 -0.246154 -1.12793
480 3.49781 2.24853 12.2065 -0.216935 -1.93285 -1.10681
1658 41.1028 2.46733 12.2481 0.0332072 -0.644331 0.388147
3170 11.9878 4.08987 11.7129 -0.225123 0.958002 -1.60788
501 23.2035 4.96124 11.9054 -1.24552 0.671079 -1.35735
1446 41.0955 4.44213 11.4683 -1.34799 0.339623 1.74183
1026 43.7092 5.32935 12.4133 -0.591759 0.00686933 -0.12526
1804 11.8361 7.77927 11.8894 -0.0622076 0.0851057 -4.75671
2924 48.6214 10.5801 11.9972 -0.913332 -0.538348 0.949947
1434 21.6951 11.5795 11.6081 0.443717 0.156977 -0.744445
1622 45.0624 11.5302 12.0271 -0.658519 -0.556577 -0.118393
3919 48.3708 13.5465 11.842 1.0941 0.433238 -0.507666
3513 29.3888 17.006 11.556 -0.486671 0.796767 -1.23584
1498 38.6244 18.0091 11.7466 -2.48801 0.131737 -1.19548
1581 60.009 17.3949 11.9441 -0.425592 -0.735424 1.07193
2837 16.9013 20.2601 11.6425 2.01421 1.25029 0.218846
870 18.1091 20.2847 11.9702 -2.34278 1.0311 -0.396398
3811 63.9455 19.9571 11.9273 -1.15982 -1.08621 0.740454
2684 39.0279 23.7391 12.4484 0.463655 -1.7939 1.18402
1020 36.8317 24.1738 12.3294 -0.37663 -1.00474 -1.34073
2355 55.1299 24.1357 12.5579 -0.330763 2.56877 -0.825057
2411 64.2383 26.7057 12.1444 -0.192794 -1.73289 1.76268
1469 51.1343 30.4162 11.5986 -0.879026 0.146261 0.529621
3023 69.1553 32.3385 12.1079 1.39225 -0.126483 -0.575436
33 33.7323 33.7058 12.5609 0.257067 -0.923586 0.768021
277 55.3245 32.6511 11.7841 0.401952 -0.490193 0.911821
3808 0.643637 34.7224 11.9339 0.596719 -1.37325 -0.132806
1859 26.0416 34.7135 12.5522 -0.0796522 1.4255 -1.0991
2914 47.4268 35.1432 11.7609 -0.330948 -1.12754 0.622166
1656 1.433 36.4053 12.7263 -0.19836 0.0861441 0.252483
763 12.0028 36.2429 12.1383 0.228413 -0.413237 0.298274
569 53.2621 1.06958 13.3678 0.762082 -1.24092 -0.735998
1566 1.9027 2.22071 13.2802 -0.166102 -0.203438 0.459083
1790 70.3201 1.59206 13.0173 -0.590212 -1.18996 0.75805
852 2.41687 2.98847 13.9538 0.832515 -0.943847 0.681094
1405 17.217 3.98759 13.449 1.19211 1.73239 0.889261
3315 73.2994 4.0047 13.0691 1.93071 -0.399751 -0.188758
3820 32.8308 5.18325 13.5225 -0.534753 -1.72114 -2.09944
2838 34.5387 7.36307 13.3205 0.226112 0.220013 -0.428777
636 37.3681 8.08197 12.9328 -0.489298 0.482472 -0.790232
1624 55.8481 8.03862 14.1633 -2.56372 -0.106097 1.31681
3294 63.3072 11.3563 14.0853 -0.645192 -0.603873 0.855671
3059 5.37751 13.2335 12.905 -0.199388 0.980695 1.15747
3361 59.483 13.7542 13.7438 0.231416 0.816654 -0.966384
891 61.5981 13.6309 13.3325 0.804886 0.859544 0.00235367
3110 26.5743 14.9469 12.9057 -0.170258 -0.992893 -0.715801
968 66.2237 17.3988 12.8107 -0.0184992 1.47777 0.777028
2251 67.7246 17.0125 13.6827 -0.27971 2.00228 1.59433
3945 2.49859 19.6193 13.8794 1.14201 -0.988186 0.230673
269 1.9303 21.2095 14.0568 -0.0320183 -1.04354 -1.19709
56 49.2809 22.4204 13.0608 0.391459 0.899935 -2.75959
2881 4.4768 23.5338 13.3877 -1.14718 0.404314 0.800927
2798 34.8964 23.7987 13.2559 -0.200586 -0.650989 -0.282974
2668 52.1559 23.476 13.0555 -0.124721 0.00834967 0.576144
1002 64.7779 24.0215 12.8379 -0.0616724 -0.747125 -0.223881
3487 2.38123 24.9195 12.9933 1.39756 1.01799 -0.769747
868 9.02057 26.241 14.0264 0.0951425 1.93021 -2.60094
446 21.2618 26.2081 13.2526 0.870465 0.357191 -0.210405
3337 18.7582 27.0396 13.3056 0.0813079 -0.236403 0.217278
1889 65.4997 28.6173 12.7569 -0.586226 -0.0961632 0.135325
3659 17.8464 31.1365 13.3121 -1.51562 0.83168 1.35036
3587 19.3948 30.6537 13.1894 -0.297884 -0.070765 1.37182
1472 71.8993 34.3685 13.194 -0.406417 -0.0555421 -0.846845
1777 50.4411 0.132105 14.5322 -0.820051 0.684817 -0.0552404
1287 23.3456 3.04269 15.0133 0.503022 -1.21537 -2.18624
1824 38.1696 3.67969 15.1211 -0.443194 0.432035 -0.247555
1913 50.7243 3.05735 14.873 0.1444 0.132726 -1.31802
3189 2.10678 4.89965 14.4324 -0.641193 -0.260939 1.05108
1301 2.64619 5.09436 15.3826 -0.482936 0.493706 0.785842
375 62.098 5.30239 14.3159 1.55109 0.685926 -0.333664
2495 61.2979 4.36131 15.3848 -0.20096 -1.38283 2.02376
280 69.2492 5.70277 14.2845 -0.882905 0.750786 -1.57855
2002 6.64444 11.8735 15.0576 -0.558267 -0.308356 0.478864
2425 55.5633 11.5876 14.6193 -1.32897 1.11946 0.96398
2980 58.5889 12.3703 14.4924 -1.85915 0.354223 -1.51595
2074 48.5898 12.9781 15.3271 -1.66588 -1.75974 0.31205
3366 70.1549 13.8418 14.7663 -0.884708 3.40289 -0.378337
3788 39.7628 15.4669 14.6945 0.392294 -0.594281 -0.913621
3854 10.481 17.0187 14.3526 0.106921 1.53833 -0.0483242
704 18.4996 17.7216 14.5054 -0.818746 -0.126657 -0.383061
1177 53.5581 19.7588 14.3871 -0.705353 0.476091 0.61282
3400 18.8969 20.325 15.2302 1.8764 -1.18008 1.37103
2619 37.4816 21.5527 14.6116 0.0916029 -2.11335 -1.06731
2621 5.29432 22.8244 15.1068 0.0269268 -0.693291 0.924761
913 38.3206 24.4682 15.0697 0.138939 0.91012 1.13321
3783 30.9918 26.6886 14.544 0.92279 -0.50392 -1.61341
2072 42.7379 25.5895 14.4181 0.142859 -0.52622 -0.0302053
1138 24.4492 26.9494 15.0587 0.326808 -0.067718 0.0839885
2864 26.1901 27.4635 14.2989 -0.978994 0.164108 -0.0888084
2661 19.8437 29.5284 15.4996 1.7843 0.836003 -0.307964
2347 34.6431 31.0013 14.9786 0.42201 -1.77837 -0.227092
3524 46.429 30.1957 14.1734 0.32257 -1.71665 -0.498659
2413 36.7607 31.4002 14.5409 -0.399327 1.12898 0.512088
510 33.602 33.5093 14.6266 0.141527 -0.399129 -0.284906
3871 16.7785 34.259 14.4292 1.6314 -0.23976 -1.04745
2601 25.6973 34.5913 15.3351 -0.537855 0.49127 0.123018
314 28.5232 34.8743 14.6765 0.388237 1.32848 -0.243878
1385 43.1622 34.5413 14.4442 -0.103391 0.797504 0.653263
2009 25.9374 36.056 15.5702 -1.55992 0.043398 -0.55926
2121 49.6006 36.2843 14.3119 -0.556723 -2.17922 0.264339
3562 0.214395 0.796617 16.9761 -2.38505 0.77524 1.27545
2191 64.3715 0.162198 16.2638 0.545241 -0.527052 0.00396126
2952 18.3535 1.79207 15.7001 -0.241557 0.0878719 -0.886561
642 31.2074 2.3927 16.4675 0.204034 0.23964 -0.0529319
1236 37.5867 1.62743 16.3503 1.32249 0.832256 -1.74555
3465 65.9921 4.10045 15.833 1.03071 0.191294 0.348506
1710 17.6769 5.13763 16.6228 0.143723 0.0896645 1.57045
1295 21.1927 5.05258 16.1668 0.354814 -0.208472 -0.274419
1775 50.5194 6.72377 15.7426 0.841642 -0.269755 0.59024
1670 1.99924 9.50131 16.0678 -0.108657 1.62345 -1.41949
585 6.41835 9.32274 15.661 1.4475 -0.335175 1.5347
624 40.3098 8.53354 15.7844 -1.25289 -0.442412 -1.31354
3022 56.9552 9.01223 15.9473 0.321714 -0.640193 -0.195595
1297 8.93356 11.983 15.6422 0.430179 1.14692 0.718606
3432 13.3868 12.2083 15.9221 0.538591 0.789701 0.0676164
3692 18.0783 11.5375 16.5925 -0.393618 0.553719 0.152207
2902 53.2092 12.5313 16.1143 -0.736512 -1.99743 -1.26118
816 8.34124 12.9529 16.8725 -0.54326 1.76817 0.171216
2350 23.9713 13.9316 15.9376 -0.571137 2.94582 0.647444
2523 39.0751 12.9799 16.8234 -0.829315 0.353773 -0.396442
846 28.2844 18.0878 16.6346 0.649844 -1.05119 -1.63927
797 9.42953 18.7834 16.5665 0.649177 -1.09069 -0.392345
679 59.2639 19.739 16.6973 1.23475 -0.413302 -1.10469
2580 61.0138 18.9998 15.8048 -1.54978 -2.54035 0.26469
2142 15.7595 21.8158 15.8934 0.639115 0.237942 0.552147
3182 68.7078 21.6247 16.166 0.847604 0.823406 -0.543677
3994 44.6578 23.2513 16.1232 1.71213 -0.757166 -0.731278
410 28.5806 24.8814 15.8838 1.32591 0.317549 1.6027
1878 60.5571 24.8811 15.7638 -0.489235 0.375879 -0.0268188
3598 18.6943 25.8012 16.4643 -0.182518 -0.780794 -0.384113
2848 2.63398 30.041 16.2999 -0.514027 -1.43944 -1.16017
792 20.2652 32.2297 16.283 0.74369 -0.35413 1.67212
3039 45.1201 32.4306 16.2953 2.29919 -0.807179 -1.34354
1788 57.0641 32.8864 15.8011 -2.07102 0.145149 0.358078
554 11.9845 35.2905 15.8463 2.64598 -0.430585 0.537542
36 37.3753 35.1928 15.7072 -1.19408 0.491259 -0.00831474
3072 40.3462 35.9085 16.7842 -0.67478 -0.815371 -0.0584853
2730 6.83561 0.294267 18.189 -1.00444 1.21088 -1.37563
3940 3.60145 3.75092 17.1159 -0.517038 -0.852256 -0.170355
1564 1.13097 4.26305 17.5823 -0.638392 -1.91491 -0.721031
1376 65.3066 4.74144 17.7192 -1.47093 2.22542 1.25073
536 49.3081 6.74758 17.8256 -1.2506 0.864315 -0.549834
3462 40.6339 8.19261 17.1675 -0.245566 -2.11002 -0.810864
307 42.2895 7.15482 18.1216 0.423269 -0.355827 1.05564
3328 28.5191 9.10571 17.8235 -0.756588 -2.17722 1.3502
949 3.89477 11.0355 17.0623 0.540515 -1.06624 -0.0738014
586 59.9277 10.7824 18.1372 1.38028 -0.189379 1.00977
424 0.673428 14.0634 17.7582 -0.689679 -1.02097 0.124562
29 30.2607 14.7483 17.4052 0.42347 -0.625654 0.945554
939 11.4824 16.8064 18.2801 0.310007 -1.27274 0.106144
379 12.8917 15.6083 18.1197 0.353734 -0.530862 -0.122081
2091 42.3659 16.5373 17.7639 1.44416 0.691052 0.966751
3589 9.89035 17.992 17.3813 -1.62973 0.91969 0.33777
759 58.3638 17.0563 17.6546 -0.0177409 0.415401 -1.07804
3601 2.47274 19.71 18.2785 0.969083 0.298226 -0.610612
262 2.11627 19.0862 17.3399 -1.86568 0.504869 0.26438
2858 40.8151 18.7654 18.3741 0.843686 -0.467976 -0.363641
909 0.325015 20.3461 17.8004 0.811595 0.913186 -1.24259
1042 42.1509 20.707 17.5187 -2.84493 0.780051 -0.810642
2438 0.873696 21.3732 18.08 -0.429421 0.318734 -0.626267
3722 17.4359 22.0931 18.3967 0.482528 2.67548 0.591929
2639 37.2517 21.2909 18.3725 -0.00572238 -0.558217 0.523845
1141 38.5682 21.6468 17.2346 -0.227905 -0.375973 -1.00117
1679 46.5288 21.4285 18.232 0.529927 -0.225413 -2.50121
2288 9.39538 22.8857 18.1571 0.996686 0.537251 -0.463106
1386 69.0276 23.5835 17.2991 -0.844316 -0.647532 0.812305
1340 3.08065 24.5726 17.527 -0.54651 1.06975 -1.79167
1970 69.6742 25.4742 17.7038 0.476506 1.94567 -1.20218
978 71.136 25.2719 17.9988 2.2025 -0.402351 -0.124536
462 7.33806 26.6375 17.1853 0.289063 0.698433 0.454064
659 10.084 26.0594 17.7992 -0.191 -0.0469568 -0.992405
3134 37.0746 27.7245 18.1283 -1.01331 -1.63196 0.023397
910 68.9855 27.0336 17.0556 -1.10073 -0.534459 0.112807
2152 24.1069 28.4041 18.2512 0.386688 1.52946 -0.316375
127 6.82176 31.0928 17.1016 0.221886 -0.553237 -1.37447
2697 9.12729 30.983 17.5029 0.33198 0.755052 0.547558
2528 31.0221 30.4829 18.0271 -0.326027 -0.183839 0.726367
3368 66.8095 30.2058 18.1997 -1.08754 -1.88372 -0.850769
2427 4.02238 32.3417 17.1045 0.663279 -0.321899 0.837506
470 7.84444 32.1318 17.0171 1.96055 -1.53708 -0.819256
2640 47.352 31.3039 17.1702 0.255012 -0.701934 0.0125094
2336 58.8914 33.5353 17.0436 -1.36994 -0.310843 -0.88347
116 51.6686 34.3074 17.415 -0.149784 0.0823216 -0.352808
1587 25.3788 36.6472 18.2985 0.457716 -0.321419 1.13958
1783 51.2844 0.945351 19.0982 -1.54806 0.394119 -1.03594
2034 61.8318 1.10586 18.9726 0.22923 0.132296 -0.501861
3715 21.0623 1.68133 19.3036 -1.18909 -0.141959 0.396643
3012 46.7924 1.68378 19.693 0.0644241 0.0757248 -0.768512
129 63.0529 2.3187 18.981 1.08422 -0.43764 1.03297
1756 10.133 3.7565 19.7168 -1.24263 -1.46829 0.30888
2921 41.5658 4.12893 19.3435 -1.23778 0.987101 0.586824
1841 68.4574 4.99043 19.5241 1.56431 0.685492 0.0314774
1687 52.7955 5.84937 19.6677 -0.170556 -0.681092 0.339219
3416 68.5033 7.81971 18.8934 -1.72977 -0.967344 -0.0618384
1315 44.5051 10.2975 19.3611 0.588572 -0.0589683 0.191783
2345 55.5719 10.2382 19.7198 -0.674698 0.595686 -1.84962
488 0.0513828 11.8069 18.956 0.247902 1.13944 0.268338
2321 24.8246 11.6128 19.6364 -1.00679 0.965422 -1.13662
2599 26.2106 12.1464 18.7367 -1.5153 1.75411 1.73636
1636 59.4705 12.1653 18.5423 1.21768 2.1236 1.16582
1018 64.2538 11.4049 19.3763 -0.963816 0.550156 0.797299
3073 41.3645 13.0483 18.5736 0.451939 -0.329658 0.501791
2447 2.09417 14.2143 18.4972 0.407618 0.276245 0.000341902
2205 28.9916 15.2345 18.4619 0.805987 0.168258 -0.0767047
1029 4.63127 15.6735 18.6381 -0.458179 -0.748961 2.36418
1576 10.4562 16.3663 18.6893 1.22008 1.51833 -1.10698
537 24.6207 16.4754 18.9357 -0.274771 -0.659256 1.47547
626 38.6381 15.622 19.3936 0.240455 1.01638 -0.362524
1743 36.7777 18.3356 19.0333 0.78563 0.24826 -0.118653
1251 66.3487 19.1156 18.6327 -0.408606 -0.219256 -0.819301
2446 8.5329 22.4276 18.9673 -0.101671 -0.540965 -0.624795
1346 40.0334 21.6053 18.5588 1.24997 -2.18089 -0.107575
3403 46.6773 22.3707 19.3309 0.883663 0.827878 0.457412
2833 21.5985 23.3431 19.4608 -0.436215 -0.809696 0.302332
1420 55.5293 24.3673 18.5053 0.233638 0.346706 1.25659
3145 61.1222 26.4049 18.7411 0.487992 0.409315 1.03242
1770 19.8852 28.1009 18.6151 -0.633162 -0.380298 -0.957847
780 30.5691 27.6193 19.0505 0.681964 0.0355469 0.448147
1671 32.0418 27.9212 18.9932 -0.629784 0.769151 -1.13313
3636 37.2822 29.523 19.179 0.530705 -0.252357 -0.302137
1779 4.49478 31.3529 19.2908 1.02833 1.65576 -1.38698
2611 20.719 32.6569 19.2054 -1.70511 -0.905911 -0.320754
3992 52.504 33.9922 18.833 0.176012 0.458131 0.0966998
2524 42.2024 34.5053 19.0468 -0.664765 -0.256186 -0.793718
3091 73.6372 34.7718 18.5908 -0.796846 -0.369987 -0.175915
2199 38.0746 35.6603 19.6138 -0.0801343 -1.02586 0.184439
3423 12.8111 1.00859 21.0216 -1.99992 -0.147454 -1.2578
479 27.0748 1.22523 20.9077 -0.416728 -0.244647 1.2544
3568 45.6372 2.69693 21.2435 0.536169 0.707749 1.80037
2794 51.4355 1.88776 20.9964 -0.210807 -0.550441 0.242762
3058 45.6565 5.12242 20.6909 -1.04939 -0.188037 -2.61217