ITEM: TIMESTEP
48000
ITEM: NUMBER OF ATOMS
4000
ITEM: BOX BOUNDS pp pp pp
0.0000000000000000e+00 7.3680629972807722e+01
0.0000000000000000e+00 7.3680629972807722e+01
0.0000000000000000e+00 7.3680629972807722e+01
ITEM: ATOMS id x y z vx vy vz
152 49.825 0.142811 0.737776 0.463149 -0.524621 -0.169777
1679 6.20044 4.92661 0.0942076 2.08313 -0.544551 0.915197
3212 10.9423 7.94315 0.121693 -1.48874 0.12821 1.30802
3304 15.5417 7.61398 0.505023 1.11665 -0.52191 1.46144
1211 50.4446 8.43774 0.49065 0.870519 1.52051 -0.407158
3969 70.6645 7.11517 0.664005 -0.0593968 -0.45938 0.369795
615 49.2657 8.60022 0.0152068 -0.381321 0.155093 -0.920163
774 51.3753 9.39808 0.701614 -0.362996 0.633988 -1.08821
1176 72.8577 10.1079 0.419301 1.86107 -0.391404 0.951408
3247 3.84661 13.4388 1.09586 -0.733669 -0.292702 1.11569
3138 25.1229 12.8504 0.187229 0.350627 -0.504628 -1.12537
3656 72.6766 13.2478 0.186769 -1.14485 -0.861535 0.947
3704 8.01872 15.3016 1.29669 0.711924 0.766037 0.75388
1802 33.0326 15.3571 0.806096 -0.288331 0.876994 -0.150657
2137 39.707 17.44 1.12777 0.524818 1.02801 0.342643
3587 1.08935 18.6449 0.573837 -1.11841 0.17574 0.593379
3307 13.2601 18.5643 1.0391 0.809451 0.102855 -1.37776
2621 14.4857 18.7606 0.725894 0.741477 -0.413558 -2.16606
619 42.7883 18.6571 0.917367 0.830626 -0.951624 0.869114
2995 57.8684 18.6536 1.21399 0.0359106 -0.629575 -0.418963
802 60.0459 21.0783 0.0581475 -0.695819 1.36264 0.537522
3778 42.0545 24.2907 1.14003 -0.902013 0.482748 -0.954194
3942 37.9708 25.9645 0.892948 1.87891 -1.37786 -0.25379
2441 43.7234 26.0711 1.23652 -0.676785 -0.669631 -0.0753532
1267 25.9105 28.9204 0.243972 -0.490678 1.60569 0.259887
172 67.7743 30.1718 0.418345 -0.7473 0.678629 0.116627
1426 12.7758 32.0853 0.0688063 -1.0484 -0.842055 -1.28639
3781 17.6133 31.6622 0.372592 -0.0889834 -0.133231 -0.662444
205 45.2507 31.218 1.40877 -0.207352 -1.65004 1.97606
2601 11.2319 34.736 1.21064 -0.56224 0.00347199 -1.24617
1873 30.3242 34.9978 1.30098 0.16241 -0.949714 -0.801944
739 10.1548 1.96129 2.32042 -0.00159978 0.276442 0.911352
2845 69.5359 2.37991 2.37491 1.09109 0.280972 0.211293
2347 41.7682 4.11707 2.68747 0.579985 -0.251246 -1.10118
911 51.2317 3.06414 2.27347 -2.00639 0.418339 -0.182813
2480 62.2404 3.68938 1.65371 -1.37289 0.636744 0.165176
1232 12.0546 4.61271 2.57514 1.67804 -1.11047 0.565664
2730 55.6058 5.22899 2.49799 1.16662 1.30294 0.055057
1886 56.2051 5.58409 1.53496 -0.252828 1.97234 -0.888756
2951 57.6659 4.32956 2.51536 0.294252 -1.0187 0.700796
1928 42.1304 5.88843 1.99724 1.20557 0.821644 0.384972
2917 51.2183 7.18144 2.6574 0.7452 0.181688 0.121996
3331 12.5204 10.0741 1.5194 -0.194757 0.163872 -0.0950723
98 60.5868 11.8969 2.20695 0.733929 -0.241169 -0.365896
2493 14.0473 13.2154 2.8152 0.422835 -0.954183 0.407112
2539 32.6118 13.9818 1.55127 0.259044 0.440557 0.440999
164 65.0605 16.3816 2.49626 -1.32129 -0.0417083 -0.767526
2387 38.5408 17.369 1.48124 -0.525791 -0.637533 -0.361287
622 40.4144 18.1828 1.66116 -0.23781 0.141604 0.766502
3059 14.822 18.72 2.28383 1.11212 -0.37569 -0.888509
1634 69.778 19.0276 2.1805 -0.137749 -1.77879 0.731833
2116 73.1152 21.0929 1.4512 -1.63726 -0.299241 -1.79006
2381 10.7648 22.0521 1.60609 0.0671008 -0.0177895 -1.22904
2467 17.2813 21.7023 2.63958 -1.45379 -0.642996 -1.98222
787 20.6004 21.7536 2.8043 -1.64422 0.868518 -0.224986
2999 41.6051 22.7894 2.83008 0.678214 0.339886 -0.403467
3994 70.9229 23.6272 2.60613 1.05057 0.0904864 -0.622876
3569 28.8874 25.1556 2.73284 -0.293791 -0.340753 0.618811
879 54.9753 25.3158 2.82213 0.75686 0.896111 0.371533
3426 54.7388 26.3771 2.04558 0.622371 -0.717585 0.452699
1137 31.4394 29.1417 2.26163 -1.25896 -1.2479 -1.64066
1130 48.9371 28.5345 1.58811 -1.21715 -0.54321 -0.737561
2240 10.2873 30.3254 1.78695 -0.642031 0.356182 -0.412515
2180 23.1194 30.5877 2.81117 0.245122 -0.350217 0.164255
2593 26.2537 32.0215 1.97435 -0.0457886 2.38247 -1.77232
289 42.1617 32.1405 1.75795 -0.542159 -1.1886 1.94573
2551 15.5819 33.4096 1.48677 1.34936 -0.128683 0.638936
644 14.7059 33.0036 1.652 0.233412 1.25488 -0.381352
3436 4.51465 0.0120103 4.13111 0.8287 0.986532 -0.729022
674 22.7418 0.580377 4.19465 0.981084 1.07291 -1.19455
2859 19.0876 2.57934 4.18424 -0.545565 0.741501 -1.15322
36 22.7136 2.11846 3.88674 0.602211 2.67169 0.837277
3029 34.1151 1.67429 3.22562 -0.641737 1.71498 1.4213
1631 51.7019 1.7681 2.9191 0.239266 0.537115 0.260299
50 0.555126 5.22295 3.23493 -0.295395 -0.0100654 -1.69661
1025 53.5545 5.2355 3.52612 -1.13283 -0.586617 0.239064
3087 47.8504 6.057 2.85647 -0.338328 -0.57763 -0.849698
3760 7.87358 7.85219 2.98723 -0.338383 0.368005 -1.92617
1730 52.0247 8.45975 3.31759 0.71385 -2.23889 -0.846699
3650 36.9802 9.63484 3.33551 0.442057 -1.38349 -1.10183
1153 30.1787 11.9341 3.8328 -1.17794 -0.508761 1.93911
2412 33.829 13.8733 4.0811 1.1226 -0.298965 1.90005
709 38.5282 13.3675 3.43524 0.471438 0.373165 -0.420822
675 56.2653 13.0241 3.63212 1.02613 1.37355 1.81552
2384 16.5492 15.1699 4.02991 0.30282 -0.48671 -0.0783117
1988 44.5625 18.3478 3.33719 0.331127 -0.779352 -0.137599
3170 72.6284 18.3123 4.18991 -0.321912 0.930505 0.405752
1892 48.9556 19.635 3.16886 0.23079 -0.340605 0.254059
3855 62.3373 18.8308 3.37821 2.29019 -1.1147 0.801964
2359 70.2568 19.6214 3.56326 0.868172 1.75629 -0.281194
1409 22.6754 21.0739 4.11188 -0.998846 -1.66472 0.291817
2523 29.8768 19.9639 3.89615 -0.592653 0.485325 -0.868812
1973 42.8313 20.1545 3.14944 -0.52065 -1.06289 0.565842
3333 55.3054 19.9465 4.01276 -0.116566 0.476426 -0.843919
3443 21.7079 21.7184 3.12661 0.418329 1.14778 1.06568
1557 48.9404 25.1463 3.8607 -0.019871 -0.114454 -0.442426
3220 71.4814 26.3633 4.00963 -0.878848 -1.22047 0.686186
1715 48.7006 27.0597 3.89411 1.09842 -1.10825 -1.35692
206 8.17227 31.1556 3.39927 0.125104 -0.76349 1.14952
87 46.1733 30.947 2.94699 -0.948964 -0.933408 0.923123
889 52.8562 32.0919 3.51252 -0.208217 0.705018 0.509059
84 3.88143 33.5177 3.93408 0.599963 -1.13572 2.18417
3092 6.51193 32.7622 3.81461 -0.803106 0.187967 0.902167
891 51.8359 33.5732 2.84437 -1.7633 1.24129 -0.690132
2193 0.540142 35.285 3.10007 0.143455 1.04663 -0.26054
1533 18 34.157 3.40818 1.72973 0.663 1.2157
3366 64.4313 0.98591 4.90069 1.11114 2.56448 -0.600172
3612 71.2822 0.609682 4.30943 -1.0489 -1.5073 1.81195
1282 6.69135 2.61119 5.06843 -1.35727 1.44598 0.870716
268 29.9918 1.70777 5.24102 -0.701419 0.0651507 0.156773
2134 72.8342 1.54979 5.14522 -0.554401 -0.499284 1.07811
3129 2.18448 6.8273 4.87181 0.598954 -0.258648 -0.0973573
797 25.487 8.29987 5.30612 1.43223 -1.51097 -0.28196
3178 30.9844 7.80673 5.05166 0.142999 1.06715 -2.44185
1584 62.1337 7.44659 4.28961 0.729951 -2.42944 0.0912002
20 36.3434 8.92144 4.98842 -1.00287 -0.0778967 0.0576598
441 29.6296 12.3441 4.83068 0.545755 -0.442773 -0.245563
1105 69.2627 11.9182 4.44066 -0.415375 -0.625382 0.0356997
2257 42.7477 13.2332 5.06389 0.600311 0.716678 -0.0974378
2622 25.235 16.7547 5.04228 0.774335 0.296297 0.226888
3213 31.7664 16.8329 5.35913 -2.3357 2.23894 -1.30302
1480 61.3011 16.8498 5.64163 0.964274 -0.2915 0.919772
2051 65.0496 16.7625 4.37878 1.75364 0.00726986 0.569526
3480 5.83436 18.7492 4.78261 -1.9648 -1.67244 -0.336979
2638 32.3554 20.4307 5.19499 0.87372 1.0981 0.680479
624 38.7353 21.9111 4.34736 -0.138235 1.17853 0.235181
2334 68.9482 21.2787 5.60576 1.08416 -1.26539 0.521053
2686 17.8799 23.6885 5.03394 -2.21917 0.573769 1.93079
2564 53.9046 23.2515 4.26268 0.74084 0.582615 0.681409
1698 60.8985 23.7932 4.36027 0.692321 1.3797 -0.0799695
1526 46.5703 24.8797 5.59168 -0.249657 -0.149702 0.268588
3052 60.5639 24.8101 5.44678 0.235352 2.31388 1.08266
878 59.1981 26.1468 5.58567 0.207686 0.220879 -1.23126
2524 20.8283 27.0643 5.37021 -1.246 -1.01651 -0.719984
2446 9.25722 28.9093 5.33708 -0.412757 0.369209 -0.547116
1939 17.8279 29.9081 4.96136 0.909841 0.125168 -0.472534
3540 51.219 31.1213 4.39208 1.43177 2.52519 1.10647
154 56.0163 29.7915 5.6415 -0.807644 0.00289822 0.734657
3791 1.06156 31.7337 5.33101 0.727334 0.661051 -1.90125
1251 5.35059 32.7757 4.71604 1.30935 0.717014 -0.620894
529 6.2993 34.4234 5.59151 -0.0749589 0.801006 0.15347
3417 41.6108 35.0975 4.34787 -1.14324 0.724938 1.10038
2438 70.1029 34.5687 5.46444 0.0652169 0.639031 0.304778
3592 73.6316 35.0492 5.27035 0.953832 -1.36339 -0.532307
3532 26.9891 35.9733 4.5991 1.14059 0.363674 -0.0840493
1917 30.2935 36.2093 5.41878 -0.953519 -0.466151 0.339365
1422 32.9183 35.9004 5.36948 -0.342124 0.749523 0.0155897
3901 60.6669 36.8399 5.61894 -0.454775 0.663365 0.254203
3067 64.9267 35.9751 4.54245 0.743024 0.713038 1.2949
845 8.98278 0.492279 6.78396 -2.25719 -0.596819 1.39964
636 22.1665 0.0494356 6.67039 -0.481402 -1.84721 -0.481812
1622 28.3257 0.886719 6.95343 -1.04869 -0.384286 -0.379793
1552 40.4221 0.975294 6.84612 0.139948 -0.00989826 0.861871
307 31.6804 1.55094 6.79971 -1.16898 -0.434371 -0.858122
2852 33.9482 2.46505 5.81004 -0.362114 -0.0681923 0.495337
427 37.2585 2.07172 6.39825 -0.119801 -0.952816 -1.8872
3621 3.26992 5.03572 6.5301 -0.249462 -0.0123988 0.779492
1290 50.0917 4.73603 6.32713 1.68619 -0.000959231 2.22935
2574 62.4529 5.431 6.86846 0.855241 -0.733131 0.435357
627 30.9348 7.74827 6.73234 -0.50395 -0.0503008 0.598576
124 2.73489 9.38617 6.98219 -2.59865 -0.476424 0.0101238
1997 53.7437 8.8349 5.72589 -1.08777 -0.7238 -1.34355
2892 0.153743 11.4302 5.98292 0.94853 -0.451672 -0.700847
3246 40.4122 11.8383 6.93207 -0.449859 1.20434 -0.464031
1346 59.0124 11.9581 5.84188 1.23069 0.131469 -0.820382
3124 72.2724 11.8186 5.93456 -0.154249 0.98257 0.185137
704 2.592 14.2862 6.45034 -0.868895 -0.459409 -0.764829
2247 33.7905 15.2939 6.18705 -0.262484 0.213647 1.00911
379 40.7659 14.4306 5.8056 1.98139 0.407452 0.823369
1530 70.7325 15.287 6.6939 0.131863 -0.973536 0.251621
1932 9.82287 17.9838 6.96909 0.746304 1.53709 0.167613
2835 27.6468 18.1452 5.85564 -0.321462 2.89468 0.416802
2761 32.116 17.9253 6.1802 -0.855145 0.222241 1.29197
1236 42.6548 17.8866 6.46508 0.339123 0.0312716 -0.879252
3554 63.6581 17.5114 5.73795 0.0374895 -1.60094 0.771496
3022 69.9297 20.0984 5.95995 1.39054 1.12869 -0.114302
3811 57.7105 21.2591 6.86134 0.916841 0.750272 -0.545296
420 72.0082 21.851 6.71347 -1.04534 -0.951186 0.276829
3763 24.4516 23.7691 6.38176 -0.309452 0.0212178 -0.554517
1840 69.6492 23.9839 6.50745 -0.412628 -0.518918 0.118829
1675 61.2485 24.9631 6.3892 1.22773 -0.210107 0.402627
763 6.3555 27.8155 6.85592 0.105499 -0.213687 -1.10674
3119 41.8811 29.5735 6.0962 0.495943 1.49299 0.404476
2081 49.1604 28.6231 5.91408 -0.239809 0.549297 0.855325
668 20.124 36.3025 6.68231 1.0449 -0.298802 -0.750514
2530 30.2647 36.7004 6.42466 -0.233464 1.04102 1.19987
2866 53.4634 35.814 5.67404 -0.394076 -1.11547 0.102167
1441 71.135 36.3103 6.21927 -0.633718 0.978809 1.10246
700 12.5332 0.396846 7.36943 0.484292 -0.833538 1.16988
114 33.4908 0.673654 7.13141 -0.429621 -1.02316 -0.266224
1561 11.8651 1.72612 7.11791 -0.134553 0.516379 -1.18133
451 40.8826 2.73756 7.16501 -2.16548 1.64094 0.110769
546 41.6639 1.98987 8.01676 -0.635302 -0.174607 1.07624
2118 11.4636 3.81869 8.16536 1.11909 1.04687 -0.727929
346 36.0504 4.34832 7.78857 0.381081 -0.515876 -0.208203
1630 58.2808 8.49797 7.54297 0.51399 0.494925 -0.309787
2357 50.6148 9.38323 7.95281 0.355468 -2.24897 -1.09014
1681 2.55014 10.6783 7.89746 -0.656553 -2.13723 0.914708
1801 30.1557 10.3435 8.1288 0.440774 -0.0814408 -1.39541
3788 59.2297 12.5609 7.82996 0.820745 -0.479119 -0.000149892
2386 28.5304 13.1787 8.27881 -0.501561 1.15025 -0.275664
2044 41.5701 15.56 8.49704 0.30672 1.34963 1.08684
2352 57.7726 14.6975 7.83403 -0.87613 -0.334452 0.582031
1145 62.9481 16.7433 8.0691 -1.54017 -1.06086 1.894
3950 63.7037 15.7608 8.34745 0.834075 -0.823393 0.236843
1458 9.41166 19.7063 8.32826 0.0821053 -0.20668 -0.822755
503 48.1057 19.6239 7.13188 -1.58661 -0.0723869 0.607572
3741 62.3809 19.4497 8.256 1.26772 0.221321 -0.397897
1221 61.204 20.782 8.48279 -0.0967213 0.373508 0.778715
609 13.9815 21.7274 7.7172 -0.531657 0.571061 0.729384
3505 16.8169 22.5979 7.73953 0.575939 1.38176 0.982329
1520 34.3359 21.6412 7.24386 1.40711 1.48086 1.34577
103 59.1465 26.2822 7.98078 0.82168 1.70305 -1.16626
1784 6.04922 28.1412 8.15605 -0.507351 -0.919326 -1.79034
2632 72.6061 31.7805 8.29711 0.573433 -0.86038 0.209478
1516 12.0515 33.6172 7.24121 -0.940339 -1.97116 -0.0808354
1898 16.5897 32.5896 7.3015 0.712026 -0.20719 -0.428397
3564 59.5738 33.9985 7.53312 -0.688263 1.2353 -0.85992
2697 69.004 34.6197 7.3394 -0.777364 0.0222573 -0.648331
560 29.8979 36.6598 8.10835 1.30736 -0.344816 0.82914
1132 70.597 0.0203982 9.72281 -0.844527 0.571571 0.0849523
702 11.2039 2.58582 8.5374 1.0894 0.575722 0.23411
22 61.5924 2.33774 8.52558 0.234195 -0.0168841 0.745057
752 66.0104 2.24419 9.03907 -1.22666 -0.415772 1.19859
3945 11.063 8.27798 9.7867 -1.17832 0.109684 -1.34075
3296 64.5171 7.37648 9.34638 0.456836 -0.0985752 0.592302
2764 18.62 9.05709 8.63482 -2.61694 -0.407441 -0.112255
3025 34.8358 8.79069 8.73848 -1.24306 -1.47127 0.178277
1503 61.5228 9.15298 9.40765 -0.391175 -0.64204 0.841574
548 31.1754 10.9564 8.57249 1.20418 -0.183249 -0.612302
3415 71.7882 10.463 9.49611 1.08691 -0.164465 -1.76805
2674 36.3245 11.6475 8.74197 -1.52738 0.612686 0.159086
2865 36.8197 13.6961 8.51783 -0.741924 -2.21491 -2.1079
409 22.0562 14.241 9.84129 -0.255943 -1.50031 0.545875
3775 42.0411 14.9059 9.36432 -1.22948 1.36587 0.9375
3113 45.6955 15.3088 8.94423 0.356886 -1.54851 0.0807309
2319 14.4141 16.865 9.19732 1.26851 2.24272 -0.024328
2976 23.3969 16.2526 9.29637 1.08878 0.174441 0.728046
308 3.33637 17.9432 9.35938 -0.922979 -0.763805 1.16707
1945 11.9174 17.7796 9.66003 0.587314 -0.356977 0.126646
2277 50.365 20.7575 9.58969 -0.242684 -0.15249 -2.24174
3018 59.4316 20.6887 9.70553 0.21534 0.661267 -1.37439
2887 5.76922 21.6058 8.54271 -1.14299 -1.56697 -0.718606
1773 62.6565 22.4329 8.79165 0.027224 -0.844992 -0.970103
1466 39.354 24.808 9.64926 0.0487815 1.06332 0.354301
3028 11.4736 26.2376 9.74599 0.361095 0.644043 -1.17247
161 36.694 28.2541 9.21291 -0.809126 0.316352 0.201841
1015 53.614 28.8198 8.98889 -0.412538 1.10995 -0.321684
1076 25.5642 30.1646 9.06158 1.31737 -0.268118 -0.689789
354 42.326 32.5111 9.37717 0.402368 -0.526138 -0.661593
1544 48.5023 31.1797 8.88742 -0.828911 -0.144744 1.44855
3725 24.9392 33.3414 9.85969 1.26308 -0.0452471 0.427899
549 32.8055 36.5654 9.77849 0.0520259 0.107486 -1.91104
1642 35.2904 36.4632 9.19202 1.05589 -0.754235 -1.17393
3742 42.0338 36.2469 8.61269 0.468702 -1.82201 -1.22795
1088 54.8746 1.16166 11.0279 -0.102763 -0.210388 -0.491227
1691 56.0083 2.65786 10.4331 -0.907175 1.28252 1.03783
3913 70.8745 2.44527 10.3076 0.461774 0.193259 1.78454
149 17.9425 3.30411 10.1724 0.409053 0.950686 -0.947727
2012 28.3823 3.8284 10.4075 -0.477382 -0.258508 -1.33419
484 24.8907 5.08117 10.0206 0.805746 -0.258123 0.658576
1375 62.8915 5.37443 10.905 1.93146 0.704095 0.583293
3151 25.6019 8.29987 10.8372 0.620096 0.872417 0.378083
3690 26.4954 7.5511 10.576 -0.215376 -1.48357 0.723563
3149 50.5508 8.08276 10.5786 0.00863247 1.23243 0.891966
2232 4.3449 9.52769 10.2983 -0.0163035 0.132562 -2.20982
2767 11.097 9.90604 10.5842 0.190161 -1.05361 -2.09355
3127 20.3911 9.28892 10.872 0.389844 -0.84585 0.0741859
1797 51.5119 9.6358 10.4488 0.501093 -0.35247 0.264698
2130 44.8579 11.3549 10.8768 0.29986 -0.307138 -1.27673
3955 44.2296 11.7289 10.0912 0.404678 -0.570925 -0.5094
3647 39.2048 13.1364 10.1172 0.637754 1.16516 -0.113846
3678 55.0055 15.528 9.99657 -2.91163 0.40318 -2.29981
283 2.12157 18.0736 10.8945 0.451964 1.52584 0.91074
672 2.61595 17.1563 10.2451 0.804654 -0.532328 -1.60325
2689 2.4529 17.0767 11.2529 -0.688183 -0.903933 -1.12304
3836 3.36503 17.7281 11.0436 0.498352 0.206111 1.6632
3524 25.9013 17.8749 10.8 -2.83992 0.286261 0.380856
1152 42.8856 17.3346 10.0043 -0.684539 -0.734192 1.21566
2869 4.2724 19.7963 10.2433 -0.433881 0.242047 -3.10282
78 29.054 21.831 10.5256 0.287088 1.09049 -1.92224
2868 47.0114 21.4869 10.9787 0.186341 -0.145875 0.847194
467 20.7094 26.4132 10.6519 -1.19769 -0.568191 1.58418
2575 70.9384 26.5406 11.1246 1.22444 -0.417914 -0.123024
1624 46.8848 30.7536 10.005 0.299936 1.74617 -1.03382
2045 59.6574 32.3753 11.2343 -0.169754 -0.577464 -1.49415
2916 8.14147 33.2691 10.9291 -1.53648 0.243271 1.88298
3666 43.7806 33.6069 10.1697 -0.970658 0.20078 0.68061
1138 29.2261 34.0234 10.3567 0.683286 -0.677502 -1.58379
3222 13.1187 36.3877 11.2294 0.966339 -0.7193 -0.195484
3271 26.3737 0.505728 12.1881 3.37566 0.46237 0.576482
1150 6.0777 2.67083 11.6632 1.1665 -0.300281 -0.209772
275 19.7541 1.77833 11.8646 0.0590005 1.08034 1.02282
601 31.2147 1.89725 12.7222 1.5061 -1.78397 -0.5098
2379 57.0768 2.62259 12.2667 -0.687162 0.925506 -1.23089
1976 10.03 5.06166 11.4668 1.298 -1.43671 0.741773
1057 14.8433 4.37485 12.1747 -1.02284 -0.976125 -0.105084
2766 14.6976 5.8477 11.4579 -1.13046 1.65903 1.43615
100 28.8657 6.42443 11.4602 1.04837 -0.606383 0.0607483
1547 39.1739 7.01317 12.1102 -0.8838 1.50083 -0.413063
2688 56.2051 6.75218 11.8598 -0.594423 -0.855929 -0.457241
252 62.5525 5.97817 11.9355 -1.08252 0.809716 0.102808
1897 68.9752 8.35765 12.4937 -0.843384 -0.349476 1.60652
1872 68.4426 7.5725 11.3405 -1.79548 1.27553 0.219614
1408 41.7947 8.56361 11.7215 0.508198 -0.353818 -0.0621607
3143 68.5156 9.34802 11.7935 0.696379 0.420424 0.0794896
559 50.4722 11.094 11.4146 0.0134334 -0.489327 -0.185173
554 40.7827 11.5757 12.3512 1.21177 -1.38267 -1.58226
150 37.5018 13.9063 12.278 -2.38933 0.694677 -0.271493
3156 3.44739 14.825 12.0399 0.474944 0.97867 0.688704
1815 6.23665 16.3224 11.4093 0.0326405 -0.358235 0.261783
55 51.2834 16.1517 12.0751 2.02538 -1.30536 -1.50882
1405 24.8471 17.173 11.8152 0.0276194 0.217863 -0.188301
1186 37.6783 17.8603 12.1067 -1.99244 -0.34423 1.33107
3281 3.55198 19.4129 11.812 0.379956 0.630606 1.32542
3389 54.609 19.2037 11.8963 -0.651354 -0.28004 -0.59837
3988 63.9842 19.7299 12.5152 -0.265818 0.818315 0.405711
1260 0.942843 21.0421 11.698 -1.49971 -0.0443159 -0.766124
3922 32.017 20.0103 12.5872 -0.42243 0.306013 0.797554
1451 19.7962 21.6256 11.9197 1.11725 1.48869 1.67645
3023 12.6783 24.0858 11.9017 0.744081 -0.397022 1.10613
2439 29.7512 23.7425 12.0602 -1.04979 1.72154 0.785245
1020 19.4759 24.688 11.8348 -1.30385 0.676356 0.679252
1424 30.4815 24.42 11.6844 0.569053 0.551832 -0.259493
2243 26.6539 26.2277 12.4813 -1.32914 -0.665491 -0.0927696
3061 32.2173 28.1196 11.7577 1.05507 -0.113275 0.11735
3636 48.2284 28.302 11.3996 -0.394143 0.58998 -0.562492
897 12.6543 28.3578 12.6486 0.410927 0.746018 -1.55773
2158 22.3439 30.2499 11.7159 -0.163897 0.910881 -2.02421
1960 45.9889 32.3581 11.8574 -0.892906 0.252645 0.639175
3604 61.1407 31.9965 12.5902 -0.0823457 -0.955489 -0.481102
2813 20.8646 33.0338 12.4465 -1.74445 -0.464254 1.55124
1613 0.759345 34.4898 12.3208 -1.97836 0.239742 0.679524
2735 69.941 36.3416 11.5174 -0.0737789 -1.20064 0.958402
3196 35.3877 0.584854 13.5091 0.682366 0.796929 -0.939628
3404 53.5878 0.946792 13.6409 -1.32319 1.03282 -0.0144181
1295 6.11137 3.40611 13.7181 -0.936612 1.64149 -0.490332
823 7.70672 3.94533 14.1605 -0.398949 -0.238053 2.03563
3122 63.5294 4.15171 13.8298 1.31287 0.961218 0.223442
3737 43.4913 4.44917 13.5354 0.917776 1.14569 -1.0334
1902 23.8952 6.03544 12.9299 -0.877907 -1.49216 0.620511
820 24.6956 7.33997 12.8851 0.866998 0.944951 -0.73237
224 68.8409 9.64385 14.1097 1.35465 0.299029 -1.26401
3671 0.356903 11.0439 13.3416 -1.16651 0.157156 -0.643681
413 22.582 10.7939 12.9762 -0.0658269 -0.521436 1.78711
3313 21.8177 11.1679 13.3864 -1.69098 -0.68243 0.0672715
130 44.5636 10.2689 13.5681 -0.830033 -0.25634 -1.32281
1415 42.6162 13.4911 12.8408 -0.800539 1.64791 1.39848
2211 41.9492 14.5125 13.0868 1.3387 0.69096 0.559798
3767 70.2678 15.284 13.9665 0.0360723 -0.0312767 1.3011
2072 49.2109 15.6239 13.0456 0.131858 -0.85834 -0.0773627
3808 1.8738 17.8086 13.0326 0.674377 0.38361 0.453804
243 13.5374 18.207 12.8143 -1.23028 -0.859912 -0.670638
1525 39.3253 18.0192 13.1107 -0.851287 0.246799 -1.8016
956 13.7966 19.543 13.366 -1.04775 -1.27335 -1.31754
286 14.3309 21.1039 12.8097 -0.961307 0.131113 1.30016
3487 19.5649 22.4482 13.8807 0.662239 -0.896889 0.758409
2361 24.8627 21.4291 13.8266 -0.0136019 -1.34877 -1.25443
2369 25.2199 24.0128 13.5651 -0.824564 -0.187785 0.63734
3072 33.1436 23.3578 13.6634 -1.08482 0.0373373 0.544588
1738 47.1188 23.0494 13.572 0.347301 -1.24258 1.26791
3133 68.8113 23.5086 14.0459 -0.331561 1.97685 -1.21636
1841 11.8971 24.3947 14.0723 -0.285982 1.02274 -0.0481773
3322 16.7596 24.6872 13.6544 0.0090842 -0.547846 0.633519
1878 50.8846 25.1591 13.3722 0.315634 -0.618044 0.204017
1376 66.0191 24.3702 13.3763 0.359846 0.77022 -0.859937
2611 2.92015 27.3332 13.631 -0.949857 -0.659696 -0.635294
2284 27.2348 26.9465 12.7606 -0.335863 -0.857418 0.176591
2244 64.3698 27.6413 13.0008 -0.355311 1.00984 1.04267
3259 26.1754 28.3844 12.9231 0.66085 0.639804 0.122596
3544 29.2244 30.1031 13.3798 2.60984 -1.601 -0.553687
1743 46.2488 29.9555 13.8909 0.383128 0.515156 -0.323989
3787 36.2695 31.8195 14.1207 0.568153 -0.144637 -0.555572
535 72.6539 31.4999 12.9571 -0.594859 0.327957 -0.186065
2413 36.3895 33.499 13.5574 1.57541 -0.440242 0.982467
718 52.6682 36.1671 13.6286 0.900797 -0.668178 -0.247618
2299 55.5597 35.9443 12.945 2.38933 -0.726046 0.947825
1148 47.4536 0.849712 15.0622 0.989115 0.0705901 0.952374
570 48.8155 1.36604 15.1898 -0.163743 -0.30953 -0.572172
2140 10.0335 1.6206 15.1374 -2.20141 -0.604423 1.94383
1065 21.2142 1.66329 14.4127 1.11553 1.59607 0.0296198
2187 56.3043 1.95296 14.8792 0.415225 0.398936 1.629
2552 71.1881 1.42264 14.6369 -0.147279 0.211852 -1.29129
1623 12.935 3.99271 14.6878 0.0758109 0.281745 1.55545
3432 26.5142 3.66835 14.3034 -0.127469 -0.381422 -1.03629
339 31.1514 3.50092 15.5118 0.716368 -0.21206 2.38208
2628 3.13153 5.351 14.9831 -1.42992 0.945272 -0.786947
2075 26.2663 5.4616 14.8521 -0.337118 -1.24066 -0.0674378
2830 6.72981 7.59659 14.837 0.556045 0.953251 1.04437
642 35.1563 8.27594 14.8105 0.200227 0.418472 -0.0241602
66 71.8336 8.45303 14.414 0.774352 -1.96319 0.95832
3699 72.4148 7.3903 14.3471 -0.968954 1.43462 0.250538
2975 26.85 8.97301 14.8664 0.20534 1.18208 -1.60823
3931 14.594 11.3277 14.7851 1.47127 1.77349 -0.249072
1777 32.8726 10.3747 15.0709 -0.848355 0.32638 0.0101879
3979 10.8277 13.1833 14.4455 1.1701 2.30095 0.339259
1821 26.6709 14.1885 14.4727 -0.0112504 0.22435 -0.443615
2798 28.8747 14.915 14.5184 -0.699644 0.353588 0.725375
2914 48.0079 14.9214 14.1806 1.02333 -1.9869 0.383924
1934 28.7308 18.5687 14.6179 -0.0444522 1.54146 -0.826771
2588 31.7598 20.993 14.3203 -0.297606 -1.14237 -0.0237732
1127 37.1117 20.3679 14.2997 2.38125 -0.813896 0.601294
785 59.6547 20.3837 15.5314 0.00088096 -0.155814 -1.36779
3533 11.2483 22.659 14.6173 1.09782 -0.8238 -0.253801
1388 59.7538 22.3299 14.8843 1.67007 -0.233787 -0.843742
994 47.2155 23.009 15.4342 -1.05847 -1.34542 -1.17418
3475 34.2778 24.3514 15.0442 1.56532 0.281598 0.814711
446 31.6834 26.269 15.2373 -0.341384 -1.11749 0.224733
1703 41.8788 26.9735 15.0253 -0.718957 -1.38509 0.390561
725 63.9755 28.1367 15.412 -1.57908 0.860147 0.160899
1574 20.0173 28.5873 14.4527 -0.180727 -1.31767 -0.205547
1736 1.12403 30.8676 14.7839 0.866894 -0.209388 1.70138
2009 23.445 30.086 14.5246 1.20558 -0.3569 0.494731
388 41.77 30.3724 14.7896 -1.02015 1.06268 -1.56542
2918 61.3323 32.1015 14.8092 -0.0915016 -0.806791 0.0911878
3759 47.3876 33.446 14.5442 -2.85863 -1.04591 -0.363059
246 34.929 35.6403 14.6171 -0.131395 0.967083 0.670856
536 39.1575 36.7155 14.9954 -0.688938 2.14409 -0.762466
3433 31.5439 0.502548 15.6025 -0.819763 1.01685 -0.214384
3153 15.1955 1.86267 15.9631 0.584279 1.87192 0.353109
1658 38.3059 1.5713 15.8005 -0.70573 -0.293184 -0.535116
2684 57.7015 1.70059 16.2816 1.4245 -0.241492 -0.78119
1942 64.684 2.84804 15.9341 -0.803693 1.79262 0.243836
3511 70.7526 3.04374 15.8468 1.51041 -0.769011 -0.441907
3385 59.3913 6.18651 16.8604 0.265428 -1.94208 1.14083
2701 10.9462 7.50649 15.9534 -1.02605 -1.53953 0.0868045
3397 23.3029 8.32348 16.2625 1.1903 -0.11578 -1.41205
355 29.1524 7.76718 15.9658 -0.648936 0.35552 -0.556299
2884 35.3645 7.39824 16.8185 1.31482 1.09403 -0.451525
197 30.4822 9.45038 17.0005 0.509887 -2.13696 -1.08828
2205 51.1991 8.88144 15.5885 1.73401 -1.03723 -1.04217
1431 64.7332 11.0919 15.9521 1.15276 2.18759 0.791638
2536 9.66798 12.1708 16.9652 1.1484 0.0405961 -0.185577
487 18.4019 11.9434 16.1443 -1.12287 0.26917 -0.200744
341 29.7348 12.1001 16.4073 -1.16973 1.24796 0.196805
1697 28.726 13.7124 16.72 2.25615 0.52789 0.0183661
2406 11.7148 14.7571 16.7337 0.449418 -0.486405 -2.16776
3906 41.7588 14.5093 16.462 -1.25615 -1.92702 -0.66293
447 39.7379 16.9913 16.3934 -0.241564 -0.874273 0.148558
2605 67.6198 16.3012 16.3015 -0.417493 -0.738126 0.570019
33 36.4969 17.8862 15.9247 -0.77073 0.489493 -0.968307
2067 43.1532 18.1519 16.5429 -0.0385029 -0.457205 0.796731
2302 44.0076 17.556 16.3471 -0.937522 0.0909152 -0.741368
2265 25.2103 19.7544 15.8229 -1.07462 1.01534 -0.65259
2668 35.5131 18.581 15.9369 -2.64307 0.0658172 -0.745536
1209 57.4097 19.3672 16.2056 1.34531 -0.807736 0.884191
1639 2.31623 22.4063 16.5587 -0.948904 -0.570133 -0.087172
3786 19.4549 21.4677 15.9135 -0.196699 -1.15511 2.37828
421 60.7386 22.2172 16.0091 -0.750073 1.89995 1.61105
1958 49.3557 22.8147 16.199 0.907329 0.272268 1.31199
3812 62.4952 23.6603 16.4403 0.537022 -0.679123 0.0303858
3692 16.2804 25.2037 16.651 0.381889 0.617007 -0.168951
924 30.8913 26.1405 16.0739 1.30552 0.871906 1.02033
1018 40.574 26.8806 16.1558 0.111819 2.28504 -1.35412
1427 46.5433 26.5255 15.6791 -0.676028 -0.499358 -0.0374075
2282 55.4284 26.9198 15.9667 0.6438 -1.54065 -2.23454
3744 31.7387 27.0188 16.1314 0.165361 -0.379077 -0.374425
1187 51.8958 27.2617 16.8789 -0.672947 -1.26818 -1.55787
2881 52.3904 27.6888 15.9757 -1.49224 0.59525 -0.0163439
1292 62.3603 28.2852 15.842 0.839995 0.130811 0.288089
3182 71.1199 27.4008 15.6174 -0.00407154 -0.285026 -0.247754
1192 22.8632 29.5427 16.5478 1.55271 0.687663 -0.615344
1644 57.7833 29.3392 15.8407 4.12625 1.18261 0.721044
2348 61.2724 29.5934 16.8154 -0.123715 -0.678083 1.47056
2837 25.887 30.5874 15.7656 1.97426 -0.237101 -1.79622
751 62.1415 31.0487 16.5425 -2.84418 -0.825183 1.47352
2397 64.8118 30.5755 15.8437 0.677908 -0.847521 -0.830828
2042 71.2381 32.4789 16.6636 0.472201 1.18423 -0.568024
930 42.6484 33.0778 16.8455 -0.650371 -0.316683 -0.282022
119 62.4902 33.4584 16.8068 1.54204 -0.688095 0.401433
1855 11.7676 34.231 16.6175 -0.137646 0.638689 2.00623
3207 55.7321 34.6235 16.4056 -3.41748 0.709708 0.765572
1352 71.2263 35.3497 16.0904 -0.262413 -0.581754 -1.04282
3037 56.9359 0.382356 17.8966 -0.42476 -1.081 -1.14568
3429 59.5788 0.691963 18.4169 1.38961 -0.460084 -0.133862
2833 22.9551 2.72013 18.293 0.221637 -1.04009 -0.27201
465 54.6943 1.84428 18.1233 -0.850207 -1.55715 0.677994
1344 56.7373 1.61577 18.373 3.17193 -0.0444891 0.660019
3416 50.4266 5.48905 17.9687 1.15587 1.01505 0.740636
888 56.7661 9.18722 17.009 -0.024838 1.53391 1.20238
3663 1.06635 12.7762 17.8823 1.22213 1.00321 0.785827
2428 22.1315 13.0189 17.6365 0.154784 -0.229762 -0.533854
3425 43.4805 14.0548 17.2104 0.379603 -1.2561 -0.760165
449 14.9128 15.5411 18.406 -0.0909258 -1.04839 0.497425
658 14.3508 16.1753 17.6837 1.24799 1.52389 -0.938395
721 6.22601 17.7985 17.3676 0.462564 -1.72624 0.0462787
703 28.1032 17.5337 17.2739 0.774211 -0.623403 -1.42701
3885 19.9033 18.542 17.965 1.60458 0.123606 -0.0723646
2771 26.6698 18.8785 17.4351 0.382232 -0.897434 1.29689
345 43.9316 20.1483 17.4364 0.39729 -1.03932 -0.719271
626 44.2352 21.0033 18.4067 0.697389 -0.508102 0.581552
2001 58.8999 20.31 18.2247 0.208513 -0.929991 -0.236213
3520 73.362 20.7483 17.946 0.844776 -0.318271 1.48343
1852 10.2159 21.4689 17.2561 1.40677 -0.222717 -0.324344
959 56.8092 21.599 17.2427 2.17362 -0.866248 -1.84731
2401 46.1731 24.0308 18.1904 0.711907 1.05911 0.51195
3941 55.7877 22.7445 17.4424 -0.756627 0.229551 0.257041
3644 28.092 24.6528 17.1744 1.08004 -0.754152 1.46073
1245 55.8231 24.5274 17.69 0.587626 -0.668623 -0.108142
2933 69.97 26.1253 18.1353 -1.55309 2.07162 1.25783
2814 18.9989 29.4332 17.999 1.28153 1.14759 -0.124624
2517 52.1947 28.9845 17.473 1.41428 -0.0139832 -0.0329476
3258 49.0828 29.9949 18.1713 0.0873963 -1.07008 0.489852
2795 52.0901 29.7619 18.335 0.0684177 1.02365 -0.458988
1518 28.7757 31.3144 18.1708 0.40208 -0.512063 -0.37444
347 40.3773 34.1897 17.5479 0.102334 -1.16173 1.65572
1165 69.2786 34.4878 17.4757 -0.848307 -0.603452 0.0253282
3431 64.886 36.6883 17.3686 0.549858 0.452604 -0.558012
1331 26.0812 0.561253 19.2581 1.25314 0.108253 -2.11072
3294 61.0417 0.505774 18.9052 0.986855 -1.34652 -0.39501
3152 3.29168 1.44051 18.6966 -0.0730903 1.12463 -1.03974
1910 14.2969 1.78003 18.7047 0.595336 -1.37747 -0.709628
650 16.2149 2.3641 19.7009 0.378298 0.327785 0.626149
455 20.4894 1.69853 19.4873 1.87181 0.429754 -1.83951
3854 15.6783 4.43706 19.2933 0.574612 -1.50396 0.15763
3785 43.106 5.36135 19.2064 0.0741497 0.920041 -0.814348
34 40.6794 6.86822 19.606 -0.153774 -0.143609 1.56266
3721 70.3451 7.10361 19.3337 -0.277929 0.611537 -1.10176
3710 31.7462 9.19281 19.6851 0.892559 0.655899 -1.11602
3980 42.4702 8.65965 19.4345 1.53788 1.14429 0.708146
2445 70.5514 11.0515 18.9304 0.955637 0.715955 0.521791
3375 13.4428 12.2601 18.5555 -0.128854 2.27465 -1.80772
1109 37.7392 11.6854 19.6212 0.66929 0.630258 -0.216235
173 24.9924 13.9977 18.5362 0.771862 0.804482 -0.914219
1573 38.175 13.2671 19.2409 -0.891868 -0.731141 -0.576756
1169 43.454 13.5499 19.1139 1.80506 -1.01615 -0.153283
2640 48.8096 12.7627 19.3581 0.682176 -1.60469 0.0934536
3444 49.9591 14.6241 19.7468 -0.275596 0.368324 1.01554
2669 36.8659 15.9661 18.5202 -0.156465 -2.70002 -1.13044
2078 58.5623 16.1137 18.6602 -0.643776 0.73693 0.00873336
2415 9.07739 18.1714 19.5548 0.0537451 -0.78726 1.75188
3039 14.4154 17.2441 18.8871 1.80011 -1.02729 1.091