ITEM: TIMESTEP
41000
ITEM: NUMBER OF ATOMS
4000
ITEM: BOX BOUNDS pp pp pp
0.0000000000000000e+00 7.3680629972807722e+01
0.0000000000000000e+00 7.3680629972807722e+01
0.0000000000000000e+00 7.3680629972807722e+01
ITEM: ATOMS id x y z vx vy vz
3188 20.1235 0.217612 0.344639 -2.14865 2.48118 -2.19386
2852 47.7013 0.971008 0.545101 0.439108 0.0881822 1.73694
171 31.473 2.14334 0.819609 0.244415 -0.20501 -0.144506
3394 46.3052 2.47906 0.695848 0.547342 0.821079 -1.42075
2675 9.94492 4.3666 1.39299 -0.77024 0.326651 -0.486076
2036 36.6526 5.64124 0.45519 0.809566 -0.18112 -1.45155
3132 5.25766 6.97946 1.08669 -1.31785 1.10571 -1.36121
1204 70.0509 6.54083 0.410345 -0.869498 0.207948 -0.881034
2342 8.22298 8.43422 0.148383 0.219068 -0.661092 -0.129117
1697 39.9184 7.64845 0.470609 0.901081 0.235158 -0.0798726
2201 54.6671 9.06381 1.27098 0.180906 1.24973 0.144148
14 18.8532 10.7798 0.98911 1.67274 -1.07895 -0.154727
2413 48.513 10.6124 1.40388 -1.34649 1.21287 1.96716
2068 14.2315 12.9019 1.1671 0.835354 -1.09501 0.223627
2539 51.4255 13.2527 0.913453 -0.0406218 2.04329 2.31781
3019 58.2301 13.3718 0.470139 -1.84462 -0.00612201 -0.340728
3214 22.8072 14.3503 1.14241 -1.24372 -0.408404 1.16335
1919 24.2963 14.7779 0.0120191 0.31867 1.09226 -0.083347
3089 35.4441 16.3155 0.812635 0.962123 -1.49824 0.61594
3798 55.8727 16.0249 0.845011 -0.189855 -1.37693 1.19234
3091 1.27226 18.2268 1.27994 0.394567 1.98033 1.70778
2877 19.7109 17.7467 0.786737 -1.06768 -0.842542 -0.38826
2648 57.4581 21.1134 0.0608998 0.00439254 -0.316168 -1.14953
3294 72.6798 20.8012 1.26586 -0.5261 -0.779032 0.810462
924 35.3659 22.6625 0.729349 -0.277301 1.20488 0.586661
2088 47.4723 21.7803 0.643184 -0.729272 -1.21993 -1.61703
752 71.4288 22.4399 0.317726 0.909986 -1.99763 -1.331
1975 53.3097 23.9511 0.0971563 0.163077 -0.352678 -1.51329
2677 34.9531 25.174 0.839323 -0.247008 -0.537908 -1.79596
2976 59.3733 25.1299 0.716119 1.59561 0.571372 -0.379461
478 64.2658 24.47 1.28904 -0.244707 0.378843 -0.604995
3077 66.5001 24.9835 0.561061 0.33406 1.14061 0.231407
1681 42.6413 26.5908 0.832869 -1.02984 -2.78506 -0.405971
2962 53.8081 25.8345 0.837476 -0.652204 -1.21743 0.333093
3108 59.0957 26.7092 0.355768 -1.15017 -0.776618 1.47567
2533 9.84218 27.1781 1.35814 0.0181403 -1.61226 2.01518
2918 47.6909 29.4074 1.39708 -0.483634 1.18873 -0.260069
678 58.2529 29.6879 0.645389 -0.983023 -0.281797 0.079498
507 56.6583 31.0992 0.484862 -0.0949975 0.411334 -1.57934
2869 15.4429 31.1886 0.937371 -1.21052 -0.708366 -0.316296
3721 69.4779 31.2205 0.954003 0.848043 2.05592 1.16574
751 26.5732 36.8275 0.302533 2.33255 1.01819 0.269623
3346 60.3442 36.5253 0.588817 2.00777 -2.95937 0.0449284
3137 64.3542 35.8985 1.01859 -0.369366 0.284788 0.437363
429 25.7843 0.490965 2.16232 -0.662593 0.0953466 -0.599342
2718 70.2341 1.43462 1.72947 0.723729 1.40186 1.21837
1752 3.38603 4.57506 2.33493 -0.224275 -0.227972 0.0418592
495 13.5196 6.69624 1.48209 -1.4262 -0.573613 -0.965204
301 19.2612 6.93196 1.82645 -1.49825 -2.06182 0.152328
2681 8.39343 12.6222 1.76035 1.18948 -1.22443 -0.0255266
3481 8.98654 12.3133 2.69203 1.14454 -0.369605 -0.63052
3378 49.8127 13.282 2.15184 0.389571 1.23605 1.97593
357 2.00652 15.2951 1.56659 1.3743 0.7387 -0.654406
3382 16.3572 14.4832 2.63989 -0.922894 -1.34952 0.0215212
1000 46.7994 14.6982 1.90995 0.330687 -1.89425 0.42975
916 36.5171 16.3123 1.93397 -0.155903 -0.244353 1.74873
1407 0.316149 17.5393 2.11335 0.0994962 -1.39538 -0.343594
3234 47.0755 17.0225 1.60121 -0.396717 1.02122 0.895179
3146 44.5097 19.2253 2.36241 0.326202 0.707869 1.59791
3135 32.8244 20.5433 1.90645 0.44197 0.424428 -0.631831
999 42.9566 21.7936 1.79152 -2.3077 0.750214 -0.469681
1784 64.3386 22.1511 2.46419 -1.24714 -1.35035 -0.324444
2551 20.1055 24.3696 1.46715 0.301433 -1.18207 -0.974646
1105 6.10982 26.1183 2.30595 -0.0946352 -0.5713 -0.109366
7 62.5141 26.0598 2.03144 -0.72876 -0.194414 0.980982
2653 50.9541 31.5204 1.67844 -2.21066 0.764645 0.77567
2182 64.3442 32.3361 2.31925 -0.618905 -1.12838 -1.37463
3023 70.4757 31.5932 2.8059 -1.41421 0.177915 -0.321011
2227 13.3426 34.7603 2.66427 -0.559061 0.0369041 0.169884
2683 66.0682 36.7561 2.59003 1.31918 2.96534 1.65
896 9.72239 4.5034 3.80099 -2.27425 0.563482 -1.58821
1266 12.7606 5.73713 3.88961 0.536956 -2.11599 -0.392985
3279 32.0745 6.17111 4.06777 0.804339 -0.119687 0.479305
980 64.2994 6.8206 3.05233 0.262234 -0.488246 0.161794
3499 71.2056 5.85525 4.14888 2.57053 -0.742421 -0.121568
31 53.2039 8.04776 3.23485 -1.37079 -0.0107035 1.52654
3081 73.6507 7.42855 3.20847 0.77468 0.368182 -1.29675
246 9.84775 9.63857 4.21873 0.653734 -0.920067 -0.323337
1495 21.5347 9.22316 4.12731 -1.54673 1.03731 -1.47154
1404 54.2238 9.09938 3.43637 1.55362 -3.056 1.64193
2702 9.18391 10.4094 3.68774 0.491865 -0.30028 -1.43569
1151 20.8112 11.078 3.14703 0.409521 -0.876637 -1.16851
444 23.158 11.1508 3.31816 0.652606 -0.0936529 -1.67896
2450 53.8967 11.0989 3.78504 0.96914 -0.964006 -1.79783
2480 19.8461 12.2221 3.98179 -1.39296 -0.644968 -1.38931
3741 51.5379 13.1629 2.93695 0.682475 0.288203 -0.114129
1206 56.9552 13.0318 3.99148 0.186705 0.142448 -1.33098
1446 59.6108 12.9346 2.95224 -1.10306 -0.370371 -1.06172
3444 7.94301 14.2884 3.3606 1.10618 0.919609 -0.139938
1872 15.8683 15.0688 4.06878 0.97009 -2.50968 1.1498
1148 52.201 15.0009 3.33537 0.662215 0.719313 0.0621499
85 30.8491 16.1775 2.97041 1.15431 0.915787 -1.20518
961 59.6972 16.8646 3.13987 -1.09744 0.348179 -0.808313
1790 6.65864 17.3514 3.08942 -0.0727501 -1.15164 0.254039
1120 46.4546 18.0152 3.87744 0.0265466 0.0063372 -1.16743
3061 69.6335 19.782 3.38803 0.959948 0.725723 0.327074
1736 8.7571 21.1315 3.52439 1.27888 0.102996 -0.793839
1373 13.2909 21.0896 4.17617 -0.160762 -1.20658 -0.0971793
2243 20.5535 20.9991 4.22757 0.930433 -1.3156 0.544245
379 22.4782 21.0499 4.0154 -1.08237 0.510438 0.453666
3633 44.3369 23.687 3.53374 0.482536 1.86654 1.50965
2555 52.5168 23.8247 3.02683 0.0150192 0.395854 -0.570471
432 14.7024 25.7258 3.41749 0.538917 -0.24443 -1.32093
764 30.7749 27.4312 3.4669 -0.197611 1.72903 -0.190326
2970 34.0861 27.1723 4.23662 0.902502 0.90715 -1.74135
2074 55.2099 27.9601 3.78182 0.140409 -0.144586 1.05572
2037 13.0996 28.7105 4.03273 0.305021 0.271395 -1.07655
2690 19.226 29.5477 3.95286 -1.32496 -1.27519 -2.00973
1607 41.1841 30.336 2.87268 -0.357977 -1.5256 -0.012878
263 61.6395 30.998 3.34646 0.18714 -0.423211 -0.912759
2716 1.32429 35.9792 3.95043 -0.343361 -3.10705 -1.13055
2455 12.486 35.7044 4.22061 0.736125 0.725657 -0.496486
3445 42.1785 35.702 3.6615 0.220327 0.489993 -0.111314
1508 48.108 36.1235 2.8712 -0.263333 -0.524456 -0.321911
467 36.2063 0.0349828 5.07486 -0.439348 1.32418 0.390196
602 9.0258 2.44591 5.25182 0.654671 1.51971 -1.07923
1622 38.5082 1.87059 4.51226 1.27217 1.64368 -0.0835357
129 45.7529 2.66606 4.68887 0.408365 0.192895 1.0131
2700 9.61061 3.00962 4.69636 0.710094 1.05563 -0.82719
1759 10.3521 4.07287 4.51478 -0.861853 -1.02522 -0.346613
871 72.2984 3.75362 4.54117 -0.264201 1.01444 -1.26051
3364 51.3949 5.82399 4.97241 -0.594619 -1.48331 0.362527
418 58.166 5.88646 4.59761 -0.0484698 -1.05365 -0.937711
956 32.4257 7.45086 5.37652 0.264606 -2.12922 1.12719
3372 42.3241 7.59305 5.4103 0.325398 1.45218 0.812987
2103 8.11716 9.64036 4.94857 -0.359128 1.2492 -0.56814
1088 51.495 8.95799 5.15342 0.592644 0.364986 0.119112
1687 53.2852 9.27986 4.56436 -0.559925 -0.165231 1.12482
3415 28.6386 11.1956 5.31664 0.81212 0.493139 2.30637
975 43.8405 11.0946 4.76127 -1.42701 0.0753219 1.99878
3474 54.6354 10.0307 4.27074 0.610229 0.487101 -0.47901
1601 56.9556 10.6208 4.95354 0.237099 -1.40149 0.461495
3902 3.41475 13.677 4.87237 0.173174 -0.630607 -0.968524
2484 42.9602 13.6955 4.41539 -0.146738 0.127233 -1.17119
1721 49.7722 13.543 4.73626 1.23708 0.241893 0.578977
1500 5.71283 14.5046 5.08957 0.0991524 -2.94826 0.821838
16 37.6206 14.5734 4.76573 1.09948 -0.570629 0.0403995
242 70.5188 16.3465 4.83362 -0.237018 -0.739362 -1.27317
376 21.2916 17.8392 4.43449 0.176885 0.533828 0.385066
557 30.5133 18.1851 4.84771 -0.4469 -0.227512 0.859499
3659 18.7693 18.7068 4.85159 -0.389949 0.389412 0.893103
3006 49.1845 18.6064 4.30962 -0.578705 0.637741 1.43784
1375 19.1123 21.8217 4.28408 -1.45101 0.0710113 0.471644
2472 27.2205 21.7755 4.78506 -0.799357 1.14868 -1.06394
1385 44.9029 23.5537 4.4517 -0.0472541 -0.354767 0.936764
497 71.7254 23.5534 4.65263 0.31692 1.20954 1.30527
761 25.9627 25.3846 5.65597 1.03277 -0.68117 0.967832
1587 9.68547 26.555 4.8379 0.505722 -0.303749 -1.75311
3455 29.024 26.8193 4.77156 1.97791 -1.77868 -0.248963
3031 71.9163 26.1754 4.51183 -0.199623 0.232761 -1.08803
1634 68.0077 26.9555 5.64391 -0.240782 0.624962 1.34232
666 72.156 28.1653 4.71432 1.16482 0.973565 -0.839969
1178 60.3266 30.0203 4.50566 -1.37754 0.900622 2.74527
3624 16.2903 32.5292 5.15327 0.656934 2.38532 -0.116647
3269 18.7866 31.9188 4.51576 1.17479 0.467612 -1.73471
2435 33.2088 31.185 4.96845 0.100652 0.448665 -0.0330142
849 32.755 32.0508 4.56467 0.303735 0.698211 -1.77788
270 13.6795 34.7176 4.57594 -0.187489 1.69287 -0.582779
3060 26.9412 2.69807 6.60956 0.23114 1.18772 1.53859
1402 32.9297 2.40604 6.37379 -0.820791 0.785461 0.284266
3331 15.0652 4.12843 6.39321 0.0750044 0.189817 -0.139585
1861 30.3193 5.53142 7.07474 -0.938168 0.36086 -1.56452
3432 8.81979 6.41213 6.41203 -0.132601 -0.301454 1.86343
567 28.5331 5.68897 6.22917 -0.910999 1.59456 0.106004
2856 60.5586 8.61382 6.61546 -0.388553 1.86708 -0.258603
3982 73.2965 9.91369 5.86646 0.836286 -1.80295 0.892262
2924 53.1693 10.1527 6.48791 1.82416 1.9997 -1.11691
425 6.41429 12.6133 6.79254 0.70428 0.239026 -0.583531
3877 21.9862 13.4951 6.59085 0.244929 -1.56758 0.679607
3493 24.5858 13.8275 6.96325 1.0878 -0.269245 -0.518896
2444 66.9293 14.1373 5.92576 1.89286 -0.803483 0.23768
2916 25.8142 17.9894 6.98774 0.827663 0.506248 1.56572
2142 6.05921 18.8663 6.19596 0.802097 -0.116604 1.02959
79 46.3216 19.7517 6.12536 -2.10626 0.847487 -0.416269
573 49.7411 18.5431 7.00094 -0.197455 -0.216132 1.64669
3495 1.42627 19.8538 6.41637 -0.716651 -1.31064 0.140264
3286 48.582 20.4547 6.01835 0.225289 -1.17797 -0.124678
102 63.727 20.5764 6.22787 1.12259 -0.297716 1.35233
2054 31.4592 21.9658 6.95929 -1.13347 -0.576731 -1.2189
1621 11.4982 23.3321 6.66892 -0.635147 1.98947 -0.485123
2668 61.5194 23.1098 6.05351 -1.02623 0.859221 0.345001
2540 49.7253 24.4389 5.78074 -0.244326 1.33078 -0.579619
1530 61.4741 24.2813 6.46169 1.03903 1.00306 -0.874774
1102 64.3699 24.1609 6.75059 0.972306 1.02787 -1.52796
1045 49.4913 28.3876 6.11465 1.19016 2.45852 -0.0288877
3835 35.491 30.1097 6.46743 0.21627 0.435705 -0.93105
812 53.5431 30.6054 6.34236 2.03402 2.14127 0.195486
3442 9.1802 32.0508 6.47854 1.57674 -1.0658 2.40698
902 55.7204 33.1037 6.83748 -0.137009 -0.0512849 -0.934702
3090 67.58 32.9469 6.69212 -2.32495 0.343305 0.824645
334 57.1127 34.1166 6.21823 -0.673971 0.767415 0.533754
3487 66.1016 34.9507 6.63153 0.965418 -0.859286 0.490123
2356 46.6516 36.6216 5.95352 0.518714 -0.938384 0.66042
1716 1.39886 0.532402 8.02347 1.35259 -1.43821 0.755309
2211 9.35272 0.27725 7.88012 -0.226563 1.16599 -0.970862
273 57.9081 0.368162 7.75007 -0.711233 -1.16508 -0.174022
1698 70.2184 2.80052 8.07124 -0.49727 0.126806 -0.677135
1980 12.2434 5.46977 7.54706 0.139696 -0.03384 -1.34553
1396 46.2156 8.18736 7.48798 0.856234 -1.97798 -0.0600741
114 42.3757 10.3905 8.43373 0.0558243 0.168372 -1.10118
2554 12.8623 12.8211 8.26137 0.0148485 0.59748 1.72962
3762 32.3283 13.7106 7.87586 1.54382 -0.305599 -0.704039
1486 47.7386 12.859 8.25888 -1.67706 -1.98732 -1.57632
295 57.5558 14.328 8.46985 0.366543 0.933915 0.167347
1420 60.5158 18.1409 7.42595 -1.08203 0.412957 0.176699
765 64.1441 18.0473 7.29967 0.808348 0.0789235 -0.547315
314 29.9546 19.7509 8.22375 -1.07908 1.00137 0.936159
2881 3.57445 21.1235 7.97078 0.834435 0.410647 0.68568
2571 31.2908 20.6086 7.87347 -0.390631 -0.624236 2.55979
3587 42.8695 20.6851 7.46851 -1.24117 1.28316 -0.61277
872 44.681 20.4567 7.98657 1.67289 0.199345 1.89154
852 9.18177 22.318 7.36053 -0.788626 -1.41202 -0.244193
987 51.8882 21.9999 7.49702 0.0376977 1.28299 0.78346
3622 56.3164 21.4715 8.48714 -0.477772 0.140203 0.803189
3299 67.3359 22.618 8.14714 0.443051 -0.0412029 -0.0958107
797 0.105912 26.244 8.42466 0.729274 -0.337533 0.960556
393 9.41592 26.7289 8.18354 -1.95473 -0.139426 -0.742864
3110 10.0516 25.5349 7.65091 1.88752 -0.623458 0.990963
29 20.9656 26.5269 8.40273 0.357885 -1.5553 -0.477763
2772 61.6468 27.4589 7.53771 -0.40852 1.20925 -1.16984
67 5.26455 29.5045 7.72803 0.0370083 0.574235 0.582705
1896 72.4997 29.372 8.21427 -0.725877 -0.0969832 0.0899451
1557 35.594 30.3318 7.54328 2.00292 -0.482261 -0.914379
1562 46.4672 30.3993 7.85604 1.06664 -1.55359 -0.737753
2173 59.7191 30.5555 8.39732 1.43643 0.0933572 -0.793208
2483 72.9933 31.1272 7.27206 -1.73212 -0.938314 -0.594979
3037 4.35586 32.4084 8.2712 -0.0865943 -0.851353 0.38339
3667 3.40266 33.7191 8.06999 -0.896311 0.559866 -1.10489
3448 20.8061 33.0739 7.91305 2.19289 -0.429279 -1.38189
519 19.9672 33.8334 8.29153 0.510181 1.24318 0.0819622
1775 52.1163 34.7005 8.00214 -0.379058 -3.25113 0.40258
2710 27.2386 35.5467 8.21651 -0.694222 0.621864 0.173565
957 23.9139 2.35225 8.60369 -1.26429 0.0984471 0.119276
168 10.5826 3.53164 9.79793 -0.643525 -0.460356 0.80092
2931 11.3646 2.99413 9.23448 -2.62225 0.0666617 -0.211559
3244 24.4852 3.62516 8.67799 0.812933 0.899919 -0.719418
3156 9.53946 4.42438 9.72572 0.116422 -0.172986 1.89463
2523 44.0097 5.33961 9.1259 -0.158457 0.490276 0.701186
3274 40.8912 6.05815 9.1792 -0.270274 0.464109 -1.20482
1842 20.2878 7.45878 8.56045 1.00263 -0.0788339 -0.493894
250 56.4319 8.008 9.6461 0.602898 -1.90573 -0.563032
2547 59.0245 7.8314 9.71101 -0.857244 0.093068 -1.83678
2123 4.82339 10.0245 9.73993 -0.383049 0.733158 -0.359919
588 43.0695 11.9143 9.1195 0.53148 0.231147 2.45582
3680 59.6665 11.5626 9.67573 -0.482343 1.85457 -0.443661
2384 10.2044 13.572 9.43605 0.161515 0.0295395 -0.742539
410 64.3776 13.9047 8.95605 3.03527 1.00518 0.142495
2349 40.6776 15.5191 9.35047 0.148139 -1.64292 0.520702
1636 49.4039 15.0056 9.23968 0.515271 -1.00494 0.320982
515 25.9114 18.0827 9.22665 -0.383693 -1.33748 0.161622
2823 49.536 17.2259 8.55215 0.240025 0.183814 0.740276
1646 21.9999 18.5037 9.86239 0.508222 0.64412 0.467215
2837 0.171017 20.0102 8.9329 0.0014414 -0.596819 -0.124531
3637 8.95594 20.4637 9.30052 -1.80612 0.862822 -0.946337
768 58.8183 20.6256 9.28545 -0.960257 0.204427 1.72328
1444 54.6313 21.4576 9.56261 -0.187337 -0.443417 -1.40834
256 47.3671 24.6437 9.65531 -0.112376 -1.44023 -0.371325
3354 61.5886 25.5047 9.82189 -0.62339 0.848127 0.0870883
703 38.2461 26.4812 8.96668 -1.13732 -0.554595 -2.09186
3440 59.3783 25.5297 9.37624 1.25193 0.687559 -0.0155223
2196 61.6522 26.6085 8.60622 0.0442033 1.73802 0.0732704
2508 8.41206 27.7867 9.00543 -0.832487 0.85606 -0.433724
3899 40.5803 27.6356 9.87897 -1.13121 0.252848 -0.420091
2336 53.2232 27.8519 9.06047 0.506187 0.532163 0.57655
556 17.062 29.748 9.31958 -0.244511 0.670392 0.0835
341 21.1993 30.3793 9.18771 0.381392 2.28982 -0.390781
3748 38.4371 32.3412 8.66896 -0.567361 0.44503 0.0856402
1372 60.2702 32.9386 9.73523 -1.35858 0.387903 0.0962087
2749 59.0813 35.5129 9.44089 -1.45672 0.270389 0.366956
2988 71.6553 0.931875 10.1153 0.980952 -1.19771 -0.846995
1051 19.9627 2.59432 10.6716 0.359335 -1.0245 -0.423411
3002 9.31103 3.25214 10.1582 -0.231753 -0.325257 0.0961197
4 32.8741 4.03686 10.1841 -1.78815 -1.15581 0.401152
2527 52.5954 5.42293 11.329 -0.0716275 1.08927 -0.715316
296 55.5571 5.15727 11.2181 0.97313 -1.14869 0.919234
2002 5.63765 6.10714 10.1868 0.727349 -1.05118 -0.309969
930 66.7721 5.87877 10.1514 -0.803262 -1.90059 1.29285
1301 68.1752 7.62951 10.043 0.634439 -0.108167 0.648385
2091 18.4066 8.6565 10.2741 2.14347 1.25547 -0.679729
3328 17.8567 8.55505 11.2285 0.544547 0.5023 0.776154
1177 68.9812 11.4361 10.1503 -1.21808 0.684334 0.236707
1049 71.8505 11.6172 10.9153 -1.6197 0.776478 -0.663736
3514 0.803551 13.1545 11.2711 -1.01576 1.07916 1.01402
1078 19.8642 13.5063 11.0193 -1.1528 -0.337662 1.33716
821 22.5415 12.7711 10.3742 -1.49711 0.243132 -2.86952
462 3.26961 16.0654 10.3762 0.267161 0.702001 0.449961
1221 17.5562 19.9688 10.4489 0.706981 0.326027 0.101318
409 5.06896 21.66 10.3804 3.4654 -0.0822527 0.793826
3145 54.3601 22.0605 10.6882 -0.0794089 0.280663 -2.04009
37 71.5856 21.9483 11.2069 3.617 1.74224 1.67399
704 29.7396 23.3385 10.822 -0.158606 -0.750345 2.18068
2693 31.4876 22.993 11.036 -1.16341 -0.262757 1.35148
3634 51.1236 23.8009 11.1939 -0.457025 1.29384 -0.689527
2534 62.4739 22.7439 10.1485 0.922241 1.35189 -1.79808
2178 27.309 24.7426 9.94877 0.0411396 -0.667474 -1.52952
914 34.0571 27.5926 10.9043 -0.466805 1.05067 0.256229
66 48.6646 27.503 10.6758 1.76826 1.42794 0.554008
3945 70.7462 30.5121 10.4428 -0.455443 -0.326776 0.218982
3265 25.244 32.2482 11.1639 1.39771 1.33249 1.2584
1889 72.2866 31.2435 11.2936 -0.329232 -0.0275875 -0.322516
373 7.591 34.4518 10.6172 1.6452 -0.145953 0.600245
1914 21.0603 34.1784 10.2947 -0.143413 -0.528599 0.500653
158 21.4399 35.0671 10.7082 2.27384 -0.201517 1.10742
3636 33.4864 34.4577 11.1859 1.01045 0.246476 1.10792
3983 71.44 34.286 10.4696 1.35591 0.305177 0.96689
1832 30.4198 35.6984 11.2516 -2.47076 -0.770567 -3.24424
3387 58.2303 35.6611 10.1727 1.42647 -0.253394 0.0493575
2056 7.79884 0.221168 12.1777 -0.595801 -0.00167611 -0.505331
3038 43.7183 1.36279 12.1952 -0.327436 -1.26865 -2.24514
1344 46.8055 0.924481 11.7532 1.95992 0.132988 0.498777
638 49.3022 1.04811 12.1876 -0.967578 -0.757213 -2.37595
762 53.6492 3.14986 12.4876 -1.42893 -0.205947 1.50056
591 62.0981 3.12551 11.4584 0.111669 0.310087 1.04658
143 5.65653 4.26314 11.9491 0.490873 0.677278 0.390413
3315 45.8661 4.64347 12.4754 1.75092 0.20578 0.154478
2808 59.7132 4.71486 12.0775 -1.08809 -1.21698 1.25767
1824 60.1947 5.66431 12.5476 -1.81743 0.9229 0.882606
2935 67.3637 6.38905 11.8999 -0.572899 -1.33833 0.305902
1497 68.9827 6.29125 11.4974 1.17339 -0.651351 2.45491
887 9.68541 8.99773 12.0058 -0.791195 -1.2163 1.07268
3567 73.3501 8.89901 12.535 0.0691127 -0.15837 0.92382
1670 15.3895 10.777 11.718 -1.51487 1.38639 -0.337869
2594 33.34 12.1661 12.5986 2.19101 0.0275499 -0.560615
2229 49.3764 11.8753 11.4279 -0.282153 -0.446986 -0.00565206
264 51.9664 11.935 11.5139 -0.406803 -0.325638 0.439389
2638 56.6914 13.1529 11.3998 -1.40532 -0.160475 -0.0544818
1456 18.4912 14.4837 11.6393 -0.563062 1.75923 -1.62452
1873 30.6968 18.1846 11.8099 -1.58882 -1.7834 0.390803
1331 47.941 18.3851 12.2173 1.15096 -0.976668 1.05814
192 23.6341 19.1237 11.3907 -1.24352 -0.243148 -0.99442
3414 32.0198 18.6158 12.3795 0.635665 -1.29266 0.830974
3459 51.1464 20.1746 12.0908 -0.970831 -0.313047 -2.1989
711 3.70146 21.3599 12.2782 -0.133355 1.22277 -0.950399
795 14.4752 22.5531 12.0153 1.07424 0.548579 0.2644
1617 28.1835 22.1989 11.7036 1.27212 -0.0625648 -1.28396
3314 58.3213 22.3624 12.1 -0.00806602 1.68483 -0.38323
2131 36.7857 23.0195 12.1154 0.896164 -0.732084 0.629974
201 37.3521 23.8073 11.7048 0.543699 0.475201 1.07285
3203 39.3959 23.2201 12.4071 -0.0714536 -0.110944 0.606484
1186 38.3967 23.769 12.5679 0.240302 -0.0121063 -2.01031
289 17.5324 25.0821 12.6516 0.00626641 1.11914 -0.436001
3743 32.2982 25.2769 12.4756 0.385531 -0.758351 0.311646
2598 54.606 24.9733 11.6583 -0.0586048 -0.678183 -0.929774
464 65.0657 24.1627 12.3007 -1.57058 -0.714035 0.90933
2063 9.63742 26.8842 12.2495 1.37251 1.41107 1.16848
131 2.62919 27.5574 11.4376 -1.1133 1.483 -0.80005
36 52.5195 26.9873 12.4059 -0.58492 0.556918 0.636988
2477 30.8331 28.5078 11.7404 0.659864 -0.614911 -0.337162
1346 33.1246 28.4692 12.5729 0.341062 -0.294568 0.659503
853 43.47 29.4741 12.1339 1.69254 1.58974 1.39302
2025 60.1827 30.3075 11.7774 -0.6828 0.755368 0.0246724
92 61.6959 33.0167 12.5472 -0.918272 0.179385 0.817819
3071 72.4295 33.5963 11.6011 -0.171336 -0.49053 0.861087
2244 0.794691 35.1076 11.8749 0.497665 -0.343625 -2.21687
187 27.6895 35.7367 11.4242 0.868163 0.713368 0.208135
905 42.8299 35.6026 11.8491 -0.0416779 -0.371592 0.440598
1018 4.38373 1.97213 12.8861 -0.7008 1.01499 -0.0752772
3383 7.56195 1.59537 13.8619 -1.88797 -0.0620065 -0.353919
1538 10.2807 1.83732 12.8721 -0.139675 -0.0144079 -1.2623
1710 5.32575 4.02422 13.3869 0.630254 -0.000714642 0.293038
1092 26.1056 4.27991 14.0913 -0.0819903 -0.55981 -0.301322
742 62.6796 5.9225 13.6089 -1.78688 -0.395751 0.923351
2017 12.9723 7.42617 13.6983 -0.309296 -1.99457 -0.0909332
333 70.0827 10.2344 13.9376 0.854556 -1.00408 0.876934
208 36.9219 14.4961 13.7371 -0.385037 -0.267606 -0.478372
2152 40.1881 14.7613 12.909 -0.51477 0.518575 1.55592
3935 42.9636 15.4567 13.9438 -1.22315 0.108281 1.15136
1510 53.3576 16.5747 12.886 -1.52552 0.0140911 -1.33714
3783 19.1751 17.2271 13.7895 1.66367 0.903277 -0.424545
1059 43.4593 17.7074 13.7545 -1.2407 -1.091 -1.28274
3539 53.2762 17.127 13.9702 -0.389852 -0.00970629 -0.903683
2186 71.2457 17.2004 13.3673 -0.710878 0.426068 -0.321125
963 35.3969 22.1268 14.0352 1.30705 0.395269 0.116311
1566 0.230809 23.108 13.5107 0.52722 -1.82297 -0.923875
451 50.5823 22.8451 14.0099 0.290486 -1.53889 -2.3273
2697 3.28689 25.2903 13.493 1.66766 0.816843 -0.854983
739 64.8753 25.1675 13.6784 0.59527 1.60769 1.8722
1138 20.2195 28.1262 13.5505 0.2814 -0.0785793 0.100743
1101 39.386 31.6288 13.4633 -0.909822 -1.21575 -0.118055
2864 37.2786 33.4944 12.8739 0.00654663 -1.21658 0.784164
435 41.0791 34.119 13.782 -0.0808294 -0.427291 1.02991
2399 19.6012 1.36237 14.4038 0.782258 -0.751143 0.0050756
279 39.8165 0.572028 15.5013 -1.23524 -0.241063 0.471698
907 26.2976 2.52115 14.6206 1.7909 -1.30359 0.0961909
3605 33.2982 2.61741 15.1957 0.985933 -1.36191 -2.11961
1467 35.061 1.63998 14.5541 -1.25209 -0.608788 -0.38063
2024 71.6814 2.70782 15.1936 0.349468 -1.16853 -1.77084
1715 70.4995 3.36021 14.6021 -1.82917 0.51777 0.670112
1297 3.74032 4.3318 14.9922 -0.0424524 0.536424 0.0374212
2334 53.9378 4.49781 14.6924 0.35067 -1.93017 -1.02466
2191 62.0507 4.30745 15.3331 -0.532466 1.79314 -1.93686
2438 60.6718 5.82396 15.4099 1.11296 1.17404 0.63325
870 47.8477 8.41377 15.4553 -0.904656 1.40465 0.693251
1315 33.5616 9.2342 15.4098 0.91884 0.428592 -0.0482041
2222 35.1063 9.17636 15.3616 1.0381 -0.423635 0.257965
3027 49.0155 8.66669 14.9098 -1.71228 0.378262 -0.105404
2794 58.3006 9.27453 14.2622 -0.247167 -0.577351 0.759713
1153 21.0416 11.9088 15.5258 -0.595651 -0.729238 -0.929568
3240 28.0536 11.8005 15.4822 0.724819 -0.261335 -1.26775
552 36.4608 11.9016 14.3488 0.384396 -0.870824 1.36793
3339 65.5775 11.8245 15.114 0.658415 -1.60947 -1.4741
3649 16.6008 15.1892 15.1106 0.721392 2.35203 -0.601453
1249 36.5388 15.1145 14.5505 -0.334748 1.53762 -0.334442
3192 33.4384 16.6828 14.3808 -0.521331 1.25367 -1.08558
2826 61.6163 16.0911 15.4535 -1.08819 -1.17957 1.35161
949 68.1423 18.3672 15.3833 0.949493 -0.330824 0.820862
1749 9.15489 19.0968 14.8892 -0.81397 -0.652275 -0.792234
2799 31.8986 21.0772 14.9181 0.115878 0.212152 -0.411651
446 6.76514 21.8737 14.5531 1.0717 0.40807 -0.027666
1684 72.4666 21.7912 14.4474 -1.59986 -0.662979 -0.583093
3531 66.0368 23.704 15.4856 0.186628 1.66087 -0.417967
2447 73.2776 22.7297 14.3968 0.253235 -0.501196 1.21765
2833 6.97176 24.4003 14.8034 1.16211 0.0207393 0.259122
2319 59.6234 25.0827 15.0525 0.301886 1.00454 -1.62651
2294 61.9391 28.6166 15.5728 1.098 -0.571422 -0.855025
1656 72.8847 30.4736 15.2953 -0.371254 0.340693 -0.421812
2771 29.1055 33.3497 14.2606 -0.4443 0.249237 1.08686
2347 40.8169 33.5932 14.9024 -0.742203 0.483417 -0.382063
2585 45.8858 33.2976 14.2168 1.22647 0.593838 -2.13585
1972 55.1363 33.7191 14.8721 0.572559 0.155581 1.33618
3161 68.6057 32.8819 15.2885 -0.222318 -0.86595 0.67739
3021 36.9886 34.0288 15.3205 -0.170611 -0.206781 1.28369
1487 1.05316 36.8142 14.4514 -0.982517 0.250405 0.0661893
3337 23.7997 35.961 15.0378 -0.495578 -1.03277 -0.161561
1472 73.1066 35.5064 14.833 0.280914 0.659502 0.0384362
169 5.12856 1.27915 16.2315 0.249956 -1.13331 -0.139077
2992 34.1497 0.165224 16.9056 -1.68219 1.61495 0.298056
3454 54.7047 0.327293 16.5012 -0.064549 -0.623092 0.609016
2936 2.24741 2.6167 16.7019 -0.522715 -0.325418 -1.28993
917 17.2156 2.35516 16.554 0.730179 -0.951881 -0.179424
1624 7.29181 5.53146 16.0815 -1.41067 -0.809795 -1.81689
3729 19.2699 4.39191 16.3646 -0.99768 -0.111086 -0.822376
3576 29.6621 4.27752 15.6496 0.216178 0.106134 -0.811268
808 35.0699 4.85464 16.8772 1.90193 -0.933879 -0.522861
2366 25.9135 5.68653 15.9963 0.350496 -0.565517 1.15795
3908 72.86 7.60599 16.0443 -0.482958 0.53962 1.10663
238 35.8987 8.79887 16.0647 0.496009 1.59939 -0.301338
1658 44.1982 9.08596 16.1516 -0.088683 -0.161744 0.520772
3473 52.8995 9.61587 15.833 1.04795 -2.1308 -1.9842
3465 58.6288 8.69174 16.7668 0.0967605 -0.409149 -0.181622
1434 21.9335 12.5195 15.8591 0.0126671 -0.0497064 0.400885
903 25.1645 12.8127 16.6803 1.2812 -0.439984 -1.05258
718 48.9897 14.5107 16.4012 -0.363689 -2.03584 0.288128
115 2.60036 15.9299 15.5909 -0.612382 0.0165619 -2.2742
1046 9.41102 16.0667 16.9956 -0.617481 -0.887756 1.11264
2422 10.9219 15.7405 16.533 1.8313 -0.755219 -0.540468
346 26.5791 15.8153 16.1012 0.273894 0.0627505 -0.425592
2645 56.449 16.2029 15.5899 0.0751003 0.236498 0.248
2446 68.9966 17.005 16.7541 1.0901 1.09274 -0.139405
1183 43.3451 21.0643 16.6914 -0.363024 0.282775 -0.131193
213 17.7699 25.9956 15.6853 1.54221 -0.439546 -0.111823
1756 19.1965 27.2303 16.9708 -0.203157 -1.38307 0.509238
2268 53.9364 27.6864 17.0015 -2.20181 1.10252 -0.411623
2076 66.8173 27.9784 16.2318 -1.34624 -1.95683 -0.54766
2628 3.84484 29.9164 16.8682 0.0817259 -0.605978 0.930804
2496 46.1875 30.3676 15.9227 -1.92056 -0.827043 1.65761
2722 33.5486 31.4978 16.6373 0.0663426 -0.688151 -0.842912
2072 42.5099 32.1347 15.9989 -0.0583661 -0.385598 -0.145585
1009 14.8402 34.594 16.2762 -1.28613 -0.478601 0.0238502
228 29.9598 35.1126 16.3945 -0.0789852 -0.846111 -0.658272
554 48.3284 34.4272 15.9677 2.37641 0.541652 0.20224
1230 7.97539 36.0441 16.5268 0.695676 1.52521 0.387035
3513 58.4158 35.9374 16.6338 -2.57446 -0.778488 -0.691096
3066 52.1738 1.3802 18.0271 0.945567 -1.80594 1.48785
2549 9.37249 1.90587 17.6367 -0.558403 -1.59127 1.5121
2140 29.6497 1.78101 17.7091 -0.0128524 0.199224 2.10398
891 46.623 3.3547 17.9404 1.04153 0.283937 -0.694798
2410 40.3123 4.87871 18.1859 -0.0316973 -0.680532 -0.861204
486 0.768915 5.9124 17.6046 -1.50292 -0.315227 1.24889
3692 15.2622 6.46466 17.0405 1.00197 0.0344267 -0.299025
3781 21.225 7.20569 18.0105 1.39226 0.977957 -1.13731
3687 38.1395 7.35895 17.1258 0.270044 1.18473 -0.692382
748 13.7627 9.68595 18.0483 0.602104 -2.17809 0.363097
1494 11.457 10.204 17.5226 -0.372048 -0.509213 -1.17914
3106 29.5622 10.8491 17.9837 1.03248 -0.763417 0.690427
3715 33.5437 10.6123 17.4757 -0.661797 -0.839452 -0.107514
531 35.3237 10.6387 18.403 0.506686 0.636297 1.36813
1821 40.8375 12.4491 18.2696 -0.779646 0.525265 0.105395
1907 60.1019 12.1437 17.7706 0.050571 0.477393 0.621139
3940 10.6322 13.7473 18.2056 -0.424419 -0.629699 -0.0523895
3210 35.2234 13.1506 17.8439 -0.105343 0.846969 -2.81524
1055 12.4273 15.3207 17.3708 0.783822 -0.347919 -0.872716
1090 58.2074 14.4663 17.614 0.994811 -1.12678 0.662154
913 29.2913 16.1398 18.3602 0.525398 0.256836 -1.31352
3416 24.7388 19.1278 17.2975 -2.00936 -0.872219 0.24534
1156 63.7429 20.8341 17.0411 -0.75513 0.931769 0.559567
1878 66.6746 20.6447 17.0413 -0.394193 0.268562 -0.092306
721 70.2723 23.1972 17.5672 -1.44911 0.937578 0.401493
3073 34.7715 25.9609 17.9656 0.526655 -0.156332 -0.0580018
1038 30.1881 27.7093 18.1458 -1.32777 0.495068 1.02862
509 34.8585 27.1838 17.9791 -0.384377 -1.81067 0.844658
1141 39.1122 27.7863 17.078 -0.825616 0.0613867 -0.912444
3736 21.0754 29.0109 17.7322 0.406971 -0.331411 -0.260206
2009 28.9876 29.3946 18.3996 0.498425 -0.872566 0.207496
1180 33.4686 29.0048 17.2384 0.121604 -0.276669 1.35355
2427 70.8087 29.0468 17.5162 0.0942672 0.501829 -0.540805
430 25.092 32.5433 17.07 0.126649 -0.412064 -1.6392
2114 46.566 31.9705 18.193 -0.836205 0.00830808 -0.136586
1611 55.8833 31.8302 17.0201 0.273683 1.71878 0.175276
173 0.86556 33.2254 18.1448 0.165621 -1.56452 0.514457
2798 37.6899 33.3385 18.0102 0.0740656 -0.975791 -0.271795
1020 41.561 33.8486 17.9213 0.657679 0.358711 1.12213
3403 55.1979 33.4792 17.5963 -0.207337 -1.16845 -0.38123
1734 51.1714 35.4056 17.2203 -0.365102 0.22281 1.64124
2013 66.1925 36.4497 17.908 0.344688 -0.115935 0.842014
1767 70.5086 36.756 18.2015 0.65268 0.97282 1.55583
469 10.3851 2.44101 18.7259 0.288497 1.2624 0.283548
2171 41.7091 5.04163 19.6344 -2.03011 -1.09078 -0.577321
397 18.4037 8.60572 18.4842 -0.241597 0.922989 0.700374
98 59.0778 10.0527 19.758 -0.541439 0.360573 -0.63547
2205 18.8288 12.1953 18.4536 0.709104 0.392367 -0.475844
1964 52.3229 13.6857 18.9188 -1.49311 -0.601845 0.853588
2686 43.5789 14.8367 18.8718 0.840238 -0.631489 2.11251
2584 57.9104 16.8009 18.7828 -1.43179 -0.683857 0.14481
1021 32.5759 18.4806 19.5923 -1.68899 0.0775618 0.506934
130 63.786 19.7339 19.8237 -0.354242 -0.118826 -2.33387
2208 34.8944 20.1664 18.4798 -0.537202 0.82395 -1.19616
781 37.5902 19.9183 18.6397 0.318883 -0.583323 -1.4428
597 44.6294 20.697 19.6921 1.17635 -0.191701 -1.3078
3306 4.41883 21.62 18.683 0.0963622 -1.16689 -0.552393
424 10.9701 22.4513 18.8014 0.147826 1.58285 0.396076
2312 63.0894 22.4687 18.973 0.40674 1.0464 0.580104
1077 24.348 23.1441 18.6585 1.55558 -0.223784 -0.802549
3466 70.3772 23.3068 18.9657 1.92757 0.283357 2.46204
2601 41.4191 26.7513 18.4443 -1.05926 0.739712 -0.332613
535 23.4704 28.0127 18.7263 2.43221 -0.230241 -1.94005
1833 51.0665 29.3388 19.3874 1.27186 -0.394115 0.826651
2390 30.1148 31.1231 19.7551 1.3252 -0.429584 0.100305
3350 39.8208 34.4736 19.4575 -0.833841 -0.471462 -1.25274
3740 42.4457 34.7002 18.4885 0.372075 -0.636652 -0.3154
1122 24.3455 0.326551 21.0395 -2.3477 0.596068 0.563307