LAMMPS (29 Sep 2021 - Update 2)
#RDF

units		lj
boundary	p p p
atom_style	atomic

lattice		fcc ${rho}
lattice		fcc 1
Lattice spacing in x,y,z = 1.5874011 1.5874011 1.5874011
region		box block 0 6 0 6 0 6
create_box	1 box
Created orthogonal box = (0.0000000 0.0000000 0.0000000) to (9.5244063 9.5244063 9.5244063)
  1 by 2 by 2 MPI processor grid
create_atoms	1 box
Created 864 atoms
  using lattice units in orthogonal box = (0.0000000 0.0000000 0.0000000) to (9.5244063 9.5244063 9.5244063)
  create_atoms CPU = 0.002 seconds
mass		1 1.0

velocity	all create $T 87287 loop geom mom yes rot yes
velocity	all create 0.7 87287 loop geom mom yes rot yes
reset_timestep	0
timestep	0.001
pair_style	lj/cut 2.5
pair_coeff	1 1 1.0 1.0 2.5

neighbor	0.3 bin
neigh_modify	every 20 delay 0 check no
thermo		100

#Equilibration

fix		thermos all nvt temp $T $T 1.0
fix		thermos all nvt temp 0.7 $T 1.0
fix		thermos all nvt temp 0.7 0.7 1.0
run		20000
Neighbor list info ...
  update every 20 steps, delay 0 steps, check no
  max neighbors/atom: 2000, page size: 100000
  master list distance cutoff = 2.8
  ghost atom cutoff = 2.8
  binsize = 1.4, bins = 7 7 7
  1 neighbor lists, perpetual/occasional/extra = 1 0 0
  (1) pair lj/cut, perpetual
      attributes: half, newton on
      pair build: half/bin/atomonly/newton
      stencil: half/bin/3d
      bin: standard
Per MPI rank memory allocation (min/avg/max) = 2.624 | 2.624 | 2.624 Mbytes
Step Temp E_pair E_mol TotEng Press 
       0          0.7   -7.7615881            0   -6.7128034    -2.694385 
     100   0.22365272   -7.1326213            0   -6.7975305   0.69539742 
     200   0.34519599   -7.3075049            0   -6.7903102  -0.15863935 
     300   0.38504279   -7.3557333            0   -6.7788376  -0.39395227 
     400   0.37646614   -7.3300738            0   -6.7660282   -0.2527932 
     500   0.36185197   -7.2978726            0   -6.7557229  -0.10480576 
     600   0.38739545   -7.3256186            0    -6.745198  -0.22806779 
     700   0.38630438   -7.3135377            0   -6.7347518   -0.1608558 
     800   0.40469953   -7.3266001            0   -6.7202534  -0.23026085 
     900   0.38332405   -7.2819351            0   -6.7076145  0.023453293 
    1000   0.40706247   -7.3006689            0   -6.6907819 -0.077210704 
    1100   0.40429271   -7.2844525            0   -6.6787153  0.012938232 
    1200   0.41748302   -7.2865699            0   -6.6610702  0.025627886 
    1300   0.42096882   -7.2741265            0   -6.6434041  0.083605173 
    1400   0.41103047   -7.2454199            0   -6.6295878   0.24022522 
    1500   0.43103352   -7.2567428            0   -6.6109409   0.20943292 
    1600   0.44121561    -7.255475            0   -6.5944176   0.22223039 
    1700   0.44402513   -7.2427724            0   -6.5775056   0.29529326 
    1800   0.44125936   -7.2184446            0   -6.5573217     0.429749 
    1900   0.46885469   -7.2413077            0   -6.5388396   0.31057293 
    2000   0.46192108   -7.2130591            0   -6.5209795   0.47467554 
    2100     0.467157   -7.2022459            0   -6.5023214   0.55442056 
    2200   0.48421361   -7.2094397            0     -6.48396   0.51677225 
    2300   0.47689734   -7.1788718            0   -6.4643538   0.67077523 
    2400   0.49810991   -7.1892999            0   -6.4429999   0.63242301 
    2500   0.49685222   -7.1681469            0   -6.4237311   0.76470642 
    2600   0.49888608    -7.150907            0    -6.403444   0.84235157 
    2700   0.49812564   -7.1282763            0   -6.3819527   0.96745067 
    2800   0.52811418   -7.1529711            0   -6.3617167   0.84701333 
    2900   0.52376675   -7.1252859            0   -6.3405451     1.009728 
    3000   0.53646071   -7.1232402            0   -6.3194805    1.0460008 
    3100   0.53716421   -7.1031524            0   -6.2983387    1.1246182 
    3200   0.55210944   -7.1041383            0   -6.2769327    1.1645226 
    3300   0.55904342    -7.093185            0   -6.2555905    1.2369054 
    3400   0.56147141   -7.0772675            0   -6.2360352    1.3360845 
    3500   0.59285527   -7.1027502            0   -6.2144966    1.2066272 
    3600   0.58630917   -7.0719093            0   -6.1934635    1.3802279 
    3700   0.59300341   -7.0600179            0   -6.1715423    1.4445023 
    3800   0.59613997   -7.0445798            0   -6.1514049    1.5515435 
    3900   0.60748364   -7.0392111            0   -6.1290403    1.5748421 
    4000   0.61176788   -7.0245387            0   -6.1079489     1.653552 
    4100   0.61449809   -7.0086343            0    -6.087954     1.776153 
    4200   0.64302805    -7.030848            0   -6.0674223    1.6517211 
    4300   0.63434039    -6.998223            0   -6.0478137    1.8054281 
    4400    0.6183064   -6.9545049            0   -6.0281187    2.0482527 
    4500   0.63881514    -6.965598            0   -6.0084844    2.0013954 
    4600   0.65315909   -6.9669558            0   -5.9883511    2.0125759 
    4700   0.67653549   -6.9824186            0   -5.9687899    1.9328701 
    4800   0.65810896   -6.9365186            0   -5.9504977    2.1788081 
    4900   0.65547965   -6.9142942            0   -5.9322127    2.2779277 
    5000   0.68248972   -6.9387004            0   -5.9161507    2.2071234 
    5100   0.68486717   -6.9240021            0   -5.8978904    2.2902153 
    5200   0.71799272   -6.9575427            0   -5.8818001    2.1319139 
    5300   0.67884584   -6.8837308            0   -5.8666405    2.4932545 
    5400   0.69522953   -6.8922845            0   -5.8506472     2.444549 
    5500   0.69981685   -6.8851635            0   -5.8366532    2.4834077 
    5600   0.71751761   -6.8967473            0   -5.8217166    2.4542692 
    5700   0.71893603    -6.886689            0   -5.8095331    2.4949919 
    5800   0.73986293   -6.9062693            0   -5.7977593    2.4284947 
    5900   0.72396399   -6.8716101            0    -5.786921    2.6012257 
    6000   0.72897493   -6.8676908            0    -5.775494    2.6210672 
    6100   0.72579654   -6.8548505            0   -5.7674158    2.6893523 
    6200    0.7433773   -6.8730107            0   -5.7592354    2.6080783 
    6300   0.76463286   -6.8980573            0   -5.7524355    2.4811056 
    6400   0.71324255   -6.8172175            0   -5.7485919    2.8821365 
    6500   0.73143613   -6.8398871            0   -5.7440028    2.7768302 
    6600   0.73507361   -6.8413687            0   -5.7400345    2.7346665 
    6700   0.72604219   -6.8278864            0   -5.7400836    2.8352096 
    6800   0.76465912   -6.8859453            0   -5.7402842     2.571471 
    6900   0.74235535   -6.8527319            0   -5.7404876    2.7271984 
    7000   0.73201249   -6.8390034            0   -5.7422555    2.7569383 
    7100   0.73251142   -6.8438502            0   -5.7463548    2.7484023 
    7200   0.74140898   -6.8621662            0   -5.7513399    2.6405764 
    7300   0.72341739   -6.8410384            0   -5.7571682    2.7696601 
    7400   0.71522751    -6.836851            0   -5.7652515     2.778433 
    7500   0.75657496   -6.9063589            0   -5.7728099    2.4328551 
    7600   0.72354656   -6.8664207            0    -5.782357    2.6460388 
    7700   0.72854739   -6.8848029            0   -5.7932466      2.51519 
    7800    0.7449958   -6.9198154            0   -5.8036151    2.3786702 
    7900   0.72175106   -6.8954984            0   -5.8141248     2.464527 
    8000   0.70305081   -6.8777527            0   -5.8243971    2.5219153 
    8100   0.70971705   -6.9001142            0   -5.8367707    2.4328508 
    8200   0.70395397   -6.9016874            0   -5.8469786    2.3944484 
    8300   0.68870623   -6.8907091            0   -5.8588454    2.4535354 
    8400   0.69425534   -6.9091302            0   -5.8689525    2.3777838 
    8500   0.70173086    -6.931341            0    -5.879963    2.2627287 
    8600   0.69957375   -6.9367034            0   -5.8885573    2.2211648 
    8700   0.70825416   -6.9580787            0    -5.896927    2.1282607 
    8800   0.69049876   -6.9411422            0   -5.9065929    2.2024857 
    8900   0.63958142   -6.8732828            0    -5.915021    2.5214038 
    9000   0.68807693   -6.9514676            0   -5.9205468     2.122324 
    9100   0.68342263   -6.9512734            0   -5.9273259    2.1237291 
    9200   0.68144351   -6.9547103            0   -5.9337281    2.0900402 
    9300   0.66993645   -6.9424985            0   -5.9387569      2.15645 
    9400   0.67462017   -6.9530073            0   -5.9422482    2.1028023 
    9500    0.6688527   -6.9479199            0   -5.9458021    2.1286867 
    9600   0.66930019   -6.9515248            0   -5.9487365    2.1287275 
    9700   0.68482223   -6.9756688            0   -5.9496243    1.9974497 
    9800   0.63709945   -6.9049684            0   -5.9504253    2.3322775 
    9900   0.66135983    -6.941773            0   -5.9508814    2.1648148 
   10000   0.68789017   -6.9805843            0   -5.9499433    1.9843111 
   10100   0.66330724   -6.9415277            0   -5.9477184    2.1569825 
   10200    0.6714319   -6.9493569            0   -5.9433747    2.1366309 
   10300   0.68711162   -6.9681563            0   -5.9386817    2.0153268 
   10400   0.68310963   -6.9573927            0   -5.9339142    2.0713992 
   10500   0.66577424   -6.9274872            0   -5.9299817    2.2477914 
   10600   0.66918764   -6.9266346            0   -5.9240149    2.2434045 
   10700     0.665726   -6.9137638            0   -5.9163306    2.3218674 
   10800   0.70139642   -6.9602661            0   -5.9093891    2.0737196 
   10900    0.6872781   -6.9308612            0   -5.9011372    2.2354788 
   11000   0.69266981   -6.9293282            0   -5.8915261    2.2409444 
   11100   0.67588926   -6.8974867            0   -5.8848263    2.4173143 
   11200   0.69796136   -6.9226004            0   -5.8768701    2.2735373 
   11300   0.67382772   -6.8784988            0    -5.868927    2.5111372 
   11400   0.69226587   -6.8975284            0   -5.8603314    2.4455696 
   11500   0.69952676   -6.9001386            0   -5.8520629    2.4283873 
   11600   0.69478069   -6.8838465            0   -5.8428817    2.5211875 
   11700   0.72766542   -6.9243857            0   -5.8341509    2.3235591 
   11800   0.71410844   -6.8960894            0   -5.8261665    2.4429221 
   11900   0.71942675   -6.8967605            0   -5.8188693    2.4688006 
   12000   0.72627276   -6.9002276            0   -5.8120793    2.4355048 
   12100   0.70298979   -6.8590409            0   -5.8057767    2.6462785 
   12200   0.73007259   -6.8932642            0   -5.7994228    2.4731022 
   12300    0.7201606   -6.8738316            0   -5.7948409    2.5612803 
   12400    0.7280125   -6.8815931            0   -5.7908382    2.5496069 
   12500   0.73428542   -6.8883707            0   -5.7882173    2.5115273 
   12600   0.71855786     -6.86179            0   -5.7852007    2.6488875 
   12700   0.71770499   -6.8587153            0   -5.7834038    2.6735233 
   12800   0.74887594    -6.903239            0   -5.7812252    2.4608588 
   12900   0.73256207    -6.879531            0   -5.7819597    2.5522383 
   13000   0.74547665   -6.8984144            0   -5.7814937    2.4843414 
   13100   0.72222384   -6.8660324            0   -5.7839505    2.6322256 
   13200    0.7264808   -6.8750174            0   -5.7865574    2.5791979 
   13300   0.72846087   -6.8816131            0   -5.7901865    2.5442211 
   13400   0.71145083   -6.8600597            0   -5.7941186     2.667258 
   13500   0.72769797   -6.8882562            0   -5.7979726    2.5205704 
   13600   0.74848473   -6.9256239            0   -5.8041962    2.3241007 
   13700   0.69976078   -6.8582274            0   -5.8098011    2.6617039 
   13800   0.70798972   -6.8777691            0   -5.8170137    2.5553397 
   13900   0.71570087   -6.8972707            0    -5.824962    2.4697687 
   14000   0.70667064   -6.8906572            0   -5.8318781    2.4877846 
   14100   0.70026241   -6.8877456            0   -5.8385677    2.4906954 
   14200   0.71144103   -6.9120265            0   -5.8461001    2.3768972 
   14300   0.73611802   -6.9559488            0   -5.8530497    2.1397291 
   14400   0.68749756   -6.8913957            0    -5.861343    2.4270348 
   14500   0.69693856   -6.9124577            0   -5.8682599    2.3232797 
   14600   0.70392117   -6.9314978            0   -5.8768381    2.2560959 
   14700   0.68791517   -6.9142769            0   -5.8835984    2.3510076 
   14800   0.68619899   -6.9170896            0   -5.8889824    2.3011116 
   14900   0.70005028   -6.9447441            0   -5.8958841    2.1810304 
   15000   0.67488887   -6.9133055            0   -5.9021439    2.3211426 
   15100   0.67956668   -6.9254088            0   -5.9072386    2.2437149 
   15200    0.6891596   -6.9445051            0   -5.9119622    2.1568459 
   15300    0.6633232   -6.9104848            0   -5.9166516    2.3391729 
   15400   0.67515028   -6.9305615            0   -5.9190082    2.2190196 
   15500   0.68829948   -6.9530672            0    -5.921813    2.1395855 
   15600    0.6811987   -6.9456642            0   -5.9250488    2.1586256 
   15700   0.66607737   -6.9255187            0   -5.9275591     2.243194 
   15800   0.65989391   -6.9156651            0   -5.9269699    2.3037834 
   15900   0.66841254   -6.9298184            0   -5.9283601    2.2350236 
   16000    0.6796386    -6.946367            0    -5.928089    2.1477835 
   16100   0.67769715   -6.9407543            0   -5.9253851    2.1778104 
   16200   0.68411203   -6.9489419            0   -5.9239615    2.1264057 
   16300   0.67575737   -6.9334826            0   -5.9210197    2.2306728 
   16400   0.68194167   -6.9377721            0   -5.9160435    2.1934564 
   16500   0.67572062   -6.9250366            0   -5.9126288    2.2673366 
   16600   0.67250168   -6.9153924            0   -5.9078074    2.3067278 
   16700    0.6710227   -6.9079597            0   -5.9025907     2.354746 
   16800    0.7006666   -6.9466539            0   -5.8968705    2.1519621 
   16900   0.66465642   -6.8860139            0   -5.8901832     2.459787 
   17000    0.7059668   -6.9419984            0   -5.8842739    2.1929771 
   17100   0.70432122   -6.9327146            0   -5.8774556    2.2618221 
   17200   0.68975852   -6.9050201            0   -5.8715798    2.4036419 
   17300    0.6931931   -6.9007794            0   -5.8621933    2.3728967 
   17400    0.7041107   -6.9103255            0   -5.8553819    2.3499478 
   17500   0.71182241   -6.9141892            0   -5.8476913    2.3417182 
   17600   0.69295744   -6.8806026            0   -5.8423695    2.5110014 
   17700   0.72429803   -6.9214396            0   -5.8362501    2.3341154 
   17800   0.71373291   -6.9004165            0   -5.8310563    2.4700717 
   17900   0.76043676   -6.9639953            0   -5.8246604    2.1437347 
   18000   0.71898633   -6.8969812            0   -5.8197499    2.4793541 
   18100   0.69489802   -6.8562417            0   -5.8151011     2.642435 
   18200   0.71007515   -6.8751015            0   -5.8112216    2.5428156 
   18300   0.71961408   -6.8864587            0   -5.8082869    2.4911278 
   18400   0.71718278   -6.8791328            0   -5.8046037    2.5432333 
   18500   0.71985626    -6.881521            0   -5.8029863    2.5419279 
   18600   0.72947731   -6.8933299            0   -5.8003803    2.4755005 
   18700   0.70923511   -6.8618844            0    -5.799263    2.6452529 
   18800   0.74557373   -6.9148006            0   -5.7977344    2.3792629 
   18900   0.72802212   -6.8891028            0   -5.7983335     2.496814 
   19000   0.71399516   -6.8681816            0   -5.7984285    2.5861479 
   19100   0.69810078   -6.8467135            0   -5.8007743    2.6872037 
   19200   0.69726245     -6.84809            0   -5.8034069    2.7223486 
   19300   0.72026688   -6.8851773            0   -5.8060275    2.5065543 
   19400   0.71709121    -6.884692            0   -5.8103001    2.5120892 
   19500   0.71477953   -6.8835865            0   -5.8126581    2.5293894 
   19600   0.73303564   -6.9158634            0   -5.8175826    2.3841568 
   19700   0.72681704   -6.9105067            0    -5.821543    2.3984273 
   19800   0.69501924   -6.8689355            0   -5.8276133    2.5713787 
   19900   0.72158299   -6.9131031            0   -5.8319814    2.3656251 
   20000   0.71332179   -6.9062839            0   -5.8375397    2.3746128 
Loop time of 3.93427 on 4 procs for 20000 steps with 864 atoms

Performance: 439217.486 tau/day, 5083.536 timesteps/s
99.7% CPU use with 4 MPI tasks x no OpenMP threads

MPI task timing breakdown:
Section |  min time  |  avg time  |  max time  |%varavg| %total
---------------------------------------------------------------
Pair    | 2.7324     | 2.7422     | 2.7635     |   0.8 | 69.70
Neigh   | 0.41793    | 0.41901    | 0.42007    |   0.1 | 10.65
Comm    | 0.60118    | 0.62313    | 0.63458    |   1.7 | 15.84
Output  | 0.0019331  | 0.0023447  | 0.0035505  |   1.4 |  0.06
Modify  | 0.11489    | 0.1158     | 0.11772    |   0.3 |  2.94
Other   |            | 0.03183    |            |       |  0.81

Nlocal:        216.000 ave         219 max         213 min
Histogram: 1 1 0 0 0 0 0 0 1 1
Nghost:        1389.00 ave        1392 max        1386 min
Histogram: 1 1 0 0 0 0 0 0 1 1
Neighs:        9187.00 ave        9244 max        9108 min
Histogram: 1 0 0 0 0 0 1 1 0 1

Total # of neighbors = 36748
Ave neighs/atom = 42.532407
Neighbor list builds = 1000
Dangerous builds not checked
unfix 	thermos

fix 	1 all nve

run 	20000
Per MPI rank memory allocation (min/avg/max) = 2.624 | 2.624 | 2.624 Mbytes
Step Temp E_pair E_mol TotEng Press 
   20000   0.71332179   -6.9062839            0   -5.8375397    2.3746128 
   20100   0.70299132    -6.891942            0   -5.8386755    2.4794689 
   20200   0.70893411   -6.9003375            0   -5.8381672     2.421174 
   20300   0.71489061   -6.9089985            0   -5.8379037     2.375143 
   20400   0.70918102    -6.900816            0   -5.8382757     2.438651 
   20500   0.71973447   -6.9167032            0   -5.8383511    2.3439999 
   20600   0.68963398   -6.8713751            0   -5.8381214    2.5681614 
   20700   0.70620697   -6.8970575            0   -5.8389731    2.4324133 
   20800   0.71637392   -6.9112913            0   -5.8379741    2.3790951 
   20900   0.71794278   -6.9130348            0    -5.837367    2.3510558 
   21000   0.69052774    -6.872334            0   -5.8377412    2.5467736 
   21100   0.70221107   -6.8894631            0   -5.8373656    2.4659152 
   21200   0.71430231    -6.906789            0   -5.8365757    2.3699201 
   21300   0.73317212   -6.9356318            0   -5.8371465    2.2517104 
   21400    0.7214497   -6.9188786            0   -5.8379566    2.3369504 
   21500   0.71087665   -6.9026953            0   -5.8376145    2.4167004 
   21600    0.7130185   -6.9066718            0   -5.8383819     2.387211 
   21700   0.70916248   -6.9008596            0    -5.838347    2.4279304 
   21800     0.692522   -6.8751001            0   -5.8375194    2.5419354 
   21900   0.74512789   -6.9544535            0   -5.8380553    2.1606245 
   22000     0.705226   -6.8936064            0   -5.8369917    2.4617654 
   22100   0.71874505   -6.9152369            0   -5.8383672    2.3561711 
   22200   0.71872269   -6.9151885            0   -5.8383522    2.3575238 
   22300   0.72949737   -6.9309905            0   -5.8380109    2.2898813 
   22400   0.68223054   -6.8589179            0   -5.8367566    2.6023788 
   22500   0.71803415   -6.9144721            0   -5.8386675    2.3672079 
   22600   0.67489891   -6.8491659            0   -5.8379893    2.6592304 
   22700   0.70237856   -6.8906743            0   -5.8383258    2.4675043 
   22800   0.72598179   -6.9265303            0    -5.838818    2.2891989 
   22900   0.69028917   -6.8715227            0   -5.8372873    2.5489668 
   23000   0.69239893   -6.8751971            0   -5.8378008    2.5311598 
   23100   0.70289464   -6.8891618            0   -5.8360401     2.457156 
   23200   0.73205968   -6.9352271            0   -5.8384085    2.2609735 
   23300   0.70372926   -6.8921718            0   -5.8377997    2.4555816 
   23400   0.69589514   -6.8807892            0   -5.8381546    2.5305165 
   23500   0.71654532   -6.9116351            0   -5.8380611    2.3849635 
   23600   0.69609177   -6.8814831            0   -5.8385539    2.5151976 
   23700   0.72348075   -6.9225773            0   -5.8386122    2.3328507 
   23800   0.72554154   -6.9239426            0   -5.8368899    2.3148591 
   23900   0.68191796   -6.8589741            0   -5.8372811    2.6306776 
   24000    0.7061749   -6.8956598            0   -5.8376235    2.4388509 
   24100   0.71630772   -6.9113901            0   -5.8381721     2.372882 
   24200   0.72037105   -6.9168582            0   -5.8375523    2.3419567 
   24300   0.69809634   -6.8838795            0    -5.837947    2.5243583 
   24400   0.72407782   -6.9223556            0   -5.8374959    2.3424325 
   24500   0.69699641    -6.883265            0   -5.8389805    2.5181417 
   24600   0.70118303   -6.8877049            0   -5.8371477     2.479509 
   24700   0.69684279   -6.8826582            0   -5.8386039    2.5207839 
   24800     0.688922   -6.8709406            0   -5.8387536    2.5564419 
   24900   0.72829722   -6.9279773            0   -5.8367959    2.2919885 
   25000   0.70805419   -6.8984002            0   -5.8375481    2.4338201 
   25100   0.70937643   -6.9002893            0   -5.8374562    2.4348773 
   25200   0.70508489   -6.8939743            0   -5.8375711    2.4579292 
   25300   0.71441281   -6.9094589            0     -5.83908    2.3663465 
   25400   0.72091505   -6.9173635            0   -5.8372425    2.3475665 
   25500   0.69130404   -6.8732655            0   -5.8375096    2.5598329 
   25600   0.70340548   -6.8914169            0   -5.8375299    2.4530835 
   25700    0.7083089    -6.898665            0   -5.8374313    2.4123492 
   25800   0.69796384   -6.8837918            0   -5.8380578    2.5023512 
   25900   0.73022574   -6.9323397            0   -5.8382688    2.2513867 
   26000   0.69717236   -6.8817751            0   -5.8372269    2.4950359 
   26100   0.71702817   -6.9121118            0   -5.8378144    2.3718752 
   26200   0.70828947   -6.8992243            0   -5.8380198    2.4188422 
   26300   0.71218215   -6.9039459            0   -5.8369091    2.4013894 
   26400   0.70378944   -6.8923864            0   -5.8379241    2.4615398 
   26500   0.68738521   -6.8677899            0   -5.8379055    2.5580838 
   26600   0.72320564   -6.9207469            0   -5.8371941    2.3292977 
   26700   0.68753773    -6.869212            0    -5.839099    2.5678637 
   26800   0.68391946   -6.8618796            0   -5.8371877    2.6028683 
   26900   0.70793079   -6.8987294            0   -5.8380622    2.4168251 
   27000   0.70621517   -6.8959363            0   -5.8378397    2.4359186 
   27100   0.70657202   -6.8967911            0   -5.8381597    2.4377496 
   27200   0.69953097   -6.8864089            0   -5.8383269    2.4832008 
   27300   0.71735983    -6.913696            0   -5.8389017    2.3686792 
   27400   0.71849001   -6.9129312            0   -5.8364436    2.3627583 
   27500   0.69473632   -6.8773381            0   -5.8364398    2.5220967 
   27600   0.69281598   -6.8762551            0    -5.838234    2.5593659 
   27700   0.70015501   -6.8873306            0   -5.8383136    2.4857628 
   27800   0.73013191   -6.9314903            0   -5.8375601    2.2797851 
   27900   0.70121494   -6.8879187            0   -5.8373137    2.4922955 
   28000   0.71806379   -6.9141119            0   -5.8382629    2.3707929 
   28100   0.69939362   -6.8858706            0   -5.8379944    2.5049002 
   28200   0.69734898   -6.8837506            0   -5.8389378    2.4960419 
   28300   0.71821901   -6.9133619            0   -5.8372803    2.3520806 
   28400   0.69674164   -6.8811078            0    -5.837205    2.4904519 
   28500   0.72344242   -6.9219093            0   -5.8380017    2.3143082 
   28600   0.71411168   -6.9080958            0    -5.838168    2.4033907 
   28700   0.68627998   -6.8659565            0    -5.837728    2.5902315 
   28800     0.717984   -6.9130114            0   -5.8372819    2.3768503 
   28900   0.72520515   -6.9232434            0   -5.8366947    2.3014288 
   29000   0.70925987   -6.9005263            0   -5.8378678    2.4395931 
   29100   0.70858491   -6.8999278            0   -5.8382806    2.4338733 
   29200   0.70834162   -6.8991847            0    -5.837902    2.4252561 
   29300   0.70057249    -6.887261            0   -5.8376185    2.4915224 
   29400   0.71115915   -6.9039979            0   -5.8384938    2.4075104 
   29500    0.7221231   -6.9203645            0   -5.8384336    2.3244274 
   29600   0.68714451   -6.8668421            0   -5.8373183    2.5944501 
   29700   0.69865427   -6.8840305            0    -5.837262    2.5025639 
   29800   0.69216758   -6.8741423            0   -5.8370927    2.5236507 
   29900   0.69656761   -6.8821308            0   -5.8384888    2.5243643 
   30000   0.71337593   -6.9066341            0   -5.8378087    2.3910788 
   30100   0.69800745   -6.8832902            0   -5.8374909    2.5033335 
   30200     0.720071   -6.9167676            0   -5.8379113      2.35269 
   30300   0.71504556   -6.9094444            0   -5.8381174    2.3798838 
   30400   0.69710841   -6.8821162            0   -5.8376639    2.5014912 
   30500   0.70408001   -6.8921636            0    -5.837266     2.456996 
   30600   0.74099443   -6.9470778            0   -5.8368726     2.210848 
   30700   0.69186218   -6.8735954            0   -5.8370033    2.5722874 
   30800   0.70465392   -6.8936103            0   -5.8378528    2.4657092 
   30900    0.7374878   -6.9434652            0   -5.8385139    2.2268595 
   31000    0.6861076   -6.8666139            0   -5.8386436    2.6025123 
   31100   0.70751439   -6.8989718            0   -5.8389285    2.4559943 
   31200   0.72466032   -6.9239251            0   -5.8381927    2.3193068 
   31300   0.71345055   -6.9069773            0   -5.8380401    2.3909441 
   31400   0.70549935   -6.8950443            0   -5.8380202    2.4434047 
   31500   0.70240838    -6.889849            0   -5.8374558    2.4847823 
   31600   0.70878696   -6.9000523            0   -5.8381024     2.433562 
   31700   0.71087292   -6.9034577            0   -5.8383824    2.4228673 
   31800   0.70703548   -6.8982587            0    -5.838933    2.4323505 
   31900    0.7229375   -6.9217813            0   -5.8386302    2.3584534 
   32000   0.69577916   -6.8802579            0   -5.8377971    2.5255877 
   32100   0.70976638   -6.9008557            0   -5.8374384    2.4307807 
   32200   0.70395811   -6.8927413            0   -5.8380262    2.4691789 
   32300   0.73330524   -6.9369962            0   -5.8383114    2.2472995 
   32400   0.71725451   -6.9132834            0   -5.8386469    2.3488738 
   32500   0.69581371   -6.8815565            0    -5.839044    2.5347379 
   32600   0.71532663   -6.9095454            0   -5.8377974    2.3705413 
   32700   0.72715539    -6.927329            0   -5.8378584    2.2909376 
   32800   0.69629474   -6.8818086            0   -5.8385754    2.5069284 
   32900   0.72745348   -6.9290784            0   -5.8391611    2.3016522 
   33000   0.69812785   -6.8820661            0   -5.8360864     2.509848 
   33100   0.70803331    -6.899057            0   -5.8382362    2.4274385 
   33200   0.70201397   -6.8906243            0   -5.8388221    2.4752368 
   33300   0.72627232    -6.927025            0   -5.8388774    2.3086679 
   33400   0.72743499   -6.9276169            0   -5.8377273    2.2952261 
   33500   0.68276554   -6.8604768            0   -5.8375139    2.6357883 
   33600   0.71314906   -6.9056965            0    -5.837211    2.4016599 
   33700   0.69719074   -6.8818062            0   -5.8372305    2.5279814 
   33800   0.72554724   -6.9259126            0   -5.8388514    2.3112379 
   33900   0.71387144   -6.9072266            0   -5.8376588    2.3980535 
   34000   0.70593331    -6.895335            0   -5.8376606    2.4673687 
   34100   0.69217223   -6.8738291            0   -5.8367724    2.5623005 
   34200   0.68832294   -6.8688798            0   -5.8375904    2.5649398 
   34300   0.74330109   -6.9515355            0   -5.8378743    2.2022282 
   34400   0.72543568   -6.9260354            0   -5.8391413    2.3310033 
   34500   0.69448098   -6.8790998            0   -5.8385841    2.5157933 
   34600    0.7104373   -6.9025214            0   -5.8380988    2.4289793 
   34700   0.70556012   -6.8946124            0   -5.8374971     2.464599 
   34800   0.72191208   -6.9193144            0   -5.8376996    2.3340167 
   34900   0.71724855   -6.9130682            0   -5.8384406    2.3569406 
   35000   0.70506573   -6.8941458            0   -5.8377712    2.4520862 
   35100    0.7150874   -6.9094247            0   -5.8380351    2.3757173 
   35200   0.68018229   -6.8573916            0   -5.8382991    2.6273235 
   35300   0.71285155   -6.9059819            0   -5.8379421     2.402109 
   35400   0.72818906    -6.929249            0   -5.8382296     2.281111 
   35500   0.69382488   -6.8768511            0   -5.8373183    2.5489348 
   35600   0.69364293   -6.8767297            0   -5.8374695    2.5137184 
   35700   0.68404921   -6.8629771            0   -5.8380908    2.5723993 
   35800   0.74577301   -6.9552929            0   -5.8379281    2.1570962 
   35900   0.70917241   -6.9011734            0    -5.838646    2.4326128 
   36000   0.68690604   -6.8673357            0   -5.8381691    2.5939519 
   36100   0.72569093   -6.9256364            0   -5.8383599      2.32995 
   36200   0.70601242   -6.8957938            0   -5.8380009    2.4314334 
   36300   0.68837417   -6.8691164            0   -5.8377502     2.554328 
   36400   0.70217397   -6.8904326            0   -5.8383907    2.4601944 
   36500   0.69000687   -6.8718847            0   -5.8380723    2.5623351 
   36600   0.68983717   -6.8723299            0   -5.8387717    2.5564217 
   36700   0.71267475   -6.9061346            0   -5.8383598    2.4069376 
   36800   0.70050662   -6.8873774            0   -5.8378336    2.4553239 
   36900   0.71381426   -6.9075826            0   -5.8381004    2.3811876 
   37000   0.70019265   -6.8874758            0   -5.8384025    2.4857513 
   37100   0.69147829   -6.8760046            0   -5.8399877    2.5560493 
   37200   0.69769675   -6.8817911            0   -5.8364572    2.5001213 
   37300   0.68224912   -6.8590373            0   -5.8368481     2.617178 
   37400   0.69428807   -6.8786428            0   -5.8384161    2.5176074 
   37500    0.6842059   -6.8639882            0   -5.8388672    2.6038385 
   37600   0.70798662   -6.8986789            0   -5.8379281    2.4391359 
   37700   0.69642599   -6.8809279            0    -5.837498     2.536398 
   37800   0.72328458    -6.921835            0   -5.8381638    2.3175135 
   37900   0.73386265   -6.9370207            0   -5.8375008    2.2589531 
   38000   0.68725676   -6.8670965            0   -5.8374045    2.5642241 
   38100    0.7148784    -6.908556            0   -5.8374795    2.3912717 
   38200   0.71582197   -6.9095563            0   -5.8370661     2.376281 
   38300   0.71911199   -6.9155089            0   -5.8380894    2.3614574 
   38400   0.69115017   -6.8733873            0    -5.837862    2.5622746 
   38500   0.70277325   -6.8909126            0   -5.8379728    2.4796171 
   38600   0.70321957   -6.8933963            0   -5.8397878    2.4564427 
   38700   0.71863045   -6.9158638            0   -5.8391657    2.3551908 
   38800   0.67772164   -6.8535104            0   -5.8381045    2.6669806 
   38900   0.71742362    -6.912736            0   -5.8378461    2.3821564 
   39000   0.71135158   -6.9051655            0   -5.8393731    2.4165926 
   39100   0.69838186   -6.8849799            0   -5.8386196    2.5200952 
   39200   0.71388858   -6.9077607            0   -5.8381672    2.3921372 
   39300   0.68748679   -6.8681474            0   -5.8381107    2.5956325 
   39400   0.71692171   -6.9116398            0   -5.8375019    2.3721918 
   39500   0.70783544    -6.898651            0   -5.8381267    2.4335244 
   39600   0.71991407   -6.9156711            0   -5.8370498    2.3439645 
   39700    0.7100955   -6.9017575            0   -5.8378471    2.4246645 
   39800   0.71037227   -6.9021284            0   -5.8378033    2.4068469 
   39900   0.70666764   -6.8968615            0   -5.8380869    2.4215763 
   40000   0.72058024   -6.9180495            0   -5.8384302    2.3386211 
Loop time of 3.84708 on 4 procs for 20000 steps with 864 atoms

Performance: 449171.499 tau/day, 5198.744 timesteps/s
99.7% CPU use with 4 MPI tasks x no OpenMP threads

MPI task timing breakdown:
Section |  min time  |  avg time  |  max time  |%varavg| %total
---------------------------------------------------------------
Pair    | 2.7288     | 2.7448     | 2.7541     |   0.6 | 71.35
Neigh   | 0.4166     | 0.41846    | 0.42168    |   0.3 | 10.88
Comm    | 0.59074    | 0.59978    | 0.61907    |   1.5 | 15.59
Output  | 0.0020923  | 0.0024868  | 0.0036173  |   1.3 |  0.06
Modify  | 0.049457   | 0.050685   | 0.053279   |   0.7 |  1.32
Other   |            | 0.03086    |            |       |  0.80

Nlocal:        216.000 ave         220 max         211 min
Histogram: 1 0 0 1 0 0 0 0 1 1
Nghost:        1389.00 ave        1394 max        1385 min
Histogram: 1 1 0 0 0 0 1 0 0 1
Neighs:        9189.75 ave        9398 max        8930 min
Histogram: 1 0 0 1 0 0 0 0 1 1

Total # of neighbors = 36759
Ave neighs/atom = 42.545139
Neighbor list builds = 1000
Dangerous builds not checked

compute 1 all msd
compute 2 all vacf

thermo_style custom c_1[4] c_2[4]
thermo 100

run 10000
Per MPI rank memory allocation (min/avg/max) = 3.374 | 3.374 | 3.374 Mbytes
c_1[4] c_2[4] 
           0    2.1592387 
 0.015746014  -0.19973661 
 0.032814881  -0.86568924 
  0.03474533 -0.085960318 
 0.032358108 -0.076123131 
 0.030627831   0.15401806 
 0.030718119 -0.010726091 
 0.032185042  -0.10588272 
 0.033661923  0.042742707 
 0.033708028  0.039349556 
 0.033363549 0.0095388933 
 0.032435804  -0.03869959 
 0.031238106 -0.050839509 
 0.030409677  0.088106567 
 0.030901016 -0.014188631 
 0.031608461  0.011776328 
 0.030709775 0.0044137559 
 0.029314415  0.042470069 
 0.028724371 -0.022461527 
 0.028072842 -0.043900013 
 0.027740297  0.022725437 
  0.02944678  0.014806544 
 0.030029204   0.06757026 
 0.028778237 -0.021317247 
 0.028506372 -0.044932896 
 0.029359057  -0.03044786 
 0.030403618 -0.017901501 
 0.031607184 0.0066555413 
  0.03045273 -0.010488371 
 0.028692959 -0.061174404 
 0.028606968  0.058547076 
 0.029806609 0.0050318761 
  0.03047306 -0.0079626179 
 0.029544312 0.0025596419 
 0.029007302  -0.04169148 
 0.029598101  0.064923105 
 0.030058116 0.0082556301 
  0.02906705 -0.071977145 
 0.028910676   0.07015079 
  0.02994423  0.038912731 
 0.029864993 -0.095033249 
 0.029467779   0.02965502 
 0.029667843  0.026721947 
 0.030393586  0.054998554 
 0.031166732  0.017986136 
 0.031987956 -0.028050485 
 0.032741992 -0.037240589 
  0.03215673 -0.049718939 
 0.031857273 -0.064863451 
 0.031461357  0.092427063 
 0.030973658  0.013489092 
  0.03204245 -0.0089217669 
 0.032526409 -0.024481433 
 0.031049639 -0.017014339 
 0.030747605 -0.0065189841 
 0.030026271  0.049096597 
 0.030194733  0.054684005 
 0.030152124 -0.021404278 
  0.02926994 -0.035330516 
 0.029888456 -0.027048837 
 0.031073719  0.023767245 
  0.03040912  0.036666685 
 0.030179446  0.051076396 
 0.029526447 -0.022233807 
 0.029472714 -0.0041387508 
 0.029799322  0.043316644 
  0.03066945  -0.04928168 
 0.032091281 -0.031431054 
 0.034189438  0.026480899 
 0.034647022  -0.01547112 
 0.034017476  -0.10352947 
 0.032322924   0.03289974 
 0.031460903 0.0056319692 
 0.032046677 -0.021400755 
 0.032271064  0.028352352 
 0.031442072  0.047676015 
  0.03155368   0.04622157 
 0.031454381  0.002942695 
 0.030689315  -0.10979671 
 0.029640379   -0.0351314 
  0.02993277  0.047236342 
 0.030728761  0.076344296 
 0.030053746    0.0331869 
 0.030049185 -0.013332158 
 0.029492512 -0.031331413 
 0.029809117 0.0068600654 
 0.031491871  -0.07218293 
 0.033498265  0.019202207 
  0.03527333  0.058859379 
  0.03632376 -0.0028556525 
 0.036296449 -0.032135337 
 0.035736171  0.013079402 
 0.033150694   0.01188473 
 0.031948439 -0.041722429 
 0.032441012 -0.019359433 
 0.032211808 0.00014381763 
 0.031088971  0.055974173 
 0.030617355  0.036021858 
 0.029142323  0.021900971 
 0.028057989 -0.037624409 
 0.028414265 -0.054908802 
Loop time of 1.92016 on 4 procs for 10000 steps with 864 atoms

Performance: 449962.194 tau/day, 5207.896 timesteps/s
99.7% CPU use with 4 MPI tasks x no OpenMP threads

MPI task timing breakdown:
Section |  min time  |  avg time  |  max time  |%varavg| %total
---------------------------------------------------------------
Pair    | 1.3555     | 1.3642     | 1.3707     |   0.5 | 71.05
Neigh   | 0.20821    | 0.20915    | 0.21074    |   0.2 | 10.89
Comm    | 0.29666    | 0.30499    | 0.3152     |   1.3 | 15.88
Output  | 0.00088733 | 0.001084   | 0.0016387  |   1.0 |  0.06
Modify  | 0.024729   | 0.025352   | 0.026591   |   0.5 |  1.32
Other   |            | 0.01537    |            |       |  0.80

Nlocal:        216.000 ave         223 max         210 min
Histogram: 1 1 0 0 0 0 1 0 0 1
Nghost:        1389.00 ave        1395 max        1382 min
Histogram: 1 0 0 1 0 0 0 0 1 1
Neighs:        9193.75 ave        9513 max        8983 min
Histogram: 2 0 0 0 0 1 0 0 0 1

Total # of neighbors = 36775
Ave neighs/atom = 42.563657
Neighbor list builds = 500
Dangerous builds not checked

compute 3 all msd
compute 4 all vacf

thermo_style custom c_3[4] c_4[4]
thermo 100

run 10000
Per MPI rank memory allocation (min/avg/max) = 4.124 | 4.124 | 4.125 Mbytes
c_3[4] c_4[4] 
           0    2.1254402 
 0.016349596   -0.1267458 
 0.033526565  -0.87908743 
 0.034640211  -0.16180042 
 0.034165981 -0.011414069 
 0.035384501   0.16104107 
 0.036606599  0.033970266 
 0.037117503 -0.011814701 
 0.034137649 -0.018991654 
  0.03179997  0.025471468 
 0.030176441 -0.011144379 
 0.030071653 -0.095632038 
 0.029466598 -0.024513976 
   0.0298401 0.0072185453 
 0.028793451 -0.0037655086 
 0.027972259  0.010665762 
 0.029398047  0.037323783 
 0.029965546  0.013716533 
 0.030494657 -0.0052240638 
 0.030182171 -0.031363983 
 0.029101679  0.081395169 
 0.029286374  0.021845361 
 0.029291992 -0.0010556731 
 0.029174141  -0.01285877 
 0.029490711 -0.0080134419 
  0.02972211 -0.023791386 
   0.0296063 -0.014768114 
 0.029780919 -0.020492303 
 0.032105608  0.063642201 
 0.033113812 -0.029305862 
 0.032341393  0.016074323 
 0.031626031  0.018654412 
 0.031686167 -0.043133793 
 0.030461144 -0.010176131 
 0.029065976 0.0083024907 
 0.028948386  -0.02376315 
 0.028651601  0.047682617 
 0.029808515 0.0099018094 
 0.030151282 -0.016822423 
 0.031710898  0.037634966 
 0.033094169 -0.051009028 
 0.033105987 -0.010982745 
 0.032535303 -0.030958774 
 0.032256314 -0.004255659 
 0.031056986  0.089224849 
 0.030163832  0.036769779 
 0.030025027 -0.062976267 
 0.030465624  -0.01348024 
 0.031736414  0.039737985 
 0.032262407 -0.019171536 
  0.03166699 -0.026541122 
 0.030196621 -0.00067915856 
 0.030460559 -0.050071971 
 0.029376916   0.04585187 
 0.028535756  0.040762677 
  0.02959455  0.019886767 
  0.02971948 -0.039272248 
 0.030787004 -0.014184327 
 0.030725604 -0.050887866 
 0.030386227  0.035435025 
 0.030383624  0.036619636 
 0.029128937 -0.014232153 
 0.029624939  0.021980049 
  0.02931835 -0.017660714 
 0.029617274 -0.039762157 
 0.029905904  0.027737229 
 0.031024519 -0.019279943 
 0.031701749  0.016889187 
 0.030110804 -0.0028088898 
 0.030061789  0.018484385 
  0.03063214 -0.022685237 
  0.03065119  0.046013816 
 0.030841458  0.024693501 
  0.03141049 -0.045753747 
 0.030450954  0.007338285 
 0.030495801  0.015748891 
 0.030184214 -0.052446732 
   0.0289336 -0.023125775 
  0.02844482 -0.030858419 
 0.030188783  0.060230378 
 0.030213916  0.010119541 
 0.030023767 0.0034111063 
  0.03076045  0.014282643 
 0.032443967 -0.023241432 
 0.033422103  0.018637264 
 0.034391152 -0.048904043 
 0.032858978  0.018957608 
 0.030520415   0.04629803 
 0.028741833 -0.0097746203 
 0.029144043 -0.0066034486 
 0.030501405 -0.008584489 
 0.031992534  0.026021173 
 0.032410011 -0.035219392 
 0.032656781  -0.05373337 
 0.030464282 0.0045260253 
 0.029656073   0.06651698 
 0.030025517 0.0042771241 
  0.02895829 -0.056872332 
 0.028286234 0.0018500662 
 0.029513541 0.0030548977 
 0.031908556  0.019204981 
Loop time of 1.92444 on 4 procs for 10000 steps with 864 atoms

Performance: 448962.132 tau/day, 5196.321 timesteps/s
99.7% CPU use with 4 MPI tasks x no OpenMP threads

MPI task timing breakdown:
Section |  min time  |  avg time  |  max time  |%varavg| %total
---------------------------------------------------------------
Pair    | 1.3515     | 1.3647     | 1.376      |   0.7 | 70.91
Neigh   | 0.20836    | 0.20921    | 0.21091    |   0.2 | 10.87
Comm    | 0.29613    | 0.30871    | 0.32381    |   1.8 | 16.04
Output  | 0.00087189 | 0.0010755  | 0.0016346  |   1.0 |  0.06
Modify  | 0.024579   | 0.025364   | 0.026507   |   0.4 |  1.32
Other   |            | 0.01539    |            |       |  0.80

Nlocal:        216.000 ave         221 max         208 min
Histogram: 1 0 0 0 0 0 1 0 1 1
Nghost:        1389.00 ave        1397 max        1384 min
Histogram: 1 1 0 1 0 0 0 0 0 1
Neighs:        9210.00 ave        9485 max        8745 min
Histogram: 1 0 0 0 0 0 1 0 1 1

Total # of neighbors = 36840
Ave neighs/atom = 42.638889
Neighbor list builds = 500
Dangerous builds not checked

compute 5 all msd
compute 6 all vacf

thermo_style custom c_5[4] c_6[4]
thermo 100

run 10000
Per MPI rank memory allocation (min/avg/max) = 4.875 | 4.875 | 4.875 Mbytes
c_5[4] c_6[4] 
           0    2.1656378 
 0.015497749  -0.22878103 
 0.032892916  -0.82211159 
 0.034644613 -0.062544266 
  0.03236464 -0.041937782 
  0.03171874   0.17804846 
 0.033268889  0.046608314 
 0.035152105  -0.19588404 
 0.035573929 -0.027658126 
 0.035724721 -0.0057071221 
 0.036360098 -0.053512526 
 0.036789817  0.018918088 
 0.036807318   0.01991373 
 0.036670802 -0.037192276 
 0.035160484 -0.0079259896 
 0.033129142  0.063379613 
   0.0322649 -0.011317567 
 0.031534429  0.089280858 
 0.031248271 0.0017298688 
 0.031315108 -0.0035692719 
 0.030408164 -0.0037529106 
 0.030547429 -0.054375176 
 0.031881765  0.063276676 
 0.032681795 -0.043845356 
 0.032233353  0.040954668 
 0.031528202 -0.024840614 
 0.030016531 0.0017461096 
 0.029806137  0.028621095 
 0.030406869  -0.07005411 
 0.031525734  -0.11126883 
 0.031701432 -0.0094584681 
 0.031006266   0.14889338 
 0.033106321 -0.026607244 
 0.032914597 -0.016567183 
 0.032432155 -0.0073773569 
 0.032062712   -0.0109743 
 0.032078802  0.014306595 
 0.032921877  0.043094779 
 0.032762943  0.025425681 
 0.031513622 -0.010634917 
 0.030530179 -0.045633257 
 0.029973102  0.047243435 
 0.028920191  0.027644261 
 0.028886896 -0.049730473 
 0.030156736 -0.051574136 
 0.030492195   0.03758487 
 0.030157778 0.0031562411 
 0.030133183 -0.012550455 
 0.030209873  0.083714971 
  0.03096883 -0.047916839 
 0.032957268 -0.057078226 
 0.033359971 -0.0084012877 
 0.034481575  0.013823095 
 0.034208986  0.022228885 
 0.034322052 -0.011512852 
 0.034411622 -0.042179005 
 0.034953947 0.0097183358 
 0.034627694  0.050329969 
 0.033127244   0.05077386 
 0.033564254 -0.029545654 
 0.032060128 -0.028508633 
 0.030483051   0.01918475 
 0.028409022  0.012466521 
 0.027021509 -0.035549056 
 0.029226786  0.021949276 
 0.030885646 -0.0021392633 
 0.031051191 -0.044120633 
 0.030945982 -0.024154614 
 0.031302441  0.078949614 
 0.033533323 -0.066268344 
 0.034381237 -0.072220723 
 0.035555804  0.052317847 
 0.036264447  0.076726706 
 0.036094376  -0.02910616 
 0.033770826  0.017294765 
 0.032126255 -0.0076429978 
 0.032195853 -0.050554394 
  0.03254671  0.013005764 
 0.033315762   0.05621919 
 0.032978119  0.037516374 
 0.031882176 -0.058493269 
 0.031789721 -0.037338767 
 0.030831683  0.038697645 
 0.030390645  0.073442182 
 0.032494636 -0.0030561795 
 0.034074565 -0.063982401 
 0.032027933  0.014939459 
 0.031051591 -0.056735621 
 0.032193091  0.028447777 
 0.033437479  0.034394894 
 0.035639829 -0.083001513 
 0.037178836 -0.028461145 
 0.037013331 0.0024486638 
  0.03646937  0.032169871 
 0.035572617  0.041834509 
  0.03414398  0.035358735 
 0.033118297 -0.022212558 
 0.033280855 -0.049989019 
 0.033843537  0.007996937 
 0.033391454  0.054824842 
 0.032883528  0.039727452 
Loop time of 1.93482 on 4 procs for 10000 steps with 864 atoms

Performance: 446553.779 tau/day, 5168.447 timesteps/s
99.7% CPU use with 4 MPI tasks x no OpenMP threads

MPI task timing breakdown:
Section |  min time  |  avg time  |  max time  |%varavg| %total
---------------------------------------------------------------
Pair    | 1.3536     | 1.364      | 1.369      |   0.5 | 70.50
Neigh   | 0.20813    | 0.209      | 0.2101     |   0.2 | 10.80
Comm    | 0.31351    | 0.31994    | 0.33199    |   1.3 | 16.54
Output  | 0.00088689 | 0.0010802  | 0.001642   |   1.0 |  0.06
Modify  | 0.024796   | 0.025385   | 0.026605   |   0.5 |  1.31
Other   |            | 0.0154     |            |       |  0.80

Nlocal:        216.000 ave         219 max         211 min
Histogram: 1 0 0 0 0 0 1 0 1 1
Nghost:        1389.00 ave        1394 max        1386 min
Histogram: 1 1 0 1 0 0 0 0 0 1
Neighs:        9224.50 ave        9328 max        9014 min
Histogram: 1 0 0 0 0 0 1 0 0 2

Total # of neighbors = 36898
Ave neighs/atom = 42.706019
Neighbor list builds = 500
Dangerous builds not checked

compute 7 all msd
compute 8 all vacf

thermo_style custom c_7[4] c_8[4]
thermo 100

run 10000
Per MPI rank memory allocation (min/avg/max) = 5.625 | 5.625 | 5.625 Mbytes
c_7[4] c_8[4] 
           0    2.0880261 
 0.015763677  -0.20658751 
 0.033134768  -0.81182194 
 0.035607354  -0.07395383 
  0.03463447 -0.022373012 
 0.033747337   0.18713919 
 0.034651458 -0.020779466 
 0.036598882  -0.11088672 
 0.036782881 0.00077265405 
 0.035625055 -0.0030438942 
  0.03539066  -0.02936123 
 0.035043848 -0.039624329 
  0.03429782 -0.051740232 
  0.03425126  0.057241599 
   0.0324091  0.024683956 
 0.031774409  0.042039323 
 0.031462838  0.035785225 
 0.031501823 -0.057350692 
 0.031264763  0.065483079 
 0.031150103  0.011340684 
  0.02981234 -0.038695309 
 0.029948233 0.0034722158 
 0.030133278 0.0081898634 
 0.031639879  0.043581115 
 0.032213891  0.066220159 
  0.03214041 -0.061686088 
 0.031305573 -0.062946808 
 0.031515516 -0.013089023 
 0.033016501   0.04770739 
 0.033967688 -0.012505658 
 0.034813805 -0.024097008 
  0.03518644 -0.030830965 
  0.03428419 -0.024325662 
 0.031696477  0.027548897 
 0.030153946   0.07894367 
    0.031867 -0.0058797482 
  0.03290687 -0.031283023 
 0.030952185 -0.0049760006 
 0.032517393  -0.03409556 
 0.033341589  0.033271753 
  0.03254995  0.015300633 
 0.031806526 -0.021613728 
 0.031666186 0.0025168452 
 0.031524249  0.060343377 
 0.031011465 0.0089131737 
 0.031675827 -0.035181553 
 0.032366417 -0.056452271 
 0.033365393  0.047696514 
 0.033815783  0.032048432 
  0.03305672  -0.02989225 
 0.032335825 -0.040757017 
 0.033594751 -0.060499501 
 0.034079192  0.035658796 
 0.033028484  0.019637018 
  0.03131238  0.039988705 
 0.032176567  0.023432344 
 0.033105449 -0.034504178 
 0.031385054  0.052411697 
 0.030537758 -0.0093761325 
 0.030275342 -0.034230433 
 0.031001581 -0.0081775569 
 0.030817845 -0.002995601 
 0.030450771  0.009847173 
 0.030032691  0.014111853 
 0.031851064  0.026331696 
 0.034015575 0.00065856132 
 0.034400752  0.016225438 
  0.03413686 0.0031045866 
 0.035076063  -0.04745182 
 0.036301925 0.0025900837 
 0.036749306 -0.058410521 
  0.03617662  -0.04372579 
 0.034604063 0.0068446132 
 0.033684817  0.013587495 
 0.031591095  0.017369265 
 0.030841361  0.030018296 
 0.030658551  0.020882372 
 0.030378929  0.057627421 
 0.029791806 0.0034776759 
 0.030201214 -0.046721731 
 0.030679015 -0.030343832 
 0.030665682  -0.04048661 
 0.031436665  0.082782101 
 0.031442095 -0.00014110158 
    0.029164 -0.076903978 
 0.028867007 -0.0061079168 
 0.029678455   0.04462318 
 0.031789268  0.039140286 
 0.032373152 -0.0022040966 
 0.032169861 -0.0086485115 
 0.034399611  -0.10146636 
 0.035522531 -0.012891708 
 0.034959433  0.071994759 
 0.034860942 -0.027128836 
 0.034423687 -0.049350802 
 0.032857432 -0.010100262 
 0.032058391  0.026185775 
 0.031406015  0.054654597 
 0.030364254   0.02649794 
 0.028545691  0.041860464 
 0.028395671 -0.0088481683 
Loop time of 1.92508 on 4 procs for 10000 steps with 864 atoms

Performance: 448813.286 tau/day, 5194.598 timesteps/s
99.7% CPU use with 4 MPI tasks x no OpenMP threads

MPI task timing breakdown:
Section |  min time  |  avg time  |  max time  |%varavg| %total
---------------------------------------------------------------
Pair    | 1.3595     | 1.364      | 1.3762     |   0.6 | 70.86
Neigh   | 0.20786    | 0.20907    | 0.20988    |   0.2 | 10.86
Comm    | 0.29725    | 0.31017    | 0.31462    |   1.3 | 16.11
Output  | 0.00088156 | 0.00108    | 0.001645   |   1.0 |  0.06
Modify  | 0.024726   | 0.025309   | 0.026411   |   0.4 |  1.31
Other   |            | 0.01542    |            |       |  0.80

Nlocal:        216.000 ave         227 max         197 min
Histogram: 1 0 0 0 0 1 0 0 0 2
Nghost:        1389.00 ave        1408 max        1378 min
Histogram: 2 0 0 0 1 0 0 0 0 1
Neighs:        9180.50 ave        9723 max        8378 min
Histogram: 1 0 0 0 1 0 0 0 0 2

Total # of neighbors = 36722
Ave neighs/atom = 42.502315
Neighbor list builds = 500
Dangerous builds not checked

compute 9 all msd
compute 10 all vacf

thermo_style custom c_9[4] c_10[4]
thermo 100

run 10000
Per MPI rank memory allocation (min/avg/max) = 6.375 | 6.375 | 6.375 Mbytes
c_9[4] c_10[4] 
           0     2.052283 
 0.016223473  -0.16184035 
 0.032472108  -0.87876471 
  0.03398631  -0.10640078 
  0.03245077   0.05941782 
 0.031371381   0.13475701 
 0.031150407  0.020816671 
 0.031823324 -0.073571269 
 0.030164239 -0.042933964 
 0.030503481 -0.0080815251 
 0.031230331 0.0099297735 
  0.03114232 -0.011350116 
  0.03123069   0.04637196 
   0.0293857 -0.0024304194 
 0.028303894 -0.034354179 
 0.029781139  0.010069001 
 0.030316868  0.012632387 
 0.028547661 0.00015530805 
 0.027426544  0.021600811 
  0.02824162 0.0033243983 
 0.029865031   0.05663598 
 0.030053046 -0.046355991 
 0.029080978 0.0076461689 
  0.02934343  0.020904451 
 0.029983978  0.014550036 
 0.032209968 -0.039499178 
 0.033052498  0.046395871 
 0.033407221 -0.052833697 
 0.033676145 -0.014507105 
 0.033915935 -0.058222299 
 0.032660361 -0.055954108 
   0.0314331 -0.030646432 
 0.030131921  0.052128334 
 0.028854537  0.031439343 
 0.027452549  0.058449504 
 0.028342183 0.0090398398 
 0.030044471  -0.02002715 
 0.031045715 0.00066384288 
 0.032576384  0.013107402 
 0.031927545 -0.031764433 
 0.031543162  0.053571606 
 0.030312866 -0.0098526923 
  0.02988647 -0.064121008 
  0.03049452 -0.030542878 
 0.030308643  0.015690123 
 0.030091275 -0.014266235 
 0.030082218  0.015422254 
 0.031173862  0.048433561 
 0.031356866 -0.026353518 
 0.031193526 -0.010819166 
 0.030765726  0.048866208 
 0.029698852 -0.019867282 
 0.029110782  0.013887957 
 0.030209808 -0.0057831755 
 0.030743867  0.035837714 
 0.031012914 0.0044523554 
 0.030555846  0.010478161 
 0.030647697 -0.022466345 
 0.031249378  -0.11555996 
 0.031262071  0.035449619 
 0.031005453   0.13198373 
 0.030862579 -0.048084456 
 0.030890714 -0.037380258 
  0.03056579 0.0044766897 
 0.030002882 -0.014357257 
  0.02951258  -0.02217019 
 0.029840645 -0.025270791 
 0.030402159   0.06226152 
 0.030761878  0.035149701 
  0.02950903 -0.032514077 
 0.029617535 -0.026362756 
 0.030587437  0.032620354 
  0.03156423 -0.024539432 
 0.031288258 -0.0038857341 
 0.030948001 -0.033343016 
 0.032001287  0.094586679 
  0.03108086  0.029437603 
 0.031149627 -0.056341092 
 0.032369873 -0.083878645 
 0.032905455 -0.050237087 
 0.031439584   0.10714746 
 0.030381499  0.056395702 
 0.031343005 -0.030070566 
 0.032535259 -0.0021085621 
 0.032257839  0.029100639 
 0.030638784 -0.034214416 
   0.0298114 -0.013896008 
 0.031541478 -0.010209379 
 0.033279352  0.026630686 
 0.033057639 -0.022271059 
  0.03268001 -0.055017895 
 0.032787916  0.047428817 
 0.032364398  0.020635081 
 0.032698582  0.025521516 
  0.03182574 -0.016811765 
 0.030898604 -0.085866855 
 0.030213759  0.032839532 
 0.030371106  0.029811235 
 0.031082108  0.029009624 
 0.029309318  0.010713973 
  0.02891778 -0.022774101 
Loop time of 1.91654 on 4 procs for 10000 steps with 864 atoms

Performance: 450812.575 tau/day, 5217.738 timesteps/s
99.7% CPU use with 4 MPI tasks x no OpenMP threads

MPI task timing breakdown:
Section |  min time  |  avg time  |  max time  |%varavg| %total
---------------------------------------------------------------
Pair    | 1.3595     | 1.3646     | 1.3712     |   0.4 | 71.20
Neigh   | 0.20823    | 0.20936    | 0.21068    |   0.2 | 10.92
Comm    | 0.2924     | 0.30077    | 0.30674    |   1.0 | 15.69
Output  | 0.00088342 | 0.0010682  | 0.0016032  |   0.9 |  0.06
Modify  | 0.024772   | 0.025308   | 0.026522   |   0.4 |  1.32
Other   |            | 0.01543    |            |       |  0.81

Nlocal:        216.000 ave         223 max         212 min
Histogram: 2 0 0 1 0 0 0 0 0 1
Nghost:        1389.00 ave        1393 max        1382 min
Histogram: 1 0 0 0 0 0 1 0 0 2
Neighs:        9190.50 ave        9398 max        8886 min
Histogram: 1 0 0 0 0 0 1 1 0 1

Total # of neighbors = 36762
Ave neighs/atom = 42.548611
Neighbor list builds = 500
Dangerous builds not checked

Total wall time: 0:00:17
