LAMMPS (29 Sep 2021 - Update 2)
#RDF

units		lj
boundary	p p p
atom_style	atomic

lattice		fcc ${rho}
lattice		fcc 1.5
Lattice spacing in x,y,z = 1.3867225 1.3867225 1.3867225
region		box block 0 6 0 6 0 6
create_box	1 box
Created orthogonal box = (0.0000000 0.0000000 0.0000000) to (8.3203353 8.3203353 8.3203353)
  1 by 2 by 2 MPI processor grid
create_atoms	1 box
Created 864 atoms
  using lattice units in orthogonal box = (0.0000000 0.0000000 0.0000000) to (8.3203353 8.3203353 8.3203353)
  create_atoms CPU = 0.002 seconds
mass		1 1.0

velocity	all create $T 87287 loop geom mom yes rot yes
velocity	all create 0.3 87287 loop geom mom yes rot yes
reset_timestep	0
timestep	0.001
pair_style	lj/cut 2.5
pair_coeff	1 1 1.0 1.0 2.5

neighbor	0.3 bin
neigh_modify	every 20 delay 0 check no
thermo		100

#Equilibration

fix		thermos all nvt temp $T $T 1.0
fix		thermos all nvt temp 0.3 $T 1.0
fix		thermos all nvt temp 0.3 0.3 1.0
run		20000
Neighbor list info ...
  update every 20 steps, delay 0 steps, check no
  max neighbors/atom: 2000, page size: 100000
  master list distance cutoff = 2.8
  ghost atom cutoff = 2.8
  binsize = 1.4, bins = 6 6 6
  1 neighbor lists, perpetual/occasional/extra = 1 0 0
  (1) pair lj/cut, perpetual
      attributes: half, newton on
      pair build: half/bin/atomonly/newton
      stencil: half/bin/3d
      bin: standard
Per MPI rank memory allocation (min/avg/max) = 2.670 | 2.670 | 2.670 Mbytes
Step Temp E_pair E_mol TotEng Press 
       0          0.3  -0.91733251            0  -0.46785335    89.819609 
     100   0.17982455  -0.73613812            0  -0.46671349    90.862524 
     200    0.1683828  -0.71569929            0  -0.46341742    90.983421 
     300   0.16354049    -0.703557            0  -0.45853019    91.060218 
     400   0.14324029  -0.66808286            0  -0.45347111    91.268147 
     500   0.13695858  -0.65414919            0   -0.4489491    91.354938 
     600   0.15713721  -0.67995625            0  -0.44452324     91.21318 
     700    0.1553411  -0.67231849            0  -0.43957652    91.257373 
     800   0.17463482  -0.69571966            0  -0.43407062    91.129149 
     900   0.16327287  -0.67270307            0  -0.42807723    91.267067 
    1000   0.17166643  -0.67900684            0  -0.42180523    91.236876 
    1100   0.16760251  -0.66644673            0  -0.41533394    91.312703 
    1200   0.16803333  -0.66046353            0  -0.40870526    91.356058 
    1300   0.17555217   -0.6648827            0  -0.40185923    91.339161 
    1400   0.16126881  -0.63631935            0  -0.39469612    91.508985 
    1500   0.18254429  -0.66088422            0   -0.3873847    91.378155 
    1600   0.19150626  -0.66689438            0  -0.37996747    91.350118 
    1700    0.1720265  -0.63026647            0  -0.37252538    91.570286 
    1800   0.20652038  -0.67418546            0  -0.36476343    91.322022 
    1900   0.19611033  -0.65062842            0  -0.35680339    91.467665 
    2000   0.19629264   -0.6429281            0  -0.34882993    91.521145 
    2100   0.19870481  -0.63838339            0  -0.34067115    91.556021 
    2200   0.20869179  -0.64502936            0  -0.33235399    91.523905 
    2300   0.20335325  -0.62865835            0  -0.32398152    91.625253 
    2400   0.20232291  -0.61863708            0  -0.31550397     91.69149 
    2500    0.1850479  -0.58413315            0  -0.30688256    91.896683 
    2600   0.19806163  -0.59483336            0  -0.29808477    91.846151 
    2700   0.20471278  -0.59593111            0  -0.28921735    91.848871 
    2800   0.21775688  -0.60656228            0  -0.28030502    91.801137 
    2900   0.21520919  -0.59370884            0  -0.27126868    91.881156 
    3000   0.22468368  -0.59879997            0  -0.26216453    91.859666 
    3100   0.20972552  -0.56735689            0  -0.25313272    92.050675 
    3200   0.23653129  -0.59829258            0  -0.24390629    91.882981 
    3300   0.23174978  -0.58195584            0  -0.23473352    91.986135 
    3400   0.23740753  -0.58113722            0  -0.22543809    91.997255 
    3500   0.23044048   -0.5613012            0  -0.21604055    92.125688 
    3600   0.24274543  -0.57044103            0  -0.20674433    92.079064 
    3700   0.23282742  -0.54624403            0  -0.19740711    92.225366 
    3800   0.25783885  -0.57418188            0  -0.18787125    92.078953 
    3900   0.23607753  -0.53240771            0  -0.17870128    92.325102 
    4000   0.24307444  -0.53356723            0  -0.16937758    92.325809 
    4100   0.25844413  -0.54723487            0  -0.16001736    92.257465 
    4200   0.22929643  -0.49434521            0  -0.15079865    92.571834 
    4300   0.26067506  -0.53210252            0  -0.14154249    92.361745 
    4400   0.26699509  -0.53231798            0  -0.13228887    92.373422 
    4500   0.26245449  -0.51652219            0   -0.1232961    92.470081 
    4600   0.27473665  -0.52584394            0  -0.11421594      92.4282 
    4700    0.2879526  -0.53679594            0  -0.10536695    92.375648 
    4800   0.26383563  -0.49182809            0 -0.096532699    92.640853 
    4900   0.28711397   -0.5181246            0 -0.087952109    92.499725 
    5000   0.27410901  -0.49013529            0 -0.079447661    92.669378 
    5100   0.27841978  -0.48815566            0 -0.071009353    92.690544 
    5200   0.28960552  -0.49688392            0 -0.062978435    92.643589 
    5300   0.28318564  -0.47927429            0 -0.054987479     92.75517 
    5400   0.30472254  -0.50370281            0 -0.047148029    92.621164 
    5500   0.29883972  -0.48748113            0 -0.039740363    92.723897 
    5600    0.3032203  -0.48667043            0 -0.032366402    92.733199 
    5700   0.29136538  -0.46192516            0 -0.025382925    92.884469 
    5800   0.29458095  -0.46008096            0 -0.018720956    92.902138 
    5900   0.30344831  -0.46682728            0 -0.012181625    92.867373 
    6000   0.29991082  -0.45546093            0 -0.0061153806    92.941874 
    6100   0.29960842   -0.4492916            0 -0.00039911724    92.978179 
    6200   0.30812676  -0.45658213            0 0.0050730693    92.941991 
    6300   0.31169534  -0.45702403            0 0.0099778435    92.944406 
    6400   0.30822937  -0.44721927            0   0.01458966    93.007255 
    6500   0.31685672   -0.4560188            0  0.018716177    92.957432 
    6600   0.29994158  -0.42698571            0  0.022405924     93.13165 
    6700   0.32357958  -0.45918092            0  0.025626683     92.95117 
    6800   0.31505192  -0.44372059            0  0.028310323    93.040486 
    6900   0.31994208  -0.44886869            0  0.030488986    93.013786 
    7000   0.31346436  -0.43752849            0  0.032123846    93.080171 
    7100   0.32667511   -0.4562999            0  0.033145611    92.972305 
    7200   0.31627287  -0.44019877            0  0.033661446    93.065362 
    7300   0.31799023  -0.44288288            0  0.033550392    93.050941 
    7400   0.31314308  -0.43628147            0  0.032889498    93.087507 
    7500   0.31806289  -0.44488345            0  0.031658697    93.036953 
    7600   0.31520947  -0.44243891            0  0.029828064    93.047591 
    7700   0.32740676  -0.46302135            0  0.027520372    92.929251 
    7800   0.30966802  -0.43931662            0  0.024647798    93.061302 
    7900   0.32373093  -0.46368106            0  0.021353301    92.917428 
    8000   0.31713582  -0.45746465            0    0.0176885     92.95151 
    8100   0.30315518  -0.44062073            0  0.013585736    93.042536 
    8200   0.30933157  -0.45415291            0 0.0093074165    92.964472 
    8300    0.3041624  -0.45089749            0 0.0048180499    92.977219 
    8400   0.29894386  -0.44776508            0 0.00013170804    92.987796 
    8500   0.31429435  -0.47548528            0 -0.0045894085    92.829424 
    8600   0.30087217  -0.46020153            0 -0.0094156275    92.910524 
    8700   0.31783366  -0.49037923            0 -0.014180543    92.731844 
    8800   0.29655824  -0.46315345            0 -0.018830951    92.885879 
    8900   0.30640349  -0.48255295            0  -0.02347967     92.76883 
    9000   0.30063738  -0.47828469            0 -0.027850564    92.787759 
    9100   0.29027473  -0.46695839            0 -0.032050236    92.848871 
    9200   0.28911231  -0.46930199            0 -0.036135462    92.831705 
    9300   0.30033228  -0.48982731            0 -0.039850304    92.711819 
    9400   0.28320317  -0.46770621            0 -0.043393123    92.832259 
    9500   0.29293816  -0.48554139            0 -0.046642715    92.729084 
    9600   0.28773197  -0.48067271            0 -0.049574292    92.754827 
    9700   0.28443151  -0.47840326            0 -0.052249802    92.761672 
    9800   0.28154074  -0.47635872            0 -0.054536404       92.773 
    9900   0.28788233  -0.48784423            0 -0.056520525      92.7047 
   10000   0.27885212  -0.47595835            0 -0.058164289    92.770091 
   10100   0.29594826  -0.50284037            0 -0.059431781    92.613168 
   10200   0.28652167  -0.48964073            0 -0.060355656     92.68837 
   10300   0.29237769  -0.49896481            0 -0.060905871    92.634955 
   10400   0.28451979  -0.48730987            0 -0.061024144    92.702337 
   10500   0.29334847  -0.50032785            0 -0.060814433    92.626801 
   10600   0.28832042   -0.4921719            0 -0.060191829    92.676498 
   10700   0.29567398  -0.50219126            0 -0.059193613    92.618877 
   10800   0.28137093  -0.47939899            0 -0.057831095    92.751489 
   10900   0.29248597  -0.49433752            0 -0.056116347    92.666177 
   11000   0.28497518  -0.48101464            0 -0.054046624    92.745308 
   11100   0.28950942  -0.48543981            0 -0.051678298    92.721602 
   11200    0.2937664  -0.48914725            0 -0.049007659    92.702717 
   11300   0.29196809  -0.48350632            0 -0.046061078    92.738989 
   11400   0.29386002   -0.4831859            0 -0.042906035    92.742544 
   11500   0.28754575  -0.47036802            0 -0.039548616    92.821088 
   11600   0.29022904  -0.47091008            0 -0.036070389    92.820176 
   11700   0.29776084  -0.47857278            0 -0.032448459    92.780597 
   11800   0.29248169  -0.46699566            0 -0.028780899    92.849982 
   11900   0.29336736   -0.4646395            0  -0.02509778    92.866758 
   12000   0.29587534  -0.46468505            0 -0.021385706     92.87003 
   12100   0.30006347  -0.46730248            0 -0.017728219    92.860258 
   12200   0.31027635  -0.47903972            0 -0.014163861    92.795246 
   12300   0.31224705   -0.4785147            0 -0.010686232    92.801493 
   12400   0.30624495  -0.46622177            0 -0.007386025    92.874879 
   12500   0.31483423  -0.47591158            0 -0.0042068269    92.824575 
   12600   0.30042079  -0.45135108            0 -0.0012414583    92.968408 
   12700   0.29794487  -0.44491316            0  0.001486876    93.004071 
   12800   0.31490263   -0.4677975            0 0.0040097499    92.877673 
   12900   0.31917642  -0.47198662            0 0.0062238754    92.856759 
   13000   0.30118446  -0.44307945            0 0.0081743445    93.023736 
   13100   0.32331654  -0.47457015            0 0.0098433455     92.84773 
   13200   0.31667039  -0.46332098            0  0.011134833    92.913666 
   13300   0.30479112  -0.44451379            0   0.01214374    93.018806 
   13400     0.312744  -0.45579788            0  0.012775161     92.95671 
   13500   0.31494837  -0.45882219            0  0.013053587    92.940389 
   13600   0.31430264   -0.4579133            0  0.012995001     92.94446 
   13700   0.31468607  -0.45893372            0  0.012549047    92.936522 
   13800   0.30946037  -0.45187484            0  0.011778459    92.978396 
   13900   0.31044531  -0.45448128            0  0.010647719    92.962121 
   14000   0.30580431  -0.44902705            0 0.0091484988    92.990609 
   14100   0.31034483  -0.45757882            0  0.007399634     92.94178 
   14200   0.30819873  -0.45642127            0 0.0053417635    92.945538 
   14300   0.31057717  -0.46234552            0 0.0029810355    92.907001 
   14400   0.32358699  -0.48441058            0 0.00040811908    92.778971 
   14500   0.29786923  -0.44865891            0 -0.0023721975    92.981121 
   14600   0.30582616  -0.46352292            0 -0.005314622    92.893517 
   14700   0.30940376  -0.47194602            0 -0.0083775438     92.84263 
   14800   0.30399697  -0.46698606            0 -0.011518367    92.866698 
   14900   0.30040475  -0.46479758            0 -0.014711987    92.877504 
   15000   0.30503156    -0.474976            0  -0.01795824    92.816353 
   15100   0.29158387   -0.4579921            0 -0.021122518    92.911295 
   15200   0.30300211  -0.47824442            0 -0.024267304    92.791108 
   15300   0.31050958  -0.49256758            0 -0.027342287    92.707095 
   15400   0.28970315  -0.46432846            0 -0.030276688    92.868212 
   15500   0.29156493  -0.46993389            0 -0.033092688    92.831098 
   15600    0.2938662  -0.47606335            0 -0.035774234    92.792481 
   15700   0.28921058  -0.47156914            0 -0.038255371    92.819168 
   15800   0.29526777  -0.48296276            0 -0.040573716    92.750225 
   15900   0.28915834  -0.47590325            0  -0.04266775    92.787844 
   16000   0.28622622  -0.47336874            0 -0.044526328     92.80299 
   16100   0.29712779  -0.49135099            0 -0.046175146    92.697103 
   16200   0.28922228  -0.48089565            0 -0.047564349    92.753785 
   16300   0.28897847  -0.48167324            0 -0.048707237    92.747691 
   16400   0.29096295  -0.48551531            0  -0.04957603    92.728043 
   16500   0.29321771  -0.48948935            0 -0.050171846    92.703485 
   16600   0.29079826  -0.48619053            0 -0.050498005     92.71959 
   16700   0.29022101   -0.4853567            0 -0.050529043     92.72868 
   16800   0.28455367   -0.4766247            0 -0.050288218    92.776643 
   16900   0.28259975  -0.47318367            0 -0.049774666    92.795039 
   17000   0.29465844  -0.49043797            0 -0.048961864    92.699459 
   17100    0.2888703  -0.48067979            0 -0.047875852    92.757526 
   17200   0.29053704  -0.48185037            0 -0.046549214    92.749664 
   17300   0.29847171  -0.49211192            0 -0.044922529    92.694612 
   17400   0.28291963  -0.46699722            0 -0.043108954    92.841618 
   17500   0.29251761  -0.47932823            0 -0.041059662    92.771321 
   17600   0.30114378  -0.49000527            0 -0.038812414    92.711457 
   17700   0.29904215  -0.48443928            0 -0.036395223    92.745499 
   17800    0.2929673  -0.47276288            0 -0.033820547    92.815302 
   17900    0.2927377  -0.46974177            0 -0.031143448     92.83438 
   18000   0.30955363   -0.4921707            0 -0.028377677    92.708469 
   18100   0.29018034  -0.46033224            0 -0.025565525    92.895267 
   18200   0.29785077   -0.4689937            0 -0.022734657    92.849014 
   18300   0.29320061  -0.45921059            0 -0.019918711    92.907254 
   18400   0.29528827  -0.45954454            0 -0.017124784    92.906948 
   18500   0.29151438  -0.45117397            0 -0.014408494    92.957739 
   18600   0.30480376  -0.46845396            0  -0.01177749    92.860679 
   18700   0.29375175  -0.44935609            0 -0.009238454    92.971681 
   18800     0.304003  -0.46235415            0 -0.006877436    92.899807 
   18900   0.30700252  -0.46460168            0 -0.0046308943    92.890656 
   19000   0.31075411  -0.46815718            0 -0.0025655149     92.87328 
   19100   0.30383058  -0.45591435            0 -0.00069595856    92.944402 
   19200   0.30731985   -0.4594647            0 0.00098153257     92.92541 
   19300   0.30864535  -0.46001857            0 0.0024136158    92.925085 
   19400   0.30599223  -0.45484248            0 0.0036146274    92.953928 
   19500   0.31443539  -0.46653139            0 0.0045757996    92.887073 
   19600   0.31187217  -0.46202926            0 0.0052375486    92.913079 
   19700   0.31696855  -0.46922085            0 0.0056816874    92.872877 
   19800    0.3047776  -0.45081793            0 0.0058193433    92.979796 
   19900   0.30077125  -0.44494387            0 0.0056908423    93.014357 
   20000   0.31124294  -0.46105309            0 0.0052709673    92.921846 
Loop time of 6.28749 on 4 procs for 20000 steps with 864 atoms

Performance: 274831.456 tau/day, 3180.920 timesteps/s
99.7% CPU use with 4 MPI tasks x no OpenMP threads

MPI task timing breakdown:
Section |  min time  |  avg time  |  max time  |%varavg| %total
---------------------------------------------------------------
Pair    | 4.0415     | 4.4186     | 4.7937     |  13.7 | 70.28
Neigh   | 0.57553    | 0.59084    | 0.60473    |   1.5 |  9.40
Comm    | 0.72453    | 1.1103     | 1.4992     |  28.1 | 17.66
Output  | 0.0020886  | 0.0024323  | 0.0034209  |   1.2 |  0.04
Modify  | 0.11464    | 0.11778    | 0.1206     |   0.7 |  1.87
Other   |            | 0.04748    |            |       |  0.76

Nlocal:        216.000 ave         226 max         209 min
Histogram: 1 1 0 0 0 1 0 0 0 1
Nghost:        2105.00 ave        2119 max        2085 min
Histogram: 1 0 0 0 0 1 0 0 1 1
Neighs:        15048.0 ave       16796 max       13829 min
Histogram: 1 1 0 0 1 0 0 0 0 1

Total # of neighbors = 60192
Ave neighs/atom = 69.666667
Neighbor list builds = 1000
Dangerous builds not checked
unfix 	thermos

fix 	1 all nve

run 	20000
Per MPI rank memory allocation (min/avg/max) = 2.670 | 2.670 | 2.670 Mbytes
Step Temp E_pair E_mol TotEng Press 
   20000   0.31124294  -0.46105309            0 0.0052709673    92.921846 
   20100   0.30686791  -0.45449773            0 0.0052713761    92.959773 
   20200   0.31846587  -0.47188351            0 0.0052624031    92.858558 
   20300   0.31615523  -0.46841899            0 0.0052649676    92.877694 
   20400   0.31222265  -0.46254577            0 0.0052461469    92.910018 
   20500   0.30934718   -0.4582145            0 0.0052692191    92.935707 
   20600   0.31115858   -0.4609335            0  0.005264161    92.920443 
   20700   0.30703941   -0.4547562            0 0.0052698693    92.954555 
   20800   0.31110565  -0.46084877            0 0.0052695877    92.922335 
   20900   0.29624898  -0.43859939            0 0.0052597616    93.047879 
   21000   0.31044959  -0.45986706            0 0.0052683506    92.926821 
   21100   0.30625084  -0.45357047            0 0.0052740979    92.962407 
   21200   0.30079112  -0.44539597            0 0.0052685036    93.009023 
   21300   0.32470839  -0.48124685            0 0.0052520077    92.801754 
   21400   0.31591895  -0.46806842            0  0.005261538    92.879348 
   21500   0.31893343  -0.47258525            0 0.0052611924    92.853693 
   21600   0.31639602  -0.46877676            0 0.0052679648    92.876366 
   21700   0.30776879  -0.45584902            0  0.005269849    92.949523 
   21800   0.30911553  -0.45790431            0 0.0052323249    92.936793 
   21900   0.31086015  -0.46048259            0 0.0052679438    92.922642 
   22000   0.32008796  -0.47431583            0 0.0052603914    92.843741 
   22100   0.30573663  -0.45280308            0 0.0052710743    92.967437 
   22200   0.31708847   -0.4698206            0 0.0052616032    92.870659 
   22300   0.31237393  -0.46275106            0 0.0052675274    92.910672 
   22400   0.31686037  -0.46948003            0 0.0052604175    92.872123 
   22500   0.30341242  -0.44932163            0 0.0052702442    92.988686 
   22600     0.317569  -0.47054142            0 0.0052607412    92.864973 
   22700   0.30564023  -0.45265888            0 0.0052708325    92.966821 
   22800   0.30194047  -0.44711266            0 0.0052738473    92.998839 
   22900   0.30093097  -0.44559764            0 0.0052763652    93.008801 
   23000   0.31398853   -0.4651713            0 0.0052663705    92.896729 
   23100   0.31191414  -0.46206131            0 0.0052683886    92.914562 
   23200   0.29659855  -0.43910363            0 0.0052792586    93.045352 
   23300   0.32198275  -0.47715665            0 0.0052584754    92.826582 
   23400   0.30468389  -0.45122317            0 0.0052736996    92.975072 
   23500   0.30978832  -0.45887712            0 0.0052675365     92.93232 
   23600   0.31407268  -0.46530354            0 0.0052602127    92.895128 
   23700   0.32063951  -0.47514103            0 0.0052615641    92.838531 
   23800   0.31589294  -0.46803101            0 0.0052599813     92.87964 
   23900   0.30810889  -0.45635911            0  0.005269309    92.946601 
   24000   0.31613386   -0.4683891            0 0.0052628467    92.878295 
   24100   0.31428696  -0.46562368            0 0.0052611143     92.89128 
   24200   0.31076264  -0.46035904            0 0.0052453964     92.92018 
   24300   0.29947636  -0.44342049            0 0.0052741293    93.017882 
   24400   0.31025747  -0.45958236            0    0.0052652    92.924877 
   24500   0.30763467  -0.45564525            0  0.005272665     92.94851 
   24600   0.31297312  -0.46364318            0 0.0052731504    92.906941 
   24700   0.29971723   -0.4437777            0  0.005277798    93.018917 
   24800    0.3100859  -0.45931786            0 0.0052726443    92.928858 
   24900   0.30249125   -0.4479555            0 0.0052562218    92.995562 
   25000   0.30151396  -0.44646932            0  0.005278156    93.002025 
   25100   0.31302931  -0.46373494            0 0.0052655758    92.899891 
   25200   0.31132765  -0.46118391            0 0.0052670677    92.915853 
   25300   0.31563568  -0.46763594            0 0.0052696009    92.878945 
   25400   0.31450977  -0.46594433            0 0.0052743004    92.889954 
   25500   0.31237448  -0.46274757            0 0.0052718244    92.908114 
   25600   0.31730667  -0.47013851            0 0.0052706143    92.865815 
   25700   0.31718784  -0.46996802            0 0.0052630625     92.86877 
   25800   0.30230182  -0.44765336            0  0.005274546    92.996371 
   25900   0.31401317   -0.4652079            0 0.0052666898    92.896379 
   26000   0.30098134  -0.44567139            0 0.0052780842    93.007413 
   26100   0.30278631  -0.44837464            0 0.0052791568    92.993078 
   26200   0.30513057  -0.45189016            0 0.0052759477    92.972297 
   26300   0.30975993   -0.4588325            0 0.0052696174    92.932562 
   26400   0.31195499  -0.46212934            0 0.0052615569     92.91224 
   26500   0.31761561   -0.4706082            0 0.0052637952    92.862953 
   26600   0.30829132  -0.45663847            0 0.0052632862    92.943266 
   26700   0.30346735  -0.44940512            0 0.0052690559    92.984287 
   26800    0.3049364  -0.45160489            0 0.0052703109    92.973061 
   26900   0.31967617   -0.4736986            0  0.005260655    92.846123 
   27000   0.30269407  -0.44826567            0 0.0052499221    92.991814 
   27100   0.31239612  -0.46278124            0 0.0052705857    92.910171 
   27200   0.31168458  -0.46171592            0 0.0052698264    92.914303 
   27300   0.31697104  -0.46964057            0 0.0052657019    92.867423 
   27400   0.31228511  -0.46261662            0 0.0052688728    92.909222 
   27500   0.30450095  -0.45094853            0 0.0052742426    92.974876 
   27600   0.30409281  -0.45034095            0 0.0052703259    92.978182 
   27700   0.30683299  -0.45444695            0 0.0052698428    92.956387 
   27800   0.29470022  -0.43626237            0 0.0052763276    93.061985 
   27900   0.30688523  -0.45452286            0 0.0052722037    92.957185 
   28000   0.31284504  -0.46345553            0 0.0052688938    92.905686 
   28100   0.31402235  -0.46522314            0 0.0052652094    92.896726 
   28200    0.3138543  -0.46496445            0 0.0052721063    92.897527 
   28300   0.30877763  -0.45736038            0 0.0052699827    92.938876 
   28400   0.31390874  -0.46504919            0 0.0052689442    92.895312 
   28500   0.30447064  -0.45090321            0 0.0052741563    92.977975 
   28600   0.30860953  -0.45710715            0 0.0052713687    92.941252 
   28700   0.30276024  -0.44834249            0 0.0052722498    92.990636 
   28800   0.30029439  -0.44464591            0 0.0052743392    93.013276 
   28900   0.30677193  -0.45435043            0 0.0052748715    92.960033 
   29000   0.31945054   -0.4733572            0 0.0052640051    92.849189 
   29100   0.30674571  -0.45431394            0 0.0052720754    92.955858 
   29200   0.31154569  -0.46151229            0 0.0052653646    92.916463 
   29300   0.32022354  -0.47452035            0 0.0052590119    92.839905 
   29400   0.30112738  -0.44589311            0 0.0052751752    93.003496 
   29500   0.30818145  -0.45646926            0 0.0052678737    92.944775 
   29600   0.29980788  -0.44391297            0 0.0052783429    93.015577 
   29700   0.30797892  -0.45616488            0 0.0052688047      92.9448 
   29800   0.30798604   -0.4561751            0 0.0052692651    92.943847 
   29900    0.3138632  -0.46498403            0 0.0052658779    92.894643 
   30000   0.30325576  -0.44910509            0 0.0052520592    92.986229 
   30100   0.31113582    -0.460896            0 0.0052675685    92.918307 
   30200   0.31650301  -0.46894517            0 0.0052598579    92.871073 
   30300   0.30924793  -0.45807005            0 0.0052649625     92.93495 
   30400   0.30448268  -0.45092499            0 0.0052704204    92.974496 
   30500   0.30905809  -0.45778326            0 0.0052673159    92.934714 
   30600   0.30639217  -0.45378593            0 0.0052703956    92.959695 
   30700     0.303046  -0.44876706            0  0.005275816    92.989838 
   30800   0.30633612  -0.45369829            0 0.0052740632    92.962373 
   30900   0.30829496  -0.45665247            0 0.0052547275    92.945611 
   31000   0.30412523  -0.45038607            0 0.0052737724    92.983657 
   31100   0.31418352  -0.46548462            0 0.0052452062    92.894988 
   31200    0.3072141  -0.45502352            0 0.0052642721    92.953995 
   31300   0.30244511  -0.44787234            0 0.0052702542    92.993031 
   31400   0.31457965  -0.46604501            0 0.0052783251    92.890901 
   31500   0.31703513  -0.46973931            0 0.0052629764    92.868735 
   31600   0.30577579  -0.45286103            0 0.0052717897    92.966799 
   31700   0.32276729  -0.47833132            0 0.0052592617    92.822527 
   31800   0.30313895  -0.44891104            0 0.0052710955    92.988857 
   31900    0.2992181  -0.44305355            0 0.0052541246    93.021389 
   32000   0.31996239   -0.4741261            0 0.0052619901    92.845263 
   32100   0.31084098  -0.46045222            0 0.0052695975    92.922611 
   32200   0.31082032  -0.46042116            0 0.0052697061    92.920298 
   32300   0.30464249  -0.45116165            0 0.0052731923    92.974895 
   32400   0.31278841   -0.4633824            0 0.0052571801     92.90162 
   32500   0.30757352  -0.45555437            0 0.0052719305    92.949698 
   32600   0.31106937  -0.46077643            0  0.005287571    92.919679 
   32700   0.30024873  -0.44458063            0 0.0052711918    93.010686 
   32800   0.29654689  -0.43903039            0  0.005275107    93.043068 
   32900   0.30659608  -0.45409085            0 0.0052709783    92.956505 
   33000   0.31059246  -0.46007996            0 0.0052695091    92.927018 
   33100   0.30073201  -0.44531831            0 0.0052576052    93.010841 
   33200    0.2994651  -0.44339888            0 0.0052788591    93.021813 
   33300   0.31764122  -0.47064177            0 0.0052686016    92.865888 
   33400   0.29827265  -0.44161196            0 0.0052791709    93.032436 
   33500   0.30646039  -0.45388683            0 0.0052717045    92.961021 
   33600   0.30875304  -0.45731735            0 0.0052761758    92.944272 
   33700   0.31074911   -0.4603185            0 0.0052656753    92.923463 
   33800   0.31532512  -0.46717747            0 0.0052627737    92.884162 
   33900   0.31909038  -0.47281816            0 0.0052634407    92.851825 
   34000   0.31379059  -0.46487837            0 0.0052627384    92.895161 
   34100   0.30489014  -0.45155116            0 0.0052547175    92.973697 
   34200   0.30264782  -0.44816654            0 0.0052797626    92.993358 
   34300   0.30695133  -0.45462159            0 0.0052725034    92.956017 
   34400   0.30597659  -0.45315827            0 0.0052754013    92.962871 
   34500   0.30190976  -0.44706259            0 0.0052779041    93.001577 
   34600   0.29896412  -0.44264883            0 0.0052783095    93.026088 
   34700   0.30392928  -0.45008744            0 0.0052788271    92.980747 
   34800   0.30716779  -0.45494578            0   0.00527262    92.954196 
   34900   0.29802235   -0.4412354            0 0.0052807216    93.034113 
   35000    0.3108559  -0.46047589            0 0.0052682761    92.923004 
   35100   0.30244358  -0.44786627            0 0.0052740294    92.994449 
   35200   0.29974646   -0.4438186            0 0.0052806928    93.019625 
   35300   0.30499452  -0.45168767            0 0.0052746034     92.97316 
   35400   0.30484708  -0.45146722            0 0.0052741467    92.975477 
   35500   0.30957199  -0.45854922            0 0.0052713121    92.934188 
   35600   0.31533656  -0.46719512            0 0.0052622622    92.883173 
   35700   0.31969425  -0.47374788            0 0.0052384581    92.843808 
   35800    0.3159917  -0.46817737            0 0.0052615928    92.877333 
   35900   0.30341507  -0.44933112            0 0.0052647304    92.984119 
   36000   0.30895415  -0.45762731            0  0.005267534    92.939761 
   36100   0.31390869  -0.46505816            0 0.0052599031     92.89589 
   36200   0.30290697  -0.44856313            0 0.0052714396    92.989214 
   36300   0.30345731  -0.44938881            0 0.0052703226    92.986163 
   36400     0.311813  -0.46191111            0 0.0052670438    92.914981 
   36500    0.3077342  -0.45579536            0 0.0052716811    92.950286 
   36600   0.31180898  -0.46190208            0  0.005270063    92.913957 
   36700   0.30966806   -0.4586946            0 0.0052698669     92.93299 
   36800   0.31950378  -0.47343875            0 0.0052622247     92.84693 
   36900   0.30738535  -0.45527751            0 0.0052668586    92.951327 
   37000   0.31451863  -0.46596859            0   0.00526331    92.889505 
   37100   0.31100566  -0.46069912            0 0.0052694213    92.921224 
   37200   0.30142849  -0.44634595            0 0.0052734694    93.003066 
   37300   0.31016742  -0.45945111            0 0.0052615308    92.924835 
   37400   0.30881711   -0.4574266            0 0.0052629214    92.938742 
   37500   0.30861648   -0.4571229            0 0.0052660254    92.937918 
   37600   0.31101244  -0.46071007            0 0.0052686435    92.920611 
   37700   0.30932523  -0.45819668            0 0.0052541323    92.934398 
   37800   0.30961613  -0.45861416            0 0.0052725108    92.933215 
   37900   0.32177767  -0.47684112            0 0.0052667492      92.8279 
   38000   0.30875775  -0.45732871            0 0.0052718771    92.939741 
   38100   0.30858601  -0.45707466            0 0.0052686161    92.941901 
   38200   0.31070154  -0.46024154            0 0.0052713549      92.9239 
   38300   0.31035315  -0.45972131            0 0.0052696092    92.926941 
   38400   0.31258799  -0.46307358            0 0.0052657148    92.906055 
   38500   0.30621854  -0.45352473            0 0.0052714466    92.964159 
   38600   0.30864583  -0.45716575            0 0.0052671575    92.939612 
   38700   0.31347646  -0.46440528            0  0.005265181    92.900008 
   38800   0.30624905  -0.45357094            0 0.0052709483    92.962183 
   38900   0.30683764  -0.45445742            0 0.0052663358    92.957544 
   39000   0.32091117  -0.47554793            0 0.0052616899      92.8352 
   39100   0.31509173  -0.46682375            0 0.0052668149    92.885892 
   39200   0.30361852  -0.44964442            0 0.0052562461    92.985838 
   39300   0.31243685  -0.46286301            0 0.0052498359    92.909253 
   39400   0.31503455  -0.46674228            0 0.0052626071    92.886611 
   39500   0.30694992  -0.45462496            0 0.0052670211    92.955047 
   39600   0.30721967  -0.45503131            0  0.005264835    92.954628 
   39700    0.3029589  -0.44864431            0 0.0052680691    92.989867 
   39800   0.30526932  -0.45210272            0 0.0052712844    92.971611 
   39900   0.31121036  -0.46101061            0 0.0052646397    92.918852 
   40000   0.30799383  -0.45618811            0 0.0052679264    92.948089 
Loop time of 6.20781 on 4 procs for 20000 steps with 864 atoms

Performance: 278359.116 tau/day, 3221.749 timesteps/s
99.7% CPU use with 4 MPI tasks x no OpenMP threads

MPI task timing breakdown:
Section |  min time  |  avg time  |  max time  |%varavg| %total
---------------------------------------------------------------
Pair    | 4.0435     | 4.4166     | 4.7928     |  13.6 | 71.15
Neigh   | 0.57578    | 0.59025    | 0.60401    |   1.4 |  9.51
Comm    | 0.71144    | 1.1012     | 1.4886     |  28.3 | 17.74
Output  | 0.0021991  | 0.0025577  | 0.0035062  |   1.1 |  0.04
Modify  | 0.049941   | 0.050652   | 0.051122   |   0.2 |  0.82
Other   |            | 0.04655    |            |       |  0.75

Nlocal:        216.000 ave         225 max         209 min
Histogram: 1 1 0 0 0 0 1 0 0 1
Nghost:        2125.00 ave        2128 max        2119 min
Histogram: 1 0 0 0 0 0 1 0 0 2
Neighs:        15053.5 ave       16124 max       14136 min
Histogram: 2 0 0 0 0 0 0 1 0 1

Total # of neighbors = 60214
Ave neighs/atom = 69.692130
Neighbor list builds = 1000
Dangerous builds not checked

compute 1 all msd
compute 2 all vacf

thermo_style custom c_1[4] c_2[4]
thermo 100

run 10000
Per MPI rank memory allocation (min/avg/max) = 3.420 | 3.420 | 3.420 Mbytes
c_1[4] c_2[4] 
           0   0.92291208 
0.0018891689 -0.051920089 
0.0012863527   0.20322908 
0.0013827173  0.078602327 
0.0013136963    0.1112128 
 0.001465151     0.046435 
0.0011491499   0.09530246 
 0.001347482  0.049747528 
0.0015706721 -0.066577375 
0.0012682238  0.065047029 
0.0015821839 -0.089835036 
0.0013575579  0.010673534 
0.0013413842  0.028265592 
 0.001362734 -0.039093776 
0.0014603898 -0.030517579 
0.0013869321 -0.050390139 
0.0014363471  0.029819792 
0.0013494516  0.012868552 
0.0014640045 -0.061894822 
0.0012691738  0.013749688 
0.0014682459  0.024741628 
0.0013220426  0.036395671 
0.0014825192  0.010748162 
0.0014603941 0.00033171511 
0.0014762513 -0.023185559 
0.0012837569   0.02408865 
0.0013020009  0.044760903 
0.0013319867 0.0007974958 
0.0016031672 -0.026243765 
0.0014680706 -0.0090093279 
0.0013616267 0.0074207022 
0.0013817886 0.0025032724 
0.0013267947 -0.0030709224 
0.0013193897  0.077738686 
0.0015059423  -0.02633998 
0.0015902527 -0.064083781 
0.0013465669  0.045598075 
0.0014057853 0.00066802607 
0.0012690898  0.025162976 
0.0014042759 -0.012144405 
 0.001306908  0.050099283 
0.0015955225 -0.059853191 
0.0013216224  0.014833543 
 0.001450359 -0.0082595476 
 0.001238774  0.034662351 
0.0014743111 -0.019259492 
0.0013538536 0.0052027752 
0.0013638655 0.0065086438 
0.0014463109 -0.030203273 
0.0013258766  0.019276366 
  0.00146578 -0.041913182 
0.0012531491  -0.01958737 
0.0014800823 -0.044814975 
0.0013479073 -0.043765486 
0.0014537147  0.027137506 
0.0014506542 -0.029325983 
0.0013742022  0.057146504 
 0.001230363 -0.0093347198 
0.0014050019 -0.010228964 
0.0013253999  0.016016949 
0.0014007022 -0.010265582 
0.0014825171  0.014699364 
0.0013926844 -0.017734149 
0.0012969545  0.035653759 
0.0012631313 -0.0074693289 
0.0014118749  0.009712972 
0.0013481483  0.042514971 
0.0015504953 -0.056418101 
0.0014060557 0.0089258408 
0.0012892263 0.0074593889 
0.0013273708  -0.02348433 
0.0014970685 -0.014128102 
0.0014001423   0.01029694 
0.0013651432  0.040697564 
0.0014119075 -0.012477407 
0.0013228529 -0.036770756 
0.0013003944  0.010507883 
0.0013760383  0.018802042 
0.0014786242 -0.041877696 
0.0013558234 -0.034461656 
0.0014162133  0.043290846 
0.0014412147  -0.06791169 
0.0013740372 0.0027623523 
 0.001257302 0.0098875415 
0.0015403666 -0.042451218 
0.0012516449 -0.0012828353 
0.0014424691 0.0025038034 
0.0013933732 0.0029893973 
0.0014035206 -0.011307718 
0.0012047673  0.058365385 
0.0014415281 0.0051607027 
0.0012686749 0.0049294394 
0.0014365203 0.0065140277 
0.0015184635 -0.0059428138 
0.0013090231  0.012837128 
0.0013089007  0.022309143 
 0.001408135 -0.010363214 
0.0014150777 -0.030990678 
0.0013918836  0.045485394 
0.0014550953 -0.013021626 
0.0013621844 -0.026881522 
Loop time of 3.09286 on 4 procs for 10000 steps with 864 atoms

Performance: 279352.741 tau/day, 3233.249 timesteps/s
99.7% CPU use with 4 MPI tasks x no OpenMP threads

MPI task timing breakdown:
Section |  min time  |  avg time  |  max time  |%varavg| %total
---------------------------------------------------------------
Pair    | 2.0047     | 2.1978     | 2.3874     |   9.8 | 71.06
Neigh   | 0.2875     | 0.29528    | 0.30224    |   1.0 |  9.55
Comm    | 0.35386    | 0.5502     | 0.75111    |  20.3 | 17.79
Output  | 0.0008888  | 0.0010707  | 0.0015296  |   0.8 |  0.03
Modify  | 0.024897   | 0.025309   | 0.025516   |   0.2 |  0.82
Other   |            | 0.02319    |            |       |  0.75

Nlocal:        216.000 ave         218 max         214 min
Histogram: 1 0 1 0 0 0 0 1 0 1
Nghost:        2111.50 ave        2121 max        2101 min
Histogram: 1 0 0 0 1 0 0 1 0 1
Neighs:        15051.0 ave       16305 max       13804 min
Histogram: 1 0 0 1 0 0 1 0 0 1

Total # of neighbors = 60204
Ave neighs/atom = 69.680556
Neighbor list builds = 500
Dangerous builds not checked

compute 3 all msd
compute 4 all vacf

thermo_style custom c_3[4] c_4[4]
thermo 100

run 10000
Per MPI rank memory allocation (min/avg/max) = 4.170 | 4.170 | 4.170 Mbytes
c_3[4] c_4[4] 
           0    0.9443706 
0.0018197354 -0.083443517 
0.0012879194   0.17169953 
0.0014439973  0.085610352 
0.0013391436   0.11304744 
0.0013893642  0.046042418 
0.0011615704  0.086669129 
 0.001373616  0.064860753 
0.0015157363 -0.033585708 
0.0013213517  0.054567027 
0.0015058719 -0.064743904 
0.0013104242  0.034220093 
0.0013249806  0.035246716 
0.0013093409 -0.046941448 
0.0015314812 -0.023950899 
0.0014551316 -0.028286471 
0.0014154182  0.033337338 
0.0012505278  0.023126906 
 0.001403902 -0.094737504 
0.0014007748 0.0064119161 
0.0014354088  0.040229562 
0.0012211971   0.04426874 
0.0014167938 -0.022369335 
0.0012930526  0.052595663 
0.0014744481 -0.032079167 
0.0013396769  0.031603391 
0.0012433628  0.021005245 
0.0013279449  0.021920093 
0.0015254825 -0.073081301 
0.0013784765 -0.0073952545 
0.0013491859 -0.018152106 
0.0014565194 0.00040961768 
0.0013003937 0.0057178128 
 0.001246597  0.094229508 
0.0013948431 -0.013622589 
0.0015844585  -0.11245509 
0.0012427573  0.055508774 
0.0014660454 -0.020573941 
0.0012313786  0.015478659 
0.0013314719 -0.047030552 
0.0014039047   0.06361644 
0.0015320723  -0.06927909 
0.0013638217 -0.018583724 
0.0012687398 0.00085308091 
0.0012259293  0.037120085 
0.0014887327 -0.019754309 
0.0013744254 0.0058443414 
0.0013810391  0.032544222 
0.0014225329 -0.020996769 
0.0012397858  0.049475247 
0.0014171935 -0.0068050217 
0.0013730145 -0.017517184 
0.0014289633 -0.0078010281 
0.0013527814 -0.0023277409 
0.0013918993 -0.0046103633 
0.0013821973 -0.037628055 
0.0012737976  0.081515095 
0.0014380224 -0.023516624 
0.0013423324 -0.029191165 
0.0013364856  0.051865607 
0.0013951926  0.013008369 
0.0013674692 0.0030848174 
0.0014092606 -0.010030508 
0.0013699414   0.03252478 
0.0012898722 -0.0013099173 
0.0013521312 0.0083410555 
0.0013531757  0.038390771 
0.0015796824 -0.052265206 
0.0013451446  0.026627545 
 0.001257953 0.0094991074 
0.0014106328  0.021047909 
 0.001400487 -0.037679619 
0.0013771526  0.026055941 
0.0014242815  0.015195621 
0.0014351295 -0.018028561 
0.0013352927 -0.003158612 
0.0012521811  0.022602346 
0.0014256221  0.035908774 
 0.001440272 -0.049823689 
0.0014329026  0.020625336 
0.0013809993  0.026557359 
0.0013086005 -0.014301003 
0.0013322539 -0.0063467397 
0.0014321957  0.044692344 
0.0014787259 -0.057594099 
0.0013077178  0.027656901 
0.0014566708  0.018779813 
0.0012607939 -0.018581744 
0.0014581441 0.0066311687 
0.0013266257  0.053602412 
0.0014104133  -0.03460712 
0.0013658099 -0.0015682932 
0.0014413466  0.018454102 
0.0013839093 -0.036345351 
0.0013798006  0.018440002 
0.0013185082  0.017907169 
0.0013805823 -0.014105472 
0.0013730339 -0.034873684 
 0.001296926 0.0086663623 
0.0014214932 -0.0049917546 
0.0014491395 -0.036380708 
Loop time of 3.08855 on 4 procs for 10000 steps with 864 atoms

Performance: 279743.317 tau/day, 3237.770 timesteps/s
99.7% CPU use with 4 MPI tasks x no OpenMP threads

MPI task timing breakdown:
Section |  min time  |  avg time  |  max time  |%varavg| %total
---------------------------------------------------------------
Pair    | 2.0112     | 2.197      | 2.3837     |   9.6 | 71.13
Neigh   | 0.28807    | 0.2953     | 0.30196    |   1.0 |  9.56
Comm    | 0.35365    | 0.54664    | 0.73945    |  19.9 | 17.70
Output  | 0.00087707 | 0.0010441  | 0.0014639  |   0.8 |  0.03
Modify  | 0.025179   | 0.025335   | 0.02547    |   0.1 |  0.82
Other   |            | 0.0232     |            |       |  0.75

Nlocal:        216.000 ave         221 max         209 min
Histogram: 1 0 0 0 0 1 0 0 1 1
Nghost:        2121.25 ave        2134 max        2116 min
Histogram: 2 1 0 0 0 0 0 0 0 1
Neighs:        15054.5 ave       15730 max       14319 min
Histogram: 1 1 0 0 0 0 0 0 0 2

Total # of neighbors = 60218
Ave neighs/atom = 69.696759
Neighbor list builds = 500
Dangerous builds not checked

compute 5 all msd
compute 6 all vacf

thermo_style custom c_5[4] c_6[4]
thermo 100

run 10000
Per MPI rank memory allocation (min/avg/max) = 4.920 | 4.920 | 4.920 Mbytes
c_5[4] c_6[4] 
           0   0.90658461 
 0.001879073 -0.043039572 
0.0012060367   0.18867678 
0.0013442601    0.1123585 
 0.001201446  0.085856444 
0.0013947621  0.049097719 
0.0012189862  0.069794855 
0.0013763964  0.040473003 
0.0014783135 -0.041580106 
0.0012333763  0.068203765 
0.0015092623 -0.070774429 
0.0013005384   0.03710189 
0.0013414356  0.029150846 
0.0012961849 -0.018130541 
0.0013839888 -0.031277958 
0.0014093755 -0.021430395 
0.0013147141 0.0099516089 
0.0013330491 -0.012274132 
0.0013771087 -0.065822786 
0.0013409438 -0.014641837 
0.0013696887 0.0036732801 
0.0012958366  0.049316969 
0.0014008697   0.01232778 
0.0013772686  0.044182032 
0.0013999784 -0.040946245 
0.0012802508  0.025371918 
0.0013217055  0.064254563 
0.0012627372  0.042369963 
0.0015559085 -0.078282302 
0.0012737848  0.024021308 
0.0012939637  0.016641795 
0.0013617056 -0.024421888 
0.0012698157 0.0062509622 
 0.001336368  0.084650548 
0.0013547622 -0.022462142 
0.0014662882 -0.084999473 
0.0012065254  0.046252662 
0.0014097675 -0.023148351 
0.0012389927 -0.0034316712 
0.0014385023 -0.044248091 
0.0013716519  0.023338934 
0.0014176497 -0.060152089 
0.0013351692 -0.016410542 
0.0013007129 0.0001897411 
0.0012829813 0.0074798946 
0.0014793799 -0.018980761 
0.0013199937 -0.016985107 
0.0013634594 -0.014059861 
0.0013470196 -0.018378317 
0.0013255889  0.035322457 
0.0014268093 -0.062430275 
0.0012901724 -0.041893397 
0.0014150717 -0.0081596292 
0.0013734233 -0.019189068 
0.0013857524 -0.0055606976 
0.0013688277 -0.060399392 
0.0013070061  0.060252477 
0.0013322456  0.017216419 
0.0013971597 -0.022130414 
0.0014230036  0.018467169 
0.0013202482  0.034223498 
0.0013698091  0.009636838 
0.0014505385 0.0034555961 
0.0012799331  0.051131691 
0.0013078351  0.046387229 
0.0014395815  0.014690897 
 0.001368016  0.073452733 
 0.001401761 -0.041311497 
0.0013319237  0.028614068 
0.0012887978  0.059164148 
0.0013415614  -0.01910847 
0.0014931868 -0.0010368791 
0.0013630063  0.034210606 
0.0013224396  0.020619314 
0.0014358664 -0.011635411 
0.0013654986 -0.024606765 
0.0013339156  0.002949073 
0.0014705956 -0.0060319166 
0.0014016234 -0.025828268 
0.0014089328 -0.011749081 
0.0013424197 -0.0074005322 
0.0013554978 -0.053241684 
0.0013755144 -0.018388144 
0.0013767678  0.023737744 
0.0014213315 -0.054069069 
0.0012757517  0.031327599 
0.0014045509  0.010214201 
 0.001445221 0.0039248898 
0.0014579441  0.011761459 
0.0012712836  0.044630798 
0.0013647441 -0.003243046 
0.0013924627 0.0086786306 
0.0013930197 -0.014663945 
0.0014251135 0.0074205591 
0.0013919634 0.0021290056 
0.0012971573  0.035179988 
  0.00133354 -0.030228846 
0.0013883514  -0.02168819 
0.0013182683  0.024752271 
0.0013365427 -0.0086010326 
 0.001385941 -0.045899378 
Loop time of 3.09839 on 4 procs for 10000 steps with 864 atoms

Performance: 278854.411 tau/day, 3227.482 timesteps/s
99.7% CPU use with 4 MPI tasks x no OpenMP threads

MPI task timing breakdown:
Section |  min time  |  avg time  |  max time  |%varavg| %total
---------------------------------------------------------------
Pair    | 2.0073     | 2.1978     | 2.383      |   9.7 | 70.93
Neigh   | 0.28762    | 0.29536    | 0.30216    |   1.0 |  9.53
Comm    | 0.36392    | 0.55562    | 0.75358    |  19.9 | 17.93
Output  | 0.00088974 | 0.001062   | 0.0015089  |   0.8 |  0.03
Modify  | 0.025145   | 0.025345   | 0.025506   |   0.1 |  0.82
Other   |            | 0.02323    |            |       |  0.75

Nlocal:        216.000 ave         222 max         207 min
Histogram: 1 0 0 0 0 0 1 1 0 1
Nghost:        2117.25 ave        2126 max        2112 min
Histogram: 1 1 0 1 0 0 0 0 0 1
Neighs:        15047.5 ave       16690 max       14179 min
Histogram: 1 1 1 0 0 0 0 0 0 1

Total # of neighbors = 60190
Ave neighs/atom = 69.664352
Neighbor list builds = 500
Dangerous builds not checked

compute 7 all msd
compute 8 all vacf

thermo_style custom c_7[4] c_8[4]
thermo 100

run 10000
Per MPI rank memory allocation (min/avg/max) = 5.670 | 5.670 | 5.670 Mbytes
c_7[4] c_8[4] 
           0   0.95112036 
0.0018088649 -0.061775417 
0.0012309969   0.17414844 
0.0014504054  0.096066983 
0.0013889875   0.11316877 
 0.001323971  0.041111017 
0.0011974167   0.11821798 
0.0012701875 0.0049622813 
  0.00154786 -0.055901146 
 0.001457559  0.019905828 
0.0015277337  -0.10372836 
0.0013075947    0.0218633 
0.0012479923  0.047977234 
0.0013219036 -0.071835995 
0.0014795583 -0.035665041 
0.0014894203 -0.0028350276 
0.0013832747  0.024149504 
 0.001300115 -0.0098825943 
0.0012932625 -0.072914685 
0.0013981589 -0.032316087 
0.0014900973 -0.023368379 
0.0012889205  0.089978732 
0.0014396265 -0.010435512 
0.0013550785 0.0090531531 
0.0014252642 -0.059749324 
0.0013704703   0.01351126 
0.0012457478  0.030572134 
0.0013287318 -0.0014796801 
0.0017111809 -0.050469849 
0.0013688607 -0.024933165 
0.0013958763 -0.020357676 
 0.001384616 -0.026694645 
0.0012986616 0.0096876004 
0.0013229929  0.073128297 
 0.001496595 -0.015557345 
0.0016641189  -0.10465465 
0.0012976714  0.012387854 
0.0013808753  -0.02106939 
0.0011973399 -0.017087704 
 0.001398527 -0.034149576 
0.0015050846  0.016943526 
0.0016112438 -0.042394224 
0.0013318048 -0.0028172386 
 0.001264986 -0.00022824708 
0.0012731121  0.045553403 
0.0014192891 -0.020393426 
0.0015237684 -0.0041448492 
0.0014623313  0.065575148 
0.0014517744  0.011541688 
0.0012704064  0.043175248 
0.0013691813 -0.022049204 
0.0013697953  -0.02799796 
0.0014137802 -0.021004122 
0.0015384255 -0.042941228 
  0.00138425  0.023877791 
0.0014258959 0.0021936879 
0.0012868517  0.011051485 
0.0014163921 -0.028909149 
0.0013194808 -0.059058692 
0.0013910024  0.040117057 
 0.001516972 -0.023779861 
0.0014497336 0.0038409533 
0.0014112056 -0.014163667 
0.0013130346 0.0067793593 
0.0011846546 0.0095417579 
0.0014974106  0.021022346 
0.0014167425  0.037154592 
0.0015053886 -0.036401942 
0.0013176829 0.0020706477 
0.0012682807   0.01328255 
0.0012642219   0.02431552 
0.0014803684 -0.010242607 
 0.001511946 -0.0028377538 
 0.001410154  0.021221781 
0.0014000509 -0.0052431543 
0.0012477617 -0.0047401446 
0.0012701156  0.006052238 
0.0013944118  0.043286139 
0.0015754868  -0.02585325 
0.0014963675 -0.021832695 
0.0013750372  0.003892531 
0.0012892217 -0.037442239 
0.0014159335 -0.046015878 
0.0013369982    0.0318628 
0.0015751242 -0.077059595 
0.0014098745  0.018602509 
0.0014081676 -0.009166494 
0.0013794477 -0.014895953 
0.0014034595 -0.0089099221 
0.0013192303  0.025925078 
0.0012992484 0.0091463732 
0.0014989715 0.0013145991 
0.0014470211 0.0072535759 
0.0013549744 -0.021432299 
0.0013592539  0.019114713 
0.0012777246  0.043717632 
0.0013013911  0.013502492 
0.0015223707 -0.015130772 
0.0014545623  0.032000548 
0.0013993401  0.025745025 
0.0013991735 -0.0058021136 
Loop time of 3.09607 on 4 procs for 10000 steps with 864 atoms

Performance: 279063.113 tau/day, 3229.897 timesteps/s
99.7% CPU use with 4 MPI tasks x no OpenMP threads

MPI task timing breakdown:
Section |  min time  |  avg time  |  max time  |%varavg| %total
---------------------------------------------------------------
Pair    | 2.0075     | 2.1973     | 2.383      |   9.6 | 70.97
Neigh   | 0.28751    | 0.29523    | 0.30198    |   1.0 |  9.54
Comm    | 0.3618     | 0.55401    | 0.75157    |  19.9 | 17.89
Output  | 0.00087007 | 0.0010399  | 0.0014585  |   0.8 |  0.03
Modify  | 0.024945   | 0.025283   | 0.025489   |   0.1 |  0.82
Other   |            | 0.0232     |            |       |  0.75

Nlocal:        216.000 ave         225 max         208 min
Histogram: 1 0 1 0 0 1 0 0 0 1
Nghost:        2114.00 ave        2124 max        2106 min
Histogram: 1 0 1 0 0 1 0 0 0 1
Neighs:        15038.8 ave       16803 max       13621 min
Histogram: 1 1 0 0 0 0 1 0 0 1

Total # of neighbors = 60155
Ave neighs/atom = 69.623843
Neighbor list builds = 500
Dangerous builds not checked

compute 9 all msd
compute 10 all vacf

thermo_style custom c_9[4] c_10[4]
thermo 100

run 10000
Per MPI rank memory allocation (min/avg/max) = 6.420 | 6.420 | 6.420 Mbytes
c_9[4] c_10[4] 
           0   0.93613798 
0.0018265292 -0.022352607 
 0.001319132   0.18295673 
0.0014388216   0.11942839 
0.0015678606   0.10741459 
0.0014627025  0.029195811 
0.0012553521   0.10449993 
0.0012861207 0.00020602242 
0.0015086103 -0.076038042 
0.0014230334  0.035776907 
0.0017742835  -0.12563837 
0.0014555985  0.018193055 
0.0012558848  0.010438751 
0.0014101307 -0.059544183 
0.0013955914 -0.045369126 
0.0015054415 -0.050279105 
0.0015831698  0.027725065 
0.0016199289 -0.0061889443 
0.0014828531 -0.046897958 
0.0013118895  0.022879882 
0.0014294828 -0.0041369471 
0.0012706958  0.065230317 
0.0015657973   0.01313778 
 0.001720186  0.015824377 
0.0015704976 -0.030979242 
0.0012781333  0.031775047 
0.0012725183  0.010105396 
0.0012221476 -0.026366379 
0.0018161311 -0.046020966 
0.0016454587 -0.0029657161 
 0.001478595 -0.038079946 
0.0015007963 -0.011812056 
0.0013104625 -0.038259381 
0.0012666431  0.059349844 
0.0015124823 0.0041538456 
 0.001781133  -0.11722837 
0.0016092053   0.03349161 
0.0015115963 -0.027203242 
0.0012960052 -0.028361278 
0.0014280573 0.0062893944 
0.0014965785   0.03461484 
0.0015965129 -0.033828793 
0.0015830197 -0.012201101 
 0.001478816 -0.0026981273 
0.0013097001  0.048585749 
0.0014847971 -0.0096017565 
0.0013227953  0.021205782 
 0.001465085 -0.0035767599 
0.0016333936  0.012605454 
0.0016175874  0.018494645 
0.0014192583 0.0061601043 
0.0013264042 -0.035238395 
0.0013605901 -0.00042986032 
0.0014525318 -0.033275242 
0.0016597171 -0.0065538052 
0.0016751837 -0.034581793 
0.0013660579  0.053215075 
0.0013958476 -0.030881697 
0.0013902855 -0.043591557 
0.0013854732  0.034703696 
 0.001643837  0.013167312 
0.0017544442  0.032958946 
0.0015559983 -0.030122805 
0.0012288599  0.025051478 
 0.001334288  0.042199236 
0.0014515325  0.046178355 
0.0016299054  0.051868771 
0.0017753789 -0.019444456 
0.0014804195  0.032905325 
0.0013161067  0.071481463 
0.0013943938  0.022172892 
0.0014549273 -0.0021248154 
0.0015133159  0.031064625 
0.0016033058   0.07313151 
0.0016170518 -0.036006801 
 0.001401382 -0.0037254403 
0.0012664089 0.0091707549 
0.0014580101  0.035798866 
0.0014929304 -0.061810067 
0.0016384077 0.0062809678 
0.0015780942 -0.016291905 
0.0015877129 -0.049352449 
0.0013953967 -5.7144837e-05 
0.0013634823  0.053878096 
0.0014565762 -0.043019657 
0.0014900411 -0.0067360158 
0.0016625609  0.046859629 
0.0016282383 -0.0064403166 
0.0014312191  0.019411259 
0.0012128306  0.057258067 
 0.001353222 -0.028535125 
 0.001489784 -0.013196948 
0.0017666809  0.001583858 
0.0016567296 -0.024302375 
0.0013449134  0.021185837 
0.0013459758  0.035706481 
 0.001352046 -0.018564701 
0.0015334149 -0.0071448687 
0.0016139252  0.033916721 
0.0015853954  0.028988154 
0.0015472404 -0.0077546584 
Loop time of 3.094 on 4 procs for 10000 steps with 864 atoms

Performance: 279250.277 tau/day, 3232.063 timesteps/s
99.7% CPU use with 4 MPI tasks x no OpenMP threads

MPI task timing breakdown:
Section |  min time  |  avg time  |  max time  |%varavg| %total
---------------------------------------------------------------
Pair    | 2.0014     | 2.1959     | 2.3792     |   9.7 | 70.97
Neigh   | 0.28693    | 0.29504    | 0.30135    |   1.0 |  9.54
Comm    | 0.36428    | 0.55352    | 0.7559     |  20.0 | 17.89
Output  | 0.00087881 | 0.0010509  | 0.0014758  |   0.8 |  0.03
Modify  | 0.025132   | 0.025355   | 0.025513   |   0.1 |  0.82
Other   |            | 0.02314    |            |       |  0.75

Nlocal:        216.000 ave         220 max         210 min
Histogram: 1 0 0 0 0 0 1 0 1 1
Nghost:        2111.00 ave        2120 max        2105 min
Histogram: 1 1 0 0 1 0 0 0 0 1
Neighs:        15037.5 ave       16288 max       14064 min
Histogram: 2 0 0 0 0 0 0 1 0 1

Total # of neighbors = 60150
Ave neighs/atom = 69.618056
Neighbor list builds = 500
Dangerous builds not checked

Total wall time: 0:00:27
