LAMMPS (29 Sep 2021 - Update 2)
variable t string 1

units lj
boundary p p p
atom_style atomic

lattice fcc 1.2
Lattice spacing in x,y,z = 1.4938016 1.4938016 1.4938016
region r1 block -6 6 -6 6 -6 6
create_box 1 r1
Created orthogonal box = (-8.9628095 -8.9628095 -8.9628095) to (8.9628095 8.9628095 8.9628095)
  1 by 2 by 2 MPI processor grid
create_atoms 1 box
Created 6912 atoms
  using lattice units in orthogonal box = (-8.9628095 -8.9628095 -8.9628095) to (8.9628095 8.9628095 8.9628095)
  create_atoms CPU = 0.002 seconds
mass 1 1.0

pair_style lj/cut 2.5
pair_coeff * * 1.0 1.0

velocity all create $t 322 mom yes rot no
velocity all create 1 322 mom yes rot no
reset_timestep	0
timestep 0.001

#### Equilibration ####
fix base all nvt temp 1.0 1.0 0.1
thermo 1000

run 10000
Neighbor list info ...
  update every 1 steps, delay 10 steps, check yes
  max neighbors/atom: 2000, page size: 100000
  master list distance cutoff = 2.8
  ghost atom cutoff = 2.8
  binsize = 1.4, bins = 13 13 13
  1 neighbor lists, perpetual/occasional/extra = 1 0 0
  (1) pair lj/cut, perpetual
      attributes: half, newton on
      pair build: half/bin/atomonly/newton
      stencil: half/bin/3d
      bin: standard
Per MPI rank memory allocation (min/avg/max) = 3.638 | 3.638 | 3.638 Mbytes
Step Temp E_pair E_mol TotEng Press 
       0            1   -7.6089166            0   -6.1091337    13.124579 
    1000    1.0429127   -6.1659235            0   -4.6017808    21.620449 
    2000   0.98655189   -6.1993693            0   -4.7197556    21.361863 
    3000   0.98740649   -6.1854492            0   -4.7045538    21.443751 
    4000    1.0146522   -6.1904846            0   -4.6687264    21.451602 
    5000    0.9884094   -6.1984347            0   -4.7160351    21.374597 
    6000     1.014383   -6.1909496            0   -4.6695952    21.447041 
    7000   0.98584145   -6.1910783            0     -4.71253    21.406546 
    8000    1.0054819    -6.187849            0   -4.6798442    21.457155 
    9000    1.0175213   -6.2257392            0   -4.6996781    21.245276 
   10000     1.003214   -6.1955975            0   -4.6909942    21.402544 
Loop time of 17.1869 on 4 procs for 10000 steps with 6912 atoms

Performance: 50270.707 tau/day, 581.837 timesteps/s
99.7% CPU use with 4 MPI tasks x no OpenMP threads

MPI task timing breakdown:
Section |  min time  |  avg time  |  max time  |%varavg| %total
---------------------------------------------------------------
Pair    | 14.819     | 14.869     | 14.889     |   0.8 | 86.52
Neigh   | 1.0051     | 1.0074     | 1.0108     |   0.2 |  5.86
Comm    | 0.82511    | 0.84725    | 0.89625    |   3.1 |  4.93
Output  | 0.0001768  | 0.00019636 | 0.00024919 |   0.0 |  0.00
Modify  | 0.34673    | 0.34923    | 0.35054    |   0.2 |  2.03
Other   |            | 0.1135     |            |       |  0.66

Nlocal:        1728.00 ave        1737 max        1708 min
Histogram: 1 0 0 0 0 0 0 1 0 2
Nghost:        3867.00 ave        3887 max        3858 min
Histogram: 2 0 1 0 0 0 0 0 0 1
Neighs:        96023.5 ave       96752 max       94510 min
Histogram: 1 0 0 0 0 0 0 1 0 2

Total # of neighbors = 384094
Ave neighs/atom = 55.569155
Neighbor list builds = 285
Dangerous builds = 0
unfix base

fix start all nvt temp 1.0 1.0 1

compute 1 all msd average yes

thermo_style custom c_1[4]
thermo 1


run 200000
Per MPI rank memory allocation (min/avg/max) = 4.015 | 4.015 | 4.015 Mbytes
c_1[4] 
           0 
1.3378806e-06 
4.7031904e-06 
9.7507808e-06 
1.638029e-05 
2.4550426e-05 
3.4239272e-05 
4.543238e-05 
5.8118394e-05 
7.2287175e-05 
8.792893e-05 
0.00010503377 
0.00012359146 
0.00014359131 
0.00016502211 
0.00018787203 
0.00021212868 
0.00023777902 
0.00026480941 
0.00029320557 
0.00032295257 
0.00035403484 
0.00038643617 
0.00042013964 
0.00045512766 
0.00049138195 
0.00052888348 
0.0005676125 
0.0006075485 
0.0006486702 
0.00069095551 
0.00073438158 
0.00077892473 
0.00082456047 
0.00087126349 
0.0009190077 
0.00096776621 
0.0010175114 
0.0010682149 
0.0011198478 
0.0011723802 
0.0012257819 
0.0012800221 
0.0013350694 
0.0013908923 
0.0014474584 
0.0015047357 
0.0015626914 
 0.001621293 
0.0016805078 
0.0017403032 
0.0018006467 
 0.001861506 
0.0019228491 
0.0019846442 
0.0020468602 
0.0021094661 
0.0021724317 
0.0022357274 
0.0022993239 
0.0023631929 
0.0024273066 
 0.002491638 
0.0025561608 
0.0026208494 
 0.002685679 
0.0027506255 
0.0028156656 
0.0028807766 
0.0029459366 
0.0030111242 
0.0030763189 
0.0031415004 
0.0032066493 
0.0032717467 
 0.003336774 
0.0034017133 
 0.003466547 
0.0035312578 
0.0035958291 
0.0036602443 
0.0037244874 
0.0037885426 
0.0038523945 
 0.003916028 
0.0039794283 
0.0040425809 
0.0041054717 
0.0041680867 
0.0042304125 
0.0042924358 
0.0043541436 
0.0044155231 
0.0044765621 
0.0045372482 
0.0045975698 
0.0046575151 
0.0047170728 
0.0047762319 
0.0048349813 
0.0048933106 
0.0049512094 
0.0050086675 
0.0050656751 
0.0051222227 
0.0051783009 
0.0052339007 
0.0052890136 
0.0053436311 
0.0053977452 
0.0054513482 
0.0055044329 
0.0055569925 
0.0056090202 
0.0056605101 
0.0057114562 
0.0057618533 
0.0058116963 
0.0058609805 
0.0059097015 
0.0059578553 
0.0060054379 
0.0060524458 
0.0060988756 
 0.006144724 
 0.006189988 
0.0062346647 
0.0062787511 
0.0063222445 
0.0063651422 
0.0064074414 
0.0064491398 
0.0064902346 
0.0065307237 
0.0065706045 
 0.006609875 
0.0066485331 
 0.006686577 
0.0067240051 
0.0067608162 
 0.006797009 
 0.006832583 
0.0068675377 
0.0069018732 
0.0069355897 
0.0069686882 
0.0070011697 
0.0070330359 
0.0070642887 
0.0070949305 
 0.007124964 
0.0071543921 
0.0071832182 
0.0072114459 
 0.007239079 
0.0072661216 
0.0072925778 
0.0073184521 
0.0073437488 
0.0073684727 
0.0073926283 
0.0074162203 
0.0074392537 
0.0074617332 
0.0074836638 
0.0075050505 
0.0075258984 
0.0075462125 
0.0075659981 
0.0075852604 
 0.007604005 
0.0076222374 
0.0076399634 
0.0076571887 
0.0076739196 
0.0076901624 
0.0077059236 
0.0077212102 
0.0077360294 
0.0077503889 
0.0077642967 
0.0077777613 
0.0077907916 
 0.007803397 
0.0078155872 
0.0078273726 
0.0078387641 
 0.007849773 
0.0078604109 
0.0078706901 
 0.007880623 
0.0078902225 
0.0078995018 
0.0079084741 
0.0079171531 
0.0079255522 
0.0079336849 
0.0079415649 
0.0079492053 
0.0079566192 
0.0079638194 
0.0079708182 
0.0079776276 
0.0079842588 
0.0079907226 
0.0079970292 
0.0080031881 
0.0080092081 
0.0080150972 
0.0080208629 
0.0080265117 
0.0080320496 
0.0080374818 
0.0080428128 
0.0080480464 
0.0080531859 
0.0080582339 
0.0080631925 
0.0080680634 
0.0080728478 
0.0080775465 
0.0080821601 
0.0080866888 
0.0080911325 
0.0080954912 
0.0080997647 
0.0081039525 
0.0081080543 
0.0081120696 
0.0081159981 
0.0081198394 
0.0081235932 
0.0081272592 
0.0081308372 
0.0081343271 
 0.008137729 
 0.008141043 
0.0081442692 
0.0081474079 
0.0081504594 
 0.008153424 
 0.008156302 
0.0081590937 
0.0081617994 
0.0081644193 
0.0081669536 
0.0081694022 
 0.008171765 
0.0081740418 
 0.008176232 
0.0081783352 
0.0081803506 
0.0081822773 
0.0081841143 
0.0081858606 
0.0081875147 
0.0081890755 
0.0081905416 
0.0081919117 
0.0081931844 
0.0081943587 
0.0081954334 
0.0081964077 
 0.008197281 
0.0081980529 
0.0081987234 
0.0081992927 
0.0081997616 
0.0082001311 
0.0082004026 
0.0082005782 
0.0082006602 
0.0082006513 
0.0082005549 
0.0082003746 
0.0082001144 
0.0081997788 
0.0081993724 
0.0081989005 
0.0081983682 
0.0081977813 
0.0081971455 
0.0081964666 
0.0081957508 
0.0081950041 
0.0081942326 
0.0081934425 
0.0081926397 
0.0081918301 
0.0081910194 
0.0081902131 
0.0081894166 
0.0081886348 
0.0081878725 
0.0081871339 
0.0081864231 
0.0081857436 
0.0081850984 
0.0081844903 
0.0081839214 
0.0081833934 
0.0081829075 
0.0081824643 
0.0081820638 
0.0081817056 
0.0081813887 
0.0081811116 
0.0081808722 
0.0081806678 
0.0081804952 
0.0081803506 
0.0081802298 
0.0081801278 
0.0081800394 
0.0081799588 
0.0081798796 
0.0081797953 
0.0081796988 
0.0081795828 
0.0081794396 
0.0081792613 
0.0081790401 
0.0081787679 
0.0081784366 
0.0081780386 
0.0081775659 
0.0081770114 
 0.008176368 
 0.008175629 
0.0081747885 
 0.008173841 
0.0081727817 
0.0081716065 
0.0081703119 
0.0081688954 
 0.008167355 
0.0081656898 
0.0081638994 
0.0081619845 
0.0081599464 
0.0081577872 
0.0081555099 
0.0081531182 
0.0081506164 
0.0081480098 
0.0081453039 
0.0081425053 
0.0081396208 
0.0081366579 
0.0081336247 
0.0081305295 
0.0081273812 
0.0081241888 
0.0081209616 
0.0081177093 
0.0081144414 
0.0081111674 
0.0081078971 
0.0081046398 
0.0081014048 
0.0080982012 
0.0080950375 
0.0080919223 
0.0080888634 
0.0080858685 
0.0080829446 
0.0080800984 
0.0080773361 
0.0080746635 
0.0080720857 
0.0080696076 
0.0080672334 
0.0080649672 
0.0080628123 
0.0080607716 
0.0080588479 
0.0080570432 
0.0080553594 
0.0080537978 
0.0080523593 
0.0080510445 
0.0080498535 
 0.008048786 
0.0080478414 
0.0080470185 
0.0080463158 
0.0080457315 
0.0080452634 
0.0080449087 
0.0080446646 
0.0080445277 
0.0080444944 
 0.008044561 
0.0080447233 
0.0080449771 
0.0080453181 
0.0080457415 
 0.008046243 
0.0080468177 
0.0080474612 
0.0080481687 
0.0080489359 
0.0080497582 
0.0080506314 
0.0080515514 
0.0080525143 
0.0080535165 
0.0080545544 
0.0080556249 
0.0080567253 
0.0080578528 
0.0080590054 
 0.008060181 
0.0080613781 
0.0080625954 
0.0080638318 
0.0080650866 
0.0080663594 
0.0080676502 
0.0080689589 
0.0080702859 
0.0080716318 
0.0080729975 
0.0080743839 
0.0080757921 
0.0080772234 
0.0080786791 
0.0080801609 
0.0080816703 
0.0080832091 
0.0080847789 
0.0080863816 
 0.008088019 
0.0080896928 
0.0080914048 
0.0080931567 
  0.00809495 
0.0080967862 
0.0080986665 
0.0081005918 
0.0081025629 
0.0081045803 
0.0081066439 
0.0081087535 
0.0081109084 
0.0081131074 
0.0081153489 
0.0081176307 
0.0081199504 
 0.008122305 
0.0081246909 
0.0081271043 
 0.008129541 
0.0081319965 
0.0081344658 
0.0081369439 
0.0081394258 
 0.008141906 
0.0081443795 
 0.008146841 
0.0081492854 
0.0081517078 
0.0081541036 
0.0081564682 
0.0081587976 
0.0081610877 
0.0081633352 
0.0081655365 
0.0081676887 
 0.008169789 
0.0081718345 
0.0081738228 
0.0081757513 
0.0081776178 
0.0081794196 
0.0081811544 
0.0081828193 
0.0081844117 
0.0081859285 
0.0081873666 
0.0081887226 
0.0081899928 
0.0081911734 
0.0081922602 
0.0081932489 
0.0081941349 
0.0081949137 
0.0081955802 
0.0081961295 
0.0081965565 
0.0081968561 
0.0081970231 
0.0081970524 
0.0081969391 
0.0081966782 
0.0081962651 
0.0081956954 
 0.008194965 
0.0081940703 
0.0081930078 
0.0081917749 
0.0081903695 
0.0081887901 
0.0081870359 
0.0081851068 
0.0081830037 
0.0081807283 
0.0081782834 
0.0081756726 
0.0081729007 
0.0081699735 
0.0081668979 
 0.008163682 
0.0081603351 
0.0081568673 
0.0081532903 
0.0081496164 
0.0081458593 
0.0081420333 
0.0081381538 
0.0081342367 
0.0081302986 
0.0081263568 
0.0081224284 
0.0081185309 
0.0081146816 
0.0081108976 
0.0081071954 
0.0081035909 
0.0081000993 
0.0080967345 
0.0080935095 
0.0080904358 
0.0080875235 
0.0080847813 
0.0080822161 
0.0080798334 
0.0080776371 
0.0080756292 
0.0080738104 
0.0080721796 
0.0080707346 
0.0080694717 
 0.008068386 
0.0080674715 
0.0080667214 
 0.008066128 
0.0080656833 
0.0080653785 
0.0080652046 
0.0080651524 
0.0080652129 
0.0080653771 
0.0080656359 
 0.008065981 
0.0080664041 
0.0080668977 
0.0080674545 
 0.008068068 
0.0080687322 
0.0080694415 
0.0080701912 
0.0080709769 
 0.008071795 
0.0080726423 
0.0080735158 
0.0080744132 
0.0080753323 
0.0080762713 
0.0080772285 
0.0080782023 
 0.008079191 
0.0080801931 
0.0080812067 
0.0080822298 
0.0080832602 
0.0080842956 
0.0080853331 
0.0080863698 
0.0080874023 
0.0080884273 
 0.008089441 
0.0080904395 
0.0080914187 
0.0080923747 
0.0080933032 
0.0080942001 
0.0080950616 
0.0080958837 
0.0080966628 
0.0080973956 
0.0080980789 
  0.00809871 
0.0080992866 
0.0080998065 
0.0081002683 
0.0081006707 
0.0081010129 
0.0081012948 
0.0081015163 
0.0081016781 
0.0081017811 
0.0081018266 
0.0081018164 
0.0081017526 
0.0081016376 
 0.008101474 
0.0081012649 
0.0081010133 
0.0081007226 
0.0081003962 
0.0081000377 
0.0080996507 
0.0080992389 
0.0080988058 
0.0080983552 
0.0080978907 
0.0080974157 
0.0080969338 
0.0080964483 
0.0080959625 
0.0080954794 
0.0080950021 
0.0080945334 
0.0080940759 
0.0080936319 
0.0080932037 
0.0080927931 
0.0080924016 
0.0080920303 
0.0080916802 
0.0080913514 
 0.008091044 
0.0080907574 
0.0080904905 
0.0080902416 
0.0080900087 
 0.008089789 
0.0080895795 
0.0080893766 
0.0080891762 
0.0080889739 
0.0080887648 
 0.008088544 
0.0080883061 
0.0080880459 
0.0080877577 
0.0080874365 
0.0080870769 
0.0080866741 
0.0080862235 
0.0080857207 
0.0080851623 
0.0080845449 
 0.008083866 
0.0080831237 
0.0080823165 
0.0080814439 
0.0080805057 
0.0080795025 
0.0080784352 
0.0080773054 
 0.008076115 
0.0080748662 
0.0080735615 
0.0080722034 
0.0080707947 
 0.008069338 
0.0080678357 
0.0080662902 
0.0080647035 
0.0080630775 
0.0080614135 
0.0080597127 
0.0080579758 
0.0080562031 
0.0080543946 
  0.00805255 
0.0080506686 
0.0080487495 
0.0080467916 
0.0080447935 
0.0080427538 
 0.008040671 
0.0080385435 
0.0080363698 
0.0080341484 
 0.008031878 
0.0080295576 
0.0080271861 
0.0080247631 
0.0080222882 
0.0080197616 
0.0080171837 
0.0080145555 
0.0080118784 
0.0080091543 
0.0080063858 
0.0080035758 
0.0080007279 
0.0079978462 
0.0079949353 
0.0079920007 
 0.007989048 
0.0079860835 
0.0079831141 
 0.007980147 
0.0079771897 
0.0079742503 
0.0079713371 
0.0079684585 
0.0079656232 
0.0079628402 
0.0079601184 
0.0079574665 
0.0079548936 
0.0079524081 
0.0079500187 
0.0079477334 
  0.00794556 
0.0079435059 
0.0079415779 
0.0079397824 
 0.007938125 
0.0079366107 
0.0079352435 
0.0079340271 
 0.007932964 
 0.007932056 
0.0079313042 
0.0079307087 
0.0079302689 
0.0079299832 
0.0079298494 
0.0079298646 
0.0079300249 
 0.007930326 
0.0079307629 
0.0079313299 
 0.007932021 
0.0079328298 
0.0079337493 
0.0079347726 
0.0079358923 
 0.007937101 
0.0079383913 
 0.007939756 
 0.007941188 
0.0079426804 
0.0079442267 
0.0079458211 
0.0079474579 
0.0079491323 
0.0079508401 
0.0079525775 
0.0079543417 
0.0079561303 
0.0079579416 
0.0079597746 
0.0079616287 
0.0079635038 
0.0079654001 
0.0079673185 
0.0079692595 
0.0079712242 
0.0079732135 
0.0079752283 
0.0079772691 
0.0079793364 
0.0079814302 
0.0079835501 
0.0079856954 
0.0079878646 
0.0079900559 
0.0079922671 
0.0079944952 
 0.007996737 
0.0079989889 
0.0080012467 
0.0080035063 
0.0080057633 
 0.008008013 
0.0080102509 
0.0080124727 
0.0080146739 
0.0080168507 
0.0080189994 
0.0080211165 
0.0080231993 
0.0080252452 
0.0080272523 
0.0080292193 
0.0080311451 
0.0080330296 
0.0080348729 
0.0080366756 
0.0080384391 
 0.008040165 
0.0080418555 
0.0080435129 
0.0080451403 
0.0080467406 
0.0080483171 
0.0080498734 
0.0080514127 
0.0080529387 
0.0080544547 
0.0080559638 
0.0080574691 
0.0080589732 
0.0080604782 
0.0080619861 
0.0080634981 
0.0080650152 
0.0080665378 
0.0080680656 
0.0080695981 
0.0080711341 
0.0080726719 
0.0080742097 
 0.008075745 
0.0080772751 
0.0080787969 
0.0080803072 
0.0080818026 
0.0080832797 
0.0080847348 
0.0080861644 
0.0080875651 
0.0080889337 
 0.008090267 
 0.008091562 
0.0080928162 
0.0080940273 
0.0080951932 
0.0080963123 
0.0080973835 
 0.008098406 
0.0080993794 
0.0081003038 
0.0081011798 
0.0081020083 
0.0081027906 
0.0081035285 
0.0081042241 
0.0081048799 
0.0081054985 
 0.008106083 
0.0081066364 
0.0081071621 
0.0081076636 
0.0081081443 
0.0081086078 
0.0081090575 
0.0081094971 
0.0081099299 
0.0081103593 
0.0081107885 
0.0081112207 
0.0081116586 
0.0081121051 
0.0081125626 
0.0081130333 
0.0081135192 
0.0081140219 
0.0081145428 
0.0081150827 
0.0081156422 
0.0081162214 
0.0081168199 
0.0081174369 
0.0081180712 
0.0081187208 
0.0081193835 
0.0081200565 
0.0081207362 
0.0081214191 
0.0081221008 
0.0081227766 
0.0081234414 
0.0081240897 
0.0081247159 
0.0081253139 
0.0081258773 
0.0081263997 
0.0081268747 
0.0081272957 
0.0081276562 
0.0081279499 
0.0081281705 
 0.008128312 
0.0081283687 
0.0081283354 
0.0081282071 
0.0081279792 
 0.008127648 
  0.00812721 
0.0081266624 
0.0081260032 
0.0081252308 
0.0081243446 
0.0081233446 
0.0081222315 
0.0081210068 
0.0081196728 
0.0081182325 
0.0081166898 
0.0081150491 
0.0081133158 
0.0081114959 
0.0081095961 
0.0081076238 
0.0081055869 
0.0081034942 
0.0081013548 
0.0080991785 
0.0080969754 
0.0080947562 
0.0080925319 
0.0080903138 
0.0080881135 
0.0080859427 
0.0080838132 
0.0080817369 
0.0080797255 
0.0080777908 
0.0080759443 
0.0080741971 
0.0080725601 
0.0080710436 
0.0080696576 
0.0080684113 
0.0080673131 
0.0080663709 
0.0080655917 
0.0080649816 
0.0080645458 
0.0080642886 
0.0080642134 
0.0080643224 
0.0080646172 
0.0080650982 
 0.008065765 
0.0080666162 
0.0080676496 
0.0080688622 
0.0080702501 
0.0080718088 
 0.008073533 
0.0080754169 
0.0080774541 
0.0080796379 
0.0080819607 
0.0080844151 
0.0080869928 
0.0080896857 
0.0080924851 
0.0080953826 
0.0080983692 
0.0081014362 
0.0081045748 
0.0081077762 
0.0081110317 
0.0081143329 
0.0081176715 
0.0081210393 
0.0081244284 
0.0081278312 
0.0081312403 
0.0081346488 
0.0081380498 
 0.008141437 
0.0081448042 
0.0081481457 
0.0081514561 
0.0081547302 
0.0081579632 
0.0081611506 
0.0081642883 
0.0081673724 
0.0081703992 
0.0081733655 
0.0081762682 
0.0081791046 
0.0081818721 
0.0081845686 
0.0081871921 
 0.008189741 
0.0081922138 
0.0081946095 
0.0081969272 
0.0081991662 
0.0082013263 
0.0082034074 
0.0082054096 
0.0082073333 
0.0082091791 
0.0082109477 
0.0082126398 
0.0082142565 
0.0082157986 
0.0082172672 
0.0082186631 
0.0082199871 
0.0082212397 
0.0082224216 
0.0082235328 
0.0082245734 
 0.008225543 
 0.008226441 
0.0082272664 
 0.008228018 
0.0082286942 
0.0082292932 
0.0082298128 
0.0082302507 
0.0082306043 
0.0082308708 
0.0082310475 
0.0082311315 
0.0082311199 
0.0082310099 
0.0082307988 
0.0082304839 
0.0082300629 
0.0082295334 
0.0082288934 
0.0082281411 
0.0082272749 
0.0082262934 
0.0082251955 
0.0082239802 
0.0082226471 
0.0082211957 
0.0082196259 
0.0082179379 
0.0082161322 
0.0082142095 
 0.008212171 
0.0082100178 
0.0082077519 
0.0082053752 
0.0082028902 
0.0082002997 
0.0081976066 
0.0081948147 
0.0081919276 
0.0081889496 
0.0081858851 
0.0081827388 
0.0081795159 
0.0081762216 
0.0081728613 
0.0081694409 
0.0081659659 
0.0081624425 
0.0081588765 
0.0081552739 
0.0081516408 
0.0081479831 
0.0081443068 
0.0081406179 
0.0081369222 
0.0081332254 
0.0081295331 
0.0081258508 
0.0081221838 
0.0081185372 
0.0081149158 
0.0081113242 
0.0081077668 
0.0081042477 
0.0081007705 
0.0080973387 
0.0080939551 
0.0080906223 
0.0080873422 
0.0080841166 
0.0080809463 
0.0080778319 
0.0080747732 
0.0080717698 
0.0080688203 
0.0080659233 
0.0080630764 
 0.008060277 
0.0080575219 
0.0080548075 
0.0080521299 
0.0080494849 
0.0080468678 
0.0080442739 
0.0080416985 
0.0080391365 
0.0080365832 
0.0080340335 
0.0080314829 
0.0080289268 
0.0080263608 
0.0080237811 
0.0080211839 
0.0080185659 
0.0080159243 
0.0080132564 
  0.00801056 
0.0080078335 
0.0080050752 
0.0080022841 
0.0079994593 
0.0079966004 
0.0079937071 
0.0079907794 
0.0079878175 
0.0079848218 
0.0079817928 
0.0079787314 
0.0079756384 
0.0079725151 
0.0079693628 
0.0079661829 
0.0079629772 
0.0079597476 
0.0079564965 
0.0079532263 
0.0079499396 
0.0079466397 
0.0079433299 
0.0079400137 
0.0079366952 
0.0079333788 
0.0079300689 
0.0079267706 
0.0079234888 
0.0079202292 
0.0079169973 
0.0079137989 
0.0079106401 
 0.007907527 
0.0079044658 
0.0079014628 
0.0078985245 
0.0078956569 
0.0078928665 
0.0078901593 
0.0078875414 
0.0078850188 
0.0078825971 
0.0078802819 
0.0078780786 
0.0078759924 
0.0078740283 
0.0078721913 
0.0078704859 
0.0078689169 
0.0078674886 
0.0078662054 
0.0078650716 
0.0078640915 
0.0078632693 
0.0078626089 
0.0078621147 
0.0078617905 
0.0078616403 
 0.007861668 
0.0078618773 
0.0078622716 
0.0078628544 
0.0078636286 
0.0078645971 
0.0078657622 
0.0078671258 
0.0078686897 
0.0078704549 
 0.007872422 
0.0078745911 
0.0078769616 
0.0078795326 
0.0078823026 
0.0078852693 
0.0078884302 
 0.007891782 
 0.007895321 
0.0078990429 
0.0079029431 
0.0079070164 
 0.007911257 
0.0079156591 
 0.007920216 
0.0079249209 
0.0079297666 
0.0079347456 
0.0079398499 
0.0079450716 
0.0079504021 
0.0079558329 
0.0079613552 
0.0079669599 
 0.007972638 
0.0079783803 
0.0079841772 
0.0079900195 
0.0079958978 
0.0080018025 
0.0080077244 
0.0080136541 
0.0080195824 
0.0080255002 
0.0080313984 
0.0080372684 
0.0080431016 
0.0080488895 
0.0080546243 
0.0080602981 
0.0080659036 
0.0080714335 
0.0080768812 
0.0080822403 
0.0080875048 
 0.008092669 
0.0080977278 
0.0081026765 
0.0081075108 
0.0081122268 
0.0081168211 
 0.008121291 
 0.008125634 
0.0081298481 
0.0081339319 
0.0081378844 
0.0081417053 
0.0081453945 
0.0081489524 
0.0081523801 
0.0081556792 
0.0081588515 
0.0081618996 
0.0081648264 
0.0081676353 
0.0081703301 
0.0081729149 
0.0081753944 
0.0081777735 
0.0081800574 
0.0081822513 
 0.008184361 
0.0081863921 
0.0081883502 
 0.008190241 
0.0081920701 
0.0081938428 
0.0081955643 
0.0081972391 
0.0081988719 
0.0082004664 
0.0082020262 
0.0082035541 
0.0082050524 
0.0082065229 
0.0082079667 
0.0082093843 
0.0082107756 
  0.00821214 
0.0082134761 
0.0082147821 
0.0082160559 
0.0082172948 
0.0082184956 
0.0082196549 
0.0082207692 
0.0082218345 
0.0082228469 
0.0082238021 
0.0082246959 
0.0082255242 
0.0082262829 
0.0082269677 
0.0082275747 
0.0082281002 
0.0082285404 
 0.008228892 
0.0082291516 
0.0082293163 
0.0082293833 
0.0082293502 
0.0082292145 
0.0082289743 
0.0082286277 
0.0082281731 
 0.008227609 
0.0082269343 
0.0082261481 
0.0082252497 
0.0082242385 
0.0082231144 
0.0082218774 
0.0082205279 
0.0082190666 
0.0082174947 
0.0082158137 
0.0082140257 
0.0082121332 
0.0082101396 
0.0082080486 
0.0082058646 
0.0082035929 
0.0082012392 
0.0081988102 
0.0081963131 
0.0081937557 
0.0081911465 
0.0081884945 
0.0081858089 
0.0081830995 
 0.008180376 
0.0081776484 
0.0081749265 
  0.00817222 
 0.008169538 
0.0081668894 
0.0081642823 
0.0081617242 
0.0081592218 
0.0081567809 
0.0081544061 
0.0081521012 
0.0081498691 
0.0081477113 
0.0081456286 
0.0081436206 
0.0081416861 
 0.008139823 
0.0081380283 
0.0081362984 
0.0081346291 
0.0081330158 
0.0081314532 
 0.008129936 
0.0081284588 
0.0081270159 
 0.008125602 
0.0081242115 
0.0081228396 
0.0081214814 
0.0081201326 
0.0081187892 
0.0081174476 
 0.008116105 
0.0081147586 
0.0081134064 
0.0081120466 
0.0081106782 
   0.0081093 
0.0081079114 
0.0081065123 
0.0081051022 
0.0081036814 
0.0081022497 
0.0081008073 
0.0080993541 
  0.00809789 
0.0080964148 
0.0080949281 
0.0080934296 
0.0080919184 
0.0080903938 
0.0080888546 
0.0080872998 
 0.008085728 
0.0080841378 
 0.008082528 
0.0080808971 
0.0080792438 
0.0080775667 
0.0080758648 
0.0080741371 
0.0080723826 
0.0080706006 
0.0080687907 
0.0080669526 
0.0080650863 
 0.008063192 
0.0080612701 
0.0080593213 
0.0080573466 
 0.008055347 
0.0080533242 
0.0080512798 
 0.008049216 
0.0080471351 
  0.00804504 
0.0080429338 
0.0080408202 
0.0080387033 
0.0080365876 
0.0080344781 
0.0080323804 
0.0080303005 
0.0080282448 
0.0080262201 
0.0080242337 
0.0080222932 
0.0080204064 
0.0080185815 
0.0080168266 
0.0080151499 
0.0080135597 
0.0080120639 
0.0080106705 
 0.008009387 
0.0080082204 
0.0080071776 
0.0080062645 
0.0080054868 
0.0080048492 
0.0080043558 
  0.00800401 
0.0080038143 
0.0080037704 
0.0080038791 
0.0080041405 
0.0080045536 
0.0080051168 
0.0080058277 
 0.008006683 
0.0080076787 
0.0080088102 
0.0080100721 
0.0080114586 
0.0080129631 
0.0080145788 
0.0080162982 
0.0080181135 
0.0080200166 
 0.008021999 
0.0080240523 
0.0080261673 
0.0080283351 
0.0080305465 
0.0080327921 
0.0080350628 
0.0080373492 
 0.008039642 
0.0080419319 
0.0080442096 
 0.008046466 
0.0080486921 
 0.008050879 
0.0080530179 
0.0080551001 
0.0080571172 
0.0080590608 
0.0080609228 
0.0080626953 
0.0080643706 
0.0080659411 
0.0080673998 
0.0080687397 
0.0080699541 
0.0080710369 
0.0080719821 
0.0080727844 
0.0080734388 
0.0080739408 
0.0080742864 
0.0080744723 
0.0080744958 
0.0080743547 
0.0080740478 
0.0080735745 
0.0080729348 
0.0080721298 
0.0080711614 
0.0080700322 
0.0080687459 
0.0080673068 
0.0080657203 
0.0080639923 
0.0080621299 
0.0080601407 
 0.008058033 
0.0080558156 
0.0080534981 
0.0080510902 
0.0080486022 
0.0080460445 
0.0080434277 
0.0080407625 
0.0080380595 
 0.008035329 
0.0080325813 
0.0080298263 
0.0080270734 
0.0080243316 
0.0080216094 
0.0080189144 
 0.008016254 
0.0080136346 
0.0080110619 
 0.008008541 
0.0080060762 
0.0080036709 
0.0080013281 
0.0079990499 
0.0079968376 
0.0079946921 
0.0079926135 
0.0079906016 
0.0079886555 
0.0079867739 
0.0079849551 
0.0079831971 
0.0079814977 
0.0079798545 
0.0079782648 
0.0079767259 
0.0079752351 
0.0079737899 
0.0079723877 
0.0079710261 
 0.007969703 
0.0079684164 
0.0079671645 
0.0079659459 
0.0079647595 
0.0079636044 
0.0079624801 
0.0079613863 
 0.007960323 
0.0079592905 
0.0079582896 
0.0079573208 
0.0079563853 
0.0079554841 
0.0079546187 
0.0079537902 
0.0079530002 
  0.00795225 
 0.007951541 
0.0079508746 
0.0079502518 
0.0079496738 
0.0079491413 
0.0079486552 
0.0079482158 
0.0079478235 
0.0079474784 
0.0079471805 
0.0079469297 
0.0079467255 
0.0079465674 
0.0079464549 
0.0079463874 
0.0079463642 
0.0079463845 
0.0079464476 
0.0079465528 
0.0079466993 
0.0079468864 
0.0079471133 
0.0079473793 
0.0079476834 
0.0079480249 
0.0079484027 
0.0079488158 
0.0079492631 
0.0079497433 
0.0079502552 
0.0079507971 
0.0079513676 
 0.007951965 
0.0079525876 
0.0079532336 
0.0079539013 
0.0079545887 
0.0079552944 
0.0079560165 
0.0079567535 
 0.007957504 
0.0079582667 
0.0079590404 
0.0079598242 
0.0079606171 
0.0079614183 
0.0079622274 
0.0079630436 
0.0079638665 
0.0079646955 
0.0079655301 
0.0079663695 
 0.007967213 
0.0079680597 
0.0079689085 
0.0079697581 
0.0079706071 
0.0079714537 
0.0079722961 
0.0079731321 
0.0079739594 
0.0079747754 
0.0079755774 
0.0079763628 
0.0079771285 
0.0079778715 
0.0079785888 
0.0079792771 
0.0079799335 
0.0079805546 
0.0079811372 
0.0079816783 
0.0079821748 
0.0079826235 
0.0079830214 
0.0079833658 
0.0079836536 
0.0079838823 
 0.007984049 
0.0079841513 
0.0079841864 
0.0079841521 
0.0079840458 
0.0079838654 
0.0079836087 
0.0079832735 
0.0079828578 
0.0079823598 
0.0079817778 
0.0079811103 
0.0079803559 
0.0079795136 
0.0079785826 
0.0079775625 
0.0079764534 
0.0079752555 
0.0079739698 
0.0079725977 
0.0079711411 
0.0079696026 
0.0079679852 
0.0079662926 
0.0079645291 
0.0079626995 
0.0079608093 
0.0079588641 
0.0079568704 
0.0079548349 
0.0079527645 
0.0079506665 
0.0079485485 
0.0079464182 
0.0079442831 
0.0079421512 
  0.00794003 
0.0079379272 
0.0079358503 
0.0079338067 
0.0079318034 
0.0079298475 
0.0079279456 
0.0079261042 
0.0079243293 
0.0079226269 
0.0079210027 
 0.007919462 
0.0079180099 
0.0079166513 
0.0079153907 
0.0079142324 
0.0079131805 
0.0079122387 
0.0079114106 
0.0079106994 
0.0079101081 
0.0079096396 
0.0079092964 
0.0079090809 
0.0079089952 
0.0079090411 
0.0079092203 
0.0079095341 
0.0079099835 
0.0079105695 
0.0079112922 
0.0079121519 
0.0079131481 
0.0079142801 
0.0079155467 
0.0079169461 
0.0079184762 
 0.007920134 
0.0079219161 
0.0079238186 
0.0079258367 
 0.007927965 
0.0079301977 
 0.007932528 
0.0079349489 
0.0079374526 
0.0079400306 
0.0079426742 
0.0079453739 
0.0079481201 
0.0079509027 
0.0079537112 
0.0079565351 
0.0079593637 
0.0079621862 
0.0079649917 
0.0079677698 
0.0079705098 
0.0079732016 
0.0079758353 
0.0079784015 
0.0079808913 
0.0079832963 
0.0079856089 
0.0079878219 
0.0079899292 
0.0079919251 
0.0079938051 
0.0079955651 
 0.007997202 
0.0079987136 
0.0080000984 
0.0080013555 
 0.008002485 
0.0080034875 
0.0080043644 
0.0080051176 
0.0080057495 
0.0080062634 
0.0080066627 
0.0080069515 
0.0080071341 
0.0080072153 
0.0080072003 
0.0080070943 
 0.008006903 
0.0080066323 
0.0080062882 
0.0080058769 
0.0080054046 
0.0080048775 
 0.008004302 
0.0080036842 
0.0080030301 
0.0080023458 
0.0080016368 
0.0080009085 
0.0080001661 
0.0079994143 
0.0079986574 
0.0079978993 
0.0079971435 
0.0079963931 
0.0079956504 
0.0079949177 
0.0079941965 
0.0079934882 
0.0079927936 
0.0079921132 
0.0079914473 
0.0079907958 
0.0079901584 
0.0079895345 
0.0079889237 
0.0079883252 
0.0079877382 
 0.007987162 
0.0079865958 
0.0079860391 
0.0079854915 
0.0079849525 
 0.007984422 
0.0079839001 
0.0079833873 
 0.007982884 
0.0079823913 
0.0079819103 
0.0079814425 
0.0079809895 
0.0079805535 
0.0079801366 
0.0079797415 
0.0079793708 
0.0079790275 
0.0079787148 
0.0079784361 
0.0079781948 
0.0079779946 
0.0079778393 
0.0079777326 
0.0079776784 
0.0079776806 
0.0079777428 
0.0079778687 
0.0079780617 
0.0079783252 
0.0079786621 
 0.007979075 
0.0079795662 
0.0079801375 
0.0079807902 
0.0079815252 
0.0079823426 
0.0079832422 
 0.007984223 
0.0079852835 
0.0079864214 
 0.007987634 
0.0079889178 
0.0079902687 
0.0079916823 
0.0079931533 
0.0079946762 
 0.007996245 
0.0079978531 
0.0079994938 
0.0080011599 
0.0080028441 
0.0080045388 
0.0080062364 
 0.008007929 
0.0080096087 
0.0080112679 
0.0080128984 
0.0080144927 
0.0080160428 
0.0080175413 
0.0080189807 
0.0080203538 
0.0080216535 
0.0080228731 
 0.008024006 
0.0080250459 
0.0080259872 
0.0080268242 
 0.008027552 
0.0080281659 
0.0080286621 
0.0080290369 
0.0080292876 
 0.008029412 
0.0080294085 
0.0080292765 
0.0080290159 
0.0080286278 
0.0080281137 
0.0080274764 
0.0080267192 
0.0080258464 
0.0080248632 
0.0080237755 
0.0080225897 
0.0080213132 
0.0080199538 
  0.00801852 
0.0080170204 
0.0080154644 
0.0080138612 
0.0080122203 
0.0080105514 
0.0080088638 
0.0080071672 
0.0080054706 
0.0080037832 
0.0080021136 
  0.00800047 
0.0079988606 
0.0079972927 
0.0079957737 
  0.00799431 
0.0079929079 
 0.007991573 
0.0079903105 
 0.007989125 
0.0079880206 
0.0079870008 
0.0079860686 
0.0079852265 
0.0079844761 
0.0079838188 
0.0079832551 
0.0079827851 
 0.007982408 
0.0079821228 
0.0079819276 
0.0079818201 
0.0079817973 
0.0079818558 
0.0079819918 
 0.007982201 
0.0079824787 
0.0079828201 
0.0079832198 
0.0079836726 
 0.007984173 
0.0079847155 
0.0079852949 
0.0079859057 
 0.007986543 
0.0079872018 
0.0079878778 
0.0079885667 
0.0079892649 
 0.007989969 
0.0079906762 
0.0079913841 
0.0079920908 
0.0079927949 
0.0079934954 
0.0079941917 
0.0079948835 
0.0079955711 
0.0079962547 
0.0079969349 
0.0079976125 
0.0079982885 
0.0079989637 
0.0079996392 
 0.008000316 
0.0080009951 
0.0080016772 
0.0080023632 
0.0080030537 
0.0080037493 
  0.00800445 
0.0080051562 
0.0080058676 
0.0080065839 
0.0080073047 
0.0080080292 
0.0080087565 
0.0080094856 
0.0080102154 
0.0080109443 
 0.008011671 
0.0080123937 
0.0080131107 
0.0080138204 
0.0080145208 
  0.00801521 
0.0080158862 
0.0080165475 
0.0080171922 
0.0080178184 
0.0080184245 
 0.008019009 
0.0080195703 
0.0080201072 
0.0080206186 
0.0080211033 
0.0080215604 
0.0080219894 
0.0080223897 
0.0080227609 
 0.008023103 
 0.008023416 
0.0080237003 
0.0080239564 
0.0080241851 
0.0080243875 
0.0080245648 
0.0080247187 
0.0080248512 
0.0080249646 
0.0080250614 
0.0080251447 
0.0080252178 
0.0080252844 
0.0080253484 
0.0080254144 
0.0080254871 
0.0080255716 
0.0080256733 
0.0080257976 
0.0080259505 
0.0080261378 
0.0080263656 
0.0080266397 
0.0080269661 
0.0080273506 
0.0080277986 
0.0080283155 
 0.008028906 
0.0080295745 
0.0080303247 
  0.00803116 
0.0080320829 
0.0080330953 
0.0080341986 
0.0080353932 
0.0080366791 
0.0080380554 
0.0080395206 
0.0080410725 
0.0080427084 
0.0080444249 
0.0080462182 
 0.008048084 
0.0080500177 
0.0080520142 
0.0080540683 
0.0080561743 
0.0080583265 
 0.008060519 
0.0080627459 
0.0080650011 
0.0080672785 
 0.008069572 
0.0080718755 
 0.008074183 
0.0080764884 
0.0080787857 
0.0080810691 
0.0080833326 
0.0080855705 
0.0080877772 
 0.008089947 
0.0080920745 
0.0080941546 
0.0080961821 
0.0080981523 
0.0081000607 
0.0081019029 
0.0081036752 
0.0081053739 
 0.008106996 
0.0081085387 
0.0081099997 
0.0081113772 
0.0081126697 
0.0081138761 
0.0081149956 
0.0081160277 
0.0081169724 
0.0081178295 
 0.008118599 
 0.008119281 
0.0081198754 
0.0081203822 
0.0081208007 
0.0081211304 
0.0081213701 
0.0081215183 
0.0081215729 
0.0081215312 
0.0081213902 
0.0081211458 
0.0081207938 
0.0081203292 
0.0081197463 
0.0081190391 
0.0081182011 
0.0081172253 
0.0081161044 
0.0081148309 
0.0081133968 
0.0081117945 
0.0081100162 
 0.008108054 
0.0081059005 
0.0081035485 
0.0081009912 
0.0080982224 
0.0080952365 
0.0080920284 
 0.008088594 
0.0080849301 
0.0080810342 
0.0080769049 
0.0080725419 
0.0080679459 
0.0080631186 
 0.008058063 
0.0080527831 
0.0080472841 
0.0080415722 
0.0080356549 
0.0080295404 
0.0080232383 
 0.008016759 
0.0080101139 
0.0080033152 
 0.007996376 
0.0079893101 
0.0079821318 
0.0079748562 
0.0079674987 
0.0079600752 
0.0079526017 
0.0079450947 
0.0079375705 
0.0079300456 
0.0079225365 
0.0079150594 
0.0079076306 
0.0079002658 
0.0078929806 
0.0078857902 
0.0078787092 
0.0078717519 
 0.007864932 
0.0078582627 
0.0078517565 
0.0078454254 
0.0078392808 
0.0078333333 
 0.007827593 
0.0078220692 
0.0078167706 
0.0078117052 
0.0078068802 
0.0078023023 
0.0077979772 
  0.00779391 
 0.007790105 
0.0077865657 
0.0077832948 
 0.007780294 
0.0077775645 
0.0077751064 
0.0077729188 
0.0077710003 
0.0077693481 
0.0077679589 
0.0077668283 
 0.007765951 
 0.007765321 
0.0077649313 
0.0077647743 
0.0077648416 
0.0077651241 
0.0077656122 
0.0077662959 
0.0077671644 
0.0077682071 
0.0077694127 
0.0077707701 
0.0077722679 
 0.007773895 
0.0077756402 
0.0077774927 
0.0077794418 
0.0077814775 
0.0077835899 
0.0077857698 
0.0077880086 
0.0077902982 
0.0077926312 
0.0077950009 
0.0077974012 
0.0077998269 
0.0078022733 
0.0078047366 
0.0078072137 
0.0078097023 
0.0078122007 
0.0078147079 
0.0078172238 
0.0078197487 
0.0078222835 
0.0078248298 
0.0078273895 
0.0078299651 
0.0078325593 
0.0078351752 
 0.007837816 
 0.007840485 
0.0078431856 
0.0078459209 
0.0078486942 
 0.007851508 
0.0078543651 
0.0078572674 
0.0078602164 
0.0078632133 
0.0078662585 
 0.007869352 
 0.007872493 
0.0078756801 
0.0078789113 
0.0078821839 
0.0078854944 
0.0078888389 
 0.007892213 
0.0078956114 
0.0078990285 
0.0079024581 
0.0079058937 
0.0079093282 
0.0079127542 
0.0079161642 
0.0079195503 
0.0079229043 
 0.007926218 
0.0079294831 
0.0079326913 
0.0079358341 
0.0079389032 
0.0079418905 
 0.007944788 
0.0079475877 
0.0079502822 
0.0079528642 
0.0079553268 
0.0079576634 
0.0079598677 
0.0079619341 
0.0079638572 
 0.007965632 
0.0079672543 
  0.00796872 
0.0079700254 
0.0079711675 
0.0079721435 
0.0079729509 
0.0079735878 
0.0079740522 
0.0079743428 
0.0079744585 
0.0079743982 
0.0079741614 
0.0079737475 
0.0079731564 
 0.007972388 
0.0079714423 
0.0079703199 
0.0079690212 
0.0079675469 
0.0079658982 
 0.007964076 
0.0079620819 
0.0079599175 
0.0079575848 
 0.007955086 
0.0079524237 
0.0079496008 
0.0079466205 
0.0079434866 
 0.007940203 
0.0079367742 
0.0079332053 
0.0079295018 
0.0079256695 
0.0079217149 
 0.007917645 
0.0079134673 
0.0079091898 
0.0079048211 
0.0079003702 
0.0078958465 
  0.00789126 
0.0078866209 
0.0078819398 
0.0078772277 
0.0078724955 
0.0078677545 
0.0078630161 
0.0078582916 
0.0078535922 
0.0078489292 
0.0078443135 
0.0078397556 
 0.007835266 
0.0078308546 
0.0078265309 
0.0078223039 
 0.007818182 
0.0078141732 
0.0078102847 
0.0078065232 
0.0078028947 
0.0077994047 
0.0077960578 
0.0077928581 
0.0077898092 
 0.007786914 
0.0077841746 
0.0077815929 
  0.00777917 
0.0077769066 
 0.007774803 
0.0077728589 
0.0077710735 
0.0077694458 
0.0077679744 
0.0077666574 
0.0077654929 
0.0077644785 
0.0077636115 
0.0077628892 
0.0077623085 
0.0077618663 
 0.007761559 
0.0077613833 
0.0077613353 
0.0077614112 
0.0077616072 
0.0077619191 
0.0077623428 
0.0077628741 
0.0077635085 
0.0077642417 
0.0077650689 
0.0077659857 
0.0077669873 
0.0077680689 
0.0077692257 
0.0077704526 
0.0077717446 
0.0077730967 
0.0077745036 
0.0077759601 
 0.007777461 
 0.007779001 
0.0077805749 
0.0077821773 
0.0077838031 
 0.007785447 
 0.007787104 
0.0077887689 
0.0077904369 
 0.007792103 
0.0077937626 
0.0077954112 
0.0077970442 
0.0077986573 
0.0078002463 
 0.007801807 
0.0078033356 
 0.007804828 
0.0078062804 
0.0078076888 
0.0078090497 
0.0078103591 
0.0078116134 
0.0078128088 
0.0078139418 
0.0078150087 
0.0078160058 
0.0078169298 
0.0078177771 
0.0078185445 
 0.007819229 
0.0078198275 
0.0078203375 
0.0078207565 
0.0078210826 
0.0078213141 
0.0078214497 
0.0078214887 
0.0078214307 
0.0078212759 
 0.007821025 
0.0078206792 
0.0078202401 
0.0078197098 
0.0078190909 
0.0078183862 
0.0078175991 
0.0078167328 
0.0078157911 
0.0078147774 
0.0078136954 
0.0078125486 
  0.00781134 
0.0078100726 
0.0078087488 
0.0078073706 
0.0078059393 
0.0078044556 
0.0078029196 
0.0078013307 
0.0077996874 
0.0077979878 
 0.007796229 
0.0077944078 
  0.00779252 
0.0077905611 
0.0077885259 
0.0077864089 
0.0077842041 
0.0077819052 
0.0077795059 
0.0077769996 
0.0077743798 
0.0077716399 
0.0077687737 
0.0077657752 
0.0077626389 
0.0077593595 
0.0077559327 
0.0077523546 
0.0077486222 
0.0077447333 
0.0077406865 
0.0077364816 
0.0077321193 
0.0077276012 
0.0077229302 
0.0077181101 
0.0077131458 
0.0077080431 
0.0077028088 
0.0076974508 
0.0076919774 
0.0076863982 
 0.007680723 
0.0076749624 
0.0076691277 
0.0076632303 
 0.007657282 
 0.007651295 
0.0076452814 
0.0076392535 
0.0076332236 
0.0076272039 
0.0076212062 
0.0076152423 
0.0076093237 
0.0076034615 
0.0075976664 
0.0075919486 
0.0075863179 
0.0075807836 
0.0075753544 
0.0075700386 
0.0075648437 
0.0075597769 
0.0075548446 
0.0075500527 
0.0075454067 
0.0075409114 
0.0075365709 
0.0075323892 
0.0075283696 
0.0075245148 
0.0075208273 
0.0075173091 
0.0075139616 
0.0075107862 
0.0075077835 
0.0075049541 
 0.007502298 
0.0074998149 
0.0074975045 
0.0074953657 
0.0074933976 
0.0074915987 
0.0074899673 
0.0074885016 
0.0074871994 
0.0074860583 
0.0074850757 
0.0074842486 
 0.007483574 
0.0074830487 
0.0074826691 
0.0074824317 
0.0074823327 
0.0074823683 
0.0074825348 
0.0074828283 
 0.007483245 
0.0074837814 
0.0074844337 
0.0074851988 
0.0074860734 
0.0074870548 
0.0074881404 
0.0074893279 
0.0074906154 
0.0074920014 
0.0074934847 
0.0074950643 
0.0074967397 
0.0074985107 
0.0075003772 
0.0075023394 
0.0075043978 
0.0075065528 
0.0075088051 
0.0075111555 
0.0075136047 
0.0075161533 
0.0075188019 
 0.007521551 
0.0075244009 
0.0075273515 
0.0075304028 
0.0075335543 
0.0075368053 
0.0075401545 
0.0075436005 
0.0075471413 
0.0075507744 
0.0075544969 
0.0075583053 
0.0075621955 
0.0075661629 
0.0075702023 
 0.007574308 
0.0075784736 
0.0075826922 
0.0075869563 
 0.007591258 
0.0075955891 
0.0075999408 
 0.007604304 
0.0076086696 
 0.007613028 
0.0076173697 
0.0076216852 
0.0076259651 
0.0076301999 
0.0076343806 
0.0076384984 
0.0076425446 
0.0076465114 
 0.007650391 
0.0076541763 
0.0076578608 
0.0076614385 
 0.007664904 
0.0076682525 
0.0076714796 
0.0076745817 
0.0076775558 
0.0076803992 
0.0076831098 
0.0076856862 
0.0076881272 
0.0076904321 
0.0076926006 
0.0076946327 
0.0076965288 
0.0076982896 
0.0076999163 
0.0077014101 
0.0077027726 
0.0077040059 
0.0077051121 
 0.007706094 
0.0077069545 
 0.007707697 
0.0077083254 
0.0077088437 
0.0077092567 
0.0077095695 
0.0077097875 
 0.007709917 
0.0077099642 
0.0077099362 
0.0077098402 
0.0077096837 
0.0077094749 
0.0077092219 
0.0077089331 
0.0077086169 
0.0077082821 
0.0077079372 
0.0077075908 
0.0077072511 
0.0077069262 
 0.007706624 
0.0077063518 
0.0077061166 
0.0077059246 
0.0077057817 
0.0077056929 
0.0077056626 
0.0077056945 
0.0077057914 
0.0077059551 
0.0077061869 
 0.007706487 
0.0077068546 
0.0077072884 
0.0077077861 
0.0077083445 
0.0077089598 
0.0077096274 
0.0077103423 
0.0077110988 
0.0077118905 
0.0077127111 
0.0077135537 
0.0077144112 
0.0077152765 
0.0077161426 
0.0077170023 
0.0077178489 
 0.007718676 
0.0077194775 
0.0077202479 
0.0077209822 
0.0077216762 
0.0077223264 
  0.00772293 
0.0077234852 
0.0077239912 
 0.007724448 
0.0077248564 
0.0077252185 
 0.007725537 
0.0077258158 
0.0077260594 
0.0077262733 
0.0077264637 
0.0077266372 
0.0077268014 
0.0077269641 
0.0077271335 
0.0077273181 
0.0077275267 
0.0077277679 
0.0077280506 
0.0077283832 
0.0077287741 
0.0077292312 
0.0077297618 
0.0077303731 
0.0077310711 
0.0077318614 
 0.007732749 
0.0077337375 
  0.00773483 
0.0077360286 
0.0077373342 
0.0077387468 
0.0077402655 
0.0077418881 
0.0077436117 
0.0077454321 
0.0077473444 
0.0077493428 
0.0077514204 
0.0077535699 
0.0077557829 
0.0077580506 
0.0077603636 
 0.007762712 
0.0077650856 
0.0077674737 
0.0077698658 
0.0077722509 
0.0077746183 
0.0077769571 
0.0077792567 
0.0077815067 
0.0077836972 
0.0077858184 
0.0077878611 
0.0077898165 
0.0077916767 
0.0077934342 
0.0077950822 
0.0077966148 
0.0077980267 
0.0077993135 
0.0078004717 
0.0078014983 
0.0078023917 
0.0078031506 
 0.007803775 
0.0078042654 
0.0078046232 
0.0078048507 
0.0078049508 
0.0078049273 
0.0078047846 
0.0078045275 
0.0078041618 
0.0078036935 
0.0078031294 
0.0078024765 
0.0078017424 
0.0078009347 
0.0078000618 
 0.007799132 
0.0077981539 
0.0077971363 
0.0077960881 
0.0077950182 
0.0077939356 
 0.007792849 
0.0077917671 
0.0077906984 
 0.007789651 
0.0077886326 
0.0077876505 
0.0077867115 
0.0077858217 
0.0077849867 
0.0077842111 
 0.007783499 
0.0077828536 
0.0077822774 
0.0077817719 
0.0077813379 
0.0077809755 
0.0077806837 
0.0077804612 
0.0077803056 
0.0077802142 
0.0077801834 
0.0077802094 
0.0077802877 
0.0077804135 
0.0077805819 
0.0077807876 
 0.007781025 
0.0077812888 
0.0077815733 
0.0077818729 
0.0077821822 
0.0077824957 
0.0077828081 
0.0077831142 
0.0077834092 
0.0077836881 
0.0077839465 
  0.00778418 
0.0077843848 
 0.007784557 
0.0077846933 
0.0077847908 
 0.007784847 
0.0077848598 
0.0077848278 
  0.00778475 
 0.007784626 
0.0077844564 
0.0077842421 
0.0077839849 
0.0077836875 
 0.007783353 
0.0077829855 
0.0077825899 
0.0077821714 
0.0077817362 
0.0077812907 
0.0077808419 
 0.007780397 
0.0077799633 
0.0077795482 
 0.007779159 
0.0077788026 
0.0077784856 
0.0077782141 
0.0077779936 
0.0077778287 
0.0077777233 
0.0077776802 
0.0077777013 
0.0077777876 
0.0077779388 
 0.007778154 
0.0077784307 
0.0077787661 
 0.007779156 
0.0077795955 
 0.007780079 
0.0077806002 
 0.007781152 
0.0077817271 
0.0077823176 
0.0077829154 
0.0077835122 
0.0077840995 
0.0077846688 
0.0077852116 
0.0077857196 
0.0077861844 
 0.007786598 
0.0077869525 
0.0077872406 
0.0077874548 
0.0077875881 
0.0077876339 
0.0077875857 
0.0077874373 
0.0077871829 
0.0077868168 
0.0077863339 
 0.007785729 
0.0077849973 
0.0077841344 
0.0077831361 
0.0077819984 
 0.007780718 
0.0077792914 
0.0077777161 
0.0077759894 
0.0077741097 
0.0077720753 
0.0077698853 
0.0077675395 
 0.007765038 
0.0077623817 
0.0077595721 
0.0077566112 
 0.007753502 
0.0077502479 
0.0077468531 
0.0077433224 
0.0077396613 
0.0077358759 
0.0077319731 
0.0077279601 
0.0077238448 
0.0077196356 
0.0077153415 
0.0077109716 
0.0077065359 
0.0077020441 
0.0076975067 
0.0076929342 
0.0076883373 
0.0076837269 
0.0076791139 
0.0076745091 
0.0076699236 
0.0076653679 
0.0076608528 
0.0076563888 
0.0076519859 
0.0076476541 
0.0076434029 
0.0076392414 
0.0076351784 
0.0076312223 
0.0076273808 
0.0076236613 
0.0076200705 
0.0076166149 
0.0076133001 
0.0076101313 
0.0076071134 
0.0076042505 
0.0076015463 
0.0075990041 
0.0075966267 
0.0075944163 
 0.007592375 
0.0075905042 
0.0075888049 
0.0075872779 
0.0075859234 
0.0075847415 
 0.007583732 
 0.007582894 
0.0075822269 
0.0075817293 
0.0075813999 
 0.007581237 
0.0075812388 
0.0075814032 
0.0075817279 
0.0075822105 
0.0075828484 
0.0075836386 
0.0075845782 
0.0075856639 
0.0075868922 
0.0075882595 
0.0075897618 
0.0075913951 
0.0075931549 
0.0075950367 
0.0075970357 
0.0075991469 
 0.007601365 
0.0076036846 
0.0076061002 
 0.007608606 
0.0076111961 
0.0076138644 
0.0076166048 
0.0076194109 
0.0076222763 
0.0076251943 
0.0076281584 
0.0076311617 
0.0076341974 
0.0076372586 
0.0076403384 
0.0076434296 
0.0076465252 
 0.007649618 
 0.007652701 
0.0076557669 
0.0076588087 
0.0076618193 
0.0076647917 
 0.007667719 
0.0076705943 
0.0076734108 
0.0076761621 
0.0076788415 
0.0076814429 
0.0076839599 
0.0076863867 
0.0076887173 
0.0076909464 
0.0076930684 
0.0076950785 
0.0076969718 
0.0076987441 
0.0077003912 
0.0077019097 
0.0077032965 
 0.007704549 
0.0077056653 
 0.007706644 
0.0077074842 
0.0077081859 
0.0077087498 
 0.007709177 
0.0077094697 
0.0077096303 
0.0077096622 
0.0077095694 
0.0077093566 
0.0077090288 
0.0077085917 
0.0077080516 
0.0077074151 
0.0077066892 
0.0077058812 
 0.007704999 
0.0077040504 
0.0077030436 
 0.007701987 
 0.007700889 
0.0076997584 
0.0076986037 
0.0076974339 
0.0076962577 
 0.007695084 
0.0076939216 
0.0076927795 
0.0076916664 
0.0076905912 
0.0076895626 
0.0076885892 
0.0076876795 
0.0076868421 
0.0076860851 
0.0076854167 
0.0076848445 
0.0076843761 
 0.007684019 
0.0076837799 
0.0076836655 
0.0076836818 
0.0076838347 
0.0076841292 
0.0076845704 
0.0076851622 
0.0076859086 
0.0076868127 
 0.007687877 
0.0076891038 
0.0076904943 
0.0076920497 
0.0076937703 
0.0076956559 
0.0076977059 
0.0076999191 
0.0077022938 
0.0077048278 
0.0077075185 
0.0077103628 
0.0077133572 
0.0077164976 
0.0077197797 
0.0077231987 
0.0077267493 
 0.007730426 
0.0077342226 
0.0077381329 
0.0077421501 
0.0077462673 
 0.007750477 
0.0077547718 
0.0077591437 
0.0077635847 
0.0077680869 
0.0077726419 
0.0077772414 
0.0077818771 
0.0077865407 
0.0077912239 
0.0077959186 
0.0078006168 
0.0078053104 
 0.007809992 
0.0078146539 
0.0078192888 
0.0078238898 
  0.00782845 
0.0078329629 
0.0078374221 
0.0078418215 
0.0078461554 
0.0078504182 
0.0078546046 
0.0078587097 
0.0078627286 
0.0078666571 
0.0078704911 
0.0078742268 
0.0078778609 
0.0078813903 
0.0078848122 
0.0078881244 
 0.007891325 
0.0078944123 
0.0078973853 
 0.007900243 
0.0079029851 
0.0079056116 
0.0079081229 
0.0079105195 
0.0079128026 
0.0079149734 
0.0079170336 
 0.007918985 
0.0079208298 
0.0079225702 
0.0079242087 
 0.007925748 
0.0079271906 
0.0079285393 
0.0079297969 
0.0079309657 
0.0079320484 
0.0079330473 
0.0079339645 
0.0079348017 
0.0079355605 
0.0079362421 
0.0079368471 
0.0079373758 
0.0079378281 
0.0079382033 
0.0079385003 
0.0079387176 
 0.007938853 
0.0079389041 
0.0079388682 
0.0079387421 
0.0079385226 
0.0079382063 
0.0079377896 
 0.007937269 
0.0079366414 
0.0079359037 
0.0079350533 
0.0079340882 
0.0079330068 
0.0079318084 
0.0079304932 
0.0079290621 
0.0079275172 
0.0079258615 
0.0079240991 
0.0079222351 
0.0079202758 
0.0079182286 
0.0079161017 
0.0079139043 
0.0079116467 
0.0079093398 
 0.007906995 
0.0079046247 
0.0079022413 
0.0078998576 
0.0078974868 
0.0078951418 
0.0078928357 
 0.007890581 
  0.00788839 
0.0078862744 
0.0078842453 
 0.007882313 
0.0078804867 
 0.007878775 
0.0078771852 
0.0078757235 
 0.007874395 
0.0078732034 
0.0078721514 
0.0078712401 
0.0078704698 
 0.007869839 
0.0078693456 
0.0078689858 
 0.007868755 
0.0078686475 
0.0078686567 
0.0078687752 
0.0078689947 
0.0078693064 
0.0078697008 
0.0078701683 
0.0078706987 
0.0078712819 
0.0078719078 
0.0078725661 
0.0078732471 
0.0078739413 
0.0078746398 
0.0078753341 
0.0078760166 
0.0078766803 
0.0078773194 
0.0078779285 
0.0078785038 
0.0078790418 
0.0078795407 
0.0078799992 
0.0078804172 
0.0078807955 
0.0078811359 
0.0078814412 
0.0078817148 
0.0078819609 
0.0078821847 
0.0078823916 
 0.007882588 
0.0078827804 
0.0078829761 
0.0078831825 
0.0078834073 
0.0078836583 
0.0078839434 
0.0078842705 
0.0078846472 
0.0078850812 
0.0078855794 
0.0078861486 
0.0078867948 
0.0078875236 
0.0078883398 
0.0078892472 
0.0078902489 
 0.007891347 
0.0078925426 
0.0078938359 
0.0078952258 
0.0078967104 
0.0078982868 
0.0078999508 
0.0079016976 
0.0079035211 
0.0079054146 
0.0079073706 
0.0079093808 
0.0079114362 
0.0079135274 
0.0079156444 
 0.007917777 
0.0079199145 
0.0079220462 
0.0079241611 
0.0079262483 
0.0079282969 
0.0079302962 
0.0079322356 
0.0079341048 
0.0079358937 
0.0079375927 
0.0079391927 
0.0079406847 
0.0079420606 
0.0079433126 
0.0079444336 
0.0079454168 
0.0079462565 
0.0079469473 
0.0079474847 
0.0079478646 
 0.007948084 
0.0079481403 
 0.007948032 
0.0079477578 
0.0079473177 
 0.007946712 
 0.007945942 
0.0079450096 
0.0079439171 
 0.007942668 
 0.007941266 
0.0079397154 
0.0079380214 
0.0079361894 
0.0079342254 
0.0079321359 
0.0079299276 
 0.007927608 
0.0079251842 
0.0079226641 
0.0079200553 
0.0079173659 
0.0079146035 
0.0079117762 
0.0079088916 
0.0079059573 
0.0079029807 
0.0078999687 
0.0078969284 
0.0078938661 
0.0078907882 
0.0078877004 
0.0078846085 
0.0078815176 
0.0078784327 
0.0078753585 
0.0078722994 
0.0078692595 
0.0078662428 
0.0078632527 
0.0078602929 
0.0078573663 
0.0078544759 
0.0078516243 
0.0078488139 
0.0078460467 
0.0078433244 
0.0078406483 
0.0078380195 
0.0078354387 
 0.007832906 
0.0078304213 
 0.007827984 
 0.007825593 
0.0078232469 
0.0078209439 
0.0078186815 
0.0078164574 
0.0078142685 
0.0078121117 
0.0078099836 
0.0078078807 
0.0078057993 
 0.007803736 
0.0078016873 
0.0077996495 
0.0077976196 
0.0077955945 
0.0077935716 
0.0077915485 
0.0077895233 
0.0077874945 
0.0077854612 
0.0077834227 
0.0077813789 
0.0077793302 
0.0077772775 
0.0077752221 
0.0077731657 
0.0077711104 
0.0077690585 
0.0077670128 
0.0077649762 
0.0077629519 
0.0077609431 
0.0077589533 
0.0077569857 
0.0077550439 
0.0077531312 
0.0077512508 
0.0077494057 
0.0077475988 
0.0077458329 
0.0077441104 
0.0077424333 
0.0077408036 
0.0077392227 
0.0077376919 
 0.007736212 
0.0077347835 
0.0077334068 
0.0077320818 
0.0077308082 
0.0077295854 
0.0077284125 
0.0077272886 
0.0077262124 
0.0077251827 
0.0077241979 
0.0077232565 
0.0077223569 
0.0077214976 
0.0077206768 
 0.007719893 
0.0077191445 
  0.00771843 
 0.007717748 
0.0077170971 
0.0077164761 
0.0077158838 
 0.007715319 
0.0077147805 
0.0077142671 
0.0077137776 
0.0077133108 
0.0077128651 
0.0077124392 
0.0077120311 
0.0077116392 
0.0077112611 
0.0077108945 
0.0077105367 
0.0077101848 
0.0077098358 
 0.007709486 
0.0077091321 
0.0077087701 
 0.007708396 
0.0077080059 
0.0077075957 
0.0077071612 
0.0077066983 
0.0077062031 
0.0077056716 
0.0077051001 
0.0077044849 
0.0077038229 
0.0077031109 
0.0077023459 
0.0077015256 
0.0077006478 
0.0076997105 
0.0076987122 
0.0076976518 
0.0076965286 
 0.007695342 
0.0076940921 
0.0076927793 
0.0076914044 
0.0076899686 
0.0076884737 
0.0076869215 
0.0076853147 
0.0076836561 
0.0076819489 
0.0076801968 
0.0076784038 
0.0076765742 
0.0076747127 
 0.007672824 
0.0076709134 
 0.007668986 
0.0076670474 
0.0076651031 
0.0076631586 
0.0076612196 
0.0076592917 
0.0076573803 
0.0076554908 
0.0076536285 
0.0076517984 
0.0076500054 
 0.007648254 
0.0076465488 
0.0076448936 
0.0076432925 
0.0076417489 
0.0076402661 
 0.007638847 
0.0076374943 
0.0076362104 
0.0076349973 
0.0076338569 
0.0076327904 
0.0076317992 
 0.007630884 
0.0076300455 
0.0076292837 
0.0076285987 
  0.00762799 
0.0076274566 
0.0076269975 
0.0076266111 
0.0076262955 
0.0076260483 
0.0076258669 
 0.007625748 
0.0076256882 
0.0076256832 
0.0076257287 
0.0076258199 
0.0076259515 
 0.007626118 
0.0076263135 
0.0076265317 
0.0076267663 
0.0076270106 
0.0076272578 
 0.007627501 
0.0076277335 
0.0076279482 
0.0076281383 
0.0076282971 
 0.007628418 
0.0076284947 
0.0076285209 
0.0076284906 
0.0076283981 
0.0076282379 
0.0076280047 
0.0076276935 
0.0076272997 
0.0076268187 
0.0076262462 
0.0076255785 
0.0076248118 
0.0076239427 
0.0076229682 
0.0076218855 
0.0076206922 
 0.007619386 
0.0076179651 
 0.007616428 
0.0076147737 
0.0076130012 
0.0076111102 
0.0076091005 
0.0076069725 
0.0076047266 
0.0076023638 
0.0075998852 
0.0075972924 
0.0075945871 
0.0075917713 
0.0075888472 
0.0075858172 
0.0075826841 
0.0075794508 
0.0075761202 
0.0075726957 
0.0075691808 
0.0075655792 
0.0075618948 
0.0075581316 
0.0075542943 
0.0075503872 
0.0075464155 
0.0075423843 
0.0075382989 
0.0075341653 
0.0075299893 
0.0075257772 
0.0075215355 
0.0075172709 
0.0075129901 
0.0075087001 
0.0075044078 
0.0075001204 
0.0074958448 
0.0074915881 
0.0074873572 
0.0074831589 
0.0074789999 
0.0074748869 
0.0074708263 
0.0074668243 
0.0074628871 
0.0074590205 
0.0074552303 
0.0074515221 
0.0074479014 
0.0074443733 
 0.007440943 
0.0074376153 
0.0074343951 
0.0074312869 
 0.007428295 
0.0074254237 
0.0074226768 
0.0074200581 
 0.007417571 
0.0074152186 
 0.007413004 
0.0074109297 
 0.007408998 
0.0074072109 
  0.00740557 
0.0074040768 
0.0074027321 
0.0074015366 
0.0074004907 
0.0073995945 
0.0073988478 
0.0073982502 
0.0073978011 
0.0073974999 
0.0073973457 
0.0073973375 
0.0073974744 
0.0073977555 
0.0073981797 
0.0073987462 
0.0073994541 
0.0074003027 
0.0074012914 
0.0074024194 
0.0074036864 
0.0074050917 
0.0074066349 
0.0074083155 
0.0074101332 
0.0074120875 
0.0074141779 
0.0074164041 
0.0074187654 
0.0074212614 
0.0074238914 
0.0074266545 
  0.00742955 
0.0074325768 
0.0074357337 
0.0074390192 
0.0074424318 
0.0074459694 
0.0074496298 
0.0074534104 
0.0074573085 
0.0074613207 
0.0074654436 
0.0074696731 
0.0074740052 
0.0074784351 
0.0074829581 
 0.007487569 
0.0074922627 
0.0074970335 
0.0075018759 
0.0075067843 
0.0075117531 
0.0075167764 
0.0075218488 
0.0075269649 
0.0075321191 
0.0075373064 
0.0075425217 
0.0075477603 
0.0075530176 
0.0075582894 
0.0075635714 
0.0075688597 
0.0075741504 
0.0075794399 
0.0075847245 
0.0075900004 
 0.007595264 
0.0076005113 
0.0076057383 
0.0076109405 
0.0076161135 
0.0076212521 
0.0076263508 
0.0076314038 
0.0076364045 
 0.007641346 
0.0076462209 
0.0076510212 
0.0076557386 
0.0076603643 
0.0076648893 
0.0076693039 
0.0076735988 
0.0076777641 
  0.00768179 
 0.007685667 
0.0076893854 
0.0076929361 
0.0076963101 
 0.007699499 
0.0077024947 
0.0077052899 
0.0077078778 
0.0077102523 
0.0077124082 
0.0077143409 
0.0077160467 
0.0077175227 
0.0077187671 
0.0077197787 
0.0077205574 
0.0077211039 
  0.00772142 
0.0077215083 
0.0077213723 
0.0077210165 
0.0077204462 
0.0077196678 
0.0077186884 
0.0077175161 
0.0077161596 
0.0077146286 
0.0077129335 
0.0077110853 
0.0077090957 
0.0077069769 
0.0077047414 
0.0077024024 
0.0076999732 
0.0076974675 
 0.007694899 
0.0076922815 
 0.007689629 
0.0076869551 
0.0076842736 
0.0076815978 
0.0076789408 
0.0076763156 
0.0076737346 
0.0076712101 
0.0076687536 
0.0076663767 
  0.00766409 
 0.007661904 
0.0076598286 
0.0076578734 
0.0076560474 
0.0076543591 
0.0076528168 
0.0076514283 
0.0076502007 
0.0076491408 
 0.007648255 
0.0076475491 
0.0076470283 
0.0076466972 
0.0076465601 
0.0076466203 
0.0076468808 
0.0076473435 
0.0076480098 
0.0076488805 
0.0076499551 
0.0076512327 
0.0076527113 
0.0076543881 
0.0076562593 
0.0076583202 
0.0076605653 
0.0076629881 
0.0076655812 
0.0076683364 
0.0076712446 
0.0076742962 
0.0076774807 
0.0076807871 
 0.007684204 
0.0076877196 
0.0076913219 
0.0076949987 
0.0076987381 
 0.007702528 
0.0077063567 
0.0077102131 
0.0077140863 
0.0077179661 
0.0077218427 
0.0077257073 
0.0077295516 
 0.007733368 
0.0077371499 
0.0077408911 
0.0077445866 
0.0077482316 
0.0077518225 
0.0077553561 
0.0077588297 
0.0077622413 
0.0077655896 
0.0077688734 
0.0077720923 
0.0077752461 
0.0077783351 
0.0077813598 
 0.007784321 
0.0077872198 
0.0077900575 
0.0077928355 
0.0077955555 
0.0077982193 
0.0078008288 
 0.007803386 
0.0078058932 
0.0078083528 
 0.007810767 
0.0078131383 
0.0078154693 
0.0078177626 
0.0078200207 
0.0078222462 
0.0078244416 
0.0078266093 
0.0078287518 
0.0078308712 
0.0078329697 
0.0078350492 
0.0078371113 
0.0078391575 
0.0078411888 
0.0078432062 
0.0078452101 
0.0078472008 
0.0078491781 
0.0078511416 
0.0078530904 
0.0078550235 
0.0078569394 
0.0078588365 
 0.007860713 
0.0078625668 
0.0078643955 
 0.007866197 
0.0078679688 
0.0078697084 
0.0078714135 
0.0078730819 
0.0078747112 
0.0078762994 
0.0078778445 
 0.007879345 
0.0078807991 
0.0078822055 
0.0078835631 
0.0078848707 
0.0078861274 
0.0078873325 
0.0078884853 
0.0078895853 
 0.007890632 
 0.007891625 
0.0078925639 
0.0078934486 
0.0078942787 
0.0078950543 
0.0078957751 
 0.007896441 
0.0078970521 
0.0078976083 
0.0078981093 
0.0078985552 
0.0078989455 
0.0078992799 
 0.007899558 
0.0078997789 
0.0078999416 
0.0079000451 
0.0079000879 
0.0079000683 
0.0078999844 
0.0078998341 
0.0078996151 
 0.007899325 
0.0078989613 
0.0078985214 
0.0078980027 
0.0078974029 
0.0078967197 
0.0078959511 
0.0078950954 
0.0078941515 
0.0078931186 
0.0078919965 
0.0078907855 
0.0078894866 
0.0078881015 
0.0078866324 
0.0078850826 
0.0078834558 
0.0078817565 
0.0078799899 
0.0078781618 
0.0078762789 
0.0078743481 
 0.007872377 
0.0078703738 
0.0078683469 
0.0078663051 
0.0078642574 
0.0078622131 
0.0078601813 
0.0078581712 
 0.007856192 
0.0078542527 
0.0078523617 
0.0078505273 
0.0078487574 
 0.007847059 
 0.007845439 
0.0078439032 
0.0078424569 
0.0078411045 
0.0078398496 
0.0078386949 
0.0078376422 
0.0078366925 
0.0078358457 
0.0078351009 
0.0078344564 
0.0078339096 
 0.007833457 
0.0078330945 
0.0078328172 
0.0078326196 
0.0078324954 
0.0078324383 
0.0078324411 
0.0078324965 
0.0078325969 
0.0078327345 
0.0078329014 
0.0078330896 
0.0078332913 
0.0078334984 
0.0078337033 
0.0078338983 
0.0078340759 
0.0078342291 
0.0078343509 
0.0078344346 
0.0078344742 
0.0078344636 
0.0078343974 
0.0078342705 
0.0078340782 
0.0078338163 
0.0078334812 
0.0078330699 
0.0078325796 
0.0078320087 
0.0078313558 
0.0078306203 
0.0078298025 
0.0078289032 
0.0078279243 
0.0078268682 
0.0078257385 
0.0078245393 
0.0078232758 
0.0078219539 
0.0078205807 
0.0078191636 
0.0078177111 
0.0078162323 
 0.007814737 
0.0078132355 
0.0078117385 
 0.007810257 
0.0078088025 
0.0078073864 
0.0078060202 
0.0078047151 
0.0078034824 
0.0078023326 
 0.007801276 
0.0078003224 
0.0077994807 
0.0077987593 
0.0077981655 
0.0077977059 
0.0077973861 
0.0077972108 
0.0077971836 
0.0077973073 
0.0077975835 
0.0077980131 
0.0077985957 
0.0077993304 
0.0078002152 
0.0078012475 
0.0078024238 
0.0078037402 
 0.007805192 
0.0078067742 
0.0078084812 
0.0078103073 
0.0078122464 
0.0078142922 
0.0078164382 
0.0078186781 
0.0078210053 
0.0078234133 
0.0078258957 
0.0078284462 
0.0078310587 
 0.007833727 
0.0078364453 
0.0078392081 
0.0078420098 
 0.007844845 
0.0078477086 
0.0078505956 
0.0078535011 
0.0078564204 
0.0078593488 
0.0078622815 
0.0078652141 
0.0078681419 
0.0078710603 
0.0078739646 
0.0078768503 
0.0078797126 
0.0078825469 
0.0078853484 
0.0078881124 
0.0078908342 
0.0078935092 
 0.007896133 
0.0078987011 
0.0079012095 
 0.007903654 
0.0079060312 
0.0079083377 
0.0079105705 
0.0079127271 
0.0079148054 
0.0079168037 
0.0079187209 
0.0079205565 
0.0079223103 
0.0079239828 
0.0079255749 
0.0079270881 
0.0079285243 
0.0079298857 
0.0079311751 
0.0079323953 
0.0079335498 
 0.007934642 
0.0079356753 
0.0079366535 
0.0079375801 
0.0079384589 
0.0079392932 
0.0079400862 
0.0079408409 
0.0079415599 
0.0079422456 
0.0079428999 
0.0079435242 
0.0079441197 
0.0079446868 
0.0079452257 
0.0079457361 
0.0079462174 
0.0079466684 
0.0079470877 
0.0079474735 
0.0079478236 
0.0079481359 
0.0079484078 
0.0079486369 
0.0079488204 
0.0079489559 
0.0079490407 
0.0079490725 
0.0079490489 
0.0079489677 
0.0079488272 
0.0079486255 
0.0079483614 
0.0079480337 
0.0079476415 
0.0079471844 
 0.007946662 
0.0079460745 
 0.007945422 
0.0079447051 
0.0079439247 
0.0079430816 
0.0079421772 
 0.007941213 
0.0079401908 
0.0079391125 
0.0079379804 
0.0079367971 
0.0079355654 
0.0079342883 
0.0079329693 
0.0079316122 
0.0079302208 
0.0079287997 
0.0079273534 
0.0079258872 
0.0079244061 
 0.007922916 
0.0079214228 
0.0079199327 
0.0079184519 
 0.007916987 
0.0079155446 
0.0079141311 
0.0079127533 
0.0079114176 
0.0079101302 
0.0079088971 
0.0079077241 
0.0079066162 
0.0079055782 
0.0079046144 
0.0079037282 
0.0079029225 
0.0079021995 
0.0079015606 
0.0079010063 
0.0079005366 
0.0079001503 
0.0078998458 
0.0078996205 
0.0078994713 
0.0078993942 
0.0078993848 
 0.007899438 
0.0078995484 
0.0078997101 
0.0078999171 
 0.007900163 
0.0079004416 
0.0079007468 
0.0079010724 
0.0079014127 
0.0079017623 
0.0079021163 
0.0079024704 
0.0079028207 
 0.007903164 
0.0079034979 
0.0079038204 
0.0079041302 
0.0079044265 
0.0079047091 
0.0079049784 
0.0079052348 
0.0079054793 
 0.007905713 
0.0079059371 
 0.007906153 
0.0079063617 
0.0079065645 
0.0079067622 
0.0079069555 
0.0079071448 
0.0079073303 
0.0079075114 
0.0079076877 
0.0079078582 
0.0079080215 
0.0079081761 
  0.00790832 
0.0079084512 
0.0079085675 
0.0079086665 
 0.007908746 
0.0079088035 
0.0079088369 
0.0079088441 
0.0079088233 
0.0079087728 
0.0079086915 
0.0079085784 
0.0079084329 
 0.007908255 
0.0079080447 
0.0079078027 
  0.00790753 
0.0079072278 
0.0079068979 
0.0079065421 
0.0079061625 
0.0079057614 
0.0079053413 
0.0079049046 
0.0079044537 
0.0079039912 
0.0079035196 
0.0079030411 
 0.007902558 
0.0079020723 
0.0079015859 
0.0079011005 
0.0079006176 
0.0079001386 
0.0078996644 
 0.007899196 
0.0078987341 
0.0078982791 
0.0078978313 
0.0078973908 
0.0078969576 
0.0078965314 
0.0078961118 
0.0078956984 
0.0078952903 
 0.007894887 
0.0078944876 
 0.007894091 
0.0078936963 
0.0078933026 
 0.007892909 
0.0078925145 
0.0078921186 
0.0078917207 
0.0078913205 
0.0078909179 
0.0078905135 
0.0078901079 
0.0078897022 
0.0078892979 
0.0078888972 
0.0078885025 
0.0078881166 
0.0078877429 
 0.007887385 
 0.007887047 
0.0078867331 
0.0078864477 
0.0078861952 
0.0078859802 
0.0078858069 
0.0078856797 
0.0078856025 
0.0078855787 
0.0078856114 
0.0078857032 
0.0078858561 
0.0078860714 
0.0078863497 
0.0078866909 
0.0078870945 
0.0078875588 
0.0078880818 
0.0078886608 
0.0078892922 
0.0078899722 
0.0078906962 
0.0078914591 
0.0078922556 
0.0078930798 
0.0078939256 
0.0078947866 
0.0078956563 
 0.007896528 
0.0078973949 
0.0078982503 
0.0078990874 
0.0078998996 
0.0079006805 
 0.007901424 
0.0079021242 
0.0079027756 
0.0079033729 
0.0079039116 
0.0079043873 
0.0079047966 
0.0079051364 
 0.007905404 
0.0079055978 
0.0079057165 
0.0079057594 
0.0079057266 
0.0079056188 
 0.007905437 
0.0079051832 
0.0079048595 
0.0079044688 
0.0079040144 
0.0079035001 
0.0079029299 
0.0079023083 
0.0079016401 
0.0079009303 
0.0079001841 
 0.007899407 
0.0078986045 
0.0078977824 
0.0078969466 
0.0078961031 
0.0078952577 
0.0078944165 
0.0078935854 
0.0078927703 
0.0078919769 
0.0078912109 
0.0078904779 
0.0078897831 
0.0078891316 
0.0078885283 
0.0078879776 
0.0078874836 
0.0078870502 
0.0078866807 
 0.007886378 
0.0078861446 
0.0078859825 
0.0078858933 
 0.007885878 
0.0078859371 
0.0078860707 
0.0078862781 
0.0078865585 
0.0078869104 
0.0078873318 
0.0078878204 
0.0078883733 
0.0078889875 
0.0078896591 
0.0078903843 
0.0078911587 
0.0078919775 
0.0078928357 
0.0078937278 
0.0078946483 
 0.007895591 
0.0078965499 
0.0078975183 
0.0078984894 
0.0078994562 
0.0079004114 
0.0079013477 
0.0079022574 
0.0079031327 
0.0079039658 
0.0079047487 
0.0079054734 
0.0079061322 
 0.007906717 
0.0079072203 
0.0079076346 
0.0079079528 
0.0079081681 
 0.007908274 
0.0079082648 
0.0079081351 
0.0079078805 
 0.007907497 
0.0079069816 
0.0079063323 
0.0079055478 
0.0079046281 
0.0079035741 
0.0079023877 
0.0079010721 
0.0078996315 
0.0078980713 
 0.007896398 
 0.007894619 
 0.007892743 
0.0078907794 
0.0078887386 
0.0078866317 
0.0078844704 
0.0078822671 
0.0078800344 
0.0078777852 
0.0078755327 
0.0078732898 
0.0078710695 
0.0078688843 
0.0078667465 
 0.007864668 
  0.00786266 
0.0078607329 
0.0078588966 
0.0078571603 
0.0078555321 
0.0078540196 
0.0078526291 
0.0078513665 
0.0078502365 
0.0078492434 
0.0078483902 
0.0078476796 
0.0078471132 
0.0078466921 
0.0078464167 
0.0078462868 
0.0078463016 
0.0078464597 
0.0078467593 
0.0078471981 
0.0078477732 
0.0078484816 
0.0078493196 
0.0078502833 
0.0078513685 
0.0078525707 
0.0078538849 
0.0078553063 
0.0078568293 
0.0078584485 
0.0078601582 
0.0078619523 
 0.007863825 
0.0078657698 
0.0078677805 
0.0078698507 
0.0078719739 
0.0078741435 
0.0078763529 
0.0078785956 
0.0078808648 
 0.007883154 
0.0078854568 
0.0078877667 
0.0078900772 
0.0078923821 
0.0078946754 
 0.007896951 
 0.007899203 
0.0079014258 
0.0079036138 
0.0079057616 
0.0079078642 
0.0079099165 
0.0079119138 
0.0079138517 
0.0079157258 
 0.007917532 
0.0079192665 
0.0079209257 
0.0079225063 
0.0079240053 
0.0079254201 
0.0079267481 
0.0079279874 
0.0079291364 
0.0079301936 
0.0079311582 
0.0079320295 
0.0079328073 
0.0079334919 
0.0079340837 
0.0079345835 
0.0079349926 
0.0079353126 
0.0079355452 
0.0079356926 
0.0079357572 
0.0079357417 
0.0079356487 
0.0079354814 
0.0079352428 
0.0079349362 
0.0079345648 
0.0079341318 
0.0079336407 
0.0079330946 
0.0079324966 
0.0079318499 
0.0079311573 
0.0079304219 
0.0079296462 
0.0079288327 
0.0079279839 
 0.007927102 
 0.007926189 
0.0079252469 
0.0079242774 
0.0079232823 
0.0079222629 
0.0079212207 
 0.007920157 
0.0079190729 
0.0079179694 
0.0079168473 
0.0079157075 
0.0079145505 
0.0079133766 
0.0079121864 
0.0079109797 
0.0079097566 
0.0079085169 
0.0079072601 
0.0079059858 
0.0079046933 
0.0079033817 
0.0079020503 
0.0079006982 
0.0078993243 
 0.007897928 
0.0078965083 
0.0078950647 
0.0078935967 
0.0078921042 
0.0078905871 
0.0078890458 
0.0078874807 
0.0078858929 
0.0078842834 
0.0078826537 
0.0078810055 
0.0078793407 
0.0078776613 
0.0078759696 
0.0078742679 
0.0078725585 
0.0078708439 
0.0078691262 
0.0078674077 
0.0078656905 
0.0078639765 
0.0078622676 
0.0078605653 
0.0078588712 
0.0078571863 
0.0078555118 
0.0078538485 
0.0078521972 
0.0078505584 
0.0078489325 
0.0078473198 
0.0078457206 
0.0078441351 
0.0078425636 
0.0078410062 
 0.007839463 
0.0078379343 
0.0078364203 
0.0078349211 
0.0078334371 
0.0078319686 
0.0078305159 
0.0078290795 
0.0078276597 
0.0078262571 
0.0078248722 
0.0078235056 
 0.007822158 
0.0078208299 
 0.007819522 
0.0078182352 
  0.00781697 
0.0078157272 
0.0078145075 
0.0078133116 
  0.00781214 
0.0078109933 
 0.007809872 
0.0078087764 
0.0078077066 
0.0078066625 
0.0078056441 
 0.007804651 
0.0078036826 
0.0078027383 
 0.007801817 
0.0078009179 
0.0078000395 
0.0077991807 
  0.00779834 
0.0077975158 
0.0077967066 
 0.007795911 
0.0077951274 
0.0077943544 
0.0077935907 
0.0077928351 
0.0077920865 
0.0077913442 
0.0077906074 
0.0077898755 
0.0077891483 
0.0077884257 
0.0077877077 
0.0077869947 
0.0077862871 
0.0077855856 
0.0077848911 
0.0077842045 
0.0077835273 
0.0077828609 
0.0077822068 
 0.007781567 
0.0077809434 
0.0077803385 
0.0077797546 
0.0077791944 
0.0077786608 
 0.007778157 
0.0077776864 
0.0077772524 
 0.007776859 
  0.00777651 
0.0077762097 
0.0077759624 
0.0077757724 
0.0077756443 
0.0077755825 
0.0077755915 
0.0077756757 
0.0077758395 
 0.007776087 
0.0077764221 
0.0077768485 
0.0077773696 
0.0077779886 
0.0077787083 
0.0077795309 
0.0077804587 
0.0077814931 
0.0077826355 
0.0077838866 
0.0077852466 
0.0077867155 
0.0077882925 
0.0077899766 
0.0077917659 
0.0077936583 
0.0077956509 
0.0077977401 
0.0077999219 
0.0078021917 
 0.007804544 
 0.007806973 
0.0078094722 
0.0078120344 
0.0078146521 
 0.007817317 
0.0078200207 
0.0078227542 
0.0078255084 
0.0078282739 
0.0078310412 
0.0078338008 
0.0078365433 
0.0078392594 
  0.00784194 
0.0078445762 
0.0078471597 
0.0078496822 
0.0078521362 
0.0078545142 
0.0078568094 
0.0078590152 
0.0078611255 
0.0078631347 
0.0078650372 
0.0078668279 
0.0078685019 
0.0078700544 
0.0078714808 
0.0078727768 
0.0078739377 
0.0078749593 
0.0078758371 
0.0078765667 
0.0078771435 
0.0078775628 
  0.00787782 
0.0078779104 
0.0078778291 
0.0078775711 
0.0078771317 
0.0078765059 
0.0078756889 
0.0078746762 
0.0078734632 
0.0078720459 
0.0078704204 
0.0078685835 
0.0078665322 
0.0078642645 
0.0078617788 
0.0078590741 
0.0078561506 
0.0078530089 
0.0078496507 
0.0078460786 
 0.007842296 
0.0078383072 
0.0078341175 
0.0078297332 
0.0078251611 
0.0078204092 
0.0078154863 
0.0078104017 
0.0078051659 
0.0077997898 
0.0077942851 
0.0077886643 
0.0077829402 
0.0077771263 
0.0077712368 
 0.007765286 
0.0077592889 
0.0077532605 
0.0077472164 
0.0077411721 
0.0077351433 
0.0077291458 
0.0077231951 
0.0077173069 
0.0077114964 
0.0077057784 
0.0077001675 
0.0076946778 
0.0076893227 
0.0076841153 
0.0076790678 
0.0076741915 
0.0076694973 
0.0076649949 
0.0076606932 
0.0076566005 
0.0076527239 
0.0076490697 
0.0076456431 
0.0076424486 
0.0076394897 
 0.007636769 
0.0076342883 
0.0076320485 
0.0076300498 
0.0076282916 
0.0076267727 
0.0076254911 
0.0076244444 
0.0076236294 
0.0076230425 
0.0076226799 
0.0076225368 
0.0076226086 
  0.00762289 
0.0076233755 
0.0076240593 
0.0076249356 
0.0076259981 
0.0076272404 
0.0076286562 
0.0076302389 
 0.007631982 
0.0076338789 
 0.007635923 
0.0076381078 
0.0076404269 
 0.007642874 
0.0076454431 
 0.007648128 
0.0076509229 
0.0076538224 
0.0076568211 
0.0076599137 
0.0076630952 
 0.007666361 
0.0076697064 
0.0076731268 
 0.007676618 
0.0076801756 
0.0076837953 
0.0076874728 
0.0076912038 
0.0076949838 
0.0076988084 
0.0077026728 
0.0077065719 
0.0077105008 
0.0077144539 
0.0077184257 
0.0077224101 
 0.007726401 
 0.007730392 
0.0077343763 
 0.007738347 
0.0077422968 
0.0077462185 
0.0077501044 
0.0077539468 
 0.007757738 
0.0077614702 
0.0077651355 
0.0077687261 
0.0077722344 
0.0077756528 
0.0077789738 
0.0077821905 
0.0077852961 
 0.007788284 
0.0077911482 
0.0077938831 
0.0077964835 
0.0077989448 
0.0078012628 
0.0078034339 
0.0078054551 
0.0078073242 
0.0078090391 
0.0078105989 
0.0078120028 
0.0078132508 
0.0078143433 
0.0078152815 
0.0078160669 
0.0078167014 
0.0078171877 
0.0078175287 
0.0078177279 
0.0078177889 
 0.007817716 
0.0078175134 
0.0078171858 
 0.007816738 
0.0078161752 
0.0078155023 
0.0078147245 
0.0078138472 
0.0078128752 
0.0078118136 
0.0078106673 
0.0078094408 
0.0078081385 
0.0078067643 
0.0078053219 
0.0078038146 
 0.007802245 
0.0078006155 
0.0077989278 
0.0077971833 
0.0077953826 
0.0077935259 
 0.007791613 
 0.007789643 
0.0077876147 
0.0077855263 
0.0077833757 
0.0077811603 
0.0077788774 
0.0077765239 
0.0077740964 
0.0077715914 
0.0077690054 
0.0077663348 
0.0077635759 
0.0077607251 
0.0077577791 
0.0077547347 
0.0077515887 
0.0077483384 
0.0077449813 
0.0077415151 
0.0077379382 
0.0077342492 
0.0077304471 
0.0077265315 
0.0077225026 
0.0077183608 
0.0077141072 
0.0077097435 
0.0077052719 
0.0077006952 
0.0076960167 
0.0076912403 
0.0076863705 
0.0076814126 
0.0076763722 
0.0076712557 
0.0076660701 
0.0076608229 
0.0076555226 
0.0076501778 
0.0076447982 
0.0076393938 
0.0076339753 
0.0076285538 
 0.007623141 
0.0076177489 
0.0076123899 
0.0076070766 
0.0076018218 
0.0075966384 
0.0075915392 
0.0075865368 
0.0075816434 
 0.007576871 
0.0075722311 
0.0075677343 
0.0075633909 
  0.00755921 
   0.0075552 
0.0075513686 
 0.007547722 
0.0075442659 
0.0075410047 
0.0075379419 
0.0075350798 
0.0075324198 
0.0075299623 
0.0075277069 
 0.007525652 
0.0075237954 
0.0075221339 
0.0075206637 
0.0075193804 
0.0075182787 
0.0075173532 
0.0075165978 
 0.007516006 
0.0075155709 
0.0075152857 
0.0075151428 
0.0075151349 
0.0075152544 
0.0075154936 
0.0075158448 
0.0075163004 
0.0075168528 
0.0075174945 
 0.007518218 
 0.007519016 
0.0075198815 
0.0075208074 
0.0075217871 
0.0075228141 
 0.007523882 
 0.007524985 
0.0075261173 
0.0075272737 
0.0075284492 
0.0075296391 
0.0075308395 
0.0075320466 
0.0075332574 
0.0075344694 
0.0075356805 
0.0075368895 
0.0075380956 
0.0075392989 
0.0075405001 
0.0075417006 
0.0075429023 
0.0075441078 
0.0075453204 
0.0075465439 
0.0075477826 
0.0075490412 
0.0075503249 
 0.007551639 
0.0075529893 
0.0075543816 
0.0075558218 
0.0075573159 
0.0075588699 
0.0075604895 
0.0075621805 
0.0075639483 
0.0075657981 
0.0075677348 
 0.007569763 
 0.007571887 
0.0075741105 
0.0075764368 
 0.007578869 
0.0075814093 
0.0075840598 
0.0075868218 
0.0075896964 
0.0075926838 
0.0075957841 
0.0075989967 
0.0076023205 
0.0076057539 
0.0076092948 
0.0076129407 
0.0076166887 
0.0076205352 
0.0076244766 
0.0076285086 
0.0076326268 
0.0076368264 
0.0076411024 
0.0076454498 
0.0076498632 
0.0076543372 
0.0076588664 
0.0076634455 
 0.007668069 
0.0076727318 
0.0076774287 
0.0076821548 
0.0076869055 
0.0076916762 
0.0076964629 
0.0077012617 
0.0077060693 
0.0077108825 
0.0077156988 
0.0077205158 
0.0077253319 
0.0077301456 
0.0077349563 
0.0077397634 
0.0077445669 
0.0077493674 
0.0077541655 
0.0077589624 
0.0077637596 
0.0077685587 
0.0077733615 
0.0077781701 
0.0077829865 
0.0077878126 
0.0077926505 
0.0077975021 
0.0078023688 
0.0078072521 
0.0078121531 
0.0078170724 
0.0078220103 
0.0078269666 
0.0078319408 
0.0078369318 
0.0078419379 
 0.007846957 
0.0078519865 
0.0078570234 
0.0078620643 
0.0078671051 
0.0078721417 
0.0078771695 
0.0078821835 
0.0078871787 
0.0078921498 
0.0078970914 
0.0079019981 
0.0079068644 
0.0079116846 
0.0079164532 
0.0079211646 
0.0079258132 
0.0079303934 
0.0079348994 
0.0079393254 
0.0079436655 
0.0079479136 
0.0079520632 
0.0079561079 
0.0079600409 
 0.007963855 
0.0079675429 
0.0079710969 
0.0079745091 
0.0079777713 
0.0079808754 
0.0079838128 
0.0079865752 
0.0079891543 
0.0079915418 
0.0079937297 
0.0079957106 
0.0079974773 
0.0079990233 
 0.008000343 
0.0080014315 
0.0080022848 
0.0080028999 
0.0080032752 
0.0080034099 
0.0080033047 
0.0080029615 
0.0080023836 
0.0080015755 
0.0080005432 
0.0079992939 
0.0079978362 
  0.00799618 
0.0079943363 
0.0079923173 
0.0079901364 
0.0079878078 
0.0079853467 
0.0079827691 
0.0079800918 
0.0079773318 
0.0079745068 
0.0079716348 
0.0079687338 
0.0079658222 
0.0079629178 
0.0079600388 
0.0079572028 
0.0079544272 
0.0079517287 
0.0079491238 
 0.007946628 
0.0079442563 
0.0079420228 
0.0079399408 
0.0079380228 
0.0079362803 
0.0079347237 
0.0079333624 
 0.007932205 
0.0079312585 
0.0079305291 
0.0079300217 
0.0079297397 
0.0079296856 
0.0079298604 
0.0079302637 
0.0079308937 
0.0079317475 
0.0079328204 
0.0079341067 
0.0079355992 
0.0079372894 
0.0079391675 
0.0079412226 
0.0079434427 
0.0079458145 
0.0079483241 
0.0079509566 
0.0079536963 
 0.007956527 
 0.007959432 
0.0079623943 
0.0079653965 
0.0079684213 
0.0079714514 
0.0079744697 
0.0079774591 
0.0079804033 
0.0079832863 
0.0079860926 
0.0079888075 
0.0079914171 
0.0079939081 
0.0079962684 
0.0079984866 
0.0080005524 
0.0080024566 
0.0080041908 
 0.008005748 
0.0080071219 
0.0080083075 
0.0080093007 
0.0080100983 
0.0080106984 
0.0080110997 
0.0080113019 
0.0080113056 
 0.008011112 
0.0080107234 
0.0080101423 
 0.008009372 
0.0080084164 
0.0080072799 
0.0080059671 
0.0080044832 
0.0080028337 
0.0080010242 
0.0079990609 
0.0079969499 
0.0079946977 
0.0079923111 
 0.007989797 
0.0079871625 
0.0079844152 
0.0079815628 
0.0079786131 
0.0079755746 
0.0079724557 
0.0079692654 
 0.007966013 
0.0079627077 
0.0079593595 
0.0079559784 
0.0079525747 
 0.007949159 
0.0079457419 
0.0079423344 
0.0079389475 
0.0079355921 
0.0079322795 
0.0079290205 
0.0079258263 
0.0079227077 
0.0079196754 
0.0079167399 
0.0079139116 
0.0079112004 
0.0079086159 
0.0079061675 
0.0079038637 
 0.007901713 
0.0078997228 
0.0078979002 
0.0078962513 
0.0078947817 
0.0078934959 
0.0078923975 
0.0078914892 
0.0078907726 
0.0078902483 
0.0078899157 
0.0078897732 
0.0078898179 
0.0078900458 
 0.007890452 
0.0078910302 
0.0078917732 
0.0078926728 
0.0078937199 
0.0078949042 
0.0078962148 
0.0078976402 
0.0078991679 
0.0079007848 
0.0079024775 
0.0079042321 
0.0079060342 
0.0079078693 
0.0079097228 
  0.00791158 
0.0079134262 
0.0079152468 
0.0079170275 
0.0079187543 
0.0079204136 
0.0079219921 
0.0079234774 
0.0079248572 
0.0079261204 
0.0079272563 
0.0079282549 
0.0079291072 
0.0079298049 
0.0079303407 
0.0079307083 
0.0079309022 
 0.007930918 
0.0079307523 
 0.007930403 
0.0079298687 
0.0079291497 
 0.007928247 
0.0079271631 
0.0079259017 
0.0079244676 
 0.007922867 
0.0079211071 
0.0079191964 
0.0079171445 
0.0079149619 
0.0079126601 
0.0079102517 
0.0079077495 
0.0079051675 
0.0079025196 
0.0078998203 
0.0078970843 
0.0078943259 
0.0078915597 
0.0078887995 
 0.007886059 
0.0078833509 
0.0078806876 
0.0078780801 
0.0078755387 
0.0078730727 
  0.00787069 
0.0078683975 
0.0078662005 
0.0078641033 
0.0078621087 
0.0078602179 
0.0078584313 
0.0078567474 
0.0078551637 
0.0078536764 
0.0078522803 
0.0078509692 
0.0078497357 
0.0078485715 
0.0078474674 
0.0078464133 
0.0078453986 
0.0078444121 
 0.007843442 
0.0078424765 
0.0078415034 
0.0078405107 
0.0078394865 
0.0078384191 
 0.007837297 
0.0078361096 
0.0078348466 
0.0078334985 
0.0078320568 
0.0078305137 
0.0078288625 
0.0078270974 
0.0078252139 
0.0078232084 
0.0078210785 
0.0078188231 
0.0078164421 
0.0078139366 
0.0078113089 
0.0078085626 
 0.007805702 
 0.007802733 
0.0077996621 
0.0077964968 
0.0077932459 
0.0077899185 
0.0077865246 
0.0077830748 
0.0077795802 
0.0077760523 
0.0077725025 
0.0077689428 
0.0077653846 
0.0077618397 
0.0077583193 
0.0077548342 
0.0077513947 
0.0077480105 
0.0077446907 
0.0077414434 
0.0077382762 
0.0077351955 
 0.007732207 
0.0077293155 
0.0077265249 
0.0077238382 
0.0077212575 
0.0077187841 
0.0077164184 
0.0077141603 
0.0077120085 
0.0077099614 
0.0077080165 
0.0077061708 
0.0077044207 
 0.007702762 
0.0077011901 
0.0076996997 
0.0076982852 
0.0076969408 
0.0076956601 
0.0076944365 
0.0076932635 
0.0076921341 
0.0076910416 
0.0076899792 
0.0076889403 
0.0076879187 
0.0076869084 
0.0076859038 
   0.0076849 
0.0076838925 
0.0076828777 
0.0076818526 
0.0076808149 
0.0076797634 
0.0076786973 
0.0076776171 
0.0076765239 
0.0076754197 
0.0076743072 
0.0076731899 
0.0076720721 
0.0076709587 
0.0076698551 
0.0076687672 
0.0076677014 
0.0076666643 
0.0076656627 
0.0076647038 
0.0076637946 
0.0076629422 
0.0076621537 
0.0076614357 
0.0076607947 
0.0076602371 
0.0076597685 
0.0076593945 
  0.00765912 
0.0076589496 
0.0076588872 
0.0076589363 
   0.0076591 
0.0076593807 
0.0076597805 
0.0076603008 
0.0076609427 
0.0076617071 
0.0076625941 
0.0076636038 
0.0076647358 
0.0076659896 
0.0076673644 
 0.007668859 
0.0076704724 
0.0076722031 
0.0076740497 
0.0076760106 
0.0076780839 
0.0076802677 
0.0076825602 
0.0076849592 
0.0076874626 
0.0076900681 
0.0076927733 
0.0076955758 
 0.007698473 
0.0077014624 
 0.007704541 
 0.007707706 
0.0077109544 
0.0077142831 
0.0077176891 
 0.007721169 
0.0077247194 
 0.007728337 
0.0077320183 
0.0077357596 
0.0077395575 
0.0077434081 
0.0077473079 
0.0077512528 
0.0077552392 
 0.007759263 
0.0077633201 
0.0077674065 
0.0077715178 
0.0077756496 
0.0077797974 
0.0077839563 
0.0077881215 
 0.007792288 
0.0077964505 
0.0078006036 
0.0078047415 
0.0078088586 
0.0078129486 
0.0078170056 
0.0078210229 
0.0078249942 
0.0078289127 
0.0078327717 
0.0078365642 
0.0078402833 
0.0078439221 
0.0078474735 
0.0078509307 
0.0078542867 
0.0078575347 
0.0078606682 
0.0078636807 
0.0078665657 
0.0078693174 
0.0078719299 
0.0078743977 
0.0078767157 
 0.007878879 
0.0078808832 
0.0078827241 
 0.007884398 
0.0078859013 
 0.007887231 
0.0078883844 
0.0078893589 
0.0078901524 
0.0078907631 
0.0078911894 
0.0078914302 
0.0078914845 
0.0078913516 
0.0078910311 
 0.007890523 
0.0078898276 
0.0078889456 
0.0078878782 
0.0078866267 
0.0078851933 
0.0078835805 
0.0078817913 
0.0078798294 
0.0078776991 
0.0078754051 
0.0078729529 
0.0078703482 
0.0078675975 
0.0078647077 
0.0078616858 
0.0078585395 
0.0078552763 
0.0078519042 
0.0078484309 
0.0078448642 
0.0078412117 
0.0078374805 
0.0078336778 
0.0078298101 
0.0078258835 
0.0078219034 
0.0078178749 
0.0078138023 
0.0078096894 
0.0078055394 
0.0078013547 
0.0077971373 
0.0077928885 
0.0077886092 
0.0077842994 
0.0077799591 
0.0077755877 
0.0077711841 
0.0077667473 
0.0077622758 
 0.007757768 
0.0077532226 
0.0077486379 
0.0077440127 
0.0077393458 
0.0077346366 
0.0077298847 
0.0077250903 
0.0077202543 
 0.007715378 
0.0077104636 
0.0077055139 
0.0077005327 
0.0076955245 
0.0076904949 
0.0076854501 
0.0076803973 
0.0076753446 
 0.007670301 
0.0076652759 
  0.00766028 
0.0076553241 
0.0076504199 
0.0076455795 
0.0076408152 
0.0076361399 
0.0076315663 
0.0076271073 
0.0076227756 
0.0076185837 
0.0076145438 
0.0076106673 
0.0076069653 
0.0076034481 
 0.007600125 
0.0075970044 
0.0075940938 
0.0075913995 
0.0075889265 
0.0075866786 
0.0075846586 
0.0075828678 
0.0075813061 
0.0075799725 
0.0075788644 
[...]
0.0077607318 
0.0077623633 
0.0077640794 
0.0077658763 
0.0077677505 
0.0077696978 
0.0077717144 
0.0077737959 
0.0077759379 
0.0077781357 
0.0077803844 
0.0077826789 
0.0077850137 
0.0077873832 
0.0077897815 
0.0077922024 
0.0077946397 
0.0077970869 
0.0077995374 
0.0078019845 
0.0078044214 
0.0078068414 
0.0078092376 
0.0078116034 
0.0078139323 
0.0078162178 
0.0078184539 
0.0078206346 
0.0078227546 
0.0078248088 
0.0078267923 
0.0078287011 
0.0078305314 
0.0078322802 
0.0078339447 
0.0078355232 
0.0078370141 
0.0078384168 
0.0078397311 
0.0078409575 
 0.007842097 
0.0078431513 
0.0078441226 
0.0078450134 
0.0078458268 
0.0078465665 
0.0078472361 
0.0078478401 
0.0078483829 
0.0078488692 
0.0078493038 
0.0078496917 
 0.007850038 
0.0078503476 
0.0078506252 
0.0078508758 
0.0078511038 
0.0078513135 
0.0078515091 
0.0078516941 
 0.007851872 
0.0078520457 
0.0078522176 
0.0078523899 
0.0078525643 
 0.007852742 
0.0078529238 
0.0078531099 
0.0078533003 
0.0078534942 
0.0078536906 
0.0078538879 
0.0078540841 
0.0078542766 
0.0078544624 
0.0078546379 
0.0078547992 
0.0078549416 
0.0078550601 
0.0078551492 
0.0078552028 
0.0078552143 
0.0078551767 
0.0078550829 
0.0078549251 
0.0078546954 
0.0078543859 
0.0078539884 
 0.007853495 
0.0078528977 
0.0078521889 
0.0078513614 
0.0078504085 
0.0078493242 
 0.007848103 
0.0078467405 
0.0078452329 
0.0078435775 
0.0078417726 
0.0078398175 
0.0078377126 
0.0078354594 
0.0078330603 
0.0078305191 
0.0078278405 
0.0078250301 
0.0078220946 
0.0078190416 
0.0078158794 
0.0078126172 
 0.007809265 
0.0078058332 
0.0078023329 
0.0077987756 
0.0077951733 
0.0077915379 
0.0077878818 
0.0077842174 
0.0077805571 
0.0077769131 
0.0077732976 
0.0077697226 
0.0077661995 
0.0077627397 
0.0077593538 
0.0077560522 
0.0077528444 
0.0077497397 
0.0077467464 
0.0077438725 
0.0077411248 
  0.00773851 
0.0077360336 
0.0077337004 
0.0077315146 
0.0077294794 
0.0077275974 
0.0077258701 
0.0077242983 
 0.007722882 
0.0077216201 
0.0077205109 
0.0077195516 
0.0077187387 
0.0077180676 
 0.007717533 
0.0077171287 
0.0077168479 
0.0077166828 
0.0077166249 
0.0077166652 
0.0077167941 
0.0077170016 
0.0077172772 
0.0077176101 
0.0077179897 
0.0077184049 
 0.007718845 
0.0077192994 
0.0077197577 
0.0077202101 
 0.007720647 
0.0077210596 
0.0077214396 
0.0077217794 
0.0077220722 
0.0077223119 
0.0077224932 
0.0077226114 
0.0077226628 
0.0077226442 
0.0077225534 
0.0077223887 
0.0077221493 
0.0077218347 
0.0077214454 
0.0077209823 
0.0077204467 
0.0077198409 
0.0077191673 
0.0077184291 
0.0077176297 
0.0077167733 
0.0077158642 
0.0077149074 
0.0077139083 
0.0077128728 
0.0077118071 
0.0077107181 
0.0077096127 
0.0077084986 
0.0077073837 
0.0077062761 
0.0077051842 
0.0077041168 
0.0077030827 
0.0077020908 
0.0077011501 
0.0077002695 
0.0076994578 
0.0076987235 
0.0076980749 
0.0076975197 
0.0076970655 
 0.007696719 
0.0076964864 
0.0076963734 
0.0076963847 
0.0076965242 
 0.007696795 
0.0076971994 
0.0076977387 
0.0076984131 
0.0076992221 
 0.007700164 
0.0077012362 
0.0077024352 
0.0077037567 
0.0077051954 
0.0077067453 
0.0077083996 
0.0077101509 
0.0077119912 
 0.007713912 
0.0077159044 
0.0077179592 
 0.007720067 
0.0077222184 
0.0077244039 
0.0077266144 
0.0077288406 
0.0077310739 
 0.007733306 
 0.007735529 
0.0077377358 
0.0077399197 
0.0077420748 
0.0077441959 
0.0077462784 
0.0077483188 
0.0077503139 
0.0077522617 
0.0077541605 
0.0077560095 
0.0077578086 
0.0077595581 
0.0077612589 
0.0077629126 
0.0077645209 
 0.007766086 
0.0077676106 
0.0077690972 
0.0077705488 
0.0077719685 
0.0077733593 
0.0077747243 
0.0077760665 
0.0077773889 
0.0077786941 
0.0077799846 
0.0077812627 
0.0077825303 
 0.007783789 
  0.00778504 
0.0077862844 
0.0077875224 
0.0077887544 
  0.00778998 
0.0077911987 
0.0077924095 
0.0077936113 
0.0077948025 
0.0077959814 
0.0077971463 
0.0077982949 
0.0077994255 
0.0078005357 
0.0078016237 
0.0078026872 
0.0078037245 
0.0078047338 
0.0078057133 
0.0078066617 
0.0078075775 
0.0078084598 
0.0078093074 
0.0078101198 
0.0078108962 
0.0078116364 
0.0078123402 
0.0078130074 
0.0078136384 
0.0078142333 
0.0078147927 
0.0078153174 
0.0078158082 
0.0078162662 
0.0078166926 
0.0078170889 
0.0078174567 
0.0078177977 
0.0078181138 
0.0078184071 
0.0078186797 
0.0078189339 
 0.007819172 
0.0078193965 
0.0078196099 
0.0078198145 
0.0078200128 
0.0078202073 
0.0078204004 
0.0078205945 
0.0078207918 
0.0078209945 
0.0078212049 
0.0078214249 
0.0078216566 
0.0078219018 
0.0078221622 
0.0078224395 
0.0078227352 
0.0078230509 
0.0078233879 
0.0078237477 
0.0078241316 
 0.007824541 
0.0078249775 
0.0078254427 
0.0078259383 
0.0078264662 
0.0078270288 
0.0078276283 
0.0078282677 
0.0078289499 
0.0078296786 
0.0078304576 
0.0078312911 
0.0078321837 
0.0078331404 
0.0078341665 
0.0078352676 
0.0078364498 
 0.007837719 
0.0078390816 
0.0078405442 
0.0078421132 
0.0078437951 
0.0078455964 
0.0078475236 
0.0078495828 
0.0078517799 
0.0078541208 
0.0078566107 
0.0078592546 
0.0078620571 
0.0078650223 
0.0078681538 
0.0078714548 
0.0078749277 
0.0078785746 
0.0078823967 
0.0078863951 
0.0078905698 
0.0078949208 
 0.007899447 
0.0079041471 
0.0079090191 
0.0079140604 
 0.007919268 
0.0079246383 
0.0079301672 
  0.00793585 
0.0079416816 
0.0079476564 
0.0079537682 
0.0079600105 
 0.007966376 
 0.007972857 
0.0079794454 
0.0079861322 
0.0079929082 
0.0079997634 
0.0080066874 
0.0080136691 
0.0080206967 
0.0080277581 
0.0080348405 
0.0080419304 
0.0080490139 
0.0080560766 
0.0080631034 
 0.008070079 
0.0080769875 
0.0080838128 
0.0080905385 
0.0080971479 
0.0081036245 
0.0081099514 
0.0081161122 
0.0081220907 
0.0081278709 
0.0081334377 
0.0081387764 
0.0081438733 
0.0081487158 
0.0081532922 
0.0081575922 
 0.008161607 
 0.008165329 
0.0081687524 
0.0081718728 
0.0081746873 
0.0081771948 
0.0081793954 
0.0081812909 
0.0081828844 
0.0081841803 
0.0081851843 
 0.008185903 
 0.008186344 
0.0081865158 
0.0081864277 
0.0081860894 
0.0081855114 
0.0081847045 
0.0081836796 
0.0081824482 
0.0081810216 
0.0081794114 
0.0081776291 
0.0081756862 
0.0081735941 
 0.008171364 
0.0081690068 
0.0081665332 
0.0081639536 
0.0081612779 
0.0081585158 
0.0081556765 
0.0081527687 
0.0081498006 
  0.00814678 
0.0081437142 
  0.00814061 
 0.008137474 
0.0081343121 
0.0081311299 
0.0081279327 
0.0081247255 
0.0081215128 
0.0081182991 
0.0081150885 
0.0081118851 
0.0081086925 
0.0081055145 
0.0081023547 
0.0080992163 
0.0080961027 
0.0080930172 
0.0080899626 
 0.008086942 
0.0080839582 
0.0080810136 
0.0080781109 
0.0080752521 
0.0080724392 
0.0080696737 
0.0080669571 
0.0080642902 
0.0080616736 
0.0080591075 
0.0080565916 
0.0080541251 
0.0080517068 
 0.008049335 
0.0080470076 
 0.008044722 
0.0080424751 
0.0080402636 
0.0080380837 
0.0080359313 
0.0080338023 
0.0080316921 
0.0080295964 
0.0080275106 
0.0080254303 
0.0080233513 
0.0080212696 
0.0080191815 
0.0080170838 
0.0080149739 
0.0080128494 
0.0080107089 
0.0080085516 
0.0080063771 
 0.008004186 
0.0080019793 
 0.007999759 
0.0079975275 
 0.007995288 
 0.007993044 
0.0079907997 
0.0079885596 
0.0079863286 
0.0079841119 
0.0079819146 
0.0079797421 
0.0079775997 
0.0079754926 
0.0079734257 
0.0079714037 
0.0079694309 
0.0079675114 
0.0079656485 
0.0079638453 
0.0079621042 
0.0079604272 
0.0079588156 
0.0079572701 
0.0079557908 
0.0079543774 
0.0079530289 
0.0079517438 
  0.00795052 
0.0079493551 
0.0079482461 
0.0079471893 
0.0079461812 
0.0079452173 
0.0079442931 
0.0079434038 
0.0079425442 
0.0079417088 
0.0079408922 
0.0079400885 
 0.007939292 
0.0079384967 
0.0079376969 
0.0079368867 
0.0079360603 
0.0079352123 
0.0079343372 
0.0079334299 
0.0079324853 
0.0079314989 
0.0079304664 
0.0079293835 
0.0079282466 
0.0079270521 
 0.007925797 
0.0079244783 
0.0079230935 
0.0079216404 
0.0079201169 
0.0079185213 
0.0079168522 
0.0079151083 
0.0079132888 
 0.007911393 
0.0079094205 
0.0079073713 
0.0079052455 
0.0079030438 
0.0079007669 
0.0078984162 
0.0078959931 
0.0078934996 
 0.007890938 
0.0078883108 
0.0078856211 
0.0078828723 
0.0078800682 
0.0078772127 
0.0078743103 
0.0078713657 
0.0078683839 
0.0078653701 
0.0078623298 
0.0078592685 
 0.007856192 
0.0078531058 
0.0078500156 
0.0078469269 
0.0078438452 
0.0078407755 
0.0078377228 
0.0078346914 
0.0078316855 
0.0078287088 
0.0078257644 
0.0078228553 
0.0078199836 
0.0078171512 
0.0078143596 
0.0078116099 
0.0078089025 
0.0078062381 
0.0078036165 
0.0078010378 
0.0077985015 
0.0077960074 
0.0077935547 
0.0077911431 
0.0077887718 
0.0077864404 
0.0077841484 
0.0077818951 
0.0077796803 
0.0077775035 
0.0077753645 
0.0077732629 
0.0077711987 
0.0077691718 
0.0077671822 
0.0077652301 
0.0077633156 
0.0077614391 
0.0077596012 
0.0077578022 
0.0077560432 
0.0077543249 
0.0077526486 
0.0077510156 
0.0077494275 
0.0077478861 
0.0077463935 
0.0077449518 
0.0077435636 
0.0077422316 
0.0077409584 
 0.007739747 
0.0077386004 
0.0077375217 
0.0077365138 
0.0077355798 
0.0077347225 
0.0077339446 
0.0077332488 
0.0077326373 
0.0077321121 
0.0077316751 
0.0077313276 
0.0077310705 
0.0077309046 
  0.00773083 
0.0077308465 
0.0077309535 
0.0077311498 
0.0077314338 
0.0077318036 
0.0077322567 
0.0077327901 
0.0077334008 
 0.007734085 
0.0077348389 
0.0077356585 
0.0077365393 
 0.007737477 
0.0077384671 
0.0077395052 
0.0077405869 
0.0077417083 
0.0077428656 
0.0077440553 
0.0077452743 
0.0077465202 
 0.007747791 
0.0077490851 
0.0077504017 
0.0077517403 
 0.007753101 
0.0077544844 
0.0077558915 
0.0077573238 
0.0077587831 
0.0077602712 
0.0077617905 
0.0077633434 
0.0077649321 
 0.007766559 
0.0077682265 
0.0077699366 
0.0077716915 
0.0077734927 
 0.007775342 
0.0077772405 
0.0077791893 
0.0077811889 
0.0077832397 
0.0077853418 
0.0077874946 
0.0077896977 
0.0077919499 
0.0077942501 
0.0077965966 
0.0077989875 
0.0078014204 
0.0078038927 
0.0078064017 
0.0078089441 
0.0078115164 
0.0078141147 
0.0078167351 
0.0078193731 
0.0078220243 
0.0078246837 
0.0078273464 
0.0078300073 
0.0078326611 
0.0078353025 
0.0078379262 
0.0078405267 
0.0078430988 
 0.007845637 
0.0078481361 
 0.007850591 
0.0078529966 
0.0078553481 
0.0078576408 
  0.00785987 
0.0078620313 
0.0078641206 
0.0078661338 
0.0078680668 
0.0078699162 
0.0078716784 
  0.00787335 
 0.007874928 
0.0078764096 
0.0078777923 
0.0078790735 
0.0078802515 
0.0078813244 
 0.007882291 
0.0078831501 
0.0078839013 
0.0078845442 
0.0078850791 
0.0078855068 
0.0078858283 
0.0078860453 
0.0078861598 
0.0078861744 
0.0078860921 
0.0078859164 
0.0078856514 
0.0078853012 
0.0078848708 
0.0078843651 
0.0078837897 
0.0078831502 
0.0078824526 
0.0078817031 
0.0078809079 
0.0078800734 
0.0078792061 
0.0078783123 
0.0078773985 
0.0078764707 
0.0078755351 
0.0078745975 
0.0078736636 
0.0078727385 
0.0078718275 
0.0078709352 
0.0078700659 
0.0078692236 
0.0078684117 
0.0078676335 
0.0078668916 
0.0078661883 
0.0078655253 
0.0078649039 
 0.007864325 
0.0078637887 
 0.007863295 
 0.007862843 
0.0078624315 
 0.007862059 
0.0078617232 
0.0078614218 
0.0078611517 
0.0078609099 
0.0078606929 
0.0078604971 
0.0078603188 
0.0078601544 
0.0078600003 
0.0078598529 
0.0078597092 
0.0078595661 
0.0078594213 
0.0078592728 
0.0078591191 
0.0078589593 
0.0078587931 
0.0078586209 
0.0078584436 
0.0078582629 
0.0078580811 
0.0078579012 
0.0078577267 
0.0078575617 
0.0078574105 
0.0078572783 
0.0078571703 
0.0078570919 
0.0078570489 
0.0078570471 
0.0078570921 
0.0078571896 
0.0078573448 
0.0078575627 
0.0078578478 
0.0078582041 
0.0078586349 
 0.007859143 
0.0078597304 
0.0078603981 
0.0078611465 
 0.007861975 
0.0078628823 
 0.007863866 
0.0078649231 
0.0078660496 
 0.007867241 
 0.007868492 
0.0078697967 
0.0078711489 
0.0078725417 
0.0078739682 
0.0078754212 
0.0078768937 
0.0078783784 
0.0078798684 
 0.007881357 
0.0078828378 
0.0078843049 
0.0078857529 
0.0078871768 
0.0078885724 
0.0078899359 
0.0078912645 
0.0078925556 
0.0078938074 
0.0078950189 
0.0078961895 
0.0078973193 
0.0078984088 
0.0078994592 
0.0079004718 
0.0079014486 
0.0079023919 
 0.007903304 
0.0079041876 
0.0079050456 
0.0079058809 
0.0079066964 
 0.007907495 
0.0079082795 
0.0079090525 
0.0079098167 
 0.007910574 
0.0079113266 
 0.007912076 
0.0079128236 
0.0079135702 
0.0079143163 
0.0079150621 
0.0079158073 
 0.007916551 
0.0079172922 
0.0079180291 
0.0079187597 
0.0079194818 
0.0079201924 
0.0079208887 
0.0079215672 
0.0079222244 
0.0079228567 
0.0079234603 
0.0079240314 
0.0079245662 
0.0079250612 
0.0079255129 
0.0079259182 
0.0079262744 
0.0079265791 
0.0079268304 
0.0079270268 
0.0079271677 
0.0079272527 
0.0079272822 
0.0079272572 
0.0079271794 
0.0079270507 
0.0079268741 
0.0079266525 
0.0079263896 
0.0079260893 
0.0079257556 
0.0079253928 
0.0079250052 
 0.007924597 
0.0079241723 
0.0079237348 
 0.007923288 
0.0079228348 
0.0079223779 
0.0079219191 
0.0079214599 
 0.007921001 
0.0079205426 
0.0079200843 
0.0079196251 
0.0079191635 
0.0079186975 
0.0079182246 
0.0079177421 
 0.007917247 
0.0079167362 
0.0079162062 
0.0079156537 
0.0079150754 
 0.007914468 
0.0079138283 
0.0079131532 
  0.00791244 
0.0079116861 
0.0079108892 
0.0079100472 
0.0079091583 
0.0079082209 
0.0079072339 
0.0079061962 
0.0079051072 
0.0079039666 
0.0079027743 
0.0079015308 
0.0079002366 
0.0078988929 
0.0078975011 
0.0078960631 
0.0078945812 
0.0078930581 
 0.007891497 
0.0078899014 
0.0078882753 
 0.007886623 
0.0078849493 
0.0078832593 
0.0078815584 
0.0078798526 
0.0078781477 
0.0078764501 
0.0078747661 
0.0078731023 
0.0078714654 
0.0078698621 
0.0078682988 
0.0078667822 
0.0078653185 
0.0078639137 
0.0078625735 
0.0078613033 
0.0078601079 
0.0078589918 
0.0078579588 
0.0078570122 
0.0078561547 
0.0078553883 
0.0078547144 
0.0078541337 
0.0078536464 
0.0078532518 
0.0078529489 
0.0078527358 
  0.00785261 
0.0078525687 
0.0078526083 
0.0078527248 
0.0078529136 
0.0078531698 
0.0078534881 
 0.007853863 
0.0078542883 
 0.007854758 
0.0078552655 
0.0078558044 
0.0078563679 
0.0078569494 
0.0078575423 
0.0078581398 
0.0078587357 
0.0078593235 
0.0078598974 
0.0078604516 
0.0078609809 
0.0078614803 
0.0078619455 
0.0078623725 
0.0078627582 
0.0078630999 
0.0078633954 
0.0078636434 
0.0078638433 
0.0078639949 
0.0078640989 
0.0078641568 
0.0078641702 
0.0078641418 
0.0078640744 
0.0078639715 
0.0078638367 
0.0078636742 
0.0078634881 
0.0078632826 
0.0078630621 
0.0078628306 
0.0078625921 
0.0078623501 
0.0078621079 
0.0078618684 
0.0078616339 
 0.007861406 
0.0078611861 
0.0078609747 
0.0078607717 
0.0078605765 
0.0078603879 
0.0078602041 
 0.007860023 
0.0078598416 
0.0078596569 
0.0078594654 
0.0078592632 
0.0078590463 
0.0078588105 
0.0078585515 
0.0078582653 
0.0078579476 
0.0078575945 
0.0078572024 
0.0078567679 
0.0078562881 
0.0078557606 
0.0078551837 
0.0078545562 
0.0078538779 
0.0078531492 
0.0078523716 
0.0078515471 
0.0078506791 
0.0078497717 
  0.00784883 
0.0078478599 
0.0078468682 
0.0078458627 
0.0078448516 
 0.007843844 
0.0078428493 
0.0078418776 
 0.007840939 
 0.007840044 
0.0078392029 
0.0078384259 
 0.007837723 
0.0078371038 
0.0078365773 
0.0078361517 
0.0078358348 
0.0078356331 
0.0078355524 
0.0078355974 
0.0078357718 
 0.007836078 
0.0078365174 
0.0078370902 
0.0078377954 
0.0078386311 
0.0078395939 
0.0078406795 
0.0078418827 
 0.007843197 
 0.007844615 
0.0078461287 
0.0078477288 
0.0078494056 
0.0078511484 
 0.007852946 
0.0078547867 
 0.007856658 
0.0078585474 
0.0078604416 
0.0078623273 
0.0078641908 
0.0078660185 
0.0078677964 
 0.007869511 
0.0078711485 
0.0078726956 
0.0078741392 
0.0078754666 
0.0078766656 
0.0078777249 
0.0078786335 
0.0078793814 
0.0078799596 
  0.00788036 
0.0078805757 
0.0078806007 
0.0078804305 
0.0078800617 
0.0078794922 
0.0078787213 
0.0078777496 
0.0078765792 
0.0078752134 
0.0078736566 
0.0078719148 
0.0078699951 
0.0078679055 
0.0078656553 
0.0078632546 
0.0078607144 
0.0078580464 
0.0078552628 
0.0078523764 
0.0078494003 
0.0078463476 
0.0078432317 
0.0078400657 
0.0078368626 
0.0078336348 
0.0078303947 
0.0078271535 
0.0078239222 
0.0078207109 
0.0078175289 
0.0078143848 
0.0078112861 
0.0078082398 
 0.007805252 
0.0078023279 
0.0077994722 
0.0077966888 
0.0077939811 
0.0077913521 
0.0077888043 
0.0077863397 
0.0077839604 
 0.007781668 
0.0077794641 
0.0077773504 
0.0077753282 
0.0077733992 
0.0077715648 
0.0077698266 
0.0077681863 
0.0077666454 
0.0077652055 
0.0077638683 
0.0077626352 
0.0077615079 
0.0077604877 
 0.007759576 
0.0077587738 
0.0077580822 
 0.007757502 
0.0077570339 
0.0077566784 
0.0077564358 
 0.007756306 
 0.007756289 
0.0077563843 
0.0077565916 
  0.00775691 
0.0077573385 
0.0077578763 
0.0077585218 
0.0077592737 
0.0077601303 
0.0077610898 
0.0077621502 
0.0077633093 
0.0077645649 
0.0077659143 
0.0077673548 
0.0077688834 
0.0077704971 
0.0077721924 
0.0077739656 
0.0077758127 
0.0077777296 
0.0077797117 
0.0077817542 
 0.007783852 
0.0077859997 
0.0077881918 
0.0077904226 
0.0077926858 
0.0077949753 
0.0077972845 
0.0077996071 
0.0078019362 
0.0078042652 
0.0078065873 
0.0078088958 
 0.007811184 
0.0078134452 
0.0078156731 
0.0078178613 
0.0078200037 
0.0078220947 
0.0078241287 
0.0078261005 
0.0078280055 
0.0078298393 
0.0078315978 
0.0078332777 
0.0078348758 
0.0078363894 
0.0078378164 
 0.007839155 
0.0078404038 
0.0078415619 
0.0078426284 
0.0078436032 
0.0078444861 
0.0078452772 
0.0078459771 
0.0078465862 
0.0078471053 
0.0078475354 
0.0078478775 
0.0078481329 
0.0078483029 
 0.007848389 
 0.007848393 
0.0078483165 
0.0078481617 
0.0078479308 
 0.007847626 
0.0078472499 
0.0078468055 
0.0078462955 
0.0078457232 
0.0078450921 
0.0078444055 
0.0078436674 
0.0078428814 
0.0078420516 
0.0078411822 
0.0078402773 
 0.007839341 
0.0078383776 
0.0078373914 
0.0078363864 
0.0078353667 
0.0078343363 
0.0078332991 
0.0078322586 
0.0078312184 
0.0078301815 
 0.007829151 
0.0078281296 
0.0078271197 
0.0078261234 
0.0078251425 
0.0078241784 
0.0078232324 
0.0078223053 
0.0078213975 
0.0078205095 
0.0078196412 
0.0078187923 
0.0078179623 
0.0078171507 
0.0078163567 
0.0078155793 
0.0078148179 
0.0078140717 
0.0078133401 
0.0078126225 
0.0078119191 
0.0078112299 
0.0078105555 
0.0078098969 
0.0078092558 
0.0078086341 
0.0078080347 
0.0078074607 
0.0078069161 
0.0078064054 
0.0078059337 
0.0078055066 
0.0078051305 
0.0078048121 
0.0078045586 
0.0078043776 
0.0078042771 
0.0078042653 
0.0078043506 
0.0078045416 
0.0078048469 
0.0078052749 
 0.007805834 
0.0078065324 
0.0078073779 
0.0078083782 
0.0078095401 
0.0078108703 
0.0078123747 
0.0078140584 
0.0078159259 
0.0078179809 
0.0078202262 
0.0078226636 
 0.007825294 
0.0078281172 
0.0078311322 
0.0078343365 
0.0078377269 
0.0078412991 
0.0078450478 
0.0078489666 
0.0078530483 
 0.007857285 
0.0078616677 
0.0078661869 
0.0078708327 
0.0078755943 
0.0078804608 
0.0078854209 
 0.007890463 
0.0078955756 
0.0079007468 
 0.007905965 
0.0079112186 
0.0079164963 
0.0079217869 
0.0079270793 
0.0079323629 
0.0079376274 
0.0079428628 
0.0079480594 
0.0079532077 
0.0079582988 
 0.007963324 
0.0079682748 
 0.007973143 
 0.007977921 
0.0079826009 
0.0079871756 
0.0079916379 
0.0079959811 
0.0080001984 
0.0080042837 
 0.008008231 
0.0080120345 
0.0080156888 
0.0080191891 
0.0080225308 
0.0080257097 
0.0080287224 
0.0080315659 
0.0080342379 
0.0080367365 
0.0080390609 
0.0080412109 
0.0080431869 
0.0080449904 
0.0080466236 
0.0080480894 
0.0080493918 
0.0080505355 
 0.008051526 
0.0080523697 
0.0080530734 
0.0080536451 
 0.008054093 
0.0080544261 
0.0080546538 
 0.008054786 
0.0080548328 
0.0080548045 
0.0080547116 
0.0080545645 
0.0080543736 
0.0080541492 
0.0080539011 
 0.008053639 
0.0080533719 
0.0080531085 
0.0080528568 
0.0080526243 
0.0080524177 
0.0080522432 
0.0080521058 
0.0080520103 
0.0080519602 
0.0080519586 
0.0080520076 
0.0080521085 
 0.008052262 
0.0080524681 
0.0080527258 
0.0080530336 
0.0080533893 
0.0080537902 
0.0080542327 
0.0080547131 
 0.008055227 
0.0080557695 
0.0080563353 
0.0080569191 
0.0080575149 
0.0080581166 
 0.008058718 
0.0080593128 
0.0080598946 
 0.008060457 
0.0080609937 
0.0080614984 
0.0080619652 
0.0080623881 
0.0080627617
