ITEM: TIMESTEP
135000
ITEM: NUMBER OF ATOMS
6912
ITEM: BOX BOUNDS pp pp pp
-9.2265715179435492e+00 9.2265715179435492e+00
-9.2265715179435492e+00 9.2265715179435492e+00
-9.2265715179435492e+00 9.2265715179435492e+00
ITEM: ATOMS id x y z vx vy vz
51 -8.4887 -7.63624 -8.44979 -0.584446 -2.72755 1.07231
290 -8.29838 -8.57454 -7.58345 -0.658686 -0.786842 -1.23607
8 -7.4809 -8.53925 -8.23201 0.262446 -0.550628 1.23624
55 -6.89615 -7.7889 -8.49141 1.2692 -1.26158 0.82425
38 5.60784 -8.59021 -9.02682 -0.840449 -1.15395 1.63251
12 -6.16378 -8.62587 -8.56459 -2.14216 3.36278 -0.0161437
53 -7.76217 -7.83803 -9.19903 -0.642303 0.657655 0.694897
16 -4.7661 -8.57104 -8.31891 -1.71434 0.0889064 0.615601
4357 4.54326 -0.0560901 -4.60786 0.0795908 2.72742 -0.909197
1171 -2.37198 -9.13176 -2.30404 1.27278 -0.326063 0.966533
1728 8.43899 -0.0477914 -0.73735 -0.695896 0.84984 -1.60044
20 -3.04345 -8.42463 -8.47607 3.07913 1.84793 1.46186
1481 6.08637 -9.13993 -1.67187 0.195107 -0.930473 -1.34213
4341 -1.49564 -0.0120599 -4.70891 0.080594 1.26629 -1.64695
24 -1.475 -8.59876 -8.28984 2.86474 3.53926 2.3532
22 -0.769307 -8.38269 -9.1118 1.99312 -1.52938 1.23518
28 0.0369165 -8.27773 -8.49974 -0.640188 0.17316 -3.25215
361 0.292524 -7.59617 -7.79256 0.425754 3.52638 -0.737831
4925 1.45233 -0.148516 -1.43769 0.865917 -2.67365 -0.867253
314 0.661545 -8.51564 -7.51783 -0.394975 -3.35197 -3.17782
75 0.903132 -7.9864 -8.38744 -1.3841 1.61046 -0.288365
32 1.72555 -8.70112 -8.8522 1.91862 2.45082 -2.32778
367 1.5719 -8.39516 -7.89453 -1.24391 0.487181 -1.61432
36 3.30121 -8.4355 -8.3933 0.393519 -0.680834 -0.147959
90 6.97796 -6.82827 -9.13226 0.489465 0.223261 0.960416
40 4.69744 -8.51353 -8.27875 -1.39487 -0.861163 2.16518
322 3.91725 -8.51601 -7.70939 1.71445 -0.16807 2.03944
33 3.39728 -9.20931 -8.98637 0.029299 -0.0974433 1.70967
373 4.57796 -7.70615 -7.65904 2.21687 2.17428 0.330232
1 9.19014 -9.20686 -9.10731 1.00431 -1.46997 -1.76611
1798 -0.572381 -6.97558 -0.100491 -1.57099 0.0803857 1.38749
44 6.17538 -8.60579 -8.27549 0.784985 -2.53752 2.3692
87 5.2681 -7.81602 -8.47531 3.38089 0.782362 -1.17508
1802 0.826944 -6.82933 -0.0493949 1.44585 0.00855039 1.56687
65 -3.28451 -7.75562 -9.10878 0.664858 0.563329 -0.132161
4069 4.75209 -0.0159996 -6.05096 1.17733 -1.06874 2.68855
101 -7.6395 -6.2769 -9.15073 1.68044 0.756525 1.87032
330 7.0937 -8.40069 -7.62089 1.81032 -3.2275 0.0465133
48 7.79703 -8.71052 -8.48705 0.0261311 1.30497 1.99545
89 6.1566 -7.62762 -8.98935 -0.967665 -1.18717 1.91252
4 9.11686 -8.5374 -8.36084 -1.08579 -0.0967658 -1.60573
95 8.38799 -7.67325 -8.45536 1.29239 -0.373926 0.585839
169 -0.0962131 -4.6799 -9.06444 0.615077 1.83936 -0.395255
52 -9.14904 -6.98273 -8.44892 1.37778 -0.313316 1.50451
99 -8.44068 -6.02723 -8.50207 -1.42605 -0.783452 -2.00759
385 -9.16976 -6.0356 -7.64446 -0.471533 0.49965 3.03527
56 -7.79741 -6.93862 -8.44854 -0.466288 1.98368 -1.51141
342 -6.92206 -6.85151 -7.99212 -0.378084 -0.459783 1.87851
103 -6.87198 -5.91256 -8.42194 -0.638946 0.731827 -0.0625108
3481 0.0130707 -0.0831153 -8.98039 -0.406689 1.16308 1.15101
59 -5.27336 -7.74567 -8.57512 -0.217211 1.2901 -0.697991
60 -6.10338 -6.79659 -8.58324 0.440174 2.18679 -2.1179
345 -6.1871 -7.50284 -7.83259 -0.664434 -2.03457 -0.937192
393 -6.28394 -5.94597 -7.66088 2.74929 -0.816582 0.503476
899 3.95288 -9.13369 -3.83461 0.974101 0.990085 -2.47609
162 -2.41515 -3.94097 -9.14608 0.988148 -0.52205 1.14878
63 -4.24889 -7.83108 -8.60439 1.47714 -1.07583 0.519049
1965 7.46368 -2.98601 -0.122831 -1.48223 2.106 0.408464
111 -3.70141 -6.08871 -8.3696 1.15997 -0.200471 -2.5051
5164 0.83343 -9.06835 -0.879218 -1.94085 -2.91501 0.0461598
67 -2.32686 -7.71878 -8.43383 1.04283 -1.85647 0.620145
68 -3.15228 -6.88881 -8.48944 0.955002 -1.85827 -0.586196
115 -2.49306 -6.19819 -8.30539 -0.10321 -0.0789462 -0.61814
353 -3.4025 -7.70489 -7.81131 -0.799645 -0.105469 -2.68715
911 8.2985 -9.04685 -3.5999 -0.475538 0.0918741 -1.46365
1167 -3.7899 -9.16455 -2.39917 0.348149 1.45187 0.300468
71 -0.595085 -7.57117 -8.25213 4.00148 1.24034 -2.78649
72 -1.5229 -6.87771 -8.40096 1.44939 1.46345 0.0993808
70 -0.923423 -6.75515 -9.16327 0.415096 -0.786015 1.25822
76 0.0422257 -6.81062 -8.33004 2.39571 1.0976 -1.48218
61 -4.04389 -8.71311 -9.10728 2.18214 1.0974 2.52788
80 1.5219 -7.13517 -8.28677 1.27398 -1.55558 -0.119681
123 0.765763 -6.18309 -8.64684 -0.297167 0.620122 -3.07517
79 2.32228 -7.79582 -8.359 1.56988 -0.63363 1.90967
84 3.23107 -7.09078 -8.36327 -1.6683 -1.34172 0.323929
4899 -8.58695 -0.0838128 -0.462095 1.82435 0.677802 -0.463062
369 3.3296 -7.76248 -7.62894 -0.277978 1.59109 -0.310339
366 2.38161 -6.93811 -7.55706 -3.02583 1.71044 0.167663
83 4.00005 -7.81366 -8.42715 -1.2484 -3.13146 -0.183716
370 3.98273 -6.84063 -7.72521 -0.730532 0.701825 -1.25199
88 4.77506 -6.95077 -8.36967 -0.0839291 -0.306849 1.15216
4359 5.28585 -0.00832815 -3.91714 2.45743 -0.167506 2.00849
1897 -0.0206442 -4.69014 0.0133658 -1.22869 -1.08745 3.04265
374 5.40781 -6.74371 -7.5931 -0.365803 -0.719556 1.52645
92 6.05053 -6.95393 -8.28663 1.62016 -0.140354 1.56588
1527 5.25791 -6.89325 -0.156096 0.783956 -2.04465 -0.0554093
909 7.82758 -9.04652 -4.44102 0.0996076 0.543692 0.951049
91 6.97542 -7.48236 -8.43363 -0.0448511 -1.21013 -0.640162
96 7.81053 -6.6425 -8.43918 -0.665791 2.67028 -2.2769
381 7.67159 -7.56555 -7.57596 -0.187435 -0.478605 -0.649814
1179 0.770501 -9.04089 -2.46036 -0.879291 0.514546 0.78024
4651 7.0024 -0.0310723 -2.06982 1.14942 -0.357307 -1.11154
319 2.47725 -9.14144 -6.98958 2.98066 0.485806 1.23835
233 6.4178 -3.32739 -9.08077 1.45153 0.0902577 2.53705
100 -9.1979 -5.36335 -8.46114 -0.922365 -1.20743 0.131494
433 -9.16315 -4.56617 -7.68209 -1.9957 1.25979 -2.45441
278 5.50331 -0.697098 -9.11747 3.63739 -0.137129 -3.07545
104 -7.62309 -5.23614 -8.53131 -1.76433 2.87347 1.13364
389 -7.60516 -6.09535 -7.65912 -3.12762 0.449928 -1.13815
390 -7.01398 -5.14528 -7.66461 1.01667 -1.23374 1.03179
107 -5.40901 -5.93443 -8.46725 0.432843 1.40881 0.821618
108 -6.29956 -4.97203 -8.5428 -0.804065 2.82179 1.73381
394 -5.58688 -5.18791 -7.88144 -1.78139 -0.156017 -1.50278
3463 -6.96449 -0.0948232 -8.45738 1.18288 0.746934 -2.67579
117 -1.75742 -6.06094 -9.05971 -1.2307 -3.34105 -0.223582
112 -4.55658 -5.40114 -8.33799 -0.964414 -0.662559 2.03799
159 -3.92343 -4.49834 -8.58587 1.37209 -1.40839 0.477152
1197 7.6514 -9.04351 -2.82824 -0.698101 -3.51696 0.988467
905 6.21902 -9.17419 -4.66385 1.02861 -2.57546 -1.3106
116 -3.21977 -5.24816 -8.47441 0.760794 -1.36547 -2.69614
163 -2.35074 -4.54287 -8.31609 -0.439802 3.25198 -0.243939
1982 -3.74315 -0.741869 -0.0155095 -1.17904 -0.507666 -0.427649
114 -2.39186 -5.21253 -9.1344 0.359192 3.29993 -1.35572
1905 3.20832 -4.65419 -0.0146732 0.300279 -2.33513 0.154527
120 -1.55303 -5.33881 -8.44434 1.36725 -0.535436 -0.996046
119 -0.746169 -6.04333 -8.38591 0.71485 2.94515 3.1155
167 -0.787045 -4.61886 -8.39709 -3.31047 -1.55173 -0.271413
453 -1.51419 -4.66647 -7.66565 0.242061 2.38138 0.514505
124 0.0183646 -5.41544 -8.49866 -0.853829 -2.5338 4.66572
406 -0.876303 -5.38592 -7.56326 -0.353822 1.1928 1.22446
128 1.56218 -5.44869 -8.43962 -0.808552 -0.563444 0.585759
127 2.35929 -6.02702 -8.51424 -0.466792 -1.05879 0.655415
132 3.13993 -5.37834 -8.31197 0.548977 -2.07409 0.908228
465 3.22889 -4.39739 -7.72789 1.68088 2.34377 0.599507
131 3.67598 -6.13476 -8.41752 -0.498586 -0.793412 0.11769
136 4.31987 -5.35801 -8.54321 -0.641322 0.11291 -0.541795
179 3.73496 -4.60195 -8.46513 -0.697645 -3.68783 1.1184
421 4.64588 -6.022 -7.6994 2.78958 -1.63927 0.129139
133 4.59313 -6.19965 -8.91624 -0.937827 0.708403 -0.328197
425 6.13952 -6.09291 -7.68579 0.693876 1.62545 3.43199
140 6.34271 -5.47664 -8.40801 1.4183 -1.3959 1.55185
422 5.39919 -5.94944 -8.38802 -1.34929 -2.01688 -2.51316
473 5.56757 -5.29873 -7.59661 -0.47523 -0.523552 0.237834
139 7.00113 -6.15811 -8.37105 -2.10933 -0.989101 -0.52197
187 6.97042 -4.60874 -8.19906 -2.02926 2.44165 -3.66253
144 7.83564 -5.48333 -8.3776 -0.591091 -1.63536 2.37259
477 7.88771 -4.61314 -7.68879 -3.15286 1.3151 -1.11356
426 7.04663 -5.36446 -7.60999 0.331076 2.16649 -1.37978
3773 1.45534 0.0134154 -7.56874 2.36793 3.47898 -1.32089
143 8.65951 -6.14633 -8.40152 0.0894307 0.554244 -1.23512
146 -8.49329 -4.50825 -8.39922 0.303027 -2.12532 -0.303605
195 -8.56943 -3.04976 -8.4458 -1.06447 1.30752 -1.1249
234 6.90859 -2.37351 -9.17967 0.18704 -0.13044 -0.809196
151 -7.07502 -4.41641 -8.41032 -0.199756 -1.65132 0.0089634
150 -7.67345 -3.64462 -8.49864 -1.33812 -1.43729 -3.2845
4921 0.0322086 -0.106848 -1.5689 -1.67261 -0.642672 -2.79141
186 7.08986 -4.00162 -9.19786 -0.0326385 2.14586 0.945172
5197 -4.54411 -0.0696743 -0.074298 2.77603 -3.50723 -1.55251
155 -5.36963 -4.53808 -8.53279 0.832279 0.0576419 1.69083
438 -6.28993 -3.92 -8.49473 0.0961659 0.504617 0.702859
160 -4.57207 -3.70545 -8.59631 -1.4877 1.39091 -0.634051
446 -3.82214 -3.96576 -7.63744 1.45093 0.67638 -0.180293
206 -3.90706 -2.22321 -9.12723 -0.227096 -1.55504 -2.9322
164 -3.18268 -3.86475 -8.29136 0.67181 0.00995112 0.252868
1754 0.896687 -8.37341 -0.127195 -0.159655 2.95569 2.41447
168 -1.54496 -3.8916 -8.51557 0.642381 -1.74565 0.739224
454 -0.79853 -3.97167 -7.54304 0.0421734 -0.855901 -0.40636
1469 1.45165 -9.15112 -1.75104 1.83879 0.16157 -3.84342
171 0.772315 -4.71558 -8.38511 0.192565 -0.879541 0.562345
172 0.00284767 -4.0227 -8.26811 -3.0209 0.409544 -0.624908
457 0.0338836 -4.77019 -7.68685 0.607614 -2.4324 -1.12656
134 5.45302 -5.31861 -9.22714 3.12404 -1.03429 -2.42297
176 1.37325 -3.77389 -8.79606 -0.275047 2.29095 -0.185967
219 0.902199 -3.03808 -8.36655 -0.243358 0.0480577 -1.52655
461 1.57469 -4.68951 -7.69203 -1.23857 -0.540514 3.49538
509 1.50479 -3.27118 -7.53082 0.691486 0.961524 1.35179
175 2.23707 -4.6145 -8.36579 -0.38084 -0.159875 -2.33448
180 2.94845 -3.6525 -8.53124 0.850623 2.975 0.199012
223 2.03429 -3.15571 -8.44793 1.45176 -1.52926 -3.25921
1729 9.05972 -8.97036 -0.0535395 -0.406495 -0.230181 -1.04521
513 3.23207 -2.91735 -7.88802 -0.459767 -1.71693 -0.909985
184 4.60166 -3.96408 -8.51085 -1.84671 2.70585 -0.559562
466 3.83752 -3.68638 -7.82891 3.57463 -0.31285 1.16569
183 5.41879 -4.72748 -8.41471 -1.63865 0.122002 -0.0825723
188 6.06816 -3.93966 -8.31669 0.153343 1.67283 1.78252
231 5.31415 -3.78958 -7.75629 1.0507 -2.61333 -0.292515
518 5.5748 -3.02393 -8.44699 2.81939 -1.2171 -2.68113
192 7.79915 -4.02102 -8.43406 -0.797906 0.0453474 0.840915
525 7.65996 -3.19565 -7.63865 -1.13755 -1.46429 -0.951707
235 7.06111 -2.98343 -8.31209 0.52612 1.64468 0.0269714
1961 6.13618 -2.99566 -0.00796357 -1.16393 -2.74726 0.0548519
869 -7.80663 -9.20384 -4.54603 -0.818275 -1.04699 -3.16052
191 8.54158 -4.7449 -8.53833 1.07593 2.68212 -1.2857
148 -9.22463 -3.83874 -8.49871 -1.33833 -0.756284 0.498284
253 -4.58287 -1.50296 -9.19084 -1.65636 0.138547 -0.290022
478 8.45916 -3.69188 -7.68539 4.93966 -0.208846 -0.595094
1821 7.73033 -7.51987 -0.0153308 -0.440783 -1.09899 1.09657
243 -8.45347 -1.51331 -8.49922 -1.89476 3.24493 0.792021
1153 -9.18035 -9.21864 -3.01546 -1.71309 0.128477 -1.89357
1869 7.52154 -6.11914 -0.0967687 1.86631 0.882522 -0.778736
199 -6.95338 -2.87329 -8.4887 1.26016 -2.15284 0.00224594
200 -7.76273 -2.22157 -8.55238 2.01223 1.11329 -0.691258
213 -1.564 -3.10472 -9.16054 -0.440339 -0.953446 -0.0943037
486 -6.93603 -2.10801 -7.73883 0.533518 0.434404 1.66431
1801 0.239232 -7.64535 -0.123497 -1.48478 1.21861 0.385946
204 -6.18336 -1.97166 -8.45856 -1.3386 1.64552 0.191348
203 -5.60116 -3.11704 -8.39495 1.46411 -1.86726 0.636256
1464 -1.35412 -9.10307 -0.0298972 1.49586 0.473498 1.92555
137 6.18637 -6.14953 -9.08472 0.616475 3.80774 1.0801
1938 -2.3528 -2.27667 -0.0250667 0.255897 -0.391847 -0.998382
207 -3.85608 -3.09821 -8.20226 -0.637864 -1.49692 -1.79033
208 -4.47554 -2.42985 -8.46103 0.551925 0.152008 -1.27561
493 -4.72594 -3.10612 -7.70405 -0.00317375 -0.408388 0.0732286
238 8.3984 -2.40458 -9.17816 -1.34576 1.3674 1.29023
2 -8.49251 -8.63378 -9.12073 1.05042 3.58288 -2.17263
211 -2.55391 -3.16555 -8.51801 5.76535 -0.238883 1.89965
212 -3.124 -2.35427 -8.50913 0.0805677 0.933882 0.102476
498 -2.19047 -2.47857 -7.61098 1.1996 -1.04222 -0.332695
497 -3.0879 -3.08544 -7.77207 1.5165 -0.0977356 -2.67655
215 -0.524843 -3.21688 -8.20418 -1.21617 0.482409 -0.709576
216 -1.55884 -2.27878 -8.47286 -1.9638 -2.24311 -0.775231
220 0.175002 -2.31063 -8.42792 -0.682977 3.29502 -1.40869
502 -0.684867 -2.40958 -7.62787 0.574934 0.812818 -0.707747
241 -9.19712 -1.53778 -9.22113 0.355779 -1.14739 -0.389941
224 1.51668 -2.24007 -8.37141 -0.271391 -1.74335 -0.396746
506 0.980995 -2.30293 -7.51272 -3.37878 0.546632 -0.280784
1453 -4.66538 -9.1304 -1.64173 -0.210272 -4.95851 1.4079
228 3.04057 -2.23207 -8.44729 2.75316 1.66768 1.57678
271 2.32132 -1.55206 -8.40869 -0.924638 2.79545 -1.09516
1163 -5.42031 -9.16503 -2.27126 -1.28012 -0.847241 -1.54369
4923 0.71208 -0.177484 -0.720734 0.75697 0.484076 1.12301
619 6.93403 -9.04741 -5.26437 2.17867 -1.04449 0.507718
227 3.91702 -2.79801 -8.5609 -2.63024 0.0502201 1.71879
232 4.87444 -2.12275 -8.37728 1.49223 1.09809 0.643238
280 3.97925 -1.54298 -8.38533 0.912219 -2.36293 3.39208
105 -5.99668 -6.03388 -9.21751 -1.60876 4.11184 0.928067
236 5.89435 -1.97974 -8.4535 -1.3313 0.908114 0.428065
279 5.17856 -1.07499 -8.09253 1.03725 1.37513 -1.14631
1155 -8.43759 -9.20303 -2.19262 0.468835 -0.601526 -3.69469
240 7.67173 -2.20401 -8.39295 0.543646 -0.241031 0.387064
1985 -3.12041 -1.6364 -0.0320143 -0.560013 0.674022 -0.52044
1195 6.83563 -9.03975 -2.22715 -1.64537 -0.23106 -2.46044
239 8.24122 -3.20523 -8.54035 0.0863616 -1.6921 2.04523
196 9.08827 -2.37142 -8.38343 -1.89405 -0.521047 0.137415
4041 -6.10128 0.00899093 -6.19181 0.127931 1.86469 -1.72643
244 9.21116 -0.773272 -8.37654 -0.77621 -0.176997 -3.5166
1946 0.805237 -2.47369 -0.196393 -2.49466 2.46827 -1.99356
1833 -5.98805 -5.94373 -0.0783761 -2.7036 0.358485 1.89731
247 -7.0339 -1.52082 -8.59813 1.03008 -1.77773 -1.8125
248 -7.75306 -0.777558 -8.51123 -2.88339 -0.64373 1.794
1933 -4.49154 -3.32181 -0.0968421 -1.16097 1.96975 -1.58333
4033 9.16892 -0.125374 -5.91012 2.07093 -0.253777 0.0711195
251 -5.24324 -1.67213 -8.49668 -1.49601 -2.71822 0.27402
252 -6.21181 -0.774141 -8.62615 -1.43209 0.533167 -2.62775
255 -3.8065 -1.60838 -8.30307 0.515301 -1.90665 2.04349
256 -4.53955 -0.937737 -8.47166 0.391065 -1.84142 -0.877473
542 -3.76038 -0.706546 -7.60494 0.122435 3.2177 -2.48243
261 -1.61874 -1.45503 -9.10816 1.85865 1.42318 2.41333
545 -2.88963 -1.51876 -7.4392 2.10308 -0.0188988 -0.883737
259 -2.2627 -1.42043 -8.39879 -2.53462 -0.979063 -2.03539
260 -3.06756 -0.840994 -8.37784 -0.106333 -0.697905 -0.868393
546 -2.31062 -0.749478 -7.69319 0.34053 -3.61801 -0.157114
263 -0.764055 -1.65998 -8.40918 1.85203 0.359562 -1.11835
264 -1.62676 -0.725086 -8.45082 -0.180239 -1.62866 -0.61784
871 -6.88811 -9.18587 -3.82014 1.75446 0.115449 0.451237
19 -2.27922 -9.23493 -8.42532 -1.52373 -2.82569 2.77707
78 2.30619 -6.86269 -8.9196 3.37058 0.448049 0.635909
268 -0.206833 -0.869325 -8.34787 2.15501 0.869065 -0.299929
1806 2.39563 -6.8127 -0.117802 -0.505782 -0.271453 0.302205
185 6.23781 -4.72274 -8.97863 0.443049 1.39801 -1.19432
267 0.814539 -1.48593 -8.36661 -1.01409 -1.94214 -2.02785
272 1.43176 -0.664122 -8.24227 0.392362 1.29646 -0.205657
557 1.61295 -1.5555 -7.62994 -1.02181 -0.591708 1.06722
889 0.151717 -9.18869 -4.71339 1.48318 -0.0568985 -0.758918
561 3.19889 -1.50847 -7.64561 0.142768 -0.45533 0.252082
276 3.25962 -0.771781 -8.49284 -0.547708 0.532192 2.23553
558 2.2209 -0.707656 -7.76876 1.50782 0.800255 1.11552
1457 -3.12824 -9.15337 -1.66635 -0.894029 1.2606 -0.617709
566 4.74215 -0.316452 -8.6108 -1.3595 0.144511 0.949295
4655 8.26862 -0.0287853 -2.22312 1.31202 -2.2077 0.00446547
54 -6.80456 -6.89887 -9.21805 -0.861513 -2.61528 -1.71065
4067 3.88552 0.00532339 -5.50662 -1.26533 0.789973 -1.7276
254 -3.63371 -0.811929 -9.08235 1.54554 2.56938 1.7612
284 6.10325 -0.675391 -8.36596 0.288026 1.36003 2.88674
122 0.749605 -5.3003 -9.17259 -1.94285 0.611473 -2.48792
283 6.87598 -1.50687 -8.38255 0.171449 0.195935 -0.432219
573 7.68086 -1.51922 -7.67052 3.66389 0.821777 0.644328
288 7.78212 -0.884075 -8.56465 -1.73529 0.62224 -0.489521
126 2.22021 -5.37828 -9.21482 1.21154 -1.58182 -0.527564
581 -7.65213 -9.22536 -6.18153 1.45523 -0.67134 -2.38084
287 8.45907 -1.53159 -8.37501 0.470822 -0.72962 -2.75742
574 8.25807 -0.572189 -7.60132 -0.512424 0.275066 -0.188246
282 6.94828 -0.663258 -9.22545 0.238809 -0.443237 -2.66604
339 -8.39214 -7.62182 -7.13733 1.16847 1.86655 0.0571784
313 0.0774725 -9.21505 -7.86511 -0.837927 0.909388 2.1277
193 9.2253 -2.95781 -9.17406 0.0688177 2.71355 0.272973
294 -6.63806 -8.47003 -7.754 -0.691449 4.97576 1.24036
341 -7.66101 -7.60849 -7.7149 2.67103 -0.486667 -0.176013
296 -7.44588 -8.42295 -7.00982 -2.22223 0.301114 -0.0606818
343 -6.91666 -7.62313 -6.88221 -0.185813 1.20738 -0.620582
1455 -3.89051 -9.14768 -0.889118 1.82738 -0.0731884 -2.77638
298 -5.64528 -8.42429 -7.84596 2.22882 -0.603248 0.960571
300 -6.00114 -8.5847 -6.90056 -2.15898 0.131142 -0.656155
347 -5.58116 -7.74103 -7.24437 3.16346 3.33872 1.72088
58 -5.09579 -6.7215 -9.02291 0.489159 0.977302 0.70572
1726 8.4251 -0.714631 -1.56289 1.59584 -1.29884 -0.133919
302 -3.90672 -8.55853 -7.79986 -2.37946 1.10254 -1.17235
304 -4.81799 -8.4832 -7.06913 -2.19646 -0.498924 -1.88715
1449 -6.05416 -9.11502 -1.41483 -0.925943 1.29164 -0.292414
875 -5.36055 -9.23481 -3.89919 -0.912355 -1.25588 0.727453
306 -2.3158 -8.54748 -7.64936 -1.7626 1.33916 1.53803
308 -3.16761 -8.42081 -7.19924 -0.472327 -0.850467 1.12767
355 -2.45079 -7.79568 -7.0022 -0.112828 -2.51544 -1.36836
594 -2.31046 -8.62297 -6.16484 -0.498787 -0.307067 -0.59381
4915 -2.32244 -0.157508 -0.851397 0.567852 -0.346793 2.35365
312 -1.67027 -8.55763 -6.98885 -0.732295 -1.65025 1.3025
310 -0.857442 -8.5702 -7.5264 -1.93123 -0.64876 -0.911105
316 -0.0274172 -8.31115 -7.03931 0.365256 0.386235 0.391794
363 0.719393 -7.46955 -6.74823 0.856423 -1.14333 -0.43162
598 -0.822843 -8.49739 -6.2648 0.611913 -1.1285 1.81334
602 0.831514 -8.39449 -6.29686 2.34315 2.60486 2.23889
607 2.44912 -9.03739 -5.62888 0.983885 0.968991 0.473506
320 1.65388 -8.50528 -6.97463 0.911306 -0.486491 2.92839
653 1.70137 -7.71287 -6.34431 1.94575 1.31652 0.3643
318 2.58617 -8.64425 -7.80104 -0.509006 1.51166 1.39291
324 3.29997 -8.64055 -6.99685 -0.226538 0.74126 -0.971611
1813 4.4578 -7.71084 -0.223444 -0.834122 -2.52013 -0.601467
229 4.66939 -3.1103 -9.16205 0.897172 0.142025 0.249486
328 4.57893 -8.39541 -6.88533 -0.36392 0.303935 0.927371
1782 -6.89862 -7.10416 -0.00962016 0.830494 -0.866623 -0.743397
326 5.41706 -8.22544 -7.6152 -1.69617 -0.713751 0.239391
332 6.27122 -8.59615 -7.04885 -2.21556 -1.53903 -1.32147
614 5.36196 -8.37956 -6.11828 0.615609 3.46559 -1.36702
1761 2.99029 -9.11376 -0.10035 -0.637563 0.356395 1.0913
82 3.97514 -6.94723 -8.92103 -1.75644 -0.189682 -0.118732
618 6.77971 -8.37591 -6.21365 1.94231 3.02612 1.87774
669 7.76109 -7.88388 -6.05925 -2.2843 -2.69277 0.237985
336 7.86092 -8.59584 -6.97346 0.985129 0.883749 -0.755036
292 9.16393 -8.3991 -7.04926 -1.16312 -0.938097 1.09321
337 9.21917 -7.51121 -7.56141 -0.149079 1.71923 -1.82681
334 8.35839 -8.3198 -7.69876 0.391006 -0.997821 -1.05485
383 8.48586 -7.6779 -6.98171 -0.98246 0.554303 0.806456
625 -8.88114 -7.67923 -6.29383 -0.399794 0.844569 1.01595
338 -8.43154 -6.74522 -7.75898 -1.50357 0.182814 0.682298
340 -9.14019 -6.77414 -6.938 0.308803 -0.608351 1.27402
387 -8.45543 -6.06216 -7.05168 -0.674963 -0.101304 -0.0742911
344 -7.66217 -6.84314 -7.05052 -1.57209 -2.22563 -1.85661
391 -6.95657 -6.03257 -6.73705 -0.180087 -0.720044 0.19317
346 -5.48054 -6.79873 -7.83662 0.345149 -2.28728 0.176584
348 -6.27328 -6.92221 -7.09724 2.7664 -1.43603 0.915401
397 -4.76806 -6.24303 -7.84183 -0.888142 1.06213 -0.426919
349 -4.60674 -7.67054 -7.74568 -1.96822 -1.62794 0.578675
350 -4.01465 -6.91591 -7.89177 -0.290614 -0.922552 1.25445
351 -3.99076 -7.60577 -7.08647 0.0370269 -0.0225925 1.09561
352 -4.8436 -6.87055 -6.9983 0.996981 1.32004 -2.36034
399 -4.00159 -6.27842 -7.17741 1.67846 0.557374 0.701803
637 -4.84355 -7.71671 -6.35058 -0.896474 2.12861 -1.31275
354 -2.42023 -6.93915 -7.58084 2.06881 2.16315 1.9829
356 -3.23218 -7.09333 -7.08344 -0.523084 -2.00479 0.759081
642 -2.36869 -6.98411 -6.19867 -1.44083 -0.448293 -1.71071
401 -3.01742 -6.11837 -7.49489 0.888555 -0.0265489 -0.827478
403 -2.2637 -6.20344 -6.77086 1.68008 -0.765611 -0.480032
357 -1.58742 -7.64264 -7.52775 0.390606 -1.37121 -1.23291
358 -0.848309 -6.84274 -7.67507 1.83113 1.58202 -0.83061
360 -1.53195 -6.86589 -6.95263 -1.08727 -1.39553 -2.3651
693 -1.63563 -6.14261 -6.08752 1.11392 0.474367 -1.00308
362 0.791249 -6.67903 -7.62562 -0.210908 -1.46524 -3.48649
409 -0.03742 -6.11747 -7.66245 -0.585684 0.0457133 0.121548
359 -0.778527 -7.63326 -7.07526 0.328115 -1.71038 1.86065
364 -0.0316941 -6.82548 -7.0187 -1.97154 0.142809 0.878187
650 0.752469 -6.75532 -6.11317 1.39825 -1.45371 -1.66536
365 1.57965 -7.50216 -7.33027 -0.384762 -1.88273 1.6537
368 1.37925 -6.66435 -6.86497 0.198339 1.80039 -0.325362
654 2.46957 -7.70404 -7.04652 2.95144 0.292251 0.100926
372 3.14593 -6.93363 -7.0164 1.82727 1.24456 -0.477128
703 2.28077 -6.8883 -6.34038 1.14422 -1.01972 2.58524
415 2.22199 -6.12639 -7.05929 0.318797 -0.151095 1.46905
371 3.9219 -7.65651 -6.80342 0.684353 -0.245904 -0.597348
376 4.62201 -6.93848 -6.92522 -1.17808 -1.25879 -3.22678
419 3.83222 -6.06773 -6.89686 -0.490634 -1.56436 0.0611717
377 6.3404 -7.85595 -7.71215 1.81401 2.57199 0.480346
375 5.38107 -7.57036 -6.97079 -2.20473 -2.2012 2.76635
665 6.16685 -7.56646 -6.15516 -1.82382 -0.623783 -0.68262
380 6.21394 -6.82661 -7.03131 -0.302763 3.78633 -1.63247
662 5.3971 -6.86465 -6.12574 2.06208 1.27656 -0.0533009
713 6.0568 -6.13511 -6.193 -2.68479 1.7051 0.966995
379 6.83502 -7.55343 -6.90066 -2.1439 -4.07934 1.14674
378 6.95341 -6.82989 -7.66841 -0.682378 -2.98935 0.0143186
384 7.68807 -6.90737 -6.87466 -2.11696 1.47202 -2.98803
382 8.49777 -6.71876 -7.6264 -1.03184 2.19046 0.261891
386 -8.41913 -5.30557 -7.72765 0.990563 -0.00263028 1.05506
435 -8.56366 -4.54443 -6.90299 -2.2672 0.148732 0.710064
388 -9.09971 -5.26059 -6.87892 -0.172559 -2.55764 -1.56893
392 -7.71015 -5.29737 -6.97254 0.240709 -1.9796 0.780493
437 -7.79197 -4.55849 -7.67623 1.23568 0.363497 -0.473481
439 -7.00492 -4.41092 -6.96377 -0.650523 0.0635082 0.661175
395 -5.64373 -6.20939 -6.89147 -2.29945 0.418463 0.814711
396 -6.10952 -5.11978 -7.05185 -0.239916 -3.66887 1.84965
398 -3.82929 -5.30102 -7.59683 1.13733 -3.07724 1.98229
400 -4.86949 -5.51226 -7.18 -1.01018 1.01474 -0.0801155
686 -4.10702 -5.29315 -6.23463 1.80692 -2.99163 0.341633
685 -4.64213 -6.10904 -6.37461 -0.859734 1.71539 1.03504
402 -2.40079 -5.40472 -7.7849 -1.08567 0.678382 -0.566702
404 -3.2023 -5.45921 -6.7936 -0.776716 0.114896 0.217662
451 -2.44139 -4.61293 -6.92526 -1.47834 0.362811 -0.641174
405 -1.55137 -6.12547 -7.75227 2.17742 0.00444005 -2.05506
407 -0.871038 -6.06856 -6.77722 1.08735 -0.849854 -1.45431
408 -1.60268 -5.41753 -6.91994 -1.42534 -0.275415 -1.5587
690 -2.43283 -5.36878 -6.08607 2.44569 -2.01796 1.76011
410 0.91688 -5.5422 -7.73244 1.45454 1.44723 0.325494
697 -0.164869 -6.31629 -6.05656 -1.38339 -0.255336 2.4278
412 -0.149725 -5.35422 -6.63621 2.22613 -1.11689 -1.07651
411 0.639482 -6.00608 -6.87625 1.56273 0.2122 1.58286
413 1.64108 -6.27863 -7.80281 -0.608568 0.908292 -2.08864
416 1.4783 -5.37455 -6.87327 0.109769 -0.600059 1.76815
698 0.688054 -5.50294 -6.10424 0.834777 0.372264 -3.7922
417 3.02819 -6.17047 -7.72551 1.78404 -1.34532 2.6911
414 2.38426 -5.23327 -7.65105 1.40689 0.561078 -2.15801
420 2.99439 -5.33221 -6.87643 0.701896 0.769089 2.27492
463 2.38428 -4.60965 -6.80481 0.824369 1.37322 1.44015
753 3.03672 -4.71691 -6.12583 -0.0526458 3.1228 -0.378044
418 3.80713 -5.26459 -7.7564 0.384954 1.49293 -1.34859
424 4.56992 -5.27954 -6.95356 -0.380035 1.52384 0.98842
706 3.84767 -5.36927 -6.25108 -2.22658 -1.72466 1.15954
470 6.14442 -4.49981 -7.49346 0.992478 1.72288 -1.62276
423 5.36742 -6.02244 -6.90762 1.28336 1.42509 -2.48261
428 6.16077 -5.32628 -6.85585 -0.750859 -0.202223 -0.130374
761 6.22474 -4.61238 -5.96857 2.5192 -1.53396 -0.503221
710 5.33411 -5.34508 -6.06021 0.0272155 1.5443 -2.60339
429 7.70903 -6.11014 -7.599 -1.48753 0.697504 -1.89573
427 6.83819 -6.00231 -6.94057 -0.997478 -0.0297923 -1.05207
432 7.84174 -5.51525 -6.88398 0.0959119 -1.71772 -0.438812
714 6.9398 -5.18626 -6.12647 -0.304362 0.878658 -1.26241
431 8.61918 -6.06468 -6.72935 -2.77984 -1.12065 0.0295625
430 8.48031 -5.39302 -7.61582 -0.873248 -0.199845 0.585122
718 8.65114 -5.35057 -6.10472 -1.43265 -0.280367 1.82597
434 -8.46038 -3.74213 -7.75685 0.145443 1.49539 0.426306
722 -8.52117 -3.69663 -6.10318 0.98377 -0.34422 -0.0327163
436 9.22199 -3.79586 -6.97542 1.60536 0.21303 2.90631
721 -9.18746 -4.42685 -6.08115 -1.41256 -1.60594 -2.2777
152 -7.07678 -3.5674 -7.65488 4.23384 1.65528 -0.508873
440 -7.74113 -3.78169 -6.97416 -0.71571 -0.170609 2.214
726 -7.00683 -3.64951 -5.98932 -1.09298 -1.07954 2.465
773 -7.71777 -3.01194 -6.21343 -0.94704 0.640958 -0.265861
441 -6.19771 -4.41553 -7.71877 1.73893 -1.48394 1.7683
442 -5.37274 -3.75903 -7.58378 -0.570627 2.9127 1.36299
489 -6.24873 -3.02263 -7.66814 0.48998 -1.7003 0.104493
443 -5.42693 -4.49883 -6.93289 2.05517 0.913942 -1.50649
444 -6.14102 -3.807 -6.95088 -1.90353 -0.939436 1.44953
491 -5.41346 -3.04284 -6.96265 0.999546 0.319965 -0.404581
445 -4.72364 -4.53107 -7.5987 -1.02851 -2.13246 -1.96169
447 -3.8356 -4.49997 -6.81569 -2.49111 1.60324 0.452332
733 -4.77522 -4.56357 -6.07794 1.33713 -0.349617 0.164161
448 -4.62936 -3.81239 -6.87222 0.604333 -0.74575 0.250799
495 -3.95626 -3.14364 -6.9214 0.0180069 -2.73897 1.92229
734 -4.07074 -3.91462 -6.05837 -0.591494 -2.80568 -1.09241
449 -3.15466 -4.71143 -7.47501 0.907229 -3.68101 1.10098
450 -2.19284 -3.80258 -7.69043 0.290362 1.76596 0.55448
452 -3.08178 -3.81067 -6.92775 1.55739 0.849649 -0.13427
741 -1.64789 -4.80453 -6.0618 0.969065 -0.983069 0.358922
456 -1.56891 -3.99654 -6.6776 -0.412748 0.265088 1.94657
455 -0.856689 -4.72625 -6.67108 -1.56078 1.72631 2.55429
460 0.0636361 -3.93645 -6.71849 -4.46185 -3.21188 -0.620589
745 -0.085219 -4.57787 -6.02506 2.62843 -1.18196 1.13768
458 0.744923 -3.95458 -7.64169 -2.57212 -0.331956 -2.44527
459 0.848923 -4.68307 -6.94044 3.19984 1.22261 -2.44647
464 1.64324 -3.91716 -6.78092 0.775924 1.41866 -2.80629
749 1.63986 -4.62008 -6.02 2.21299 -1.12105 3.01661
462 2.34553 -3.9151 -7.63486 -1.01644 -2.52219 0.0619876
468 3.08647 -3.82804 -6.94034 -2.68908 -1.44597 1.87796
750 2.45479 -3.78009 -6.205 1.09801 -1.34603 -1.31426
517 4.61949 -3.20331 -7.95173 -0.175139 0.387779 1.82271
467 3.93307 -4.5155 -7.01441 -1.13511 -1.41952 -0.601169
469 4.56048 -4.71077 -7.80743 2.54589 0.512226 0.972441
757 4.65414 -4.71291 -6.03232 -1.17 -2.54248 -0.316375
472 4.67637 -3.84119 -6.93955 -0.344905 -0.224889 1.30178
754 3.76682 -3.91168 -6.30097 -0.63284 -0.976635 -1.1737
471 5.32405 -4.56466 -6.82904 0.16046 -0.703313 -2.73694
476 6.14457 -3.91616 -6.74005 2.18737 -1.35301 1.08943
519 5.44862 -3.15222 -6.7661 0.236657 2.01567 0.933742
474 6.88654 -3.7727 -7.57394 -0.428645 -0.719437 -2.00926
765 7.82302 -4.64187 -6.24273 -2.48512 1.82579 0.119186
475 7.04657 -4.68401 -7.01612 0.983843 1.41067 3.32962
480 7.75633 -3.95454 -6.95676 -0.625041 0.669625 1.4979
523 6.98663 -2.92992 -6.91373 1.30137 0.784907 2.01756
813 7.72898 -3.0165 -6.23939 1.44671 -0.632867 -0.972767
479 8.64186 -4.52939 -6.90784 -0.842873 2.02987 0.67451
766 8.47089 -3.83519 -6.1257 1.70636 3.24931 0.323098
482 -8.51337 -2.22126 -7.78958 0.851741 1.8325 -0.155425
483 -8.45902 -3.09962 -6.81693 -1.58999 0.968325 -0.520687
484 9.189 -2.14728 -6.8805 -1.28273 -0.730221 -1.40002
770 -8.5863 -2.31392 -6.16844 -1.36595 -0.726728 0.108934
485 -7.79199 -2.88848 -7.76775 0.773439 -0.531634 -1.77958
487 -6.97924 -2.9255 -6.75047 0.265829 -1.84663 1.67055
488 -7.8329 -2.23585 -6.8169 4.07536 1.08239 0.592481
490 -5.47376 -2.35016 -7.72552 0.991748 -0.7465 0.394252
492 -6.24697 -2.29138 -6.82454 -1.97982 -3.14432 -1.16231
778 -5.4371 -2.2874 -6.14396 0.377876 -0.0987554 -0.868146
777 -6.12598 -3.05674 -6.18968 -2.52503 -2.40781 -2.84589
494 -3.92673 -2.27756 -7.48199 -1.59469 2.69539 0.607699
496 -4.88871 -2.24428 -6.99413 -1.0223 0.694348 -0.55121
541 -4.76359 -1.45771 -7.6551 1.67952 -1.98611 0.659982
782 -4.13368 -2.23184 -6.36144 -2.69479 1.14549 0.56409
499 -2.27125 -3.25556 -6.81784 3.19017 3.83698 4.73644
500 -3.06339 -2.48318 -6.97372 2.18372 -1.80758 -0.72769
786 -2.41599 -2.44668 -6.11274 1.00152 1.58666 1.41612
501 -1.32309 -3.1985 -7.705 -1.3483 0.359361 1.44729
504 -1.56736 -2.53676 -6.84061 -2.19394 0.201483 0.782141
789 -1.53441 -3.21718 -6.09319 1.20824 2.05956 -0.29519
790 -0.832963 -2.43589 -6.0311 3.02538 0.165528 -1.5478
503 -0.768651 -3.18427 -6.94425 -2.41126 -1.24712 -1.04582
505 0.160166 -3.02091 -7.66971 -1.26863 -2.27399 -0.0761536
508 0.00288651 -2.42229 -6.87484 -0.334129 -0.901191 -3.05463
507 0.839817 -3.10536 -6.81029 -0.0176188 2.59419 -0.433198
512 1.82716 -2.3778 -6.85271 0.464457 -1.27988 -0.953759
555 0.84016 -1.45907 -6.99386 -3.77888 0.367199 0.237717
797 1.7031 -3.08782 -6.17102 -0.23573 -0.110526 -1.1097
511 2.45026 -3.03565 -7.04473 -0.163006 -1.07664 1.38437
801 3.25299 -2.98753 -6.11282 1.44113 -1.48211 -2.46064
510 2.48189 -2.29617 -7.71556 -2.13552 -1.50857 -0.915352
798 2.48334 -2.34211 -6.08569 1.06515 -0.879307 0.1462
516 3.27886 -2.31878 -6.98343 -0.181335 1.80236 0.899995
514 4.01347 -2.34687 -7.70984 0.514439 0.404195 1.21004
515 3.87297 -3.21184 -7.00606 -0.680838 0.191076 -2.22401
520 4.70155 -2.48522 -6.94915 -1.10184 -1.63978 1.95087
563 4.56785 -1.57451 -7.55422 -0.0406644 -2.69664 -1.66129
802 3.94826 -2.25773 -6.29894 0.282875 -0.496552 -1.69794
565 5.33879 -2.47398 -7.65242 2.24261 0.0145821 -2.00113
521 6.1495 -3.15398 -7.47272 1.7239 0.526367 1.53648