ITEM: TIMESTEP
162000
ITEM: NUMBER OF ATOMS
6912
ITEM: BOX BOUNDS pp pp pp
-9.2265715179435492e+00 9.2265715179435492e+00
-9.2265715179435492e+00 9.2265715179435492e+00
-9.2265715179435492e+00 9.2265715179435492e+00
ITEM: ATOMS id x y z vx vy vz
8 -7.754 -8.4967 -8.4233 -0.416827 0.857395 -2.35898
4899 -8.33312 -0.174911 -0.804165 -0.338889 0.180223 1.11567
12 -6.24921 -8.57247 -8.28207 -1.67275 -0.538073 0.522547
1870 8.34177 -5.2771 -0.251522 1.22618 -1.78255 0.187283
59 -5.53134 -7.62916 -8.42138 1.01226 -0.925994 0.464367
3501 7.5169 -0.0955695 -9.04982 0.257419 2.42999 -1.21534
298 -5.39701 -8.37436 -7.6381 -0.731158 4.38917 -0.496932
16 -4.7089 -8.29984 -8.53904 0.377197 0.686841 -0.258177
63 -3.79679 -7.63137 -8.5755 0.194078 -2.03425 -0.104645
349 -4.76321 -7.54786 -7.71293 6.26339 -0.737134 -0.732435
116 -3.97349 -5.41592 -9.0779 -0.312835 -1.76455 1.87207
23 -0.713387 -9.08972 -8.50542 -0.630536 2.89494 0.990962
20 -3.30479 -8.4231 -8.40839 4.0077 -2.11487 -0.246021
19 -2.52028 -9.09621 -8.53508 -1.45128 0.427214 -2.23287
67 -2.44099 -7.9272 -8.4855 -0.182559 1.3371 -1.28972
24 -1.61001 -8.4908 -8.18668 -0.379628 0.375669 -2.22105
74 0.790369 -7.00414 -9.15962 -1.51048 -1.87805 0.359863
26 0.0862062 -8.53136 -8.47245 2.48125 1.09024 2.06422
234 7.01316 -2.26485 -9.1926 -1.80826 -2.23784 -1.36057
4039 -7.00694 -0.0686841 -5.29169 -1.19209 0.725364 0.262647
367 1.45943 -8.46889 -8.57045 -0.282197 -1.58722 -0.545646
1905 3.30131 -4.95899 -0.0841516 -0.653251 -1.8293 -1.13915
3479 -0.671862 -0.180977 -8.41451 0.800305 2.70887 -0.592808
36 3.04292 -8.4068 -8.53829 0.388799 3.35961 2.3422
318 2.26707 -8.7121 -7.59714 2.25475 -0.299571 0.633333
4598 5.38042 -9.20789 -5.09557 2.60838 0.768573 -3.6821
2006 4.56835 -1.52269 -0.128316 2.82139 -0.294726 0.198558
40 4.77998 -8.60721 -8.66976 -0.439908 1.09493 -1.72398
4035 -8.46893 -0.0937287 -5.18197 -0.354359 -0.0903591 0.371311
904 4.70466 -9.12423 -2.96237 -0.573401 1.07455 -1.42771
122 0.904406 -5.34488 -9.0547 -0.734559 0.551945 0.274873
44 6.2044 -8.39783 -8.49407 -0.33818 2.25275 1.63614
4333 -4.54448 -0.0400352 -4.38313 2.58296 1.53297 1.95166
593 -2.52541 -8.95865 -5.341 -0.297527 1.56694 0.0512384
1898 0.891466 -3.92593 0.00260155 -0.0827969 2.58798 1.44266
48 7.63269 -8.43325 -8.53465 -0.376927 -0.147151 1.00723
91 6.93866 -7.6295 -8.44613 -1.69909 2.47676 -1.04955
330 6.80886 -8.47862 -7.76239 0.480887 0.399576 -0.639985
381 7.68747 -7.64323 -7.72835 -1.46747 0.85444 0.673987
4 9.16559 -8.40371 -8.44054 -0.668536 -1.31349 -0.622537
95 8.45397 -7.68817 -8.39574 3.22877 -0.328476 -2.95973
337 9.14817 -7.72542 -7.66664 -2.54278 0.717584 2.10971
334 8.44926 -8.50642 -7.63977 -0.918888 0.78687 -0.332502
51 -8.56429 -7.56974 -8.36972 -1.90452 1.07093 -0.671778
4331 -5.47864 -0.0202715 -4.10791 1.01517 -1.96644 -0.691394
338 -8.33208 -6.77526 -7.65604 1.83826 2.10529 0.78994
55 -6.96304 -7.67097 -8.23626 -1.37152 -0.445701 0.17172
56 -7.51492 -6.84529 -8.28709 3.84423 -0.774889 -1.53611
342 -6.91883 -7.04043 -7.51116 0.701249 1.18614 2.8095
2010 7.03455 -0.104218 -0.792901 -1.72658 0.59616 -1.79842
341 -7.79567 -7.70778 -7.68403 0.558358 -2.55447 -2.10237
5217 3.07256 -0.0809826 -0.177279 0.40798 -1.45721 -0.0685674
60 -6.42323 -6.74093 -8.30195 -0.309359 -0.815547 -1.72584
346 -5.55921 -6.86431 -7.67092 -0.597667 1.42888 -1.55263
331 7.17781 -9.1862 -6.8271 -0.557427 -2.41502 1.38519
35 3.87018 -9.00876 -8.57479 0.268471 -3.89339 -0.0448615
31 2.21049 -9.1501 -8.6063 0.751285 -2.55827 -1.65328
350 -4.56425 -7.0217 -8.6499 0.285866 1.02479 1.00705
352 -3.96992 -6.83185 -7.73124 1.17302 1.3003 0.463497
397 -4.72423 -6.1157 -7.7905 4.97019 -1.00321 -0.3532
68 -3.07372 -6.90786 -8.55376 -1.85712 -0.0478583 0.89144
113 -2.27565 -6.22185 -8.25411 0.664089 1.06689 0.677807
1169 -3.01239 -9.16101 -2.40717 -0.181578 -0.656329 -0.065365
71 -0.498115 -7.67112 -8.23091 -0.258312 -1.34685 -1.83031
69 -1.54444 -6.79476 -8.54748 0.493331 -2.27712 1.97156
5197 -5.35379 -0.171751 -0.867059 2.43456 -0.921109 -2.38744
1443 -8.34927 -8.81024 -0.581175 -1.41371 -1.19958 1.58483
361 0.0127657 -7.89451 -7.42336 -0.247514 1.97393 0.361166
76 0.174156 -6.914 -8.29143 0.417532 -1.30598 0.882307
75 0.826169 -7.69602 -8.37592 -1.0175 1.67898 -0.0838979
80 1.60367 -7.11982 -8.61286 0.0918929 -2.07157 -0.231669
250 -5.22024 -0.867891 -9.0352 -0.678792 -0.345726 -1.33138
2001 3.05087 -1.49422 -0.131735 -1.41143 -0.786366 -2.45446
93 7.75588 -7.65122 -9.16177 -0.559814 -2.04737 -0.719068
79 2.34195 -7.79213 -8.54842 -1.3663 -0.413832 -1.48878
84 3.09967 -7.00421 -8.60081 -0.529122 0.0756355 -0.415909
1894 -0.110073 -4.30363 -0.0312845 -2.50376 -0.852626 -0.191546
83 3.89026 -7.8084 -8.6398 0.0363566 -1.01499 1.78749
88 4.71775 -6.91888 -8.79167 -0.0348152 0.483136 1.1641
370 3.91591 -7.06012 -8.05166 0.00601524 0.32104 -1.91927
131 3.87223 -6.32524 -8.684 2.24958 -2.73792 1.23936
15 -4.19161 -9.08475 -8.49081 -1.94792 1.50927 0.702685
1483 6.95138 -9.08948 -0.662315 -0.488379 -1.55218 0.249593
87 5.4518 -7.58286 -8.63488 0.902965 0.929509 3.32286
92 6.16297 -6.7758 -8.76748 0.640095 0.776272 -1.33293
422 5.3015 -5.87435 -8.51783 0.660854 2.86679 0.932653
3771 0.849753 -0.185996 -6.88558 -2.14661 2.69846 3.32923
1924 8.93628 -3.26952 -0.14085 2.17657 -1.06377 -1.75981
96 7.75133 -6.91634 -8.42415 -1.62256 -1.09295 -1.21055
139 7.05793 -6.04664 -8.59377 -0.976018 -1.24209 0.970178
378 6.9473 -6.7127 -7.89786 -2.65771 -0.576219 0.174292
429 7.611 -5.94418 -7.60947 -0.498729 -3.50757 1.33716
52 9.11573 -6.89338 -8.2944 1.7622 -0.304211 0.346855
143 8.40717 -6.1436 -8.36277 -0.65569 -0.738796 0.536959
382 8.39934 -6.88037 -7.6805 -0.199179 -0.00104963 2.56042
99 -8.69686 -6.04585 -8.23 -0.195614 0.93314 -0.860726
104 -7.67167 -5.23659 -8.49774 1.44092 0.147949 -0.916721
100 8.91769 -5.28931 -8.50943 -0.738682 -0.256585 -0.331316
437 -7.84265 -4.28974 -7.67689 -3.37043 0.339584 -0.942967
103 -6.81661 -5.89309 -8.58939 -3.56747 -0.347672 -1.25325
151 -7.16905 -4.36513 -8.53669 2.39062 -0.576717 0.403479
141 7.70777 -6.13102 -9.17183 1.47605 0.224109 -0.785478
107 -5.31652 -6.24497 -8.47121 0.72424 0.644793 0.721318
108 -6.16268 -5.23795 -8.53048 -1.76881 1.86717 -0.938584
393 -6.30809 -6.12006 -7.59422 0.0255917 0.249698 -0.85457
5225 6.32891 -0.110241 -0.0971826 0.157123 0.208347 -0.200276
154 -5.34042 -3.82868 -9.0864 -0.273623 2.17154 1.48352
169 0.231224 -4.44615 -9.22949 2.88525 2.41471 -1.41754
111 -3.76173 -6.21637 -8.49942 0.669362 -0.192267 -1.5948
64 -4.6905 -5.27883 -8.46014 2.47941 -0.223744 0.282578
159 -3.88555 -4.73325 -8.34939 1.307 0.550841 -0.591758
3469 -4.56569 -0.0104037 -9.10484 -1.16774 1.48809 1.99838
115 -3.02172 -5.41709 -8.33197 -2.26463 2.28367 1.46152
402 -2.37267 -5.4516 -7.61567 -1.11249 0.982867 -2.49143
5221 4.76276 -0.0432565 -0.111791 2.03401 1.52409 1.86789
120 -1.5752 -5.38939 -8.27727 -0.811153 0.918335 1.15945
119 -0.592168 -6.28549 -8.52347 3.10334 -1.65716 -0.219006
1157 -7.39199 -8.63427 -3.49316 -0.675757 3.63289 -1.25693
453 -1.24292 -4.69052 -7.67484 -0.871968 2.46549 -2.15166
123 1.10673 -6.34825 -8.34111 -0.908698 -0.50122 -0.0422437
124 0.0168168 -5.37142 -8.4022 -1.65055 -0.729003 1.4648
410 1.07845 -5.61038 -7.73383 -1.04257 0.207079 -1.43539
167 -0.57429 -4.55933 -8.52809 -2.36357 0.700629 -1.08016
256 -5.35053 -0.0417625 -8.29038 0.538286 -1.45475 1.28874
209 -2.90848 -3.35216 -9.04059 2.82001 2.35331 -1.01034
128 1.74129 -5.50225 -8.50291 -0.179651 -0.215134 -0.109122
461 1.65766 -4.85474 -7.72658 -0.389943 1.62873 -0.728841
127 2.51766 -6.2328 -8.38282 1.0636 -1.17354 1.23916
132 3.25065 -5.45227 -8.49378 -0.942572 -1.48515 0.531599
414 2.54201 -5.43685 -7.69602 1.20396 2.27665 2.48988
1178 0.620158 -8.94277 -2.29787 0.560496 1.82578 -0.689902
4365 8.54409 -0.120656 -5.27873 -1.37618 -1.94124 -2.24529
136 4.5981 -5.25038 -8.55404 0.776224 -1.89354 1.56081
179 3.84039 -4.61087 -8.42139 1.57122 0.234359 -1.29054
4286 -3.94474 -8.89519 -5.22569 -1.92976 -1.52297 -0.528669
3769 0.0332556 -0.342191 -7.65401 -1.4778 0.197484 -3.64841
140 6.1901 -5.34858 -8.50864 -0.103203 2.70513 -2.61987
183 5.26006 -4.52231 -8.43542 0.383788 1.06437 1.78988
473 5.92305 -4.49601 -7.59045 2.1309 0.786934 -0.803849
428 5.39614 -5.29337 -7.77553 -1.20586 -1.89329 2.32867
1671 6.07169 -2.90953 -0.251306 -0.759256 0.0370695 -0.421554
144 7.70691 -5.31077 -8.32859 -2.03123 2.21401 0.375631
4602 6.2068 -9.07798 -4.59325 1.92413 -0.82673 -0.878198
883 -3.59395 -8.93204 -3.20097 0.87957 2.33429 0.180721
430 8.34592 -5.27535 -7.62283 -1.6415 3.22947 0.761119
191 8.44446 -4.47575 -8.3961 -1.7108 -4.14305 -1.76316
4623 -4.17943 -0.0831409 -2.30682 -1.31242 1.48011 0.0374854
1737 -6.09502 -9.09392 -0.0306579 -1.94374 -1.76384 0.40773
146 -8.53857 -4.31937 -8.56759 1.28315 1.53819 -0.331817
148 9.14343 -3.64155 -8.56406 0.0927269 0.526133 1.00978
434 -8.62821 -3.61178 -7.81273 0.501835 -0.0794107 -0.741285
4878 3.18484 -9.14951 -3.13198 1.54698 1.77327 -0.68195
150 -7.8811 -3.71866 -8.51973 0.0195987 -0.313346 -0.896048
485 -7.65087 -2.96912 -7.74428 -0.515103 1.45869 -0.67291
65 -3.04451 -7.59187 -9.21625 -0.906471 -2.60812 -0.983799
152 -7.06291 -3.80088 -7.74985 0.921723 0.097155 2.78421
321 3.13596 -9.14902 -7.7863 1.28365 1.00237 0.272478
155 -5.41674 -4.57374 -8.38938 -0.444464 0.331805 -1.26357
438 -6.23953 -3.76388 -8.38063 0.117036 -0.470838 -1.44316
489 -6.29918 -2.9812 -7.40371 0.0186951 0.725812 -0.0483448
153 -6.29806 -4.48681 -9.12524 1.44977 1.95257 1.2241
160 -4.69253 -3.88053 -8.31285 -0.230089 -2.48787 2.07571
446 -3.83543 -3.91164 -7.71598 1.21989 0.859443 2.13553
158 -3.74918 -3.90236 -8.78517 -2.58478 -0.590608 -0.918707
163 -2.19405 -4.68896 -8.32401 1.01427 1.17501 1.95184
164 -2.88836 -4.02736 -8.31414 2.35966 -0.4571 1.7325
449 -3.07066 -4.73269 -7.57935 1.80682 -1.29795 1.0969
273 3.21733 -1.61481 -9.19749 1.11369 2.75924 -0.447044
168 -1.29478 -3.87476 -8.26771 0.796358 -1.86115 1.59765
454 -0.60749 -3.95121 -7.61485 -1.04017 3.23016 0.233219
215 -0.597632 -3.19707 -8.3673 -1.17144 -1.42893 3.17576
3753 -6.12766 -0.0487537 -7.55337 -1.64416 -0.769923 -0.525839
172 0.292941 -3.80394 -8.28183 0.525489 -2.51863 0.519198
171 1.00204 -4.59051 -8.47412 -0.666372 -1.54736 -0.0614718
1914 6.8682 -3.92217 -0.0377357 0.3196 0.517314 -0.578713
176 1.82384 -3.86494 -8.41771 0.118933 2.18911 -2.04425
214 -0.586028 -2.54542 -9.12621 -2.88447 0.2058 -1.25802
333 7.62684 -9.04303 -7.6918 -0.191523 -1.7687 1.37392
175 2.33969 -4.7487 -8.43228 -0.0538228 0.277779 0.732545
180 3.06368 -3.74403 -8.57167 1.97866 -3.08146 0.865974
462 2.3435 -3.97602 -7.65473 1.70318 0.0503604 -0.523502
1937 -2.63366 -4.04442 -0.297748 1.78593 -0.370775 1.3081
184 4.60707 -3.80516 -8.62068 -0.464849 -1.28486 1.30584
227 3.97226 -3.08639 -8.52777 0.716113 -1.69093 -2.11072
39 5.50563 -9.00287 -8.1384 2.10017 -0.162055 0.755544
231 6.08817 -3.7793 -8.63066 1.56657 -0.249906 -0.470765
521 6.11361 -2.90596 -7.41929 -0.987546 1.59895 2.00719
1487 8.51668 -9.02574 -0.985835 2.18597 0.35993 1.12461
1699 -2.96076 -3.08326 -0.278689 -1.86933 -0.614107 -1.11115
187 6.77182 -4.47542 -8.7061 -1.59111 1.50367 1.25716
192 7.66524 -3.71747 -8.42064 -0.373248 0.838639 1.45709
879 -4.53159 -9.16683 -4.42173 2.50038 1.53635 1.00036
901 4.70239 -9.2226 -4.43785 1.10622 -1.56889 2.02655
239 8.08488 -2.86945 -8.44327 -0.704945 0.0208881 -0.276159
195 -8.66076 -2.91135 -8.57455 -1.69457 2.98589 2.62241
243 -8.65687 -1.42901 -8.24709 -1.37197 0.112173 -0.621472
199 -7.03116 -3.12333 -8.52059 -2.67429 -0.0336237 -0.41683
200 -7.66877 -2.26416 -8.3592 0.778685 0.310869 -2.28643
247 -6.9492 -1.30896 -8.27959 -1.21735 -0.447558 0.459914
4615 -6.91901 -0.0907207 -2.77538 4.16279 -0.351063 -2.18298
203 -5.41021 -3.11142 -8.33273 0.750339 0.347766 -0.168849
204 -6.33443 -2.42864 -8.24155 -1.47519 1.00537 1.31777
589 -4.59246 -9.12696 -6.08597 2.3904 1.49018 0.117509
207 -3.92944 -3.07113 -8.39254 1.1702 2.32018 1.50603
208 -4.55411 -2.29376 -8.33505 -2.62491 1.03838 2.77944
255 -3.77731 -1.62095 -8.25128 -1.16521 -1.09774 2.2569
1901 1.75002 -4.5724 -0.0869453 -1.10395 0.534638 0.349674
225 3.25582 -2.90943 -9.209 1.62444 -1.30208 -1.17617
1946 1.07058 -2.40912 -0.0242882 -2.55434 0.807893 0.732192
317 1.42411 -9.22665 -7.80858 0.33767 -0.709853 1.03131
1477 4.75213 -9.18851 -1.59304 -0.810647 -0.609134 -0.181329
211 -2.23812 -3.25839 -8.31452 -0.286778 2.19646 0.458177
212 -3.15171 -2.37937 -8.52675 0.868867 -0.443377 -1.63266
216 -1.53874 -2.47332 -8.21745 -1.89261 1.99917 1.54732
245 -7.64235 -1.48853 -8.95313 -0.0876361 0.84353 4.11322
3416 -6.84124 -0.69832 -9.11549 0.687415 3.18616 0.456097
1997 1.62372 -1.37279 -0.0921679 0.113486 0.0365617 0.649062
219 1.18634 -3.19945 -8.44182 2.36608 1.55796 -0.250309
220 0.0938384 -2.50242 -8.48303 1.01578 2.9081 -0.569605
267 0.851886 -1.41152 -8.51799 3.11742 -0.0169258 -0.512685
4584 -2.69306 -9.2345 -3.47955 -1.32188 -1.60865 0.238464
224 1.654 -2.36996 -8.38452 -2.64251 1.6243 1.10017
506 0.837989 -2.36039 -7.7764 -0.602909 -0.48628 0.763271
557 1.62315 -1.51252 -7.91491 1.32177 0.477137 1.12261
223 2.3037 -3.02394 -8.48246 0.964835 0.0779938 -0.0302666
513 3.03291 -3.28793 -7.71634 -4.3543 2.17667 0.388089
4920 -1.1454 -0.0506752 -1.45157 1.33727 -1.79642 0.253873
228 3.04436 -2.28189 -8.49356 -0.749405 -0.22086 -0.356229
271 2.41949 -1.45831 -8.47924 -0.345181 -1.48086 -0.733542
3789 7.7487 -0.0297957 -7.49506 -1.44874 -2.2254 -2.99765
509 2.36882 -2.32937 -7.73502 0.294138 0.523973 2.88513
232 4.67226 -2.37948 -8.48826 1.31269 3.19885 1.81463
11 -5.33555 -8.9693 -8.43013 -0.537327 -2.61713 1.61884
4651 6.91713 -0.027489 -2.37077 -1.0675 -2.31292 -1.6594
3457 9.09713 -0.0458038 -9.15691 0.185808 -3.10597 -1.65303
518 5.40412 -2.93671 -8.40887 0.356345 -0.743574 1.09226
236 6.11134 -2.21391 -8.46252 0.310097 -3.06506 1.02664
279 5.47515 -1.53985 -8.63747 -2.26685 1.07387 -0.73089
4037 -7.74756 -0.0731168 -6.00944 0.663499 1.50694 -0.163595
235 6.6347 -3.07303 -8.31014 0.138858 -0.0823965 0.0823498
240 7.2395 -2.32624 -8.21748 -2.85221 -0.490146 -1.38485
283 6.85924 -1.42551 -8.32479 -0.198261 -0.676374 0.173958
1723 6.79534 -1.75081 -0.706064 0.432817 0.521946 0.203364
1877 -7.91108 -4.70582 -0.0710568 0.122829 3.04901 2.15465
54 -7.03488 -6.75185 -9.18641 -0.412204 -1.92101 -1.491
196 9.10714 -2.17953 -8.64124 0.841732 -0.67764 1.52329
287 8.1358 -1.53042 -8.41841 -2.4628 2.93737 1.07503
529 9.05415 -1.6829 -7.70187 1.65218 -1.11228 -0.164908
526 8.24805 -2.25685 -7.61889 2.74955 0.803263 -1.13612
2 -8.45112 -8.44756 -9.18978 -1.63091 -3.12089 -1.36396
530 -8.57986 -0.755398 -7.48331 1.16558 -2.15311 -1.76373
5193 -6.00677 -0.471305 -0.065372 1.01675 1.41099 1.99132
1636 8.19857 -1.78827 -0.887221 1.99647 0.268205 -0.960387
248 -7.84888 -0.733184 -8.2522 -0.400564 -1.63097 -1.33664
534 -6.97617 -0.696221 -7.46899 -0.935966 2.00313 -0.59581
619 7.75057 -8.95524 -5.97271 -0.261077 -0.183882 -0.979672
253 -4.25315 -1.65479 -9.14491 0.026957 -0.0895118 0.692132
285 7.48135 -1.41057 -9.15625 -1.15706 3.29144 -1.11921
252 -5.47296 -1.60644 -8.29615 -2.45694 0.858728 0.749647
4943 -9.16486 -0.147629 -1.59542 1.22608 -1.63263 2.43697
246 -6.03114 -0.725983 -8.5081 0.987463 2.11074 0.955572
4346 0.358945 -0.0173801 -5.33586 -0.229312 1.68723 1.71326
286 8.27002 -0.804272 -9.00175 -0.913526 -0.78211 -3.1803
3749 -7.8327 -0.0682503 -7.49632 -2.24656 2.21229 0.909738
254 -4.59689 -0.880831 -8.24421 -0.79934 0.259649 -1.25181
9 -6.28723 -9.19151 -9.23014 2.25049 -2.05981 -1.49825
201 -6.14571 -2.97455 -9.04633 2.11242 -0.0626111 0.625488
259 -2.31621 -1.55243 -8.56274 -0.499778 1.14656 0.382122
3473 -3.05173 -0.78892 -8.43154 -0.644857 1.55742 -1.04378
545 -3.14527 -1.68381 -7.52608 -1.46293 -0.37587 -1.3881
161 -3.02974 -4.64091 -8.92697 1.24589 -4.62 -0.635166
263 -0.672851 -1.90465 -8.32997 1.76736 0.613064 -1.19167
264 -1.28566 -1.01848 -8.45782 1.47452 2.98184 0.328413
4345 0.443914 -0.00405142 -4.17641 0.712822 0.131626 1.29856
268 0.0222059 -0.821241 -8.6539 1.03102 3.90028 1.0582
319 2.78788 -9.2089 -6.94313 -0.0378469 -0.433076 -0.164794
258 -2.2762 -0.652131 -9.17113 0.748454 2.59853 -1.4014
887 -0.886269 -9.09113 -3.19899 0.175339 -1.83742 0.589946
272 1.61047 -0.620442 -8.5698 -0.846056 -2.40827 -2.92767
554 0.921986 -0.523119 -7.82537 0.807648 -0.75502 1.69102
1762 3.89176 -8.66372 -0.0757056 2.64501 0.0648761 1.46648
4897 -9.19539 -0.891543 -0.88117 0.207336 2.59444 -0.368665
276 3.11335 -0.816636 -8.36206 1.33455 1.04956 0.691483
558 2.39814 -0.558377 -7.69177 -0.240045 -1.12006 -1.33251
4929 2.45673 -0.104686 -1.05102 -2.56599 -2.35148 2.77338
280 3.86014 -1.59758 -8.46459 -0.119932 1.3574 0.622944
566 4.47575 -0.674884 -8.43253 -1.30925 1.88306 -0.959396
53 -7.74101 -7.57946 -8.98117 -0.213 -0.0531974 -0.547365
3467 -5.9546 -0.0182422 -9.24324 1.38903 0.942246 -3.60992
284 6.13579 -0.831202 -8.59301 0.266518 -0.404623 0.6623
147 9.07967 -4.5085 -9.20637 -1.93435 2.45164 -1.63112
222 2.38079 -2.16131 -9.14885 -2.10673 0.665448 -0.767664
288 7.56026 -0.731482 -8.20637 -1.91701 -2.59821 0.0732211
3477 -1.60097 -0.00487903 -8.65692 -1.44089 1.07068 -1.96075
1727 7.65227 -0.908741 -0.716503 -2.41903 0.463173 -1.69995
138 7.11477 -5.24148 -9.16895 0.374513 2.38216 -0.110126
244 8.98605 -0.879623 -8.20493 2.88448 2.59492 0.939813
574 8.22025 -0.860579 -7.61574 1.32162 2.98661 -0.814239
3757 -4.41683 -0.0586536 -7.43239 -2.67039 -2.14045 -0.0333285
290 -8.424 -8.56887 -7.75418 -1.10251 -0.502963 -0.159771
339 -8.50718 -7.71728 -7.04149 -0.170126 2.16609 1.34883
578 -8.55215 -8.44832 -6.11632 2.10772 0.390311 1.38289
42 6.89412 -8.47084 -9.20685 -1.64826 0.683864 -0.462941
296 -7.71998 -8.44339 -6.85021 2.46036 -0.378459 0.914343
294 -7.04729 -8.27647 -7.50982 0.908068 2.2706 1.60115
343 -6.97688 -7.70839 -6.6593 3.37541 -1.45731 2.81366
582 -6.93951 -8.49119 -6.02625 1.81466 -2.39523 -0.192565
97 9.02443 -6.09513 -9.10526 -2.08482 -2.19853 -1.29177
299 -4.61273 -8.91697 -7.67596 -0.276143 0.73612 2.84754
345 -6.15346 -7.72629 -7.71103 -3.82765 4.08396 2.29145
4933 5.04199 -0.0208103 -1.66615 -2.94441 -0.238406 1.26066
300 -6.15921 -8.35888 -6.80821 1.0091 1.10028 -0.506664
347 -5.49443 -7.5542 -6.86522 0.322615 0.650856 0.414324
633 -6.01531 -7.55794 -6.0795 -2.01233 -0.564735 1.65865
302 -3.89758 -8.18326 -7.58541 1.5963 3.91048 0.746035
301 -3.80135 -9.03509 -6.89463 -3.0247 -0.0847811 -2.52061
304 -4.5902 -8.16654 -6.93532 2.20681 -0.555531 -2.77248
590 -3.93628 -8.1608 -6.23822 -1.2128 0.241532 -0.770139
597 -1.70062 -9.03852 -5.91859 0.110998 0.586181 0.295658
306 -2.40076 -8.34487 -7.5726 -0.98021 0.589681 -2.1582
353 -3.14566 -7.66023 -7.7602 0.896571 1.1825 -0.372409
308 -3.17599 -8.20139 -6.96849 -1.85524 1.20329 -1.58263
355 -2.27178 -7.47995 -6.9703 -1.61744 -0.796433 1.23025
641 -3.18414 -7.52063 -6.24827 -0.982126 0.865754 0.268125
307 -2.60672 -8.87639 -6.69372 -1.03817 1.96538 1.64624
312 -1.61757 -8.23886 -6.99886 -1.8297 0.357054 -1.99404
310 -0.859028 -8.37461 -7.64083 0.0621336 0.96848 -0.724972
311 -0.948442 -9.03786 -6.59181 -0.555585 -1.23862 -3.01525
316 -0.0573125 -8.57822 -6.66957 -0.709781 0.765904 -2.0329
313 0.0656446 -9.13319 -7.47961 -1.34413 -2.14319 1.5449
28 0.771796 -8.50573 -7.78006 -0.404218 -0.706442 1.84036
305 -3.13328 -8.91314 -7.63739 -1.37996 -2.50256 -0.861388
320 1.61363 -8.79697 -6.90405 -0.547833 -2.18926 1.10299
324 3.80662 -9.04667 -6.93385 -2.0568 -0.173418 -0.168954
72 -1.4826 -5.95674 -9.14075 -1.95058 -3.0115 -1.12819
322 4.21486 -8.61233 -7.77857 -0.393966 -1.37789 -2.66838
374 4.96946 -7.72382 -7.86516 -0.55287 -1.72492 -1.03307
328 4.89974 -8.36244 -6.92577 -0.954421 0.203441 1.30482
371 4.22602 -7.62473 -7.08024 -0.38809 2.21806 -0.740845
326 5.70918 -8.35116 -7.63596 -2.20592 -1.45688 -3.23791
332 6.48919 -8.3448 -6.88426 3.0206 -0.411944 0.620951
375 5.66825 -7.67907 -6.94978 -1.01287 -0.817439 -1.91937
377 6.06391 -7.34419 -7.81619 -0.951297 -2.31492 0.28677
336 7.59973 -8.29515 -6.98422 -1.69306 1.24164 0.23451
379 6.73786 -7.48781 -7.12599 -3.05302 0.305472 0.377765
3283 -3.09216 -5.98642 -9.22349 -3.69196 -0.145864 0.51922
3755 -5.35905 -0.243252 -6.55336 -0.0273779 0.455991 0.00553703
292 -9.20702 -8.38766 -6.93607 -1.92075 2.45212 0.353993
383 8.4415 -7.66017 -6.97806 -1.34455 -3.39288 -1.00076
622 8.48157 -8.38504 -6.14833 1.32095 -0.429334 -1.79717
344 -7.55308 -6.9488 -6.83083 -2.48274 -0.336471 1.14111
626 -8.44631 -6.91068 -6.38725 -0.883676 -1.51512 1.01996
630 -6.94437 -6.82379 -5.99679 -0.805164 0.21463 -1.11532
391 -7.03304 -6.03777 -6.90523 -0.604372 -1.8685 0.381886
389 -7.62178 -5.97978 -7.72329 -0.0632478 0.212367 -2.79119
677 -7.92526 -6.08817 -6.35254 -1.32842 -1.02758 4.87565
348 -6.34639 -7.01706 -6.85284 1.76102 0.627432 1.64069
637 -5.4998 -6.66784 -6.22939 2.26711 -0.65481 0.696878
351 -3.83338 -7.39143 -6.90181 2.75923 -0.049579 -1.51957
634 -4.8014 -6.78512 -7.03528 -1.86778 1.15777 -0.212337
639 -4.75387 -7.42574 -5.94023 -3.25677 -0.738563 -2.44249
638 -4.01639 -6.8532 -6.00039 1.36559 0.629256 1.73455
354 -2.43139 -7.07373 -7.75942 1.17829 0.697881 -0.540788
401 -3.19628 -6.17171 -7.56079 -0.147425 2.80504 0.367395
356 -3.13156 -6.85363 -6.84799 -3.62977 -2.98471 -0.915948
358 -0.540548 -6.78122 -7.62324 -1.05317 3.13002 -1.09512
357 -1.47484 -7.49227 -7.75803 -0.707743 1.72946 0.355313
360 -1.36758 -7.04358 -6.80075 -0.72081 2.78788 1.44738
359 -0.704168 -7.91911 -6.63295 -0.878766 -2.41106 2.16502
364 0.171405 -7.00896 -6.97216 1.41087 0.980745 -1.2611
362 0.908294 -7.09806 -7.62377 -2.63764 -1.37297 -0.47507
365 1.55294 -7.94991 -7.6945 -0.675896 0.324154 -1.94048
314 0.890918 -8.13991 -6.73007 -2.06783 3.91383 -2.66949
368 1.66553 -7.20643 -6.9292 1.66994 -0.359496 -1.23752
650 0.828961 -7.19726 -6.31377 -0.266743 0.279922 -0.00780382
369 3.33065 -8.17823 -7.51877 -1.59174 -1.15913 3.50998
366 2.34657 -6.99491 -7.90715 -2.29185 2.39056 0.359345
654 2.33977 -7.77259 -7.21137 0.932197 3.63186 -0.430897
703 3.55274 -6.86845 -7.10595 -1.23688 -0.803006 -1.23886
415 2.64094 -6.17693 -6.99175 0.502558 -0.516258 0.974262
421 4.45435 -6.11447 -7.90058 0.321023 2.10673 -0.472006
373 4.73642 -6.83089 -7.18852 -2.58694 -0.691564 1.27172
372 4.05153 -6.06594 -6.81049 1.2432 -0.198618 0.491869
380 5.97911 -6.8375 -6.99555 -1.67952 -1.46105 -0.746388
423 5.29733 -6.73302 -7.9712 0.343112 1.48169 -0.11903
665 5.31973 -6.05447 -7.12719 -3.64487 1.58925 0.687715
425 6.14095 -6.11928 -7.87422 -1.60945 0.535264 -1.61668
384 7.66447 -6.76822 -7.01753 -2.21097 3.26999 -0.298644
427 6.78397 -6.13382 -6.88917 0.805314 2.50553 -0.146951
340 -9.18934 -6.81312 -7.03384 1.9708 -3.59475 -0.743671
431 8.32216 -5.95094 -6.9383 2.01717 -1.12076 0.161321
386 -8.47635 -5.02568 -7.78871 -0.795545 1.963 3.43334
387 -8.55083 -5.86628 -7.03652 -1.78786 -2.27288 -1.65498
435 -8.48357 -4.47444 -6.89856 -0.774833 0.458975 -0.431339
674 -8.60021 -5.27179 -6.22194 -0.148075 -1.30053 2.31213
392 -7.75161 -5.25975 -6.91705 -1.1086 -0.471996 -3.11119
390 -7.17298 -5.1031 -7.71084 -0.113455 -1.28088 -0.259322
678 -7.03833 -5.23137 -6.18445 2.99439 0.874308 -0.657019
395 -5.46827 -6.07944 -7.01661 0.0738429 0.446167 2.42432
394 -5.56202 -5.47976 -7.68063 -1.10187 1.23361 0.672029
396 -6.24272 -5.34124 -7.01437 -0.176824 -2.03493 2.44479
682 -5.49922 -5.24222 -6.29629 -1.13496 0.428579 0.267312
729 -6.25001 -4.72032 -6.11699 1.68881 1.02918 -0.712309
398 -3.80906 -5.42658 -7.69548 1.36342 -2.42289 -3.49219
399 -3.99734 -6.34349 -6.82798 0.67202 1.48455 -2.96028
400 -4.63742 -5.47927 -7.10921 -0.633885 -0.664581 -0.315242
685 -4.7991 -6.04742 -6.0105 -0.0792671 -0.755373 -1.31025
447 -3.97015 -5.33452 -6.40711 1.50586 0.643818 1.28533
404 -3.12745 -5.41207 -6.92053 -4.2976 -1.0723 0.13043
403 -2.34235 -6.20746 -7.0359 0.614925 -3.26209 -0.915255
406 -0.775748 -5.53687 -7.64506 1.4145 -0.352334 -0.737944
407 -0.646145 -6.21298 -6.9138 0.760169 1.6671 0.217873
405 -1.48828 -6.17523 -7.64696 0.258643 -1.3051 0.644546
408 -1.59863 -5.47723 -6.96483 -2.84303 1.48113 0.0191554
409 0.364826 -6.23679 -7.62842 1.89031 1.33681 -2.0413
411 1.17367 -6.32425 -6.93361 0.108246 -0.0916011 -1.65237
412 0.296383 -5.50435 -7.05134 -1.05218 -1.07413 -0.115771
413 1.87032 -6.21288 -7.67971 -0.471501 0.0130613 2.2692
416 1.84137 -5.58298 -6.87081 -0.474032 -0.873423 3.92461
698 1.13388 -5.65293 -6.16689 1.01287 0.225789 -0.380133
749 1.91398 -4.69199 -6.0091 0.0845426 0.159004 0.196957
417 3.46971 -6.22605 -7.78451 -2.69759 -0.410139 2.24673
420 3.30252 -5.32285 -6.92868 2.57692 1.82276 0.256001
463 2.48105 -4.68926 -6.83146 -0.0223099 2.33707 -0.104908
418 3.96858 -5.28647 -7.76306 0.522254 0.675665 -1.8049
419 4.64268 -5.36283 -6.99654 0.231232 0.373533 -0.792735
467 3.92977 -4.67694 -7.08019 0.343512 0.493932 -1.51595
469 4.74983 -4.57211 -7.6392 2.37593 -1.64075 -0.542089
471 6.08802 -5.41986 -7.14589 -0.032229 1.06506 -2.45511
757 5.41736 -4.46196 -6.87643 -0.743376 2.06259 -0.785941
426 6.85412 -5.0757 -7.91914 0.461291 -0.348821 -2.23384
432 7.61136 -5.24037 -6.98558 -0.470139 0.999428 0.706206
475 6.79852 -4.56113 -6.96048 0.915853 1.85937 1.63721
714 6.91099 -5.27325 -6.23786 -1.53006 -0.724106 1.26245
765 7.7737 -4.67133 -6.20611 0.66682 -1.60041 -1.05607
385 9.01111 -6.04614 -7.5771 0.215691 0.805399 1.79655
433 9.10221 -4.33791 -7.56709 -1.48454 0.781598 -0.633757
388 -9.19747 -5.22375 -6.9223 0.752673 -2.13123 -0.743606
479 8.34066 -4.28022 -6.9895 0.878435 1.10194 -1.11277
483 -8.53227 -2.92951 -6.90784 -0.251675 0.362074 -2.03002
721 8.91017 -4.60743 -6.25976 2.69811 2.05489 0.117305
440 -7.85478 -3.70683 -6.84843 2.47322 1.12781 -2.22084
439 -6.9101 -4.52074 -6.80258 -1.98642 0.54121 1.0551
487 -7.04174 -3.0483 -6.81488 0.0888248 -2.52686 0.95181
725 -7.68574 -4.52705 -6.18051 -0.483237 0.343185 -1.39492
773 -7.87434 -2.95028 -6.12058 1.31813 -1.86759 -0.386276
442 -5.59121 -3.78377 -7.62953 -1.17812 3.48614 1.78421
441 -6.35468 -4.58352 -7.56749 0.609452 -0.514731 -3.20551
443 -5.47699 -4.66759 -7.06705 3.83008 -4.24041 4.01973
444 -6.30472 -3.78011 -6.94481 -0.794647 -1.04903 0.332281
491 -5.33562 -2.941 -6.91555 2.82821 -1.58955 2.09017
448 -3.94696 -4.73217 -7.11987 0.0386447 -2.85057 -0.512887
112 -4.74164 -4.69756 -7.66453 -0.732458 -2.85842 -0.352777
445 -4.73791 -4.0555 -7.0143 -1.29339 0.858813 0.591753
495 -3.83615 -3.10709 -6.86086 0.729045 -2.46006 -2.15404
733 -4.71626 -4.62235 -6.23979 -0.76235 2.78451 1.74559
450 -2.17645 -3.87365 -7.57903 -1.179 1.33061 -0.19845
497 -3.15338 -3.19979 -7.77903 1.53606 1.24234 -1.42642
451 -2.20064 -4.74219 -7.01816 -1.37914 0.398908 -0.628915
452 -3.0519 -3.82183 -6.70249 -1.95754 1.68438 -0.165051
499 -2.28681 -3.22125 -6.81662 1.08097 1.09447 -0.950493
456 -1.31067 -4.04171 -6.89993 0.96977 2.10705 -0.952081
455 -0.527922 -4.82075 -6.91501 1.25677 -1.18828 1.3078
503 -0.570272 -3.34741 -6.93904 0.36877 1.3394 1.4152
505 0.233078 -3.10436 -7.57086 1.48017 -0.261179 0.304601
457 0.31762 -4.74853 -7.60529 1.41176 -0.220895 2.08711
460 0.269883 -3.88067 -7.00166 1.19519 1.25783 -0.347306
794 1.13158 -3.24498 -6.90766 -0.359924 1.35472 -0.618085
458 1.09804 -3.97127 -7.63889 -0.446576 0.998938 1.16906
459 1.24402 -4.88368 -6.70142 -0.29632 -1.75785 -1.17855
746 1.72303 -4.00145 -6.66962 -0.266269 1.75553 -1.72865
464 1.79244 -3.10982 -7.63817 2.30492 -0.147858 1.05479
465 3.07222 -4.55895 -7.83567 -1.0859 1.25183 -1.05562
750 2.54205 -3.91625 -6.07319 0.587013 -2.90363 -1.17672
468 3.2423 -4.01803 -7.00756 0.412336 1.80477 2.53903
466 3.97529 -3.76909 -7.75596 -0.386904 -0.888045 -2.1749
472 4.53846 -3.81708 -6.97269 -0.275412 0.952463 -1.15601
470 5.47802 -3.6434 -7.56686 -0.710847 -0.65335 1.61682
476 6.16996 -3.8625 -6.62706 0.770366 -1.40322 -1.14745
477 7.63078 -4.43525 -7.68735 0.150778 -0.868105 -0.392609
474 6.64812 -3.94212 -7.71167 2.04186 1.93096 -1.95723
480 7.49103 -3.69783 -6.92885 0.944063 -0.743444 -3.72236
523 6.77805 -3.0335 -6.63255 -1.32294 0.505765 -2.34488
525 7.53474 -2.9915 -7.62818 -1.00297 0.183896 -5.11266
478 8.3068 -3.54296 -7.61829 3.21196 0.645878 2.82202
436 9.10432 -3.49684 -6.89325 0.448558 3.55412 -1.82072
766 8.45249 -3.71788 -6.13475 1.28584 -2.4113 1.93951
769 9.13543 -3.03539 -6.0251 4.54997 -1.89844 -2.74129
481 9.16338 -2.9396 -7.84036 3.27189 0.429692 3.59411
482 -8.49845 -2.3005 -7.7471 -0.354601 3.24587 -1.84371
484 9.1507 -2.31327 -6.91245 -0.668557 5.00377 -2.35115
770 -8.51467 -2.18027 -5.98071 -2.66843 -0.305075 -0.0905766
817 9.10924 -1.62366 -5.94528 0.616071 0.421425 3.39053
486 -6.96384 -2.26091 -7.62493 3.68374 0.79789 2.26289
488 -7.62585 -2.34507 -6.90099 2.11802 -0.889155 -2.20944
533 -7.75344 -1.41853 -7.56825 1.53697 -2.45648 2.2387
535 -6.87988 -1.48329 -6.84863 1.22416 0.797581 1.67348
821 -7.56448 -1.66439 -6.03597 -1.25296 0.0682806 0.00806211
251 -5.56013 -2.32682 -7.67642 -0.491369 0.319514 -0.182672
492 -6.33198 -2.26126 -6.85691 -1.50775 1.11856 -0.831371
537 -6.29808 -1.4841 -7.57105 0.856356 2.11803 3.90506
778 -5.40149 -2.34397 -6.07864 -1.10719 -0.872345 2.14405
493 -4.69805 -3.26851 -7.6357 0.90055 0.561124 -0.216378
494 -4.02982 -2.27334 -7.44641 0.584417 -0.690551 -2.40708
496 -4.69761 -2.2531 -6.67339 -1.0129 -0.0635669 -1.00311
543 -3.78901 -1.55861 -6.78231 -2.88597 0.208635 3.83877
490 -4.65185 -1.50655 -7.49376 0.31356 1.01478 -1.8333
498 -2.43009 -2.31183 -7.72084 -0.844769 -0.115598 1.41939
500 -2.98897 -2.54788 -6.89025 -2.89512 -1.81489 2.33851
786 -2.37343 -2.4191 -6.17012 -0.436137 0.306166 1.83021
501 -1.48029 -3.23755 -7.51067 1.83876 1.02314 -1.36965
549 -1.42642 -1.69381 -7.66957 -2.21899 1.60074 0.225779
504 -1.5558 -2.41422 -6.91056 -2.32307 1.07691 -0.729662
837 -1.47654 -1.47437 -6.46034 -0.88439 -1.27884 1.41719
502 -0.781079 -2.537 -7.52722 0.662892 -1.65896 2.29303
553 0.294989 -1.52299 -7.62349 -0.434741 2.1139 -1.06443
508 0.293957 -2.3914 -6.89077 -0.639283 -0.193325 0.678524
841 0.227907 -1.60952 -6.28373 -0.53685 -0.942898 0.766977
790 -0.592539 -2.49383 -6.41767 -0.159356 -3.94958 0.291536