ITEM: TIMESTEP
33000
ITEM: NUMBER OF ATOMS
6912
ITEM: BOX BOUNDS pp pp pp
-9.2265715179435492e+00 9.2265715179435492e+00
-9.2265715179435492e+00 9.2265715179435492e+00
-9.2265715179435492e+00 9.2265715179435492e+00
ITEM: ATOMS id x y z vx vy vz
290 -8.62268 -8.39396 -7.86978 0.522502 -0.238013 1.28243
3 -8.45042 -9.21209 -8.59883 2.42699 0.176059 -2.34683
8 -7.78786 -8.39337 -8.52023 0.383263 -0.438028 -0.414689
7 -7.06378 -9.08808 -8.56307 -0.466122 0.799439 -0.723983
12 -6.19483 -8.43627 -8.44229 -3.61288 3.90086 -1.72233
298 -5.57362 -8.47049 -7.69528 -1.05476 -0.817879 -0.814664
297 -6.18371 -9.19254 -7.71321 0.17916 -2.06985 -0.121335
15 -3.9348 -9.09531 -8.45395 1.65709 1.34522 -2.25095
16 -4.72491 -8.47694 -8.5481 1.04718 0.0430957 3.5059
63 -3.97604 -7.73735 -8.65734 -2.76613 2.61729 -0.0654056
19 -2.37281 -9.14548 -8.46564 -1.55985 1.09336 -0.00534771
20 -2.99089 -8.22419 -8.44974 -0.320278 0.583164 -1.21515
305 -3.11207 -9.10674 -7.71869 1.3507 -0.277883 0.585772
24 -1.64234 -8.28111 -8.45414 -1.30742 -0.913682 1.9006
21 -1.59824 -9.08913 -9.05249 1.54525 2.57394 0.968318
22 -0.880681 -8.37468 -9.15142 0.335744 1.21569 -1.65253
310 -0.85185 -8.44119 -7.79828 0.594481 1.17942 0.528337
309 -1.58614 -9.10968 -7.71588 0.300609 -3.13401 -0.846165
28 -0.0180887 -8.34153 -8.45176 -0.973554 -2.37808 -1.39193
26 0.698846 -8.4885 -9.16408 0.630677 1.13736 1.08333
23 -0.700883 -9.05158 -8.4505 1.22916 1.0108 -1.03807
32 1.64691 -8.33222 -8.4066 2.22482 -0.207207 1.67904
29 1.57796 -9.09697 -9.14622 -0.59055 1.37356 -4.5719
27 0.82803 -9.21821 -8.47517 0.282 -0.315664 -0.667443
77 1.37145 -7.72689 -9.21875 0.721524 -3.13091 0.788261
314 0.747572 -8.3726 -7.71957 0.384788 0.886355 -0.0279533
36 3.0923 -8.43227 -8.55072 -0.947322 -3.62609 1.23785
31 2.40876 -9.0619 -8.50655 -3.51274 -3.23757 -2.18646
318 2.41565 -8.45772 -7.70168 2.60011 1.43329 0.0193406
40 4.59418 -8.34435 -8.46983 -0.186854 -1.46959 1.39864
322 3.65497 -8.56521 -7.79269 -0.851175 -1.17584 1.42599
373 4.68546 -7.78767 -7.73921 -0.0610394 0.792761 -2.0352
35 3.78164 -9.05392 -8.65812 -0.58769 -0.439537 2.14791
325 4.66844 -9.17732 -7.84729 1.47898 -1.97636 0.137932
44 6.09766 -8.55001 -8.42288 -1.44685 3.03489 0.283192
87 5.45986 -7.72728 -8.29467 1.90991 -0.482954 -1.99989
326 5.40927 -8.59839 -7.70567 2.96163 0.913744 -1.28011
39 5.31185 -9.13839 -8.63999 -0.409742 0.220789 1.48611
48 7.684 -8.54829 -8.41138 -2.80937 0.61955 0.0427037
91 6.83404 -8.0084 -8.54421 -0.330472 2.67323 -2.02636
43 6.87471 -9.13184 -8.61253 0.567579 1.46828 -0.294707
4 9.16061 -8.61824 -8.7575 0.886649 1.06398 -1.67378
95 8.38983 -7.74455 -8.61038 1.48315 0.347201 0.175949
334 8.52091 -8.66014 -7.96032 0.540986 -1.17382 -0.0124929
51 -8.46816 -7.61153 -8.61602 0.687393 -1.14319 1.36391
52 -9.16774 -6.90581 -8.7756 -1.06498 0.798013 1.87713
338 -8.42814 -6.87465 -7.88915 -1.69129 -1.68036 1.55138
56 -7.71375 -6.75524 -8.46892 1.03084 -0.256826 0.301209
55 -7.0304 -7.6319 -8.53419 0.416917 -0.565244 1.11427
103 -6.76072 -6.15324 -8.48872 -0.026985 -1.38464 -0.872809
341 -7.73882 -7.64739 -7.73724 0.823493 -0.0552493 -0.439873
59 -5.32583 -7.63971 -8.47679 -1.27641 0.243801 2.46336
345 -6.08529 -7.60794 -7.8398 0.765797 0.804407 1.2491
60 -6.09047 -6.9416 -8.56555 -0.767256 1.21997 1.23006
107 -5.44245 -6.22935 -8.44581 -0.112308 -0.798614 -2.30811
393 -6.06978 -6.30544 -7.76265 1.1397 3.36083 -0.399218
58 -5.43043 -7.07604 -9.20507 -0.130518 -1.22656 0.236024
64 -4.59833 -7.04536 -8.40689 -0.725334 -1.22381 1.04243
111 -3.83682 -6.16736 -8.55898 -0.774905 0.233866 0.433166
109 -4.87478 -6.38252 -9.19357 -2.03177 -1.32277 -0.52792
67 -2.36179 -7.51945 -8.66489 -2.70201 0.451912 -1.15739
68 -3.21126 -6.97247 -8.52176 -0.361726 3.40768 1.45473
115 -2.5126 -6.19935 -8.54209 2.42191 0.211552 -1.44637
113 -3.15954 -6.3863 -9.21288 1.60822 0.374061 -0.505088
72 -1.7406 -6.74708 -8.42848 -1.18809 -2.64188 -1.40638
71 -0.93214 -7.47722 -8.51535 0.118996 -1.22992 1.04149
74 0.705266 -6.8801 -9.16272 1.67067 0.38019 -0.128102
76 -0.106311 -6.77573 -8.44987 -0.194486 -0.119925 0.811391
361 -0.068548 -7.6522 -7.76956 1.57295 1.29765 -0.208081
73 -0.0723671 -7.56145 -9.18465 0.207012 -0.0316169 -2.28479
75 0.800645 -7.65598 -8.36249 0.792247 -0.332272 0.59888
362 0.744935 -6.8665 -7.69303 -2.04842 -2.18871 -3.68036
80 1.58588 -6.84729 -8.56055 -1.15177 -0.115572 1.39489
413 1.53206 -6.19793 -7.74214 2.91855 2.12806 -0.460799
123 0.809536 -6.21603 -8.44404 0.375695 -1.29555 -3.23747
79 2.23122 -7.59926 -8.47275 1.44316 0.851021 0.745957
84 3.1067 -7.03485 -8.47447 1.19277 -0.232876 -1.43673
127 2.39246 -6.15445 -8.43216 -1.95491 1.1714 -1.82958
369 3.09576 -7.63588 -7.73122 0.272761 -0.455958 0.25085
83 3.8436 -7.68542 -8.41276 0.372242 -1.67852 0.254275
88 4.63136 -7.01338 -8.4665 1.44605 0.0333986 -1.25456
131 3.81429 -6.21817 -8.53665 -3.38657 2.38439 2.00338
82 3.80228 -6.87568 -9.20574 -1.84974 -0.884742 -0.58988
421 4.63519 -6.2226 -7.83586 1.58427 -0.490113 -0.105662
85 4.52496 -7.56902 -9.21279 -1.18041 -0.388904 1.28591
92 6.05932 -6.97003 -8.57512 -0.314043 -2.1276 1.58169
374 5.46282 -6.89457 -7.74303 -1.24951 0.0789214 -1.15291
425 6.21588 -6.22914 -7.76562 3.91551 0.230448 -1.08641
96 7.59456 -6.99282 -8.802 -1.44306 0.565033 -0.398167
429 7.76391 -6.29148 -7.77892 0.0629421 -0.58826 -1.07083
381 7.66595 -7.68536 -7.82672 -1.0716 0.93988 -0.102577
378 6.9265 -7.04834 -8.02358 1.29743 0.050372 0.402388
337 9.20179 -7.57785 -7.74554 1.36547 -1.53418 0.610253
382 8.47864 -6.94682 -7.86327 -0.302862 -0.414403 0.862209
385 9.19921 -6.22116 -7.71186 1.4779 1.3642 -0.0650475
99 -8.42775 -6.09911 -8.57306 1.54129 -3.33503 0.346457
100 -9.15266 -5.28245 -8.57488 -1.89642 1.74863 0.849523
386 -8.44089 -5.42477 -7.86657 1.60241 0.382413 -2.28264
104 -7.74611 -5.40336 -8.50021 0.00620334 2.58425 1.85139
151 -7.00177 -4.69135 -8.44817 0.200832 3.2304 -0.208021
389 -7.76474 -6.06388 -7.71918 0.775307 0.825823 0.699333
102 -6.86025 -5.35954 -9.21268 2.49065 -0.444017 -0.00753371
149 -7.72384 -4.67903 -9.21388 -1.26572 -1.44934 0.148089
108 -6.18352 -5.35885 -8.36695 1.67841 -2.35448 -2.45344
155 -5.36859 -4.78212 -8.38567 -0.138949 0.6712 -3.25093
106 -5.47039 -5.41124 -9.15732 -0.545694 -0.633785 0.862535
157 -4.60651 -4.65545 -9.15003 2.37217 -2.12001 -3.11333
112 -4.64192 -5.48811 -8.51424 1.88907 1.62775 1.27423
159 -3.95158 -4.7749 -8.309 -0.384653 0.0612888 0.472247
116 -3.16447 -5.42777 -8.63929 1.59425 0.513709 -1.26266
402 -2.39346 -5.53424 -7.71683 1.33206 1.49022 -3.47957
114 -2.26826 -5.39837 -9.05894 -0.0414106 1.52185 -0.564973
120 -1.50009 -5.36964 -8.29605 0.372403 -1.49977 1.2761
119 -0.83677 -6.07698 -8.37889 -0.0447885 -1.06568 -0.0444615
118 -0.850317 -5.24054 -9.14437 0.0720625 3.09467 -0.464698
124 -0.00436917 -5.32027 -8.2704 -1.78273 -0.77946 1.89474
121 -0.161812 -6.09264 -9.11698 -2.40672 -1.15098 2.8806
409 0.166133 -6.09099 -7.69249 1.93617 0.186097 0.241929
122 0.702274 -5.36489 -9.00572 -1.4199 -0.873443 -0.815349
128 1.5697 -5.45701 -8.56695 -2.08028 -0.512096 0.0154326
410 0.961873 -5.43499 -7.727 0.00921392 -0.741632 0.590789
461 1.603 -4.68756 -7.81537 0.592364 1.38136 0.494917
132 3.06943 -5.32999 -8.48079 -0.0216156 2.7117 -2.17659
129 3.03335 -6.12307 -9.14312 -2.46439 3.75763 -2.3003
417 3.18677 -6.09151 -7.73349 0.401702 1.5229 1.48945
414 2.32156 -5.48068 -7.76285 -1.16249 -0.533158 -1.78167
136 4.58742 -5.36786 -8.59554 -1.70618 -2.04726 1.30101
469 4.69026 -4.74559 -7.72349 0.0354069 -0.326035 0.886245
179 3.8195 -4.67525 -8.44978 -1.30022 0.365282 -1.80506
418 3.86345 -5.43622 -7.77001 -1.67228 -0.478685 -1.4067
135 5.39905 -6.13008 -8.50604 -1.14197 0.0699644 -1.20209
140 6.01125 -5.40301 -8.36304 -0.75868 0.274597 -3.66011
473 6.16663 -4.6313 -7.75 -1.54203 -0.427047 -0.779457
134 5.39632 -5.43274 -9.21368 0.773785 -1.01086 0.536911
185 6.17783 -4.67461 -9.19992 -4.57265 -0.727648 1.61209
139 6.98725 -6.09939 -8.4823 -0.732124 1.22203 1.4486
144 7.78248 -5.39642 -8.54305 1.58861 -1.28911 1.31126
187 6.99201 -4.79333 -8.56383 0.994586 0.111953 1.50635
141 7.73401 -6.08381 -9.12172 1.99513 -1.03128 2.37194
143 8.53022 -6.00026 -8.39389 -2.15295 -0.157755 1.70124
430 8.64533 -5.29284 -7.74475 0.890621 -0.536563 -2.43003
477 7.8377 -4.80788 -7.78485 -1.81966 2.61472 -0.899272
433 -9.2262 -4.54739 -7.8385 -0.844711 0.516542 -2.2286
147 -8.41261 -4.59775 -8.45499 0.764492 -0.595695 -0.278406
434 -8.50034 -3.82988 -7.76135 -0.526958 0.309139 0.474981
148 -9.17449 -3.92211 -8.62489 3.39332 -0.448768 0.550649
152 -7.67881 -3.82722 -8.51248 0.448258 0.950924 -1.31788
437 -7.66189 -4.4851 -7.69962 -1.96017 1.52227 -1.51198
150 -6.84306 -3.87507 -9.1868 -0.620771 1.49689 -0.809937
201 -6.14106 -3.08766 -9.107 -0.124544 -1.56397 -0.999811
156 -6.2334 -3.75976 -8.47727 -0.638173 3.21081 -0.262281
203 -5.45771 -3.0865 -8.37084 -0.735544 0.282326 0.0756475
153 -6.12499 -4.59144 -9.05727 0.426426 1.41762 -2.21198
442 -5.49721 -3.98428 -7.77426 -1.79582 -1.4986 -3.30903
154 -5.31787 -3.99541 -9.09793 -0.441839 -1.16506 0.803653
205 -4.74297 -3.13308 -9.20446 -0.892943 0.530691 0.0465528
160 -4.71935 -3.96385 -8.27705 -0.0642179 0.884129 -0.354637
207 -3.80145 -3.10557 -8.24395 0.515107 -0.906371 2.9631
493 -4.61742 -3.13477 -7.75162 0.962269 0.00234646 0.219081
446 -3.76638 -3.96567 -7.8295 1.9163 -0.147067 -0.248507
158 -3.98728 -3.77675 -8.96499 1.18166 -2.91912 0.576132
163 -2.35311 -4.55268 -8.51167 -0.794342 1.51215 -0.765846
164 -3.00596 -3.86196 -8.29703 -1.89979 0.512383 -1.89648
209 -3.1134 -3.20008 -9.1468 2.86279 0.735471 -0.316092
162 -2.22928 -3.9191 -9.20518 0.89236 -0.380265 -1.58489
161 -3.25256 -4.56135 -9.04197 -2.55414 2.56341 -0.0278337
166 -0.911245 -3.80123 -9.0761 -1.31986 -1.93201 3.7564
167 -0.827437 -4.56292 -8.26593 0.327394 0.578935 -0.430958
168 -1.61261 -3.7293 -8.40959 -1.03269 4.79596 -2.58338
165 -1.55147 -4.58292 -8.9785 0.724515 -0.306303 0.696488
454 -0.898169 -3.58553 -7.84793 0.896628 -0.220101 1.14045
172 -0.0960515 -3.76834 -8.46487 -0.257292 1.71693 0.294958
169 -0.0244834 -4.5875 -9.12969 -0.793402 -0.866587 -1.55009
170 0.676715 -3.80443 -9.15815 0.0429161 0.113105 -0.881517
173 1.56887 -4.54762 -9.1201 1.9902 1.51294 1.81813
221 1.59668 -3.07777 -9.20047 -1.00106 0.763321 0.20899
171 0.81125 -4.53651 -8.46911 0.176931 -2.15043 0.205914
176 1.61463 -3.81549 -8.3745 0.48249 -1.9321 1.69573
509 1.59312 -3.14672 -7.72003 1.40993 -0.590562 1.46851
458 0.812834 -3.92429 -7.72624 -0.647547 -2.71062 2.09865
175 2.38121 -4.60844 -8.45594 -0.313222 0.770283 1.67502
180 3.14139 -3.85209 -8.50609 0.183783 -0.133097 2.65761
174 2.41733 -3.80922 -9.17941 0.831487 0.821735 -0.446888
513 3.15507 -3.10796 -7.79148 2.43344 0.626712 0.911147
177 3.20264 -4.60589 -9.21406 -0.784467 -0.112602 -1.27674
181 4.61309 -4.59802 -9.15429 2.0224 1.77863 0.796186
184 4.6256 -3.73899 -8.43909 2.6252 0.756251 -0.294463
227 3.84488 -3.19632 -8.60201 -1.27971 0.595762 -0.928307
466 3.80073 -3.97302 -7.73774 1.76707 -0.252278 -0.795676
183 5.34385 -4.58527 -8.54667 -2.07846 -1.41755 0.75708
188 6.12456 -3.79016 -8.30776 0.322519 -0.0784853 -0.1235
231 5.32663 -3.10573 -8.36737 0.437874 -1.65957 -0.756843
470 5.26253 -3.93017 -7.69057 -0.726505 -1.63998 1.25628
182 5.32974 -3.79201 -9.15999 -0.607918 -2.27293 1.46071
192 7.7413 -3.78863 -8.39553 1.28432 2.21504 -0.388863
186 6.74558 -3.91301 -9.02658 1.24421 -0.512221 -1.79613
191 8.4283 -4.41359 -8.54559 -1.31835 1.37959 0.21762
478 8.56689 -3.84052 -7.73591 -1.14699 1.6165 1.23313
195 -8.5445 -3.03136 -8.36235 -1.21894 -1.77613 0.0245611
243 -8.39252 -1.60579 -8.29556 -0.378315 -1.73521 0.373293
194 -8.49306 -2.40845 -9.20544 1.37181 -2.17315 -2.21782
198 -6.82852 -2.40656 -9.17239 -0.985664 1.63143 2.09468
199 -6.91877 -3.05578 -8.45288 0.322796 -0.580896 0.617104
200 -7.69518 -2.40849 -8.3242 -0.198032 0.486294 -0.498418
245 -7.72962 -1.66954 -9.13794 -0.37262 1.6287 1.70236
247 -6.83984 -1.59954 -8.35742 -0.723178 2.0922 -1.47501
204 -6.15324 -2.2569 -8.41245 -1.88646 2.36464 2.23293
251 -5.34417 -1.54376 -8.35556 1.0772 1.24745 2.25942
202 -5.48752 -2.19741 -9.09905 2.26874 0.0881838 0.278244
206 -3.85091 -2.43485 -9.18611 0.591581 2.2405 -2.09223
208 -4.6555 -2.37338 -8.32269 -1.05241 -1.28747 1.28402
255 -3.87676 -1.58218 -8.25428 -0.913355 0.495267 2.35021
253 -4.57845 -1.80216 -9.13931 1.1368 -0.00749461 -1.995
211 -2.48192 -3.04878 -8.29355 -0.030329 -0.31084 1.31597
212 -3.09623 -2.17691 -8.32828 2.25067 0.273713 -0.801662
215 -0.866042 -2.76832 -8.61874 -1.69265 -0.413185 -1.16786
216 -1.77748 -2.3271 -8.53597 -1.30792 -0.0821304 0.522101
263 -0.857672 -1.55684 -8.1451 0.11122 0.844933 2.42445
214 -0.793718 -1.96392 -9.0385 -0.605663 0.872671 0.46346
220 0.0689125 -2.19933 -8.53684 0.714717 0.876761 0.610965
505 -0.225453 -2.91879 -7.86846 0.234922 0.128155 1.50637
217 -0.0606016 -2.87769 -9.20336 0.798657 -0.275909 2.251
219 0.859713 -3.00418 -8.38564 1.60765 -2.1036 0.770227
224 1.59003 -2.20694 -8.31446 0.0557779 1.85391 -1.75482
218 0.803864 -2.17765 -9.18782 1.22024 -2.60991 0.390829
223 2.32213 -2.96635 -8.41351 -1.41391 0.347208 -0.198561
228 3.33317 -2.38738 -8.4597 0.289416 1.184 -0.847233
271 2.36769 -1.56034 -8.30644 -0.815149 -0.083038 1.04613
222 2.20812 -2.17519 -9.08593 -1.88544 0.600951 2.1671
510 2.31957 -2.29832 -7.70513 -1.03819 -1.72024 -2.95657
225 3.06437 -2.94451 -9.20603 0.452294 -0.504551 1.50504
277 4.62981 -1.60411 -9.17354 -3.76948 0.69862 -0.95064
232 4.59222 -2.23078 -8.48103 -1.82359 1.53062 -0.933251
275 3.85676 -1.55732 -8.55502 0.4222 1.57878 2.99407
565 4.5006 -1.59084 -7.71277 1.59381 -1.07218 1.6107
230 5.31943 -2.406 -9.17583 -0.626725 3.3066 -1.91933
236 6.25676 -2.09201 -8.42862 0.66726 1.75326 -1.20505
518 5.41912 -2.29187 -7.70126 0.28689 -1.26095 0.70531
233 6.05287 -2.96654 -9.05599 0.343879 -1.90354 -2.38243
234 6.82098 -2.24046 -9.22165 -0.29678 -0.139419 -0.111108
235 6.89843 -3.06144 -8.47525 -2.36077 1.34235 -0.33134
525 7.60896 -2.92649 -7.76205 -0.74255 0.268781 1.02456
522 6.90675 -2.20266 -7.72536 2.81634 0.803794 -1.42575
240 7.74712 -2.19707 -8.43157 2.51595 -4.10377 -1.24277
239 8.43168 -2.93818 -8.53379 1.12453 -1.62491 0.68843
196 9.21438 -2.20216 -8.38584 -0.0673519 0.894341 0.282554
3457 -9.10886 -0.149492 -9.17652 -0.217063 0.665084 -0.988037
244 -9.12171 -0.788037 -8.34043 1.24105 1.34853 2.23743
242 -8.43902 -0.967334 -9.20112 -2.17275 0.573168 -1.85366
248 -7.64958 -0.696203 -8.37336 2.12828 -3.69484 3.16356
533 -7.58133 -1.52303 -7.69522 1.97624 -0.448956 1.61508
246 -7.00396 -0.873565 -9.21014 1.16338 -0.249902 0.137779
252 -6.23669 -0.786582 -8.55536 -1.77289 -0.455575 -0.505571
538 -5.50141 -0.743766 -7.69208 -2.0022 1.2354 -1.91786
250 -5.43857 -0.971762 -9.1655 -0.139045 1.6178 1.9516
249 -6.2629 -1.51103 -9.22044 0.50845 0.942666 -0.0470195
3465 -6.05614 -0.133221 -9.20783 -1.17802 -0.212177 1.69811
254 -3.88855 -0.861555 -9.17058 0.633304 -0.241569 0.403205
541 -4.70211 -1.39619 -7.70545 -2.13399 -0.418998 0.944279
256 -4.75826 -0.679298 -8.33303 -1.31824 1.89592 0.529742
542 -3.91769 -0.722798 -7.71345 0.506562 -1.40725 0.871899
259 -2.36763 -1.40797 -8.47567 3.77724 1.05348 2.19907
260 -3.25389 -0.855397 -8.41558 1.33192 1.16624 0.854547
258 -2.39303 -0.651995 -9.09592 2.69042 -0.379818 1.32563
3761 -3.08704 -0.0619019 -7.82055 1.76988 1.95252 0.84093
261 -1.6494 -1.4584 -9.1888 0.605853 -2.81785 -0.553184
264 -1.70714 -0.741809 -8.32367 -2.15748 -3.22905 -2.43069
262 -0.811715 -0.916561 -9.00465 0.0137363 0.559338 -0.103779
265 0.0407302 -1.43474 -9.09301 -3.09732 -0.43806 0.80858
268 -0.0556506 -0.673103 -8.26366 -0.399467 -0.0132827 0.731383
267 0.68559 -1.49104 -8.33646 1.00511 -2.85315 -0.833142
3483 0.649113 -0.014933 -8.42496 -1.75708 1.27175 0.130991
3481 -0.0624502 -0.0866544 -9.17855 1.38363 -1.07668 0.385857
266 0.807429 -0.745846 -9.08018 -1.61015 -2.47347 2.15564
272 1.56013 -0.906153 -8.22472 1.86897 -0.175909 -1.83079
269 1.54775 -1.4195 -9.13456 1.11467 1.61882 2.43428
3487 2.30586 -0.10147 -8.44189 1.99343 -0.60458 1.17167
276 2.99191 -0.79772 -8.47745 3.9353 0.0881417 1.78732
273 2.99149 -1.51714 -9.14254 -2.30527 -1.88885 1.85392
3777 3.151 -0.0337114 -7.69834 -2.25701 -0.0466089 1.84754
274 3.86458 -0.724752 -9.10019 0.0441717 -1.19656 -0.826791
280 4.6745 -0.726867 -8.4503 1.89964 -0.403894 -0.6835
562 3.83954 -0.810587 -7.83822 -2.02063 -0.0924373 -0.865251
279 5.27465 -1.50371 -8.38571 -0.0797665 -1.76655 0.218729
284 6.22008 -0.852955 -8.50943 0.561014 0.226599 -2.40816
278 5.32589 -0.720062 -9.19002 1.50119 0.0982203 -1.09972
281 6.0734 -1.45503 -9.22564 0.286833 -0.873546 0.995923
3499 6.91466 -0.0617521 -8.62585 1.06742 -1.38895 0.320869
283 7.04599 -1.44784 -8.46612 -1.46975 1.03602 -0.850793
570 6.92604 -0.857753 -7.70874 -0.287845 0.435599 -1.21445
288 7.64713 -0.745335 -8.39458 -0.383758 0.0391773 -0.00415698
573 7.82917 -1.53006 -7.70271 3.01731 -3.16764 1.79048
287 8.40617 -1.34316 -8.4622 2.8016 1.50642 1.1277
574 8.39593 -0.541521 -7.70064 0.925649 0.411426 0.0421151
286 8.40564 -0.559293 -9.2098 1.55809 1.65261 -0.351101
241 9.0952 -1.53078 -9.16061 -0.342552 0.420153 -1.32204
339 -8.53761 -7.73975 -6.84637 -0.0370371 -0.16423 0.77326
291 -8.4646 -9.12995 -7.00405 -0.491652 -1.84365 1.91176
294 -6.90709 -8.27552 -7.59186 -0.100927 0.631547 -0.0844116
296 -7.68965 -8.38111 -7.10846 0.0510029 1.53765 0.254438
581 -7.66269 -9.20853 -6.17112 -0.270348 0.486681 -1.04238
343 -6.85976 -7.74328 -6.83079 -1.65767 -1.13993 -1.43081
295 -6.97859 -9.11128 -6.80525 -0.206168 -0.459582 0.60389
300 -6.24622 -8.56456 -6.77917 -0.199472 -0.141797 -2.38679
347 -5.44528 -7.82762 -6.76382 0.455504 -0.385136 -2.97036
302 -3.85291 -8.31186 -7.64671 1.42358 1.66005 -1.91615
304 -4.65501 -8.46534 -6.82223 1.13817 -1.44361 1.27763
349 -4.84445 -7.79782 -7.66703 -1.48993 -0.217836 -0.545621
301 -4.6893 -9.12017 -7.61579 1.51174 1.58516 0.222461
306 -2.34035 -8.38396 -7.62649 -2.97512 -0.350059 -1.38151
308 -3.07905 -8.47897 -7.01285 -2.46495 -0.706061 -0.499629
355 -2.30425 -7.8057 -6.81608 0.498641 0.658907 -0.616197
312 -1.56263 -8.49483 -6.88951 -0.282818 -0.9223 1.47794
645 -1.5722 -7.69836 -6.15335 2.2879 -0.269423 -1.75493
598 -0.674182 -8.35746 -6.20213 2.25803 -1.97624 -1.17556
316 -0.0694407 -8.46655 -7.02159 -0.752357 0.490735 -0.401682
602 0.70351 -8.49432 -6.36617 -0.188632 2.9028 0.58707
315 0.770532 -9.20871 -7.13836 -0.288543 1.83265 -0.804067
320 1.51633 -8.43647 -6.8557 -1.34485 1.25444 1.3763
605 1.4619 -9.20646 -6.17349 -1.43215 -0.193262 3.4673
606 2.40146 -8.5231 -6.32566 -1.84772 1.15622 -2.41307
324 3.21194 -8.54218 -6.94419 -1.20611 0.988486 0.569901
367 2.50036 -7.77629 -6.9352 1.21168 -1.49025 -0.364102
328 4.58895 -8.43976 -6.93714 0.964971 -0.954538 -1.22566
371 3.86814 -7.77893 -7.07363 2.0748 0.447709 -1.56097
377 6.16265 -7.8146 -7.57805 0.230021 -2.83113 0.277709
332 6.36308 -8.58146 -6.87448 -0.844256 -0.863039 -1.19229
614 5.3979 -8.60022 -6.2071 2.66508 2.40844 -0.728386
327 5.32162 -9.22195 -6.97797 -0.447379 -3.06628 -3.33295
330 7.03523 -8.35291 -7.59239 0.603817 0.774494 0.918974
618 7.15477 -8.48112 -6.16956 -0.577723 0.746057 -1.0442
292 9.1584 -8.38556 -7.18141 -0.41988 0.652747 -1.72053
336 7.84508 -8.45709 -6.92669 0.187789 -0.577933 1.30988
622 8.40855 -8.38685 -6.20966 -1.8829 1.43316 -1.13626
335 8.56357 -9.13502 -7.09365 0.349863 -0.149541 0.853234
340 -9.18531 -6.90796 -6.90291 0.898951 1.3299 -0.903875
387 -8.47154 -6.17377 -6.97658 0.107796 2.40897 -1.42924
673 -9.21701 -6.19612 -6.17584 1.10644 -0.567802 -2.05581
342 -6.87816 -6.97998 -7.6662 0.770855 -1.47738 -0.146078
344 -7.79237 -6.87042 -6.83693 0.877061 -1.86249 1.10549
391 -6.91055 -6.3137 -6.91391 2.49808 1.26959 -2.40655
346 -5.29573 -6.9983 -7.62585 -3.30642 -0.0249638 -1.9257
348 -6.14436 -7.01502 -6.95119 1.17991 3.07778 -0.144185
395 -5.29885 -6.31534 -6.81983 -0.626447 -1.54909 -1.01618
681 -6.11179 -6.23932 -6.28582 -0.661684 -0.158792 -0.42941
350 -3.92571 -7.09753 -7.6089 -0.447905 -0.621832 0.0751349
351 -3.72648 -7.67648 -6.80048 0.624957 -0.38356 0.106371
352 -4.74064 -7.10848 -6.83319 0.387816 -1.32109 -0.288814
399 -3.94895 -6.36742 -6.84356 -1.45192 0.941751 -0.756889
354 -2.31341 -6.9305 -7.61113 -0.214157 -1.49891 1.52852
353 -3.12948 -7.64152 -7.5404 2.30956 1.63727 -2.40853
401 -3.18484 -6.22914 -7.64692 -2.89918 1.29635 -1.50246
356 -3.06311 -6.95387 -6.70243 0.604814 -0.00678258 1.89009
403 -2.43707 -6.17849 -6.80509 -0.061218 1.18776 0.688544
357 -1.59303 -7.64259 -7.64447 -2.52393 -1.1948 0.477929
405 -1.5162 -6.18122 -7.63042 2.03625 -1.36459 0.198885
359 -0.727381 -7.67167 -6.86291 -0.18631 1.2396 -1.20492
360 -1.56966 -6.92231 -6.85878 0.0831244 0.182299 0.691628
358 -0.68767 -6.67681 -7.61873 2.17549 -1.13662 -3.42852
649 0.0328187 -7.6409 -6.22181 -2.06536 -2.53988 1.15901
364 -0.0430475 -6.99322 -6.89538 0.457578 1.50602 -0.396954
363 0.903582 -7.64919 -6.87627 0.670623 -0.569932 0.301597
365 1.50185 -7.63277 -7.60527 -1.19228 0.804893 0.29732
368 1.66775 -6.94946 -6.88577 1.91342 -2.11184 0.554996
411 0.930974 -6.32074 -6.85694 0.757172 -2.46132 -0.026358
366 2.29311 -7.02988 -7.6322 -2.08338 1.23318 0.643376
372 3.01319 -6.89404 -6.9048 -1.162 -3.66482 0.910008
415 2.25918 -6.15997 -6.98358 1.02497 -0.980488 -0.295833
657 3.19142 -7.68273 -6.27734 1.56841 -0.958872 -0.168682
705 3.22659 -6.1521 -6.23368 0.59497 1.03807 3.24529
654 2.45498 -6.91995 -6.19264 -2.15714 -0.150777 -0.891601
370 4.01052 -6.93494 -7.65753 0.462742 2.04454 -1.03429
376 4.63792 -6.89639 -6.88882 0.296551 0.430105 -0.298332
419 3.83816 -6.15927 -6.98425 -1.18764 -0.532074 -0.929849
658 3.96546 -6.92974 -6.19741 -1.20629 2.17177 -0.884596
375 5.48439 -7.44616 -6.89078 -1.75361 0.084011 -1.80786
380 6.32035 -6.95115 -7.12048 0.713459 1.62894 0.798389
423 5.52822 -6.22604 -6.88193 -1.71161 -0.528123 0.0422488
379 6.9486 -7.67465 -6.98356 0.130428 -1.84425 -0.125395
384 7.75386 -6.98144 -7.05473 0.48948 -0.170114 -1.13395
427 7.01842 -6.16949 -7.04112 1.50503 -1.40587 -2.75119
666 7.05381 -6.81128 -6.20653 1.92635 1.09915 -0.843278
383 8.46601 -7.66291 -6.97433 -1.90382 3.43946 -0.286636
431 8.40203 -6.15847 -7.03869 -1.785 0.468381 -0.399032
388 -9.10677 -5.4376 -7.06378 0.100691 -0.317957 0.685877
674 -8.47606 -5.56733 -6.15393 1.88168 -0.458966 -1.50316
390 -6.88771 -5.4015 -7.64135 1.22612 -0.391653 -0.378766
392 -7.5792 -5.24222 -6.9427 1.02192 0.890625 1.21702
439 -6.85549 -4.68267 -6.95346 -0.70251 -0.703132 0.524304
394 -5.44498 -5.58502 -7.67648 -1.85928 -1.41876 -2.29881
441 -6.16853 -4.69234 -7.62407 1.10612 0.329682 -0.276401
396 -6.19287 -5.61496 -7.03128 -3.24048 3.9769 0.0691895
682 -5.50863 -5.50543 -6.27683 -1.15139 -3.16606 -2.14448
443 -5.49638 -4.7334 -6.86943 -1.32457 1.40235 1.54502
397 -4.69283 -6.10062 -7.56662 1.6691 -0.104936 0.141708
398 -3.80341 -5.39063 -7.59923 -0.0800779 -1.17297 -1.81159
445 -4.63868 -4.77613 -7.66762 -2.66146 -0.234777 -0.802989
400 -4.60217 -5.44834 -6.69965 -0.367561 -1.33384 -2.50355
447 -3.84542 -4.72858 -6.85865 -2.32868 0.237533 -1.00519
733 -4.61162 -4.69728 -6.15998 -1.00146 -1.12032 0.314391
449 -3.06223 -4.6985 -7.65652 0.595744 -0.0856005 1.14362
404 -3.05987 -5.62773 -6.8309 0.232154 0.718922 -0.421464
451 -2.38715 -4.63974 -6.96453 1.86105 -1.59418 -0.288014
453 -1.66572 -4.68013 -7.59356 -0.974302 2.04398 0.346997
408 -1.6194 -5.40578 -6.83491 -1.21357 -0.455111 0.511723
406 -0.743815 -5.18889 -7.56512 -0.048501 -1.57595 1.05966
694 -0.823938 -5.27839 -6.23354 1.88508 2.16338 -1.76855
407 -0.596487 -6.14909 -6.83658 1.08412 1.58506 0.034998
457 0.0691564 -4.65387 -7.51322 -0.515104 -0.232164 -0.239725
412 0.258506 -5.53354 -6.69535 -0.191063 1.57061 -1.03447
745 -0.0420979 -4.62275 -6.34297 1.19566 -1.23218 -1.53508
416 1.68482 -5.44409 -7.00967 -0.23659 -0.868802 1.69063
459 0.977173 -4.63894 -6.89768 -2.51019 -2.68839 -1.10994
420 3.08759 -5.4281 -6.94441 -2.639 1.63294 1.87675
465 3.10693 -4.71808 -7.66081 -1.23864 -2.2685 2.76608
424 4.64227 -5.47002 -6.79983 0.356125 -1.69248 -1.32155
467 3.97211 -4.77435 -6.99673 1.10826 0.201586 -2.36069
422 5.32547 -5.50022 -7.63671 -1.31748 -1.3931 1.02316
428 6.13485 -5.42888 -6.97181 0.056258 -0.305629 0.839876
471 5.47062 -4.71056 -6.82945 1.88253 0.850089 -2.17318
713 6.25353 -6.08374 -6.15848 -0.439543 2.23714 0.610029
710 5.51227 -5.46307 -6.15226 -0.0815754 1.5485 -2.586
426 6.94173 -5.39689 -7.66741 0.617284 -1.05807 -0.978072
765 7.66748 -4.61334 -6.25057 -2.14809 0.10612 0.343357
717 7.75428 -6.14287 -6.18903 -0.711591 1.34661 -0.487185
714 6.96548 -5.32498 -6.22294 0.208074 -2.08221 -1.27979
432 7.9183 -5.37252 -6.92351 0.228947 -0.690814 -0.0990379
479 8.64133 -4.76827 -6.80042 0.682643 0.388069 -1.86244
435 -8.3593 -4.55136 -6.89563 -1.65286 0.771399 0.0149459
436 -9.20961 -3.81412 -6.83338 -0.418266 1.2465 0.0605992
483 -8.5692 -3.07558 -6.82898 0.609127 3.07074 1.51049
438 -6.92329 -3.90811 -7.52117 -0.539675 -3.12794 -1.5072
440 -7.68024 -3.86269 -6.77804 0.278104 2.31057 -0.199418
487 -6.80919 -3.19775 -6.72213 -1.40775 1.42553 -0.768502
489 -6.18312 -3.08217 -7.58043 0.155178 -0.301252 -0.0740806
444 -6.17693 -3.98715 -6.921 -1.10744 0.405178 0.84816
491 -5.42083 -3.19233 -6.81274 -0.465028 1.61116 -1.1974
730 -5.28729 -4.03871 -6.2785 1.48114 0.705176 0.253973
448 -4.48469 -3.96537 -6.95014 0.300915 0.214505 1.38788
495 -3.85893 -3.09889 -6.75143 2.02052 -0.673619 1.4825
450 -2.36475 -3.88646 -7.51764 -0.691133 1.73676 -0.257044
452 -3.22588 -3.99281 -6.88304 -1.13632 -0.348577 -1.12503
738 -2.33804 -3.96413 -6.24418 -1.37632 -1.34576 0.377788
455 -0.858181 -4.40828 -6.84058 0.56011 -1.9552 -0.261699
456 -1.63523 -3.79297 -6.8713 0.0224107 -0.995569 -0.49018
503 -0.905545 -3.11039 -7.00936 -2.76074 -4.62498 -2.68257
460 -0.125558 -3.71702 -7.14415 0.309555 1.99374 -1.09124
464 1.53365 -3.88249 -6.96579 1.50919 -0.644982 2.29175
746 0.760515 -3.90062 -6.23361 -1.47973 0.574141 2.36391
797 1.5504 -3.12639 -6.26056 -1.61648 0.217663 3.37101
463 2.32894 -4.54088 -6.9799 -0.974268 3.0194 1.1715
462 2.46941 -3.66151 -7.51013 -1.34332 0.189665 -1.87526
468 3.12655 -3.85634 -6.8063 -1.06489 0.596699 -0.159655
511 2.43785 -3.09223 -6.76964 0.9055 0.367057 -1.20908
472 4.65637 -3.91148 -6.84242 -2.96271 -0.323388 2.18332
515 3.92152 -3.22637 -6.84803 1.78867 -0.591249 1.62824
476 6.20402 -3.76999 -6.96212 -0.751146 1.64516 0.53764
758 5.57062 -3.83308 -6.161 -0.639919 -1.24468 -2.59314
809 6.37886 -3.08894 -6.18983 -1.93898 2.00039 0.803233
474 6.97698 -4.00028 -7.68673 0.89862 -2.16602 1.9867
475 7.06996 -4.58771 -6.88867 0.735488 0.582944 1.64291
523 6.99774 -3.20215 -6.9634 1.12424 1.25618 -2.3719
481 9.18916 -3.13958 -7.6492 -0.843798 -0.362787 1.00675
480 7.92037 -4.02929 -6.97542 -0.31599 1.30936 -0.751718
527 8.51611 -3.11264 -6.96255 -2.07624 1.41612 -0.0932212
482 -8.55953 -2.15548 -7.5553 1.67291 1.20866 2.56278
531 -8.49639 -1.56504 -6.83236 -3.16038 0.811572 -3.79803
485 -7.74437 -3.06492 -7.48975 -1.84681 0.363944 0.45973
486 -6.97766 -2.27285 -7.55776 2.20152 1.1336 0.800374
488 -7.74497 -2.19551 -6.93954 1.29335 -2.50477 -3.19863
535 -6.76007 -1.54533 -6.85032 3.09643 0.532974 1.35602
774 -6.81155 -2.30392 -6.15519 2.46911 -1.48274 0.806957
773 -7.59411 -2.87218 -6.22496 1.22247 0.190337 0.0297231
492 -5.95765 -2.39835 -6.69702 1.15578 1.02623 0.154977
490 -5.44306 -2.33971 -7.54841 -1.51609 -1.28293 -1.58326
494 -3.80747 -2.30579 -7.49759 2.15926 -0.145136 -0.867636
496 -4.59656 -2.40509 -6.85629 -2.39671 0.310219 1.74613
498 -2.43424 -2.30976 -7.52125 -2.17796 -1.72384 -1.621
497 -3.16796 -3.07316 -7.45307 -0.518689 -1.25265 -2.83725
499 -2.45379 -3.06355 -6.79516 -3.12992 -0.795647 1.78542
500 -3.20284 -2.34962 -6.76146 0.0446044 2.87393 -2.21417
545 -3.15327 -1.53883 -7.42332 -0.922784 0.694332 2.14938
501 -1.71458 -3.06379 -7.60702 0.653903 -0.914325 -2.81125
502 -1.0474 -2.34482 -7.5982 0.528098 0.16966 -1.26134
504 -1.6387 -2.25488 -6.78153 2.17976 1.14692 1.36146
549 -1.69021 -1.58083 -7.49606 -2.29713 -1.01261 0.0620242
553 -0.0394661 -1.57381 -7.58148 0.616529 -1.16027 -2.98433
508 -0.0166543 -2.54091 -6.83553 -0.97783 -0.426659 2.65273
841 -0.0490999 -1.70995 -6.21577 2.00108 0.163022 -0.737694
506 0.741832 -2.31801 -7.67231 0.592047 0.930012 -1.60493
557 1.61407 -1.55808 -7.47979 -1.30576 0.562156 0.463557
507 0.866286 -3.04661 -7.00764 -2.59066 -1.04969 -0.594394
512 1.55019 -2.40827 -6.96716 -1.0844 -2.58468 2.17157
555 0.755711 -1.58267 -6.89022 -2.84676 0.0191006 1.04056
845 1.50313 -1.63223 -6.19861 -0.654714 2.94613 -0.726901
561 3.15241 -1.5498 -7.60684 0.363801 1.02833 -3.49166
516 3.07496 -2.37663 -7.00427 -0.136556 0.227261 -0.660929
559 2.35894 -1.58605 -6.82827 0.02918 -0.80406 -0.148682
798 2.367 -2.30067 -6.18916 -2.42046 0.771664 -0.201421
517 4.62829 -3.04564 -7.51437 1.30353 0.352884 3.88213
514 3.86661 -2.39195 -7.63694 1.65447 -2.44987 -0.884605
520 4.6541 -2.29355 -6.95305 -0.847043 0.32694 -1.6115
805 4.91518 -3.06422 -6.22353 0.607019 1.59144 0.247692
563 3.74919 -1.67687 -6.78906 1.72511 -0.0631061 -3.25649
802 3.82501 -2.61104 -6.20444 2.82764 -0.518637 -1.99343
521 6.26415 -2.98942 -7.66555 1.05111 -0.159271 -1.5886
519 5.40251 -2.94886 -7.00723 0.418192 0.655445 -2.99265
524 6.27365 -2.32927 -6.94065 -0.699428 0.113844 -0.914201
806 5.50681 -2.2974 -6.23976 -0.146107 0.682044 -0.320563
567 5.33426 -1.61618 -6.93324 0.113071 -2.25724 2.01823
810 7.16311 -2.44255 -6.20084 1.52014 -3.14874 1.21169
528 7.70402 -2.3069 -6.98118 0.772117 -0.565254 -1.57246
526 8.52649 -2.25022 -7.55428 0.862434 0.498537 -0.321075
484 9.19806 -2.31439 -6.80264 -0.38304 -1.11011 -0.857506
814 8.4263 -2.26019 -6.18137 1.79572 0.263387 1.92079
530 -8.4554 -0.732238 -7.49879 -2.10474 -1.27065 0.459661
818 -8.28774 -0.744317 -6.24322 0.633231 1.45105 0.243759
534 -6.83204 -0.648891 -7.60673 2.24254 0.430955 -1.60275
536 -7.54381 -0.633354 -6.84245 0.694909 -1.92031 0.893882
821 -7.61735 -1.49789 -6.17694 0.343038 1.61054 1.41227