ITEM: TIMESTEP
193000
ITEM: NUMBER OF ATOMS
6912
ITEM: BOX BOUNDS pp pp pp
-9.2265715179435492e+00 9.2265715179435492e+00
-9.2265715179435492e+00 9.2265715179435492e+00
-9.2265715179435492e+00 9.2265715179435492e+00
ITEM: ATOMS id x y z vx vy vz
1385 5.16629 -3.58512 -0.0413804 0.040211 0.213834 -1.18907
3224 -8.9955 -6.46728 -9.19718 0.147139 -1.34714 -1.08616
3799 -6.99586 -0.00954279 -8.89144 -0.57876 2.23444 0.264759
1850 -0.281602 -7.03251 -0.313513 -0.460712 -0.849608 0.953912
294 -6.9605 -8.3363 -8.85611 2.01931 -1.49663 -0.602529
293 -7.40189 -9.24434 -8.65762 -1.96424 -2.56479 -1.67154
2510 -4.83974 -3.4744 -0.14499 -0.538685 2.3215 1.02752
865 -6.69858 -8.25169 -7.92588 3.19328 -1.40298 0.520343
6871 -6.34469 -9.20714 -7.71234 0.947102 -0.130299 2.1584
346 -5.43333 -5.58715 -9.03298 -2.83523 0.0905103 -0.88523
54 -4.92321 -8.62824 -7.86273 -0.0750692 -1.18 0.356694
105 -5.95992 -8.49255 -8.52186 -0.798722 -1.67367 -1.35352
67 -4.17675 -8.04502 -8.05177 -1.5882 -2.88389 2.19001
6792 -3.67775 -8.36432 -8.73107 3.02229 -0.170355 1.59368
2895 -3.90991 -9.1085 -7.71287 -0.22919 -0.629984 -1.87523
3709 -2.84176 -7.97945 -7.74293 -0.156287 1.56472 -0.521082
72 -2.80314 -8.68742 -8.62421 -1.51042 -0.651893 2.08388
353 -2.38347 -7.45417 -8.38002 0.0372509 0.789482 -1.3257
3187 -0.929859 -8.00467 -8.63629 -0.275615 0.205805 -0.485226
3244 3.1111 -6.3717 -9.02716 0.44352 1.14062 -1.41197
4008 0.0680432 -8.3231 -8.65905 0.148861 1.39268 -0.0394797
606 0.894215 -8.87378 -7.81084 -0.0128332 -0.870569 0.392322
418 1.53933 -7.95756 -8.18094 0.531559 2.57107 -0.218518
1708 -0.828745 -0.0843995 -0.188209 0.83445 0.4593 -4.31152
3720 1.02312 -8.21145 -8.95403 -1.43017 -2.16902 2.13811
5194 -5.60609 -0.076845 -0.108747 1.30965 0.548814 -1.51193
318 2.66471 -7.82166 -8.57081 1.31592 3.56489 -0.837463
4014 2.43299 -8.96152 -8.57464 0.952918 -1.98336 1.72443
82 2.11255 -8.6067 -7.47126 1.52357 2.94868 0.0083835
6808 3.21634 -8.54147 -8.03227 -0.237736 4.89497 -3.99296
28 4.2419 -8.40627 -8.20901 -2.73519 -1.83605 -0.563442
3260 5.02202 -7.47528 -7.64539 -0.602604 1.42659 -1.03265
133 5.16048 -7.99558 -8.41191 -1.24698 -0.0913426 2.20323
88 5.84779 -7.29863 -8.17477 1.5053 -1.54374 -0.0297691
3258 5.99881 -8.51084 -8.07549 1.1045 2.62409 -0.620235
1514 2.92612 -5.08326 -0.0752286 0.552975 0.0145106 -1.27992
430 6.65465 -7.42888 -8.6317 -0.351419 -0.176455 -0.802134
289 7.64926 -7.97239 -8.33082 2.35088 0.766425 -0.985471
628 6.80331 -8.37741 -8.65554 1.90943 -0.193445 -2.68679
4976 2.83567 -0.294567 -2.97042 1.4714 -0.994151 -0.257956
624 9.17457 -8.04702 -8.09597 -1.12357 -2.29988 1.78459
719 -8.98009 -8.58522 -8.88827 3.6658 -1.04218 1.74888
666 8.58705 -8.4026 -8.72147 -0.190416 0.405707 -0.100202
55 -8.68194 -7.72793 -8.76024 -2.54054 -0.640715 -1.35507
4993 -8.39785 0.000385168 -1.31265 -0.961781 3.05274 3.03526
3267 -7.97128 -7.1689 -8.1296 1.72727 3.44127 0.0877833
2939 -8.07204 -8.53371 -8.58678 1.94067 0.482585 0.703614
437 -8.84746 -6.8925 -8.24 0.0165366 0.0661265 1.43127
344 -6.95246 -7.56037 -7.33386 -1.73185 -0.188165 0.129344
50 -6.10498 -7.34573 -8.08929 1.34104 -1.01311 0.900584
108 -7.109 -7.41463 -8.42768 -0.691077 -0.795979 -0.155997
629 -6.58422 -6.55625 -7.81815 2.26305 -1.09328 3.16979
3180 -5.41486 -6.76406 -7.70878 2.26613 -1.19931 -1.78565
2940 -5.32927 -7.84357 -8.31126 -1.15572 1.18264 0.0852472
394 -6.18684 -5.93334 -8.46375 -0.523635 0.425737 1.563
5 -7.30667 -9.16036 -7.71442 -2.97084 -0.497944 3.38378
634 -4.49916 -7.16455 -8.30057 1.46117 -3.25691 -1.22416
12 -4.52911 -6.2904 -8.96979 -2.93142 -1.5021 0.314012
107 -3.73432 -6.36176 -8.24001 0.607818 1.15576 -0.511258
4900 5.84326 -0.143209 -2.94567 0.0938422 -0.0781827 1.18439
2948 -3.66146 -6.7507 -9.16947 1.11408 -0.00176459 -0.516472
345 -4.96296 -7.53096 -7.47296 2.18584 -2.85722 0.545585
401 -3.41898 -7.50155 -8.45385 -2.99318 -0.423166 -0.547521
734 -2.8744 -6.31244 -8.88594 -2.29386 0.185693 -1.31484
302 -2.95519 -6.87273 -7.90148 -0.332928 -0.84766 1.19527
453 -3.20508 -6.05611 -7.44915 0.78741 0.197723 2.77528
404 -2.26752 -6.16769 -7.63163 1.22736 1.34058 -0.256974
23 -0.696498 -6.73069 -8.26635 -3.41709 1.53821 -0.75467
3239 -1.77929 -6.64794 -8.43804 -2.11268 -2.37282 -1.10634
5450 1.28054 -8.5541 -1.00794 0.02485 2.18735 -1.65675
316 0.300445 -7.36439 -8.94099 -2.99898 -0.835095 -1.20569
359 -0.464678 -6.17757 -7.23051 1.8828 1.42053 -0.752968
696 -0.0351824 -6.00544 -8.5095 1.43248 0.104976 0.73956
704 1.39994 -7.15032 -8.65987 0.249192 0.542645 -1.66161
3250 2.43624 -6.85033 -8.56948 -0.295423 1.03267 -0.0205994
39 3.83736 -7.59711 -8.58106 -0.945962 0.241427 -3.46506
417 3.96082 -7.65778 -7.59931 1.58677 0.488351 -1.61527
944 2.09504 -7.30487 -7.7119 -1.75263 2.09328 0.900841
175 3.17383 -7.02 -7.84775 -2.48864 -0.913981 -1.61909
4159 4.21796 -0.15825 -3.3615 -1.63538 1.99904 1.57435
661 4.05444 -6.65823 -7.73584 -0.74733 -0.663427 -0.00660517
35 4.79088 -7.16766 -8.60404 0.136922 -1.03674 -0.506842
136 4.55589 -5.99814 -8.32061 -0.00232444 1.49775 1.91015
3319 -8.77234 -4.63865 -8.61739 1.35256 2.30884 1.78019
131 4.91313 -6.66276 -7.24196 -0.273928 0.492573 -0.195471
4620 -6.41495 0.0155949 -3.39783 0.969286 2.52287 0.178783
137 5.40094 -6.50441 -8.37615 0.979915 -0.405487 1.60874
1136 1.08547 -0.00721899 -3.24133 -0.545947 2.06689 1.05125
330 6.62216 -6.63595 -9.11513 -0.82185 -2.47354 -0.844143
3219 8.03121 -7.01435 -7.54286 0.125775 3.96859 2.25686
671 7.4353 -6.943 -8.28552 -0.979335 -1.63231 1.27919
4317 6.51705 -6.45974 -7.94445 -0.715219 -0.433795 0.623199
340 8.73272 -7.11149 -8.17124 -0.127674 -0.23496 2.22109
387 8.05961 -7.36906 -8.98764 1.71133 -0.187723 1.13576
925 -6.3209 -9.07242 -5.46635 -0.599068 -0.560735 -2.17866
3314 -8.39742 -6.01696 -8.54735 -2.08186 1.03297 1.78263
3368 -7.92783 -5.23925 -8.99773 -0.22584 -0.110883 -2.32752
200 -8.87976 -5.44443 -7.71944 1.77148 -1.53889 3.72882
3271 -7.31578 -6.323 -8.41777 -2.12525 2.14021 -0.4677
153 -7.92121 -4.62301 -8.05416 -3.9379 0.714354 1.02896
3032 -7.6059 -5.57922 -7.73855 0.459137 0.918847 0.84202
201 -7.03502 -5.14976 -8.6514 -1.24682 -2.08852 -0.877928
390 -6.20814 -4.80283 -7.34926 -1.71429 2.39832 -0.725168
441 -6.13965 -4.97517 -8.21617 1.59942 0.085824 -0.873512
783 -5.45318 -5.60269 -7.89284 0.016379 0.401383 1.21414
3298 4.03796 -5.60336 -9.03842 1.21456 0.281664 1.65226
3331 -4.38335 -4.51598 -7.68467 0.330434 -2.08952 2.57533
630 -4.63734 -6.25223 -7.95935 5.52588 -1.01785 2.13194
2710 -4.58592 -5.34844 -8.456 1.3474 2.99459 2.07498
164 -5.14713 -4.68062 -8.77264 -0.13944 0.255101 1.11521
355 -3.08897 -4.64185 -8.57026 -0.275468 1.36707 -2.77369
3711 -2.87669 -5.55299 -8.16949 -1.2885 2.49113 5.14577
310 -1.23531 -5.84421 -7.97974 -0.928254 -0.408023 -2.0873
448 -2.04188 -4.7534 -8.05396 -1.49038 0.881776 3.77128
403 -1.22739 -5.04418 -8.70567 -2.00408 1.33193 1.41592
354 -0.864767 -5.95367 -9.03615 -1.46807 1.24378 1.03909
656 0.800483 -5.31237 -8.06602 -1.88723 -0.362187 0.267797
462 -0.0641963 -4.90613 -8.64967 2.80974 0.881378 0.310205
1770 3.99368 -8.9797 -2.22918 -2.8335 0.778084 -1.46778
219 1.73181 -5.34108 -8.64449 0.544973 -1.14176 3.03543
365 1.03539 -5.93858 -8.88041 0.791975 2.42462 0.43738
651 1.68485 -5.55383 -7.61849 -3.51108 -0.159477 -1.22322
3256 2.44465 -5.73141 -8.17208 0.55422 2.37943 0.387178
703 2.84569 -5.32966 -7.31951 -0.787481 1.65742 -0.291772
173 3.47904 -4.49889 -8.21504 -0.516196 -1.28921 1.12496
5155 -0.801738 -8.93714 -1.42493 0.705563 -3.21106 -3.06721
2964 3.50315 -5.90708 -8.11042 -1.10351 -2.28204 -0.51268
191 5.00876 -5.06716 -8.84409 -0.888068 -1.48423 0.331362
144 4.21533 -5.10849 -8.08149 2.65257 2.98764 1.2218
757 4.97737 -5.5434 -7.44555 1.19594 1.24989 -3.59644
3249 5.2805 -4.30604 -8.14427 0.0206785 1.08144 0.896886
422 5.82188 -5.3487 -8.23401 -2.55417 -0.784454 0.25804
481 6.35049 -4.45997 -8.11999 2.50046 -1.10341 -0.689546
425 6.83231 -5.3456 -7.74185 -0.576902 1.67316 2.30042
190 7.1969 -5.98687 -8.36785 -0.8094 1.96444 -5.02027
148 7.39199 -4.46057 -7.77241 -0.444141 -1.92022 3.17066
3018 6.77085 -5.21148 -8.66282 -2.17722 1.7899 -0.767945
192 7.81417 -5.31054 -8.04793 1.94834 1.49607 0.91108
3361 9.12025 -5.72923 -8.67203 -0.492011 -0.142872 1.1176
3272 8.07176 -6.31178 -8.33493 -1.76052 -1.80831 0.812469
112 8.67578 -5.10081 -7.7061 -0.897703 -0.796368 0.894573
1476 1.2619 -7.60034 -0.683673 3.68702 0.309029 -2.20484
722 -8.61777 -3.69278 -8.03313 0.190481 -0.333161 -1.88664
440 -8.34921 -4.52377 -7.2328 -0.0184114 2.41963 0.122342
4584 -3.59684 -8.80867 -3.20212 -1.82535 2.22289 1.3262
3327 -7.64728 -3.62715 -8.12352 -1.44769 -2.4875 1.60319
3269 -6.93216 -4.29165 -7.92061 0.390574 2.18841 3.85437
3365 -6.78101 -3.86163 -8.87091 0.0477737 -0.913362 -2.51244
251 -5.94095 -4.03558 -8.2778 0.445852 0.230521 -2.17788
103 -4.88253 -3.83398 -8.49976 -1.57818 0.587764 0.942273
209 -4.0838 -4.61237 -9.05462 -1.3602 -2.05393 2.46434
159 -3.99352 -3.69987 -8.62981 4.73351 -0.794668 -0.0709667
1354 -3.92675 -2.48321 -7.74057 -2.57667 2.59226 -0.0387732
493 -3.30159 -3.52717 -8.01462 0.658051 -0.62816 -0.586461
165 -2.3774 -3.94558 -8.24887 1.13457 -0.189072 -0.747817
2262 -7.15559 -0.315678 -0.78262 -0.471502 -0.567768 1.11612
545 -3.0416 -4.37537 -7.58388 -0.169606 -1.0121 1.10743
697 -1.52182 -4.10917 -8.6033 1.78273 1.69093 0.64772
4016 1.57215 -8.91361 -8.6521 -2.24982 1.86403 0.191361
698 -1.50936 -2.81326 -8.15769 1.71027 2.38864 -0.774523
743 0.366792 -4.13874 -8.97455 -0.781716 -3.07591 -2.33805
742 -0.611008 -4.19945 -8.89126 0.352851 0.960421 -0.233542
222 -0.646794 -3.34488 -8.4682 -3.17851 2.19864 0.676537
551 1.28345 -4.5688 -7.6559 0.255693 -4.08354 -1.81708
4632 -4.94639 -0.789732 -3.0808 0.280617 1.03599 -1.61068
508 1.59094 -4.10422 -8.56287 0.0983862 0.107874 0.304251
3383 1.8193 -3.58107 -7.73649 0.377455 1.39102 -2.92324
502 1.29899 -3.37634 -9.18083 -0.880903 -2.78692 -0.896448
412 2.3099 -3.61752 -9.00472 -1.01578 1.04704 -0.0533375
3294 3.41645 -3.56009 -8.70997 -1.57341 -0.165695 -0.466327
461 2.79368 -3.22394 -7.76072 0.775741 1.01389 0.681337
177 2.41015 -4.72432 -8.27795 2.61895 1.3012 0.898728
223 2.87598 -4.16762 -7.63539 4.03141 0.450619 2.15174
1866 5.86413 -6.26526 -0.157001 -0.770535 1.90156 1.70701
4338 -2.47093 -0.0721774 -4.31123 -1.62625 -0.503309 -4.3472
184 4.45984 -4.15952 -8.65696 0.0265232 0.789015 2.51097
229 5.42787 -2.81964 -7.64759 -4.00881 -1.36823 -0.335523
709 4.60808 -3.40129 -8.00709 1.42591 -2.02886 1.2149
572 5.93104 -3.46752 -8.1832 0.998691 -0.893938 1.61442
478 6.37126 -3.26094 -7.2977 3.34694 -1.09386 0.163743
815 7.36074 -3.51112 -7.54349 -2.50944 1.51759 1.97949
146 7.85255 -3.54891 -8.37256 -1.19698 -0.782094 2.19037
140 6.87398 -3.65647 -8.64062 2.58324 0.881377 -1.18979
1819 5.32204 -7.10273 -0.0221372 -1.41327 -0.63422 -0.135886
525 8.72634 -3.67684 -8.14073 0.831146 1.32294 -1.65442
98 7.75564 -4.4684 -8.76188 -0.201117 -0.603591 -1.78941
150 8.70549 -4.66853 -8.4932 5.10645 -0.756324 0.354806
156 -9.21242 -2.61342 -8.43852 -0.592898 2.506 1.51086
3366 -7.42596 -2.79117 -7.78857 0.500726 2.61449 1.68967
2788 -7.88574 -2.18638 -8.49907 0.41423 -2.6688 0.867979
241 -8.41932 -3.06252 -8.94284 0.743237 0.686395 -1.31429
4044 -7.79442 -1.99428 -7.45099 -0.0266424 -1.90902 2.91529
198 -7.34649 -3.03573 -8.85643 -0.594914 -0.849112 -1.02503
157 -6.63026 -3.20974 -8.06425 4.29479 -3.76878 -3.09407
3802 -6.61084 -2.36507 -7.47307 -0.270615 -0.655572 -1.56849
3459 -6.85873 -1.48533 -7.15194 2.55743 -0.0246501 1.78381
623 -9.10699 -8.86995 -4.57439 -0.836192 2.48085 0.701231
106 -5.7325 -3.05495 -8.58269 -0.726248 -2.89528 0.546534
438 -6.58771 -2.40442 -8.64385 1.20839 -0.601491 0.534224
3280 -4.88679 -1.40301 -8.24442 0.688367 -1.29499 0.589497
1154 -6.21429 -9.03933 -3.85049 5.11014 0.112192 -0.436081
5098 -6.22185 -9.19614 -0.188338 1.00225 0.678022 0.920743
3375 -4.72594 -2.82831 -8.3262 -3.12803 0.718362 2.68916
205 -4.08295 -1.9327 -8.5535 -2.99866 0.541924 -0.246121
552 -2.13972 -2.15431 -8.31478 1.28489 1.53372 -0.376546
114 -2.54411 -1.3488 -8.66351 -2.0096 1.92488 0.70629
6645 -3.07661 -2.51551 -8.53153 -1.30891 1.33574 -1.5058
3427 -1.4861 -2.65377 -9.13355 -4.00553 -3.5014 -0.193201
5082 7.43789 -9.14857 -3.30572 0.69377 -1.17062 -3.4147
4058 -1.7056 -2.03289 -7.23416 -2.31907 -0.632849 1.34901
457 0.295825 -2.80167 -8.77628 0.336636 0.299265 -4.00242
1780 8.84428 -7.7393 -0.199076 -1.33195 0.315757 -0.151595
3431 -0.585568 -2.27543 -8.46359 0.0555391 1.99604 1.13274
4059 0.277064 -2.22245 -7.37155 -0.640009 -0.281495 0.791965
3336 -0.000407463 -1.77218 -9.12501 -1.35144 1.44405 -2.25423
3384 1.03519 -2.98715 -8.10929 1.73693 1.27506 -1.53247
3435 0.973095 -1.28812 -8.8652 -2.80765 0.534614 -1.75997
6653 1.56907 -2.1243 -7.89779 -0.554412 0.480538 -0.332246
454 1.32545 -2.42793 -9.06119 3.4403 -1.97808 -0.0449954
4029 7.43747 -9.11618 -8.6614 3.52537 -1.1819 -0.44526
3343 2.25258 -2.76364 -8.51997 -2.67519 -1.39351 0.563018
266 2.61732 -2.22503 -7.86025 2.02946 -0.108721 -0.495141
518 3.25656 -2.00228 -8.47969 -0.791101 -0.629725 1.42821
3485 3.62865 -1.19164 -9.21447 2.95161 -0.272699 1.99015
4110 3.84024 -1.14707 -8.12668 0.486692 -0.0749984 1.03994
126 3.97575 -2.76812 -8.30337 -0.73868 0.325566 3.22508
3348 4.18837 -1.94272 -8.63702 -0.180401 0.380924 0.640916
3346 5.49851 -1.3444 -8.08282 0.735595 -1.7774 0.0690302
3446 5.98058 -2.25281 -8.17265 -1.99302 -0.502176 -0.249481
239 4.99621 -2.42362 -8.55415 1.87711 -0.319307 -1.04288
233 7.12245 -2.68101 -8.19963 -3.56937 1.40634 -1.03461
569 7.84475 -1.9823 -7.73087 -0.238406 -1.22824 -2.06412
522 7.89942 -2.24586 -8.94859 2.96105 0.775728 1.96421
4624 -7.05976 -1.16582 -0.0886956 -1.16703 0.423392 -1.45631
3414 -8.78855 -1.67856 -8.39238 1.14612 -1.22572 0.693511
245 8.26752 -2.64507 -8.24961 -1.02859 -0.245699 -2.65965
6348 -8.14657 -1.05928 -8.27386 0.846363 -1.84072 -1.85952
532 -8.41417 -0.634411 -7.47847 1.33514 1.57557 -3.55982
536 9.07919 -0.926084 -7.96612 0.603779 -0.791296 1.18109
3462 -7.07932 -1.69272 -8.19427 -0.438228 0.879009 0.885315
3472 -5.91781 -1.56468 -7.95412 0.600932 2.44121 -0.100858
867 8.40726 -8.75788 -4.65737 1.09121 -0.555536 -1.65293
1937 -2.91371 -2.93515 -0.217024 -0.0406167 -0.475098 -0.566171
3805 -5.31651 -0.555699 -8.1556 1.12218 0.674545 0.271061
3410 -6.51675 -0.505137 -8.18059 -4.02888 -1.10117 0.424576
3692 8.48218 -8.7868 -6.70593 -3.68766 0.634347 -0.950771
6669 -8.76152 -0.367307 -8.4442 0.252269 2.80537 -1.15682
206 -4.92955 -0.886897 -9.24408 -1.38 2.19379 -2.03656
546 -4.40211 -0.332223 -8.24178 0.604033 0.325388 4.28463
197 -8.93932 -3.88585 -9.02475 -1.23185 -0.502906 2.0803
253 -2.61657 -0.251555 -8.6963 -2.19995 -0.669556 0.207215
3424 -3.40071 -0.962037 -8.54157 -1.3503 -0.425909 -2.44929
544 -3.49413 -0.0773614 -8.15697 1.2021 1.10142 -2.07683
3381 -0.594773 -0.384166 -7.66048 0.526571 0.412056 -1.00396
3382 -2.00981 -0.733883 -8.19339 2.03791 0.555888 2.17576
549 -1.45637 -1.53476 -8.02527 -1.4818 0.0829797 0.786017
4060 -1.54309 -0.639065 -7.46093 -1.35622 -1.8974 -0.0747507
3767 -0.845653 -1.03936 -8.66466 -2.83982 0.325696 1.94236
221 -0.24967 -1.47367 -8.03662 2.25787 -2.75842 1.25957
3479 0.0815544 -0.266975 -8.26183 1.25857 0.171058 -0.573034
3536 2.10334 -1.75534 -8.71964 0.427423 -2.14574 -0.883102
6700 1.36249 -0.254675 -8.30945 1.14556 0.108144 0.744417
6660 1.90288 -1.08018 -7.94299 -1.25507 0.167821 1.39619
4057 0.676955 -1.10212 -7.90999 -1.36149 1.32928 -1.54846
3394 3.94045 -0.338185 -8.96157 -0.807659 0.676727 1.80607
261 0.346566 -0.0382575 -7.25464 -2.30359 0.251106 0.393951
6702 2.82819 -1.12889 -8.3785 -1.162 -0.161368 -0.435743
142 5.91454 -4.66409 -9.00264 0.818745 -2.60456 -0.740284
563 4.10141 -0.190588 -8.03901 2.7813 -1.18466 -1.55243
181 4.7472 -0.950263 -8.58227 2.38232 3.0513 0.898654
3813 -1.11593 -0.088537 -8.47521 0.0107379 -1.45476 3.43674
236 5.10634 -0.368475 -7.78684 -0.163882 -1.20721 -0.932923
4113 6.30813 -1.59431 -8.76439 -1.42403 3.67505 1.73812
280 7.03244 -0.610298 -8.01843 -0.292781 -1.94304 1.66488
3112 6.70356 -0.734259 -9.09082 0.780237 -0.194562 -3.02436
3839 6.59874 -1.47555 -7.56549 -2.14274 1.40308 -0.816707
281 8.64561 -1.35809 -8.62253 -0.0550134 0.0883254 -0.927788
3515 -6.57265 -0.187296 -6.51343 0.253091 2.4988 0.529873
810 7.37295 -1.35774 -8.45042 1.07148 -0.403402 -0.108354
1726 -8.67178 -0.36231 -4.93764 -2.40674 1.76042 0.133734
3502 8.72993 -0.419834 -8.82787 -2.33449 -1.73977 0.185038
3749 8.8032 -1.92652 -7.80494 -0.89856 0.88105 -1.42257
3299 5.65702 -6.87514 -9.21797 -0.759748 -1.29118 0.296159
566 7.63358 -0.142916 -7.17317 -0.228905 -0.683036 -2.12188
4032 -9.03017 -8.96885 -6.38395 1.6656 -0.557588 1.74868
913 -8.18432 -8.99747 -6.89183 -2.32052 0.0742294 1.07299
432 -9.1853 -8.86166 -7.28534 0.730717 1.21876 2.0854
964 -8.68205 -8.07202 -6.8546 0.37783 -2.563 -2.40018
1533 5.59049 -9.16084 -2.28271 2.39359 0.230773 0.144339
909 -7.61348 -8.2257 -7.77798 -2.89316 2.63683 2.36154
586 -7.22184 -8.79526 -6.85964 1.89323 1.32666 -0.969181
10 -5.72335 -8.28678 -7.39589 1.86616 -0.10148 -0.339658
921 -6.34365 -8.10067 -6.6336 1.86907 1.94716 0.619224
298 -5.17548 -7.75163 -6.44894 0.450597 -1.29776 -0.439243
3228 -6.31702 -9.12965 -6.51913 -1.09258 0.751865 -0.456912
3712 -4.30633 -8.132 -7.20186 2.57615 -1.45099 -1.58122
870 -5.17087 -8.6343 -6.70347 0.278918 1.33703 2.01834
16 -3.61031 -8.69641 -6.73863 0.620447 -0.213253 -0.450427
640 -4.25409 -8.0928 -6.13295 2.81693 -1.80296 2.24581
347 -3.35209 -7.77599 -6.94207 -0.501806 0.710045 -0.131532
1993 1.37098 -1.63325 -0.0675013 2.1806 -0.964903 -0.179588
3662 -2.86155 -8.97529 -7.64317 0.410346 0.370339 -1.49806
4001 -2.5143 -8.31248 -6.85116 -0.555933 -2.22053 2.88223
1189 0.421007 -9.15709 -2.38826 -1.37291 -0.860857 -1.07273
311 -1.1966 -7.46091 -7.83555 -0.10758 0.621863 1.6939
603 -1.0133 -8.58416 -7.89572 -0.714806 3.00832 1.71767
4242 -1.9649 -8.21036 -7.71631 -0.731253 -0.47862 -1.75145
689 -1.31645 -8.26486 -6.99095 -2.72164 -0.0417381 -0.713095
3962 -1.86217 -8.91706 -6.31251 0.613498 1.70396 -2.01916
987 -0.227276 -8.2137 -7.48192 -0.54663 -2.01817 0.122731
4013 -0.827419 -9.06159 -7.03814 3.40074 -0.132441 -3.42441
4636 -4.94983 -0.113822 -3.7786 -1.81212 -0.186637 -1.02702
77 0.595969 -7.7854 -6.82992 0.439542 1.31265 1.91002
1574 1.22681 -5.28936 -0.0934404 -1.89282 -0.138552 -1.13756
78 0.617328 -7.8318 -7.83989 0.0988153 0.670692 -0.209167
605 1.45611 -8.01818 -7.17814 -1.19918 -1.391 -0.773499
321 1.19957 -9.06579 -6.94558 -1.95338 1.14022 -0.0163464
374 2.68579 -8.82165 -6.4865 1.03963 1.11492 -1.71536
172 2.86398 -7.9156 -7.48734 0.837692 0.339428 -1.32536
89 3.60769 -8.03894 -6.50831 2.27838 -0.868007 0.175214
657 2.54616 -7.87555 -6.42782 0.293662 3.84266 1.29256
327 3.79803 -8.57868 -7.3077 1.25648 0.883622 -1.27657
654 5.13511 -8.59477 -7.62084 1.77169 1.00117 1.08362
4310 4.0789 -8.88801 -6.36758 1.13082 0.993441 -2.5341
328 4.61847 -8.09993 -6.85577 -1.62498 -3.98345 0.775237
4250 2.58007 -8.98337 -3.68474 0.114597 -1.32339 0.814219
961 5.57067 -8.07753 -6.75338 1.44412 -0.466185 -0.449383
3734 6.13471 -7.39283 -6.23808 -2.15251 -0.813622 1.14953
3974 6.71315 -7.88271 -7.64972 -1.75065 1.58216 2.23053
907 6.37478 -8.75682 -6.9671 -0.97028 2.34788 1.049
427 7.71967 -7.81742 -7.25575 0.405946 1.51428 1.71227
577 6.92771 -8.01015 -6.5613 -0.743105 0.826215 -0.784019
4030 7.26256 -9.01892 -6.71237 -2.63548 -0.560193 -1.24313
4280 8.19064 -8.81834 -7.68428 -1.21975 1.70077 -1.12651
578 8.78734 -8.01301 -7.16906 -1.69773 1.42572 -1.20751
1246 9.03374 -8.12086 -6.18141 -0.288378 1.08514 2.82953
46 9.19206 -6.94075 -7.27217 0.791021 -0.0469225 1.06026
338 -8.50307 -7.69033 -7.71764 0.357133 1.69493 -2.17736
339 -8.94528 -7.02731 -6.09121 1.78903 -3.90952 1.33142
151 -8.12676 -7.25621 -6.82432 -0.498028 -2.56313 1.68581
868 -7.80772 -8.07797 -6.49819 1.92008 -1.13917 -1.47499
391 -7.24137 -6.49517 -6.03031 -2.73106 1.5775 0.176201
631 -6.73102 -6.78683 -6.73461 -2.94213 3.68569 0.96149
779 -7.4286 -6.77528 -7.38466 1.35206 0.322498 -0.133659
348 -5.95914 -7.31487 -7.19844 -3.0745 1.26266 2.95174
395 -4.20909 -7.21782 -6.54401 0.678457 0.188889 -3.98286
358 -3.91551 -7.16147 -7.5115 1.30923 -1.82559 -0.261286
4048 -4.62009 -6.09242 -5.92874 -0.556876 1.92041 0.757956
633 -4.1203 -7.00044 -5.43561 -2.01918 0.0130908 0.233133
305 -2.88271 -6.91906 -6.78187 -2.36905 2.31637 0.830239
686 -1.92746 -7.39895 -7.13237 2.48177 -2.46496 -0.508093
645 -1.35265 -6.56956 -7.25826 2.57801 0.88747 -2.65889
646 -1.70717 -6.64952 -6.27069 -0.684157 0.191927 -0.55895
3715 -0.077161 -7.18674 -7.69321 -2.44006 0.414333 0.97227
607 -0.0263375 -6.95928 -6.76076 1.08718 2.67876 -0.677166
303 -0.815219 -7.426 -6.92772 -1.17396 1.38146 -1.08509
938 0.463264 -6.30499 -7.52616 -0.463513 -0.759997 -0.672669
351 -0.779606 -6.26122 -6.34754 0.039711 0.367891 -1.02238
3724 1.24099 -7.07891 -7.24651 -0.845028 0.529875 -0.866502
4297 0.745914 -6.90512 -8.10948 0.393136 2.64316 -2.79035
516 1.28061 -6.17191 -6.96539 -1.20856 4.06594 1.61871
1042 1.65963 -6.36543 -8.18165 -0.859848 1.03399 0.616825
5165 1.34973 -7.62752 -6.23684 -0.0944312 1.39225 -2.60893
513 2.55103 -6.20925 -7.34354 -1.72709 2.22682 -0.146662
378 3.02013 -7.08813 -6.88418 0.559229 -0.544096 1.63228
898 2.01829 -7.06737 -6.64189 0.640442 -1.64492 -2.61135
183 4.14898 -7.14886 -6.76025 0.752368 0.932434 -1.10067
373 5.32603 -7.06575 -6.39813 -1.31035 -0.770675 -1.45649
91 5.9686 -7.21603 -7.20144 1.30143 1.52812 0.819075
332 5.9298 -6.39452 -6.07416 -1.195 -1.99626 -0.148701
958 7.50534 -7.22267 -5.86933 -0.182751 2.90163 1.54494
669 6.5544 -6.37257 -6.95841 -1.78706 0.41837 -1.45094
759 7.03921 -7.14523 -7.08321 0.204071 -0.398747 1.21497
384 7.60695 -6.12249 -7.49281 1.88628 -0.649875 -1.13237
385 8.37421 -6.23053 -6.95374 1.40879 2.2946 -0.392289
667 7.67041 -6.51769 -6.45135 -0.784944 -0.905627 -0.0328817
467 8.54444 -7.20738 -6.49607 -1.19657 -0.368054 0.546361
679 -8.28037 -6.31986 -7.63587 0.71248 1.04884 -0.509373
435 -8.03853 -5.36379 -6.78995 0.463405 -1.10616 -1.7589
388 -7.98855 -6.30942 -6.62214 -3.84988 0.658209 -0.120581
677 -7.11349 -5.86918 -6.98095 0.67838 0.0961411 -1.39313
729 -7.09778 -5.4906 -6.00788 -0.501788 1.24575 0.335749
449 -6.73664 -5.5927 -7.79409 2.54888 0.492302 -0.621191
393 -5.9173 -6.11252 -7.24567 2.48554 0.358322 -0.556785
682 -5.39729 -5.5154 -6.48357 -0.438038 -0.268031 -0.260319
443 -6.31337 -5.94757 -6.40223 1.06162 -0.140807 1.77206
1024 -6.7685 -4.18688 -6.70863 1.95603 0.137375 2.72354
500 -4.93917 -6.22223 -6.97816 1.22821 -2.52428 0.868332
405 -4.63369 -5.42442 -7.35213 -1.05048 0.247056 -0.233821
494 -4.44901 -5.21117 -6.1394 3.43245 -2.62126 -0.315815
690 -3.7497 -5.13931 -7.95533 -0.11972 -0.663657 -0.565561
115 -4.0445 -6.00139 -6.76803 0.341146 -0.810123 0.631026
1025 -2.79037 -5.84377 -6.5133 -0.00545485 -1.20395 -0.0767901
495 -2.70357 -4.36167 -6.5847 -1.07616 1.24557 3.86943
304 -2.54884 -5.13815 -7.26158 -1.71113 2.55574 1.23393
207 -3.44025 -5.2823 -6.04929 -1.64479 -0.188604 2.15249
978 -1.7417 -5.47202 -6.8344 -1.71277 -0.0727193 -1.17544
368 -1.15481 -4.85641 -7.66217 -0.866657 1.13493 -0.411948
738 -0.767929 -5.35424 -6.84337 -0.344839 1.94114 0.210631
737 -0.199318 -5.07167 -7.58313 4.60482 0.929418 1.36287
652 -0.299455 -4.19037 -8.01087 -2.61111 1.22795 0.513179
693 -0.0134612 -4.97391 -6.47732 1.34652 -2.06951 0.65965
993 0.751895 -5.36238 -7.1143 0.512829 0.84751 -1.42353
753 1.18888 -5.67287 -6.14851 0.089859 2.10615 -0.118694
3434 2.09785 -4.5463 -6.19645 1.54859 -0.103717 -0.0699037
849 2.26609 -5.59106 -6.48682 -1.15334 1.70545 -0.221222
807 3.3203 -5.52971 -6.47853 0.167729 -0.0924057 2.03585
465 2.92114 -4.73545 -6.63237 -0.295128 1.86561 1.63092
370 3.68503 -6.22392 -6.99764 -1.33814 -1.86791 -0.248746
3304 3.74182 -4.75484 -7.195 -0.972847 -2.23335 -3.64267
3303 4.71622 -4.58327 -7.4874 0.169005 3.4443 0.890656
372 3.77743 -6.3572 -6.07279 -0.198095 -0.5473 2.23639
517 3.8441 -4.85687 -6.02044 0.935773 3.02969 -0.830355
127 5.65364 -4.75159 -7.43805 2.6926 -2.66578 -0.179271
95 5.72051 -6.18614 -7.35024 0.203521 -0.13126 1.37925
1048 6.52531 -5.54347 -5.9633 -1.84205 3.01289 0.214801
618 7.31363 -5.67982 -6.50481 -1.28634 -1.18877 0.274151
139 6.27136 -5.21426 -6.90375 -4.47381 0.502683 3.69266
910 6.44012 -4.62921 -6.17924 2.66302 0.5485 -0.12968
477 7.22717 -4.6722 -6.75324 1.73118 0.781591 0.48232
676 9.13247 -5.02711 -6.88088 0.962287 0.53302 0.23916
1006 8.06443 -5.31681 -6.95585 0.565197 3.38225 -1.85116
771 8.87094 -6.18223 -7.75977 -1.32112 0.867402 -2.3697
680 -8.92332 -6.0728 -6.88201 0.697339 -1.14642 -0.853696
155 -7.70541 -4.74468 -6.24629 1.15624 1.87516 2.06202
434 -8.7257 -3.51897 -7.00184 -0.7512 0.187106 1.73332
439 -8.52017 -4.26654 -6.28521 0.56864 -2.69787 1.62111
675 9.23542 -4.24649 -7.52486 0.964673 -0.0299069 -3.28065
681 -7.21959 -4.87605 -7.15275 -1.91985 -3.69356 -1.68491
777 -7.67278 -3.79802 -7.19295 1.04556 1.42613 4.50253
1102 -7.98716 -3.11669 -6.61191 -0.0612828 0.387985 -1.12068
778 -6.60792 -4.33964 -5.62477 -0.539705 1.35452 0.34443
491 -7.59715 -3.82449 -6.25704 0.558119 0.338952 2.55725
685 -5.23528 -4.40412 -7.81507 -1.62551 2.03607 0.121713
1114 -5.85518 -3.83006 -6.10211 -1.10139 -1.33926 1.2218
396 -5.22499 -3.4546 -7.61027 1.42962 0.17911 -1.92562
490 -3.85856 -4.98683 -6.85501 0.61459 -3.22406 -0.530637
830 -4.18403 -3.44295 -7.737 0.234265 -2.08646 -0.684963
1023 -5.36117 -4.53872 -6.8332 -3.63185 0.430529 -1.90064
834 -2.68241 -2.81467 -7.7518 -0.627849 -2.35166 -2.64504
445 -2.58668 -3.66063 -7.18818 0.510221 2.86775 1.28441
789 -3.08625 -3.38248 -6.24762 1.77632 -0.922049 1.7921
3380 -1.76008 -3.09521 -7.32484 -1.84597 0.238494 -2.73015
644 -0.776048 -4.37112 -6.93347 0.360736 -0.101007 -0.808516
1017 -1.70171 -4.18129 -7.13786 -2.70008 -0.817969 1.54695
547 -1.33902 -3.71132 -6.0225 2.87255 1.56764 1.7701
360 -1.24145 -3.73713 -7.78228 -0.000422638 -1.13582 0.967096
792 -0.461825 -3.38153 -6.94448 -1.47942 4.64904 -1.00893
411 -0.0119883 -4.0295 -6.04438 -0.486011 -0.141159 0.254521
3483 0.184394 -4.14451 -7.0836 1.22007 1.79654 -1.30107
1026 0.276926 -2.95646 -6.61667 0.749056 1.38565 0.598048
225 0.686491 -3.88444 -7.99848 0.16081 -0.794079 0.237555
506 1.17494 -4.67246 -6.61388 -1.95466 0.740188 0.805723
791 2.13052 -4.57571 -7.26789 1.33339 0.944431 -1.30884
1041 1.66576 -3.79174 -6.76227 1.99898 -4.43447 1.9375
559 2.73109 -3.52016 -6.7781 -3.29287 -0.348248 2.16272
1050 4.53504 -4.39368 -6.38302 -1.20586 -1.42962 0.326394
3352 3.78111 -3.72544 -7.69305 0.882521 -1.48527 -1.49684
473 3.65651 -3.86152 -6.71331 4.17451 3.73334 -1.48895
524 4.67897 -3.46001 -7.03606 -1.59817 -1.16638 0.0942962
230 5.48458 -3.72636 -7.40621 1.50991 3.18393 -0.117848
571 5.58867 -3.35179 -6.54084 -0.270648 1.94928 3.01974
805 5.48208 -4.49963 -6.57426 0.980316 0.273679 -1.37625
423 6.54202 -4.20591 -7.20419 1.129 0.721477 -1.90072
816 6.65296 -3.50116 -6.3822 1.4099 0.450078 -0.999696
193 7.55609 -3.72831 -6.59033 -2.62743 -1.00043 0.779862
761 7.20229 -2.16834 -7.07795 0.386182 1.98667 0.203289
520 8.89535 -4.01303 -6.41978 1.84816 0.828528 -0.595627
247 8.91457 -3.16075 -7.37541 2.03128 -0.407599 0.587775
433 8.21716 -4.20991 -7.42312 2.30962 -0.542786 0.70624
194 -8.53572 -2.30324 -6.76486 0.259963 -2.09679 -0.494189
199 -7.3031 -2.4672 -6.73738 -0.522937 0.350014 2.74878
3755 -6.80348 -3.29351 -7.11212 1.4044 1.05495 2.25994
4087 -5.79295 -1.6957 -6.89839 1.6216 -1.11906 1.31498
538 -5.20838 -1.04512 -7.26899 -0.529761 -0.153348 2.89964
252 -5.99675 -3.8443 -7.32786 -2.04783 -2.09264 2.83326
3751 -6.3621 -2.61504 -6.59827 2.67547 -0.540407 0.817918
204 -5.66685 -2.47416 -7.71699 -0.204212 0.382311 -2.33896
489 -5.62848 -3.09967 -6.72488 1.43131 -1.62064 -2.02343
160 -4.98867 -2.01875 -7.42773 -1.92541 3.43957 -0.638722
256 -4.88093 -2.11858 -6.50854 -3.67979 -1.7815 -3.61295
831 -3.98548 -1.78356 -5.87599 -0.35033 -1.38551 2.50645
796 -3.27716 -2.78651 -7.02641 1.64982 1.60901 0.444391
452 -3.91095 -2.0365 -6.85904 -0.727011 -0.42464 0.192427
548 -2.92468 -1.86484 -7.80795 1.41635 2.07964 -0.276621
211 -2.44931 -2.44387 -6.59788 -1.38469 0.645957 1.37944
511 -0.823547 -2.44003 -7.50256 2.6056 4.77508 1.95813
1074 -2.14576 -2.94419 -5.7736 -2.42807 0.110783 0.898512
215 -1.33427 -2.67344 -6.39032 -2.46375 -1.19942 1.49767
553 -0.404951 -2.21895 -6.49869 -0.791861 0.766217 0.198852
3379 -0.263595 -2.24996 -5.53601 1.41188 -1.07346 -1.50813
515 0.0321294 -3.26786 -7.71926 0.853881 -1.77264 0.768731
4055 -0.94796 -1.43286 -7.0887 -1.27792 -0.378781 -1.05877
274 1.08124 -1.67626 -7.24236 -0.0679705 0.275042 -1.00173
470 1.13043 -2.98224 -7.18821 -0.100201 -1.12958 2.70828
852 1.50027 -2.15415 -6.60518 0.882627 -0.563106 -2.00516
3823 2.10613 -2.77133 -7.16652 -2.0626 1.27719 1.01267
3390 2.92486 -2.71091 -6.41688 0.606406 2.06044 -0.332304
567 4.06389 -2.17764 -5.80796 -0.784303 1.82562 -0.672516
3785 3.02905 -1.32197 -7.50173 -1.13272 0.543596 0.00540388
1137 2.46951 -1.88202 -6.85894 -0.670638 -0.182914 2.73689
1098 4.6043 -2.37262 -7.72046 -0.434511 -2.03012 -2.22607
226 3.5764 -2.12064 -7.52099 1.6574 -1.65188 -1.01721
521 4.25414 -1.83143 -6.89304 -3.862 -1.22693 -1.66479
476 3.8204 -2.94652 -7.09677 2.11481 -0.982477 -2.15894
279 6.16097 -2.45514 -6.94071 -1.21041 -1.47945 1.46956
1097 6.34271 -2.40831 -6.07394 0.0157874 -2.92339 0.755694
277 5.62422 -1.62856 -6.94792 -1.27094 -1.08054 -1.14606
3791 5.06029 -2.52451 -6.8107 -0.975579 0.156706 1.55212
859 6.02843 -1.5421 -5.82429 -1.52849 -0.80784 -0.134966
426 6.78966 -1.62877 -6.37328 0.0944685 1.3222 0.323147
565 7.24047 -2.76155 -6.22639 1.5455 3.97701 -1.58975
231 7.88647 -2.51327 -5.48568 0.456436 -2.10465 2.68437
474 7.97885 -2.85986 -7.18026 -1.49512 0.479502 -1.69767
195 8.38936 -3.0244 -6.33301 -0.451567 0.0777484 1.86868
3406 7.94496 -2.18538 -6.44796 -0.258149 -0.997324 0.875894
242 -8.42939 -2.80928 -7.70681 1.51721 1.62735 0.249313
1057 8.81144 -2.42232 -6.9357 0.3527 3.35331 -0.394884