ITEM: TIMESTEP
57000
ITEM: NUMBER OF ATOMS
6912
ITEM: BOX BOUNDS pp pp pp
-9.2265715179435492e+00 9.2265715179435492e+00
-9.2265715179435492e+00 9.2265715179435492e+00
-9.2265715179435492e+00 9.2265715179435492e+00
ITEM: ATOMS id x y z vx vy vz
1845 -1.54359 -6.32264 -0.0858356 0.205215 0.968157 -0.681854
865 -9.12906 -9.15565 -4.38852 0.687473 1.24021 -0.591885
579 -8.36388 -9.18097 -5.26119 -2.97177 2.03257 0.371043
8 -7.95245 -8.47232 -8.50967 -0.631471 -0.959214 0.0754195
55 -6.96916 -7.74163 -8.45984 1.09954 0.285219 -0.25716
1457 -3.20935 -9.13214 -1.54601 -0.849327 -0.734591 0.138486
221 1.62055 -2.83751 -9.17106 -0.108796 -1.12015 0.896456
319 2.29596 -9.24817 -6.99895 -1.14872 -1.87118 1.04285
12 -6.19978 -8.57532 -8.4105 -0.579546 -2.05017 3.30442
1745 -3.02971 -9.16408 -0.169134 -0.0934858 -0.454751 3.40301
1681 9.04271 -1.36909 -1.48535 1.44675 0.316061 -3.9982
16 -4.59264 -8.35958 -8.6165 1.34194 -1.12321 -0.887437
1774 8.28012 -8.50304 -0.0285274 -1.3679 -1.19482 1.03412
20 -3.03429 -8.34753 -8.61303 -0.676442 -0.250208 -1.8677
1921 9.17391 -3.01966 -0.0389957 -2.11408 -1.17881 1.0017
282 7.03702 -0.64618 -9.21585 2.56466 1.09904 -0.847608
24 -1.5383 -8.56798 -8.69054 -4.29211 1.85713 -0.673581
71 -0.802704 -7.8531 -8.52871 -0.238899 3.09863 2.06948
1961 6.04501 -3.16678 -0.146022 1.80671 -0.149211 -1.31862
46 8.51495 -8.53643 -9.14402 -1.49496 -1.08591 -0.461145
28 -0.129347 -8.43621 -8.36728 -0.461282 -0.0490139 -0.713253
75 0.720793 -7.71691 -8.35891 -1.5809 1.08568 -0.377591
361 -0.171545 -7.69053 -7.74373 1.984 1.39346 -0.00274052
32 1.41454 -8.49252 -8.62011 -1.15697 -0.0254771 -1.68819
1171 -2.45147 -9.12819 -2.34808 -2.07674 0.14518 0.588358
36 3.2445 -8.69541 -8.42906 -0.413876 0.103253 0.866751
369 3.25344 -7.74726 -7.57473 -1.44601 0.70939 -0.270032
318 2.46565 -8.5529 -7.81106 4.31272 1.68137 0.181048
1881 -6.255 -4.60234 -0.0734927 -1.84938 -0.0841817 3.3149
1869 7.61736 -6.07458 -0.00992479 2.46407 0.770754 1.76662
40 4.63468 -8.64022 -8.47729 0.860599 -1.73517 1.10973
83 3.69871 -7.81636 -8.50673 -0.646088 2.97582 0.257553
173 1.46565 -4.47613 -9.10181 0.859647 0.473281 0.0911346
218 0.8038 -2.32743 -9.06117 0.689629 0.39945 -0.496884
44 6.16866 -8.59657 -8.30608 2.76472 4.28988 0.971316
87 5.2421 -7.66674 -8.45661 -0.47434 -0.226046 1.18096
326 5.20416 -8.48151 -7.76826 0.697331 0.63605 0.660319
330 6.90387 -8.50781 -7.56511 -1.03674 -0.190702 -1.38364
48 7.80487 -8.81483 -8.62491 -0.613127 1.76044 -0.107445
4643 3.90903 -0.105914 -2.24674 2.11829 -1.6961 -3.13865
4 -9.17292 -8.33409 -8.51285 -0.877401 -1.52926 -0.674641
4047 -3.87971 -0.0690213 -5.34864 -0.421751 0.980138 -0.561884
78 2.29314 -6.83862 -9.1765 -2.13896 -1.01141 -0.320975
51 -8.50652 -7.58135 -8.43125 3.88357 -0.550576 0.612953
52 -9.21138 -6.88925 -8.47297 -0.373288 0.0500055 1.42654
385 9.24272 -6.21004 -7.68979 1.87502 0.376182 0.202915
1849 -0.112998 -6.08814 -0.0176585 0.634115 -0.512939 -1.11009
56 -7.78035 -6.88255 -8.55568 -0.581766 0.706585 -1.42993
342 -6.79334 -6.91119 -7.91134 0.615317 1.44746 -0.323272
103 -6.9294 -6.12567 -8.63209 0.0481448 -0.034666 -1.40263
317 1.69735 -9.181 -7.81134 2.24261 0.306593 -1.84838
153 -6.16476 -4.61284 -9.1073 -1.64484 0.985572 1.87953
59 -5.26361 -7.64077 -8.72258 1.54281 -2.3701 0.897581
60 -6.03741 -6.82504 -8.49135 -1.43113 0.767511 0.131386
107 -5.17216 -6.12263 -8.58366 -0.331244 1.29281 -2.28462
63 -3.85715 -7.70252 -8.50425 -2.32043 1.33874 1.75068
64 -4.48604 -6.94838 -8.61534 1.98952 0.65535 0.609764
4617 -6.2366 -0.0973706 -3.05014 1.01568 -1.9843 -0.0945385
67 -2.3174 -7.67891 -8.57864 -0.701513 0.84584 0.124421
68 -3.05638 -6.90042 -8.64289 0.389818 2.32112 0.931099
1159 -6.88722 -9.12783 -2.43273 -0.835229 0.300433 -0.211859
353 -3.17631 -7.55152 -7.76155 1.60354 -2.95331 -0.413461
1153 9.02136 -9.16594 -2.98851 -0.782211 0.699038 0.860345
1854 2.39022 -5.2809 -0.00505698 -0.611521 0.381549 1.01745
72 -1.51177 -7.01402 -8.60365 0.996017 1.16777 -1.83701
405 -1.58969 -6.18494 -7.84412 1.02297 -3.8533 1.15814
1461 -1.57927 -9.15871 -1.33615 0.128362 -0.843926 0.151333
1890 -2.26929 -3.89063 -0.0598166 1.21678 0.0267816 -1.10205
76 -0.0704388 -6.94692 -8.50172 -0.848072 -2.18085 -1.05268
365 1.66146 -7.71516 -7.8676 0.329714 -0.77184 -0.902766
362 0.745828 -6.84587 -7.77464 1.2752 2.63534 -0.676535
80 1.70461 -6.82722 -8.43747 -0.323484 -0.386639 -1.10313
413 1.46707 -6.02227 -7.64676 1.60765 -0.800174 -0.928093
577 -9.1688 -9.18123 -5.98777 -1.49861 0.32726 1.00619
79 2.61862 -7.89918 -8.48535 0.406457 1.37569 -0.749168
84 3.04303 -6.87632 -8.51863 -0.0656736 1.35157 -1.81828
127 2.38111 -6.01408 -8.62574 -1.95123 -1.68744 0.913046
417 3.18786 -5.9246 -7.94762 -0.0509153 -0.198205 3.78763
366 2.45221 -6.69057 -7.79272 2.29009 -3.98588 -0.703496
166 -0.738245 -3.82336 -9.19562 -0.608109 1.11562 -2.87847
88 4.47635 -7.05547 -8.43072 -1.67127 -1.11162 -1.1168
92 5.9485 -6.827 -8.35421 -0.0212343 0.68675 -1.80979
286 8.55691 -0.712222 -9.18864 0.245429 3.06706 -0.888461
30 2.36789 -8.52531 -9.21575 -1.07362 -0.0132118 0.0859935
425 6.06519 -6.09049 -7.56098 -0.554895 -1.09335 -0.599556
91 6.88228 -7.86923 -8.2942 2.72651 -1.10507 -0.710216
96 7.71964 -6.90347 -8.33881 -0.0110898 -1.21237 0.990061
1455 -3.81736 -9.12944 -0.815955 -0.504533 -0.0572523 2.37637
1479 5.43374 -9.12961 -0.634884 2.09615 2.14966 0.813113
4067 3.85133 -0.0125705 -5.33378 0.593399 1.10923 -0.457598
95 8.48995 -7.64252 -8.35967 0.389598 0.857217 0.52011
143 8.39684 -6.0606 -8.73602 0.433412 -1.70509 0.811036
77 1.66359 -7.61849 -9.11671 2.06844 -1.20409 -0.551735
99 -8.46123 -6.08181 -8.49136 2.62794 -0.504363 3.07989
147 -8.5087 -4.80511 -8.50433 0.584292 -0.505662 1.15275
100 9.18959 -5.56918 -8.5324 0.15771 -1.56565 -1.70943
3759 -3.8399 -0.111142 -6.93949 -0.93331 -0.98762 2.52045
1179 0.864793 -9.06252 -2.2493 -0.124806 2.03482 -1.77283
104 -7.67024 -5.46601 -8.48538 0.195766 -0.841311 -1.80037
285 7.71866 -1.4737 -9.08979 -0.799337 0.702773 1.00292
390 -6.98378 -5.28151 -7.68595 -0.386905 1.25742 1.60926
1813 4.73508 -7.52985 -0.118706 -1.13755 0.429863 -0.60927
89 6.05959 -7.80198 -9.09853 0.636925 -0.24091 -1.23235
108 -6.21115 -5.49426 -8.32074 0.883742 -1.032 1.44735
155 -5.36716 -4.54745 -8.4902 0.0438761 0.938559 2.17986
197 -7.65908 -3.12305 -9.10114 0.708581 -0.0402377 -1.12314
4927 2.36799 -0.130815 -0.829196 -0.969875 -0.537421 -1.2187
111 -3.69343 -6.10155 -8.4794 -0.209529 1.8549 1.7943
112 -4.47224 -5.47615 -8.41555 -1.59566 -0.147031 -1.82306
159 -3.82873 -4.77944 -8.29117 0.587584 2.36524 1.30732
1167 -3.95277 -9.09745 -2.33148 2.37858 1.95795 0.577117
5217 3.08645 -0.0582394 -0.0164464 2.07641 -1.87447 0.620189
115 -2.38191 -6.16855 -8.4522 0.147569 -1.49924 1.47334
116 -2.95917 -5.42074 -8.51266 0.907451 0.73907 0.245184
621 7.60929 -9.19456 -6.05547 -0.886774 0.885936 3.79287
120 -1.51838 -5.36606 -8.47704 3.67121 1.18874 -2.34873
119 -0.761948 -6.05804 -8.54413 -2.70121 1.70336 2.28639
167 -0.787996 -4.63653 -8.4517 -0.786639 -0.0392097 0.389684
406 -0.714265 -5.35178 -7.62042 -0.558252 0.170247 -0.302989
1782 -6.923 -7.09595 -0.122397 1.46251 1.02392 0.050826
124 -0.0419671 -5.26005 -8.47994 -0.393056 1.08194 0.672007
409 -0.0084816 -6.14873 -7.83572 0.195362 0.746874 1.56143
410 0.678935 -5.41814 -7.6548 -0.828512 0.418651 1.26684
457 -0.130073 -4.41666 -7.70485 -2.25887 1.23893 -0.482337
123 0.896101 -5.98632 -8.47665 -1.23631 0.698024 0.129408
128 1.66259 -5.27261 -8.52651 1.944 0.814478 1.66194
171 0.782946 -4.58107 -8.23799 0.820181 -1.05281 -2.18179
461 1.61367 -4.52543 -7.77148 -3.82813 -0.209748 -1.30112
132 2.98583 -5.17634 -8.6042 0.487688 1.96893 -1.34403
175 2.29922 -4.52135 -8.52493 1.78054 -0.292327 1.99315
131 3.99195 -6.14748 -8.45945 1.25293 1.03643 0.901907
136 4.64378 -5.25771 -8.42276 -0.764347 0.127933 -0.308542
179 3.88263 -4.52588 -8.62901 1.05691 -2.25433 -0.606168
1155 -8.71881 -9.21621 -2.28979 -0.355241 0.134116 2.24947
135 5.32723 -6.1062 -8.37983 2.4376 1.99305 -1.57345
140 6.14361 -5.32043 -8.48105 -0.0226067 -3.073 3.24665
183 5.35135 -4.58589 -8.60458 -2.43725 -0.830381 -0.740324
234 6.98144 -2.19618 -9.25503 -1.70657 -2.98719 -1.07573
1465 0.000383629 -9.07626 -1.55852 2.08824 1.4208 -0.503775
139 6.71412 -6.10821 -8.42943 2.88025 -1.8877 0.684679
144 7.74479 -5.29037 -8.55025 1.34545 0.365963 0.322646
187 6.93829 -4.52768 -8.47054 0.932105 -0.88493 -0.824235
53 -7.77821 -7.73907 -9.10454 -1.93106 -1.13561 -1.9022
214 -0.555234 -2.18382 -8.99778 -0.0527347 -2.0571 1.85088
1161 -6.02174 -9.1449 -3.19773 2.92275 -1.38182 -2.66653
191 8.57793 -4.66606 -8.47477 -0.609681 -0.948174 0.65568
148 -9.14925 -3.84109 -8.29034 0.896018 -2.04735 -2.18607
437 -7.70327 -4.62812 -7.66989 -0.666391 1.53363 -1.18799
86 5.41556 -6.93666 -9.15372 -1.41516 -0.606045 0.0552295
597 -1.45494 -9.21146 -6.19902 -0.422868 -1.96492 -1.07369
4341 -1.5472 -0.151865 -4.45265 -2.72338 -0.651313 0.163164
151 -6.90206 -4.67006 -8.41133 0.68113 -2.84049 1.62334
152 -7.69035 -3.86378 -8.47655 -0.329738 -1.11896 -0.948462
485 -7.63977 -3.17167 -7.69124 -0.508819 -0.0962491 -1.69547
4365 7.75091 0.0265162 -4.50867 -1.14044 3.97567 0.0846555
54 -7.05132 -6.938 -9.18373 0.706866 0.48001 0.0555918
156 -6.07896 -3.79894 -8.54213 0.061405 0.340224 -1.60097
203 -5.36385 -2.97359 -8.47517 -3.11855 -0.260182 -0.453957
198 -6.92408 -2.33247 -9.23879 2.99367 -1.48438 0.247307
160 -4.50495 -3.83018 -8.43125 1.28851 1.15938 1.48003
207 -3.74537 -2.95678 -8.48999 -1.82685 -0.331021 -1.45917
1838 -3.98504 -5.32337 -0.0265942 1.71435 0.0144895 -0.921313
163 -2.46391 -4.52998 -8.47298 -0.8553 -0.719725 -2.4761
164 -3.0972 -3.85776 -8.45256 0.227591 0.928671 -2.10465
47 8.58622 -9.28827 -8.3515 -0.552822 -3.91836 0.419254
190 8.66325 -3.83383 -9.13136 2.11864 -0.734575 -0.967955
118 -0.734244 -5.24797 -9.20018 -0.974778 -0.774903 -2.28204
168 -1.53759 -3.78842 -8.39114 1.09673 -1.88478 -0.889339
1821 7.6552 -7.56417 -0.0676478 -0.685054 -1.82035 0.710836
215 -0.813684 -2.96716 -8.45057 0.258082 -0.481263 0.0970881
172 0.0962328 -3.62078 -8.36066 1.66293 2.40011 0.237529
458 0.907477 -3.83329 -7.60095 1.9216 1.24044 2.71029
176 1.55707 -3.7368 -8.36987 -2.10585 -0.110716 1.49649
509 1.52121 -3.07079 -7.59887 -1.82111 1.70457 -0.525188
180 3.15688 -3.84389 -8.54866 1.29837 2.34262 -3.13038
513 3.0516 -2.91418 -7.74322 -0.659917 1.49449 0.0666659
469 4.71542 -4.55176 -7.80442 0.763091 -1.75279 -1.37021
184 4.66828 -3.74349 -8.57274 -0.976865 2.48066 0.440653
227 3.8132 -3.08143 -8.46094 -0.253905 -1.21898 0.124593
466 3.92968 -3.92235 -7.72418 -0.989393 -1.55259 -0.66695
517 4.77323 -3.08814 -7.83554 0.838303 1.06604 -0.744427
473 6.31983 -4.70493 -7.78543 -1.25628 1.79945 1.31366
188 6.15002 -3.82609 -8.48481 0.84724 0.680381 -2.20823
231 5.62243 -2.96749 -8.38939 -1.99919 0.495365 -1.96202
4325 -7.59176 -0.141701 -4.55691 -2.24639 0.361137 -0.596721
1189 4.585 -9.19026 -3.18198 1.0907 0.784173 -0.545685
192 7.66098 -3.76671 -8.34635 0.618845 3.25106 -0.666975
235 6.83082 -3.06462 -8.37706 -1.19204 -1.9601 0.69973
615 5.53304 -9.24592 -5.38505 0.180749 -1.31819 1.95502
239 8.3244 -3.01865 -8.42635 -0.707075 0.29032 -0.810437
525 7.67923 -2.9846 -7.63363 -0.345342 -0.0896915 -0.458924
4907 -5.46576 -0.291539 -0.827435 2.79951 0.637936 1.4068
195 -8.42737 -3.09267 -8.34668 1.17902 0.11823 -2.01195
309 -1.52504 -9.18271 -7.66528 1.35973 0.347044 -0.67066
482 -8.51196 -2.29843 -7.59528 4.05618 -1.15585 -2.09877
3781 4.55482 -0.0743281 -7.60234 0.4375 2.56481 -2.47204
199 -6.89002 -3.13993 -8.39289 3.09397 -0.0647151 1.02373
200 -7.76353 -2.28598 -8.25835 -0.542834 -1.35227 0.893814
247 -6.90503 -1.5713 -8.50338 1.37837 0.74716 -1.20538
1463 -0.660305 -9.19737 -0.688662 -2.05164 0.382875 2.93737
204 -6.23455 -2.44893 -8.44058 -0.0942673 0.295801 -0.544903
251 -5.48559 -1.54935 -8.60343 -1.20301 0.71937 1.07343
3483 0.742699 -0.0252448 -8.4972 0.0221745 0.521828 1.96005
208 -4.39268 -2.1529 -8.45333 1.36141 2.5977 0.664542
255 -3.5899 -1.65004 -8.40093 -1.01626 -0.474399 -1.25192
1730 -8.40346 -8.39651 -0.144264 1.53939 -0.981078 -1.98874
211 -2.31826 -3.05545 -8.59387 -0.306567 -3.10686 0.533247
212 -2.92557 -2.34944 -8.67476 0.721924 0.820957 -0.530217
259 -2.36238 -1.59006 -8.51048 -0.938889 0.139738 0.146183
498 -2.48177 -2.43934 -7.73693 0.271456 1.4519 -0.610381
1766 5.38143 -8.26368 -0.00223596 0.600875 1.24539 1.72788
6 -7.08086 -8.56896 -9.04821 0.293436 0.531976 0.40526
146 -8.48042 -3.87089 -9.08976 2.32103 0.265368 -1.22381
216 -1.61139 -2.2207 -8.62514 -1.62524 2.95314 0.161165
1877 -7.71854 -4.50702 -0.0692703 1.22156 -1.51184 0.291132
220 -0.0164596 -2.3386 -8.33293 2.01543 0.770632 0.829077
219 0.841805 -2.98147 -8.29336 -1.88718 0.629261 0.836958
224 1.60399 -2.11682 -8.42333 0.804552 0.966565 -1.8053
267 0.674516 -1.58844 -8.2295 -0.200226 -0.131194 1.02912
557 1.37259 -1.45628 -7.57066 0.0949801 0.186669 -0.068033
506 0.623641 -2.27711 -7.50774 -1.44581 1.69407 0.125096
223 2.25008 -2.94601 -8.38663 0.404486 -1.00017 -2.05821
228 3.08396 -2.216 -8.50608 1.20618 -1.06766 -0.462267
510 2.28541 -2.12134 -7.66889 3.04577 -3.26304 0.0714824
271 2.34441 -1.53495 -8.59748 -1.93182 1.79904 -2.28168
3467 -5.38322 -0.00439917 -8.68148 0.102292 0.642056 -0.766647
232 4.70379 -2.27755 -8.48368 0.451575 -0.0195391 2.03166
514 3.85548 -2.309 -7.75937 -0.256471 1.18456 -3.31336
275 3.84036 -1.50236 -8.43338 -1.26053 1.42124 -0.426021
236 6.24446 -2.28521 -8.50444 0.6418 0.537721 0.035119
569 6.26717 -1.44439 -7.63303 0.309062 -0.0624525 0.464446
518 5.40577 -2.16794 -7.64751 0.0879933 -0.724546 -0.181783
165 -1.60832 -4.47346 -9.17613 -0.503741 1.17173 -1.71707
240 7.62464 -2.21335 -8.29159 1.52 0.129553 2.05163
522 6.94224 -2.26427 -7.57704 2.31488 -1.99331 -1.35455
283 7.03154 -1.51511 -8.40327 -1.04216 -1.51602 2.78467
196 9.11489 -2.27374 -8.24804 -1.26622 2.93658 2.27603
529 -9.1654 -1.52563 -7.53992 1.87666 0.066886 2.08691
243 -8.60166 -1.462 -8.41772 -1.18215 -2.34302 1.44947
4905 -6.15402 -0.0615472 -1.52644 -0.809964 0.69331 -3.11001
138 6.84609 -5.25562 -9.25614 2.17522 0.302688 -2.48081
237 7.77741 -3.01565 -9.15943 -0.141163 -1.22624 1.49041
248 -7.62599 -0.957897 -8.4186 1.15019 2.05252 0.911826
534 -6.92657 -0.734595 -7.72355 -1.76152 0.555655 0.54027
1183 2.26284 -9.06598 -2.2717 -0.824445 0.851619 3.06405
1797 -1.61881 -7.55249 -0.139529 1.03085 1.13898 0.895589
278 5.38629 -0.75562 -9.21239 -2.57306 2.8796 -0.759233
252 -6.24056 -0.827481 -8.49436 3.20566 2.9738 -0.890974
2005 4.48457 -1.62669 -0.240544 -0.12173 -0.00346503 1.13063
1467 0.700962 -9.19324 -0.894467 -1.59887 -1.95386 1.23484
587 -5.42644 -9.1125 -5.42497 -2.32338 1.65984 0.138151
256 -4.56922 -1.02076 -8.4822 -1.05074 -0.556831 -0.179032
4335 -3.83106 -0.208348 -3.79598 1.46994 0.00786123 -0.928837
260 -2.96014 -0.838837 -8.44988 2.20582 -0.847191 0.300259
546 -2.36668 -0.580822 -7.64543 3.55906 1.84374 -0.541625
545 -2.86259 -1.5431 -7.61122 1.90034 -1.63217 -1.11037
1946 0.887125 -2.41655 -0.0540697 -1.74382 -0.373833 0.219863
1191 5.32406 -9.16194 -2.25956 2.61418 1.57117 1.29464
3749 -7.70765 -0.0665357 -7.82362 -2.21341 -0.339925 -1.31586
899 3.82728 -9.16267 -3.83135 0.454527 2.11722 0.678846
263 -0.900534 -1.47002 -8.37546 -1.23479 -0.955177 3.28041
264 -1.6741 -0.899594 -8.40512 0.00117735 -0.61701 -3.24285
601 0.040964 -9.13332 -6.30252 -2.49175 3.26844 -0.494921
1994 0.802015 -0.926628 -0.055329 -2.50227 -0.868312 0.515028
268 -0.0825115 -0.763109 -8.47097 -1.19215 -1.34106 -0.396304
1684 -9.05813 -0.842714 -0.738512 1.00062 -1.35822 -0.634832
272 1.56793 -0.694287 -8.52148 0.690952 -0.104946 0.0520728
554 0.555503 -0.773515 -7.73748 1.03906 1.61429 1.41662
93 7.64302 -7.7865 -8.86801 -1.61129 -1.17654 -0.143494
303 -3.753 -9.07889 -7.00265 0.796422 0.470414 2.35102
276 3.06427 -0.760225 -8.48951 0.42676 0.889065 0.720987
561 3.05015 -1.51113 -7.67379 -2.98339 0.795239 -0.0755005
558 2.2767 -0.675638 -7.66286 -0.803442 0.352804 1.07168
593 -3.21169 -9.13198 -6.24085 1.22692 0.0213294 1.12395
1177 0.0936113 -9.12033 -3.06313 -0.655165 -2.42147 0.286158
565 4.57542 -1.52146 -7.72846 -1.86691 2.20878 -0.951496
280 4.66194 -0.734006 -8.37632 0.219226 2.07473 0.0835477
562 3.73758 -0.700611 -7.72745 1.06876 0.873237 -1.43973
4909 -4.67626 0.013733 -1.58641 -0.0777455 2.98084 0.0272279
279 5.45111 -1.60186 -8.45733 -0.279469 -1.05381 1.70421
284 6.24012 -0.6804 -8.38845 1.35775 0.684177 0.680121
566 5.4195 -0.716233 -7.66962 2.16572 -0.134002 -1.05711
288 7.82275 -0.557866 -8.48725 -0.202755 -1.28013 -2.2909
573 7.70609 -1.50845 -7.49589 2.72819 -1.6847 -0.414227
38 5.29589 -8.64929 -9.07335 0.962676 -0.371673 1.04615
287 8.45421 -1.45901 -8.2223 1.09213 -0.286902 1.35843
244 9.15201 -0.570455 -8.43375 -0.199887 1.38348 3.25504
4625 -3.23074 -0.0416912 -2.83713 -1.29384 -0.2813 1.79817
335 8.43835 -9.17771 -6.85573 0.448031 -0.671676 -2.04235
290 -8.49931 -8.36903 -7.69788 1.29504 -1.47733 0.035921
339 -8.43261 -7.66245 -7.06565 -1.12112 2.7115 -0.835554
294 -6.9424 -8.52537 -7.76376 -0.149271 2.99144 -0.191179
296 -7.54253 -8.33601 -7.01227 1.12369 -2.35882 -1.57122
343 -6.80241 -7.66171 -7.10699 1.1557 0.461212 -3.39406
298 -5.47818 -8.35795 -7.85391 0.34944 2.57589 -1.04367
300 -6.08914 -8.462 -6.91369 -0.77117 -0.525069 -2.72031
586 -5.38097 -8.4175 -6.28386 -3.38075 -0.786173 -0.806149
347 -5.2747 -7.6956 -7.11258 1.37491 0.178667 -2.13772
302 -3.88347 -8.28787 -7.76318 1.44409 1.41359 -0.650816
304 -4.61931 -8.35994 -6.96634 -0.485736 0.139126 -0.655851
351 -3.96507 -7.50006 -7.04889 -0.489836 -1.09275 -1.17758
306 -2.1791 -8.47638 -7.8848 -1.26213 -1.23071 -0.900381
308 -3.15086 -8.31271 -6.95463 0.960457 -1.70159 1.02426
355 -2.26849 -7.70816 -7.10009 1.63222 -0.280549 -2.14806
594 -2.17707 -8.36157 -6.27938 1.25665 -0.853986 -1.03604
357 -1.45329 -7.67789 -7.86821 1.81541 3.08673 0.069633
94 8.43883 -7.08905 -9.15862 -1.09821 -0.0692422 0.943219
310 -0.868726 -8.49629 -7.73167 -0.532492 -1.1395 0.815773
312 -1.51746 -8.44749 -6.96779 -0.242854 -2.62847 -0.32496
645 -1.45117 -7.71479 -6.16149 -0.981026 -3.56964 -2.70454
316 0.0538688 -8.47273 -7.09912 -1.71093 -0.513066 2.36712
359 -0.776853 -7.79099 -7.02669 -1.34776 0.647121 -0.632388
307 -2.38682 -9.06503 -7.05284 -0.981034 1.83069 0.238786
1742 -3.80282 -8.36847 -0.169615 -0.69184 0.258362 0.685493
194 -8.6336 -2.28417 -9.05389 -3.16236 0.751517 -0.00888508
314 0.737046 -8.62835 -7.83336 1.85583 -0.935721 -0.0467739
320 1.47861 -8.49053 -7.13634 -0.796574 0.362431 -0.697956
363 0.678538 -7.60489 -7.05832 1.93371 -0.238672 -0.909003
130 3.93959 -5.41497 -9.13982 1.88662 1.96695 1.29783
4077 7.76158 -0.0224297 -6.19229 -0.335597 -0.72383 -0.70386
324 3.11814 -8.48082 -6.94196 -0.105275 2.54832 0.548914
4039 -6.95136 -0.0126008 -5.48537 -1.10373 0.855551 -1.26673
322 3.89083 -8.59131 -7.74159 0.843629 -1.75801 -0.939812
373 4.40137 -7.79382 -7.67594 -1.85311 2.19726 -0.734016
328 4.59077 -8.51673 -6.90616 -1.52845 -1.86396 0.208007
371 3.90177 -7.66947 -6.77985 0.689601 -1.32029 -0.363026
610 3.80686 -8.618 -6.22543 1.42265 0.975038 2.91181
377 6.13514 -7.61643 -7.68431 -0.686548 -1.24755 -1.84747
332 5.97993 -8.47214 -7.11578 -0.831448 0.975768 -0.468954
375 5.16915 -7.72867 -6.93434 2.67893 -0.657603 0.792254
2010 6.85417 -0.569891 -0.00147639 -2.71774 0.960747 1.06191
4073 6.20776 0.0205867 -6.11221 1.76606 2.66817 0.99281
336 7.78465 -8.42916 -6.9619 0.0394041 0.973212 -2.20259
381 7.77838 -7.99171 -7.84183 0.308722 -3.57422 -0.162437
618 6.9922 -8.32529 -6.25073 -1.32083 1.4558 1.2722
292 -9.15949 -8.41211 -6.90222 0.771377 0.874402 -1.12461
334 8.58719 -8.51969 -7.6543 -1.43011 -1.3914 0.603059
383 8.49293 -7.65537 -7.05396 -0.709446 -1.28978 0.897246
625 -9.01065 -7.6783 -6.21772 1.51358 0.38598 2.20473
622 8.46642 -8.57318 -6.07412 -2.51905 -0.573834 2.45285
337 -9.15298 -7.67241 -7.72631 0.60051 -0.118816 -0.481694
338 -8.42181 -6.89621 -7.71719 -2.61133 -2.70654 1.19608
340 9.23945 -6.85368 -6.88203 1.5838 0.794143 -0.4029
673 9.19619 -6.15456 -6.12841 1.21809 -1.20918 2.64165
341 -7.57589 -7.73395 -7.77574 -0.755503 0.0845346 -0.500253
344 -7.69174 -6.93203 -7.00709 -3.27416 1.31106 -0.801451
630 -7.04106 -6.98849 -6.25092 1.80819 0.254193 1.15454
346 -5.39041 -6.73335 -7.77355 -1.51177 -0.17284 -1.13479
345 -6.01834 -7.5185 -7.75865 -0.495932 -1.0514 0.820476
348 -6.09027 -6.88218 -7.03444 0.707746 -0.0795619 2.11292
634 -5.45433 -6.93876 -6.21843 -1.26359 0.872483 2.47791
350 -3.93798 -6.85305 -7.8699 -2.02235 0.465726 -1.57037
349 -4.74961 -7.65477 -7.85326 -1.11403 2.43198 0.261942
352 -4.74091 -6.74383 -6.96513 -0.657412 -0.261641 -2.16149
397 -4.60126 -6.14083 -7.64256 -1.39382 1.50722 -1.19519
399 -3.87486 -6.08759 -6.93681 0.582301 -1.38786 0.421513
356 -2.99933 -6.87238 -6.83935 -2.68771 1.09992 -2.39519
354 -2.30007 -6.96611 -7.79013 -1.86934 1.18267 0.542126
403 -2.23495 -6.08863 -6.89227 0.72393 1.17362 -1.1763
358 -0.86612 -6.75642 -7.92507 0.385931 -1.90794 -2.29131
360 -1.52036 -6.92564 -6.8638 0.941384 -2.62844 1.87986
407 -0.783921 -6.26766 -7.06768 0.63526 0.0566584 -0.521459
364 0.0338438 -6.93717 -7.10459 0.524171 2.22934 -0.669706
411 0.616766 -6.15 -7.0441 -0.00276148 -0.558515 -2.08983
368 1.69313 -6.87366 -7.19873 -1.9864 0.700124 0.763817
650 0.808945 -6.87413 -6.23202 -0.317195 -1.11413 -2.54259
367 2.22752 -7.7411 -6.97713 -2.0378 -0.488027 -0.475758
372 3.1067 -6.85484 -7.07866 2.02346 -0.184565 1.76089
415 2.26496 -6.11777 -7.07055 -0.414616 0.616642 0.973829
657 3.06433 -7.84337 -6.18842 0.488995 -0.721337 -0.525784
705 3.03595 -6.17894 -6.13866 1.21194 1.88639 -2.41357
370 3.76977 -6.86595 -7.81995 -0.141991 -1.02196 2.31691
376 4.51406 -6.89014 -7.08976 -1.76297 1.24967 -0.0754226
374 5.23269 -6.88482 -7.74904 0.493635 -2.16777 -0.569816
380 6.09422 -6.89756 -6.92053 2.78414 2.51921 3.06542
378 6.87889 -6.84947 -7.65504 -1.36994 1.47324 -1.61707
379 7.0298 -7.64828 -7.15691 -1.08193 1.08384 1.41418
384 7.70993 -6.98122 -7.00224 0.376277 2.02065 1.00133
382 8.5216 -6.80332 -7.77338 0.595213 -2.50962 -2.22745
431 8.5007 -6.26097 -7.05198 1.08986 -0.667721 -0.449033
670 8.66542 -7.05942 -6.08557 -2.84452 2.1116 1.03284
387 -8.43369 -6.04899 -6.96453 -1.7046 0.539983 -0.556813
386 -8.41483 -5.43436 -7.76745 0.285275 -1.17374 1.11913
388 -9.16883 -5.39675 -6.95916 0.486611 0.309381 -1.4938
392 -7.69553 -5.41477 -6.94323 -0.266494 1.81616 2.78498
389 -7.59996 -6.20498 -7.62012 3.5946 -0.688051 -2.93523
391 -6.94684 -6.0055 -6.90372 -0.664708 -2.62752 -1.72639
439 -6.86765 -4.62673 -7.02807 -1.25009 -2.62909 -0.207307
393 -6.30849 -6.09427 -7.65461 0.0740385 0.917922 -1.28474
394 -5.19606 -5.46731 -7.75488 -0.115057 0.488284 0.7983
395 -5.48749 -6.06665 -6.97724 0.850813 -0.929491 0.972253
396 -6.13501 -5.31761 -6.95181 -0.304574 -0.941368 -0.237741
443 -5.44916 -4.64292 -6.95568 -0.855619 0.994966 -3.33299
398 -3.6218 -5.30551 -7.49973 -1.78437 3.57596 1.69021
400 -4.52098 -5.21597 -7.09662 -1.13655 -2.09526 -1.17289
445 -4.62916 -4.48941 -7.79581 -2.42178 0.836464 0.084612
447 -3.77833 -4.43189 -6.88303 0.398334 1.11885 0.34554
401 -3.04402 -6.17833 -7.69246 -0.562348 -1.52116 2.25299
402 -2.23547 -5.43281 -7.73106 1.44155 2.82562 -0.899638
404 -2.94687 -5.36312 -6.81181 -0.748539 1.89889 -1.67581
451 -2.28428 -4.55373 -6.83599 0.63972 0.57059 -2.90863
408 -1.3703 -5.41498 -6.79643 -1.76586 -0.257354 -1.24626
455 -0.669042 -4.59236 -6.92092 0.299993 -0.370349 -0.750462
412 0.14401 -5.25019 -6.78739 4.2339 0.166285 -1.73364
459 0.614042 -4.44995 -6.94448 -0.309316 2.14736 2.17379
416 1.37358 -5.30796 -6.84934 0.310455 -0.103201 1.85257
698 0.772852 -5.3118 -5.98282 -0.193951 -0.409293 0.171789
749 1.33105 -4.54801 -6.26906 -0.418627 -0.878049 1.28726
702 2.13381 -5.31936 -6.26938 1.19139 -0.134596 1.43387
414 2.35213 -5.26239 -7.70514 1.14789 1.95196 0.959999
420 2.91156 -5.21274 -6.86606 -2.0094 0.821878 -1.13411
463 2.19307 -4.51344 -6.8567 2.05657 0.768741 -1.87327
753 3.09356 -4.40097 -6.18583 1.19736 0.326332 -1.45993
418 3.7219 -5.19125 -7.67642 -1.01421 0.251294 -0.05148
419 3.80136 -6.1034 -7.07132 0.670478 -0.498652 -0.0316844
421 4.63554 -6.08947 -7.73429 1.94663 0.924357 0.189166
424 4.523 -5.34376 -7.05915 -0.473467 0.321821 1.15712
706 3.80184 -5.09494 -6.17001 0.75435 2.54643 1.06776
423 5.27506 -6.01202 -6.98409 2.60662 1.04709 0.268344
422 5.4659 -5.32486 -7.59344 -0.293085 0.0126599 1.15933
428 6.13278 -5.25378 -6.94732 -0.460325 0.965553 0.503851
710 5.41543 -5.15928 -6.18684 -1.42217 -0.864284 -3.67094
429 7.77497 -6.16071 -7.6059 -0.0336845 -1.2058 -1.40869
427 7.01126 -6.13317 -6.92911 3.86764 0.168498 0.968058
426 6.97545 -5.40278 -7.789 1.82528 -1.76878 -0.00183561
714 6.84537 -5.41078 -6.22976 -1.14868 0.519623 -1.42278
717 7.77571 -6.23109 -6.14677 -2.20638 -2.01504 -0.545625
430 8.40754 -5.50887 -7.73038 0.109533 2.03886 -1.88739
432 7.77052 -5.41008 -6.86495 -1.80355 -0.431008 0.381919
435 -8.52389 -4.68354 -6.86762 -1.3687 -0.624012 1.14405
433 -9.14158 -4.66365 -7.71137 -1.76805 -0.753092 0.15136
434 -8.4994 -3.92115 -7.57559 2.37422 0.982519 0.618769
436 9.11174 -3.76018 -6.9626 -0.448871 -1.35468 1.38878
483 -8.50782 -3.07421 -6.94138 0.534839 -0.384111 0.264194
438 -7.01227 -3.90562 -7.74573 -0.360119 -1.78337 -0.449596
440 -7.69292 -3.82627 -6.84716 -1.14289 -0.1647 0.725674
487 -6.81937 -2.96638 -6.96265 -0.135599 0.612395 0.256006
441 -6.02856 -4.55142 -7.82287 0.744739 -1.07066 -0.063577
442 -5.4084 -3.75082 -7.6771 -0.472582 -0.644139 1.58653
444 -6.15419 -3.88039 -6.85313 0.88132 -1.7757 -0.533046
491 -5.36318 -3.03656 -6.94789 -2.61203 0.145389 -1.80093
446 -3.85939 -3.86364 -7.69977 -1.97722 -2.1017 0.323071
448 -4.67003 -3.81037 -6.89007 -1.23617 0.08054 -3.44183
493 -4.56499 -2.97301 -7.69188 1.57093 3.81534 -2.34572
495 -3.95236 -3.13352 -6.92741 2.06409 -1.92441 0.21438
449 -3.01194 -4.53939 -7.65914 -0.574365 -0.582487 1.46426
450 -2.34226 -3.80032 -7.76183 -2.12586 -0.951864 0.724303
497 -3.2321 -3.15058 -7.62956 0.633525 -0.189788 1.76584
452 -2.96063 -3.79793 -6.78735 0.0580605 -1.96729 -1.54912
499 -2.15647 -3.13869 -7.03493 -0.240534 -0.676135 -2.68743
501 -1.55981 -2.83073 -7.82603 1.07578 1.81923 -0.703244
453 -1.53887 -4.78069 -7.558 2.1323 -2.26287 0.625408
456 -1.49416 -3.91631 -7.0759 2.12997 1.26804 2.66632
505 0.0048922 -3.019 -7.62149 0.24188 -0.366118 -0.0477968
454 -0.701885 -3.61733 -7.73391 0.704822 -1.99681 -2.54936
460 -0.103844 -3.70999 -6.75718 -1.0149 0.0209308 0.272569
746 0.674079 -3.69914 -6.13078 -0.933653 -1.68898 -2.1933
793 -0.161058 -3.00823 -6.06102 -1.34042 0.230197 -0.522501
464 1.65583 -3.79113 -6.94653 3.11998 -3.06649 0.0992152
462 2.27663 -3.67781 -7.67269 -1.8296 0.196197 0.857742
511 2.21902 -2.91664 -6.8423 0.59462 -2.05999 4.23306
507 0.736596 -3.07005 -6.88796 0.587295 0.0875162 0.26306
465 3.00932 -4.49693 -7.63104 0.186306 0.817453 -2.86448
468 3.08 -3.5987 -7.02382 1.08816 1.59851 -1.21014
801 3.10438 -2.96369 -6.23332 0.271352 -0.674683 -0.0883047
750 2.20638 -3.71203 -6.12151 1.2028 -2.05481 1.88488
467 3.9223 -4.5036 -6.90064 1.04965 -1.25256 2.00545
472 4.73965 -3.6504 -7.04286 2.22531 -1.10203 0.571115
757 4.7137 -4.43059 -6.26687 1.17399 0.352705 1.17737
754 3.82073 -3.59992 -6.3034 -0.870938 -0.880138 -1.1342
470 5.42615 -3.90827 -7.72357 -0.655441 -0.920891 1.86456
471 5.33693 -4.54538 -7.03163 3.05519 1.92534 0.795018
476 6.08217 -3.7915 -6.97063 0.219978 0.213906 -0.152699
758 5.44139 -3.786 -6.06791 -1.32049 0.129041 -0.359737
477 7.87818 -4.6719 -7.73838 1.3937 -3.41556 2.47642
474 6.90965 -3.84841 -7.6349 -0.515413 1.15795 -1.63717
475 7.04353 -4.69168 -6.97629 -2.18531 0.132586 1.67018
478 8.45766 -3.86323 -7.81545 0.0359113 -3.2778 0.502901
480 7.68705 -3.75806 -6.95307 0.0924813 -0.855118 -0.0389014
481 9.0872 -3.0567 -7.69458 -2.21807 3.24941 0.259817
765 7.8865 -4.64188 -6.15938 0.927369 0.543711 0.359772
479 8.49992 -4.50119 -6.93447 1.24688 -0.321053 -1.27565
484 9.18579 -2.29185 -6.83212 2.46239 0.549183 -1.20381
531 -8.40367 -1.64009 -6.84584 -0.744148 -2.51244 -1.28379
486 -6.86277 -2.1395 -7.65379 2.33948 0.826425 -0.657412
533 -7.86913 -1.5439 -7.67492 0.262716 -0.236955 1.83233
488 -7.63386 -2.46361 -6.96484 -0.983745 4.34905 0.968531
489 -6.22057 -3.16658 -7.58561 1.51958 0.450409 0.819321
537 -6.17436 -1.52383 -7.71162 -1.24541 -1.36726 0.367185
490 -5.37489 -2.18122 -7.66309 2.26891 0.510353 1.59613
492 -6.09555 -2.20588 -6.86343 0.921202 1.66541 0.357043
778 -5.35067 -2.2452 -6.0998 0.680193 -1.68884 0.795896
494 -3.70594 -2.21371 -7.52032 1.1695 1.06858 0.255311
541 -4.6442 -1.57384 -7.64107 2.34382 -0.26465 3.03135
496 -4.63991 -2.29101 -6.80345 -0.607334 -0.342792 -1.38872
782 -3.82379 -2.37446 -6.01016 -0.0447583 -1.04017 0.588383
500 -2.94179 -2.38922 -6.82929 0.857391 0.0742598 0.473509
547 -2.34261 -1.52131 -6.73379 1.67445 -0.866552 0.136172
786 -2.36048 -2.31814 -5.98352 -3.79821 0.949718 -2.6622
503 -0.918605 -3.08049 -6.87215 1.36844 0.49597 -2.08608
504 -1.52514 -2.305 -6.87259 0.263242 -2.03165 -1.88559
551 -0.935876 -1.48786 -7.04303 2.04344 1.86481 -0.407381
789 -1.6012 -3.01048 -6.2298 0.822436 0.291311 1.9786
502 -0.755722 -2.21711 -7.70109 1.42931 -0.933229 0.5396
553 -0.198404 -1.44844 -7.65065 -0.296408 -1.29956 -1.04646
508 -0.171764 -2.20458 -6.81139 -2.93847 -0.729635 1.68382
555 0.713838 -1.45516 -6.87895 -0.634141 0.483819 1.8143
841 0.0477613 -1.46847 -6.10218 0.245619 -0.36586 0.476534
512 1.4513 -2.28143 -6.9193 1.65157 1.68201 0.608761
797 1.51522 -3.06808 -6.06093 -1.36689 1.75782 -0.616749
845 1.49951 -1.48446 -6.30106 -0.513941 0.723528 1.35255
794 0.684272 -2.27032 -6.14023 0.215181 -1.41707 -0.947183
516 3.03262 -2.19753 -6.95954 1.2728 1.92758 1.6445
798 2.45442 -2.31845 -6.09783 -0.614286 -0.287339 -0.49957
559 2.31598 -1.41822 -6.9406 0.232437 0.656355 -1.53394
515 3.89717 -3.01838 -7.19209 -0.0442003 0.704601 -0.718031
520 4.54028 -2.27496 -6.98579 -0.272705 0.719539 -0.688592
853 4.58826 -1.49131 -6.19501 -1.46279 -0.198515 -0.212725