ITEM: TIMESTEP
168000
ITEM: NUMBER OF ATOMS
6912
ITEM: BOX BOUNDS pp pp pp
-9.2265715179435492e+00 9.2265715179435492e+00
-9.2265715179435492e+00 9.2265715179435492e+00
-9.2265715179435492e+00 9.2265715179435492e+00
ITEM: ATOMS id x y z vx vy vz
290 -8.55701 -8.44293 -7.76077 -1.83457 1.51343 -0.927567
3 -8.68418 -8.94587 -8.60653 1.06648 0.263556 0.561508
4363 7.80345 -0.154958 -4.66372 2.00931 0.115486 0.436052
8 -7.81662 -8.17874 -8.55485 0.736932 -2.51535 1.11733
294 -6.8734 -8.31321 -7.85982 0.29945 1.96652 -2.04996
4609 9.00532 -0.390271 -2.95043 -0.488768 1.12858 1.7033
341 -7.96963 -7.56472 -7.76891 0.0280284 0.383169 0.416119
12 -6.36758 -8.35627 -8.67454 -3.16261 -1.34875 -3.05372
4622 -3.70751 -0.103234 -5.12749 1.37142 -0.121377 -3.82895
298 -5.43329 -8.55487 -8.22056 1.79282 3.51004 -1.7691
7 -7.07904 -9.04498 -8.5855 -1.60268 0.603514 -1.02341
16 -4.37807 -8.26772 -8.55311 1.06773 2.2346 -2.12226
1447 -6.60888 -8.45325 -1.83127 1.7267 3.43787 1.4091
302 -3.68946 -8.24005 -7.81463 0.977148 2.02819 -0.170672
4897 -8.67211 -0.898214 -1.29855 0.683885 -0.6309 0.0151431
20 -2.59468 -8.30895 -8.43715 -1.18967 -0.86615 -0.475045
3716 -1.82543 -8.26358 -8.99011 -1.50446 -2.08905 -1.60124
188 7.04309 -4.00959 -9.10524 0.456727 0.68599 3.75793
305 -2.59116 -8.19248 -7.48617 0.0123894 0.980738 -0.461599
3711 -1.71901 -8.80619 -8.15894 0.869329 2.42576 1.29912
4651 7.04405 -0.0764819 -2.15093 0.675103 0.276086 -1.07827
19 -0.772463 -8.63428 -9.09906 1.51587 0.947641 -0.448237
593 -2.89869 -9.21459 -5.36481 1.74239 1.37318 -1.27983
306 -1.8369 -7.72027 -7.24514 -0.983479 1.78932 0.972462
4357 4.44144 -0.53825 -4.61495 -0.649995 -1.33804 -2.03584
71 0.228153 -8.44266 -8.82641 1.56333 -0.926928 0.239307
26 0.8174 -9.16214 -8.17743 0.552743 0.292343 3.05109
76 0.301466 -7.40053 -8.71557 -0.423808 0.116498 -0.303832
24 -0.152478 -7.77042 -7.74618 -1.12081 -0.75542 1.21264
4310 5.56778 -9.16901 -6.42637 0.640459 0.915251 -0.0567404
1472 1.86214 -9.16564 -0.078274 4.41362 -0.44771 -1.36593
361 1.31331 -8.3544 -8.75281 0.748021 -0.23335 0.308385
320 2.00538 -8.02387 -7.98426 -0.169262 0.875444 -1.02145
4403 3.00626 -0.24663 -3.79914 0.507312 1.02647 -3.01414
365 3.04892 -8.04639 -8.34547 1.49976 -0.487562 4.95387
36 2.79883 -8.98042 -8.68159 2.0002 2.19244 -2.52899
3434 1.68032 -0.929571 -8.84857 0.0811719 1.41837 1.98692
4649 6.42226 -0.200598 -2.82729 -0.758267 -2.84004 -1.1969
40 4.65684 -8.30455 -9.15765 -2.50393 0.410831 -3.53215
374 4.82019 -7.67459 -7.68474 0.51658 0.68514 1.63682
322 4.01518 -8.04155 -8.44703 -0.278494 -0.44926 -0.588098
3712 -4.58624 -9.16069 -7.86796 0.274963 -2.66328 -0.379346
260 -3.43643 -0.563531 -8.56263 0.183909 0.936159 1.42145
1572 2.79201 -5.39816 -0.131777 0.129513 -0.711228 0.283045
326 5.47461 -8.54877 -8.1784 0.443287 2.28167 0.350475
48 7.58993 -8.0844 -8.61497 -0.373478 4.28841 -0.169455
91 7.04758 -7.24954 -8.86299 1.16196 0.738533 0.982136
381 7.47621 -7.33557 -7.9203 -1.71071 0.314762 1.18123
330 6.58382 -8.64808 -8.30584 1.0511 -0.776135 -0.424603
333 7.27903 -8.92483 -7.64493 1.2752 -1.3178 1.32006
10 -5.56156 -8.3243 -9.21277 -1.38386 -0.378259 -0.140313
47 8.17853 -8.83527 -8.48878 1.40565 -0.187537 -1.44259
4 9.07316 -8.23984 -8.80615 -2.62298 1.66555 -0.986692
95 8.48145 -7.42718 -8.59799 -1.89787 -1.33372 -0.398316
334 8.24878 -8.07687 -7.91854 -2.49579 -2.5077 -1.24564
51 -8.58545 -7.52964 -8.59291 2.40658 -0.271853 0.304618
338 -8.53656 -6.82236 -7.76389 -1.09063 4.26407 2.75274
56 -7.83763 -6.78627 -8.60775 1.25856 -0.642945 0.388952
389 -7.76535 -6.12074 -7.80007 2.45581 -0.298172 2.32659
55 -6.9733 -7.62482 -8.6453 1.17001 1.75765 0.0128983
342 -7.13747 -6.91327 -7.95553 -2.42463 0.781849 0.773339
60 -6.21063 -6.99936 -8.67942 -1.69272 -0.34352 -1.48022
59 -5.01365 -7.58265 -8.38788 0.504283 -0.948212 2.41125
346 -5.55915 -6.78932 -8.04788 0.634485 -0.528913 1.45749
345 -6.08113 -7.71541 -8.01558 -0.408782 1.61211 1.78941
107 -5.54033 -6.00333 -8.58308 -1.11 -3.51676 -1.57809
393 -6.39327 -6.08791 -7.63836 0.11101 -1.38139 2.80064
3787 7.26954 -0.191285 -6.85978 -0.983027 0.448973 -2.01421
350 -4.68851 -6.60635 -8.72681 -2.38383 -0.189201 -0.331306
349 -4.59852 -7.98646 -7.63189 -1.11968 -0.10299 0.55372
352 -3.87974 -7.21155 -8.68762 -0.463975 -1.60924 -2.03294
397 -4.84458 -6.15909 -7.7738 0.920577 -0.660758 -1.40822
68 -2.96708 -6.58593 -8.93096 -3.02222 -1.87425 -0.289674
353 -2.96136 -7.47882 -8.3995 1.4874 0.300731 1.52874
66 -1.82515 -7.37363 -9.1008 -2.13045 1.49825 1.08194
354 -2.20459 -6.90033 -8.24859 -2.36116 -1.09591 -0.679573
67 -1.88953 -7.74893 -8.16873 0.148558 -2.90457 0.305898
69 -1.24646 -6.66648 -8.7692 -0.67471 0.215863 0.243129
3239 -0.861103 -7.71042 -8.63599 -3.0396 0.486754 0.217249
358 -0.350711 -6.72578 -7.94199 -0.582808 -1.75535 0.712064
4929 3.41777 -0.403635 -1.11976 -1.43372 -1.88231 -1.09391
80 1.55649 -7.40699 -8.60967 -0.924724 -2.22732 -0.417469
883 -4.26938 -9.21287 -4.15144 2.18425 0.212658 -0.349179
366 2.39327 -6.93814 -8.39002 1.09998 2.12143 -0.0597068
413 1.41317 -6.55862 -8.09431 -1.83208 0.539901 1.77498
3328 -4.66693 -2.55055 -8.80405 -0.148015 2.8302 -1.71118
61 -3.7992 -9.02521 -9.11825 -3.11239 -0.575939 -1.35769
417 3.2576 -6.17801 -7.83416 -1.17885 1.92438 1.58267
654 3.52385 -7.11479 -8.32141 0.289135 1.03877 -1.55085
370 4.60206 -6.7075 -8.37754 -0.568425 0.378682 -0.797671
131 3.64178 -6.41676 -8.97008 -0.381078 0.385791 -1.23915
4323 -8.38164 -0.307266 -4.10124 0.657028 -0.703885 -1.26573
87 5.13167 -7.45086 -8.58421 -0.809364 -0.11852 -2.31375
377 6.13189 -7.96501 -8.68216 -1.72502 1.24529 1.15851
92 6.16733 -6.87843 -8.6307 1.88856 -0.284972 1.48968
423 5.79706 -7.48418 -7.77003 -0.434492 -1.5998 0.654726
425 6.58081 -6.02001 -8.10148 -0.241772 -0.133731 1.03697
96 7.76764 -6.61807 -8.75846 0.472269 1.14092 1.71737
378 6.59208 -6.9161 -7.4813 3.42371 0.229444 0.748067
337 9.11577 -7.57945 -7.81244 -0.824318 -0.841589 0.193677
52 9.17193 -6.75774 -8.42421 1.4187 0.356745 -0.148499
385 9.08483 -5.78447 -7.77677 -0.938039 -1.79336 -0.115575
382 8.31489 -6.79397 -7.88612 -0.883808 -1.83761 0.357226
99 -8.5417 -6.0739 -8.45243 1.21913 0.971922 -0.628783
386 -8.50144 -5.428 -7.76682 -0.272765 1.06219 0.595374
104 -7.77041 -5.33899 -8.49196 -0.868379 -0.7701 0.202663
100 -9.0508 -5.1738 -8.54272 0.0598496 -0.892149 0.616718
437 -7.78585 -4.59472 -7.71421 0.926694 -1.27766 -0.515592
103 -6.95299 -6.11244 -8.44412 -2.59935 1.0573 -3.45517
390 -7.03132 -5.19211 -7.75406 0.527528 -1.40931 -2.81674
151 -7.14646 -4.53761 -8.47067 -0.953016 -3.37281 3.33652
108 -6.26361 -5.3294 -8.45779 -1.37835 -1.58859 0.815085
4880 1.88823 -8.90827 -1.01055 1.24767 1.42467 0.383962
64 -4.84981 -5.33438 -8.65654 -0.6424 -0.896305 -0.389443
398 -4.0301 -5.89374 -8.21007 -1.98463 -0.263583 -0.593325
159 -3.96498 -4.56339 -8.21326 -0.22737 -0.544282 2.3892
5201 -2.83364 -0.13426 -0.973118 1.61572 0.635071 -0.0835451
115 -2.91019 -5.64313 -8.81818 -0.0925606 -0.932312 3.16524
401 -3.17376 -6.38237 -7.99885 2.1372 -0.410618 -2.50157
402 -2.21769 -5.86694 -8.13817 2.60476 2.11533 2.56975
449 -3.12892 -5.17121 -8.00339 -0.855076 0.718494 -0.294805
120 -1.14866 -5.66579 -8.61979 1.96422 -3.08525 1.46554
163 -2.15618 -4.95056 -8.79087 -3.48926 -0.177229 2.02957
406 0.260054 -5.10673 -7.9321 -1.61856 -0.366183 -1.8091
124 -0.178689 -5.79935 -8.49029 -0.42233 -0.974274 0.62615
171 0.647555 -5.20582 -8.7643 0.653434 -1.15002 -1.60457
167 -0.25933 -4.69051 -8.64842 -3.07978 -0.400815 -0.834669
123 0.66336 -6.50095 -8.65212 -2.42902 0.981374 -1.33684
128 1.40749 -5.81601 -8.83034 0.8329 1.00582 -1.86017
410 1.40203 -5.47892 -7.95335 -0.114944 -0.861526 3.4879
127 2.29916 -5.90025 -8.45188 1.51144 -1.05013 0.711033
132 3.18438 -5.5453 -8.72948 0.552836 1.85312 -0.808743
175 2.46276 -4.85534 -8.40038 2.25764 3.10551 1.8515
420 3.39964 -5.17372 -7.74625 0.070415 1.7455 -0.781945
2004 2.59248 -1.00894 -0.184952 0.0286838 -1.69716 0.829769
136 4.68942 -5.66804 -8.8813 -0.625862 2.12781 0.677055
418 4.03218 -5.76672 -8.16491 2.66916 -0.754819 -1.77791
179 4.00264 -4.96431 -8.75346 2.78015 1.9183 1.18969
469 4.77972 -4.73159 -7.74687 -1.21773 -2.72616 3.42578
421 5.10118 -5.6389 -8.03018 -0.0873948 1.20689 1.03479
4643 3.81383 -0.62359 -2.05781 0.657592 3.15114 -2.50924
422 5.4932 -6.25641 -8.70211 0.968957 -1.40254 1.88187
140 6.19744 -5.44929 -8.89513 0.957649 2.76208 -0.137323
428 5.9765 -5.37022 -7.66988 1.38428 -0.49407 0.181121
183 5.55544 -4.85726 -8.48211 1.56925 2.06152 -2.72373
139 6.93356 -6.16087 -9.06696 -1.39546 -1.41674 -0.178535
144 7.38093 -5.36652 -8.2885 0.826775 1.03196 1.54579
187 6.64171 -4.77087 -8.30827 -1.82949 -0.195105 2.17476
429 7.50387 -6.23604 -7.65032 -2.12262 0.843218 0.502206
143 8.32807 -5.87061 -8.58502 2.27 1.27703 -0.954345
191 8.61391 -4.68179 -8.34123 -0.972806 1.9478 -1.22082
433 -9.19942 -4.72681 -7.56305 1.19999 -1.48806 2.0141
146 -8.30215 -4.50963 -8.57927 0.568612 1.26751 3.13213
481 9.16888 -3.16785 -7.52626 -1.02783 2.36053 -2.99205
1704 -1.30407 -1.21136 -0.950349 1.77736 -0.937885 0.944267
150 -7.71235 -3.71069 -8.29467 0.130847 1.9161 0.718699
485 -7.81095 -3.14772 -7.48264 -0.86734 -1.21768 1.73303
199 -7.02501 -3.15488 -8.39382 0.0444808 -2.35442 -0.425232
489 -6.31666 -3.4003 -7.51319 0.0200877 1.09808 -2.44347
441 -6.25948 -4.53837 -7.64412 0.947281 -3.61982 1.05968
438 -6.32567 -3.87602 -8.3875 -0.249562 1.12411 -1.69883
155 -5.48944 -4.56479 -8.60931 -0.658086 3.13836 -0.388087
203 -5.45262 -3.28763 -8.63756 0.834225 1.60203 0.278162
54 -7.08415 -6.7818 -9.18358 1.55283 1.07157 -1.22901
160 -4.16075 -3.90028 -7.4284 1.82111 0.64395 -0.664826
112 -5.0067 -4.72814 -7.85075 -0.12567 -0.442173 0.435
446 -3.2647 -4.29529 -7.61475 0.673374 0.486694 1.73289
207 -3.05556 -3.72277 -8.54191 0.691538 -3.18629 -0.0414469
293 -7.8907 -9.12452 -8.02913 -1.91079 -1.18411 -0.491114
164 -3.15296 -4.679 -8.85388 -0.232859 -1.27258 -3.76472
450 -2.3941 -4.49267 -7.90612 0.958416 1.87274 1.72681
211 -2.34896 -3.02595 -7.72049 0.355271 -0.114388 0.401159
453 -1.40626 -4.77045 -8.15521 1.79009 -2.08128 -2.42432
168 -1.5848 -3.7462 -8.35765 -3.10256 -1.58452 -0.986194
215 -0.766777 -2.80844 -8.77113 1.81545 1.79904 2.99427
454 -0.337925 -3.6882 -8.01109 1.50177 1.0676 -1.09638
172 0.479544 -4.06465 -8.69729 -1.79863 -1.59951 -1.63219
457 0.857403 -4.39947 -7.87711 1.71026 -1.4194 -1.09491
460 0.374181 -3.29745 -7.30317 1.84134 2.83423 -0.265453
505 1.27743 -3.54473 -8.15796 0.644284 -1.46593 -1.55934
176 1.93134 -3.35372 -8.95776 0.95694 -0.647537 -0.0511967
794 2.19972 -3.96535 -8.06392 0.474758 1.59312 -1.82303
461 1.40494 -4.7372 -8.65473 1.80584 0.344575 -3.54486
465 2.7305 -4.56737 -7.3326 2.30163 1.00231 0.520684
180 2.82553 -4.16963 -9.01528 -0.873006 1.29657 2.24109
513 3.05554 -3.6614 -7.53635 1.01017 0.648565 -0.135925
184 4.63552 -4.24921 -8.58423 0.133176 -0.390613 0.0958275
466 3.47027 -4.35678 -8.1135 0.766488 0.285875 -0.427616
227 3.30164 -3.39772 -8.59988 -0.233159 1.84598 0.624889
517 4.05955 -3.34998 -8.10532 -0.119984 -1.65621 -2.60931
473 5.71875 -4.42425 -7.62199 -0.866993 0.435234 -0.339473
231 5.89075 -3.75428 -8.43776 -0.706551 0.841897 1.16479
470 5.09031 -3.47861 -7.77542 0.64712 -1.07372 -0.497328
518 5.19281 -3.11563 -8.76019 0.0778898 0.583682 0.905586
192 7.44246 -4.17335 -8.19499 -2.45054 -0.485421 -1.86297
235 6.74693 -3.17137 -8.42956 1.55885 2.74502 -0.389066
474 6.60519 -3.85168 -7.74273 -1.04764 0.944103 0.249165
525 7.45057 -3.38469 -7.70699 1.08889 -0.724805 0.892414
148 -9.16497 -3.97855 -8.30842 1.15179 2.36486 0.348166
239 8.3325 -3.32658 -8.30502 1.89784 -0.321163 2.20881
478 8.48247 -4.00027 -7.57871 -1.15229 -0.842126 -1.45013
195 -8.44353 -3.0902 -8.34894 1.24732 0.659856 -1.58013
243 -8.52665 -1.80383 -8.40715 0.972991 -1.68454 -1.15079
1483 6.95934 -9.22287 -0.501843 1.47641 0.146319 0.704874
1166 -3.62589 -9.12433 -1.68965 1.92935 1.02372 2.91081
4049 -3.2146 -0.226824 -6.49802 0.0262334 -0.0650952 -0.835543
13 -4.91695 -8.9758 -9.0077 1.16566 1.92211 1.44763
200 -7.77207 -2.33438 -8.31966 -0.879647 -1.59152 0.28026
3459 -8.70795 -0.40549 -8.52435 -0.305995 1.17555 0.245863
245 -7.80589 -1.86076 -9.1784 -0.46395 2.01374 0.461606
204 -6.19056 -2.41181 -8.13489 2.94639 -0.461304 -1.38051
252 -5.82344 -1.56768 -8.35204 1.66189 -0.743593 3.59255
251 -5.53022 -2.80319 -7.54568 -2.26105 0.770284 0.341906
208 -3.95817 -2.41605 -8.19732 -0.154576 -0.381264 1.93006
35 3.77695 -8.87778 -8.83908 0.743116 1.21267 -1.81057
253 -4.31832 -1.67888 -9.09839 -1.90506 2.27834 -0.563568
494 -3.99847 -3.31748 -8.56653 -0.899773 -2.54197 2.19845
212 -3.09457 -2.58715 -8.5565 4.30482 -2.86535 -0.308175
498 -2.36396 -2.04824 -8.13543 -2.03402 -1.77349 1.04517
216 -1.64689 -2.71812 -8.388 -1.94127 1.42747 1.71541
210 -1.85645 -1.51498 -8.78297 -1.76713 2.87578 3.17297
502 0.392152 -2.64387 -8.10043 0.87847 -4.09296 2.57259
547 -0.490206 -2.25931 -7.82194 1.23421 -0.872989 0.966712
464 1.69322 -2.04095 -8.22829 -2.38088 1.74388 -3.47416
224 1.64833 -0.884231 -7.9157 -0.038492 -0.434081 2.25714
267 1.02192 -1.09585 -7.15636 -2.16687 1.08947 0.145309
165 -1.29267 -4.59761 -9.05715 -1.00886 1.44237 1.44065
223 2.51343 -2.62371 -8.59147 -0.445536 1.04488 0.0452454
228 3.42883 -2.41676 -8.14916 -0.0896147 -0.678198 0.558735
271 3.0011 -1.23491 -8.82065 -1.96728 0.374617 -0.660581
509 2.56208 -1.82776 -7.70351 1.53974 1.85556 -3.09125
277 3.79812 -1.44014 -8.34152 0.929274 1.2773 -0.279388
232 4.37926 -2.53009 -8.65548 -0.726404 -1.86391 0.64457
563 4.67105 -1.60657 -7.90274 -2.26888 1.54934 1.40821
1443 -8.35004 -8.94058 -0.973756 0.467823 -3.62782 -0.296114
514 4.08486 -2.23925 -7.47927 2.91335 -1.21859 -1.21959
236 6.02732 -2.56566 -8.70501 -1.73599 -0.857479 1.2453
565 5.09205 -2.50917 -7.86892 0.584829 0.441435 -0.5623
279 5.20257 -1.9044 -8.66327 3.91501 -0.623976 -1.22114
569 5.87797 -1.88055 -7.79177 -0.464744 -1.07241 0.738426
240 7.63368 -2.64912 -8.43645 0.293597 1.37007 -1.55999
522 6.67557 -2.36811 -7.37415 0.833567 3.01477 0.969354
4931 2.68602 -0.972972 -1.39833 0.349431 -0.264609 0.214366
283 6.82055 -1.963 -8.50169 -0.85811 -0.251708 -0.802516
196 9.12667 -2.564 -8.5641 -0.0028862 -0.448931 0.416405
287 8.32616 -1.84672 -8.5061 0.467834 0.756773 -0.563533
529 9.02027 -1.70935 -7.76563 3.04017 2.08718 2.09674
526 8.45789 -2.54749 -7.75221 1.264 1.71693 -0.65222
3379 -2.21583 -2.28125 -9.09262 1.76808 -2.51195 -0.504296
248 -8.66147 -1.03446 -7.65021 -0.281054 2.49619 -0.486754
530 8.83234 -0.557684 -7.82305 0.786965 -1.29311 0.635023
247 -6.98697 -1.75905 -8.10197 0.413949 -0.482732 0.89601
3416 -7.68884 -1.04821 -8.15611 0.785811 -1.37378 1.7298
246 -6.43842 -0.884846 -8.12843 3.11187 2.02692 -1.44509
1175 -0.959389 -9.19581 -3.00908 -0.0672516 -0.169405 -0.00996369
209 -2.23598 -3.31336 -8.94573 -2.86376 -2.41768 0.603032
3724 0.328094 -8.68286 -7.37866 0.529069 0.218981 -0.594029
3467 -6.42369 -0.388579 -8.93555 -1.40053 -1.95148 -0.118367
256 -4.79929 -1.27297 -8.02389 0.910299 -0.235763 -0.688458
254 -4.41315 -0.702283 -8.90537 -1.28136 0.990813 0.744896
546 -3.82308 -1.44222 -8.31593 0.461224 -1.28363 1.80128
4362 6.36231 -0.221369 -5.0784 -1.02429 0.332746 -1.41894
259 -2.76972 -0.913548 -7.87964 -1.2131 0.862045 -1.29434
1813 4.29252 -7.66453 -0.0716471 -2.88131 -0.259031 -0.255698
257 -2.94832 -1.5906 -8.80883 -3.5912 -1.03712 -0.142733
4615 -7.8715 -0.0973149 -3.18327 -0.0269971 -1.27755 1.81646
261 -0.937259 -1.88426 -8.48711 -0.573004 -1.43075 0.178261
3477 -2.30813 -0.201001 -8.61378 2.47815 2.12903 0.708173
550 -1.6733 -0.433783 -7.41872 1.56742 -0.339759 0.650441
264 -1.44859 -0.739837 -8.41439 -0.433742 2.62845 0.475503
3765 -1.94506 -1.33855 -7.74013 -1.99965 0.534853 2.28945
3431 0.728212 -1.5907 -7.93443 1.07081 0.394635 -0.858466
263 -0.281647 -1.0159 -8.01445 -1.88386 -1.45881 -0.340188
6651 2.28361 -0.203908 -9.19034 -0.221594 -0.494732 0.883983
268 0.289623 -0.562422 -7.4456 -0.173479 -1.27518 0.353505
867 -8.43089 -8.9946 -3.58992 -1.44759 0.025182 -0.977249
5147 -4.81067 -9.21289 -0.284787 2.27035 0.877705 -0.0619197
265 0.604083 -0.703693 -8.53433 0.258149 0.164037 -0.315635
1712 2.04501 -1.4991 -0.837614 1.11889 0.505309 1.02265
272 3.31394 -1.03167 -7.58517 0.88979 -1.57902 0.887373
270 3.44715 -0.275078 -8.26378 -2.01051 0.272819 2.24156
269 2.46087 -0.55121 -8.3247 1.71726 1.95511 -1.23133
1726 8.78336 -0.889174 -1.60567 -0.698108 1.39841 -0.859218
3443 4.56146 -1.25889 -8.87298 -0.202442 1.00813 -1.33595
1707 0.956243 -0.445066 -1.85729 0.561997 1.06775 1.06022
276 4.35625 -0.529672 -8.33033 2.85432 -1.09708 0.0263982
566 5.28277 -0.866484 -8.41799 0.0764035 3.18414 0.824228
284 6.05318 -1.25465 -8.70717 -0.962023 -0.0267464 -2.51485
572 5.70378 -0.792519 -7.52964 0.848844 0.274204 -0.394834
4941 7.86899 -0.0558551 -1.59116 0.306241 0.15665 -0.152696
4964 -2.02616 -0.601638 -0.39552 3.52664 2.30279 0.517674
570 6.68275 -1.20032 -7.96346 1.79289 -1.01419 0.522395
282 6.70923 -0.472631 -8.61461 -2.53848 -0.53767 -1.57485
21 -0.296051 -8.64599 -8.12826 2.78298 1.62988 -0.483165
288 7.44205 -1.19118 -8.65136 -2.91189 -0.330746 0.503372
244 9.12537 -1.13921 -8.62204 -0.0446541 3.64076 -0.648594
198 -6.9142 -2.27233 -8.98331 1.81383 0.205687 2.03256
153 -6.33233 -4.53118 -9.08915 0.479933 1.10651 -2.23261
289 9.04713 -8.82855 -8.01522 0.920107 0.24762 3.02184
291 -8.48581 -9.18997 -6.96929 -1.71716 -0.889191 -0.30676
292 9.0485 -8.41892 -7.01829 -1.49411 0.519972 -0.411705
296 -7.63876 -8.30925 -7.17793 1.2589 3.96693 -0.834007
577 9.00188 -9.16909 -6.26307 -2.0534 -1.70599 0.336821
3751 -7.04425 -0.019098 -6.83576 0.356809 1.89503 -1.56952
4073 6.26553 -0.0272885 -6.09207 -2.12904 0.750489 -1.7099
629 -7.15576 -8.16154 -6.09164 0.46143 0.774317 1.85178
190 8.28539 -3.8644 -9.17116 -0.678341 -0.479922 -2.97714
300 -6.39434 -8.4573 -7.07747 -0.290033 2.40583 2.20606
4000 -5.44051 -9.09459 -7.32516 5.92442 1.66822 0.410534
586 -5.41566 -8.38648 -6.36311 1.69759 -3.18748 1.11964
299 -4.55287 -8.50427 -6.80091 -1.09748 -3.38813 -0.253615
301 -3.56228 -7.88492 -6.83678 0.451281 -1.43728 0.18609
304 -4.65353 -7.55835 -6.42892 -0.597062 -0.0483989 0.918887
3432 -0.43356 -1.10069 -9.07004 -0.590985 -1.03381 -0.0723972
3998 -3.62063 -9.17701 -7.43034 0.570668 1.70553 -0.725396
308 -3.89188 -8.93206 -6.31703 0.976974 -0.472336 -0.99074
307 -2.87696 -8.77158 -6.6752 -1.63885 -2.23862 2.4635
3720 -0.642702 -9.04922 -7.32284 0.162235 -0.687202 1.56372
311 -1.01841 -8.25066 -7.63347 1.27558 -1.27046 -1.94752
597 -1.36465 -9.0467 -6.42753 0.477413 0.808744 -1.40298
309 -1.87047 -8.69381 -7.16727 0.835402 -0.644225 0.0400406
359 -0.373778 -8.19053 -6.81533 -0.849551 -0.929065 1.02528
1178 -0.17943 -8.57658 -2.7429 2.07284 0.535112 0.574079
4611 -8.17541 -0.510396 -2.31013 0.418658 0.890639 -1.38323
79 2.36354 -7.92045 -9.05276 1.53543 0.0589608 0.58533
315 0.982387 -8.53982 -6.55222 3.20891 1.44904 1.52377
316 0.896172 -8.08983 -7.92964 -1.14819 -0.327025 0.0382808
602 2.30735 -8.51088 -6.08839 -0.999451 1.572 1.80752
653 1.01398 -7.63171 -6.91595 -0.799045 -1.71641 2.68019
606 2.2241 -8.09736 -7.01495 -3.51358 -0.828073 1.55051
318 2.72178 -8.7748 -7.71621 0.92299 -0.303887 0.953408
1598 -4.19369 -2.46718 -0.0523007 1.57403 2.02163 -1.3246
328 4.57467 -8.55908 -7.70184 -0.967342 -2.01929 -0.364352
371 3.69486 -8.12662 -7.4603 -1.78545 -2.80747 -1.47823
376 4.5619 -7.29083 -5.97534 -1.88058 0.863403 -1.98009
661 4.28026 -8.1521 -6.7119 -0.352906 3.25999 -0.730369
332 5.49462 -8.36069 -7.07838 -0.680292 -1.53537 -3.70644
375 5.09632 -7.63374 -6.73988 3.54649 -1.77319 0.610693
614 5.31632 -8.28193 -6.07878 1.4518 -1.8826 -0.157748
905 6.55938 -8.09427 -6.43019 -0.515243 -0.835917 0.279452
327 4.62436 -9.03291 -6.72608 1.43676 -1.06679 3.33679
331 6.30441 -8.95626 -6.93259 -1.48201 -0.429606 0.575844
336 7.52175 -8.06161 -7.23299 -1.76068 -0.317882 0.571256
379 6.5687 -7.99889 -7.49437 -0.937338 -1.07489 -1.11627
619 7.14729 -8.88866 -6.48305 0.780752 -0.722542 -0.276557
335 8.18964 -8.91811 -7.43842 -3.67636 0.0869413 0.879442
622 8.22203 -8.58033 -6.52164 2.311 -1.20621 1.22635
383 8.52877 -7.4788 -6.99956 -1.01661 0.808422 -0.981898
339 -8.70706 -7.57932 -6.85079 -1.45035 1.54485 0.896641
626 -8.58056 -6.92575 -6.18798 -1.67059 -0.574805 0.330627
677 -7.90039 -6.18646 -6.42854 -0.151146 0.362417 1.09557
344 -7.85133 -6.85219 -7.04402 1.97547 -2.18974 -0.559696
343 -7.08171 -7.55257 -7.12246 -1.23942 -1.50965 -0.673178
632 -7.95042 -7.68148 -6.37246 -0.406138 0.564949 -2.05925
633 -6.27459 -7.63201 -6.35878 2.79854 -0.685768 -1.46608
347 -5.49744 -7.88215 -7.21322 2.07864 -0.806347 -1.84195
348 -6.29161 -6.97394 -7.20368 2.36998 -0.248845 -1.63992
637 -5.64554 -6.93622 -6.52513 0.351879 1.93811 -0.244256
395 -5.47859 -6.07702 -7.13412 1.33862 -1.25322 -0.558519
351 -3.21451 -7.19457 -7.51766 -0.451459 -0.582149 -1.62274
634 -5.01759 -7.05078 -7.25374 -0.52724 1.76622 -1.20419
685 -4.54688 -6.13696 -6.53599 2.81297 -1.12155 0.238225
638 -3.95258 -6.92864 -6.86929 -1.13847 -1.30723 -1.35982
356 -4.2028 -6.87366 -7.85244 -0.511319 0.411572 2.01671
641 -2.56882 -7.56932 -6.69799 1.24866 -2.59779 0.757042
355 -2.32966 -6.90425 -7.22122 -2.37993 0.873322 -1.8216
642 -3.03963 -6.61395 -6.74379 1.99407 -0.851578 0.223593
360 -1.35444 -6.77466 -7.78884 -0.673676 0.397791 -1.25807
646 -0.777016 -7.30027 -6.1077 -0.458775 2.18633 -1.29079
648 -1.57633 -6.76211 -6.58366 -0.869935 -0.863226 -0.486202
645 -1.29135 -8.03371 -6.50151 -3.06103 3.48958 -1.37949
357 -0.887549 -7.38336 -7.26982 -0.894168 0.730373 0.452878
310 0.025515 -7.29797 -6.79466 2.61104 1.306 3.61304
362 0.749966 -6.89696 -7.46234 2.05147 0.769023 1.31566
651 1.68 -7.47669 -6.20147 -0.0840491 -0.72798 0.602074
368 1.80452 -7.27723 -7.37837 1.74548 -0.480444 -1.20018
941 1.15774 -6.4111 -6.32122 -1.35979 -0.720565 3.47198
701 2.93659 -7.45125 -7.48803 -0.202343 1.15752 0.0764068
703 4.05954 -6.58923 -7.63184 -1.54073 -1.25282 0.604671
655 2.47468 -7.21381 -6.67705 -0.353062 -0.3704 2.51292
415 2.37719 -6.53481 -7.54222 1.97517 -0.0474299 -2.36811
373 4.88017 -6.78788 -7.14263 1.49031 -0.32303 1.38172
658 4.09795 -7.25044 -6.94927 2.70307 -0.306833 0.730313
380 5.94448 -7.19213 -6.73538 -0.27137 3.14269 0.614439
713 4.87091 -6.2734 -6.24339 -1.38021 0.291671 0.0840131
665 5.76402 -6.25877 -7.26327 -0.132107 0.202982 0.864253
710 5.88536 -6.38761 -6.20635 -0.769976 -0.161193 2.98939
669 7.69298 -7.70101 -6.20602 -1.29103 0.28462 2.41558
384 7.64891 -7.00531 -7.05241 -1.97034 -0.0415448 -0.153238
427 6.7007 -6.25039 -6.76596 1.24245 0.74169 -1.28656
666 6.86354 -7.16517 -6.28191 0.621401 -2.9815 -3.47525
340 9.15963 -6.76586 -7.04553 2.37477 -1.16117 -1.50288
431 8.33465 -6.39304 -6.8653 2.17032 1.04691 0.561536
670 8.24112 -6.93153 -6.01451 2.96653 -0.603751 -0.46254
387 -8.60491 -6.15417 -7.05579 -1.23405 -0.952096 0.149225
674 -8.61903 -5.47118 -6.36581 -0.870399 1.05164 -1.21722
435 -8.51422 -4.66299 -6.97409 -1.45356 -1.61001 -0.806224
392 -7.80394 -5.35744 -7.01537 -0.78934 -0.247285 0.0922852
725 -7.92197 -4.72917 -6.26437 -1.8587 0.488048 -1.0496
391 -7.07611 -6.08959 -7.03381 0.336728 0.454007 -0.839775
439 -6.98675 -4.5905 -6.78678 -1.29355 0.755594 1.02102
678 -7.18025 -5.43424 -6.30703 -0.816235 -1.08914 -1.85278
394 -5.57622 -5.39286 -7.75043 3.25455 -0.255375 -2.12756
396 -6.3406 -5.32655 -7.05729 -0.847542 1.82088 0.276205
682 -5.16484 -5.40231 -6.31397 -2.88698 -0.125293 0.632619
443 -5.58478 -4.72895 -6.91224 -2.69465 -0.188735 -1.69284
729 -6.12927 -5.07657 -6.10641 -2.29348 -0.0992009 -3.11699
399 -3.77615 -6.03592 -7.2437 -1.34448 0.188495 -0.47152
400 -4.65165 -5.32823 -7.12387 -1.08557 0.11275 -0.896165
448 -3.83742 -4.84735 -6.99443 -2.27308 -2.90445 1.65832
733 -4.1871 -5.07773 -6.1457 -1.09826 0.395594 -0.106207
403 -2.7423 -5.64503 -7.3135 -1.03197 0.723895 2.00728
690 -2.21294 -5.53503 -6.44028 -0.915634 -0.786299 2.39284
451 -2.73194 -4.75741 -6.82188 0.38764 2.29001 1.10702
119 -0.932522 -5.63615 -7.55281 -0.492056 -0.420078 3.14884
405 -1.83523 -6.08697 -7.26388 1.07483 -1.27213 0.0236065
693 -1.18572 -5.80932 -6.69234 -1.33641 -1.73708 1.76884
408 -1.80745 -5.00464 -7.23471 -0.864865 -0.919204 0.694598
455 -0.52923 -4.69279 -7.66653 0.817142 -1.73626 0.736746
656 0.133338 -6.69786 -5.89711 0.860702 -1.17609 1.03313
409 0.360942 -6.00752 -7.72248 -0.221836 1.07928 -2.48307
407 -0.681144 -6.5196 -6.94099 -0.786164 -0.266967 -0.810087
412 -0.257164 -5.34935 -6.93189 -0.39193 -3.01448 0.697662
414 2.44 -5.44192 -7.52183 1.02036 1.61262 -1.12566
411 1.55747 -6.08401 -7.18878 -0.648157 -1.27689 0.232309
416 2.19421 -5.95377 -6.42266 -3.99861 -0.189858 0.715588
749 1.44085 -5.43193 -6.37141 2.43214 -1.73571 -3.19046
705 3.2583 -6.53002 -6.90424 -1.52942 -0.710167 -2.14273
463 3.12576 -5.53467 -6.86619 0.358675 -2.25745 -0.43922
372 4.1274 -5.91261 -6.89319 0.928287 0.399279 -1.00476
419 5.15874 -5.61103 -6.99914 2.39437 0.255727 1.24247
706 4.21387 -5.26326 -6.04538 -1.60161 -2.45726 -0.842766
467 4.05895 -4.95009 -7.09318 -0.0541773 -1.48667 0.369226
709 5.1848 -5.36055 -6.05565 1.23703 1.54757 -1.19584
471 6.02487 -5.42935 -6.64608 0.311533 -1.11918 2.24789
477 7.36629 -4.70997 -7.40432 -0.71576 -0.827654 -1.91329
426 6.84912 -5.43628 -7.38198 -3.80231 0.162399 -3.37841
432 7.72235 -5.5579 -6.96266 -1.95503 1.2556 0.513948
714 6.98921 -5.45775 -6.2132 0.33264 0.639147 1.56454
430 8.19952 -5.32715 -7.72539 1.25338 -0.300022 0.160966
388 8.97605 -5.44197 -6.80268 0.197973 -0.42373 -0.101861
479 8.44142 -4.68129 -6.89929 -0.177874 -0.777632 0.93651
434 -8.46997 -3.9612 -7.56482 1.45011 -0.154847 0.796919
483 -8.56324 -3.21432 -6.75705 1.97132 1.50589 -2.81
440 -7.79796 -3.90661 -6.8189 0.116488 0.354886 -0.306383
152 -7.04607 -3.92295 -7.54717 -1.02937 -0.588791 1.75426
726 -7.19962 -4.2278 -5.94928 2.25603 -0.900007 -0.839795
487 -7.08157 -3.19253 -6.81453 1.69821 -1.30407 2.34459
442 -5.44083 -3.86073 -7.77647 -1.42163 1.27164 0.00720727
444 -6.35912 -4.0183 -6.66503 -0.225775 -0.0492376 -1.54998
491 -4.91786 -3.2223 -6.97866 -0.531894 -0.120363 -0.529382
730 -5.46052 -3.82096 -6.41018 1.45436 0.79211 -3.99773
493 -4.69976 -3.15665 -7.91727 0.108236 -0.844125 2.05979
445 -4.57912 -4.14371 -6.37002 1.79247 -1.289 0.349353
495 -3.65234 -3.69002 -6.52304 1.20609 0.15267 5.44587
734 -3.34374 -4.54723 -5.85037 0.223554 0.0241624 -1.89718
452 -2.77851 -3.79875 -7.03572 1.23746 -2.42285 2.19023
501 -1.52857 -3.98694 -7.47203 0.419677 -0.411351 2.51009
738 -1.69119 -4.17043 -6.46907 0.797325 0.205719 2.30464
456 -0.97988 -4.55883 -6.92475 -2.87246 1.69904 -0.927817
745 0.343432 -4.4276 -6.99929 1.74803 -3.40447 -0.0928709
742 -0.369725 -3.78503 -6.62064 0.46678 -2.63762 0.465727
791 1.48468 -4.2382 -6.39861 0.727494 -0.1688 1.42739
459 0.798072 -5.27804 -7.11298 -1.34644 -2.8066 0.544574
746 1.40084 -3.11922 -7.14328 -0.699492 1.02951 1.98748
508 0.740945 -3.70805 -6.58061 0.137009 1.05317 2.71047
462 1.76829 -4.41655 -7.30285 1.08942 -0.799252 0.601482
468 3.51164 -4.1582 -6.68084 1.01045 -0.718109 0.267748
511 2.17707 -3.45286 -6.8215 -2.04824 -0.300449 -0.74273
750 2.20811 -4.95653 -6.57676 1.42973 1.88508 2.30416
472 4.16633 -4.03404 -7.46374 -2.32186 0.646902 -0.22724
515 4.04658 -3.10056 -7.13527 -2.64137 -0.208995 -1.94316
521 5.95181 -2.9166 -7.62981 1.97482 -2.85611 -1.45426
757 4.98981 -4.64164 -6.74962 1.47196 0.795219 -2.70493
476 5.61142 -3.61109 -6.87376 -2.56548 1.17751 0.505363
475 6.49706 -4.27514 -6.79812 0.544695 1.13184 1.1354
480 7.67039 -3.81798 -6.85333 -0.601749 2.0287 -1.61388
523 6.63949 -3.20954 -6.83292 -3.00018 1.57506 -0.444087
813 7.66243 -3.14149 -6.1234 -0.476258 -0.643446 -0.205167
436 9.1803 -3.91326 -6.92688 -2.67352 -0.618861 -2.67133
527 8.41585 -3.12868 -6.86393 -0.608131 2.30246 -0.557996
482 -8.6083 -2.54523 -7.53072 -1.17155 -0.0710755 0.714455
531 -8.60169 -1.67392 -6.76751 1.03025 -2.5611 2.72412
770 -8.66693 -2.53744 -6.05025 -1.83495 -0.0349805 -2.65997
817 9.09136 -1.63712 -6.13055 0.928956 -1.13365 0.652704
533 -7.96703 -1.72705 -7.55807 0.205242 0.0902956 -0.660797
488 -7.92689 -2.41669 -6.83429 0.0633647 1.52348 0.175744
486 -7.17398 -2.4967 -7.54525 -1.51774 -0.175637 -2.56677
535 -7.16442 -1.69836 -6.98157 0.291924 0.822615 -0.474929
537 -6.18717 -1.80707 -7.33349 -0.205958 1.824 -2.53358
492 -6.25466 -2.64467 -6.87742 -1.9562 -1.6667 0.129982
778 -5.53509 -2.5285 -6.32255 1.58055 1.47587 -2.35173
781 -4.81382 -3.31749 -5.98305 -0.495769 -1.67121 1.11402
496 -4.55513 -2.06244 -6.63072 -1.63162 -0.257864 1.8447
543 -4.0104 -2.7299 -7.19172 0.864759 1.61743 -0.766561
497 -3.3769 -3.1665 -7.69116 -0.778683 0.724413 -2.2446
545 -3.12212 -2.09014 -7.63312 -3.48606 -1.0358 2.058
500 -3.01999 -2.7724 -6.79871 2.753 0.603517 1.63825
834 -2.46461 -1.65044 -6.97023 -0.426859 -0.182404 1.34339
833 -3.42364 -1.76813 -6.651 0.875104 -1.11492 1.43991
499 -2.03205 -3.29753 -6.73045 0.321605 -2.36229 2.40093
786 -1.80328 -2.44957 -6.34174 1.9812 -1.41968 -0.926227
552 -1.76733 -2.27068 -7.31266 1.33528 1.16432 3.09687
789 -1.00821 -2.33834 -5.91844 0.0501363 -0.20414 0.510745
220 0.627338 -2.31006 -7.08362 4.18658 1.39762 -1.4533
504 -1.18641 -3.14342 -7.47759 -0.142582 -0.121457 2.16237
837 -0.736446 -1.18209 -6.21915 1.00297 -1.92906 0.535297
503 -0.694394 -2.27518 -6.88037 -2.46551 -0.524677 0.0945841
506 0.848938 -1.71001 -6.25481 0.446721 0.234535 -0.238909
559 2.15783 -3.08091 -7.80544 0.499392 -0.341162 0.962428
557 1.71473 -2.1369 -7.22587 -2.0987 0.434015 -2.17528
510 2.94429 -2.72253 -7.35973 -0.570451 0.50236 0.463648
512 2.40711 -2.42843 -6.61983 -2.07624 1.78613 1.80026
516 3.62734 -2.59627 -6.45465 -0.276274 -1.25127 -1.24163
561 3.32318 -1.8527 -7.07361 0.82187 -1.01891 0.116444
564 3.04077 -1.73775 -6.07642 0.54507 -0.475038 -0.101584
805 4.28806 -3.03731 -5.81537 -0.389753 0.181231 0.982446
520 4.21245 -1.90262 -6.44189 0.783363 0.458004 1.3294
853 3.80367 -2.22642 -5.55867 0.894703 -2.78136 0.633503
809 6.0573 -2.85726 -6.1069 2.88661 -0.228521 1.34872