ITEM: TIMESTEP
112000
ITEM: NUMBER OF ATOMS
6912
ITEM: BOX BOUNDS pp pp pp
-9.2265715179435492e+00 9.2265715179435492e+00
-9.2265715179435492e+00 9.2265715179435492e+00
-9.2265715179435492e+00 9.2265715179435492e+00
ITEM: ATOMS id x y z vx vy vz
4 9.20139 -8.45423 -8.64132 -0.358222 0.525277 1.98051
51 -8.40868 -7.74539 -8.66993 -0.256402 -0.497958 1.62428
290 -8.58996 -8.49126 -7.81986 0.945193 -0.450526 -3.43587
867 -8.23073 -9.20275 -3.80958 0.860525 -2.93875 -0.8524
23 -0.876631 -9.11997 -8.46901 0.952582 1.00215 0.0923811
341 -7.66741 -7.57835 -7.65902 2.47602 -0.0750282 -1.56156
8 -7.77459 -8.51963 -8.46125 -0.544913 -2.35519 0.412026
1741 -4.53882 -9.11533 -0.104472 1.62413 -0.299918 -0.464379
877 -4.60599 -9.09198 -4.63783 -1.7148 0.367402 -0.510785
12 -6.20056 -8.49692 -8.38288 4.53109 -1.16331 1.15188
298 -5.39693 -8.39029 -7.66887 -2.2174 -0.938146 1.30338
177 3.14019 -4.4998 -9.19198 3.21847 -1.15457 0.449347
16 -4.68825 -8.3366 -8.50608 0.73043 -4.03011 -0.840127
125 1.56181 -6.18767 -9.0957 3.28745 -2.20303 2.06005
1873 9.20494 -4.6492 -0.120124 -0.677985 0.314078 -1.68406
20 -2.95828 -8.43862 -8.48438 0.225203 0.602954 -0.919654
67 -2.2701 -7.57827 -8.51013 -0.0403274 1.75572 -2.26854
306 -2.2121 -8.64997 -7.68128 -1.5848 1.23272 -4.25224
353 -3.1442 -7.62061 -7.71699 -0.435022 -0.527351 -1.98459
24 -1.58693 -8.34465 -8.37014 -1.26226 0.351151 -0.839963
71 -0.829438 -7.57787 -8.45585 0.299734 0.989933 -1.61213
281 6.12299 -1.52689 -9.11132 -3.94292 -1.71122 0.667537
286 8.48588 -0.900162 -9.21943 0.126149 -0.0487122 -0.578385
28 -0.013911 -8.45505 -8.57108 -1.10794 -1.6416 2.19714
75 0.822084 -7.66066 -8.54166 -4.10783 0.441411 0.269086
1163 -5.20768 -9.10412 -2.16103 -1.6839 -1.25184 -1.41214
3773 1.54005 -0.0213914 -7.89495 -2.07327 0.329995 -0.192863
32 1.49495 -8.47563 -8.42601 0.275923 0.048569 0.740546
36 3.16829 -8.5186 -8.52282 -0.572153 -1.50495 1.54555
79 2.38421 -7.6808 -8.37597 -1.90832 -0.0155267 -1.66283
318 2.31434 -8.45141 -7.68072 -1.34386 -1.73569 1.35662
369 2.9661 -7.76997 -7.57221 -0.121926 2.38583 -1.57477
40 4.5673 -8.56567 -8.4255 4.30695 -1.22782 -0.987241
322 3.86073 -8.44324 -7.59942 -3.78306 -0.127202 -0.0767456
34 3.94085 -8.54038 -9.2387 -0.998012 -1.75188 -1.47993
44 6.06853 -8.5784 -8.45608 -3.09245 -1.40231 -1.06886
326 5.31478 -8.55606 -7.58603 1.89672 -0.829483 -1.75508
377 6.14818 -7.83497 -7.66954 -2.69986 -4.13344 -0.187658
1157 -7.54243 -9.10073 -2.91458 -1.15845 -2.89173 -0.263403
142 8.40246 -5.42655 -9.21977 0.974178 0.274619 -1.61101
48 7.70624 -8.48966 -8.4136 1.06917 2.39447 0.820334
330 6.88586 -8.49934 -7.6258 -0.595921 -0.882767 0.0469637
91 6.84571 -7.86087 -8.42823 0.904532 1.33509 -1.0686
1970 -8.41595 -0.82477 -0.256386 1.94743 -1.26122 -2.78308
334 8.38444 -8.66582 -7.43303 0.217332 3.77277 -0.445346
134 5.43041 -5.38011 -9.2294 -1.78891 -0.661057 -1.51146
389 -7.70035 -5.99586 -7.57023 4.04559 -0.708276 -0.93436
55 -6.9996 -7.87012 -8.37093 -2.5111 0.17364 -1.34172
56 -7.75075 -6.97417 -8.46619 1.10829 0.54538 1.45427
342 -6.7043 -6.74707 -7.65899 -1.48751 -0.844329 -1.11813
4331 -5.35538 -0.0695792 -3.76953 -2.00495 1.84156 0.787264
59 -5.4784 -7.68384 -8.41596 0.469209 -0.911825 -0.388371
60 -6.25663 -6.92354 -8.4454 2.96461 -0.920984 -1.17372
202 -5.39365 -2.20425 -9.09655 0.00895077 -1.31453 -0.0125132
107 -5.47511 -6.26739 -8.59854 2.54666 -1.09293 -2.46029
345 -6.22286 -7.67991 -7.65623 1.42754 0.0185552 -0.526563
393 -6.04981 -6.07587 -7.79146 1.66987 -0.546458 -2.71901
346 -5.41582 -6.91246 -7.77876 0.374464 -2.73135 1.00208
1981 -4.68582 -1.53614 -0.0939714 -0.52038 -1.52859 2.17886
63 -3.95789 -7.64657 -8.40816 -1.94694 2.10773 1.46541
64 -4.72563 -6.88314 -8.55322 -2.67095 2.68557 1.13065
111 -3.90456 -6.0901 -8.40022 -1.65379 2.55357 -1.75235
97 -9.09717 -6.01285 -9.09579 3.13359 -2.08023 1.61172
68 -2.98421 -6.90181 -8.48039 1.02065 1.22968 -2.48464
115 -2.31279 -6.2455 -8.55874 1.13951 -0.262516 -2.1126
401 -3.12942 -6.23538 -7.77961 1.85632 0.0613336 0.959343
354 -2.30973 -6.89964 -7.75273 -0.390715 -0.329265 -0.440631
3781 4.48364 -0.064751 -7.75796 -0.246646 -0.0588132 0.970977
72 -1.41159 -6.87579 -8.59915 -0.410065 1.99757 -0.814385
119 -0.708077 -6.0786 -8.59879 0.843904 1.56847 0.68516
358 -0.857716 -6.83586 -7.74171 0.912667 0.0460497 2.23651
405 -1.68445 -6.17628 -7.77333 -1.30958 -1.15985 1.72042
76 -0.122805 -6.93618 -8.38189 2.71177 -2.20182 -0.578526
362 0.784096 -6.89098 -7.67243 0.97249 -1.60422 -1.09484
80 1.50177 -7.00082 -8.39349 -1.2528 -0.771454 0.367298
365 1.57752 -7.72417 -7.75692 -1.05459 -0.27261 -0.0956868
123 0.739803 -6.23458 -8.52782 0.409504 0.991471 -1.20881
413 1.55928 -6.10828 -7.67081 1.5698 -1.22637 -1.0515
1181 1.64281 -9.23294 -3.06272 -0.396557 -0.209568 0.051779
78 2.25651 -6.9084 -9.00075 -0.437948 1.56534 0.501779
84 3.07297 -6.99793 -8.34984 -0.96105 0.652456 0.329519
366 2.37256 -6.84226 -7.52834 0.338397 0.507377 -2.42053
127 2.26977 -6.16281 -8.2913 -2.05532 -0.552556 -1.48886
417 2.99794 -6.06139 -7.47944 -0.480015 -0.396415 0.244644
1469 1.49143 -9.06614 -1.27177 2.15563 -0.339558 0.983955
83 3.91566 -7.81091 -8.46273 3.91658 -1.86111 -0.745373
88 4.70852 -6.96561 -8.35131 1.20024 -4.38548 0.774014
131 3.96266 -6.2692 -8.32087 0.765222 -2.37508 -0.509343
373 4.6987 -7.74777 -7.64989 -0.337548 -2.74204 -0.971701
370 3.9956 -7.07309 -7.74469 0.224798 -0.312729 0.85073
87 5.34292 -7.67074 -8.53048 -0.735213 0.737086 1.05829
92 5.99559 -6.94239 -8.3447 1.2192 -1.81651 -0.641713
873 -6.23831 -9.00448 -4.62295 0.128792 0.639014 1.60088
96 7.67124 -7.06476 -8.33855 2.60147 0.279236 0.0206598
285 7.80401 -1.59744 -9.07852 -1.48536 -3.19586 -0.439994
1441 -9.13343 -9.19801 -1.65213 0.795043 1.59939 0.568984
95 8.47704 -7.79006 -8.70117 4.36757 -0.0762419 -1.51634
52 9.13025 -6.77707 -8.47394 -0.569373 -1.88942 -0.750488
99 -8.27622 -6.05635 -8.40958 -0.160178 -1.50093 -0.318475
100 9.00275 -5.35657 -8.44648 -0.550504 -0.04412 -0.710904
30 2.422 -8.58814 -9.18469 0.34638 -3.88885 -0.0291752
385 9.12516 -6.15239 -7.73128 1.12959 0.855197 0.980961
386 -8.56293 -5.42755 -7.64813 0.265974 1.94241 0.22215
103 -7.07917 -6.21206 -8.39769 0.419633 -0.458436 0.164541
104 -7.67748 -5.1666 -8.30558 1.58538 1.34797 -0.465635
390 -6.82416 -5.42272 -7.58566 1.12313 0.337004 -1.58628
138 6.96677 -5.37213 -9.09317 -0.0972699 -0.087192 1.54539
108 -6.30893 -5.5733 -8.61515 3.62997 -1.61203 1.48625
155 -5.38218 -4.65784 -8.51922 -1.04141 -0.954866 2.05303
394 -5.47433 -5.33058 -7.79343 0.324388 -3.14316 0.794781
441 -6.01588 -4.45355 -7.52701 -0.861074 -1.42665 -1.44365
1199 8.38306 -9.19407 -2.52341 -1.3577 -2.49561 -0.66303
112 -4.57228 -5.28807 -8.5126 2.57251 0.218668 -1.52248
159 -3.8968 -4.54994 -8.41295 -2.2885 1.71006 -0.577242
397 -4.7185 -6.06317 -7.79314 -0.345296 2.05604 0.0647544
116 -3.07694 -5.34828 -8.52557 0.862775 -0.107534 3.74526
163 -2.29404 -4.60781 -8.65695 2.6931 -0.699931 -0.623431
181 4.32335 -4.52663 -9.12234 -1.11497 0.963539 2.36298
1830 -6.87587 -5.21508 -0.126619 1.26628 0.316124 0.073687
321 3.07462 -9.07052 -7.58148 1.40542 1.73865 -0.395733
120 -1.61686 -5.60941 -8.51052 -0.0193245 -2.15488 1.80672
167 -0.532166 -4.53424 -8.50761 -0.913136 -1.52466 -0.286511
3771 0.768563 -0.0330341 -7.04327 1.8179 0.452461 -2.28946
124 0.0226741 -5.44265 -8.54894 1.97356 -0.557965 -1.2348
617 6.13357 -9.2207 -6.10148 -1.57031 -0.261727 -2.70264
4075 6.80073 0.0283574 -5.41172 2.86787 3.46035 1.07655
82 3.89384 -7.03337 -9.08232 0.857888 2.14278 -1.64878
410 0.810489 -5.42608 -7.92211 -1.79629 3.11064 -1.04699
128 1.54759 -5.18431 -8.58495 1.97804 0.150817 0.118051
171 0.766252 -4.63237 -8.56337 -0.703524 2.01204 -0.0303957
461 1.56806 -4.59469 -7.74846 1.74887 0.78739 1.02068
414 2.41214 -5.34403 -7.64042 -0.0824734 -0.935974 -0.264273
132 3.08644 -5.48319 -8.29965 -2.63161 1.21237 1.71264
465 3.15108 -4.70946 -7.6294 0.644235 -2.62529 0.515443
175 2.46618 -4.66016 -8.45844 -0.549577 1.3917 -1.07191
133 4.59772 -6.21149 -9.17721 -2.30649 1.36339 -0.285869
895 2.38815 -9.22282 -3.82901 2.68888 -0.0562273 -0.246225
136 4.674 -5.39964 -8.53506 -0.803996 -0.468282 0.0370163
418 3.95642 -5.54768 -7.58246 -1.47948 -1.24052 -1.92566
469 4.63347 -4.5181 -7.65301 -0.659115 0.721507 1.42845
179 3.82808 -4.80911 -8.29405 -0.0856504 0.711032 -1.22244
135 5.32957 -6.25771 -8.33445 0.272546 -2.1086 2.06843
140 6.22648 -5.46439 -8.49511 -0.788108 0.530523 -3.79269
422 5.30758 -5.27673 -7.73499 0.855277 -0.367469 2.0039
183 5.24554 -4.54567 -8.4879 -0.354212 -0.00221091 -1.59643
425 6.04822 -6.21649 -7.58866 0.899792 -0.598971 -1.13035
139 6.83524 -6.17249 -8.30163 0.325117 -0.0552224 -0.719458
144 7.67143 -5.40379 -8.43206 0.267798 -0.423376 0.614143
477 7.47431 -4.60557 -7.63057 -1.55352 -0.462007 -0.300598
143 8.33478 -6.21626 -8.47238 -0.823011 -0.0388803 2.4141
430 8.39993 -5.38682 -7.64901 -0.394683 1.47106 -0.381489
191 8.29222 -4.66089 -8.34683 0.638143 1.53186 0.959652
146 -8.49376 -4.63244 -8.39262 0.753975 -0.285399 -0.406063
148 8.97833 -3.85224 -8.36639 0.592833 1.68622 -0.304077
15 -3.72788 -9.09744 -8.60036 0.621126 -1.37539 0.88629
151 -6.63332 -4.70069 -8.41587 -1.52443 3.61181 0.91447
152 -7.68756 -3.94388 -8.30158 0.298613 -0.290935 0.756907
3753 -6.03457 -0.0234758 -7.75128 -2.78326 1.19015 -0.29925
156 -6.15688 -3.82783 -8.42901 -1.02498 -1.5263 -0.202614
203 -5.37519 -3.05565 -8.42695 -1.71251 0.674944 1.11643
158 -3.93583 -3.80799 -9.14923 -1.46021 -2.28802 1.39061
4639 2.39412 -0.101732 -2.50934 -1.01712 2.73623 0.742813
160 -4.69328 -3.792 -8.54922 -0.441585 -2.65179 -2.98641
446 -3.84977 -3.77979 -7.76752 -1.08255 -1.63581 -3.23798
1477 4.67696 -9.13887 -1.52113 -0.1228 -0.690995 -0.835543
90 6.95791 -6.8222 -9.12721 0.608212 0.237563 -1.58645
164 -2.96372 -3.7386 -8.55984 1.09696 3.96499 -0.639742
450 -2.22857 -3.9677 -7.70477 1.63189 -1.41894 -0.91646
168 -1.53601 -3.95433 -8.49288 -0.302391 1.36062 -2.10506
250 -5.41034 -0.895511 -9.23209 1.28147 -0.562789 -1.55754
201 -6.21931 -3.11975 -9.15093 0.916526 -1.66795 -0.200195
172 0.128053 -3.82438 -8.52279 0.558124 0.173498 -0.711064
505 0.0335823 -3.01239 -7.72101 2.50305 -2.5406 -0.0651024
176 1.6143 -3.81904 -8.47758 2.11809 0.532751 -1.86
219 0.741335 -3.02419 -8.54313 0.992035 -2.46778 -1.52882
1877 -7.8019 -4.66346 -0.0227367 0.397596 -2.30537 -0.927012
303 -3.90309 -9.09869 -7.00247 0.517094 -1.68342 -0.645594
4635 0.82196 -0.19147 -2.20066 -1.58111 -1.88531 -0.515695
180 3.19898 -3.78868 -8.47565 -1.87447 -0.169621 -2.52489
223 2.50733 -2.97224 -8.55464 -1.05886 0.103094 1.9896
4633 -0.0404305 -0.12611 -3.05507 1.77772 -0.961969 -2.21281
184 4.63745 -3.67788 -8.56132 -2.46257 -0.794114 0.186184
466 3.87321 -3.69892 -7.67354 2.95185 1.55344 0.937374
227 3.83022 -2.93035 -8.43248 0.118238 0.603948 -1.82883
38 5.42148 -8.47668 -9.13448 1.23831 -2.11884 -2.36525
517 4.55897 -3.02931 -7.63597 0.726134 1.44333 -1.4927
278 5.36735 -0.7485 -9.09736 0.00494166 0.59745 -0.0562111
188 6.02466 -3.86016 -8.42296 0.50488 0.626592 -2.35662
470 5.44435 -3.85856 -7.62931 -2.69571 0.797706 -0.601425
187 6.81007 -4.65334 -8.38535 -0.545962 1.4136 1.57649
192 7.69445 -3.90903 -8.38583 -1.72106 0.290071 -1.34686
474 6.7788 -3.79714 -7.79847 -1.73048 0.569435 -0.359786
525 7.74771 -3.15075 -7.52804 0.37535 -0.259646 -0.357299
1777 -8.95951 -7.67208 -0.103649 -0.462743 -1.15873 1.26429
239 8.52086 -2.96581 -8.34466 0.561535 0.544259 0.296061
137 6.10496 -6.16613 -9.24521 0.11178 0.0545483 -2.23378
195 -8.56705 -3.19566 -8.51536 0.68992 0.186317 -0.853679
196 9.20359 -2.3838 -8.34009 1.00662 0.318861 1.61197
481 -9.20531 -3.16104 -7.66681 0.346076 -1.66799 -0.395114
1865 6.2287 -6.30854 -0.0843468 -0.214743 -0.0119324 3.72666
4327 -6.76229 -0.0927515 -3.68861 -0.119613 1.0359 3.0806
13 -4.6827 -9.09872 -9.03251 -0.781276 0.643481 0.774261
199 -7.1232 -3.04793 -8.44127 0.65735 0.996303 2.5539
200 -7.85398 -2.24858 -8.55542 0.176521 -1.45892 0.968237
486 -6.92782 -2.33581 -7.78042 -0.991453 -1.71218 -0.144731
204 -6.13209 -2.32816 -8.4299 2.7825 -0.160984 0.785759
490 -5.42293 -2.36415 -7.71995 1.11905 -0.329642 -0.568125
207 -3.86681 -2.95976 -8.55141 0.482317 -0.170555 -3.15344
208 -4.63294 -2.39572 -8.65724 0.567487 1.79147 0.891298
4079 8.45834 -0.0580831 -5.40528 3.37523 1.53513 -0.501414
255 -3.94154 -1.57196 -8.55867 0.90177 -0.743025 -0.204608
493 -4.61052 -2.90679 -7.7617 3.76928 -0.296612 0.953834
494 -3.84676 -2.31719 -7.72148 -0.265397 3.30598 0.955549
541 -4.4999 -1.5199 -7.74348 0.410925 -2.91131 1.23568
211 -2.06102 -3.16002 -8.59148 -1.31839 -0.306031 1.26747
212 -3.0399 -2.39236 -8.61285 -1.67941 -3.00774 -2.62603
259 -2.30991 -1.65163 -8.46613 0.744995 0.948304 -1.44831
497 -3.08371 -2.91411 -7.79415 0.849093 -1.12045 1.52044
498 -2.38345 -2.34183 -7.72864 -0.829106 -0.920103 2.02093
5229 7.58389 -0.230694 -0.184716 -2.3412 -0.593605 -1.22383
216 -1.41043 -2.3449 -8.62081 0.17948 3.12339 -0.297168
502 -0.794547 -2.28042 -7.69596 0.833069 0.18155 0.265451
549 -1.60111 -1.65541 -7.76534 -1.11622 -4.35122 -0.0155002
215 -0.887344 -3.14478 -8.48416 -3.18131 -1.45461 3.23704
220 -0.204628 -2.2502 -8.57245 0.308628 0.278206 -0.334226
224 1.573 -2.3361 -8.4292 -0.242217 -0.416105 -2.22641
506 0.830797 -2.15068 -7.81361 -0.276138 4.1554 -1.1915
147 -9.15975 -4.76026 -9.09997 -1.26533 0.125715 0.136025
4909 -4.55643 -0.0604927 -1.61481 -1.70399 -2.47943 -0.104556
228 3.16403 -2.15577 -8.47142 -2.33986 1.00145 -0.34173
271 2.36655 -1.56521 -8.4768 0.884477 0.239121 -1.12529
4071 5.1796 -0.098149 -5.55752 -0.223413 -0.963707 2.3274
510 2.34216 -2.29869 -7.6893 -2.31615 -2.95942 1.26063
232 4.65854 -2.36625 -8.3868 0.0178992 0.563901 2.08307
275 3.82759 -1.48924 -8.55217 -1.37835 -0.487422 -1.77558
221 1.59734 -3.07669 -9.13946 -2.241 -0.197353 0.577586
565 4.49916 -1.6007 -7.69922 -0.579519 2.54812 -0.377721
4923 0.842238 -0.11415 -0.869083 3.75394 3.03879 -0.458964
231 5.4103 -2.97777 -8.52521 -0.875583 0.846733 -0.318402
521 6.04855 -3.07967 -7.79375 2.03316 2.40741 -3.84591
236 6.10297 -2.24277 -8.58964 -0.0897232 0.625275 -1.5812
518 5.31107 -2.28981 -7.75574 -0.561835 -3.54694 -0.400149
569 6.24573 -1.30777 -7.6793 1.69007 0.257223 1.08421
279 5.37427 -1.5657 -8.2638 -0.131205 1.9651 -0.520514
4351 2.28585 -0.0754999 -3.91671 3.33421 0.485848 1.08172
235 6.80661 -3.05956 -8.551 0.133699 0.626987 0.105685
240 7.66249 -2.42358 -8.42852 4.48948 -0.284212 0.778292
283 6.96387 -1.55271 -8.40891 -1.11106 5.62775 0.37921
529 -9.10015 -1.50695 -7.75213 -0.375521 -0.750956 -2.35245
287 8.48063 -1.75255 -8.21354 0.884515 2.27428 1.33431
526 8.48114 -2.36933 -7.46591 0.241818 2.73199 -1.09547
241 9.21763 -1.66469 -9.18553 1.30084 -1.38338 0.216181
1942 -0.626484 -2.12939 0.00346083 0.664107 0.276526 0.66638
243 -8.53571 -1.37545 -8.54175 -0.0381263 0.711677 -0.0356612
1487 8.47962 -9.18963 -0.704444 2.90818 -1.64855 2.21943
244 8.92869 -0.874359 -8.34455 1.93353 1.48389 -0.685298
5217 3.0881 -0.163736 -0.0360983 0.904673 -2.022 0.200975
4069 4.53952 -0.0924691 -6.32699 1.19556 -0.198873 1.88068
247 -7.09539 -1.64462 -8.3936 1.24852 -0.42302 0.609535
248 -7.88634 -0.626559 -8.74935 0.178968 0.877398 1.41449
150 -6.78813 -3.94877 -9.15265 -4.10483 -2.40821 0.429221
251 -5.29118 -1.49976 -8.38469 -1.09666 -0.646659 0.102396
252 -5.98712 -0.790354 -8.28999 -1.95919 -1.0882 -2.23131
1822 8.46596 -7.04333 -0.0505422 2.81951 -0.527947 0.594534
89 6.23354 -7.76534 -9.16243 0.906077 1.79628 -0.0512694
256 -4.60562 -0.80653 -8.4663 0.900968 -1.47671 -2.23802
542 -3.64381 -0.680281 -7.87856 -0.612186 -1.52597 1.88509
1782 -6.70142 -6.85412 -0.259518 -1.49896 -0.698321 -1.00782
260 -3.137 -0.858638 -8.66558 -0.969863 1.96303 -1.13706
601 0.0467158 -9.00792 -6.2376 -0.273707 -0.239336 1.32326
264 -1.53426 -0.67572 -8.48339 0.968281 0.00305639 0.240517
62 -3.85433 -6.88474 -9.15563 -0.700825 0.340988 -0.563247
550 -0.724068 -0.672374 -7.67545 0.86815 1.53473 0.297044
553 -0.0699071 -1.53717 -7.8247 -2.20584 2.56224 1.26428
263 -0.882635 -1.51932 -8.44694 4.81145 -1.80113 0.33455
268 -0.0817078 -0.725741 -8.44188 -1.16971 0.222587 -0.886593
237 7.8614 -3.19268 -9.13769 0.636594 0.233614 -0.338979
267 0.738217 -1.43171 -8.47649 -1.05221 0.108329 -0.474133
272 1.62981 -0.871108 -8.48149 0.365951 -2.76566 1.94741
597 -1.48162 -9.15564 -6.24982 -0.173317 -1.79541 1.22265
557 1.73114 -1.51042 -7.71626 2.14671 2.4374 1.81255
249 -6.1888 -1.44763 -9.15476 -1.29977 -0.516755 -1.20638
93 7.57716 -7.68233 -9.11689 -0.0468034 -1.94595 1.23029
276 2.94464 -0.78112 -8.47819 0.245742 0.538802 -0.236952
1754 0.458758 -8.6132 -0.158497 -1.52334 0.760725 -0.435854
1974 -6.90072 -0.814406 -0.158537 2.5506 -0.601873 -1.57775
280 4.54929 -0.790729 -8.42744 -2.23245 0.372503 -1.2733
284 6.34668 -0.764205 -8.48747 -1.65068 -1.12171 -0.104387
566 5.43628 -0.738546 -7.8034 1.44608 -0.73982 -1.11784
5209 0.27042 -0.151002 0.0100293 1.01431 -0.12082 1.07136
1726 8.47831 -0.777131 -1.56838 0.135555 -1.35185 3.11475
4033 9.04293 -0.0455871 -6.3251 -0.355384 -0.297019 -0.898038
288 7.86045 -0.853067 -8.41679 -1.43315 1.72907 -3.00876
570 7.02707 -0.71031 -7.64521 -0.81288 0.390838 -0.24832
574 8.32146 -0.732648 -7.52485 -1.5652 -1.51964 -1.47259
4939 6.78702 0.0077896 -0.619439 0.122221 3.35804 -1.84808
311 -0.701103 -9.11965 -6.90221 -0.896278 -3.19963 0.560891
1727 8.3848 -1.64555 -0.773815 2.4294 -1.07842 -0.646432
339 -8.39684 -7.65112 -7.02957 -1.39693 -1.29067 -1.19713
1738 -5.27669 -8.57229 -0.07991 -3.99125 -0.218195 3.47483
294 -6.98144 -8.4982 -7.61333 1.65656 -0.965411 -0.945853
296 -7.73845 -8.41865 -6.89023 -0.927727 0.531478 -1.58936
343 -6.96995 -7.69689 -6.79118 0.179753 -2.34203 -0.417004
629 -7.80442 -7.74767 -6.07819 -0.333969 0.0754959 -0.143556
246 -6.88391 -0.869244 -9.03097 -0.444097 0.737617 -1.00628
603 0.787046 -9.18374 -5.42798 2.72605 -0.270743 0.0233227
300 -6.3892 -8.36221 -6.79445 -2.32436 -1.87133 -0.968904
347 -5.33544 -7.65608 -6.995 -0.215138 0.0778601 1.67253
633 -6.04483 -7.60738 -6.22519 0.882223 -0.155733 1.62956
302 -3.92444 -8.47606 -7.86814 -2.82653 -1.19116 1.26747
304 -4.71912 -8.37288 -6.99769 -2.20768 -0.61245 2.8103
4903 -6.82545 -0.059279 -0.983676 -0.256043 -0.709738 0.244438
590 -3.93485 -8.68779 -6.15652 -1.87619 -0.13852 0.724132
308 -3.14365 -8.36437 -6.88864 0.638565 -0.49589 2.06295
355 -2.26573 -7.62495 -6.82746 2.44916 -0.138896 -1.46071
594 -2.32542 -8.28192 -6.16888 -0.876395 2.57738 0.882952
54 -7.10421 -7.11304 -9.1603 -2.65502 4.79387 -0.846887
357 -1.68406 -7.56706 -7.6544 0.170542 -1.81824 1.83519
312 -1.52354 -8.3987 -6.90491 -1.53115 0.928685 -2.12868
310 -0.771017 -8.27468 -7.74283 -0.934451 0.746959 0.898051
598 -0.634712 -8.24351 -6.44676 -2.04868 0.230394 -0.838435
359 -0.861694 -7.47205 -7.03142 0.507794 -1.64192 -3.23262
645 -1.43054 -7.59471 -6.23406 1.1568 -0.969411 -1.3244
361 0.0448406 -7.61682 -7.77919 4.2818 0.755252 3.18047
314 0.757103 -8.41507 -7.82457 0.305282 -0.0965661 -0.756755
316 0.212611 -8.48328 -7.06829 -0.0297431 -2.43241 -0.0848384
363 0.898264 -7.66268 -6.85118 0.560828 -1.98623 0.000888022
1781 -7.6224 -7.54075 -0.122415 -2.13049 0.998654 -0.632722
320 1.55657 -8.45034 -6.9618 0.627176 -0.653848 -2.90739
602 0.965101 -8.50414 -6.24669 0.333623 1.92276 -0.224852
1854 2.43828 -5.3043 -0.0346524 2.07319 -2.37425 1.21942
324 2.97158 -8.30726 -6.82733 1.32104 0.850933 -1.23396
367 2.24561 -7.58016 -7.00178 0.372444 -0.530366 0.450511
606 2.2628 -8.44343 -6.18836 -0.176891 -0.00331753 0.207652
657 2.9607 -7.67966 -6.08994 -0.502988 -0.166718 -2.22585
1766 5.35233 -8.41048 -0.130118 -0.243682 0.576549 0.0159119
1925 -7.74641 -3.1827 -0.149632 -1.80108 1.93361 -0.108001
328 4.67626 -8.50177 -6.82739 -3.41236 -1.64677 -2.07556
610 3.67818 -8.3443 -6.02682 0.417741 1.74311 2.33312
611 3.67272 -8.8453 -5.21627 1.39597 1.57056 0.988919
3765 -1.67271 -0.0404625 -7.77845 1.29527 2.91964 1.23142
332 6.02855 -8.49519 -6.8861 -0.513453 2.19586 -1.27772
336 7.53453 -8.50996 -6.73342 0.611136 0.377024 -3.87652
379 6.8567 -7.73591 -6.85978 -1.2961 2.13972 -0.000421786
669 7.57698 -7.55139 -6.1898 -0.576237 1.27858 -3.04397
881 -3.02034 -9.12699 -4.60275 0.0500732 -2.18214 -1.00958
292 -9.23072 -8.46969 -6.95223 -1.41213 -2.41149 0.655064
622 8.71902 -8.51129 -5.97027 1.32598 2.88633 1.40253
337 -9.15999 -7.66778 -7.86841 -1.20719 -0.121765 -1.86823
625 -9.02602 -7.77117 -6.19596 0.296694 0.741171 -2.17391
338 -8.4832 -6.8067 -7.76519 -0.243882 1.51404 1.51051
340 9.13775 -6.9648 -7.12839 0.556211 2.61322 1.6892
387 -8.4875 -6.1334 -6.91198 -2.57652 0.0207585 -0.848308
344 -7.72754 -6.85544 -7.06983 -1.28337 0.265072 1.89159
391 -6.94228 -6.13134 -6.84019 1.61936 2.64335 1.46607
630 -6.75659 -6.92249 -6.31008 -2.66201 -0.230583 -0.00984476
677 -7.75952 -6.05732 -6.1709 -2.04166 -0.984408 -2.07956
348 -5.99638 -6.82297 -7.01508 -0.251421 -0.891122 -1.17887
351 -3.9195 -7.80542 -6.79555 0.352861 -1.34736 -2.04067
350 -3.9167 -6.94718 -7.81347 0.186747 1.23665 1.99351
349 -4.66179 -7.71244 -7.72375 1.47938 -0.114298 -2.3669
352 -4.48501 -7.06945 -6.90675 0.809231 -1.77659 -1.12374
637 -4.66713 -7.68393 -6.1763 -0.388505 2.8691 0.613347
356 -2.92445 -6.8978 -6.94099 -1.09184 0.333171 2.49244
403 -2.31368 -6.01493 -6.80669 -0.190526 2.189 1.90329
642 -2.25343 -6.85801 -6.11394 -2.48893 1.35159 -0.322603
689 -2.98136 -6.12031 -6.14505 -1.30812 -0.586109 1.99126
360 -1.59798 -6.73231 -6.98761 1.66498 0.88248 -1.73523
407 -0.734176 -6.23008 -7.02197 -0.120476 -0.351484 0.735694
646 -0.608625 -6.92467 -6.16832 0.598402 0.244481 -0.338661
693 -1.26871 -6.02149 -6.19319 2.39474 1.17005 2.14137
409 -0.0735612 -6.12287 -7.84965 3.33458 0.120952 1.31653
364 0.103652 -6.98572 -6.96973 -1.73249 -0.750293 1.41838
411 0.720927 -6.03634 -7.1961 1.02934 2.91816 0.423769
697 0.0411587 -6.19002 -6.31747 -0.540989 -0.533922 -0.500282
368 1.56842 -6.81108 -6.88551 -1.7317 -0.586889 2.63474
701 1.57574 -6.04016 -6.18181 -0.238818 -0.88163 -2.23092
372 3.01073 -6.93917 -6.79084 1.77693 -0.319923 0.0427456
415 2.2412 -6.06425 -6.78545 -1.32303 0.555575 -1.13511
654 2.33226 -6.87783 -6.01177 3.43631 2.72578 -0.395659
371 3.76536 -7.69027 -6.86815 0.871393 0.516116 1.5612
376 4.59588 -6.99392 -6.90653 -1.404 -0.275422 1.79129
661 4.57816 -7.76297 -6.05662 -1.72635 1.62703 0.026223
658 3.74705 -6.97367 -6.13783 -0.0207962 0.535025 -1.58516
421 4.69687 -6.23146 -7.57957 1.20191 -2.34329 0.318318
419 3.77607 -6.39984 -7.01712 -2.31409 -1.75004 0.741337
374 5.4752 -6.99771 -7.50274 2.01539 0.556337 2.52294
375 5.3273 -7.82118 -6.89557 0.635925 0.349093 -2.6073
380 6.11725 -7.07285 -6.78059 1.69709 -1.78936 1.47293
381 7.65533 -7.88753 -7.67244 2.26015 1.53002 -1.01596
378 6.78599 -6.94343 -7.66862 2.20261 3.19862 1.11172
666 6.80245 -6.96491 -5.98222 0.431187 -2.73423 -1.78824
384 7.71246 -7.18904 -7.09204 0.391747 -0.276723 0.153725
429 7.71691 -6.19447 -7.75043 2.0254 1.28363 2.05441
382 8.52645 -6.95319 -7.84071 0.763858 2.16984 2.96296
383 8.35898 -7.78534 -6.76266 1.39566 -3.21455 -0.0383851
431 8.3027 -6.37072 -6.86739 -0.470418 -1.61856 -1.08038
433 -9.22476 -4.60313 -7.69729 -2.79827 3.23814 1.08973
674 -8.4627 -5.44852 -6.02198 0.218877 -0.945888 0.438465
721 -9.1689 -4.60511 -6.1455 -0.554971 -0.325215 -0.116444
392 -7.62133 -5.31382 -6.82028 -2.77079 -0.999871 -0.472761
439 -6.84017 -4.66629 -6.81104 -2.40176 0.639996 2.96412
678 -6.90977 -5.39789 -6.09249 1.60718 -1.6486 -1.64388
395 -5.24925 -6.20701 -7.02083 2.07917 -2.4801 -0.539026
396 -6.03905 -5.25167 -6.8214 -0.34893 -2.39921 -0.603986
443 -5.30729 -4.44381 -6.93065 -0.861972 0.389107 0.108701
681 -6.14916 -6.04661 -6.25703 -1.79094 0.866747 -1.69369
682 -5.15701 -5.47119 -6.14425 2.21417 0.106138 -0.202387
729 -6.18458 -4.49227 -6.19604 -1.75021 1.50808 0.696143
685 -4.5332 -6.17223 -6.40263 -1.34316 -1.81882 -1.55803
398 -3.85886 -5.35015 -7.74262 2.09675 0.473166 -0.725505
399 -3.84094 -6.33501 -7.15019 -1.76744 -0.809365 -0.505607
400 -4.67156 -5.23214 -7.02503 -1.15488 -1.02155 4.4373
402 -2.26808 -5.47587 -7.71055 -1.66956 -0.163815 -0.388379
404 -3.21864 -5.5073 -7.00874 4.04509 -1.67308 1.90125
737 -3.07604 -4.67045 -6.22288 0.317399 1.93553 -3.42615
406 -0.675629 -5.4114 -7.79599 1.19333 1.41579 1.03658
408 -1.36481 -5.56562 -7.10464 -2.28507 1.34207 2.68723
453 -1.5397 -4.72648 -7.8372 -2.96894 -1.84805 -0.0136461
694 -0.634814 -5.32398 -6.27356 -0.778383 -1.26865 4.83304
741 -1.50139 -4.69336 -6.23243 -0.753132 -1.43029 -0.858005
457 0.0435331 -4.65789 -7.74607 0.925338 0.906315 2.60857
412 -0.0267525 -5.33756 -7.06901 1.69016 1.97313 -0.406916
416 1.43198 -5.26262 -6.97751 0.470001 3.06163 -0.707822
698 0.770766 -5.45644 -6.31892 2.77926 1.3054 -0.808838
420 2.95953 -5.2536 -6.89398 -1.17403 1.05449 1.5696
463 2.25834 -4.46276 -6.81863 1.64219 0.610082 -0.633577
753 3.072 -4.46489 -6.16342 1.43151 1.0335 2.19737
424 4.60954 -5.34416 -6.79295 1.11221 -1.52664 -0.983203
706 3.70332 -5.20157 -6.26893 -2.67739 1.80245 -0.628826
467 3.89831 -4.68177 -7.00919 -0.849346 1.7819 1.76556
757 4.66147 -4.59985 -6.16471 -3.18093 -0.460024 1.79721
423 5.16188 -6.3185 -6.74114 -1.3875 -1.71329 0.742767
428 6.07978 -5.48847 -6.86088 -4.42032 0.088546 0.334043
471 5.37789 -4.69641 -6.91008 -0.174445 0.642453 -1.31282
427 6.96197 -6.38523 -6.9127 1.14491 0.636109 0.0697249
426 6.90396 -5.61553 -7.45171 1.407 3.88284 -1.30444
432 7.65124 -5.48456 -6.82964 0.0557662 -0.235698 -3.24246
717 7.58701 -6.3753 -5.99398 -0.544304 -0.334218 2.69734
475 6.82804 -4.72796 -6.81937 0.125665 1.02325 1.42265
388 -9.18895 -5.47231 -6.89658 -2.38242 1.56963 1.18346
479 8.55793 -4.73312 -6.88513 1.90295 -3.45669 0.088199
718 8.40329 -5.38538 -6.03627 -1.64182 -1.76863 -0.766128
435 -8.46292 -4.68965 -6.81856 -1.30695 0.341615 3.16
485 -7.82646 -3.08369 -7.71457 -0.345879 0.478453 -0.00101868
434 -8.53375 -3.86906 -7.48725 -0.754536 -1.03702 -0.25661
722 -8.59438 -3.8142 -6.12336 1.91343 3.04845 -3.23035
773 -7.56149 -3.04835 -6.16831 0.887688 -1.40081 -1.71347
437 -7.64616 -4.62446 -7.57228 -2.83079 1.95394 -0.195917
438 -7.06454 -3.84184 -7.68363 0.657433 -0.050699 -1.96517
440 -7.65217 -3.94958 -6.84051 0.797912 -0.14074 -0.165504
487 -7.05032 -2.99086 -7.05834 0.270736 -2.88981 -0.646253
726 -6.8377 -3.72571 -6.12002 0.106637 1.07254 -0.300233
442 -5.41582 -3.70801 -7.68521 -1.02359 0.403349 0.155879
489 -6.28275 -3.07974 -7.71032 -2.14088 -0.819638 -0.411606
444 -6.26783 -3.68809 -6.93887 1.07916 -1.22457 -0.0750221
445 -4.72881 -4.45535 -7.83827 -2.6043 0.560104 2.27318
447 -3.88428 -4.64152 -6.9346 0.859326 -2.57165 1.79569
448 -4.60283 -3.73709 -7.07418 -0.305783 -0.233344 -2.00979
734 -3.63037 -3.84145 -6.14896 -1.26187 -0.545725 0.398102
449 -3.07433 -4.5857 -7.79982 1.87162 -1.83967 -1.01183
452 -3.07639 -3.82636 -7.12737 1.96078 -3.70378 -1.69267
451 -2.38752 -4.77089 -6.81866 -0.126665 -1.55253 -3.17979
499 -2.48246 -3.10483 -6.94858 3.17989 0.77971 2.15191
455 -0.873621 -4.60498 -6.97055 -0.441162 -0.912432 1.96255
456 -1.59715 -3.86888 -6.93275 0.777408 -1.44108 -1.89206
454 -0.725199 -3.76816 -7.77049 2.35924 -1.06117 -3.03525
742 -0.794965 -3.83108 -6.22396 0.0723165 0.498367 3.16233
460 0.0077998 -3.70166 -6.84702 -0.87314 -0.850323 -2.24476
458 0.832782 -3.89377 -7.81853 -2.61757 -1.25389 -0.0371865
509 1.70536 -3.09993 -7.72912 0.241346 0.180733 -2.15954
459 0.598402 -4.44998 -6.87239 -1.12413 0.641694 1.89745
746 0.649902 -3.81991 -6.04185 0.0233398 -1.24891 -1.2763
464 1.44178 -3.75924 -7.1064 -0.767548 1.85313 1.31066
462 2.54935 -3.94871 -7.84739 -0.288697 0.489968 0.760509
511 2.38543 -3.09227 -6.9735 2.5622 0.889254 0.138771
468 3.01142 -3.84394 -6.94454 -0.565876 1.15303 -0.633938
513 3.04666 -3.08597 -7.65874 -0.828405 -1.72002 -1.45683
750 1.99097 -3.71237 -6.26706 0.595504 -1.00024 1.41378
801 3.02325 -3.26018 -6.16555 -0.42772 -1.06488 -1.38931
472 4.68893 -3.79777 -6.86583 0.88244 1.94038 1.69515
805 4.73018 -2.91562 -6.25782 1.82987 1.28987 0.72465
754 3.82671 -3.74432 -6.22787 -0.303843 -1.6749 -2.29386
515 3.73545 -3.07121 -7.00528 1.86123 -0.251672 1.10295
473 6.24462 -4.85253 -7.63054 1.06847 -1.83 -3.56277
476 6.1611 -3.90121 -6.90257 -0.380938 0.437372 -0.259818
758 5.47536 -3.8019 -6.21258 5.01119 1.38048 -2.05849
809 6.21216 -3.0791 -6.3193 0.0743675 -2.54021 -0.266043
519 5.48768 -2.95165 -6.90918 -1.12693 0.97286 -0.726361
480 7.49666 -3.93468 -7.02298 0.6184 -0.223126 1.56145
523 6.87952 -3.06778 -6.97437 1.5723 -0.419592 -0.235653
762 6.96404 -3.89273 -6.17523 1.00613 -1.65942 -1.00768
436 9.20027 -3.90538 -6.87488 -0.51221 -1.01493 -0.102436
478 8.32371 -3.96229 -7.60667 -0.467367 -0.888613 -2.0741
527 8.3475 -3.28 -6.85003 -1.1956 0.145212 -1.85897
766 8.43321 -3.8625 -5.98359 -0.559969 0.652037 -1.94238
769 9.16332 -3.12023 -6.13578 3.23193 -0.437561 -0.403302
483 -8.34886 -3.0528 -6.8572 -0.159999 -3.79379 -0.787007
482 -8.48014 -2.35603 -7.77585 0.337542 1.45168 1.37075
770 -8.3743 -2.22626 -6.26041 -1.97706 1.53784 -1.90583
533 -7.84101 -1.15691 -7.85153 -1.24633 -0.771179 0.599671
488 -7.50774 -2.10133 -6.92628 0.513107 -1.0834 1.14571
535 -6.87834 -1.30937 -7.10597 -2.96167 1.86803 -0.817754
821 -7.64786 -1.38437 -6.29727 2.50849 -0.0201101 1.18983
491 -5.10963 -3.0403 -6.79057 0.813149 1.09361 1.60796
492 -6.10045 -2.17011 -6.97701 0.0638458 0.825537 1.26688
537 -6.13934 -1.50898 -7.70322 0.64565 0.671885 -0.472221
495 -3.83446 -3.05495 -7.00646 1.81211 -1.98393 -1.64019
496 -4.62418 -2.24924 -6.9557 -0.542329 -0.893772 0.591338
543 -3.75994 -1.57575 -7.1263 -0.201708 -1.36418 0.205998
545 -3.01932 -1.6269 -7.78471 -1.34016 4.19082 0.795671
785 -3.26134 -2.93237 -6.21024 -1.12743 1.01528 -2.13329
500 -3.14064 -2.26312 -6.94682 -0.320194 -2.10007 1.50727
547 -2.30432 -1.53844 -6.9911 -0.0836345 -0.187007 -0.713264
501 -1.67627 -3.06286 -7.71835 0.102462 -1.66192 -2.09397
504 -1.60578 -2.24189 -6.85965 -0.1454 -1.06261 -0.122871
551 -0.76791 -1.4841 -6.95485 2.71396 -0.550298 -0.660601
790 -0.633111 -2.26409 -6.39203 -1.19504 -1.55925 2.58041