ITEM: TIMESTEP
49220
ITEM: NUMBER OF ATOMS
864
ITEM: BOX BOUNDS pp pp pp
0.0000000000000000e+00 1.0726842421158810e+01
0.0000000000000000e+00 1.0726842421158810e+01
0.0000000000000000e+00 1.0726842421158810e+01
ITEM: ATOMS id x y z vx vy vz
805 0.856253 0.726154 1.01338 1.23092 1.09342 -2.28135
461 3.22024 5.24425 1.99078 1.3457 -0.610253 -4.37412
379 1.84024 0.563953 0.971719 -0.556938 0.279936 0.605511
617 3.46978 1.61024 1.11613 1.51487 1.34936 -0.691132
762 2.01219 1.80065 1.26471 0.90974 0.0350702 -0.348875
524 2.22773 1.03283 0.0137763 0.62567 -1.40049 -1.36716
473 1.65183 1.11426 2.10293 0.158468 1.36517 2.02477
211 2.99302 0.315641 1.39068 0.290037 -0.39717 -0.225399
843 3.07254 0.737313 0.372121 1.60288 0.244785 -0.418258
509 4.37898 1.56016 0.518499 -0.191183 -0.102819 -3.55752
227 4.94123 0.529389 0.512845 -2.44138 -1.55693 -2.78349
172 5.5502 1.32944 0.368389 -1.11174 -0.49237 2.46423
30 6.2361 0.199729 0.637142 -0.936962 -0.597607 -0.516131
639 7.60066 1.14377 0.641778 -0.173396 -0.741773 -0.982753
248 0.808172 1.92872 0.0317526 1.0626 -2.1262 1.1151
375 6.59673 1.33085 1.48932 1.40613 0.776014 -0.935581
534 6.89905 0.392813 1.4639 -2.32989 -0.881486 -0.0447276
263 9.19718 1.12379 0.540451 0.0399113 -2.15276 -0.147074
328 8.30994 0.377379 0.345231 -1.09019 2.23837 0.359029
338 7.92662 0.800354 1.6325 -2.53361 1.70336 0.853845
587 10.4273 0.53481 0.541383 0.102061 0.311625 0.341871
167 9.47807 0.335075 1.22389 -0.944428 0.654276 2.85144
342 1.54578 2.91932 0.286357 -0.483186 -0.55471 1.84694
707 0.717538 2.81203 0.987732 0.202832 -4.84218 -2.50318
365 0.0124821 1.8807 1.33982 -1.49967 -1.76114 -0.0311068
218 6.47262 0.996751 0.0683651 0.738077 3.10942 3.00597
416 2.07618 3.08635 1.19485 -2.54255 0.952298 -0.15231
628 6.96298 5.16375 1.60193 -0.44489 -1.50763 -0.353686
556 3.51794 3.28928 1.84761 0.0669766 1.066 0.86728
138 3.99144 2.38368 1.5582 -0.321011 -0.576099 -0.952553
208 3.09134 2.64412 0.641311 -0.34012 -0.817552 0.422554
412 5.27941 2.3664 0.981721 -0.946695 -0.486186 0.800872
300 4.78025 3.28627 0.400558 1.27989 -1.27129 -1.60372
115 7.37425 2.31114 0.366274 -0.564604 -1.02877 -0.0506301
448 6.56933 2.28723 1.10217 1.77357 -0.31047 2.40115
592 6.71702 3.2886 1.49873 0.196488 0.500558 1.27536
276 7.61331 2.45915 1.48928 1.02146 -1.2483 0.297303
849 7.60474 3.38844 0.711276 -0.00815397 -0.689106 -2.01625
491 8.57128 1.92409 0.94172 -1.95262 -0.930201 0.418699
740 8.50546 3.22328 0.0900804 -2.38343 -2.06461 -1.58464
74 8.43526 2.95994 1.56669 -1.54101 1.02049 1.06928
570 9.59784 1.94159 0.920095 1.06302 -0.87105 0.0844472
765 10.4928 3.86838 0.980745 -2.54301 1.9057 -0.282601
680 9.92392 3.16829 1.4676 2.17099 1.10367 0.807092
755 1.73086 0.194174 2.75534 -1.89455 -0.630925 -1.08149
815 0.567718 3.72201 0.188637 2.31951 -0.400226 -1.88601
512 2.32393 5.23218 2.79336 1.10774 -1.9354 2.5043
559 0.542681 4.3145 1.14853 0.423671 1.29111 -1.41543
92 0.443691 5.31354 0.622791 0.427581 2.77531 -2.45986
26 0.924358 5.34262 3.837 1.839 0.605271 0.0997214
767 1.36187 3.7908 0.858495 -2.2465 -0.177388 0.252937
818 2.37126 5.07374 1.03026 -0.436889 -1.14034 -1.8522
225 2.97553 3.85133 0.758647 -2.61489 -2.79986 -1.09571
614 3.584 4.56602 1.41102 0.650707 -0.765539 0.173861
237 4.12482 4.97593 0.390997 -1.69115 1.77904 -1.52473
295 4.2086 3.74365 1.07136 -0.173395 0.683005 2.47298
204 5.62175 3.61288 0.880306 0.143509 -0.827973 -0.979736
683 5.52456 4.87819 0.379837 1.52405 -0.513097 0.516026
437 6.40565 4.27487 1.35253 -1.23324 -0.496195 -0.792808
503 7.39046 5.16096 0.721286 1.22905 -1.49868 2.92929
360 9.11022 5.12553 1.43294 2.74105 -0.44061 -0.0383653
696 8.22163 4.63427 1.21401 0.232761 0.828286 -0.0659092
807 8.84194 5.2192 0.350643 -0.702904 -0.279241 -0.0137042
148 9.31268 4.36221 0.713038 -0.829911 1.86762 1.34762
131 10.1999 4.88246 1.1903 -1.43441 0.147437 1.15313
543 10.3986 0.725463 1.54191 -1.91792 0.915713 -1.33308
105 1.67762 1.58754 3.14372 0.618259 1.77967 1.69846
686 0.266505 1.60227 3.69263 -1.12272 -0.453495 2.6737
121 0.875657 1.06874 2.73478 1.39144 1.10973 -0.316101
804 2.4845 1.6327 2.3542 3.68505 0.640122 -1.04293
71 2.40935 0.804305 3.10238 0.778475 1.72771 -0.102867
817 3.35293 0.951416 2.08708 -2.35492 -1.18914 -2.25798
173 3.29893 1.54946 3.0626 0.238548 0.03831 -0.757712
699 9.46224 4.67578 4.79352 0.700547 -0.56839 -1.16759
190 4.58225 1.42439 3.00166 1.31819 0.809679 2.09253
147 4.76503 0.715932 1.62836 -0.387092 0.347106 -2.22491
750 5.56881 1.04624 2.82738 1.15687 -0.60056 -0.334214
447 5.27103 1.74127 1.87257 1.29772 2.49361 0.432228
315 6.6945 0.643594 2.35233 0.940811 2.05323 0.720676
261 5.8351 2.60715 0.336237 0.0577195 -0.106135 1.28723
812 6.77468 1.30377 3.36546 2.05936 0.114691 2.55214
523 7.49387 1.49598 2.33659 -0.408676 -1.45345 1.21918
636 8.66796 0.521357 3.00573 -0.307343 -1.5655 1.81136
550 8.49847 2.08478 3.23084 0.951323 0.458798 2.24235
497 10.2729 0.921146 2.55281 0.724151 -2.26354 2.42326
182 9.45384 0.159454 2.14098 -2.4547 -1.4088 1.16823
630 8.66613 1.34125 1.89896 -2.19636 -0.0378825 0.138519
860 9.66459 1.53092 3.23867 1.03671 0.0881376 1.84602
146 0.334656 1.83114 2.35805 -0.557534 0.943311 -1.1316
780 1.57306 2.17331 2.0751 -0.222017 0.665109 0.617118
156 1.37713 2.56431 3.29766 0.786998 2.92996 -0.65116
535 1.29415 3.12716 1.87655 -2.16547 2.01084 -0.0631999
529 2.98616 2.5038 1.63478 0.956239 -0.143905 -0.831785
66 2.1656 2.95743 2.66976 2.25643 0.557673 1.13622
778 2.80918 3.33544 3.30037 0.402074 -0.80525 -0.204301
501 3.3543 2.81094 2.72048 0.8612 0.521039 -1.79777
681 3.98611 1.63008 2.12195 1.99348 -0.753808 -0.589482
294 4.49764 3.45991 2.01172 0.553554 0.504686 0.0976268
424 4.31283 3.40026 3.72933 0.070548 1.21768 1.58934
329 5.46738 2.98293 1.83903 -0.133116 -0.060205 -1.34743
739 6.15502 1.96695 2.30315 2.41794 0.404718 0.107496
768 5.12275 3.40954 2.8606 -0.423042 0.121412 0.272755
435 5.88574 2.82163 3.67354 0.660132 0.49586 3.85896
298 6.88842 2.57561 2.19151 -0.397957 2.00758 1.08354
776 7.05228 2.67708 3.19332 0.927964 1.04367 0.579596
603 7.49015 3.68692 3.17181 -0.0948866 1.44714 0.140001
32 8.02017 2.7175 2.54672 -0.412384 -0.213391 -1.00458
85 8.38695 4.15028 3.81846 2.0692 2.0367 0.824559
455 9.40247 3.69402 3.22675 -1.58556 0.238618 -0.0743561
228 9.04073 2.76604 2.6012 0.253748 1.62223 0.450113
578 10.1618 2.62392 2.65939 -2.53209 0.0688895 -0.659112
809 0.249577 3.20447 1.86082 2.51214 -0.0531304 -0.124658
588 0.677395 5.34492 1.66648 1.08179 0.625816 -0.516311
363 0.439549 4.38179 2.52981 -2.1387 0.0505065 1.63664
405 0.787032 3.46313 3.56591 -1.83701 0.997404 0.839253
179 10.4887 3.66199 2.82354 -2.46717 1.64824 1.05777
266 0.318039 4.39777 3.69835 2.38403 -2.10911 0.995662
764 2.64328 3.741 2.17128 2.35663 -2.85134 1.4762
824 1.9692 4.02218 3.27937 -1.12296 -0.745159 1.25206
114 2.94633 4.93483 3.45049 0.967959 -1.81351 -0.806513
45 1.27432 4.39578 1.99291 -1.83983 0.459636 0.80664
340 3.23003 4.31506 2.72672 1.83962 -1.83549 -0.21126
457 3.79423 3.28077 0.167598 0.215923 -0.842103 -0.78511
417 4.23043 4.55967 2.50852 0.705908 -0.207611 1.00746
835 3.78536 5.26452 2.90373 -0.895494 2.62285 -0.450677
816 3.74865 4.44333 3.64815 1.00731 0.134895 -0.331728
715 5.44229 4.08123 1.74954 0.334965 1.34169 -0.264782
82 5.76364 4.88736 2.44964 -1.31519 -2.20937 1.42281
198 7.62034 3.8336 1.65583 1.97252 -1.13193 -1.7859
196 7.00891 4.44495 2.43088 0.663464 -0.997982 0.783611
662 9.08621 4.57646 2.67021 0.0741707 1.5784 -0.211397
392 6.86025 1.35866 5.35097 -0.894995 -1.13328 1.83346
6 8.01445 4.65194 2.82943 -0.386675 0.148118 -0.534318
669 9.62407 4.25193 1.84361 0.506521 1.10822 -0.933151
579 10.1103 4.65509 3.0598 -0.878822 -1.93822 -0.751326
209 1.34739 0.709555 4.6012 1.89403 2.13976 -0.791274
403 0.272549 1.73232 4.65921 1.71867 0.0507573 1.25979
663 9.43574 5.16163 3.70664 -1.94383 0.297309 -1.24438
527 1.42934 0.131818 1.7594 2.80166 -2.5718 1.73841
152 2.68796 0.616931 4.31345 2.63576 0.0408424 2.28364
822 3.0662 1.68096 4.43901 -0.346738 1.13256 -2.58296
426 1.93151 1.83864 4.97177 1.20556 2.50317 -0.538206
478 1.60771 4.74129 5.27516 -1.06274 1.49218 0.363581
72 4.31226 1.23931 4.88659 0.165829 1.45407 -1.04972
371 3.84298 1.02023 3.91759 0.715994 -1.41279 -1.17971
185 6.07442 0.528203 3.91792 -1.19779 -0.709014 -1.25556
212 5.25806 1.53285 4.10539 -2.13335 -0.526388 0.442061
195 5.26728 0.927915 4.94927 0.432233 0.752578 0.342124
485 6.7111 1.01412 4.41016 1.24317 -3.0867 0.884603
706 7.66061 1.92389 3.57408 1.77153 0.436349 -0.46427
125 9.00755 0.893335 4.00603 0.64821 1.35441 -0.0554146
279 8.92147 1.22742 5.22982 1.71867 -0.327119 -0.397782
240 8.17784 0.671353 4.61525 0.0124155 2.53394 -1.80456
286 7.63585 1.4802 4.59867 -0.0814286 -0.330829 -1.06678
631 0.278432 0.279049 4.65704 1.57413 -0.634105 0.294895
858 10.505 0.831732 3.76021 -0.644566 -0.590778 0.829943
551 9.72923 0.570717 5.01943 1.07637 -0.682449 1.71466
564 0.199711 2.72033 3.52361 0.250234 -0.49802 1.16177
633 1.32314 2.32439 4.26726 -1.37178 -0.774357 1.05189
425 0.249903 2.93647 4.56077 1.68934 0.966913 0.267053
317 1.27413 3.51909 5.14155 -0.677821 -0.775409 1.44115
171 2.71997 2.1639 3.67307 0.412529 1.26989 -1.79504
122 1.93589 3.17638 3.8531 -0.717065 -3.47907 1.63618
154 2.57577 2.55768 4.56819 1.05726 0.0895043 0.753898
107 4.15813 3.23685 4.82166 -1.33454 0.124963 0.464018
438 4.46621 2.26814 3.56499 -0.061531 -0.325153 0.0350339
700 3.29434 3.27128 4.12077 -1.44241 -2.1349 1.95302
307 5.51173 0.131641 3.18123 -2.14031 2.57722 1.20941
91 4.29711 2.32444 4.64463 -1.24039 1.30223 -0.700701
575 5.20976 2.58291 4.41767 0.890455 -0.675043 0.0894215
445 5.40275 3.55903 4.20654 -2.75416 0.650212 0.578709
725 6.94844 3.37206 4.46485 -1.3665 0.891464 -1.35155
73 6.62294 1.96703 4.14514 -0.247742 3.1734 2.27186
676 6.09447 2.85069 4.75693 0.563875 -2.76862 -2.54735
553 7.76253 2.55248 4.59206 0.421229 -0.278194 -0.39873
607 8.94832 3.09593 4.17979 0.814783 -0.301597 -0.592599
521 9.92854 2.37873 3.5965 0.16847 -0.757259 -2.31291
599 10.0497 3.26888 4.08703 -2.29832 1.84965 -1.12339
144 9.94532 2.02428 4.72503 0.686311 -1.19648 -0.658287
441 1.40091 4.86283 3.05718 0.205907 -0.131081 -3.81213
801 0.891099 4.21516 4.56695 3.28743 0.983541 -1.83432
245 2.81436 4.1873 4.17965 -1.53795 -1.23979 -0.595482
60 1.84837 4.20412 4.35538 -1.34392 0.708705 0.314992
431 2.61649 3.58679 5.11015 -0.427273 -0.462681 0.217746
28 3.42308 5.2311 4.38823 3.5339 -1.4587 2.41638
349 2.81184 4.89091 5.18138 -3.44104 -0.482304 -2.05277
235 3.65279 4.23697 4.71435 -2.05562 -0.880717 -1.55758
673 4.95347 4.16401 3.49353 0.0218023 -0.106183 -2.19279
35 4.72927 3.92699 4.87299 -0.535348 0.995939 1.13552
199 6.05684 3.94508 5.19097 0.710921 1.10331 -0.357785
377 4.50812 5.31867 3.62101 0.154349 1.9756 1.22116
492 5.69913 5.01014 3.56524 -2.52659 1.66864 -1.66875
609 3.28134 1.21867 5.29517 0.119969 0.682544 -0.65239
411 5.51615 0.198542 1.98051 -1.7211 0.338945 -0.942697
415 6.33881 4.02088 3.85315 -2.80056 1.09111 1.15099
143 7.05009 4.42146 4.79035 3.1173 -2.56916 -1.13238
618 7.31959 4.51607 3.80284 -1.83524 1.32188 0.205839
174 8.13512 4.70566 4.53256 -1.49983 -1.6319 -1.48331
429 8.15062 3.66792 4.67756 0.562511 -0.901127 -1.99952
629 0.222723 5.19647 4.67136 0.1943 1.56149 0.237811
741 10.5909 4.13717 5.02089 -0.116834 1.3394 -1.51957
690 10.1573 4.49573 4.07794 0.763456 1.72933 0.362293
800 8.44777 0.0100612 2.04499 0.210157 0.311792 0.287965
566 9.32926 2.47416 5.35184 1.75891 0.54846 0.0182805
692 1.19018 1.33146 5.35843 -0.0394673 1.74445 -0.317262
118 0.357279 1.43637 6.1825 -2.24633 -0.572192 -0.522647
688 1.26428 0.719959 6.18339 -0.858421 1.96929 0.725752
839 2.18477 0.977964 6.9124 -0.841356 1.75339 1.793
562 1.39467 1.87012 6.37727 -1.92899 -1.67149 1.53776
622 2.20531 1.01168 5.70425 -0.262233 -1.09723 0.359393
756 4.81011 1.43535 7.03987 0.732671 1.1411 -0.666715
128 3.32893 0.594516 6.2253 -1.49338 0.122353 0.654644
98 3.09099 1.62321 6.81637 -0.542558 0.474943 -1.82756
444 4.1382 1.17768 5.94656 0.60668 -0.354558 0.92166
658 8.73587 0.136472 5.58093 -0.549376 3.13969 0.491247
200 5.85931 1.54927 6.70966 1.18992 0.279747 -0.511256
859 5.8778 1.81059 5.54404 -1.74445 0.906178 0.0706113
10 4.87208 0.502871 6.51691 0.659332 0.543585 0.0885419
14 7.57697 0.457654 6.94373 -0.439722 -1.39076 3.36311
207 6.06392 0.682414 5.80371 -0.430977 0.536408 -2.54686
361 1.46611 4.47989 10.552 1.2649 -0.475724 3.19454
381 8.0842 0.843462 6.00271 0.238735 -2.02524 -1.64053
55 4.88254 1.99509 10.5445 2.38273 -1.13392 -0.698118
282 7.37673 0.160964 5.77181 0.759918 1.2891 -1.28131
145 7.02679 2.29471 5.40367 1.39303 -2.62687 0.0136114
670 8.95157 1.12279 6.49205 2.04314 0.0646983 -2.49695
753 10.0525 1.20278 6.45976 0.0653804 -2.32274 -0.578792
18 0.241473 0.298204 6.14101 -0.183229 0.176947 -1.73952
777 10.4338 1.24836 5.47687 1.63097 0.70672 -0.113785
726 1.01493 2.08494 7.40564 1.50917 -0.161056 1.02291
598 0.556084 2.09765 5.47784 0.844112 1.46863 -2.0647
781 1.42547 2.94457 6.49942 -0.0843525 2.02348 -0.567526
661 10.364 3.33097 5.60791 -0.181775 -0.0293221 -2.914
413 2.70497 1.89817 5.93548 -1.28809 -1.55403 1.39963
786 2.55445 3.18607 6.3754 -0.174425 -0.876134 0.834268
29 2.81293 2.43716 7.34206 1.57535 0.3263 1.63655
581 1.93423 3.81387 5.92886 1.05357 3.58112 -0.141032
460 3.6803 3.09596 6.23979 2.63168 -0.711438 -0.370411
456 3.90851 2.09781 6.22488 -0.696296 0.0974395 -1.93279
752 3.61016 3.23938 7.15152 -0.1663 0.0979983 0.513079
41 4.5071 3.50502 5.89288 -0.296576 1.17881 -1.43394
555 4.66583 2.37044 6.77469 0.445335 2.44406 0.670764
547 5.35093 3.0084 6.04419 -3.56214 1.09984 1.9437
302 4.86309 2.04395 5.69597 -1.26089 0.100894 -2.37608
90 5.89195 2.54675 6.90268 -2.06736 0.684463 0.952181
446 4.92887 3.35812 7.03318 0.340787 -0.055676 0.493707
470 7.05197 2.06456 6.64351 2.03473 -0.500465 -0.617941
88 6.45193 3.32857 6.88542 0.531831 1.79133 1.02776
142 7.51134 3.13199 6.57095 0.669802 -1.29236 -1.24099
471 6.76635 3.24661 5.41422 -2.88477 1.05923 -1.07622
251 9.19326 2.78485 10.1748 -0.945198 2.11004 -3.51701
717 8.7328 2.1345 6.42809 0.0545088 -1.20652 0.4487
697 9.23535 3.38118 7.21368 0.591955 -0.39153 0.549394
459 4.65015 5.33275 7.07205 0.761894 -1.22681 1.3109
290 10.2797 2.21071 5.85812 -1.12127 0.0318931 1.8172
452 9.67468 2.92477 6.5079 -0.98561 -1.81098 -0.948517
526 0.375473 2.67078 6.34081 1.89796 1.83928 0.0897119
354 0.704779 5.31186 7.06005 -0.867137 1.0557 1.56994
382 0.248868 3.76095 6.76869 -0.61454 0.724206 -0.225663
24 0.632884 4.03045 5.78695 -2.55832 -1.18919 1.31154
632 2.08539 3.61409 10.7262 -0.513562 -1.03413 0.133407
823 2.47041 4.70121 6.08799 -1.60216 0.0206808 -0.0272422
627 2.69815 4.133 7.40373 -0.958615 0.644102 0.570502
178 1.52601 4.17264 6.75822 -1.56942 -1.00038 1.85845
193 9.75098 4.16321 9.48507 -0.875528 -1.21931 -1.30931
825 3.44535 3.82794 5.63592 -1.07813 -1.50913 0.0684653
751 3.46003 4.95355 6.2746 0.292053 -0.0719063 -1.18047
197 4.28172 4.49189 5.61234 0.923433 -0.244058 -0.0456518
33 7.56397 3.99305 9.25227 -0.0343045 -1.82038 -0.743435
561 5.37372 4.11348 6.07977 0.98241 -0.751046 0.448367
386 5.75226 4.04551 7.09326 0.721093 0.862631 1.04224
123 6.25015 5.04242 5.39866 -0.647152 -1.08574 0.0416818
272 4.01424 4.16277 6.72739 -3.48206 -1.70669 1.40099
96 6.39534 4.00346 6.08113 -2.18168 -2.06745 -1.40431
265 7.51919 4.49177 6.37968 0.21692 0.890351 1.67278
611 6.46681 4.91239 6.4395 -1.42349 -1.72769 -1.63977
404 7.61694 4.07666 5.51864 -1.12003 -0.879582 -1.48514
271 8.46219 3.82185 6.28619 -0.100471 0.317992 -0.647803
262 8.78765 5.08717 5.69337 0.229991 1.58528 0.941279
729 8.5399 4.8021 6.69136 2.36605 -0.448922 -1.0243
533 10.5788 4.83837 6.58961 0.141009 0.752566 0.28186
390 9.5555 4.24757 5.84469 -1.01547 -1.53845 1.55049
94 9.95073 5.20349 5.64855 -1.09638 -1.56477 -0.811945
376 9.43637 5.31351 6.44071 -1.2795 1.40473 0.423264
283 0.0823965 0.711937 7.19968 -0.375809 0.981675 0.222486
320 0.874191 0.139909 8.36014 1.73802 -0.0520604 -1.53324
281 0.506206 1.41221 7.99326 -0.234248 -0.765749 1.80098
834 1.24834 2.09723 8.5775 2.55089 3.42264 -1.70459
333 1.29977 0.412658 7.23336 2.78468 -3.00342 2.82345
797 2.6056 0.286181 7.76048 1.00487 1.22618 -0.994236
423 2.03879 1.12636 7.8254 -1.29452 -0.554244 0.385954
44 1.9394 0.392214 8.49468 -0.936201 2.20128 -0.335662
5 4.12102 0.358645 8.34072 -2.168 -0.670801 -0.696571
126 3.1792 1.30962 8.02955 -0.801479 -0.90915 0.170774
466 3.68437 0.926551 7.21333 -0.220255 1.54479 1.54756
357 5.30381 1.74201 7.91585 -0.329067 1.75808 1.05648
427 4.5716 1.16145 8.78365 0.830095 -0.175179 3.18188
380 5.33859 0.15627 8.73685 0.377633 -1.03035 -1.02541
654 5.16179 0.654667 7.68535 0.799947 1.34877 2.2074
796 7.2792 0.977983 8.06676 1.42888 0.419435 -0.830055
465 7.63418 0.264024 9.1798 1.76549 0.355478 0.0571175
25 6.7221 1.32832 7.15365 0.395521 -0.650233 0.547641
322 6.14111 0.510957 8.26438 -1.38701 -2.13832 -0.371109
250 6.35473 1.5129 8.37273 -1.74469 -1.38468 0.741142
220 3.28637 2.53893 5.38425 1.59359 0.780312 -0.234174
656 8.53275 1.05323 7.44783 -1.14959 -1.44052 0.92178
476 8.36251 0.668924 8.81668 0.565947 4.36477 1.31832
180 6.53109 4.84617 9.53939 1.05645 1.47191 1.06611
137 9.89621 0.346605 7.45456 0.220943 0.661623 1.13274
505 7.50266 4.98229 9.99758 2.6671 -1.30565 -1.39405
2 9.41773 1.82811 7.19675 -0.126968 1.26706 0.0915451
388 10.5827 0.682673 8.50625 0.132669 0.143312 2.08976
17 10.2599 1.65978 9.18843 -0.612216 -0.219519 0.163886
684 9.19934 1.02496 8.15033 1.42527 0.623421 1.85213
601 0.490777 2.698 7.98957 -2.89519 0.238518 -0.193692
120 1.19295 3.48226 9.00041 1.83652 -0.809837 -0.542255
664 2.10807 2.66301 8.7346 -1.45918 -1.00995 1.00829
713 1.94295 2.21367 7.77038 1.58458 0.11112 3.26559
260 3.10956 3.26552 7.94602 -0.288003 0.566562 0.612208
62 2.12043 3.24618 7.42972 -3.80794 0.354916 0.717825
808 4.2875 1.83578 7.9848 1.55347 -1.80227 0.215331
513 3.24801 2.3866 8.53858 1.45697 1.12375 0.0682679
231 4.11223 2.77153 7.93149 -1.54375 0.269497 0.955005
301 5.21388 2.51467 8.45021 -0.177412 1.16452 -0.466676
531 5.69953 3.47211 8.59426 -1.36046 1.1572 2.5866
709 4.25069 3.55939 8.50231 -2.06717 -1.02438 0.757833
51 7.56634 1.98166 7.72887 -0.340949 0.853557 1.07972
339 6.30317 2.53594 7.83008 -1.24245 -0.559423 0.076475
170 6.90071 3.38101 8.51917 1.16473 0.619339 2.56381
779 8.49935 2.57162 7.67532 2.88881 1.43682 0.593833
57 8.1303 1.62635 8.42299 0.726562 -1.93475 0.553592
474 8.14384 3.08244 8.65347 -0.248741 1.48912 2.22638
489 9.12235 1.78903 8.91732 -1.74794 -2.43534 0.70445
414 10.6295 2.03726 7.22227 0.434694 0.732614 -0.574444
293 10.4548 3.79171 7.84469 -1.17724 -0.925068 -1.6375
724 9.94495 2.51945 7.91406 1.70767 -1.82524 -0.695903
395 10.5425 2.59474 8.79144 -0.65054 0.420013 1.03563
268 1.22764 3.88268 7.6713 0.909824 -1.39368 -1.55322
130 1.39921 4.77528 8.62336 -0.374789 -0.334202 -1.05722
624 0.457899 4.57133 7.9483 -0.926629 3.71749 -1.65822
422 1.8241 4.77693 7.72716 1.49985 0.648387 0.887096
714 2.21879 3.92904 8.25337 0.802813 -1.71196 -0.113713
583 2.41739 5.17736 8.54369 0.67006 0.392116 0.499528
87 3.48564 4.25274 8.05129 -0.921115 3.25604 -1.45937
646 9.15456 3.72746 10.3172 -2.64863 -1.01882 0.354923
358 3.73604 5.23607 7.57011 2.99856 -0.396217 -0.567737
640 4.81588 4.1007 7.79883 -0.250684 0.854859 -1.76634
672 5.68625 4.73546 8.19835 0.773548 -1.25012 0.363027
287 6.33303 5.23747 7.48083 -0.0688988 1.40176 1.68438
597 7.4373 5.24216 7.15688 0.362882 -0.0652279 1.20891
252 6.86394 3.97356 7.58269 0.280926 0.132272 1.02387
844 7.83082 4.64656 8.04071 1.5111 2.44925 -1.1376
565 6.69309 4.45899 8.52631 0.700361 0.798441 1.39041
334 8.45609 4.31812 10.6796 0.528649 -2.01914 0.106711
40 9.93903 5.20685 10.1678 0.891125 1.17415 -1.56918
783 8.59875 3.96407 8.01393 -2.83659 -0.727596 1.48552
496 9.20889 4.81366 8.65284 0.389593 -0.156349 -2.03546
567 8.98776 5.00024 7.58315 3.22113 0.197104 -0.402476
110 9.61438 4.24453 6.96566 0.555318 -1.54843 -2.08059
21 10.3079 4.60471 8.67939 1.56427 1.07827 1.91418
181 0.392333 1.57355 9.80403 2.57627 0.694449 2.72038
93 1.57379 1.48177 9.40407 -0.911737 -0.9882 -0.324956
297 0.330737 0.357639 9.43278 -1.98577 -0.869266 -0.511076
184 0.475314 0.754698 10.5737 -4.15977 1.71247 2.10526
246 2.50591 0.739975 9.39698 2.81774 0.927998 -1.77464
397 1.48135 0.603047 10.0853 -0.407842 0.344855 0.0142115
153 3.10417 1.2005 10.1167 1.46341 2.91227 -2.37558
716 4.07718 1.08802 10.4383 0.265671 -1.68207 -0.509733
674 3.8814 0.0876304 10.6964 0.0377913 -1.2991 1.71234
682 3.64007 1.75653 9.28367 1.81433 0.23751 -0.104983
331 3.91898 0.415813 9.60461 -0.608839 -0.79541 0.263666
792 5.28265 1.75773 9.31675 -0.0532591 0.911917 0.16786
50 5.00176 0.775986 9.76471 -0.296476 0.802768 0.0446953
743 3.54378 5.22236 8.62728 1.21528 -1.80104 0.509028
230 7.29806 0.384363 10.0948 1.0041 -2.08731 2.60844
99 7.18527 1.26576 9.23665 0.358637 0.157751 0.302451
312 6.09402 0.665625 9.30442 0.821911 1.4774 -0.241929
398 7.1617 1.72971 10.2376 1.57679 -0.111597 0.984472
619 8.01539 1.28265 9.83156 -1.48058 -0.446215 -1.54507
194 9.39975 0.0969189 10.4789 0.889273 -2.83689 1.40468
468 9.06458 1.58926 10.137 -1.55198 1.38898 0.305628
9 9.5074 0.573129 9.52348 1.33636 0.317486 -2.11297
516 10.1939 0.944919 10.3156 1.90805 0.24287 -1.65882
15 7.52206 4.03567 10.3997 0.0134894 0.511304 -0.358264
623 0.652253 3.21897 9.90551 1.24241 1.5192 -0.413404
540 2.70602 1.90968 9.38506 -0.248328 -1.00518 1.48379
802 2.05849 2.91336 9.84316 0.759789 -3.17446 -0.514917
560 3.41119 3.3232 9.10299 -0.408882 -1.32676 1.61046
162 4.4626 2.40982 9.75269 0.191601 0.0173865 -0.559819
254 3.2139 2.55588 9.82707 1.14459 -0.872541 1.08767
537 4.51928 3.50535 9.51851 1.68397 2.12083 -1.0632
605 10.105 3.60862 10.4984 -0.809569 0.781062 0.65175
428 3.42228 1.96409 10.6772 -0.436394 -1.25947 -0.394958
12 6.00896 1.71371 10.2693 0.379731 -1.95555 0.820203
226 5.34516 2.70855 10.054 0.604455 -0.817464 -1.52415
853 6.55065 3.48806 10.3954 -1.56576 0.823884 2.50076
80 7.54528 2.35633 9.31191 0.32644 -3.37941 1.02392
89 6.5556 2.33311 9.4846 -1.21243 2.87511 -0.917977
594 1.48362 5.15065 6.53588 -2.35111 -0.804695 0.0718334
454 8.28185 2.04016 10.5002 1.87746 -0.743612 0.569593
433 8.38826 3.67441 9.56519 -0.622245 1.76135 -2.15495
799 9.14843 3.48621 8.95558 -0.778878 0.180421 -0.335929
353 10.3204 2.36394 10.4867 0.0051583 -2.36309 -0.550004
528 0.51074 4.93065 9.01621 -0.0885229 -0.26402 0.624879
70 1.35616 4.70795 9.55302 1.41456 1.3243 -1.9584
712 8.92409 4.77855 9.83062 0.459453 -0.883187 -0.0529781
166 0.222956 4.55305 10.3817 -0.0444852 1.85496 2.51205
685 10.7138 3.64874 9.27937 0.0896936 -2.1772 0.539692
649 2.42778 3.67458 9.15919 0.624577 1.91863 0.32167
626 2.42945 5.07901 9.72548 -3.14215 -0.689073 -0.201743
58 3.07793 3.69947 10.2737 3.08072 0.733319 -0.608607
117 2.93014 4.54069 9.07009 -0.00886475 -0.419392 0.198513
132 3.38403 4.57713 10.5809 -1.42977 -2.58157 -0.363796
305 4.31346 4.03956 10.7065 0.385187 -0.716165 1.8995
737 4.38797 4.6659 8.62391 0.196565 2.61732 -1.27798
270 5.38016 3.8892 10.3845 -0.551544 -1.83361 1.80171
519 4.82958 5.06826 10.1398 -1.78702 -0.0517958 -1.41856
104 5.79969 3.60787 9.47073 1.38812 -0.889976 -0.079003
236 5.25051 4.86902 9.25123 -1.62373 0.175208 -0.224029
221 2.40256 2.42849 10.6781 0.876583 -1.8229 -3.32266
103 6.7888 5.44576 3.98477 -1.12146 2.11108 0.335004
745 1.5545 5.51136 0.826245 -0.50994 0.584296 -0.565644
608 0.37414 6.32963 0.210779 0.365486 0.458675 0.0404068
336 1.86515 5.44404 1.82944 0.835559 -1.14925 0.332408
659 2.80288 5.91379 1.38624 -3.74613 -0.337294 0.792023
517 2.47297 6.77666 1.23884 -0.349306 -0.331631 -0.280916
372 3.19662 7.18763 1.86922 -1.42902 1.94432 2.31694
136 3.81689 6.07554 1.30708 -0.387094 -2.09668 -2.50585
68 3.38045 7.02208 0.60456 -2.00236 0.311423 -0.468942
345 4.4067 6.46878 0.447974 0.633965 -2.47396 -2.41097
829 4.60743 6.61933 1.44943 -0.957532 1.19886 0.367217
488 5.76719 5.88915 1.86283 0.606582 0.484744 1.75904
391 5.99793 6.99937 1.00274 -0.760306 -0.422331 1.22899
362 5.19488 5.84519 1.05367 2.40118 1.55786 0.116139
464 6.79719 6.27603 1.36565 0.337433 0.476345 -0.526889
836 6.12867 5.41452 0.990444 -0.211562 -0.191487 0.542849
247 6.96145 6.82114 0.394339 -0.630683 -1.33298 -0.846407
548 7.9862 6.39134 0.698842 -2.18791 -0.543965 0.0697041
539 10.4361 7.31853 0.688713 -1.21593 0.729877 0.10097
351 8.99971 6.22295 0.963465 1.2812 0.580582 3.13861
233 10.2288 5.91725 1.1147 0.665224 1.98767 0.620982
668 0.722441 7.5914 0.330679 1.60534 -0.170319 0.193871
747 1.56924 7.26697 1.36186 -1.67224 -0.521918 -0.487924
177 1.38423 8.49619 0.0926264 -1.82881 0.206917 -0.0165357
541 0.22703 8.29024 0.83509 0.107796 0.0260295 -0.137987
406 10.4597 7.0814 1.73446 -2.61837 -2.28557 1.18833
4 1.24369 8.39409 1.14472 0.315195 -1.4796 -0.12144
759 1.9995 9.19043 1.28707 0.137019 1.78719 1.40423
344 1.93342 7.54002 0.182698 -1.42454 -1.81852 0.488596
81 2.84209 8.27754 0.773301 -0.509248 -1.09065 0.616581
520 4.57428 8.6731 1.37661 2.76686 -0.273521 0.142926
862 3.33654 8.65519 1.86981 1.2236 0.199611 0.263888
189 4.02696 7.74637 0.828417 0.696671 0.559939 -1.02366
430 4.60826 8.74332 0.225623 -1.48127 -1.50174 1.15341
335 5.5284 7.85226 1.44282 -1.09202 -1.44774 -0.548988
727 5.4908 7.60147 0.338719 -2.21489 -0.561452 -0.40779
421 2.07289 7.59029 5.23193 1.26145 2.27289 -0.792258
112 6.94026 8.07905 0.710378 0.130099 0.16061 0.444668
238 7.14601 7.39591 1.74273 -2.13961 -2.24001 -1.06218
206 7.53042 8.71446 1.37882 -1.77746 -1.28886 0.0253681
183 8.72612 7.15621 1.83572 0.874978 -1.88996 0.280707
827 10.0216 8.22311 0.195135 -0.447166 -0.497613 -0.0634535
845 9.42692 7.26796 1.0626 -0.219093 1.94707 2.00879
837 9.17951 8.77518 0.781445 -0.0897014 -0.212391 0.863529
350 9.97142 8.15572 1.34383 -1.65218 0.898078 -1.70446
771 0.536339 9.39161 0.660438 -1.43552 0.14783 -0.779466
443 1.24969 9.90026 1.47936 1.08114 0.496571 2.49217
814 0.735876 10.4012 0.777947 0.00160958 -0.29098 0.845907
343 2.01911 10.1227 0.758343 -0.233935 0.578347 0.378022
647 2.96746 9.57989 1.15216 1.95303 0.221468 -0.402982
269 4.80193 5.65401 1.91072 1.77088 0.645942 1.72677
133 2.32535 9.16827 0.366138 1.28378 -0.557907 -0.54321
813 3.26916 10.4219 0.590008 -0.117211 0.0256202 -0.309752
763 4.10896 9.46538 0.444285 1.1153 1.32407 -0.548807
788 4.27167 10.3705 1.62748 2.13011 -0.662794 1.32051
47 5.30095 10.3327 1.171 -2.1955 -0.374873 0.705806
616 5.63327 8.99812 0.848721 -2.64297 0.230524 -3.98776
64 8.6448 5.68598 2.4463 0.976212 2.27397 0.228143
299 6.18407 9.9431 1.34603 1.79674 -1.24844 1.18376
557 7.50431 10.1235 1.19658 -2.11167 0.24519 -0.985421
511 6.44203 8.97077 1.30581 -3.15818 -0.694762 0.773965
811 7.21314 9.19455 0.230374 1.83806 1.2685 0.861194
367 6.1009 9.68147 0.221071 -1.46972 -0.394108 -0.5676
637 9.13285 10.1922 0.670491 0.0151747 0.0820692 -1.11799
574 8.87197 9.64699 1.58973 0.382628 -1.51581 0.636059
480 8.25076 9.78422 0.433637 3.36 -0.262613 -1.84602
19 10.5223 9.24184 1.36721 -0.126471 -1.95426 1.55583
78 10.5611 10.2629 1.40565 1.1198 -1.96916 0.198395
102 10.1051 10.3239 0.392262 -0.778218 -0.0172149 -0.327153
482 0.0834306 7.19606 2.6599 -0.72586 0.988013 0.897044
504 0.944077 6.05618 2.95386 1.8035 -1.49809 1.26524
602 0.422365 6.22934 1.9654 -2.92239 -0.0695371 -0.6836
705 1.30659 6.62572 2.25902 0.832225 0.384237 -1.90673
642 2.72343 6.13026 2.3958 0.269354 0.241408 0.925579
8 0.100462 10.0037 4.06532 0.488244 0.128366 -0.313756
558 2.09641 6.50014 3.5715 1.89672 -2.48269 0.681232
84 9.93175 9.46012 4.64488 0.0554319 -0.692914 -1.44503
655 3.16305 6.79887 3.16882 2.44777 1.22989 0.165314
119 3.98351 6.46614 2.25434 -1.61829 1.76711 0.506219
770 4.95023 6.94069 2.62552 1.7717 0.802943 -1.02604
86 5.19805 5.80205 2.99626 -1.29657 0.293248 2.6324
186 6.01857 6.12293 3.58593 2.48957 -1.70555 -0.345315
149 4.31507 7.23541 3.36739 -2.91394 -0.390058 -0.606421
650 10.3962 9.23538 0.00695717 0.884976 -0.782877 -0.0523056
113 6.51635 6.33134 2.44748 1.20663 -2.2717 0.181167
385 6.79715 5.41049 2.91591 0.003755 -0.951736 0.592278
108 7.90042 5.68112 3.27353 0.434882 -2.30722 -1.29261
311 7.97103 6.22289 1.78561 0.241979 -2.23132 1.02635
192 8.41045 6.6257 3.38653 -3.61513 -1.26656 0.290421
736 9.38614 6.42001 3.02703 0.0260702 0.417093 -1.34754
819 9.73318 5.54108 2.28457 1.93219 0.25789 2.0406
701 9.57457 6.57547 2.02918 1.69865 -0.72627 0.829771
787 0.0903386 5.46093 3.05057 0.755914 0.236713 -0.0718654
97 1.00616 7.77999 2.04942 1.71673 -1.5065 -0.760627
449 2.34144 7.75 1.84679 0.925287 -0.991135 -0.737519
563 2.19489 6.91732 2.4723 1.11788 -0.391183 -2.00511
518 4.14558 7.93641 2.4868 0.624073 0.038709 2.44383
738 4.90361 8.63013 2.3623 -1.27147 -0.0312935 0.924131
458 5.81806 7.25562 3.3016 1.30461 0.510776 1.82566
402 5.03301 7.88739 3.07259 0.767464 -0.859869 2.31773
772 6.0981 9.17511 2.26637 0.619117 1.4435 -2.2977
746 5.40673 9.15944 3.09728 2.42434 0.770717 -0.808633
326 5.97773 7.17571 2.16529 -2.29344 -2.15388 -2.28122
472 6.5682 8.122 2.81953 0.062419 0.78518 -0.280186
761 7.43358 8.41708 2.30585 0.620375 -2.32748 1.28942
634 6.71899 7.09317 2.95066 -0.312887 0.561253 0.00130563
475 9.00016 7.32113 2.92272 -0.865383 -1.42024 -0.552484
643 7.93952 7.39303 2.31906 -0.158822 -0.571806 0.876142
635 8.55903 8.4253 1.92767 2.65378 -1.10635 -2.02606
165 8.08069 8.28674 3.42832 0.32277 0.378008 2.0937
374 9.22237 8.34555 3.306 1.61281 -0.339134 -3.30614
479 10.0644 8.07864 2.81345 -0.813888 -0.341218 -0.935729
222 0.967223 9.00308 2.00841 0.483175 0.310295 0.290629
554 0.269873 9.59707 3.12186 0.951378 0.0623968 -0.995027
653 1.64928 9.786 2.71029 1.74346 0.648554 -1.35629
842 0.637534 10.1804 2.21889 0.385091 -0.0442762 -0.393487
675 1.02452 10.5648 3.50362 -0.36078 1.17518 0.680263
850 2.5093 10.0129 3.19908 1.73306 0.64237 0.491238
841 3.21851 9.23335 3.55055 -0.271418 -1.09603 -2.06167
106 2.41691 9.03193 2.28177 2.05791 0.727701 -0.0338609
532 2.93963 10.5901 2.61545 -0.199982 -0.0834498 0.59763
141 1.38596 9.36177 3.65048 -3.67104 1.01397 0.569068