ITEM: TIMESTEP
41280
ITEM: NUMBER OF ATOMS
864
ITEM: BOX BOUNDS pp pp pp
0.0000000000000000e+00 1.0726842421158810e+01
0.0000000000000000e+00 1.0726842421158810e+01
0.0000000000000000e+00 1.0726842421158810e+01
ITEM: ATOMS id x y z vx vy vz
662 0.707781 2.29613 0.341143 2.14062 2.6654 -1.48981
63 0.813708 0.989349 1.29615 2.51975 0.362855 0.686223
420 6.84702 2.35495 0.221611 0.190525 -3.3276 1.49443
71 2.01974 0.893862 0.505218 -0.329817 0.54415 1.48773
222 3.08393 0.723168 1.53414 -2.2064 -0.983629 -0.245412
73 4.16744 0.0174792 1.01172 -2.32087 -1.54126 0.198862
850 3.35927 1.67898 1.10159 1.37884 -0.45185 -0.23823
750 4.23485 0.540057 2.27959 -0.223556 -0.46167 3.17365
30 2.97907 1.04585 0.0432353 -1.1311 1.10792 -3.00148
147 5.96025 0.687973 0.322627 -0.447447 0.854725 -0.369859
284 4.9016 0.890524 0.823512 1.13404 -0.465678 -1.13735
532 5.49444 1.46271 1.4491 0.603727 -0.53563 0.360536
396 5.57439 0.305338 1.36731 0.669017 -0.379196 0.178424
816 6.03361 1.84801 0.697192 1.32368 1.65447 -0.0629074
157 6.75883 0.214306 0.083974 -2.42814 -0.466792 -1.05492
639 7.21707 1.36643 0.364358 -0.888466 0.31737 -2.10429
550 6.44398 0.851697 1.29816 -1.72698 -2.25233 -1.92284
516 6.87538 1.72894 1.40553 1.77978 2.46314 0.223997
146 8.62021 0.315559 0.322134 0.290351 0.513385 -1.63
454 8.68005 1.34626 0.992084 -0.301587 0.456682 -1.06046
491 7.66348 0.482477 1.05772 -0.759395 -1.14839 -1.79899
523 0.0818683 0.474843 0.274134 -1.2848 2.63774 0.872397
167 9.65601 1.71169 1.21605 0.321628 0.844854 1.04762
802 3.80121 2.78449 0.13201 -0.746898 0.0310118 1.5143
804 10.427 0.786089 1.21961 -1.56223 2.38267 -1.05176
433 9.1774 1.39925 0.031476 0.665397 0.682791 0.803528
535 1.42737 2.69197 2.11849 0.87182 0.832423 1.25372
524 0.689548 2.65349 1.37002 1.07662 -0.938072 1.286
236 1.59182 3.40578 1.46926 -1.6532 3.75632 1.6016
53 2.92674 2.16834 0.301325 -0.737197 -0.164699 -1.82931
203 2.15646 2.07313 1.20668 -1.67448 -0.831565 -2.23305
78 9.66201 0.0703463 0.345216 -1.47623 0.406042 -0.543629
843 4.08616 1.40555 0.534477 -0.340036 -1.80824 -1.07157
824 2.90595 2.91982 1.04617 -2.67207 -0.0425077 -0.756737
132 4.05746 2.75666 1.38105 -1.46045 0.125346 -1.07076
139 5.05157 3.06183 1.4484 -2.03121 1.67826 -3.5666
170 5.88296 2.88513 0.261435 0.527071 1.19289 -0.317531
104 6.46222 2.78401 1.14626 -2.03594 1.16665 -1.73407
685 7.80276 2.40138 0.669999 2.39042 -1.39222 1.60748
57 6.3129 4.03147 0.186804 -0.234722 0.389116 -1.72177
248 8.83041 2.92216 0.64169 -1.22747 1.76308 -1.0516
145 7.90275 1.81392 1.75528 0.504333 -0.509738 1.53141
351 9.05452 3.09703 2.11378 -0.383716 0.352284 1.94147
605 0.103604 1.80051 1.15313 -0.192711 -1.02888 1.98946
85 10.2728 1.74402 0.360151 0.685868 -0.832922 0.0745974
64 9.52576 3.50322 1.20555 -1.93795 -0.471026 -1.49103
318 10.5486 2.64413 0.704132 -0.415348 -1.59113 -0.364322
336 0.57878 3.91568 1.5157 2.01639 0.420707 0.188725
148 0.988696 3.18641 0.365673 -0.552446 0.133267 -0.0501696
196 0.161482 5.00365 1.09466 1.34701 -0.79249 1.10842
701 0.678951 4.82282 2.04518 1.01597 -1.43547 0.336162
694 1.44285 5.35537 0.872978 -1.25424 3.11852 -0.804254
707 1.60299 4.54397 1.78071 0.731529 1.34414 -0.855685
397 2.08866 4.16271 1.0113 0.215956 -1.92934 2.0047
614 3.03201 5.06812 1.66873 0.472116 -1.34526 -2.1712
642 3.09704 4.26153 0.99899 0.79254 -0.169446 1.24623
138 4.38389 4.60426 1.35906 1.78557 0.313208 0.0132263
666 1.81024 0.511206 4.79558 -1.34779 1.08666 -1.78034
863 2.18057 0.00644885 1.11278 1.62877 0.14306 -0.346212
473 0.749622 1.22549 0.162698 0.00849378 0.979044 0.754669
276 5.86834 3.79265 1.02082 0.0726307 -1.47986 -1.49069
300 5.5736 4.81198 0.834326 1.00282 1.19075 -0.834016
286 9.6313 0.265621 5.09584 -0.458413 1.47733 1.3096
696 7.80336 3.83291 0.897657 2.39797 0.0626186 0.419104
448 6.94077 3.51188 1.9635 1.96173 -3.35211 1.35977
736 8.68638 4.69625 0.770246 -0.413767 0.418499 -1.16716
198 8.5968 4.38974 1.93164 3.20606 0.839723 0.243272
429 9.84487 4.5028 1.53055 -0.731047 -0.286188 1.40612
201 9.71802 4.17282 0.29161 1.3981 -0.259707 -0.669381
559 10.6944 3.83786 0.288407 -0.520797 -0.415803 1.56883
686 0.0874906 1.23206 2.00295 -0.0533311 -0.713802 1.3757
618 1.23133 1.38425 2.37567 1.84063 0.885668 -2.48043
632 1.09526 0.0662216 1.88948 0.391685 -1.33487 0.733076
209 0.426408 0.562834 3.31575 0.000721774 -0.520617 -0.546031
221 1.93753 0.494983 2.03076 -3.00151 -0.280243 1.04992
66 2.43372 1.44761 1.99301 0.103729 1.49539 0.272503
357 1.94933 1.55712 2.95757 -1.01821 -2.48785 -0.0352863
185 3.23539 1.19755 2.56612 1.07059 2.56533 1.19748
428 4.13019 1.5722 2.0316 -0.410961 -0.645905 -0.325976
281 3.08731 0.213248 2.5377 -1.61038 -0.757287 -0.190929
10 3.73819 0.979961 3.43798 1.37468 0.110244 -1.77362
683 7.36854 4.7752 0.429639 1.11882 -2.0084 1.63302
182 5.38774 0.0474712 2.35791 3.88182 -2.12021 0.0921392
812 6.17229 1.53402 2.41374 0.593533 -0.753666 2.37967
508 4.90206 0.519488 3.36386 0.259806 1.57085 -3.10552
557 4.8927 1.55416 2.76294 0.0508357 -0.297147 -0.784552
32 7.44226 0.872505 2.18101 -0.391527 1.44993 -0.348643
226 7.1451 1.85785 2.38214 -0.220426 0.899506 -0.809467
511 6.67741 0.817856 2.84238 0.400507 0.591791 1.70246
492 6.53983 1.63431 3.35995 0.665704 0.626014 -1.22094
578 8.45409 0.813922 2.12014 1.26691 0.454153 -0.86808
569 8.86722 0.735868 3.38827 -2.06237 -1.67109 -0.328218
579 8.06476 1.32307 2.95815 1.09252 -0.608439 -0.897839
767 1.24423 4.63243 0.0466082 -0.090403 0.946636 0.717684
551 7.78086 0.148855 3.00817 1.43743 0.143993 3.52351
599 10.5248 1.12659 2.89691 -1.68769 -1.33792 -1.11328
480 9.73102 0.887121 2.0928 -1.11955 -3.15718 0.483343
661 0.64947 1.61254 3.42456 -1.28184 -3.87748 1.63147
455 0.313249 2.04294 2.59932 0.351892 2.25847 -0.0735285
692 1.38574 2.41091 3.29682 1.35866 1.44619 3.64574
114 0.46374 3.00304 2.30759 -1.92848 -2.0697 -0.0749901
681 2.82885 2.09595 2.92495 2.49116 -1.24451 -0.932083
426 2.45434 2.94457 2.31306 1.31064 -0.0229967 -0.693402
259 4.16429 2.20285 3.09631 2.58456 1.94741 -0.344788
211 3.116 2.32134 1.9275 -1.31802 -0.989094 -1.16125
96 4.53686 1.49159 3.80222 1.31938 -0.550164 1.29264
509 3.09268 3.45756 3.00078 -0.152056 -1.44379 -1.15181
349 4.80683 2.76194 2.57512 3.98536 1.90467 1.86466
107 4.05348 3.35294 3.38155 0.934626 0.845997 0.970362
561 5.58177 2.52925 3.21088 3.0524 0.184269 1.56117
690 8.14429 3.33373 1.69677 2.55865 -2.47204 -0.736441
529 5.51368 2.21294 2.27467 -0.440281 -2.41422 -0.547286
125 5.86428 3.49595 3.14469 -0.810092 0.459004 0.86768
566 7.31662 2.48493 3.41892 0.22454 0.588344 1.38588
776 7.92146 2.399 2.57065 1.397 0.224552 0.0804502
74 8.92738 1.85923 2.09492 0.464452 -1.50419 0.637342
6 8.51395 2.92588 3.39913 1.08978 0.807263 -0.685093
749 9.72443 2.7519 2.92823 2.1573 -0.107104 2.03726
553 10.2912 2.29896 1.7862 1.3389 -1.74125 -1.55055
807 10.2633 3.44233 2.04532 -0.914677 0.0663749 -1.89744
361 10.6909 3.02539 3.39844 -0.555108 0.0720069 0.964316
324 9.52538 1.63611 2.98168 -0.177329 -0.867125 -1.00448
745 1.06283 3.8124 2.58393 1.06175 -0.294656 3.74095
482 0.538746 4.84768 3.30011 -0.717517 -0.319399 0.647352
762 2.03192 3.99291 2.83394 -0.317818 -1.23245 -0.579794
778 2.79887 4.17872 2.09721 1.50961 0.698307 -2.95442
544 2.24839 5.07635 2.64411 1.11843 -0.103848 0.011285
405 2.92598 4.49641 3.45635 -2.42248 -0.239227 0.28925
173 3.90741 2.9991 2.37461 -0.752891 -1.66629 3.52532
377 3.56072 4.78551 2.46902 1.7469 -0.492091 -0.871617
445 4.46633 4.3705 3.10977 1.97891 0.362233 0.377432
235 4.59683 3.88378 2.1126 0.808454 -0.812464 -1.35148
212 5.6093 3.56348 2.09829 -0.359369 -3.38726 0.0208968
329 5.4166 4.89622 2.10509 0.453617 -1.70558 -1.90162
269 4.93418 5.25616 3.49332 -1.41343 1.54937 1.71018
619 7.60504 4.33309 2.04946 1.36238 -1.87156 -0.0397566
15 6.20917 4.35919 2.10544 -0.205529 -1.35014 -0.0659555
485 7.39135 3.78004 2.87469 -1.10615 -0.992478 -0.498655
143 6.38744 4.4944 3.11629 0.627473 0.571009 -0.270182
680 7.23855 5.16076 2.81021 0.789731 -0.39033 0.443449
586 9.08137 5.11991 1.56752 -1.33154 -0.682637 0.260245
471 8.69121 4.34113 3.52621 1.17163 -0.147292 0.88855
706 9.33963 4.58226 2.57715 2.48635 -0.394615 0.518843
770 8.51099 5.16944 2.4857 0.759407 -1.04089 -0.949035
819 10.5241 4.45887 2.64385 -1.4338 0.253996 0.87146
669 10.4374 4.02683 3.535 -1.18064 -0.014241 -0.592068
365 9.74034 3.05412 0.0319394 -0.163006 0.747825 0.429939
154 1.37828 0.902306 3.64667 1.13138 2.39443 0.121658
631 0.751186 0.967744 4.86134 0.0364165 -1.31969 -0.73036
630 10.6578 0.367018 4.55961 0.162364 0.287594 0.106618
190 2.40506 1.7027 4.87796 -1.93216 1.20499 1.47768
601 2.5902 0.801649 3.8283 -1.17045 1.61523 0.364339
333 2.90841 0.6056 5.05246 0.420301 1.57354 -0.400286
846 3.42564 1.4092 4.52255 0.0530807 1.33684 0.709896
746 3.34047 0.027845 4.1139 -0.514987 0.324595 -0.275248
817 4.2722 0.816631 4.66409 0.520019 -1.05583 3.53331
531 4.06546 1.8171 5.34922 -0.919487 -0.361966 2.614
371 5.20075 0.700227 4.61887 -2.50364 1.8496 1.00196
739 5.52691 1.63125 3.69311 2.52387 -1.35568 -2.18669
159 8.35823 4.18357 5.22395 -2.25374 1.10858 -0.417291
800 7.2303 0.534122 3.8872 1.75402 -1.30189 -0.057684
225 2.22957 2.82028 0.325549 3.7151 0.554302 1.45966
199 6.25131 1.23777 4.6073 -0.447157 2.40223 2.35933
240 7.1757 0.522341 5.055 -0.646721 0.963901 -1.87276
133 3.02898 0.236013 0.5726 2.96575 1.67595 0.0253717
381 8.20038 0.965476 4.28677 -0.401708 -0.35097 1.03647
489 1.44239 0.277526 2.90892 -1.88489 -0.454762 -0.691489
813 1.58104 1.99214 0.0411931 1.48834 -3.19431 1.63434
150 9.69171 0.965704 4.15507 -0.179154 -1.36757 -0.0834408
670 9.8712 1.56693 5.16554 1.60611 -2.13011 -0.566218
765 0.45176 2.34636 4.15334 -1.13809 5.90344 -1.42033
118 1.37316 2.10006 5.04558 -0.331434 -1.98743 -1.36363
156 1.67 2.52833 4.25405 1.45136 -0.28262 -1.76674
478 0.999187 3.23985 3.7825 -0.119156 -1.34162 0.0688731
438 2.85058 2.11602 3.98781 -0.731506 -0.392839 3.17512
424 1.94485 1.55676 4.06209 -0.394315 -1.71441 -0.645187
622 2.33717 3.08619 3.52914 0.803028 0.367385 -0.330906
122 2.39651 3.18351 5.10526 2.32363 -1.66088 -1.20779
822 3.11194 3.51014 4.02313 -0.863753 -0.176692 -1.64904
460 3.73937 2.39036 4.2267 0.123832 -1.78182 0.959421
825 3.1445 2.29938 5.05763 0.199609 2.85823 -1.67989
302 3.65631 3.11153 5.07697 -0.320047 -1.05947 -0.0928968
673 4.38862 3.73253 4.40531 3.43717 1.69412 0.934445
35 6.40463 2.59903 3.88707 1.30127 0.287847 1.33091
294 5.4257 2.11257 4.54699 1.32997 1.21707 -0.018838
41 4.63776 2.83306 4.09764 0.458421 0.843245 -0.339141
506 5.63696 3.53532 4.20807 -0.256535 -0.0284607 -0.709052
564 9.33465 0.00372491 2.86814 -2.95617 -0.0739588 2.92949
752 6.42013 3.15535 4.82289 -1.12373 -1.68678 -0.529949
386 7.22177 2.83255 4.38994 -1.67768 1.78122 2.5696
437 7.098 5.02594 1.52107 -3.12392 0.00803947 -0.341195
717 8.43732 3.39659 4.4554 -1.6935 0.831486 -0.414086
753 7.38471 1.83369 4.73514 -1.89403 -1.41318 -0.587959
470 8.60726 1.87752 3.93536 -0.851908 1.08895 0.137306
811 8.21093 1.05249 5.30562 0.799001 0.302968 -0.241313
452 10.5237 2.453 4.8634 2.5196 0.895815 -0.752721
394 9.97371 1.92649 4.06875 0.630798 1.85065 0.129035
174 9.42538 2.8193 4.20079 -1.14815 0.687261 -0.618805
528 0.390341 4.06948 4.1939 2.80444 -0.959228 0.314645
700 1.29121 3.60546 4.71734 -1.03862 -2.14297 -0.323026
588 0.956554 4.57117 4.99046 -1.71487 -0.382628 -0.0986876
179 2.48559 4.45679 5.15275 0.641973 -1.47668 -0.167959
795 1.63871 3.95225 3.81749 0.614036 0.0379608 -0.059582
105 5.01691 2.27339 0.182403 -1.63789 3.76323 0.319533
171 3.75491 4.34952 3.91385 2.24444 0.996973 -0.858055
197 4.60623 4.87818 4.63135 -1.71324 0.326573 0.0798404
25 7.3299 3.62363 5.08665 4.05049 -2.09495 1.2679
253 7.53332 4.86639 3.7711 -0.140178 0.15946 -2.10095
407 6.46053 5.19723 4.49378 -0.292043 3.02151 -1.91167
418 6.39185 4.13628 4.24251 0.26988 -1.90487 0.619122
3 8.75936 4.94859 4.64839 1.99367 -1.34306 1.81677
575 7.62536 3.90799 4.13645 0.654955 0.70802 0.0469638
725 7.57982 4.92413 4.8156 -1.27804 0.194552 2.05276
103 9.46201 4.79005 3.91287 -1.6227 -2.11785 -2.05377
741 9.28556 3.9808 4.59502 -1.17939 -0.477586 -2.65178
536 10.4937 5.00089 3.95487 -0.809849 -2.35775 0.588201
660 9.85965 4.90497 4.81002 0.0804786 1.4301 -0.968202
229 6.15249 0.534492 3.76916 0.128308 0.538988 1.20731
607 10.455 0.167017 2.35277 4.16016 -1.44074 -1.34738
60 1.96487 5.13998 3.79751 -1.24881 -2.49088 -3.15219
779 1.44687 1.07289 7.08908 -1.64379 -0.837085 0.238499
279 0.571462 0.854359 6.12932 -0.992137 -0.848295 -0.985655
688 0.250602 1.75279 5.66799 0.0070816 0.948592 -2.05157
290 1.48115 0.941297 5.68059 -0.176627 1.49061 1.31833
507 2.50352 0.744206 6.83208 0.0423286 -1.3127 2.32075
704 3.35841 0.72305 6.06788 -0.444594 0.839228 -1.04225
547 3.91633 1.60231 6.38574 -0.160568 2.05656 0.45554
249 3.367 0.69515 7.55943 1.47624 0.698333 0.678795
162 4.21591 0.601374 6.86703 -1.14304 0.766949 -4.36984
195 4.41053 0.952052 5.6703 1.32318 -1.13635 -0.75157
442 2.64606 1.41642 5.93535 -0.522166 -1.23733 1.34442
808 5.47229 1.44966 6.43961 -0.353387 -0.44473 -2.07665
83 5.27762 0.497565 5.75628 -0.565521 1.1683 -0.765813
414 6.22414 2.05341 5.50138 -0.340404 1.27421 -0.152406
298 6.06005 5.0945 10.5184 -0.921832 2.61968 -0.914794
14 6.41807 0.842425 6.07144 1.71941 0.5415 -0.200721
502 7.36555 1.06223 6.11165 -0.406855 -1.63571 1.33578
565 6.45213 1.78027 6.66797 0.677438 1.7706 -0.255255
404 7.92914 5.22805 6.53734 1.08308 2.11992 2.52791
406 0.366418 3.90339 5.61779 1.59767 0.888698 0.579308
17 9.18251 1.83528 6.9325 1.3598 0.639506 1.33299
392 9.58314 1.12745 6.29418 -0.503711 -0.843432 0.863421
2 10.3402 1.14853 6.95663 2.26779 0.571619 0.947488
246 1.04469 2.3757 6.55849 -1.85741 -2.28941 3.05281
220 0.478941 2.87003 5.66387 -1.50412 -0.412194 -1.57505
664 1.75916 3.11219 6.11819 2.43358 -0.100056 -0.250304
533 1.71532 2.17692 5.97067 1.17602 0.461233 -0.349834
67 2.83851 2.70953 5.95564 1.12679 -0.44022 -0.779054
172 1.69216 3.1486 7.36544 -0.135558 -1.96645 1.76101
633 2.47329 2.22302 6.67539 -0.0179346 -0.721609 -0.682854
379 3.68988 2.853 6.58624 -0.794914 0.674937 -0.634669
88 5.88339 2.87375 6.83973 2.17449 -1.132 1.05752
317 4.71755 2.40782 5.7872 0.561436 1.09719 0.458429
161 4.612 4.258 6.14647 0.388405 0.631385 0.711056
459 5.50684 3.73351 5.53786 -0.638813 2.52514 1.09911
713 6.83791 2.61461 7.2532 -0.478918 0.623712 -1.48471
652 7.11956 2.26233 5.73151 1.47266 -0.468593 -0.0309644
393 6.52351 3.46505 6.15749 -0.588598 0.243063 -2.09678
446 7.58942 2.96459 6.51249 -2.80684 -2.85396 2.47273
91 8.16314 1.88951 6.1422 3.5461 -0.0324835 -1.25807
272 8.16471 2.08211 7.16873 -0.373434 2.16591 1.91715
271 8.62945 3.55877 7.27099 -2.21927 1.0146 -0.923643
178 10.5335 2.22769 6.53175 0.663595 2.04949 0.10798
16 10.5487 3.8405 6.40742 -0.310069 1.55991 -1.98868
682 9.72783 3.24477 6.78303 0.0863871 2.18642 -0.572223
283 10.2024 2.94319 5.72559 0.593055 -1.64604 0.505967
499 0.938896 4.6427 6.07068 -2.26614 -1.67207 0.679527
421 0.812492 3.71152 6.4354 0.440762 1.56787 -0.0694712
354 3.04059 3.63185 5.74692 -0.299729 0.903059 -0.447208
126 1.73715 4.00912 5.68909 -1.40998 1.72411 -0.495645
95 2.37903 4.30639 6.43506 -1.24798 -0.850819 1.6504
513 3.42233 4.54277 6.73613 0.338091 -0.512414 0.977186
594 4.88658 4.9619 7.07348 1.38672 1.59561 2.10392
268 3.6206 4.5072 5.68615 -1.86125 0.857992 -1.89242
627 5.45308 3.95807 6.73566 -1.34375 -1.69446 -1.42993
62 5.67803 4.71144 5.93461 -0.387989 0.650786 1.05898
684 6.39758 4.69646 6.641 -1.10693 0.0689396 1.12506
242 7.23209 4.51131 5.94913 0.247197 -1.00259 -2.92833
567 7.65691 4.47685 7.43838 2.82637 0.341018 0.64862
310 2.89074 0.0753193 8.28018 0.197353 -3.45846 -0.288285
729 8.09054 3.93116 6.32386 -2.97551 1.55288 -0.316687
110 8.81756 4.83874 6.51581 -0.923322 0.307388 -1.73547
265 8.53664 5.18697 5.61931 0.289307 0.388182 0.834523
724 9.33268 3.49914 5.72866 -0.0259487 -1.47251 -2.54093
598 10.5134 4.7905 5.7077 -0.0699188 -1.83367 -3.16373
75 9.44788 4.513 5.77199 1.0725 -0.722949 0.512932
343 1.07037 2.20779 7.5311 -1.24996 2.44798 0.597724
697 0.170909 0.608224 7.52609 -0.951279 2.22113 1.42346
815 0.12389 1.97371 8.55827 0.560965 2.33487 0.646382
540 2.35597 1.02817 8.07183 -1.40703 1.32849 0.384095
798 1.01883 0.135377 8.14308 -1.60572 0.341527 -2.06271
389 1.71055 0.141819 7.52697 -1.78762 -1.46875 1.5563
716 3.8118 1.67054 8.48285 -2.02886 0.24311 -1.2254
366 3.28783 1.92903 7.26314 -1.44148 0.793557 -0.710683
312 4.19666 0.714154 8.08455 2.05157 1.49289 1.23074
848 5.68204 0.726603 7.20699 -0.683416 1.59809 1.64946
5 5.09103 1.55632 8.24233 2.36766 -0.958561 1.0502
200 5.04913 0.0337941 8.01128 0.589343 -0.7674 1.00227
218 6.07112 2.17848 7.81733 -2.61222 0.827617 0.247514
303 5.641 0.673174 8.67764 -0.163173 -0.412501 0.528609
844 7.08272 1.64428 7.92771 0.132779 1.30763 -1.54319
359 6.85922 1.06382 7.19538 -1.39938 2.86613 -0.938641
12 6.57605 0.75788 8.18571 0.0728834 1.41581 0.339794
339 8.54613 0.880305 7.63924 -1.69912 -0.65085 1.28345
546 7.77422 0.921938 8.25606 0.0526505 0.189942 -1.47445
457 3.632 4.595 10.3869 -2.5199 2.4643 -0.541808
796 8.91566 0.867518 8.81294 1.19328 -1.28543 3.09258
384 9.49959 0.692306 7.41738 0.588802 -0.604514 0.0791452
803 10.3552 0.725972 8.75377 -0.850733 1.92102 -2.0126
347 9.89363 1.65059 8.25481 -0.280838 0.00800472 0.0323017
658 10.5641 3.43508 7.35209 1.80341 2.14474 1.48109
239 1.262 2.56258 9.12801 2.01917 -1.19027 1.67788
830 1.92716 1.85375 7.55698 -0.628859 -1.23448 0.596306
786 2.07424 2.50291 8.22993 -0.0770852 0.4805 0.351695
260 2.33407 1.64731 8.89936 0.201206 -1.76254 0.25039
431 4.13666 1.49604 7.35877 -2.222 -0.911807 0.43009
788 3.90359 2.61578 8.94294 -2.43602 -0.741346 -0.0304095
137 3.52684 3.02684 7.80531 0.483663 1.30038 -1.58156
555 5.18768 2.28064 7.23776 -1.9629 -1.18894 -0.648431
571 4.7784 2.51014 8.24987 -1.67162 1.52862 -2.95614
604 5.62783 3.11535 7.8066 -2.04383 -2.29622 0.380262
275 4.66906 3.44373 7.80031 -0.79804 -0.595085 -1.25647
413 5.98562 2.71321 8.69955 0.166494 -1.70874 -0.632518
709 6.59903 3.3632 8.19056 0.174431 -0.571176 1.08229
854 8.94423 2.00016 7.97906 -1.73985 1.69335 -3.35171
80 7.48844 2.50305 8.00962 -0.575044 1.44894 1.09042
783 9.09409 3.65058 8.15559 -0.33704 -0.240386 -1.00781
90 7.8979 3.92295 8.21812 1.08252 0.862558 -2.47757
853 8.2843 2.79483 8.70655 -1.75224 -0.727732 -0.237221
526 10.4988 2.96618 8.37446 0.696649 0.388802 -0.743502
388 10.0152 2.40809 7.44284 -0.307757 -1.17507 1.0158
468 9.45883 2.77273 8.43804 0.627096 1.89408 1.44681
383 1.00779 5.07862 7.98003 0.0187244 -1.52952 -0.0208471
153 0.408621 4.33091 8.91141 -0.26124 0.219406 -2.64612
784 1.44687 4.12221 7.84657 -1.48297 0.944282 -0.208861
710 0.52077 4.71417 7.04792 0.801692 -0.277616 -0.416808
287 3.23438 4.25052 7.92289 1.54877 -0.367967 3.08805
742 2.66549 3.34636 8.11474 -1.44867 -0.0442846 1.43412
624 1.62465 4.79084 6.95938 0.572269 -0.153182 -0.495465
58 2.16662 4.42474 8.62371 1.45465 -1.62061 2.64053
160 4.45559 4.42283 8.08167 2.08432 0.792916 0.00648704
519 3.19866 4.85631 8.72156 0.333899 -3.2718 1.83791
737 3.7998 3.86299 8.97073 -0.344575 0.685851 -0.24389
308 5.93051 4.24248 8.71466 0.145706 -1.02326 -0.173017
799 7.18772 3.48994 7.41546 -0.0377482 0.357182 0.100203
496 7.06112 4.52489 8.25297 -0.126209 -0.987041 1.60129
124 6.28219 3.88062 7.44246 -0.258173 -0.376643 -0.194539
395 9.88746 3.81977 9.09033 0.415762 -1.34409 -1.35735
21 8.61402 4.69092 8.715 -0.147779 1.01092 0.439768
629 8.87752 4.72845 7.75872 0.764225 1.35537 1.88257
36 10.1435 4.43315 7.03319 0.110705 1.84533 1.41361
92 9.95026 3.90258 8.06403 1.52185 -0.645943 -2.54425
596 10.3428 4.9043 8.14443 0.0607343 2.18488 -1.58644
495 10.4088 0.434205 5.84958 1.05475 2.86624 -0.564204
254 0.323116 1.19618 9.58225 -0.851806 0.294241 -0.700145
320 1.56989 0.825655 8.61317 -2.27488 -0.270099 -1.60794
301 3.65452 1.74966 10.3829 1.96396 1.77223 2.14977
70 10.3723 5.10776 9.14582 0.633981 2.52791 -1.28185
129 1.84154 0.853744 9.69681 1.29495 -0.356381 -0.898869
208 4.68737 1.37946 10.5207 2.45307 -2.25588 3.20792
537 3.27897 0.879584 8.88952 -0.10449 -0.759071 0.254176
89 4.03437 0.704073 9.71948 1.55225 1.58344 -0.75525
792 4.93626 0.216112 10.4669 -2.71562 -1.13679 0.500928
331 5.18274 0.694153 9.52606 1.32878 -1.67621 0.0454588
656 6.1885 1.78401 8.82107 0.856503 -0.766969 -0.252207
735 6.17148 0.629778 9.55677 -2.84633 -1.84373 -1.97784
130 8.70613 3.79228 9.20195 -2.27574 -0.448769 3.07768
263 7.09965 1.17216 8.96739 1.88542 1.1093 -0.714342
375 7.20361 0.903271 10.0058 1.90585 0.236555 1.21037
603 6.2356 1.50703 10.5224 -1.5103 -1.29119 -1.0054
342 8.12113 0.933214 10.4864 -1.02758 0.705591 -0.406005
408 8.01221 0.802209 9.27705 -1.59284 1.17415 0.275578
740 10.4185 4.03085 9.87442 -0.566312 -1.17642 -1.87673
650 9.82478 1.3054 9.33429 -0.494108 -0.0930159 0.501315
353 10.1133 0.20768 10.0028 2.47154 0.527779 -2.39314
87 2.71721 3.69963 10.6669 -0.782772 -0.450771 -0.911294
181 9.16746 0.721525 9.99998 -1.06451 0.858801 0.100891
782 10.3363 1.06321 10.3315 1.24574 0.022836 0.289697
649 0.226166 3.0428 10.4428 -0.936776 2.65797 -1.28056
570 0.559832 2.20623 9.89847 -2.55414 2.22484 -1.51231
378 1.19916 3.15889 10.1433 0.315781 -2.11857 2.1663
184 1.32318 1.54912 9.29831 -1.51989 -4.38487 0.859583
467 0.545882 0.27661 9.10738 1.40048 1.48403 0.809029
763 2.19257 2.09321 9.82522 -0.986797 -0.749869 -2.82889
416 2.85939 3.522 9.40542 1.89435 1.58215 0.805044
626 3.04431 2.54599 9.88564 -1.80231 -0.984912 0.546159
115 6.98888 5.3263 7.10336 1.35866 -0.538076 1.51428
227 3.82585 3.41341 9.96126 0.608919 0.488716 2.41413
280 4.78494 3.19924 9.1935 0.254908 0.239197 0.000760297
50 4.54987 1.80348 9.14735 0.26154 -3.3164 0.162545
322 5.42321 2.03415 9.76662 0.25213 1.53732 0.174364
230 5.21797 3.22958 10.1225 -2.85385 -1.37751 1.26835
398 6.58938 2.32888 9.79728 0.525746 -1.15073 -0.0534017
252 7.04806 2.36266 8.85404 -2.39995 -0.700355 -0.0786286
720 8.2556 2.96457 5.79969 1.25185 -0.346667 1.17471
476 7.61058 1.83581 10.1642 -0.971566 0.322279 -1.65512
99 8.2952 1.83055 9.05983 -1.21801 1.31779 -1.43874
385 8.18247 2.85966 9.81754 -1.76394 -1.20825 2.68012
805 10.3813 2.83752 9.53965 -0.917786 0.242732 -0.576682
400 6.81851 0.0724772 8.92484 0.257188 1.06555 2.02683
382 9.12817 2.03095 9.69216 -1.80377 -0.0335261 0.0222746
261 5.20935 4.19361 10.5863 -0.521245 1.20789 0.656099
864 0.534225 5.31409 9.83047 -0.725726 1.49612 1.22167
758 0.692037 4.07951 10.3456 0.649601 1.41203 0.190615
595 8.49685 5.14844 9.68699 -1.11121 -2.29127 0.0588094
244 0.713526 3.60857 9.51028 -1.27845 -2.4559 -0.906424
69 7.84313 3.93823 9.69497 0.615921 -2.05721 4.14983
512 1.74313 3.77014 9.35688 -0.728301 -0.359673 -1.70183
461 1.43583 4.69396 9.45037 -3.35782 -0.444181 0.131527
131 2.57027 4.42657 9.63168 -0.408877 -0.0430667 0.0359631
188 4.46544 5.16763 10.6546 1.81664 -0.726237 -0.642842
358 4.39839 4.96501 9.14051 -0.838098 -0.901917 0.875231
231 4.76179 4.12107 9.638 -0.187694 2.20252 -1.84884
505 5.70668 4.59777 9.70896 -0.481479 -1.18465 1.00632
168 5.25774 4.89706 8.76778 0.49676 -0.35293 -2.18565
250 5.84835 3.64586 9.45285 0.517757 -0.0397073 0.463989
462 0.787528 0.506304 10.1103 -0.266876 -1.0625 2.2404
180 7.40727 5.30403 9.61197 0.674812 0.633107 -0.45103
474 6.91125 3.5085 9.26749 2.03978 -1.61892 -0.194527
297 9.67185 4.88099 9.95421 1.59878 -0.725973 0.489356
166 8.66201 4.28059 10.4332 -0.355239 -0.840074 0.634986
316 6.51268 0.128629 7.17086 1.06572 0.535645 1.47986
266 9.0787 2.29591 5.46964 0.269065 -0.94123 1.8748
245 4.56308 3.30448 5.39866 -1.309 0.118513 1.48996
380 5.47585 0.0141036 6.58601 -1.24049 1.80164 -1.49891
291 9.5872 0.0280519 6.35867 0.37729 1.98963 -0.857164
657 2.64598 4.71337 10.7109 2.13115 0.0535326 -1.32893
355 10.711 4.80742 10.7218 -0.872509 -1.86743 -0.886765
323 6.56332 4.07586 5.38336 0.430881 -0.496371 1.07152
192 0.170208 6.04493 1.20249 1.85889 2.06619 -1.21007
558 1.12976 6.48498 0.397811 0.671659 0.197702 1.06524
233 0.345551 7.24137 0.232469 0.705155 1.12407 0.658344
295 3.04693 5.40123 0.636422 0.0589071 -1.75774 -0.846508
189 2.62773 6.76748 0.648389 -0.268108 -0.363864 -3.63436
285 4.62824 10.6436 5.31405 1.69685 0.0701742 -0.57989
270 4.06856 5.98371 0.471629 1.5327 0.272504 3.15462
659 2.80593 6.08413 1.88031 -2.28653 0.911115 0.918873
463 3.92771 6.60893 1.59276 -1.12259 1.66412 -0.0130715
672 4.84148 5.50996 0.977659 -0.803243 -1.48261 0.230871
40 5.37148 6.75321 0.740912 -2.01017 0.199757 1.48749
829 4.73908 7.15536 1.49212 -1.99831 -1.52693 -1.69466
674 4.59901 7.20933 0.0989546 1.62307 -0.165634 -0.233027
55 6.2568 5.74421 1.13354 -0.00473218 0.0683556 -0.20324
360 7.39791 5.7 0.695631 -2.71059 -1.07744 2.56545
775 6.72349 6.95055 1.39006 -1.21988 1.15638 0.903883
86 6.91397 6.70659 0.373335 -0.928647 1.47905 1.22294
768 8.22008 5.57094 1.28049 -1.235 -1.93889 -0.0246922
574 8.21137 6.55689 0.529839 1.57564 1.44226 -0.967086
415 7.39456 6.1096 1.68669 0.146659 -0.709814 0.325387
623 9.32144 6.89491 0.809203 0.629221 1.16629 -0.910196
458 9.17008 5.70724 0.541674 -0.557116 -1.02168 2.44833
24 10.0488 5.6556 1.61683 -0.146684 0.40613 2.07517
827 10.3008 6.71494 0.683078 0.929379 3.73224 2.38914
634 0.826072 8.19311 0.572064 -0.70048 -0.722731 -1.23218
617 0.672546 9.15928 1.12669 -1.31405 -1.82245 -1.1504
838 0.695746 6.651 2.15302 0.575396 -0.53964 2.92013
34 0.822432 7.219 1.28598 -1.51866 -0.34569 0.0941043
520 2.38174 7.80613 0.918368 -1.76066 0.556404 0.686854
350 2.03281 7.92243 2.13148 -1.12444 0.37838 1.42572
754 1.6183 8.46462 1.06808 -0.882507 -0.125642 -1.28491
367 3.23062 8.33773 1.28649 -1.48945 -0.0886005 -2.35464
332 1.54021 7.38702 0.279592 -1.7217 1.38306 -0.195995
583 2.33789 8.81948 0.0860236 -0.687723 -0.849896 0.636911
191 3.52091 7.31274 0.86914 1.25992 -0.412763 -0.263933
647 3.88598 8.20265 0.550155 0.110677 -0.445217 -0.582801
857 4.38094 8.10772 1.45632 -0.225681 3.8928 -0.114279
503 5.00247 8.14452 0.530859 0.324219 1.72547 -0.757333
311 5.61241 8.18307 1.36117 -1.22468 1.64842 0.850288
362 6.83292 8.05791 1.86054 -2.4907 -3.48536 0.85049
761 7.35154 8.00909 0.408786 2.52594 2.13938 -0.154322
296 6.37386 8.21458 0.382156 1.4229 -1.46498 -0.116866
748 8.60755 8.08122 0.835832 0.995271 -2.95178 -3.16645
136 7.6448 7.60441 1.39066 -0.806087 1.36612 1.23649
45 10.7075 7.74466 1.10847 0.251467 1.94212 -0.170661
356 9.85216 8.76089 1.07764 -0.0253589 2.73329 -0.727997
193 9.42814 7.86751 0.21085 -0.709645 -1.35703 -1.61673
834 0.811113 10.5393 0.709871 0.109054 0.12183 1.22919
771 1.44235 9.30664 0.160642 0.121795 0.112502 -0.765686
828 1.55023 9.70084 1.03364 1.61527 -1.69037 -0.198066
687 0.217697 9.87709 1.56127 -2.15968 -0.147412 1.39138
39 2.39565 9.98436 0.488558 1.46932 0.0874569 -0.645798
187 7.43629 9.34154 4.32987 -1.82568 -0.284527 -0.611986
790 2.50634 9.03298 1.01114 -1.80294 -1.36284 -1.38143
759 3.45804 9.97589 0.767282 0.483693 0.153728 -0.507957
436 4.10542 9.25155 1.64299 -1.9053 -0.0169033 0.960158
810 6.34014 10.6869 5.22825 2.82153 0.259516 0.22733
568 7.76646 10.6214 4.35728 -0.560039 -1.60602 1.34184
539 4.38772 9.22136 0.630109 -0.511498 0.272507 1.56712
77 5.08458 10.11 0.850608 1.68108 0.625599 0.385169
447 5.74302 8.99649 0.699995 -1.31487 2.48319 -1.89097
273 7.03354 9.15371 1.08445 1.38679 0.3518 0.986042
307 6.71446 10.5553 1.43311 -0.391681 -1.15402 3.52065
411 7.34993 10.019 0.505416 -0.0273901 -0.125083 -2.27479
591 6.68617 9.16313 0.143496 -1.13979 -0.887633 0.300711
101 9.37492 9.82617 0.811575 1.32671 1.03209 1.73426
845 8.16367 8.67951 1.44546 -0.451175 0.905385 0.738737
102 8.44162 10.2159 1.26225 -0.715204 -0.451309 3.23614
42 8.36778 9.01715 0.538783 1.32605 0.278689 -1.42633
387 9.49463 9.63725 2.21288 0.10222 -2.05186 0.259284
581 2.20411 10.2496 5.04543 -1.67464 0.604587 -2.07317
668 0.0151566 9.75325 0.478242 0.701457 0.286501 -1.02874
572 0.946721 7.82255 2.80893 1.79717 0.887598 -1.43515
121 1.61537 5.77077 1.96799 0.948546 2.4399 -0.240942
37 0.0386249 5.80212 2.53094 -2.93774 1.32556 2.82541
363 1.14776 5.48207 2.96331 2.65465 2.51984 -0.479623
345 1.90192 6.75065 1.68373 2.74761 -0.372476 -0.409106
556 3.10733 5.58974 3.09355 1.88103 0.938204 -2.96589
237 2.29798 6.13473 3.65445 2.87833 -1.82927 -0.580111
372 2.63765 6.98349 3.04094 -1.39729 -0.56365 -1.73318
702 4.02508 5.54676 1.70485 -0.333423 -1.34239 0.203891
655 3.75513 6.54209 2.6555 -0.921725 0.832493 0.744067
417 4.13688 5.46543 2.87137 -0.298395 -0.738761 -1.37325
68 3.85442 6.90643 3.65731 -0.508716 1.60533 -0.327021
590 5.68623 6.16803 2.85864 1.82555 -0.389519 0.97707
862 4.83019 6.65918 2.52914 -0.770414 -0.528021 -1.12512
119 5.63793 7.22942 3.24679 -2.35523 0.0450443 -1.13283
835 7.75188 7.0873 2.30818 -0.628242 -0.213048 -0.145231
204 6.36579 5.94675 2.13122 -4.00686 1.03225 0.892151
518 7.29132 6.27105 3.30971 -0.705797 -0.307735 1.12285
643 8.30659 6.3181 2.66954 1.53966 0.130428 -0.744961
238 8.42936 6.64391 1.63171 -2.17683 0.88406 -0.786822
149 8.1589 5.73064 3.87535 2.85919 -0.13009 1.32082
602 10.4115 6.73578 2.13262 0.819265 0.635424 1.20853
820 9.70367 6.4528 2.8069 0.532683 2.4038 -3.15108
543 0.15671 8.72013 3.06382 -3.56148 2.31743 -1.05425
449 1.10143 8.80855 2.03453 -1.71485 0.591002 0.336929
521 10.6712 8.52872 1.71779 2.19219 3.42132 -1.19242
466 2.79708 8.15215 2.77968 0.194156 1.52204 -2.41975
340 3.02576 7.147 1.68872 -0.865542 0.77504 3.66578
747 1.64814 8.58956 2.92216 0.186241 -0.8702 -1.74538
636 3.79779 7.65781 2.19326 1.16826 1.32829 -3.60124
328 4.41334 8.67177 2.81443 1.61509 -0.737995 2.34052
552 2.90813 9.10131 2.06514 -1.98998 0.0979658 -3.82533
738 5.80116 6.96572 2.03916 0.686129 -1.13305 -0.755102
140 4.69821 7.6404 3.06049 -1.37232 -0.0987814 0.819274
274 5.62846 8.46709 2.59829 -2.07607 -2.04402 -0.981346
715 6.65122 7.13466 2.89392 -0.828838 -0.322908 -0.905994
616 6.79889 8.12476 2.90044 -1.16578 0.212414 -2.99325
113 8.31733 7.86941 2.51533 0.760736 -0.270558 0.537998
814 8.76403 8.85414 2.40465 -0.692188 -0.558296 -1.17191
621 9.22766 7.85141 1.61072 -0.280228 0.55262 -1.75772