ITEM: TIMESTEP
43200
ITEM: NUMBER OF ATOMS
864
ITEM: BOX BOUNDS pp pp pp
0.0000000000000000e+00 1.0726842421158810e+01
0.0000000000000000e+00 1.0726842421158810e+01
0.0000000000000000e+00 1.0726842421158810e+01
ITEM: ATOMS id x y z vx vy vz
605 0.475478 1.784 1.60142 0.360087 -0.872453 -0.256167
473 1.66275 0.867481 0.852557 -1.03896 -0.609572 -0.880212
834 0.795517 0.21997 0.483982 1.12716 1.84295 1.16651
462 10.5301 0.35518 0.232665 -0.378861 -2.27064 -0.0992955
632 1.06046 0.651427 1.63429 -0.938074 2.10583 -1.44199
63 2.20069 0.502052 1.47967 3.47749 -1.04613 -0.619408
741 8.31432 5.02022 4.15425 -2.06818 1.15734 -0.406971
850 2.63697 0.75437 0.427809 -2.41925 -0.897108 -0.848797
105 2.22214 1.52936 1.75055 -0.703891 -1.3284 1.25547
73 4.09079 0.190592 1.52963 0.700725 0.706196 1.69298
284 3.93844 0.465785 0.311721 -0.326581 -1.01985 -0.0999394
412 3.27617 1.25642 1.14008 -0.87593 3.10923 -1.70193
630 9.6921 0.0447355 4.52263 0.905436 1.17808 -0.965118
843 4.48109 1.83796 0.286993 -1.14055 1.70378 -0.479104
147 4.92359 0.67288 0.507711 -0.586865 -0.286626 1.21577
532 4.23342 1.17404 1.10133 0.291621 -0.144556 -0.321361
550 5.7057 0.613334 1.35457 1.15994 -0.253862 0.889547
208 5.3854 1.62738 1.05244 -0.521369 -0.00773826 -0.0156495
123 6.17401 5.36286 5.19287 1.70512 1.1512 -0.973047
628 8.25637 5.35645 0.3349 -0.185787 1.4587 0.841691
516 7.04493 1.0338 0.49577 0.10823 0.0786647 -0.65406
342 8.00569 1.22138 0.333709 1.53179 -0.786599 -0.10886
603 6.01025 0.764555 0.145438 0.733375 0.404206 3.40577
275 5.68251 4.25233 5.03783 0.0591207 -1.6024 -2.19456
32 8.00518 1.13866 1.49906 0.175 0.0461271 -0.875884
146 8.61732 0.377467 0.780347 -1.79578 -1.44024 2.6539
454 8.6227 1.96716 1.2471 0.942077 1.6933 0.0558021
433 9.10923 1.64481 0.396532 1.02777 0.7939 -0.107263
523 10.6955 0.741031 1.25347 0.744751 0.34076 1.2068
782 9.5485 0.596943 0.262518 0.830067 -0.140616 -2.17346
78 9.55274 0.585826 1.50538 -1.34689 -0.582234 2.07286
524 0.795502 2.67267 2.00422 0.331514 2.45294 0.316914
203 1.62386 1.98806 0.816713 -0.0952303 -0.877558 -1.69068
491 7.69513 0.0314715 1.17169 -0.0452824 0.559277 -0.269223
114 0.789164 3.4642 1.00738 1.95059 -0.182192 1.75031
559 0.474707 3.16131 0.103656 0.7744 -0.356481 -2.40254
758 1.94992 3.02968 1.13613 -1.25359 2.20096 2.17965
824 2.99485 2.82235 1.40181 2.77629 0.183342 -1.40396
225 2.43335 2.68823 0.152727 -1.03721 0.820924 -0.142988
428 4.32067 2.31298 1.31304 0.579129 0.969308 -1.88593
132 4.64704 2.97195 0.553455 1.13217 -1.75861 -1.50365
529 5.45657 2.61385 1.95135 -1.64704 0.970447 1.39529
300 5.79632 2.70333 0.169867 1.41787 -1.87898 -2.79563
329 5.37102 3.57966 1.21584 -1.26976 4.78793 -0.984301
276 6.39931 2.9374 1.08758 1.10323 -2.22482 2.85061
170 6.66719 3.27451 0.0749647 -0.832877 1.476 -2.39215
104 6.71464 2.10836 0.00490716 1.19751 0.0800977 -4.35431
15 7.48656 2.89561 0.728768 0.23261 0.719827 0.978462
448 7.48204 2.64548 1.78004 -0.340602 1.31326 -0.403965
420 7.86581 2.31415 0.128943 -1.42201 2.29978 0.771619
662 10.5952 2.59769 1.4664 -1.04715 1.7719 -0.618373
167 9.48864 2.78159 1.3499 0.53331 -1.55127 -0.59241
85 9.72361 1.86114 1.53814 2.12536 -0.925347 -0.411553
248 9.91508 3.09873 0.301615 -0.166873 -3.02862 0.737323
365 10.1458 1.79045 0.675833 1.24809 -0.689865 0.446304
479 0.713771 4.64527 1.15106 -0.747538 0.369913 2.21188
694 1.24785 5.29721 1.88919 -0.428848 0.0118157 1.67577
461 1.05163 5.12002 0.238728 0.343624 -1.35877 1.20939
767 1.8089 4.2127 1.45834 -0.730269 0.775518 0.565432
236 2.72281 3.93092 0.96972 0.841181 -0.779028 -1.94535
642 2.72541 4.92598 1.65607 -2.23104 1.48203 2.43306
715 4.82691 5.33551 2.6421 0.329388 -1.32747 2.17106
501 2.40047 4.8498 0.603234 -0.670247 -0.643181 0.239767
802 3.72413 3.40574 0.729069 -0.411182 -1.36294 -0.224515
138 4.5607 4.13807 1.26177 0.973893 2.04767 -0.274306
295 3.63825 4.54236 0.778132 0.00999439 -1.64677 -1.27824
556 4.37996 5.07286 1.67354 0.0291245 -1.17642 -2.05253
298 5.73272 4.01138 0.0519662 2.10158 -2.73562 -0.0112415
437 5.43996 4.80803 1.22432 -2.58221 -1.1485 -1.31599
55 4.67953 4.62128 0.0998031 -2.88311 0.1065 0.188723
180 6.39906 4.20792 1.08518 0.3506 -0.971891 0.011456
696 7.62621 4.59177 0.876534 -1.11822 0.425076 0.605322
680 8.05801 3.88057 1.33257 -1.21714 1.05754 -1.17291
510 10.7012 5.11517 4.92533 0.629597 1.08183 0.535179
619 8.54797 3.52136 0.173268 1.66293 -0.581664 0.492556
64 8.88976 4.52032 0.55373 -0.755176 -2.19367 -1.69636
148 10.4902 3.9891 1.2198 -0.891467 0.742839 -0.344306
196 9.09543 4.71991 1.67843 -1.9839 0.466585 1.08665
807 9.08841 3.57833 1.66448 1.52755 1.79538 1.24417
201 10.5207 3.95933 0.15378 1.47304 1.61401 2.16662
233 10.3061 5.28049 0.877466 1.35303 -1.09586 0.268012
409 9.29246 0.00638939 2.39428 -1.16798 0.321723 -2.86788
489 0.500903 1.13667 2.73756 1.33894 -0.805736 -2.52654
281 2.61427 0.269348 3.12843 0.25553 -0.217217 -0.0784238
66 1.8211 1.50999 3.03341 0.377009 2.21679 2.2826
222 3.33171 0.623543 2.40321 -0.561223 1.39152 -1.15312
750 3.86794 1.55528 1.95309 1.28009 1.11543 -0.679472
185 4.04566 1.46292 2.91738 -0.522097 -1.32422 0.747194
557 6.25103 0.802952 2.60506 0.883445 0.122481 0.776478
259 5.27491 1.27152 2.83822 3.41183 -2.12255 1.66429
212 5.73117 1.65553 2.10177 -0.909649 1.4285 -1.32834
435 4.74458 0.277801 2.47294 -2.80901 2.27176 0.699584
812 7.03961 0.530052 1.81235 -0.476452 -0.591394 0.639836
226 6.65612 1.67914 1.51493 -0.0863418 -1.41666 -2.14778
485 6.61721 1.21293 3.40889 1.01708 0.244533 1.23345
182 7.41606 0.812455 2.84077 -0.164698 0.245195 -0.196155
578 9.03153 1.30189 2.03623 0.586856 -1.33624 1.99807
338 8.23913 0.199899 2.20122 1.99749 0.989766 -1.25369
579 8.14412 1.52803 2.52418 -0.479506 3.75785 1.43004
551 8.64898 0.13547 3.65253 -0.22591 -2.07556 0.910986
480 9.00735 1.28697 3.49147 -1.60111 -0.894616 -0.503698
804 10.094 0.950302 2.27765 2.30889 0.688733 0.0340798
607 10.5121 1.91813 2.31578 -1.20185 2.51752 -1.48002
599 10.1708 1.3067 3.41232 -1.58637 2.39003 -0.221935
35 6.6316 4.97785 4.33827 1.62911 0.849439 -1.10305
768 6.46218 5.12509 1.88725 -2.18887 -3.01516 -0.335835
221 1.23846 2.34365 2.97685 -3.96277 1.88351 1.3487
535 1.68472 3.53231 2.31563 2.46992 0.0202458 0.000377209
618 0.0472612 2.73127 2.78896 -2.45679 -0.513371 0.705577
426 2.30342 2.67087 2.08379 3.60016 2.02561 1.10303
681 2.29391 2.38425 3.12478 2.59415 -0.461491 -0.075229
211 2.94647 1.89684 2.46249 -1.37344 0.752518 0.995043
394 1.77554 3.22384 3.39808 0.89708 0.182359 -2.25711
173 3.56526 2.84476 2.35494 0.430759 -0.189922 2.37423
739 4.02718 2.65882 3.39131 -0.827152 -1.13146 0.329491
816 4.55979 2.29805 2.37973 -1.19348 -0.277433 -0.197635
235 5.49197 3.27891 2.92113 -0.902751 0.0671926 0.809884
377 4.61073 3.49399 2.13886 -0.731225 -0.173142 0.00464499
776 7.34124 2.22554 2.67782 -0.745313 0.267816 -1.88005
125 7.06207 3.34574 2.46628 0.644989 -0.533401 -0.11501
471 7.1879 3.40536 3.50707 -0.164969 0.0210788 1.91633
294 6.27189 2.5111 2.47735 -0.0462917 -0.491983 1.45796
74 8.44161 2.6085 2.24152 0.794883 1.61268 3.72566
145 8.39503 2.21295 3.39308 -1.49912 -1.7522 1.19941
324 8.13418 3.19976 2.98481 -1.23071 0.284349 0.980009
318 9.92083 3.18219 2.491 -0.149198 -0.55958 0.270996
553 9.64247 2.11187 3.12336 -0.910726 -0.507092 -0.330191
690 9.19727 3.29501 3.1151 -1.63653 0.526833 1.13485
351 0.433408 3.74121 2.34783 0.935643 -1.53808 -1.20605
361 1.10821 4.64998 2.87782 1.16821 0.72216 1.10171
614 3.20578 4.86131 2.49947 3.37609 -0.264001 -0.251889
745 2.1095 4.44619 2.3655 1.8741 -1.87233 0.0929957
60 1.96943 4.1159 3.64074 0.809124 0.846051 0.709103
762 2.98029 3.65986 2.56128 -1.01238 -1.07333 -2.27454
509 4.03341 4.19049 2.92805 2.05898 -1.22209 -0.201188
778 3.70186 4.32328 1.73249 -0.347487 0.0144908 -0.931778
204 5.17488 4.35594 2.24948 -0.422371 0.739958 -0.0843941
445 4.96862 4.34294 3.35578 1.86854 -1.41259 1.78099
403 0.0357045 0.10492 3.26644 -1.17032 -0.172761 0.21485
415 6.1577 4.07765 2.53492 -1.81724 -0.659401 -0.599104
143 7.57805 4.30378 2.25243 -0.583174 1.86607 -0.591768
725 6.67408 4.57792 3.15944 1.61457 -0.562299 0.449723
6 8.8414 4.32538 3.64086 2.51142 -0.272821 -0.673781
706 7.49756 4.71628 3.59481 -2.06583 0.793345 -1.47277
198 8.57519 3.97692 2.35967 0.676682 -0.634437 -0.609966
586 9.19266 5.19157 3.08166 2.04558 -0.265544 -0.371991
482 10.4737 4.63767 3.09044 -0.279101 -1.09085 -4.48149
336 10.5757 4.62259 1.94033 1.25798 0.874958 0.413702
819 9.357 4.3433 2.65008 0.0239262 -1.38115 -3.78326
154 0.884544 1.13463 4.80143 0.700304 -2.37125 1.66531
688 0.304952 0.565194 4.10396 -0.568159 0.447853 -0.110917
195 4.41313 0.616085 5.25009 1.20736 1.46522 -2.03722
333 2.50622 0.2184 4.75489 -0.16384 1.86777 2.80729
357 1.8181 0.966172 4.12043 0.489819 0.787227 -0.133351
24 0.371167 5.32192 3.45454 -0.807623 0.382051 0.78858
424 2.38816 1.41288 4.81226 -0.658447 -0.41299 -0.639349
575 8.14508 3.94887 4.05369 -0.109021 2.78163 0.981115
846 3.1261 0.699827 3.91965 -1.20203 1.25546 0.684283
190 4.21585 1.37486 4.45426 1.38042 0.271634 -0.375965
508 5.44789 1.34374 3.86834 -1.9519 2.55031 1.30143
10 4.71505 0.373051 4.22075 1.76587 -2.73928 1.12268
371 6.0605 0.423869 4.43145 0.39753 -1.06916 -1.95523
531 5.34282 1.16908 4.8948 -1.43924 1.46508 -0.341103
144 6.56934 0.0669542 3.43211 -0.640606 0.703996 -0.332533
511 7.2052 0.741581 4.57603 1.15101 -1.04743 0.66366
414 6.27582 1.55709 4.52365 -0.660739 -0.281553 -1.39392
492 7.30865 1.79363 3.74373 -0.924092 -0.00358211 -0.98792
51 8.65615 0.473097 5.07801 -0.81522 1.88256 0.57464
800 8.11031 1.1648 4.0279 0.683472 -0.786407 -0.338477
286 7.81086 1.02196 5.26477 -2.00873 0.953593 0.67904
3 7.55274 4.52595 4.75506 -0.194832 -0.0192396 1.08279
661 9.60735 0.986607 4.162 1.12159 2.53108 0.472287
150 9.00299 1.5011 4.93714 -0.955888 0.0876697 0.723404
670 10.5818 1.39241 5.16874 0.699352 -0.534235 0.94207
441 10.1834 4.09624 4.67005 -0.310522 -3.56164 -1.2311
536 8.87503 4.35165 5.01413 -3.03318 0.427845 -0.690429
686 0.587891 1.77443 3.74898 -1.23749 -3.36685 1.3228
765 0.75589 2.93366 3.626 1.06994 0.361788 0.196114
452 0.654678 2.25797 4.78964 1.40124 0.69432 2.02129
598 0.280932 3.21858 4.41425 -2.38709 2.21861 -1.93761
692 1.87381 2.00742 4.06002 -0.544229 0.12422 0.114058
156 2.84536 2.26858 4.26525 -2.39289 0.780467 -1.66759
700 2.39458 2.83929 5.18466 0.176488 1.07172 -0.769499
179 1.23734 3.43458 4.49303 -1.81122 1.26479 0.242684
622 3.14319 1.56707 3.33257 -1.31831 -2.59472 -1.39884
438 3.73477 2.88451 4.53758 -0.0621532 -1.53328 -0.0929316
825 3.97581 1.91468 5.2206 1.09046 -1.93738 0.962065
822 3.30664 3.25191 3.56539 -1.16842 0.609388 -0.616003
561 6.20507 3.28733 4.18705 3.67278 2.48881 0.422455
96 5.99883 2.34369 3.90323 0.971958 2.20569 -0.989932
107 4.74789 3.22118 4.20853 -0.578953 0.284837 0.213381
460 4.80343 2.13908 3.98504 -0.538067 1.86351 -2.3612
41 5.43268 2.53959 4.92511 -0.0768169 -0.432465 -1.59213
566 7.37849 3.33669 4.48759 -1.60487 2.46324 2.28449
717 8.58143 3.14253 3.92808 -2.29936 -0.292022 2.10667
470 8.10939 1.8531 4.75413 -1.01125 1.82373 3.9776
174 8.01059 2.90014 5.22091 1.46563 -1.99175 0.852919
266 9.73741 2.26847 4.98875 0.672291 0.593378 1.0093
455 10.2341 2.50712 3.93536 2.39295 2.7889 1.3863
749 9.79544 3.2073 4.54804 0.307156 -0.926434 0.047093
569 9.02323 2.30045 4.20281 -1.78698 0.328338 0.808279
669 10.0562 3.84722 3.68846 -3.84918 -1.53946 0.920203
406 0.633577 4.00889 3.63736 -0.67401 0.146435 0.643579
478 0.487643 4.23541 4.92353 -0.687987 3.05853 0.460341
528 0.951742 5.14198 4.69271 -1.70713 1.05038 0.281239
795 1.65447 4.45847 4.88808 0.584815 0.0884832 2.02294
405 3.02089 4.37894 3.50412 -0.290027 -1.37609 0.228094
237 2.16382 5.07393 3.59297 -1.03175 0.120055 -1.26792
197 2.93191 5.09243 4.15486 -4.78819 -1.9481 -0.889342
349 3.99802 4.31022 3.94726 -1.42766 -0.156212 -0.463504
122 3.38982 3.88962 4.80212 -0.576892 -1.60975 -0.00867363
752 4.71237 4.01518 4.87423 1.48638 -2.30361 -0.34503
245 3.66603 4.93129 5.26192 1.30324 1.96346 -0.324242
152 1.86397 0.337285 2.50195 1.51699 -0.838586 1.54589
506 5.79656 4.35698 4.04822 1.36574 0.52988 0.473024
684 6.71714 4.02721 4.90138 1.1746 0.262924 0.702392
505 6.51293 4.62231 0.0372564 -1.78122 -0.878126 3.88197
601 1.65819 0.855293 5.35483 -0.906183 1.87403 -0.757001
779 10.6471 0.736674 6.26233 -2.78992 -0.367024 -3.0432
507 1.28005 1.24108 6.17331 -0.986847 -2.50483 -0.831356
389 0.875042 0.338685 6.74083 0.684575 0.113916 -1.65133
631 0.646797 0.259606 5.77557 -1.28234 1.16293 -0.351434
442 2.60776 1.96717 6.97175 -0.986073 -0.358831 -1.75802
781 3.10816 0.655597 5.47076 0.565331 -1.64583 -0.617315
423 2.76983 0.244534 6.44658 0.10711 3.05233 0.140336
704 4.80079 1.55854 5.8756 0.906898 1.2617 0.997004
547 3.70639 1.20463 5.98609 1.6811 1.05776 -2.73758
220 1.20362 2.76722 5.42521 -0.673486 0.948232 0.703489
555 4.62826 1.15669 6.77548 -0.204369 0.311307 1.3494
72 3.71196 0.173419 6.23926 -1.82456 -2.51548 -0.526841
88 5.57928 1.80873 6.91069 2.29146 1.07606 1.55534
380 5.2923 0.0556383 6.83209 1.51832 1.22086 1.58991
83 5.42592 0.580802 5.92541 -3.58228 1.88118 1.96271
240 6.36941 0.903479 5.39631 0.774019 0.460211 0.0490109
808 6.23732 0.847613 7.05184 0.319284 -0.843072 -0.541323
290 1.70279 1.98606 5.69418 0.927276 -0.766471 3.26841
811 7.18485 0.889306 6.26051 0.862585 -0.155396 -0.910012
392 8.85068 0.663659 6.07824 -0.482164 -0.162481 0.154394
91 7.73025 1.72095 6.62305 -2.2941 1.98909 2.12481
657 2.28811 3.67373 10.5143 1.10073 -0.865305 0.606689
279 10.008 1.66905 5.97731 -1.75771 2.0572 1.16225
246 1.57775 2.30167 6.77258 -0.326183 2.40449 -1.24565
118 0.50717 1.7142 5.78055 1.8763 -0.979433 2.02982
178 0.064533 3.02379 6.16619 0.514978 0.793436 0.596409
126 0.863676 3.5766 6.21643 -1.77469 -1.0262 1.62408
697 0.0187143 1.89813 6.64098 -1.4779 -3.28007 0.365785
533 2.82132 1.64221 5.65478 0.498871 -0.747348 2.00093
633 2.47868 2.64658 6.18473 -1.2229 0.540271 -1.19815
137 1.95054 3.13224 7.15995 0.24968 -1.90945 1.68702
67 3.68837 2.2373 6.09905 0.0458111 -1.49897 1.01809
627 4.66331 2.38868 6.54816 -0.91293 0.203617 -0.866646
413 3.57263 2.98565 6.86101 -2.93129 0.353971 0.506376
495 9.73807 0.598158 5.73255 0.320177 -0.816243 1.42668
199 5.68869 2.53654 6.23992 1.7249 1.57136 -0.712398
317 4.81942 3.41882 6.29456 -0.881968 4.41614 1.93642
565 5.51207 2.96795 7.02591 2.09624 -1.43031 -0.240614
14 6.62304 1.76381 6.5075 -1.85856 -1.72573 -1.37646
393 6.2103 4.0119 5.93805 -3.23542 3.58661 -0.170374
272 6.6246 3.03153 6.96103 -1.8477 1.31517 -0.229124
753 6.94275 2.91854 5.45494 -3.02577 -1.40867 -0.682914
652 8.46706 3.34936 6.2419 2.39842 0.166376 0.00182394
854 8.71042 1.54525 6.94185 -2.62493 -0.45951 -0.322255
381 8.51539 1.80001 6.03208 0.735021 -0.112433 -0.300659
2 9.22853 2.77695 6.58905 -0.775526 1.46769 0.87698
724 10.0511 3.46014 5.40082 0.0432265 1.62586 -0.361738
421 1.16735 4.52231 5.84505 -1.22702 0.180728 -1.98518
624 0.826206 3.88574 7.35878 -0.249358 1.02479 0.856528
593 0.613454 4.88286 6.70406 -0.614061 -0.366944 1.53725
54 1.65451 4.96021 6.76262 3.48577 -1.71337 -0.696125
809 9.36857 5.15848 5.40463 0.798831 1.67498 0.915157
23 2.09526 3.80216 6.39042 1.44483 0.863999 -0.16217
513 3.07619 4.30627 6.93444 -1.11405 1.95754 0.800624
425 2.69081 4.46533 5.48822 -3.12436 -2.52076 -1.21945
664 3.25524 3.41647 5.86997 2.51414 0.188244 1.47733
354 3.61403 4.48774 6.10076 -0.397923 2.25819 -1.37864
604 3.88237 4.72921 7.11102 1.24162 0.605288 0.163351
713 4.63902 4.06616 7.26975 1.3095 0.70309 -0.435666
400 7.29612 0.135956 9.61729 -0.20101 0.0527422 -0.529517
446 5.38118 4.22137 6.44441 -0.243483 0.935022 0.457011
459 4.71434 4.72253 5.51649 -0.599206 0.580758 0.792109
499 1.89433 5.32339 5.83554 1.73713 0.913727 0.835188
25 7.4044 3.60159 6.15656 0.901989 0.0375046 -0.82184
386 6.8251 4.94768 6.01243 0.227868 0.492396 -0.753359
265 8.34707 4.65481 7.0592 3.51392 1.10556 0.482335
36 8.97134 4.84482 6.27279 -0.0515644 -0.959 0.389822
75 7.84232 4.44986 5.72105 0.0922675 -0.69431 2.80191
639 7.13102 0.118046 10.6313 -1.45253 -1.44951 0.916879
720 9.46123 3.98675 6.79432 0.768358 -1.96701 0.394908
283 10.3124 3.6212 7.24102 1.6712 -1.12745 -1.73854
477 9.986 4.90477 6.79077 -0.764696 1.93153 0.478786
390 9.96269 4.3908 5.96696 1.19447 -0.100002 -0.653425
830 0.476403 1.04619 7.57009 1.22501 1.51367 -1.18006
540 1.75051 0.442465 8.22955 1.63932 0.797703 -0.190664
254 10.5135 1.59549 8.9692 -0.616341 2.02105 0.623035
467 0.903809 0.871798 8.54642 -1.48496 -0.593101 -1.14705
302 4.12694 3.05886 5.54044 0.255692 -1.42901 2.01724
366 2.09902 0.391074 7.18628 -2.34994 -0.46535 -0.480592
571 1.93143 1.90156 8.02367 -2.07995 -0.377791 1.18984
260 2.61509 0.982081 8.36262 1.27078 0.388939 -0.575115
848 3.28332 1.26783 6.97306 0.063162 0.59575 -0.668733
716 4.15148 1.14712 7.9225 -1.89243 0.247677 -3.6587
303 4.26886 0.038785 7.20311 -0.265543 -0.107877 -2.5632
646 10.0553 4.87607 10.2442 -0.657556 -0.144973 0.00375557
218 5.10276 1.38615 7.7486 0.126235 2.46156 -2.74347
656 5.31963 0.347223 7.77832 0.915899 -1.21777 -0.109847
735 6.07971 0.188005 8.97131 -1.87128 0.183401 0.0987643
12 6.24693 0.847168 8.13596 -0.207764 -0.454119 1.03663
282 7.28517 0.758217 7.76434 1.22485 0.472007 0.604565
263 7.71302 0.625583 8.81011 -0.36605 -0.571061 0.546444
502 8.02515 0.883387 7.05227 1.23004 -0.798611 -0.908562
546 8.57101 1.36405 8.24263 -2.24129 1.5154 -1.65518
803 8.4443 0.031252 8.55735 -1.46745 0.61941 -1.27967
217 8.83682 0.5226 7.49828 -0.34131 0.428386 1.21643
384 10.2509 0.747251 7.93198 1.7471 -2.70172 1.53929
347 9.49133 1.28627 7.62394 1.10381 -0.13142 1.3757
17 9.46548 1.623 8.52098 2.69189 0.58293 0.712423
494 10.7115 0.00494341 7.30462 4.36942 0.0958959 0.772696
343 0.777682 2.83541 8.94901 1.5782 -1.44341 0.806194
239 0.741787 2.26407 7.95187 -1.34299 0.504791 1.26457
658 0.275925 3.04322 7.1165 -1.33083 -3.3302 -1.1043
431 2.91713 2.96828 8.37734 -1.15295 0.281774 -0.509529
172 1.63662 2.68659 8.43839 -0.144642 1.51505 2.69146
379 3.23574 2.01836 7.75645 0.403934 -2.57441 2.38455
737 4.62204 3.34278 8.03809 0.573505 0.47385 2.99702
5 4.36745 2.22525 7.56045 2.52589 1.36113 -2.28815
537 3.71461 2.37804 8.48229 -1.30818 2.15881 1.35805
709 5.47189 2.28335 7.84611 -1.96998 -2.97265 0.36714
50 4.74254 2.33947 8.97993 -0.703774 1.15002 0.967354
359 7.16926 2.22437 7.62825 0.0103602 -0.540935 -0.288986
844 7.10167 3.14345 8.01108 -0.0350833 -0.990646 -1.29385
252 6.35687 2.05179 8.51363 1.22938 1.51928 -1.0175
99 7.66422 1.93081 8.6845 0.524704 -0.716711 2.156
115 6.4327 2.99534 9.03418 0.418044 0.368274 1.06938
339 8.7769 3.71265 7.40925 -1.0292 0.928746 -0.119371
468 8.7015 2.27472 8.94177 -0.745966 0.0876749 0.751912
90 8.15703 3.00233 8.00312 -3.08328 -1.3692 0.0537775
853 9.63516 2.3573 7.47635 0.632808 1.95904 -1.88809
388 10.4912 2.41142 8.14942 -1.04931 -0.631775 -0.0863671
783 9.59451 3.54666 8.09474 -0.997083 -0.0481107 3.15246
382 9.69914 2.60983 8.94924 2.6722 -1.73291 1.1014
742 0.833981 4.04495 8.72604 -1.8388 0.327842 0.0475333
383 1.50678 3.66928 8.05479 -0.736416 -0.497335 1.40615
784 1.11392 5.1249 8.88051 -0.333664 -0.281593 -1.10293
526 0.194482 3.34662 8.13771 0.0445699 2.26686 -0.147662
120 1.12816 4.79718 7.86436 -2.8571 -0.424929 -0.193432
95 2.48612 4.07807 8.14724 1.9615 -1.20454 0.267248
241 2.25482 5.07102 8.87512 0.56346 -1.07474 0.0729351
139 3.49272 1.50791 10.7011 1.44925 -2.14094 -1.00308
58 3.4416 4.40343 8.43787 -0.408459 -2.26658 2.10956
62 4.72661 5.12759 7.2877 -1.71897 0.338525 0.020809
287 4.71364 4.42501 8.56868 -0.372667 -0.604753 -1.53871
160 6.07992 4.75586 8.18178 0.570168 -1.17117 -0.695884
308 5.62246 3.45864 8.32887 2.05015 -1.19224 -0.298588
124 5.60187 4.27063 7.40541 -0.300992 2.32526 -0.419712
799 6.7587 4.05145 8.22859 -1.02738 0.912982 0.51842
271 7.71572 3.52392 7.31934 -0.932011 -2.14627 -1.04705
527 1.61537 0.138513 10.4198 1.19481 1.73926 2.51155
93 8.65248 4.97423 8.58959 1.52426 -0.593332 0.044141
729 9.21393 4.4967 7.88912 1.95206 -0.426745 -1.39695
597 7.92078 4.38699 7.96723 -0.0383804 -0.772623 -1.82932
542 6.20474 4.99061 6.99488 1.14012 -1.68353 -1.09208
16 10.4586 4.57586 7.71159 -0.317905 -0.392245 1.01002
682 10.0813 4.30559 8.90568 1.12954 0.597912 1.49931
293 0.356805 0.508767 9.53682 -1.01106 1.21015 -0.42301
184 1.29932 1.25015 10.5712 1.30408 0.598232 0.674498
788 2.74087 1.56345 9.32782 0.333122 -0.209958 -1.59901
813 1.75552 1.03992 9.30104 0.985812 0.0929712 -0.0271288
53 2.28079 1.54196 10.4259 1.36851 0.602805 1.6871
797 3.548 1.12607 8.73228 0.69688 1.80646 -0.453964
133 3.07729 0.304478 10.1099 -1.00842 0.486036 0.670835
89 4.53284 1.09158 10.3045 -2.718 0.786224 1.16437
280 4.41978 0.560762 8.63768 -0.0318069 -1.25924 -1.04087
331 5.46172 0.482941 10.1349 2.13927 -2.42433 -0.695515
322 5.60445 1.13222 8.97867 -0.962909 -0.86922 -0.909307
375 7.29465 1.14225 10.2648 1.60709 0.624344 -0.896822
398 6.58231 0.957364 9.35723 -0.283323 -0.743048 2.95484
251 8.11991 0.960822 9.73914 0.658405 2.81072 0.033822
408 8.82375 0.728032 9.12106 -0.214879 -1.45901 0.0247575
9 9.92611 0.35444 9.86735 -2.12376 1.12689 0.552018
650 9.78311 0.767577 8.87829 -0.651556 -0.622325 -0.843992
353 8.73384 0.50282 10.3209 -1.40012 1.18205 0.332481
805 10.1408 1.13585 10.4077 -0.0941933 -1.34734 -1.46187
378 0.792659 1.59482 9.44628 -0.699456 -0.61275 1.60619
244 0.200653 3.73931 9.93214 0.484086 -0.328266 -1.0541
649 0.763643 2.75632 9.9777 -1.22391 -0.640421 -0.441717
416 2.79131 3.01368 9.81249 0.164313 -0.0193018 -2.07426
786 1.65578 2.15506 9.84066 0.173979 0.773597 0.0404627
131 1.45523 3.08701 10.6554 -2.49438 0.457671 2.28284
227 3.53272 2.98373 10.4548 2.17125 0.771354 0.62277
763 3.88451 2.10368 9.58517 -0.177443 2.4889 -1.9322
301 4.04184 3.30848 9.23746 0.0743013 1.23287 0.27525
30 4.90845 2.466 10.3941 1.07895 0.0405218 0.708759
230 6.11747 1.49736 10.2482 -2.75357 -1.53821 -1.05328
261 6.2507 2.44208 9.98801 0.860138 -2.56384 -1.60402
250 7.16405 1.98244 9.66536 0.971784 1.03669 -1.40143
57 7.15579 3.05349 9.9404 -0.113797 -1.92547 -2.86391
685 9.23541 2.54407 10.3586 -0.17877 1.64799 1.3766
385 8.07567 3.65792 9.85266 -0.779822 1.59885 -2.8486
476 8.32319 2.36301 9.92023 2.02285 1.8948 -1.73846
474 7.7145 3.04729 9.10411 -0.885698 0.268873 -1.54362
815 10.2898 2.37746 10.0021 2.92326 -0.0736465 0.0125903
740 9.2899 3.85716 10.2043 1.4641 3.7095 -0.420717
181 9.61729 1.53523 9.64651 1.761 -2.82628 -1.12511
395 10.5218 3.17568 9.25721 2.81941 -2.05279 0.368254
355 1.07488 3.94745 10.2355 0.744921 0.0178784 -1.00073
327 0.487952 4.62028 9.65929 0.780427 0.0938457 -0.0142941
373 2.45999 5.16659 10.3559 0.909829 -0.546232 0.134614
626 1.85491 3.63829 9.18349 -4.0809 -1.28695 -1.01313
397 3.19891 3.94555 10.0799 -0.702504 -1.61716 0.0303003
512 1.86499 4.45968 9.78905 -2.27307 1.17498 -0.68042
672 4.34677 3.53983 10.5185 -0.103641 -1.0957 -0.0675973
640 3.94154 5.21412 8.85585 -1.59921 1.08471 -1.82826
457 3.81376 4.71351 10.3228 0.539686 -0.452523 1.04398
87 4.21516 4.30485 9.33985 0.12873 1.28727 0.809676
188 4.54341 5.30014 9.98061 1.47261 1.54989 -0.794673
519 5.6101 4.71883 9.08818 1.77364 -0.988215 0.248488
231 5.08737 3.65491 9.31618 2.79444 -1.15239 -0.358888
592 5.78416 4.95015 10.1797 -0.100028 -0.959493 1.81551
82 6.58128 5.14271 9.24329 0.444479 1.18216 2.8877
80 7.09943 4.11642 9.56131 -0.718061 0.599407 0.649897
168 6.06599 3.69612 9.69157 -0.76804 -0.980981 0.133375
92 10.2085 5.36321 8.91504 0.616797 -2.07141 -1.53686
69 7.7153 4.36816 10.5162 0.603933 1.15464 0.932948
21 9.17498 3.72783 9.09995 -0.752377 0.16615 1.10014
166 8.7615 5.0055 10.2863 1.24451 -0.153286 1.00039
595 7.60101 5.10568 9.67457 -2.51386 1.93053 -1.83622
496 8.00721 4.20574 9.01771 -0.861458 0.315611 -0.310985
297 9.35548 4.58662 9.57328 -0.554466 -0.531294 -2.35277
242 5.59033 5.1854 6.22182 -2.20924 -2.02073 0.731518
792 4.2793 0.0704708 9.56211 0.714592 1.26022 -0.118491
581 1.6869 0.0424812 6.03987 -1.09266 2.09151 2.20127
570 0.282072 2.10953 10.6926 -0.392805 -1.14897 -0.631369
608 0.368377 7.00258 1.47194 1.13359 -0.368609 -1.14835
864 1.02311 5.91859 0.943903 -0.281036 -2.2594 -0.283406
504 8.46019 6.84153 5.14915 0.579773 -1.50576 -3.02732
345 2.74563 6.39435 1.8063 3.97021 -0.821765 0.847644
707 2.0878 5.79267 1.39324 -0.162437 -1.60133 -1.99534
582 3.07815 5.63324 0.750553 -1.87985 1.07597 0.0736738
463 4.33542 5.95139 1.00822 -0.974753 -1.04855 -1.94419
344 3.24135 6.63989 0.61721 1.37642 0.0919061 1.13044
358 3.75625 5.48535 0.116587 -2.14747 -1.7244 -1.35517
702 4.5901 6.83726 0.64522 2.54165 -1.73476 1.21977
777 10.6446 10.7003 5.01938 -0.282331 1.34461 1.79654
775 5.23848 6.03256 0.463313 -1.44072 2.50863 0.130131
362 5.21924 6.56753 1.44806 -2.75253 -0.785117 2.25363
292 5.90601 6.84962 0.824739 0.859427 -0.135251 -2.55472
86 7.08235 6.82943 1.42622 0.900753 -2.26936 -0.496305
238 6.92145 5.94058 0.559121 -1.0907 -1.63321 -0.745734
770 7.35545 5.3913 2.64674 -0.783168 0.105106 -0.222777
410 1.16194 7.18735 0.020315 -1.19731 2.44318 0.4655
574 8.80782 5.81345 1.28051 -0.716043 0.197735 0.302023
458 8.56734 6.88291 2.04475 -1.48262 0.859847 1.02274
108 7.56469 6.92082 0.317487 -1.46533 1.03155 1.82752
634 10.567 5.99341 1.57144 -0.161162 -0.394103 0.583951
712 9.34665 5.58425 0.194357 -1.64144 -0.732784 0.622341
721 9.86399 6.60954 0.69149 -0.332433 0.93444 1.5274
602 9.68414 7.07809 1.95966 -3.03776 2.34123 2.25501
34 0.344533 7.77304 0.0412524 -0.242572 0.688851 -0.585892
754 1.67743 8.11876 0.603763 2.04869 -1.22734 1.02386
350 1.52654 6.82505 1.22405 1.31582 -1.37301 0.711345
552 1.18383 8.7239 1.57828 -0.812549 2.50728 -1.56077
862 2.2985 8.05063 1.62407 -0.0487045 -0.453034 -1.05303
520 2.78557 7.83361 0.675308 0.727093 0.693235 -0.500396
189 2.25293 6.95682 0.679915 -0.22526 -2.19674 1.41562
367 3.41702 9.22247 1.05384 3.33158 1.22385 2.66097
829 4.28535 7.08038 2.1174 -2.19004 0.143124 1.86436
191 3.82212 8.41103 1.58972 0.473813 1.18054 0.575418
759 3.82774 8.81116 0.0744622 0.229665 -0.584642 -0.703168
163 3.59564 7.35629 1.4292 -1.27346 -0.265243 2.61249
647 4.00299 7.95467 0.735322 -2.25193 0.508384 -0.106382
539 4.82869 8.75455 0.191173 -1.24855 -1.25568 -2.69217
311 4.90321 8.71329 1.35485 -0.89067 0.671844 -2.65079
296 5.64541 7.89197 1.15836 -2.39263 -0.142198 -0.419124
761 6.88867 7.74114 1.19878 -2.51092 -0.255985 1.44366
847 6.74189 8.83354 1.28972 1.47352 1.69514 -0.887873
591 6.94169 8.86384 0.0309492 0.704409 -1.46749 -0.153268
845 9.04339 7.89411 0.77893 0.919325 -0.232856 -0.323668
113 8.03524 7.35551 1.09861 -0.237238 0.206601 1.7129
42 7.75136 8.30042 0.527111 -1.15275 -1.20266 -0.948833
814 8.69885 8.84452 1.12883 0.96955 0.349536 0.258226
827 10.4178 7.46738 0.888528 -1.08232 -0.626309 0.760364
45 0.703973 8.71643 0.544122 0.52789 -1.90047 -0.227118
617 1.1841 10.3867 1.40829 -0.841489 0.718809 -0.202036
449 0.473934 9.5616 1.40778 1.17704 -2.22137 0.810539
771 1.17809 9.93973 0.448043 0.889042 -0.00800497 2.19299
828 2.29528 9.40135 1.38128 0.579743 -0.524977 -3.51561
687 0.413425 10.7049 2.02248 1.08522 -0.830249 -0.48447
636 5.0368 9.62766 1.21228 1.19845 0.373906 -0.321809
77 3.65663 9.9803 1.76645 -0.237303 -0.874633 0.857669
447 4.54491 9.80414 0.249407 -0.624696 0.133432 0.0840887
299 5.84617 9.28441 0.892641 1.69021 -2.2018 0.061926
411 5.7685 10.21 0.392359 -0.631016 -0.182175 -0.482059
849 6.24252 10.2399 1.35882 0.39008 0.270052 -0.0524008
273 7.18723 9.80607 0.814435 -0.167148 2.16438 -0.542383
534 7.78156 9.365 1.61011 2.08518 1.44986 -0.879832
587 8.33368 10.0721 0.487246 0.0386904 -2.84317 -1.33305
356 9.3802 9.62742 0.884385 2.03175 -0.685454 0.982561
668 0.0621708 10.4774 0.927129 1.97934 -1.16981 1.43862
521 10.0793 9.70022 1.54495 -0.734582 -0.307115 0.924229
101 9.75084 10.5592 0.801341 0.779885 0.557753 -1.45653
837 10.6128 9.46902 0.28829 1.33872 -0.495269 2.66716
838 1.19521 6.66554 2.17948 1.28335 -1.01816 1.83225
192 0.428668 6.14441 2.41264 3.24272 -1.49098 -0.329242
701 1.18345 5.59529 3.03236 1.53499 0.702595 0.477875
363 2.27961 5.76137 2.47826 -0.813067 -1.42617 -1.35563
68 2.46753 7.00989 2.51887 3.30394 -1.71463 -2.13895
659 3.49246 5.5742 1.80537 -1.43432 -0.905267 -1.45548
372 3.46868 6.92196 2.9177 -2.10313 2.71783 -0.559399
28 4.77256 6.8148 3.36857 1.57218 0.968952 -1.87247
319 3.22418 5.68363 3.22759 1.2049 -0.372508 0.40762
417 3.97601 6.20032 2.4475 -0.936322 -1.51199 -1.98904
738 5.25016 5.6511 1.68834 -1.10449 2.6213 -0.849322
515 8.72661 6.9172 0.296911 -0.471513 -2.06252 0.562627
835 4.98925 6.24127 2.50619 0.964211 -2.08129 1.33711
169 5.6964 6.41841 3.3715 -0.25661 1.37936 0.971635
731 6.33302 6.56604 2.02965 0.574987 2.74438 -0.316896
518 6.81351 6.29384 3.09679 -0.527227 1.97414 1.85995
247 7.57087 6.56141 2.4152 1.4988 -1.20998 1.61136
643 9.0083 7.41836 2.95317 -3.56546 -0.202352 0.387293
253 8.86756 6.17927 2.82368 2.57917 2.60189 -0.169988
736 8.13738 5.70752 2.12773 -2.15816 -0.683338 -0.466219
374 10.1413 6.68243 3.50256 2.26923 0.480513 1.58585
429 9.57299 6.05092 1.92648 2.58726 -0.138821 -0.153096
787 9.9459 5.61692 2.76527 -0.584253 -0.179842 -0.688097
121 1.33887 7.70988 1.62594 0.304887 2.05108 -2.39283
572 0.715615 8.71033 2.35229 1.00949 -2.00106 0.35615
613 0.446799 7.37295 2.50257 1.61817 1.0352 2.65651
517 1.39082 8.68699 3.31891 0.787868 -1.44175 1.42204
841 1.7262 7.57249 2.70281 -0.886004 -0.588526 -2.0857
340 3.09379 7.9043 2.42612 1.34506 -0.330952 1.30921
747 2.12725 8.5924 2.54198 -2.56335 -1.12618 -0.176198
466 2.58149 8.64955 3.59022 -0.72962 -1.90956 1.07895
451 2.79862 7.56254 3.46655 -1.10183 -0.824587 0.389182
655 3.75999 8.05512 3.59369 0.768337 3.31402 -0.233611
140 4.15114 8.17419 2.59062 -0.150925 3.38194 -0.840183
119 5.00146 7.87825 2.07026 -0.131389 1.06308 -2.28243
274 5.34109 8.40708 3.02 1.14702 -2.02462 0.94171
616 6.01591 8.47444 2.04724 0.659373 1.83679 1.74974
326 5.57508 7.37216 2.91795 -0.325955 -1.74717 -0.294792
136 6.34862 7.52338 2.04982 0.269478 0.122224 -0.427249
19 7.15831 8.64842 2.63626 -0.255624 0.423446 -0.344694