ITEM: TIMESTEP
46200
ITEM: NUMBER OF ATOMS
864
ITEM: BOX BOUNDS pp pp pp
0.0000000000000000e+00 1.0726842421158810e+01
0.0000000000000000e+00 1.0726842421158810e+01
0.0000000000000000e+00 1.0726842421158810e+01
ITEM: ATOMS id x y z vx vy vz
805 0.895139 0.0335006 0.465563 -0.911929 0.452587 1.22715
489 0.746803 1.40419 0.768981 -2.83911 -0.588488 0.697548
617 1.18593 1.35538 1.7696 -0.434854 0.747373 0.269079
78 10.6203 0.870244 1.57524 1.55014 0.00212851 -0.841643
473 2.6314 1.35554 1.52873 1.66806 -0.648331 1.47903
527 1.82463 0.833073 0.934311 0.383449 -1.53602 -0.257962
843 3.29935 1.08486 0.111801 1.90683 0.933361 -0.481576
532 3.39762 0.739616 1.70935 -1.94449 0.133382 1.25746
147 4.04493 0.374172 0.851495 -1.33639 -3.74489 3.31123
411 5.15766 0.75112 0.8694 0.254204 -1.61662 2.09355
375 6.20269 1.22814 0.492254 -1.51668 0.544406 1.51315
276 6.20484 1.87196 1.63309 -0.770534 0.0641559 3.10559
636 6.63344 0.784568 1.31238 -0.129414 1.5956 2.49224
849 7.69145 1.88406 1.61654 1.18463 -0.301835 -2.92736
587 9.23892 0.983315 0.397682 1.54243 0.877843 1.75639
491 7.48506 0.680201 0.622723 -1.02933 -0.188494 -2.50744
32 8.34054 1.35126 0.853405 0.282897 -2.36398 -0.869039
342 10.1643 1.81159 1.08013 1.52936 -1.63299 -1.92199
523 9.69855 0.563302 1.24127 -0.384724 0.393841 -1.10904
146 10.364 0.871673 0.503993 -0.864445 1.74293 2.00776
365 0.513136 2.28932 1.86267 0.533253 -1.02698 4.07053
632 1.0566 2.96225 0.768675 2.36822 0.998819 0.143692
225 1.9503 3.57285 0.433835 -0.907217 0.802462 2.05857
762 2.3931 2.85473 0.95314 1.2916 -0.564542 -0.199869
397 1.6669 1.97799 0.147561 0.467207 0.81638 0.202976
524 1.79126 1.95298 1.15847 -1.3414 2.53932 1.17697
208 3.57864 2.30672 0.892222 -0.105576 -0.71725 -1.68666
529 4.51735 2.62399 0.406118 -0.18042 0.532761 0.502566
294 4.57196 2.56388 1.51655 -0.45492 -1.12791 -1.73929
412 4.49415 1.4723 0.719187 0.760136 -1.03328 0.19157
448 5.60736 2.79643 1.3561 1.47365 -1.28468 -2.00435
663 9.489 4.73713 4.16377 0.342841 0.47683 -0.345737
298 5.29387 1.90134 0.950312 -0.774737 0.985527 1.06723
592 5.45874 2.87049 0.290135 -1.24951 -0.750068 -0.524239
180 6.92265 2.48958 1.37286 1.39225 2.0574 -0.0124044
15 6.48026 3.30301 0.78372 2.16705 1.70673 0.70761
454 7.09819 1.76194 0.519143 -2.27459 -1.87332 -1.43014
776 7.79274 3.31894 1.51243 -0.795127 -0.857914 -0.267706
74 8.51265 2.78835 0.981612 1.06788 -3.42364 1.69095
338 9.09959 1.86379 1.46717 -0.376225 0.324618 -0.703335
148 8.96935 3.61103 1.58687 -1.64256 2.27578 -2.38695
680 8.83356 2.03185 0.213046 -1.8838 -0.377073 0.347618
131 10.5041 2.98394 0.792898 1.65005 0.304207 -2.53753
167 9.25399 3.19508 0.309354 -1.02059 -1.89215 0.175204
779 8.66557 1.11356 5.1927 -0.883447 0.157582 -2.03841
559 0.438919 4.34406 1.50273 0.54699 -0.696556 -0.260866
201 1.82078 4.55345 0.964976 -2.38672 -1.01841 1.53905
355 2.86447 3.99431 1.16342 -0.155884 1.53472 1.73347
114 1.67503 3.81787 1.8019 0.582529 -0.632428 0.0122826
461 2.76547 5.2111 2.001 0.420254 -0.794782 2.51556
501 3.86898 3.29949 1.11117 -1.26607 -2.66498 0.839087
659 3.09926 5.06202 0.707034 1.23299 0.0436757 0.820948
354 2.71987 4.68415 5.08659 -1.51583 -0.222144 -2.3931
614 4.20179 4.78448 0.558506 0.801648 1.07259 -1.01018
824 3.31066 3.73225 0.150257 -0.0487646 1.56848 -1.12756
55 4.9727 3.61395 1.50024 -0.0740637 1.7115 0.812498
329 5.66576 3.86295 0.68913 2.45982 -1.39247 -1.23238
764 4.66386 3.88034 0.278728 -1.38959 -1.71179 0.91252
149 6.23937 5.20067 3.51095 -0.538962 1.0355 -1.42576
683 5.20647 4.65583 1.1678 -1.79881 0.299864 0.656248
82 6.78126 5.20656 0.188769 0.390477 3.0041 -1.23999
740 7.41038 3.68371 0.49518 2.12346 0.955283 0.186976
196 7.45113 5.32025 1.43427 0.0975095 0.457578 0.42306
696 6.62894 4.54508 1.14812 1.15413 0.365077 0.234937
437 6.42095 5.20493 2.3026 1.31047 -1.1901 -2.89364
807 9.50033 4.54954 1.09036 1.02954 0.184511 -1.09346
521 1.14248 0.300206 1.65678 1.33792 2.36571 -0.404362
92 0.0391862 4.63551 0.510291 0.0978891 -1.24048 -0.487858
248 10.2868 3.89878 1.26868 -0.848391 0.623659 3.06812
578 0.148408 1.54463 2.43472 -0.712218 -0.354787 -0.65861
780 1.23069 0.123668 2.88574 0.621108 0.407173 0.55621
66 1.75315 1.47252 2.55926 0.521091 1.70629 -1.22146
105 2.41818 0.214227 1.9825 -1.41169 -0.31107 1.35256
152 2.5662 0.897304 2.70626 -1.24814 -1.6756 -0.921664
681 4.38594 2.05162 2.69148 1.60561 1.097 2.73828
817 4.25701 0.925354 2.43899 2.135 1.95675 -1.47965
307 6.08945 0.046788 1.76823 -0.153165 -0.64937 0.32201
185 5.13709 1.79309 1.97863 -0.847806 2.70202 -0.0325232
212 5.06937 1.01694 3.64991 1.87264 -0.178482 1.39966
216 5.27925 0.763045 2.60052 0.333781 -0.0668306 -0.397605
557 7.33417 0.0544449 2.17675 2.22981 -4.54474 -0.377653
125 6.92722 1.57542 2.28402 1.01003 -0.720728 -1.86306
550 6.84211 1.11998 3.37417 -1.99425 0.405475 0.860512
800 7.80437 0.741537 2.90504 2.39902 0.179121 1.77294
343 2.70622 1.99989 0.229497 -1.46033 0.905476 2.73927
812 7.99287 0.819191 1.86367 -2.2368 -2.97766 -0.605633
480 8.88851 0.78525 2.38915 -1.36783 0.225854 0.915585
228 10.4208 0.683972 3.20047 -0.429195 2.02124 -0.515525
85 9.91253 1.3778 1.94102 -2.4061 -1.49394 1.13372
221 0.441135 3.27029 2.03098 -1.65201 3.63214 -0.260553
394 0.749775 1.98969 3.15133 -0.0669946 0.857606 -0.647506
535 0.205902 3.0009 3.29712 -0.971976 0.471354 -1.45747
804 1.87856 2.87418 1.82216 0.996137 2.16811 -0.182851
211 2.75597 1.94357 2.37441 1.47948 2.18626 0.633368
426 2.62056 2.13242 3.58414 1.05682 -0.868053 -2.42109
405 1.20478 2.86819 2.78712 -1.51962 0.966633 -0.825824
171 2.37107 2.97904 2.81265 -1.24283 -0.799107 -2.20329
509 3.59788 2.50315 1.96052 -0.285996 -3.59327 -0.131727
173 3.55648 1.54398 3.0414 0.0114409 -1.72506 -1.86059
822 3.71421 3.13995 2.72377 -0.690807 -2.973 -0.338705
435 6.12335 2.62246 2.52239 2.74615 -0.321246 0.351458
816 4.58725 2.91362 2.39482 -0.320921 1.07762 0.927037
768 5.38241 3.5469 3.45823 0.17786 0.427747 -0.591732
739 5.09431 2.33253 3.47138 0.610753 -1.30807 0.782312
204 6.87321 3.54848 1.84004 -0.253324 0.853179 -2.38414
603 7.33915 2.70809 2.30501 -0.445657 1.98234 -2.03726
198 6.93095 3.59612 3.25608 -0.92784 -0.282835 0.466176
144 8.21743 1.99414 3.54888 0.996932 0.350904 0.443876
553 8.328 1.91853 2.29978 -0.225265 -0.667658 0.488681
579 8.46522 3.15868 2.47778 0.426281 -0.985999 0.682847
607 9.71602 2.70762 1.87465 -0.469196 0.697381 0.876185
669 10.2231 3.42389 2.60619 0.356874 -0.358438 -1.96433
765 9.90594 1.91095 2.68638 1.16016 0.46375 0.053953
707 0.649969 5.10479 2.05277 -1.21021 -0.987478 0.293945
361 1.0416 4.18071 2.50152 0.980519 -1.431 -2.77988
767 2.64626 3.91994 2.34649 -0.116048 0.531138 -2.17406
694 1.93331 4.74085 2.42436 -0.796526 0.184558 0.311332
835 3.72801 5.08337 2.96545 0.169784 -0.676973 -1.15461
778 3.62122 3.91293 1.93171 1.89527 -0.0328551 1.72037
269 4.71114 4.15544 2.36069 0.486821 0.0358297 -0.653841
417 4.44411 5.0242 1.74801 3.16337 -2.91735 -1.00879
700 3.31148 4.14366 3.04841 1.19787 -0.0784764 0.906945
673 4.37167 3.48725 3.43049 1.04868 -0.252964 -0.296028
377 5.98499 3.84364 2.24655 2.02648 -0.953175 -0.135145
556 5.3192 5.09657 2.3038 -0.892089 -1.44455 -0.43741
143 6.05871 4.37858 3.00394 -0.649659 -2.13273 -1.68557
770 4.86765 4.79631 3.19425 -0.223017 0.453254 -0.342073
447 4.60359 0.322308 1.71331 -0.994044 2.20307 2.96995
6 7.15148 4.56661 2.53736 0.300352 1.84699 0.277792
662 7.84609 4.43586 1.79593 -3.12276 3.0513 -2.76176
706 7.71 4.29447 3.35214 -0.999023 -0.842838 0.437543
482 1.16443 5.35022 2.86211 1.30841 1.02849 -1.01983
429 8.61259 4.59022 2.82399 0.711815 0.721378 0.353252
618 9.31333 3.68005 2.53433 0.669766 -0.633665 0.918092
351 10.2528 4.66537 2.02599 -0.00260601 -0.305012 -0.68781
819 9.47872 4.20668 3.35682 -0.724463 1.04744 -1.20225
741 9.30902 3.87137 4.72848 0.735255 -0.442669 -0.934197
441 0.277104 4.36811 3.09771 1.2977 -0.295133 0.0546313
631 0.378234 4.93363e-05 4.71735 1.83458 -1.0191 -0.138732
403 0.422515 1.03385 3.88035 1.53584 -0.0539155 1.80871
688 0.755181 1.33072 4.99738 2.54084 0.47599 1.59161
787 9.42779 5.33313 2.65921 -2.01844 -0.987231 0.927894
281 1.47014 0.377695 4.56664 0.342266 -2.60419 -0.527441
686 2.42804 1.02986 3.84678 -0.156316 -1.6003 -1.77891
581 1.87509 1.47313 5.02575 -1.93684 0.973237 -0.270042
479 10.5837 5.31796 2.65565 -0.679265 0.14804 1.83975
622 3.34185 0.568987 4.61129 -0.0754618 2.55347 0.280777
438 2.93747 1.69426 4.51674 -2.75029 2.07429 0.0564272
444 4.14825 1.57935 3.87994 1.59225 2.15531 1.51163
371 4.03085 1.26988 4.91037 -0.829948 0.265552 -0.537892
190 4.06506 0.404781 3.72524 -0.341793 3.06989 -0.730048
676 6.07665 1.73677 4.61141 1.94439 0.93296 -1.01775
73 5.33421 0.953831 4.66881 -0.554101 1.94326 0.571542
259 6.66004 0.461614 4.36845 -0.142337 1.56969 -0.255914
485 6.96716 1.4827 4.34829 -0.512383 -0.569251 1.20322
508 7.57161 0.239998 3.85763 2.10278 -1.85753 -1.88589
150 8.56672 0.314755 3.83359 1.25912 -1.02512 -1.60456
240 7.94098 1.24086 4.2651 -0.708026 -1.70498 -2.80702
569 9.03779 0.209326 4.84151 0.981656 2.0676 -0.367717
777 9.79306 1.79902 4.89319 -0.0191011 2.17085 -1.95792
551 9.56716 0.702878 3.65495 -2.8635 0.863162 0.244214
18 10.4395 0.849117 4.57752 -2.1716 -0.83434 -0.0595018
692 1.17658 2.42722 5.10546 -2.13987 -0.0728867 0.366695
290 1.50538 3.35668 4.86073 0.920796 -1.99299 0.382162
599 0.353244 2.01691 4.43834 -1.71827 -0.407033 -1.93507
156 1.41065 2.63784 3.90919 0.749162 2.88742 -2.02313
455 0.413721 3.01905 4.4525 -1.73697 2.51806 1.60813
60 2.11271 3.79204 3.20102 1.56779 1.50425 -3.48796
633 2.11407 2.3233 4.49927 -1.01 -0.226179 -1.1379
220 2.80959 3.09006 4.64147 3.08548 -2.76836 -0.109514
302 3.44075 2.34736 5.17124 -0.177933 -3.2185 -0.224467
460 4.34933 2.56785 4.42675 1.09863 -0.0419521 -0.381851
424 3.55128 2.65686 3.83419 3.63051 1.18314 -1.9461
122 2.8016 3.69312 3.90517 0.767209 -0.126926 -0.699483
107 3.84274 3.58583 4.5061 -0.719278 1.60056 0.547029
235 5.14489 3.6479 4.54951 -1.00267 0.94845 0.558769
195 4.96426 2.05546 5.0776 -0.963373 -0.715163 -1.19103
492 6.11958 2.76812 3.67779 1.15097 0.685167 -2.41377
575 6.88841 3.35684 4.36676 -0.0583896 -0.116585 1.19982
415 6.94019 2.22273 3.09856 -1.24515 -1.19609 0.421478
414 7.67484 2.32801 4.70039 -0.118851 1.65984 0.467537
91 5.83596 3.08304 5.09483 -1.34604 0.353544 1.14004
145 7.6762 3.01956 3.73574 1.40373 0.294548 0.275172
324 8.72776 3.7076 3.79721 0.421259 0.463323 1.43316
690 9.22368 2.17862 3.60179 0.876178 0.911311 0.510812
717 8.6035 2.92187 4.77186 3.28866 -0.0715927 1.31342
630 9.95384 2.97232 3.52943 0.51109 0.535981 -2.3598
661 9.8438 2.87179 4.89447 -0.519365 -1.05964 0.867926
809 10.3193 3.76072 4.15959 1.58622 2.47624 2.56175
266 0.0627398 3.67814 5.21937 0.606644 -0.532726 -1.30757
179 0.699644 4.36999 4.58511 0.142593 0.809915 -0.340269
629 10.5111 5.10736 5.08151 -0.636685 -0.821473 2.0035
795 1.31638 5.1636 4.43013 -0.865468 0.406686 0.584843
256 1.48735 4.42696 3.58223 0.730923 -1.93073 0.951563
317 2.04788 4.09269 4.29853 1.67173 -0.0282481 -0.433898
319 3.02879 4.60458 3.96513 -0.925542 -1.03149 0.765077
349 4.44506 4.56517 4.354 -2.62248 -0.449871 2.61571
53 2.8058 0.155 0.0971613 -3.13889 2.73418 0.218156
245 3.68285 5.1671 4.5412 0.617547 -1.85374 -0.610781
64 8.71044 5.19666 1.06349 -0.212817 -0.606249 0.637064
275 5.43248 4.83386 4.09126 0.474443 -0.376605 -1.56974
123 7.71312 4.9604 4.71947 0.0538682 1.39558 2.40412
471 7.79129 3.95458 4.38161 1.64278 0.492695 -0.615588
445 6.28342 4.04766 4.79761 -0.589909 0.276549 1.39314
725 6.949 4.4518 3.89998 0.936672 1.589 0.854477
318 8.59735 4.42079 5.21316 1.4199 1.71713 -0.928968
103 8.03367 5.28778 3.73114 1.56192 -1.10674 -0.137489
562 4.69514 0.303774 5.22552 -3.30277 -1.23934 1.21812
504 10.0782 5.33738 3.51637 0.388353 -2.05584 0.973961
283 0.474818 1.27567 6.80583 0.812571 -1.50916 -0.431599
580 0.176032 1.00536 5.75373 -2.42021 2.04939 0.296241
118 1.30629 1.09043 6.2403 1.71328 -0.419349 0.696143
726 1.04481 0.496896 7.15548 0.440609 1.89825 -1.20266
389 1.15987 0.135223 6.05396 0.216729 -0.0587903 -0.348049
781 2.23358 1.49545 6.17893 -0.512733 0.331276 -0.507994
423 2.45756 1.77523 7.1241 1.59652 1.61121 0.15558
366 2.08323 0.484832 7.02945 0.0977092 -1.47481 -0.506279
609 2.72196 0.27169 6.22983 0.186504 0.333591 3.46522
456 3.29267 1.30612 6.48446 -1.66736 -0.494068 1.64835
797 3.31617 0.0875133 7.2758 -2.67448 -0.474446 -0.135229
848 4.83357 0.717422 6.79619 4.28383 -0.0836934 1.17943
357 4.03188 0.458967 6.17804 0.427241 -0.0232647 1.11993
547 4.06152 1.64669 5.86981 -0.928914 -0.073174 -0.70358
83 6.00571 0.645418 7.60965 1.19906 -0.168624 2.68763
128 4.99349 1.21472 5.79482 -0.368747 -0.397113 -2.56072
268 2.64261 5.12287 6.30183 -1.87796 -0.654975 0.643163
360 8.62285 4.73457 10.5527 0.285041 -2.53005 1.86551
793 5.58231 0.295937 5.64892 0.146814 1.43542 -2.5219
286 7.57854 0.548128 5.71056 -0.455764 0.71988 1.70816
359 6.19623 0.9005 6.44488 2.02846 -1.55745 1.6019
282 7.2516 0.40912 6.75523 -0.272086 -0.519269 0.0179051
51 7.35158 1.54623 5.58462 3.1012 1.80739 -0.252483
2 8.84269 1.06334 6.20962 0.222838 0.449421 -0.490529
656 8.15834 0.64974 7.3534 -0.201711 0.235844 1.82606
166 9.23158 4.84531 9.73264 2.59684 0.209922 -4.59419
494 9.74061 0.726847 5.65958 -0.595302 0.474271 -0.3417
670 9.88898 1.74132 6.39299 1.98736 3.70661 0.272768
658 10.5194 0.6326 6.59493 -1.10869 1.46313 -0.551407
598 0.299146 2.94141 6.81952 0.995474 0.267092 -1.20662
452 0.266143 1.94978 5.99597 -0.627327 0.199667 0.364468
601 1.23636 2.2914 6.80265 -0.568536 1.1602 1.4037
413 1.71824 3.13338 6.27784 0.135599 1.96127 1.53011
533 2.45009 2.31897 5.51891 -1.21063 0.855119 -1.19738
431 3.25642 2.77385 6.59266 -1.35118 -0.279447 -0.677112
309 10.4647 4.82809 10.2361 0.395981 -2.0053 1.87833
555 4.16578 2.36438 6.58734 4.236 -1.09094 0.68391
14 5.36145 1.65565 6.62453 -1.28516 -2.37365 -1.54049
531 5.87467 2.13156 5.81384 -0.792654 -0.158715 0.406593
199 5.00741 2.97608 5.98649 -0.73865 0.482781 -0.704439
446 4.91412 2.98076 7.10536 0.742313 -0.163256 0.283516
90 6.4759 3.27346 6.6817 -0.555356 1.23188 0.0307116
546 7.44413 1.66866 6.59548 0.669231 -1.97739 0.0644125
470 6.69604 2.74668 5.78409 -1.34358 1.9624 -1.69446
381 8.1907 2.30649 5.71213 0.530603 -1.53806 0.147502
279 9.15993 2.01866 5.68761 -0.696337 -2.92642 0.119941
566 7.87767 3.69532 5.62183 -0.458433 1.79818 1.11058
697 9.08854 2.49466 6.70346 -2.38767 0.191849 2.12538
390 10.3323 3.07988 5.94421 -0.911359 -2.09552 0.47097
724 9.27098 3.57626 7.31479 0.733661 0.482109 3.55007
753 9.07525 3.12375 5.83517 -1.38741 1.52228 1.3501
126 1.37791 3.6163 7.11773 -0.36989 -0.943361 -1.82393
54 0.238144 5.03595 6.85303 -0.730987 -1.1664 -1.81478
593 0.61934 4.99645 5.65166 -0.473457 -1.35254 -1.69635
24 0.442989 3.81953 6.49817 -2.10527 -1.32532 1.14975
528 1.44768 4.97589 6.58308 0.14274 -0.00800631 0.675747
801 1.45054 4.3391 5.50802 0.587726 0.237039 0.062411
478 2.21806 4.27014 6.11204 0.967573 0.207742 1.01731
425 2.64451 3.6869 5.43657 -1.30918 -2.46847 1.29401
21 8.70539 3.85973 9.78968 -2.47911 -1.29036 0.303827
459 3.47133 4.71228 6.12722 -0.322062 0.965665 1.8279
752 3.98707 4.04588 6.67298 -0.791696 -0.312691 -2.77097
323 6.34973 5.32477 5.53472 1.68444 -0.501736 1.77537
386 5.06934 4.23928 6.31342 -0.55699 -1.24284 0.184715
93 10.213 3.90874 9.01369 0.0747441 -0.0365784 -2.01523
684 7.11793 4.02758 6.44186 0.698822 -1.45282 -0.889349
142 7.61762 4.63885 5.77628 -1.39157 0.577029 0.414817
96 5.97399 4.246 5.77955 -1.90785 -0.506286 0.245501
597 6.55315 4.83864 6.38183 1.23091 -1.45435 -2.91224
271 8.72903 3.86514 6.46748 -1.70092 1.25919 0.151913
174 9.07135 4.89152 6.04802 -1.30674 -0.732534 -1.75021
265 7.93199 4.38402 6.90539 -0.00139836 0.864458 -0.928622
16 10.3843 3.55462 7.1686 -1.18952 -2.09436 0.254031
262 10.0832 4.48399 6.76043 0.48235 1.04506 0.382838
749 9.97211 4.47579 5.69728 -2.4148 -0.0144517 0.16102
23 0.394065 0.492049 7.8907 0.818138 -1.10478 -3.00668
540 1.3224 0.073079 8.32129 -0.0583409 -1.48366 1.22921
442 0.921033 1.21488 8.08865 0.769496 1.60939 1.07329
427 2.70433 0.912703 7.92231 -2.54525 0.197839 -0.155767
260 2.73099 1.86922 8.8052 0.943253 4.61999 0.991478
383 1.60577 1.24928 8.83041 -0.902941 -1.64573 -0.459191
310 3.14717 0.311044 8.78386 0.792859 0.295168 -0.304997
704 4.35339 0.85962 7.87822 0.22103 0.0116584 -1.3917
162 3.49732 1.16267 8.88373 -0.636884 1.00114 -0.06707
716 4.68314 1.54728 9.08805 -0.844018 0.440319 2.0486
792 4.8198 0.421268 8.67742 1.51958 -0.900003 -0.0385518
226 6.04594 1.83374 10.4212 0.513282 -1.43892 -1.86832
218 6.16041 0.744807 8.65175 2.35849 0.603706 -1.41728
230 7.0845 0.902219 8.09487 -1.86377 1.60275 -0.511159
322 6.9089 1.77752 8.54901 -1.16904 -1.94283 -2.38639
250 6.4954 1.71464 6.97187 0.40976 -1.19545 -0.63804
217 8.16387 1.12283 8.40862 0.844104 2.06491 -0.552313
137 9.02212 1.3975 7.90104 0.898876 1.80276 -0.949177
384 9.46205 0.497812 7.51958 0.0532083 1.31767 -2.81334
742 10.0743 1.2239 7.80911 -1.2599 -0.675692 -1.43052
251 9.6392 0.857171 8.68421 1.4617 1.74273 -0.125556
153 0.557293 2.00442 7.57713 0.303433 0.942846 -0.686649
120 1.25871 2.82107 8.28581 -1.32202 -0.0458642 -0.553711
297 0.606313 3.16566 9.13369 2.26551 -0.101234 2.70572
246 2.06269 1.7762 8.02742 1.15712 -1.46742 1.99533
786 2.2405 3.12949 7.29894 -0.841106 0.410732 -1.45738
537 3.04544 3.22087 9.12302 0.271614 1.50029 2.14292
627 3.09658 3.18877 7.87001 -1.2738 -1.7813 -0.864782
67 3.35833 1.59758 7.98402 -0.174823 0.103753 -3.05105
5 3.78111 2.46594 7.87614 -2.79536 0.0229586 -0.234977
25 5.88851 2.52351 7.19837 -1.06331 1.07112 0.657419
808 4.95577 2.5114 7.89763 1.02846 0.583179 -1.58918
709 5.76174 2.91992 9.03728 0.122603 0.162321 -0.260549
252 6.47457 2.96095 8.10382 0.0942507 -2.87264 -0.0723129
853 7.36642 2.48548 7.83188 0.32583 1.28382 -0.116169
12 5.94144 2.17082 8.38785 0.410626 -1.56527 1.52193
99 7.38029 2.55126 8.98797 -0.172196 -1.41362 0.269389
830 8.06813 2.06602 7.33578 1.96541 -0.482187 -0.211868
17 8.2034 2.23084 8.44239 -0.675577 -1.10232 0.845049
468 8.44901 3.1268 7.87226 -1.33818 0.136273 -1.72866
178 10.168 2.23123 7.17874 1.31397 0.00743756 1.41292
526 10.4415 2.78686 8.11387 -0.209792 -2.46712 2.48526
388 0.242457 1.68453 8.67107 1.02295 0.752094 -2.77807
293 9.84356 2.12475 8.6231 0.113384 -0.714595 -3.48947
624 0.528201 4.05581 7.60989 2.11251 0.145373 -0.636706
784 0.806429 5.09515 8.98853 0.957687 1.2026 2.05699
95 1.38052 4.13354 8.05298 -1.21344 -1.80791 3.25361
664 2.40707 3.81448 8.53093 0.668743 -0.628168 -1.6418
713 2.09925 4.56812 7.27555 -1.40402 -0.821423 -2.67637
799 8.03533 3.49744 9.11257 -0.727189 0.0496246 0.0870632
287 4.64678 5.1716 7.08517 0.561764 1.3791 -2.24982
272 4.14985 3.45276 7.57761 -1.62116 -1.2896 0.633663
513 3.81613 4.25835 8.62292 2.591 1.71412 0.49152
604 4.12197 4.65358 7.6994 -0.375575 0.994558 0.513334
560 3.09682 5.10266 8.26958 -0.246634 1.30471 -0.396077
117 4.85931 4.7525 8.55865 1.60394 0.311743 -0.613996
62 3.34382 5.07465 7.07777 -1.11997 -0.233405 -1.18894
561 6.02353 5.03399 7.18402 0.357897 0.747887 0.0252369
88 5.81889 3.6569 7.53666 1.70984 1.23581 -0.24199
640 5.78771 4.87538 8.09402 0.642588 0.873087 0.58755
87 4.67695 3.52425 8.43281 -0.0098586 -0.93213 1.19843
261 6.20219 4.14447 8.88913 1.88012 1.52178 0.881367
844 6.58432 4.30353 7.69994 1.72642 2.61856 0.307722
565 6.5416 5.12124 9.12742 0.143072 1.42199 2.00642
308 7.01902 5.21955 7.32374 0.590292 -0.850581 -2.49025
339 7.22731 3.80773 8.30264 2.07672 -0.517766 -1.04565
65 8.03504 5.18062 8.41497 2.76418 0.365669 -0.0420652
729 8.90373 4.85425 7.39942 0.585134 -0.548824 -0.466066
474 8.35425 4.21001 8.03962 0.347643 -1.75844 -0.818198
783 9.29122 4.50633 8.77093 1.38404 0.601666 -0.544784
130 10.4576 5.20489 8.93344 2.41379 -1.26919 0.895896
652 9.85663 3.82558 7.99582 0.997282 0.649853 -0.195052
20 10.4697 4.7196 7.83592 0.563644 -0.743474 0.707448
467 0.930701 0.575307 9.15453 1.87911 1.48632 0.375722
184 0.813101 0.516077 10.2281 -0.402553 -0.0929019 2.28203
571 1.75268 1.63076 9.90822 1.2406 -1.09271 -0.0754242
181 10.4643 1.23505 9.95936 -0.342326 0.768272 1.06865
194 10.2218 0.068206 10.1858 -4.55391 -0.457703 -1.34849
758 1.8516 0.619598 10.3745 -0.472732 -2.32444 0.8482
203 2.42391 0.911542 9.54124 0.289393 -3.4781 0.259403
788 3.79442 0.719408 9.63162 0.992106 -1.11288 1.00871
227 4.31986 0.922687 10.5442 1.30658 -0.944849 2.16521
859 6.65314 0.844799 5.45522 0.826578 -0.520476 1.3519
30 5.31999 1.26232 10.6822 2.39415 1.0126 -0.339372
50 5.69342 0.971387 9.83193 2.08627 -0.336533 0.484422
570 10.0413 2.44521 10.5681 1.44104 2.11805 -0.406464
398 6.88838 1.21635 10.229 -0.12862 1.46583 -1.81488
408 7.51796 1.00921 9.32738 0.706078 1.95554 0.812095
619 7.91179 0.798444 10.4612 0.750193 -0.842438 1.7461
353 8.39138 0.355169 9.09405 1.95077 -0.970171 2.3666
646 9.64873 3.9765 10.6603 -0.27061 -0.269516 3.3956
476 8.87892 1.438 9.176 -0.824896 1.22316 -2.21807
516 9.06434 0.831578 10.0493 -1.97786 1.3826 -0.596636
9 10.6618 0.541744 8.73875 0.968839 -1.9937 -1.8395
433 9.57796 1.98879 9.78341 -0.672067 1.25675 -0.0658429
682 0.932179 2.10435 9.24508 0.107765 0.834943 -0.10424
834 0.683679 1.58653 10.4012 -0.0251271 -1.63401 -0.662353
378 1.11203 3.20602 10.3812 -0.164489 0.651563 -0.581908
379 2.85506 2.12524 9.76773 1.5972 -1.67115 -0.185527
254 1.7008 2.68137 9.84818 -2.50228 0.393331 -0.686565
243 6.95328 0.212924 9.22852 -1.91559 0.234388 -1.16607
802 2.4881 3.12723 10.4539 -0.512525 1.3504 -0.77644
172 3.76719 1.90991 9.88684 -0.803824 -0.640646 3.86098
428 3.6834 2.70169 10.686 1.49888 0.67347 -1.37685
301 4.10836 2.88273 9.74432 -1.37275 0.298139 -0.0610662
300 4.61548 1.95731 10.4449 -0.275548 -0.234523 0.618567
231 4.73406 2.6922 8.99268 -0.0437351 1.80394 2.24929
104 5.79596 2.96855 10.0865 -0.164312 1.85417 -0.0987962
236 4.87666 3.28829 10.2259 1.06371 2.01055 -0.610391
80 7.47393 3.79968 10.007 0.405003 0.374556 1.42882
170 6.89902 3.42135 9.13552 -2.02074 -1.69158 -1.24922
89 6.77216 2.07161 9.47831 0.8803 -0.715022 0.992108
115 7.21797 2.65503 10.2207 1.7367 -0.862554 0.45008
263 7.95522 1.9528 9.94544 -1.05615 -0.0463254 2.10936
57 9.02136 2.69981 9.99682 -1.24027 1.72716 -0.247662
382 9.11917 3.17344 8.8402 0.838788 1.42624 -1.56768
395 10.5447 2.59023 9.43539 1.53586 2.24471 -1.71963
685 9.80257 3.33791 9.69679 0.198315 -1.45699 -1.40076
605 10.5948 3.70896 10.3777 1.94915 0.709406 -1.20677
623 0.227553 4.28797 9.46186 0.0151868 0.0821609 0.334957
815 0.967126 4.88983 10.3929 1.15484 1.58496 0.813901
241 1.67926 4.71045 9.39911 -1.08553 0.570355 1.13604
649 1.70632 3.78005 9.79687 -0.515399 0.889304 0.0926629
626 2.15845 4.31148 10.4602 0.209956 2.02716 -0.221472
58 2.88115 4.43845 9.23816 -1.48844 -0.705103 1.21476
132 3.10825 4.66767 10.2962 -0.479269 0.218505 0.582159
416 3.5944 3.8242 9.81704 0.142833 2.20284 1.71355
818 3.81311 4.88232 9.61561 -0.4763 -1.73228 -1.14138
737 4.69916 4.09204 9.39741 0.640915 0.495913 -3.24327
393 4.30807 5.16265 5.36553 -2.33094 1.99942 -0.0508981
457 5.58016 4.46085 10.5061 -3.81338 -1.35923 0.807257
505 7.66805 4.66503 10.6093 -0.0110182 0.470149 0.962432
168 6.66579 4.25043 10.325 1.0884 -0.903591 1.05378
304 7.30206 4.47451 9.36392 2.16482 -0.425839 0.542284
334 8.5296 3.60418 10.7221 0.520113 1.27134 0.265528
496 8.23157 4.59707 9.34231 -0.697005 -0.656902 1.24443
803 8.43941 0.0412137 8.21498 -0.540973 0.680097 1.83201
154 3.06843 1.22351 5.47061 0.00442322 2.07994 1.53458
239 10.228 0.0542864 8.10263 -2.31882 0.0476919 0.411927
712 9.50087 5.30163 10.6483 0.615086 -1.47221 -0.67888
197 3.71546 3.95483 5.45835 2.13661 -3.98573 1.49883
41 4.77345 3.9376 5.45135 1.15895 0.336803 1.6466
839 2.11203 0.537457 5.40904 -0.101 2.7845 1.46256
110 9.72889 5.35544 7.34994 2.68727 -2.78884 1.28575
825 4.29138 2.99743 5.37938 0.23105 0.273069 1.36
864 1.10122 5.96734 0.86443 -0.175868 0.474864 -1.10051
410 1.58981 7.16362 1.12961 2.41075 0.206691 0.244398
745 0.291224 5.81759 1.35203 -2.05368 -2.28402 -0.880933
336 0.250138 6.53189 0.681746 0.708284 0.293032 0.871853
512 0.401804 5.59002 0.0989539 1.06957 -0.39308 1.31231
582 2.20259 5.63302 0.481711 0.631401 -0.041996 -1.27631
558 1.5721 5.41741 1.71443 -0.259123 -0.47252 0.738263
642 2.60457 6.55442 1.91387 0.297594 0.667395 1.98717
345 4.20649 6.44447 0.861125 -0.628324 1.47983 0.733226
189 3.05831 6.56524 0.682658 -0.956655 1.87785 -2.09764
237 3.68004 5.60112 1.39964 2.808 -0.119035 -1.19094
362 5.18307 6.60588 0.471954 -1.45791 -1.81513 2.4745
715 5.47379 5.92499 1.50387 -2.86839 2.23104 -1.60775
247 5.62268 7.56367 1.8866 0.244123 3.16683 -0.451714
775 6.04575 6.96996 0.833076 -1.41938 2.57632 -1.82311
595 7.02317 6.35976 0.306948 -1.8291 -0.556566 -2.79732
666 3.25776 10.6811 3.18219 -1.30864 -1.09158 -0.153776
610 7.9247 5.51332 0.386219 0.821961 -0.542229 2.99091
573 0.442551 5.44639 3.84182 -1.08329 -1.05783 -1.68312
385 6.6501 5.84142 1.27104 2.64231 1.72485 -0.907402
488 5.9853 5.98219 0.333321 2.57341 0.0707843 0.932494
108 7.53624 6.6463 1.91939 0.804039 -0.778826 -1.2479
628 8.7874 7.25519 1.7117 1.29599 -2.16921 1.02791
464 8.05347 6.74563 0.968562 -2.02854 0.866329 1.61208
639 7.38642 10.3477 0.223455 -0.190221 0.0711596 -0.0354185
608 9.78439 6.70425 1.77246 -0.931245 0.740363 1.46277
515 9.08895 6.26135 0.366008 -0.77944 0.645285 -1.47445
721 10.0516 5.81052 0.532213 -1.35029 -1.98704 -2.36986
827 1.12646 8.08 0.338717 1.08556 -1.86372 0.716045
838 2.25612 7.99048 0.376189 -1.33248 3.48306 -1.14987
841 2.50942 8.51032 1.13499 0.48242 2.48056 1.58152
177 1.58368 8.0866 1.15601 0.74616 0.647952 2.72125
520 3.77918 7.83061 0.52653 2.0084 -0.411354 0.0577489
862 3.6097 8.55181 1.33381 -0.720392 -0.0084952 -0.0492755
68 3.44075 7.68617 1.63416 -0.537707 -0.0397727 0.230776
829 4.51268 7.45161 1.32102 2.47291 -0.0809568 -0.394575
364 6.2595 8.15204 0.671281 -2.3673 1.81541 -1.51992
292 5.35063 7.78896 0.612767 0.810471 -0.597097 -2.01815
738 5.55458 8.6024 1.62676 -1.13341 -0.692903 0.631519
47 4.63158 8.51087 1.12738 -0.854055 2.12296 -1.20546
238 6.80167 7.74151 1.39767 -0.329314 -3.61458 3.36221
432 7.35841 8.79207 0.906199 0.288086 0.946527 -1.54371
311 7.59769 7.63614 0.610137 0.352823 -0.334881 -0.930939
37 9.54789 9.00287 4.47644 -1.87047 0.0420804 0.0356938
845 8.65847 8.18315 1.095 0.738706 -0.412713 -0.976698
350 0.0935122 7.42814 1.52173 0.268124 0.841134 -0.432531
289 9.99473 7.601 0.800081 0.143132 -0.56294 -0.834378
183 10.1846 8.97787 1.30378 2.19611 1.65221 -2.14591
638 1.25847 7.97565 5.30064 0.00848407 -0.897235 2.04273
668 0.399384 9.27033 1.09603 -1.02562 -0.685845 -0.269729
267 8.14222 10.6246 5.12671 -0.628342 0.249766 -0.540349
121 1.1783 9.37916 1.72862 -1.26822 -3.30287 -0.317975
409 0.13394 10.4866 1.18893 -2.36863 -1.94752 -2.01543
759 3.02484 9.5334 1.13862 -2.57461 -0.0589574 -0.393298
139 1.83534 10.2617 1.48546 -0.810806 1.76243 0.0746399
45 1.75795 9.27105 0.822268 -0.301281 0.785614 0.136366
647 3.0426 10.7228 1.15036 2.12663 2.20836 1.16582
163 3.7298 9.30336 0.493118 -2.13388 0.7963 -1.2744
63 3.98218 10.0264 1.30605 0.379564 -0.280031 0.27229
61 4.73228 10.3968 0.593337 2.04295 0.602493 1.69507
367 5.6633 10.092 0.735993 1.41033 2.16801 -1.14693
539 9.06094 8.05863 0.0451138 1.67765 -2.11866 0.419541
674 5.07341 9.28693 0.505325 -1.20101 -0.392286 0.148009
299 6.6507 10.4343 0.91789 -1.27963 -0.360874 0.740757
616 6.40435 9.3254 0.764285 0.338906 -1.48391 -1.55251
214 6.94349 9.71377 1.55276 -0.885301 -0.622917 -1.76238
847 8.42094 9.13333 0.667713 -0.453408 0.753486 -1.46225
187 8.87994 9.7837 1.39623 3.61034 0.19472 -1.48823
273 8.36701 10.4755 0.466205 0.32825 0.128864 0.756566
534 7.81219 10.5479 1.36606 -1.05097 -1.13449 0.207427
288 0.0523145 8.93954 0.0567576 -0.647006 0.752953 -1.33853
69 7.19343 5.42508 3.13372 0.875825 0.932785 0.634943
127 9.64172 9.5269 0.572464 -1.632 -1.60192 -0.364135
837 10.4233 9.65091 1.85447 -1.6952 0.119757 -0.00837866
102 9.55763 10.6182 0.475811 2.85102 2.89277 -1.15278
363 1.14286 6.39347 1.93646 0.132329 -0.691589 0.573133
544 1.19809 6.24858 3.29573 -0.474624 0.207479 0.0116321
701 10.6096 6.36667 2.45347 -1.01951 0.33412 -1.03467
720 9.52885 5.55101 4.78984 -2.21628 2.47952 -0.966359
705 2.34261 6.54393 3.05087 -0.770455 1.66882 -0.223843
340 1.96405 5.84794 2.58324 2.13434 1.63927 0.00236009
372 3.89333 6.94529 1.96528 0.470583 1.15685 -0.672943
28 4.66872 5.78675 2.6158 1.16068 -1.51262 -0.173497
655 3.31593 7.03204 2.87688 -1.6987 1.69946 -2.21025
215 3.18788 5.90348 2.41528 -1.41191 2.46444 0.50424
326 5.56598 6.99748 2.78958 1.30593 2.45129 -1.83507
136 4.91595 6.65827 1.89651 -0.466007 -1.44873 -0.407152
113 6.64883 6.35803 2.30482 -1.62252 -2.96189 1.39618
458 6.06355 6.21713 3.07272 -2.83262 -2.17548 0.239743
86 7.49321 6.43283 2.87201 0.449815 -1.39782 2.20011
421 1.71233 5.86069 5.05268 0.0693498 2.1979 -2.095
600 8.09703 6.37003 3.74349 0.250976 2.36776 0.501625
253 8.35125 7.04187 2.92151 -0.0182013 0.897724 2.37582
344 1.41644 6.8365 0.126975 -1.3136 -2.00391 2.31651
574 9.38869 6.45397 2.62877 1.9542 -0.633025 -3.12759
192 9.2736 6.24601 3.68893 0.797925 -1.37023 1.72749
406 10.2737 6.87939 3.24651 -0.287921 0.723801 -0.556805
612 6.87838 9.4852 5.33358 -1.63035 -0.522505 -0.487706
588 0.594376 7.23587 2.48213 -0.445281 -1.14906 1.38273
469 0.681274 7.82612 3.31694 -0.211343 0.0385013 1.65782
449 0.978589 8.30918 2.22666 -0.401683 -0.0154049 3.49725
613 1.61088 7.35628 3.32396 0.570602 2.38039 -2.3102
517 2.57033 7.77042 2.77064 -3.10039 -1.79933 0.0732341
747 1.65972 7.26435 2.25984 0.771068 -0.693681 -2.41077
4 1.77233 8.31349 3.54643 0.156461 0.748916 -3.18679
771 2.22225 8.94991 2.58082 -1.51465 -1.47224 -0.668699
119 4.30246 8.38873 2.13325 -0.575364 -0.0205236 -0.710465
191 4.34659 7.26819 2.86156 1.2432 -0.945247 -1.92249
730 4.39234 8.19475 3.52968 0.889628 -2.17385 -1.91484
552 3.38822 8.9065 2.24748 1.48874 -1.81652 -0.906715
77 3.23311 8.97166 3.7847 -1.66122 -1.8302 0.67586
772 5.14145 8.21627 2.72138 -0.92666 -0.832961 3.40378
402 5.38117 9.33255 2.76032 0.373852 3.78043 -0.900861