ITEM: TIMESTEP
47380
ITEM: NUMBER OF ATOMS
864
ITEM: BOX BOUNDS pp pp pp
0.0000000000000000e+00 1.0726842421158810e+01
0.0000000000000000e+00 1.0726842421158810e+01
0.0000000000000000e+00 1.0726842421158810e+01
ITEM: ATOMS id x y z vx vy vz
121 0.913567 0.123877 1.70179 2.17475 -0.699681 0.696095
527 1.43797 0.151721 0.899096 2.955 -1.0772 0.772755
146 0.494873 1.44199 0.722013 0.805297 -1.3162 0.0655059
617 2.31651 1.68157 0.933445 2.59069 0.0649866 2.07277
473 2.27907 0.749331 1.48332 0.126112 -1.81958 0.37765
809 10.5306 4.28074 3.72962 -0.0377866 -0.576834 -0.235465
343 2.7783 0.846903 0.576904 -1.53979 0.414979 1.11229
543 0.683144 0.494011 2.59984 -2.25805 0.879988 0.702553
843 3.65897 1.42872 0.708548 -0.781665 1.74909 -0.808446
147 4.48023 0.310401 1.21393 0.712832 1.16554 1.70162
411 5.64145 0.106844 1.15366 -2.21572 -0.155207 0.286614
412 4.73045 1.35332 1.26243 -1.62453 0.476865 1.06562
298 5.98406 1.42495 1.57804 -0.497602 -2.03539 2.01141
227 5.14041 1.00725 0.376755 0.442582 -0.124405 1.05191
375 6.9057 0.641811 1.08324 0.499091 0.753262 0.8123
491 7.71542 1.31504 0.687771 -1.23039 -0.45529 1.20281
494 8.40753 1.21969 5.2577 -0.866895 -3.42447 1.74542
30 6.36462 1.30122 0.310383 0.156456 1.19726 -0.323242
32 7.93261 0.737668 1.50925 -0.572833 -0.0539833 -0.778475
523 9.26801 0.279939 0.579545 0.263519 0.512847 -1.80048
680 8.63334 1.44476 1.14272 -0.256974 0.387075 2.3355
569 8.92288 0.092271 4.03301 -2.89408 1.74154 0.312311
587 10.4919 0.965646 0.281674 0.430147 0.288427 0.975317
167 9.81573 0.954185 1.36251 2.02061 -0.602626 -1.47713
59 6.03868 0.162342 4.77267 0.705157 -0.904962 0.612212
342 0.99469 2.79234 0.316058 0.584615 0.796776 -1.49052
632 1.84547 3.77196 0.60534 2.08134 2.6847 -0.533364
66 1.19736 1.96542 1.24558 2.77044 1.38047 -1.3068
221 0.932625 3.39334 1.38051 2.01244 0.584984 -1.14107
762 3.35669 2.3877 0.817703 -3.1301 -0.870681 -1.14022
524 2.04959 2.47775 0.339285 -0.53268 0.293664 -0.105275
804 2.7619 2.07882 2.02679 -0.773001 -0.584787 -0.921092
266 10.369 4.77114 4.79233 0.873011 0.184044 0.118319
696 7.55757 5.18422 1.02505 -0.488507 -2.2978 1.89354
416 3.6143 3.68986 0.55183 -1.55046 0.679891 1.80422
529 4.35711 2.40961 0.978502 0.562056 -0.0832185 0.594603
592 6.05897 2.45074 0.0989383 -1.99789 -0.773252 1.00308
55 4.92513 3.35259 1.15623 0.710761 0.280189 -0.803383
276 6.89381 1.95678 1.59336 -0.474459 1.85823 0.899408
849 7.30052 2.32054 0.522413 1.22081 0.265628 0.0984666
448 5.93823 2.56471 1.28013 -0.0139665 0.388929 -0.589719
180 6.47991 3.34354 0.499521 -2.08287 -1.01376 -0.303347
74 8.15851 2.61338 1.08143 -0.225147 -0.685487 -2.34713
148 8.96438 2.85932 0.58011 -0.605394 -0.12951 -0.806601
334 8.11614 3.3108 0.190579 -0.643058 1.00514 -0.703845
131 10.0897 3.08012 0.492608 -1.26885 2.50335 -2.14762
248 9.80067 2.35943 1.48005 1.15694 0.995956 -1.9354
570 9.51582 1.65832 0.641514 -0.519365 -2.12944 -0.86064
378 1.30699 4.59967 0.25861 -0.444702 -0.373838 1.88417
559 1.53711 5.19229 1.44378 0.963144 -1.36442 0.80734
86 5.92614 5.34723 3.06279 -1.54711 -0.58879 -3.02012
355 2.43979 5.28268 0.861778 -1.47289 0.830787 1.45112
767 2.91649 3.48505 1.28243 0.671108 -0.610957 -0.0544767
318 7.71365 4.57925 4.77083 -2.56326 1.03635 0.299062
824 3.03589 4.54778 1.28731 -2.97072 -2.41735 1.6596
764 3.95436 3.67936 1.62763 0.156309 -1.62228 1.50479
138 4.24665 4.35182 0.76809 0.413565 0.316876 1.14163
329 5.2699 4.26654 0.424572 0.501621 0.773626 1.20957
683 5.5406 5.28588 0.551756 -1.95195 -0.00801128 1.17564
556 5.93796 3.82068 1.32538 -1.24761 -2.29038 0.296616
715 5.54285 4.69928 1.79778 -0.284694 1.45079 -0.65769
437 6.39708 4.60892 1.02768 -1.32359 1.66157 0.0882776
196 6.95603 4.9145 1.85482 -1.18893 -0.532509 -0.278899
237 4.55935 5.22547 1.19787 -0.518144 -0.401314 -1.23651
233 9.54693 4.78407 0.340106 1.32216 -0.460744 0.843163
740 7.82083 3.67081 1.34009 1.33257 1.03846 0.686896
622 3.2531 0.192047 5.06975 -1.83357 1.17747 1.69306
360 8.22068 4.64683 0.175679 0.560609 2.5395 0.952392
807 9.04004 4.5306 1.24283 -1.21437 1.09683 0.313526
92 10.0923 4.25738 1.24934 -0.42073 3.00479 1.01964
805 0.654127 0.552065 0.480701 0.733771 -0.785064 0.275422
721 10.5958 5.08316 0.138166 4.41546 0.742488 -0.188957
763 3.2115 0.0139865 1.07906 -0.0834073 0.347314 -0.199105
521 0.128794 2.20344 2.0268 0.151818 2.63103 -0.719006
780 1.18404 1.40154 2.32288 1.00677 2.58418 -0.417239
497 10.4516 0.256617 2.52746 0.335553 0.914562 -0.201758
105 1.8125 0.292431 2.22331 -1.90825 0.590759 -0.106769
152 2.29956 0.51887 3.27131 0.0659907 -3.3904 0.244611
211 3.29537 0.872165 1.79189 1.36708 -0.643898 -1.1494
532 3.68776 0.0702659 2.12667 0.753296 0.561407 -1.5561
817 3.90193 0.803031 2.94024 0.852992 2.06264 -0.875407
173 4.44926 1.38817 4.0348 2.87371 1.50765 -0.615333
71 3.18761 0.430969 3.58439 -0.0807722 0.417496 1.19439
447 4.92917 1.18286 2.26942 -1.16662 1.5227 -1.38418
307 5.96012 0.549425 2.15548 0.991591 1.56699 0.574911
636 6.90722 0.571233 2.89059 -0.332186 -0.925861 0.402641
216 6.54614 1.58394 2.71459 0.0916627 0.516375 -0.962738
125 7.93634 1.95594 1.90342 -0.68047 -1.39616 1.82921
550 7.45268 1.71523 3.64998 -0.265974 -1.7692 -0.217574
812 7.35029 1.12379 2.13196 0.312105 -0.529955 0.217128
338 9.00352 1.43754 2.18316 -0.485989 -0.756506 0.386886
800 7.93305 0.916019 2.96364 -3.22698 -0.227673 0.534232
480 8.6486 0.239345 3.13703 0.96015 -1.29889 -1.08699
367 6.48044 0.227816 0.239887 0.542082 0.474665 0.654945
328 8.80271 0.31935 2.18293 0.569311 -1.78895 -0.603998
228 9.69127 0.780287 3.50293 0.880001 0.491056 -0.646343
85 9.66279 2.04872 2.78286 -0.887315 1.66566 0.540057
564 10.4698 1.47796 3.10027 -0.381938 -0.767379 0.641129
365 1.12804 2.48805 2.25129 -0.0118001 -1.17425 -1.25117
578 0.30779 2.61435 2.93498 1.18457 2.09137 -0.679094
394 1.44184 1.1649 3.31786 -1.29424 -1.92437 1.49734
156 1.42682 3.1192 3.32849 2.13491 -1.45311 -1.04319
405 2.01204 3.32758 2.14106 0.117205 1.63099 -1.46545
171 1.90097 1.99942 2.81109 -1.41209 -1.21123 1.45541
122 2.72333 3.18559 3.02157 -1.1546 -0.235573 2.37001
501 3.333 3.10023 2.17922 -0.492096 0.598124 -1.43313
681 4.34041 1.947 3.06963 -1.29465 -0.670143 -0.73932
509 3.8429 1.8375 2.10916 -1.09551 -0.24704 -0.0800546
822 3.36762 1.9014 3.17793 -1.01172 -1.27744 1.85273
294 5.34254 2.20638 2.36352 0.648372 -0.988066 2.36467
185 5.4736 1.87642 3.4697 0.854386 -1.69919 0.454697
816 4.58887 3.22807 2.86841 -0.491947 1.05077 1.31009
768 5.69665 3.5514 3.30087 -1.27088 -1.64398 -1.9273
435 6.19105 3.20437 2.33105 0.196622 0.953209 -1.11233
415 6.57615 2.51468 3.02038 -1.31866 -0.633112 -1.89217
776 8.23898 3.17874 2.85685 0.0425314 -1.44404 -0.872238
603 7.9336 2.53987 3.64255 0.499813 1.12227 1.36947
553 8.61393 2.05849 3.05371 -0.240462 1.49606 0.243217
607 9.14848 2.94623 3.20087 0.717121 0.539926 0.25045
765 0.311158 2.52229 1.1039 1.73166 -1.21166 -0.1761
630 10.055 3.27658 2.78733 -0.1601 -1.65694 -2.02104
535 0.598993 3.92838 3.09237 0.712073 1.80294 -0.0780098
707 0.00276332 3.41422 2.1279 -0.793803 -2.01929 1.20741
361 1.39488 4.15067 1.82974 -0.157371 -0.417406 -0.808683
363 0.740655 4.9915 2.35736 3.28993 0.823773 -3.98886
441 1.29544 4.81734 3.39495 0.730226 -0.747019 2.64452
114 2.66706 4.96433 2.07197 -0.914915 0.700203 2.98275
263 8.53914 2.03486 0.260628 -0.781162 1.28494 1.99815
60 2.19226 4.26312 3.1512 1.57256 -0.398874 -0.180069
778 3.18514 4.12933 2.41659 -1.22954 -0.970312 -1.51216
417 3.69109 5.27772 2.00705 0.664662 3.03766 0.235309
700 3.23519 3.76983 3.80771 0.103863 0.549142 0.997656
673 4.26309 3.63987 4.09166 0.671347 1.54776 2.18277
269 4.14917 4.31369 3.22645 -0.321206 -2.3264 -0.65269
377 5.29509 3.75395 2.17298 -1.62982 -0.228892 1.01401
275 4.998 4.88818 3.3165 0.642871 1.29036 -0.175244
204 6.86589 3.95985 1.63319 -2.79575 1.45659 -1.06311
198 7.18487 3.64056 2.54425 -1.36439 -0.913084 -0.924712
143 6.06969 4.3249 2.81992 0.927771 1.40811 1.539
6 7.4168 4.61209 2.7871 1.55227 -1.24724 0.96865
579 9.33548 4.0831 3.20237 -1.58052 0.408037 -0.480043
662 8.53789 3.90328 2.24685 -0.633405 -0.678946 2.56387
429 8.34332 4.29737 3.51233 1.3707 -2.35707 0.277661
618 8.87544 4.98383 2.57277 -2.48834 -1.89162 0.214744
669 9.55569 4.07646 2.25761 0.0837746 0.319231 0.0967583
819 10.3577 4.70683 2.84904 -1.72557 1.01395 0.241537
639 7.63577 0.11114 0.446283 0.509336 0.802132 1.0122
403 0.358006 1.0869 4.04887 -0.374312 0.341695 1.39282
686 0.961534 1.70302 4.68821 -0.926941 -0.147009 -3.01903
692 10.4296 1.59577 4.76554 -1.75839 1.21448 -0.0188919
581 1.46019 1.16317 5.33877 -0.193385 2.40628 1.29821
384 9.16632 0.173776 4.98208 0.9323 -1.57897 0.578152
438 3.29888 1.52807 4.6307 1.07829 -1.28221 -0.470073
190 4.34222 0.432598 5.05827 0.352428 -0.449254 -0.520179
284 4.88085 0.453814 3.97564 1.24677 1.05503 0.186405
212 6.42351 0.706329 3.91772 0.726661 2.82765 -2.20984
73 6.4694 1.91726 3.78675 -0.862162 -0.595025 -0.511357
10 5.30794 0.668573 5.06163 -0.85738 0.0689847 0.33454
508 7.14642 0.177428 4.17941 0.434216 -1.71347 1.68693
259 6.27181 1.5493 4.6649 1.06674 0.0132847 0.27513
485 7.4298 1.14674 4.82995 1.62122 1.00969 0.239674
397 1.38674 1.76551 0.190944 -0.713428 -0.876221 3.05567
240 7.95719 0.889434 4.00291 -0.75168 -0.0684422 -2.28679
324 8.58581 3.99567 4.79392 0.303277 1.58329 1.96058
267 8.10889 0.108677 4.71645 0.324512 -2.45514 -1.67237
551 9.56884 1.02422 4.6064 1.94567 0.0249723 -0.576798
18 10.4893 0.345155 4.64887 0.693118 0.206961 -1.71527
290 0.596239 2.69054 4.99316 -1.32292 0.665616 2.55588
455 10.4117 3.14732 3.93556 -1.34835 1.13682 0.822253
426 2.48211 1.57465 4.09648 -0.404304 -0.43616 1.06089
725 6.31987 4.33565 4.09371 -0.367554 1.36198 0.455911
633 1.91284 2.39897 3.86877 0.57239 -0.976432 0.378885
220 2.88893 2.53872 4.53197 -1.37168 0.932248 -0.673109
425 1.91486 2.99366 4.77754 0.565318 -1.68053 0.996569
663 9.75434 4.89795 3.8579 -0.450219 -0.953903 -0.767845
424 3.61182 2.81826 3.69547 1.00575 0.0575288 -0.181865
739 4.76411 2.66972 3.7105 0.123168 -1.40132 -0.174157
444 4.4111 1.48042 5.00247 -0.220804 -1.60553 2.05799
460 3.86795 2.65977 4.91359 -3.24316 -2.13773 1.83087
195 5.26348 1.9975 4.5854 -2.61423 -0.34724 -3.17939
676 6.52263 2.50211 4.76653 -1.43731 1.22541 -2.01999
492 6.58566 3.21514 3.99102 -1.13996 0.147581 1.78872
575 5.45213 3.18147 4.54688 -3.17416 -0.0739665 0.491079
471 6.74359 3.7925 4.93016 -1.65818 -0.402905 -0.152425
144 8.66257 2.10271 4.29561 1.07829 -0.970651 -1.60788
145 7.53125 3.10454 4.48425 -0.949861 0.264067 0.953596
690 8.74166 3.21617 4.08997 0.187949 2.08375 -2.60828
717 8.68102 3.0367 5.32066 -1.72979 1.48642 -1.05084
741 9.71649 3.57255 4.54211 -0.59476 -0.768064 0.625757
777 9.84244 2.35783 4.8577 0.735659 1.8399 0.465366
599 9.56173 2.05892 3.85771 0.0851215 -0.0656857 1.91772
534 7.34036 0.107315 1.92191 -1.45614 -0.0351692 2.40517
179 1.24194 4.0731 3.95658 0.470073 0.666912 -0.0383146
801 0.587717 3.93052 4.87934 0.702362 0.615584 -2.31464
573 0.536828 5.02847 4.43579 1.40709 -0.309257 1.41228
69 6.79915 5.31057 3.98893 -1.46061 -0.281563 0.645843
256 1.60216 5.08451 4.25618 -0.759971 1.53636 1.95183
317 2.25244 3.74442 4.1605 0.583362 -2.15777 0.447225
245 2.75806 4.74257 4.47019 -0.0778892 0.141529 -0.887134
788 4.07932 0.438026 0.33879 -0.910751 2.56113 -0.349498
749 9.09617 5.05077 4.55203 -0.391549 1.94867 -0.51226
107 3.90342 4.04851 4.93464 -0.904564 0.367743 0.697266
235 3.99939 4.7641 4.06537 -0.908523 0.928072 0.0845161
349 3.6148 5.11842 4.98091 2.39377 -0.0741573 1.10968
300 5.15324 2.17892 0.333684 2.49635 3.32397 -0.208876
758 1.8354 0.745236 0.134171 0.428479 -1.61914 0.618489
35 5.57354 4.97679 4.40697 -1.27266 -1.21553 -0.403498
445 5.69931 4.03582 5.25201 1.27879 -1.29614 -1.12476
706 7.4344 3.89227 3.64101 -0.74142 -0.369621 -1.60673
123 6.60723 5.02388 4.96797 -1.56219 1.43376 0.613844
818 3.65499 4.77715 0.0897303 0.77022 -0.972269 0.760718
91 4.97597 2.74888 5.31253 -2.71284 -0.596527 -1.93518
64 8.25788 5.34332 1.74043 2.0652 -1.55531 -0.307634
701 9.84798 5.35079 2.36855 0.112692 -3.64585 1.91586
823 2.17192 5.36172 5.17063 0.862768 -0.792089 0.520843
295 4.62322 5.17347 0.00653893 -0.582935 -1.30097 1.88685
283 0.419237 1.05373 6.49406 0.262771 -0.475701 -0.296864
118 0.649309 1.81466 5.80259 -1.91241 1.16183 1.10289
688 0.725647 0.463588 5.4632 0.510085 0.933731 -2.40732
281 1.18781 0.428895 6.5846 0.546443 -2.9788 0.267231
389 0.0882549 0.0785669 6.7668 -1.2982 -0.313212 -0.138942
609 2.7053 1.22297 6.81187 1.14135 1.62806 -0.851658
333 2.25469 0.30518 6.6119 0.39363 1.39338 -0.637518
839 1.43476 1.69624 6.54801 -0.106013 1.58095 -0.0598169
562 2.37239 0.693897 5.49185 -2.49925 1.73954 -0.0733421
357 3.95035 0.620919 7.209 1.04885 -1.72503 1.08781
371 3.35866 1.14182 5.84754 0.587166 -2.85627 0.953872
859 5.64788 1.44419 5.58241 1.55109 2.31059 -0.314258
128 4.37326 0.990828 5.86314 -0.0827802 1.62828 1.19873
14 6.2325 0.637553 7.13877 3.05671 1.18212 1.69802
531 5.74314 1.48405 6.96001 -0.877338 -0.761872 1.11864
354 1.67512 4.71748 5.86214 -0.391505 0.618608 2.40956
200 5.19335 0.405386 6.84074 2.41481 1.64594 0.0241772
286 7.03175 0.594842 5.59806 1.39029 -0.17986 0.472256
2 7.33607 1.76726 6.53162 1.39142 0.676666 0.480218
546 6.13732 0.581004 6.20179 -2.63899 -1.42087 -0.82467
250 7.0203 1.37585 7.51205 -2.47354 -0.493458 0.356571
359 7.47374 0.0655839 6.94748 0.153673 -0.259205 0.865414
605 10.0341 3.07407 10.2338 -1.47241 -1.79837 0.431785
656 8.13558 0.832219 6.12562 -1.4697 3.40817 2.63071
331 5.1691 0.0108783 9.81139 -1.48845 1.37726 0.307835
369 8.57437 5.11433 9.84449 -3.23694 -1.11779 -0.794698
580 10.1912 0.364345 5.72197 0.95501 -2.53473 1.87245
658 9.9192 0.590978 6.62588 -1.94712 1.29412 -2.29733
137 9.01101 1.35993 6.72504 0.111786 0.944817 -1.36408
598 0.704195 2.10251 7.13209 0.524916 -1.76578 0.192919
413 1.85101 2.8442 7.00993 2.30643 0.146322 -0.202579
24 0.809543 3.43842 6.2167 2.13846 1.61926 -1.71193
781 2.54868 2.51751 6.45778 0.517584 1.13668 -1.82858
193 9.69574 5.29813 9.3301 0.920288 0.57063 -0.606484
786 2.26371 3.64171 6.19627 -1.03422 0.913125 -0.680683
154 2.79624 2.09894 5.54133 -0.816722 0.738709 0.0877086
456 3.61917 2.26033 6.69907 1.34373 1.58308 -1.72144
752 4.28876 2.82497 7.2617 -1.21894 2.56895 1.18156
825 4.25504 3.27001 5.93024 3.58387 1.34746 -1.00812
627 3.40785 3.20541 6.89225 0.558583 2.37511 -0.216795
547 5.35121 2.30481 6.21213 2.56339 -0.0509637 -0.0953092
199 5.74593 3.24102 6.18601 -0.250383 1.19983 -0.635379
79 10.4137 0.0964313 8.67432 -0.865813 2.54504 0.505496
414 7.98116 2.91341 6.46796 0.575697 0.51508 3.40632
51 6.80194 1.69445 5.65054 0.046535 -0.691394 0.80595
90 6.35155 2.24831 6.76917 -0.50918 -1.2506 0.315091
684 7.73375 2.2899 7.43745 1.75065 -0.177219 0.320474
381 8.61304 2.1502 6.13695 0.0692411 -2.34575 0.0360404
753 9.41876 2.83354 6.07068 0.369884 -2.26884 2.7425
830 8.12789 1.01924 7.52225 0.161954 -2.84411 2.51206
670 10.109 1.74896 6.98482 -0.730167 -0.681263 0.300813
452 10.6904 2.70731 6.28312 1.03039 -1.53402 0.382713
279 9.38641 1.49844 5.75064 -0.330687 -3.15563 -0.557901
697 9.36056 3.05415 7.04124 0.662254 2.29219 2.31886
593 0.554303 4.80352 5.58168 -0.842048 0.30021 -0.559098
528 1.53769 3.41278 7.71043 1.37392 -1.33233 0.500955
102 10.2041 0.0245058 10.6541 -0.722126 0.128436 0.480643
268 1.83387 4.61611 7.21708 -2.64882 -0.696375 2.93481
29 2.90293 4.52864 6.37278 0.171499 -1.9204 -0.229932
197 3.94436 4.73384 5.90581 0.684735 -0.0821489 -0.00860176
459 4.94126 4.86301 6.51517 -0.0659057 0.462256 0.503127
323 5.57585 5.07994 5.54746 -0.778342 -0.493746 -1.12121
96 6.09588 4.22184 6.09342 0.0481261 1.70342 -1.03517
561 5.92043 4.9843 6.6831 3.14692 2.19521 1.37186
470 6.49855 2.68401 5.83967 0.281242 -1.36632 2.31099
404 7.43266 4.99591 6.23337 2.3621 -0.789794 -0.348401
142 7.2824 3.93258 6.22039 2.69702 -1.34068 -0.895976
597 6.82008 4.60306 7.02155 -2.09202 0.724063 0.507573
271 8.36089 3.86551 6.70217 -1.08908 1.74345 -3.32302
174 8.77064 4.98156 5.49376 2.11736 0.282504 -0.374011
566 7.98423 3.77065 5.498 -1.83634 1.47406 -0.162151
54 10.2007 4.89027 6.07543 -1.07574 -0.817033 0.777193
16 10.1763 3.63869 6.4961 -0.100235 0.468332 1.5437
262 8.59838 4.74626 6.65014 -0.226034 0.035071 2.10912
652 10.6855 4.52243 6.85278 1.00001 2.88575 -0.801492
726 1.37117 1.17844 7.45184 -0.841078 2.56447 0.552655
23 10.4604 0.538238 7.63113 0.447493 -0.719981 1.1054
540 1.59008 1.40925 8.39586 1.1804 1.13988 -1.26595
442 2.17112 0.693508 7.81942 0.766261 0.4366 -2.10674
427 3.74339 1.52803 7.7513 1.9449 0.793709 2.3655
5 3.98223 1.04566 8.72686 -1.40233 -1.3415 2.82359
124 6.65073 5.27014 8.3618 1.41975 -0.60633 -0.713423
83 5.67796 0.165449 7.86235 -0.555158 -2.58844 -0.567032
704 4.13004 0.619995 9.64061 -3.477 3.21156 1.69264
25 5.07357 1.28686 7.91754 -2.06572 -1.36822 -0.208587
12 5.24369 1.25616 8.98046 -3.17249 2.48598 2.02774
230 7.24481 0.717791 8.3362 -0.769829 -2.31576 -0.225591
322 6.07493 1.06916 7.98505 2.24114 0.176815 1.1021
217 8.58798 0.294339 8.07154 -2.22894 0.686291 -0.283263
239 8.74033 0.235644 6.52368 -0.650392 0.425737 0.276108
742 9.10815 1.23613 7.69532 1.27477 -2.51196 0.023613
251 9.63523 1.79208 9.64107 0.371602 1.39598 2.38309
388 0.41629 1.30553 7.7817 -0.0665671 -1.26512 0.894666
689 9.36913 0.167365 8.62259 -1.93576 0.0353445 -0.958081
9 9.97498 1.00812 8.28694 -1.29798 -2.08918 -1.21107
601 1.44644 2.38272 7.83149 -0.561245 -1.50592 -0.250274
93 0.0771695 3.39723 8.98146 -2.68949 -1.80336 1.17296
153 1.38731 2.68862 8.75962 0.772967 1.75194 -1.36101
526 0.428167 2.55766 8.04288 1.08424 -1.01506 0.0396635
423 2.26629 1.80192 7.50073 -1.14688 -0.902094 1.14267
126 2.90453 2.82142 7.57312 2.38499 -2.4794 -1.58457
120 2.29001 2.39203 8.47249 0.995315 -3.03746 1.0746
246 3.45718 2.50666 8.63412 -2.27216 -1.48044 -0.094607
555 4.71415 1.6045 6.88688 -0.757853 -1.84943 -0.975216
260 3.60467 3.96491 8.02585 0.459395 0.732488 0.173207
446 5.37714 2.52114 7.17003 0.665826 2.42368 -0.783128
808 4.70705 2.28216 7.97606 0.634234 -1.55167 -1.37691
252 6.14086 3.68638 8.60339 -0.0446171 -1.92862 -0.424188
87 5.12418 3.16374 8.21193 -0.376468 0.509059 1.08762
231 5.65374 2.32465 8.38877 0.479503 -0.114463 -0.338411
853 6.49433 2.52735 7.89959 -1.67286 0.99168 0.123423
99 7.30215 1.68506 8.42316 1.58048 -0.109123 2.63351
339 7.07425 3.31844 7.05542 -1.33659 -1.90722 0.8346
170 7.03115 3.57479 8.94805 -0.417431 -1.05895 -1.55205
468 8.64391 2.97963 7.63727 1.51843 -2.08124 0.50705
799 8.47768 3.45134 8.54697 2.03355 1.1957 -0.501473
476 8.60741 1.78105 8.35201 -0.440415 -1.02229 1.29654
17 9.34826 2.31879 7.61227 -1.24748 0.457122 -1.17987
178 0.289763 3.26908 7.20706 1.94565 -3.32716 -0.191368
293 9.74003 1.91375 8.67933 -1.83503 1.71785 -0.0879966
431 2.78701 3.24762 5.39505 0.599788 1.55355 -0.151827
624 0.347545 4.01624 7.848 3.17564 -0.0354854 -0.117901
95 1.46267 4.13597 8.78315 0.283037 3.29616 1.94909
70 2.70756 4.58106 8.31173 -1.21193 -0.158812 -0.620967
664 2.90114 3.37187 8.56798 0.818295 -2.0661 0.996699
713 2.44378 3.76093 7.28733 -2.21773 -3.34219 1.37592
272 3.79051 4.16421 6.71068 -0.302814 -5.44054 0.0283328
62 3.03869 4.62569 7.36057 0.289387 -3.77307 -1.14457
386 4.8965 3.89983 6.93268 -2.27786 -0.0867333 -1.8151
117 4.50641 4.18223 7.97278 -1.30072 -1.32548 -0.0736083
640 5.60094 4.27303 7.72805 -3.20389 0.67031 0.92943
88 5.8529 3.32065 7.52561 1.23557 -1.29116 0.657276
844 6.67796 4.14454 7.88634 3.32982 -0.341087 0.382839
756 3.2709 0.222264 6.42872 -0.844485 0.800056 0.538704
265 7.76518 4.65602 7.22428 -0.0796682 -1.36477 -1.84627
729 8.63628 4.36358 7.89452 1.37389 -1.66701 -0.6537
474 7.72097 3.72695 7.71624 1.04308 -1.05219 -2.50692
724 9.35543 3.73636 7.92941 -0.0052373 1.09445 1.89655
110 9.67692 4.88492 7.13491 0.230967 -0.49642 -4.54757
783 9.59314 4.79801 8.15372 -0.219601 1.64269 0.0150972
382 10.0993 2.89829 7.99382 0.433283 0.335215 -3.17559
184 0.856443 1.10498 10.1572 0.973891 1.53958 0.565515
834 0.664349 0.68941 8.54624 -0.372719 1.01849 -0.55678
383 2.69526 0.574851 8.58169 3.01793 -2.70576 0.206769
571 1.3798 1.13126 9.27833 -1.24064 0.623676 -4.01224
379 2.27204 1.46715 10.2364 -0.487763 -2.86972 1.42648
162 3.26043 1.75595 9.46178 0.0174798 -1.10645 2.11173
716 4.35801 1.62028 10.4286 -0.983292 0.996344 4.44585
50 5.76299 0.926471 10.0073 2.3885 -0.227213 -0.88238
44 1.5843 0.143928 8.49667 -0.0164203 -2.31934 1.92628
792 6.77583 0.814933 9.28023 1.16356 -0.596765 1.44207
218 6.67311 2.14001 9.92182 -0.754058 0.168817 -1.87811
398 7.15793 0.352672 10.0366 -0.017301 -0.49542 0.753944
408 7.73328 1.17488 9.2644 -0.289446 -2.04033 -0.0828388
41 4.72892 4.30628 5.44261 0.899714 -1.42091 -1.15712
309 10.5959 5.2191 9.92875 2.28951 1.03769 1.72666
353 8.74189 1.02545 9.26904 1.32012 2.29773 -0.501802
168 5.95493 4.69755 10.2935 -2.19077 0.789092 -2.49434
619 8.45385 0.720128 10.6935 -1.90509 0.14303 1.40851
181 10.4462 1.35738 9.91911 1.11672 -0.272306 1.25297
194 9.24519 0.15638 9.80559 -0.648625 -1.02322 0.271467
516 9.59197 0.908562 10.4676 -0.880462 -2.80138 1.41312
489 0.175086 2.49554 10.4602 0.523483 0.156354 0.0158458
297 1.6684 2.27703 10.0572 -1.43597 0.140677 1.74614
604 3.82978 5.28745 6.67637 -0.0312066 1.00641 0.990237
395 0.355542 2.44111 9.20231 -0.490436 -0.721478 -0.81172
682 2.43312 1.5249 8.94282 -0.309926 -1.06543 -0.523074
254 2.62499 2.46856 9.58653 2.26841 -0.557992 0.422716
428 2.78502 3.00014 10.5936 -0.990356 -0.535863 0.760404
172 3.73462 2.92347 10.2339 -0.813693 0.0322805 -0.051898
226 5.50814 1.9461 9.90394 1.18782 1.27044 1.0562
709 4.91189 2.88529 9.33647 -0.190538 -1.53817 -0.240754
301 4.4253 2.0381 9.03352 0.38255 -1.56244 -2.68528
104 6.02916 2.66484 9.29279 -0.146965 1.72743 -2.06679
236 5.55688 3.10709 10.332 -0.273979 -1.10844 1.60999
454 7.97955 1.81867 10.251 0.787249 -0.962564 0.877966
15 7.35372 2.72048 10.371 1.50177 0.297493 -2.05373
89 6.56003 1.86386 8.92684 -0.691866 -0.170165 -0.857039
115 7.39069 2.63261 9.18642 -0.519654 -0.915921 0.0345843
80 7.92509 3.87975 9.56777 3.43338 2.64644 -0.892311
57 8.38242 2.61241 9.39641 -2.18251 0.702727 0.52246
646 8.80681 3.85866 10.3122 -0.623057 1.92531 -0.42457
433 9.19305 2.53545 10.3335 0.498014 2.10316 -0.974699
685 9.42748 2.93705 8.92007 -1.22094 -0.659431 0.0534649
130 0.697281 5.02527 8.77553 2.57759 0.423821 -2.08096
623 1.05716 3.31039 9.47196 1.08183 1.71797 0.250646
815 10.6401 4.17685 10.3446 0.0797026 -2.24814 2.26196
241 1.24788 5.27277 9.84355 -0.580234 0.885052 -1.27663
649 2.14731 3.76954 9.42756 0.98525 -1.03643 2.02398
626 2.69649 5.14824 10.5916 0.380022 0.940689 -1.99485
58 2.63177 4.74314 9.35395 1.07362 0.0059889 0.369676
305 4.58781 4.81967 9.11155 1.19791 -0.161366 -0.0387856
537 3.1236 3.5785 9.53187 1.52645 -0.534311 0.170255
513 4.26424 3.41472 8.57176 0.463423 0.012459 -1.24205
560 3.72955 4.25912 8.98695 1.59572 0.175651 -1.07491
672 5.80783 5.31981 8.97869 -2.25959 -0.404306 -1.34077
519 5.14943 5.242 9.83139 -1.06308 1.65147 0.373641
457 4.86818 4.11305 10.0129 0.517706 -1.88422 0.166297
737 5.67526 4.16883 9.33053 -1.68465 0.170217 2.0422
53 2.55234 0.172179 10.4468 1.2264 -0.0235819 0.706512
261 6.40986 3.45683 9.9735 2.36167 -0.516054 1.23007
304 7.87105 4.30447 8.60977 -1.37985 -0.850976 0.593719
565 6.76743 4.55125 9.0922 -2.56009 -2.25377 0.693135
21 9.8361 3.90788 8.85858 2.60092 -1.3763 -1.99499
496 8.7682 4.96054 8.87608 1.22247 0.119663 -0.347482
33 7.60369 5.03387 10.2543 -0.0867756 -0.946246 -0.00753511
712 9.80772 4.38336 9.91265 1.23371 0.236436 -1.24696
166 10.7054 4.50713 9.23091 -0.833177 0.986144 0.211842
802 1.72963 3.35296 10.2579 1.13176 0.413034 1.02925
302 4.23958 2.08442 5.91089 1.26217 0.473396 1.9379
390 9.23681 4.02999 5.96775 -0.928828 -2.09738 1.14215
797 3.01771 0.369719 7.47513 -2.34642 1.44329 0.516147
380 5.2868 0.225283 8.7762 -0.521897 -1.1062 1.3217
467 0.999167 0.12944 10.2654 0.0654427 0.48992 1.2669
505 7.25152 3.97999 10.5544 -0.813495 -0.108317 -1.41517
208 3.23016 1.74247 10.4343 -0.907219 -0.0663179 -1.64464
828 2.01246 0.450192 9.5877 -0.00568869 3.39831 0.904213
779 7.7807 2.45978 5.50107 0.991207 1.22868 0.580115
533 1.81703 2.27044 5.54509 -1.46131 -0.230808 1.83749
743 4.6433 5.21183 7.94941 -0.350995 -1.12917 -2.10751
661 10.6527 3.4007 5.45492 1.10411 0.907306 1.60382
465 6.48714 0.0152053 8.71129 -1.74325 0.558421 0.203868
225 2.84218 4.03386 10.6576 2.03071 1.27956 -2.05437
478 2.80965 4.31207 5.40306 1.61668 -0.618185 1.2019
243 8.3412 0.0147651 9.38494 2.26343 1.42363 -0.966299
336 10.7226 6.90238 1.37203 0.463205 0.436573 0.279454
512 0.711054 6.44276 1.90784 3.08516 -0.483103 1.5166
392 7.11753 10.4185 5.20287 1.52915 -1.66456 -0.891454
292 5.50555 8.33471 0.285293 0.437012 -0.625815 0.620537
160 0.693168 5.7378 0.690861 -0.790098 1.70272 -0.608641
864 1.72985 6.28188 1.3932 -0.210555 -2.08508 -2.51613
642 2.46112 6.96668 1.49499 1.29578 -0.358339 -0.481103
659 2.97795 6.55343 0.807861 0.592887 0.622768 0.688231
201 1.74986 5.82557 0.0253467 -0.367081 0.878433 -1.94464
345 4.38822 6.18114 0.704053 -0.0539413 -3.05174 0.693803
829 4.85725 6.90298 1.63672 -0.243664 -1.21303 0.0263766
372 3.81271 6.24493 1.7955 1.08435 -0.544528 0.140324
8 9.90596 9.17326 4.99196 -0.696623 1.51542 -1.40498
362 5.35868 6.65999 0.776322 1.70342 -0.768109 -1.49161
488 6.35793 6.37434 0.916352 2.50202 0.109367 -0.858167
136 5.43319 6.01235 1.54831 -0.119693 -1.37179 -0.0497417
150 7.78363 10.6977 3.488 0.221109 1.59699 0.712341
82 7.48583 6.19089 1.27894 -0.332792 -0.459119 -1.63079
506 4.64635 5.45841 4.38752 -0.804229 -0.670924 1.69614
628 8.44454 5.88211 0.814559 0.642776 -0.877663 0.0124974
515 9.14463 6.16965 0.142502 -0.908112 1.97457 1.19348
608 10.3876 6.32917 0.662309 3.02637 -0.760083 0.988273
602 9.83574 6.53812 1.87055 0.606768 0.554835 0.945581
827 0.120202 8.116 1.95879 -2.5242 -1.25714 2.11544
860 9.85599 10.0994 4.45014 0.412313 -0.0653221 0.123633
668 0.655136 8.42728 1.04164 0.306249 0.0239769 0.243222
344 1.45982 7.21944 1.43832 -1.30149 0.145308 -0.632933
177 1.72046 8.48555 1.83661 0.144183 -2.8266 2.32489
647 2.23801 10.4146 1.49478 -0.214924 -0.596198 0.360098
68 3.79165 7.19022 0.573526 2.13528 -0.353935 -0.40165
47 5.06332 9.15548 0.911441 1.26073 2.53597 2.1603
430 3.74236 8.53424 0.869263 1.94555 1.05509 -0.848849
614 3.45143 5.44633 0.994722 0.717305 0.968469 2.50602
247 5.87055 7.53083 0.78851 0.278998 1.27527 -2.3489
520 4.29255 8.04915 1.80705 -1.44174 1.27301 1.61595
738 5.44721 8.28023 1.55492 -2.52704 0.683678 -1.91358
702 4.72063 7.81865 0.873291 -1.13571 -0.705176 -0.489418
464 7.37829 6.90873 0.320363 0.929885 -2.07484 -1.99431
432 7.45552 8.99316 1.13485 2.50868 0.678206 1.62943
311 6.95139 7.3326 1.13875 3.9709 -2.84884 -1.33785
820 6.97689 8.50148 0.381677 -0.225409 0.953312 0.0162175
845 9.31872 8.35853 0.537311 0.413434 -0.542695 0.409056
206 8.38338 8.50035 0.928148 0.905187 0.872786 -0.822839
734 8.34611 6.99402 0.179399 -2.06764 -0.81048 0.327703
289 0.0610626 7.22491 0.0315298 2.17349 0.814277 -1.065
183 9.89839 8.0832 1.23416 -0.346495 0.941811 -1.79899
539 9.5144 7.08298 0.464797 0.756882 -1.96138 0.827205
643 8.83767 7.50365 1.61906 -1.55767 0.518874 0.0573314
745 10.7154 5.56445 1.68961 1.49534 0.747747 -1.69576
139 1.805 9.57243 1.05835 0.651894 0.598364 -3.10112
443 0.571484 9.8976 1.41813 0.403434 -0.218844 1.25129
133 2.78794 9.84086 0.232426 1.68278 -0.620272 -1.31056
813 1.82002 10.1528 0.169037 -0.149945 1.03894 -0.18681
759 2.79908 9.36977 1.48063 -1.70283 -0.0326884 -1.15387
45 1.97469 7.96532 0.391346 3.48402 -0.930818 0.847438
495 8.67604 10.0967 5.0434 0.0417601 -0.0535686 -1.14003
163 3.99857 9.60744 0.316561 -0.973856 1.31576 0.469219
63 3.84318 9.49283 1.45783 -0.633135 -1.34738 -0.0637677
61 4.66354 10.0583 1.03722 -1.36664 -0.0439879 1.21364
616 5.77896 10.1345 0.496104 -1.17807 -1.06588 -0.166888
857 6.01588 9.3954 1.60944 -1.31314 0.870305 -1.16175
299 6.62731 10.2115 1.16572 0.691531 -1.8828 0.571264
214 7.77769 9.76858 0.317154 -0.792526 0.269396 -0.22931
631 0.53529 10.3485 4.87434 0.8855 -0.634125 0.572046
78 10.5482 10.6401 1.11642 2.20142 0.432162 -1.32685
637 9.53129 10.3649 2.28866 1.8881 1.96142 1.2777
112 8.61104 9.78888 1.07949 2.45758 2.13966 -1.19198
187 8.85481 9.33006 0.123551 -2.47911 1.58664 -0.875726
837 9.54505 10.1187 0.920042 -3.15159 0.555326 -1.66773
814 10.4589 9.28117 0.666698 1.1195 1.6386 -1.01881
613 1.62042 6.97744 3.67243 -0.330746 -0.401228 3.5388
747 0.706948 7.30585 2.24541 2.47016 2.36933 -2.28975
558 1.73902 5.63458 2.28034 2.01591 0.179793 0.287196
482 1.35292 5.87141 3.47917 -0.932332 0.556618 0.125108
705 1.64089 6.95477 2.62386 -1.2457 2.14992 1.39904
340 2.77298 5.9564 1.69731 -0.25321 1.11901 0.472135
770 4.35503 5.6915 3.44397 -1.15495 2.09873 -2.94131
28 4.82613 5.58612 2.29905 0.274286 -1.80289 0.979581
215 2.93692 6.4115 2.84163 0.019758 -0.349389 0.325788
140 3.95041 6.68697 3.50716 2.58761 -0.545821 1.37373
461 3.30066 5.37638 2.91816 -0.0340199 -1.91851 -1.16781
326 5.97149 6.9743 1.57025 1.91748 -1.82655 1.51919
113 6.46307 5.80581 2.08731 0.269714 0.268209 -0.636675
458 5.32119 6.41301 2.79401 2.59883 0.610243 1.09525
149 5.44858 5.90165 3.87308 0.707797 -0.569313 2.18418
385 7.01986 6.90844 1.98945 -0.300822 0.474606 -0.935341
108 7.41526 5.62098 2.63882 2.76506 0.401411 -0.384303
641 7.6881 9.84212 4.61552 0.10927 -0.254869 -1.37232
785 7.19249 6.60663 2.93843 -0.523323 1.03727 -0.688024
103 8.29247 5.41402 3.67958 -0.4167 2.07938 -0.782291
574 9.27943 6.77331 3.02709 0.419957 1.50549 -0.340062
634 8.14156 7.42046 3.50915 0.0530418 2.6877 0.309679
736 8.44836 5.94744 2.73277 -0.266567 -0.882972 -1.63809
787 9.81642 6.01784 3.332 -1.01569 0.668629 -1.9026
350 9.97792 7.38168 2.33051 -0.67181 1.51224 0.12633
337 6.40912 9.88491 3.63538 1.45459 0.761767 -0.964329
588 10.654 5.96532 2.68798 0.547818 0.355705 -1.28822
449 1.00939 8.10413 2.72125 0.717354 -0.272288 -0.386437
541 10.5832 9.24852 1.88849 0.285826 -0.636048 0.851694
554 0.428063 8.6848 3.33977 0.126485 3.57244 0.536761