ITEM: TIMESTEP
50840
ITEM: NUMBER OF ATOMS
864
ITEM: BOX BOUNDS pp pp pp
0.0000000000000000e+00 1.0726842421158810e+01
0.0000000000000000e+00 1.0726842421158810e+01
0.0000000000000000e+00 1.0726842421158810e+01
ITEM: ATOMS id x y z vx vy vz
805 1.99163 0.18764 1.07032 -1.22381 -1.72923 0.67558
365 1.33556 1.15641 1.22694 0.267745 1.88462 0.799551
780 1.98652 1.34255 0.6033 0.634962 -1.95977 0.289371
184 0.701713 1.91745 0.911082 -0.62824 2.18043 0.823923
302 3.19767 2.27236 5.32628 -0.702629 0.872055 -1.73174
762 2.68927 1.80785 0.958725 0.483904 -0.362031 1.14224
180 6.4411 5.07148 0.599027 -0.215633 -0.526997 2.44833
842 10.1547 0.292491 1.58 -3.20702 0.484406 -1.47232
509 4.34732 1.30121 0.890627 -0.539031 -1.43142 -1.14413
227 5.05645 1.59477 0.216964 -1.53286 -1.17157 1.13515
147 3.34634 1.46014 1.78715 -0.736299 0.936419 1.53128
211 3.89727 0.318219 0.766841 0.371218 0.714071 0.0464849
351 7.3642 5.29663 1.0655 -0.793096 -0.210984 0.212116
172 5.18994 0.580155 1.31331 1.41393 0.560744 1.17602
30 6.08486 0.760823 0.384235 -0.350348 -1.0262 -1.50881
639 6.9996 1.07328 0.206468 1.10623 -3.20067 0.173612
534 5.91178 0.0648057 1.60533 -2.09679 -0.457448 0.779227
338 6.87908 0.498613 1.03014 0.10954 -3.13319 -0.704273
557 7.41234 0.706084 1.95171 0.0631373 -2.63572 -0.0808086
122 1.83167 1.53663 4.75307 -0.0241327 0.785412 -2.26485
491 7.71087 1.68898 0.939632 -0.0784814 0.828953 0.41853
136 3.50957 4.64206 0.317089 1.20345 -0.207739 -0.882225
167 8.61292 1.20188 1.28565 -2.17651 0.594403 -1.75904
318 8.75631 4.88196 3.16018 1.75139 3.48625 -0.476738
707 0.949009 2.89601 0.749487 2.43096 -1.24196 -2.09806
767 2.53341 2.66921 1.25428 -0.410539 0.0138983 1.48856
853 5.32256 5.23461 0.169779 0.486199 1.2977 1.36991
809 0.643285 2.61293 1.73441 1.08771 -0.0837837 -2.29974
416 1.51294 2.05849 1.43109 1.09658 0.847828 1.08234
208 3.24153 3.00507 0.247593 1.52732 2.83257 -2.86369
535 1.64714 4.91907 1.33014 -0.823443 -0.101615 -1.28395
529 2.76364 3.47245 1.84922 0.967482 -2.04463 0.343316
632 1.59337 3.88597 0.60033 1.74228 -1.87496 -1.54112
617 3.67028 2.00119 0.925973 0.547621 -1.68197 -0.213637
138 3.74848 3.41974 1.75314 -0.600936 1.39701 -0.906572
588 0.911195 4.91313 0.395153 -2.03565 -1.24816 0.687602
412 6.31038 1.64493 0.739997 0.352518 0.521273 -1.82941
448 6.25036 2.77786 1.47829 -0.535762 2.03123 0.80229
300 4.52455 2.4458 0.708862 -0.980851 -1.42911 1.82559
295 4.91583 3.41903 1.17293 -0.766428 -0.721472 0.627475
204 5.5899 2.55612 0.274535 2.41675 1.3071 0.363058
115 6.82741 1.82019 1.7283 -0.548995 0.0791455 -0.0239542
381 7.80538 1.41907 5.23291 0.637305 5.66099 -1.25086
454 7.93952 3.06521 0.60783 0.588266 2.36819 1.03653
74 8.9002 3.79048 0.993696 0.310891 1.1015 2.10887
578 9.33516 2.31307 1.55983 -0.373596 -1.00056 0.351571
334 7.09526 4.22246 0.515118 -2.73543 1.61551 0.0142394
570 10.3981 1.50597 1.6104 -0.0431188 2.53418 2.26017
680 9.79009 2.47288 0.510329 0.709773 0.245625 -2.94292
703 6.03194 0.0883961 5.13278 -0.402558 1.42522 1.05349
45 0.94356 4.11258 1.22913 1.67054 1.28739 1.34499
342 1.85733 2.32185 0.286942 -0.345671 -0.139384 1.13428
566 8.97338 1.31049 4.90684 2.11579 -1.00628 -2.54053
220 2.09602 2.50761 5.2584 -1.41558 -1.61432 -0.442935
556 2.44453 4.17529 0.941817 -0.353383 -1.71322 -0.732578
494 10.1568 0.249286 5.1027 -1.97053 -3.50109 -0.313817
836 4.7509 5.06148 1.47236 1.74624 0.162944 -0.166047
715 5.88521 4.53719 1.47954 2.00338 1.46369 0.801325
270 4.63242 3.34947 0.240897 -0.953113 -0.304949 -1.71925
599 9.66921 4.28338 5.11782 -2.06834 -2.27953 -0.653463
104 5.33309 4.23851 0.504823 -0.0306088 -0.0469107 3.56476
485 7.35852 0.0742461 4.24062 -0.0401996 -0.461846 -0.964961
592 6.15487 3.60721 0.732436 -0.159124 1.4468 -0.96007
503 7.62638 4.01053 1.44515 0.901647 -1.85048 -0.692031
696 8.46221 4.30942 2.30905 -1.34841 2.03751 -0.457166
198 7.08406 3.23777 1.22741 0.770124 1.35342 -1.09027
807 8.73429 5.22952 1.40283 0.606464 0.13007 1.51692
561 6.37623 3.90885 5.21807 1.67169 1.3903 -2.28643
642 2.93747 5.16983 3.17894 0.0106227 -2.14373 -0.418709
148 9.73215 3.41412 1.80558 1.52479 -1.06968 2.64809
712 8.10774 4.55464 0.411425 0.138521 1.04306 0.17732
473 2.08917 1.25254 2.49431 -1.11644 -1.30338 -0.763798
121 0.726345 1.62586 1.98233 1.82466 0.181291 -1.07933
411 4.36366 0.0298054 1.79355 -0.763899 1.0776 -0.512827
128 2.64371 0.876666 5.10591 1.48713 -0.518512 1.74937
661 8.78946 3.25661 5.33917 -2.29392 1.58799 1.05858
851 2.85672 0.307608 3.43938 -0.658495 -0.25953 0.257788
71 3.13254 1.46126 2.73914 1.92916 1.07666 0.721448
817 2.49563 0.887502 1.62364 -1.03501 -0.341176 -0.362347
209 1.58288 2.45902 2.67007 -0.96968 0.185592 1.39637
173 3.89907 1.31397 3.66093 2.21215 -1.01009 -0.20893
17 9.31762 1.0989 0.479944 2.52161 -0.533303 0.299295
409 10.1865 1.56752 0.506229 0.218866 0.86282 1.20247
436 3.66642 0.362466 2.71942 0.333572 -0.78496 -1.90803
750 5.86001 0.797961 2.2768 -0.600399 -0.185513 -0.197199
447 4.68706 1.99901 3.8013 2.24131 1.29479 -1.13215
681 4.39273 1.06533 1.97039 0.848044 0.423106 0.541733
315 8.51178 1.64402 2.1075 0.33308 1.23438 2.15625
739 6.83802 0.357441 2.79791 0.413775 -0.452455 -0.359995
259 8.73998 1.25658 3.26641 -0.448017 0.5049 2.69126
523 7.85427 1.98832 3.61404 -1.9016 -0.780742 1.2639
182 9.52301 1.0902 2.15239 0.264823 -0.535631 -1.42211
630 9.1511 2.28555 2.93249 1.59004 -0.161744 0.410888
800 7.88968 0.154332 1.27273 0.313377 -2.58659 2.08974
543 10.4839 0.785048 2.52458 -0.158257 0.680449 -0.689318
860 10.2815 2.25371 2.72553 -0.922702 -0.163745 -1.92494
156 0.582037 3.8736 2.55359 0.416659 2.24419 0.47742
564 0.368365 2.8653 2.99221 1.82867 1.20929 1.36133
66 2.32253 2.14776 2.14359 -0.927801 -1.78155 0.678008
824 0.153949 2.40226 4.00457 -5.85506 -2.21461 -0.618116
441 2.30586 3.30213 2.86562 -1.15851 1.52704 0.947859
804 3.16242 2.742 3.07962 -0.378967 2.40853 1.6674
778 4.14668 2.41997 1.89624 -1.55224 -1.41665 -3.03702
501 5.26449 2.03295 1.28322 -0.281895 -1.78414 -1.47386
438 3.08655 3.48157 4.10083 0.996074 -1.87518 0.417151
768 5.31179 2.64111 2.35644 1.1836 0.844913 -2.05489
375 5.0973 1.66794 2.22782 -1.6576 -1.25854 -1.92529
276 6.09917 1.52276 2.87325 -0.637341 1.56926 3.70403
435 5.75992 2.46079 3.8104 -0.108903 1.42735 0.403925
298 6.14452 2.72512 2.89149 -0.289355 1.96415 -0.763599
603 7.25925 3.37161 3.57686 1.94771 2.60468 -2.88142
6 7.05584 2.77993 2.41651 1.15027 -0.402211 0.816783
32 7.6959 2.4637 1.57145 1.81888 -1.07577 0.969092
550 9.60903 3.09533 2.92729 0.422642 -0.100839 -1.43687
146 10.3473 2.566 1.67222 0.612141 1.18054 -0.30754
228 8.53943 3.1028 2.07669 -2.12705 1.02914 0.811002
363 0.0244405 3.38241 1.21899 1.26632 0.622227 -3.43957
787 1.53483 4.50372 2.35599 1.33197 1.23853 -3.99638
443 0.570341 0.0981348 1.80255 -0.168411 0.47239 1.21514
819 0.361262 5.16662 1.666 -1.54388 -0.37007 -1.17618
512 2.57197 4.63875 2.23916 -1.04052 1.61771 0.579913
764 3.55374 4.35196 2.87323 0.530994 2.65264 0.328073
336 1.6049 3.30534 1.71248 1.38853 -0.853937 -3.51918
614 3.31521 4.82394 1.65013 -2.33222 0.413661 -2.13459
294 4.86312 3.55521 2.15211 -1.91069 1.71677 0.591113
340 4.84159 5.00459 2.9948 -0.915907 -0.132115 -3.76937
835 2.52113 4.47245 3.97977 -0.972529 -0.763909 0.930436
329 6.28756 3.91107 3.50928 -2.35149 1.63161 -0.74247
417 5.58519 4.9841 2.3379 -2.53162 0.749864 -1.83264
82 6.71758 4.31344 1.91542 0.127147 -0.398541 -0.667406
673 4.93084 3.95168 3.30021 1.61291 1.84324 -1.96233
275 6.4389 4.7184 3.06639 -0.217827 0.861087 0.125897
196 7.41908 3.85494 2.4853 1.79592 0.908852 0.588765
699 8.41129 3.67552 3.51297 2.4956 -0.400428 0.741534
85 8.21144 2.71494 2.99026 -0.652551 0.51316 1.02588
108 7.49347 4.76704 2.83805 -0.00578417 0.150415 0.781615
455 9.39135 4.04809 2.74806 -0.741777 2.3673 -0.178033
179 10.4661 3.3483 3.57609 2.0982 -1.22329 -1.91038
690 0.0119082 4.21126 4.22066 -0.303494 -0.292339 0.566581
669 10.2406 4.27404 1.47759 -0.421903 -1.66145 1.30505
579 10.371 4.67334 2.56306 -1.57969 0.974953 0.129276
675 0.820576 1.03058 3.06043 2.38159 1.56021 -1.95737
686 10.4593 0.246723 3.60273 -1.5353 -2.36307 -0.681491
403 0.740922 0.57048 4.9917 -0.598098 -1.22526 1.36555
631 0.895724 0.44865 3.90877 1.52529 -2.4817 -0.0464837
152 1.73771 0.566696 4.9156 0.738981 -0.052143 -0.925208
822 2.89811 1.26263 4.11728 -1.81952 -0.819056 -1.81313
426 0.886454 1.67369 3.93643 -0.268732 2.44739 1.06593
72 4.19905 2.09845 4.7537 0.765956 2.62644 0.500272
371 3.98131 0.0476095 3.8594 -0.766465 -1.80882 -1.04112
212 3.64131 2.5924 4.0314 -1.72301 1.41435 0.782681
444 4.98034 0.518814 5.07461 -1.12884 -0.768596 -1.11637
284 4.70661 0.698816 3.87888 -1.70071 -1.49782 1.0372
282 6.42922 0.975906 5.15846 -0.779315 1.06385 0.706783
812 7.83 1.11896 2.82761 1.13219 1.23109 -1.62144
207 5.54523 1.11352 4.48181 -2.30372 0.215233 -0.389208
185 6.38155 0.71454 3.72881 1.30189 1.05148 -2.05504
103 6.44077 5.28611 4.11609 1.21863 -0.123097 0.519376
286 7.42288 2.09829 4.62395 -0.157498 1.59194 0.631205
240 7.851 1.09601 4.24265 0.349686 0.234342 0.418663
508 9.50281 0.693276 3.98998 0.0983315 1.77864 1.09222
125 9.50574 1.82501 4.07917 -1.63162 -3.13 0.497567
858 10.1753 1.28416 4.6907 -2.05987 -1.40357 0.577047
144 10.4846 2.30786 4.89864 0.669459 -1.28113 0.436191
587 9.45873 0.0901626 0.782366 -1.5111 2.8905 -1.60262
633 0.0568467 1.10914 3.81101 0.514483 0.718378 0.00931663
397 1.24087 0.423293 0.431648 -0.875582 -0.0197689 0.431397
105 1.73399 0.489882 3.33779 0.103226 -2.22955 0.0930372
171 1.97081 1.9727 3.4566 -0.663671 -0.642486 2.37069
385 7.26965 4.41533 4.07231 -0.0279543 1.85086 1.90166
154 2.71849 2.21449 4.36256 0.510371 -1.45918 0.675992
700 1.81723 2.97077 4.10764 1.30257 -0.703458 -0.18586
424 4.02437 3.51368 2.94553 -1.49383 -1.06837 -1.18843
91 3.9362 3.04404 5.12774 -1.20371 2.11273 0.536944
575 4.68834 2.96349 3.99021 -0.720638 0.448759 -0.817602
478 1.45763 4.91494 4.80203 0.937302 -2.34204 -0.0093312
195 5.23905 2.16957 4.62744 -1.29653 1.45681 0.630804
445 6.98868 3.49288 4.55267 2.30211 1.57709 -1.0829
150 8.01048 0.042509 3.27833 1.57525 0.425372 1.75664
26 2.26624 5.34633 4.21454 0.0778673 0.261177 0.586534
127 8.20822 0.102231 0.110801 3.2779 1.48215 -1.98118
776 6.93169 2.45232 3.80429 -2.96035 1.1387 2.00906
725 6.23783 2.40415 4.72418 1.23732 1.30412 1.91254
73 6.97797 1.52738 3.8165 -0.453847 -2.78523 -2.03848
554 9.25761 0.117877 3.00054 -1.83607 1.64697 -0.647651
429 8.56832 4.31729 4.47471 2.90759 0.607778 0.0737325
636 8.47702 2.18992 4.69173 -1.27006 -0.258911 0.422117
706 7.85338 2.96555 4.29828 -0.564883 -1.30187 -0.477513
607 9.79449 4.28128 3.6232 4.09512 0.769445 -1.23423
360 9.73466 5.26162 2.26197 -1.13868 1.47104 2.34421
521 0.161417 3.36039 4.70306 -0.309683 -0.611693 1.46169
390 9.64042 2.88627 4.30516 -1.92042 3.48452 2.36321
405 0.987108 2.62134 4.70291 -2.05294 -1.23788 -1.38343
317 0.959024 3.63039 4.06675 2.48563 -1.22798 -0.83748
629 0.431641 5.13421 4.85226 2.32185 2.02468 0.306008
801 0.599721 4.80719 3.02206 -1.20637 -2.12202 -1.63499
694 3.03374 4.96777 4.73596 1.63772 -0.169508 0.68922
245 1.90413 5.18077 3.23376 -0.197161 -0.900651 -2.65979
60 1.4711 3.56436 4.97438 0.507431 -1.47405 0.630649
431 2.51536 3.99267 4.9151 -0.370981 1.31288 0.951666
816 3.7574 4.55534 3.84871 1.35321 0.747834 -0.634568
28 4.20373 5.11588 4.66479 0.532911 0.510355 0.0388101
439 3.74041 1.33628 5.26444 -3.11725 0.18198 0.361091
377 4.68666 4.03249 4.54261 -1.9453 0.027971 -0.372499
41 5.07959 4.99275 5.1763 -1.41812 1.37473 -2.35769
35 5.62697 3.56179 4.53714 0.431114 -1.4123 1.37645
415 5.52619 4.60429 3.81477 -0.791149 -0.74345 -1.06835
618 7.27768 5.07326 4.99423 2.88823 2.15852 -0.401106
574 8.62823 0.568561 2.36109 1.92669 -0.515996 1.14744
174 9.00844 5.11357 4.89535 0.257278 2.60967 1.95256
107 4.91617 3.24534 5.02635 1.39385 -0.990268 -0.954411
40 9.2058 4.79023 0.24354 -1.94465 -0.640405 0.580581
559 10.2128 4.66695 0.529929 0.4372 1.07956 1.5856
450 9.54567 5.2306 3.9615 -2.0329 -0.559636 0.485007
129 0.163104 0.649463 0.870596 1.95184 -0.772142 1.40752
118 0.632343 0.467741 6.99241 0.799226 -1.33844 0.788714
688 2.64016 0.578175 7.10017 3.5397 1.83382 -0.677888
692 1.50891 1.71984 6.18414 -0.0109706 2.39346 0.607467
604 3.12404 5.09016 8.22496 -0.426171 1.29168 1.10262
98 2.65295 1.83913 6.91834 -0.445285 0.831805 0.588412
609 2.56985 1.70314 5.87206 0.987133 -1.17196 -0.993589
622 1.35785 0.7347 6.41656 0.149283 -0.456838 0.560495
456 3.17281 1.00898 6.32129 -2.75353 0.496732 1.13137
467 2.25534 0.276184 10.3302 0.218167 -0.411254 0.5049
263 8.83096 2.71422 10.406 1.13764 0.00800789 -1.14941
756 4.57196 0.708234 7.37777 -0.0730833 1.42669 1.15403
200 5.88421 0.77558 6.66206 -2.96993 2.29896 3.03158
859 4.63464 1.16356 6.16913 -0.796756 -0.185739 1.93757
10 5.82043 0.830447 7.73758 1.11989 -0.339241 -0.23746
111 5.16651 0.28727 6.02288 0.473053 -0.506309 -0.0118231
14 6.79319 1.12043 7.27128 -0.929931 -1.45575 0.816516
392 7.01969 1.54925 6.20542 1.29578 1.00643 -1.60299
502 7.98705 0.169032 7.18236 -1.12822 -1.11513 -0.00409696
670 8.39943 1.21131 5.96968 -0.330552 0.914992 -0.769919
830 7.8964 1.18581 7.29522 -1.41583 2.00588 0.64964
656 8.63469 1.9055 6.87962 0.954809 -0.0389304 -1.28015
239 9.5928 0.592315 5.85827 -1.42366 -0.406419 -1.16896
753 10.3468 1.21669 7.02563 -1.26523 -0.00803347 0.12955
777 10.4092 1.47878 5.95778 2.33033 0.840037 1.04477
137 10.0248 0.337543 7.39577 -0.0935516 -0.644009 0.701322
598 0.905998 2.02518 5.51625 0.0945835 0.10824 1.01905
526 1.54325 3.01597 6.09225 1.31088 1.70661 -0.531058
110 10.5417 3.74705 6.77819 -1.3343 -1.57782 3.54766
781 3.22586 3.7299 5.89634 -0.600009 -0.851212 -1.12976
413 2.70009 2.87129 6.15856 -0.4225 -0.374345 -0.763465
62 1.39232 2.89596 7.92553 -0.996845 -1.03126 0.356127
404 8.302 3.88444 6.12849 0.389875 -2.00494 -0.63473
786 3.59212 1.83244 6.12007 1.11243 0.491246 -1.98216
460 4.39786 2.47043 6.58878 1.61864 -1.19288 1.26844
752 4.55227 3.59137 6.21025 -1.00468 -0.00615857 -0.580092
825 3.58563 2.9753 6.49342 0.919316 -0.932387 0.469031
50 4.87247 0.713135 10.6257 -0.971031 1.67718 2.7016
547 5.47009 3.83642 5.71087 0.00487091 1.56588 2.07303
90 5.41621 1.86207 6.80524 1.15479 -0.455098 -1.2189
446 4.58218 3.1888 7.26395 -2.09588 -0.523578 -0.624207
145 7.42898 3.46821 6.17859 -0.354562 3.02341 1.79784
470 6.06233 2.93492 7.5952 2.12969 -0.859829 -1.3982
96 5.49671 2.8606 6.69871 2.37874 -0.827337 0.3003
142 6.87532 3.17677 7.07257 -0.237122 -0.83704 -0.895375
717 9.54815 1.62888 6.48096 -1.53124 0.5611 2.32954
271 9.31366 2.61677 6.38839 0.37276 -1.24078 1.38996
232 8.48414 0.484622 9.64429 -0.52339 -0.439338 1.41865
290 10.3585 2.3913 6.93209 0.274916 -0.155028 1.59356
382 0.369111 4.61457 6.46336 -1.3768 -0.721766 -0.260997
237 4.44636 4.27486 10.6224 -2.1254 1.06413 -2.00886
178 1.3307 4.01399 7.81567 -0.851401 -0.405295 0.667097
594 1.47892 4.88246 6.99449 -0.319693 1.55076 -0.544156
321 9.1252 5.06161 7.41361 -1.09312 0.909843 0.464941
581 2.25406 4.08755 5.88216 0.988747 -1.61948 1.7432
236 5.9979 5.34115 8.77912 0.963164 0.513012 0.0340902
627 2.81924 4.49832 6.76189 1.83139 0.793314 -4.30378
349 3.78492 4.31837 6.69153 0.473701 -1.71376 3.20795
595 8.40362 4.93992 10.2425 0.98538 -1.86669 -0.714352
272 3.66767 5.12639 7.11993 -1.21186 0.413308 0.0914816
553 7.85341 2.66512 5.5986 1.40727 -2.38243 2.618
277 7.4084 0.16577 8.3053 -1.26264 -1.0046 1.77414
685 0.0898498 4.56056 9.1172 -0.92611 -2.33086 -0.717709
143 7.13617 4.34003 5.67185 0.110186 1.81329 -2.12351
611 6.42328 4.8743 6.43665 -0.188634 0.550023 -0.979107
597 7.6465 5.12921 6.11549 -1.09318 3.57096 -0.192614
728 7.56336 4.23882 7.03975 1.21729 1.61128 -0.917565
262 9.17046 4.59703 6.39762 0.482295 -0.870282 -0.235219
729 8.56306 3.8639 7.14897 0.430624 -0.94376 -0.37222
425 10.1088 2.85383 5.59821 0.81787 -0.544442 0.0703565
573 9.55041 3.69315 6.00586 -1.07537 -0.256949 0.152858
24 10.4248 4.26032 5.64231 -0.910826 1.88999 0.0405632
94 9.63601 3.8778 7.26967 -1.99524 0.432587 0.0336903
619 8.48083 1.2882 10.6486 2.2105 -0.744601 -0.38085
49 3.96386 0.480269 5.82493 0.152889 0.586614 -1.51094
320 0.724789 0.655002 9.11279 -0.392891 -1.30163 -1.56544
839 1.15661 1.86293 7.18315 0.454539 -1.81514 -0.251536
423 2.3921 1.48963 7.90548 -0.687626 1.86555 -0.151748
44 2.10675 0.224599 8.27022 0.619724 -0.646712 -0.437536
126 2.85278 1.80234 8.88824 1.84498 -1.78208 0.318237
5 3.17522 0.671891 8.09351 -1.67588 0.244326 -0.236959
466 3.38728 1.40475 7.27374 -0.0638199 -0.282808 -2.64036
808 5.07866 0.65497 8.37761 -0.618537 -1.69185 0.457989
743 3.85336 5.01222 9.75689 1.03358 -0.806446 -1.34695
471 6.07032 1.7785 5.71705 -1.28772 -0.483491 -0.198135
654 6.07614 0.925783 8.73269 1.65848 0.9189 1.31084
792 4.77629 3.09166 9.21156 -1.33226 4.00774 -0.250398
25 7.50485 2.19658 7.2141 0.0780584 3.78092 -0.579575
199 6.52858 2.6185 5.62678 -1.38441 -3.58651 1.054
57 7.16771 1.04293 8.72512 1.70405 -1.26232 0.23526
796 9.29763 0.33037 8.90702 3.11952 1.12257 -0.723634
2 8.89472 0.879856 7.37142 0.880279 -0.12259 -1.2177
388 10.2878 0.383692 8.40129 1.03487 -0.0305836 2.46709
225 1.94507 4.58543 10.5369 -3.13501 1.4786 0.194731
779 9.52003 1.13272 8.20483 0.303445 -1.96844 -1.03355
516 9.87885 0.159655 10.2076 -0.325214 0.504427 0.381306
562 0.599097 1.50702 6.49564 1.43192 -0.402951 -0.916098
726 1.25404 0.59558 7.89231 2.48067 0.0548599 0.733795
601 0.39252 3.64096 8.07448 0.999667 -3.33764 1.97674
120 0.646989 2.75916 6.82992 -2.01875 1.08696 -0.698802
268 0.470205 2.30283 7.76449 -1.22725 -1.24411 -2.72925
664 2.80068 3.68108 8.31883 0.869485 1.92368 -0.327235
713 2.45999 2.72669 8.26202 0.0498279 1.75219 1.03149
260 2.44125 3.37028 7.2364 -0.5512 0.558958 -0.896413
540 1.60272 2.03823 8.27694 -1.40285 0.466512 -0.0310472
29 3.69138 3.55052 7.51451 0.315668 3.65197 -0.31208
555 4.34386 1.68901 7.25914 1.62746 -1.6632 -0.0507524
513 3.5575 2.69407 8.05652 1.05005 1.68468 -2.57769
231 4.56886 2.28553 8.10442 -0.730886 -2.27422 1.07824
560 3.85404 4.40653 7.9267 3.13569 -0.386241 -0.0305423
357 5.48918 1.77106 8.10175 -1.54041 -0.278772 -1.0234
339 5.24214 3.13603 8.18351 -2.66207 -0.635383 0.578812
250 6.60087 1.73566 8.07204 -1.86442 0.501607 -0.455782
51 8.54126 1.85825 8.00341 4.28294 -0.779267 0.077157
170 7.06437 2.92025 8.13879 -0.349959 0.736804 1.90672
697 8.30005 2.92594 6.82988 -0.313863 -1.88184 -1.60915
489 8.83718 2.97296 7.74663 3.32078 2.08989 0.555432
452 10.2666 3.04396 7.6353 0.914865 1.13399 -2.14308
414 0.512105 1.36016 7.68692 3.59169 1.50933 2.02602
724 10.0836 2.20792 8.28053 -0.584045 0.567951 -3.00097
799 9.30876 3.01793 8.54478 -0.224258 -0.846592 -0.589216
849 6.93557 3.36448 10.7055 -2.98723 0.885568 1.79097
624 0.690743 4.79104 8.28574 -0.874112 2.01846 -2.54994
515 7.42731 4.96343 10.5516 0.755684 1.58276 -2.51821
279 9.59563 2.02724 5.54134 -0.30043 1.36556 0.733534
714 1.78749 4.09339 8.81744 1.73282 -0.718878 -1.99131
709 4.67812 4.47492 7.36753 -2.17524 -2.18064 -0.379048
583 3.53002 3.57813 8.91377 1.54548 1.01636 0.190117
87 2.34154 4.38363 7.68767 -0.314283 -0.652294 0.109102
386 5.4333 3.81054 7.129 0.442137 -0.942788 -1.73432
531 5.5089 4.2023 8.90583 1.75072 3.32889 2.14588
640 5.27671 4.49603 6.46439 0.0516018 1.31696 1.1842
672 4.87159 5.00185 8.50624 0.207762 0.875631 -1.58629
88 6.48671 3.84629 6.3003 -0.227122 0.582373 -0.855296
258 7.27261 0.610256 6.5621 0.94621 0.29296 -1.76124
565 6.38066 4.08862 7.51175 1.49473 -0.343605 -2.50289
407 6.85591 4.95598 7.92075 -0.545968 0.153767 -3.11888
304 8.24136 4.97804 8.56191 -0.866502 1.74012 1.68238
265 8.37476 3.80981 8.07254 -0.356992 1.73835 0.0848027
844 8.02204 5.20427 7.23738 -0.117327 1.76882 -0.754978
783 7.44791 4.04901 8.03888 -0.52879 1.20603 -0.436114
293 10.334 4.73508 7.54562 -1.37096 0.807799 -0.70781
496 9.40623 4.21167 8.61777 -2.10536 -1.71562 0.221875
741 9.98184 5.19663 5.38981 -1.32181 -1.69482 -2.30802
223 8.38707 0.188306 6.35388 -2.29885 0.466477 -0.93851
281 1.36868 1.48125 9.22671 -1.99267 0.909419 -1.31921
181 10.1264 1.65039 9.96227 0.167363 -0.181729 0.664408
93 0.393377 1.70246 9.54974 -0.495253 3.58614 0.151952
297 0.179405 0.919618 10.4742 -1.21433 2.47501 -0.780115
203 10.6009 0.471368 9.6112 0.338913 1.05424 1.55279
815 0.489221 4.09071 10.4538 -2.3273 -0.862935 0.457098
524 1.69135 1.44426 10.3128 -0.069101 0.132433 0.854561
246 2.44957 1.17837 9.65312 -1.27959 1.31157 0.968915
153 3.54585 1.70836 9.53818 -1.60535 0.695415 1.05424
716 4.2228 0.920471 9.71822 -0.11739 -1.81485 2.03837
682 3.92485 1.43978 8.35735 1.51889 -1.2883 -0.663607
331 3.34975 0.867755 9.06286 -3.72387 -0.808729 -0.300565
55 5.53486 1.93202 10.1286 -1.62962 0.74448 -1.63503
427 5.1266 0.71142 9.44196 1.52548 -0.645237 0.453328
677 10.0253 3.76672 10.6581 1.7323 -1.06209 -0.937469
99 7.40744 1.00685 9.86788 0.839363 1.77182 0.108519
312 6.41972 1.20859 9.67891 0.150131 1.99914 0.668992
323 5.9804 5.08111 5.45626 -1.57154 0.934246 1.04125
476 8.51687 1.50449 8.96148 -0.478748 0.0256925 -0.167139
248 2.69487 1.86971 10.6452 -0.703486 -1.38201 -1.78564
468 7.96268 2.35911 9.69046 -0.0790468 1.72723 -2.18598
765 10.4186 2.94953 10.1547 1.07272 -0.878886 -1.75201
834 0.256454 1.72753 8.62723 0.356598 -0.242744 0.435259
623 0.68147 2.06469 10.5587 -2.56037 -3.12218 3.20058
58 2.10284 2.1791 9.50438 -0.213602 1.69876 2.15799
221 2.64863 2.86743 9.96641 -1.73779 0.884752 0.658185
305 3.28345 3.90397 10.178 -0.12039 1.08247 -0.324683
802 1.3832 3.04761 9.07241 0.550447 -1.65729 0.0482529
162 3.86527 2.4492 8.90441 -1.37607 -0.053409 -2.31696
254 3.97305 2.15911 10.5663 -2.4155 0.0139626 1.48304
301 4.79476 1.72644 9.10774 0.655982 -0.212978 -1.64823
218 7.0566 2.15364 9.41899 0.363894 0.802177 -0.909518
226 4.85981 2.60742 10.281 0.79394 -2.00886 0.194793
261 7.8393 3.51296 10.0606 0.0244081 1.15273 -1.61849
398 7.36465 2.21766 10.6399 -1.1772 -0.63092 -0.208661
12 6.03223 2.68557 8.91352 0.285465 1.32139 0.036987
89 6.30531 2.63814 9.88871 2.04819 -1.37154 1.58805
740 8.53241 3.0236 9.20431 0.655994 -0.625303 -0.499001
474 7.31619 3.53654 8.95599 -1.94692 -2.04889 -1.41028
80 7.6948 2.14188 8.61431 -0.417575 1.11465 -1.40818
251 9.34353 3.50552 9.75683 -1.44322 1.23438 -1.24135
605 10.2256 2.40716 9.39243 4.16675 -3.0214 -0.668194
395 10.3728 3.50871 9.21203 1.57273 -2.23545 1.51502
428 3.45195 1.02977 10.3444 -2.21941 -1.50861 0.205277
353 9.31411 2.10956 9.38698 0.338368 -0.169884 1.00329
676 4.79427 2.08696 5.58362 -0.781383 -0.207535 1.69618
70 0.666961 2.68585 9.74366 -0.372841 -0.77001 0.742933
626 1.04811 4.60256 9.53363 0.234708 1.09866 1.09211
410 1.57449 3.58993 10.2944 -0.634235 0.533309 3.75033
649 2.46714 3.81072 9.52609 -1.75188 1.15474 1.03325
9 9.2592 0.922853 9.80801 -0.821495 0.778006 1.46683
117 4.33388 3.86037 9.67131 0.364196 -2.53261 0.397927
463 5.06012 4.77555 9.99308 0.344989 -0.177091 -1.58232
132 3.00096 5.32819 10.3969 -1.3186 1.29674 -0.316546
166 10.0952 4.42807 9.6993 -2.15057 -0.448618 -0.773982
537 6.19963 3.57735 8.43809 2.30386 -2.73129 0.289243
519 5.29254 3.76749 10.2297 0.671994 -3.4718 1.10732
683 6.098 4.83837 9.77102 2.84171 0.291121 -1.26385
33 6.69028 4.5648 8.95324 -0.235567 -2.52473 2.08399
459 5.58164 4.89717 7.52979 -0.850454 1.35083 -0.364463
242 4.32256 5.06777 5.87057 0.68129 0.822113 3.21141
15 7.26872 4.31675 9.74766 -3.06119 0.244896 -1.73853
457 3.78063 3.06571 10.0006 -1.45018 0.605121 -0.793326
505 7.35914 5.32491 9.20014 2.0537 0.464843 0.728433
433 8.49331 3.95535 8.98708 -0.582731 0.766819 -0.0470358
571 1.54213 0.596231 9.65713 0.084555 -0.466542 0.226134
193 9.21199 5.19824 9.59387 -1.65005 -0.529909 1.35763
267 8.36881 0.381212 5.39437 0.684919 -3.38682 -1.3383
671 1.34816 4.3627 5.68657 -1.23196 1.12985 -0.0854077
646 8.65421 3.96937 10.5545 1.17821 3.25125 -0.45989
784 1.26809 5.2887 10.3576 -0.538336 1.87427 0.790303
235 4.00122 4.17745 5.62329 -0.243138 1.48308 -0.745067
16 9.6951 5.24921 8.17498 -0.19528 -0.912033 -0.102882
551 10.4743 0.0886915 6.54684 0.800188 0.675817 0.951353
710 2.40545 5.35014 5.38421 0.869403 -0.821826 0.3802
330 3.81368 0.00571408 6.97345 -0.728265 0.784388 -2.14285
69 8.22181 4.47289 5.36559 4.21507 -1.26202 2.44863
745 1.2074 5.78654 0.801775 0.521404 2.54475 2.80276
747 1.14043 6.8362 0.49649 1.49487 0.738837 0.72848
432 7.64795 7.38939 0.250122 -3.63571 -0.862371 1.25422
659 2.12259 6.52333 0.979607 -0.876285 -1.17397 0.744669
68 3.24924 7.87084 0.844216 1.30833 1.79096 1.74018
620 3.19514 10.7103 4.71209 -0.637573 -0.76558 0.724084
461 3.16112 6.93071 1.75042 -0.665392 -1.27405 0.213445
158 8.17558 5.7343 4.9791 0.851772 -0.677665 -3.72739
189 4.24692 6.04114 2.01034 0.696223 0.743742 -0.764787
727 4.8239 6.02819 0.908095 1.37877 0.633645 2.46256
345 4.06726 7.01567 0.636349 0.324388 3.34718 -0.831668
391 5.71687 6.39066 0.402305 -1.58183 -0.360515 -0.631109
754 2.17465 8.50962 0.243991 -0.114876 -3.18774 -1.33366
464 6.95551 7.787 1.34803 0.00485052 0.240715 0.451988
548 6.47336 6.30354 1.50689 -0.239613 1.3714 2.65903
355 3.65197 5.90221 0.80118 1.95366 -0.702871 1.75426
214 6.46934 9.11673 0.790652 -0.250428 -0.66572 -0.200991
612 6.28811 10.1598 4.40397 2.433 -0.36303 0.851137
311 8.06879 6.05443 1.26821 -0.816116 0.325848 -0.0950634
233 10.1594 6.10554 1.32837 -0.797851 -2.47442 -0.993358
845 8.49256 7.04595 0.668239 -0.423882 1.42156 1.60617
361 2.21055 5.47128 0.573955 1.15748 0.388217 0.789591
628 7.43796 6.42248 2.23757 1.9066 2.66473 1.62986
541 10.6486 8.04169 0.38005 -1.6081 -1.57804 -1.50231
406 10.5919 7.13608 1.84434 0.298867 -0.0438051 -3.42888
97 1.48914 7.91134 1.11501 2.09844 2.04937 0.146771
4 0.482655 8.78494 0.845222 -1.69396 -0.650463 0.418281
314 0.779125 7.49916 5.03579 -0.0695313 2.67786 -0.938711
81 2.50999 8.99979 1.10471 2.08672 0.622117 0.177024
123 5.7221 6.01593 4.51773 1.09732 1.80909 -2.36223
862 3.74282 7.79296 1.76182 0.433092 1.38804 0.277392
722 3.43299 9.25329 0.627506 -0.281578 0.345117 -1.5861
774 1.33538 10.258 3.00631 -1.80429 -1.25544 1.04989
520 5.3828 8.28984 0.610639 -2.22004 0.440592 0.229798
430 4.67538 7.58159 0.0135339 -2.38076 -1.18954 -0.480832
335 4.93909 6.99819 1.56334 0.637156 0.463394 0.394746
112 6.716 6.76395 0.556933 1.86697 -1.16049 0.847177
810 6.63393 9.71475 5.21185 0.811619 2.0136 -1.06692
238 5.95257 7.12289 1.42684 0.140393 -0.618813 0.668703
206 6.02697 8.19998 1.32613 -2.27321 -0.842843 2.73083
665 8.81515 8.04448 0.867259 2.13092 0.276079 2.19295
328 7.04082 10.1658 0.885963 0.141347 -1.12038 1.17847
635 8.00176 8.97333 1.54414 -2.20276 -3.30261 -0.742181
820 9.67734 8.51377 1.45846 -0.556126 2.23292 -1.44788
539 0.0711309 6.72982 0.955372 -2.18131 1.67959 -1.55118
827 9.56577 8.45772 0.0453902 1.51355 1.56075 -1.11118
837 10.1456 8.96298 0.799917 -0.857406 -1.50732 -1.83126
350 9.94197 7.20888 1.01709 0.807898 0.766966 1.38962
771 0.854458 9.90651 1.14479 0.46526 0.789164 0.630306
19 0.603893 8.90039 1.83571 0.40425 -0.449128 1.5908
818 2.79549 5.82172 1.61754 -4.32537 0.0885063 0.298785
759 1.89232 8.58009 1.94112 -0.213727 -1.33244 -0.978709
814 1.68921 9.9096 0.377138 -1.35478 -1.64594 -0.595217
497 0.244918 10.602 2.85021 2.75734 -0.0173158 -0.294017
647 4.28973 8.30605 1.07094 0.934675 -2.10169 0.44811
292 5.82041 7.39771 0.145903 1.61618 -2.87446 -2.17773
763 5.38105 9.57042 0.631135 -2.01034 0.586508 -0.315391
788 4.21514 9.75645 0.805379 -1.83781 2.7769 -0.268911
47 5.01644 10.2749 1.26751 -0.591308 -2.41074 -0.369016
310 5.01909 10.3405 0.173003 1.72631 -0.262531 -1.9247
857 4.68538 9.30942 1.56076 0.113766 0.217343 -3.02427
299 7.18198 9.4849 1.56536 -0.673683 -0.759542 -2.00423
510 7.51256 8.84744 0.468196 1.39392 0.537109 0.608328
84 10.4022 9.48361 4.92669 -1.54549 -1.66537 1.98083
480 7.36458 10.3131 2.32645 0.206889 0.168918 -1.50828
67 7.0099 9.62791 0.0506911 0.47364 0.598595 -1.27389
194 8.70783 9.2674 0.450363 -1.62567 -0.967767 -1.1326
102 10.271 10.1311 1.09533 -0.161153 1.53261 -2.12016
367 5.98652 10.247 0.563367 -0.589263 2.63165 -0.815753
705 0.618971 6.32458 1.73089 -1.42588 -1.65226 -0.070486
572 1.94852 5.61222 2.26472 0.81248 0.319497 0.220264
504 2.17438 6.75429 2.39187 -0.474093 3.03109 -0.490879
558 2.03372 6.30021 3.32008 1.35352 1.00311 3.19703
362 5.43624 6.12786 2.00429 4.01528 3.46489 1.31089
384 8.71709 10.5404 3.99995 -0.0767206 -0.453576 -0.700244
119 3.47983 6.47214 2.64783 -0.0259748 -0.578278 -0.627372
86 4.37069 6.26619 3.86303 -0.987371 -2.84701 0.968577
829 4.54317 6.99444 2.45495 -0.302737 1.87255 0.713662
269 3.84568 5.6101 3.00526 -1.93596 -3.53327 1.81318
326 6.59216 5.90628 2.52237 0.777728 0.427419 1.84744
488 5.42432 5.56676 3.59867 -1.1237 -1.08563 0.569349
186 7.10744 6.93701 2.95167 0.993664 -1.18996 0.020467
113 7.88594 5.71232 3.00289 -0.10996 -0.656919 -0.370175
192 7.35669 5.73305 4.03058 -0.634747 -0.385435 -0.252175
59 8.03556 9.97498 4.61384 0.526035 -0.0815223 2.45746
64 9.05139 6.29404 2.60474 0.453394 -1.89297 -0.43687
643 8.24765 7.24584 1.99404 2.02997 0.379372 -0.90901
641 9.30612 9.44445 5.36224 1.12558 0.373872 0.907169
602 0.0898044 5.67953 0.550927 -0.852196 -2.22643 -3.19655
736 9.96794 6.92285 2.90371 1.6988 0.126005 0.747186
701 0.469343 6.52173 3.48243 1.90003 -2.50601 0.119158
475 9.32569 6.94811 1.75748 -0.995925 -0.524059 -2.60674
482 0.706279 6.97542 2.51333 -0.193148 3.16984 -0.168113
545 1.00459 8.36477 2.81167 -0.778714 -0.557105 0.991273
773 0.968404 7.49611 3.38371 2.9647 -1.54691 0.230822
517 1.42071 6.89254 1.6054 1.05475 -0.0303423 3.01128
372 2.30391 7.53763 1.50554 -0.417175 -0.175141 -1.05536
449 0.578612 7.54438 1.17521 -0.49938 -2.98461 -1.16063
563 1.78071 7.72455 2.49075 -2.0023 1.72038 -0.304929
590 2.76212 8.66343 2.76294 2.4399 0.221839 -0.22237
149 4.48583 8.15681 3.10655 -0.700833 0.665058 -1.59862
518 2.77349 7.5918 2.80758 -1.9492 -0.707116 -1.117
106 3.59108 9.31166 1.55994 1.68521 -0.610477 -0.782512
770 5.61023 7.99398 3.30137 -0.865075 1.10657 0.306508
738 5.40354 7.81147 1.972 0.104993 -0.692902 0.578094
472 6.80969 8.55699 3.286 0.378146 -0.131496 -1.16018