ITEM: TIMESTEP
50480
ITEM: NUMBER OF ATOMS
864
ITEM: BOX BOUNDS pp pp pp
0.0000000000000000e+00 1.0726842421158810e+01
0.0000000000000000e+00 1.0726842421158810e+01
0.0000000000000000e+00 1.0726842421158810e+01
ITEM: ATOMS id x y z vx vy vz
805 1.82195 0.415732 0.979002 2.26833 1.36401 1.46584
365 0.703424 1.02515 1.46065 1.12717 -0.291776 0.722622
780 1.4503 1.36352 0.502998 0.68149 -1.38862 0.247955
184 0.498573 1.06341 0.412543 0.941983 1.75762 0.126897
379 2.96858 0.72134 0.734104 -0.0654536 -1.1478 2.26852
762 2.39183 1.67979 0.834032 0.455822 0.0354077 0.6773
180 6.2521 4.99047 0.203999 -0.567331 2.35536 -1.53897
842 10.5444 0.268801 1.66733 -1.63392 1.3487 1.52809
509 4.42881 1.64972 0.942591 -0.22686 -0.295594 1.22699
227 5.05736 1.15573 0.121882 1.85363 1.9652 -0.710673
147 3.5322 1.29945 1.50989 -0.835943 -0.0309329 -0.229831
211 4.09547 0.661854 0.854223 -0.446406 -0.906655 -0.288834
428 3.83436 1.33762 0.236951 0.937072 -1.87838 -2.29825
172 5.10144 0.827814 1.30594 -1.1552 -0.70655 -2.15801
30 5.88784 0.593633 0.435113 -0.577266 0.535281 -1.74878
639 6.25397 1.39785 0.105972 0.932652 -1.54346 0.802704
534 6.28017 0.289682 1.34923 0.217207 -0.734196 -0.618997
338 7.05009 0.862034 0.936859 -2.21562 0.308429 2.23551
557 7.37804 0.93128 2.22057 0.340149 2.88352 0.575195
122 1.59985 1.95546 5.19581 -1.46209 0.119421 -1.08665
491 7.65287 1.90288 0.845947 -0.117641 0.478356 -1.07018
136 3.46577 4.50393 0.841098 -2.44389 0.953324 0.0488422
167 9.28098 0.625587 1.55422 -1.14954 -2.30397 0.381415
318 8.52137 5.16046 3.28513 0.633023 -1.98783 1.22152
707 0.475641 3.09194 0.828169 0.406639 1.50398 2.01663
767 1.70517 3.309 1.33791 2.13889 -0.202854 -0.231043
439 3.88738 0.783465 5.24855 0.591666 1.54663 -0.303881
809 0.501938 2.33132 1.82712 -0.202531 0.80489 0.945931
416 1.70556 2.19783 1.44367 0.441531 -0.289796 -0.479998
208 3.00907 3.06685 0.162375 0.987678 1.09696 -0.481173
535 1.74449 4.56738 1.41569 -1.76789 2.07668 -0.233452
529 2.81667 3.51027 1.99917 -1.48307 3.75788 2.21648
632 1.62119 3.64928 0.282223 2.03528 1.15231 0.190884
617 4.03584 2.7156 1.33942 -3.27786 -0.619965 0.926714
138 4.00067 3.60473 2.14376 -0.74743 -2.83683 0.136948
588 0.889118 4.86151 0.966838 0.15769 -1.43757 -0.736062
412 5.58997 1.65543 0.964178 2.50078 -1.4875 -1.81902
448 5.88421 2.86046 1.71883 1.80484 -0.844297 -1.08523
300 4.78936 2.63059 0.395103 -0.578883 -1.74993 -1.99712
295 5.06357 3.12962 1.19163 0.304256 -1.11825 -0.510092
204 5.85369 2.72256 0.212167 0.154733 -0.645304 -1.4593
115 6.85344 2.09635 1.41914 1.00394 -1.52491 1.83203
849 6.76245 3.16754 0.172497 -2.67922 -0.744085 -1.92586
454 7.65496 2.82431 0.544144 2.20633 -0.132621 1.24569
74 8.85869 3.39657 0.979646 0.097793 1.03469 -1.29974
578 8.85882 2.02784 1.19208 -0.18133 1.39217 4.65083
334 7.49496 3.77192 0.346093 -0.24318 -0.600792 0.468316
570 10.0321 1.23368 1.24164 1.71074 -0.908647 1.70749
680 9.7538 2.83601 0.942266 0.823218 -0.928818 -1.97638
637 8.57443 0.189123 0.63924 0.522255 -1.84708 2.4363
45 0.321408 4.05517 1.62409 1.36854 -0.248004 -0.995745
361 1.89674 5.05956 0.411692 2.38471 1.27753 1.93916
587 9.85119 0.0996352 0.886318 -1.18915 0.100488 1.10132
220 2.49193 2.77803 5.31466 -0.560771 1.9692 -0.668588
556 2.80909 4.54028 1.57795 -1.02676 -0.463111 -1.66746
494 9.96505 0.00975206 4.98913 2.65701 0.986133 1.81143
836 4.84677 5.0446 1.27334 -0.455711 1.01593 0.803222
715 5.38333 4.07433 1.32625 -0.261413 3.11811 -0.302699
270 4.92009 3.68679 0.136474 -2.49656 0.612802 0.0409208
599 10.1345 4.32731 4.83162 -1.03857 1.04187 0.995249
853 5.14605 5.30669 0.303325 -2.00224 1.86025 -1.68883
485 7.13322 0.268669 4.518 -0.17966 0.376593 -1.135
592 6.32004 3.69574 0.932996 -0.574005 -2.3499 -0.674464
503 7.42319 4.65923 1.55922 2.31549 0.107823 1.95824
696 8.4359 3.89182 1.9665 -1.61791 1.76287 2.08059
198 7.23932 3.61888 1.54266 -2.15416 -1.98219 -0.791819
807 8.47614 4.93369 1.5953 1.13576 3.91265 -1.48409
677 9.55889 4.22689 0.479408 0.249909 -2.86764 0.498058
765 10.4303 3.27021 0.171469 -0.486737 -1.73258 -0.55701
148 9.72824 3.82419 1.49512 -0.456852 1.39922 -0.0525893
712 8.36534 4.44057 0.342975 -0.864976 -1.06561 1.2561
473 1.57364 1.323 1.95603 1.35106 1.90036 2.34093
121 0.357507 1.46352 2.2782 -0.0296227 0.3756 -1.97051
566 8.55581 1.5849 5.32556 -1.50292 -2.45341 0.93024
527 1.87873 0.370995 2.17831 0.945367 -2.33137 -0.662631
661 9.34065 3.15022 5.18791 -1.46465 0.0280318 -0.613288
851 2.99888 0.63939 3.71153 -2.13947 -0.855021 -1.07244
71 2.78744 1.13226 2.8241 0.881281 0.507758 -1.38643
817 2.49661 0.861039 1.61141 0.680893 -1.60475 -2.84362
209 1.49008 2.45179 2.65173 -0.00629332 -0.997177 -1.18151
173 3.68281 1.3141 3.5291 0.896047 1.31164 -0.138931
190 4.79955 0.213476 2.94282 1.88948 -0.372018 1.52289
409 10.1368 1.30906 0.183902 1.24915 1.0966 0.43753
436 3.81099 0.601917 2.70253 1.82292 0.174055 1.19596
750 5.44195 0.268549 2.12269 1.19827 -0.754211 -0.681689
447 4.77398 1.90873 3.28926 -1.98653 0.637523 -0.777436
681 4.59262 1.15104 2.40558 -1.48869 2.05235 -0.457554
315 8.22863 1.46283 2.45284 -0.65807 3.93312 -1.03826
739 6.63109 0.459831 2.88161 -0.692891 1.06455 0.766542
259 8.5575 0.631646 3.05212 0.489681 0.815569 -0.91133
523 8.55957 1.67615 3.46631 0.199638 1.21613 2.1022
182 9.20207 1.08627 2.4145 1.72508 0.511016 -3.48821
630 8.94917 2.2425 2.62368 -0.45436 -0.606039 1.49329
800 8.26402 1.12868 1.33488 -1.59185 -4.72097 -0.818654
543 10.2375 0.702811 2.63346 0.667698 2.41072 -0.00838319
860 9.96022 1.80245 2.92807 -0.0786503 0.428122 -1.36988
156 0.578005 3.35082 2.49206 -1.12258 1.46549 -1.65975
564 0.0732518 2.87994 3.18237 1.02744 -1.0963 0.935229
66 2.67708 2.3927 1.78253 1.88822 0.715519 0.706152
824 1.33331 2.80453 3.76124 -1.52614 2.20982 -1.56162
441 2.49281 2.89667 2.67455 0.0449994 0.309319 -1.06102
804 3.43876 1.9546 2.67668 1.16125 1.65798 0.420891
778 4.32012 2.522 2.43661 0.857004 -2.9579 1.62892
501 5.00352 2.09955 1.7375 -1.52836 1.87507 -0.459301
438 3.2363 3.15362 3.46475 1.09171 3.80608 -0.47885
768 5.14907 2.91985 2.95896 -0.304293 0.189479 2.71776
375 5.66979 1.34331 2.46639 0.400977 -0.353933 3.6347
276 6.52475 1.54081 2.65812 0.0773624 -1.34801 0.378203
435 5.89897 1.96441 3.58799 -0.517593 2.95373 -0.640929
298 6.20839 2.63266 3.05875 0.87225 -1.62731 0.39457
603 7.34037 3.14418 3.35093 -1.84731 -2.15547 -0.0153691
6 6.84045 2.73511 2.19198 0.75306 -0.451185 0.670523
32 8.02442 2.64419 1.65145 1.48514 -3.11218 -1.61007
550 9.67981 2.68357 3.25626 1.4615 1.37512 -2.36807
146 10.1525 2.14655 1.87145 1.22772 -0.136319 2.63595
228 9.04127 2.95789 1.9167 -2.68275 -0.842164 0.207528
363 9.99792 3.00967 2.48862 1.18528 -0.427564 -0.887622
787 1.465 3.52582 3.16847 -1.14565 1.28289 1.25561
619 7.90452 1.11358 0.160387 -1.56272 2.66077 -1.45219
819 0.818037 4.88234 2.20254 -1.31533 0.318635 -2.63676
512 2.23196 4.73773 2.41589 0.96119 0.0939126 -0.13825
764 3.34258 3.81061 2.80662 -2.52147 -0.791494 -0.471844
336 1.66033 3.71209 2.1821 1.1339 -1.91148 -2.21531
614 3.73876 4.6343 2.31257 -0.0683867 0.103009 -1.52461
294 4.8366 3.754 2.57289 2.70604 1.81548 -0.937371
340 4.37619 4.86779 3.52378 1.55121 1.38961 1.70147
835 2.66574 4.54262 3.27308 -1.55762 -4.25998 1.91856
329 6.29672 3.87043 3.07959 0.905473 -1.69198 1.56391
417 5.53727 4.57618 2.42635 -0.0916202 0.185694 1.10203
82 6.57332 4.74066 1.98941 0.507735 -1.06953 0.915508
673 5.28664 3.76508 3.49311 -1.56949 -1.48122 0.372767
275 6.25108 4.88287 2.96467 1.01713 -1.67286 -0.198622
196 7.20575 3.76651 2.62536 0.368389 -1.79481 1.5517
699 8.47432 3.79333 3.10975 -1.06687 -2.11278 0.817442
85 8.18211 2.84789 2.65608 -1.20144 -2.92902 -2.74093
108 7.90807 4.67499 2.48278 -2.45644 -0.379383 1.76811
455 9.84049 4.14115 2.38339 0.458313 -0.801602 -1.2542
179 10.3205 3.72833 3.18542 1.15949 -1.11286 2.73855
690 10.3985 4.75099 3.63644 1.66198 0.327751 0.619679
669 10.1689 4.70605 1.38623 1.10465 -0.438571 0.219284
579 10.6874 4.40467 2.65886 -1.69578 0.1964 0.923647
675 0.781193 0.857678 2.93674 0.390839 -1.23218 0.231988
686 10.513 0.651743 3.53795 -0.654771 -1.3498 0.986309
403 0.883892 1.04129 5.23659 -0.924759 -2.70899 0.281508
631 0.719959 0.387314 4.08276 -1.00068 0.503513 -1.48037
152 1.8451 0.515212 4.8359 -2.12263 0.613843 0.977605
822 2.91938 1.66618 4.39719 2.63296 0.411444 0.439335
426 1.544 1.89436 4.19194 -1.25497 -2.19937 -1.10081
72 3.94619 1.56213 4.51141 -0.322034 2.59406 1.01603
371 4.26767 0.584767 3.90271 -1.31972 -1.3029 -0.205945
212 3.72523 2.28362 3.86943 0.268929 0.00337866 -0.963362
444 5.04855 0.893503 5.05195 0.825213 -0.668658 -0.273346
284 5.24193 0.841472 3.70551 0.919005 -0.852148 -3.32843
282 6.73667 0.98035 5.25168 -0.831357 -1.17982 0.158708
812 7.60217 0.966205 3.45558 -2.44351 0.594483 -0.235123
207 5.92503 1.16165 4.67668 -1.31755 1.22455 -2.82081
185 6.32877 0.499827 3.91649 -0.772143 0.645202 -0.316425
437 6.0187 5.34849 1.25882 -0.627686 0.183617 1.85865
286 7.70342 1.57321 4.8124 0.0657817 0.132376 -1.99074
240 8.37879 0.963973 4.19949 -3.15304 0.919936 -0.236417
508 9.52727 0.187048 3.65574 0.0529863 0.561448 -1.08432
125 9.47778 1.43283 3.76225 0.401051 0.458608 -1.0655
858 10.4227 1.14824 4.31283 -0.484748 1.85395 -0.806161
144 10.4863 2.42935 4.78472 0.00931935 0.0140621 0.89563
658 9.38038 1.0441 4.94242 1.20922 1.08556 -0.326212
633 0.23117 1.80644 3.82131 -2.49125 -0.360662 -0.590475
263 8.78555 2.15747 0.103748 -0.107388 2.02021 -1.18752
105 2.0022 0.965864 3.46498 -0.285905 -1.59891 -0.46788
171 2.52517 2.09162 3.27912 -1.56316 1.24272 -0.133515
385 7.39666 4.95178 3.49387 1.04179 -2.9925 -0.537869
154 2.72514 2.61441 4.20589 0.867072 -0.61005 -0.059442
700 2.25342 3.5795 3.85093 -0.070782 1.59277 -0.439312
424 4.15707 3.24013 3.08871 -0.893205 -2.27229 -3.1845
91 3.47175 3.1891 4.43631 0.226752 -1.36864 2.37807
575 4.82365 2.90961 3.9202 1.56174 -0.109077 -0.302265
478 1.37091 4.9346 4.92951 0.0191394 -0.741278 -1.50098
195 4.98468 1.87859 4.38969 -1.23668 0.957995 1.20437
445 6.34375 3.11994 4.19967 2.56641 -0.407438 1.36915
150 7.60474 0.0795661 2.82227 1.18432 1.18917 0.467765
199 6.22727 2.90202 5.35603 2.68947 -0.105351 0.964069
620 3.1606 0.344893 4.68154 0.51791 -0.910088 -0.312105
776 7.19924 1.95278 3.29641 -1.3571 0.6408 -0.551773
725 6.54082 2.24767 4.68767 0.0419877 -2.43526 -0.677405
73 6.88222 1.31098 4.0937 0.164425 -2.5393 -1.01577
553 7.57419 2.88776 5.16595 0.85236 -0.59196 0.775717
429 7.97873 4.14669 4.25082 1.62578 1.23695 0.254965
636 8.83287 2.13036 4.39819 -0.485504 1.44954 -0.212166
706 8.65492 2.87486 3.6851 -2.51276 2.47005 2.28231
607 9.09314 3.65022 4.49943 -0.381901 1.18871 -0.407431
279 9.62091 2.10288 5.10998 -1.36412 -2.72883 -1.18124
521 10.577 3.24614 4.04775 1.18614 1.46677 2.38727
390 9.73802 2.71455 4.26056 1.51452 0.679144 0.227925
405 0.925692 2.80646 4.79318 3.13026 -0.0322025 2.75956
317 0.626448 3.93129 4.2144 0.716349 -0.350645 -3.08403
629 0.119415 5.05465 4.98207 -0.407159 0.323207 -0.147827
801 0.715906 4.76396 3.34825 2.18814 0.433815 0.0940232
694 2.7821 4.81154 4.81694 1.28744 -1.49439 -0.769777
245 1.76699 5.17579 3.39089 -2.52015 -0.997223 -2.73669
60 1.59848 3.76179 4.89012 -1.149 -0.838256 0.222604
431 2.75913 3.79613 4.6395 -1.50719 0.296048 0.671842
816 3.62363 4.14907 3.73513 -0.329916 1.45321 0.695688
28 3.94263 4.95645 4.45437 0.615661 0.901574 -0.244192
235 4.11722 3.79951 5.0715 1.95425 0.424496 -0.697674
377 4.92483 4.32279 4.45397 -1.38537 0.79243 0.777044
123 5.46121 5.20866 4.70115 0.870448 0.509169 -0.0146463
35 5.53509 3.44263 4.86712 0.0968514 0.513272 1.3351
415 5.96571 4.39645 3.86885 -2.61763 1.14717 0.582578
618 6.94555 4.705 4.69053 -1.3437 0.152857 0.839682
574 8.56041 0.288287 2.03061 -1.20736 0.807002 -0.019799
174 8.70833 5.04106 4.41141 0.10534 1.41945 -1.58594
107 4.88162 2.70237 5.292 0.703673 1.27181 -0.220268
561 6.11461 4.28883 5.32761 1.45743 0.168833 -1.09449
559 0.0966053 5.05481 0.0585916 -0.868565 -1.78746 1.59179
515 7.33181 5.21475 0.0465311 0.141729 -1.12459 0.866091
69 8.05059 4.76761 5.3384 -0.827196 -0.719192 -2.36509
118 0.484776 0.793326 6.46234 -1.79593 -1.6059 -0.12173
688 1.75587 0.221885 7.17894 0.0584499 -0.503727 1.42838
692 1.35591 1.34057 6.31607 1.08457 3.45888 0.719592
128 2.74311 0.547643 5.68277 -0.19864 2.17508 -1.36339
98 2.43788 1.49436 6.99913 0.906381 2.30798 0.381375
609 2.46012 1.61014 5.85399 -0.810586 0.61351 2.28103
622 1.64696 0.320801 6.11342 1.20989 -0.521829 3.09631
456 3.20751 0.956926 6.58972 -0.970015 -1.83409 -1.16128
467 2.48022 0.292207 10.4749 -1.05385 1.23019 -3.1047
708 2.93948 0.370822 7.29378 -2.44191 -0.510672 2.05692
756 4.56181 1.13759 7.19298 0.953044 -1.70289 1.18599
200 6.31331 0.716087 6.15869 0.467329 -0.741213 -0.172638
859 4.66057 1.21377 6.1778 2.21705 1.85894 -0.507087
10 5.77943 0.91396 7.24724 -1.52386 -0.581379 -1.14864
111 5.33303 0.282013 6.55058 1.36103 1.73309 0.0865214
14 6.7696 0.858326 7.08228 1.56941 2.37819 3.93915
392 7.1251 1.4742 6.12041 -1.50731 0.896649 2.70623
381 7.55113 0.654769 5.62804 0.0827239 1.72145 1.34109
670 8.2736 1.0522 6.26254 -1.03496 -0.231341 2.35397
830 8.02765 1.09849 7.3194 -1.86971 -1.12634 -2.8486
656 8.29394 2.10878 6.94723 2.04514 0.874782 0.618331
239 9.56898 0.592678 6.20331 -0.0920809 0.118252 0.105343
753 9.97634 1.50996 6.77857 1.12159 -1.0663 -1.31529
777 10.5963 1.19344 5.61744 1.09263 0.0954428 1.97074
137 10.1718 0.347419 7.00627 0.483473 -0.849295 2.37814
598 0.656212 2.14008 5.61576 0.688577 -0.886455 -2.27394
526 1.21398 2.69336 6.22673 0.945214 -0.454697 -1.85178
110 10.7034 3.4781 6.67163 0.774869 2.7582 1.4615
781 2.85794 3.65844 5.72082 0.673536 -0.941051 0.122528
413 2.29765 2.56238 6.4281 0.00929364 1.45944 -0.290038
62 1.69479 2.99365 7.21828 -2.28849 0.381941 2.99003
404 8.37801 3.7726 5.67604 0.746752 0.471658 2.29951
786 3.32765 2.18587 6.60181 0.70326 0.910965 2.46464
460 4.5931 2.61422 6.35687 0.326233 -1.2071 1.18726
752 4.60678 3.80746 6.52339 1.27403 -1.00746 -1.71455
825 3.60069 3.15914 6.2288 0.417946 -1.37513 2.40716
50 5.37924 0.432575 10.2012 -1.33247 1.86639 2.68777
547 5.2748 3.48849 5.83003 1.08791 2.45691 0.247675
90 5.16648 2.06937 6.98493 -1.18745 -0.0801951 -0.447452
446 4.50801 3.30937 7.58009 -1.12695 0.530046 -0.633998
145 7.51843 2.65851 6.2048 -1.00854 2.40114 -0.312973
470 5.99041 2.65448 7.47492 0.537602 1.20969 0.174184
96 5.78356 2.37342 6.12089 -2.2281 1.42892 3.52958
142 7.27466 3.17304 7.30838 -2.28059 0.643963 -1.03869
717 9.21349 2.0449 6.08074 1.3634 0.0348747 1.83754
271 9.00772 3.24874 6.19221 0.594184 -1.85766 -2.17621
232 7.92761 0.223953 8.91308 -0.296789 1.3247 -0.609641
290 10.2103 2.33521 6.04625 0.691778 -0.0149671 2.54762
382 0.55717 4.3685 6.93419 0.179587 -0.494712 0.762834
24 0.440341 3.83632 5.52421 -2.46642 -0.311854 -0.8414
178 1.44005 4.13245 7.52507 -2.24088 -0.0459033 0.0975152
594 1.89975 4.8151 6.7189 0.516133 0.943233 2.2971
321 9.28958 4.97591 7.1577 -0.904305 -2.38566 -0.12592
581 1.99123 4.58606 5.72461 -0.750259 1.19082 0.495718
236 5.94428 5.12536 8.80193 -1.14507 0.954447 -1.47406
627 2.84849 4.31005 6.73463 -0.811453 -0.223267 1.87836
349 3.88011 4.44899 5.86152 0.75899 0.0585174 1.59848
41 5.15964 4.52438 5.65304 1.69726 0.0382787 -2.69888
272 3.58803 5.00261 6.89675 -0.104987 0.707326 0.28747
481 6.2873 0.253919 7.79342 2.76569 -0.35025 0.400459
277 7.35294 0.127314 7.89114 -0.743522 4.0394 1.41026
685 10.725 4.53914 9.50933 0.92352 1.53175 -1.70946
143 7.11535 3.90189 5.8684 0.578457 0.878725 0.881914
611 6.33042 4.62598 6.62473 -0.0453974 0.306336 2.31703
597 7.7226 5.2236 6.27084 -0.975711 -0.560296 3.34699
728 7.58409 4.12304 7.09264 1.78231 0.452614 -0.855986
262 9.10385 4.79602 6.17551 1.65645 0.902828 1.84213
729 8.52713 4.16995 7.21783 -0.215954 -0.167281 -1.15307
425 10.4312 3.23484 5.515 -0.947314 -0.757776 1.98566
573 9.91743 3.76833 6.27826 -0.244136 -0.75498 -0.745294
380 5.42619 0.302848 8.57188 3.49541 0.969353 0.979403
94 9.93081 3.91286 7.35869 0.306045 -0.0160465 0.122047
420 7.81626 0.0149078 9.90847 -1.35074 0.787131 -2.01042
283 0.505843 0.387475 7.41746 -1.22349 -3.27476 2.30047
320 0.721133 0.134591 8.60993 -0.467135 0.586337 -1.99694
839 1.30823 1.96154 7.17426 1.9767 -0.798804 0.34396
423 2.3232 1.1622 7.84521 3.18004 -1.68484 -2.26097
44 1.98203 0.260298 8.72846 1.41493 -1.9395 -0.669754
126 2.77821 1.34368 8.69621 -1.08041 1.63972 -0.0626905
5 3.6571 0.378712 8.0244 0.358503 0.464376 0.128899
466 3.43441 1.45347 7.6138 -0.288559 0.424691 -0.735019
808 4.5193 0.905045 8.15694 -1.57285 0.349948 -2.19416
743 3.33415 5.27173 9.54233 -0.976878 -1.00934 1.73198
471 6.35779 1.8311 5.55039 -3.02042 0.915953 -0.029132
654 6.05959 1.03812 8.49436 0.337165 -1.13767 -0.235184
792 5.61595 2.6044 9.10808 -1.44115 0.64785 0.715296
25 7.16691 1.95607 7.0784 -0.0851367 1.10735 -1.39889
322 6.71616 0.0827917 9.18442 2.05306 -2.39068 0.176212
57 7.10217 1.22176 8.95981 -0.704756 -1.13715 1.42567
796 8.54433 0.318829 8.06294 0.53635 -1.48204 2.43937
2 9.19797 1.01472 7.52683 -0.615257 -2.424 1.69838
388 9.79474 0.403715 8.23748 1.25114 2.44427 1.77041
225 2.60351 4.04732 10.4706 -0.212035 0.532303 1.14462
779 9.5247 1.55292 8.40566 -0.326538 -2.03322 -0.457119
516 9.91065 0.0291504 10.4821 0.496002 -0.530784 -0.630009
562 0.421196 2.10571 6.5894 0.723211 -0.250827 -1.1478
726 1.03019 1.25423 7.97539 2.25525 -0.952105 -0.829533
601 0.127173 3.82491 7.69779 1.15518 1.68878 0.923124
120 0.659086 2.77575 7.22072 0.481668 -0.0179439 -3.10292
268 0.497406 2.92097 8.23596 -0.719645 1.57528 0.668404
664 2.56895 2.97675 8.54607 -1.20073 -0.22038 -1.06623
713 2.78043 2.16395 7.76786 -2.43107 2.45833 0.131958
260 2.667 3.42481 7.23569 -0.721655 0.0878182 -1.10814
540 1.9579 1.95511 8.62227 -1.60335 -2.59351 -2.29757
29 3.46591 2.73918 7.4441 2.12074 0.03651 -1.09123
555 4.2991 2.17736 7.36199 -0.162614 0.707898 -0.908801
513 3.27472 2.4093 8.95277 -0.656163 -0.0449737 -1.91109
231 4.59308 2.1737 8.43047 -0.0171029 0.741351 -1.8563
560 3.69624 3.58069 7.95475 -1.39036 1.08146 -1.69807
357 5.31835 1.71096 7.94375 0.655196 0.757536 0.619271
339 5.40402 3.1879 8.15271 -0.829519 1.04393 0.456242
250 6.6863 1.83696 7.96852 1.47121 -2.64016 2.69081
51 7.77372 1.70482 8.13426 -0.25366 -2.78412 1.84237
170 7.62167 2.71548 8.30569 0.331165 1.35805 1.49336
697 8.58107 3.03174 7.15351 -0.51835 1.72894 -2.69901
489 8.79759 2.47593 7.99092 -1.66306 2.09316 0.431985
452 10.1769 2.95649 8.20381 1.12602 0.534957 0.465438
414 10.5798 1.25341 7.98297 0.588997 -1.6175 -1.22842
724 10.3176 2.09748 8.77099 -2.02703 -0.415063 1.19872
799 9.30066 3.43979 8.88575 0.58714 -0.617871 -1.05838
130 2.18059 5.22691 8.93557 5.03202 2.50619 0.852086
624 0.65854 4.17571 8.56768 1.70488 3.15021 -0.939764
354 0.89292 5.25239 7.76933 0.471857 -2.53353 -0.102919
422 1.78402 5.05272 8.06368 -0.979837 -0.341359 -1.3502
714 2.04429 4.18734 8.72197 -0.768123 -0.761051 2.01898
709 4.58271 4.49013 7.53728 1.5224 1.87838 -1.13887
583 3.53813 3.80035 8.99304 1.82846 -2.37315 1.21859
87 2.46002 4.41896 7.72055 -0.19758 0.164601 2.20971
386 5.49854 4.12465 7.56022 -0.0941572 -0.988291 -0.0706443
531 4.55296 3.69223 8.66765 -0.681072 -0.238065 3.19647
640 5.10195 4.62316 6.6331 0.780134 1.64932 -1.28095
672 4.78141 5.02605 8.89668 1.1491 0.0543018 0.29683
88 5.9948 3.63669 6.60047 -1.28481 0.541034 -2.56912
252 7.05304 5.24347 7.0429 -0.515339 1.6035 -2.33336
565 6.51032 4.05525 7.68047 0.261096 -1.75406 -2.06805
407 7.08629 4.92338 8.19255 0.844626 -0.683321 -1.85907
304 8.62997 4.64292 8.44148 -1.63138 -1.79572 -1.49247
265 8.14189 3.57499 8.09375 -0.473052 -0.967595 2.94849
844 7.94833 5.11018 7.58271 0.160011 -0.38312 0.186582
783 7.27574 3.93649 8.35441 0.488421 -1.66115 -1.50129
293 0.0390537 4.67147 8.04362 -1.69748 1.23147 -1.37566
496 9.55876 4.5266 8.0993 1.39341 0.555923 -1.18259
302 3.27949 1.99622 5.48577 0.648304 -0.0577311 -2.02643
21 10.2834 5.20559 8.68799 2.06151 0.794176 -0.28455
281 1.23317 0.905232 9.06169 0.408484 0.544395 1.25578
181 10.3422 1.87517 9.84621 -2.08499 1.97594 -1.03847
93 0.712229 1.64873 10.0346 -1.06043 0.124532 -2.10228
297 0.325753 0.486486 10.2823 0.286713 0.0560461 1.8011
203 10.4352 0.273988 9.6278 0.506398 -0.0876294 0.06373
815 0.712792 3.68095 10.7005 1.23394 2.00292 -1.00267
524 1.89389 1.46053 10.0502 -0.457791 0.526224 0.442737
246 2.76301 0.733508 9.58728 -0.928813 0.250523 1.6512
153 3.36146 1.69553 9.62263 1.00505 1.79092 -4.15313
716 4.5114 0.85662 9.97781 -2.34357 0.792228 0.436544
682 3.91756 1.30172 8.80473 0.324502 2.09304 0.367971
331 3.84534 0.368609 9.1962 -0.571084 1.20684 1.0608
55 5.47861 1.85866 10.2775 2.00017 2.73304 1.01041
427 5.3809 1.09989 9.18586 0.653549 0.76709 1.04249
230 6.77971 0.081694 10.3737 -0.715998 0.0989012 0.513016
99 7.27673 0.92777 9.89282 -3.10487 -1.8227 -0.195371
312 6.21337 0.811085 9.68239 1.57388 0.108208 -0.710549
465 8.9364 0.139192 10.1018 -0.513228 -2.34808 -2.75179
476 8.4983 1.40326 8.84509 -2.81052 1.52493 -1.02317
248 2.6845 1.67374 10.5893 0.701598 0.85325 -0.542712
468 8.4071 1.68864 9.84387 0.368526 1.08151 -2.94291
17 9.09921 1.09318 10.2636 -0.129142 -0.234155 3.14062
834 0.392295 1.61111 8.92796 -0.128284 0.158788 0.599704
623 1.18628 2.64203 10.0366 -0.736342 -2.9172 0.954514
58 2.03721 2.62819 9.48462 -1.24887 0.567283 0.38342
221 3.14974 2.73801 9.89838 -1.80287 1.49794 -0.780319
342 2.06434 2.7026 10.6348 0.0553845 0.700575 2.85197
802 1.49559 3.05042 8.6894 1.85644 -0.00156633 -0.3143
162 4.3014 2.83493 9.30433 -0.831563 0.844059 -2.84816
254 4.48853 1.86744 10.525 1.3075 -0.324481 0.140532
301 4.75765 1.88519 9.47686 -0.123766 -1.82904 1.1533
218 6.73172 1.87624 9.8786 1.28829 0.232763 -2.15907
226 5.22173 2.77685 10.0365 -1.99483 -1.57894 2.73584
261 7.75666 3.08362 10.0045 0.988257 -0.0127888 0.119368
398 7.43301 2.05904 10.5863 1.40624 1.65953 1.82424
12 6.73156 2.39709 8.86868 -0.609949 -0.338876 -2.34102
89 6.21518 3.2927 9.69051 -1.04641 -0.705593 2.28867
740 8.40397 2.71715 9.06508 -2.60562 0.893499 -3.5275
474 8.04016 3.65069 9.25206 -2.46322 1.11051 0.366947
80 7.59531 2.10218 9.13254 -0.618501 2.19962 -2.74333
251 9.4406 3.40599 9.87638 0.414476 -1.02654 0.80582
605 10.3765 3.01786 9.74086 -2.41934 -2.09369 -1.15404
395 10.4059 3.87505 8.82887 -1.54111 -1.53811 0.295615
18 0.721204 0.174332 5.67748 -0.39542 0.716022 1.02863
353 9.35121 2.05306 9.544 -0.335916 0.0480292 -0.709525
676 5.16433 1.7818 5.53863 -1.51064 1.12807 1.4137
70 0.626866 3.61633 9.334 -1.76419 -3.59166 -1.99168
626 1.06296 4.50996 9.66864 0.796157 -0.379025 -1.43589
410 1.51924 3.55053 9.96617 1.69848 -1.54697 -2.13215
649 2.6708 3.74363 9.58477 1.16817 -1.718 -0.898886
9 9.50149 0.739761 9.18993 1.2847 0.159819 1.1691
117 3.87152 4.52236 9.67221 0.00277228 -0.316056 0.221521
463 4.60743 5.0485 9.91704 2.00073 0.170738 1.58791
132 3.11601 5.00997 10.6164 -1.37723 0.349906 -0.318737
166 9.98279 4.26151 10.3132 0.288501 0.822753 0.158981
537 6.22677 3.77851 8.55264 1.64495 -1.87646 -0.798248
519 5.29725 3.96179 9.64316 0.807544 -1.33144 0.868786
683 5.70732 5.02374 10.0807 0.8947 -1.02232 0.866722
33 6.45088 4.24762 9.50301 -0.240071 0.409736 -2.05538
459 6.04112 5.05612 7.56287 -0.685239 0.464669 -2.12706
104 6.08265 4.03584 10.5657 -1.92655 1.87734 1.99873
15 7.45775 4.3117 10.1768 2.96586 0.475406 2.20949
457 4.03485 2.91434 10.4563 1.48627 1.2473 -1.1778
505 7.88507 4.71492 9.20651 -1.69155 -0.349481 0.477208
433 8.78608 4.42669 9.80959 1.91349 2.38314 0.0175663
397 1.25983 0.333185 10.7148 1.6973 -0.646523 0.361254
193 9.58346 5.00637 9.48624 -1.03532 0.898151 -1.35463
40 9.15581 4.97098 10.4804 -0.739791 -0.292957 -0.991742
671 0.941456 4.96774 6.01416 1.11742 -3.51143 -1.8666
646 8.77831 3.36356 10.631 -0.998161 2.8918 -2.74064
237 4.27227 4.57944 10.7065 0.00859723 -1.48499 -0.158426
258 7.55359 0.0163671 6.45761 -1.46433 2.30802 -2.44556
571 1.38621 0.0288151 9.59285 1.81482 2.33831 -0.894658
305 3.59051 3.858 10.7098 -2.68376 -2.00174 -2.24343
745 1.36691 6.11377 0.644468 0.357998 -0.151295 1.15117
747 1.14753 7.11363 0.322964 1.28695 -0.669294 -2.83917
432 7.40153 7.43893 0.237145 1.7202 -1.44407 0.200063
659 2.13867 6.60798 0.944177 1.75688 -2.0204 -0.554808
68 2.93275 7.28959 1.0115 -1.01889 1.95642 -2.41414
129 0.0928034 10.6833 0.703185 -1.44717 0.107226 0.52527
461 3.10594 6.68844 1.73586 0.169256 0.98659 -1.83127
158 7.28605 5.59628 5.1181 1.83495 0.0760509 -1.24841
189 4.15573 6.34412 1.68518 1.21266 -1.40568 0.258324
727 4.7509 6.00906 0.812722 -1.13457 -1.21757 0.13228
345 3.83338 6.59621 0.538327 1.04692 -1.33373 0.808525
391 5.76517 6.27161 0.650497 -1.19961 0.0275486 -0.68074
139 2.8209 9.97453 0.05303 -0.519284 -1.32439 0.373657
464 6.83841 6.74575 1.64552 0.587065 4.13102 -1.79494
548 6.84186 5.78933 0.60289 0.0682659 -1.05055 0.481862
355 2.75738 6.04371 0.278663 0.916286 0.564549 -1.16011
214 6.75583 9.20747 0.487454 -0.924762 1.41544 2.68626
351 7.82119 5.51372 0.939576 -2.81546 -0.999406 0.175973
311 8.44717 5.99129 1.51783 -0.240768 -0.572206 -0.318166
233 10.0779 6.25294 1.57236 -0.867954 -0.893622 1.06584
845 8.82125 6.67099 0.575566 0.681368 -1.32634 0.294054
703 5.5682 10.5221 5.04422 2.66627 1.60392 1.4552
628 7.0851 5.64582 1.74734 0.384408 1.6616 1.01547
541 10.6955 8.04242 0.527916 -1.89113 1.88622 -0.920837
406 0.305642 6.7433 1.88593 -4.02287 0.835721 2.90943
97 1.59657 8.31018 1.00401 0.282653 0.227877 -1.04332
4 1.26872 9.27978 0.449313 -1.91116 -0.615256 0.843502
360 9.37599 5.50091 1.79991 1.53083 0.176865 -2.43518
81 2.71536 8.22861 1.35424 -0.858816 1.26546 -0.518867
133 2.4108 8.1421 0.295735 0.444293 -2.61443 -1.03419
862 4.03772 7.29746 1.42646 -1.20034 1.51248 1.78976
722 3.14353 8.71942 0.281412 -1.22561 -1.07625 3.33619
790 3.40647 7.66183 0.230974 1.18183 1.07572 -0.643071
520 5.4045 8.00231 1.08421 1.29006 0.581292 0.491064
430 4.54757 7.6006 0.279841 -1.11332 0.663495 -2.09919
335 5.07475 7.0247 1.16544 0.203015 -1.16484 0.524594
112 6.74964 6.83386 0.641094 2.53778 0.599949 -0.815133
616 5.7183 8.65011 0.333695 0.609585 0.64109 -0.820234
238 6.05683 7.28967 1.31706 -1.92131 0.896812 -0.636199
206 6.39703 8.4644 1.07721 -1.67223 -1.41723 1.21368
665 8.53066 7.82852 0.222227 0.850544 -0.25253 -1.40205
328 7.57138 10.6897 1.22611 -1.09323 -0.605648 -1.90142
635 8.20762 9.43477 1.81301 1.17729 -0.138431 -0.695864
820 8.84887 8.05481 1.30787 3.11364 0.811282 1.15862
539 10.6844 6.80991 0.758641 1.20859 0.127505 0.613583
827 9.76074 8.11042 0.206693 -0.721919 0.974113 -1.03293
837 10.5974 9.00091 0.924355 -1.69285 0.562446 0.0221652
350 10.3801 7.46688 1.67734 -0.105106 -0.265272 -0.128474
771 0.505561 9.86959 0.708596 0.370969 2.0015 -1.68845
19 0.590665 8.83334 1.51844 -1.1251 0.246443 1.54863
818 2.12024 5.64272 1.23062 4.2911 -1.39864 0.633416
759 1.82507 8.98346 1.87501 -0.680332 0.822229 1.37175
814 1.78932 10.1028 0.39276 -0.213324 0.919298 0.142548
497 0.0223894 10.4261 2.63351 1.56441 -1.7743 -1.33954
647 4.29743 8.33929 1.29472 0.382594 1.33266 -0.94088
813 3.85002 9.5585 0.177772 0.528302 -1.42236 -2.04944
763 5.45796 9.48402 0.724936 2.07917 0.652222 -1.65021
788 4.37335 9.84088 1.04061 0.358494 -1.82616 -1.48038
47 5.32588 10.4542 1.15662 1.3914 0.810749 1.76182
310 4.74105 10.3958 0.088483 -4.33181 0.717017 -1.1278
857 5.00983 9.14295 2.14694 0.39789 -1.88329 0.25859
299 6.94065 9.77533 1.48861 1.29341 1.02848 0.823302
510 7.83749 8.83011 0.919948 -1.84936 -1.57341 -2.42421
84 10.2063 9.48703 4.84856 -0.214986 -1.22521 2.43456
480 7.6323 10.2376 2.09133 -0.124511 3.40308 2.04164
127 7.81115 10.2654 0.175559 -1.84975 -0.130638 -1.35151
194 8.85615 9.05915 0.890364 1.35488 -1.47609 -1.50499
102 10.355 9.97058 1.34329 1.31505 -0.812856 1.58135
367 5.83125 10.263 0.239865 1.4557 -0.038229 0.912176
705 0.986226 6.13009 1.66483 0.82074 -1.23603 1.58488
572 1.62354 5.64039 2.5461 0.239936 1.03314 -1.21214
504 2.14349 6.38943 2.05874 1.5619 -1.40557 -1.04786
558 2.15347 6.1499 3.4073 -2.69053 -0.231785 -0.0722551
362 4.88524 5.65819 2.02008 2.71044 -0.705598 2.73654
642 2.9928 5.54136 2.8709 0.139743 -1.28599 1.14403
119 3.26759 6.66899 2.76278 0.375392 0.330257 -0.432003
86 4.27344 7.07309 3.59094 0.68263 1.08446 -0.64144
829 4.59161 6.77548 2.56229 -0.870378 -0.802016 0.0810073
269 4.78528 5.94901 3.27584 -1.6296 -2.58082 -0.799526
326 6.15002 5.95066 2.0846 0.584615 -2.27382 0.522247
488 5.72727 5.7156 3.05774 -0.403322 -0.617624 -0.00208828
186 6.50401 7.16192 2.45228 0.385211 0.797239 1.44498
113 7.62896 5.71289 2.65671 0.627929 0.228773 0.344945
192 7.47111 5.95359 3.80617 -2.91264 -0.619339 1.63899
450 9.59196 5.48743 4.18448 1.59099 -0.357253 -0.152722
64 8.70338 6.00812 2.9002 -0.302255 1.54132 1.93377
643 7.97391 7.05893 1.90129 1.15065 0.0042255 -0.382448
641 9.11081 9.23121 4.93109 -0.27535 0.451944 0.450079
602 0.170821 5.47834 1.41438 -0.692932 -0.755425 -2.42002
736 9.51728 7.03809 2.87432 0.992537 0.467476 -0.00581604
701 10.5341 6.50202 2.99265 1.60053 -0.336692 1.37948
475 9.0076 7.00614 1.90636 -1.37171 -0.637969 -0.434052
482 1.11678 7.08133 2.67923 0.714092 -0.3273 -1.36934
545 0.696336 8.42697 2.95822 1.84839 -0.244947 -1.33869
773 0.83803 7.33673 3.66663 -1.96854 0.075958 1.50466
517 1.52355 7.14956 1.56444 0.192435 -0.175043 1.27984
372 2.42579 7.4887 2.08395 -1.0388 0.946414 -0.89453
449 0.627825 7.85033 1.91845 -3.50952 0.127094 -2.17626
563 2.35885 7.20778 2.95093 -2.9158 0.83039 0.597153
590 2.22972 8.58253 3.08983 0.39677 0.996094 0.41856
149 4.61511 8.07804 3.51689 1.11539 -1.52297 -0.599572
518 3.2479 8.03271 2.67491 -1.52731 2.1787 0.318118
106 2.88226 8.74783 2.29434 2.20177 0.732285 -0.114453
770 5.76555 7.77366 3.13953 1.27622 0.545218 0.2859
738 5.33634 8.05288 2.19118 -0.565276 1.36703 -2.76479
472 6.3402 8.64333 3.25381 1.32056 -0.837857 -0.154564
183 7.87796 8.11348 1.79022 0.412172 -0.367439 -3.27189
511 6.38671 8.346 2.31539 0.104816 2.31332 -1.81571
458 7.03994 7.79654 3.81196 1.82253 -1.63764 -2.66767
761 7.3393 8.08893 2.92423 0.484281 -0.700877 -0.156794