ITEM: TIMESTEP
51280
ITEM: NUMBER OF ATOMS
864
ITEM: BOX BOUNDS pp pp pp
0.0000000000000000e+00 1.0726842421158810e+01
0.0000000000000000e+00 1.0726842421158810e+01
0.0000000000000000e+00 1.0726842421158810e+01
ITEM: ATOMS id x y z vx vy vz
365 1.28327 1.01571 1.44292 -0.05651 1.58433 0.781917
397 1.02156 0.606394 0.531534 -1.88532 -1.35407 -0.907619
129 0.134437 0.686283 1.55418 0.339265 -1.59012 0.172409
174 8.90566 4.98278 4.40137 -0.486431 -4.7314 -1.21806
780 2.17635 0.545017 0.376826 -0.0461964 0.0897553 -0.223782
762 2.38332 0.912387 1.67169 1.00693 -4.19436 1.46166
677 10.0115 3.64707 0.101705 -0.204255 0.130465 0.523335
509 4.89585 1.71808 1.03267 1.40891 0.818063 0.263381
211 3.09565 0.513744 0.88716 -2.14643 0.930021 -0.629164
617 2.8623 1.90824 0.679586 -2.04919 0.855003 -1.00095
172 5.3705 0.559925 1.61322 -1.62882 -2.45369 0.888821
450 10.0284 4.26792 3.94784 1.23022 -1.89599 -2.23992
50 4.70652 0.545219 0.632684 0.576241 -0.099515 2.09483
639 7.59528 0.865853 0.195847 -2.86246 1.66876 1.76132
338 6.25766 0.906245 1.24479 0.255839 2.84339 -0.399116
491 7.31728 1.40623 1.07311 0.164264 -1.85601 0.0377662
167 8.40294 0.703547 1.0173 0.440014 -0.990762 -0.016323
842 9.80662 1.12584 1.14893 -0.754574 1.64659 1.3261
17 9.03607 1.46123 0.468743 -2.51257 1.37809 1.23422
409 10.2333 1.92355 0.839711 -1.87632 -0.287907 -0.235375
184 0.481765 1.80621 1.41055 -1.34884 -2.4228 1.66276
707 1.19023 3.1761 0.163716 1.19828 0.213172 -1.29698
809 0.573974 3.01079 1.87794 -2.9195 0.73988 0.25446
623 0.614245 2.17649 0.312507 0.0846039 0.094346 0.65909
363 0.308921 3.39243 0.263052 -0.704786 1.29795 0.055333
767 3.40866 2.8871 1.22349 0.885463 1.58745 2.11296
416 1.56146 1.94924 1.86458 0.0711065 -1.16639 1.14768
342 1.94474 2.21019 0.665008 0.82295 -1.04285 2.07217
336 2.10308 3.63749 1.87159 -0.257128 1.06781 -0.324149
208 3.102 3.96687 0.157643 0.0463692 1.87938 -0.43579
300 4.42222 2.434 0.148336 0.661583 -1.56256 -1.6664
270 4.81838 3.76514 0.189556 1.93662 2.69279 0.237332
778 3.97713 2.24233 1.7179 -0.172309 -1.78269 -0.929018
230 6.5001 0.417935 0.267317 0.495745 1.48024 0.14041
295 5.08481 2.79899 1.1003 1.60006 -2.99295 0.191428
204 5.97343 2.7384 0.654468 -0.350319 0.220059 0.810492
501 5.83287 1.87857 1.209 1.14615 -0.0226607 -1.46642
412 6.41419 1.70482 0.252997 0.675902 -0.985704 -0.255447
448 6.26536 3.58629 1.52348 0.383716 2.65713 -0.256869
115 6.66292 2.02778 2.09419 -2.17544 0.694467 1.0772
198 7.26396 2.97449 0.848639 1.07029 -0.937253 -0.0830113
454 8.1209 3.59313 0.869409 -1.21136 -0.532069 1.53733
578 9.38279 2.32988 1.47393 0.288056 -2.57967 -1.96389
680 9.40745 2.47981 0.386749 -1.21028 -1.20149 1.25051
146 10.1553 3.01912 0.932144 -2.09476 3.09678 -1.29181
588 0.770806 4.31382 0.303298 2.23683 -1.53816 0.11028
45 0.834076 3.78726 1.17613 -1.53191 -1.14496 1.39836
819 0.517194 4.753 1.71057 -0.196575 -0.690935 -1.93368
535 1.24386 5.19541 0.441651 -2.36378 1.23905 -1.83462
632 1.78862 3.77368 0.849985 4.43225 0.361538 -1.0242
556 2.86812 3.77546 1.0625 2.42411 -1.03312 -0.753429
136 3.25652 5.07679 0.0446042 0.165109 2.58007 -0.600923
138 4.02463 3.57049 0.8967 0.0184247 0.306758 -0.622084
614 3.42491 4.57978 0.999077 1.79042 0.652949 -3.69665
853 5.3868 4.82038 0.502723 0.246457 -0.382374 -0.779063
619 8.29823 2.14735 0.161615 0.642025 2.96592 1.6975
715 5.49835 4.93468 1.86829 -1.7558 0.770249 2.09977
104 4.78367 4.37478 1.22417 -1.29139 1.15878 1.16532
592 5.61811 3.90138 0.713754 -1.44355 -4.58007 -0.772865
180 6.35239 4.66868 0.972452 -0.347897 0.332189 0.995311
351 7.52434 5.23487 1.40766 -0.168366 0.0192683 -0.282974
334 7.16148 4.10135 0.34682 -0.341203 -1.17574 -1.86829
74 9.41832 4.19388 1.53559 0.248241 0.342644 0.438206
503 8.21935 4.31662 1.64964 2.04639 1.90746 0.858694
807 8.60254 5.29343 1.51513 0.297799 0.24947 0.527527
712 8.10297 4.64036 0.303343 0.0693054 0.289069 -1.21269
559 10.302 4.58132 0.389498 -0.663787 0.186992 -4.21562
669 10.585 3.91025 1.12448 0.644494 -0.857904 -0.656986
40 9.0711 4.56191 0.758237 -0.47495 2.02909 1.8801
121 0.614293 2.11503 2.6696 -0.323136 1.11934 -1.43906
443 1.16463 0.395073 2.2115 3.05443 -0.145758 1.07865
675 0.72691 1.1952 2.63099 -0.505132 1.05262 -1.53357
473 2.03881 0.53669 2.61861 -0.492196 -0.334479 0.0301096
851 2.65796 0.0762039 3.25678 0.753711 1.77958 2.52131
105 1.54106 0.507508 3.51828 0.873026 0.774997 -0.536478
147 3.47865 1.19173 1.87511 1.29767 -1.87417 -0.439395
71 3.23486 1.74273 3.16649 0.327447 0.553258 -1.86229
436 3.59299 0.860652 3.10102 -1.68362 -0.654107 -0.206078
681 4.52698 1.13966 1.87501 0.0615915 -0.115849 0.186093
750 5.98577 0.673375 2.78622 1.25528 -0.212073 1.51013
375 5.48466 1.54989 2.02636 1.2704 -1.57915 0.396467
557 7.01437 1.03056 2.01828 -1.36483 0.808869 0.879825
318 9.19296 5.25512 2.6402 0.240174 -1.76692 0.173806
73 6.67848 1.21917 3.61635 -2.04528 1.04817 -0.550824
812 7.37998 1.71817 2.68259 -0.654496 -0.385769 1.28974
150 7.71744 0.60577 2.60979 -0.137215 1.49914 -2.35064
574 8.19501 1.36942 1.85137 -1.29104 2.72793 0.408839
229 9.01811 0.123926 1.76386 -0.737083 -0.349248 -2.04996
570 10.3529 1.44818 1.99733 -1.59637 -1.54296 1.18244
182 9.3014 1.18237 2.25481 0.257247 0.43679 1.14602
543 10.484 0.590308 2.55024 -3.21875 -1.94616 0.354914
686 10.2019 0.125095 3.61069 -0.540759 0.333198 -1.20198
564 0.61272 3.1335 3.51028 -2.12715 1.4293 0.587065
529 2.81544 3.78935 2.75441 1.08862 0.377232 2.56267
209 1.73055 2.78768 2.30802 2.20594 -0.20387 1.15353
66 2.49474 1.75311 2.28903 -0.861159 -0.196768 -1.50153
441 1.48189 3.88116 2.67301 0.795352 1.11709 1.82464
804 2.74271 3.06467 3.58767 0.36533 -1.63551 0.594946
171 1.86838 1.76164 3.48515 -0.890613 -0.307666 0.860501
424 3.76738 2.83255 2.63497 -0.577137 -1.97042 1.26983
447 4.948 1.82308 3.26159 -0.324052 0.630805 0.0555297
768 4.91681 2.78163 2.37598 -0.195526 -0.0161425 2.16748
276 6.3088 2.38469 4.55372 0.660728 2.00591 1.75083
298 6.13379 2.95464 2.81108 -1.10821 -0.590835 1.8982
6 7.40132 2.73016 2.40053 2.07879 1.87406 -0.184863
315 8.6638 2.05112 2.44322 1.64358 0.971144 -0.539116
32 7.81615 2.33733 1.43659 -0.651777 -0.523246 -0.926601
228 8.54611 3.08381 1.68618 -1.46482 0.846549 -2.37366
85 8.46187 3.08028 3.05208 0.712509 1.03033 1.30235
148 9.75162 3.17406 1.84364 0.190275 -0.538907 2.25425
630 9.68841 1.45917 3.26413 2.85303 -1.35613 0.421651
860 10.4613 2.50607 2.24344 2.18328 2.32 0.79625
550 10.1807 3.00937 3.22971 1.86397 -0.0558573 -0.369865
156 0.438608 4.15742 2.45431 -3.46194 1.63867 -1.66422
787 1.65454 4.59501 2.05767 3.06323 -1.26279 -0.0786266
662 10.3327 5.12672 3.17655 1.02283 -1.25209 -0.328663
642 2.8629 4.74523 3.51152 0.247859 -0.587451 1.79481
512 2.61524 4.75509 2.48987 -1.65728 0.971545 -1.00777
245 1.37071 4.41393 3.54734 0.467027 2.61593 -0.0707367
764 3.72433 3.56794 1.97037 1.6591 -2.90957 -1.29616
294 5.03485 3.72862 2.10714 1.95642 -0.830801 1.89253
340 4.52684 4.85469 2.08281 0.252937 -2.31765 -3.14004
329 6.34948 3.87137 3.31634 1.98201 0.0814756 -1.90654
516 9.71082 0.172669 0.105975 1.96023 -1.36578 -0.327722
673 4.82559 4.3673 2.95993 -1.40355 -1.51671 0.0468775
603 7.81697 4.08746 3.68333 1.01597 0.160624 0.0277031
82 7.16649 4.12143 1.5029 1.81167 -2.08588 0.896218
275 5.987 4.95258 3.26584 -0.718959 -0.396651 0.351621
196 7.72198 3.6805 2.50628 0.309737 -0.168612 0.023655
108 7.20602 4.83334 2.95247 -1.32704 -0.611564 0.0895481
696 8.01832 5.30108 2.31598 0.0963435 1.57069 2.32544
455 8.82635 4.35835 2.60476 -2.7913 -0.879404 -1.05145
579 10.3056 4.44576 2.18296 -3.14541 -3.51735 -2.00628
227 5.45947 2.24936 0.0245911 0.404564 0.234448 0.458904
607 0.421467 4.39219 3.65555 -1.03135 -1.44293 1.696
741 10.4551 5.05218 5.03405 0.444906 0.965756 -0.505239
631 0.813913 0.365285 4.56603 -0.721539 1.84674 0.498131
633 10.5984 1.0942 3.72373 -0.672984 -2.60638 -1.42602
122 1.2283 1.23674 4.86897 -1.74247 -1.66438 -0.0142401
269 3.55468 5.07223 2.58836 -1.15432 -2.09517 -1.25305
152 2.04586 0.101 4.38278 0.680094 -2.79025 -0.15565
822 2.72052 0.891648 3.98078 1.97177 -0.223164 -0.0375421
173 4.12201 1.18163 3.9978 -2.23657 0.68775 2.45956
439 3.79485 1.5978 4.83253 1.35655 -0.176795 -0.158146
361 2.16735 5.09953 0.734375 -2.86091 -1.26946 2.81384
444 4.68947 0.953821 4.90354 -1.35528 3.10643 -0.995907
284 4.69444 0.129959 4.1236 1.01716 -0.0788587 -0.109702
207 5.30335 1.03677 4.06536 0.710557 -0.338593 0.832826
515 7.15148 5.23988 0.509849 -2.07178 -2.65931 1.06823
282 6.8159 1.64803 4.9286 -0.986676 0.921574 -0.24338
185 6.09168 0.266041 3.74237 0.21592 -4.45944 0.221171
381 7.76589 1.2955 5.02508 -0.144719 -1.88287 -1.03816
566 8.70665 0.83633 4.97195 0.492627 -2.47134 -0.10761
259 8.6498 1.03134 3.13393 0.242009 -0.396327 -2.04996
429 8.2744 5.00161 3.42383 -1.02245 2.80631 -3.31159
240 7.84157 0.89445 4.08246 0.471731 -2.81707 -0.0646746
508 9.94931 0.609175 4.38833 0.938532 1.42804 0.694521
805 1.37879 0.0129309 1.19791 -0.605635 1.47447 0.714264
426 1.07941 2.10736 4.01297 1.22027 0.497579 0.83888
485 7.51198 0.0246331 3.71114 1.39821 1.21255 0.251001
405 0.672584 2.91742 4.63976 -1.93999 -0.352883 2.07236
317 1.48272 3.49726 3.82007 2.33953 -1.12971 -1.9682
220 1.59807 2.33683 5.12582 -1.00545 -0.692672 -0.647355
438 2.87684 3.51959 4.5606 0.789821 0.0872437 2.23218
154 2.79843 1.9016 4.3436 0.496103 1.47657 1.39337
700 2.2247 2.64005 4.38496 0.642586 -1.05808 -0.422209
60 1.45087 3.47032 4.77164 -1.52153 0.424446 0.796846
302 2.92965 2.7066 5.29803 -1.09048 -1.47902 1.39794
72 4.36726 2.73385 4.79676 2.22834 1.10566 0.775819
212 3.75624 2.54199 3.7653 -0.441214 -1.12354 -1.54682
91 4.03523 3.83539 5.12704 -0.571926 1.33148 0.973159
575 3.94869 3.54127 3.82335 -1.43096 1.05207 1.22092
435 5.25132 3.04091 3.47854 -0.275927 0.728304 -1.19841
195 5.09447 1.99245 4.53984 -1.38748 -1.43957 -1.06968
107 5.3605 3.15336 5.10938 1.28877 0.34427 -0.132207
35 6.16133 3.44347 4.61269 0.381177 0.698716 -1.47303
286 7.29926 2.52522 4.68116 0.774981 0.0484372 0.674736
776 7.11699 3.22914 3.42548 2.41075 -0.800426 -1.29463
609 2.45239 1.57172 5.22469 0.797618 -0.803388 -1.38944
523 8.21093 1.87233 4.00245 2.53107 -0.136468 0.499257
661 8.27156 4.05749 4.56643 0.41486 3.6272 -2.49861
636 8.32124 2.53804 4.93752 -0.276957 2.37842 -0.836866
706 7.87134 2.89452 3.96685 -0.561885 0.427381 0.440996
824 0.155528 2.11182 3.62321 1.02234 -1.13312 0.505013
179 0.0853156 3.59985 4.23283 -0.208945 1.86188 0.372672
125 9.24672 1.43283 4.25361 -0.41036 0.677774 -0.272167
144 10.6543 1.91658 4.53158 0.0311726 0.406394 0.655914
390 9.37891 2.37927 3.88915 -0.154132 -2.80001 -2.42422
690 0.426008 4.23195 4.94051 0.333521 -1.5434 -0.307919
720 0.10848 5.1171 4.18358 -1.22269 1.26504 0.462353
835 2.21065 4.12809 3.87174 2.13114 1.83475 0.537488
478 1.42374 4.75991 4.61551 0.0873196 0.515502 -0.538085
599 9.86773 4.23646 4.93748 0.245533 -0.260042 -1.52733
497 0.763677 0.170216 3.12636 0.67965 1.33345 1.22065
297 10.5776 1.07564 0.438044 -1.35865 0.861797 2.05991
694 3.54142 4.45931 4.41699 1.01129 0.502143 -0.564111
816 3.66966 4.24398 3.07055 0.125705 -0.502261 -5.15832
237 4.50165 4.62877 0.0624607 0.525914 0.813908 1.54731
377 4.59834 4.4944 4.29859 0.0187753 0.925035 -2.13147
41 5.05967 5.09377 5.07039 -1.39614 -1.22983 -0.367619
415 5.6448 4.54687 4.09414 0.250454 0.416381 1.64203
561 6.57206 4.4557 4.59784 -1.3707 0.518265 -0.79371
699 8.99091 3.9462 3.49752 0.760689 1.37292 1.29319
385 7.52127 4.8897 4.43367 1.90991 0.23532 3.51957
445 7.23094 3.49932 4.83438 -0.887933 -0.704043 1.79669
547 4.94739 4.1241 5.35185 1.27776 0.434207 -0.750185
221 2.2911 3.21399 0.0160041 0.395782 0.106674 2.48738
562 0.772082 1.21137 6.01858 -1.76935 1.29003 -3.57966
688 2.63084 0.75301 6.92197 -1.58425 1.72829 -3.68603
21 10.2877 5.10813 8.59562 -2.00452 -0.757652 -0.235479
622 1.64877 0.784954 6.26168 -0.747784 0.481074 2.48486
456 3.06723 1.27778 5.99807 -0.34954 1.30789 0.0843402
859 4.35662 0.972998 6.18855 -0.971156 -0.800736 -0.92872
49 3.71803 0.503908 5.51508 -2.22977 1.35144 0.843628
466 3.76072 1.0438 6.98872 -0.899804 1.31502 -1.25661
330 3.84122 0.0637725 6.55423 -1.0876 -0.706884 -1.04487
200 5.584 0.252673 7.32052 0.00312066 -3.54641 2.47566
111 4.91527 0.131363 6.46067 -1.32273 -0.326148 1.36744
471 5.87516 1.23665 5.46439 2.19966 0.623386 -2.23399
392 7.36864 1.71276 6.22551 -0.083737 -1.04028 2.03188
258 7.14397 0.554166 6.60454 -0.125251 0.781025 2.00032
670 8.32632 1.15199 5.91505 -1.24028 -0.467942 -0.125609
2 8.94498 0.340054 6.82846 -1.79534 -1.74832 1.53619
223 8.1817 0.178232 6.02604 -1.56252 1.26484 -0.781363
239 9.68131 0.291301 6.05624 1.79416 -0.522663 -0.104966
777 10.3627 1.71282 5.63919 -0.371833 2.07092 -0.614033
717 9.62806 1.21893 6.45567 1.18076 0.0181016 0.61977
551 0.0848671 0.479402 6.54891 -2.76594 0.187873 0.484533
598 0.461662 2.2129 5.68278 -0.675402 0.824234 -0.0906184
526 1.29235 3.24695 5.70085 -0.130891 1.17091 -0.101523
120 0.328996 3.60373 7.27194 -0.349831 3.48482 2.824
692 1.63347 1.58731 5.69837 -1.53228 -2.54341 -0.110837
98 2.663 2.55641 7.32959 0.367162 0.574935 2.34623
413 2.30813 2.3287 6.06909 -1.07174 -1.20198 1.01279
260 2.18081 3.43501 6.60437 -1.81668 -1.66895 -4.21182
786 3.72581 2.09398 6.11182 -0.628917 -0.66938 -0.0141517
752 4.46543 3.55344 6.6118 -2.98141 1.81518 2.27637
825 3.67961 2.93266 6.85731 1.66843 -0.582698 1.27814
460 4.89272 2.29544 6.83603 -1.25312 -1.30274 0.116322
90 5.86912 1.69931 6.30406 0.548746 1.44457 -2.77219
96 5.61905 3.06268 6.17443 2.52708 0.107035 -2.02361
676 4.89074 1.82032 5.68088 1.25144 0.530935 -0.380015
142 6.8168 3.18915 7.14555 1.09051 2.00539 -0.832544
199 7.17516 2.65955 6.09659 0.896641 -0.799821 -0.322779
656 8.18489 1.6938 6.82944 -1.18914 -0.880479 1.14218
553 8.32288 2.45885 5.9954 -1.16293 2.02508 -0.436565
697 9.10107 3.15922 6.9957 2.35593 0.848324 0.30563
271 9.21622 2.17782 6.42742 0.862891 -1.7171 0.833394
290 0.261422 2.18497 6.75082 3.34842 -0.751299 -0.922516
425 10.0858 2.67095 6.08068 -0.927555 -2.1739 0.854729
573 9.05582 3.26688 5.7106 -1.81001 -0.459673 -1.27707
279 9.11969 1.80157 5.36865 -0.2745 -1.21496 -1.07647
382 0.70025 4.38553 6.74964 -0.341049 2.35525 2.56233
594 1.34956 5.16221 7.2426 -0.429457 -0.567867 0.213971
671 0.996076 4.88324 5.70628 0.88317 1.02727 1.33505
581 1.54854 4.07591 6.20543 0.970316 0.82383 -1.13148
627 2.71432 4.56314 6.43217 -1.00682 -1.09513 0.0532899
781 3.20517 3.74326 5.93882 0.992083 0.801475 -0.162819
349 3.92944 4.45971 6.37766 1.16657 2.39053 -0.00371613
254 3.70403 3.05553 10.6025 0.903114 1.81772 -1.8782
465 9.20265 0.00334149 9.7465 2.17668 1.29698 0.690824
386 5.45229 3.69449 7.0677 -1.64865 0.647572 -0.49224
640 5.53464 4.79011 6.59226 0.433916 -0.00986159 0.454633
323 6.088 4.70651 5.45164 0.291536 0.0862383 -1.63523
145 7.29429 3.83597 6.24312 -0.479282 2.99812 0.879644
143 7.29815 4.87381 5.41182 -0.143384 1.3445 0.493296
611 6.69585 4.97752 6.48964 -0.609456 0.16191 0.000621199
88 6.24658 3.7667 5.76697 0.0405155 -2.37071 -0.92891
565 6.624 4.27381 7.21843 -0.0504521 -1.81501 0.736548
404 8.33212 4.13798 6.38125 0.23965 1.71925 2.96111
431 2.18979 3.7915 5.5169 -0.0288325 -1.4233 1.87239
728 7.62011 4.6526 6.62293 0.786068 -1.95877 0.198425
69 9.1432 4.8501 5.41642 -0.949965 0.373823 -0.414351
110 9.98317 3.61099 6.91738 -1.52003 -1.27619 1.31389
262 9.33398 4.25709 6.42701 -1.43269 -0.456309 0.68191
24 0.0305095 4.07081 5.98753 -1.11175 -2.14037 -1.95093
118 0.659628 0.0828735 7.44392 0.141307 -1.07358 0.354765
320 1.75163 0.946884 8.39787 3.91273 2.4631 0.416667
414 1.32944 1.00229 7.41609 2.58389 -0.273675 -1.63695
834 0.569463 1.18453 8.41702 0.316038 -0.791226 1.85423
423 2.72246 1.53394 7.61236 0.82663 0.328538 -0.30626
126 2.87848 1.77317 8.61345 0.209291 0.588803 -0.823084
726 2.13816 0.173065 7.7984 -2.16335 -1.8999 -0.2511
5 3.03775 0.554306 8.43376 0.00880837 0.352997 1.95187
682 3.83272 1.04518 8.02555 -1.36242 0.986092 -1.3302
756 4.55167 0.452879 7.37191 2.30106 -1.48127 1.42709
10 6.04051 0.573249 8.29493 -0.271864 -0.756518 2.21879
808 4.75097 0.20318 9.24003 -1.2495 -0.59383 3.01845
555 4.58429 1.43038 7.38198 1.09003 -2.14928 0.814061
357 5.30675 2.12734 7.89207 -1.30913 2.26694 -0.742726
14 6.31976 1.09374 7.0203 -1.97328 0.48891 0.195143
830 7.47947 1.87487 7.68317 0.883397 2.64663 -2.66002
128 2.45246 0.506535 5.43421 2.69784 1.04825 -0.894148
277 7.04027 0.720118 7.88299 -1.02366 -0.439699 -1.33139
654 6.41849 1.45324 9.17531 -0.87284 -0.276909 0.119463
57 7.40637 1.14636 8.81391 0.268042 -1.81521 0.157679
502 8.50059 1.03308 8.01434 1.99616 -0.531941 0.771358
753 10.5297 0.785029 7.53553 -1.53635 0.0700854 -0.834998
137 9.92772 0.0622924 7.99329 -1.14348 -1.5121 0.503786
388 10.4102 0.715201 8.64394 0.123544 0.890127 0.422351
779 9.50596 0.999097 7.83557 -0.829558 -1.58152 -0.861433
62 1.69062 3.04041 7.38225 1.96303 0.702372 -0.582427
601 0.660752 2.70898 8.66992 1.5971 -1.5346 1.01436
268 0.462488 2.59802 7.61943 -0.556407 -0.0862667 0.183138
540 1.21644 2.09203 8.05371 3.18024 0.359239 -1.27217
839 1.908 2.02837 7.14818 0.569991 0.747395 0.128297
713 2.70148 3.29352 8.24608 0.615449 3.35365 -2.87747
446 3.90292 3.58002 7.64615 -1.31651 0.686276 -0.380815
513 3.62705 1.97852 7.43571 0.327289 0.44969 0.670099
231 4.43351 2.40148 8.21077 -1.8292 0.338477 0.957466
162 3.57417 2.75759 8.75867 1.7022 -0.411562 0.887889
470 5.82748 2.64622 7.17759 0.169129 -0.207513 -0.717705
339 4.9948 3.34932 7.97103 0.136637 2.52586 -0.386826
25 7.68584 2.73235 6.97059 1.83793 0.0237582 -0.907708
250 6.22805 1.53742 7.98373 -0.997469 -1.46483 -0.176604
170 7.15624 2.71705 8.12871 1.95444 0.295264 1.5266
537 6.20026 3.10533 8.14382 0.189476 -2.26216 1.6901
51 9.10823 2.05179 7.58293 1.19707 2.14774 -1.48167
489 9.6622 2.85496 8.05488 -0.845413 -3.28293 -1.26523
80 8.09201 1.88711 8.55366 -1.22739 0.379769 0.738313
452 10.4354 3.38299 8.42307 -0.656743 1.01504 1.40954
724 10.486 1.88992 7.85365 2.02323 -0.305853 -0.124362
799 9.55044 2.8065 9.08317 -0.528068 -0.190729 1.73841
605 10.3748 1.98752 8.84719 2.56135 -0.550892 -1.51999
178 1.16628 4.02384 7.55024 1.95984 -0.63483 -2.67625
685 0.536893 3.94184 8.64373 2.02844 -0.460706 2.3456
624 0.590757 4.95532 8.43207 -3.07462 0.466946 0.698245
734 6.15368 5.1876 10.4549 2.12643 -1.18744 -0.595012
664 2.82561 4.38614 8.80142 -0.151997 -0.694867 -3.03163
714 1.75365 3.84323 8.46094 0.435607 -1.18591 1.97082
87 2.25983 4.31095 7.63397 0.351966 0.574365 1.80087
272 3.7384 4.83064 7.31006 1.4032 -2.17711 -1.78421
29 3.12323 3.89346 7.06188 -0.831682 -1.65668 1.94397
560 3.82238 4.86834 8.47167 0.994624 -0.199785 1.65887
583 4.30711 3.50673 8.627 2.72623 0.540704 2.96478
709 5.0242 4.52223 7.48498 0.507855 0.513742 1.71123
672 4.7904 4.84754 8.86826 -0.491636 -1.681 0.920664
459 5.80827 4.34308 8.18119 -0.408006 0.625204 2.1042
30 5.37969 0.831777 10.5312 -0.865157 -0.68231 1.96983
407 6.82352 5.1098 7.63477 0.324878 -1.01289 1.40732
783 7.37329 3.88962 7.97783 -0.513749 -2.36535 -2.09425
33 6.8211 4.48906 8.56601 0.433819 -0.516182 -1.35276
321 8.89851 5.02444 7.34959 -0.192539 -0.0523525 1.46411
729 8.41645 3.94103 7.41416 -1.1674 -1.47032 1.54631
304 7.9029 4.89137 8.34894 -0.971999 0.038145 -1.46875
265 8.34268 3.96424 8.5378 0.880379 1.71899 1.19366
703 6.62719 0.375521 5.8072 1.78009 1.18318 1.48126
94 10.3092 4.58664 7.65196 3.22211 0.242956 0.211606
16 9.3471 4.75725 8.3872 -0.626099 -1.6149 -0.792827
293 10.1592 4.74357 6.58675 -0.184258 -1.66478 -1.60235
496 9.37196 3.69202 8.639 0.781992 -0.0797981 0.215995
281 1.15721 1.86428 9.09028 1.13779 0.462622 -1.79812
93 0.490856 1.59704 9.86994 -0.311105 1.55136 -0.525324
646 9.03652 3.90797 10.6156 0.463993 -0.495858 -0.994169
18 0.979946 0.0962724 6.08025 0.814299 0.272671 -0.00789724
160 9.6158 5.20801 10.326 2.19601 -0.815513 -1.42814
246 2.21698 1.64828 9.79393 0.62159 0.802578 1.00257
331 2.58025 0.428954 9.53911 -1.18529 -0.21553 1.25479
571 1.35172 0.971915 9.74807 -1.76763 -0.882973 0.057663
716 4.47455 0.977915 10.0193 0.708656 2.12584 -0.704828
166 10.0646 4.42131 9.82429 -0.335812 1.31578 -0.250741
428 3.08822 1.00259 10.5179 -0.212848 0.354065 -0.691949
55 5.38969 1.50988 9.53647 -1.40609 -1.10963 -0.696308
427 6.24043 0.541782 9.52759 0.562112 0.853868 -2.6864
301 4.72024 1.41421 8.70492 -0.444758 -0.0906957 0.220666
99 7.62826 1.4915 10.0359 -0.728646 1.91441 0.271685
312 6.7692 0.940228 10.267 1.88987 -1.45547 1.59364
232 8.54463 0.568554 9.35849 1.7112 -0.419388 -1.03224
524 1.36111 1.5229 10.7127 1.40287 -0.262428 -0.589587
476 8.71068 1.64196 9.34107 2.23602 0.852902 1.99873
127 8.55687 0.588966 10.5949 -2.39745 -1.5302 -1.38868
796 9.30526 0.523711 8.68719 -1.12487 0.492755 -1.57417
422 1.66753 4.99039 8.28144 1.3439 -1.17547 0.25052
181 10.1875 1.71026 10.3391 2.1897 -0.155655 2.003
203 10.0584 0.835886 9.73679 -0.334976 -0.915007 -0.530081
9 9.16426 1.19339 10.0874 -4.04141 0.645389 2.67506
802 1.87646 2.67614 8.80024 1.01711 -1.16317 0.0868198
70 0.850097 2.89992 9.68975 -0.925821 2.74875 2.21042
410 1.3428 3.91178 9.70709 -0.873321 1.83758 -3.09137
248 2.90217 2.20558 10.43 1.0966 2.72469 -0.412245
58 1.7883 2.48847 10.3537 -0.373356 0.986445 2.89105
359 6.51722 0.0362772 7.2846 1.17336 2.67634 -0.110771
153 3.49574 1.40349 9.47737 0.169499 -1.46355 -0.861047
400 0.0612042 0.272168 10.3274 -0.101185 -0.277183 -0.0635942
457 3.05867 3.15622 9.66023 -3.3032 1.91692 -1.44369
792 4.97319 3.05835 9.28679 0.554718 -0.266169 -0.511075
226 4.33809 2.38479 9.84982 -0.586723 -0.890527 -1.10525
12 5.73623 2.44127 8.93542 -0.0798052 0.215359 -1.8049
519 5.11014 3.07977 10.2367 -1.31727 0.0243571 -2.01843
218 7.0678 2.1015 8.97442 1.04227 0.432028 -0.860736
398 7.40487 2.62213 10.5885 0.0587867 2.78274 -0.956593
89 6.32451 2.17179 9.85014 0.626807 -0.895198 -1.98435
474 7.13657 3.35584 9.23541 0.352017 2.23184 0.489677
849 6.458 2.99129 10.5659 -0.967331 -1.34723 -1.67824
263 8.89527 2.38419 10.008 -0.00387816 -2.2471 -0.153431
468 7.97349 2.33605 9.40842 0.653035 0.577473 0.166233
261 7.88047 3.71256 10.3328 -1.32835 1.86041 1.99566
740 8.44737 2.74967 8.57578 1.40434 -0.861549 -0.259399
765 10.7066 2.60831 10.2598 -0.719363 -1.61305 -1.10662
395 10.1833 3.35216 9.62549 -3.40958 -0.286498 -1.88003
353 9.69542 1.78946 9.45959 1.03467 -1.11888 0.0193699
815 0.310965 4.18198 10.1152 0.0362851 0.856473 -1.62672
626 1.14914 4.75289 9.13367 0.452374 1.19366 -2.43501
225 2.26886 4.22461 10.5834 2.03895 -1.49525 -0.254398
649 2.14374 4.85136 9.47554 -1.07925 0.872747 0.572092
433 8.01672 4.5888 9.46385 -2.00384 2.2167 1.07202
743 4.24161 5.03435 9.88956 1.58089 0.955815 -0.561131
305 3.27098 4.44949 9.98717 1.24876 -1.14475 0.958915
117 4.32792 3.95498 9.90894 -0.141474 -0.450668 -0.496161
531 5.78684 4.07015 9.33783 0.587402 -1.96958 0.990826
463 5.36233 4.7688 10.1279 1.91874 -0.606251 -0.592123
725 6.43662 2.80506 5.37273 2.08323 -0.388985 1.05114
683 6.45852 4.84361 9.57671 -1.73845 -0.908936 1.23917
15 7.27568 4.43954 10.0097 0.969513 1.86195 0.988148
710 2.88103 4.88318 5.47904 3.19304 0.246324 0.0165361
251 8.87606 3.92531 9.51652 0.79081 0.177999 -0.521755
813 4.39205 0.107127 10.4048 -1.68515 2.83664 0.132736
721 0.0549928 5.13965 9.71913 -0.67532 -1.20778 -1.39073
595 7.82331 5.27037 10.2028 -1.28258 -2.20831 2.13562
235 4.10202 4.89272 5.45143 -2.21673 2.22991 1.9925
858 10.3856 0.761656 5.39248 1.04635 1.76805 1.62509
521 10.3401 3.30407 5.40989 -0.226615 -1.03869 2.42341
745 1.36001 5.54483 1.59531 -0.013308 -1.72133 1.14587
747 0.765124 6.6382 0.407183 -3.14779 0.804218 0.679568
705 10.5982 5.39401 2.07827 0.339307 -1.85187 0.854617
602 0.146379 5.45079 0.0545775 0.438245 -0.927865 -0.86716
517 1.37486 6.95447 1.54529 3.54259 2.40091 -1.76689
659 2.39642 6.76477 1.21507 -0.330802 0.795551 0.932823
310 5.67084 10.4681 0.451024 1.10284 0.0809858 1.22434
818 2.67417 5.84054 1.66913 -1.44991 -0.634144 -1.06217
133 3.07551 7.05931 0.513678 0.933376 1.08019 3.5607
864 2.05966 6.2568 0.323362 -0.812712 1.01591 0.533318
461 3.12777 7.11928 1.84068 0.923497 0.667693 -1.04179
355 3.75333 5.64395 1.50508 0.919326 0.162528 1.45634
344 2.91124 5.88156 0.440673 -2.85466 -1.35709 1.64234
727 4.78177 6.44024 0.790235 0.806794 1.03726 -0.404881
391 5.84183 6.35228 0.0450791 0.882938 -1.56987 0.0516849
335 4.90101 6.90698 1.704 1.63137 -2.57035 2.07182
437 6.41105 6.595 2.02293 3.22713 1.32397 3.02115
548 7.5057 6.33472 1.47084 -0.0251852 0.272968 -1.4677
112 6.45243 5.85413 0.999045 -1.2793 -0.859576 1.72886
311 7.87329 5.99594 0.579308 1.06997 0.915949 -1.15838
845 8.41453 6.7463 0.921746 -0.701767 -0.840696 1.82413
247 8.56984 5.50559 0.114817 -1.79647 0.405125 -0.0628374
233 10.3114 5.96745 0.600263 -0.157232 3.28846 -0.452044
539 0.47806 6.23095 1.38564 0.392867 -1.87416 1.66482
475 9.2132 6.25188 1.64985 -3.06471 0.853655 -0.0202483
131 9.4455 6.34011 0.649474 1.73161 1.00197 0.470918
4 0.250984 8.8325 1.1315 -0.628499 1.10209 3.33385
449 0.564377 7.65159 1.07543 -1.01549 0.540291 -0.635189
417 5.60941 5.81653 2.45447 0.691737 -0.185176 0.0946476
754 2.99424 8.06386 0.0128425 -0.491463 -1.66114 -2.65373
97 1.53509 8.12697 0.726591 -0.911596 -2.51592 -0.717092
81 2.58644 8.9429 0.825281 0.86741 0.765006 0.160916
372 2.669 8.04413 1.54366 2.51055 -1.96754 -0.663621
68 3.49504 8.11224 0.866128 -1.16968 -0.299699 -2.06003
345 3.96743 7.10301 1.30251 -0.70621 0.496374 1.59356
647 4.1859 8.2844 1.67957 -0.944778 1.43398 0.029782
520 4.97364 7.92812 1.14495 -3.25087 -0.0343269 -0.350805
238 5.92193 7.23043 1.35213 0.734161 -1.08123 0.97586
206 6.31354 8.25866 1.11544 0.865228 -0.383508 -1.56925
292 6.14515 7.25036 0.292113 -0.722233 -0.312357 0.577011
432 7.32479 7.42693 0.277895 1.73822 0.794309 0.231247
464 6.81364 7.45163 1.55161 -0.157998 -1.48753 0.114316
510 7.27129 8.50389 0.116946 -2.40947 -2.23624 -0.577962
618 7.36666 5.96958 4.84889 -0.433698 2.40382 -0.320486
665 9.14324 8.32788 0.824152 1.39419 -0.165759 -2.42661
635 8.04336 8.91091 1.80883 -0.179633 1.27038 2.03859
183 7.72038 8.20223 1.00513 0.479847 0.598228 0.424934
541 10.5538 7.66306 0.190675 1.32155 0.384377 0.508166
820 9.83782 8.75627 1.46035 1.48636 1.49097 -0.0661596
350 9.69366 7.31825 0.885118 -0.846039 -0.456767 -1.62912
479 10.5817 8.12365 1.78692 1.71095 -1.19617 1.34019
771 0.637206 10.2932 0.15216 0.498054 0.673775 -4.04957
814 1.10604 9.62864 1.17628 -2.13113 0.835714 1.67407
403 0.33075 10.6991 5.31933 0.576336 -1.57411 0.591491
343 2.19162 9.68301 1.6886 -0.420136 -1.51731 -0.712576
28 4.20824 5.61148 4.48773 0.598362 0.611182 -2.82261
788 4.20248 9.96849 0.480618 -1.2165 0.634285 0.47218
857 4.94052 9.03972 0.570845 1.29248 0.159377 -2.14
379 3.07622 10.106 0.462925 -0.930296 -0.721077 1.41309
106 3.43862 9.1686 1.16655 1.12027 -1.08681 -1.65022
411 3.61525 10.4476 1.30137 -0.806751 -2.21694 -0.657492
54 10.4809 6.32696 4.90395 0.167333 -1.13406 -0.689926
47 4.95087 10.2899 1.09206 -0.0989623 0.740523 -0.963603
367 6.34941 10.3045 1.36045 1.33797 2.76919 0.738741
772 5.71956 9.54524 1.52246 1.75065 1.96879 -0.0941674
214 6.13097 9.06419 0.38791 -1.12127 -0.119976 -0.635251
328 7.29155 9.51433 0.763699 1.05409 -0.699665 1.24512
299 7.01274 8.53554 2.03379 0.253362 -3.05723 0.481073
800 8.05312 10.4982 1.19345 -0.901378 -1.18381 0.101544
194 8.5843 9.14053 0.400908 0.826298 1.92211 0.0344851
637 8.983 9.56554 1.92197 -0.14905 -0.651663 3.61678
587 8.99071 10.2302 0.797226 0.911756 -0.743343 0.446461
837 10.2127 8.85923 0.444662 -0.583729 -1.39262 -0.330277
102 10.1774 10.3077 0.985904 -1.65691 0.0751299 -0.147187
387 9.89859 10.3495 2.00706 -1.00624 4.34507 -0.216445
701 0.285647 6.40474 2.66282 1.88259 1.02712 -1.17943
477 1.20126 6.40814 2.4062 1.61457 1.20484 0.642416
572 1.9954 5.57873 2.47156 0.390943 0.0930101 2.10595
504 2.05983 6.7004 2.66864 -1.35429 1.01571 1.83213
189 4.66234 6.00105 1.92705 0.318592 0.380676 0.300677
615 8.45863 5.84803 5.31284 -0.380068 -2.61709 -1.88838
119 3.16381 6.13165 2.52896 -0.34761 0.737567 0.0823597
829 4.5236 6.61016 2.61872 -1.80864 -2.34231 1.9574
114 3.00292 5.89674 3.65445 1.09269 -0.302881 -0.577749
362 5.47202 6.88059 2.6081 1.29801 3.09661 -0.056042
488 4.83565 5.47129 3.05708 -1.18801 2.21847 0.498666
492 5.11223 6.9507 3.5707 0.0249167 -3.03225 0.840678
326 7.22281 5.97372 2.77512 0.0321132 1.69441 -0.826369
186 6.35404 6.67265 3.0021 -0.332936 1.16227 -2.0056
785 5.71727 5.91813 3.715 -3.6057 -2.08517 -0.198987
628 8.08537 6.49767 2.35443 -0.594592 -0.925629 -0.532579
113 8.22759 5.96944 3.14779 -0.597165 1.00012 0.634085
64 9.04266 6.46526 2.72679 -1.24075 0.473944 3.21316
634 8.84171 7.2334 3.77101 2.87011 1.12237 0.243714
100 3.49728 9.15745 5.30142 -0.733108 3.2534 -0.255377
406 10.3239 6.94001 1.77356 0.286195 0.973727 -1.41912
736 10.3371 7.51833 3.24819 0.102919 0.314311 0.940915
249 8.48988 7.67673 0.0476501 -1.56863 0.273578 -0.484335
749 9.85787 6.51075 3.24884 2.13277 1.70342 -0.272896
266 10.0043 6.21256 2.33188 0.900479 0.114378 0.497984
19 1.19571 8.74553 1.68893 0.913979 -1.15695 0.566139
482 0.38966 7.52563 2.2755 0.0511452 -0.784708 0.083714
545 1.02215 8.70003 3.21993 1.25248 0.763743 2.60589
773 0.993238 7.10417 3.15968 -2.79672 0.412307 -2.21831
306 0.174486 8.37199 2.87257 -1.79532 -0.05068 -1.52836
759 2.26832 8.84647 2.04021 0.916453 -0.854724 1.70807
563 1.73947 7.63749 2.14531 -2.86636 0.0402348 -2.17167
590 3.08294 8.85871 3.02347 0.715156 0.234334 -0.740876
518 2.74642 7.83704 2.73441 -0.407667 3.18585 1.42879
862 4.0775 7.45401 2.31406 0.890975 -1.0915 0.301048
149 4.50229 7.85174 3.28861 0.195364 -0.563763 1.65254
61 4.17885 8.85023 2.89109 0.201287 0.50685 2.11129
770 5.97773 7.81349 3.51616 3.76043 0.761489 0.836092
738 5.03657 7.97652 2.22388 0.647597 -1.55341 1.75956
307 5.14335 9.34888 2.84892 -0.102192 -0.101546 -0.879652
746 4.98966 8.89023 1.62821 -0.721483 -0.510931 -2.76743
472 6.79322 8.41371 3.31881 2.27534 -1.01069 0.439897
511 6.0878 7.89742 2.22753 -0.416004 0.158683 -1.31227
643 8.70244 7.54673 1.69219 0.271332 -0.640152 0.382196
761 7.49867 7.62338 2.5034 -0.723579 3.19651 0.942491