ITEM: TIMESTEP
41080
ITEM: NUMBER OF ATOMS
864
ITEM: BOX BOUNDS pp pp pp
0.0000000000000000e+00 1.0726842421158810e+01
0.0000000000000000e+00 1.0726842421158810e+01
0.0000000000000000e+00 1.0726842421158810e+01
ITEM: ATOMS id x y z vx vy vz
662 0.437721 1.89633 0.342301 1.1523 1.90391 -0.689976
63 0.716546 0.799521 0.9079 0.191275 1.11685 1.52357
863 1.75329 0.283359 1.11457 1.48124 -2.95499 0.821388
71 1.97454 0.766218 0.234083 0.274923 0.96516 -0.0865981
222 3.2951 0.671962 1.3982 1.64387 1.22178 2.09872
73 4.26748 0.0575397 0.875842 0.909152 0.981408 1.93131
850 3.15569 1.67039 1.35828 -1.10874 0.647245 -0.161705
750 4.35639 0.643536 1.77398 -2.45444 -1.2362 1.19432
30 3.2669 1.10627 0.545891 -1.36661 -0.373813 -1.51803
147 5.88776 0.694872 0.577558 -0.683972 -0.764958 -1.92606
284 4.89778 1.10225 0.770671 0.318137 -0.270626 0.379394
532 5.07646 1.55097 1.75417 2.04725 -0.843127 -2.07549
396 5.40213 0.177105 1.3981 1.64876 1.33826 -0.78956
816 6.12323 1.67699 0.837307 -1.52554 0.81746 -1.18555
157 6.97496 0.509444 0.18568 0.15472 -1.3115 -0.376567
639 7.30933 1.38063 0.579346 0.87016 -2.47457 1.67777
550 6.4295 0.566378 1.54168 0.0572006 2.56016 0.499554
516 6.90154 1.74837 1.47186 0.516485 0.704215 -1.29731
146 8.80278 0.467128 0.551207 -2.04086 -0.000709546 0.348963
454 8.73141 1.1989 1.226 -2.96819 -0.986969 -2.20954
491 7.87413 0.705444 1.0651 -0.814092 0.742036 1.60335
523 10.7066 0.409651 0.165259 0.47713 -1.61294 0.864483
167 9.62004 1.63358 1.0065 0.662618 0.020323 1.38454
409 9.30054 0.203704 1.41827 0.767825 -1.98364 0.696457
804 10.4708 0.143558 1.17311 -0.132487 1.15872 0.624151
433 9.18311 1.44421 0.0875516 -1.89148 -1.55125 -1.38221
535 1.37572 2.15607 1.5589 -0.171856 3.34684 4.30661
524 0.604965 2.84008 1.29495 0.319432 -0.0079896 -0.706036
236 1.79067 3.15187 1.14871 2.00453 -0.898457 -1.02091
53 2.98553 2.24349 0.266004 -0.479925 -0.730426 0.194493
203 2.54578 2.43905 1.48445 -3.06575 -1.65125 -1.67971
813 1.58705 2.1265 0.143233 -1.60428 0.58782 -3.04571
843 4.00974 1.84651 0.601673 1.52706 -0.436794 1.88783
824 3.39199 3.03066 1.1642 -1.72796 -0.606607 0.919435
132 4.3283 2.47534 1.21751 -1.9037 0.176698 -0.739013
139 5.05522 3.19406 1.47532 1.6403 -1.69222 0.900318
170 5.76449 2.73418 0.557436 0.263822 0.899152 -3.34236
104 6.68574 2.91148 1.37099 -0.230105 0.224626 0.448298
685 7.59556 2.59399 0.577437 0.627081 -0.667613 -0.376129
57 6.47068 3.69301 0.405217 1.80372 2.95752 -0.850492
248 9.07558 2.52531 0.881843 -1.59223 2.73134 -0.359869
145 7.95468 1.86716 1.35265 -0.966918 -1.04486 1.3483
351 8.95314 3.07255 1.70144 1.44778 -1.19665 1.25696
605 10.5822 1.88657 1.22499 1.95025 -1.51254 -0.535286
85 10.0375 2.10699 0.148213 0.270473 -1.30236 0.938912
64 9.83654 3.52748 1.38449 0.720833 0.218516 -1.6853
318 10.4144 2.82412 0.858224 -0.334194 3.49537 -0.0522341
336 0.103039 3.80146 1.40029 2.21684 0.556125 0.36868
148 0.935562 3.54093 0.575779 1.27852 -2.80332 -1.10989
196 0.179022 4.96814 0.941737 -2.3822 -0.18843 1.4968
701 0.765252 4.74937 1.6625 -2.06378 1.21432 3.10076
694 1.51161 5.09346 0.919868 0.587532 0.0885891 3.28525
707 1.93571 4.5286 1.75419 2.23502 -1.69239 2.88727
397 2.03858 3.95719 0.802704 -0.819885 2.34888 0.0669872
614 2.78339 5.00009 1.72588 0.456158 -0.67148 1.14218
642 3.18268 4.34318 0.789279 -0.333218 -0.799024 0.649551
138 4.03323 4.49605 1.30021 1.40881 1.1905 0.304165
666 1.95433 0.244592 4.72713 1.29947 3.34871 2.10493
87 2.94128 3.63327 0.0493765 -2.68977 -0.118442 0.167693
261 5.41354 4.12554 0.0757449 -0.356832 1.19312 -1.7389
276 5.7689 3.77409 1.23909 1.33268 -0.032877 1.30741
300 5.39331 4.77045 0.904492 0.901943 -0.809542 -0.38674
286 9.79093 0.02323 5.06759 -0.182557 2.05602 -0.499938
696 7.31649 3.95055 0.749981 -0.13733 -1.09708 -0.652362
448 6.71847 3.91936 1.66365 -0.141839 -4.35243 0.21635
736 8.62687 4.59159 0.793621 1.15314 -0.858517 1.18822
198 8.48047 4.25172 1.72865 0.514724 0.931177 -0.122232
429 10.0052 4.47803 1.43817 0.954056 -0.679246 -0.908581
201 9.48241 4.23365 0.386148 0.323892 -0.0285672 0.117783
559 10.455 4.02256 0.481604 0.68041 -2.72743 -1.13429
686 0.141576 1.27232 2.02365 -0.183834 -1.40969 1.2345
618 0.897518 0.952894 2.62583 -1.39341 3.15023 -1.77845
632 0.999112 0.290406 1.81967 -0.856355 -2.1542 -1.1867
209 0.407283 0.454139 3.32788 1.06934 -0.228628 0.899183
221 2.40473 0.301776 2.01356 0.406487 0.973229 1.42429
66 2.31649 1.56769 2.04411 1.04551 -0.55658 -0.707096
357 1.92772 1.45084 2.92992 0.873768 1.59737 -0.0849096
185 3.3042 1.33097 2.47264 0.226125 0.316171 2.10934
428 4.1653 1.6176 1.93352 -0.00247288 2.71118 1.71259
281 3.4203 0.34686 2.40982 -4.19226 -0.869043 -0.166121
10 3.56292 0.982292 3.50395 -0.00310211 -1.93586 1.25515
435 3.86591 0.0452318 3.22488 0.434164 -0.586246 0.7912
182 4.88731 0.574537 2.59812 1.7399 -1.35852 0.644197
812 6.16467 1.40439 2.10859 1.46951 -0.263839 -0.668546
508 5.06088 0.763225 3.50572 2.32543 -0.782846 0.429161
557 4.97339 1.54568 2.77394 -0.323713 -0.525068 0.637241
32 7.30078 0.911683 1.95955 -0.192619 0.124539 1.64388
226 6.97455 1.55936 2.63839 0.948461 1.00195 -1.71508
511 6.50684 0.536428 2.63555 0.111396 1.43437 1.70769
492 6.37075 1.68724 3.5011 0.117215 -1.25598 1.29122
578 8.61316 0.730564 2.19928 -1.144 -0.143813 0.00142808
569 9.0755 0.912933 3.34516 -0.00920928 0.353313 0.742225
579 7.91568 1.4908 3.16412 -2.15368 -2.14929 0.676301
564 9.11106 0.0781667 2.76859 2.65263 -0.938796 -1.47702
551 7.91527 0.30912 3.03372 -1.11668 -1.22396 -1.93415
599 10.4471 1.36229 3.22611 -0.296571 0.163287 -0.831415
480 9.76517 1.61096 2.16239 -0.688691 -2.55946 -1.15001
661 0.701465 1.73236 3.45004 0.808297 -1.16828 -0.198758
455 0.164067 2.12358 2.40756 0.827066 0.436759 -0.0305725
692 1.34881 2.73247 2.97159 0.786313 -2.02839 -0.052339
114 0.591878 3.12854 2.29314 -0.948028 -0.00869753 1.04364
681 2.67892 2.62732 2.79963 1.92433 -2.54354 1.33687
426 1.9683 3.30258 2.31171 3.07451 -2.02409 1.6765
259 3.47972 2.05693 3.17954 0.675876 -1.35981 -2.29212
211 3.51985 2.48619 2.01067 0.353191 -2.04211 0.864328
96 4.31735 1.7977 3.65318 0.181907 -1.94724 2.98668
509 3.0725 3.55532 3.1166 -0.0762463 0.970548 -0.827711
349 4.3314 2.56103 2.44594 -0.175687 -0.944986 -0.731159
107 4.09529 3.08857 3.24483 -0.53682 1.48634 0.73691
561 5.08064 2.55848 3.06733 1.07864 -0.158718 2.27771
690 7.48053 3.35914 1.99275 2.84414 1.40933 -1.78302
529 6.04683 2.40249 2.34214 -3.2886 -1.20843 -1.80581
125 6.10188 3.39796 3.10375 -1.43727 0.426614 0.00963001
566 7.15048 2.38823 3.22477 0.704998 -1.10238 -0.502621
776 8.16339 2.60529 2.37675 -1.16894 -1.40524 1.07252
74 8.89449 2.05274 1.97521 -0.0531908 0.251007 0.996308
6 8.353 2.75823 3.49798 -1.07078 0.792987 1.56586
749 9.34143 2.8022 2.78461 2.60225 -1.8096 -0.587294
553 10.0032 2.57214 1.95116 1.25628 -0.523753 1.44724
807 10.2048 3.48143 2.43176 1.53623 0.894183 -1.65163
361 10.6657 2.83218 3.14161 1.46337 1.47835 1.01587
324 9.50841 1.87638 3.06944 0.297191 -1.24189 0.405093
745 0.841889 4.03682 2.41494 0.32846 -2.14469 -1.76561
482 0.440319 4.23893 3.41969 -0.153956 3.22659 -0.0362292
762 1.79312 4.03415 2.89331 2.84656 0.185722 0.489901
778 2.60648 4.134 2.17968 -0.184738 0.80725 -3.03415
544 2.15367 5.10441 2.66036 -0.284198 -0.473668 0.0221615
405 2.57258 4.50344 3.41108 2.37904 0.335917 -1.96323
173 3.45083 3.68908 1.92415 -1.51172 -1.6179 2.04912
377 3.51882 4.88509 2.534 0.116427 -1.25138 1.08816
445 4.1052 4.32205 3.29211 0.833676 0.695512 -2.20547
235 4.46958 3.94117 2.23047 0.812694 0.0599957 0.0791851
212 5.5229 4.10528 2.44565 0.535333 -3.00272 -2.49991
329 5.10872 5.3207 2.33175 1.38306 -1.17213 1.63399
269 5.31918 4.95282 3.34429 -1.93049 1.67675 -0.853372
619 7.3218 4.44351 2.23647 0.290327 -0.349824 0.655847
15 6.47274 5.08006 2.03407 -0.235975 -1.93855 -0.444957
485 7.56489 3.83149 2.96166 -0.433428 0.895827 1.65139
143 6.34109 4.53999 3.06984 0.0139218 -1.05908 1.60334
680 7.17072 5.26124 2.88918 0.387865 -1.96507 0.0979456
586 8.97921 5.17589 1.84799 0.794603 0.518995 -2.10128
471 8.32831 4.37532 3.37941 1.67886 -0.61942 0.332551
706 9.07523 4.47287 2.56175 0.487843 1.06841 -0.861115
770 8.21113 5.2214 2.67114 1.49682 1.69958 -0.507047
819 10.64 4.4216 2.26301 -0.922942 -0.407136 1.9306
669 10.0414 3.96355 3.28398 2.82966 0.240668 1.15221
721 10.0362 5.1509 2.57899 -0.0245356 0.159456 0.601708
154 1.40759 0.947546 3.86333 -0.722861 0.964157 -1.33953
631 0.853846 0.771323 5.25722 -0.0188507 4.09379 -2.69758
630 10.6756 0.401097 4.38802 -1.06166 -1.1322 1.12312
190 2.19534 1.23295 4.90519 2.32301 0.207855 -0.796606
601 2.41151 0.568227 3.75909 2.80964 0.861366 0.275184
333 3.21579 0.368932 5.23375 -2.11202 -0.664716 -1.51871
846 3.23108 1.36438 4.41253 0.049868 0.0440869 -1.16694
746 3.393 0.0515598 4.20045 0.0886632 -0.674785 -0.774685
817 4.39465 0.707981 4.442 -0.740508 2.19926 0.363644
531 4.29908 1.84739 4.58273 -0.642618 0.228469 1.64216
371 5.39435 0.665521 4.3892 0.747924 -0.591099 -0.36268
739 5.46254 1.58632 3.83761 0.406606 -2.27287 -2.49668
810 6.02276 0.0412378 5.07835 -0.982901 0.563067 -0.424345
800 7.28987 1.06129 3.70438 -0.402325 0.291983 0.087277
225 2.13 3.18134 0.135055 -1.74136 -1.31986 1.79829
199 6.47867 1.00823 4.45692 -1.20583 0.451424 -1.06863
240 7.3034 0.241569 5.31953 -0.406828 2.57796 -0.449503
51 8.92597 0.0925094 4.04358 -1.04395 0.016356 2.1941
381 8.20484 0.953678 4.07223 -0.579748 -0.149322 0.579573
644 8.47312 0.182423 5.29903 -1.21879 -0.0478961 1.0507
403 10.1961 0.0268559 3.59266 1.4088 -0.1083 -0.900236
150 9.6611 0.700816 4.33713 -0.257135 0.491508 -0.769909
670 9.5989 1.64712 5.05132 0.725124 0.430294 3.02117
765 0.475685 1.81871 4.44012 1.74364 -0.334296 0.485417
118 1.08188 2.20174 5.2589 -0.255788 0.446919 -0.966045
156 1.48317 2.88861 4.38152 1.43984 -1.47829 -1.42084
478 0.775915 3.32372 3.69512 0.879461 -1.05815 0.499316
438 2.79282 2.14834 3.88225 0.306431 -1.07561 0.156423
424 1.80522 2.06096 4.04154 1.13816 -2.4451 -0.543594
622 2.15695 3.03946 3.45633 0.27387 -1.40565 -0.344592
122 2.17645 3.16032 5.0709 0.246029 0.234018 2.49028
822 2.98329 3.42049 4.29623 2.26363 -0.0087314 -0.173951
460 3.69831 2.58788 4.13364 0.368089 0.838093 0.357397
825 3.42061 2.17195 5.21471 -2.37976 1.45488 1.58897
302 3.51298 3.13331 5.29506 -0.408818 -0.775517 -1.46821
673 4.25831 3.43695 4.21515 -1.05553 -0.401022 1.81036
35 5.98688 2.62452 3.73089 2.26215 -0.0946156 -0.296861
294 5.1525 2.11078 5.08024 0.466557 -0.241636 -2.21247
41 4.88761 2.5591 4.22386 -0.164889 1.47021 -1.5575
506 5.43104 3.42303 4.3003 0.805703 -0.219189 -0.42979
245 4.73055 3.28989 5.15465 -0.533365 0.805301 0.691467
752 6.49307 3.12331 4.72869 -1.93613 1.1833 1.9593
386 7.67275 2.75162 4.18959 -0.403347 0.800459 -1.72514
720 8.05713 3.06656 5.28237 3.61271 0.544952 0.453946
717 8.69967 3.22951 4.39936 -0.143007 -0.802865 2.03621
753 7.78466 1.91076 4.94312 -1.21362 -1.92561 -0.371829
470 8.88765 1.87584 3.85667 -1.11199 -0.785442 -0.480017
266 9.08722 2.55339 5.10264 -0.281769 -1.17867 0.788241
452 10.3235 2.43457 4.8848 -1.61742 0.835111 1.09543
394 10.1292 1.93899 3.95422 -1.37524 -0.343715 -0.288435
174 9.59567 2.81268 4.29304 -1.82844 -0.439482 1.25024
528 0.403774 4.42526 4.43668 -0.978074 -3.0418 0.870546
700 1.22202 3.72851 4.77587 2.7648 -1.05915 -0.985248
588 1.22399 4.87638 4.99055 -1.21914 -1.81374 0.122939
179 2.46947 4.79346 5.10084 -0.29116 -1.42628 0.600766
795 1.71438 4.35944 4.11603 -0.368031 -2.71685 -2.34732
406 0.0327227 3.8149 5.32016 2.56622 0.546599 -0.764068
171 3.60499 4.64174 4.16902 1.49539 -1.67755 -1.5307
197 4.89375 4.79355 4.56256 -1.17356 0.46606 0.506777
25 7.44682 3.8302 5.09622 -0.75216 0.142605 -0.383125
253 7.3844 4.74455 3.70372 0.236118 2.65977 -2.59575
323 6.28676 4.17172 5.1801 0.0620551 1.88629 0.912253
418 6.5704 4.01303 4.09917 -1.28685 2.05151 -0.193965
3 8.53229 5.26529 4.20479 -0.60889 -0.498358 1.00263
575 7.62771 3.75102 4.07721 -0.81071 0.119052 -2.2231
725 7.68371 4.76596 5.07273 0.299104 0.425732 -1.97549
103 9.55894 4.93605 3.901 0.327719 2.44335 0.559757
741 9.60339 3.80926 4.96707 -2.10711 1.85081 -0.836981
536 10.619 5.30552 3.77387 -0.542368 -0.139392 1.833
660 10.3638 4.82413 5.02798 -3.3156 -0.606831 0.431529
229 6.03841 0.23922 3.46359 -0.0820321 2.96696 0.126509
607 10.31 0.229089 2.18967 1.45613 3.5106 -1.07734
60 1.91222 5.32089 4.36579 1.86542 -0.33639 -2.37709
407 6.71095 5.32117 4.99344 -1.77503 -2.26576 -2.37352
105 5.17993 1.66347 0.0722916 -0.0665837 1.81809 2.07431
489 1.79936 0.0193049 2.78329 -0.991489 1.85466 0.00767497
811 8.13312 1.14879 5.34782 -0.302827 -1.14251 -0.868647
159 8.4951 4.00434 5.36138 0.472768 -0.427049 -0.354901
683 7.12842 4.76697 0.0370764 -0.583376 1.04348 1.92824
779 1.51073 1.21345 6.86568 0.13528 -1.27597 0.478741
279 0.678563 0.777746 6.52834 0.619036 1.3941 -1.71144
688 0.324197 1.67945 5.6988 -0.324845 0.222227 0.536162
290 1.61098 0.993363 5.81532 -1.05438 1.13707 -1.10007
507 2.38723 1.00049 6.438 0.979476 -0.567328 1.27884
704 3.52994 0.664256 6.21736 -3.23393 1.2529 0.105683
547 3.78068 1.69032 6.51217 1.02408 -1.22355 -0.310722
249 3.20967 0.580114 7.08941 -1.22971 0.711555 0.89037
162 4.37112 0.40316 7.16492 0.89037 0.224876 1.0379
195 4.34594 1.0098 5.65702 0.538175 -2.51317 0.0827409
442 3.12333 1.40071 5.79392 -2.39562 -0.554432 1.99876
808 5.26805 1.5893 6.59045 -0.683539 -0.273625 1.36386
83 5.22131 0.505497 5.70804 1.66883 -1.13731 0.88505
414 5.93856 1.60946 5.49129 0.562597 3.09968 -0.859233
380 5.57371 0.00734783 6.65821 0.178291 -1.33799 -0.960336
14 6.2852 0.727036 6.2584 0.346881 1.50029 -1.72276
502 7.11014 1.13273 5.95397 1.23549 -0.724937 0.212116
565 6.52353 1.60907 6.71046 -0.694849 0.441831 -0.649405
404 8.0842 5.35311 6.42933 -2.12852 -1.47813 -0.595915
562 7.74668 0.0875908 6.51896 -4.32308 0.681075 -0.0956993
17 9.16664 1.75564 6.75836 -0.600191 0.372788 0.527464
392 9.42254 0.967484 5.9817 1.34481 2.91155 -0.482171
2 10.3883 1.09167 6.85306 -1.23617 1.28492 0.256616
246 0.643393 2.53898 6.88246 2.7513 -0.494207 -1.47634
220 0.584405 3.04057 5.56142 0.559743 -1.85468 0.579206
664 1.774 2.98139 6.02073 1.10868 1.12194 1.479
533 1.8918 1.93643 6.12682 -0.306115 -2.2767 -2.08289
67 2.71999 2.78263 5.7935 -2.36832 0.405523 0.67879
172 1.84074 3.29718 7.02563 -1.87635 0.257123 0.587428
633 2.58335 2.45193 6.79708 -1.50387 -1.79885 -0.36083
379 3.82176 2.65322 6.71372 -0.470889 0.845395 -0.74105
88 5.55119 3.16399 6.50593 2.16947 -0.565655 -0.256063
317 4.78101 2.19418 5.95367 0.481163 0.733964 -2.28675
161 4.75264 3.8306 6.03381 0.300222 4.55666 0.653787
459 5.72393 3.32886 5.61112 -0.436881 1.15586 -0.514314
713 6.9537 2.54958 7.00538 -1.21529 -0.534521 1.80906
652 6.93414 2.65693 5.75074 2.17116 -2.91207 0.394978
393 6.70436 3.53628 6.59584 0.582145 -0.486019 -2.79106
446 7.71426 3.19954 6.35632 -1.77994 0.119607 1.734
91 8.02321 2.15083 6.11201 -1.42355 -1.74888 0.31527
272 7.95263 1.83415 7.17783 2.73249 -0.244777 1.06542
271 8.76609 3.29589 7.02733 1.00426 1.50034 0.973388
178 10.3431 2.16951 6.52254 0.096299 -1.08162 0.658009
16 10.6118 3.56198 6.43548 -0.117277 0.200132 -0.683794
682 9.60765 2.7007 6.63425 -0.621091 3.76364 0.861768
283 10.0557 3.07473 5.55704 0.0240396 0.614572 1.47289
499 1.07181 4.82171 6.23476 1.34743 0.273016 -2.31227
421 0.872791 3.64286 6.73309 -0.798917 -0.40027 -1.02235
354 3.07806 3.79365 5.89444 0.522098 -0.95211 -1.30837
126 1.67098 4.21814 5.70623 0.816589 -0.855644 0.27418
95 2.48682 4.62727 6.2256 0.603013 -3.00995 0.15053
513 3.55005 4.55165 6.57832 -1.76058 0.784542 1.97791
594 4.5423 4.82991 6.74149 2.41502 -0.700096 1.25342
268 3.8639 4.57993 5.60341 -1.26445 -1.35255 2.11346
627 5.37746 4.13798 6.85575 1.17336 0.291355 -1.24485
62 5.28715 4.80354 5.87278 2.35618 -2.63169 -0.00968518
684 6.25741 4.67818 6.4698 0.335477 -1.32797 1.48824
242 7.24357 4.12775 5.9766 -0.84113 2.38713 1.58013
567 7.35796 4.63169 6.91713 0.843812 -0.950956 2.5882
217 10.2955 0.0179736 7.99476 -2.47458 -0.654723 1.01782
729 8.37314 4.16637 6.45925 2.25722 -3.67988 -1.04199
110 9.12803 4.89788 6.62809 -0.561158 -2.0268 -0.57951
265 8.54598 5.13336 5.50464 -1.43941 1.21184 0.0347552
724 9.35038 3.57871 5.94233 0.0166645 -0.788846 0.108902
598 10.4517 4.65617 6.09403 0.511449 2.75436 -1.68872
75 9.38385 4.59729 5.67301 -2.13393 0.357989 1.53637
343 0.832889 1.7792 7.65065 0.782593 3.30397 -1.91084
697 0.482481 0.244246 7.47037 -0.0215588 0.176849 -1.27584
815 0.357666 1.63183 8.46188 -1.85698 0.444109 1.83296
540 2.732 1.04268 8.17488 -2.10341 -0.88814 -1.29312
798 1.33164 0.349652 8.08439 -2.4989 -2.47736 1.73842
389 2.30747 0.307251 7.34618 -0.786152 0.558119 1.20743
716 4.06107 1.72715 8.37335 -0.708803 -0.997856 0.71399
366 3.3306 1.81411 7.44369 0.3058 1.10355 -1.21151
312 3.93238 0.587607 8.41067 1.26567 0.648061 -2.68636
848 5.84505 0.894136 7.29746 -1.22029 -2.25031 -0.307431
5 4.97093 1.26866 8.27202 0.923924 0.242588 -0.372894
200 5.28622 0.126314 7.75402 -2.51004 1.09463 -0.499142
218 6.10609 1.88092 7.92125 0.710349 1.5986 -0.525035
303 5.71366 0.653125 8.62435 -2.44443 2.19745 -1.61681
844 7.11925 1.56563 8.20175 -1.3099 -0.517518 -0.0832082
359 7.29975 0.670498 7.14616 -0.597161 -1.37267 -0.428212
12 6.50811 0.414792 7.89632 -0.379919 2.19675 1.33047
339 8.49423 0.946908 7.41192 -0.21304 2.17849 1.09858
546 7.80247 0.726852 8.41038 0.424926 1.53003 -0.545473
457 3.92101 4.05434 10.5397 -0.172787 1.15353 -3.02185
796 8.80623 0.628627 8.27817 0.557776 1.75379 2.77513
384 9.59925 0.536375 7.4754 0.46897 1.04432 -0.396982
803 10.2605 0.605695 8.78291 1.26785 0.788897 0.891877
347 9.92453 1.40169 8.18596 0.444462 2.67652 0.0924716
658 10.6508 3.20124 7.51229 -1.58247 0.6169 -0.544451
239 0.95586 2.78268 8.45713 1.15737 1.20556 4.94325
830 2.04579 2.05066 7.58381 1.75417 -2.69468 -0.902753
786 1.98015 2.74601 8.41886 0.734558 -1.42203 -1.0098
260 2.56933 1.84187 8.87881 -1.74692 -1.23495 -0.113078
431 4.50911 1.73106 7.16459 1.43098 -1.2649 0.101679
788 3.73773 2.86212 8.93181 1.56023 0.220765 -0.0902093
137 3.87405 2.58161 7.87816 -2.30221 1.9852 1.19395
555 5.34162 2.32571 7.47719 -1.05472 -0.52851 1.85788
571 5.09265 2.50341 8.35376 0.417618 0.64225 0.251241
604 5.7993 3.35107 7.75057 -0.653208 -0.558115 0.321913
275 4.68698 3.44321 8.04591 0.461376 -0.000203005 -1.43759
413 5.97527 2.76479 8.80444 -2.06543 1.18212 0.483059
709 6.87772 3.35089 8.28719 0.173288 0.803473 0.431153
854 8.6777 1.96473 8.13783 1.884 0.307169 1.6388
80 7.95667 2.6323 7.81759 -0.341493 -1.79321 1.46557
783 8.85504 3.6254 8.13924 -0.888483 1.22323 -1.13662
90 7.81317 3.47664 8.40936 -1.16624 2.49108 0.195342
853 8.55753 2.79745 8.58767 -0.661522 0.116228 -2.82701
526 10.5578 2.86655 8.56369 -1.81659 1.29283 -0.929897
388 9.91563 2.14616 7.54304 0.744763 1.93584 0.211058
468 9.53136 2.65972 8.35095 -1.06808 -0.221819 -0.0998874
383 1.2756 4.94785 8.30187 -1.33034 0.43417 -1.78799
153 0.51543 4.69253 8.70105 -0.515252 -0.0411157 0.898252
784 1.48817 3.95819 7.81599 0.597246 0.306448 -0.202231
710 0.358936 4.28 7.24204 1.48647 1.99506 -1.62829
287 2.90272 4.34391 7.50672 2.04965 -1.04186 0.457244
742 2.5213 3.55634 8.00205 1.28406 -0.867209 0.00713346
624 1.5341 4.8486 7.14463 -0.0563972 -0.277899 -1.89607
58 2.23438 4.75288 8.37185 -3.56361 1.46717 -0.433108
160 4.08249 4.57406 8.00093 -0.20889 -2.23736 3.02238
519 3.22106 4.66863 8.54813 2.53888 1.86133 0.540398
737 3.86767 3.86212 8.77245 -0.15858 0.239898 0.498003
308 6.07132 4.16248 8.43145 1.60112 1.73241 0.3557
799 7.50536 3.50779 7.45805 -1.31387 -0.278417 -0.753244
496 7.07455 4.71631 8.17446 -3.16918 -0.398483 -0.81595
124 6.58484 4.19717 7.51105 -1.69844 0.113647 0.213367
334 6.22582 5.35358 8.48067 -1.84256 0.260849 1.07196
21 8.55089 4.77175 8.65251 0.180237 -0.719287 0.0890136
629 8.64327 4.46681 7.60171 2.06618 -1.47278 1.68066
36 9.8712 4.45641 7.12671 0.563005 0.0896966 -1.14129
92 10.0525 3.73657 8.19442 0.590484 0.726727 -0.174193
596 10.3831 5.0756 8.0804 1.96654 -0.10099 3.11458
473 0.878345 0.981864 10.6665 -1.22416 0.219866 1.64263
254 0.100388 1.12897 9.34953 1.79544 3.18084 0.294206
320 1.93567 0.968913 8.9046 -1.78971 -1.66389 -0.521262
301 3.15696 1.43167 9.88307 3.77112 2.26659 1.83157
293 1.77247 0.0111558 9.36733 -0.63959 -0.23125 -1.08356
129 1.91003 0.986442 10.0495 -1.29142 -1.84223 -0.589858
208 4.21633 1.6178 10.109 2.44765 -1.4378 -1.71262
537 3.22196 1.12678 8.96199 -0.205559 -1.0884 -1.08622
89 3.90048 0.697318 9.60076 0.0679963 0.423741 0.627271
792 5.366 0.34461 10.4236 -0.229119 -0.705458 -0.376518
331 4.97564 0.959686 9.388 0.407056 -0.548296 2.24214
656 5.94814 1.69226 8.9493 1.54128 0.460639 -0.519938
735 5.89623 0.930898 9.75723 1.12423 1.31328 -0.36603
839 1.24895 0.0134142 5.67521 -0.177681 -0.192295 0.597874
263 6.86378 1.02397 9.15453 0.442285 1.56511 -1.89441
375 7.4294 0.87246 10.169 -0.809109 -0.756155 1.17801
603 6.67517 1.65524 10.3715 -2.38752 -0.366852 0.73342
342 8.42681 0.90734 10.5092 -1.22137 0.123272 -0.870366
408 8.2497 0.750343 9.47543 0.671027 0.300268 -0.479315
251 7.94549 0.0477617 10.5595 0.171305 -3.56777 -1.38669
650 9.86 1.44558 9.23819 1.0355 -2.15779 0.7144
353 9.99575 0.152909 10.0438 -0.334147 0.407499 0.843665
401 9.29042 0.189208 9.16031 -0.695772 1.37586 -1.41596
181 9.13578 0.965437 9.86872 -1.50239 -3.63177 -1.0979
782 10.1683 1.16481 10.2178 0.337947 -0.814338 -0.0470649
649 0.195187 2.85951 10.4865 0.199184 -1.26223 -0.505066
570 0.596286 1.9384 9.90901 1.16975 -0.550204 0.173946
378 1.45558 2.88781 10.0469 0.379976 2.18736 1.80876
184 1.50911 2.07868 9.21234 -0.888776 -1.93792 0.256809
467 0.445508 0.0967297 9.20963 1.10127 1.18543 0.261364
763 2.45464 2.16289 10.1552 -0.988384 -0.174774 -0.335663
416 2.75178 3.05383 9.06886 -0.365634 2.56337 2.12618
626 3.34731 2.46974 9.8193 -0.991021 0.871287 0.767593
802 3.97543 2.73383 10.6411 -1.20134 0.304672 0.372455
227 3.90194 3.39326 9.72235 -0.219605 1.15574 0.74664
280 4.86328 3.20413 9.23384 2.24422 0.501726 0.0100646
50 4.69196 2.29479 9.21931 -0.145943 -1.95564 0.755753
322 5.66996 1.82518 9.95257 -0.745341 -2.72006 -2.49344
230 5.37685 2.98381 10.2499 0.277391 1.58113 0.424015
398 6.36872 2.54598 9.64385 1.25147 -0.924132 1.61232
252 7.44197 2.48252 9.03396 -1.96426 -0.655132 -0.710793
420 6.74832 2.95868 10.5908 0.0118115 -2.39747 1.54337
476 7.73852 1.93197 10.4657 -0.462924 -0.742109 -1.34337
99 8.4873 1.78988 9.27531 -1.22129 -1.833 -0.681949
385 8.36238 2.89919 9.66972 0.692677 2.17928 -0.911599
805 10.5253 2.81894 9.55233 -0.11416 0.085961 0.493648
365 9.80573 2.98438 10.6021 0.112861 -1.44941 1.57201
382 9.3847 2.20893 9.83656 -0.908125 -1.43989 -1.3456
355 0.131132 4.91192 10.687 -1.79956 -0.518991 -0.412999
864 0.654751 4.97549 9.81615 -1.41472 2.15482 -2.04973
758 0.859971 3.8404 10.36 -1.05798 1.3261 1.04714
767 1.3849 4.63726 10.6748 0.58706 -0.374485 1.32557
244 0.625751 3.87885 9.31389 1.51508 -3.08699 -0.496401
657 2.43413 5.04916 10.6636 -0.677211 -3.01978 1.49056
512 1.87187 3.81387 9.53211 -0.0966427 -1.31984 -0.401649
461 1.72135 4.94749 9.41378 -0.282764 -0.515102 0.525161
131 2.79927 4.61547 9.6984 -1.72304 -0.825614 -0.304504
188 4.42714 5.16391 10.6759 -0.343173 0.240044 0.139045
358 3.90586 5.17817 9.29936 0.707601 -0.0821971 -1.10675
231 4.72838 4.09671 9.85622 -1.72009 -2.14478 -0.659634
505 5.71565 4.59513 9.90862 0.773562 -1.75266 -1.63322
168 4.87226 4.83913 9.00508 2.89237 1.47675 -0.89574
250 5.76547 3.66393 9.31004 -1.7964 -0.32382 0.535913
462 1.0017 0.196316 10.1051 -1.26582 3.56005 -1.21068
180 7.23672 5.22489 9.69747 2.40129 -0.088885 -0.66353
474 6.91746 3.79666 9.27703 -1.1088 -1.514 -0.567828
297 9.25205 5.06688 9.98025 1.36384 -2.5175 -0.624977
166 8.62904 4.31223 10.3855 1.82327 1.68709 -1.20193
69 7.72819 4.55577 9.23427 -0.104358 -3.00603 0.880042
595 8.22943 5.26011 9.93524 2.61076 -0.152599 -0.88701
130 8.89754 3.87014 9.50342 -0.404038 -2.33329 -2.10928
70 10.1335 4.97664 9.40491 0.328194 -0.703648 1.57227
395 9.94341 3.97994 9.35619 -0.952115 0.946089 -0.196325
740 10.2841 4.26805 10.2355 2.68095 1.2896 -0.705888
298 6.1642 4.81634 10.7216 0.620607 -0.548646 -1.67496
192 0.434396 6.04474 1.10249 -2.06607 0.0712068 2.78848
558 1.34698 6.45073 0.479797 -1.61133 0.478691 -0.728033
233 0.414908 7.18943 0.369391 -2.34931 0.826878 -1.20333
295 3.04703 5.75948 0.869838 -0.127012 -0.961129 -1.21495
189 2.29886 6.50962 1.08015 2.08432 1.54697 -1.51513
582 2.52808 6.14991 0.0360613 1.79769 2.14499 0.266198
270 3.5962 6.30316 0.00797667 3.01947 -1.92991 0.0828962
659 3.20441 6.17521 1.73905 -0.784359 0.170894 1.564
463 4.11112 6.70451 1.46508 -1.55058 0.00662811 -0.423407
672 4.93668 5.87953 0.935492 0.552165 -1.18555 0.0178753
40 5.74465 6.44034 0.828145 -2.62104 1.53487 -1.58106
829 5.08081 7.01767 1.54687 -0.385537 1.16346 1.00602
437 7.39591 5.42092 1.19004 -0.480963 -1.20789 1.21783
55 6.21119 5.61201 1.31019 0.872455 -0.163799 0.617401
360 7.39811 5.75662 0.250974 0.504236 0.319174 1.79361
775 6.71336 6.96369 1.68734 0.159843 -0.483376 -1.08641
86 6.96979 6.66897 0.345713 0.0982583 1.68346 1.21112
768 8.40224 5.74988 1.11155 -0.571506 0.207141 2.08824
574 8.28183 6.78062 0.626157 -0.539456 -0.232526 2.43026
415 7.74578 6.41382 1.56322 -1.71465 -2.00253 0.660644
623 9.28296 6.75214 0.894145 -2.55678 0.251644 -0.0639907
458 9.15374 5.67365 0.543934 -0.569383 1.01955 -0.617316
24 10.0861 5.45925 1.26191 0.305944 2.01539 2.68202
827 10.2721 5.89309 0.304405 -2.12647 4.68061 -0.582574
634 0.741571 8.18588 0.563839 0.768465 -0.993111 2.02145
617 0.875939 9.04211 1.13132 0.222381 0.870565 -0.493346
838 0.653826 6.90268 1.83309 0.904133 -3.92023 0.940343
34 1.24434 7.35957 0.974373 -2.88952 0.883651 0.598836
520 2.81356 7.84259 0.803533 -2.61208 -0.857179 0.14196
350 2.21353 7.81002 1.80781 0.502954 -0.0804003 1.53811
754 1.99569 8.62738 1.16491 -2.02556 -1.49291 1.16604
367 3.32275 8.29068 1.8184 2.95376 0.6221 0.153888
332 2.02613 7.39866 0.255628 -2.60068 -0.451436 0.836988
583 2.1859 8.59414 0.0774943 -0.186248 1.61521 -0.924309
191 3.74291 7.3782 0.881496 0.778494 -0.633086 0.160703
647 3.81048 8.31665 0.354179 1.65696 0.485968 0.79835
857 4.31951 7.8935 1.52254 -1.58837 0.391079 -0.966196
503 4.9746 7.86696 0.600209 -0.137525 1.16644 -0.389824
311 5.90818 7.64245 1.42087 -0.966476 3.18897 -0.0365134
362 6.74498 8.14005 1.54283 0.546613 1.21764 -0.853385
761 6.99042 7.74056 0.735942 1.23945 -0.16363 -1.42842
296 6.15556 8.11725 0.189286 0.0343455 0.0224436 0.10439
748 8.73873 7.86292 1.04759 -0.495787 1.16658 -0.710773
136 7.92041 7.35214 1.35879 0.0399921 -0.742896 -2.77613
45 10.3854 7.18524 1.33601 2.2693 2.57134 -1.78277
356 9.84319 8.41842 1.33389 -0.746868 -0.351335 -1.79713
193 9.61668 7.89747 0.268865 -0.232285 1.46632 1.4948
834 0.940571 10.4572 0.515409 -0.536992 0.0773765 1.36991
771 1.19823 9.28974 0.15811 2.07025 -0.146541 0.0689093
828 1.29403 9.84427 1.44671 2.28284 -0.107834 -1.0715
687 0.326078 10.2686 1.55266 -0.380493 1.07377 -0.581143
39 2.15075 9.60584 0.377055 0.884157 2.94385 0.262521
133 2.71211 10.6438 0.573576 0.884233 0.453974 0.228179
790 2.84512 9.31529 1.45378 -0.973926 -0.64489 -2.8695
759 3.48061 9.88346 0.839439 -0.589727 -1.78487 0.376405
436 3.95686 9.19721 1.35127 0.793912 1.71386 0.218866
61 3.20836 9.32422 0.0899118 -0.303655 0.170492 -1.30875
568 7.6505 10.673 4.24668 2.12545 -0.519383 0.388005
539 4.54625 9.16165 0.325286 -1.20256 0.0704617 1.8315
77 4.96062 10.0165 0.650066 -0.375706 -0.331645 0.503954
447 5.70343 9.12565 1.16924 0.537545 -1.47071 -2.33234
273 6.87333 9.21818 1.07498 0.775322 -1.07531 0.879496
307 6.60534 10.4983 1.0545 1.6778 2.59508 0.300119
411 7.42134 9.93982 0.842389 1.74696 -1.54717 -0.780425
591 6.68326 9.2504 0.103936 -2.57265 1.07705 -1.00018
101 9.08463 9.45553 0.732686 1.43277 4.13803 -2.17092
845 8.16641 8.99312 1.64657 -1.97205 0.102836 0.665675
102 8.42241 10.0563 1.00654 -1.11451 -0.274196 -0.925479
42 8.04806 9.21497 0.462908 0.237224 2.16476 2.51264
387 9.41792 9.85444 1.87774 0.395272 1.13213 2.36965
78 9.75895 10.6598 0.503659 2.56654 1.88068 0.857969
668 10.5697 9.72949 0.619992 0.750373 -0.269315 -0.555933
572 0.743657 7.30141 2.96798 -1.0804 3.25057 0.845263
121 1.42499 5.55272 1.92087 0.742747 -2.13395 -1.04804
37 0.379549 5.87272 2.31483 0.096502 0.00743519 -0.859049
363 1.18712 5.48392 2.94637 0.0243932 -0.159123 -1.67133
345 1.7125 6.77106 1.81309 -1.21987 0.187462 -1.35274
556 2.97281 5.55421 3.33704 -0.767711 -0.623479 -0.230884
237 2.04468 6.25585 3.10257 1.92473 -0.851935 3.11936
372 2.96722 7.02408 3.3857 0.893788 -0.622255 -1.05604
702 4.0376 5.4304 1.83503 0.0849893 0.481454 -1.09264
655 3.68372 6.40179 2.53447 0.911108 1.283 0.065484
417 4.37226 5.62508 2.85479 -1.17583 -0.143152 -0.743861
68 3.82744 6.59512 3.51574 -1.77616 3.15757 1.25786
590 5.65731 6.00216 2.79786 -0.0466991 0.616156 1.01001
862 4.69166 6.79646 2.63721 0.814175 -0.0396377 -0.356756
119 5.65958 6.94845 3.28908 1.32608 1.76158 -1.58888
835 7.49597 7.04046 2.29927 0.849881 -0.465644 -0.80805
204 6.79365 5.98832 2.19063 -0.952247 -4.32648 0.207633
518 7.22686 6.24423 3.16684 1.66079 1.18119 0.295487
643 8.33842 6.45703 2.80436 -1.47535 -2.41049 -0.378514
238 8.80799 6.6368 1.94123 -1.51643 -0.724612 -2.25346
149 7.9834 5.79945 3.62517 0.509933 -0.811193 1.28086
602 10.1265 6.40586 1.84735 1.18176 -0.391882 0.155563
820 9.54814 6.23053 2.63732 1.13613 0.767034 2.82656
543 0.68206 8.55543 3.31412 -0.759901 1.4443 -1.29641
449 1.36578 8.71099 2.21095 -0.996992 0.284225 -1.77025
521 10.7093 8.09775 1.92897 -1.04423 1.85958 -1.31792
466 2.53695 7.94688 3.09131 2.51918 1.30868 -1.63266
340 2.95372 7.29875 2.07661 0.662212 -0.431012 -1.68186
747 1.75304 8.61201 3.28953 -1.15817 1.31098 -1.66305
636 3.70566 7.39541 2.72218 -2.20356 -0.0764759 -2.66437
328 4.0129 8.33954 2.44993 -0.259709 1.56194 -0.220502
552 3.09522 8.7144 2.76771 -0.740572 0.417302 -3.93432
738 6.11075 7.16369 2.36718 -0.0955452 -1.15745 -0.192982
140 4.88923 7.87295 2.98018 -0.8958 -2.15823 -0.153108
274 5.87105 8.57973 2.86933 -0.81447 0.248268 -1.29484