ITEM: TIMESTEP
71000
ITEM: NUMBER OF ATOMS
6912
ITEM: BOX BOUNDS pp pp pp
-1.0259855680060181e+01 1.0259855680060181e+01
-1.0259855680060181e+01 1.0259855680060181e+01
-1.0259855680060181e+01 1.0259855680060181e+01
ITEM: ATOMS id x y z vx vy vz
8 -9.64456 -9.52061 -9.4393 0.277506 -0.492571 -1.45937
11 -8.25949 -9.505 -9.24759 -0.261548 -0.314557 0.436288
31 -8.91524 -8.38257 -9.30677 0.0341599 0.134454 0.335547
20 -1.95136 -9.56956 -9.63396 0.196272 -0.426513 0.072103
333 -0.184902 -9.43636 -8.91401 -0.860033 -0.759175 -0.426099
43 -0.806388 -9.35515 -9.78718 1.21155 -0.759674 -0.358577
32 -9.69969 -7.73351 -9.53023 1.7172 0.754756 -0.965326
6 -8.90662 -9.67495 -10.2322 -0.794248 0.626937 -2.0088
3432 -1.28665 7.32866 -10.1357 -0.152046 -0.318792 -0.497696
278 -7.98985 -7.76204 -9.33218 -1.31391 -1.36312 -0.746104
274 -7.5742 -8.77265 -9.29044 1.21044 1.27039 0.407795
1562 -10.0428 -2.44858 -1.43718 0.509714 -0.866141 -1.10822
3188 -2.74206 -8.70388 -9.87904 0.153507 -0.955751 0.0623549
41 -2.33438 -7.74117 -10.0294 -1.35503 0.0622257 -0.900389
44 -1.39312 -8.46264 -9.75579 -2.0388 -0.718916 0.378768
336 -1.55181 -7.63696 -8.91381 0.396298 0.0689907 0.686858
1463 -0.127438 -10.1546 -1.16814 -0.704594 -0.101684 0.745913
330 -0.925623 -8.57468 -8.86152 0.0969895 0.486347 0.137261
357 -0.709081 -7.53077 -9.89411 -0.726096 -1.38508 1.39317
134 -2.78575 -0.809905 -10.1633 0.0280343 0.686071 -0.872733
56 -9.71713 -6.18692 -9.50708 0.133765 -0.522306 0.225406
30 -8.79995 -6.92075 -9.43311 0.0279363 -1.05438 1.0947
270 -8.94046 9.31001 -10.1157 0.599209 -0.500822 -0.246138
109 -7.9765 -6.93875 -10.1141 0.280006 -0.494429 0.392419
36 -8.04087 -6.13707 -9.22635 0.808924 -0.964854 -0.438928
200 -9.42673 3.99567 -9.96128 0.133875 -0.126643 -0.159023
376 -1.69882 -6.06552 -8.96304 0.0211735 -0.582315 0.154285
61 -2.30342 -6.98208 -9.17552 0.580855 0.48774 -1.13818
66 -1.52902 -6.75625 -9.91111 -0.152459 -1.4859 0.802571
638 -0.847315 -6.72804 -9.11515 0.931237 -0.619066 0.600913
360 -0.0933793 -5.89225 -8.94303 -0.654732 0.967255 1.43029
80 -9.65067 -4.50473 -9.29024 0.402174 0.677734 0.368137
633 -8.85867 -5.30381 -9.23566 -0.355894 0.620258 0.528762
372 -7.94272 -4.40236 -9.18188 0.861659 0.128828 0.142592
3275 -7.96282 -5.21554 -10.0262 1.22198 -0.666112 -0.578056
370 -7.1722 -4.39887 -10.0794 -0.0905714 0.333729 0.727625
37 -2.35704 -6.04181 -9.90566 -0.0890396 -0.186119 0.819896
92 -2.84639 -4.94329 -9.60725 -0.127655 1.07709 1.15517
112 -2.21036 -4.98403 -8.53279 -1.11773 0.489967 0.881696
72 -0.75595 -5.91418 -9.73742 0.631107 -0.295737 -0.885867
93 -1.66603 -5.14365 -9.70559 1.05199 0.448689 0.40997
95 -0.96046 -5.10134 -8.82932 -0.0936075 0.555721 0.0709467
2150 -3.72975 -3.7029 -0.0892451 -0.750998 1.04446 -0.364644
78 -8.85941 -4.54224 -10.1099 -0.468524 0.569688 0.715645
103 -8.82875 -3.72825 -9.43054 0.585696 -0.0279959 1.41623
104 -9.76793 -2.6112 -9.24513 -0.296824 1.04748 -0.643666
105 -7.90069 -3.52506 -10.1347 -0.728068 -0.517557 0.709548
107 -7.22654 -3.44452 -9.22132 -1.84282 0.197383 0.0381438
395 -6.3898 -3.51751 -9.99516 -0.626613 0.125258 0.114959
88 -5.58945 -3.29278 -9.13289 -0.4237 -0.360159 -0.0640263
133 -4.5383 -3.31563 -9.77295 1.35998 0.237056 0.112512
350 -3.61045 -3.97174 -9.59491 -1.6673 -1.98366 0.294114
135 -3.66803 -3.20877 -8.76568 -0.50077 0.167356 -0.480857
378 -2.00826 -4.09324 -9.45925 -1.02495 0.908931 0.167764
375 -2.76198 -3.2339 -9.48624 0.333235 0.522252 0.340905
399 -2.86493 -4.10187 -8.81093 -0.82163 -0.950668 0.34059
96 -0.846959 -4.18527 -9.57337 -0.190227 -0.691295 1.598
115 -1.29856 -3.21386 -9.33269 0.673705 -1.06958 -0.186524
1893 -0.467256 -1.17228 -0.398452 -0.309869 -0.623804 -1.14562
414 -8.86062 -2.02906 -9.18255 0.183896 0.130824 -1.44272
125 -9.64535 -1.97666 -10.1821 0.328319 0.76438 -0.804119
127 -8.82837 -2.80293 -10.1506 -0.721778 -0.00240723 -0.481215
393 -8.06846 -2.81609 -9.20314 -0.0879201 -0.104932 0.846974
126 -8.02535 -1.99901 -10.1889 1.26723 0.834373 0.159658
441 -7.29001 -1.968 -9.15919 0.271466 -0.86028 -0.874075
390 -7.17996 -2.65396 -10.1516 0.0802461 -0.766336 -0.499948
129 -6.31535 -1.69893 -9.87401 0.0175055 0.319259 0.0409243
417 -6.54912 -2.67094 -9.22666 0.714924 0.175318 -0.312578
397 -5.39512 -2.5417 -9.90491 -0.681331 0.0750163 0.410553
418 -4.45709 -1.74656 -9.59961 -0.655809 0.62986 0.34713
442 -5.56963 -2.24161 -8.93979 -0.344762 -0.817494 0.33833
445 -4.57343 -2.67211 -8.89254 -0.685148 -0.916296 -0.987
3303 -3.70063 -2.5957 -9.56343 -0.528001 0.612467 0.344937
136 -3.80936 -1.82477 -8.7168 0.874421 -0.676402 -0.0378552
422 -2.88064 -1.63316 -9.45968 -0.159759 -0.554997 -1.14167
116 -2.06649 -2.44896 -9.37914 -0.428856 -0.0583306 0.307161
398 -2.90073 -2.48241 -8.72531 0.674646 0.6753 0.0328514
3308 -1.99849 -1.5086 -10.0669 0.0722292 0.203993 -0.000870945
120 -0.465091 -2.33319 -9.21671 -0.666885 0.406025 0.688983
141 -0.411871 -1.67151 -10.1079 0.784345 -1.82851 1.65164
139 -1.24365 -1.70688 -9.29021 -0.100915 0.108958 0.377889
382 -0.0925706 -4.26641 -8.72001 -0.293117 0.0855938 -0.275748
128 -9.64932 -1.28145 -9.26549 -0.277446 0.726118 0.0168703
146 -9.67609 -0.425354 -9.94666 0.508915 -1.1117 0.0626592
150 -8.87047 -0.465628 -9.21179 0.221279 0.819982 -0.00734791
149 -8.84327 -1.23774 -10.0394 0.250039 -0.358578 0.25956
151 -8.14778 -1.27619 -9.25108 1.51972 -0.250289 1.35471
3324 -8.10906 -0.396637 -9.9049 0.466505 1.23701 -0.335476
3297 -7.25194 -1.05262 -9.91569 -0.160165 0.328071 1.30289
465 -7.32255 -0.58242 -9.02836 0.5016 -0.120343 -0.140499
132 -6.52969 -1.25286 -8.91492 0.399654 -0.292863 -0.197162
3300 -6.22435 -0.46096 -9.47957 -0.562447 -0.483416 -0.982315
130 -5.38504 -1.22965 -9.39779 0.0205898 0.329419 -0.460357
184 -4.55602 -0.194047 -9.41367 -0.800415 -0.917069 0.0573828
3352 -5.4466 -0.310998 -8.67243 1.10513 0.332704 -0.858284
155 -4.53 -1.05011 -8.65731 0.0802421 2.00702 0.910969
160 -3.79332 -0.883562 -9.3937 -0.0257067 -0.926582 0.396265
159 -2.96627 -0.0660684 -9.33103 -0.39064 -0.739829 0.518895
1199 0.0277372 -8.37528 -2.87914 0.791255 0.683851 1.00504
140 -2.08293 -0.813693 -9.22645 0.397763 0.0329097 0.67831
161 -1.9301 -0.131556 -10.1668 0.0881277 -0.68985 -0.779399
1633 -10.1313 4.40002 -2.89077 -0.350635 0.472915 1.02943
144 -0.549977 -0.788583 -9.1357 0.138679 0.0910112 -0.0967255
163 -1.40574 -0.0433936 -9.20521 0.356022 -0.745447 0.205499
165 -0.603499 -0.00645507 -9.874 0.113912 -0.377624 1.14951
138 -1.13849 -0.880588 -10.0707 0.682529 -0.0868543 -0.910401
152 -9.92464 0.435355 -9.23525 1.17617 -0.450371 0.129041
173 -9.83894 1.34 -10.0143 -0.38935 0.233839 -0.0226136
3343 -8.94797 0.384699 -9.84885 0.374019 -0.574375 -0.0813132
175 -9.07147 1.13267 -9.08172 -1.07043 1.07483 0.683581
156 -8.09538 0.345121 -9.07304 -0.0489254 0.138285 0.197898
490 -8.15838 1.32172 -9.5549 -0.707141 -1.15098 0.490196
177 -7.21205 0.26537 -9.73169 0.275604 0.30372 -0.55834
801 -7.00388 1.31494 -9.25209 -0.75001 -0.312706 -0.390054
3347 -5.96826 1.20686 -9.91249 0.0247825 -0.786126 0.520421
3328 -5.44257 0.405487 -9.39419 1.00617 -0.247678 -0.602546
3373 -4.72296 1.60616 -9.42193 1.67518 -0.203146 0.20466
515 -5.61168 1.32956 -8.79148 0.257966 -0.594039 0.75975
3371 -3.66826 0.69063 -9.41818 -0.0211611 -0.617865 1.55836
206 -2.97193 1.58292 -9.40651 0.0402118 -0.719992 -1.19163
3327 -2.76579 0.664674 -10.1555 -0.0915054 0.6282 0.374135
164 -2.24022 0.810809 -9.24726 -0.564606 -0.900532 0.981372
189 -1.32347 0.90497 -10.0777 -0.420813 0.648151 -0.112215
168 -0.599706 0.727947 -9.1491 0.986245 0.416035 1.41973
197 -9.84929 3.04918 -9.44673 -1.26383 -1.52261 0.266229
176 -9.39097 2.35265 -8.75539 -0.874129 -0.528449 0.108475
223 -8.97067 1.87083 -9.82785 0.321922 0.108532 0.0362813
225 -9.05789 2.95707 -10.1273 0.120892 0.154099 0.760162
3372 -8.28304 2.25983 -9.04925 -0.102284 -0.542291 0.0682479
487 -7.70195 3.19595 -10.1355 0.0789581 0.644783 0.343654
2746 -6.43542 2.18556 -8.73874 -0.47714 -0.33482 -0.595381
2460 -7.20956 2.50869 -9.37288 -0.441589 0.819576 -0.0819543
1198 -0.00561892 -7.73346 -3.70348 0.483465 -0.515183 -0.98995
782 -3.72936 2.31111 -9.35841 1.14359 0.0425637 0.43637
3332 -2.11483 1.66193 -10.0483 0.0176237 -0.701616 -0.424643
3375 -2.42122 2.35951 -9.28102 0.839851 0.188201 0.559665
233 -2.83631 2.35364 -10.2647 -0.216154 -0.00609322 -0.530067
187 -1.3688 1.58079 -9.26564 0.213993 0.210557 0.720099
192 -0.59521 1.6653 -10.0142 -0.264435 0.00408191 0.233959
215 -0.563424 2.56158 -9.1041 -0.39286 0.10539 0.220852
213 -1.22343 2.55494 -9.99611 -1.20826 0.482132 0.843506
2790 -6.62752 10.1945 -10.0051 -0.104797 -0.34088 -0.369353
513 -8.88162 3.3721 -8.91768 0.181653 -0.195388 -1.06397
3180 -7.12089 9.16578 -9.89822 1.01754 -1.76895 -0.893406
500 -3.23386 3.18809 -9.10471 -0.371668 1.2306 -0.481349
3400 -3.37166 3.69779 -10.045 0.152085 -0.0615314 -0.250749
3404 -2.38728 4.06814 -9.25709 1.24056 -0.212238 -0.211935
212 -2.10831 3.22851 -9.82945 -0.401808 0.674151 0.323938
209 -1.36376 3.41114 -9.1252 0.622969 0.775556 -0.701192
3399 -1.47643 4.13744 -9.92549 1.44438 -0.00210336 -0.322854
3384 -0.664554 3.4326 -10.0481 -0.457269 0.300214 -0.96104
498 -0.628613 4.26423 -9.23109 -0.517077 1.93321 0.0737487
228 -9.72741 4.09568 -8.95072 0.869866 -0.576218 0.854522
221 -9.98655 5.06289 -9.94615 -1.72626 -0.126595 -1.47249
506 -8.85886 5.53348 -9.34273 0.815016 0.765234 0.257925
462 -8.54542 4.74274 -10.0928 -0.496075 0.334119 0.46919
525 -1.59341 4.9527 -9.26052 0.281457 -0.371454 -0.0242114
3403 -0.627502 4.99022 -9.96246 2.18097 1.06158 0.526428
261 -0.612739 6.16887 -9.17228 0.945742 0.914318 -1.02847
1989 -0.645997 6.73583 -0.0156599 0.0506126 -0.774116 -0.0786049
224 -9.86303 5.96344 -9.2945 0.132488 -1.22555 -0.866958
247 -9.19412 7.02595 -9.31858 -0.559554 -0.154176 -0.531088
222 -9.06056 6.11098 -10.2021 0.875257 0.815535 -0.377817
249 -8.43198 6.96592 -10.034 0.333433 -0.278956 0.0972065
3144 -1.31336 5.81817 -10.1999 0.510172 0.649734 -0.474498
3405 -0.534097 6.70047 -10.0147 0.554243 0.412141 1.19068
248 -9.85052 7.88836 -9.30794 0.647889 0.256675 -0.434169
271 -9.00326 8.46614 -9.33569 0.844392 -0.583619 -1.0865
246 -9.0885 7.69657 -10.1625 -0.335413 0.556885 -0.870546
182 -3.64177 1.56484 -10.2142 0.345792 0.625763 0.177785
252 -8.27929 7.66042 -9.32757 0.111468 0.998967 0.910466
1684 -10.2177 8.4453 -0.62857 -0.3599 0.851104 -0.216324
2507 -1.82771 7.51306 -9.34307 0.421238 -0.240025 0.433844
1721 -2.47362 9.63398 -1.29167 -0.0366668 0.204421 -0.0106255
53 -9.4983 -6.99209 -10.2376 -0.29308 0.126348 -0.35607
3455 -0.655429 7.56438 -9.30968 -1.01294 0.147 0.513653
570 -1.3709 8.60967 -9.27875 -1.60741 -0.454082 -0.131323
503 -0.116984 4.17471 -6.67886 -0.343218 0.28779 -0.395492
7 -8.86093 10.1405 -9.43524 1.56964 -0.29391 -0.553455
272 -9.86015 9.45639 -9.65334 0.558754 -0.284358 -0.648879
277 -7.43984 10.1394 -9.31879 -0.796516 -0.799602 0.0350303
276 -8.1793 9.20972 -9.32631 0.105575 0.511084 0.683803
258 -2.15406 9.36309 -9.27929 0.881293 -0.144505 1.04924
303 -2.8043 10.2587 -9.82925 0.0178666 0.706455 -0.127311
24 -0.134948 10.1911 -9.78212 0.677712 -0.072817 0.555103
305 -1.2766 10.1463 -9.42345 -0.720791 0.46783 -1.09237
23 -0.457685 9.34587 -9.37804 -0.0701831 0.445183 0.314494
3040 -5.33862 -0.422434 -10.1102 0.0379052 -0.949497 -0.802599
296 -9.71544 -9.41654 -7.66844 0.770978 -0.211932 -0.40853
294 -9.04283 -9.48421 -8.51298 0.640763 0.113478 0.168907
295 -9.02704 10.255 -7.86122 0.274212 0.0338379 -1.47205
293 -9.73575 -10.2601 -8.69524 -0.164198 -0.639927 0.474588
300 -8.23239 -9.56351 -7.73067 0.634669 -0.0483527 1.24904
298 -7.52818 -9.46469 -8.43243 1.3817 0.0264687 1.46855
297 -8.15037 9.95158 -8.48922 0.43524 -0.556074 0.222767
299 -7.31803 -10.2181 -7.60298 0.823264 -0.519296 -0.0390279
281 -2.85 -9.47764 -8.89045 0.15277 0.550095 -0.26137
617 -2.20028 -9.42302 -7.88555 0.500311 0.259623 -0.0472514
326 -2.06974 -8.64117 -8.9077 0.385383 -0.11477 -0.644344
306 -1.27246 -9.52907 -8.7636 -0.360375 0.755713 0.844674
312 -0.592332 -9.66252 -7.87215 0.314071 -0.290145 -0.282334
317 -9.68356 -8.62519 -8.574 -0.417943 0.487897 1.19715
319 -8.9732 -8.51648 -7.77343 -0.355497 -0.0471946 0.245599
320 -9.77634 -7.69773 -7.89466 0.974336 0.0286838 0.267
318 -8.89086 -7.59956 -8.57257 0.850034 0.569668 -0.207459
321 -8.17216 -8.6128 -8.48421 -0.284004 -0.332167 -0.223882
322 -8.15488 -7.75189 -7.65289 0.31472 0.505123 -0.178915
35 -7.32999 -7.90272 -8.32662 0.755372 0.0718108 1.09086
323 -6.99765 -8.877 -7.62545 -1.62042 -0.149186 -0.202342
329 -3.08513 -8.65612 -8.11815 -0.124647 -0.303697 0.956109
327 -1.99024 -7.96984 -7.90368 0.0873726 0.553296 -0.203679
641 -1.3684 -8.87648 -7.7952 1.59647 -1.19793 -0.802558
331 -0.820182 -7.78134 -8.00564 0.248188 -0.0742058 -0.551413
335 -0.210733 -8.65362 -8.05987 -0.235961 -0.714128 0.190318
341 -9.77836 -6.86383 -8.63807 -0.73037 -0.0979246 -0.278704
344 -9.73616 -6.15245 -7.74496 0.308176 -0.0721232 1.29033
343 -8.91508 -6.97907 -7.72751 0.214302 0.699189 -1.10082
342 -8.87599 -6.12903 -8.6015 0.286576 1.77487 0.991491
40 -8.12501 -6.86041 -8.39801 0.130983 0.245221 0.341369
324 -8.30657 -6.07043 -7.67302 -0.167981 0.150711 0.596174
645 -1.53733 -6.86388 -8.19868 -0.0350439 -0.46646 0.00908184
359 -0.176259 -6.78797 -8.12276 -0.114844 -0.624481 -0.635947
356 -0.923385 -5.99905 -8.17121 -0.368386 0.224892 1.38628
643 -0.932505 -6.91711 -7.31771 0.914425 0.653031 0.374574
669 -0.238159 -6.14991 -7.18853 -0.817149 -0.67272 -0.771468
365 -9.73014 -5.37259 -8.53185 0.266543 -1.30739 -0.624924
348 -8.9773 -5.23499 -7.71515 -0.580885 0.226646 -0.714334
368 -9.78911 -4.51224 -7.75804 1.05515 -0.913033 1.02329
86 -8.15377 -5.30979 -8.41562 -0.00571017 -0.458399 0.450205
684 -7.30418 -5.08698 -7.6521 -0.641932 -1.13643 -0.346574
424 -2.07002 -6.00608 -7.76187 0.631634 -0.070801 0.695845
354 -1.21395 -5.02932 -7.75754 0.44077 0.0208301 0.321179
383 -0.0987575 -5.21906 -7.86142 -0.177487 -0.0374608 0.213231
79 -8.89477 -4.45983 -8.54782 -0.23432 0.263458 -0.364249
389 -9.5257 -3.6599 -8.56886 0.318162 -1.93112 0.130258
657 -8.9589 -3.56284 -7.63396 -0.496813 0.223841 -0.615714
367 -8.25698 -4.379 -7.62708 -0.998915 -0.914632 0.0862393
55 -8.21345 -3.58788 -8.51692 -0.714834 0.111193 -0.145904
366 -7.44317 -3.6339 -7.68071 0.493666 -0.0634426 -0.111162
664 -6.55692 -3.3652 -8.35837 -0.332949 -0.965618 -1.2029
682 -6.44956 -4.30852 -7.60397 0.751928 0.260208 1.07217
709 -4.50779 -3.44333 -8.04236 -0.0820286 -0.28837 -1.25952
419 -5.74051 -3.63404 -7.12752 -0.988377 1.26998 0.74462
400 -3.66072 -4.36698 -7.9485 -0.243839 0.595085 -0.789581
1289 -3.03003 -3.31097 -7.83078 -0.456116 0.137772 0.44854
668 -2.34982 -4.12441 -7.87809 -0.138998 0.829714 -0.144511
401 -2.19206 -3.3297 -8.60576 0.207569 -0.296876 -0.295104
1222 0.0487933 -6.02246 -3.76583 2.49526 -0.459061 0.0567944
403 -1.56851 -3.39803 -7.71185 -0.490805 -0.743461 0.00695324
379 -1.36946 -4.10506 -8.62406 1.6657 0.158769 1.99957
381 -0.640709 -4.14273 -7.77265 -1.66096 -0.840139 1.24938
405 -0.538239 -3.22486 -8.5668 -1.21122 1.0034 -0.349926
392 -9.87533 -2.88252 -7.64229 -0.161643 0.388136 1.52042
391 -8.96591 -2.80746 -8.4407 0.874125 -0.033302 -0.859144
413 -9.72615 -2.00253 -8.46659 0.01559 -0.233884 0.69787
725 -9.08025 -1.98753 -7.64803 -1.33732 -0.0421901 0.448424
678 -8.19629 -2.77169 -7.46381 0.0301097 0.0740154 -1.1742
415 -8.22548 -2.01174 -8.3084 -0.745925 0.167479 -0.98858
420 -7.36406 -2.0943 -7.36126 0.952432 -0.0951331 0.2113
658 -7.34001 -2.58948 -8.29745 0.361652 0.526239 0.399408
369 -6.44105 -2.85934 -7.33565 -0.122997 0.216029 0.115464
443 -6.31778 -2.14108 -8.21671 -1.11055 -0.92132 1.28868
396 -5.54694 -2.86782 -8.01735 -0.870721 -0.522806 -0.995713
733 -4.66403 -1.85157 -7.9438 -0.148961 -1.03402 0.404373
730 -5.70392 -2.14742 -7.22342 1.18226 0.465873 -0.464567
712 -3.84186 -2.61122 -7.76781 0.341189 -0.26533 0.240204
713 -3.03922 -1.80624 -7.7152 0.563903 -1.27565 -0.132104
404 -2.22284 -2.53125 -7.87802 0.603898 0.36711 0.269642
425 -2.14629 -1.68161 -8.52987 -0.65504 -0.478706 0.246306
427 -1.43069 -1.71553 -7.57797 -0.527754 -0.0616783 1.03221
402 -1.36129 -2.4742 -8.50182 0.202678 -1.42196 -0.561839
408 -0.681437 -2.46139 -7.6829 1.03482 -0.538326 0.444978
429 -0.619189 -1.60532 -8.43428 -0.361274 -1.02431 -0.274802
416 -9.87592 -1.22001 -7.66734 1.10643 0.381944 0.390523
437 -9.93812 -0.460525 -8.51809 -0.690197 -0.76736 -0.112589
440 -9.07291 -0.42462 -7.57868 0.715138 -0.423612 -0.340897
439 -8.97399 -1.20795 -8.43883 -1.02464 0.641955 -0.586908
726 -8.21938 -1.24521 -7.50257 0.503569 0.227722 0.680069
468 -8.14563 -0.453316 -8.35399 -0.0707802 0.78157 0.129566
203 -7.45984 -0.409651 -7.48434 -0.236503 0.417015 0.0653493
753 -7.39509 -1.40432 -8.25718 -0.242936 0.469083 -0.121577
153 -6.39022 -0.445555 -8.16441 -0.543883 0.57996 -0.642835
1018 -6.48471 -1.23673 -7.36357 0.151344 0.0843917 1.30318
448 -5.64185 -1.13142 -8.02394 -0.696391 -0.903149 1.47325
467 -4.60966 -0.22356 -7.98393 -0.71881 0.653017 -0.752967
1042 -5.57817 -0.293866 -7.21678 -0.692218 -0.480761 -0.275589
158 -3.73166 -0.178564 -8.56038 0.933198 0.490331 -0.359558
446 -3.87688 -1.11093 -7.88574 0.0110163 0.259553 -0.299883
183 -3.12387 -0.238732 -7.73502 0.165644 0.3906 0.945885
423 -2.94576 -0.923514 -8.61459 -0.105978 0.298903 -0.0169812
428 -2.27329 -0.962327 -7.74245 1.27457 0.52053 -0.346448
449 -2.20829 0.0277882 -8.45093 -0.755161 0.53335 0.281835
451 -1.43477 -0.0172234 -7.52718 -0.0944647 -0.798601 -0.349548
426 -1.45688 -0.825798 -8.4215 -0.881187 0.237005 0.366745
432 -0.653207 -0.882094 -7.63497 -0.487444 -0.269534 0.320841
453 -0.618556 -0.102992 -8.37636 1.76362 -1.11049 -0.275206
438 -9.01942 0.314676 -8.41704 0.268018 -0.139771 -0.893458
461 -9.49691 1.48488 -8.14276 -0.432671 0.513248 -0.482929
1068 -2.17432 5.39219 -0.0481616 -1.09105 -0.344665 0.383029
466 -8.3139 0.339368 -7.49312 1.10065 0.213364 2.05117
180 -8.2474 1.26739 -8.41097 1.36509 0.464967 0.031641
463 -7.34501 0.275768 -8.29295 -0.45578 -0.141119 -0.77158
1355 -7.57566 1.14541 -7.5327 1.09892 -0.163004 -0.65959
178 -6.46099 0.444265 -8.99763 -0.141756 0.711444 -0.254337
179 -6.57017 1.2208 -8.3218 0.681216 -0.616695 0.0238169
154 -6.64194 0.408 -7.52407 0.649873 -1.26189 -0.164434
470 -4.711 0.703009 -8.71861 0.307558 1.13881 0.597537
204 -5.61489 0.617533 -8.07251 -0.193583 -0.384906 -0.369927
781 -4.74692 1.3268 -7.85623 -1.00072 -0.248409 -0.196628
469 -3.95677 0.551147 -7.6721 -0.645139 1.35556 0.895917
231 -3.83967 1.41921 -8.57124 0.628268 0.586512 0.171537
471 -3.18357 1.36537 -7.67645 -0.479621 0.227936 -0.238947
207 -3.01421 0.65795 -8.43359 0.0911297 0.715112 0.91496
473 -2.1985 0.666409 -7.62186 0.666016 -0.179777 0.540134
474 -1.56869 1.62744 -7.69455 -0.144011 0.354629 0.224323
450 -1.39491 0.728179 -8.37128 1.0786 -0.699304 -0.0935892
477 -0.654214 0.723886 -7.51677 0.260018 -0.851899 0.312993
485 -8.57542 2.26876 -8.02723 -0.187874 -0.836787 -0.52262
199 -7.38218 2.00923 -8.36871 -0.47321 0.241639 -0.784716
773 -7.74685 2.8984 -8.11884 -0.22469 0.616275 -0.679972
3060 -6.66184 1.89697 -7.5163 0.503643 0.872459 0.62131
775 -5.64133 1.97953 -8.0323 1.33335 -0.945426 0.61454
205 -4.65729 2.19781 -8.60717 -0.0688737 0.966118 -0.0229239
232 -3.97779 2.18429 -7.80719 -0.762604 -0.0451051 -0.0237486
230 -3.06016 2.4432 -8.40327 -0.110719 -0.709501 0.540174
185 -2.24564 1.48975 -8.40513 -0.264402 -0.109848 -0.26075
188 -2.3768 2.44034 -7.63798 0.638279 0.38391 -1.2356
211 -1.46573 2.44483 -8.41244 0.707265 0.20709 -0.720332
501 -0.704433 1.66371 -8.33777 0.725318 0.255585 0.182624
480 -0.711966 2.51545 -7.54944 0.107767 -0.435774 0.648181
774 -9.57438 3.26166 -8.15401 -0.514266 -0.017052 0.347675
770 -9.6998 4.42221 -7.1664 -0.563626 -0.0862386 0.435378
491 -5.16048 3.03138 -7.62396 0.60565 0.158257 0.412558
1069 -3.30797 3.06392 -7.6532 -1.31574 0.492527 0.839705
783 -4.01749 3.06534 -8.47933 -0.129697 1.32903 -0.386674
236 -2.28789 3.10815 -8.58817 -1.18109 0.23222 0.268465
784 -2.3274 3.94999 -7.82288 -1.15608 -0.601679 -0.438469
499 -1.60915 3.2413 -7.65193 0.265674 0.658444 -0.291593
788 -1.37311 4.23083 -8.40476 0.164854 0.922898 -0.450308
497 -0.694697 3.39573 -8.35298 0.310777 0.629265 -0.00757325
502 -0.720486 4.23097 -7.60709 -0.149909 -0.137428 0.173767
510 -9.51568 5.04947 -8.29526 0.757666 1.20042 0.405665
237 -2.36103 4.96917 -8.47371 0.733916 -0.282371 0.0120408
805 -1.5921 5.08775 -7.68482 -0.886265 1.11982 1.05147
518 -2.49642 6.0177 -7.43343 0.736659 1.49517 1.12826
521 -1.48935 5.97827 -8.23303 0.477769 -0.383661 -0.182137
39 -7.53944 -9.51707 -10.1185 0.33899 -0.153185 -0.125742
239 -0.78312 5.09675 -8.40863 0.40706 0.576553 -0.836447
240 -0.585502 5.94978 -7.59988 0.122085 -0.904704 -0.0180359
3396 -8.9554 6.22494 -8.43096 0.418407 -0.109322 -1.10514
533 -10.0063 6.8418 -8.59244 -0.100937 -0.302249 -0.655516
3109 -9.25372 7.0214 -7.66226 -0.0303375 -0.851257 -0.271227
253 -8.17249 6.60311 -9.00355 -0.0196003 0.054343 -0.291889
549 -1.42286 6.78696 -7.64408 -1.20089 -1.02771 -0.561395
285 -0.630546 6.72107 -8.32616 -0.499035 -0.313352 0.237507
536 -9.89727 7.87802 -7.61703 0.271735 0.155613 -0.0935879
534 -9.09139 7.77119 -8.44765 -0.194069 -0.00857737 -0.124912
561 -8.26296 8.51409 -8.48349 -1.34549 0.3657 0.392738
569 -3.04762 8.60939 -7.77162 1.10584 -0.198601 0.24444
283 -2.52372 7.55669 -7.76414 0.702891 0.50534 -0.0761031
566 -2.13797 8.41088 -8.60994 0.171273 0.537312 0.792417
546 -1.43514 7.55282 -8.35371 -0.540001 -1.53721 0.579196
573 -1.43258 8.44168 -7.71456 0.198528 -0.252915 0.851511
552 -0.592776 7.67379 -7.5299 -1.10155 -0.0490995 0.00352243
264 -0.547534 8.22228 -8.47811 -1.0251 -0.0510091 0.415805
559 -8.95246 8.55517 -7.65493 0.148789 0.585391 -0.584727
557 -9.94092 8.67273 -8.62236 -0.0439646 1.1832 0.412288
558 -8.98285 9.3133 -8.54481 0.108417 0.137862 0.110884
560 -9.74007 9.52886 -7.73718 0.185705 -0.689141 0.625954
564 -8.10924 9.61036 -7.43815 1.18866 -0.967892 -0.159618
562 -7.24722 9.23077 -8.38001 0.258947 -0.148383 -0.250362
854 -3.05106 -10.3133 -7.72507 -1.12744 -1.60233 -0.454166
308 -2.14869 10.2138 -8.63391 -0.918272 -0.46037 0.765933
572 -2.22407 9.39936 -7.67345 0.937299 0.825816 -0.314995
307 -1.44074 10.2234 -7.7523 -0.248103 0.780585 0.289952
309 -1.41648 9.28044 -8.40186 0.557496 -0.156509 0.788654
310 -0.654119 10.0212 -8.49862 0.298323 0.760423 0.308832
576 -0.529902 9.22827 -7.74237 -0.760065 -0.287238 0.958203
584 -9.78271 -9.22448 -6.1648 -0.274559 -0.338122 -0.36677
582 -8.90955 -9.29734 -6.90338 0.0158573 0.205481 1.81983
583 -9.11021 -10.1844 -5.92509 -0.461024 -0.207081 -0.553034
581 -9.8305 10.2367 -6.82634 0.508496 0.418935 0.604924
588 -8.1901 -9.3727 -5.98666 -0.114738 -0.161044 -0.389332
585 -8.23197 10.1655 -6.6348 -0.161213 0.11758 0.770602
586 -7.17023 -9.45449 -6.62754 -0.333908 1.23018 -2.42757
852 -7.4512 10.1459 -5.88138 -0.874971 -0.280749 0.719243
565 -6.47778 10.2006 -6.37682 0.532993 -1.22298 -0.949825
850 -6.58863 -9.50507 -5.66042 0.784307 0.638264 0.352747
10 -6.08774 -9.05185 -6.6172 -0.785778 -0.158389 0.642389
589 -4.99588 10.0484 -6.26973 0.308306 0.414863 0.66102
15 -3.90809 -9.52402 -6.32921 -0.61677 0.725381 1.3325
332 -3.14066 -9.44954 -6.99147 0.461131 -1.04822 0.866683
830 -3.18954 10.176 -6.26267 -0.763461 -0.993981 -0.814685
596 -2.36553 -9.46325 -6.10533 -0.853399 -1.57625 1.61196
593 -2.2489 -10.2437 -7.05427 -0.0994847 -0.800213 -0.15938
594 -1.55717 -9.42588 -6.8531 0.917171 0.0708706 -0.80441
600 -0.727359 -9.41758 -6.17305 0.13774 1.30542 -1.4797
607 -8.9732 -8.55249 -6.17169 1.40645 0.705059 2.04209
605 -9.73271 -8.58492 -6.93914 0.0406341 -0.789786 0.599343
608 -9.91069 -7.67088 -6.11443 -0.362329 0.436317 -0.457011
606 -9.03259 -7.78477 -6.91906 0.277849 -0.217019 0.665956
609 -7.97597 -8.56308 -6.99085 0.611351 -0.0132997 0.24828
612 -8.26058 -7.64658 -6.19392 0.489233 -0.0999124 -0.706745
611 -7.41133 -8.53114 -6.01929 -1.06202 0.413749 0.344635
347 -7.15985 -7.68868 -6.75347 -0.251306 0.686495 -0.206143
563 -4.7721 -8.85367 -6.28293 -1.42672 -0.436308 -0.365308
637 -5.47457 -8.05848 -6.32511 -0.724397 0.687402 0.263686
284 -3.81711 -8.59098 -7.10522 0.744871 -0.3226 -0.48821
665 -3.82368 -7.87439 -6.29845 0.840989 -0.669502 -0.618069
325 -2.97441 -7.82041 -7.14719 0.395562 0.40172 -0.470232
328 -3.09197 -8.52367 -6.1441 0.367606 1.73829 0.717453
618 -2.19599 -8.65268 -6.92804 0.497756 -0.50078 -0.015051
929 -2.31656 -7.65101 -6.25203 -0.247317 -1.34079 1.0379
621 -0.593893 -8.71499 -7.05393 1.81997 0.315765 0.151362
619 -1.42581 -8.58099 -6.09288 0.186427 0.543327 0.24731
622 -0.0674403 -7.69533 -7.2922 -0.0750898 0.168476 0.693301
355 -1.34217 -7.86125 -6.91288 0.632533 -0.875178 1.38341
624 -0.547981 -7.8391 -6.14614 -0.00776547 -0.699223 0.320707
631 -9.05465 -6.84536 -5.97454 0.0805037 -0.632596 -1.10688
629 -9.79567 -6.90447 -6.91664 -0.343417 -0.146624 -1.21941
632 -9.78327 -5.99507 -6.12117 -1.54505 -0.414102 -0.292989
630 -8.96313 -6.07174 -6.84635 0.600771 -0.317922 -1.50886
634 -8.19444 -6.76232 -6.80881 -0.501159 0.0770637 -0.322959
636 -8.13279 -6.06436 -5.97636 1.16537 0.420314 1.03457
610 -7.22624 -6.99636 -5.79984 -0.342388 -0.0686092 0.127037
616 -7.28748 -6.15521 -6.55475 0.369858 -0.681778 -0.825615
971 -6.30964 -7.03885 -6.59253 0.930128 0.484742 -0.601409
613 -4.55557 -7.01638 -6.57317 0.463064 -0.251349 0.865369
349 -3.06279 -6.90109 -6.05804 -0.044448 -0.00353781 0.194454
974 -3.92508 -5.92526 -6.36966 -1.28398 -0.920806 1.02632
648 -2.03235 -6.96668 -7.04806 -0.523558 -1.36918 0.818363
953 -2.39385 -6.09773 -6.45271 -0.116112 -0.41581 1.56197
955 -1.31445 -7.03676 -6.16497 1.51394 0.92482 0.580229
4369 -0.134763 -6.91029 -6.52888 -0.945972 0.982823 0.769991
647 -0.584629 -6.01692 -6.00873 -0.0210879 0.0443968 -0.286503
653 -9.80183 -5.19568 -6.96103 0.218589 -0.378196 -0.446034
655 -8.95886 -5.11489 -6.11131 0.189726 -0.789396 0.0997494
654 -9.00967 -4.48368 -6.91472 -0.138705 -0.00186138 -0.459556
656 -9.87812 -4.36421 -6.1236 1.2246 -0.544573 -0.240722
969 -8.14129 -5.24619 -6.73054 -0.273615 -0.288193 0.634008
681 -8.22587 -4.40059 -6.05249 0.695212 0.235739 -0.188562
660 -7.39081 -5.16787 -5.88431 -0.682619 -0.294407 -0.113427
685 -4.68514 -5.18615 -6.4176 -0.848324 0.523673 -0.132177
949 -5.65154 -5.34167 -5.61869 0.729064 0.664351 -0.422019
977 -2.92538 -5.16273 -6.20843 0.202905 -0.531377 0.158018
691 -2.22688 -5.0957 -7.08238 -0.285311 0.102035 -0.359619
644 -1.32405 -6.03088 -6.83014 -0.661405 -0.258828 -0.499827
667 -1.48245 -5.16761 -6.19681 -0.806575 -0.673728 0.0315548
672 -0.586366 -5.28205 -6.80057 -0.481858 0.524306 -0.459065
677 -9.8475 -3.73366 -6.95314 1.55764 -0.92921 0.00718268
966 -9.05143 -3.66792 -6.27336 -0.923359 0.464391 0.363864
679 -8.2228 -3.65554 -6.87671 -0.942542 0.106017 -0.229715
1281 -7.41696 -3.74047 -5.88889 -2.54721 0.672701 1.02608
993 -8.26621 -2.81711 -5.92385 -0.464663 0.845065 0.352986
688 -7.37767 -4.43395 -6.79136 -1.68635 0.227786 -0.0140003
707 -6.52326 -3.81965 -6.45947 -1.29158 0.782592 1.12359
687 -6.44809 -4.58551 -5.74891 0.868522 0.197152 0.33038
1282 -5.54776 -4.61158 -6.37394 2.06605 -0.519404 0.0101603
352 -4.71723 -4.29663 -7.24745 1.0464 0.306424 -0.176152
421 -4.96138 -3.67681 -6.39706 0.894698 0.384325 -0.677883
373 -3.92185 -4.49128 -6.37354 0.969617 -0.216133 0.609061
686 -3.89833 -3.6022 -7.09451 0.496118 -0.249625 -0.453098
980 -3.11153 -3.5561 -6.21042 1.39293 -0.750913 -0.015917
374 -3.03889 -4.30177 -6.98367 -0.0666168 -0.703518 0.30589
978 -2.22628 -4.20096 -6.18868 0.0955409 -0.988298 -0.024902
380 -2.40795 -3.38603 -7.01903 -0.443903 -0.939109 0.178376
692 -1.40141 -3.35448 -6.20443 0.340954 0.411621 0.301756
666 -1.44627 -4.20101 -6.92294 -0.595366 -0.602163 -0.521731
690 -0.699965 -4.37384 -6.22198 -1.51822 1.31868 0.179486
384 -0.764481 -3.30622 -6.97714 0.84906 -0.385724 0.2873
680 -9.92618 -2.8614 -6.17205 -0.0560173 -0.0177552 -0.180521
970 -9.12492 -2.8083 -6.84245 0.242499 -0.377466 1.06973
701 -10.0259 -2.01672 -6.78902 -0.648012 -0.805937 -1.22251
702 -9.23799 -2.02737 -5.94674 -0.751688 0.280486 -1.48576
708 -8.19608 -1.90459 -6.71426 -0.0531529 0.165216 0.468968
683 -7.36397 -2.99815 -6.80389 0.327015 0.360247 0.699959
705 -6.58242 -2.04778 -6.5901 -0.433819 -0.025503 -0.185492
731 -5.73188 -2.89381 -6.34171 -0.337566 0.262859 0.432272
757 -4.75399 -2.9432 -7.09251 -0.0109835 0.362019 0.561421
1021 -4.90474 -1.95858 -6.4892 -0.217803 -1.13071 -0.00207989
711 -3.95028 -2.73204 -6.39852 0.216754 0.933345 -0.0167257
736 -3.95413 -1.82337 -6.96828 0.950673 0.131649 -0.367381
998 -3.11861 -1.87671 -6.19348 -0.907627 0.635868 -0.234381
689 -3.09911 -2.57234 -7.02603 -0.408726 1.28376 -0.531456
716 -2.281 -1.74402 -6.8917 0.461352 -0.0365538 0.77448
1001 -2.28875 -2.61395 -6.20356 0.0010577 0.772913 -0.499337
715 -1.57871 -1.81922 -5.98084 0.817604 -0.798966 -0.650783
693 -1.5503 -2.57669 -6.98851 -0.0472675 0.227363 -0.118093
717 -0.589094 -1.67759 -6.81658 -0.486878 -0.276167 -0.0129094
696 -0.663406 -2.54995 -6.03839 0.249881 0.443624 0.431959
12 -8.31227 -8.6823 -10.0508 -0.190673 0.913089 -0.32462
728 -9.14767 -1.32088 -6.84395 1.04197 -0.391525 -0.802056
752 -9.49384 -0.262852 -6.4734 -0.891877 0.152738 0.311486
2014 -0.251754 9.5806 -0.347944 -1.53495 0.504009 0.51729
750 -8.32088 -0.462138 -6.64809 -0.194203 0.890906 0.0578743
727 -8.29006 -1.2832 -5.87143 -0.936819 -0.531961 1.10555
729 -7.43318 -1.14441 -6.62564 -0.543919 -0.22482 0.441957
754 -6.66979 -0.350792 -6.64671 -0.801718 0.0758327 1.09486
1043 -5.80483 -1.16122 -6.59001 -0.572664 -0.596451 0.577744
734 -4.8284 -1.01348 -7.11085 -0.613069 -1.23797 -0.30392
1045 -4.98055 -0.352897 -6.22778 0.512665 -1.22406 0.477278
737 -3.15869 -1.05251 -6.90003 -0.882481 1.41452 1.08665
710 -3.97784 -0.346276 -7.1417 -0.460487 -0.527755 -0.780195
735 -4.00219 -1.01389 -6.2266 0.388826 -0.6756 -0.327897
758 -3.17814 -0.243241 -6.19569 -0.0599142 -0.537432 -0.388159
447 -2.28023 -0.231504 -6.9579 -1.28174 0.4291 0.30352