ITEM: TIMESTEP
166000
ITEM: NUMBER OF ATOMS
6912
ITEM: BOX BOUNDS pp pp pp
-1.0259855680060181e+01 1.0259855680060181e+01
-1.0259855680060181e+01 1.0259855680060181e+01
-1.0259855680060181e+01 1.0259855680060181e+01
ITEM: ATOMS id x y z vx vy vz
8 -9.57279 -9.38448 -9.38177 0.986556 0.202292 0.0769877
125 -9.48094 -1.89357 -10.1464 1.0939 -1.74873 0.67129
3179 -7.8546 -9.34049 -9.73378 -0.795467 0.178113 0.0355303
31 -8.83937 -8.55647 -9.389 0.202808 0.292047 0.0518626
2488 -3.60699 -9.43687 -9.11851 -0.0022304 1.34296 1.18992
308 -2.42784 -9.62977 -9.62797 -0.221303 1.24564 -0.102915
43 -0.861254 -9.46417 -9.71212 0.511167 -0.60209 0.958916
32 -9.73268 -7.95735 -9.52497 -0.19806 0.397098 -1.63873
318 -8.59092 -7.97182 -8.53953 0.620253 1.12283 -0.463762
71 -0.0760507 -6.81453 -9.75944 0.504571 -0.343324 1.89514
11 -7.97366 -7.90801 -9.40044 -0.42368 0.566193 0.15108
722 -10.1668 0.692964 -6.4796 0.745622 -1.18754 1.33279
3164 -2.7063 -8.04734 -9.44224 0.119569 -0.684288 1.02182
617 -2.52275 -8.81817 -8.86855 -2.1293 0.0874742 -0.804708
44 -1.7484 -8.65666 -9.7293 -1.29283 0.341034 1.33438
336 -1.71942 -7.73271 -9.16167 0.17828 0.133788 0.151923
357 -0.768641 -7.67955 -9.75656 1.28771 -0.797209 -0.470497
330 -0.993753 -8.51159 -8.84754 1.09653 0.348812 -0.360573
47 -0.0959503 -8.76189 -9.75921 0.501812 -0.661899 0.323703
982 -0.119444 -2.51906 -5.1359 -0.433131 -0.00395339 -1.6441
56 -9.49759 -6.36525 -9.49917 -1.58563 0.662922 -0.804745
341 -9.68565 -6.96811 -8.65211 0.284097 1.16155 0.780315
30 -8.83326 -7.27232 -9.34232 0.557993 -1.30561 -0.248848
3250 -6.41923 -4.93422 -9.83841 0.311062 0.325425 -2.13618
54 -8.47974 -6.30301 -9.85329 0.606556 0.621692 -0.58534
371 -6.63116 -5.1721 -8.46469 -1.02166 0.542958 0.384361
9 -7.71737 -6.00581 -9.13513 -2.56366 0.781487 -0.355337
3180 -6.66944 -5.93708 -9.87778 -2.29553 0.907142 1.0423
346 -5.00106 -5.95814 -9.73025 0.0689004 0.624335 0.466029
10 -3.66388 -7.43039 -9.22829 0.31471 -0.126976 -0.237204
41 -3.51721 -5.97301 -9.98574 0.119302 0.0963947 0.922592
281 -4.07267 -6.16001 -8.9838 -0.100083 -1.32185 1.09015
3212 -2.59709 -6.97035 -9.36698 0.0465279 0.180525 0.12301
37 -1.8856 -6.20333 -9.05566 -0.342541 -0.321333 -0.446018
3446 -2.44476 -6.12948 -10.0379 -0.73961 1.65662 -0.0148746
66 -1.60325 -6.82185 -9.8363 -0.301025 0.908796 0.552016
638 -0.883873 -6.9287 -8.99724 -0.0777107 0.183296 -1.17364
72 -0.790053 -5.94382 -9.65287 0.0695773 -0.209678 0.435011
561 -8.66164 9.42345 -9.95691 -0.0447308 -0.0646692 -0.700977
149 -8.82801 -0.828368 -10.0259 -0.58486 0.0885288 1.3434
80 -9.46931 -4.5143 -9.34011 0.346663 0.739724 -0.224975
633 -8.6134 -5.28459 -9.18167 -0.355624 0.790977 0.39055
372 -7.81758 -4.50505 -9.10836 -0.261921 -0.977444 -0.0725558
1985 -2.41364 6.9238 -0.0731818 -0.288525 1.0191 1.69695
86 -5.86793 -4.41927 -9.15873 1.20801 0.557396 0.510416
3202 -5.21837 -5.23492 -9.06936 -0.590027 0.156732 0.0923396
38 -4.32546 -5.17117 -9.76188 -1.10769 -0.599358 0.274763
350 -4.54431 -4.31807 -8.78273 0.509769 -0.169212 -1.02053
863 -0.239396 8.45363 -6.08985 -0.0729432 0.218384 -0.605893
2482 -2.85816 -5.11255 -9.47267 0.859233 -0.961041 -0.820164
93 -1.68597 -5.2398 -9.71013 -0.529191 1.08154 0.263142
95 -0.904414 -5.17336 -8.93137 -1.20764 0.197152 1.35886
382 -0.119182 -4.39357 -8.77134 0.817191 1.3862 -0.851311
843 -10.1713 8.31129 -5.67014 0.0786839 1.32358 -0.143718
3275 -7.58755 -5.25316 -9.81318 1.50075 -1.02111 1.46781
103 -8.98118 -3.58131 -9.3143 -0.641269 0.521127 -0.399391
105 -8.05531 -3.46567 -9.94167 -0.348768 -1.23128 -1.21311
78 -8.69071 -4.27004 -10.233 0.294412 0.810695 -0.0229217
107 -6.99956 -3.55132 -9.46851 0.286215 1.3814 1.03146
1346 -10.1497 5.3391 -2.18984 -0.117617 0.434075 -0.856086
81 -6.10425 -3.773 -9.99442 -0.676881 0.133346 -0.79338
684 -5.22334 -3.58061 -9.13661 0.398564 -0.762812 -0.211839
3260 -4.32699 -3.44366 -9.67835 -1.33495 -1.55142 1.38415
133 -4.65508 -2.67746 -8.79881 -1.11843 -0.484696 0.210956
254 -3.60703 -4.29783 -9.68687 1.10052 -0.264003 0.139004
3303 -3.7372 -2.50666 -9.51725 -0.57909 0.477282 -0.803539
375 -3.09433 -3.42485 -9.61236 -0.352938 -1.00651 -0.350965
378 -2.14377 -4.33109 -9.47251 0.575222 0.7288 -1.26128
96 -0.792383 -4.53006 -9.69704 0.515325 -0.586637 -0.249497
115 -1.36131 -3.47189 -9.40444 -0.0335272 -0.327473 -0.643028
119 -0.187838 -3.54325 -9.64972 -1.54282 0.126601 -0.904991
104 -9.57944 -2.74254 -9.46166 -0.0643191 0.551318 0.0513285
414 -8.90724 -1.93232 -9.1807 0.940075 -1.04115 1.03704
887 -0.0526163 10.1896 -4.50641 0.458718 -1.02635 -1.45912
393 -8.10706 -2.63295 -9.32688 0.303833 -0.230521 0.546555
126 -7.92732 -1.72278 -10.0543 -0.73331 0.252772 -0.129619
127 -8.73307 -2.59026 -10.1565 1.02583 -0.967394 -0.928287
390 -7.19281 -2.68923 -10.0228 0.623124 -1.17826 0.86518
417 -6.37722 -2.78818 -9.24331 -0.0372472 0.92189 0.485485
441 -7.30967 -1.95722 -9.12671 -0.694907 -1.07312 -0.891783
129 -6.3595 -1.88054 -9.75701 1.41397 0.555699 1.61902
397 -5.41807 -2.5755 -9.59131 -0.478354 2.52429 -0.767152
442 -5.46328 -1.79186 -8.79673 -0.518204 1.37144 -0.305355
418 -4.67411 -1.81782 -9.62348 0.0150806 1.53625 0.895425
422 -2.96544 -1.76673 -9.49988 0.193908 -0.213274 -1.39103
116 -2.10415 -2.58212 -9.4225 0.503041 -1.20325 -0.336836
3308 -2.1958 -1.7585 -10.1976 -0.330257 -1.30577 -0.43328
139 -1.43119 -1.76021 -9.34386 -0.328808 0.59175 1.42631
120 -0.67389 -2.54742 -9.25173 0.0991286 -0.844099 -0.407159
141 -0.633747 -1.70494 -9.93349 -1.05426 -0.713547 -1.00224
838 -0.0535352 7.66761 -6.94117 0.26679 -0.761649 -0.199012
128 -9.6307 -1.17381 -9.32388 -0.730824 0.354792 0.595272
150 -8.96352 -0.254581 -9.08484 -0.251583 -1.71223 -0.308287
1806 -8.14627 -5.05886 -0.00343056 -1.04863 -0.0502141 0.586093
151 -8.04131 -0.944595 -9.32901 0.533243 -0.334787 -0.881103
465 -7.34249 -0.141715 -9.06321 0.0693069 -0.0728299 -0.524738
3297 -6.98308 -0.344364 -10.0458 -0.681737 0.115175 1.126
132 -6.37439 -1.07802 -9.12444 -0.708337 0.11907 -0.335957
3300 -5.97782 -0.230651 -9.80715 -1.11756 -0.366767 -0.371508
130 -5.5404 -1.19205 -9.81999 0.367451 -0.661329 1.6716
184 -4.60737 -0.0277277 -9.39137 0.558649 -0.334559 0.0187671
3352 -5.5492 -0.0310934 -8.85744 0.234082 -0.400882 -0.463694
197 -10.0354 2.5671 -9.73793 0.0839177 0.310161 -0.877369
160 -3.64771 -0.888743 -9.46281 -0.482053 0.519913 1.97884
134 -2.75886 -0.88671 -10.1234 -0.394096 -0.381301 0.399164
159 -2.97066 0.0245177 -9.22591 -0.698879 -0.173522 -0.270585
140 -2.32271 -0.961056 -9.15382 -0.401636 -0.915987 0.659285
161 -2.0505 -0.0287913 -9.94366 -1.02966 0.507768 -0.0405742
138 -1.44587 -0.950225 -10.0229 -0.0466181 0.0219709 0.362524
144 -0.674671 -0.981906 -9.21193 -0.209425 0.170915 1.4336
1034 -9.9495 3.84053 -3.51848 -0.0126117 1.08225 1.15996
152 -9.9626 0.578715 -9.24504 -0.117984 0.771308 -0.0742529
3343 -9.25091 0.667936 -9.9927 0.0390787 -0.848639 -0.54553
173 -9.96374 1.46893 -9.98169 -0.957471 0.378449 0.911232
3324 -7.87272 0.206299 -10.0358 0.454361 0.21044 0.283195
156 -8.38052 0.7167 -9.2946 -0.0064735 -0.529657 1.16098
177 -7.47297 1.16482 -10.0945 0.0785356 0.845132 1.63596
3367 -7.63159 1.30933 -8.91558 0.422826 0.501936 0.615796
178 -6.55379 0.576866 -8.74716 1.23814 0.375385 -0.0118665
801 -6.64355 0.678439 -9.8346 0.055946 -0.065032 0.470723
3040 -5.32611 0.803282 -9.64567 0.685882 -0.438151 -0.668962
3371 -3.85236 0.675215 -9.46304 -1.0347 -0.645196 -0.126998
187 -2.17037 0.819956 -9.12935 1.07226 -0.217649 1.08314
3327 -2.99645 0.75786 -10.0149 -0.907851 -0.112065 0.16523
163 -1.51504 -0.140518 -9.11399 -0.623066 -0.468212 -0.63037
189 -1.42309 0.739037 -9.87947 0.355057 0.51112 -0.69676
165 -0.760384 -0.188281 -9.91055 -0.509762 -0.643939 0.872076
168 -0.671647 0.726404 -9.10624 0.434867 -0.33297 -1.0363
175 -9.19601 1.42604 -9.06885 0.010507 0.128698 -0.8163
221 -9.82182 5.10198 -10.1479 1.30239 0.502668 0.106152
176 -9.05303 2.39732 -10.1478 0.0979351 -0.0542895 -0.189781
201 -8.50534 1.35716 -10.0946 1.05617 0.749812 0.357676
487 -5.9939 1.47863 -10.2007 0.573601 -0.91354 0.465861
200 -7.78338 2.12676 -9.61579 -0.0910132 0.0959107 0.690216
3400 -4.85051 2.95329 -10.1835 1.08524 0.0590706 0.409492
234 -4.9686 2.04914 -9.73022 1.05282 -0.718601 -0.714401
3344 -5.80172 1.39768 -8.68588 1.09096 -1.81158 0.910528
1071 -4.97754 2.31097 -8.5771 -0.360752 0.600354 0.478232
491 -2.90565 1.59824 -9.2357 -0.959178 2.11632 -0.194287
3375 -3.71232 2.79194 -9.76563 -0.091481 0.0893636 -0.0255876
113 -2.12484 -3.30136 -10.2672 0.178169 -0.536431 -0.213198
3036 -3.95266 1.61088 -9.94149 -0.707633 1.35678 -0.757478
3374 -2.15174 2.35932 -9.1731 -0.443998 1.63373 -0.201714
213 -1.51521 2.36172 -10.0657 0.736066 0.186204 -0.167867
501 -1.27504 1.73649 -9.1025 0.121283 0.317997 -1.08568
3332 -2.06167 1.49102 -9.99948 0.191772 -1.58266 -0.404429
192 -0.739986 1.62899 -10.0794 -0.0593535 1.20478 -0.247309
215 -0.515482 2.54658 -9.07969 0.110016 -0.689802 1.07001
774 -9.25765 3.35956 -9.70637 -0.132364 0.480004 0.892136
194 -10.0846 4.0776 -9.62931 -0.412722 0.0865254 0.647505
228 -9.18157 3.9727 -8.83654 -0.471077 -0.48468 -0.663706
1986 -1.55807 7.62545 -0.0175764 -0.550182 0.664489 -0.167161
539 -8.29835 3.9927 -9.31129 -0.17707 -1.01288 0.309015
232 -8.37253 2.98277 -9.32993 0.440766 0.119068 0.390169
770 -6.99248 3.71838 -8.68558 0.685272 0.248122 -0.485784
3393 -7.41764 3.13239 -9.96435 0.868262 1.30417 0.141662
2174 -3.75001 4.08938 -9.32337 0.956544 -0.706925 -0.465949
2464 -3.08193 3.21457 -9.10756 0.858713 -0.248036 0.400573
1438 -0.181981 9.41221 -3.49659 -1.3842 -1.3783 0.861258
231 -3.15771 4.83739 -8.77923 1.13216 0.119195 -0.0656612
3404 -2.20656 3.92349 -8.91596 0.981087 -0.496439 -0.35834
209 -1.42085 3.27413 -8.86509 -0.351178 -0.318252 0.44229
3384 -0.512242 3.24039 -9.89964 -1.62155 -0.00923807 -0.781048
498 -0.627696 3.94769 -9.1342 0.305735 0.477824 0.0762299
219 -10.1424 5.03129 -9.06761 0.816786 0.2628 1.86086
222 -8.73923 5.82026 -10.219 -0.169526 0.881723 0.324953
435 -10.0262 -0.0467568 -7.40245 -0.799203 -0.00495137 -0.704862
2460 -8.9167 5.2229 -9.27092 -0.991884 0.785166 -0.360553
1655 -0.116022 3.32823 -2.23603 0.395241 -0.557013 -0.339639
3423 -2.77354 4.03868 -9.88014 -0.607304 0.350397 -0.843194
3399 -1.12399 4.24152 -10.0803 0.291718 -0.468431 -0.554345
2462 -2.11345 4.9143 -9.88373 0.0934971 0.384293 -0.62843
3378 -2.14601 6.62312 -10.1255 1.18815 0.697367 0.294756
3144 -1.31361 5.03698 -9.26991 1.35278 -0.5729 0.182866
3403 -0.314782 5.03096 -9.92379 0.748049 -0.389284 1.47495
261 -0.492007 5.88444 -9.09816 1.60839 1.23608 -0.417782
1829 -9.11797 -4.21696 -0.0791423 -0.0593096 -1.03731 -1.06192
742 -0.0911016 0.671571 -6.64987 -0.143453 -0.660192 -1.12657
224 -9.65708 5.96818 -9.57114 0.115786 1.70805 -0.317706
2242 -8.62285 6.62282 -9.45603 -0.429864 0.699765 -0.950145
537 -7.87756 7.04782 -8.54418 -0.97401 -0.586416 2.0792
3377 -1.38815 6.5737 -9.32844 1.91425 -0.750865 1.56835
283 -2.46346 7.3915 -9.14929 1.03452 0.576888 -0.540383
3405 -0.539019 6.57989 -9.93373 1.49717 -0.775479 -0.306213
3432 -1.38839 7.61546 -10.2029 0.1176 0.0395628 -0.381956
248 -9.93553 7.69156 -9.37181 -0.719778 -0.700103 1.02182
538 -8.99582 8.41312 -9.41178 0.196032 0.923084 -0.399526
1540 -10.1181 -3.21963 -0.717636 0.784754 -0.376809 0.980131
276 -8.96641 7.48808 -8.55284 0.650369 0.642991 0.68064
534 -8.28488 7.57833 -9.50252 0.27613 0.747275 -1.18612
114 -1.36956 -2.51388 -10.1068 -1.00517 -1.15124 -0.203493
766 -0.0133928 2.45116 -6.54797 0.175679 -0.579861 -0.303707
3455 -0.733329 7.44633 -9.3329 -0.583078 -1.35809 0.398644
570 -1.37396 8.55542 -9.46197 -0.40487 -0.166625 0.781304
282 -0.42629 8.23843 -9.9457 1.08577 0.857718 -0.235045
7 -8.71085 -10.0993 -9.37163 0.623558 -1.01469 -0.623885
272 -9.67043 9.2371 -9.53138 -1.25659 -0.439813 0.588781
271 -8.14576 8.50095 -10.2545 0.564981 -0.309309 0.192763
3443 -7.9018 9.21897 -8.92168 1.27394 0.574398 -0.307885
18 -3.2317 9.92994 -9.61681 -0.141622 -0.084085 0.650692
258 -2.19785 9.34514 -9.63807 -0.931836 -0.415027 -0.93654
3445 -2.3871 10.2576 -8.77615 -0.0440453 1.55279 0.618126
1130 -10.1805 9.24053 -5.05163 -0.270974 0.983758 0.577152
23 -0.461937 9.09917 -9.40659 0.0880448 1.24336 0.617284
24 -0.237729 10.0424 -9.80374 1.51176 1.36276 0.0682107
305 -1.2677 10.1433 -9.37624 0.776073 0.770308 -1.08091
294 -8.72448 -9.30245 -8.61486 0.508591 -0.773892 1.30221
296 -9.84558 -9.35002 -7.82824 0.239716 0.0293586 -0.352279
3184 -7.4734 -8.90001 -7.69827 -0.303664 -0.0148842 0.444429
6 -7.95803 -9.89829 -7.73132 0.399246 0.31905 1.69095
3204 -7.2188 10.1128 -7.16538 0.334198 -0.178858 0.422352
853 -4.17398 -8.64378 -7.22515 2.3643 0.123679 0.285348
567 -3.41517 -9.44534 -7.19128 -0.583287 1.08283 -0.471283
854 -2.45356 -9.49486 -7.99216 0.545922 1.41567 -0.867264
333 -0.164027 -9.38232 -8.80172 0.503803 0.927757 0.417918
306 -1.49734 -9.45408 -8.84283 -0.402094 -1.14902 1.06947
312 -0.583234 -9.54324 -7.86172 0.977931 -0.352793 -0.297561
317 -9.66959 -8.606 -8.73533 0.95666 -0.100021 1.40768
320 -9.75163 -7.75973 -7.82798 0.0705543 0.400189 -0.141838
319 -8.91542 -8.76867 -7.66222 -0.00475707 -0.89016 -0.832513
322 -7.94051 -7.90273 -7.64893 -0.28158 0.637127 -0.395135
300 -6.89793 -7.78831 -8.41756 -0.610463 0.00396917 1.05776
355 -2.31287 -7.91215 -8.10847 -0.0385103 -0.627166 -0.139506
335 -0.154567 -8.54682 -8.05957 0.707626 0.0847339 -0.818558
641 -1.4095 -8.91608 -7.99015 -0.589472 -1.25684 0.397436
331 -1.10131 -7.90641 -8.01175 0.589564 0.779704 0.822479
344 -9.71807 -6.11403 -7.92692 -1.7383 0.158306 0.0975449
343 -8.72864 -7.04625 -7.80072 0.156499 0.837043 0.00299349
246 -9.06466 7.68649 -10.2157 -0.654828 -0.602118 -1.93962
342 -8.75412 -6.39313 -8.70982 -0.773214 -0.152578 1.51551
616 -7.6559 -7.00615 -8.52543 -0.69055 0.682077 -0.436896
36 -7.94049 -6.24086 -7.83044 0.684829 1.58454 0.357229
352 -7.21821 -7.02753 -7.55092 -0.0369236 0.328202 0.837171
332 -4.71023 -6.02992 -7.51976 0.376873 0.405777 -0.620274
92 -3.67773 -6.10896 -7.94726 -0.906483 -0.122395 0.34908
3452 -2.96622 -6.04916 -9.05689 1.18612 0.15039 1.07407
648 -2.84776 -6.98875 -8.34617 0.345099 -0.708598 -1.19109
327 -1.76082 -6.90667 -8.34138 -0.470757 -0.40095 -0.681756
645 -2.0715 -5.90455 -7.98948 -0.0319113 -0.405721 -0.578331
359 -0.0960983 -7.07258 -8.28285 0.58342 0.600089 0.0171341
356 -1.03509 -6.12423 -8.27547 1.00553 0.833808 -1.39914
365 -9.60957 -5.47282 -8.90333 -0.332221 0.22326 -1.05102
368 -9.67437 -4.58051 -7.91766 0.889798 -0.156011 0.804832
348 -8.72707 -5.43698 -7.92619 -0.735996 0.268759 1.63112
109 -7.81722 -5.21533 -8.4113 0.186885 -0.110268 -0.153014
367 -7.97466 -4.57392 -7.63893 -1.65995 0.569918 -0.788985
324 -6.89429 -6.12127 -8.08657 0.503228 0.0369734 0.917682
613 -7.12394 -5.27486 -7.48712 -0.230622 -1.45684 1.55177
20 -5.74542 -5.88959 -7.91243 -0.334736 -2.27341 -0.105243
974 -4.55448 -5.19104 -8.10261 -0.129479 1.06778 0.143645
687 -3.55415 -5.2178 -8.65289 0.520215 0.982828 -1.23686
424 -3.05899 -5.26358 -7.65003 0.373889 1.11412 0.78974
3428 -3.69089 -4.36742 -7.91675 -0.328863 0.453372 -0.799747
376 -2.07802 -5.00474 -8.70751 1.42212 -0.121727 -0.732867
354 -1.36034 -5.11691 -7.74173 0.868162 -0.888985 0.285514
383 -0.324885 -5.38868 -8.0575 -0.0167202 -0.101947 -0.983122
79 -8.68203 -4.5688 -8.48658 -1.68529 -0.804842 0.708885
389 -9.80971 -3.67217 -8.64556 0.760778 0.591476 -0.151925
657 -8.79398 -3.77868 -7.8088 -1.00199 -0.607789 0.849227
55 -8.04842 -3.59578 -8.71132 -1.01616 0.713098 -1.15163
366 -7.41666 -3.65065 -7.62896 0.373299 -0.297291 0.956364
682 -7.13623 -4.27405 -8.4416 -0.565398 -0.0100289 0.232492
664 -6.59782 -3.40726 -8.4479 -0.917459 0.43109 -0.622683
329 -5.56336 -4.44077 -8.07573 -0.0821556 0.0428203 1.28061
445 -4.77412 -3.49492 -8.00274 -0.117182 -0.311077 -0.21329
419 -5.60373 -3.82776 -7.31038 0.568795 -0.753568 0.58589
135 -3.7498 -3.40537 -8.76795 -0.380836 0.3572 -0.519596
1289 -3.14111 -3.44459 -7.86256 0.356233 -0.0505225 0.183485
112 -3.08672 -4.29918 -8.81375 -0.653896 -0.176608 -0.399287
401 -2.22211 -3.59513 -8.67322 0.0471919 0.9727 -0.0228459
668 -2.07282 -4.33836 -7.7574 0.0478648 0.615954 0.798848
403 -1.36631 -3.44847 -7.67488 1.11529 0.575818 0.410485
379 -1.25079 -4.20699 -8.48664 0.646248 -0.0881031 -0.522719
381 -0.478653 -4.38651 -7.75601 -0.12702 -0.76759 -0.310948
405 -0.649464 -3.38833 -8.5256 0.643147 -0.0252858 -0.384542
391 -8.90419 -2.79329 -8.60533 0.950787 0.921451 -0.391828
392 -9.71954 -2.87583 -7.88264 -0.103719 0.242549 0.262161
413 -9.84148 -1.95962 -8.61786 -1.32291 -2.08853 1.3143
725 -9.12122 -1.99419 -7.8507 -0.643158 -1.20147 0.073785
678 -8.13949 -2.69101 -7.5898 1.08303 1.92125 1.14332
415 -8.12602 -1.9402 -8.32682 0.387998 1.24775 -0.222828
420 -7.39949 -1.947 -7.35732 -0.787667 0.0618355 -0.247098
369 -6.59004 -2.67527 -7.50444 1.13213 0.23422 0.115501
658 -7.3635 -2.70778 -8.47296 -1.17672 0.0777893 0.837497
443 -6.46236 -1.93498 -8.39202 0.019768 0.207531 0.843128
396 -5.63739 -2.86198 -8.29894 -0.340619 -1.32903 -1.10797
733 -4.76284 -1.74338 -7.91609 1.08825 -0.165511 -0.413491
730 -5.72953 -2.0497 -7.32679 0.409166 -0.227436 -0.714481
757 -4.82553 -2.81067 -7.18428 -0.0965651 -0.622725 1.7422
136 -3.97812 -1.84724 -8.64448 -0.975837 0.67429 -0.378795
712 -4.00896 -2.71794 -7.88471 0.141835 1.03341 0.751172
713 -3.00566 -1.94314 -7.79725 0.796705 0.0503656 -0.494113
398 -2.95015 -2.64938 -8.70313 -0.156286 -0.531052 -0.142765
404 -2.3093 -2.80725 -7.86393 0.121973 -0.0832628 2.20126
425 -2.23264 -1.82175 -8.55384 0.833711 0.879817 -1.32816
427 -1.49549 -1.86378 -7.6918 -0.723211 -0.447983 2.01451
402 -1.47083 -2.5951 -8.51284 0.724854 -0.779621 0.788396
408 -0.697927 -2.61794 -7.71785 -0.0696577 -0.637447 1.4234
429 -0.679662 -1.8271 -8.50419 -0.589424 0.461604 -0.300174
1728 -1.07496 9.5477 -1.14776 -1.23715 -1.65519 -0.609181
416 -9.77936 -1.15147 -7.78583 -0.301262 -1.66706 -0.301294
437 -9.85493 -0.330464 -8.53744 -0.587444 -0.443744 1.0447
440 -9.04605 -0.318363 -7.48551 -0.00835594 0.198584 0.707899
439 -8.84903 -1.11569 -8.47912 0.890162 -0.814733 0.389347
726 -8.24718 -0.999782 -7.54289 0.104198 0.609377 -1.33064
468 -8.10479 -0.189519 -8.34487 1.84264 -0.80386 -0.00269367
203 -7.59737 -0.205102 -7.3576 2.02421 0.0454549 -0.484014
753 -7.33048 -1.11699 -8.32752 0.871001 1.41799 -1.05607
153 -6.6681 -0.162008 -7.97445 0.529437 0.420692 -0.62032
1018 -6.50776 -1.35209 -7.36385 0.7695 0.344863 -0.979244
155 -4.79309 -0.98977 -8.83776 -0.412001 0.361156 -1.6454
448 -5.81854 -1.05982 -8.1013 0.454975 0.435436 -1.17727
467 -4.83182 -0.107434 -8.15151 0.468234 0.892043 -1.25284
446 -4.04356 -0.938092 -8.09284 -0.651118 1.09928 -0.575205
183 -3.08833 -0.249453 -7.61084 -0.863278 -0.298669 0.307824
423 -3.04279 -1.02234 -8.39076 -0.327009 0.376609 -0.558485
428 -2.27874 -1.06446 -7.6849 -0.0959687 -0.941114 -0.800338
449 -2.33781 0.0279843 -8.34188 -0.305863 -0.777265 -0.14458
426 -1.53091 -0.901168 -8.40856 -0.00102791 0.522178 -1.31322
451 -1.46203 -0.148237 -7.57912 -0.246075 1.0484 0.993677
432 -0.713377 -0.961931 -7.63805 -1.75427 -0.754343 -0.0706353
453 -0.60852 -0.212701 -8.47318 2.08323 -0.419132 -0.486897
2014 -0.377512 9.50987 -0.340418 -0.750982 -0.56312 -0.0332405
438 -9.0321 0.452786 -8.3141 0.945407 1.58378 0.41308
749 -9.37791 0.691462 -7.29514 -0.13769 1.9663 0.0673541
434 -10.1384 0.799287 -8.21535 -1.63811 0.314954 0.288558
466 -8.31465 0.619293 -7.53034 -0.922348 -1.17832 -0.229528
1355 -7.58734 1.39554 -7.43055 -0.182882 -0.547587 -0.0774002
464 -8.80251 1.67665 -7.19807 -1.03857 -0.635148 -0.78527
463 -7.50256 0.625357 -8.17476 0.0678457 -0.611574 0.890785
3060 -6.62413 1.35968 -8.05081 1.02755 -1.19662 1.26746
179 -6.82662 0.664481 -7.1692 0.42629 0.65217 -0.238266
470 -4.86522 0.857446 -8.71524 -0.970803 -1.06506 1.27086
204 -5.81292 0.473513 -7.94939 -0.789431 -0.939886 -0.56222
1333 -4.91307 1.58087 -7.85061 -0.702114 -0.132603 -0.0977084
158 -3.79187 -0.0699739 -8.59914 0.323531 -0.0470642 0.71609
469 -3.9861 0.717133 -7.87042 0.40812 0.279048 -1.01809
164 -3.06109 0.744373 -8.48068 0.370185 -0.351204 -0.498555
471 -3.25486 1.58214 -7.63854 -0.478349 0.0490607 1.22846
473 -2.23776 0.665741 -7.48287 -0.471666 -0.908525 0.655555
185 -2.17956 1.50061 -8.28962 -0.410387 0.434593 0.00378014
450 -1.49499 0.784762 -8.29266 -1.26178 0.867226 0.763703
477 -0.742121 0.610584 -7.61016 -1.52038 0.70675 -0.856144
1961 -3.17044 7.79044 -0.204442 0.524381 -0.277673 0.174041
199 -9.23607 2.55845 -8.92286 -1.01286 0.300778 0.738906
461 -9.5017 1.66445 -8.06635 -0.513491 0.724976 0.465359
772 -9.5329 2.77564 -7.18768 -1.04638 -0.00692012 -0.270315
180 -8.45346 1.38288 -8.19891 0.0320121 -1.07397 -1.27952
773 -8.81455 2.45508 -7.89908 0.312189 0.735934 0.918685
490 -7.8445 2.35826 -8.31364 -0.038181 -1.09783 -0.0256316
2748 -6.84488 2.26781 -8.61597 -0.255438 0.195438 -0.631882
3373 -6.96901 2.27629 -7.43547 -0.627386 -0.185199 -1.32161
782 -5.90085 2.04841 -7.95103 0.459229 0.265119 -0.848735
206 -4.03208 1.58637 -8.42161 0.135517 0.176145 1.03939
233 -4.09385 2.94839 -8.72278 0.183593 -0.316636 -0.598867
207 -3.97808 2.45549 -7.61043 1.08562 0.453879 -1.13245
188 -3.10952 2.3909 -8.48279 0.257844 0.490732 1.48404
211 -1.4905 2.45747 -8.25949 -0.323023 -1.33051 0.75039
476 -1.43959 1.50999 -7.43727 -2.02788 -0.52324 -0.417723
519 -2.87448 2.50109 -7.47715 2.13282 -0.600728 -0.388034
1984 -4.72294 9.3645 -0.316291 0.52459 -0.875889 0.115761
474 -0.594149 1.54144 -8.17065 -0.563247 -0.0582031 0.77415
480 -0.879315 2.41942 -7.39371 0.812554 -0.999198 -0.484445
298 -7.99875 4.77039 -10.0781 -1.28645 -0.371593 0.596263
1046 -9.47113 3.44856 -8.05728 0.288919 1.17528 -0.1764
1085 -9.53483 4.2834 -7.44033 -0.26082 -0.290962 -0.598271
482 -8.10903 3.36455 -8.32354 -0.0562467 -0.316374 2.05002
1610 -8.55804 4.18521 -7.86044 -0.549962 0.194631 1.1516
1332 -7.47324 3.32323 -7.46284 -0.631584 0.30714 -1.34368
2779 -6.55354 3.05327 -7.90283 0.414925 -0.0118667 0.801812
518 -5.49398 2.91637 -7.58785 -0.879347 -0.307345 0.814873
1069 -3.33245 3.54188 -7.91096 -0.311397 1.02546 0.807436
1669 -4.50744 3.48023 -7.8674 -1.34196 0.349498 -1.28411
236 -2.31091 3.09958 -8.05188 0.454264 -1.23782 -0.455659
499 -1.57878 3.48581 -7.36265 0.559247 -0.685409 -0.155129
788 -1.37765 4.01248 -8.22935 0.409375 -0.442276 -1.39102
497 -0.534272 3.3356 -8.01232 0.0961179 -0.168104 0.99729
502 -0.763515 4.28009 -7.33718 0.998059 0.335715 -0.198983
2894 -7.42811 -6.9922 -9.52581 0.235716 0.305903 -0.0827086
1374 -9.23048 4.85954 -8.32095 -0.479187 0.778981 0.703101
509 -10.1085 5.94982 -8.04245 0.263188 -0.123971 -0.220446
247 -8.5051 5.63284 -7.70208 0.476648 1.55942 -0.525438
783 -2.33856 4.27508 -7.80361 1.27337 -0.000702921 0.0257757
525 -2.05121 4.99054 -8.52549 0.0642578 0.140104 -0.779993
805 -1.57089 4.96246 -7.47063 0.0768232 -0.320575 0.607419
760 -2.54171 5.64872 -7.78069 1.02873 0.472224 0.0990884
239 -0.621869 5.10207 -8.21274 -0.0989308 0.886053 1.44555
240 -0.646667 5.93853 -7.45513 -0.00664434 -0.333664 -0.665081
521 -1.46139 5.79411 -8.09784 -1.0186 -0.182626 0.673464
531 -10.1432 6.65128 -7.11339 0.347216 0.361986 0.388513
506 -9.14064 5.96486 -8.61924 -0.430601 0.362821 0.806568
533 -9.96115 6.88489 -8.65674 0.420454 0.535024 0.320337
3395 -8.95187 6.70059 -7.74101 -1.34075 -0.0452997 0.251276
2507 -3.25009 6.17756 -7.08622 0.646 -1.31283 2.00565
548 -2.17547 6.49455 -8.5457 1.60887 0.936856 0.235531
549 -1.53367 7.00663 -7.80197 1.03371 0.56732 -0.221657
285 -0.745257 6.67357 -8.40999 0.906436 0.735178 1.39163
536 -9.84347 7.58708 -7.8256 0.0876584 -0.120464 0.397527
559 -9.04513 8.62522 -7.47215 -0.245033 1.49768 0.148486
557 -9.73256 8.50068 -8.58491 1.24015 -0.32861 -0.780563
297 -8.52301 8.53044 -8.35486 0.39956 0.475537 0.825377
566 -2.43461 7.60321 -7.99469 0.449718 0.349179 1.13516
546 -1.54704 7.63404 -8.65558 0.83695 0.335497 1.997
573 -1.5682 8.38771 -7.99762 0.0196359 0.337215 1.07755
264 -0.496291 8.29783 -8.69704 -1.22891 1.41352 -0.617041
552 -0.642279 7.71749 -7.8119 0.594967 0.127867 -0.427635
293 -9.56502 -10.1618 -8.61353 2.07735 0.877047 1.24748
295 -9.02141 -10.0441 -7.72775 -0.445503 0.428607 -1.67473
560 -9.58699 9.43198 -7.80261 -0.143266 -0.0778924 -0.987567
12 -8.45896 9.50299 -7.67141 -1.79938 0.0408183 0.0478474
558 -8.94085 9.49141 -8.74584 0.915549 -0.321921 0.135717
2511 -7.79904 8.232 -7.53257 -0.00222056 -0.967895 -0.154246
572 -2.40591 9.22145 -8.19417 -0.948346 0.103802 -0.475392
307 -1.54323 -10.2935 -8.12226 -0.8555 -0.9923 1.07935
309 -1.35688 9.26125 -8.67564 0.110287 0.489357 -0.491432
310 -0.490887 10.0378 -8.53688 0.609579 0.103479 1.10583
576 -0.669946 9.082 -7.84026 -0.343085 0.902236 0.616589
584 -9.89446 -9.49533 -6.20171 -0.920529 0.272833 -0.296925
582 -8.85205 -9.34457 -6.84717 -0.129748 -0.958523 -0.365733
583 -9.05769 -10.1931 -6.06731 -0.870777 1.28086 0.382966
588 -8.29222 -9.54985 -5.90018 -0.28038 0.0938565 -0.00500141
852 -8.29136 10.2458 -6.75341 -0.310045 0.151828 -0.462051
562 -6.96418 -9.34264 -6.63373 -1.68505 -0.161058 0.576439
823 -7.40774 10.2119 -6.06366 -0.981871 0.161685 -0.1884
299 -6.23996 -10.1571 -6.52324 0.264405 -0.898596 -0.10924
589 -5.37488 -9.44012 -6.47212 0.688924 -1.37347 -0.0657082
15 -4.30691 -9.60672 -6.46141 -0.190534 -1.18578 0.12384
830 -3.60747 9.86746 -6.30739 -0.710039 0.0494647 -0.67874
596 -2.24178 -9.4452 -6.22914 -0.0588215 0.556772 0.240445
594 -1.42727 -9.61126 -7.23327 0.359394 0.125376 1.37457
618 -2.30557 -8.8969 -7.19285 -0.806503 1.41786 -0.476806
600 -0.546084 -9.51929 -6.22078 -0.387347 0.636275 -0.229464
605 -9.78913 -8.50239 -7.03386 0.167684 -0.940559 0.403682
608 -9.88068 -7.74515 -6.26382 -1.494 0.962358 0.393036
607 -8.91017 -8.62664 -6.04352 0.899416 2.62408 1.21317
606 -8.79914 -7.79885 -7.1057 -0.981247 -0.0540693 0.896067
609 -7.95515 -8.90287 -6.62907 1.168 0.235916 0.450455
612 -8.11312 -7.78316 -6.09731 0.709197 -0.138475 -0.263901
611 -7.17089 -8.65501 -5.94974 0.775654 -0.572615 -2.41296
347 -7.12932 -7.78939 -6.60828 0.568802 0.0205209 -0.0389764
278 -6.20959 -8.66834 -6.55213 0.339966 0.911683 -0.356471
587 -6.38797 -7.72901 -5.78703 -0.311004 0.448555 0.974033
541 -4.7285 -8.59723 -6.33962 -0.162637 0.195986 1.2622
592 -5.59909 -7.89938 -6.52867 -0.0152363 -0.338807 0.498787
326 -3.23721 -8.24699 -7.33352 0.0946006 -0.509607 0.927872
328 -3.01308 -8.63967 -6.28044 0.31051 0.0971671 -0.028829
61 -3.82914 -7.74643 -6.45423 -0.39641 0.513772 1.4746
929 -2.29669 -7.76009 -6.74384 -0.483951 -0.378041 -0.940872
619 -1.40884 -8.73893 -6.10922 -0.957442 0.817094 0.289897
621 -0.625848 -8.83488 -7.00291 -0.24779 -1.30705 -1.22308
622 -0.193926 -7.88001 -7.27278 -1.21368 0.662918 0.0729518
624 -0.566151 -8.03762 -6.23818 0.365067 -1.08505 0.0655152
629 -9.76398 -7.00527 -7.05928 0.853062 -0.727212 -1.16055
632 -9.83623 -6.19744 -6.28405 0.387674 -0.669433 1.28252
631 -9.03021 -7.15767 -6.26695 0.855254 -0.723217 0.12264
630 -8.74843 -6.32471 -6.98515 1.31443 0.891158 0.223945
634 -7.98025 -7.02337 -6.74434 -0.280409 -0.898145 -0.162712
636 -8.17655 -6.23871 -6.12573 1.04904 0.803459 -0.273077
610 -7.24551 -6.90561 -5.97593 -0.360868 0.563064 0.212419
971 -7.26207 -6.08785 -6.83729 0.129927 0.969487 -1.18918
665 -6.36097 -6.93289 -6.83995 0.269514 -1.60684 -0.402834
325 -4.67289 -7.01832 -6.40913 -0.136909 0.930906 -0.355632
563 -5.51186 -6.21145 -6.78795 -0.622816 -0.135909 0.468753
685 -3.92281 -6.16234 -6.36272 -0.231002 0.0564867 -0.451583
637 -3.06474 -6.84878 -6.30674 -0.517985 0.72247 -1.82767
349 -3.07544 -6.1098 -7.05673 0.449579 0.630222 0.0145682
569 -2.22485 -6.80591 -7.3483 0.133231 0.567119 0.340096
953 -2.19798 -6.04732 -6.39686 -0.762463 -1.31678 -0.254762
955 -1.31958 -7.16051 -6.32163 0.248972 0.0307076 0.312138
669 -0.13187 -6.18073 -7.20441 0.0598503 -1.39933 -1.63579
643 -0.885068 -7.04068 -7.40024 0.212381 -0.977614 0.456329
647 -0.569371 -6.04145 -6.22384 -0.698673 0.213045 -0.206169
644 -1.36308 -6.02681 -7.09917 1.29453 -0.155729 -0.401047
4369 -0.208507 -7.04386 -6.46289 -1.22124 -0.0450345 -0.475722
653 -9.58536 -5.39235 -7.13965 -0.00300054 -0.610602 -0.0476432
655 -9.00901 -5.39723 -6.29184 -0.237609 1.13969 0.185192
654 -8.81823 -4.5014 -6.9458 1.1967 0.564223 -0.411596
656 -9.66054 -4.41304 -6.20594 0.297516 0.925422 -0.52586
969 -8.06908 -5.44353 -6.98363 1.77494 -0.0892556 1.1911
681 -8.15459 -4.60669 -6.09107 0.562895 -0.240779 -0.00839476
660 -7.34466 -5.29211 -6.14563 -1.33195 0.00375342 1.18181
284 -6.38011 -5.1895 -6.72437 0.568124 0.908547 -0.769538
707 -6.64546 -4.39109 -5.87119 -0.953431 -1.11008 -0.049373
3188 -5.44048 -5.09801 -7.26318 -1.35014 0.134365 1.01773
40 -4.65483 -4.34363 -7.32368 -0.28709 0.281514 0.266934
399 -4.69876 -5.35953 -6.50391 0.486768 0.979407 -0.700948
400 -3.84203 -5.15178 -7.06679 -0.397309 -0.0276943 0.256274
977 -3.04957 -5.27101 -6.33002 0.406515 -0.353556 0.876023
373 -3.85286 -4.44045 -6.34107 -1.52682 0.843887 0.516571
691 -2.15578 -5.17842 -7.049 -0.414808 -0.781802 1.34809
978 -2.21884 -4.4173 -6.34028 0.550074 0.834917 -0.958043
667 -1.54285 -5.27571 -6.21829 -1.09915 1.32759 0.706379
672 -0.525566 -5.20074 -6.98468 0.439671 -0.459971 -0.25943
677 -9.71118 -3.71704 -7.0765 1.27789 -0.549845 1.07491
966 -8.9398 -3.68147 -6.1384 -0.214082 0.466569 0.796396
679 -8.20002 -3.62709 -6.87509 -0.638741 0.76138 0.178952
1281 -7.41745 -3.75546 -5.85016 -0.318735 -1.00074 1.53092
688 -7.41153 -4.40996 -6.73704 -1.38934 -0.31527 0.472683
3277 -6.53619 -3.58081 -6.65414 -0.656035 -0.305043 -1.22261
1307 -5.79579 -3.67164 -5.70895 -0.523582 -0.398504 0.287537
1282 -5.6743 -4.46492 -6.4829 0.750679 -0.8497 -0.793998
421 -4.93288 -3.67597 -6.43344 0.767378 1.07254 2.50928
686 -3.94283 -3.62322 -7.18591 1.01998 -0.0511415 1.28171
980 -3.10307 -3.67064 -6.26293 0.452479 0.144153 -0.78986
374 -2.91186 -4.47265 -7.02199 0.939197 0.0698603 -0.701562
380 -2.27194 -3.54596 -7.00415 -1.87322 1.34279 -0.782672
692 -1.58514 -3.62968 -6.17622 0.0380489 0.975174 1.07023