ITEM: TIMESTEP
129000
ITEM: NUMBER OF ATOMS
6912
ITEM: BOX BOUNDS pp pp pp
-1.0259855680060181e+01 1.0259855680060181e+01
-1.0259855680060181e+01 1.0259855680060181e+01
-1.0259855680060181e+01 1.0259855680060181e+01
ITEM: ATOMS id x y z vx vy vz
8 -9.7731 -9.38326 -9.47098 0.637252 -0.0398 -0.813517
7 -8.80216 10.2323 -9.10065 -1.19487 0.596826 -1.0367
11 -7.89667 -9.22435 -9.38421 -0.732032 0.554143 0.981606
3445 -2.83522 -9.98687 -9.50491 0.889538 -0.644418 -0.455264
887 -0.054128 -10.1993 -4.39622 -0.21491 -1.11112 -0.715088
20 -1.93478 -9.26669 -9.30884 0.121538 1.46521 -0.533659
43 -0.791454 -9.24459 -9.78624 0.785512 0.763308 0.796993
24 -0.100101 -10.2061 -9.64004 -0.587082 0.68965 -0.14843
333 -0.162677 -9.40407 -8.8467 0.45934 -0.261222 -1.31761
32 -9.58548 -7.67763 -9.3961 -0.00847078 -0.546228 0.373855
31 -8.79746 -8.5185 -9.29141 -0.107207 0.635881 -0.0241698
278 -7.98305 -7.43229 -9.39276 0.824033 -0.244024 0.314474
3377 -1.95787 6.69554 -10.0536 -0.0866319 0.765095 0.124751
281 -2.79323 -8.50256 -9.56487 -0.626546 0.923878 -1.61214
336 -1.69837 -7.64632 -9.08236 -0.94492 0.000491492 0.154119
44 -1.70453 -8.48439 -10.0015 -0.169282 -0.471102 -0.540169
357 -0.826946 -7.82875 -9.82847 0.109613 0.136137 -0.484241
509 -10.1225 6.04299 -8.14933 -0.567052 0.476845 1.24574
245 -9.73111 7.07689 -9.89647 -0.756602 -0.601393 -0.0963355
330 -0.867783 -8.59071 -8.96628 0.844025 0.685273 0.312333
56 -9.6292 -6.09708 -9.38562 0.652667 1.26246 -1.02017
53 -9.57314 -6.88038 -10.2053 -0.780301 -0.750267 -0.755617
30 -8.89013 -6.936 -9.38664 -0.849335 0.432809 -0.393675
36 -7.78077 -6.0885 -9.37481 0.0153679 -0.0730976 0.178807
983 -0.152998 -3.44105 -4.40158 1.52305 0.28119 -0.458267
41 -2.96232 -6.95462 -9.78261 -0.704475 -0.0857848 -0.800239
66 -1.57167 -6.9038 -9.94264 0.0631231 0.106382 -0.243734
3212 -2.31756 -6.13755 -10.1 0.267108 -0.244263 0.562105
37 -1.96353 -6.05999 -9.02603 0.17237 -0.288135 0.0783564
638 -0.678637 -6.9802 -9.05156 -0.0317588 1.38218 -0.533918
72 -0.876479 -5.91222 -9.56861 0.0359184 -0.523441 1.19765
633 -8.79974 -5.2867 -9.34332 0.139848 -0.727799 1.17441
80 -9.704 -4.55994 -9.35565 0.424193 0.16652 0.89013
12 -8.10431 -8.51077 -10.183 0.0780754 -0.953668 -0.0140741
3275 -7.84541 -5.13429 -10.0411 0.242829 -0.312251 -0.683936
372 -8.02102 -4.38982 -9.25827 1.02669 -0.176697 0.212522
81 -6.94993 -5.30052 -9.14187 0.80223 -0.289122 0.363551
3250 -6.38783 -5.34414 -10.1088 0.834345 -0.414225 1.24908
2989 -6.1795 -4.48418 -9.46861 -1.41503 0.176806 0.156559
766 -0.241817 2.76502 -6.56511 -0.831555 -0.0460259 0.50168
254 -4.20516 -4.38589 -10.0519 -0.399971 -1.69456 -0.103555
2482 -2.82814 -5.22088 -9.58323 -0.365183 0.108766 -0.915576
93 -1.58798 -5.13417 -9.6941 -1.56697 -1.35987 -0.159771
95 -0.883148 -5.02629 -8.92496 0.17405 0.448269 0.736014
96 -0.916176 -4.28404 -9.76588 -0.166648 0.789781 0.0624332
2005 -4.60308 -9.41284 -0.116334 2.14038 -0.740452 0.670251
103 -8.76282 -3.57235 -9.32313 0.220558 1.33086 0.0694366
104 -9.62001 -2.9204 -9.50265 -0.903916 2.06434 0.00844197
105 -7.92853 -3.52961 -10.0423 -1.60686 0.573643 -1.04936
107 -7.02719 -3.43421 -9.33622 0.962927 -0.95521 1.06481
370 -7.14781 -4.3389 -9.92544 0.820253 -0.325678 0.460506
395 -6.21221 -3.58397 -10.1325 -0.279365 -1.08393 0.445867
684 -5.4277 -3.64539 -8.72949 -0.973946 -0.889736 -0.263098
3260 -4.73542 -3.47652 -9.74058 0.717586 -0.374474 1.12012
135 -3.78161 -3.3196 -8.93869 0.247004 -0.0718231 0.124815
375 -2.81211 -3.3679 -9.62523 -0.805745 -0.673901 -0.610668
378 -1.93043 -4.12019 -9.46633 -0.757624 0.438935 -0.0945742
115 -1.23946 -3.26175 -9.5252 0.0971309 -0.335386 -0.505519
1452 -8.1238 -8.74995 -0.0376245 0.368325 -1.03882 -0.16747
414 -8.94207 -1.93869 -9.30441 0.595099 1.72811 -0.0758488
125 -9.69838 -2.00003 -10.2014 1.31482 0.170404 0.717756
127 -8.63664 -2.72389 -10.0587 -0.144765 -0.0339968 -1.92111
126 -8.09114 -1.80349 -9.94353 -0.33681 0.405889 -0.196154
393 -7.96054 -2.73814 -9.14715 0.109545 -1.09246 -0.189707
441 -7.02767 -2.29619 -9.0577 0.778124 0.156504 -0.21473
390 -7.26097 -2.67787 -10.0506 -0.00961757 0.430212 0.440875
417 -6.00758 -2.75896 -9.12799 0.270549 -0.406085 -0.684003
129 -6.25912 -1.91261 -9.73906 -0.104823 0.316236 -0.515915
397 -5.1775 -2.5169 -9.85673 -1.17254 0.694932 -0.242169
442 -5.39596 -1.80821 -8.84888 0.240259 0.874761 0.968525
133 -4.72827 -2.78855 -8.88713 -0.310372 1.05722 -1.05159
418 -4.66796 -1.51901 -9.67036 -1.64607 1.1381 0.8598
3303 -4.05201 -2.40337 -9.86416 0.459924 -1.38634 -0.354045
422 -2.96104 -1.62547 -9.50067 0.834856 -0.539097 -0.390859
116 -2.09799 -2.55127 -9.45744 1.48571 -0.0146679 -0.974427
3405 -0.45912 6.81251 -9.95375 0.501971 -0.619555 0.436242
141 -0.403321 -1.57088 -10.2069 -0.53389 0.637257 -1.86513
120 -0.452227 -2.38392 -9.47338 -0.53165 -1.32947 -1.77441
139 -1.23698 -1.69582 -9.30798 1.91456 0.465899 1.20256
114 -1.29777 -2.45099 -10.24 -0.544445 1.59779 -0.737113
128 -9.81883 -1.12936 -9.29781 -0.326204 0.52539 0.0271197
150 -9.05242 -0.412952 -9.10569 0.432623 1.40807 -0.431829
146 -9.79045 -0.384216 -10.0164 0.530402 -0.443795 0.248733
149 -8.9638 -1.04113 -9.96044 0.567482 0.139235 0.904576
151 -8.21491 -1.06207 -9.18935 0.867285 0.30919 1.55243
3324 -8.09065 -0.26442 -9.84405 0.130837 1.07374 0.0108864
3297 -7.16511 -1.15408 -9.82925 -0.364416 0.126336 -0.539508
3300 -6.40465 -0.0773609 -9.86545 -1.02207 -0.142382 -0.11836
132 -6.40903 -1.02803 -9.06245 -0.174792 0.373222 0.329514
465 -7.10095 -0.256622 -9.11565 0.00373834 -0.690434 -0.766737
130 -5.53879 -0.92573 -9.8132 -0.199422 0.185241 0.0130024
184 -4.42308 -0.116364 -9.58373 0.757473 0.693324 0.0895804
155 -4.51377 -0.82796 -8.8251 0.916498 -0.758352 -0.0740592
160 -3.70882 -0.917894 -9.45384 0.207173 1.43541 0.141044
1997 -9.18212 9.39731 -0.130148 -0.519404 -0.210556 0.788358
1007 -0.0893839 -1.92369 -4.50357 1.59234 0.75184 0.15957
140 -2.0833 -0.99408 -9.32751 0.0905503 0.108542 -0.0968611
159 -2.89604 -0.21233 -9.35965 -0.0951571 0.160366 0.65351
144 -0.510835 -0.918079 -9.23809 0.640911 -0.301375 -0.650227
138 -1.27763 -0.828691 -10.1262 -0.338371 0.692932 0.0059051
152 -10.0479 0.544473 -9.23162 0.729371 -0.356077 -0.516315
175 -9.2348 1.3132 -9.08444 0.028683 -0.469698 0.646516
3343 -9.10795 0.505861 -9.80619 0.074249 0.00568612 -0.416399
173 -9.96503 1.50714 -9.90323 -0.146574 0.301748 -0.378138
156 -8.16559 0.497427 -9.20576 -0.239165 1.08261 0.772899
3367 -8.23895 1.33313 -9.90935 -0.0101465 0.160214 -0.3777
490 -7.39505 1.48825 -9.23877 -0.587552 -0.302961 -0.618222
177 -7.29515 0.602547 -9.72814 -1.06583 -0.675099 1.10962
178 -6.3349 0.371132 -8.71465 -0.000868363 -0.578117 0.468613
515 -6.26388 1.27253 -9.47494 -1.22662 -0.608556 -1.13286
3040 -5.45528 0.395148 -9.59098 -0.296851 0.183706 0.154967
1071 -4.68426 1.28097 -9.62374 1.34428 0.12687 -0.097789
3371 -3.74352 0.791272 -9.39227 -0.755934 -0.445822 0.507933
1921 -10.1937 3.42192 -2.31746 0.0833665 -0.332117 0.243437
161 -1.96996 0.0197983 -9.99746 1.578 1.02609 0.314852
164 -1.88513 0.791174 -9.25349 -1.29085 -0.00825228 0.21758
163 -1.24209 -0.0903523 -9.26815 0.00403014 -0.435182 1.60438
165 -0.458886 -0.133182 -10.0807 -0.129536 0.244486 -0.576404
189 -1.21997 0.835178 -10.0339 0.546603 0.198814 -0.127091
168 -0.293798 0.886568 -9.27842 -1.13446 -0.654789 -0.27183
223 -9.11138 2.17348 -9.77674 0.625388 -1.74726 -1.93646
2746 -8.42926 1.99174 -8.96689 0.85227 0.658356 0.673853
1636 -10.1965 5.12614 -2.26974 -1.41751 -0.451674 -0.376381
233 -6.58995 2.20915 -8.88322 -1.46419 -0.352086 0.403013
3373 -4.59382 2.34987 -8.54105 -1.50369 -0.220277 -0.409307
231 -3.67116 2.4547 -9.20502 0.775539 0.847139 -0.504337
206 -2.84929 1.47792 -9.17235 0.264536 -0.756603 0.594981
782 -3.71546 1.47474 -8.52218 -0.602864 1.3662 -0.399381
1057 -10.1853 2.22631 -2.82646 0.616638 0.52898 0.147474
3374 -2.06395 2.44328 -9.25903 -0.888179 -0.617943 0.0430305
3332 -2.12739 1.65169 -9.98516 0.192265 0.139829 -0.176252
213 -1.3054 2.47102 -10.0636 -0.104984 1.03222 -0.405294
187 -1.15866 1.69982 -9.36358 2.09886 0.129987 -0.924652
192 -0.372681 1.64506 -10.0563 0.682828 0.554442 -1.23159
215 -0.617794 2.65291 -9.04131 -0.578194 -0.244343 -0.113164
225 -9.40313 3.2292 -9.59704 1.85187 -0.274975 1.56982
228 -9.38554 3.97651 -8.72476 0.321673 -1.12253 -1.11763
334 -0.0723501 -7.81847 -8.90312 -0.37874 -1.04186 -0.315693
770 -8.64028 3.94155 -9.51497 1.32311 -0.459666 -0.558534
491 -3.33051 3.4083 -9.56897 -0.372626 -0.642585 0.877541
963 -10.1885 -3.45156 -4.15538 0.501941 0.991834 0.0503703
3404 -2.39925 4.2141 -9.45832 -0.51376 -0.110382 -1.26485
3399 -1.43674 4.08444 -10.0595 0.751731 -0.485286 -0.0217676
209 -1.37627 3.30029 -9.38216 -0.0613503 -1.02037 1.8123
498 -0.707901 4.39989 -9.30244 -0.812715 0.801805 0.359338
3384 -0.534007 3.49444 -10.0715 0.0417922 0.0922981 0.163175
200 -9.03519 4.9287 -9.72815 1.82357 1.09902 0.716153
221 -9.93623 5.47445 -10.0198 -1.18624 0.559277 2.16359
219 -10.0398 4.99007 -8.94635 -0.161228 -1.01259 -0.259846
506 -8.88944 4.91865 -8.7177 0.21991 0.421751 0.107785
2462 -2.16925 5.95133 -8.95654 -0.070645 0.333305 -0.9774
195 -10.1149 3.20481 -8.70259 0.11228 0.184315 0.120372
525 -1.44948 5.20479 -9.27258 0.174111 0.565447 0.492117
3403 -0.531564 5.21585 -10.0188 0.384692 0.204566 -0.00620877
261 -0.678398 5.95575 -9.24672 -0.993569 -0.133284 -1.08021
3308 -1.99793 -1.70613 -10.1735 -0.530711 0.836373 -0.330581
224 -9.74029 6.11799 -9.21997 -0.323719 -0.205044 0.175726
247 -8.9596 6.98951 -9.1643 0.0293756 -1.56127 1.10403
119 -0.146221 -3.44236 -9.65352 -0.631911 -0.486443 -1.39878
249 -8.07139 6.84664 -10.0397 -0.0128488 1.10656 0.738875
3395 -8.5685 6.00178 -9.2229 0.896214 -0.442099 -2.33214
2492 -2.24021 7.62702 -9.36759 -0.53706 0.238066 0.729871
2507 -1.30927 6.77214 -9.17331 -1.08683 0.279576 -0.593431
3432 -1.27503 7.70398 -10.0576 -0.314005 -0.968643 -0.444539
270 -8.95668 9.42203 -10.1499 0.323133 0.30222 -0.296477
248 -9.97201 7.9041 -9.22537 0.659171 0.698851 0.471123
246 -8.92214 7.91327 -10.0603 0.0400656 0.662116 0.525546
252 -8.07669 7.74557 -9.30887 -0.960813 -0.649984 1.47059
273 -8.08881 8.61391 -10.0403 0.0696924 0.551208 -0.377129
561 -7.34939 7.61472 -9.98784 -0.571261 -0.495641 -1.01997
3423 -3.65343 7.72949 -9.60589 -0.37656 -0.546905 -0.212863
3223 -8.75159 -7.75401 -10.1641 -0.536834 -0.755775 -0.0232846
570 -1.27216 8.49372 -9.25887 -0.0370624 -0.266147 -0.513542
3455 -0.548844 7.56965 -9.24547 0.0409933 0.530978 -0.268672
282 -0.331297 8.31601 -9.95476 -0.224538 -0.40127 0.0370866
272 -9.59303 9.47473 -9.29674 0.481254 -0.917475 0.290856
271 -8.93341 8.63569 -9.27313 -0.296474 -1.07026 0.999649
3443 -6.41811 7.94457 -8.95202 0.814722 -0.696015 -0.494468
276 -8.18701 9.41986 -9.18865 -0.0902522 0.495918 0.702218
258 -2.10434 9.60266 -9.36755 -0.0105008 -0.138139 0.471356
305 -1.26545 -10.1128 -9.45578 2.02871 -0.81853 -0.129349
23 -0.516275 9.2263 -9.31864 -0.454204 -0.385908 0.262733
296 -9.65988 -9.37041 -7.87774 -0.432333 0.0670039 -0.695265
295 -8.8995 -10.132 -7.86667 -0.409886 -0.072971 -0.655053
294 -8.84411 -9.32607 -8.67272 1.34409 1.07442 -0.435293
300 -8.21466 -9.24722 -7.64221 0.151457 -1.69513 0.0393989
297 -8.0117 -10.0262 -8.42576 0.477701 -0.0411998 1.79682
823 -6.43006 -9.60497 -7.49391 -0.973481 -0.678633 0.219655
569 -2.76366 -9.05999 -8.58217 -0.506048 1.12657 1.27151
10 -3.66668 -9.44509 -8.93139 -0.112432 0.880893 0.994627
854 -3.14144 -10.1242 -7.86076 -1.54113 -0.297592 -0.375217
617 -1.9738 -9.3747 -7.87064 0.141878 -0.270353 -0.832047
306 -1.13549 -9.50093 -8.613 -1.38345 0.408019 0.236035
312 -0.39068 -9.50697 -7.75883 -1.4927 -1.11481 -0.917652
317 -9.56365 -8.47906 -8.61737 0.0649784 0.451056 -1.37862
320 -9.74775 -7.61414 -7.74941 -0.630581 0.871595 -0.630713
319 -8.8944 -8.38186 -7.72091 -0.0923918 0.928349 1.79835
318 -8.77036 -7.62942 -8.50168 0.354898 -0.818563 0.176396
3204 -8.05335 -8.54132 -8.42581 1.21121 0.268651 -0.355159
322 -8.10847 -7.6732 -7.57028 -0.13732 0.130052 1.62049
40 -7.50448 -6.91144 -8.71427 -0.201957 2.21086 0.162565
299 -7.13768 -8.58258 -7.65 -0.0616822 0.831509 0.245128
61 -2.8232 -8.20012 -7.46999 -0.432388 0.240323 0.14282
563 -2.45974 -7.75065 -8.42887 0.849302 0.874399 -0.788577
329 -3.70615 -7.56291 -7.54827 0.384917 -0.579003 -0.998812
326 -1.76802 -8.59085 -8.46079 0.317733 -0.505723 -1.19057
327 -1.87957 -7.551 -7.44085 0.832859 0.361831 -0.262205
641 -1.05987 -8.63567 -7.72155 -1.20063 -1.21903 -0.0110939
331 -1.0055 -7.73264 -8.28884 0.535606 0.3996 0.820487
622 -0.101463 -7.672 -7.43084 -0.136638 0.545141 0.102273
2169 -5.31668 -3.54229 -0.106261 0.0634433 -0.696343 0.724193
341 -9.63124 -6.91542 -8.54407 0.771481 -0.240233 -0.152618
344 -9.56124 -6.15173 -7.90683 -0.185505 0.119853 0.503136
343 -8.85694 -6.86747 -7.6855 -0.914071 -0.390102 -1.35784
342 -8.76482 -6.05253 -8.5885 -0.0431219 0.150511 0.391951
324 -7.893 -6.1568 -7.73333 0.476391 -0.0943196 0.22851
3452 -3.35014 -5.72892 -8.73022 -1.99269 -0.569689 0.445128
3188 -3.04291 -6.7679 -8.15396 0.257452 0.0715863 0.567181
645 -1.82484 -6.85534 -8.33276 0.269599 -0.61107 -0.680469
83 -5.45115 -4.27167 -10.1729 -0.594131 0.271601 0.0385308
359 -0.164308 -6.77809 -8.12147 -0.53835 -0.473434 -0.175808
643 -0.951506 -6.80318 -7.26539 0.029271 0.0177429 0.444847
356 -1.04209 -5.9459 -8.41089 0.423996 -1.15323 -0.706893
365 -9.52682 -5.30526 -8.5314 0.265441 -0.364129 -0.0316201
348 -8.82345 -5.33606 -7.63027 0.227227 -1.24606 0.925096
79 -8.85882 -4.48648 -8.57376 1.02827 -0.76159 -0.643049
86 -8.10539 -5.28962 -8.49371 -0.304105 1.40859 0.342299
367 -8.19198 -4.44049 -7.71611 0.348962 0.194191 -0.550399
88 -7.38211 -5.27092 -7.57367 -0.727762 -0.303905 0.0267218
350 -6.51776 -5.1282 -8.07948 1.17734 0.0439319 -0.089389
682 -7.27149 -4.48483 -8.46357 -0.181235 0.386229 -1.3556
687 -5.53869 -4.61463 -7.9103 1.43719 0.466284 0.674696
399 -4.69561 -4.53487 -7.23513 0.801126 0.0806094 -1.63532
325 -4.20962 -6.06237 -8.04522 0.446382 1.0709 -0.843095
424 -2.89042 -5.04023 -7.99237 -0.689268 0.464982 0.246646
376 -1.99205 -5.04356 -8.66288 -0.663076 -0.48873 0.1462
92 -2.02212 -5.82433 -7.95019 -0.431764 -0.213203 0.712691
668 -2.11764 -4.20982 -7.98983 0.7346 1.66246 0.465363
382 -0.241686 -4.22592 -8.80351 0.42013 0.0275927 1.15302
354 -1.28421 -4.95918 -7.91417 0.968529 1.07778 -0.328397
383 -0.225457 -5.24394 -8.01376 -0.368604 0.712791 -0.918256
368 -9.68835 -4.39242 -7.87584 -0.165476 -0.167942 -0.200481
389 -9.65624 -3.71267 -8.65284 -0.991472 1.11873 -0.333982
657 -9.02029 -3.60005 -7.5559 0.349318 -0.542194 -0.277654
55 -8.10661 -3.5629 -8.5781 0.0864615 -0.332158 -0.357894
366 -7.36793 -3.67187 -7.57091 -0.199128 -0.0380303 -0.174004
664 -6.49785 -3.63247 -8.20506 0.642457 -0.917525 -0.274813
445 -4.82135 -3.65944 -7.95121 -0.480911 -0.0624515 0.664243
419 -5.8088 -3.41561 -7.32908 -0.62227 -0.787865 -0.251437
3428 -3.88447 -4.16536 -8.16049 0.0397694 0.706166 -1.26487
112 -2.91442 -4.26632 -8.95583 -0.962673 0.669159 0.370504
1289 -3.10219 -3.58951 -8.01839 -0.428131 -0.798893 1.09434
401 -2.06841 -3.35159 -8.68681 -0.242503 0.481918 -0.854743
403 -1.46159 -3.13664 -7.76644 -0.427909 1.11085 -0.0162362
379 -1.23648 -4.05179 -8.64099 -0.270973 -0.690001 0.417494
381 -0.618493 -3.87818 -7.78374 0.0884578 -0.327355 0.354718
405 -0.600215 -3.19287 -8.64523 0.457195 0.18315 0.658484
392 -9.86058 -2.83215 -7.71483 -0.143609 1.76189 0.51057
413 -9.93298 -2.039 -8.5626 0.334983 0.366293 0.0776999
725 -9.05081 -2.07806 -7.61216 1.27631 0.333933 0.333504
391 -8.95221 -2.89483 -8.47592 -0.00257147 0.260725 0.960041
678 -8.17815 -2.91767 -7.56028 -0.0640085 0.135345 0.234251
415 -8.22818 -2.03829 -8.43564 -1.35143 -0.412667 0.871189
420 -7.49325 -2.01439 -7.57241 -1.01081 0.427946 0.789842
658 -7.33234 -2.80127 -8.1607 -1.14933 -0.507285 0.374148
369 -6.62738 -2.74887 -7.37401 -1.03132 0.231731 -1.13626
443 -6.47799 -1.81406 -8.23876 -0.0726806 -0.904323 0.683148
396 -5.60903 -2.68838 -8.1854 -0.0506819 0.316877 1.20748
733 -4.64964 -1.82596 -8.00111 0.332765 -0.065674 -0.300508
757 -4.76483 -2.71529 -7.3612 1.09994 0.0705933 0.230416
730 -5.62062 -1.98704 -7.41943 -0.315353 0.468082 1.65884
136 -3.90781 -1.7602 -8.70737 -1.79632 0.239069 0.706043
712 -3.95965 -2.71699 -8.08519 -1.65617 0.775383 0.652954
398 -3.05154 -2.4426 -8.74727 1.13231 1.58253 -0.339015
713 -3.087 -1.71991 -7.84776 -0.900269 1.0593 -0.468192
404 -2.31722 -2.57068 -7.91006 -0.340545 -0.516643 -0.390939
425 -2.25343 -1.70693 -8.55827 1.08365 -0.365388 -2.18506
427 -1.44106 -1.82724 -7.77658 -1.26229 0.604413 -1.60598
402 -1.37942 -2.53922 -8.66411 -0.00346479 0.0617456 1.17235
408 -0.669403 -2.4861 -7.79816 1.34787 0.648286 -0.500898
429 -0.564366 -1.79256 -8.51642 0.901403 -0.421438 0.88058
416 -9.86398 -1.3741 -7.62406 0.270256 0.0150102 -0.643226
437 -9.94334 -0.524925 -8.41123 0.66911 -0.0516182 -0.134803
440 -9.10027 -0.532331 -7.78166 0.269349 -0.39676 -0.0263634
439 -9.16698 -1.38982 -8.44207 0.0670957 1.10478 -1.25857
726 -8.43731 -1.24267 -7.55263 0.187819 -0.110505 -0.618346
468 -8.0224 -0.295337 -8.3871 1.43659 0.945372 -0.413319
753 -7.32634 -1.32869 -8.51127 0.521114 0.259129 0.276503
203 -7.54469 -0.729273 -7.58853 -1.23384 0.114758 -0.87225
153 -6.57508 -0.492702 -8.05987 -0.266545 0.799879 1.0969
3352 -5.47664 -0.31661 -8.76733 -0.348121 -0.363623 0.500373
448 -5.66517 -1.07215 -8.06713 -1.00741 0.889421 0.762746
467 -4.54554 -0.115422 -7.89198 -0.27882 -1.82672 0.170246
1042 -5.76136 -0.453831 -7.09563 -1.21636 0.777328 -1.03875
446 -3.8299 -0.891882 -7.84836 0.404944 -0.603359 -0.573992
183 -2.85899 -0.260603 -7.89149 1.11103 0.758357 -0.901916
158 -3.71334 -0.135824 -8.55084 -1.85745 -0.763349 0.0877021
423 -3.0652 -0.993562 -8.62777 -0.805455 -0.313632 0.0751629
428 -2.17897 -0.982337 -7.59067 -0.345137 0.220184 1.12334
449 -2.15389 -0.226841 -8.5915 -0.309207 1.93827 0.724992
426 -1.30236 -0.864319 -8.4387 -1.16524 -0.336058 -1.40849
432 -0.625821 -0.969359 -7.5267 0.581436 0.267109 -0.0588193
453 -0.601603 -0.0438364 -8.3479 -0.129523 0.612293 0.095673
2014 -0.365811 9.46248 -0.322543 -0.892753 0.151001 0.857318
438 -9.11309 0.341 -8.47545 -0.0703267 -1.33072 -0.814895
749 -9.59545 0.49314 -7.31877 -0.265741 -1.00342 0.968068
180 -8.32518 1.14137 -8.18799 -0.27191 -0.657443 -0.193655
463 -7.28157 0.381514 -7.85674 -0.00788134 1.01934 -1.44158
466 -8.55364 0.323666 -7.52885 -0.660269 2.00893 0.128647
1355 -7.54702 1.50738 -7.53061 -0.451615 1.82033 -0.363977
464 -8.71617 1.49072 -7.33205 -0.203949 -0.242892 -0.237124
3060 -6.53143 1.21336 -8.23969 -0.401881 -0.224946 0.547624
179 -6.37041 0.35236 -7.36524 -0.869727 -0.211755 -0.278517
204 -5.47921 0.45666 -7.91916 -0.215685 -0.793856 -0.752128
470 -4.73869 0.612932 -8.69412 -0.852564 -0.996659 -1.55538
1072 -5.45209 1.39254 -8.69045 -0.675679 0.776427 -1.64012
1312 -5.89363 1.3848 -7.34651 1.01121 1.05954 0.960899
469 -3.90336 0.658896 -7.84625 0.422381 0.692188 -0.664513
207 -2.77607 0.618654 -8.39913 0.0511488 -1.33657 -0.159653
473 -2.02913 0.868677 -7.66131 0.327076 -0.82329 -0.948275
450 -1.10519 0.936522 -8.54413 0.209464 0.104782 0.612842
451 -1.36297 -0.0725523 -7.697 0.013349 -0.921177 -0.4979
477 -0.660143 0.932106 -7.6314 -0.138758 0.28383 -1.08771
176 -9.46837 2.44451 -8.78173 -0.177303 0.128772 0.393883
461 -9.47726 1.31911 -8.06645 -0.468771 0.614446 -0.511588
772 -9.55369 2.49647 -7.30966 0.395868 -0.903131 0.334509
199 -8.54508 2.40705 -7.89185 -0.502185 -0.636156 1.13502
773 -7.6538 2.43727 -8.28235 -0.288189 0.65867 -0.680816
1333 -4.843 1.29343 -7.69511 0.243113 0.10447 -0.734644
230 -3.66269 2.4184 -7.95271 -0.155567 0.882225 -0.378995
3375 -2.7863 2.50229 -8.43636 0.307381 -1.47861 0.0126028
471 -2.77314 1.61421 -7.79276 0.891205 -0.608949 -1.24909
185 -1.95782 1.71367 -8.57803 0.835586 0.474832 -0.0185529
188 -2.19539 2.56688 -7.61021 0.214041 1.15488 1.1655
211 -1.49687 2.64109 -8.35321 -0.27335 -0.530602 -0.330984
474 -1.47311 1.72753 -7.58216 -0.102817 0.673678 0.619972
501 -0.560254 1.87494 -8.3166 0.660059 -0.162547 -0.803033
480 -0.735123 2.66819 -7.58801 -0.290514 -0.655093 -0.907737
1150 -0.096348 9.37162 -5.04068 0.265424 -0.760511 0.704768
774 -8.44052 3.01404 -8.83828 0.530903 -0.489714 1.11012
540 -9.34383 3.6829 -7.60588 1.70161 -0.220071 -0.3823
2460 -8.02645 3.29681 -7.65598 0.238024 0.931115 -0.587788
1332 -8.8486 3.07541 -6.83554 -1.0838 0.0519106 -0.302056
232 -5.57773 2.1547 -8.03993 -0.564836 -0.169751 -0.0280244
518 -3.5995 3.26798 -8.59142 0.108278 0.246695 -1.18645
545 -4.10198 3.4813 -7.50022 0.781526 -0.276558 -1.17855
784 -3.24223 4.32664 -8.67735 -0.0989935 0.425865 0.208342
1069 -2.92742 3.49933 -7.80963 1.0652 0.250535 0.447017
236 -2.16758 3.39482 -8.68648 0.365143 -0.933084 -0.992486
783 -2.15162 4.1195 -7.89301 -0.0692967 -0.578124 -0.78672
499 -1.4687 3.39272 -7.5332 -0.207859 -1.19187 -0.566556
788 -1.28774 4.21896 -8.44008 0.235747 -0.634384 -0.595145
497 -0.655645 3.43743 -8.2584 0.269761 -1.49442 0.553184
502 -0.713147 4.27757 -7.54823 -0.0239553 -0.62422 0.2378
101 -9.58561 -3.76434 -10.2205 1.52082 -0.688713 1.59555
510 -9.45273 4.98275 -7.85957 -0.052737 0.220438 0.891345
134 -2.76947 -0.81755 -10.1861 -0.282226 0.236132 0.558516
513 -8.40643 4.19785 -8.20657 0.435784 -0.326209 0.817289
1621 -3.00328 4.90256 -7.73789 -0.0235163 0.0109297 0.846945
3087 -2.31128 4.91547 -8.60356 0.00168047 0.244702 -0.561516
805 -1.57399 5.05338 -7.67565 -0.953264 0.182719 -1.02837
1728 -1.2137 9.43424 -1.16419 -0.970314 -0.0942939 -0.935721
239 -0.621035 4.97156 -8.34703 0.648855 0.944243 1.06501
194 -10.0873 4.16713 -9.56211 1.03215 0.343454 0.711124
533 -9.82839 7.05769 -8.52313 -0.491141 0.42222 -0.561179
3396 -9.14667 5.97649 -8.3163 1.03541 0.446615 0.231339
1480 -4.48648 -7.68153 -0.0905409 1.36805 0.109593 1.25977
3372 -8.14861 6.64549 -8.41888 -1.05191 -0.479324 -0.613351
253 -8.42279 6.12867 -7.48064 -0.483027 0.381203 -0.00692667
548 -2.1415 6.20641 -7.65298 1.11351 -0.473442 -0.371708
521 -1.26809 5.98173 -8.36239 0.161428 -0.762179 -0.412286
237 -2.04202 6.86567 -8.50009 -0.402658 1.07946 1.06326
240 -0.698015 5.93382 -7.4355 0.152352 0.509023 -0.225189
549 -1.38558 6.96885 -7.5742 0.2631 -0.485677 0.777794
285 -0.620588 6.85211 -8.29822 -1.19088 -0.461388 -0.190963
3109 -9.12084 7.0313 -7.68782 1.08444 0.532469 0.177159
536 -9.87346 7.82559 -7.78609 0.370451 0.288055 1.08719
534 -9.07909 7.81652 -8.54555 0.715682 0.231462 0.0827177
557 -9.8549 8.72753 -8.6007 0.0551691 -0.879139 0.307004
559 -9.04613 8.48575 -7.65709 1.01326 0.617974 -0.123406
462 -8.10472 7.61455 -7.34217 0.740605 -0.46973 0.504528
538 -8.12606 8.57286 -8.35946 1.30068 0.895339 -1.69595
283 -2.25867 7.64942 -7.70647 -0.338583 0.659043 -0.37565
566 -2.36242 8.4906 -8.42215 -0.0698929 0.796726 -0.68978
546 -1.34901 7.66653 -8.45307 -0.436162 0.68741 0.638286
573 -1.34582 8.4981 -7.66063 0.151725 -1.04373 -0.251131
264 -0.527115 8.33896 -8.47021 -0.704306 2.3868 0.204398
552 -0.633534 7.72455 -7.60094 0.430731 0.247791 1.10587
558 -8.90546 9.43311 -8.32862 0.683732 -0.497135 -0.23949
293 -9.74924 -10.1798 -8.59086 0.0562021 0.31849 -0.555938
560 -9.79388 9.52088 -7.758 -1.22737 0.238864 0.0568555
564 -8.1683 9.31915 -7.41681 0.517937 -0.901795 0.0202688
589 -3.92265 9.95463 -6.96522 -1.20796 0.0623244 -0.253739
308 -2.03522 -10.2011 -8.57517 0.339178 -1.39376 -0.101727
572 -2.21399 9.32722 -7.73755 -1.18131 1.44575 0.689302
307 -1.31563 10.2069 -7.73026 -0.244196 -1.3605 -0.112061
309 -1.29552 9.40565 -8.6539 0.519448 -0.339204 -0.518449
310 -0.479356 10.1654 -8.38969 -0.406348 0.928591 0.981329
576 -0.559124 9.2189 -7.72606 -0.0482902 -0.873247 0.858472
584 -9.78546 -9.31422 -6.2426 -0.303268 0.372952 0.43043
582 -8.98503 -9.16444 -6.9671 0.0336509 -0.513417 -0.20666
581 -9.9639 -10.0827 -7.0754 -0.22014 -0.514308 0.558558
583 -9.16071 -10.1578 -6.19604 0.727207 0.150496 0.309731
588 -8.33271 -9.3806 -5.96903 -0.0168778 0.827882 -1.2607
585 -8.21913 -10.0884 -6.79725 -0.460979 -1.13666 -0.479448
609 -8.15122 -8.43043 -6.82877 -0.24717 -0.988534 -0.257704
562 -7.52566 -9.29023 -6.86636 -0.142688 -0.317442 -0.123156
586 -5.415 -8.92666 -6.68918 -0.768031 0.436354 0.208738
332 -2.88266 -9.36489 -7.073 -0.296376 -0.13982 -1.26166
15 -3.6293 -9.57999 -6.43058 -0.160318 -1.02727 -0.908038
596 -2.20859 -9.22187 -6.24421 0.971588 0.0568087 0.652413
594 -1.2007 -9.37134 -6.92147 -0.362268 -0.677628 -0.770282
600 -0.629465 -9.51222 -6.05866 0.303278 -0.581448 -0.0853475
605 -9.72007 -8.44587 -7.08715 0.205613 -1.32389 0.0277153
608 -9.78885 -7.70574 -6.05949 0.102014 0.150183 -0.355615
607 -9.01877 -8.44164 -6.09831 -0.718004 0.312143 -0.905442
606 -9.0433 -7.58738 -6.98964 1.02533 0.53818 0.061965
612 -8.22209 -7.74836 -6.02644 0.871446 -1.2778 0.22125
611 -7.50109 -8.62957 -6.00408 0.545538 1.21638 0.449509
347 -7.35189 -7.6667 -6.79934 0.520861 0.147161 0.818629
323 -6.5468 -8.41049 -6.7036 -1.70208 0.565591 0.480907
637 -5.01409 -8.11091 -6.19405 -0.378409 0.570865 -0.138213
279 -4.7966 -7.10296 -6.1112 -0.633848 -0.948419 1.28195
328 -2.97502 -8.52604 -6.38759 0.109752 0.0699928 0.875472
349 -3.21246 -7.43703 -6.7035 -0.769687 0.501217 0.193629
618 -1.90745 -8.62014 -7.07647 -0.148217 -0.0116469 -0.0170269
929 -2.086 -7.78405 -6.39639 -0.438928 0.0300521 -0.465517
619 -1.25452 -8.6388 -6.04722 0.971751 0.438955 -0.574226
621 -0.19961 -8.68253 -6.93787 -0.709794 -1.33828 0.0348563
355 -1.09043 -7.90788 -6.88781 0.19355 -0.0885114 -0.00407727
624 -0.529892 -7.85586 -5.99374 -0.394637 0.524803 0.0441994
631 -8.92432 -6.83667 -5.96363 -0.122441 0.82183 -0.162039
629 -9.80428 -6.81212 -6.98737 0.255836 0.118172 0.537141
632 -9.73465 -6.05307 -6.06507 -0.259377 0.893973 0.348763
630 -8.96626 -6.14116 -6.82502 0.72373 0.083039 0.0567415
634 -8.07867 -6.85831 -6.80122 -0.800325 0.122038 -0.375932
636 -8.14114 -6.06464 -6.09242 -1.34484 -0.916323 0.958939
610 -7.49038 -6.90797 -5.9567 -0.554282 -0.895289 0.0776447
971 -7.30282 -6.07034 -6.7016 0.408985 -0.108956 -0.142013
616 -6.51247 -6.97719 -6.79546 0.269069 0.414068 -0.21395
659 -6.55201 -6.17904 -5.80262 -1.05768 1.44389 0.266298
284 -6.195 -5.93803 -6.81989 -0.642237 -0.671327 -0.0746972
614 -4.83073 -6.07964 -5.80379 1.53945 -0.740615 1.01687
665 -4.44822 -6.78326 -7.17221 -0.598143 -0.501085 -0.414049
685 -4.07486 -6.09563 -6.53291 0.0206522 -0.0110427 -0.247721
351 -3.71803 -6.79343 -5.87237 -0.407261 0.860301 0.855324
974 -3.23019 -6.26557 -7.28372 -1.25359 0.67593 -0.128127
648 -2.20077 -6.651 -7.24466 -0.149204 -0.306413 0.593707
953 -2.2531 -5.84361 -6.54306 1.59516 -0.84672 -0.0638678
669 -0.152473 -6.06821 -7.24143 -0.104042 -0.482073 -0.131899
955 -1.32332 -7.04403 -6.2775 0.134825 0.309747 0.350337
4369 -0.218553 -7.0185 -6.51649 1.70016 -1.5737 -0.804775
647 -0.660094 -6.19006 -6.12442 -0.0884697 -0.92047 0.160859
644 -1.20459 -5.82926 -7.1311 1.86412 0.40533 -1.57226
653 -9.60436 -5.19891 -6.94312 -0.494655 1.01401 0.565657
655 -8.90335 -5.33679 -6.0173 0.00445025 1.1355 0.674016
656 -9.77259 -4.42984 -6.05132 1.00336 -0.512317 -0.403224
654 -8.8575 -4.46996 -6.93846 0.907157 0.147259 -0.412783
969 -8.11874 -5.3986 -6.95241 -1.27489 -0.742497 -1.00411
681 -8.23597 -4.51689 -6.06503 -0.954034 0.505965 -0.966343
688 -7.50605 -4.44487 -6.78335 0.547228 -0.608897 1.47892
660 -7.2248 -5.30866 -5.95351 -0.34189 0.0657192 -0.0467302
613 -6.45537 -4.86953 -6.99842 -0.876874 1.23481 0.0218986
352 -5.06038 -5.56997 -6.89325 0.491037 0.234119 -0.481908
949 -5.73937 -5.44729 -5.97977 0.859205 -0.6626 0.388989
400 -3.88542 -5.13756 -7.46293 -0.352349 0.3136 -1.48861
977 -3.33837 -5.16112 -6.51025 0.275453 0.184282 -0.0221984
373 -4.04459 -4.26479 -6.46782 0.3175 -0.439315 0.605634
691 -2.22143 -4.90705 -7.23218 0.341003 0.345516 0.117657
978 -2.41422 -4.3109 -6.37229 -0.320278 -0.59156 0.401431
667 -1.47162 -5.10787 -6.37984 -0.373194 0.863652 -0.202233
672 -0.505624 -4.7715 -7.0633 0.10781 -0.674508 0.819703
677 -9.80453 -3.73655 -6.93549 -0.661715 -0.819253 -0.325468
966 -9.00808 -3.7724 -5.9998 -0.498606 -0.194229 -0.807941
679 -8.27285 -3.57265 -6.74308 0.280497 0.155242 0.575104
1281 -7.49898 -3.71046 -6.01877 0.289812 -0.620315 -0.127966
3277 -6.58494 -3.73447 -6.69644 -0.450529 1.77525 0.222804
1282 -5.52225 -4.49187 -6.60221 0.930245 0.889877 -0.284424
421 -5.00095 -3.55927 -6.5935 0.0516804 -0.542227 0.159057
686 -4.03004 -3.44098 -7.16391 0.394593 -0.584572 0.238488
980 -3.20768 -3.59832 -6.25945 0.802342 -1.05643 -0.999285
374 -3.18665 -4.28626 -7.17606 1.23296 0.307575 0.799128
380 -2.35024 -3.46216 -7.05392 0.217481 -0.106968 -0.564835
692 -1.6454 -3.54024 -6.21992 0.49456 0.288165 0.0564261
666 -1.48425 -4.19087 -7.13463 -0.63088 -0.130042 -0.175108
690 -0.700921 -4.10768 -6.24748 -0.395436 0.42967 0.273563
384 -0.73599 -3.28645 -6.89172 -1.3409 1.84565 -0.335314
680 -9.89018 -2.94231 -6.00284 -0.78176 0.864068 -0.171964
970 -9.12746 -2.96108 -6.71715 0.127176 0.514694 0.720754
701 -9.81983 -2.17449 -6.8355 0.778606 -0.708621 -0.414307
702 -9.13619 -1.99624 -5.99444 -1.28148 0.153526 0.493293
683 -7.42643 -2.79424 -6.75403 0.924658 -0.0040422 0.330844
708 -8.35024 -2.05399 -6.69915 0.0127382 1.50905 -0.31706
993 -8.13437 -2.80952 -5.79056 0.703112 0.795692 0.1738
706 -7.46317 -1.93384 -5.8922 1.59266 0.391232 -0.0530215
705 -6.66466 -2.0183 -6.48622 1.06484 -1.26704 -0.235554
731 -5.82655 -2.61647 -6.58714 0.487558 0.241809 0.53253
1021 -4.83218 -2.00897 -6.53276 -0.54973 -0.479701 0.923381
736 -3.91232 -1.83296 -7.12 -0.506131 0.0168005 -0.489529
711 -3.94702 -2.74543 -6.38015 -0.24758 1.07757 -0.589737
998 -3.33696 -1.92709 -6.26086 -0.0732501 1.29449 -0.997874
689 -3.29041 -2.66158 -7.2312 0.937483 -1.22494 -1.00982
716 -2.4105 -1.84216 -7.08353 -0.892613 -2.14194 -0.329474
1001 -2.49762 -2.86518 -6.27774 -0.747523 -0.40227 -0.348333
715 -1.80324 -2.01494 -6.13276 0.656207 0.772607 -0.98954
693 -1.59416 -2.6052 -6.87379 -0.525543 -0.246223 1.06203
717 -0.869639 -1.69147 -6.73521 -2.27191 0.135402 0.513317