ITEM: TIMESTEP
68000
ITEM: NUMBER OF ATOMS
6912
ITEM: BOX BOUNDS pp pp pp
-1.0259855680060181e+01 1.0259855680060181e+01
-1.0259855680060181e+01 1.0259855680060181e+01
-1.0259855680060181e+01 1.0259855680060181e+01
ITEM: ATOMS id x y z vx vy vz
8 -9.70863 -9.59504 -9.45062 0.649564 -1.58811 -0.441894
7 -8.87186 10.173 -9.4921 0.704825 0.848433 1.22995
1558 -0.291267 -3.60163 -2.76002 0.251571 0.0125739 0.653695
11 -8.13105 -9.54754 -9.34861 -1.30791 -0.416559 0.0937949
277 -7.50981 10.1894 -9.37066 0.706627 -0.990327 -0.776642
1636 -10.2103 5.17727 -2.20002 0.178931 -0.321278 -0.541369
2790 -6.61115 -10.1798 -10.1993 0.55086 -0.519812 -1.02328
39 -7.36852 -9.49215 -10.1826 0.358856 -0.65789 0.48016
20 -1.85221 -9.6601 -9.38901 -0.639166 -0.696067 0.693543
101 -9.59488 -3.62779 -10.1388 -0.914299 0.797923 -0.48983
281 -2.80507 -9.64998 -8.93987 0.324833 -0.308018 -0.320295
43 -0.708919 -9.56955 -9.67727 0.364293 0.1531 1.23788
333 -0.0263105 -9.51389 -8.7532 0.732942 -0.100043 0.259017
32 -9.64653 -7.72068 -9.36157 -0.385276 0.512251 -0.0389327
31 -8.98661 -8.60366 -9.36631 0.351107 -1.13129 0.427086
2010 -1.95347 9.6912 -0.344443 -0.899135 0.375058 0.0934494
278 -8.01641 -7.73655 -9.59412 0.439735 0.866347 0.348257
1031 -0.0261352 -0.202736 -4.18737 1.06481 0.671722 -1.05777
274 -7.22071 -8.78552 -9.12169 0.882823 -0.478236 0.17435
3188 -2.72713 -8.57573 -9.47343 0.350055 0.102363 -0.512238
41 -2.22089 -7.63953 -9.98197 -0.115645 0.56661 -0.221997
44 -1.50157 -8.52534 -9.71898 0.251874 0.0359073 -0.336071
336 -1.5414 -7.55256 -9.16186 0.569364 -0.221568 -0.206453
330 -0.765924 -8.40454 -8.88265 0.922469 1.04593 -0.0192951
357 -0.664487 -7.63905 -9.76657 -1.09481 -0.398824 -0.386365
3308 -1.96981 -1.74285 -10.1937 -0.474734 -0.440276 0.272326
56 -9.54377 -6.04896 -9.4051 -0.977885 -0.00410972 -1.06511
30 -8.88913 -6.81965 -9.39693 -0.591517 1.4303 0.0399578
36 -8.08521 -6.22147 -9.26999 -0.671382 0.382577 -0.264156
1721 -2.6354 9.69142 -1.22633 0.772837 0.427776 0.426617
698 -10.2557 -1.04745 -6.61349 -0.297827 0.0581946 1.35366
37 -2.32663 -6.14774 -9.93203 -0.364297 -0.113969 1.24698
376 -1.56709 -6.02645 -9.1081 -0.579764 0.297025 -0.102818
61 -2.30149 -6.83004 -9.10909 0.22708 -0.0614976 -0.828725
66 -1.51105 -6.80298 -9.89182 2.0579 0.12229 -0.76086
638 -0.708769 -6.61294 -8.90637 0.210064 0.518453 -0.519635
72 -0.841769 -5.97303 -9.82074 0.477582 0.456071 -1.25482
2507 -2.12797 8.09646 -9.96269 -0.651283 -0.20875 1.09173
269 -9.78962 8.61892 -10.1842 0.0183636 0.359956 -0.780878
633 -8.7518 -5.18629 -9.28752 -0.998296 -0.717196 -0.348238
114 -1.17808 -2.58584 -10.1366 0.336353 -0.0301332 -0.00409386
92 -2.7961 -5.02342 -9.5958 0.249337 0.442549 0.129632
93 -1.69249 -5.2973 -9.84319 -0.24964 -0.486715 0.415379
669 -0.24555 -6.05378 -7.23019 0.408757 -0.147403 0.813395
95 -0.883907 -5.25561 -9.01765 -0.569242 0.457545 -0.34688
80 -9.71436 -4.41584 -9.3252 -0.802768 -0.927913 1.01435
103 -8.91122 -3.6509 -9.35749 -0.474027 -0.23417 -0.446944
12 -8.11528 -8.65522 -10.1073 0.606528 -0.125957 -0.0299764
372 -7.91431 -4.38503 -9.21278 -0.585474 -1.35329 -0.181135
105 -8.156 -3.57032 -10.1064 0.111304 -0.0596959 0.290246
370 -6.98795 -4.43356 -9.93799 -1.42485 -0.048684 0.0672644
107 -7.28083 -3.49505 -9.22359 0.426829 -0.038177 0.533068
395 -6.3023 -3.45169 -9.97449 0.0750338 -0.697527 0.265003
88 -5.4222 -3.35813 -8.85264 -0.189308 0.352659 0.386061
3250 -5.35397 -4.00863 -10.1979 0.0762587 -1.4403 -0.0720432
133 -4.42097 -3.48472 -9.53695 0.659193 -0.301332 -0.30789
350 -4.05429 -4.47629 -9.31426 -0.474473 0.32028 0.0397771
378 -1.95214 -4.25632 -9.53993 0.96213 0.366043 0.0150764
375 -2.85971 -3.63918 -9.54256 0.188343 -0.375646 0.179285
1668 -6.2922 8.79011 -1.22121 1.07955 -0.130411 -0.299456
96 -0.914297 -4.41294 -9.61338 -0.859795 0.207416 -0.03029
119 -0.203124 -3.48773 -9.58421 -1.01911 -0.177648 -0.654085
115 -1.16275 -3.37647 -9.37586 1.38238 1.3282 -0.574679
104 -9.70415 -2.84358 -9.33568 -0.887253 0.425751 0.688704
414 -9.05638 -1.82908 -9.27984 0.378219 0.643607 -0.869791
125 -9.6104 -2.0179 -10.195 0.166794 -0.329926 0.14061
127 -8.87703 -2.83312 -10.1192 -0.26547 0.0801203 -0.376514
393 -8.20652 -2.53016 -9.26458 -0.614719 -1.20978 0.148668
126 -7.9039 -1.97749 -10.146 -0.437398 0.52692 0.536549
441 -7.25924 -1.93421 -9.1181 0.0612006 0.449541 0.420844
390 -7.13906 -2.75652 -9.98553 0.752017 -0.318782 0.793375
129 -6.46146 -1.97454 -9.87056 -0.398776 -0.838312 -0.303488
417 -6.44086 -2.79328 -9.15077 0.257864 0.784884 -0.0909346
397 -5.4811 -2.78621 -9.77383 -0.768187 1.19348 0.375482
418 -4.62046 -1.76505 -9.63292 -1.13937 0.645805 -0.40163
442 -5.54082 -1.94585 -9.13298 0.817231 -1.11532 -1.18597
3303 -3.6325 -2.56611 -9.56223 -0.428869 -0.996393 0.458534
1715 -6.29479 -10.18 -1.09419 -1.38276 -0.163975 0.429818
422 -2.73078 -1.71984 -9.39732 -0.407141 0.354866 0.247957
116 -2.03166 -2.61729 -9.47903 0.668079 0.271002 0.335188
120 -0.568111 -2.4424 -9.28833 -0.486042 -1.22967 0.100739
141 -0.508599 -1.59633 -10.071 -0.273546 -0.316042 0.298491
139 -1.35994 -1.64308 -9.31072 0.450096 -0.0124755 0.414769
128 -9.76481 -1.08754 -9.31207 0.0160517 -0.290729 0.826305
146 -9.74797 -0.354401 -10.0057 -0.370217 -0.173052 0.291712
150 -8.86773 -0.359023 -9.21961 0.944471 -0.559738 -0.0402334
149 -8.98127 -1.12368 -10.0747 1.23863 -0.0904312 0.573733
151 -8.14544 -1.14704 -9.20474 0.388185 -0.444597 -0.124602
3324 -7.99747 -0.306167 -9.94883 -0.548972 0.398476 -0.420197
465 -7.28876 -0.342278 -9.11944 1.59869 -0.849993 -0.170075
3297 -7.31818 -1.11841 -9.87791 -0.165221 -0.696042 -0.247092
132 -6.40288 -1.15445 -9.12218 0.819898 0.712753 0.0853085
3300 -6.40497 -0.274989 -9.81026 0.350728 0.0247691 -0.97289
130 -5.48108 -0.999645 -9.62254 0.716862 -0.381454 -1.87897
184 -4.60917 -0.408262 -9.41954 -0.159554 -0.018854 0.913319
3352 -5.63159 -0.316609 -8.80993 -0.78822 0.274525 0.368243
160 -3.69799 -1.02837 -9.45785 1.53631 0.300442 0.825978
159 -3.03569 -0.222968 -9.34421 -0.611575 -0.628812 -0.0717296
3351 -3.71593 -0.0817119 -10.2156 -0.851048 0.206433 -0.32564
140 -2.13504 -0.788724 -9.35712 0.0500828 0.551911 1.13894
161 -2.14899 -0.123816 -10.1743 2.44188 -0.0637285 -0.336061
2146 -5.35052 -3.7859 -0.104216 -1.36454 0.262334 0.35386
138 -1.27795 -0.858309 -10.0636 0.110558 0.445991 0.392386
144 -0.545264 -0.975398 -9.17384 0.0146112 -0.53681 -0.848442
163 -1.35177 -0.140309 -9.33541 -0.417091 -1.43069 -0.736457
152 -9.7446 0.617341 -9.17798 0.0176661 0.50519 0.418292
173 -9.66716 1.35189 -10.0944 -0.216034 0.292029 1.20158
3343 -8.9083 0.532583 -9.896 -0.0999479 -0.448725 0.0705952
175 -8.87315 1.43219 -9.09545 0.0802238 0.0466928 0.138968
156 -8.17733 0.456162 -9.07926 0.291626 -1.10891 0.121551
490 -8.08076 1.31605 -9.78064 -0.149565 -0.153693 -1.38848
801 -7.39053 1.19371 -8.9338 0.459567 0.975992 -0.100404
177 -7.28569 0.559837 -9.77767 -0.304253 0.228958 -0.507207
3347 -6.4142 1.17072 -9.56893 -0.611107 -0.877502 -0.739762
178 -6.54342 0.404418 -8.79525 0.240116 -0.783811 0.849206
1694 -3.7059 9.44056 -0.990389 0.0667138 0.213084 -0.895368
3328 -5.45 0.392776 -9.60057 -0.254795 -0.786023 1.19834
1716 -7.36866 10.2452 -0.976248 -1.20783 0.692502 1.16554
3371 -3.82518 0.490815 -9.24956 0.110175 -0.18065 -0.2653
3327 -2.89477 0.587471 -10.1124 0.1901 -0.240558 -1.21259
1103 -0.269678 5.20749 -4.20719 0.157674 -0.177627 0.310711
164 -2.25492 0.532584 -9.27373 0.558813 -0.902351 -0.574494
165 -0.47017 -0.0345971 -9.99194 -0.146605 0.110735 0.532568
189 -1.42314 0.707757 -9.93804 0.762552 -0.362146 -0.828994
168 -0.68392 0.817251 -9.09392 -0.273239 0.828407 0.33637
223 -9.03885 2.27017 -9.86974 0.290958 0.0611688 1.15178
3372 -7.96783 2.22229 -9.09306 -0.72697 -1.01937 -0.641148
2460 -7.08702 1.8934 -9.81329 0.331155 -0.0637957 0.82685
2746 -6.47302 2.15655 -8.94609 0.156402 0.280544 0.709572
3373 -4.48576 1.37811 -9.3647 -0.0505357 0.192665 -0.951789
491 -4.80897 2.63186 -9.73942 0.466847 -1.03682 0.302219
782 -3.80378 2.1753 -9.5345 0.334323 0.936201 -0.547117
435 -10.1829 -0.271512 -7.3227 -0.118231 1.08886 -0.272668
206 -3.01661 1.25499 -9.28281 -1.29766 0.388761 -1.04841
3332 -2.15017 1.51054 -10.0327 0.186285 -0.672932 -0.949747
3375 -2.25554 2.25647 -9.19699 0.915694 0.498192 -0.255498
187 -1.38277 1.57966 -9.14393 -0.0424358 0.126822 0.168735
192 -0.607368 1.55182 -9.91234 0.467019 -0.236118 0.21925
215 -0.724082 2.37256 -9.07479 -1.36227 -0.144462 -0.416327
213 -1.35029 2.3266 -10.012 -0.88369 0.91459 0.249163
225 -9.32506 3.35316 -9.82461 0.508729 0.0200245 -1.09918
194 -9.97618 4.18026 -9.48928 -0.072604 0.887834 -0.344673
1271 -0.1742 -4.30627 -3.57233 0.12092 0.530327 1.16239
487 -7.11771 2.91229 -9.12449 0.897241 0.338856 -0.583306
200 -8.62283 4.11198 -9.63035 -0.673694 0.166504 -1.25561
539 -8.16919 3.06216 -10.2502 1.40679 0.0392547 -0.18548
198 -7.34798 3.86682 -10.0567 0.800364 0.892812 0.428078
500 -3.13763 2.9936 -9.31983 -0.0543984 -0.251392 0.540564
3400 -2.73934 4.14494 -10.079 0.233943 1.38174 0.583486
3404 -2.26535 4.10699 -9.20256 -0.488891 0.0839448 -0.0167159
212 -2.13471 3.22362 -10.0218 -0.200816 -0.271161 0.554888
209 -1.56685 3.1884 -9.17456 -0.835045 0.313117 -0.233125
3399 -1.4501 4.04538 -9.95222 -1.3629 0.575361 -0.684993
3384 -0.680061 3.18361 -9.75717 0.15007 0.364411 0.92762
498 -0.544737 4.13179 -9.23349 -0.878656 -0.645191 0.0594633
221 -9.84012 5.26311 -10.0939 -0.143272 1.4035 -1.11042
506 -9.10493 5.1171 -9.34515 0.963001 -0.137266 0.594834
237 -2.27095 5.21306 -9.48131 1.08747 -0.495793 0.101657
525 -1.39639 4.81232 -9.19011 0.530948 -0.553047 0.753684
3403 -0.457512 4.95823 -9.90972 -0.13637 -1.02693 -0.372168
261 -0.426819 5.67726 -9.04192 0.436169 -0.517754 1.13245
245 -9.73888 7.06337 -10.1795 -0.487889 -0.459741 -0.290482
224 -9.61882 6.13674 -9.28058 -0.783874 0.372364 0.318177
247 -8.92937 7.08527 -9.20633 0.422854 0.236559 0.587514
222 -8.99054 6.14188 -10.0663 0.301128 0.147218 -0.966277
334 -0.0533259 -7.57954 -8.8116 -0.896329 -0.825712 0.442618
3405 -0.767853 6.48514 -9.65585 0.902528 0.25567 -0.101848
3144 -1.42928 5.82932 -9.95131 -0.918585 -1.17012 0.552012
742 -0.00464517 0.715651 -6.67751 0.674273 -0.321755 0.917321
248 -9.78585 7.82234 -9.44192 -0.867034 0.652098 -0.192939
271 -8.92363 8.41478 -9.24931 1.50087 0.0845838 0.755862
1174 -0.1392 -9.45972 -3.57819 0.0903267 1.54785 0.069647
252 -8.07958 7.77114 -9.15357 -0.534469 -0.142579 0.443782
3223 -9.05371 -7.86167 -10.2559 -0.309969 -1.96499 -1.16871
3455 -0.352414 7.41115 -9.15708 -0.73381 -0.496651 -0.447778
570 -1.06562 8.32433 -9.23544 -1.4548 0.313569 -1.41664
282 -0.402104 8.31065 -10.0427 -0.1887 -0.123881 0.612722
3432 -1.12653 7.45911 -9.96692 0.237606 -0.812992 -1.07213
272 -9.65527 9.41352 -9.39743 0.221288 1.17789 1.33925
157 -3.64088 -1.72092 -10.2058 1.70826 1.02528 -0.38004
276 -8.15281 9.13651 -9.53129 -0.251811 -0.420223 -0.131099
1007 0.012329 -1.81268 -4.30466 1.57687 0.0584646 0.275285
258 -2.02288 9.13182 -9.52823 -0.53007 -0.422081 -0.870686
303 -2.65309 9.13226 -8.50196 -0.265117 -0.0853626 0.223571
59 -1.82675 10.0987 -10.1841 0.202695 0.290001 -0.152136
305 -1.21367 10.0107 -9.21304 -0.636998 1.22818 -0.552866
23 -0.384734 9.23054 -9.2026 0.0945717 -0.965809 0.0987062
17 -1.06124 9.18655 -9.99547 0.231656 1.02232 -0.524667
296 -9.73149 -9.32038 -7.8032 1.51699 -1.28383 -0.105412
294 -8.95553 -9.3737 -8.61594 -1.33922 0.0581409 -1.22546
293 -9.6285 10.1895 -8.66625 -0.341082 -0.260007 -0.56261
300 -8.27129 -9.43029 -7.77893 -0.683456 -0.617576 -0.725781
298 -7.35663 -9.65369 -8.4342 -0.25015 0.249655 -0.468699
297 -8.29518 -10.2457 -8.5578 0.0844719 -0.668368 -0.657362
617 -1.92242 -9.48014 -7.92448 -0.105877 1.33223 0.362784
329 -2.54372 -8.59888 -8.01731 -0.943656 0.260961 0.323995
854 -2.77916 10.2375 -7.9463 -0.0275651 -0.745463 1.07421
306 -1.07723 -9.33679 -8.60398 0.657914 -0.605186 -0.072425
312 -0.459959 -9.60923 -7.55894 0.211226 0.429185 0.0317438
317 -9.81503 -8.56372 -8.68357 -0.63972 0.897786 -0.407405
319 -9.01218 -8.51583 -7.84822 0.143172 -0.487986 -0.630444
320 -9.76103 -7.76763 -7.85087 -0.394583 -0.202456 0.87165
318 -8.88231 -7.67802 -8.63984 -0.276949 1.2804 0.191687
321 -8.16668 -8.68403 -8.6444 0.396602 0.82017 -0.683461
322 -8.14947 -7.81123 -7.75812 -0.761411 -0.681113 0.803216
323 -7.40914 -8.73374 -7.82517 -0.775377 -0.0899949 -1.02168
35 -7.37279 -7.82681 -8.61117 0.465646 -0.0309913 0.269327
326 -1.87504 -8.65084 -8.70708 -0.899627 1.06707 0.0727324
327 -2.06385 -7.69855 -7.95603 -0.207621 0.77519 0.404278
641 -1.37081 -8.54284 -7.76592 -0.763314 -0.111898 -0.604966
331 -0.881274 -7.62715 -8.15507 -0.0834564 -0.569621 -0.183213
137 -2.79491 -2.60861 -10.2451 -0.771067 -0.558278 -0.221334
341 -9.67299 -6.87072 -8.58639 1.00703 -0.557452 0.374038
344 -9.76335 -6.09594 -7.79537 0.471572 -1.0691 0.00017209
343 -9.02408 -6.79611 -7.85048 -0.349554 0.309273 1.5428
342 -8.95989 -6.03863 -8.60156 -0.570107 0.630602 0.654162
40 -8.07699 -6.98169 -8.38727 -0.53055 0.299692 0.47882
324 -8.21065 -6.03026 -7.66548 0.780601 1.08845 -0.752024
645 -1.56074 -6.83956 -8.21072 0.225579 1.21284 0.746383
424 -2.01627 -5.82148 -8.01609 -0.177057 0.568107 -1.21265
1452 -8.13072 -8.8878 -0.156607 -0.237151 -0.920776 -0.298462
356 -0.901552 -5.89415 -8.1526 0.354893 -0.00392931 -0.638558
365 -9.63381 -5.20429 -8.56695 0.0637467 -0.197093 0.400843
348 -8.98102 -5.37946 -7.6079 0.307147 -0.0170114 0.687854
368 -9.65859 -4.44082 -7.70228 -0.117257 -0.557117 0.742388
86 -8.07124 -5.29308 -8.49248 -0.541076 0.511953 0.688798
684 -7.22491 -5.39849 -7.70724 1.19407 0.222526 -0.40153
112 -1.99677 -5.01683 -8.81354 -0.500254 -0.702552 -0.568325
354 -1.26733 -5.05286 -7.83821 0.327023 0.45819 -0.939169
383 -0.140563 -5.10086 -8.02684 -0.276217 1.8631 0.664217
79 -8.83378 -4.35725 -8.49402 -1.04535 0.334902 0.0394238
389 -9.66766 -3.75497 -8.51841 1.30887 0.0691551 -0.303845
657 -8.95806 -3.59667 -7.63296 0.1778 -0.196906 -0.166445
367 -8.34666 -4.51347 -7.55215 -0.104566 -0.84432 0.961292
55 -8.14153 -3.56662 -8.58397 -0.405229 0.173829 0.662372
366 -7.24571 -3.57702 -7.42679 0.763296 -0.328263 0.105603
678 -8.22083 -2.72529 -7.74511 0.299526 -0.532093 -0.903132
682 -6.36246 -4.58783 -7.34847 -1.03586 -0.0808976 -0.680855
664 -6.4089 -3.81087 -8.2783 0.83096 -1.4435 0.0182257
369 -6.43736 -2.78284 -7.30066 -0.720195 -0.412587 -0.192054
709 -4.68061 -3.48752 -8.05386 0.361007 -0.353706 0.662989
419 -5.61197 -3.50987 -7.56629 -0.737721 -0.972727 -0.302284
352 -4.85434 -4.3662 -7.37649 0.269908 -2.03086 -0.2562
135 -3.73549 -3.33748 -8.66337 0.0758316 0.104141 0.0941257
400 -3.80606 -4.51489 -7.9063 -0.164352 0.756189 0.610553
399 -2.85366 -4.1962 -8.66924 -0.323713 0.114512 0.528232
1289 -2.97239 -3.38377 -7.95847 0.0174052 -0.144233 -0.342459
668 -2.11468 -4.27067 -7.9402 -1.00826 0.289896 -0.581366
401 -2.08676 -3.47479 -8.7486 -0.273731 -0.858156 0.720844
382 -0.240938 -4.36671 -8.84915 0.000654438 -0.11947 -0.382219
403 -1.44158 -3.41216 -7.87886 -0.28356 0.439191 0.173875
379 -1.32632 -4.24441 -8.59868 0.321829 -0.732274 -0.659939
381 -0.658047 -4.19166 -7.62403 -1.02594 0.190638 -0.661612
405 -0.528768 -3.42852 -8.40992 0.228513 -0.320464 1.54827
392 -9.83641 -2.89882 -7.77401 0.906882 -0.559025 2.46347
391 -8.98431 -2.83096 -8.52836 0.163241 0.344694 1.71889
413 -9.86945 -2.02925 -8.43954 -0.155587 1.48858 0.583072
725 -8.97844 -2.05502 -7.54732 0.952976 -0.526248 -0.442033
415 -8.05115 -1.85085 -8.3877 0.049201 -1.3063 -0.51163
658 -7.34802 -2.72092 -8.50772 -1.10043 -1.09494 0.207517
420 -7.34034 -2.01981 -7.52001 0.125011 -0.469225 -0.444246
443 -6.46016 -2.02427 -8.43727 0.0201293 0.0113103 0.154899
445 -4.62096 -2.61445 -8.76553 -1.16646 -0.307854 -0.322467
396 -5.52757 -2.61949 -8.15909 0.474766 -0.473951 0.490938
733 -4.73229 -1.90106 -7.88031 -0.456344 0.953383 0.23897
136 -3.72029 -1.87931 -8.77027 -0.712893 0.416985 -0.637435
712 -3.95654 -2.68339 -7.89173 -0.2037 -0.61983 -0.696493
713 -3.10404 -1.89603 -7.91109 0.745049 1.04566 -0.127985
398 -2.89154 -2.6431 -8.8045 -1.12753 -0.190648 -0.00970473
404 -2.2667 -2.58642 -7.83524 -0.0976067 0.226491 -1.45888
425 -2.11853 -1.67075 -8.55088 -0.99372 -0.4885 0.0933932
427 -1.38933 -1.88062 -7.76115 0.0879187 0.278513 -0.335151
402 -1.34108 -2.56673 -8.52553 0.565391 0.405462 -0.484374
408 -0.60193 -2.66125 -7.57756 -0.300301 -0.526696 -1.13517
429 -0.634754 -1.74046 -8.49562 -0.769022 -0.384894 -1.42951
416 -9.84838 -1.29571 -7.63452 1.02503 -1.12792 -0.734388
437 -9.84146 -0.248177 -8.38552 -0.466623 0.178017 0.437429
440 -9.10104 -0.462882 -7.68889 0.912914 -1.33818 0.148794
439 -9.07082 -1.2495 -8.35371 -0.977469 0.0376565 -0.544049
726 -8.31377 -1.19138 -7.57624 -0.715139 0.307198 -0.183729
468 -8.20674 -0.420421 -8.31054 0.252427 -1.22318 0.109183
203 -7.35073 -0.557609 -7.43843 -0.418598 -0.0375122 0.535375
753 -7.20539 -1.15596 -8.37386 0.434733 -0.517561 -0.410764
153 -6.32903 -0.51918 -8.06401 0.424171 -0.87924 0.491859
1018 -6.54448 -1.28226 -7.36563 -0.914364 0.0999991 0.445029
155 -4.66211 -1.16842 -8.68152 -0.0383259 -1.32278 -1.16313
448 -5.64751 -1.37761 -8.19058 0.401275 -1.32934 -0.76908
467 -4.96132 -0.344248 -7.83347 0.721001 -0.387847 0.437433
1042 -5.75665 -0.352609 -7.12704 -1.01542 0.354982 -0.59738
158 -3.957 -0.293409 -8.45439 -1.32147 -1.05354 0.479179
446 -3.96694 -1.12648 -7.72903 1.07509 -0.150076 0.222895
183 -3.19924 -0.275937 -7.72763 1.07757 0.380192 0.286419
423 -2.97599 -1.02291 -8.54998 0.355428 -0.499199 0.608725
428 -2.25361 -0.929099 -7.6673 0.161602 -0.468964 0.465911
449 -2.26889 -0.167241 -8.41722 -0.156987 0.583228 0.425879
451 -1.53538 -0.102117 -7.60623 -0.401024 -0.112804 -0.351312
426 -1.37769 -0.858883 -8.56234 0.457598 0.792851 0.792032
432 -0.732706 -0.909812 -7.66861 -0.0535655 -0.0911913 -0.785812
438 -8.96882 0.428225 -8.23749 0.227677 0.697931 -0.789964
461 -9.53511 1.5637 -8.20068 -0.756982 1.15229 -0.308746
466 -8.18749 0.338555 -7.338 -0.351402 -0.609187 0.207336
180 -8.17364 1.11009 -8.28606 -0.566608 -0.0779099 1.29554
1355 -7.43506 1.09548 -7.40618 0.0474268 -0.344378 -0.0875345
463 -7.40824 0.397434 -8.19203 -0.743856 0.518514 -0.0190796
154 -6.63163 0.303045 -7.18434 -0.683144 -0.287154 -0.915255
515 -5.65409 1.17164 -8.76153 -0.516793 0.661521 0.317866
204 -5.7329 0.402222 -7.90166 -0.690997 0.239412 -0.625595
470 -4.83519 0.428967 -8.72862 -0.806158 0.758222 0.162402
781 -4.98299 1.43744 -7.69056 0.13586 0.40069 0.495165
469 -4.03525 0.607079 -7.6754 0.219018 0.626706 -1.20122
207 -3.10581 0.543468 -8.5614 -1.00809 -0.614619 -0.281848
231 -3.9946 1.18613 -8.51027 -0.189269 0.16569 0.545891
473 -2.4103 0.621623 -7.70726 0.731961 1.64259 -0.304017
453 -0.685292 0.0678626 -8.39258 0.350917 -0.649618 0.360783
450 -1.5627 0.754603 -8.51224 -0.416932 0.442248 0.276663
477 -0.741234 0.791193 -7.44943 -0.735086 -1.19104 1.08162
176 -9.40711 2.70492 -8.6232 0.0320273 -0.491039 -1.09749
485 -8.5464 2.19103 -8.16957 -0.273986 -1.10982 -0.632724
199 -7.4623 2.23419 -8.05669 0.492764 -0.202283 -0.680549
179 -6.54037 1.32239 -8.04726 0.245546 0.44139 -0.254325
3060 -6.80958 1.92206 -7.24129 -0.376469 -0.179855 0.497224
775 -5.87879 2.08888 -7.78967 1.72064 0.793002 1.0609
205 -5.15847 2.45868 -8.51441 -0.303055 0.548333 0.285614
1070 -5.22126 2.39214 -7.09442 0.376538 -1.12749 -0.186288
471 -3.17632 1.41165 -7.76595 0.421392 0.0464632 0.11877
232 -4.11433 2.10505 -7.84937 1.256 -1.32038 -0.138981
230 -3.14317 2.10777 -8.64052 0.642514 0.1173 -0.753865
185 -2.3165 1.48498 -8.3838 -0.450059 0.230715 -0.43774
474 -1.70457 1.59573 -7.53437 -1.37386 0.623584 -1.11897
188 -2.54373 2.30933 -7.71015 0.135021 0.576026 -0.389743
211 -1.58452 2.30859 -8.36128 -0.111893 0.791824 0.546901
501 -0.651905 1.61364 -8.29377 0.141573 0.358265 1.4562
480 -0.714125 2.30982 -7.49255 -1.00237 0.255371 0.0378722
228 -9.2431 4.22651 -8.79001 -0.648425 -0.458442 -1.00237
774 -9.36299 3.59337 -7.88333 -0.501767 0.991354 -0.212625
513 -8.51154 3.19887 -9.02721 0.56894 0.422903 -0.40245
783 -4.10015 2.77964 -8.74028 0.164014 0.389405 0.612755
1069 -3.4041 2.86179 -7.7072 1.55367 -0.100703 0.133886
236 -2.41472 3.12054 -8.48208 -0.97633 0.109908 0.4881
784 -2.62895 4.17955 -8.16991 -1.23357 -0.832957 -0.328
499 -1.54044 3.15693 -7.74387 0.296059 0.919772 0.652517
788 -1.41722 4.07101 -8.47392 -0.390644 -0.247723 0.164758
497 -0.686292 3.22954 -8.48339 -0.975456 0.419096 -0.0385575
502 -0.812109 3.96683 -7.62816 -0.366388 -0.429771 -0.43649
510 -9.51509 5.19762 -8.27602 -0.331529 -0.00794178 -0.647997
805 -1.60495 5.07169 -7.69793 -0.845276 -0.480206 0.899569
239 -0.695311 4.94791 -8.33583 1.02791 -0.489989 -0.0381725
240 -0.676297 5.7093 -7.61166 0.81081 -0.0668023 0.135949
3396 -9.13678 6.17278 -8.3305 -0.992027 -0.0907601 -0.743519
533 -9.81108 7.02021 -8.63858 0.0361953 -0.0860361 1.18776
3109 -9.25177 7.02554 -7.6783 0.681016 -0.0362642 0.316323
537 -9.53258 5.96315 -7.36398 1.07278 -0.647295 -0.160038
1585 -10.0301 -0.454751 -2.055 1.87724 -0.20129 0.371278
518 -2.24327 6.08739 -7.7797 -0.244408 0.612518 0.456409
521 -1.61956 5.86333 -8.74277 -0.134857 -0.154028 -1.05813
549 -1.26746 6.58816 -7.62187 0.140637 0.00164102 0.380212
285 -0.640853 6.54174 -8.44215 -0.443812 -0.690178 0.260666
536 -9.94613 7.80884 -7.73238 -0.60293 -1.53435 -1.01393
534 -8.97046 7.86907 -8.26745 -0.34016 0.0752494 0.79748
559 -9.09463 8.68203 -7.67941 -0.0699919 -0.251022 -1.34558
557 -9.80157 8.64329 -8.61109 0.637991 -0.586176 -0.159902
561 -8.09659 8.69305 -8.42412 -0.493116 -0.0247607 0.270315
253 -8.14 7.85567 -7.49352 0.245419 0.302507 0.656833
569 -2.77682 8.37075 -7.72789 -0.419897 -0.428933 -0.127283
283 -2.20431 7.33779 -7.79519 -0.0321679 -0.591936 -0.289152
566 -1.88836 8.4702 -8.56596 -0.578423 1.20548 -0.6872
546 -1.21277 7.50472 -8.5276 0.822242 0.685421 -0.472779
573 -1.39292 8.57375 -7.73354 0.834465 0.50296 -0.561633
552 -0.568669 7.61059 -7.6827 -0.754456 0.607954 -0.780202
264 -0.466036 8.42041 -8.29845 -1.07228 -1.08418 -0.192983
295 -9.00405 10.256 -7.77861 0.735135 1.51644 -0.299221
558 -8.80319 9.41059 -8.77455 -0.468394 -0.734522 0.346741
560 -9.82344 9.53161 -7.8177 -0.252756 1.14898 0.772221
299 -7.05124 10.0335 -7.5809 -0.179794 -0.277868 -0.212985
564 -8.18788 9.4532 -7.62429 -0.339625 -0.0340612 -0.575265
562 -7.38545 9.50992 -8.5579 -0.12334 1.12737 -0.67795
308 -2.06394 10.0119 -8.67607 0.697602 -1.24823 0.409703
572 -2.08516 9.39882 -7.6406 0.396163 -0.524926 1.90469
307 -1.2679 10.2291 -7.75236 -0.280911 0.63807 -0.417325
309 -1.2259 9.37254 -8.49449 0.22585 -0.507051 -1.23495
310 -0.482804 10.0786 -8.49228 -0.815131 0.161149 0.352774
576 -0.551507 9.14811 -7.54962 0.263391 0.0648615 -0.318699
584 -9.88711 -9.40786 -6.16421 0.545293 0.228143 0.312266
582 -9.02827 -9.38935 -6.9301 0.251533 -0.0777485 -0.684442
581 -9.80783 10.2068 -7.02841 -1.28725 0.752797 -0.41467
583 -9.10419 -10.1791 -6.15997 1.02002 -0.626988 0.577931
588 -8.24094 -9.44619 -6.12104 0.0884843 0.320885 -0.0612661
586 -7.42959 -9.62708 -7.00304 0.178458 -1.16967 0.135375
10 -5.46429 -9.55336 -6.52855 0.94913 0.367097 -0.0145066
15 -3.64961 -9.49469 -6.31603 0.959596 -0.625063 0.208937
332 -2.88308 -9.43882 -7.25891 -1.08783 -0.479582 0.433764
284 -3.64582 -8.63018 -7.09861 0.119342 0.217797 0.123806
596 -2.25175 -9.45362 -6.31927 1.40628 -0.927909 0.202506
618 -2.24898 -8.45827 -7.04536 -0.00704305 -0.358154 -1.00757
594 -1.34232 -9.37025 -7.05421 0.491829 -0.483973 0.392388
600 -0.542881 -9.44663 -6.13659 -0.168184 0.869167 0.370254
607 -9.06656 -8.47046 -6.222 0.757709 -0.117903 0.0938262
605 -9.81728 -8.60979 -7.05556 0.17361 0.0722777 -0.665487
608 -9.94541 -7.77314 -6.19413 0.374009 0.115235 1.24865
606 -8.96396 -7.69718 -7.07766 0.139307 0.0331275 0.6812
609 -8.23745 -8.64069 -7.02452 -0.38216 -0.479046 0.810537
612 -8.17531 -7.79912 -6.20046 -0.0245467 0.407602 1.66684
347 -7.11417 -7.76513 -6.92641 0.644431 -0.731712 -0.0777114
611 -7.50732 -8.67293 -6.1425 -0.36407 0.465311 0.576497
971 -6.36715 -6.85156 -6.84324 -1.09746 0.0525835 -0.412476
587 -6.57703 -8.07288 -6.06941 0.683113 0.478234 0.461996
563 -4.5223 -8.72933 -6.23868 -0.489088 -0.359416 -0.542917
637 -5.582 -7.71218 -6.65499 0.975067 -0.112551 -0.164068
665 -3.71989 -7.93404 -6.26885 -1.42347 -0.512504 -0.496934
328 -2.91283 -8.63994 -6.22932 0.281167 0.397546 -0.63012
325 -3.00819 -7.6084 -7.11664 0.170701 0.755441 -0.941445
929 -2.19323 -7.68896 -6.29501 -0.0925706 0.501245 0.102677
619 -1.3854 -8.60778 -6.25126 -0.649784 0.572415 1.08631
622 -0.146768 -7.53717 -7.24143 -0.0944253 -0.200692 -0.72977
621 -0.443968 -8.52861 -6.9235 -0.386496 0.058626 0.215139
355 -1.21772 -7.68266 -6.98483 -0.975208 0.00404896 -0.223019
624 -0.705644 -7.69056 -6.13443 -0.169021 -0.713027 -0.1762
631 -9.01915 -6.96707 -6.24104 -0.455347 0.0422842 -0.90675
629 -9.80301 -6.97194 -6.99358 0.82073 -0.020147 -0.315464
632 -9.8541 -6.14225 -6.13555 2.01328 -0.762435 -0.0551193
630 -9.07644 -6.14865 -6.90648 0.943379 0.414755 -1.31246
634 -7.91624 -7.07734 -7.02449 -0.361525 -0.149205 -1.75939
636 -8.2613 -6.17741 -6.16288 -0.121907 -0.0947287 0.460893
616 -7.32583 -6.19254 -6.76533 0.719914 -0.0225193 -0.0482222
610 -7.26735 -7.01088 -6.00741 -1.07174 -0.0789467 0.31185
613 -4.16542 -7.02618 -6.77535 0.757834 0.0456608 0.442022
301 -5.53223 -6.88281 -5.86387 -0.288534 -0.507606 1.01376
974 -3.60667 -5.78354 -6.59091 -0.505419 -1.34845 0.453902
349 -2.93742 -6.96192 -6.22993 0.28867 0.325301 -0.371315
648 -2.10188 -6.94085 -7.12766 0.0315369 -0.224798 0.932416
953 -2.31152 -5.94132 -6.31634 0.142068 0.119776 0.643804
643 -0.835279 -6.81697 -7.47601 -0.678259 0.00949283 -1.02898
526 -0.0665804 4.7983 -7.52819 -0.645044 -0.0263832 -0.539986
955 -1.2882 -6.75247 -6.27597 0.103789 -0.435014 -0.455468
644 -1.38364 -5.99907 -7.08923 0.46245 -0.287836 -0.507965
647 -0.628698 -5.90515 -6.12799 -0.17565 -0.21259 -0.31247
4369 -0.11622 -6.88862 -6.43302 -0.111351 0.260428 1.5917
653 -9.85807 -5.17375 -6.97076 1.10536 0.0210282 -1.24383
655 -8.99746 -5.22673 -6.09073 -1.07174 -1.18071 -0.651035
654 -9.00948 -4.47319 -6.75614 0.135652 -1.35598 -0.105446
656 -9.84112 -4.45839 -6.1002 0.994913 0.108731 0.129282
969 -8.16564 -5.30281 -6.75256 0.0209759 0.723969 0.124942
681 -8.26161 -4.50432 -5.95282 -0.224071 0.273919 -0.515861
688 -7.36292 -4.57854 -6.8291 0.8418 0.478989 -0.890178
949 -5.77625 -5.17012 -5.82363 -0.288028 0.206179 -0.319289
687 -6.62621 -4.50929 -5.95122 0.375502 -0.108133 -0.16463
685 -5.04835 -5.26572 -6.68343 1.16991 -0.342658 0.132497
1282 -5.60448 -4.34114 -6.53607 -0.594142 1.33538 1.28781
977 -2.9138 -5.04866 -6.36252 1.16579 0.389785 0.954983
691 -2.14472 -5.21706 -7.1016 0.447314 0.69354 0.380557
667 -1.53768 -5.26348 -6.23765 0.64617 -0.636871 -0.76667
672 -0.605286 -5.05497 -7.04815 -0.714544 1.36361 0.349664
677 -9.97863 -3.67605 -6.90265 -0.29618 -0.435916 -0.554525
966 -9.25856 -3.65784 -6.14323 -1.00768 1.85904 0.421137
679 -8.12704 -3.76399 -6.87049 -1.07474 0.174321 0.0400784
1281 -7.51361 -3.73694 -5.98123 1.15376 0.416784 0.385962
683 -7.43112 -2.83161 -6.77695 -0.466512 0.0149313 -0.379393
707 -6.50019 -3.73701 -6.66778 -0.828793 0.836995 0.492593
421 -4.87371 -3.56248 -6.56464 0.479132 -1.4377 0.00187274
731 -5.68325 -2.90068 -6.5112 0.249653 -0.451417 -0.758717
997 -4.87712 -2.94727 -5.60325 0.123247 0.0599107 0.200652
373 -3.96469 -4.52693 -6.7694 1.26345 -0.38416 -0.0619365
686 -3.89906 -3.57174 -7.17902 0.850766 0.665994 -0.758724
980 -3.01331 -3.57883 -6.14977 0.745959 -0.0529179 -0.31252
374 -2.95037 -4.27936 -7.14867 -0.553424 -1.04729 0.166232
978 -2.23574 -4.34267 -6.1181 1.58128 -0.741811 0.241733
380 -2.19221 -3.43359 -6.94627 -0.0342819 0.724191 -0.14854
692 -1.54441 -3.5193 -6.112 0.543649 0.0983117 -0.564345
666 -1.54338 -4.28728 -6.88597 0.122199 0.518768 0.93341
690 -0.852101 -4.3656 -6.11979 0.799837 -1.43784 -0.976822
384 -0.776063 -3.45336 -6.80772 -0.200586 0.625533 0.467522
680 -10.0142 -2.86616 -6.09631 -0.420924 -0.710939 -0.26815
970 -9.15621 -2.87558 -6.87198 0.113474 0.0299304 0.0151274
701 -9.90358 -2.0451 -6.81609 -0.463573 -0.525626 0.271451
702 -9.12262 -2.17295 -6.07522 0.307209 0.841127 -1.36463
708 -8.20355 -2.00987 -6.76155 0.0578163 0.184508 -0.250214
706 -7.49537 -2.01285 -5.83198 0.477704 1.41807 0.787512
705 -6.54336 -1.98048 -6.52759 0.210551 0.134218 0.14965
730 -5.50321 -2.05347 -7.19543 -0.781895 -0.216745 0.867394
757 -4.78767 -2.78295 -7.2097 0.0527039 0.0615387 -0.0947714
1021 -4.84896 -2.09607 -6.32175 -0.272598 -0.874515 0.442839
1020 -5.8084 -2.07122 -5.52928 0.660041 -0.933081 -0.109295
711 -4.06835 -2.84878 -6.30025 0.472901 -1.06348 -1.00947
736 -3.96859 -1.93835 -6.97332 -0.517037 0.377947 0.669207
998 -3.27352 -1.99446 -6.11225 -0.308672 0.424225 0.945218
689 -3.17035 -2.78729 -6.95775 -0.847161 -0.174487 -0.837201
716 -2.40057 -1.89523 -6.99983 -0.510749 0.277362 1.34154
1001 -2.35343 -2.73889 -6.14939 -0.060463 -0.802587 -0.262074
715 -1.59748 -1.89348 -6.12454 -0.660896 -0.473584 -0.131419
693 -1.53897 -2.65457 -6.98226 -1.44361 -0.276206 -1.01621
717 -0.645695 -1.6954 -6.80529 -0.18218 -0.630796 -0.140686
696 -0.78991 -2.52236 -6.14929 -0.0783257 -0.540502 -0.514079
728 -9.1466 -1.32368 -6.71003 0.236266 -0.0579304 -0.458524
752 -9.45209 -0.238011 -6.5443 -0.608764 1.16266 0.454757
3275 -7.93667 -5.19658 -10.0931 -0.0792395 -0.100008 -0.203912
1859 -10.0146 -1.87551 -0.423781 -0.858465 -0.457062 0.271286
750 -8.38747 -0.478148 -6.73775 0.923797 -0.459066 0.695395
727 -8.34767 -1.36281 -5.94424 -0.296502 -0.571996 0.936365
729 -7.38875 -1.30731 -6.58547 0.501502 -0.0458038 -0.346618
754 -6.55235 -0.484511 -6.46658 -0.161651 0.316395 0.150768
1043 -5.7938 -1.2544 -6.49142 0.223263 0.44942 0.220323
734 -4.83427 -1.20236 -7.00535 1.82568 0.696373 0.378406
1045 -4.86164 -0.351788 -6.39272 -0.249878 0.639695 -0.608306
737 -3.20185 -1.14927 -6.98372 -0.376103 0.151446 0.0903394
710 -4.12248 -0.241877 -7.12814 -0.245174 0.424597 -0.46519