ITEM: TIMESTEP
91000
ITEM: NUMBER OF ATOMS
6912
ITEM: BOX BOUNDS pp pp pp
-1.0259855680060181e+01 1.0259855680060181e+01
-1.0259855680060181e+01 1.0259855680060181e+01
-1.0259855680060181e+01 1.0259855680060181e+01
ITEM: ATOMS id x y z vx vy vz
8 -9.59425 -9.27572 -9.42561 -0.419959 1.07283 0.291933
1198 -0.0112756 -7.93176 -3.74242 -0.312582 -0.486164 0.35059
11 -8.24803 -9.50525 -9.3488 -0.00265588 -0.500188 0.558617
78 -8.89054 -4.37558 -10.1604 -0.114097 -0.371027 0.84012
6 -8.90682 -9.4759 -10.2268 0.348976 -1.45207 -0.078267
2790 -6.50497 -10.1736 -10.0221 0.294836 -0.220712 0.741199
1684 -10.2278 8.54722 -0.57429 0.689718 0.637917 -0.235796
20 -2.14359 -9.87362 -9.60361 -0.537156 -1.23842 -0.3206
281 -3.05047 -9.77006 -8.89904 -0.422455 0.503829 0.919722
43 -1.02932 -9.48498 -9.81953 -0.708143 -0.681604 1.34232
333 -0.329718 -9.33827 -8.76763 0.0765358 -1.98869 0.0316371
32 -9.56398 -7.82112 -9.41698 -0.810484 0.00613214 -1.37396
31 -8.76878 -8.56012 -9.4287 0.310149 -0.843536 1.05715
1348 -10.1247 5.22204 -3.77809 -0.89554 -0.326359 0.0533859
278 -7.96753 -7.74951 -9.33491 -0.487993 0.420907 0.378467
1452 -8.02709 -8.61625 -0.00499634 -0.381547 -1.01388 1.10053
274 -7.45024 -8.78405 -9.23031 0.685596 0.254166 -0.107386
3188 -2.56938 -8.28445 -8.89945 -0.74586 0.801078 -1.07091
1438 -0.072507 9.45232 -3.55829 0.613672 0.523059 0.018117
336 -1.62654 -7.72671 -9.0511 -1.60368 -0.13242 -0.483361
44 -1.92242 -8.80438 -9.91737 0.175244 0.562993 0.293525
330 -1.1435 -8.6133 -9.13036 0.48206 -0.647256 0.108409
357 -0.731028 -7.83081 -9.77971 0.0443141 0.0832181 1.41825
56 -9.48699 -6.16597 -9.50417 1.31011 0.274725 -0.276444
30 -8.73766 -7.00913 -9.5794 0.620403 -1.55625 -0.732408
36 -7.94935 -6.01143 -9.43587 1.59477 0.60527 -0.0265862
39 -7.29169 -9.32342 -10.0935 0.163716 -0.736734 1.99794
1487 -0.129797 -8.40333 -1.33989 -1.11329 -0.89388 0.314825
2482 -3.65707 -8.99802 -10.1832 1.15269 0.687183 0.648067
3452 -2.52749 -7.13862 -9.40346 -0.278064 0.331595 -1.53889
376 -1.51626 -6.22193 -9.09583 0.0928174 -1.30126 1.25575
66 -1.61808 -6.94474 -9.92416 -1.58136 0.561757 -0.136885
37 -2.45956 -6.04907 -10.0653 -0.580243 1.13015 0.299227
638 -0.728149 -6.95128 -9.13855 1.27693 0.317422 -0.0115776
72 -0.798442 -6.05515 -9.86555 0.00655285 -0.0926623 1.45874
270 -9.00646 9.47122 -10.189 -0.706775 -0.178808 -0.212076
633 -8.8331 -5.30903 -9.56444 0.0041932 0.191662 0.771572
80 -9.62416 -4.59392 -9.43785 0.730306 -1.19429 0.33613
3445 -2.99542 -10.0361 -10.2367 0.0635392 0.294747 -0.61619
182 -3.88153 1.39023 -9.9011 1.04562 0.336124 0.769598
838 -0.0320274 7.47352 -6.68612 0.823923 0.7528 0.879333
684 -6.1087 -4.54063 -9.71926 -0.436858 -1.08973 0.124939
92 -2.60305 -4.87869 -9.68164 -0.202916 -1.00531 -0.43117
93 -1.54349 -5.29365 -9.89817 -0.249237 -1.82513 1.23441
95 -0.663014 -5.35603 -8.96231 0.317802 -0.00672802 0.463213
814 -0.0581716 5.85072 -6.69219 0.569017 -0.881012 0.416778
103 -8.84755 -3.64092 -9.32952 -0.55892 0.519409 0.230267
101 -9.67769 -3.58234 -9.99611 0.167299 0.418066 1.11389
372 -7.92223 -4.47278 -9.32176 0.576472 -1.15958 -0.609661
370 -7.15212 -4.55641 -10.1638 1.07057 1.0329 -1.34982
105 -8.04179 -3.58074 -10.0462 0.938594 0.103164 -0.271071
107 -7.26897 -3.67658 -9.29964 0.0337761 -0.790094 -1.41523
395 -6.42117 -3.59224 -10.0061 0.00982798 0.772179 -1.31237
133 -4.41842 -3.37313 -9.78575 -0.155484 -0.512092 1.14178
88 -5.51475 -3.59885 -9.20848 0.738713 -0.33771 0.472652
350 -3.53242 -4.14888 -9.65776 -0.874824 0.9708 -0.396223
135 -3.77382 -3.51729 -8.84541 -0.664658 -0.333279 0.372053
399 -2.84666 -4.20287 -8.80859 0.221607 -0.23515 -1.35527
378 -1.86915 -4.25041 -9.35491 -0.443049 0.774716 -0.170341
375 -2.88858 -3.33014 -9.50619 -0.472291 0.88552 -0.554429
815 -0.0620499 4.9194 -6.02502 0.538894 0.320237 -0.038404
382 -0.0559033 -4.26094 -9.06848 -0.147759 0.0270001 1.85939
96 -0.864237 -4.29734 -9.74008 -0.745486 -0.261784 0.486333
115 -1.24882 -3.28938 -9.3281 0.344319 0.567045 0.0961178
245 -9.62956 6.89999 -10.2183 -0.387871 0.723448 0.361533
104 -9.74757 -2.75311 -9.23558 -1.0755 -0.629904 -0.216413
414 -8.95835 -1.92164 -9.15445 0.211232 -0.520707 -0.739143
127 -8.86046 -2.77837 -10.0005 -0.212162 -0.0325412 1.62313
125 -9.72294 -2.02026 -10.096 0.845863 -0.3885 0.0700056
393 -8.02795 -2.80686 -9.23074 -1.74575 0.325874 0.510258
126 -8.18063 -1.74304 -9.91945 -0.190385 0.964315 1.32049
441 -7.14731 -1.99453 -9.14467 0.189567 -1.16204 1.06355
390 -7.24189 -2.74207 -9.85686 2.15449 -0.150842 0.996902
417 -6.26107 -2.91079 -9.00122 -0.703657 -0.279189 -0.354867
129 -6.25271 -2.12911 -9.70803 0.231624 0.378493 0.508913
397 -5.45741 -2.79615 -9.93599 0.824063 -0.250513 1.71186
418 -4.71063 -1.85526 -9.67088 -0.236112 -0.71746 -0.733198
442 -5.51744 -2.01189 -8.90527 0.847765 -0.524256 0.0688573
445 -4.45861 -2.69961 -8.95341 0.81867 -0.469252 0.37902
3303 -3.61685 -2.53984 -9.60792 -0.143463 -0.111476 0.377822
422 -2.76011 -1.75562 -9.47479 -0.501867 0.403503 0.701099
116 -2.10148 -2.65698 -9.43368 -0.0177405 -0.236526 1.03752
195 -10.0822 3.41264 -8.92893 -0.195272 0.490058 0.206332
120 -0.49012 -2.47501 -9.35707 -0.830275 -0.490843 0.331779
141 -0.470068 -1.51972 -10.1689 1.71364 -0.0644723 -0.526235
139 -1.40749 -1.68219 -9.40045 0.239694 -0.500943 -0.639533
114 -1.19163 -2.41325 -10.1761 -0.149872 0.127602 -1.15371
128 -9.86358 -1.19373 -9.13988 -0.123302 -0.819781 0.0734064
146 -9.7456 -0.349915 -9.99989 -0.16714 -0.501269 1.00696
150 -9.07179 -0.498814 -9.13833 0.0430398 -0.0302741 -0.259654
149 -9.0061 -1.18851 -9.93509 -0.346465 0.0742788 -0.0904049
151 -8.13061 -1.17325 -9.01307 0.465053 0.166323 -0.600998
3324 -8.22633 -0.494954 -9.81749 -0.624354 0.934356 0.382799
465 -7.28169 -0.437493 -9.101 -1.16828 -0.0749364 0.203916
3297 -7.32972 -1.13714 -9.83141 0.454386 -0.46371 0.505096
3300 -6.33898 -0.475269 -9.80238 0.802744 0.300676 -0.172349
132 -6.45961 -1.26444 -8.99382 0.913402 0.482025 -0.932241
130 -5.55005 -1.27319 -9.63823 -1.18789 0.422187 0.156164
184 -4.76116 -0.385664 -9.48414 -0.0934688 1.008 0.813971
155 -4.76518 -1.12808 -8.76421 1.30189 0.802274 0.491566
3352 -5.62143 -0.329182 -8.88601 0.573953 0.106028 0.501856
160 -3.60708 -0.97944 -9.47474 0.754373 0.0693284 -0.938761
134 -2.90649 -0.760722 -10.2095 0.0186983 1.32215 -0.992393
158 -4.00525 -0.327547 -8.74457 -0.562022 -0.335922 0.154346
3351 -3.75526 -0.137202 -10.094 0.148503 0.662626 -0.571124
161 -2.20372 0.072672 -10.0903 0.158215 0.968305 -0.162931
140 -2.0839 -0.759447 -9.48733 -1.11216 -0.942901 -0.235832
144 -0.530054 -0.855865 -9.37123 0.761924 -0.746705 0.120403
3277 -6.45436 -5.5113 -10.2389 0.0852578 0.54648 0.186763
152 -9.83825 0.424841 -9.11745 -0.0529657 -1.44446 0.0827199
173 -9.77895 1.34869 -9.76943 0.718958 0.0479152 -0.0229857
3343 -8.89112 0.507849 -9.75769 -1.01187 -0.219895 0.0319382
175 -9.12196 1.22587 -8.96867 -0.459123 -0.980216 -0.0306689
156 -8.0488 0.303555 -9.05231 0.854234 0.559326 -1.17007
490 -8.1278 1.20358 -9.72485 -0.261501 -1.10386 0.659314
177 -7.18793 0.358699 -9.91453 0.240701 -0.796852 0.817905
801 -7.22162 1.4108 -9.10477 0.375601 0.639911 0.0886941
178 -6.52524 0.400475 -9.03556 -0.710162 0.301838 -0.254383
3326 -4.66448 0.668405 -9.8401 0.36833 -0.207313 0.691718
3376 -5.61645 1.47533 -10.1059 1.35379 0.986256 0.176625
3328 -5.67161 0.399441 -9.84532 -0.385984 -1.02597 0.350456
515 -5.67497 1.0645 -9.01153 -0.58399 -0.875446 1.11882
470 -4.77694 0.483295 -8.74979 0.0431764 -0.952809 -0.456922
159 -3.07302 -0.109563 -9.27194 0.647664 -0.112502 -1.1893
3371 -3.80133 0.702083 -9.06753 0.870847 -0.944486 0.177638
206 -3.0738 1.48266 -9.0608 -0.572422 -0.222137 0.736573
3327 -3.11042 0.716689 -9.89353 -0.0127568 0.422494 0.70295
164 -2.11519 0.883231 -9.2997 0.88849 0.10879 -0.844692
163 -1.22891 0.152128 -9.30082 -0.617705 -0.188614 -1.3236
165 -0.518656 0.105874 -10.1562 -1.13712 -0.925398 0.444729
189 -1.25227 0.989559 -10.0577 0.731641 0.814148 0.443417
168 -0.406117 0.869032 -9.31144 0.418868 0.274607 -0.376845
223 -8.82671 1.9607 -9.77295 -0.904213 0.761275 0.225758
176 -9.29755 2.32522 -8.70819 -0.266499 -0.673909 1.21326
1997 -9.04182 9.44109 -0.0787229 -0.713763 -0.0449489 0.10773
487 -8.26628 2.0382 -8.91601 1.99626 0.0602864 0.818574
2460 -8.17449 3.05973 -9.63492 -1.06537 1.40832 -0.585191
3347 -6.13386 2.02541 -9.17916 -0.0879623 -0.178932 0.685385
3373 -4.71589 1.61776 -9.00319 -0.834805 -0.408314 -0.659476
782 -3.7959 2.3076 -9.1716 0.108713 1.58822 0.969917
3374 -3.06161 2.47894 -10.2119 -1.20793 -0.628494 -0.0991259
1127 -0.156848 6.80056 -4.28726 -0.864181 -0.553175 0.417101
3375 -2.21417 2.28243 -9.19259 0.49443 0.555907 0.050995
213 -1.22709 2.3464 -10.0092 0.566099 0.759511 0.421148
187 -1.19307 1.69438 -9.24062 0.307235 0.558174 0.0525067
192 -0.376737 1.81445 -9.96009 1.53191 -0.160938 0.232041
215 -0.499725 2.42455 -9.13344 2.29801 0.153938 -0.665479
194 -10.1924 4.15507 -9.72245 0.657546 -1.34237 0.572327
225 -9.22724 3.14916 -9.46963 1.13519 0.27081 -0.524987
334 -0.222765 -8.05205 -8.81756 0.507339 -0.215134 0.293525
3180 -7.36097 9.45468 -10.0412 -0.245737 0.857763 0.0774971
513 -8.57597 3.26815 -8.67238 1.12881 0.959712 -0.00844712
233 -3.02585 3.11491 -9.25875 0.171669 -0.188996 0.0516868
500 -2.97063 4.37586 -10.2148 0.922185 -0.497147 -0.302661
212 -2.25837 3.19817 -9.99361 -0.771174 0.652102 0.208017
209 -1.45006 3.046 -9.26782 1.16476 0.197429 0.611959
3384 -0.598626 3.30722 -9.90457 -0.545844 -0.380943 -0.0940164
498 -0.582067 4.12421 -9.24734 -0.774027 -0.0856528 -1.20988
228 -9.41948 4.16913 -9.01952 0.128918 1.39093 -0.341428
506 -9.03698 5.2934 -9.14868 0.636332 0.698351 0.43292
200 -9.01584 4.21111 -9.99769 -0.836446 -1.37677 -0.447777
3372 -7.97506 4.21868 -8.9945 0.520863 -0.10899 1.04321
1370 -10.1326 6.12102 -2.97703 0.56154 0.797026 -1.41961
3404 -2.1164 4.01499 -9.40589 0.621052 1.04757 -0.0538286
9 -8.06657 -10.2404 -10.1587 0.519086 0.892067 -0.479474
3087 -2.17983 5.75661 -9.36464 -0.0830843 -0.118635 -1.3051
3399 -1.28148 4.17759 -10.034 -0.451161 0.0908057 0.384374
525 -1.44776 4.92729 -9.22965 -1.34477 0.132646 -0.423671
3403 -0.429128 5.06759 -9.89466 -0.343375 0.364848 -0.308999
224 -9.77438 6.0698 -9.31206 -0.626806 0.155431 0.659554
247 -9.13254 6.97315 -9.2546 1.10772 -0.0558655 0.377347
1829 -8.96798 -4.32795 -0.146195 -0.538233 0.666708 0.802578
2098 -5.29548 -6.93336 -0.197977 -0.323318 -0.342969 0.365899
249 -8.48252 6.97627 -10.0899 -0.758756 -0.571714 0.0428364
261 -0.609917 5.95962 -9.29346 0.584942 -0.232697 0.547033
3144 -1.4086 5.86813 -10.0506 -0.696877 0.743668 -1.4674
2507 -1.45815 6.71506 -9.3192 -0.516867 -0.502084 0.399573
3405 -0.483132 6.58136 -10.173 0.491465 0.229597 -0.0911175
246 -8.98172 7.94346 -10.042 -0.299744 0.689802 0.0164375
248 -9.74568 7.81271 -9.24849 -1.3987 0.169005 0.507176
197 -9.96739 2.38423 -9.52033 -0.938811 -1.26611 0.174601
271 -9.01907 8.73634 -9.26714 -0.203698 0.476324 0.98631
252 -8.34909 7.7483 -9.19631 0.618968 0.678591 -0.519929
359 -0.284515 -7.01935 -8.1381 -0.377352 0.352746 -0.297679
298 -7.38684 7.6885 -9.91126 0.648327 -0.361766 -0.460514
511 -10.1628 5.23989 -7.4085 -1.12063 0.680005 0.579111
282 -0.385844 8.10024 -10.2487 -0.30993 -0.094579 0.981491
570 -1.09208 8.14642 -9.41932 -0.348027 -0.421269 -0.234902
3455 -0.454427 7.31406 -9.31309 1.13214 -0.437898 0.681265
2175 -4.58988 -4.64718 -0.104505 0.804477 1.03905 -1.24476
7 -9.10682 -10.2563 -9.46236 0.241314 0.320817 -0.163293
272 -9.72499 9.48213 -9.3211 -1.00354 -0.261506 0.512923
277 -7.41472 -10.1412 -9.2735 -0.400817 -0.707114 -0.463258
276 -8.21062 9.4645 -9.37738 0.787777 -0.744014 0.736212
1058 -9.98615 2.28766 -4.67634 0.193171 0.435834 1.03661
561 -7.43872 8.31511 -8.90942 -0.95128 0.458894 0.2806
569 -2.7765 9.11364 -8.39285 -1.00161 -0.572012 0.923386
303 -2.89285 9.70613 -9.54386 -0.166752 -0.130629 1.30033
258 -1.97445 9.11226 -9.36956 -0.161205 0.584891 -0.326406
2195 -2.04491 8.16318 -10.0135 -0.379285 -1.41544 -0.434966
305 -1.22016 10.045 -9.41604 -0.947727 -0.300253 -0.346054
23 -0.50755 9.10931 -9.16269 -0.184258 -0.497073 0.173604
17 -1.08976 9.14071 -10.1538 0.181471 -1.37187 1.21334
3400 -2.0451 4.96754 -10.0628 0.410726 -0.517914 -0.934035
296 -9.85723 -9.54387 -7.7609 -0.119385 -0.000196649 -0.301493
294 -8.9481 -9.42833 -8.51697 -0.397852 -0.480908 -1.11985
293 -9.82864 -10.2297 -8.55311 0.500109 0.768254 1.40941
295 -9.00503 -10.1532 -7.62586 0.203715 1.16809 0.183062
300 -8.14262 -9.52911 -7.62207 0.595776 -0.697127 0.11256
297 -8.13822 -10.1837 -8.53879 0.0505472 0.313572 -1.62818
617 -2.19346 -9.38838 -7.81275 -1.09245 0.542154 0.319101
329 -3.05598 -8.91573 -8.22481 -0.779809 0.707685 0.936999
326 -2.07324 -9.18883 -8.82886 1.15993 -1.76536 -0.205113
854 -2.75586 10.0676 -7.816 -0.450099 -0.142368 -0.482305
306 -1.31801 -9.83036 -8.38976 -0.435419 0.721667 -1.0673
312 -0.62579 -9.63874 -7.63844 -1.38481 -0.304598 -0.744091
317 -9.64412 -8.57774 -8.55157 0.653947 0.961958 -0.774544
319 -9.04859 -8.68702 -7.58812 1.16865 -1.07844 -0.277946
320 -9.67055 -7.62955 -7.83736 0.533661 -1.05118 0.0513726
318 -8.84177 -7.75974 -8.57445 0.894225 -0.165276 -0.238055
321 -8.23415 -8.64637 -8.5115 -1.19932 0.315063 0.0735713
322 -8.32083 -7.86667 -7.68587 -0.284406 -0.119374 -0.444614
3204 -7.33844 -7.88074 -8.49007 -0.096487 0.206451 -0.527479
323 -7.48095 -8.5582 -7.56873 0.590393 -0.0602781 0.22176
327 -2.17603 -8.13459 -7.96839 -0.650674 0.49335 0.862506
641 -1.38261 -8.77589 -7.81555 -0.790408 0.100443 1.13888
331 -0.979547 -7.75918 -8.19138 0.518389 0.129842 -0.117625
622 -0.280736 -7.78172 -7.2644 0.114315 0.201414 -0.192632
341 -9.49697 -6.96649 -8.73217 0.0944502 0.709816 0.789899
344 -9.59609 -6.10509 -7.9916 -0.161007 0.375297 0.516569
343 -8.89988 -6.87186 -7.86762 -0.358257 -1.01006 -0.457465
342 -8.7603 -6.12624 -8.58812 1.15908 0.444266 0.576971
40 -7.99949 -6.98003 -8.53208 -1.39635 -0.919728 0.199626
324 -8.10672 -6.07771 -7.76213 0.661477 -0.174069 0.258895
35 -7.20169 -7.21659 -7.54313 0.172635 0.531673 0.681595
645 -1.75995 -6.75596 -8.14598 -0.0844548 0.0569811 0.640517
424 -2.39738 -5.88379 -7.66663 -0.215979 0.498627 0.0175278
356 -0.860144 -6.1444 -8.19001 0.00689127 0.508322 0.535375
643 -0.991026 -6.96464 -7.32431 -0.530887 -0.309292 0.0319735
365 -9.52448 -5.40833 -8.73901 -0.221006 -0.47777 -0.320517
348 -8.84945 -5.37143 -7.77915 -1.15832 1.30574 0.833228
368 -9.6441 -4.52903 -7.792 -0.321747 0.227543 1.09014
79 -8.88281 -4.40125 -8.62331 -0.613387 0.338114 -0.415114
86 -8.15658 -5.221 -8.51461 0.0341304 0.222964 0.356328
367 -8.03563 -4.56035 -7.71409 0.312202 0.564626 -0.0705985
682 -7.21989 -4.6153 -8.60399 -0.336427 0.411584 0.07118
400 -3.69712 -4.36701 -8.06619 -0.5045 -0.28556 -0.0221007
61 -2.51028 -6.08798 -8.84791 -0.556742 -0.524434 0.486675
112 -2.11211 -5.01666 -8.55536 -0.43148 0.0178041 -0.891301
383 -0.179146 -5.33233 -8.0301 0.462139 -1.14435 -0.758845
354 -1.31877 -5.09906 -7.92384 0.495618 0.0106884 -0.748479
389 -9.70187 -3.61643 -8.50846 1.23144 -0.573613 0.205618
657 -8.82035 -3.659 -7.72757 0.250466 -0.651239 -0.922409
55 -8.11093 -3.6097 -8.47901 -0.784203 -0.0302882 -0.550084
366 -7.28724 -3.86668 -7.77708 0.926564 -0.119075 0.327852
664 -6.37606 -3.83613 -8.48421 0.0349766 -1.07958 0.684612
369 -6.60711 -2.85257 -7.48889 0.765623 0.792793 -0.0824096
709 -4.78784 -3.51822 -8.06151 0.318758 1.17886 -1.14615
419 -5.63375 -3.66334 -7.31481 0.156071 1.3878 -0.545525
1289 -3.10111 -3.49935 -7.96664 -1.07106 0.287911 0.75451
374 -2.89733 -4.36319 -7.22337 -0.280289 0.27693 0.694071
686 -3.73758 -3.71605 -7.17353 -1.11327 0.278487 0.438763
401 -2.11421 -3.35874 -8.68086 0.336834 -0.332053 0.0458875
668 -2.17101 -4.08209 -8.0181 -0.980059 -0.505937 0.176321
403 -1.33342 -3.40082 -7.89159 0.67501 -0.431258 0.257356
379 -1.12158 -4.36309 -8.66743 0.282191 -0.0107196 0.606916
381 -0.405558 -4.20202 -7.90641 -1.32483 -0.177119 0.192719
405 -0.356598 -3.27482 -8.54299 -0.944707 -0.444584 0.732478
392 -9.7783 -2.99229 -7.62794 0.989847 0.643299 1.28398
391 -8.91845 -2.8486 -8.46338 0.221735 -0.495021 -0.501322
413 -9.74472 -2.04389 -8.37194 -0.890942 0.961494 0.14788
725 -8.93366 -2.07001 -7.54951 -1.59576 0.374784 1.0608
678 -8.08077 -2.9177 -7.64841 -0.752501 0.371524 0.912884
415 -7.97249 -2.11875 -8.47153 0.319786 -0.0544051 -0.362568
658 -7.21392 -2.92395 -8.42368 -0.195557 -0.0417931 0.487922
420 -7.44483 -2.06195 -7.48227 1.32588 0.599146 0.69739
443 -6.5367 -2.00517 -8.19907 0.257217 -0.97618 0.664062
396 -5.62009 -2.81563 -8.07884 0.0643507 -1.39286 0.0921306
733 -4.7168 -2.05114 -8.1332 -0.00883299 -0.561143 0.705718
730 -5.80547 -1.96585 -7.30686 0.233302 -0.0984316 0.187855
136 -3.82903 -1.85254 -8.71787 -0.745288 0.415136 -1.48772
712 -4.0077 -2.88277 -8.0085 -0.0373824 -0.0228487 -0.145027
713 -3.04572 -1.87896 -7.95127 1.38535 0.0475468 0.523838
398 -2.96993 -2.69417 -8.61284 0.104813 -0.318531 0.686275
736 -3.85477 -2.02437 -7.2203 -0.378475 0.887447 -0.64207
404 -2.18083 -2.58405 -7.88196 -0.223072 1.44732 -0.951206
425 -2.04394 -1.70633 -8.54077 0.143859 -0.851941 0.961328
427 -1.39082 -1.84884 -7.72527 0.0821591 1.8242 -0.0455826
402 -1.3847 -2.53478 -8.52904 -0.978605 -0.965548 0.413956
408 -0.483105 -2.57497 -7.78323 0.380621 -0.638117 -0.550558
429 -0.551599 -1.78069 -8.47291 -0.539664 -0.0547075 0.563623
416 -9.88105 -1.31489 -7.64515 0.102772 0.0606553 -1.16263
437 -9.79206 -0.321093 -8.3205 0.231455 -0.67992 1.3358
440 -9.19002 -0.522632 -7.44278 -0.677501 -0.310529 0.9685
439 -8.96512 -1.19412 -8.24036 0.484846 -0.738983 -0.857008
435 -10.1968 -0.041811 -7.31111 -0.458198 -0.70953 0.292186
726 -8.14567 -1.323 -7.45554 0.309109 -0.752625 -0.489682
468 -8.20262 -0.449276 -8.26374 -0.972102 0.32221 -0.540834
203 -7.32943 -0.386803 -7.46992 0.651906 -1.29964 -0.805963
753 -7.28593 -1.18995 -8.33192 0.271576 -0.490975 -0.107782
153 -6.51355 -0.448142 -8.20486 0.261225 0.499928 0.139734
1018 -6.72399 -1.26104 -7.39592 0.269127 -0.186322 -0.85655
448 -5.76778 -1.13752 -8.05578 0.0600465 0.0638602 0.215152
467 -4.75354 -0.464964 -7.95958 -0.52712 -0.423181 -0.294603
1042 -5.68049 -0.390648 -7.21475 0.332064 0.633247 -0.351217
446 -3.93792 -1.29507 -7.93963 0.0326476 -0.718034 -1.78956
183 -3.18195 -0.462456 -7.9211 1.17266 0.422672 1.68141
423 -2.81395 -1.02725 -8.71602 0.0958066 -1.11081 -0.235089
428 -2.26259 -1.00787 -7.7781 -0.437702 -0.356077 -0.12822
449 -2.35311 -0.0855602 -8.45589 -0.492082 0.323888 -0.754135
451 -1.46862 -0.0609747 -7.72307 -0.219674 -0.417323 -0.213079
426 -1.46688 -0.86509 -8.52589 -0.0799971 0.00942152 0.870721
432 -0.729559 -0.872162 -7.69938 -0.04451 0.203445 -0.116823
221 -9.6445 5.19434 -9.9829 -0.357281 -0.582626 -0.0484995
438 -8.86898 0.518812 -8.22027 -0.292759 0.0603427 -1.263
335 -0.268196 -8.62234 -7.94588 -0.862413 -1.4015 -0.388048
466 -8.12781 0.390464 -7.59446 0.951811 0.14479 0.136808
180 -8.08973 1.25627 -8.2788 0.674919 1.86736 -1.03405
463 -7.27823 0.577623 -8.29623 0.668198 0.782239 0.439898
1355 -7.56777 1.31274 -7.47893 -0.172421 -0.495252 -0.661864
179 -6.57863 1.30197 -7.88132 0.8191 0.798891 0.996779
204 -5.72531 0.295018 -8.01366 -0.364205 0.061861 0.0556783
781 -4.97941 1.27963 -7.91227 -0.133512 0.136615 0.989031
469 -4.03746 0.58589 -8.02746 0.0564368 -0.91393 0.609439
207 -2.93826 0.680671 -8.23414 0.431269 -0.69029 -0.297237
471 -3.0561 1.60934 -7.73069 -0.169296 0.345169 -1.18957
231 -3.9115 1.63036 -8.32224 0.653689 -0.150904 0.919418
494 -4.06896 1.28604 -6.99613 -0.0367324 -0.271265 -1.05381
473 -2.19049 0.856182 -7.52918 1.0669 -0.0974948 -0.717943
450 -1.40706 0.822794 -8.51407 0.320625 1.00844 0.0379568
453 -0.548349 0.0169651 -8.45736 0.103026 0.436181 0.967938
477 -0.635311 0.812248 -7.6075 0.674242 0.697452 0.0574289
273 -8.17271 8.52935 -10.0095 -0.978901 -0.333524 0.477537
461 -9.34321 1.43262 -7.94665 -0.0167257 0.468526 1.50273
485 -8.62696 2.19534 -7.91287 0.100397 -0.504205 -0.85633
773 -7.4318 2.26243 -8.11936 0.756261 0.388511 0.507982
205 -4.68933 2.73616 -8.83013 0.641192 0.206242 -0.714555
775 -5.69817 1.94071 -8.1769 0.221897 0.641102 0.842951
232 -4.13533 2.53557 -7.3157 0.870625 0.851593 0.0397492
230 -2.99665 2.46927 -8.34961 -0.545349 -0.851694 0.535141
185 -2.11527 1.54163 -8.44069 -1.28557 -0.439921 -0.215033
188 -2.21362 2.33848 -7.60084 -0.385517 -0.220077 -0.227929
474 -1.33663 1.61249 -7.69129 -0.267903 0.511871 0.928356
211 -1.42936 2.46451 -8.36801 0.234595 0.569438 0.0861582
501 -0.573511 1.64037 -8.38174 0.00638454 -0.23353 1.18732
480 -0.718394 2.46189 -7.54599 1.14168 -0.756902 -0.45268
774 -9.49315 3.32432 -8.0125 -0.220231 1.4118 -1.66797
491 -3.87624 3.06818 -8.20565 -0.417017 -0.565476 0.243137
1069 -2.86682 3.148 -7.62676 -0.149195 0.265227 1.58393
236 -2.28834 3.65771 -8.40698 0.596519 -0.0973685 -0.193721
784 -2.43852 4.1045 -7.48909 1.3644 -1.08818 -0.493656
499 -1.61944 3.33138 -7.68019 -0.595691 0.595325 0.121022
788 -1.3563 4.0878 -8.45149 0.202828 -0.340045 -0.817152
497 -0.660662 3.29656 -8.18302 0.352497 -0.215258 0.477241
502 -0.593921 4.20522 -7.53597 -1.72936 -0.312286 -0.245176
770 -8.71177 4.23306 -8.03662 0.257373 0.449961 0.858223
510 -9.48074 5.16525 -8.17391 0.3874 -0.238134 -0.332003
540 -9.48199 4.2293 -7.25011 1.28567 1.38169 -1.10245
253 -8.78951 5.12149 -7.27735 -0.160849 -1.67899 0.245408
783 -3.18823 5.01206 -7.22264 -0.321978 -0.739529 0.454026
518 -2.60124 4.95624 -8.39051 0.0506744 0.62895 0.328792
805 -1.60571 4.88639 -7.79148 0.610564 0.651134 0.0767744
239 -0.640664 5.0543 -8.47654 0.138855 -0.411793 -0.743304
240 -0.845004 5.84201 -7.61118 0.504631 -0.368076 0.926363
3396 -9.04607 6.12112 -8.40327 -0.523187 -0.611153 -0.191601
533 -9.81016 7.05299 -8.43152 0.246192 -0.27214 -0.856452
3109 -9.20396 7.04378 -7.53981 -0.109935 -0.439003 -0.180122
537 -9.34655 6.02092 -7.25852 0.162359 0.419346 -0.122043
462 -7.9998 7.88507 -8.12122 -0.299908 0.0704644 0.427843
237 -2.35446 7.03635 -8.39737 0.0574369 0.479211 0.430151
548 -2.46287 5.78208 -7.54762 0.938063 -1.04103 -0.515655
549 -1.49901 6.74343 -7.67783 0.0698054 0.985314 0.02209
521 -1.46415 5.92787 -8.4444 0.796954 0.644335 -0.583019
285 -0.513949 6.77725 -8.43141 0.888159 0.517425 1.65126
536 -9.82437 7.91727 -7.64833 0.076564 0.385268 -0.476131
534 -9.07477 7.93033 -8.41204 -0.369362 0.153484 0.0059764
557 -9.85162 8.69866 -8.45786 0.065861 0.189759 -0.89699
559 -9.05203 8.75178 -7.67503 -0.853589 -0.102538 -0.592415
538 -8.35583 8.81556 -8.429 0.355708 0.485155 0.544514
566 -2.09388 8.25416 -8.66092 0.427368 0.374259 0.58376
283 -2.11289 7.64293 -7.56705 -0.191233 0.622823 0.851589
573 -1.37931 8.41524 -7.46347 -0.000558167 -1.01587 0.394282
546 -1.42457 7.53543 -8.4435 -0.114516 0.578583 -0.480254
264 -0.584022 8.15771 -8.44777 0.7034 0.223374 -0.173859
552 -0.691715 7.45768 -7.61973 0.704983 0.0186372 -0.167784
560 -9.79065 9.53119 -7.70763 -0.361567 -1.06291 -0.723382
558 -8.93432 9.65933 -8.59906 0.721322 -0.319799 -0.500078
564 -8.21162 9.6281 -7.54741 0.734288 1.31364 -0.0205134
562 -7.4216 9.42579 -8.5484 -0.218024 -0.483006 0.149978
308 -2.02836 9.87636 -8.57772 -0.325191 -0.308289 0.156414
572 -2.05676 9.2085 -7.69009 -0.996892 0.271371 -0.701591
309 -1.3804 8.99084 -8.47013 0.570407 -0.175322 -0.578688
307 -1.44042 10.0074 -7.62574 -0.231632 1.07701 -0.71423
310 -0.506706 10.037 -8.36709 0.673373 -0.267386 -0.427544
576 -0.644192 9.16245 -7.62203 -1.03537 -0.336963 -0.408411
584 -9.95088 -9.35818 -6.16675 0.505437 -0.655578 0.211358
582 -9.01687 -9.43874 -6.85304 -0.569351 0.684533 0.224438
583 -9.00632 -10.2137 -6.04336 0.941905 1.30564 -0.0375443
588 -8.26322 -9.40538 -6.03064 0.868702 1.0091 -0.443778
585 -8.2016 -10.2231 -6.77604 -0.0745268 -0.0705976 1.06798
299 -7.39866 -9.32635 -6.85535 0.553232 -0.114296 -0.863569
565 -6.07662 9.86363 -6.57286 0.127557 0.622312 0.477108
10 -5.27763 -9.60403 -6.44255 0.971352 0.756043 0.0842775
563 -4.65907 -8.4627 -6.32829 0.81024 -0.824051 0.371604
589 -4.98941 9.78141 -6.32635 -0.797236 -0.0416455 -0.518522
15 -4.13822 -9.47352 -6.3522 -0.923232 -1.07269 0.955704
332 -2.96538 -9.52027 -7.1105 0.800156 0.673085 1.18123
596 -2.35085 -9.42432 -6.10745 -0.121504 -0.0927585 -1.08843
328 -3.18585 -8.73131 -6.26357 0.401608 0.614018 -0.0226898
619 -1.54335 -8.63444 -6.17019 -0.776066 0.556411 -0.740491
594 -1.36934 -9.5555 -6.8351 0.329075 -0.947432 0.301198
600 -0.473422 -9.71978 -6.12744 -0.737432 -0.78536 0.558531
605 -9.82422 -8.596 -6.94858 1.58678 -0.534992 -0.669011
608 -9.78187 -7.84091 -6.12644 -0.390693 0.6645 -0.61995
606 -9.06585 -7.79441 -6.89281 -0.137219 -0.225273 -1.27152
607 -9.02283 -8.63802 -6.17167 -0.0776347 0.489237 -1.07318
609 -8.25378 -8.61897 -6.81228 0.339487 0.716888 1.34173
612 -8.21617 -7.74468 -6.05589 -0.253383 -1.47735 0.510905
347 -7.43389 -7.86984 -6.74393 0.471306 -0.547673 0.0619871
611 -7.52264 -8.64693 -6.01609 0.800192 -0.0626435 -0.456512
586 -6.31068 -8.6538 -6.74623 -0.25258 -0.511001 0.924477
637 -5.64717 -7.84736 -6.40703 0.226564 0.589833 -0.70968
301 -5.60205 -7.04446 -5.67897 -0.142476 -0.432588 -0.146012
665 -3.67627 -7.84742 -6.38801 0.26465 -0.0379858 -0.313487
325 -2.96151 -8.10887 -7.13272 -0.588139 0.354242 -0.0106094
618 -2.20685 -8.77193 -6.96672 0.681609 -1.26379 -0.679223
929 -2.31784 -7.9082 -6.18892 0.365014 -0.252931 0.074582
355 -1.39329 -7.92883 -6.99478 -1.6673 -0.179748 0.766419
621 -0.548896 -8.69747 -6.92254 -0.784669 -0.0200501 0.433614
624 -0.63344 -7.89221 -6.15706 0.808417 0.76625 -0.891447
631 -8.90172 -7.02484 -6.09942 1.15075 -0.452508 0.455144
629 -9.61756 -6.89431 -7.01374 1.38751 0.599471 -0.151876
632 -9.79939 -6.14752 -5.996 -1.66225 0.0681653 -0.401089
630 -8.84254 -6.15455 -6.84902 -0.454815 -0.350129 0.183805
634 -8.15308 -7.14692 -6.88859 -0.438275 0.555021 -0.0694119
636 -8.17049 -6.19597 -6.0608 0.39219 -0.566074 -1.09402
616 -7.33447 -6.31382 -6.86779 0.888768 0.957924 0.561973
610 -7.35537 -7.07036 -6.04741 0.972388 -0.529504 -0.819288
284 -4.66493 -6.90212 -6.11358 0.561615 0.423097 0.985962
613 -5.5876 -6.03256 -6.36004 1.06679 -0.71909 -0.505764
974 -3.96976 -6.09781 -6.26984 0.505928 0.175593 0.514151
349 -3.05645 -6.84486 -6.32779 0.687274 -0.25357 -0.70001
648 -2.29825 -7.1824 -7.16596 1.45926 1.37144 -0.689247
953 -2.3121 -5.96824 -6.50211 -0.171203 -0.253508 0.0286481
955 -1.2543 -6.91607 -6.20679 -0.215128 -1.71783 0.390079
644 -1.38048 -5.85613 -7.23451 0.409432 0.918581 0.218688
4369 -0.216922 -6.87033 -6.45086 0.0435482 -0.0441494 0.4479
647 -0.649464 -5.97501 -6.25668 0.843138 -0.886613 -0.513766
669 -0.249462 -6.22898 -7.27998 -0.207439 0.0490657 -0.576578
653 -9.74985 -5.41177 -7.10414 0.519634 -0.438826 0.243685
655 -9.02594 -5.31085 -6.11148 -0.318372 0.000178044 -0.427203
656 -9.84014 -4.50523 -6.13806 1.06683 1.49671 -0.671993
969 -8.16063 -5.45525 -6.89121 0.52326 0.733424 -0.185326
681 -8.05768 -4.43993 -6.09555 -0.0882209 -0.754294 -0.863436
660 -7.48135 -5.26711 -5.92056 -0.72796 -0.23411 -0.690851
688 -7.25102 -4.47414 -6.87732 0.786799 1.42646 -0.706365
971 -6.63933 -5.32632 -6.66782 -0.668006 0.0385146 1.1602
687 -6.68257 -4.52197 -5.82366 -0.760636 0.36514 -0.15836
685 -4.88518 -5.16698 -6.33217 0.541143 -0.486377 -0.321628
352 -4.74566 -4.59888 -7.5436 0.907404 -0.0757846 -0.468738
1282 -5.65691 -4.43545 -6.69272 -0.115141 -0.278034 -0.575511
949 -5.79914 -5.1603 -5.69926 -1.5173 -0.0427754 -1.6185
995 -4.81083 -4.25809 -5.62736 0.114292 0.238052 0.234444
977 -3.11712 -5.08969 -6.2462 0.200433 -0.213339 2.26321
691 -2.13641 -5.05708 -7.18292 -0.0719255 -0.0261389 1.19749
667 -1.37905 -5.14168 -6.27751 -1.31454 -0.883661 -0.418803
672 -0.559066 -5.12947 -6.99615 -0.494802 0.424133 -1.19841
654 -8.99614 -4.53051 -6.95388 -0.729986 -0.640021 -0.762233
677 -9.78788 -3.79474 -7.00353 -0.83234 0.983761 -0.00264228
966 -9.02989 -3.86914 -6.05911 -0.0798938 0.0229194 -1.19114
679 -8.14701 -3.77316 -6.9304 0.336197 -0.364665 -1.48666
1281 -7.36026 -3.64446 -5.92957 0.00318095 0.182879 -0.542592
707 -6.55419 -3.75453 -6.58396 0.358343 0.460116 -0.086887
421 -4.77417 -3.72578 -6.58421 0.413801 -0.147201 -0.298019
1307 -5.69742 -3.81256 -5.85422 0.910264 0.202426 -1.14779
373 -4.02426 -4.45606 -6.48418 -0.316752 0.0302115 -0.37974
980 -2.93205 -3.63114 -6.30861 -0.743647 0.658363 1.00526
978 -2.28901 -4.42692 -6.35074 0.130386 0.361853 0.13128
380 -2.1865 -3.43073 -7.14438 0.463697 -0.373853 0.407329
692 -1.45142 -3.51681 -6.21152 0.539844 1.5196 0.594816
666 -1.41329 -4.27353 -7.05469 -0.142386 -0.42391 -0.248579
690 -0.671302 -4.34928 -6.18899 0.461505 0.833045 0.262792
384 -0.687658 -3.45393 -6.99556 -0.348794 -0.452865 0.253957
970 -8.99086 -3.03661 -6.92743 0.973925 2.01728 0.47021
680 -9.95442 -3.10907 -6.18202 0.204156 -0.350492 0.592865
701 -9.87423 -2.04167 -6.9192 -0.261746 -0.631083 0.167769
702 -9.20472 -2.24933 -6.13326 -1.05173 0.179629 -0.349569
993 -8.31437 -3.14398 -6.02823 -0.248148 1.1152 1.04574
708 -8.29328 -2.13318 -6.68416 0.440872 0.437053 -0.978712
683 -7.43957 -2.88392 -6.69412 1.21224 0.0561516 -0.690303
705 -6.61146 -1.97312 -6.61774 1.56762 -0.97338 -0.343384
994 -6.67706 -2.80863 -5.96831 0.530884 -0.40285 -0.30336
731 -5.73128 -2.93363 -6.50092 -0.482461 0.948368 -0.391469
757 -4.61801 -2.78498 -7.16302 0.0616681 0.256981 1.36328
1021 -4.92077 -2.0472 -6.38253 1.02452 0.219794 -0.779692
1020 -5.81336 -2.14083 -5.89261 -0.449795 0.711757 -1.15385
711 -3.78428 -2.85736 -6.32654 -0.797361 0.956192 1.04853
998 -3.14891 -2.02859 -6.36438 0.92376 0.570874 0.672766
689 -3.00218 -2.77093 -7.1922 -0.406582 -0.343849 -0.575075
716 -2.29124 -1.8434 -7.02205 -1.04439 -0.251519 -0.483038
1001 -2.21294 -2.7177 -6.33559 0.505412 -0.322142 0.314648
693 -1.4214 -2.62081 -7.04739 0.967665 0.601935 1.35142
715 -1.55908 -1.84955 -6.12134 -0.257147 0.813371 0.00748585
717 -0.713335 -1.71782 -6.89231 0.719596 -0.193041 -1.31334
696 -0.793668 -2.61271 -6.162 -0.2512 -0.244241 -0.603236
728 -9.08189 -1.25693 -6.75556 0.141334 0.475481 -0.772355