ITEM: TIMESTEP
62000
ITEM: NUMBER OF ATOMS
6912
ITEM: BOX BOUNDS pp pp pp
-1.0259855680060181e+01 1.0259855680060181e+01
-1.0259855680060181e+01 1.0259855680060181e+01
-1.0259855680060181e+01 1.0259855680060181e+01
ITEM: ATOMS id x y z vx vy vz
8 -9.78934 -9.35115 -9.36029 1.28322 0.499964 0.289186
698 -10.1211 -0.943572 -6.57345 0.669436 0.338758 0.441034
11 -8.20861 -9.3745 -9.45008 -0.0829351 0.11401 0.784378
39 -7.29119 -9.60161 -10.1903 -0.224369 0.487948 0.348367
20 -1.93835 -9.59051 -9.4024 1.65658 -0.693983 1.21915
43 -0.903567 -9.54716 -9.6871 0.550309 0.284295 0.32506
435 -10.1684 -0.186863 -7.4707 -0.722176 0.995937 0.207168
32 -9.64392 -7.65773 -9.50539 -0.249413 -1.36903 -0.309152
31 -8.94929 -8.51117 -9.48547 -0.852971 0.795789 -0.0895795
9 -8.25287 -10.1311 -10.1898 -0.0380098 -1.0139 -0.868959
1920 -0.0743224 3.43402 -0.409671 -1.0934 0.504073 -0.669955
278 -8.07894 -7.67308 -9.50891 0.908968 0.609318 -0.840465
274 -7.48741 -8.52988 -9.3886 -1.04687 0.208963 -0.409858
41 -2.30985 -7.41783 -9.81763 0.176952 -1.27503 0.332483
3188 -2.44327 -8.57423 -9.59465 0.252055 -0.0871843 0.957303
336 -1.60097 -7.60134 -9.07652 0.38203 -0.143522 -0.733651
44 -1.3738 -8.45319 -9.86572 0.484022 -0.721801 -2.0747
357 -0.743584 -7.58275 -9.83326 -0.213621 0.606328 0.158572
110 -2.71249 -4.1427 -10.2512 -0.746548 -0.225928 -1.14111
119 -0.174635 -3.51591 -9.67622 0.7114 0.198681 -0.411611
56 -9.74037 -6.10913 -9.58531 0.00117006 0.395694 0.684784
30 -8.88139 -6.94565 -9.47137 1.28944 1.31686 -0.0683921
1323 -10.1327 2.49697 -1.66603 0.591304 -0.203776 -0.629198
36 -8.12769 -6.20262 -9.329 -0.253738 -0.0205272 -0.410762
1057 -9.90633 3.28334 -3.63789 0.638345 1.17694 0.376412
37 -2.34841 -6.03814 -9.70626 -1.10885 -0.281562 0.436967
376 -1.53007 -6.04722 -8.97284 -0.587385 0.596347 -0.310821
66 -1.48378 -6.69765 -9.89071 -0.228141 0.367067 -1.07306
72 -0.697827 -5.93122 -9.72654 -1.37423 -1.54946 0.274401
638 -0.79009 -6.83029 -9.10185 0.299838 0.378702 0.379188
1974 -8.19494 8.70316 -0.0873761 -0.744021 1.64086 0.214196
633 -9.00161 -5.29979 -9.45736 -0.0698952 -0.734931 -1.00928
1247 -0.0709236 -5.26589 -2.90034 -0.40209 0.985622 -0.221161
372 -8.10828 -4.5187 -9.47803 -0.639849 0.728489 0.121986
3275 -8.12188 -5.35682 -10.1939 0.732493 -0.928552 0.289459
78 -8.97089 -4.35702 -10.1363 -1.16483 0.329761 0.550065
350 -3.61237 -4.31435 -9.57138 -0.0470715 0.740007 0.244349
92 -2.7574 -5.09781 -9.55556 -1.36929 -0.329166 0.350439
93 -1.70976 -5.21383 -9.82868 1.38344 -0.749861 0.516185
95 -0.849427 -5.17184 -8.82535 -0.173113 -1.32461 0.37256
80 -9.75342 -4.3669 -9.4888 1.20467 -0.88918 -1.53497
1859 -10.104 -1.86169 -0.583844 0.245858 0.0344631 0.881119
103 -9.12325 -3.48865 -9.42819 -0.334028 -0.834277 1.00848
105 -8.22235 -3.55451 -9.98755 -1.13805 0.925843 -0.26212
107 -7.24093 -3.87124 -9.34912 -0.222624 -0.593941 -0.088331
935 -0.0429809 -6.77341 -4.50881 -0.399434 -0.569637 1.342
395 -6.40936 -3.77823 -10.0792 0.206226 -0.18505 -0.47835
133 -4.38155 -3.45913 -9.66334 1.24683 0.0558475 -0.48622
88 -5.41026 -3.53524 -8.92472 -0.673048 -0.223867 -1.06967
135 -3.70059 -3.39548 -8.64346 -1.03405 0.216509 -0.458569
378 -1.91501 -4.21124 -9.43682 0.163069 -0.472553 -0.766428
375 -2.87304 -3.37292 -9.42931 -0.629582 -0.77745 0.302973
113 -2.03485 -3.37086 -10.2353 0.235547 0.307901 0.573352
96 -0.894102 -4.31774 -9.68458 0.298791 -0.803251 0.241056
115 -1.21451 -3.36902 -9.3729 0.107052 -0.339575 -0.206405
1806 -7.92348 -5.2022 -0.00720502 -0.238584 0.274891 0.503257
1222 -0.0280846 -5.97322 -3.72047 0.583099 0.155292 -1.48218
104 -9.78294 -2.58704 -9.33039 0.888999 -1.12662 0.734991
414 -8.87286 -2.07668 -9.12434 0.84183 -0.253701 -1.06818
815 -0.0769542 5.13422 -5.87048 -0.0427179 0.0051265 1.05289
6 -8.91134 -9.34263 -10.2259 -0.0344029 -0.284022 -0.117864
393 -8.08378 -2.74719 -9.18414 0.198121 -0.30468 -0.243072
126 -8.06404 -1.95427 -9.93247 -1.26118 -1.54941 0.534006
441 -7.23447 -2.00602 -9.01328 -0.174028 0.872925 0.383541
390 -7.14591 -2.83835 -9.72008 0.0699459 0.174452 0.536786
129 -6.31833 -1.80309 -9.61927 0.396515 -0.192494 0.425941
417 -6.33182 -2.76939 -9.00762 0.877516 -0.224232 0.818425
397 -5.50138 -2.86724 -9.7333 0.978412 0.314806 0.151306
418 -4.33325 -1.7646 -9.67816 -0.272498 0.224007 1.09407
445 -4.53458 -2.69632 -8.91307 -0.340226 0.507134 0.37583
442 -5.37105 -1.95039 -9.17325 0.281949 0.00110941 0.886332
3303 -3.53755 -2.50404 -9.51226 -0.303731 -0.805953 0.6394
1998 -8.17493 10.2243 -0.106759 -0.164253 0.769456 -0.14496
422 -2.69785 -1.61537 -9.45754 -0.186058 0.420525 0.468988
116 -1.8998 -2.51751 -9.29334 -0.254465 -0.333279 0.7165
3308 -1.83718 -1.82287 -10.1047 0.070228 0.194589 0.707561
398 -2.86862 -2.49152 -8.61412 1.36496 0.463114 -0.750549
1687 -7.45813 9.47134 -0.0570295 -0.245692 0.528924 -0.720297
818 -10.2753 7.6959 -6.56211 -1.03549 -0.722417 -1.2834
120 -0.368599 -2.56132 -9.37071 1.85181 0.500408 1.16922
141 -0.363127 -1.66649 -10.03 0.0697292 -0.354494 -0.695528
139 -1.10458 -1.71425 -9.28791 0.641941 0.183492 -0.205657
128 -9.78621 -1.29633 -9.29141 -0.741252 0.210533 0.259738
146 -9.81118 -0.432036 -9.98356 0.900792 0.763581 -0.341048
150 -9.02807 -0.396321 -9.18158 -0.122459 -0.494572 0.142504
149 -8.87556 -1.30115 -10.0932 0.493913 -0.939364 0.175083
151 -8.04948 -1.2902 -9.06163 0.188093 -0.709129 -0.796724
3324 -8.16374 -0.421904 -9.92771 -0.640402 -1.02172 -1.8862
465 -7.379 -0.27939 -9.08283 0.272008 0.153836 1.05614
3297 -7.2881 -1.23193 -9.81494 -0.317864 -1.09557 0.312379
132 -6.36062 -0.968402 -9.03534 0.171088 0.161022 0.533194
3300 -6.25856 -0.2503 -9.87042 -0.668339 0.325 -0.960855
130 -5.43296 -1.13609 -9.90329 0.187736 -1.54324 1.47649
3352 -5.38581 -0.340866 -9.19905 0.0461357 -0.811506 0.720334
184 -4.45718 0.12651 -9.39101 -0.391887 0.258152 -0.875671
155 -4.51927 -0.927173 -8.91101 0.721026 1.29792 0.0173725
47 -0.080018 -8.64176 -9.66878 0.673728 -0.305078 -0.0815207
160 -3.6612 -0.785926 -9.37439 1.06069 0.0966359 -0.361717
159 -2.76966 -0.0576408 -9.31406 0.97875 -0.999883 0.657396
140 -1.91193 -0.936046 -9.30726 -0.642818 0.359532 0.528123
161 -1.92645 0.0613844 -10.0804 1.47901 0.438986 0.622219
134 -2.7633 -0.761648 -10.1532 1.29246 0.483944 -0.154008
138 -1.16757 -0.794741 -10.0104 0.00123882 0.747248 0.119712
144 -0.46922 -0.856598 -9.12917 0.261936 -0.0543268 0.166524
163 -1.13111 0.011866 -9.2637 0.402118 -1.50065 -0.135045
152 -9.9094 0.432484 -9.15559 -1.14742 -1.55455 -1.07054
175 -9.07002 1.27722 -9.12866 0.0741804 -0.978032 -0.382963
173 -9.85924 1.31929 -9.89172 0.387195 0.636174 -0.451547
3343 -9.03298 0.431943 -9.89992 -0.449172 -0.896643 0.423153
156 -8.21856 0.350689 -9.10789 0.818671 -0.328454 0.697583
177 -7.17317 0.433001 -9.78844 0.23469 0.36028 -0.391315
801 -7.56547 1.38944 -9.03512 0.728799 -0.201233 -0.588243
2746 -5.97715 1.80313 -9.20885 1.62167 0.470319 0.666332
178 -6.15792 0.643715 -9.0926 -0.112585 0.684041 0.488098
3328 -5.60234 0.987848 -9.89866 -0.364782 -0.612567 0.163549
59 -1.85691 10.1609 -10.2412 -2.28889 0.194512 -1.2783
3371 -3.60914 0.76974 -9.3013 -0.992568 -0.384846 -0.520446
333 -0.240034 -9.4732 -8.80921 -0.539405 -0.190801 -0.0774338
164 -2.07929 0.896425 -9.22589 -0.195928 0.409921 0.312229
3327 -2.82304 0.802819 -10.1067 -0.601565 -0.241153 0.00794533
165 -0.333716 -0.0264276 -10.0176 0.0213222 0.427832 0.141943
189 -1.12995 0.820979 -10.0269 -0.204451 0.349438 -0.677768
168 -0.426857 0.912074 -9.19632 0.351799 0.573969 0.330347
223 -9.10647 2.06065 -9.85575 0.277823 0.577563 -0.500322
176 -9.57911 2.27356 -8.74233 -0.0470557 0.378997 0.56488
125 -9.77214 -1.85114 -10.2242 0.430539 1.05526 0.20798
490 -8.27164 1.39265 -9.74105 -0.926749 0.490193 0.0353395
539 -8.59285 3.02448 -9.83996 -1.3495 0.281677 1.32715
3372 -8.381 2.16023 -8.96381 -0.710175 -0.0272881 0.497223
2460 -7.80631 2.33646 -10.0654 -0.416763 1.16993 -1.35999
775 -5.74824 2.5503 -8.43167 0.380592 0.00961422 0.831588
360 -0.0821326 -5.9475 -8.84696 -0.645965 0.320193 -0.4668
3373 -4.47864 1.44456 -9.49019 0.0422148 -0.440557 -0.580177
782 -3.70254 2.38828 -9.49714 0.26455 -0.369435 0.784091
3332 -2.02172 1.54283 -10.0313 0.165917 -0.175573 -0.36117
206 -3.0158 1.58268 -9.3285 -0.67819 -0.463468 0.344625
3375 -2.05063 2.48551 -9.20369 0.510855 0.423584 -0.0564908
233 -2.78529 2.41115 -10.0606 0.00225346 0.220112 1.38257
187 -1.17283 1.60987 -9.21742 0.328046 -0.328735 0.0560847
192 -0.43003 1.69027 -9.98107 0.680666 -1.31598 -0.634641
215 -0.515174 2.55221 -9.11906 0.483098 0.0183338 0.00191645
213 -1.31121 2.50849 -9.99297 0.736003 1.4464 -0.675179
225 -9.63527 3.19216 -9.85399 0.477549 -0.42356 -0.0661168
227 -9.13639 4.27305 -10.0799 0.530118 0.821636 -0.0706537
228 -9.46033 3.99808 -8.89867 0.420073 -0.637256 -1.02955
513 -8.88061 3.11313 -8.76743 0.273494 -0.316578 0.0393896
382 -0.196865 -4.31671 -8.75577 0.131924 -1.07488 -0.64917
1199 -0.0583345 -8.45329 -2.77088 -0.666268 -1.03338 0.319671
500 -3.01127 3.14581 -9.28584 0.0205858 -0.463184 -1.46478
3404 -2.36058 4.20911 -8.92861 -0.208577 -0.9211 -0.8878
212 -2.05667 3.2286 -10.1351 -0.0303981 0.914231 -0.48753
209 -1.62256 3.40017 -9.14253 -0.18226 -0.119693 -0.603552
3384 -0.594009 3.39083 -9.91983 -1.31748 -0.58097 -0.0315504
498 -0.518 4.14343 -9.00004 -0.227278 0.698674 -1.08083
3399 -1.38814 4.09036 -10.0632 0.655971 -0.132442 0.114154
1728 -1.09092 9.52759 -1.18793 -0.904969 -0.693023 1.39572
506 -9.21544 5.43257 -9.03267 0.34915 -0.373591 0.344364
221 -9.8819 5.21691 -9.99927 -0.0437461 -0.517672 -0.241756
3351 -3.57924 0.0722068 -10.0729 0.843997 0.201189 0.115964
237 -2.19541 5.07936 -10.0589 0.150968 1.14861 1.02942
3403 -0.599577 4.84358 -9.95051 -0.110627 0.112845 -0.535706
261 -0.645044 5.96235 -9.03223 0.208657 -0.361112 -0.0636853
525 -1.39062 5.05676 -9.21019 0.406282 -0.22774 -0.977976
224 -9.92353 6.27844 -9.2299 0.361662 0.308663 0.343787
247 -9.14233 6.98393 -9.11285 0.624141 -0.451238 -0.338436
359 -0.0315104 -6.87106 -8.14265 0.504113 -0.618825 -0.658022
1150 -0.0765357 9.14772 -5.18167 0.452873 -0.393753 -0.710435
249 -8.41233 7.02183 -9.93914 -0.296955 0.225933 0.337292
3144 -1.69467 6.44817 -9.99679 -0.81421 0.836445 0.102465
3405 -0.452974 6.54974 -10 0.224535 -0.229195 -0.327158
2790 -6.45717 10.1836 -9.97545 0.896569 0.0652551 -0.383329
248 -9.87453 7.73351 -9.28448 -1.1867 0.482099 0.522355
271 -9.1249 8.70806 -9.16363 0.419993 -0.52088 1.08807
1636 -10.1959 5.20116 -1.95688 0.071575 -1.64771 -0.356728
252 -8.44094 7.87626 -9.19968 -0.228691 0.0446442 0.502954
562 -7.7081 8.70262 -9.39327 0.298191 -0.347672 -1.09937
273 -8.43308 8.77434 -10.1219 0.18765 -1.26784 0.209614
3455 -0.593747 7.52042 -9.27917 -0.0180684 0.00975902 -0.175855
570 -1.25222 8.33127 -9.39237 -1.51309 0.411909 -0.759022
282 -0.414109 8.48287 -10.0458 -0.856242 0.404225 -0.488382
3432 -1.25412 7.52667 -10.1245 1.14222 -0.530295 -0.3231
2010 -1.84162 9.62242 -0.356215 0.687359 -1.208 0.177157
270 -9.0888 9.61855 -10.1364 -1.32377 0.133627 -1.03216
272 -9.81398 9.53146 -9.23755 1.0169 0.600228 0.0315935
7 -9.08279 -10.1509 -9.36241 0.409495 0.328371 1.41415
3180 -7.63436 9.5393 -10.0806 0.363518 -1.00243 -0.502469
276 -8.32368 9.53682 -9.2881 -0.517422 0.236489 -0.23742
277 -7.50088 -10.2024 -9.36003 0.529346 -0.187928 -0.13359
281 -2.70623 10.1775 -9.28338 0.161526 -0.17124 0.0551512
258 -2.06729 9.32318 -9.35358 -0.0423385 -0.432576 -0.969406
308 -2.00765 10.083 -8.51025 -0.084544 -0.550917 0.24127
305 -1.17561 10.0649 -9.24387 -0.469664 0.895731 0.0835486
23 -0.485155 9.18761 -9.33576 0.772297 -0.483548 -0.357142
1721 -2.6242 9.57029 -1.26734 0.59664 0.0310829 0.516328
24 -0.137246 10.2301 -9.58407 0.97222 -0.648421 0.330419
296 -9.77223 -9.40144 -7.66971 -0.401237 0.856522 0.173539
294 -9.04514 -9.38266 -8.52982 1.09071 -0.463274 0.113281
300 -8.17967 -9.51808 -7.62324 -1.12433 0.437501 0.149319
298 -7.60522 -9.3558 -8.57317 -0.82845 0.0809052 0.467747
323 -7.43294 -8.83912 -7.51707 -0.170738 -0.505391 -1.15742
299 -7.3003 9.97036 -7.72998 1.05084 0.729061 -0.317758
617 -2.28123 -9.39858 -8.06549 0.322577 0.214606 0.579177
326 -1.82039 -8.72894 -8.78539 -0.0232485 -0.108868 0.0299591
306 -1.26285 -9.57247 -8.65458 0.085363 -0.39796 0.157868
312 -0.554898 -9.64399 -7.75494 0.226702 0.382002 0.201129
317 -9.75131 -8.56935 -8.62158 -1.15692 1.03473 -0.195661
319 -9.02761 -8.55419 -7.74439 1.31731 0.255989 0.574821
320 -9.78798 -7.69102 -7.78286 1.10863 0.32817 0.0752996
318 -8.93598 -7.79419 -8.7103 -0.0389906 1.34999 0.862192
321 -8.20231 -8.49698 -8.64929 -0.287861 -0.0607388 0.740774
322 -8.23926 -7.76511 -7.66791 -0.385349 -0.50965 0.307909
35 -7.45252 -7.47722 -8.50328 0.158204 -0.680473 0.786479
284 -3.76743 -8.89221 -7.10129 0.136037 0.117587 1.07098
329 -2.23905 -8.02897 -7.99305 0.116491 -0.258922 0.395753
330 -0.774291 -8.6304 -8.89844 -0.784444 0.431571 0.823298
641 -1.22597 -8.84226 -7.86994 -0.621576 1.17055 0.608552
331 -0.851692 -7.69652 -8.17718 -0.104218 -0.133744 1.20382
341 -9.68943 -6.91224 -8.61098 -0.246804 -0.30647 0.635673
344 -9.76562 -5.97267 -7.76395 0.378466 -0.290456 0.318897
343 -9.05516 -6.90466 -7.70094 0.312276 -1.13157 -0.0535239
342 -9.08821 -6.07968 -8.77304 -0.0300864 0.235771 -1.1947
40 -8.28823 -6.95467 -8.64051 -0.786838 0.46004 -0.428086
324 -8.40163 -6.07854 -7.80472 -0.551382 -0.327578 0.139958
61 -2.62382 -6.6462 -8.59632 0.416058 -0.0819038 -0.841929
645 -1.88827 -5.89191 -7.70132 -0.665392 1.01423 -0.240472
327 -1.61682 -6.91025 -8.23798 -0.59535 0.640972 0.123722
356 -0.826551 -6.06843 -8.07494 -0.177791 -0.74086 -1.47272
643 -0.947679 -6.94184 -7.28958 -0.446097 0.452067 -1.25359
365 -9.8393 -5.34998 -8.65649 -0.500329 -0.631965 0.157495
348 -9.09762 -5.16274 -7.85379 0.575671 0.118669 -0.0019447
368 -9.79629 -4.43171 -7.8963 -0.573255 -1.23865 -0.896562
86 -8.14832 -5.36564 -8.48809 0.0207883 0.514448 -0.840907
367 -8.36314 -4.46138 -7.71041 -0.294629 -0.662714 -0.150843
682 -6.388 -4.59409 -7.63595 1.98651 0.403775 0.713532
400 -3.73747 -4.26289 -8.03545 -0.340453 0.332023 -0.788152
424 -2.80892 -6.19873 -7.4457 0.764848 0.308866 -0.760801
112 -1.93221 -5.01707 -8.62751 -0.222887 0.176074 -0.92867
354 -1.24553 -4.99463 -7.71111 0.879858 -0.740728 0.87299
383 -0.131589 -5.18182 -7.97461 -0.252775 -0.520959 -0.0832957
79 -8.99721 -4.29995 -8.66964 0.456001 -1.31782 1.35634
389 -9.77084 -3.58991 -8.62487 -0.67605 0.878985 -0.127777
657 -9.0422 -3.63959 -7.80634 0.366028 0.132517 0.670457
55 -8.1631 -3.60906 -8.65839 0.558982 -0.158098 0.316941
366 -7.33967 -3.70134 -7.41828 0.678946 0.0969363 -1.17907
664 -6.54557 -3.66355 -8.185 -1.22144 0.198471 -0.916714
709 -4.65665 -3.5662 -8.12325 0.115225 0.318187 1.43251
419 -5.6619 -3.56136 -7.6019 -0.411969 0.702487 0.914024
352 -4.69756 -4.33635 -7.32571 1.0574 0.78501 1.16739
1289 -2.89278 -3.44808 -7.81312 0.42953 0.577442 -0.920392
399 -2.85131 -4.19806 -8.73469 -0.353308 -0.421734 0.0630943
668 -2.05863 -4.20653 -7.82343 -0.627864 0.160178 -0.0186369
401 -2.15275 -3.46096 -8.61208 -0.244139 0.635745 -0.991879
379 -1.24335 -4.04586 -8.53598 0.160876 -0.216265 -0.396744
403 -1.34909 -3.30618 -7.66769 0.383633 0.637623 -0.0750341
381 -0.512817 -4.19927 -7.75364 -0.559354 -0.504729 0.790693
405 -0.460909 -3.29006 -8.59203 -1.08511 -0.402528 -0.319472
392 -9.77318 -2.8035 -7.6645 0.312395 -0.0872014 0.634436
391 -9.00031 -2.84734 -8.49899 -0.0387032 0.206467 0.239683
413 -9.73843 -2.07652 -8.40438 1.07273 -0.731919 0.422454
725 -8.90965 -2.11726 -7.60285 -0.651057 0.166937 1.16131
678 -8.16672 -2.98784 -7.66585 -0.160808 -0.478769 -0.254043
415 -8.13969 -2.12912 -8.32902 0.277898 -0.129173 0.408972
420 -7.25406 -1.9384 -7.63315 0.891908 0.109643 -1.34812
658 -7.29183 -2.952 -8.38904 0.126206 -0.690839 -0.0734045
443 -6.35557 -1.89248 -8.31941 -0.40898 1.12132 0.066987
369 -6.43235 -2.76568 -7.69782 -0.775928 0.567261 0.398042
396 -5.45741 -2.61291 -8.25241 0.199176 0.985245 -0.551653
733 -4.65753 -1.85149 -8.34032 -0.949903 0.798885 0.0106397
730 -5.67894 -1.87436 -7.35465 -0.189911 0.385417 0.897088
757 -4.74371 -2.68125 -7.45317 1.10327 0.170083 -0.748906
136 -3.55612 -1.72085 -8.73169 0.200993 -0.243166 -0.0713319
712 -3.76817 -2.64182 -7.88226 0.318492 1.18043 -0.854425
713 -2.96689 -1.82123 -7.8595 0.460107 0.538533 -0.448669
404 -2.15513 -2.5103 -7.75994 0.0846204 0.021268 -0.189199
425 -2.06345 -1.7265 -8.57141 -1.0999 -0.00509245 0.296109
427 -1.33674 -1.71216 -7.66671 0.0385355 -0.571914 -0.267776
402 -1.29516 -2.55574 -8.50424 -0.325845 -0.300675 0.121102
408 -0.593601 -2.61167 -7.64476 -0.927234 -1.05535 -1.41706
429 -0.466274 -1.65138 -8.30898 -0.715234 -1.52089 0.781425
416 -9.93029 -1.2486 -7.7457 1.02647 -0.112565 -0.12034
437 -9.90657 -0.50769 -8.43923 0.078532 -0.285741 -1.00221
440 -9.11513 -0.52809 -7.73356 0.275566 0.435228 -0.833318
439 -9.01824 -1.30358 -8.39681 0.193091 -0.0431875 0.763331
195 -10.2324 3.13748 -8.97264 0.693694 0.324207 1.53997
726 -8.17691 -1.24335 -7.68075 -0.0601961 -0.188179 -0.0866613
468 -8.28357 -0.381042 -8.324 0.851571 0.111963 -0.205285
753 -7.30458 -1.10278 -8.42906 -0.0404385 -0.0449153 -0.755993
203 -7.31626 -0.442295 -7.55986 -0.0979329 0.397257 0.250438
153 -6.53674 -0.262151 -8.20915 -0.693939 -0.651935 0.753811
1018 -6.46305 -1.13441 -7.52309 -1.26892 0.657612 -0.0766419
448 -5.57686 -1.18765 -8.37687 0.584149 0.594063 0.00568743
467 -4.80595 -0.288993 -8.16429 1.07703 -1.49496 -0.831972
158 -3.63964 -0.0892001 -8.55872 -0.697266 0.220581 0.0300167
446 -3.78883 -1.0109 -8.03301 0.683623 -0.51472 0.894109
423 -2.83429 -0.92625 -8.56225 -0.244082 0.0236634 -0.0646649
183 -2.88189 -0.216172 -7.76801 -0.0247255 -0.00342201 0.728632
428 -2.13739 -0.99958 -7.67288 0.245292 0.740333 2.05943
449 -1.98639 0.024878 -8.51123 0.743371 0.331741 0.00807949
426 -1.2299 -0.848674 -8.46037 0.649588 0.681162 0.451878
432 -0.678046 -0.751169 -7.55062 -0.90067 -0.353963 -0.872685
451 -1.4531 -0.0362647 -7.55273 0.293228 0.271889 -0.45965
453 -0.565606 0.0306581 -8.27978 -0.619392 -0.34795 -0.760498
438 -9.15571 0.365326 -8.44827 1.44971 -0.480127 0.801091
222 -9.02574 6.06505 -10.1483 -1.15725 1.09227 -0.097049
466 -8.5806 0.298169 -7.57269 0.69515 0.00257709 0.178433
180 -8.42852 1.19444 -8.31471 0.181898 -1.35912 0.265258
1355 -7.55446 1.19376 -7.39631 0.87143 0.874533 0.301782
463 -7.59099 0.439269 -8.20624 -0.28152 -0.506283 -0.06821
179 -6.63651 1.43321 -8.41967 -0.47632 -0.0960427 0.23682
154 -6.74688 0.534473 -7.52237 -0.551225 0.0282431 0.501799
204 -5.62854 0.304495 -8.19499 0.713506 0.000144671 -0.436235
470 -4.48078 0.761879 -8.56894 -0.00463983 -0.972764 -0.0635752
1333 -5.77564 1.06928 -7.46868 1.22224 -0.6399 -0.689771
781 -4.65331 1.53819 -7.6891 -0.412511 0.215134 -0.192687
469 -3.76762 0.630472 -7.83485 0.513204 -0.0851227 -0.759987
207 -2.87868 0.770102 -8.53106 -0.556025 0.370404 -1.46638
473 -2.2233 0.795124 -7.77708 1.36591 -0.0721387 -0.955566
450 -1.33351 0.798516 -8.39537 0.0442534 -0.996281 -0.336511
477 -0.693321 0.749596 -7.43624 -0.920385 1.64739 -0.101134
461 -9.47325 1.37299 -7.99654 -0.161387 -1.06648 0.765793
485 -8.71767 2.31432 -8.01092 1.21738 0.600357 -0.00662852
199 -7.66392 2.2242 -8.14755 -0.521209 0.391529 0.0281655
3060 -6.57613 1.85995 -7.40926 1.45896 0.240257 -0.226233
515 -5.47194 1.37222 -8.42304 0.666313 0.231922 -0.724585
205 -4.7748 2.15707 -8.5598 0.442272 -0.568738 -0.266338
1070 -5.49935 2.06807 -7.26451 1.46805 -0.133401 -0.150959
231 -3.79056 1.58246 -8.64132 1.12193 0.387812 -0.119283
471 -3.01661 1.54753 -7.65903 0.318997 -0.673044 -0.421428
232 -3.80008 2.25819 -7.6468 0.37556 0.658982 0.651555
185 -2.07572 1.65422 -8.58629 -0.259078 0.773312 0.739717
230 -2.87603 2.3767 -8.47292 0.0190759 -0.232848 0.779242
188 -2.4669 2.40514 -7.39453 -0.214491 -0.231116 -0.442438
211 -1.40194 2.46292 -8.36069 -0.175119 -0.834936 -0.471207
474 -1.40918 1.54819 -7.58292 0.675276 -0.0234285 -0.110436
501 -0.590234 1.53617 -8.21791 0.662808 0.79869 -0.425979
480 -0.662635 2.39723 -7.40084 -0.290098 0.464887 -0.268185
774 -9.54353 3.40416 -7.79534 0.716084 -0.0728557 0.0434545
1719 -3.00685 9.30911 -0.308626 0.861342 0.308425 -0.0455549
783 -3.83693 2.83906 -8.6061 -0.217533 0.431889 -1.99898
1069 -3.2126 3.18181 -7.40192 0.219406 -0.262839 -0.511421
236 -2.3316 3.23503 -8.11122 -0.355933 0.597145 -0.559416
784 -2.17383 4.13116 -7.5595 0.525996 0.616232 -0.0515774
788 -1.37708 4.19854 -8.49306 -0.79482 0.68875 0.0491787
499 -1.36999 3.37545 -7.53216 -0.896398 -0.370448 -0.0132182
497 -0.700206 3.30082 -8.39562 0.769747 0.149524 0.561485
502 -0.618172 4.2923 -7.65598 -0.229008 0.27617 0.0722969
510 -9.61185 4.99831 -8.14877 -1.11951 -0.945016 -0.526651
805 -1.31881 5.22137 -7.64861 0.681534 1.24851 -0.713947
239 -0.547937 5.12004 -8.32196 0.14487 -1.28719 0.182027
3396 -9.22045 6.19157 -8.18559 0.113904 1.48663 -0.775023
533 -10.0006 7.10852 -8.5004 0.428148 -0.256143 0.207119
3109 -9.16712 7.18965 -7.55124 1.19119 0.598431 0.539232
537 -9.33272 6.06285 -7.08165 1.21703 0.105731 0.972943
549 -1.50965 6.58255 -7.72802 -0.056139 -0.890178 -0.112384
240 -0.654316 5.97853 -7.55686 -0.260147 0.559534 0.650143
285 -0.572232 6.73365 -8.35794 0.250948 -0.234825 -0.432512
536 -10.0521 7.86089 -7.67352 0.666647 0.834123 -0.310053
534 -9.16269 7.81439 -8.40486 0.516116 0.6253 0.417372
559 -9.16547 8.66076 -7.79946 -0.990551 -0.155211 -1.01798
557 -9.95804 8.6252 -8.54054 -0.72079 -1.0557 0.698398
561 -8.24235 8.67852 -8.42146 0.28991 1.2984 0.448738
253 -8.38937 7.9548 -7.64425 0.795427 -0.118464 0.505517
538 -7.42736 8.80592 -7.6234 0.0826675 -0.421509 -0.0341212
569 -3.00761 8.47828 -7.80943 0.135326 0.590879 -0.0751844
283 -2.23608 7.66009 -7.6642 -0.303938 -0.599802 -1.64446
566 -2.07475 8.40068 -8.49321 -0.241664 -0.249342 -0.526826
573 -1.33187 8.38648 -7.71861 0.778691 0.223667 -0.108527
546 -1.3973 7.52949 -8.24433 0.158244 -0.440403 -0.270247
552 -0.579631 7.53558 -7.49643 -0.16332 0.0994487 0.665833
264 -0.569313 8.35384 -8.39074 0.06121 0.265661 0.707966
295 -8.9961 -10.1649 -7.66445 0.180249 0.744317 -0.260995
293 -9.95156 -10.1179 -8.59416 -0.199681 0.430942 -0.0712572
558 -9.03599 9.60345 -8.57725 0.328333 -0.300154 0.1156
560 -9.77323 9.56348 -7.78821 -0.462104 0.226933 -0.307022
297 -8.24529 -10.2328 -8.44848 -0.599263 0.462802 0.151019
564 -8.36322 9.54414 -7.40795 -1.00337 -0.208788 0.592284
854 -2.88342 -10.2938 -7.92359 -0.930748 -1.2846 0.848653
303 -2.76004 9.28234 -8.52602 -0.333225 0.368094 1.05637
572 -1.9897 9.24008 -7.69853 -0.426563 -0.317152 -0.119183
307 -1.29115 10.1856 -7.84904 0.140544 0.0732474 -0.585088
309 -1.1346 9.27445 -8.49552 0.0900297 0.54254 -0.449808
310 -0.473467 10.0316 -8.52716 -0.263765 -0.792957 0.695902
576 -0.653745 9.23756 -7.53491 -0.0569082 1.09819 -0.271126
584 -9.98688 -9.33099 -6.11852 -2.19348 0.440386 0.18607
582 -9.16493 -9.33059 -6.7881 0.20304 -0.818372 -0.805664
581 -9.90586 -10.1928 -6.73277 0.984147 0.422736 -0.653093
583 -9.09127 -10.0983 -5.96765 0.0956694 -0.83956 0.168724
588 -8.13797 -9.21815 -6.04502 0.0196825 -1.02923 0.155005
585 -8.43003 -10.1598 -6.72034 0.0347986 1.22996 -0.197526
852 -7.5323 -10.1208 -5.88146 0.500288 0.0255189 0.766634
586 -7.37463 -9.45676 -6.75475 -0.983856 0.232521 0.671389
565 -6.39686 10.0397 -6.58774 0.891293 -0.822676 0.0974932
10 -5.52302 -9.53752 -6.43296 0.610387 -0.685406 0.256945
589 -4.75966 10.0946 -6.11331 -0.345383 -0.798991 0.112244
15 -3.85501 -9.68627 -6.11782 -0.0630866 0.201267 -0.0942996
332 -2.75012 -9.59837 -7.10095 -0.279189 0.773659 1.15033
830 -2.77364 -10.2382 -6.16264 -0.394149 0.533233 -0.803685
596 -2.24533 -9.29532 -5.98788 0.589124 0.97277 -0.0660786
594 -1.4599 -9.5416 -6.98338 -0.44999 -0.377793 0.928285
600 -0.631339 -9.39694 -6.16666 -0.531251 -0.43391 0.575221
621 -0.52364 -8.69224 -6.90375 -0.0295484 0.0767129 -0.242223
607 -9.0614 -8.57726 -6.06375 0.0363408 0.0245501 0.511609
605 -9.81601 -8.52696 -7.0023 -0.798443 0.182987 0.871002
608 -9.81039 -7.81841 -6.16573 0.543913 0.41973 -0.0887789
606 -9.07993 -7.73768 -6.94367 -1.02545 -0.653448 0.756728
609 -8.36144 -8.61121 -6.90303 -0.90686 -0.200564 0.2432
612 -8.2944 -7.87939 -6.10679 0.819926 0.391366 -0.389342
611 -7.30602 -8.56813 -6.09105 -0.0387313 -0.903872 0.335754
347 -7.31535 -7.69265 -6.74424 -1.20334 0.126325 0.430855
971 -6.38287 -8.64716 -6.64374 0.929578 0.0354543 1.29832
587 -6.4059 -7.77923 -5.71398 -0.0225127 -0.396491 -0.246791
563 -4.73311 -8.79522 -6.34438 -0.741562 -1.06069 0.328809
637 -5.42684 -7.90911 -6.44129 0.0230498 0.441789 -0.612553
665 -4.21212 -7.88419 -6.44211 0.172787 1.69828 -0.768782
328 -3.04165 -8.71206 -6.2178 -0.204607 -0.42098 -0.513811
325 -2.97235 -7.84477 -7.04546 0.526917 0.0335618 1.10791
618 -2.1219 -8.61504 -6.9766 -0.556936 -0.198099 -0.83793
929 -2.08934 -7.70695 -6.25651 0.437403 0.582272 -6.28162e-05
622 -0.14939 -7.62588 -7.31057 0.152784 0.345886 0.254242
619 -1.32407 -8.54821 -6.24023 0.130833 -0.00745085 -1.90289
355 -1.19029 -8.03012 -7.09564 0.0256482 1.14048 0.134967
624 -0.57321 -7.76827 -6.03552 0.956064 -0.32464 1.11635
631 -9.02585 -7.09629 -6.071 -0.712404 0.000969272 -0.226195
629 -9.85313 -6.95396 -7.06354 0.065114 -0.6967 -0.388232
632 -9.91061 -6.24977 -6.23813 -0.0547482 0.619097 -0.87465
630 -9.11764 -6.18514 -6.91334 -0.358855 0.0695245 0.066443
634 -8.26066 -7.02293 -6.82031 -0.0669184 -0.122758 -1.18855
636 -8.32863 -6.22748 -6.01983 1.36925 0.231022 -0.318371
610 -7.20807 -7.01204 -5.82793 -0.737064 0.34612 -0.0999592
616 -7.56406 -6.22033 -6.68666 0.728199 0.160304 1.45135
659 -6.44424 -6.09582 -5.78182 -0.140932 0.576082 -1.02749
613 -4.83453 -7.01979 -6.52794 0.788442 1.43856 0.37519
974 -4.12824 -6.21604 -6.63133 -0.976343 -1.01517 -0.499276
349 -2.97664 -6.80591 -6.4275 -0.666865 0.0733123 -0.66306
648 -2.01492 -6.97729 -7.10782 -0.0585784 1.74456 1.04191
953 -2.19995 -5.93453 -6.29151 1.16435 1.08502 0.274394
669 -0.174493 -6.07215 -7.23591 0.223616 -0.785813 0.229311
955 -1.41101 -6.83408 -6.30714 0.241013 0.521085 -0.0160267
4369 -0.236674 -6.8227 -6.49023 0.192334 0.339585 1.21905
644 -1.31773 -5.93069 -6.89054 -0.77864 0.264536 -0.160369
647 -0.554024 -5.72018 -6.209 -1.25982 0.0418666 -0.274525
653 -9.81571 -5.29928 -6.89731 -0.936495 -0.285377 -0.334085
655 -9.05955 -5.43853 -6.03373 -0.15536 -0.334701 -0.113809
654 -9.07975 -4.62972 -6.88971 -0.00998339 0.17164 -0.064055
656 -9.85221 -4.45828 -6.17594 1.17144 -0.177055 -0.781439
969 -8.13155 -5.27801 -7.13279 0.849981 0.505196 -0.578512
681 -8.11325 -4.72331 -6.11016 -0.0592214 0.657546 -1.41731
684 -6.42299 -5.46579 -6.78229 -0.0435312 -0.460319 0.691458
688 -7.23973 -4.52035 -6.70108 0.218601 1.74675 0.191704
1282 -5.6071 -4.50781 -6.63362 -0.450573 -1.05298 -1.0368
685 -4.751 -5.21937 -6.5517 -0.0675363 -0.453951 0.396532
995 -4.75339 -4.51647 -5.81046 0.618595 0.381397 -0.66643
977 -3.01839 -5.17352 -6.36785 -0.813781 -0.0189614 0.31166
691 -2.15325 -5.11315 -7.06249 0.98536 -1.89331 1.43761
667 -1.33203 -5.06498 -6.12729 1.45629 -1.01984 -0.141048
672 -0.455779 -4.98746 -6.88295 -0.764496 0.345254 -0.839738
677 -9.74462 -3.70593 -6.94988 -0.464812 0.000399661 -0.015861
966 -9.06653 -3.69319 -6.17449 -0.977983 -0.512792 -0.233511
679 -8.12872 -3.84979 -6.75056 0.276643 -0.436063 1.21831
993 -8.1607 -2.89755 -6.18757 -0.265913 0.460827 -0.685989
1281 -7.29022 -3.6562 -5.95405 0.342396 -0.302541 0.978872
707 -6.49543 -3.69263 -6.798 1.00861 -0.528358 -0.885227
421 -4.89422 -3.61464 -6.52117 -0.990962 0.300725 0.0992173
373 -3.86841 -4.45127 -6.63445 0.339401 -0.95958 0.352116
686 -3.85736 -3.55059 -7.25498 -0.563377 -0.45256 0.27931
980 -3.24562 -3.51004 -6.44422 0.300302 -0.26451 -0.227038
374 -2.8759 -4.35529 -7.17228 -0.342678 0.434051 0.638235
978 -2.2563 -4.30852 -6.29701 1.93495 0.0520757 -0.474857
380 -2.1794 -3.46722 -6.94554 -1.33012 0.925964 -0.463824
692 -1.41 -3.5056 -6.07624 -0.195413 0.658343 -1.28652
666 -1.46296 -4.27345 -6.91749 0.32307 -1.25397 -0.604094
690 -0.647611 -4.2118 -6.14731 0.450643 0.144178 -0.838285
384 -0.57308 -3.30089 -6.80426 0.404147 -0.387816 0.0405627
970 -8.98752 -2.90619 -6.84613 -0.344461 -1.04628 -1.3205
680 -9.95222 -2.93364 -6.19778 -0.986389 0.365802 0.678931
701 -9.87313 -1.93699 -6.84506 -0.684904 -0.497219 -0.0607002
702 -9.15559 -2.07871 -6.15835 0.104971 0.251101 1.26034
708 -8.05047 -1.9796 -6.77557 0.075289 -0.0977442 1.01384
683 -7.30096 -2.70958 -6.74327 -0.544635 -0.0730862 0.638785
706 -7.38629 -1.96001 -5.97184 -1.07084 -0.499327 0.34093
705 -6.58278 -1.91246 -6.7046 1.64278 -1.43248 -0.305722
731 -5.78025 -2.77065 -6.71693 -0.531534 -0.587201 -0.221389
1021 -4.8707 -1.97935 -6.45564 0.391409 0.10615 -0.721349
711 -4.09154 -2.89933 -6.49652 -0.399685 -0.913962 0.313597
736 -3.93862 -1.95015 -7.08073 -0.72479 -0.337769 1.45945
998 -3.13598 -1.79849 -6.2776 -0.127554 0.597623 0.113072
689 -3.10321 -2.58645 -6.9628 -0.0289613 -0.132373 1.32133
716 -2.16999 -1.73958 -6.96072 0.110143 -0.45614 -1.09037
1001 -2.33218 -2.61853 -6.2271 0.0220061 -0.406192 -0.213881
715 -1.60301 -1.84714 -5.96452 0.669977 1.51037 -0.530667
693 -1.46163 -2.47799 -6.91417 0.128584 -0.868675 -0.0550988
717 -0.713488 -1.62356 -6.72592 -0.000653916 -0.550759 -0.728088
696 -0.563899 -2.48738 -5.98663 -0.564227 -0.926499 1.35763
1587 -10.1026 2.5515 -2.97896 -0.400682 -0.384808 0.591741
1151 -0.0355153 8.47381 -4.30172 0.76209 1.37887 -0.0413695
728 -9.07028 -1.29993 -6.91193 0.727737 -1.10788 -0.913218
752 -9.39922 -0.165364 -6.65061 0.523436 -0.431408 0.399114
750 -8.19384 -0.431801 -6.87339 -0.098861 -0.41339 -0.341456
729 -7.33607 -1.14448 -6.68788 0.151368 0.651475 0.387838
727 -8.21262 -1.20817 -6.03732 1.38206 0.604872 -0.309747
1596 -7.56011 -0.406503 -5.8662 0.467585 0.570915 0.750373
754 -6.5133 -0.344182 -6.78718 -0.166809 -0.839532 -0.333591
755 -6.52096 -1.2543 -5.9098 -0.419848 0.0159874 1.12995
1042 -5.57799 -0.549175 -7.49944 -0.0440078 -0.267795 0.26816
734 -4.74364 -1.22873 -7.44817 -0.437365 0.261504 -0.21568
1045 -4.78238 -0.516403 -6.66558 0.195489 0.00619807 -0.143536