ITEM: TIMESTEP
181000
ITEM: NUMBER OF ATOMS
6912
ITEM: BOX BOUNDS pp pp pp
-1.0259855680060181e+01 1.0259855680060181e+01
-1.0259855680060181e+01 1.0259855680060181e+01
-1.0259855680060181e+01 1.0259855680060181e+01
ITEM: ATOMS id x y z vx vy vz
8 -9.30628 -9.34373 -9.29013 -0.51505 0.64001 0.194885
3400 -6.14692 2.32883 -10.2478 1.01403 0.596645 -0.674525
1921 -10.2058 3.05559 -2.5285 1.29782 -0.38496 0.54712
1684 -10.1803 8.55416 -0.573477 -0.0540275 -0.699227 -0.608655
271 -7.37207 -9.07117 -8.54716 -0.0879968 0.773718 0.175165
294 -8.50677 -9.11191 -8.61439 0.656648 -0.854843 -0.854624
3205 -6.53318 -9.87925 -9.5237 -0.800441 -0.124305 1.23028
3180 -6.30345 -9.17913 -8.26069 -0.0879369 -0.366321 -1.00882
283 -3.8031 10.2153 -9.04231 0.174375 0.378978 -0.206301
18 -3.89474 -9.61848 -10.0968 -0.188152 0.193138 0.292246
308 -2.31792 -10.0183 -9.24718 0.202671 1.7327 2.22291
62 -2.12221 -8.96002 -9.16894 -0.657281 0.613603 0.104328
42 -1.21351 -9.62067 -9.84396 -0.925409 -0.638253 -0.612723
333 -0.259186 -9.49573 -8.82599 0.295208 -0.518804 0.686541
43 -1.33719 9.98379 -9.41351 -0.705892 -0.429102 0.889599
32 -9.46401 -7.57995 -9.34544 0.301747 0.618021 1.02826
317 -9.51921 -8.57697 -8.65795 0.477343 -1.15262 -0.754534
3308 -2.2882 -1.80426 -10.2386 -0.218958 0.781412 -1.29255
31 -8.77178 -8.41755 -9.50593 0.698748 0.510885 0.0188629
11 -7.93176 -7.91781 -9.58061 -0.978881 -0.185587 -1.0364
318 -8.83855 -7.7768 -8.4726 1.40331 -0.11004 0.00386361
321 -6.58466 -8.70974 -9.23338 0.838907 -0.921328 1.02544
85 -5.89777 -7.31003 -9.2625 0.172535 0.158239 -0.90016
3207 -4.9808 -7.65476 -8.60527 0.455291 0.688313 0.656218
252 -4.65741 -8.55505 -9.57085 0.304601 0.288018 -0.528662
3010 -5.49821 -7.98274 -10.1869 1.2654 -0.52875 -0.136553
2488 -3.61665 -8.90035 -9.33423 -0.428389 0.435085 -1.59153
3212 -3.88873 -7.77313 -9.14843 0.0485831 -2.05596 -0.0544985
3185 -3.11018 -7.77718 -9.84873 0.448555 0.936771 1.19779
357 -1.67907 -8.03746 -9.56204 -0.865247 -1.38609 -0.761963
77 -9.27344 -5.21616 -10.1257 -0.148387 0.00440283 -1.00114
330 -1.01677 -8.63751 -9.01791 0.72628 -0.874063 -0.381684
334 -0.156374 -7.77468 -9.07289 -0.648592 0.896022 -0.161358
56 -9.47869 -5.97933 -9.4981 0.370238 0.250541 1.593
30 -8.484 -7.05405 -9.20337 0.619138 1.34816 0.109924
3275 -7.87983 -6.13152 -9.33589 -0.161652 1.20084 -0.941214
3199 -7.78046 -6.74951 -10.1868 0.534104 1.10386 0.818261
54 -8.45309 -5.91111 -10.1545 0.433145 -0.880073 -1.96643
274 -7.14387 -7.04391 -9.38892 0.305204 -0.566137 0.124077
3253 -5.45161 -6.848 -10.2217 0.748193 0.385976 -1.07646
3203 -7.00083 -5.76048 -9.88899 0.380383 -0.622981 -0.718595
3274 -6.14502 -6.2165 -9.43229 0.949334 0.00616441 -0.672465
57 -5.27476 -6.39215 -8.60556 -1.06872 -0.359729 0.411817
3249 -5.232 -5.83742 -9.86962 -1.91008 0.340694 -0.907204
3250 -4.50207 -5.83695 -8.93298 0.944666 -1.67793 0.203988
3422 -4.57257 -6.82532 -9.51661 0.226375 0.050784 0.769205
10 -3.58048 -6.72115 -10.2437 -0.295466 0.11032 -1.76138
3446 -2.57543 -6.27365 -9.82212 1.78637 -1.03758 1.49088
66 -2.3264 -7.27585 -9.23188 0.415114 -0.382392 0.878378
37 -1.90334 -5.94624 -9.09883 0.00904261 1.1042 0.546073
1151 -0.329857 8.54475 -4.31244 -0.969581 -0.220434 0.309962
638 -1.1327 -7.03373 -9.21168 -1.05631 -0.662291 0.214006
1660 -10.1492 6.78288 -0.619016 -1.06937 0.648772 0.387451
80 -9.57613 -4.29136 -9.39953 -0.108913 -0.451282 0.596971
1584 -0.252229 -1.77089 -2.84521 -0.487367 -0.148802 0.63934
633 -8.64238 -5.17507 -9.22021 -0.625523 -0.252306 0.79777
3252 -7.80323 -5.10889 -9.87243 -0.274691 -0.250838 -0.85869
372 -7.84232 -4.39578 -8.95417 0.047686 0.0614069 -0.142598
2986 -6.14997 -5.21054 -9.76301 0.455455 -0.331643 0.23131
3256 -7.07796 -5.10016 -9.01398 0.633223 0.811678 0.109226
2751 -6.91461 -4.24626 -10.0431 0.116833 -0.292451 -0.0304031
2992 -5.39277 -5.2004 -9.05258 -1.47409 0.280495 -0.306714
3037 -5.33816 -4.37734 -9.75065 1.33099 0.063434 0.117978
83 -4.39871 -5.02862 -9.72356 -0.180094 -2.36511 1.25652
38 -3.59663 -6.05489 -9.39527 0.677989 0.496589 0.257017
2482 -2.85043 -5.14769 -9.36567 -0.47419 -0.821685 -1.95886
93 -1.81022 -5.20151 -9.89909 0.76259 0.786558 0.627412
376 -2.04863 -4.85523 -8.67242 1.67737 0.353746 0.793845
72 -0.989913 -6.04467 -9.54225 -0.865063 -0.134516 -0.296865
95 -1.13904 -5.22533 -8.91529 0.320612 -0.707346 1.02973
360 -0.217643 -6.002 -8.8976 1.65164 -0.585882 0.401758
3444 -7.83111 10.1862 -10.0657 -0.134486 1.59699 1.20145
101 -9.48467 -3.60888 -10.1142 -0.350785 0.00766035 0.259081
104 -9.56453 -2.886 -9.3274 -0.351561 0.0752641 -0.418649
103 -8.66731 -3.48207 -9.3412 -0.656262 0.076761 -1.34537
105 -7.91104 -3.59097 -9.95963 0.0552336 0.124422 -0.903326
393 -7.98317 -2.64627 -9.22976 -0.969316 -0.0435739 -0.0820223
78 -8.65089 -4.33354 -9.96034 0.0864164 0.848581 -0.964869
81 -6.28632 -4.33708 -9.15097 -0.605299 0.275399 0.550606
370 -6.31781 -3.41006 -9.7054 0.732401 -0.785071 -0.610004
107 -7.195 -3.50636 -9.19082 -0.318296 -0.238228 -0.857419
3260 -4.49258 -3.80687 -9.83681 0.637514 -0.790029 -0.256111
684 -5.3255 -3.37293 -9.37421 -0.829275 0.361369 -0.274744
133 -4.53507 -2.75738 -8.93103 1.30038 0.373556 0.232732
254 -3.52082 -4.34546 -9.59234 -0.112461 0.737655 -0.671133
375 -2.85247 -3.33007 -9.58863 1.01975 1.14167 0.371563
378 -2.12758 -4.1895 -9.49414 -1.1227 -0.505666 -0.205928
1945 -10.229 5.67916 -0.32148 -0.218909 0.719867 -0.0341777
382 -0.247183 -4.32964 -8.83329 1.86331 -1.49242 0.17933
96 -1.04569 -4.32868 -9.70436 -1.11081 0.315115 -0.136175
115 -1.24374 -3.33875 -9.38427 -0.884638 0.210789 -0.962981
119 -0.266564 -3.34798 -9.64288 -0.829661 -1.10015 -0.568799
125 -9.64971 -1.96898 -9.99394 -1.32434 0.9202 -0.596936
414 -8.74054 -1.9986 -9.32069 0.106122 -1.58996 1.56241
127 -8.67228 -2.85935 -10.2029 0.770806 0.236462 -0.392095
1007 -0.0164353 -1.84356 -4.38729 -1.96429 -0.30834 -0.473999
417 -6.3649 -2.5789 -9.06259 -0.679577 0.328458 -1.27698
441 -7.21484 -1.83223 -9.03705 -0.544211 -0.042634 1.13627
153 -6.302 -1.74975 -9.53871 -0.286281 1.06292 -0.58151
390 -7.24804 -2.64776 -9.96578 -1.31858 -0.499558 -1.3941
442 -4.91659 -2.52201 -10.202 0.281542 -0.849932 -0.620953
448 -5.35205 -2.13104 -9.32806 0.707369 0.0844481 0.240281
418 -4.20792 -1.82116 -9.7136 0.463964 -1.17432 -0.379966
3303 -3.98126 -2.88924 -10.1298 0.14019 -0.59231 -0.0427038
137 -3.21196 -2.31102 -9.66709 0.0562505 -1.66582 0.0723601
116 -2.13666 -2.49511 -9.4374 -1.25232 -0.857408 -0.188704
139 -1.34219 -1.73503 -9.4006 0.457773 -0.236861 0.894896
435 -10.0268 0.0134744 -7.45959 -0.209712 -0.0752979 0.185794
120 -0.544894 -2.3922 -9.45383 -0.409035 -0.53858 0.958321
128 -9.7856 -1.09211 -9.31495 -0.582404 0.353441 -0.576341
150 -9.01711 -0.265828 -9.30047 0.0299641 -0.964974 0.312105
149 -8.86751 -1.17752 -10.0683 -0.760934 1.77723 0.668356
151 -8.04778 -1.03697 -9.33587 -0.922013 0.949773 0.3858
1620 -1.1756 -0.210734 -0.204783 -1.04444 1.24255 -1.04175
465 -7.10943 -0.30339 -9.03042 1.82448 -0.106655 1.60447
801 -5.9289 -0.668478 -9.7604 -0.205386 1.28038 -0.502431
184 -4.70066 -0.9028 -9.91498 0.55605 1.44603 1.1943
3352 -5.66273 -1.18404 -8.85866 -0.736373 -0.98904 1.44357
422 -2.99244 -0.858705 -8.48875 0.614598 1.3845 -0.771566
160 -3.70966 -0.775143 -9.39818 -0.379288 0.309366 -0.135379
155 -4.55439 -1.27932 -8.87362 -0.487303 -0.33791 0.143248
3447 -2.72751 -9.32499 -10.1459 0.425187 -0.201007 1.30977
140 -2.36226 -1.15141 -9.27718 -0.522429 0.0408084 -0.511991
2718 -10.2555 1.78133 -0.807812 -0.398304 0.0093133 0.38481
141 -0.563587 -1.52792 -10.2104 0.156177 -0.016759 -0.078204
144 -0.635203 -0.83628 -9.32984 -0.535741 0.240057 -0.542657
455 -0.016519 -0.0465617 -7.61915 -0.916803 0.506011 -0.324181
163 -1.48589 -0.0413041 -9.51583 -0.430971 -0.286494 -0.201016
152 -9.88982 0.631502 -9.1818 0.256866 1.33714 -0.806033
175 -8.91475 1.58435 -8.84108 0.209489 1.26992 0.419006
173 -9.73578 1.54619 -9.9834 -0.168654 -0.454488 -0.144956
3343 -9.00482 0.659647 -9.76674 -0.194372 -0.449945 2.08154
156 -8.12581 0.400593 -9.17855 0.151069 -1.07734 0.95851
189 -1.19857 0.733919 -10.209 0.927189 0.667614 0.751271
3367 -6.94547 0.730005 -9.38936 1.33697 -0.999097 -0.880857
3371 -5.79202 0.539319 -9.6374 0.633153 0.613442 -0.254515
3060 -5.96488 1.14724 -8.86168 -0.214265 1.87537 -0.186934
470 -6.11865 -0.0991507 -8.70918 -0.283869 0.666835 -0.349538
469 -5.15256 -0.14519 -9.12108 -1.05396 0.245553 0.472384
2748 -4.88106 1.18462 -9.36276 0.153645 0.15556 0.999052
159 -2.96199 -0.0303116 -9.55318 -0.013042 0.686943 -1.3186
206 -4.02454 0.442864 -9.56543 -0.898836 -0.205089 -0.766436
1989 -0.701932 6.80159 -0.153298 0.491188 0.619517 1.4054
450 -2.19957 0.692963 -9.52885 -0.264087 0.467685 0.0871471
796 -10.0768 6.83115 -5.89729 0.177491 0.38919 0.396075
168 -0.581058 0.743162 -9.35182 0.408017 1.51153 0.823599
50 -10.1827 -6.08178 -10.2349 -0.856411 -0.55475 -1.15108
176 -8.87325 2.35642 -9.66667 -0.755959 0.549904 0.687925
199 -9.24023 2.64578 -8.68267 0.926125 -0.45439 0.0436284
1806 -8.29661 -5.1012 -0.14274 -0.72952 -0.15672 -0.188472
487 -7.95547 1.67066 -9.41937 0.982216 0.70957 -0.367251
200 -7.66846 2.70292 -9.78658 -0.0855227 1.23041 -0.0349482
2779 -6.81081 1.70967 -9.61524 -1.5257 -0.336693 -0.115893
518 -5.04628 2.30423 -9.2839 1.31728 -0.17035 -0.316658
188 -3.22034 1.19728 -9.54195 -0.775384 -0.749559 -0.359405
1669 -4.3857 1.89998 -10.1216 0.373499 0.156428 0.108015
2464 -3.77851 2.16005 -9.16287 1.047 -0.261596 -0.506858
3332 -2.04088 1.71675 -10.0639 -0.653199 -0.492746 0.783185
3374 -2.22428 2.39809 -8.98881 -1.36512 -0.800947 0.364073
213 -1.32483 2.47568 -9.94772 0.357975 -1.29548 -0.343059
491 -2.88884 2.27133 -9.7305 -1.74658 -0.813244 -0.894289
501 -1.56617 1.50419 -9.08929 -0.0658607 -0.232004 -1.67397
192 -0.728074 1.68993 -9.97105 1.57217 -0.293847 0.330194
215 -0.509234 2.48642 -9.27814 0.615538 -0.404259 -1.42183
774 -9.47406 3.38479 -9.69489 0.323458 -0.314191 0.68356
228 -8.81847 3.89747 -8.72986 1.97199 0.710147 -1.26504
1054 -0.0404055 2.51585 -5.08689 -0.087555 -0.593962 0.769922
3375 -3.66091 4.5334 -10.167 0.700492 -0.113203 -0.506026
2458 -8.43461 3.27387 -9.40542 -0.137537 0.0761054 0.0843232
1047 -6.64997 3.06121 -9.50736 -0.279383 -0.929522 0.943095
1681 -10.1651 7.61377 -1.4344 0.698203 0.485397 0.502529
227 -5.46279 3.28237 -9.25572 -0.468826 -0.829444 0.555873
233 -4.18699 3.6577 -8.89605 0.367365 -0.639258 -0.164137
223 -3.33832 3.42786 -9.59994 -0.962011 0.0434867 -0.874274
3344 -3.40933 4.31128 -8.90856 0.712442 -0.373814 0.758045
212 -2.32563 3.27754 -9.7345 0.404515 -0.130206 -1.31919
3404 -2.2528 4.08824 -8.85676 -0.0683548 -1.82899 1.03405
209 -1.46807 3.20243 -9.24275 -0.693096 1.40903 -0.31582
3399 -1.60198 4.08466 -9.8265 -0.336318 0.0970762 -0.61351
3384 -0.430646 3.34504 -10.0794 -0.135754 0.247433 -0.296832
498 -0.68719 4.05861 -9.2623 0.339209 -0.33449 -0.133915
194 -10.0936 4.25993 -9.68327 -0.463443 0.00243971 -0.186021
2776 -1.30214 5.69536 -10.0251 -0.945196 -0.806882 -0.73516
2460 -9.30117 4.9273 -8.96923 -0.735055 0.491641 -0.0884877
249 -8.3423 4.95539 -9.51635 0.203305 -0.0983377 0.233669
506 -7.56092 5.78569 -8.56775 -0.0806905 0.145827 0.465478
784 -3.25261 5.36787 -9.45631 -0.131374 -0.804255 -0.518384
3423 -2.63645 4.34549 -9.84752 -0.197692 -0.0454136 -1.01552
3144 -1.36807 4.81304 -8.99078 0.380836 0.97482 0.690358
3403 -0.734642 4.84674 -10.0494 -0.997961 0.638744 1.54489
224 -9.79528 6.02148 -9.15099 1.29403 -0.0289036 0.0217352
245 -9.94224 6.97407 -9.98741 0.543055 1.2664 -1.01092
222 -8.82521 6.05173 -9.5478 0.26813 -0.593891 0.936331
246 -8.95931 7.19643 -9.44856 0.331769 0.948063 -0.0473264
243 -9.76906 7.01287 -8.76619 1.20445 -1.61037 0.766646
533 -8.29226 6.67206 -8.79696 0.892636 0.835985 -0.152911
3396 -7.91126 6.55393 -10.226 0.182116 0.738759 -1.21099
2797 -3.32723 6.39069 -10.1554 -0.326829 -0.379045 -0.489454
2462 -2.22303 5.43511 -9.36576 0.906655 -0.752407 -0.047419
3397 -2.42821 7.04466 -9.16929 -1.47755 -0.206869 0.804315
3377 -1.5032 6.51337 -9.36186 0.273144 -0.800459 0.0174182
261 -0.609196 5.74772 -9.13866 0.120374 0.632878 -0.225603
3456 -0.317288 9.25713 -10.2154 0.247729 0.0512625 -0.281702
282 -0.558522 8.2688 -10.1372 0.637049 -0.642058 0.351168
248 -9.79825 7.92443 -9.41289 0.312588 1.72432 0.441284
3107 -8.7969 8.22207 -10.1656 -0.368623 -0.335608 -0.202188
2242 -8.0305 7.66306 -9.26568 -0.584136 0.516058 0.0634411
3432 -1.7362 7.56658 -9.73734 0.801119 -1.18575 0.485256
3187 -3.19114 8.86408 -9.33125 -0.14911 0.142194 -0.0061987
548 -2.83254 7.91551 -8.82887 -0.254442 0.359949 -0.822071
570 -1.70718 8.58235 -8.85955 -0.16123 1.37631 -0.845573
3455 -0.74824 7.66746 -9.35192 -1.47565 0.273176 -1.12145
272 -9.43939 9.33896 -9.32691 -0.238423 0.180038 1.0457
3443 -8.74088 -10.1765 -9.31396 -0.750804 -0.157351 1.32019
538 -8.4716 8.87763 -8.92138 1.54688 0.144001 -0.346886
2891 -7.57821 -8.81885 -9.85785 -0.958441 1.77335 -0.640654
3420 -7.68121 10.25 -8.96174 -0.6 -0.100152 -0.282719
3137 -3.0385 10.0672 -9.92025 -0.329642 -1.19265 0.290759
1920 -0.0285259 3.52494 -0.542762 0.156009 0.675069 0.279136
258 -2.23566 9.37552 -9.33189 0.966453 0.483293 -0.618945
24 -0.199556 10.0163 -9.49905 1.00079 0.531661 0.114818
23 -0.649624 8.99942 -9.21743 0.602445 -0.963272 -0.216226
296 -9.56613 -9.40572 -7.8902 -0.294813 0.991321 0.883722
293 -9.57378 -10.2038 -8.63954 -0.210919 -0.704724 0.649588
295 -8.63818 -9.90978 -7.76736 -1.13762 0.448835 0.8629
6 -7.91043 -9.10126 -7.57707 0.920107 -0.646555 0.343158
3445 -5.25077 -9.44526 -8.1248 -0.570035 -0.0294351 1.08968
617 -4.88137 -9.6403 -7.08332 -0.761407 0.571782 -0.266535
572 -4.08217 -9.60595 -8.17705 0.00135268 -0.621468 -0.339088
860 -3.21286 -9.529 -7.22906 -0.999167 -0.367525 0.556643
593 -3.11515 -9.05761 -8.34101 -1.41544 1.72201 0.249474
307 -2.17033 -9.58191 -8.12406 -0.582972 -0.555577 0.173196
854 -2.17318 -8.64923 -7.39747 -0.53268 -0.419367 0.107869
306 -1.29015 -9.67153 -8.81532 -0.169046 0.185298 -0.20339
312 -0.566812 -9.79727 -7.6813 0.345538 -0.111561 -0.152669
320 -9.75 -7.74455 -7.75435 1.18676 1.1398 -0.0240917
319 -8.86649 -8.55124 -7.64376 -0.15177 -0.924923 0.759427
3179 -7.87961 -8.12715 -8.55238 -0.302316 -0.163783 0.820451
322 -7.9623 -7.65504 -7.456 -0.0869594 3.08232 0.199625
300 -6.84753 -7.68384 -8.49711 0.0900623 0.597508 0.827947
3184 -7.00616 -8.43489 -7.40974 -0.58746 -0.597985 -0.21875
20 -5.98353 -8.23733 -8.45656 -0.709959 1.17042 -1.39643
345 -5.59464 -9.06745 -9.13607 0.55564 -0.497563 -1.17173
15 -5.69752 -8.98691 -7.29839 -0.754821 0.437271 1.598
3202 -5.01231 -8.36592 -7.77075 0.682827 -0.708357 -0.172134
567 -3.95532 -7.86585 -7.96501 -0.16658 0.618705 -0.73413
3164 -3.05157 -8.035 -8.2694 1.31867 -0.379115 -0.0326341
44 -4.33979 -8.71317 -8.53357 0.342865 1.64649 0.832412
355 -2.78967 -7.66928 -7.4106 -0.563889 0.00349603 -1.12151
336 -1.8412 -8.17688 -8.49516 0.234578 0.583787 0.824139
641 -1.23722 -8.84226 -7.91755 -1.45158 0.672435 1.81204
335 -0.265574 -8.51586 -8.19029 0.60203 -1.25487 1.66185
331 -0.999444 -7.63484 -8.32061 -0.236644 -0.893008 0.49667
622 -0.454595 -7.59989 -7.41812 0.639711 0.138233 -1.41859
341 -9.42622 -6.89436 -8.48651 -1.22085 0.619847 -0.267619
344 -9.63034 -5.9997 -7.76753 -0.140388 0.45671 0.286718
343 -8.71415 -6.97807 -7.80403 0.156252 -1.35252 0.876363
342 -8.82838 -6.07655 -8.60019 -0.0326784 0.532884 1.20576
616 -7.76995 -6.87453 -8.42783 -0.994627 -0.00757625 0.695361
36 -7.89455 -6.2595 -7.66306 -1.56671 0.551594 -0.886851
9 -6.86728 -6.1614 -8.32019 -1.74003 0.15372 -1.02219
352 -7.0784 -6.93287 -7.27675 0.521829 1.01756 0.888194
2894 -5.96129 -7.16349 -8.03619 -1.24593 -0.913897 -0.38808
324 -6.12693 -6.22077 -7.41272 0.239627 0.622304 -1.58541
346 -4.94855 -7.1065 -7.62674 0.547027 -0.409378 0.548426
371 -6.22189 -5.18656 -8.26264 0.724975 1.26874 -0.207185
853 -4.24337 -6.91458 -8.55486 0.234562 1.44721 0.817488
3452 -3.17184 -6.95254 -8.2902 -0.625932 0.465285 -0.754039
327 -1.99261 -7.13797 -8.22021 0.586058 -0.290233 -0.67757
643 -1.10784 -6.82893 -7.30101 1.15874 0.453476 -0.294082
356 -1.16713 -6.34109 -8.29376 -1.17563 -0.735113 1.23936
359 -0.250187 -6.88705 -8.40043 0.109463 -0.717028 -0.387923
365 -9.74717 -5.21618 -8.60363 0.13778 -0.421307 0.229833
368 -9.73426 -4.38748 -7.86339 -0.502737 0.773067 -0.0584531
348 -8.9171 -5.09857 -7.9113 1.13942 -0.17739 -0.41757
79 -8.81669 -4.16555 -8.5921 -0.721143 -0.115378 0.634032
109 -7.95834 -5.34269 -8.31191 1.55299 -0.594804 -0.159565
366 -8.01285 -4.45172 -7.8452 0.220848 0.304348 0.660553
613 -7.1298 -5.35005 -7.53914 0.621605 0.271189 -0.266284
86 -5.49528 -4.27203 -8.10834 0.410597 -0.507686 -0.110619
974 -4.91506 -5.21236 -8.195 -0.47257 0.881596 -0.6012
332 -4.85403 -5.919 -7.39297 -0.0963468 0.222923 -0.872775
92 -3.95648 -6.00852 -7.97912 0.365539 -2.13487 0.818974
687 -3.67689 -5.19537 -8.54313 -0.625694 -0.749441 -0.667109
424 -2.80443 -4.90432 -8.00076 -0.980794 -2.00689 -0.231506
281 -2.88408 -5.92652 -8.57655 -0.415795 1.18742 -0.919943
645 -2.1384 -5.78034 -7.88791 0.246288 -0.131438 -0.199023
354 -1.46763 -4.99082 -7.86493 1.24696 -0.720821 -0.725825
383 -0.305595 -5.19579 -8.0136 0.16051 0.959667 0.0224808
389 -9.71101 -3.5204 -8.53412 -0.905064 -0.642033 0.703025
392 -9.85607 -2.69983 -7.80899 0.981444 -0.765425 -0.670738
657 -8.93643 -3.43897 -7.75362 -0.491666 0.512707 -0.121569
55 -8.00789 -3.48686 -8.34762 0.126957 0.360495 1.53525
391 -8.83633 -2.78946 -8.50219 0.921051 -0.0811829 0.999127
682 -6.99033 -4.43865 -8.18278 -1.05891 0.758339 0.864023
688 -7.35893 -3.52445 -7.56472 -0.584026 0.892007 0.415571
664 -6.36431 -3.54377 -8.4917 -1.10662 0.579775 -0.854842
350 -4.6074 -4.42916 -8.80747 0.213355 0.165831 1.85187
445 -4.60926 -3.37854 -7.99861 -0.398035 1.06068 -0.424583
419 -5.51063 -3.54953 -7.34771 -0.723732 0.230886 -1.09009
135 -3.8344 -3.57316 -9.0314 0.0988319 -0.994464 1.33457
3428 -3.77129 -4.15489 -8.05421 -1.26376 -0.727539 0.190781
1289 -2.96279 -3.37218 -7.70303 -0.321954 -0.828255 1.11269
112 -2.96865 -4.2125 -8.6777 1.24767 0.679739 0.840679
668 -2.11971 -4.10296 -7.81426 1.41118 -0.714531 -0.71771
401 -2.15258 -3.28622 -8.58124 -0.590204 -0.54513 0.794866
379 -1.32678 -4.08741 -8.67106 -1.81832 -0.988451 0.167665
403 -1.39945 -3.30108 -7.73246 -0.783065 -0.831143 0.0392907
381 -0.68959 -4.14844 -7.71982 -1.06401 -0.794219 -0.0663174
405 -0.541127 -3.11128 -8.64754 0.861785 1.46521 1.22167
413 -9.6737 -1.97011 -8.71968 -0.854118 -0.429616 -0.852991
725 -8.99489 -2.06834 -7.72539 -1.63235 -0.57884 -0.624573
678 -8.08471 -2.82061 -7.59761 -0.0825605 0.980615 1.12104
415 -7.93846 -1.9261 -8.32338 -0.940857 -1.58341 -0.102291
658 -7.22124 -2.74009 -8.30955 -0.074369 -0.656893 1.25922
369 -6.43458 -2.89377 -7.46399 0.343946 -0.659171 0.450629
420 -7.31541 -2.07322 -7.40049 -0.858492 0.267635 -0.132236
443 -6.46325 -2.03295 -8.14434 -0.078612 -0.201462 0.0147344
396 -5.51811 -2.59792 -8.25685 1.02435 -0.0293541 -0.814558
733 -4.83095 -1.78787 -7.84176 -1.07215 -0.553565 0.602432
136 -3.5575 -1.89611 -8.82875 0.319092 -0.379468 -0.408819
712 -4.00202 -2.52083 -8.03971 0.0103644 0.458702 -0.387682
713 -2.97448 -1.78581 -7.68617 0.149878 -0.000792686 -0.207521
398 -2.97662 -2.65543 -8.48649 -0.519263 -0.195756 0.838599
425 -2.23034 -1.80168 -8.45693 -0.151088 2.41942 -0.771055
404 -2.21685 -2.60464 -7.73199 0.8338 -0.32179 -0.617012
427 -1.60514 -1.73308 -7.54715 -0.307466 0.846885 0.514256
402 -1.33448 -2.48515 -8.49417 -0.678328 -1.35965 -0.271938
408 -0.653766 -2.28714 -7.68768 -0.351367 0.276839 -0.349535
429 -0.578739 -1.57461 -8.56756 0.566661 0.477239 0.543854
416 -9.64054 -1.17757 -7.77556 0.73191 -0.2769 1.46409
437 -9.83821 -0.234725 -8.45931 0.0640431 0.733634 0.263616
440 -8.92426 -0.373135 -7.67447 -0.403235 0.157059 -0.373644
1527 -4.60303 -6.05798 -0.13778 0.506771 0.544365 -0.727909
439 -8.82969 -1.19496 -8.61828 1.04574 0.332871 -0.111812
726 -8.36907 -1.23065 -7.49247 0.836803 -0.286466 -0.555702
468 -7.95714 -0.528529 -8.40659 -1.09715 0.474286 -0.480058
203 -7.49765 -0.579184 -7.46598 -0.675721 -1.84904 0.317018
753 -6.68515 -1.04563 -8.48527 -0.702988 -0.161444 -0.112384
1042 -6.47614 -0.329122 -7.69793 -0.447138 -0.363528 0.561726
734 -5.78924 -1.26101 -7.87819 0.849071 -0.411341 0.587482
472 -5.20445 -0.3697 -8.0809 -0.172231 -0.24026 0.442793
423 -3.95559 -1.15322 -8.00215 0.31612 -0.532746 1.17448
158 -3.31397 0.00551892 -7.69856 0.0852603 0.744802 0.644935
428 -2.3511 -0.771458 -7.6486 -0.749944 2.08759 -0.249912
426 -1.5444 -1.03692 -8.36185 0.271583 -0.0493646 -0.315142
449 -2.157 -0.19812 -8.57533 -0.0265499 0.0297092 0.154086
432 -0.657031 -0.842386 -7.61019 0.295471 -0.634341 1.22266
438 -9.01217 0.467282 -8.38119 -0.902123 -0.344277 0.588643
434 -10.1487 0.867112 -8.10611 -0.570102 0.630271 1.06128
466 -7.93833 0.348722 -7.62684 -0.639342 -1.17249 0.191343
180 -8.40553 1.3323 -7.9221 0.815882 0.153213 -0.581289
1355 -7.36064 1.3521 -7.27188 1.46398 -0.999246 0.61626
463 -6.93272 0.53639 -8.20995 0.512298 0.101658 1.33347
204 -6.55129 1.54118 -7.97976 0.324752 0.571778 -0.0584749
1333 -5.91375 0.559224 -7.90057 0.31719 -0.142444 -0.852937
545 -5.03871 0.688451 -8.42541 0.187183 0.581419 -0.77141
1048 -5.05046 0.843568 -7.22644 0.330235 -1.23785 0.68703
467 -4.24372 -0.195418 -8.60894 -0.534312 0.352063 -0.563945
164 -3.11593 0.547873 -8.59739 1.13086 0.507526 -1.07
494 -4.00847 0.64845 -7.92503 -0.219661 -0.55488 -0.035688
471 -3.13521 1.26385 -7.71594 -0.747819 -0.277875 0.96883
451 -1.47303 -0.160489 -7.61667 -0.23315 0.315079 0.336153
473 -2.23356 0.601328 -7.7616 0.55638 -0.193202 1.77162
185 -1.35339 0.652028 -8.60235 -0.137166 -1.5065 -0.562125
453 -0.796753 -0.221174 -8.48137 0.235448 -0.69251 -0.0204086
477 -0.778428 0.774419 -7.64273 1.52024 0.505604 0.0339889
2014 -0.356532 9.59725 -0.399636 0.716326 0.305069 -1.57414
461 -9.46482 1.55303 -7.94132 -0.332859 0.125395 0.339954
464 -9.09433 2.30594 -7.32526 -0.374182 0.164013 0.0561975
3378 -2.34861 8.48157 -10.1793 -0.0556518 0.261621 -0.211486
232 -8.23166 2.3598 -8.6585 -0.85712 -1.37425 1.19317
540 -7.93845 2.3751 -7.54892 -0.175079 0.0575722 0.850238
539 -7.22691 2.83375 -8.56963 0.50337 1.0525 -0.164216
3373 -6.09663 2.24215 -8.88206 -0.563033 0.161514 -1.13256
490 -7.50431 1.72648 -8.4477 0.150621 1.40544 -0.427268
770 -6.90272 2.53355 -7.50968 -0.198847 -0.333153 0.518053
1312 -4.78801 1.7451 -8.3237 1.71342 -1.23467 0.19973
1072 -5.33454 2.75166 -8.29177 0.197784 -0.329539 -0.648565
759 -4.33606 2.17708 -7.41038 0.257444 0.54058 0.575637
782 -3.99594 1.16425 -8.81035 0.0292569 -0.851008 -1.02341
207 -3.30874 2.18562 -8.2402 -0.19846 0.568825 -1.34118
187 -2.49759 1.41702 -8.54625 -0.632364 0.25938 -0.774531
519 -2.49919 2.66529 -7.78976 -1.18934 0.315645 1.19744
211 -1.38731 2.50055 -8.28488 0.256298 0.0753866 -0.247841
476 -1.61809 1.51051 -7.90877 0.586486 -0.721191 -0.0386857
474 -0.666966 1.62775 -8.37087 0.621509 -0.924995 -0.224974
480 -0.712927 2.51921 -7.42119 -0.919692 2.01622 -0.458555
818 -10.017 7.69931 -6.74801 0.835788 -0.438047 1.1672
483 -9.31773 3.25195 -7.81483 -0.817624 0.365012 0.375899
482 -8.22636 3.35603 -8.07507 -1.08286 -0.233772 -0.963337
3393 -8.05574 4.60942 -8.31807 -1.25909 -0.0766216 0.501132
1610 -7.89038 4.06279 -7.36192 -0.121476 -0.452363 -0.175794
1653 -6.6147 3.69095 -7.53689 0.725665 0.596507 0.0924855
1357 -4.29713 2.88515 -8.19215 -0.226565 -0.31099 1.20616
236 -3.01254 3.31347 -8.57225 0.342149 -0.34276 0.530381
1619 -4.06169 4.33087 -7.83534 -0.022236 -0.698406 0.76292
499 -1.67211 3.29569 -7.30478 -0.323695 0.610629 0.423487
788 -1.41528 3.94427 -8.35301 -1.13094 0.344312 1.29872
2174 -2.96457 4.25517 -7.8934 0.487653 1.02422 0.0824951
497 -0.649604 3.20184 -8.5321 1.12812 -0.326576 -0.851609
502 -0.81786 4.22339 -7.5271 -0.446602 -0.349554 -0.346381
1374 -9.18251 4.88579 -7.78305 1.57708 0.754297 0.108604
797 -8.30513 5.2707 -7.37186 -0.049668 -0.321435 0.125106
259 -3.49459 5.33801 -7.87302 -1.14259 0.531963 0.823403
525 -2.76233 5.10709 -8.52044 -0.291994 -0.240157 0.497068
547 -2.5987 5.87657 -7.66362 0.304453 0.858806 0.115685
805 -1.83082 4.86012 -8.01005 -0.438605 -0.0686026 0.439176
3297 -6.94023 -1.06339 -9.91874 0.0276518 1.22045 0.0222946
239 -0.668043 4.99895 -8.26345 0.130445 0.742706 0.422369
240 -0.929015 5.96085 -7.71257 0.161819 0.693462 0.76133
531 -10.0597 7.01054 -7.57076 -0.357555 -0.775974 -0.90848
1565 -9.32575 4.99932 -0.0595694 0.496481 0.797093 0.469599
3395 -8.97321 6.99414 -7.89218 -0.670771 0.971124 0.426411
3109 -9.24508 5.92385 -7.49535 1.5771 -0.397002 0.789491
537 -8.88755 5.842 -8.44135 0.468807 0.873509 1.07864
798 -8.19146 6.44514 -7.24905 1.03103 0.723666 -0.137577
1046 -7.33113 7.0199 -8.85448 -0.357283 0.521916 0.753828
231 -2.95556 6.12996 -8.84974 0.945295 1.06874 0.682147
1069 -3.56953 6.38259 -7.42769 -0.946253 0.542228 -0.213313
521 -1.82405 5.9523 -8.5138 -0.0647445 0.714325 -0.0676095
760 -2.56118 6.91415 -8.0208 -0.529217 -0.156273 0.478366
549 -1.57632 6.799 -7.74014 1.38803 -0.479222 0.242863
285 -0.621566 6.69482 -8.50904 -0.463172 1.2736 0.225347
536 -9.69295 7.9534 -7.71345 0.137159 -1.34239 -0.0657488
557 -9.52944 8.62355 -8.54333 -1.31974 -0.13511 -0.323745
559 -8.78803 8.60764 -7.89678 -0.437916 -0.955711 -1.09442
276 -8.76748 7.75876 -8.58677 -0.835928 -0.896296 -0.323828
534 -7.57981 8.17814 -8.31071 0.351688 0.143603 -0.266638
783 -3.26373 7.601 -7.46853 0.557203 1.46826 0.0209208
566 -2.32891 7.99667 -7.85365 -0.258409 -0.0554812 -0.422403
573 -1.61723 8.76827 -7.74395 0.228068 -1.23525 0.483355
546 -1.50338 7.58571 -8.66565 0.0141123 0.874515 1.17642
568 -2.28615 9.32712 -8.22723 0.815717 0.749906 0.303998
264 -0.795216 8.38117 -8.4223 0.0843051 0.906127 0.200583
552 -0.783254 7.60732 -7.71487 -0.0979388 -0.336934 1.53538
560 -9.5298 9.50638 -7.83376 -0.884812 0.409423 0.293124
269 -9.7469 8.76055 -10.1694 -1.27224 -0.131115 -2.24442
297 -7.77776 9.33554 -7.82421 0.262387 0.484405 0.324774
558 -8.61333 9.79127 -8.36268 -0.120722 -0.215917 0.300036
3204 -7.56407 -10.118 -7.826 -0.213959 0.443142 1.22543
305 -3.05742 -10.1388 -8.32502 -0.315513 -0.340371 0.486879
309 -1.47047 -10.2526 -7.88155 -0.0119807 0.875099 0.813894
310 -0.556018 10.0661 -8.55362 0.858159 -0.345489 0.29518
576 -0.680762 9.26929 -7.62399 1.18709 1.82911 -1.98133
1031 -0.0362362 -0.0504966 -4.40784 -0.0596102 -0.850332 -0.307845
584 -10.005 -9.44285 -6.25804 -1.34144 -1.14108 -0.124523
582 -8.83599 -9.40101 -6.90877 0.787265 0.949386 0.134338
588 -8.24285 -9.29263 -5.84712 -0.177947 0.419598 0.264545
852 -7.99059 -9.91193 -6.65256 0.791005 -0.87167 0.308761
589 -6.72951 -9.61038 -7.41041 0.590803 -0.653234 0.332381
562 -7.25655 -9.06899 -6.51732 -0.305246 1.01215 0.667583
850 -6.65517 -9.27612 -5.61117 0.675812 -0.0345175 0.493511
541 -5.62262 -9.60178 -6.3066 0.550272 -0.515462 -0.710142
830 -3.88736 -9.28616 -6.48227 0.457995 0.8476 -0.703559
594 -1.27827 -9.37754 -7.02749 0.468287 1.0236 0.959048
596 -2.65078 -9.18497 -6.4612 -1.01244 1.6799 0.256709
619 -1.66584 -8.51076 -6.31804 -0.331459 0.36503 0.121315
270 -6.91782 -7.84725 -10.0317 0.932542 0.152825 -1.62695
600 -0.869001 -9.66924 -5.91288 0.458353 -0.108761 -0.0136628
605 -9.72876 -8.47379 -7.0255 0.829597 0.947673 -0.762802
608 -9.76033 -7.6422 -6.36111 0.0235127 1.61259 -0.379437
607 -9.14485 -8.54958 -6.16243 -0.0443512 -0.779589 -0.070129
606 -8.92206 -7.71132 -6.96759 -0.145204 -0.258662 1.254
609 -8.18815 -8.52457 -6.70918 -0.346313 -0.59891 -0.242471
612 -8.29265 -7.67111 -6.06768 -0.766948 1.26729 -0.0956413
347 -7.40815 -7.70902 -6.64465 0.0914943 -0.797975 0.460537
611 -7.45722 -8.35787 -5.83914 0.175986 0.374125 0.144949
278 -6.28284 -8.87594 -6.50582 1.04409 0.326715 0.12676
587 -6.45337 -7.80295 -6.08831 -0.364195 0.670752 -0.360939
1086 -5.17122 -8.45094 -6.62795 0.230489 -0.640131 0.570547
592 -6.15219 -7.9562 -7.19072 1.18831 -1.39199 -0.2197
326 -3.99736 -8.80208 -7.41415 0.50591 0.216748 0.127064
328 -3.33086 -8.24043 -6.65509 -0.0332351 -1.62857 -0.280327
61 -4.34043 -7.9021 -6.81112 -0.445475 0.287292 0.7237
929 -2.3692 -7.60627 -6.45137 0.0482478 0.688716 0.427271
618 -1.54346 -7.81257 -7.38359 -1.26535 -0.0830732 -0.328018
621 -0.61037 -8.37083 -6.79577 -1.28719 -0.439846 0.400878
624 -0.728491 -7.86921 -5.84062 -0.549928 -0.313021 -0.0304349
629 -9.61266 -6.80599 -7.17483 -0.476797 0.0700577 0.162819
632 -9.8035 -6.05926 -6.19364 0.559344 0.56589 0.705347
631 -8.93771 -6.84041 -6.12866 -0.402051 1.35025 -0.265629
630 -8.80631 -6.12615 -6.97999 0.746703 1.53041 0.763964
634 -8.12922 -6.85776 -6.8524 -0.0941638 0.276389 0.0368396
636 -8.29807 -5.92295 -5.9549 -0.606793 -0.310934 -0.698193
610 -7.41569 -6.93771 -5.92876 0.299032 0.0586365 -0.456396
971 -7.20642 -6.00149 -6.64083 -1.29176 -0.309755 0.919614
665 -6.4878 -6.83522 -6.42874 -1.29433 0.537554 -0.293842
659 -6.54786 -5.7413 -5.82431 -0.428257 0.719307 0.318924
325 -4.95714 -6.93103 -6.63555 0.309374 0.325932 -1.15811
563 -5.64867 -6.11767 -6.48616 -0.624945 0.394415 0.548762
648 -3.88483 -6.91679 -7.37374 -0.553307 -0.733101 0.414549
685 -3.89843 -6.07173 -6.71015 0.830791 1.74558 -0.291864
637 -3.01983 -6.73642 -6.39487 -0.286465 0.981631 0.158978
349 -3.12839 -5.77852 -7.36641 -1.13388 0.268994 0.323255
351 -4.04343 -6.65509 -5.83501 1.0918 0.515364 -1.61388
569 -2.54726 -6.6958 -7.37919 1.2484 0.551478 -0.875833
953 -2.32944 -5.91337 -6.42124 -0.841332 -1.33407 -0.0588733
955 -1.49795 -6.72774 -6.35075 0.409106 2.2857 -0.608458
669 -0.224998 -6.00084 -7.28178 1.04282 0.477357 0.297356
4369 -0.420773 -6.91232 -6.55643 0.574191 -0.419697 -1.15081
647 -0.625465 -5.9515 -6.28604 0.193286 0.67624 -0.135643
653 -9.69044 -5.35624 -7.00549 -0.654478 0.649416 0.584361
656 -9.8794 -4.52182 -6.39448 0.534656 0.186792 -0.315665
655 -8.95751 -5.21917 -6.20662 -0.87379 -1.02445 0.960795
654 -9.01184 -4.31636 -7.13398 -0.618487 1.00381 0.59672
969 -8.20076 -5.34264 -7.09582 -1.58951 0.434459 -0.317096
367 -7.34615 -4.70163 -6.75034 -0.954428 0.184662 -0.635074