ITEM: TIMESTEP
199000
ITEM: NUMBER OF ATOMS
6912
ITEM: BOX BOUNDS pp pp pp
-1.0259855680060181e+01 1.0259855680060181e+01
-1.0259855680060181e+01 1.0259855680060181e+01
-1.0259855680060181e+01 1.0259855680060181e+01
ITEM: ATOMS id x y z vx vy vz
8 -9.46495 -9.32443 -9.46865 0.37929 -0.38633 0.3856
3443 -8.75773 10.2713 -9.63529 -0.589387 0.845748 -0.257647
2891 -8.12481 -10.1913 -8.59088 0.00401502 -0.441229 -0.427474
277 -7.80321 -8.75583 -8.90354 0.207276 -1.31057 1.13817
1696 -4.5854 10.217 -1.18954 0.571818 -1.84978 0.197938
3174 -7.76099 -9.52298 -9.67984 -0.797914 0.759876 0.882738
572 -6.12348 -9.41704 -9.78167 -1.61378 -0.156633 0.656245
3137 -4.93997 -9.75989 -9.83233 -0.0156209 0.199485 -0.530757
44 -4.75537 -9.45132 -8.79145 -0.658871 -1.6208 0.236588
258 -3.70405 -9.60582 -8.97251 0.765514 1.20196 -0.350257
306 -2.38034 -9.95072 -9.63396 -1.07795 1.16673 0.181324
48 -2.19298 -8.89363 -9.10967 -0.159868 0.400791 -0.228113
42 -1.18425 -9.74494 -9.74274 -0.995577 -0.0252629 -0.325696
32 -9.34923 -7.74219 -9.48038 0.577954 0.68572 0.122369
219 -10.2518 6.91668 -7.4417 0.335445 0.686814 0.630848
108 -4.96836 -2.41899 -10.06 0.815286 -0.330042 1.19387
58 -7.08076 -7.75723 -9.68533 -0.880711 1.31099 -0.0226221
3179 -7.08384 -8.44538 -8.14274 0.243144 0.303467 0.260482
31 -8.36195 -8.12061 -9.8372 1.02623 -0.569445 0.664724
321 -6.7661 -8.82304 -9.13753 0.408157 0.0161208 -0.143892
2413 -5.99592 -7.30041 -9.58311 -0.0425754 0.0247209 0.543125
18 -5.53249 -8.35403 -9.2942 0.24568 -0.280924 -0.92742
345 -4.69711 -7.75663 -9.11052 -0.694751 0.90475 -1.11031
2003 -5.53189 -10.1716 -0.482612 -1.83408 0.655306 0.275129
3164 -3.09643 -8.91173 -9.46288 0.351125 0.475125 0.611088
3185 -3.54928 -7.90531 -9.80066 0.16851 0.0291369 -0.667308
3233 -2.52182 -8.24937 -9.93039 0.295726 -0.131251 0.0866277
69 -1.5002 -7.99512 -9.30989 -0.671811 -0.534586 1.25056
47 -0.175131 -8.97662 -9.76948 1.31088 -0.377559 0.20346
56 -9.63748 -6.06565 -9.24161 1.29312 1.34145 -0.378773
30 -8.83082 -6.90053 -9.0348 1.13367 1.27633 -0.0464937
3275 -8.46359 -6.07974 -9.58985 0.444122 -1.62372 -0.692255
669 -0.601283 -6.97188 -8.0921 -2.19703 0.40892 -1.50049
300 -6.98071 -7.39083 -8.72337 0.522879 0.992085 -0.0302742
273 -6.70043 -6.52483 -9.41563 0.111254 -0.0865329 1.23865
551 -0.0543594 6.76417 -7.67884 -0.616166 0.199081 -0.174844
9 -5.03291 -6.59737 -9.26797 0.221081 -0.946129 -0.631418
38 -4.89901 -7.4876 -10.0737 0.705097 0.449777 -1.05117
66 -3.39398 -5.9516 -9.80643 -0.154883 1.27647 -0.200395
853 -3.7639 -6.89219 -9.06304 -0.659294 0.938239 -1.00265
336 -2.55885 -5.85177 -9.11134 0.624131 -0.706696 -0.233906
3446 -2.75308 -6.8522 -9.52966 1.33171 0.256751 -0.642105
37 -1.61208 -6.30524 -9.01172 -1.42071 0.523345 -1.27919
3083 -4.26216 6.91321 -9.7036 1.39767 0.621078 1.3004
638 -0.934702 -7.03327 -9.19284 1.86309 -0.39749 1.07469
72 -0.821833 -6.11875 -9.75706 -0.763202 -0.592905 -0.568508
3063 -4.12374 0.128161 -10.226 0.23912 1.04296 -0.803618
54 -9.09932 -5.15376 -9.68849 0.818441 0.785361 -0.19664
2187 -10.2623 3.31998 -0.323675 -0.531197 -0.917901 1.31871
372 -8.14956 -4.74152 -9.49668 0.475298 -0.260726 0.127737
27 -10.2223 -8.45127 -9.46768 0.28532 -0.38434 0.0593237
2986 -5.84608 -5.92686 -9.3644 -0.269348 -1.33382 0.768928
78 -7.13967 -5.28685 -9.15772 -1.00278 0.507512 -0.693798
81 -6.25714 -4.75576 -9.40493 -0.36102 -0.0154342 0.332026
3422 -4.30709 -5.76337 -9.16229 0.391635 -0.352743 -0.235287
2992 -5.19721 -5.18941 -9.45093 0.203124 0.545757 0.0555803
350 -4.24871 -4.62574 -9.06985 0.399089 0.636328 0.758976
3037 -4.02243 -4.99961 -10.1765 -1.03228 -1.67656 -0.672687
3250 -3.37174 -5.23628 -9.01001 0.309176 1.17791 -0.797533
357 -1.95277 -6.19355 -10.0411 0.078053 -0.467246 0.189482
687 -2.7971 -5.082 -10.064 -0.534063 0.347185 -0.147677
93 -1.61183 -5.31619 -9.61557 -1.70255 -1.52383 -0.156501
376 -2.17366 -5.22177 -8.40508 -0.118688 1.41617 0.769575
3529 -0.249342 -5.11081 -9.65134 0.15693 -0.023318 0.136608
95 -0.917055 -5.39818 -8.80841 1.59901 1.46885 0.534994
96 -1.07144 -4.31732 -9.72156 -0.270809 -0.237519 0.392294
79 -9.69374 -4.29073 -9.38506 1.36564 -0.146878 -1.45809
80 -8.7343 -3.47506 -9.21927 1.19933 0.863778 -0.499485
863 -0.0360252 8.35149 -6.02885 0.589895 -0.314724 0.865066
393 -8.08687 -3.7932 -10.1104 0.376408 -0.693893 0.160131
107 -7.28932 -3.96846 -9.42775 0.207689 -0.430308 -0.189343
214 -0.120205 4.15709 -10.114 0.331696 0.353617 -0.540039
370 -6.39355 -3.68358 -9.09587 -0.376957 0.107653 -0.535638
3229 -5.44894 -4.08791 -9.21463 0.0119408 -1.53315 0.24761
397 -4.56251 -3.46897 -9.34936 0.10762 0.175179 -0.0616472
684 -5.68847 -3.10866 -9.54089 -0.325192 -0.511627 -0.203928
1271 -0.162384 -4.48175 -3.80762 -0.490959 -0.486992 -0.607724
3260 -3.48317 -4.15557 -9.60564 0.408946 -0.0461446 -0.289852
135 -3.63697 -3.65041 -8.71354 -0.967478 0.240964 0.146724
378 -2.22776 -4.36353 -9.24189 -0.0884002 -1.02759 0.162016
375 -2.89506 -3.26227 -9.40646 0.300217 -0.350189 1.47258
119 -0.185549 -3.50081 -9.7694 -0.757959 -0.231095 -0.758571
115 -1.35644 -3.46866 -9.26099 -1.99978 -0.523865 1.30019
382 -0.196486 -4.4265 -8.77452 1.39638 -0.0815125 -1.09047
104 -9.60646 -2.73637 -9.51424 1.59944 1.17205 -0.0859252
414 -8.80481 -1.88642 -9.52039 -0.505431 -0.468121 0.798319
434 -10.0584 0.882505 -8.1101 -0.0215816 -0.242883 0.256969
1030 -0.0890875 0.687111 -5.01594 0.46019 -1.90672 0.222654
103 -7.92543 -2.65043 -9.32905 -0.346665 -0.643721 0.172314
441 -7.1496 -2.10802 -8.63623 -0.532493 1.07554 -0.362409
417 -6.05018 -2.57751 -8.6049 -0.890244 -0.401083 0.88172
390 -6.74694 -2.97578 -9.86806 0.280447 -0.858474 0.708831
132 -5.64618 -1.95337 -9.43167 0.745028 -1.29417 -0.0401026
133 -4.95118 -2.42551 -8.88126 -0.0676229 -0.625771 -0.381082
3303 -3.92893 -2.55975 -9.44429 -0.99928 0.026441 -0.073283
137 -3.09534 -1.9944 -9.31835 -1.36621 0.633512 0.624513
418 -4.0383 -1.47796 -9.67997 -0.177613 -0.400664 -0.246423
84 -7.31157 -1.78401 -9.86863 0.472894 1.39072 0.466524
116 -2.14603 -2.6062 -9.39913 -0.112743 -0.369119 -0.110159
2776 -2.19066 4.97355 -10.1841 0.954368 0.00894451 0.794152
139 -1.36408 -1.81617 -9.2932 -0.304103 0.266512 1.5252
120 -0.467182 -2.70135 -9.22624 1.41883 -1.55204 1.36103
141 -0.530092 -1.5646 -10.1451 -0.103177 -0.297116 -0.189966
1174 -0.189592 -9.51411 -3.69194 0.0238379 -0.336364 -1.87771
1565 -9.666 4.10376 -0.90248 0.224011 -0.544516 -0.714971
128 -9.76663 -1.25718 -9.33761 0.631459 -0.315948 -0.779044
150 -8.73431 -0.0585658 -8.87882 0.439543 -0.608175 -0.320277
149 -8.94611 -0.859633 -9.78454 -0.287363 -0.558673 -0.954672
3212 -5.01338 -8.73889 -10.1921 -0.573035 1.02015 0.0761764
126 -7.9818 -1.19137 -9.27797 -0.618504 1.17295 0.54212
151 -7.86925 -0.556007 -8.51877 -0.12067 1.4623 -0.926089
465 -7.23938 0.149799 -9.1241 1.70276 -0.228775 -0.557077
3059 -6.71385 -0.874785 -8.9942 -0.292699 0.139359 -0.802926
3297 -7.31759 -0.780802 -10.0237 1.09933 0.911336 0.917404
155 -6.34027 -0.100051 -9.86792 -1.2234 1.09597 1.13998
395 -6.37371 -1.26654 -9.96376 -0.498069 0.589023 0.786658
2722 -5.5577 -0.599371 -9.23677 -0.157691 0.0620449 0.67066
494 -4.89439 0.0287729 -8.54604 0.355508 -1.48948 -0.549232
125 -9.6767 -1.93128 -10.1359 0.169334 0.700657 1.42063
422 -3.26265 -1.06908 -8.97705 -1.06105 -0.505213 -0.351657
1669 -4.2275 -0.450277 -9.29246 -0.23021 -0.345321 -1.48519
161 -2.31542 -0.214679 -9.97091 0.721445 0.73292 0.406605
140 -2.22799 -1.25181 -9.41219 -0.300748 -1.30351 -0.98538
699 -10.0879 -1.97811 -5.75395 0.297237 0.903302 0.447461
163 -1.50887 -0.281073 -9.29102 0.500524 -0.676717 0.659406
144 -0.513108 -0.61989 -9.61037 -0.942949 0.168469 -0.347101
165 -0.620639 0.116147 -10.263 -0.551858 1.2268 -1.82941
152 -9.86467 0.541557 -9.42621 0.448245 -0.0863052 0.655447
3319 -8.8664 0.685255 -9.75059 0.846389 0.854349 0.139472
3324 -8.12982 -0.176295 -9.82632 1.14158 0.825739 -0.382195
175 -7.96945 1.32365 -9.59783 -0.0556202 -0.584246 -0.480865
469 -6.99198 1.07621 -9.9512 -0.260515 0.0109238 -0.523266
3060 -5.993 1.60642 -9.13205 -0.373459 0.5745 0.753495
203 -7.26521 1.45401 -8.85958 -0.224334 0.379286 1.13598
470 -5.39526 0.522401 -9.42925 0.917885 -0.797007 -0.464687
491 -4.32688 0.574742 -9.16925 0.343556 0.766936 -1.56528
159 -3.27743 0.0130813 -9.42732 -0.355606 0.890378 -0.593202
3374 -3.84298 1.31896 -9.74659 -0.120938 -1.21514 -0.225572
164 -2.94893 0.639241 -8.36772 -0.338592 -0.0273503 -0.338297
450 -2.27991 0.641952 -9.23995 -1.42284 1.178 -1.11068
1366 -0.33257 4.44836 -3.5254 0.366048 0.282457 -0.633345
168 -0.595334 0.772397 -9.19187 -0.833511 -0.918769 0.207985
438 -8.89242 1.87782 -9.32266 1.20822 0.592948 0.0296482
195 -9.78155 2.315 -9.76228 -1.03389 -0.149524 0.545053
171 -9.88849 1.79048 -8.84248 0.883062 0.906515 0.612507
176 -9.1426 2.54474 -8.5627 2.13094 -1.10647 0.807903
3320 -9.63466 1.36843 -10.1085 -0.141843 1.2597 0.214622
111 -4.77268 -4.36274 -9.98516 0.111025 -0.322204 0.138422
774 -7.88231 2.37342 -8.95242 -0.0384964 0.313357 0.220237
200 -7.21663 2.35008 -9.86784 -0.615286 -0.322852 -0.726277
232 -6.07629 2.44354 -9.82208 0.833824 0.605151 0.366612
782 -4.90578 1.46455 -9.44682 -1.21484 -0.799402 -0.0252905
1047 -5.48347 3.66292 -8.91728 -0.746289 0.564851 0.548437
518 -4.20606 2.26271 -9.78458 -0.348365 1.01847 1.11153
223 -3.1281 2.04463 -10.2615 -0.239114 0.435704 0.0108411
962 -10.1597 -2.75368 -5.09535 1.05089 -0.678526 -0.156832
2464 -3.05797 1.85991 -9.20318 -0.068221 0.131389 0.134461
3332 -2.17789 1.80328 -9.76971 0.973463 0.0991466 -1.20609
212 -2.51676 2.6642 -9.5679 -0.587257 0.884342 0.232655
501 -1.38257 1.60781 -9.14887 -0.429649 1.42906 0.0679788
192 -0.678033 1.48181 -10.1437 0.818719 1.10702 0.388052
215 -0.566028 2.41643 -8.93098 -0.474253 -0.690445 0.621619
213 -1.12629 2.41247 -9.86679 -0.792596 -0.0931765 0.553369
2458 -9.43393 3.9372 -9.44892 0.235777 0.147898 0.210776
3305 -3.08078 -0.961311 -9.94923 -0.66523 2.47529 -0.778152
3338 -8.84375 2.97625 -9.45318 -1.20657 0.737458 1.3054
153 -5.00141 -1.28316 -10.0717 0.492457 -0.151697 -0.315456
3084 -8.60708 3.78372 -8.62241 -0.830555 -0.500968 0.105024
770 -8.41419 4.30056 -9.47734 -0.902475 0.90182 0.749475
887 -0.0121772 10.1406 -4.27537 1.59463 0.170679 -0.498734
199 -7.64386 3.50784 -8.92232 -1.08513 -0.634803 0.223576
3040 -7.02726 4.37072 -9.83798 -0.026855 -0.0361509 -1.99334
233 -3.52378 2.78379 -8.89793 -0.219611 -0.19344 -0.797256
3397 -3.16393 3.69915 -9.36219 1.04402 0.913531 -0.193361
231 -3.54587 3.02416 -10.0529 -0.02021 0.735371 -1.05912
3399 -1.21509 4.26726 -10.1376 0.160333 -0.597727 -0.455795
788 -2.67862 3.60208 -8.31043 -0.523693 0.704619 -0.242602
209 -1.52143 3.24289 -9.19006 0.233361 0.0503392 0.621688
498 -0.728809 3.93962 -9.14331 -0.446453 0.593292 0.186274
3384 -0.533906 3.1805 -9.93871 -0.283757 -0.632281 -0.704671
1130 -10.255 9.36239 -5.02493 -0.245444 0.0389411 0.113178
138 -1.42708 -1.03576 -10.1698 -0.661245 0.00607203 1.01035
228 -9.04167 5.10475 -9.52795 -0.298084 0.0261154 0.502447
1614 -7.72034 5.2052 -9.47597 -0.443197 -0.379244 0.00617654
547 -3.47239 4.95739 -10.2486 0.170684 0.0373394 -0.169168
330 -1.5714 -8.79297 -10.0768 -0.885021 -0.361956 -0.80194
3144 -1.4001 4.78307 -9.11033 1.05809 -0.330789 -0.451747
784 -2.23664 3.8888 -10.0347 1.66124 1.34678 -0.0335879
261 -0.770173 5.70405 -9.22096 -0.642506 -0.948558 0.392471
224 -8.61446 6.41799 -9.66821 -0.0252198 0.203245 0.414065
221 -7.44838 6.18647 -9.7211 -0.956399 -0.131193 -1.54814
3049 -8.21829 2.39153 -10.0575 0.326849 0.732294 -0.0686852
3087 -3.29366 7.16394 -9.38138 -1.26107 -0.0214161 0.0488986
2797 -3.38458 5.58161 -9.2926 0.890571 -0.400473 0.846016
521 -1.69698 6.4727 -9.00262 0.795141 -0.137406 1.0048
525 -2.22541 5.57302 -9.33606 -1.19283 -0.536384 0.820343
3326 -1.97886 7.25638 -9.6688 0.165431 0.359288 -0.146663
3304 -6.62279 -5.72451 -9.98105 1.3546 -0.0155907 0.256205
23 -0.702759 7.3748 -9.39807 -0.463021 0.33032 1.03559
2790 -8.69187 8.66283 -9.93185 0.81673 1.15349 -0.85477
509 -9.92074 6.89123 -8.4405 1.1852 -0.99492 -0.157805
242 -9.84971 7.03194 -9.71362 0.0819674 0.220638 0.56255
245 -8.23773 7.42421 -9.5648 -1.09825 0.845486 -0.608216
2460 -7.18844 7.93787 -9.87701 0.855827 -0.986606 -0.0856971
570 -1.44222 8.42385 -9.36225 1.15275 0.772824 1.36016
2195 -2.51411 8.00441 -10.2291 0.388056 0.562562 -0.534033
4756 -0.199878 0.608232 -3.42236 -0.892001 -1.15617 -1.188
43 -0.398812 9.04629 -9.41141 0.362795 -0.687492 -0.39849
272 -9.37045 9.25445 -9.15742 1.15689 0.201344 0.429156
246 -7.96761 9.42744 -9.64775 0.683431 1.0423 0.37664
3439 -6.63863 8.61088 -9.31489 -0.290074 -0.918287 0.73611
561 -7.13431 10.017 -9.34698 -0.473806 -1.34199 0.240639
2010 -2.02252 9.46108 -0.603708 -1.31168 -0.277296 0.352319
2491 -5.09635 9.24272 -9.32437 1.11702 -0.097228 0.969264
565 -5.1718 10.0596 -8.57412 -0.28178 -0.695775 1.10772
1624 -6.03049 9.68231 -9.07464 -0.307438 0.520011 0.132787
283 -3.19988 9.55771 -9.95893 0.239919 -0.290834 -0.714501
3187 -2.10713 9.55247 -9.81534 0.884741 0.464003 0.439377
24 -1.44571 9.52628 -9.02986 0.723229 0.288902 -0.344091
3105 -5.94874 9.04121 -10.141 -0.24187 -1.13282 -0.0957496
3456 -0.3968 10.1368 -9.35908 0.614928 0.346156 -1.15157
1978 -6.31189 9.33302 -0.543505 0.762388 -0.161817 0.657147
294 -8.82335 -9.22229 -8.58679 -1.1618 -0.29718 -0.277739
296 -9.63169 -9.28473 -7.86198 -0.667754 0.165991 1.30014
295 -8.78408 -10.1822 -7.72027 0.512254 -0.488192 -0.0864612
6 -8.04741 -9.34495 -7.66882 0.939635 -0.0764126 -0.360312
562 -7.10198 -9.99778 -7.48574 0.237751 0.424954 0.746254
20 -6.46922 -9.0443 -7.40292 -0.0695373 0.297394 1.17246
3180 -7.17968 -9.62372 -8.41013 0.573413 0.0644504 -0.927548
3205 -5.88282 -8.89637 -8.46502 -0.271942 -1.69289 -0.314842
3445 -5.00722 -9.58753 -7.88124 -0.609176 -1.44983 0.59228
15 -3.8004 -9.69913 -7.85407 0.50834 -1.10232 -0.949289
260 -4.02419 10.0246 -8.5327 -0.00936519 0.366825 -0.131548
568 -2.70711 -9.83025 -8.46898 -0.0410222 -0.710831 -0.718582
309 -1.98636 -9.20845 -7.94434 0.849821 0.965422 -0.409078
310 -1.4703 -9.94071 -8.51777 0.208523 -0.670704 0.514411
333 -0.410247 -9.57253 -8.7055 -0.976401 -0.168559 0.111546
621 -0.515765 -9.7491 -7.58916 -0.329408 0.339416 1.50057
2488 -1.22474 -8.85037 -8.7305 0.00529657 0.634508 -0.0995253
335 -0.242436 -8.72494 -8.06398 -0.816212 -0.316466 -1.39894
317 -9.60071 -8.35692 -8.55551 0.739005 -0.499113 0.608554
320 -9.77827 -7.65255 -7.75777 -0.316985 -0.475904 -0.47695
319 -8.87569 -8.47525 -7.80306 1.40238 0.306053 -1.14871
318 -7.97144 -7.72765 -8.83343 -0.692158 1.09211 0.416674
609 -8.0331 -7.46116 -7.7853 -0.64644 0.892725 0.688552
2823 -5.97022 -7.78645 -8.43204 1.55047 -0.43303 -0.751876
3249 -6.50037 -7.06119 -7.77572 -0.128241 0.323409 1.87996
325 -4.95121 -8.44704 -8.31852 1.26417 -0.895133 -0.332991
270 -5.82282 -7.98138 -7.35234 0.583937 0.605882 -0.29604
346 -4.84145 -7.56944 -7.86181 -0.337559 -0.799607 -0.0496133
252 -4.21145 -8.66153 -9.05871 0.0890348 -0.295626 0.412492
3202 -3.76827 -7.86339 -8.51332 0.348423 -0.442976 -0.620275
569 -3.26561 -7.86295 -7.52697 0.149489 1.24473 -0.446373
2897 -3.10399 -8.72106 -8.31262 -0.286159 0.98327 0.369176
854 -2.80989 -7.85521 -8.979 -1.1085 0.0449355 0.664828
62 -2.11915 -8.17513 -8.1881 -1.055 -0.671084 -2.35012
618 -1.10789 -7.92648 -8.10904 0.0198603 -0.315287 0.168971
622 -0.12351 -7.78201 -7.42353 -1.06863 -0.371402 -0.040179
342 -8.83012 -5.98646 -8.58693 -0.188823 0.561867 0.132526
341 -9.74527 -6.99216 -8.60284 0.0742751 0.212088 -1.20739
344 -9.66497 -6.18103 -7.82376 0.629832 1.20558 -0.682824
343 -8.8571 -6.84 -7.79353 0.363255 0.0681548 -1.4067
85 -7.80236 -6.37236 -8.77552 -0.781889 -1.22843 -0.514532
36 -7.96072 -5.97471 -7.50117 -1.23025 -0.501497 0.0239677
616 -6.95631 -6.10156 -8.23937 -0.822738 1.01628 0.922104
274 -6.03158 -6.74182 -8.60505 0.105007 -0.0694766 -0.315894
57 -6.1827 -6.0872 -7.55116 1.11524 -0.363171 -1.46647
3207 -5.25399 -6.51674 -7.43523 0.814699 1.13518 -0.000943883
83 -5.26729 -5.81092 -8.41537 1.55301 -0.0851777 0.313556
332 -4.55049 -6.62593 -8.36075 -0.113508 -0.54609 0.228099
648 -4.55915 -5.86901 -7.35511 -0.00047015 0.985094 -0.219577
974 -3.68054 -5.99319 -8.1797 -0.572632 0.174059 0.106112
3452 -2.8393 -6.74731 -8.48051 -0.44295 0.482925 -0.88811
567 -4.01319 -6.84494 -7.33193 -0.0748063 0.00525927 -0.45439
645 -2.28066 -6.02628 -7.72532 0.340214 0.140446 -0.398667
327 -1.80382 -7.19628 -8.41054 -0.978627 -1.0852 0.320333
360 -0.110025 -6.03546 -8.85269 2.02906 -0.721356 0.531434
356 -1.31118 -6.14445 -7.94346 -0.406038 -0.450247 -0.20353
1687 -7.21136 9.36507 -0.067125 0.469674 0.859675 0.205882
365 -9.70075 -5.19496 -8.60406 0.337856 1.82548 -0.400533
348 -8.97402 -5.1681 -7.76237 -0.898202 0.473898 1.19084
109 -7.91075 -5.20522 -8.38876 0.262337 -0.677872 -0.127512
366 -8.11834 -4.40476 -7.61607 0.647866 0.507185 0.180033
613 -7.10749 -5.14908 -7.46224 0.65363 0.774975 -0.130911
371 -6.21698 -5.10292 -8.38158 1.0592 0.87172 -0.412393
682 -6.72963 -4.25028 -8.21566 -0.890266 -0.532305 -0.286966
329 -6.2761 -4.44202 -7.26347 -0.420487 0.751577 -0.499021
324 -4.26711 -5.13726 -8.09091 -0.0328587 0.435998 0.399365
3188 -5.44192 -5.21649 -7.45844 0.158942 -1.47857 -0.582721
86 -5.00887 -4.54941 -8.25584 0.71895 -1.11724 -0.0014333
40 -4.61262 -4.45206 -7.17455 0.504385 0.654456 -0.384953
400 -3.77427 -5.16175 -6.98983 -0.177829 -0.654151 -0.0863701
424 -3.02776 -5.22033 -7.71893 -0.587099 0.840024 0.494847
354 -1.4315 -5.02082 -7.59205 -0.484264 -0.588704 -0.443791
383 -0.0776955 -5.31306 -8.02413 -0.324877 -0.703667 0.268335
368 -9.81612 -4.43597 -7.77113 -0.474572 -0.218099 0.574841
633 -8.96087 -4.41628 -8.6144 -0.838793 0.545601 -0.444251
389 -9.84355 -3.63982 -8.45265 -0.0680514 0.125952 -0.147745
657 -8.85238 -3.63352 -7.91233 -0.0898413 0.0697296 -1.4235
55 -7.96538 -4.17492 -8.6221 -0.33489 -0.161233 -0.599814
664 -5.68286 -3.63095 -8.25069 0.959642 0.059156 0.262872
688 -7.20057 -3.60546 -7.62016 -0.357903 0.382384 1.5066
445 -4.5182 -3.65548 -7.97929 0.218507 2.51927 0.695238
419 -5.36828 -3.64433 -7.18568 0.403829 -0.396579 0.998691
3428 -3.631 -4.36845 -7.72579 1.16714 1.04807 -0.0428789
1289 -2.85876 -3.56449 -7.5786 0.518636 0.358608 -1.28369
112 -2.89667 -4.34345 -8.3777 0.653382 -0.00771143 -0.345526
401 -2.28122 -3.52993 -8.53242 -0.0990177 0.189776 -0.266842
668 -2.11242 -4.25011 -7.6445 -0.601477 -0.137063 0.690365
403 -1.45263 -3.41954 -7.70029 0.0323432 0.247012 0.650142
379 -1.3676 -4.37386 -8.61785 0.831236 -0.657567 -0.991827
381 -0.683779 -4.22241 -7.83568 0.881703 0.209831 1.3266
405 -0.645375 -3.52202 -8.58431 -0.192534 0.863113 -0.843501
392 -9.94339 -2.7832 -7.64539 0.47482 0.93554 -0.568741
413 -9.78651 -1.93274 -8.55695 1.28068 0.735243 1.08698
725 -8.93516 -2.09905 -7.67442 0.810501 -0.0445389 1.58064
391 -9.19037 -2.80697 -8.45026 1.25189 -0.492314 -0.250931
415 -8.17996 -2.02419 -8.45607 -0.353709 -0.666679 0.986573
420 -7.94672 -2.78031 -7.71034 0.151317 0.342238 0.87129
729 -7.52326 -1.32722 -7.68886 0.872359 -0.491729 -0.50891
658 -7.18336 -3.13798 -8.62664 -0.639617 -0.483123 0.112393
369 -6.41412 -2.80521 -7.56528 -0.259119 0.327291 -1.0513
443 -6.42927 -1.58116 -7.96397 -0.387012 0.432475 0.151906
448 -5.39651 -1.53974 -8.37814 1.40233 -0.194479 -0.554767
396 -5.27857 -2.52482 -7.88373 -0.716368 0.57993 -0.0785851
733 -4.66005 -1.74585 -7.50631 0.131348 -0.0614657 -0.144551
136 -4.05851 -1.85148 -8.5502 -0.886351 1.28348 -1.15332
712 -4.13909 -2.71059 -8.00334 -0.277516 0.595705 0.843461
398 -3.00289 -2.7146 -8.45764 0.686454 0.500941 1.99156
689 -3.14448 -2.70682 -7.21451 1.50434 0.955592 1.13793
425 -2.36668 -1.79171 -8.49885 0.460531 -1.02714 0.153194
404 -2.28559 -2.73442 -7.77242 -0.932324 -0.744809 0.108215
427 -1.30666 -1.70875 -7.60446 0.992505 0.313371 0.149199
402 -1.38063 -2.71798 -8.55748 1.05844 -0.52735 -0.0952877
408 -0.682871 -2.73514 -7.86108 0.655576 -0.597624 0.390092
429 -0.664197 -1.77662 -8.52432 -0.77768 -1.63524 1.54395
416 -9.60739 -0.999241 -7.84535 -0.923256 -0.494003 -0.765573
437 -9.74164 -0.266199 -8.60973 -0.493964 0.275999 -1.02902
439 -8.93586 -1.21028 -8.63075 -0.595593 -0.937764 -0.300479
750 -8.9457 0.229127 -7.80078 0.440504 0.130018 1.25115
726 -8.53473 -0.695017 -7.65968 0.0444943 -2.2264 -0.375458
751 -7.7714 -0.062765 -7.40143 -0.0613839 -0.258596 0.0601738
753 -6.79338 -0.424299 -8.03673 -0.288555 0.829029 -0.80462
1018 -6.6773 -0.865517 -7.0904 -0.623592 -2.06087 -0.242547
3352 -5.83327 -0.70725 -7.84528 -0.837166 -0.928627 2.94286
734 -4.55374 -0.853617 -8.24345 0.664864 0.151373 0.439794
154 -5.13666 -0.10633 -7.53042 0.109948 -0.896532 -0.41317
713 -3.21266 -1.70382 -7.78667 -0.537117 -0.079053 0.141955
423 -4.04031 -0.468754 -7.37149 0.275708 0.20949 -0.31383
428 -2.30109 -0.983852 -7.79287 -0.443822 0.410351 0.412325
451 -1.51142 -0.20637 -7.78086 1.03559 1.11054 -1.14535
426 -1.46474 -1.04091 -8.48292 -1.76187 -0.453719 1.09501
432 -0.57353 -0.981663 -7.78845 0.86353 0.858486 0.286771
453 -0.690161 -0.14892 -8.60166 1.98069 -0.207125 -1.623
1463 -0.213521 10.2031 -1.27823 0.980086 0.421729 0.105417
113 -2.15839 -3.38696 -10.1019 0.667113 0.256748 0.205714
440 -9.19649 0.951892 -8.64936 0.00812087 -0.0849074 -1.24553
749 -9.41304 0.837526 -7.11414 -1.62253 1.27979 -0.752089
468 -8.04832 0.522371 -8.31819 -0.124451 1.07387 1.6725
466 -8.18236 1.14606 -7.19723 0.687322 0.549128 0.874889
180 -8.40064 1.6492 -8.1768 0.993346 0.512837 0.0107161
3367 -5.94798 0.139037 -8.61164 -0.449946 0.557873 1.41102
1042 -7.02673 0.632071 -8.15804 -0.0758508 0.350074 0.565151
490 -6.44806 1.74001 -8.12812 -1.46879 0.293833 -0.506973
463 -5.99485 0.472635 -7.59094 -0.26105 1.09263 -0.869521
472 -5.0881 0.984901 -8.34799 0.362192 1.00369 1.19656
207 -5.64565 1.4743 -7.46694 -0.49213 -0.0625617 -0.0489191
1333 -3.87055 0.163077 -8.38577 -1.28515 -0.299443 0.755954
158 -3.06969 -0.182922 -7.69241 0.567513 -0.21721 1.05571
471 -3.99234 1.46506 -8.55176 -1.14519 -0.305332 1.04398
1312 -4.61615 0.8624 -7.29242 -0.134097 0.25499 -0.46504
449 -2.56554 -0.238873 -8.65679 0.0642836 -0.202578 -0.385605
473 -2.26079 0.714107 -7.55949 0.058925 -1.14743 0.957359
185 -1.47379 0.659735 -8.56256 0.294281 -0.830254 0.291492
476 -1.54561 1.45502 -7.74315 0.440294 -0.590404 -0.210684
477 -0.750294 0.690033 -7.80703 -0.401405 -0.674328 0.84593
459 -9.39021 1.70218 -7.80238 -0.119945 0.389251 0.252186
464 -9.26445 3.06852 -7.664 0.200903 0.54203 0.496062
1061 -8.18663 3.01491 -8.04417 -1.18904 0.670394 -0.0181715
1355 -7.33415 1.80703 -7.59067 0.303994 0.0257375 0.785929
156 -6.76236 2.46372 -8.88146 -1.00777 0.782831 0.714111
1321 -6.48568 1.85712 -7.00339 -0.688822 -1.07059 -0.442602
1072 -5.61895 2.63399 -7.35456 0.548755 -0.597037 2.15732
545 -5.22138 1.98828 -8.34913 -0.667211 0.15829 0.479621
786 -4.08099 2.05893 -7.68418 0.878498 0.631405 1.30568
2507 -4.68073 2.60401 -6.93017 -0.796025 -0.186506 0.149543
519 -3.02349 1.56432 -7.68121 -0.218488 0.536076 -0.233323
1619 -3.36681 2.89211 -7.83451 0.0936445 1.3043 -0.128813
187 -2.24607 1.59765 -8.54285 0.871911 0.472457 1.17705
208 -2.59012 2.56356 -8.46151 -2.06816 -0.0102952 -1.06652
762 -2.18587 2.22412 -7.52133 -0.75299 0.51004 0.367609
2014 -0.345016 9.38335 -0.466948 0.460365 -0.552542 -0.118475
474 -0.618213 1.47863 -8.49044 -2.22138 0.95195 -2.0722
480 -0.863496 2.53344 -7.57685 -0.160284 0.664858 -0.0566692
211 -1.54283 2.43782 -8.38322 -0.311778 0.68674 0.226938
3447 -4.21313 9.83588 -9.74103 0.135035 -1.15961 0.465416
458 -9.727 3.59916 -8.50336 1.22168 -0.586803 -0.413278
773 -9.04982 4.03698 -7.56677 -0.529678 2.15064 -0.402374
3390 -7.82311 4.4862 -8.31128 0.429267 -0.951469 0.191413
540 -6.57758 2.82679 -7.72601 0.938353 -0.337238 -0.624551
1069 -4.54441 2.74281 -8.68 -1.30192 0.0981246 -0.649802
236 -3.72228 3.94439 -8.45474 -1.40908 0.691709 -0.104008
1338 -2.67109 2.98459 -7.08592 -0.3894 -0.187587 0.579995
499 -1.7355 4.01987 -8.26628 -0.266565 -0.730805 0.850805
497 -0.881954 3.34982 -8.36327 -1.42146 0.380493 0.28669
502 -1.12567 4.11513 -7.45754 -0.657344 0.581463 0.726633
789 -1.68679 3.17731 -7.53852 -0.348618 0.821505 0.00972612
483 -9.22916 4.67469 -8.64434 1.13759 0.595116 0.933739
510 -9.90522 4.80404 -7.7401 0.730271 -0.568756 -0.162919
217 -9.92134 5.82192 -8.15005 -0.197852 -0.770831 -1.58759
826 -9.67187 5.57894 -7.03433 0.843047 0.767765 -0.902872
511 -8.75504 4.99429 -7.69529 -0.658698 -0.120273 -0.609562
1610 -8.10568 5.88471 -8.49174 0.689581 -0.1129 0.77161
1050 -2.73367 4.09391 -7.42291 0.825706 -1.05769 -0.724066
546 -1.97954 6.08795 -6.91237 1.05054 -1.16691 -0.840192
805 -2.87546 4.65242 -8.8657 0.799105 -0.42137 0.929552
813 -1.69556 5.71984 -8.2399 -1.20973 0.976994 -0.943537
239 -0.721371 4.92336 -8.23415 -1.09169 -0.326605 0.0176356
240 -0.764685 5.92509 -7.59645 -0.792791 -0.659931 -0.0144612
3203 -7.69404 -5.58293 -10.0773 -0.643104 0.506176 -0.298006
798 -8.63228 6.87074 -8.67358 1.06931 1.10056 1.25416
3393 -8.90803 7.37229 -7.67683 0.681088 0.562709 0.645987
3395 -8.60477 6.32346 -7.46687 -0.450366 0.950517 -0.457836
536 -8.31828 7.17566 -6.58798 0.476068 -0.157577 0.766275
833 -2.47321 7.05243 -8.69142 0.559314 -0.529712 0.433368
760 -2.84693 5.86329 -8.14924 -0.431213 -0.501229 0.455184
549 -1.45219 7.5359 -8.68437 -0.413511 -0.668081 0.0823083
528 -1.57616 6.72361 -7.91055 0.00269943 0.339356 0.709243
742 -0.253116 0.811556 -6.70691 0.244006 -0.815254 0.983504
285 -0.67027 6.69394 -8.51211 -0.494222 1.72055 0.1024
276 -8.99542 8.10665 -9.02122 0.0780218 -1.37755 -0.0271149
531 -9.72592 7.95496 -7.99337 -0.028987 -0.385655 -0.847019
537 -7.56475 7.16633 -8.74898 -0.069523 -0.428278 1.08977
557 -7.79949 7.34621 -7.69854 0.455866 -0.265718 1.48304
3201 -7.92119 8.30002 -8.71736 0.539131 -0.971111 0.396706
783 -2.46263 7.11081 -7.30617 0.669292 -0.848513 0.707409
548 -2.29341 7.97226 -8.02759 -1.63321 -0.904556 -0.0874535
566 -2.79027 8.75615 -9.17999 0.814538 -1.31675 0.461804
552 -0.833743 7.70753 -7.78431 -0.0750281 1.07361 0.139777
576 -0.588818 8.28276 -8.56749 1.44526 0.28273 1.21513
41 -3.89963 -6.92113 -10.0886 -0.387472 0.0732668 0.521737
293 -9.45225 10.2452 -8.64538 -0.157389 -0.620156 1.07535
560 -9.63271 9.36808 -7.83793 0.138448 -0.250975 0.221169
538 -8.55856 9.39574 -8.35629 0.141619 -0.235684 0.43457
559 -8.76908 8.54546 -7.78766 -0.436633 -0.0302479 -0.781176
589 -7.36844 9.27429 -8.55112 -0.794702 -1.0245 0.343286
3204 -7.82507 9.7566 -7.62667 -0.657807 -0.307073 -0.231057
297 -6.13298 -10.0075 -8.32328 -0.0162148 -0.251405 0.953442
534 -6.61876 9.55471 -7.59112 1.36848 -0.199283 1.01324
593 -4.89783 9.71352 -7.50981 -0.61991 -0.457073 1.00709
641 -2.77092 9.96505 -7.6028 0.0611644 -0.427117 -0.0422309
617 -3.72493 9.94961 -7.1384 -1.65294 -1.61647 0.089234
834 -2.04608 9.02802 -8.39787 -1.08693 0.887105 1.06235
264 -2.77222 9.77681 -8.85926 -0.103684 -0.785857 0.619763
573 -1.57087 9.87122 -7.63659 0.620846 -2.04828 0.139277
305 -3.07675 8.9294 -8.10577 -0.688678 0.721481 -0.100768
312 -0.707398 9.7778 -8.30212 0.68109 0.733026 -0.849391
311 -0.957129 8.82613 -7.76187 -0.182847 0.993683 -0.223602
1728 -1.06295 9.58764 -1.31555 0.690803 -0.0600526 -2.00322
584 -9.8024 -9.35932 -6.18384 0.326732 -1.44469 -0.487763
582 -8.98709 -9.27877 -6.89857 -0.959814 0.240228 -0.670248
583 -9.00133 -10.1332 -6.2569 0.541831 -0.00500674 -0.365486
581 -9.69074 -10.1754 -7.03768 0.606201 -0.217287 -0.980167
852 -8.01571 -10.0367 -6.79336 0.752645 -1.93291 0.25707
588 -8.35794 -9.41321 -5.8861 0.680779 -1.30891 -1.10787
347 -7.20228 -9.38872 -6.68326 -0.159665 -1.64826 0.271691
299 -5.76812 -9.16772 -6.34166 0.706261 -0.677643 0.857693
856 -5.03292 -8.66666 -6.99215 -0.807188 0.153008 -0.954746
860 -5.01407 -9.85656 -6.62926 -0.15014 0.222973 0.913665
825 -3.98822 -9.35956 -6.51783 0.0232381 -1.17957 0.539944
615 -3.20222 -9.49848 -5.48335 -0.464897 -0.914861 0.429551
830 -3.00474 -9.3703 -7.2375 0.7654 0.176825 -0.462089
596 -2.3686 -9.15302 -6.26507 0.241027 -1.03053 0.428962
307 -1.53473 -9.75543 -7.08019 0.0291016 0.148874 1.11504
600 -0.641692 -9.79439 -5.99746 -0.0292234 -0.507543 1.24522
1065 -10.2246 2.54601 -7.95383 -0.01955 -0.0948394 1.82266
607 -8.89567 -8.60018 -6.20719 0.566903 0.795296 1.62862
605 -9.72455 -8.54955 -7.00434 0.484647 0.426754 -1.27788
608 -9.71111 -7.74182 -6.24233 -0.233564 -0.17348 0.105059
606 -8.57264 -7.84662 -6.92681 1.10984 0.075432 1.37699
322 -8.00381 -8.73488 -6.67182 -0.876426 -0.483707 -0.538192
352 -7.11067 -7.45903 -6.95589 -0.614841 0.263657 0.346421
3184 -6.63632 -8.38775 -6.61654 -0.466336 -0.578203 -1.21765
587 -6.69961 -7.67022 -5.90439 1.13462 -0.419531 0.865392
2894 -5.45714 -7.81115 -6.34767 -0.902168 -0.518132 -0.0818349
592 -4.65258 -7.65788 -5.46497 -0.14692 -0.534778 -1.23873
323 -5.81583 -8.42347 -5.55578 1.19758 -0.622319 -0.314907
326 -4.02743 -8.60576 -7.60909 -1.6013 0.414789 -1.32208
1086 -4.30586 -7.82077 -6.893 -0.134316 0.479961 -0.0361482
61 -3.10739 -8.39629 -6.64994 1.11403 -1.27202 -1.33704
590 -3.81611 -8.61867 -5.59617 1.26583 -0.0181471 -0.255647
355 -2.20909 -8.40074 -7.18328 -0.415481 2.02432 1.32579
929 -2.28194 -8.01164 -6.17112 0.423261 -0.500054 -0.278608
619 -1.30569 -9.08924 -6.30184 -0.486702 -0.251148 0.490091
328 -1.11893 -8.66241 -7.39296 -0.8657 0.177085 0.603582
624 -1.26188 -7.64526 -7.00627 1.46717 0.713109 -0.21962
910 -0.747113 -7.88621 -6.14886 1.30551 0.113352 1.86998
629 -9.6768 -6.99015 -7.0506 1.11172 0.00948103 -0.728412
632 -9.69952 -6.12653 -6.4025 1.39442 -1.196 -0.236461
631 -8.86996 -6.92612 -6.31576 -0.953991 0.956406 0.199251
630 -8.8529 -5.9979 -7.05052 1.37405 0.726263 -0.275353
634 -8.03317 -6.86795 -6.79739 0.15265 0.490578 0.376915
636 -8.11422 -5.93472 -6.17079 -0.100375 -0.88394 -2.10371
971 -7.10113 -6.29299 -6.9571 0.00138099 -0.0794596 1.52447
610 -7.46767 -6.90659 -5.78007 -1.02962 -0.487304 -0.0703988
665 -6.04955 -7.01609 -6.82959 -0.306561 0.167051 0.145486
563 -5.57303 -6.07252 -6.55374 0.136648 1.10692 0.626336
685 -4.78007 -6.91792 -6.39738 1.16368 -0.89259 0.746751