ITEM: TIMESTEP
94000
ITEM: NUMBER OF ATOMS
6912
ITEM: BOX BOUNDS pp pp pp
-1.0259855680060181e+01 1.0259855680060181e+01
-1.0259855680060181e+01 1.0259855680060181e+01
-1.0259855680060181e+01 1.0259855680060181e+01
ITEM: ATOMS id x y z vx vy vz
8 -9.75056 -9.51582 -9.32158 -0.646706 -0.252907 1.00296
1276 -9.99487 -1.66764 -2.29699 1.21652 0.0672062 0.537651
11 -8.08041 -9.42605 -9.10218 -0.11594 1.5147 -0.767144
39 -7.48511 -9.38891 -10.0814 -0.836413 0.630809 -0.425994
20 -1.94971 -9.6789 -9.44679 0.889978 0.840156 -0.312041
43 -0.653916 -9.42257 -9.89034 0.1515 0.214214 0.0565258
333 -0.112866 -9.53003 -8.93704 -0.882234 0.00116277 1.78713
32 -9.66085 -7.85491 -9.39689 -0.172411 0.432132 -0.766353
31 -8.87038 -8.75409 -9.44744 1.21679 0.430411 -0.0444169
1901 -9.87694 4.91789 -0.267416 0.1066 -1.31605 -0.238005
278 -8.20512 -7.87692 -9.46834 -0.119053 1.175 -1.1483
274 -7.4582 -8.15014 -10.2022 0.936527 0.14642 -0.856334
1681 -10.2137 7.6124 -1.31141 0.257875 0.288417 -0.219819
3188 -2.77691 -7.82679 -8.58724 1.10509 -0.0621609 1.63871
2482 -2.73675 -8.84558 -9.93842 0.204726 -0.125798 -0.759553
3452 -2.68167 -7.06557 -9.95517 -0.831817 -0.0692034 -0.740167
41 -2.16784 -7.92898 -9.76294 0.173975 0.6042 -0.0335181
44 -1.52663 -8.73861 -9.82691 1.16379 0.195779 0.126718
330 -0.95967 -8.48734 -8.72686 -0.11539 -0.289553 0.606109
357 -0.749494 -7.63195 -9.68922 -0.0704019 -0.063577 0.276799
3308 -2.15829 -1.70363 -10.1068 -0.706527 0.0356832 -0.615439
56 -9.55805 -6.16583 -9.38388 -0.629587 -0.616314 -0.888773
478 -0.0301384 3.2782 -7.47668 -0.316293 -0.710335 1.01183
30 -8.83434 -6.99354 -9.38482 2.00526 0.239307 -0.324939
36 -7.94503 -6.39486 -9.25294 0.474596 0.992772 -0.980284
336 -1.46442 -7.4642 -8.90184 0.494076 -0.271121 -0.639238
376 -1.73094 -5.93457 -8.81176 0.586144 0.376873 -1.59568
66 -1.62052 -6.91544 -9.80345 0.021404 0.0845586 -0.386513
37 -2.1774 -6.07448 -9.81296 -0.413173 -0.723713 -0.281392
72 -1.01707 -5.98153 -9.70087 -1.09367 0.5157 -0.52164
6 -8.9817 -9.54661 -10.1563 -0.0563457 0.089648 0.612767
113 -1.99757 -3.31979 -10.2172 0.890573 -0.0680204 -0.57592
80 -9.63538 -4.43825 -9.4727 0.566744 -0.0684594 -0.166227
633 -8.84414 -5.23067 -9.37842 0.772767 0.00385208 -0.257886
92 -2.80255 -5.26813 -9.45501 0.330056 1.01201 1.1636
93 -1.58611 -5.13224 -9.69147 -0.314293 0.283947 -0.574724
95 -0.914629 -5.00841 -8.9295 0.113894 0.371595 0.420192
96 -0.817183 -4.12289 -9.54054 1.46605 -0.754835 -0.202692
110 -2.72855 -4.14674 -10.0841 0.0608526 1.06806 0.229238
103 -8.97604 -3.70288 -9.25276 1.17156 0.56135 0.911476
101 -9.60805 -3.6377 -10.1536 1.17277 -0.133882 -0.595178
78 -8.81511 -4.34369 -10.1767 -0.455714 0.062168 0.43438
372 -7.93707 -4.41814 -9.40887 0.415124 0.0910169 -0.818242
105 -7.84575 -3.58887 -10.047 -0.170763 -0.217337 -0.222204
684 -6.19403 -4.35104 -8.84018 0.122977 0.508945 -1.09163
107 -7.08185 -3.5684 -9.13979 -0.681314 1.04181 -0.989743
395 -6.12743 -3.59302 -9.668 2.13523 0.530839 -0.397765
370 -7.10995 -4.32343 -10.1684 1.03954 -0.619434 -0.696483
3277 -5.03495 -4.07944 -9.67256 0.41365 0.757179 -0.546687
133 -4.44809 -3.1516 -9.57301 -0.360473 0.166785 -0.473126
88 -5.6103 -3.32268 -8.80878 -0.686649 -1.98822 0.191119
5041 -0.25784 -0.119219 -2.61287 -0.115586 0.628397 -0.802035
350 -3.76136 -4.29789 -9.6888 -0.728909 -0.23606 0.868314
378 -1.97624 -3.9964 -9.3507 0.162468 0.0685592 -0.150714
375 -2.94733 -3.32593 -9.47176 0.431195 -0.126884 0.404494
382 -0.089008 -4.21372 -8.7655 0.229282 0.2904 0.243083
115 -1.28215 -3.20838 -9.18279 0.130072 -0.293749 0.159865
119 -0.0379247 -3.35292 -9.52493 0.841439 -0.106577 0.81373
104 -9.66396 -2.6569 -9.29269 -0.159937 -0.754542 1.31119
414 -8.90012 -2.04032 -9.15755 0.215864 -0.131192 0.132727
125 -9.67555 -1.85153 -10.0915 0.290272 -1.49498 0.514531
393 -8.10767 -2.795 -9.09133 -0.700029 0.213025 0.352901
127 -8.80898 -2.78393 -10.0222 0.913623 0.472127 -0.847281
126 -7.95987 -1.95799 -9.87466 -0.255097 -0.836325 0.377096
441 -7.23947 -1.84945 -9.11711 -0.603307 -0.692653 -1.30946
390 -7.15423 -2.73198 -9.81905 -0.985557 -0.695668 -0.350425
417 -6.48413 -2.63683 -8.9888 0.4973 -0.273441 0.185198
129 -6.28351 -1.89716 -9.85016 -0.277005 0.430142 0.116438
397 -5.48306 -2.66738 -9.65763 -1.55829 -0.217809 0.0740929
418 -4.63614 -1.92114 -9.67887 -0.795283 0.535041 -0.42613
445 -4.75154 -2.43909 -8.80295 -1.00399 0.0444185 1.40631
3303 -3.71026 -2.46681 -9.44588 0.479403 -1.88834 -0.855994
422 -2.99333 -1.72553 -9.37613 -0.915825 1.08544 0.249558
116 -2.16401 -2.46874 -9.33141 -1.49153 0.280738 -0.860156
81 -7.12711 -6.1591 -10.1733 -0.267267 0.522254 -1.01371
503 -0.0423757 4.07173 -6.72186 -0.567862 -1.30959 0.0256778
120 -0.332833 -2.31743 -9.20892 0.00269837 -0.453645 0.351046
141 -0.33651 -1.47429 -10.1099 0.939669 -0.656964 -0.0495379
139 -1.14957 -1.6956 -9.3044 0.363978 -0.375911 -0.422984
128 -9.80671 -1.13839 -9.15763 0.915537 -0.570385 -1.27164
146 -9.74789 -0.275025 -9.95623 -0.618921 -0.00708389 -0.560198
150 -8.97706 -0.5133 -9.24091 -0.89081 0.389513 1.03684
149 -8.81213 -1.13175 -10.0239 -0.137618 1.0351 -0.314219
151 -8.1004 -1.21439 -9.17446 0.361363 -0.439198 -0.771745
3324 -7.99636 -0.362052 -9.88444 -0.309555 0.200962 -0.359042
465 -7.32051 -0.512724 -9.09989 -0.0140714 0.127701 0.670899
3297 -7.15322 -1.18051 -9.93084 -0.127012 0.121158 -0.495471
3300 -6.37135 -0.384139 -9.82075 0.328646 -0.00703926 -0.640131
132 -6.41024 -1.09987 -9.04609 0.275463 -0.365206 -0.286429
130 -5.34009 -1.12287 -9.73922 -0.314394 0.0215968 0.623022
184 -4.56039 -0.15862 -9.59215 -0.144081 -0.296825 -0.569203
3352 -5.58163 -0.425702 -8.99308 0.204622 0.172473 0.76317
160 -3.81015 -0.908552 -9.38489 0.220864 1.12807 -0.222405
159 -3.08313 -0.18006 -9.31502 1.2411 0.0463329 -0.348455
158 -3.75235 -0.195677 -8.5001 -0.985515 -0.189442 0.976698
161 -2.08123 -0.127274 -10.0517 -0.451618 -0.554887 0.264183
140 -2.26863 -0.881968 -9.23281 -0.0354622 0.530041 0.527353
1742 -3.63826 -8.60064 -0.0801322 1.23049 -0.181597 0.493132
144 -0.547362 -0.84093 -9.20431 -0.285539 -0.500521 1.31066
138 -1.3875 -0.878079 -9.91249 1.1856 -0.856055 1.39373
163 -1.34889 -0.0391048 -9.17529 1.75087 -0.348593 -0.610273
165 -0.56042 -0.116072 -10.006 0.538754 1.08554 1.82908
152 -9.93576 0.470213 -9.11656 0.66409 0.43148 -0.109021
173 -9.74883 1.26602 -9.83386 0.169362 0.194198 0.384484
3343 -8.84801 0.43094 -9.97406 1.03644 0.13721 -0.549819
175 -8.81034 1.29799 -9.13185 0.568506 -1.09996 -0.490668
156 -7.94077 0.52153 -9.12002 -0.227839 0.316313 -0.275161
174 -7.65774 1.39883 -10.108 -0.201149 0.849116 0.715388
801 -6.97375 1.20985 -8.99451 0.0157513 0.0352255 0.301204
177 -7.15329 0.425011 -9.85308 0.279693 0.069794 0.133602
178 -6.45238 0.388974 -8.91393 -0.154446 0.331334 0.355389
1319 -0.213372 -0.996147 -3.48604 -0.156008 -0.931445 -0.918577
3328 -5.8617 0.629788 -9.76336 -1.07434 0.109059 -0.165869
470 -4.62245 0.513994 -8.80901 -0.983328 0.447658 0.324917
1318 -0.131938 0.642994 -3.40119 -2.0434 0.000550165 0.63627
3373 -4.57599 1.41425 -9.44659 0.362157 0.865412 -1.53803
3371 -3.78823 0.707432 -9.52114 0.604102 0.406323 -0.303263
3529 -0.053777 -5.02851 -9.60943 -1.01185 -0.838122 1.2111
3327 -2.98423 0.779251 -10.1878 0.256601 -0.723413 -0.192405
164 -2.31416 0.728985 -9.2568 -1.02713 -0.59826 0.603892
3332 -2.07778 1.54531 -10.0893 1.16778 -0.941434 -0.241725
189 -1.2643 0.892343 -10.0561 -1.48143 0.877929 0.243478
168 -0.606251 0.762009 -9.1683 0.3151 0.414386 1.06421
223 -8.96006 2.48934 -9.26146 0.065021 -1.89063 -0.155461
197 -10.0573 2.55843 -9.64168 0.297832 -0.110816 1.32808
1633 -10.2443 4.24791 -2.84656 -0.0198848 -0.0437508 -0.194945
490 -7.88384 2.16768 -9.24591 -0.0253698 1.01951 -0.105397
487 -6.92413 2.15552 -9.7038 -0.47722 -0.118455 0.198174
3347 -5.70102 1.67939 -9.69888 0.690262 -0.0787838 -0.732042
205 -4.91779 1.99444 -8.63233 -0.816061 -0.479816 -0.358656
206 -3.10071 1.56003 -9.37927 0.291643 -0.94244 -0.35398
782 -4.09255 2.32073 -9.18923 0.110193 -0.970915 -0.0222376
3374 -2.79015 2.3661 -10.0566 0.0337969 0.24359 0.031152
3375 -2.17997 2.23785 -9.23336 0.156687 0.202436 -0.569873
213 -1.33046 2.32822 -10.0161 -0.260251 -0.255428 0.128317
187 -1.45487 1.48106 -9.15975 -0.293392 0.904526 1.1402
192 -0.488345 1.67584 -10.012 -0.850248 -1.13486 0.333138
215 -0.729764 2.37659 -9.12887 0.135895 0.759539 0.620593
225 -9.4747 3.50364 -9.53602 -0.731673 -0.282356 -0.210882
228 -9.29076 4.35543 -8.87776 0.249731 0.928959 -0.99913
3372 -8.26226 4.26516 -9.26409 -0.0573736 -0.215085 0.149424
2460 -8.38213 3.3884 -9.90072 0.875751 -0.462501 -0.764569
233 -3.06259 3.24397 -9.49194 0.655118 0.887008 0.923497
1684 -10.0671 8.40562 -0.565914 1.20347 0.0251647 0.0278634
212 -2.12506 3.22775 -10.2486 -0.766977 0.685497 -0.0824676
3404 -2.34544 4.0463 -9.4222 0.177457 -0.551746 -0.405469
209 -1.55499 3.27693 -9.28546 0.305142 -0.852605 -0.0317467
3384 -0.645604 3.29882 -9.90192 -0.620134 0.167165 -0.1383
498 -0.757107 4.03878 -9.22529 -0.0131138 -1.27441 0.899663
359 -0.0927716 -6.7639 -8.06084 -1.11819 1.79358 -0.314475
200 -8.96851 4.79428 -9.92357 0.118553 -0.440373 -0.627523
506 -8.91383 5.34814 -8.98941 0.184037 0.590319 -0.0373162
221 -9.7197 5.56103 -10.0074 0.53676 -1.2865 0.459693
3400 -2.25499 4.94057 -10.2157 0.128207 -0.185916 -0.23823
525 -1.53325 4.97158 -9.30594 0.386742 0.391042 0.1856
3087 -2.29069 5.82454 -9.36811 -0.482386 -1.41408 0.477604
238 -0.0489758 4.19725 -8.29512 -0.310996 0.655155 0.826085
3403 -0.45687 4.94282 -10.0611 0.6262 0.558551 -1.05712
261 -0.660762 5.7711 -9.37041 -0.588874 0.329452 0.79398
224 -9.85462 6.23256 -9.17951 -0.913601 -0.246561 -0.663471
247 -9.00282 6.96826 -9.17754 0.423934 -0.251921 -0.437288
222 -8.66347 5.95059 -9.80606 -1.22027 -0.666974 -0.964196
249 -8.23171 7.01922 -9.90286 0.208603 -0.0479398 -0.785207
2507 -1.46915 6.49778 -9.5138 0.0485476 1.65447 0.847591
1247 -0.0353256 -5.2341 -2.76819 0.678397 1.11922 0.366153
246 -8.93641 7.76756 -10.1099 0.618943 -0.176332 0.508378
248 -9.75329 7.87609 -9.42666 0.645185 -1.99317 0.167037
271 -8.98177 8.65365 -9.32701 0.969202 0.209904 1.76432
252 -8.30529 7.8716 -9.13949 -0.476891 -0.53814 0.149236
194 -9.98607 4.40104 -9.86305 0.195761 0.560233 0.341522
298 -7.33202 7.861 -10.1298 1.28158 -0.311376 -0.883025
561 -7.42979 8.70769 -9.30809 0.503762 0.954457 1.52515
566 -2.2725 8.28321 -9.23637 0.731314 -0.469436 0.402757
171 -10.0957 1.79523 -8.94087 1.28832 -0.891886 1.46169
77 -9.56155 -5.20426 -10.2032 0.803325 0.315919 0.46249
3455 -0.567666 7.45364 -9.22819 0.663021 0.11964 -0.176913
570 -1.24668 8.44346 -9.22695 0.0956351 -0.109255 0.613806
3432 -1.20221 7.42581 -10.0623 0.0842147 -0.23223 0.218962
7 -8.86036 -10.232 -9.28897 0.935934 -1.0644 0.218859
1839 -3.66252 -5.43148 -0.295811 0.304604 1.5564 -0.603002
1079 -0.00595216 3.13441 -4.27631 0.580976 0.240117 0.664494
272 -9.63633 9.57239 -9.41282 -0.807099 -0.0789781 -1.08103
276 -8.27467 9.37055 -9.31051 -0.551936 0.0735722 0.151983
277 -7.56712 10.1801 -9.36066 -0.488451 -0.966886 1.21579
839 -0.100846 6.77101 -5.95385 1.49149 0.87163 0.420998
459 -10.2067 1.46505 -7.38012 0.385304 0.910139 0.0101038
1769 -2.86475 -9.32702 -0.0855512 -0.0776706 -0.248698 0.781648
303 -2.69984 10.09 -9.53181 -0.721584 0.894558 -0.479353
258 -2.03846 9.25228 -9.46154 0.108875 -0.0268784 0.725824
1007 -0.100497 -1.80576 -4.37375 0.0948186 -0.101411 -0.628299
305 -1.1048 10.0183 -9.51936 -0.624924 0.00692448 0.77168
23 -0.418624 9.10594 -9.21658 -0.65685 -0.259444 -0.259253
296 -9.85849 -9.51348 -7.76575 0.608576 -0.0827669 0.520676
294 -8.89154 -9.43384 -8.46464 0.527385 -0.627797 0.139911
293 -9.69038 -10.2032 -8.56881 -0.159213 0.255324 0.479445
295 -9.02671 -10.1784 -7.54204 -0.261033 -0.563977 0.0283701
300 -7.80439 -9.51568 -7.98697 0.746685 -0.485813 0.392307
297 -8.22542 10.1558 -8.42213 -1.24097 0.956948 0.672788
321 -8.13991 -8.47217 -8.46514 0.0364187 -0.442911 -0.206019
281 -2.85595 -9.24575 -8.90873 -1.14965 -0.616721 1.22576
617 -2.11345 -9.38553 -7.85691 0.207182 0.0279864 -0.681527
306 -1.29517 -9.51464 -8.58339 1.12111 -1.15745 -0.99529
312 -0.501348 -9.55462 -7.87555 -1.14124 -0.930337 -0.718293
307 -1.23319 10.1279 -7.8032 0.425271 -0.632095 -0.178375
317 -9.78166 -8.71046 -8.62366 1.08173 0.46949 1.29825
319 -9.0092 -8.68606 -7.61032 0.634247 2.00777 0.434244
320 -9.7678 -7.89312 -7.80498 0.21368 -0.667018 0.778597
318 -8.92318 -7.87028 -8.59998 -0.216734 0.19772 0.154092
322 -8.09154 -7.92356 -7.53021 -0.330871 1.02023 0.554366
323 -6.83653 -8.45231 -7.55475 -0.612404 0.27171 0.809708
3204 -7.12551 -7.85917 -8.55855 -0.811479 -0.581089 -0.878928
329 -2.84538 -8.64143 -7.81471 1.71691 -0.0213502 0.197985
326 -2.0423 -8.58038 -8.83996 -0.810677 -0.743236 -0.823344
327 -1.94382 -7.90377 -7.82619 0.423695 -0.114031 0.840319
282 -0.440901 8.2133 -10.1018 0.302658 1.0947 0.0398246
641 -1.24702 -8.67065 -7.67788 -0.124664 -0.688754 -0.868454
331 -0.931473 -7.62964 -8.05822 -0.453614 -0.603948 -0.273082
335 -0.0647517 -8.58426 -8.02654 1.41441 0.299419 0.210401
622 -0.128936 -7.61158 -7.2706 0.326593 -0.150045 -0.482839
341 -9.6701 -7.02017 -8.63093 0.531945 1.33353 -0.682644
344 -9.71604 -6.2115 -7.76299 0.26537 -0.301179 0.713489
343 -8.93622 -7.09563 -7.78525 -0.553802 0.412284 0.395458
342 -8.84784 -6.1045 -8.66508 -0.179332 0.723546 0.66045
40 -8.02925 -7.23199 -8.50287 0.516326 0.181463 -1.02413
324 -8.31223 -6.13759 -7.66895 0.163601 0.162307 -0.907654
35 -7.48416 -7.01099 -7.61049 -0.0469431 0.0309198 0.136567
61 -2.37339 -6.91487 -8.83109 0.234734 -0.971667 0.443833
645 -1.63004 -6.8407 -8.04587 2.05231 -0.128419 0.0763203
638 -0.627689 -6.80068 -8.9308 -0.815061 0.374157 0.364671
356 -0.995706 -5.9693 -8.09868 1.30785 0.75834 -0.831311
1451 -7.28529 -9.63468 -0.0690195 0.825385 0.356694 -0.164848
365 -9.60366 -5.33048 -8.63465 0.128487 0.786109 -0.969854
348 -8.87443 -5.25587 -7.8076 -0.774375 0.924323 0.742974
368 -9.62838 -4.58068 -7.71039 0.644136 -0.276714 0.0672593
86 -7.74605 -5.36086 -8.39589 -0.240593 0.200375 -0.447432
682 -7.1976 -4.26534 -8.36562 0.320304 0.644263 0.236908
424 -2.29273 -5.95215 -7.93966 -0.94817 -0.262923 1.00571
112 -2.08469 -4.8674 -8.85733 0.952821 0.599293 -0.934264
383 -0.173626 -5.09857 -8.04034 0.549265 -0.716505 -0.85622
354 -1.49149 -5.10289 -7.91186 0.657232 1.92425 -0.341481
79 -8.66994 -4.53217 -8.61592 0.0252099 -0.0585325 -0.552994
389 -9.7418 -3.72827 -8.48275 -0.946098 0.677612 -0.162016
657 -8.94737 -3.70422 -7.61482 -0.49232 -0.262985 -0.0736136
367 -8.06923 -4.42016 -7.6155 0.513947 0.246012 -0.175114
55 -8.05203 -3.62597 -8.41595 -0.487261 -0.0597982 -0.0348419
366 -7.32195 -3.44944 -7.59913 -0.232925 -0.637894 1.0166
664 -6.40079 -3.40533 -8.19149 0.363319 -0.591194 0.839934
709 -4.74403 -3.37651 -8.09281 0.974949 -0.857091 0.161472
419 -5.59869 -3.36132 -7.35204 0.0506444 -0.692596 -0.613294
352 -4.75219 -4.21094 -7.22141 0.486965 -0.791137 -0.763553
135 -3.79585 -3.50648 -8.77179 0.049029 0.319432 -2.37898
400 -4.10458 -4.37815 -8.32973 -0.755315 0.0554689 0.073237
399 -2.98221 -4.1716 -8.76658 -0.497788 0.133022 -0.0315415
668 -2.20394 -4.11297 -7.82651 0.462814 -0.438488 -0.288041
1289 -3.04722 -3.4903 -7.92471 -0.0345874 -0.56463 0.775279
401 -2.16623 -3.32128 -8.5665 -1.45594 -0.215759 0.974244
403 -1.39683 -3.20255 -7.77803 0.0283991 0.440071 -0.152796
379 -1.20696 -4.11186 -8.43847 0.879206 0.095655 0.611639
381 -0.487145 -3.99857 -7.62982 0.681175 -1.00646 -0.443973
405 -0.462656 -3.27838 -8.51002 0.887719 0.225514 -0.285344
392 -9.80802 -2.96054 -7.61511 -1.13066 -0.795484 0.671432
391 -9.09066 -2.87674 -8.40677 2.29999 1.42894 0.0615381
413 -9.8403 -1.97688 -8.42641 0.0409474 0.878903 -0.474605
725 -9.14819 -2.12314 -7.58803 0.413552 0.0862181 -0.302612
678 -8.18481 -2.85401 -7.56712 0.199127 -0.338954 0.171117
415 -8.0402 -1.99162 -8.27367 0.135245 -0.279489 0.564498
420 -7.34229 -1.93967 -7.29862 -0.307538 -0.662521 -0.427993
658 -7.33117 -2.76347 -8.36902 -0.98512 -0.437776 0.159536
443 -6.59875 -1.83133 -8.24264 0.375863 -0.322427 0.438516
442 -5.6002 -1.8486 -8.85926 -0.989346 -0.716376 -0.247752
396 -5.68256 -2.58402 -8.07056 -1.11928 0.0551858 -0.15116
733 -4.82563 -1.81075 -7.86321 -0.940959 -1.85196 -0.0963661
136 -3.90637 -1.83969 -8.5845 1.889 0.325833 -0.0789247
712 -3.87567 -2.75207 -7.78388 -0.0908788 -1.36397 0.635576
713 -3.03821 -1.90687 -7.79551 0.143703 0.00558336 0.598114
398 -3.01064 -2.70144 -8.62278 -0.205739 0.532384 -0.310506
404 -2.17728 -2.48014 -7.83339 0.0469665 -0.441858 -0.950449
425 -2.06039 -1.60452 -8.49323 0.788842 0.996533 0.61431
427 -1.375 -1.52694 -7.69015 -0.377211 0.524213 -0.669414
402 -1.30548 -2.37956 -8.52337 -0.207434 -0.869042 -0.2656
408 -0.532784 -2.37505 -7.62396 1.7327 -0.0714206 -0.805472
429 -0.573217 -1.60082 -8.44339 -0.226045 -0.366543 -0.477489
416 -10.0929 -1.14192 -7.60431 -0.777152 0.980257 -0.985011
437 -9.86537 -0.440193 -8.4196 0.0525761 0.381476 0.492446
440 -9.15594 -0.490868 -7.58354 -0.387152 -1.26104 -0.0672395
439 -8.87787 -1.31278 -8.40488 -0.288162 0.35123 -0.0987848
2790 -6.59094 -10.241 -10.1454 0.171303 -0.513424 0.992523
726 -8.22394 -1.22762 -7.4293 -0.325725 -0.250256 0.316161
468 -8.23324 -0.387901 -8.41742 -0.365018 -0.18794 0.341617
753 -7.45677 -1.12516 -8.26773 0.263668 1.46334 0.263683
203 -7.59272 -0.2787 -7.49894 -0.216984 0.00375858 0.296483
153 -6.62849 -0.420064 -8.1435 -0.740789 0.135234 -0.28626
1018 -6.66672 -1.17198 -7.36541 0.856637 0.808134 0.114366
155 -4.705 -1.10901 -8.92013 -0.404496 -1.21843 -0.239181
448 -5.6219 -1.19393 -8.07354 -0.296376 -2.0744 1.91412
467 -4.96578 -0.328451 -8.16156 -1.35394 -0.932765 -0.366091
446 -4.01045 -1.09064 -7.79788 -0.150925 -0.226595 0.492868
183 -3.08596 -0.199913 -7.69839 0.0663833 0.906716 0.925396
423 -3.05654 -0.98047 -8.4451 1.42969 0.278244 -0.883356
428 -2.29098 -0.915074 -7.68123 0.0572271 0.488546 -0.226524
451 -1.37139 -0.0711748 -7.79387 -0.719488 0.374829 -0.660357
426 -1.33655 -0.867261 -8.50641 0.154044 0.496461 1.48968
432 -0.551019 -0.747463 -7.46554 -0.978897 0.451155 1.06711
453 -0.484319 -0.0828151 -8.40141 -0.460172 0.0818507 -0.781907
1842 -3.0825 -2.89652 -0.246828 -0.16813 -0.543305 -0.236151
438 -9.06931 0.344929 -8.455 -0.767064 -0.432238 -0.0592419
466 -8.4353 0.544531 -7.61764 -1.00913 0.83784 -0.00144155
180 -8.09039 1.32283 -8.35289 0.140241 -0.778517 -0.278419
463 -7.41731 0.448496 -8.24719 -0.406448 0.505814 0.432694
1355 -7.44659 1.40376 -7.54566 0.455659 0.98291 0.121648
179 -6.46674 1.364 -8.04601 -0.000725984 0.282587 -0.304109
515 -5.74468 1.08442 -8.7787 -0.150808 -0.0276876 -1.65612
204 -5.85733 0.379356 -8.01818 -0.0151873 -0.72728 0.0394483
781 -4.9193 1.20681 -7.65899 1.07519 0.72015 1.06224
1333 -5.94599 1.17417 -7.13119 0.668618 0.175562 0.672404
469 -4.07544 0.619871 -7.72926 0.890612 1.1925 -1.85937
449 -2.35857 -0.0768534 -8.51945 0.231385 -0.682035 -0.460823
207 -3.0398 0.635761 -8.4194 0.817204 -0.702989 -0.115212
473 -2.26381 0.609937 -7.74196 -0.142992 0.853167 0.0219768
450 -1.47889 0.747271 -8.47599 0.370827 -0.35683 -0.216812
477 -0.715032 0.65696 -7.68096 -0.750943 0.220103 -0.844771
818 -10.2319 7.76416 -6.72779 0.0761686 -0.203438 0.283142
461 -9.30277 1.3999 -8.18808 0.12913 -0.430821 0.82097
176 -8.48954 2.40472 -8.18333 0.667301 -0.547541 0.275104
772 -9.72384 2.28518 -7.61424 -0.713839 -0.899991 0.426015
485 -8.6052 3.11385 -7.19635 -0.67109 -0.937103 0.62174
773 -7.34626 2.15198 -8.34024 -0.289519 1.01143 0.602109
775 -6.29514 2.15208 -8.73562 -0.286114 -0.0638459 0.419639
3060 -6.50925 2.11247 -7.18697 -2.04097 0.664956 -0.756418
1070 -5.5031 2.22844 -7.5192 0.0912403 0.685986 -1.59649
471 -3.17257 1.48972 -7.50643 -1.42193 1.8879 1.14683
231 -3.84783 1.42378 -8.46649 1.7414 0.00562564 0.314876
232 -4.33835 2.24414 -7.61106 -0.195703 -0.554349 0.106912
230 -3.08651 2.48159 -8.67774 0.131205 0.724924 0.734359
185 -2.29396 1.57777 -8.44868 -0.224732 -0.882386 0.578023
188 -2.41264 2.29638 -7.6232 -0.180519 0.692754 -1.41219
474 -1.3963 1.46166 -7.63383 0.970567 -0.45963 -0.271402
211 -1.53826 2.5346 -8.44157 0.193483 -0.0794237 -0.274272
501 -0.681473 1.59958 -8.41022 0.135327 -0.441743 -0.104655
480 -0.872666 2.46431 -7.61284 0.22127 -0.566754 -1.6519
774 -9.45627 3.30724 -7.85166 0.408961 0.286133 0.474176
770 -8.82165 4.10499 -7.78705 -1.7954 0.0431071 -1.0108
513 -8.77827 3.39898 -8.77611 0.674157 -0.78395 0.352787
491 -3.26946 4.07917 -8.68249 1.25452 -0.0984103 -0.378794
1069 -3.13515 3.60096 -7.71847 0.00842105 0.373018 -1.03397
236 -2.37562 3.31922 -8.50602 1.0849 -0.178021 0.0303822
784 -2.37543 4.34263 -7.85291 -0.149011 0.0392967 1.62576
499 -1.50143 3.37143 -7.74159 0.459566 -0.236891 -1.486
788 -1.60337 4.12757 -8.57007 -0.0315399 -0.123394 0.83107
497 -0.730101 3.17901 -8.44259 -0.160196 0.372507 0.441546
502 -0.737987 4.06969 -7.38587 1.66296 -1.10096 0.329439
2014 -0.417259 9.6291 -0.266997 -0.0857803 -1.22611 -0.415318
510 -9.36295 5.10852 -8.04 -0.495694 0.18067 -0.807068
253 -8.54681 5.0801 -6.82122 -0.254736 -0.56368 0.208727
783 -3.14451 5.02013 -7.89911 0.551851 -0.53982 -0.193465
518 -2.45143 5.00513 -8.64775 0.046545 1.17678 -0.549368
805 -1.36536 4.90475 -7.73487 -0.847602 0.606472 -0.444362
548 -2.25802 5.69659 -7.68073 0.206642 1.5881 0.372237
239 -0.693859 4.93699 -8.53645 0.00435707 0.108253 0.6372
521 -1.55041 5.69474 -8.55919 0.000935835 -0.11327 -0.641652
3405 -0.486252 6.60549 -9.9743 -0.139709 1.28704 0.064144
3396 -9.15806 6.29175 -8.34589 0.906472 -0.477542 -0.236386
533 -9.83912 7.23846 -8.47564 -0.24937 0.186175 -0.304016
3109 -9.06077 7.22885 -7.54876 0.82518 -0.0731648 -0.693454
237 -2.11946 6.66596 -8.53831 -0.68592 1.01243 0.590037
549 -1.455 6.61148 -7.78751 0.888776 -0.0144181 -1.70901
240 -0.689933 5.85145 -7.66442 0.771633 -0.523928 0.894817
285 -0.794509 6.65447 -8.61607 -0.539357 -0.752327 0.491749
536 -9.94788 8.00308 -7.67832 -0.659207 0.251488 0.169612
534 -9.1301 7.95443 -8.44536 0.157941 -0.625275 0.205907
559 -9.06782 8.64102 -7.63026 0.753073 -1.13322 -0.30695
462 -8.2277 7.71137 -7.17378 -0.871655 1.01225 0.133953
538 -8.0817 8.62803 -8.40667 -0.0142855 0.20969 -0.748088
283 -2.36664 8.10465 -8.17009 0.186888 0.271427 -0.101053
573 -1.3942 8.53579 -7.70131 0.110998 -2.23727 -0.732633
546 -1.42104 7.5629 -8.57304 0.140089 -0.311682 -0.0803005
264 -0.647512 8.2124 -8.35461 0.0505816 0.389996 -0.299517
552 -0.70886 7.48721 -7.64952 -0.740054 0.0578442 -0.490906
557 -9.90808 8.72575 -8.58169 0.454134 0.074463 -0.360819
560 -9.90369 9.55194 -7.69073 0.0247231 -1.32164 0.401053
558 -9.0437 9.40364 -8.44148 -1.17506 0.783841 0.548487
564 -8.30427 9.45183 -7.57584 0.497966 -0.151342 -0.49304
562 -7.40369 9.50098 -8.49585 -0.906214 -1.0565 -1.04067
854 -3.0215 -9.95039 -7.94953 0.370895 -0.974543 1.35084
569 -2.65283 9.05446 -8.65622 -0.443583 0.269581 -0.184659
308 -2.10564 10.1373 -8.52989 -0.248602 -0.777256 0.348368
572 -2.23776 9.30143 -7.78502 0.168118 0.207923 0.499181
309 -1.21979 9.45363 -8.58763 0.270349 0.88125 -0.00635936
310 -0.404155 10.0692 -8.59676 1.31159 0.890936 -0.286502
576 -0.472623 9.11981 -7.74094 -0.273484 -1.01466 0.795146
584 -10.0097 -9.49214 -6.22756 0.853515 0.324075 -0.804097
582 -9.2093 -9.40327 -6.88667 -0.145973 0.390256 1.6755
583 -9.16467 -10.1131 -6.06909 0.680238 -1.00808 -0.24074
581 -9.8791 10.275 -6.89625 -1.37752 0.489882 0.839668
588 -8.24375 -9.5039 -5.8967 0.027481 -0.276847 -0.184853
299 -7.30223 -9.1391 -6.92094 -1.06945 -1.05822 -0.553556
565 -6.40506 -10.2793 -6.35431 0.993147 -1.26738 0.183871
10 -5.52263 -9.52178 -6.60304 0.484464 0.282721 -0.134615
589 -4.557 -10.2078 -6.31103 1.2693 0.401099 -1.1065
15 -3.815 -9.4298 -6.30806 0.92481 -0.542305 0.46681
332 -2.88939 -9.46467 -7.06119 -0.131069 -0.254751 -0.878546
596 -2.21544 -9.60813 -6.21749 -0.103521 0.034354 0.703275
830 -3.17673 -10.2299 -6.2162 0.71466 -0.229652 -0.115049
593 -2.08549 10.2474 -7.19951 -1.26313 -0.124737 -0.199596
595 -1.35785 10.1912 -6.06132 -0.69746 0.466632 0.152098
594 -1.23545 -9.56356 -6.99375 -0.945539 0.260811 -0.114364
600 -0.592218 -9.54403 -6.15168 0.104199 -1.00661 -1.22746
605 -9.90143 -8.62449 -6.96652 -0.25291 0.646517 0.0685517
608 -9.83102 -7.74876 -6.24171 -1.68795 0.431223 0.971475
606 -8.95954 -7.73174 -6.82231 0.118688 -0.504781 0.239267
607 -9.10745 -8.6118 -6.10135 0.483736 -0.165435 0.028561
609 -8.1636 -8.63586 -6.57533 -0.861921 -1.15316 0.351221
612 -8.19599 -7.69664 -5.95528 0.12165 0.165174 -0.328823
611 -7.31106 -8.50806 -5.89974 -0.0665386 -0.291882 0.00105891
347 -7.26036 -7.75689 -6.71801 0.234427 -0.209179 0.850047
586 -6.32556 -8.58379 -6.43506 -0.312491 -0.164427 0.714808
563 -4.81069 -8.72145 -6.47365 0.382683 0.270037 0.961071
637 -5.44893 -7.82933 -6.29892 0.519205 0.573754 -0.0380988
328 -2.95844 -8.43305 -6.5317 -0.00946888 -0.0277121 1.14747
665 -3.93488 -7.82797 -6.41352 0.180601 0.454157 0.58749
325 -2.85299 -7.64597 -7.3406 -0.914623 -0.0387044 -0.475209
618 -2.0863 -8.72931 -7.08778 0.41793 0.399879 -0.204024
929 -2.15449 -7.60872 -6.12273 0.207096 0.731331 0.0373672
621 -0.459551 -8.61164 -7.01488 0.740422 -1.23258 0.1561
619 -1.3407 -8.65421 -6.308 0.510988 1.02924 -0.12304
355 -1.34863 -7.79616 -6.8792 0.406747 -0.503746 -1.54858
624 -0.424197 -7.74375 -6.09256 -0.440602 -0.693441 -0.00457968
631 -9.06625 -6.90994 -6.05792 0.488071 -1.26845 0.779135
629 -9.79417 -6.86027 -6.91866 0.425702 1.18806 -0.703133
632 -9.94383 -6.05792 -6.17311 -0.354615 -0.0934176 -0.988142
630 -8.99243 -6.07897 -6.80757 0.505457 1.60023 0.231807
634 -8.19085 -6.91253 -6.79381 -1.85274 -0.983185 -0.408118
636 -8.20058 -6.19197 -6.02656 -0.887253 0.660323 -1.19246
616 -6.75409 -6.76815 -6.61949 0.600754 -0.828996 0.307031
610 -7.44294 -6.99576 -5.8492 0.176059 -0.473163 1.03574
284 -4.67424 -6.89255 -6.2181 -0.560834 0.507743 -0.793184
613 -5.47983 -5.99214 -6.48064 0.165286 -0.00573009 -1.69586
349 -3.08379 -6.99594 -6.28069 0.150164 -0.323926 -0.0435713
648 -2.02495 -6.86018 -7.10613 0.392432 -0.278077 0.0140283
953 -2.13078 -6.06773 -6.30712 -0.374693 0.176891 -0.606342
955 -1.32991 -6.81948 -6.29088 -0.0541514 -0.0994134 0.328677
669 -0.223702 -5.97999 -7.23548 -0.0622449 0.477737 -0.551961
643 -0.814561 -6.74078 -7.35201 -0.396422 -0.23442 -0.21595
4369 -0.157894 -6.73167 -6.49448 -0.793758 0.212784 -0.318864
644 -1.4193 -5.85798 -7.02339 -0.874947 -0.340271 -0.793015
653 -9.78072 -5.31769 -7.01101 0.0815715 -0.434464 1.06206
655 -9.05503 -5.36341 -6.04619 -1.23768 1.90664 -1.06394
969 -8.0732 -5.41051 -6.8515 -0.349809 -0.249605 0.605499
681 -8.27079 -4.44216 -5.96332 -0.211319 0.186696 1.00313
971 -6.51893 -4.95942 -6.71985 -0.00519904 0.083253 0.303371
685 -4.68369 -5.30998 -6.43356 -0.283252 -0.247086 -0.148871
974 -3.81637 -5.99464 -6.12355 -0.665966 -0.199342 0.837134
977 -2.95604 -5.21905 -6.32167 -0.471087 0.293925 0.352532
691 -2.16538 -4.90577 -7.01806 0.0278595 -0.127789 -0.681472
647 -0.701368 -5.82372 -6.20925 0.128352 -1.18873 -0.644416
667 -1.4267 -5.04798 -6.2083 0.735106 0.186782 0.555484
672 -0.710809 -4.95796 -7.06666 0.755074 -0.417778 0.294806
656 -9.7629 -4.48229 -6.12531 -0.350427 0.460885 0.361823
654 -8.95009 -4.5307 -6.88891 -0.438326 0.0994054 0.513375
677 -9.7314 -3.77774 -6.88665 -0.591932 0.889658 0.112904
966 -9.14458 -3.64684 -6.00568 0.227972 0.705146 0.431582
688 -7.32177 -4.34519 -6.79088 0.630424 -0.75885 0.979275
679 -8.26783 -3.57934 -6.75104 -0.683235 0.494273 -1.1259
707 -6.58033 -3.57357 -6.65981 0.283585 -0.557535 -0.213157
1282 -5.63031 -4.20922 -6.50185 0.715138 -0.905696 0.572112
421 -4.88417 -3.42007 -6.47876 -1.65674 -0.620839 -0.13495
373 -4.06018 -4.40385 -6.33703 -0.381978 0.97962 -1.14212
686 -3.78235 -3.48069 -7.00581 0.486889 -1.03973 0.34291
980 -3.09145 -3.52535 -6.1863 0.936664 0.811356 -0.41165
374 -2.93159 -4.16032 -6.99265 -0.126381 -0.533718 0.999115
978 -2.15373 -4.31176 -6.21532 0.113837 -0.433134 0.531098
380 -2.27454 -3.32176 -7.03145 0.0745775 -0.885653 -0.770527
692 -1.55348 -3.36562 -6.0997 0.678752 1.71038 0.914852
666 -1.40286 -4.16656 -7.1471 0.8132 -0.905375 -0.940921
690 -0.7119 -4.28363 -6.08421 0.367709 -1.31062 -0.158316
384 -0.637287 -3.43263 -6.83875 -1.2184 0.113732 0.164819
970 -9.12651 -2.88047 -6.7604 0.0450793 -0.00361678 0.919914
680 -10.017 -2.83551 -5.90594 -0.650949 -0.839208 0.0404776
701 -9.91837 -2.07055 -6.814 -0.560284 0.544347 -1.37075
702 -9.19242 -2.12947 -6.00507 1.92331 -0.126569 0.00869954
1861 -5.33084 -5.46954 -0.19974 -0.219201 0.830964 -0.384632
708 -8.45678 -2.0326 -6.79661 -0.329601 0.0750784 -0.594409
993 -8.35872 -2.86624 -5.99815 0.361395 -0.66454 0.658061
369 -6.53003 -2.64676 -7.28599 0.440498 0.284864 0.591737
683 -7.52474 -2.76067 -6.65032 0.396437 -0.462258 -0.647389
705 -6.66316 -1.90961 -6.47504 0.622831 -0.193286 0.155797
731 -5.67232 -2.53513 -6.32894 -0.277242 1.49056 -1.19085
730 -5.7504 -1.89291 -7.187 -0.791851 1.02215 1.4574
757 -4.86119 -2.50762 -7.11144 0.348654 0.814102 0.0424208
1021 -4.9405 -1.78059 -6.28742 -1.0662 0.0992092 -0.182864
736 -4.0304 -1.86318 -7.06378 0.692632 -1.42065 -1.14091
711 -4.01004 -2.76066 -6.37907 -0.488123 0.190891 1.49388
998 -3.23928 -1.78228 -6.21331 -0.844007 -0.203646 -1.21666
689 -3.10282 -2.62736 -6.97177 -0.0730383 0.300797 -0.185786
716 -2.30859 -1.81292 -6.98487 -0.528808 -0.0143498 0.421753
1001 -2.38457 -2.5494 -6.20674 -0.144364 0.577309 -0.0651964
715 -1.68273 -1.77084 -6.13149 0.240958 0.671529 -0.117224
693 -1.47974 -2.55969 -6.90605 -0.550494 -1.44479 0.175528
717 -0.718247 -1.67405 -6.72487 1.07417 -0.0180873 -0.453785
696 -0.765299 -2.54948 -6.13276 1.15082 -0.889163 0.658406
1830 -7.2372 -4.30577 -0.0189772 0.00423811 -0.155576 -0.000805859
728 -9.17077 -1.2325 -6.78805 0.648037 -0.89477 0.0259883
752 -9.61999 -0.143822 -6.59664 -1.31742 -0.0914286 0.0247374
750 -8.40822 -0.209586 -6.6818 0.116694 -0.312319 0.619999
729 -7.55589 -1.03347 -6.6109 0.181445 0.157023 0.929733
754 -6.92654 -0.23331 -6.73135 -0.213626 -0.45209 -1.18196