ITEM: TIMESTEP
189000
ITEM: NUMBER OF ATOMS
6912
ITEM: BOX BOUNDS pp pp pp
-1.0259855680060181e+01 1.0259855680060181e+01
-1.0259855680060181e+01 1.0259855680060181e+01
-1.0259855680060181e+01 1.0259855680060181e+01
ITEM: ATOMS id x y z vx vy vz
8 -9.68361 -9.54848 -9.30752 1.17024 0.148207 0.0367873
3444 -7.76101 -10.1872 -9.62578 1.6988 0.0763627 0.636747
2891 -7.66954 -9.15311 -9.8814 0.446733 0.115122 0.896633
161 -2.50535 0.113696 -10.0652 0.281033 0.190887 0.905794
3205 -5.56339 -9.68771 -8.61932 -0.470127 0.248197 -0.99636
478 -0.0831547 3.32479 -7.64857 -0.348899 0.414199 -0.12701
44 -3.94361 -8.82939 -9.31121 0.476226 -0.483948 -0.0263443
283 -3.36016 -9.75049 -8.94749 -0.576825 0.727214 -0.64736
18 -4.22372 -9.89726 -10.0346 -1.22316 -0.454597 0.637345
1921 -10.2307 3.23623 -2.35698 -1.32027 -0.425837 -0.243368
308 -1.86946 10.0408 -10.0378 -2.17332 -1.82964 -1.88658
2897 -1.85968 -9.36227 -9.57451 -1.01918 1.08981 0.627821
42 -0.873751 -9.54908 -9.96702 -1.07561 -0.928583 0.711296
333 -0.100221 -9.6134 -8.98883 -0.0936447 -0.591098 -1.25962
32 -9.6584 -7.88472 -9.49281 -2.04074 -0.61749 0.172439
1679 -0.0858075 5.06439 -0.737229 -0.133502 -1.45816 -0.505927
31 -8.78007 -8.67721 -9.29738 0.462683 -0.667855 1.17911
11 -7.85117 -7.85974 -9.43166 1.10471 0.693552 -0.573836
270 -5.8732 -8.32118 -9.29009 0.184376 -0.976793 -0.475313
345 -4.64862 -8.76454 -10.1571 0.19245 -0.367018 -1.02071
3422 -4.64493 -7.97626 -9.50134 0.602079 1.42711 -1.14917
1105 -10.2605 7.72206 -5.0109 -0.0151871 -0.485073 -0.658105
252 -3.51191 -7.68574 -9.54247 0.0394393 0.97766 -0.762889
87 -2.50839 -7.58675 -9.72232 -0.387554 0.998942 -0.537046
2488 -1.21094 -9.12283 -8.71741 -0.318503 -0.0400307 -0.573977
48 -1.49153 -8.42571 -9.49109 0.138796 0.694543 0.0297631
330 -0.715541 -7.29539 -9.92422 0.910659 0.526976 0.104321
47 -0.315365 -8.64161 -9.78378 0.164156 -0.426399 -1.35287
56 -9.17677 -5.98419 -9.70656 0.601529 1.56736 -1.39329
30 -8.87267 -6.99276 -9.5647 -0.254485 -0.509882 -0.852759
3275 -8.10148 -6.17227 -9.26549 0.720994 -0.458925 0.289875
274 -7.79317 -6.88607 -8.5309 0.555687 0.647126 -0.459289
699 -10.1756 -1.92582 -5.834 0.189243 -0.7353 -0.0168367
85 -6.9557 -7.57924 -8.85597 -0.994367 -1.04063 -1.41078
3274 -6.01613 -5.96391 -9.14198 -0.889204 -0.135427 -0.140192
9 -7.09671 -6.50935 -9.35624 0.522814 -0.988689 0.278244
29 -9.43683 -8.82099 -10.0779 0.118093 1.38968 0.095837
3249 -5.53384 -7.21409 -9.12352 -0.344585 0.311434 -0.3657
83 -5.02528 -6.29625 -9.30582 -1.16423 0.803079 0.086637
38 -3.75629 -6.06749 -9.6556 0.290999 0.0408926 -0.88148
66 -3.17961 -6.76653 -10.1288 -0.367263 -0.0521134 -0.918412
853 -4.06706 -6.85621 -9.13052 0.295407 0.0932136 -1.02841
3212 -4.35436 -7.21998 -10.1602 -0.742785 0.512634 -0.496943
357 -1.60012 -7.35998 -9.36636 0.552038 -0.168016 -1.38691
37 -1.80405 -6.23366 -9.27399 0.803308 -0.0541994 0.22077
1352 -10.1585 4.93828 -0.992665 0.0771908 -0.365829 -0.569947
638 -0.897183 -6.73825 -8.86966 0.941682 0.691155 -0.121975
360 -0.400199 -5.82175 -8.86376 0.335953 -0.417818 0.227837
72 -0.966328 -5.96777 -9.81119 -0.907759 -0.154639 -0.390113
71 -0.0457113 -6.51499 -9.71979 -0.868293 1.12947 0.0497742
633 -8.56539 -5.14413 -9.77041 1.32529 -0.198899 0.6492
78 -7.48965 -5.40766 -9.55606 -0.117346 -0.313859 0.0735258
3256 -6.51435 -5.54731 -10.0166 -0.257195 0.0481966 0.486354
2986 -5.48659 -5.536 -9.88332 1.00641 1.57903 0.488
81 -6.28891 -4.78178 -9.15212 -1.12004 -0.00730643 -0.0517662
3298 -4.46697 -5.19773 -9.52665 0.415439 -1.08018 -0.272912
3037 -4.92296 -4.12559 -9.68078 -0.291248 0.981929 0.46953
1660 -10.3086 6.85055 -0.528708 -1.47011 1.31652 -0.701992
687 -3.05051 -5.17617 -9.77165 -0.339301 -0.103941 -1.83271
93 -1.9415 -5.14779 -9.93055 0.104404 -0.460457 0.840881
3529 -0.12721 -5.01987 -9.71929 0.0372524 0.408357 -0.787774
95 -1.20551 -5.07698 -9.17756 0.236316 -0.711476 -0.507472
80 -8.59135 -3.64742 -9.64794 0.613202 -0.460862 -0.0754247
372 -7.80306 -4.42096 -9.27989 0.424675 -0.918291 -0.279944
103 -7.75594 -2.52855 -9.22798 -0.325451 -0.240511 0.417786
393 -7.16044 -3.33268 -10.0172 -0.146641 -0.0741706 -0.687414
335 -0.215728 -8.67761 -8.09064 -0.463495 0.484335 0.467951
107 -7.06311 -3.76131 -8.99402 0.790659 -0.127221 -0.761708
2751 -6.92717 -4.40575 -9.98293 -0.627105 -0.509564 -0.948544
370 -6.25396 -3.64389 -9.65338 -0.281354 0.604534 -0.0203381
350 -4.4846 -4.44128 -8.70856 -0.449848 0.789079 -1.00018
397 -4.54709 -3.15664 -9.7281 1.11115 -0.29935 0.608171
3260 -3.79285 -4.30048 -9.49185 -1.65154 0.81473 -0.762955
375 -3.09327 -3.51245 -9.55078 -0.372232 -1.03602 -0.177889
767 -0.153228 1.46183 -5.83625 0.395856 0.149282 0.395107
3447 -2.85131 -9.80702 -9.99343 -0.0357295 -0.18952 -1.53486
378 -2.03723 -4.12315 -9.50041 1.70432 -0.889952 1.26795
96 -1.05296 -4.16082 -9.81626 0.652963 -1.04242 -0.470723
382 -0.399243 -4.23123 -8.96489 0.101839 1.47883 -0.319147
115 -1.41044 -3.2123 -9.39354 0.150414 1.38749 0.616215
119 -0.381819 -3.32663 -9.75642 -0.937527 -0.0886461 -0.191822
104 -9.48688 -2.94097 -9.60371 1.29635 -0.0511971 0.620771
414 -8.71964 -2.05494 -9.45397 0.705982 0.783312 -0.313428
1629 -3.28436 6.0706 -0.302444 0.4232 0.965797 -0.640263
2 -10.2267 -9.42356 -10.1768 -0.417872 0.99882 0.254816
441 -7.20565 -1.64843 -9.09013 0.393154 -0.248453 1.42971
417 -6.41334 -2.85945 -8.77337 1.02996 -0.240143 0.659832
153 -6.29702 -2.11294 -9.592 0.495584 -0.610549 -0.0137936
132 -5.58418 -2.85714 -9.55119 0.219405 -1.25323 0.141025
2722 -4.78565 -2.0951 -9.53869 -0.791197 0.679421 0.847088
448 -5.58153 -1.96259 -8.70758 -0.799333 -0.642382 -1.15126
133 -4.59224 -2.76395 -8.68194 -1.0892 0.676619 -0.178946
3303 -3.71151 -2.69272 -9.44007 0.750817 0.235359 -0.792389
137 -3.29744 -1.59817 -9.65644 0.00274304 -0.752606 -1.40228
116 -2.37425 -2.41526 -9.55639 1.57768 -0.654932 0.367588
120 -0.503895 -2.44688 -9.21595 -0.799158 0.510196 -0.754213
141 -0.639373 -1.55769 -10.2311 -0.812469 -0.373077 -0.276362
3229 -5.84002 -4.45551 -10.1468 0.179276 0.447482 -0.392575
723 -10.244 -1.01504 -5.03476 -1.03911 0.262726 -0.0945709
128 -9.67398 -1.166 -9.43569 -0.116654 -0.0136511 -1.0436
1534 -0.0830352 -4.42413 -2.14844 -1.29809 -0.0718663 -0.350515
150 -8.99758 -0.387528 -8.98089 -0.734386 -0.640909 -0.27654
149 -8.85085 -1.32388 -10.2334 -1.50933 1.00577 1.00197
151 -8.22199 -1.16703 -9.21704 -0.125808 0.157377 -0.782748
3324 -7.84151 -0.533205 -9.89433 -0.264073 -0.922295 -0.230533
3297 -7.01463 -1.17368 -10.1751 -1.01643 -0.140987 0.094788
465 -7.029 -0.665881 -9.20062 1.00044 -0.339974 -1.75865
3352 -6.05089 -0.967651 -8.83437 0.230883 -1.29692 0.372324
3367 -6.21386 0.123803 -9.44851 0.218912 0.198168 -0.595
3319 -8.91877 0.0102627 -10.0437 0.0259925 -0.0814135 0.706157
155 -5.34901 -1.157 -9.49982 0.0203608 1.16915 -0.335903
467 -5.23336 -0.0693129 -9.55381 0.896704 -1.32318 0.268566
160 -4.27758 -1.01967 -9.16665 1.09033 -0.998963 0.514902
159 -3.28338 0.17219 -9.38378 -0.268906 -0.0872039 0.0656185
206 -4.09144 0.0588498 -9.98178 0.0239365 0.619737 -0.45614
494 -4.28266 -0.0978953 -8.70454 0.501151 0.954712 -0.459166
2100 -10.1769 2.47786 -1.63084 -1.7073 -0.536505 0.487693
140 -2.43278 -0.895094 -9.33747 0.185764 0.224545 -0.173609
139 -1.57216 -1.53958 -9.43974 0.588689 0.315733 -0.403755
144 -0.747989 -0.860303 -9.4094 -1.11083 0.67874 0.963015
138 -1.62965 -0.767684 -10.1149 -0.402139 0.607767 -0.880652
152 -9.76132 0.503265 -9.25643 -0.4692 -0.23164 0.176297
3320 -9.3109 1.02106 -10.0781 0.749956 0.162005 -0.271775
175 -8.40071 0.529746 -9.30718 1.55059 0.0697715 0.0700483
156 -7.37977 0.373269 -9.25893 -0.743439 0.911498 1.91559
7 -8.63469 -9.66129 -10.1776 -0.222022 0.473837 1.03081
3060 -6.34404 1.30687 -9.48842 -0.667586 0.484384 -0.348617
2748 -4.1691 1.60799 -10.1171 0.493819 -0.640472 0.225111
2201 -4.37383 4.84742 -0.264782 0.0852012 1.31782 -0.493469
1669 -4.18654 0.976021 -9.25549 0.493909 0.234156 0.673929
188 -3.23972 1.04434 -10.0467 0.995833 0.0293903 -0.307079
163 -1.66917 -0.0917792 -9.38055 -0.698783 0.197846 0.517483
450 -2.39667 0.81981 -9.34763 -0.821943 0.13529 -0.351489
189 -1.45226 0.879871 -9.91198 -0.152847 -0.827988 -1.17619
165 -0.595788 0.0453512 -10.1266 -0.445545 -1.31806 -0.704607
168 -0.726357 0.692769 -9.24357 -1.4897 -1.64488 -0.483277
176 -8.94805 1.45169 -9.02833 -0.114926 0.126764 -0.627675
197 -10.2269 2.41428 -9.68526 0.649611 0.211937 -0.808411
774 -8.80502 2.41908 -9.30206 1.66241 -1.12826 -0.385692
171 -10.0838 1.60027 -8.86006 -1.23228 0.625711 0.174545
200 -7.93517 1.56408 -9.41862 -0.485381 0.335302 0.344572
1334 -8.09946 3.15547 -9.76362 -0.00539905 0.566379 0.275138
490 -6.99238 1.71197 -8.63452 0.310987 0.515052 0.90686
3040 -7.08502 2.16736 -9.62171 0.512101 1.28792 -1.06091
5040 -10.2031 0.0346122 -0.704259 1.08084 -0.877415 0.291479
782 -5.38226 2.01115 -9.52897 0.0128473 0.668799 -1.21671
2464 -4.25809 1.814 -8.46758 -0.0385034 -0.687597 0.572688
3036 -3.30483 2.14401 -10.1517 -0.952145 -0.319894 -0.996184
3374 -3.19855 1.68915 -9.20834 -0.836099 0.00712008 -0.874439
233 -3.49859 2.72007 -8.59959 -0.545165 -0.679332 0.703303
501 -1.73909 1.76674 -9.46716 1.17525 0.39404 -0.594016
212 -2.5314 2.57937 -9.42062 0.714828 0.129287 1.0362
24 -0.217809 10.2095 -9.71605 -1.08837 0.208661 -0.806438
213 -1.60149 2.677 -9.91505 1.55677 1.00079 0.484148
192 -0.643729 1.65215 -9.95592 0.220705 0.256335 0.842722
215 -0.555226 2.46609 -9.23569 -0.384212 -0.516043 1.49839
195 -9.92043 3.30049 -9.11685 -0.559904 -0.594404 -0.962333
2458 -9.04468 3.97023 -9.68719 0.574952 0.273281 1.2877
1833 -8.03472 -5.13465 -0.0474715 -0.138845 -0.053924 1.05498
482 -8.35277 3.29731 -8.59632 -0.677951 0.804395 1.21748
539 -6.99518 3.10645 -9.97971 -0.332454 0.216158 0.754235
3390 -8.0215 4.33641 -9.45981 0.505094 0.915924 0.993219
1047 -5.32146 3.53138 -8.31674 -0.47004 -0.483729 0.409106
491 -4.34544 2.55886 -9.24436 0.49038 -1.38837 -0.900615
518 -5.22554 3.10421 -9.43549 -1.00012 -0.745521 1.18164
259 -3.42353 4.64015 -9.69885 1.40405 -0.522075 -1.06473
223 -3.60073 3.53185 -9.71474 -0.320552 0.505516 1.4811
3344 -2.66466 3.77818 -9.13298 0.504546 1.44643 -0.795089
209 -1.60151 3.63379 -9.4708 -0.0157838 -0.125455 -0.372909
498 -0.683305 4.26292 -9.07091 -0.88159 -0.519734 -0.502408
3384 -0.577675 3.36282 -9.77011 -0.33314 -1.04001 0.453994
3439 -8.75712 9.39493 -10.0782 -0.258756 -0.724614 1.08104
194 -10.188 4.26875 -9.49251 -1.57442 -0.68584 0.558267
219 -10.3086 5.76032 -8.28425 -1.48987 -0.140271 -0.524997
485 -8.76388 5.22825 -9.91842 -0.194835 -0.242368 -0.156602
184 -5.48143 -1.79429 -10.3309 -1.00273 1.01133 -1.75783
1614 -8.39876 5.13334 -8.80157 -2.04657 -0.442193 0.553176
228 -9.38578 5.12584 -9.11232 0.502173 0.479517 0.299054
231 -2.57809 5.07761 -9.30073 1.33832 -0.0439871 -0.175302
3144 -1.60078 4.65279 -9.12958 0.274621 -0.0373691 1.44692
1006 -0.0152621 -0.865425 -5.17045 -0.0842106 0.181968 0.118592
2776 -1.39082 5.52077 -9.73928 -0.698912 0.310077 -0.27254
261 -0.557333 5.80467 -9.138 -0.375285 0.703439 -0.00894443
3403 -0.493256 4.85866 -9.91529 1.11305 0.750126 0.29198
224 -9.64075 6.43818 -9.44728 0.563203 -1.07397 -0.32151
2790 -9.17225 7.09174 -8.786 1.05275 1.29991 -0.604572
2460 -8.6026 6.38425 -9.47459 -0.239693 0.776223 -0.588181
982 -0.0806198 -2.36332 -5.20769 -0.209022 -0.0610681 -0.526114
2462 -2.62717 6.16678 -9.23518 0.521731 -1.26939 -0.865932
3326 -1.49364 6.57016 -9.2017 0.485123 -0.539409 0.361564
3405 -0.547759 6.57194 -9.94672 0.821625 0.0104529 -0.518178
1030 -0.154659 0.736214 -5.03014 0.777352 -0.837858 1.02241
248 -9.02189 7.9361 -9.86697 -0.210323 -0.267845 -0.311645
537 -8.14798 8.62059 -9.89405 -0.51122 -0.0988214 -1.3729
246 -7.97003 9.38027 -9.24168 -0.259402 -2.48535 -0.465228
243 -10.0602 7.41635 -9.41628 0.933717 0.221356 0.689312
2492 -2.39817 7.22634 -9.49311 -0.431801 0.132913 1.12824
570 -2.00832 8.34266 -9.24472 -0.951939 -0.78453 -1.0028
282 -0.328085 8.25892 -10.1146 0.131458 -0.283464 -2.24871
3455 -0.389068 7.51415 -9.39486 1.17749 0.663816 0.110561
3432 -1.38562 7.65706 -9.90415 -0.961487 0.627021 0.809084
272 -9.62783 9.28555 -9.17634 0.975808 1.75527 -0.976965
2797 -3.92836 6.51665 -9.88672 0.942642 0.0762395 1.60296
3443 -8.8451 10.1579 -9.19892 0.826944 0.403316 -0.334299
271 -6.83571 9.99465 -8.9084 -1.81492 0.362724 1.30513
2491 -2.70518 9.41683 -10.1121 -1.43417 0.172352 0.0495463
43 -1.36885 9.29437 -8.83339 0.188765 1.72015 0.346005
3363 -9.93109 3.44802 -10.2076 0.392648 -0.709111 0.561885
23 -0.707245 8.38573 -8.82992 0.731474 -0.356678 0.122096
17 -1.24714 8.93894 -10.0105 0.00137518 1.29 -0.74691
296 -9.68503 -9.53486 -7.85995 0.236512 -0.212478 0.135458
294 -8.16888 -9.61765 -8.66323 0.766028 0.213281 -0.0368981
589 -7.4011 -9.68331 -7.66921 -0.259757 1.12021 1.17296
3180 -6.61211 -9.10832 -9.53338 -1.34899 0.259786 0.398042
299 -5.74174 -8.83251 -7.83597 0.880162 -0.481565 0.649946
6 -6.93471 -8.78899 -7.23418 0.886953 -0.413457 -0.198036
3445 -5.02231 -8.57337 -8.65174 0.913173 -0.0405986 -0.489537
855 -5.12984 -9.75903 -7.521 -1.04596 -0.692057 0.712986
593 -4.30781 -9.83542 -8.20987 -0.386626 0.311709 1.32236
15 -3.55236 -9.00695 -8.2556 1.15933 0.646071 -0.756797
830 -2.89096 -9.45571 -7.35984 1.45045 -0.971152 0.172525
328 -1.99233 -9.43926 -7.96401 0.0694862 -1.48556 -0.371091
306 -1.16619 -10.2756 -9.27502 0.890572 -0.792104 -0.510439
312 -0.784188 -9.70966 -7.89938 -1.03119 0.563652 -0.213964
317 -9.61113 -8.7456 -8.54409 -0.383441 -1.9939 -0.0506693
320 -9.66551 -7.74876 -8.02804 -0.725128 -0.925897 0.76701
319 -8.83316 -8.79525 -7.91583 0.0145254 0.891156 -0.352399
318 -8.68354 -7.84131 -8.79892 0.918835 -0.246721 0.717772
3179 -7.45724 -8.83375 -8.9242 -0.388279 0.262363 0.173377
322 -8.0797 -8.19497 -7.10878 0.492344 -0.128762 1.15374
616 -7.81317 -7.86731 -8.215 1.2619 -0.930801 -0.857796
300 -6.65835 -8.49453 -8.27285 1.33465 -0.28772 -0.415875
20 -5.77282 -7.75925 -8.28722 -0.161532 0.877293 0.294033
260 -4.57141 -8.7435 -7.71669 0.872531 -0.417179 -0.486579
3207 -4.7073 -7.33773 -8.46565 0.607644 -0.899077 -0.707933
3164 -2.72991 -8.95454 -8.97118 -0.860534 -1.22609 -1.59852
325 -4.81263 -7.85555 -7.09359 -1.65205 -0.176873 -1.94335
3202 -3.95245 -8.01532 -8.59229 0.528234 -2.15385 0.491174
326 -3.31429 -8.13615 -7.41404 0.181439 0.475341 1.08524
3185 -3.04159 -7.43649 -8.51145 -0.757592 0.000670968 -0.87557
854 -1.97602 -8.07909 -8.57982 -0.0344673 1.16339 -1.67017
62 -0.89621 -7.91324 -8.79577 -0.691506 0.246257 -0.383466
1198 -0.0565548 -7.83676 -3.56459 1.44249 0.697942 0.617228
618 -1.13342 -8.19286 -7.83283 1.36879 0.44711 0.475173
341 -9.66953 -6.94159 -8.77517 1.1004 -0.785522 0.0475877
344 -9.66523 -6.08142 -7.952 0.455702 0.336981 1.00833
342 -8.8891 -6.02413 -8.59194 1.11477 -0.16697 0.212693
343 -8.76146 -7.09027 -7.97985 0.212934 -0.25083 0.146043
36 -7.87789 -6.05598 -7.77329 0.975753 -1.86408 -0.614298
2894 -6.41375 -6.73748 -8.53115 0.261629 1.60683 -0.592833
352 -7.10448 -6.95391 -7.8007 -0.698383 0.533608 -0.426275
57 -7.19235 -5.67239 -8.55325 -0.196351 1.3429 -1.06495
3250 -4.39278 -5.88513 -8.56469 -0.819252 0.952953 0.217328
648 -4.59339 -6.22693 -7.541 0.250965 1.03889 -1.14111
332 -5.44854 -6.28784 -8.29213 -1.22193 -0.00395826 -1.54181
346 -5.42449 -7.06532 -7.53458 -0.00529984 -0.563379 -0.696755
92 -3.52773 -6.02663 -8.04718 -1.72693 -0.0192871 0.377717
567 -4.02245 -7.30859 -7.68334 -0.135912 -1.71162 -0.0150365
3452 -2.86334 -6.90197 -7.57303 -0.616545 -1.81402 -0.748939
336 -2.84802 -6.49952 -9.09304 0.368698 0.349855 1.27829
327 -1.90039 -6.90296 -8.33686 0.162737 0.253804 -0.126347
359 -0.241785 -7.36447 -8.26306 -1.00361 -1.49831 -0.348899
669 -0.301418 -6.31674 -7.96315 0.687742 -0.337454 -0.270783
365 -9.59542 -5.31404 -8.74516 0.185619 0.559547 -0.32567
348 -8.98597 -5.23484 -7.75722 0.283811 -0.199656 0.558728
368 -9.63485 -4.39185 -7.91519 1.41664 -0.355118 0.220864
109 -8.15567 -5.38858 -8.59628 -0.536285 -1.51101 0.259711
613 -7.13368 -5.41286 -7.35963 -0.389216 -1.07478 -0.63368
371 -6.25266 -5.34326 -8.21738 -0.093298 0.349171 -0.199419
2992 -5.27225 -5.09717 -8.81752 -0.913735 -0.148417 0.302655
3188 -5.3459 -5.33048 -7.64365 1.11027 0.282889 0.230825
974 -3.56268 -5.1463 -8.82242 0.987088 0.0185907 0.0343579
424 -2.85599 -5.14517 -8.02516 0.00218039 -0.852145 0.954498
400 -3.71386 -5.22872 -7.16941 0.417805 -1.15385 -0.612574
645 -2.38752 -6.05872 -8.12488 1.17907 -1.09909 -0.624966
376 -2.12098 -5.14711 -8.80374 0.00796256 -0.566944 -1.32118
356 -1.29175 -5.89542 -8.24974 0.78338 0.301608 0.324103
354 -1.33324 -4.97233 -7.83711 0.700229 -0.775115 -0.970097
383 -0.170498 -5.16155 -8.07478 -1.24348 -0.281108 0.659803
389 -9.53371 -3.48618 -8.68326 0.207108 -0.669054 -0.65317
657 -9.04744 -3.56276 -7.68097 -0.0406259 -0.074856 -0.157784
79 -9.24495 -4.38868 -9.19268 -0.512762 0.311026 -1.43099
366 -7.96319 -4.62271 -7.58474 0.957084 0.669167 -1.57144
55 -8.06281 -3.4396 -8.70049 0.00910334 1.08074 0.249769
682 -7.03012 -4.53517 -8.35346 -0.162761 0.496139 0.883382
329 -6.44866 -4.54867 -7.43557 0.557055 0.165334 1.22015
688 -7.43945 -3.73868 -7.68422 -0.217158 -0.42559 -0.0696591
664 -6.50136 -3.71514 -8.12811 -0.404572 0.0648166 1.83565
86 -5.64619 -4.28997 -8.1592 0.000847114 1.35718 -0.499836
684 -5.32223 -3.62079 -8.8719 -0.638475 0.330934 -0.766909
445 -4.62378 -3.54455 -7.87762 0.703406 -0.159641 0.311794
419 -5.58381 -3.74804 -7.19539 -0.543156 -0.0224081 0.859456
112 -2.9513 -4.2379 -8.80005 -1.67247 -0.207869 -0.886783
135 -3.82332 -3.51697 -8.529 -0.444536 0.641651 -0.345872
3428 -3.53973 -4.41938 -7.83545 -0.484636 0.0897423 1.01302
1289 -2.7643 -3.39646 -7.90895 -1.17563 -1.11187 -1.09734
401 -2.16202 -3.38095 -8.7021 0.262823 -1.1863 1.06743
668 -2.14819 -4.28018 -7.88277 0.186665 -0.498983 -0.726714
403 -1.475 -3.3839 -7.79938 -1.01071 1.09168 0.531437
379 -1.36753 -4.17299 -8.46379 0.0761991 0.383901 0.485336
381 -0.426026 -3.94928 -7.78783 -1.21699 0.454729 -0.668927
405 -0.677424 -3.30693 -8.52266 -0.929668 -0.100235 0.304555
392 -9.86229 -2.77562 -7.67802 -1.20538 0.682843 -1.16354
391 -8.74074 -2.50085 -8.58772 0.126601 0.700822 -0.881684
413 -9.76668 -2.10602 -8.58499 0.844858 -0.194712 1.36977
725 -8.89955 -1.96541 -7.6662 0.342142 -0.578617 0.223875
678 -8.12346 -2.86814 -7.62612 -0.408888 1.3762 1.22788
415 -7.88613 -1.89795 -8.31665 -0.301015 0.443019 -0.269825
420 -7.31102 -2.02256 -7.46513 0.347309 1.02705 0.69669
658 -7.28286 -2.78213 -8.29957 1.31005 -0.298124 0.850117
369 -6.35725 -2.74856 -7.63227 1.18484 -0.676074 -1.14208
443 -6.57452 -1.90421 -8.22528 -0.682191 0.810051 1.09908
396 -5.49095 -2.8886 -8.12521 1.46727 -0.338533 -0.752394
733 -4.67748 -1.96799 -8.00118 -1.12041 0.121137 0.311699
136 -3.85947 -1.83569 -8.66702 0.884499 0.384057 1.27011
712 -3.87133 -2.59082 -7.89163 0.279206 1.03096 1.58085
713 -3.12542 -1.787 -7.87693 -0.459783 -0.364918 -0.152564
398 -2.89519 -2.52075 -8.6829 -0.827926 -0.665173 0.104681
425 -2.2847 -1.66799 -8.71175 1.08044 -0.107098 -0.268523
404 -2.13516 -2.4778 -7.87519 0.170867 0.644718 0.596846
427 -1.59448 -1.56319 -7.77479 0.345348 -0.165911 -0.969354
402 -1.44916 -2.48388 -8.60933 -0.814325 -0.546053 -0.112791
408 -0.728688 -2.51229 -7.55402 -0.311112 -0.894744 -0.348859
429 -0.690282 -1.86229 -8.32526 -0.115452 1.2661 0.111176
416 -9.87852 -1.024 -7.45317 0.626937 -0.449316 0.949433
437 -9.73256 -0.3588 -8.27264 1.27091 -0.00615926 0.593817
440 -8.90065 -0.490328 -7.5647 0.365912 0.680721 0.184204
439 -9.02976 -1.27668 -8.44523 -0.592998 0.902701 0.0476001
1451 -7.27688 -9.54778 -0.254378 -1.20913 -0.589427 -0.577321
726 -8.08114 -1.17317 -7.60553 -0.0614223 -1.21189 0.485066
468 -8.09011 -0.471095 -8.48133 -1.02466 -0.425753 -0.146346
753 -7.25932 -1.00848 -8.24115 0.653965 0.14552 0.155352
1018 -6.25509 -1.0736 -7.42791 -0.526824 0.0430198 0.448286
734 -5.27061 -0.956108 -7.99478 1.4477 1.12269 0.683052
472 -5.36958 0.00567988 -8.52327 0.727058 -0.191592 -0.0264695
422 -3.21947 -0.909538 -8.71541 -0.205623 -0.828399 0.249469
423 -4.06761 -1.07684 -7.86061 -0.557953 0.529147 0.392246
158 -3.32619 -0.0395966 -7.86868 0.575196 0.867168 -0.593836
428 -2.4633 -0.706703 -7.705 0.0999489 0.386889 -1.11779
451 -1.60976 -0.113575 -7.73942 -0.209196 0.326624 -1.16857
426 -1.43536 -0.901056 -8.55654 -0.378513 -0.818879 0.637679
432 -0.767351 -0.754748 -7.74983 0.138462 1.16576 -0.324376
434 -10.0742 0.69507 -8.19798 0.270089 1.17942 -0.728609
438 -8.97815 0.504936 -8.19164 0.54961 0.787371 0.625644
466 -8.03828 0.39922 -7.5201 1.00299 0.324169 1.46705
1355 -7.25817 1.5391 -7.58877 0.470556 1.21768 1.48149
180 -8.16482 1.2679 -8.23197 -1.04846 0.0980919 -0.614608
203 -7.1714 0.604224 -8.23825 -0.0767814 1.00883 0.343898
1042 -6.36774 -0.191372 -8.27092 1.04624 0.144264 0.0367537
463 -6.06301 0.79206 -8.51914 -0.00427716 0.0121319 0.50594
470 -5.24057 0.945589 -9.23005 0.712555 0.337794 -0.881685
1333 -4.55313 0.711906 -8.2228 0.556492 0.115318 0.362115
1321 -5.31572 0.924141 -7.61085 -0.642552 0.930302 -0.578518
164 -3.34124 0.939588 -8.50733 0.949422 0.571611 0.731139
183 -3.72949 1.09537 -7.57082 0.0704624 -0.922328 1.2533
449 -2.52046 0.204776 -8.45009 -0.781368 0.634312 0.178306
473 -2.30536 0.801158 -7.6906 -0.392214 0.412265 -0.729272
185 -1.57454 0.768555 -8.64226 1.64081 -0.508837 -0.049561
187 -2.25828 1.69704 -8.54097 0.391424 0.880094 -0.663236
453 -0.703114 -0.0568062 -8.516 0.51146 0.989909 0.613409
477 -0.861348 0.678606 -7.607 -0.642608 1.04551 -0.743351
843 -9.96252 8.6535 -6.02464 -0.502446 -1.42109 -1.52342
199 -9.12751 2.50184 -8.16976 1.28368 0.203312 -1.17449
461 -9.36597 1.53795 -7.91643 1.04397 -0.383992 0.212503
540 -8.25916 2.13462 -7.53055 0.269567 0.37449 -0.611133
232 -7.97416 2.26684 -8.60945 -0.436831 0.529225 -1.12689
1072 -6.17085 2.6352 -8.49271 0.22817 0.374282 -0.527581
204 -6.07202 1.65072 -7.56095 -0.258525 0.00207884 -0.717955
205 -7.03421 2.44657 -7.93369 -0.435009 0.742815 -1.18735
1357 -6.5291 3.50017 -7.97274 0.330361 0.0494432 -1.34466
207 -5.23919 2.59963 -7.85484 1.52226 -0.271653 0.160484
545 -5.34671 1.69056 -8.46749 -0.17851 -0.956632 -0.329195
471 -4.72184 1.73704 -7.41189 -0.133972 0.342844 0.161676
519 -3.15366 1.87009 -8.00573 1.12206 -1.50008 -0.605702
236 -2.58299 2.76708 -8.33786 -1.06825 1.07074 0.688286
476 -1.59972 1.59602 -7.74452 -1.27127 -0.262158 0.210329
211 -1.48858 2.56521 -8.7696 -0.238201 -0.0827632 1.89104
499 -1.75255 2.81662 -7.70913 -0.474081 1.24501 -0.12603
1878 -9.89126 -0.802177 -1.72035 0.934663 0.992124 -1.26486
474 -0.945985 1.64006 -8.66725 0.891365 0.422075 -0.0117941
480 -0.784421 2.40694 -7.7959 0.196812 -0.768726 1.1507
483 -9.43119 3.62112 -8.24028 1.21491 -0.969096 -0.24299
1271 -0.199701 -4.36694 -3.55933 -0.157127 0.806244 1.28034
1374 -8.70609 4.35844 -7.78694 -0.831251 0.383663 0.232329
1385 -7.5809 3.43508 -7.72341 -0.669274 -0.455483 1.11188
770 -7.30323 2.98678 -8.95235 -0.79279 -0.750288 -0.90641
1653 -5.7093 4.06499 -7.31867 -0.257174 -0.909592 0.498903
3373 -4.68949 3.48638 -7.43718 1.54817 -1.24089 1.21826
2507 -4.20932 3.47934 -8.53918 0.0642288 -0.604325 0.692345
1619 -4.07392 2.72745 -7.78226 -0.00471251 -1.62396 0.62469
786 -3.694 4.21217 -7.31549 0.202533 0.539411 -0.484912
2174 -2.853 3.69985 -7.87194 -0.255426 0.582038 -0.443097
1069 -3.33001 4.49673 -8.47385 0.0319351 -0.307914 -0.98587
788 -1.54479 3.76005 -8.39537 0.629116 0.488671 0.916036
497 -0.719864 3.2661 -8.54438 -0.904456 -0.521448 1.33272
502 -0.893974 4.023 -7.56523 1.22408 -0.00512483 -1.00878
3257 -6.28653 -6.58445 -9.94161 0.221309 -0.235781 0.433159
3083 -3.29341 7.56676 -10.0056 -0.136954 -0.517354 -0.743144
2413 -7.01771 -7.39836 -10.044 -0.400683 -0.918514 0.391997
719 -0.110024 -1.56969 -6.08987 0.0124731 -1.09004 0.6602
1610 -9.43909 5.1324 -8.02373 0.892076 0.828487 0.476268
3393 -8.4334 5.50884 -7.64088 0.601431 0.450781 -1.73685
222 -8.95298 5.91869 -8.44675 -0.597574 1.03828 -0.273518
249 -4.41088 3.84513 -6.19311 1.11753 -0.549183 1.48282
3397 -2.75459 5.44676 -8.34336 1.24795 -0.1869 1.5131
547 -2.80876 4.79379 -7.4316 0.00596759 0.650604 -0.0161125
525 -2.33873 4.41376 -8.43328 -0.0980791 0.0322711 -0.684822
521 -1.82931 5.75352 -8.6301 0.234659 0.759541 -0.728151
805 -1.77943 5.05726 -7.73248 -0.251712 0.375424 -0.729531
760 -2.42144 5.94015 -7.50096 -0.827333 -1.36062 0.24853
239 -0.870704 4.91941 -8.28106 1.07474 1.23181 -0.478875
240 -0.941711 5.82874 -7.81388 0.629917 -0.0792087 1.15568
509 -10.177 6.72482 -8.52672 0.202733 0.290181 -0.0734699
798 -9.53536 6.05928 -7.53177 -0.397227 -0.641172 0.663175
3109 -7.69716 7.19725 -7.75606 0.311242 0.417462 0.719716
3377 -2.98586 6.76079 -8.37117 -0.0764526 -0.123209 0.982154
549 -1.64435 6.81466 -7.7422 0.558554 -0.148299 -0.797916
285 -0.67212 6.72141 -8.5144 -0.867348 0.135544 -1.08705
766 -0.105567 2.50672 -6.92588 -0.283689 -1.2581 1.57921
3395 -8.7664 7.0851 -7.80312 1.75063 -0.666991 0.484341
276 -8.98846 8.20003 -8.9248 1.35348 -0.55909 0.87261
557 -9.87445 8.2872 -8.52486 0.137085 0.495372 -0.305921
536 -9.86151 7.64127 -7.653 0.690792 0.917362 0.488468
559 -8.94901 8.28329 -7.75225 -0.0559206 -0.157982 -0.770918
533 -7.97414 8.16905 -7.95638 0.228374 -0.393172 -0.576951
548 -1.36511 7.48531 -8.75608 0.574161 0.916264 -1.25796
573 -2.4817 7.85349 -8.48693 0.641675 -0.0679008 -0.346641
264 -1.64088 8.46284 -8.21955 -0.286893 -1.18097 1.08324
552 -0.8004 7.38 -7.66354 0.100906 0.253531 -0.994534
1947 -7.31106 5.54035 -1.12501 0.877817 0.256596 -1.03838
538 -8.48035 8.95367 -8.52262 -0.492293 0.00182941 -0.554542
293 -9.88245 10.0855 -8.5146 -0.298606 0.538349 -0.409985
560 -9.44014 9.08857 -8.04877 -0.170792 0.32906 0.172212
295 -8.84226 10.0044 -8.17679 -0.274761 0.146043 0.686964
3201 -7.69096 9.95409 -8.19337 -0.100151 -0.287708 1.52824
558 -7.85162 9.09453 -7.53369 -0.46206 0.267672 -1.97664
297 -6.31233 -9.76632 -7.78655 0.456765 0.72246 0.351701
534 -6.65156 9.60361 -7.9456 1.2853 0.855078 -0.47961
860 -4.63745 9.88488 -7.25964 -0.0689168 0.186416 0.389665
565 -5.52765 9.87742 -8.07678 0.136961 -0.755108 0.149064
258 -3.36387 9.59529 -9.13991 -0.206258 0.179542 -0.796277
3187 -3.17735 -10.1825 -8.02915 0.602735 0.202519 0.329936
307 -2.47682 10.1762 -9.04894 -0.92557 -0.12933 -0.646009
568 -2.60875 9.06001 -8.65256 0.488385 -0.0943609 -0.758474
309 -1.7762 10.1245 -8.3032 0.629537 0.360182 0.653226
310 -0.417405 10.0342 -8.48905 0.539424 -0.429725 -1.2005
576 -0.76036 9.15144 -7.85186 0.260164 -0.823097 0.807761
581 -9.77389 9.91966 -7.45481 1.03128 0.474159 1.75947
584 -9.9302 -9.54912 -6.03106 -0.769112 1.85687 -0.438889
582 -9.25631 -9.56953 -6.9949 -1.55386 0.622377 -0.300158
588 -8.24626 -9.45883 -6.06055 -0.22079 -0.328051 -0.526247
852 -8.04334 10.1753 -6.98343 0.231924 -1.00373 -0.53142
609 -8.23386 -9.30258 -7.14246 -0.0244857 0.195861 0.0863881
611 -7.28053 -8.61146 -6.12296 -1.12456 0.867344 -1.21232
562 -7.21713 -9.55916 -6.43296 0.0501847 -0.425549 0.168979
12 -6.04057 -9.96437 -6.81222 -1.13516 -0.72805 0.707878
278 -6.04642 -9.04336 -5.95846 -1.96085 1.25796 -0.999897
850 -6.40199 -10.0696 -5.6284 0.502792 -0.345186 1.25062
544 -5.01915 -9.65301 -6.53533 0.296881 1.00994 -0.967692
617 -4.02303 -9.78299 -7.19177 0.831567 -0.307845 -1.17017
596 -2.29355 -9.49913 -6.35211 0.806597 -1.12348 1.22628
621 -1.45239 -9.51942 -6.90085 0.382801 -0.490031 -0.752549
600 -0.688733 -9.66294 -6.10455 0.21436 -0.189935 -0.0108785
619 -1.39964 -8.80624 -6.03833 -0.0119969 -1.98526 -0.0659348
622 -0.545013 -8.82304 -7.10607 -1.69566 0.558168 -0.407225
605 -9.70667 -8.63903 -7.13027 -0.890605 -0.392392 -0.935054
608 -9.70828 -7.85285 -6.34202 0.421703 -0.209632 0.846264
606 -8.98728 -7.79815 -7.1154 0.806341 1.40321 0.252617
607 -9.02533 -8.80613 -6.1707 -0.455176 0.303775 0.216953
612 -8.1637 -7.97934 -6.02377 -1.44337 1.12818 -0.957431
347 -7.18883 -7.66502 -6.9644 1.26737 0.585012 0.546655
3184 -6.17931 -7.98726 -7.16721 0.0170103 -0.508503 0.368837
587 -6.55734 -7.7396 -6.0113 0.0284767 -1.20006 1.12234
592 -5.53254 -7.88213 -6.348 0.608981 -0.35217 1.2455
541 -5.33604 -8.73584 -6.9025 -0.0537248 -1.78589 0.369895
856 -4.27758 -8.79087 -6.65997 0.200814 0.355228 0.298672
1086 -3.93458 -7.56307 -6.4595 -0.520819 0.0325531 -1.26831
61 -3.21078 -8.95656 -6.35699 1.32545 -2.13146 1.57337
355 -2.1174 -8.68682 -7.23212 -1.6036 -1.40955 0.398992
929 -2.31605 -8.05928 -6.22917 1.03349 0.26571 0.581198
569 -1.96075 -7.69567 -7.35726 0.967777 -0.54938 -0.0865743
331 -1.00457 -7.11505 -7.6095 0.933282 -0.4813 -0.0691591
624 -1.1264 -7.91437 -6.60389 -0.513528 0.30508 -0.686024
643 -0.201308 -7.68539 -7.26818 0.340595 -0.616592 0.658377
629 -9.65095 -6.9496 -7.23019 0.0313308 -0.3924 0.188767
632 -9.75841 -5.94398 -6.29035 0.297411 0.539895 -0.534058
631 -8.94716 -7.11052 -6.29861 -0.428194 -0.740431 -0.130881
630 -8.8889 -6.09149 -7.14974 0.630725 -1.62687 1.21218
634 -8.14152 -7.03915 -7.03067 -0.267703 0.559074 -0.384168
636 -8.10149 -6.12237 -6.29776 -0.309055 0.184213 -0.689118
610 -7.44154 -6.98362 -5.97835 0.279116 0.38322 1.20068
971 -7.10936 -6.41151 -6.85738 -1.42329 -0.482928 0.231084
324 -6.38188 -6.12288 -7.56541 -0.879664 -0.556822 -1.16013
665 -6.21348 -6.9251 -6.82661 2.3729 0.054108 0.113967
659 -6.49689 -6.27524 -5.94967 -0.627769 -0.854208 -2.30092
563 -5.44989 -6.13824 -6.62828 -0.863432 -0.615101 0.415171
685 -4.72469 -6.9402 -6.57198 1.27818 0.450572 0.0227807
349 -3.75121 -6.48781 -6.52901 -0.464334 0.839087 -0.501804
637 -2.90117 -7.24795 -6.54456 -0.584006 -0.335881 0.455658
953 -2.10452 -5.98293 -6.19336 -0.614984 0.103434 -0.651432
955 -1.36716 -6.84536 -5.96529 -0.0728031 -0.160694 0.16119
4369 -0.37052 -7.19412 -6.35967 0.295623 1.02656 -0.441744
647 -0.866897 -6.18002 -6.70463 1.46126 0.842325 0.768955
653 -9.74557 -5.202 -7.05036 0.879156 -0.230109 0.270608
655 -8.9279 -5.31582 -6.27072 -0.194626 -0.897873 -0.41871
654 -9.02128 -4.45191 -7.04001 0.40088 0.233865 -0.785366
656 -9.72745 -4.48391 -6.27223 -0.630123 0.790114 0.198838