ITEM: TIMESTEP
114000
ITEM: NUMBER OF ATOMS
6912
ITEM: BOX BOUNDS pp pp pp
-1.0259855680060181e+01 1.0259855680060181e+01
-1.0259855680060181e+01 1.0259855680060181e+01
-1.0259855680060181e+01 1.0259855680060181e+01
ITEM: ATOMS id x y z vx vy vz
8 -9.50753 -9.38373 -9.54873 1.73198 1.74234 -0.200699
11 -8.15293 -9.62343 -9.29706 0.282107 -0.716579 -0.452669
277 -7.35881 -9.68154 -10.0897 0.5017 -0.662 0.133959
3180 -7.31008 10.1907 -9.24326 0.387097 1.66942 -0.216294
17 -1.28823 8.90468 -10.2531 2.34489 -0.186091 -0.50797
281 -2.98641 -9.13297 -9.52311 0.068275 0.97161 -0.0541243
20 -1.93911 -9.60066 -9.51952 1.65717 0.334242 -0.570266
43 -0.834206 -9.64862 -9.79456 -1.2262 -0.104394 -0.51883
32 -9.52153 -7.7156 -9.39508 -0.21303 -0.560508 0.905281
31 -8.87542 -8.53097 -9.21375 0.36478 0.220713 1.03759
2462 -2.1151 6.60084 -10.2545 -1.35503 0.094927 -0.428616
278 -8.16161 -7.7138 -9.37011 0.123093 -0.485788 0.0589236
125 -9.73784 -1.90098 -10.2078 -0.216669 -0.357949 -1.23899
274 -6.37574 -6.85891 -10.1713 0.456549 0.402537 -0.615124
336 -1.45514 -7.73014 -9.03515 0.322854 0.890924 1.32501
41 -2.46325 -7.70526 -10.1242 0.0335928 -1.10531 0.0865196
44 -1.69318 -8.61526 -9.93108 0.347072 -0.366572 0.614983
357 -0.777974 -7.86584 -9.8954 -0.414612 0.937085 -1.08559
330 -0.798219 -8.62419 -9.05013 0.37747 0.308854 0.710083
29 -9.62968 -8.55416 -10.2621 -0.849146 0.702902 -0.0879898
843 -10.2059 8.60141 -5.83472 0.418551 0.759653 -0.413213
56 -9.64138 -6.18107 -9.45371 0.791802 -0.368561 -1.16667
30 -8.90615 -6.90245 -9.44284 0.81243 0.279061 1.11489
36 -7.88985 -5.77433 -9.48766 0.488005 -0.134701 0.560856
54 -8.79758 -6.12933 -10.0779 0.0360863 -0.30216 -0.249786
37 -1.55364 -6.10876 -9.06212 0.993418 1.18257 -0.426696
3452 -2.35036 -6.11443 -9.77562 -0.870969 -0.297706 -0.524046
61 -2.54837 -7.29458 -9.06289 0.561195 -0.52031 0.563874
66 -1.71426 -6.94063 -9.97848 0.174892 0.549093 -0.137085
638 -0.657599 -6.78148 -8.92774 -0.135303 -0.317208 -0.0217764
575 -0.0262519 8.41435 -7.52459 0.756186 0.34799 -0.729723
633 -9.13475 -5.26391 -9.46989 -0.0407968 -0.351443 -1.07118
372 -7.97939 -4.45208 -9.22996 0.229334 -0.354525 0.268304
435 -10.1125 -0.00716336 -7.45819 0.510967 1.81625 0.324511
81 -7.15793 -5.08211 -9.37562 0.471506 0.227004 0.309826
3010 -6.10939 -5.26847 -10.0274 0.0401754 -0.180827 -0.173663
350 -4.5878 -4.74131 -8.95248 -0.992993 -0.752505 -0.0600022
3277 -5.59002 -4.41046 -8.68792 0.276028 0.0796264 0.785343
1950 -7.39225 7.84508 -0.130994 -0.37521 -0.115918 0.297031
3428 -3.38742 -4.35543 -9.48022 -0.952476 0.330114 0.572461
2482 -2.6109 -6.14917 -8.61066 -1.2559 0.988627 0.342478
93 -1.55093 -5.3216 -9.85063 -0.23695 -0.0914136 -0.43732
72 -0.660796 -6.07679 -9.71746 -0.325606 -0.188468 0.252146
3529 -0.026033 -5.1108 -9.66003 -0.10053 -0.46261 -0.875464
80 -9.7659 -4.37505 -9.49434 0.171764 0.399537 0.126729
78 -8.95045 -4.35163 -10.0811 1.04569 -0.124173 1.41445
103 -9.05711 -3.50215 -9.35059 0.659922 0.40055 0.691662
105 -8.18583 -3.56554 -9.99481 0.0748957 -0.396938 -0.981555
370 -7.13995 -4.11223 -10.1898 -1.02456 -0.453812 -1.34496
107 -7.42083 -3.48794 -9.18401 0.0744392 -0.642164 0.601689
395 -6.19013 -3.53608 -10.0335 0.156314 -0.011125 1.01709
2989 -6.46967 -4.17079 -9.25439 -0.263386 -0.557451 0.951873
3250 -5.51548 -4.2622 -9.94568 -0.430539 1.34353 0.676514
684 -5.3964 -3.38539 -9.19574 1.19826 1.51734 -0.797851
133 -4.47978 -3.87077 -9.91096 -0.338903 -0.508768 -0.693863
135 -3.47033 -3.58861 -8.70242 0.293928 0.257985 -0.780798
1558 -0.179168 -3.61713 -2.78069 0.0665122 -0.0742287 -0.251068
375 -2.77161 -3.40746 -9.60828 -0.974802 -0.552077 0.600598
378 -2.25097 -4.29197 -9.63635 0.816162 -1.13659 -0.969087
1687 -7.43002 9.43533 -0.000950467 0.553464 0.301611 0.498598
96 -1.05617 -4.40974 -9.63754 0.419693 0.434812 -0.323522
115 -1.35348 -3.4622 -9.32449 0.00600683 0.617365 0.0551541
119 -0.164424 -3.61288 -9.68279 0.280112 -0.303096 0.477314
104 -9.73562 -2.66925 -9.39114 0.381731 0.810395 0.503519
414 -8.99499 -2.00929 -9.33259 -0.67657 -0.963668 0.0959573
127 -8.84581 -2.71297 -10.0845 0.487902 0.715729 0.854227
393 -8.08967 -2.67344 -9.16026 -0.458401 -1.47358 -0.361629
126 -8.05429 -1.86191 -9.95736 -0.283277 -0.201653 1.46873
441 -7.25225 -2.04417 -9.16872 0.484056 -0.674523 0.215433
390 -7.27266 -2.89833 -10.1136 -0.309652 0.598395 -0.435435
417 -6.4705 -2.91469 -9.21356 0.799233 -0.0122647 -0.0882906
129 -6.60851 -1.94539 -9.95192 -0.110026 1.43076 0.780835
397 -5.46391 -2.58066 -9.9102 0.953603 -1.67367 0.12474
418 -4.65709 -2.09199 -9.55918 0.406179 -1.0499 0.854208
442 -5.69486 -1.96784 -8.96325 -0.284856 -0.111481 0.986061
445 -4.37964 -3.02919 -9.00367 0.862863 -1.96394 -0.917886
3303 -3.56315 -2.66375 -9.57574 0.84125 -0.974049 -0.169495
422 -2.95133 -1.8006 -9.49247 -0.275921 0.385902 0.0217032
116 -2.15472 -2.49584 -9.45278 -0.0155089 0.554063 -0.936856
1007 -0.106029 -1.79423 -4.23341 1.45092 0.339995 -0.0327691
797 -9.96214 3.2639 -5.42735 -1.06798 -0.631505 0.673691
141 -0.464264 -1.64047 -10.0389 0.81425 0.619516 -0.577062
120 -0.568226 -2.50665 -9.29918 -0.621598 -0.41006 -0.933827
139 -1.36603 -1.69312 -9.30171 -0.0150283 -1.00164 -0.680728
114 -1.19164 -2.38473 -10.0419 1.47427 0.127179 -0.893903
128 -9.8206 -1.15735 -9.389 0.331839 1.64784 0.907969
146 -9.91044 -0.224229 -9.99707 -0.0585533 2.11769 -0.762996
150 -9.11311 -0.310972 -9.17118 0.316119 -0.663239 -1.05849
149 -8.91656 -1.07869 -9.9666 0.34015 -0.294633 0.177651
151 -8.23753 -1.10647 -9.09005 0.772994 0.518039 0.218205
3324 -8.1398 -0.151812 -9.98 -0.305734 1.34623 0.318555
465 -7.44703 -0.332177 -9.0717 0.124571 0.0200194 0.328311
3297 -7.45818 -1.01369 -9.87287 -0.5152 1.01692 0.190106
132 -6.54527 -1.2657 -9.0418 -0.0685434 0.0674664 0.0800689
1055 -0.054554 1.56225 -4.18655 -1.08709 -0.69227 0.102202
130 -5.73464 -1.24117 -9.73882 -0.192674 -1.23015 0.318869
184 -4.72938 -0.208168 -9.63255 0.478394 -1.63985 -0.576566
160 -3.7893 -1.11666 -9.57336 -0.95434 -0.454172 0.813631
1681 -10.2356 7.6079 -1.38244 -0.0790112 0.243315 -0.885907
140 -2.10944 -0.911855 -9.37371 -0.49936 0.135169 -0.22917
159 -2.98381 0.0259815 -9.5117 0.248713 -0.676196 0.339275
1841 -3.75419 -3.52936 -0.094434 1.89787 0.142561 0.0234511
1480 -4.49388 -7.57924 -0.104101 1.42622 0.90831 1.11211
138 -1.23712 -0.821646 -10.1933 0.174874 0.220028 -0.233738
144 -0.555788 -0.835775 -9.17528 -0.125401 -2.37819 -0.40555
165 -0.557213 -0.0244736 -10.1149 -0.229682 -1.24374 1.05239
163 -1.364 -0.0653298 -9.32058 0.639831 0.61265 0.683322
152 -9.91356 0.442321 -9.07639 0.558177 1.42798 -1.0872
3343 -8.98226 0.440479 -9.98578 -0.45795 -0.383623 -0.973257
173 -9.82222 1.37424 -9.87411 0.896962 -0.0747843 0.223244
175 -9.08134 1.18498 -9.03371 1.08723 -0.0384576 1.62376
156 -8.2106 0.463045 -9.08166 -0.766895 0.297969 1.10353
177 -7.39073 0.556489 -9.80521 0.502003 -0.271376 1.19607
814 -0.120842 5.80418 -6.63925 0.362675 0.706548 -0.32876
3328 -5.78068 0.454728 -9.79074 0.289389 1.72013 -0.924641
231 -4.75692 1.14806 -9.54731 -1.12974 1.28416 -2.42534
515 -5.68391 1.34075 -8.84441 -0.661674 -0.17429 1.17826
3371 -3.76184 0.819586 -9.31055 -1.08106 -0.213349 0.275225
1342 -0.167975 2.50923 -3.38383 0.0551946 0.0463637 1.11823
1534 -0.0709814 -4.3338 -1.98035 -0.205408 -0.334785 -0.355161
164 -2.20031 0.812219 -9.38338 -0.492272 0.367704 0.00368126
189 -1.22476 0.813478 -10.0679 -0.293515 0.66477 -0.703563
168 -0.47962 0.843915 -9.145 0.60341 -0.957405 1.19304
3351 -3.84746 -0.196997 -10.2101 1.2721 0.392842 -0.358567
223 -9.0368 2.23091 -9.84227 0.441789 -0.762035 -0.302049
176 -9.42485 2.38708 -8.6496 -0.669228 0.722617 -0.466462
3367 -7.69763 2.30238 -9.59347 0.995978 0.0354315 -0.347208
513 -8.39761 2.00444 -8.96208 1.17793 1.48469 0.393871
1103 -0.135659 5.23233 -4.20441 0.448905 -0.503882 0.288954
801 -6.47687 1.17659 -9.59607 0.481513 0.441733 -0.11125
3376 -6.63872 2.12469 -9.01588 -0.120449 -0.253166 -0.384153
3347 -5.68344 1.81827 -9.81636 0.0665632 0.675761 -0.211894
1070 -4.71987 2.24986 -9.84394 -0.467891 -0.603084 -1.48956
1954 -6.59388 8.6044 -0.0624607 -0.0435898 -0.913116 0.281652
206 -3.13425 1.6189 -9.31021 1.05645 -0.903108 0.290052
2468 -3.05751 2.53379 -9.97722 -1.62693 -1.77874 0.657321
3374 -2.33865 2.50012 -9.13385 0.0616473 -0.0170307 0.532966
3332 -2.17707 1.85322 -10.0742 0.293758 -0.648002 0.000390582
213 -1.32214 2.46181 -10.0699 -0.265954 0.450548 -0.434027
187 -1.47296 1.69901 -9.35367 -1.12426 0.393717 0.965003
192 -0.467601 1.53438 -9.91424 -0.00317222 1.46135 -0.477658
215 -0.46318 2.42601 -9.05906 0.480345 0.0626862 0.476169
1660 -10.21 6.89569 -0.469628 -0.48593 -0.389071 -0.294697
225 -9.36025 3.35797 -9.53788 -0.867416 0.20522 0.264765
200 -9.01347 4.30162 -10.0799 0.401732 0.900393 -0.448636
228 -9.24032 4.37855 -9.00431 0.781003 -0.0600129 -0.0718743
3082 -8.41233 3.35573 -9.9009 -0.0207675 -0.0814301 0.246763
2460 -8.46534 3.05387 -8.80284 0.600037 -0.466683 0.53665
233 -3.15523 3.62843 -9.99779 -0.478641 0.499621 0.146467
3373 -3.76999 2.49646 -9.17694 0.110156 -1.24808 1.17592
491 -3.02783 3.26705 -8.98538 1.08151 0.315001 -0.977271
212 -2.10577 3.21499 -10.0073 0.0135227 -0.636166 -0.208094
209 -1.41939 3.0845 -9.18849 -0.394713 -0.649272 -0.856818
3404 -2.264 4.00039 -9.04319 -0.280977 -0.594468 -1.32843
3384 -0.500532 3.24013 -9.87762 0.587487 0.683158 1.4373
498 -0.645484 4.1244 -9.22817 -0.951997 -0.0504975 -0.235374
3399 -1.39952 4.19545 -10.1886 0.236902 -0.0596477 -0.258857
221 -9.87081 5.28123 -9.91735 0.659723 -1.88238 -0.861492
506 -8.8282 5.50946 -9.02395 0.931655 1.17102 0.344387
1439 -0.151424 8.62779 -2.81021 -0.366588 -0.505586 0.425617
3400 -2.80122 4.73744 -9.60064 -0.310929 0.196104 0.112901
525 -1.35912 4.93656 -9.29973 -0.0362089 -0.541967 -0.734488
3403 -0.505097 4.91652 -9.99712 -0.182005 -0.438487 -0.230883
222 -8.86087 5.95321 -10.0744 0.513576 0.518542 -1.19788
224 -9.77042 6.148 -9.18245 -0.0108551 0.104744 0.846831
247 -9.01339 6.90633 -9.23439 1.20212 -0.80001 -0.350693
245 -9.64864 6.96304 -10.2091 0.534654 0.257072 -0.77197
3395 -8.00973 6.07569 -9.43286 0.336646 -1.11418 1.23602
249 -8.20946 6.94565 -10.0779 -1.10184 -0.420182 -1.27765
2464 -2.23447 5.71498 -9.50244 0.750256 -1.51127 -0.981171
3144 -1.28115 5.81933 -10.1388 -0.175851 -0.127878 -0.164489
261 -0.7726 5.74634 -9.22219 -0.508499 -1.10723 -0.742334
3405 -0.468642 6.73923 -9.97959 0.121896 0.127383 -0.101208
2507 -1.33074 6.74659 -9.3166 -0.585658 0.418005 -1.73771
248 -9.66609 7.75232 -9.26179 0.529216 0.148563 -0.287626
271 -8.99596 8.54127 -9.22741 -0.0546994 0.267372 0.379013
246 -9.01028 7.69851 -10.1511 0.127123 -0.997845 -1.67321
252 -8.22016 7.70711 -9.25148 -0.0620083 -0.383425 -0.628272
561 -7.47117 7.67996 -10.0368 1.08675 -0.553761 0.861175
273 -8.29991 8.55295 -10.1243 -0.384762 0.0497159 -0.029082
2492 -2.13137 7.49554 -9.42538 -0.578265 0.468948 0.180532
570 -1.33309 8.35053 -9.33925 0.411913 -0.0574 -0.771039
2179 -0.793456 0.0462184 -0.101472 0.387769 -0.412856 0.997335
3455 -0.555407 7.56467 -9.29498 -0.390301 0.404967 0.293495
282 -0.42439 8.21748 -10.1823 -0.905596 -0.643646 0.767598
509 -10.1165 5.77081 -8.01299 0.680835 0.144686 -1.22928
270 -9.14193 9.31205 -10.1682 -0.0863864 -1.00776 -0.362519
272 -9.79112 9.33941 -9.36791 0.196274 0.126421 -0.271105
7 -8.91132 10.257 -9.35209 -0.698964 -0.353465 1.00272
276 -8.15656 9.44393 -9.16256 0.252387 2.33365 0.888511
9 -8.18929 10.1757 -10.0803 -1.12511 -1.38063 -0.584775
743 -0.156059 -0.0572318 -5.84184 0.471696 -0.507193 0.434298
490 -8.45273 1.34828 -9.99154 -0.421931 0.539974 -1.16289
258 -2.06239 9.27219 -9.56347 0.462683 -1.05685 1.01681
24 -0.105565 10.1297 -9.65054 0.297578 -0.148596 -0.325989
334 -0.140758 -7.74954 -8.84341 -0.462597 -0.410481 -0.310619
305 -1.20907 9.98603 -9.377 -0.237191 1.18453 -0.778491
23 -0.552237 9.17314 -9.30519 -0.262275 0.831638 0.338014
296 -9.77843 -9.44837 -7.81966 0.163584 0.613564 -0.763918
293 -9.8199 -10.1119 -8.6209 -0.0848815 -0.839189 -0.395616
294 -9.0147 -9.45308 -8.56779 -0.8303 1.33848 0.939796
300 -8.24702 -9.43455 -7.67187 0.584653 -0.262509 -0.709664
321 -7.20271 -8.94565 -9.02523 1.20622 0.0957583 -0.590787
854 -2.96635 9.99217 -7.76509 0.0472255 0.837815 0.90094
617 -2.17903 -9.50256 -7.87964 -0.0691588 0.514551 0.194177
326 -2.17111 -8.79378 -8.8455 0.483713 0.588627 -0.438629
3188 -3.04244 -8.67031 -7.97786 0.0436282 0.757333 0.374404
333 -0.0992035 -9.63363 -8.91024 0.590538 0.573741 0.953161
306 -1.23334 -9.61433 -8.69741 0.688774 0.236052 -0.658687
312 -0.56033 -9.54036 -7.86637 0.316505 -1.18815 -0.74496
317 -9.6504 -8.49122 -8.42499 0.685234 0.264947 -0.636303
320 -9.64668 -7.5985 -7.93021 0.217106 0.0590207 -0.29424
319 -8.84127 -8.47848 -7.81549 0.950072 0.394515 0.789345
318 -8.79256 -7.69483 -8.54148 -0.346086 -0.548957 -0.586276
322 -8.11267 -7.73529 -7.51996 -1.65284 0.2369 1.18161
3204 -8.04356 -8.63409 -8.66773 -0.768336 0.413357 0.416201
299 -7.3349 -8.58355 -7.68666 -0.343178 -0.276642 0.425979
327 -1.9845 -7.83303 -7.69026 -0.393821 -0.474022 0.265475
641 -1.38853 -8.8256 -7.71463 -0.173353 -1.58967 -0.488445
331 -0.932002 -7.85157 -8.06756 0.0321969 -0.0823584 1.14112
335 -0.148585 -8.60785 -8.17036 0.61003 -0.370511 0.0661547
341 -9.53829 -6.81247 -8.59049 0.666368 -0.481454 0.570618
344 -9.74055 -6.05783 -7.78571 -0.164536 0.946683 0.292336
343 -8.78927 -6.8578 -7.77899 0.461535 0.604066 -0.706832
342 -8.78055 -5.96531 -8.75725 1.22665 0.606185 -1.40822
40 -8.06513 -6.82634 -8.75736 -0.197722 -0.412316 -0.654727
324 -8.09747 -6.08364 -7.54804 -0.779089 -0.204367 -0.814055
92 -2.61219 -6.99545 -7.9419 0.176775 -0.142892 -1.31868
645 -1.48816 -6.98562 -8.26427 -0.722632 0.833708 -1.28047
424 -1.93161 -5.96007 -7.87525 0.0554673 -1.35986 0.154239
161 -2.07784 0.0122182 -10.1691 -0.874911 0.555732 -0.034583
356 -0.908837 -6.13691 -8.07579 0.810824 0.143883 -1.12303
3443 -7.43254 9.36287 -10.0341 -1.25137 -0.0812841 -1.44144
365 -9.74386 -5.30052 -8.61405 0.510473 -0.316374 0.664604
348 -8.94652 -5.30298 -7.83654 -0.240474 0.479324 0.543447
79 -8.99044 -4.50334 -8.69515 0.6889 0.476024 0.593142
368 -9.83768 -4.52036 -7.90219 1.04449 0.108899 -0.868451
86 -8.03995 -5.20662 -8.38652 -0.421658 -0.387555 -0.60854
88 -7.3911 -5.1978 -7.57219 0.162341 0.427316 0.699418
682 -7.1009 -4.31302 -8.40264 -0.570543 0.592159 1.50559
112 -3.15354 -5.12861 -8.27209 0.913464 0.974115 0.555578
376 -2.00763 -5.09889 -8.72076 1.03572 0.564135 -1.06856
95 -0.888738 -5.27174 -8.94815 0.678105 -0.802605 1.30179
383 -0.198835 -5.18775 -7.9626 0.0202644 -0.573332 1.81566
354 -1.24198 -5.10067 -7.8181 0.287306 -0.529082 -0.949562
389 -9.7106 -3.71151 -8.61077 0.69539 -1.05042 -0.400452
657 -9.05564 -3.65383 -7.76099 -0.749256 0.0714476 0.730537
391 -8.95335 -2.72225 -8.5036 0.724291 0.0127285 0.122903
367 -8.25976 -4.38325 -7.86403 -0.574942 -0.19228 0.731365
55 -8.30224 -3.64147 -8.60209 0.174533 -0.0324581 -1.09578
366 -7.4055 -3.67839 -7.45495 -0.827288 0.0962628 -0.416432
664 -6.4006 -3.51285 -8.25533 0.579907 -0.251979 0.287011
709 -5.01027 -4.6888 -7.119 0.796975 -0.535288 -0.620017
419 -5.54651 -3.66645 -7.53979 0.480543 -0.335602 0.827598
399 -4.01627 -4.3744 -8.03595 -0.407485 -1.28011 0.914421
1289 -3.03614 -3.61969 -7.6478 -0.460043 -0.72785 0.284314
668 -2.24129 -4.36096 -7.93964 -0.434669 0.00236557 0.884508
401 -2.07385 -3.39799 -8.60895 0.0816625 0.15577 0.339172
382 -0.145638 -4.3977 -8.6562 -0.22151 -0.64456 0.653437
403 -1.46423 -3.38755 -7.80341 -0.456878 -0.452702 0.468906
379 -1.20535 -4.24591 -8.54433 -0.677453 -0.905413 -1.32641
381 -0.585583 -4.16225 -7.63445 -1.14634 0.00509461 0.666624
405 -0.617791 -3.26567 -8.47003 -0.782857 -0.63739 0.195337
392 -9.84222 -2.91731 -7.77223 -0.398088 0.0946138 -0.511236
413 -9.84057 -1.96295 -8.4949 0.499547 -0.892403 0.64562
725 -9.06293 -1.93538 -7.56446 -1.90721 0.0680675 -0.358374
678 -8.30415 -2.80972 -7.69359 0.0826677 0.0789924 0.727125
415 -8.22163 -1.87261 -8.33398 -0.239011 -0.94765 0.347168
420 -7.3471 -1.78147 -7.47793 1.36958 -0.607984 -0.465564
658 -7.33259 -2.71903 -8.34026 0.939752 0.195796 -0.227485
443 -6.49765 -1.80031 -8.10803 -0.305386 0.143262 0.222015
369 -6.53412 -2.66981 -7.47138 -0.110776 0.125857 -0.795292
396 -5.61512 -2.80893 -8.33315 -0.0793785 -0.066064 -0.190251
733 -4.69436 -2.02211 -8.10274 1.1469 0.717009 -0.515392
136 -3.74122 -1.91925 -8.75799 -0.850305 -0.129716 -0.731068
712 -3.84407 -2.87461 -8.09231 -0.637052 0.370142 0.0332696
713 -3.07315 -1.98604 -7.89599 -0.0673296 -0.253282 0.0755057
398 -2.8598 -2.64386 -8.71317 -0.0425333 0.024801 -0.558022
404 -2.27684 -2.67155 -7.67551 0.943075 -0.76814 -0.885633
425 -2.24384 -1.76392 -8.6759 0.369647 -0.559536 0.951012
427 -1.47216 -1.66046 -7.72391 0.933269 1.15815 0.791385
402 -1.54767 -2.53927 -8.5289 -0.384157 0.269714 -0.868418
408 -0.600586 -2.53651 -7.64235 0.425692 -0.45284 -1.17328
429 -0.6211 -1.76235 -8.48482 -0.102406 1.15074 -0.140173
194 -10.0732 4.1682 -9.64017 -1.28128 0.141799 -0.39126
416 -9.88154 -1.33851 -7.61449 0.363514 -0.811428 -0.212158
437 -9.7883 -0.419156 -8.41813 0.282001 0.115439 -1.7487
440 -9.14143 -0.415829 -7.6212 0.189253 1.37818 -1.27692
439 -9.09287 -1.19535 -8.58494 -1.01931 -1.05471 1.16546
726 -8.25468 -1.18453 -7.59961 0.33461 -0.0974889 0.129404
468 -8.24874 -0.344597 -8.28024 -0.895847 -1.07355 -0.603899
203 -7.39568 -0.501188 -7.53538 0.661004 0.740926 -0.98544
753 -7.40695 -1.17192 -8.46791 0.356648 -1.40491 0.480815
153 -6.48893 -0.459739 -8.25371 -1.12968 0.437633 -0.86596
155 -4.67458 -1.25223 -8.85366 -0.364058 -0.199645 -0.1304
3352 -5.51126 -0.296938 -9.02842 0.984729 0.740515 0.713301
448 -5.56855 -1.16984 -8.22222 0.135319 -0.215912 -0.479836
467 -4.82198 -0.404831 -8.07246 -0.186538 -0.964643 0.92039
158 -3.89146 -0.163714 -8.53782 -1.00501 0.337009 0.161073
446 -3.82319 -1.09858 -8.00315 -0.262784 0.568192 -0.938409
183 -3.00622 -0.130422 -7.74961 1.18024 -1.46522 -0.140442
423 -3.10173 -0.851142 -8.76308 -2.02698 -0.86911 -0.0862089
428 -2.34202 -0.977762 -7.59004 0.262208 -1.06609 1.02364
449 -2.32644 -0.0692035 -8.59734 -0.412399 -1.13025 0.48791
451 -1.5109 -0.135748 -7.74796 -0.23521 0.202659 0.841327
426 -1.53204 -0.923056 -8.42072 -1.50549 0.346069 0.654819
432 -0.660544 -0.831163 -7.68938 -0.274952 0.118886 0.46909
453 -0.67365 0.182267 -8.32624 0.678183 -1.48922 0.280969
434 -10.2345 0.804125 -8.14356 0.298959 -0.834158 0.593815
438 -9.11643 0.368199 -8.28042 -0.309613 0.539123 0.0110319
466 -8.01505 0.511614 -7.36424 -0.0548769 0.0269234 -0.639581
180 -8.26963 1.3146 -8.06527 -0.19219 0.306192 -0.567669
463 -7.28883 0.307644 -8.25334 -0.661243 0.260114 -0.338926
1355 -7.20957 1.25602 -7.46032 -0.312822 -0.943442 -0.425685
178 -6.50116 0.28411 -9.04803 -1.43645 -1.22612 -0.421649
179 -6.6305 1.14556 -8.31758 -0.0945425 -0.5721 -0.473738
154 -6.52489 0.280488 -7.54174 0.410369 -0.491077 -0.495592
470 -4.6908 0.499337 -8.65979 1.50133 -0.326885 0.528154
204 -5.66856 0.396297 -8.1326 -0.369226 -0.127431 -1.10928
1333 -6.06057 1.27 -7.44559 -1.57309 -0.0178669 0.335849
469 -3.8988 0.780124 -7.8703 0.675893 1.30706 -0.104325
207 -3.06513 0.725893 -8.52479 -1.1772 0.0161228 -0.264186
471 -2.99069 1.54981 -7.68083 1.26494 -0.211014 0.207571
473 -2.32235 0.666119 -7.63124 -0.867687 0.506873 -0.26574
450 -1.51387 0.819978 -8.46861 -0.00749951 -0.437447 0.067898
477 -0.815604 0.86168 -7.52065 -0.87463 -0.163654 -1.56296
461 -9.47526 1.58383 -7.8756 0.452622 1.57042 -0.134856
772 -9.57156 2.54405 -7.42282 -0.1054 -1.33073 -0.14378
199 -8.6054 2.3756 -7.92863 1.46706 -0.121594 -0.964916
773 -7.42104 2.12518 -8.3138 -0.470099 -0.857126 -0.163787
3060 -6.63768 2.19278 -7.56265 0.929639 0.635565 0.352069
781 -4.93932 1.32881 -7.87769 -0.890007 -0.181002 0.803502
775 -5.69082 2.22613 -8.08269 1.10888 0.172717 0.445315
1071 -4.74764 1.95962 -8.781 0.66455 -1.50342 -0.60534
494 -3.827 1.41661 -6.92047 -0.319085 -0.358096 1.78454
782 -3.84382 1.69643 -8.49457 0.337515 0.267209 -0.527618
230 -4.2326 2.50379 -7.95446 0.428011 -1.5268 0.274377
3375 -3.05756 2.42745 -8.41094 -0.436164 -0.583213 0.539141
185 -2.42964 1.58987 -8.53948 0.119075 -0.851638 0.116513
188 -2.24581 2.37258 -7.47193 1.2605 -0.100278 0.0208715
211 -1.37648 2.32835 -8.42227 -0.471581 -1.35464 -0.646503
501 -0.628931 1.58606 -8.3443 -0.623873 -0.0757847 -0.338167
474 -1.48318 1.63393 -7.53566 1.18808 -1.28344 -0.3344
480 -0.75388 2.33122 -7.54953 0.177121 0.0799542 0.430266
1054 -0.0421967 2.43896 -4.99489 -0.10264 -0.716833 1.10077
774 -9.43685 3.37507 -8.41293 0.677268 0.899509 0.158737
770 -8.76232 3.4384 -7.59082 -0.499843 -0.497833 0.0830025
171 -10.0753 1.55928 -8.89874 -0.63431 0.411293 0.43269
1072 -5.15227 2.9153 -8.78401 -0.15844 0.00984142 -0.450732
232 -3.60992 4.03638 -7.84781 -0.338692 0.308486 -0.225784
1069 -2.9127 3.28196 -7.53066 -1.70163 0.117724 0.293178
236 -2.14957 3.12503 -8.29224 -0.976929 0.0675201 -0.534692
784 -2.56422 4.19232 -8.02569 0.408969 -0.484879 -0.348586
499 -1.35522 3.17551 -7.57017 -1.3192 0.60618 0.0874218
788 -1.43336 4.03002 -8.32866 0.211391 0.384153 -0.703176
497 -0.620384 3.29664 -8.32808 -0.0857945 1.22342 -0.920556
502 -0.744554 4.1275 -7.47452 0.108342 1.03803 -0.286035
1925 -9.85675 5.06506 -0.292306 1.10824 -0.354157 -0.12825
510 -9.1714 5.11455 -8.11772 0.819784 0.691704 1.66817
540 -9.34348 4.45972 -7.28514 -1.12177 0.331638 0.254034
537 -9.46424 5.88538 -7.1074 0.0198219 -0.513297 0.560092
1614 -8.2024 4.84168 -8.49181 -0.373436 -0.597155 -0.274897
518 -3.28157 5.18586 -7.37613 0.750291 -0.622864 -0.259094
3087 -2.20044 5.00239 -8.67129 0.210279 0.271472 0.83574
805 -1.68715 4.8636 -7.72994 0.498213 0.560109 -0.0310705
239 -0.751632 4.99608 -8.22171 1.17124 0.935812 0.0705924
533 -9.76546 7.1517 -8.34696 -0.144036 1.08292 -1.14838
3109 -9.07912 7.02156 -7.53346 0.669156 -0.133826 -1.05351
3396 -9.26491 6.20474 -8.20023 0.564392 -0.112594 -0.124595
269 -9.86584 8.50976 -10.2077 0.838582 1.19142 0.387627
3372 -8.43502 6.82089 -8.42492 -0.113975 0.464658 -0.102834
521 -1.53218 5.77848 -8.52718 0.11877 -1.23399 1.43725
237 -2.24774 6.61371 -8.67305 1.53895 -0.35249 -1.55971
240 -0.938393 5.78866 -7.59565 0.0663766 1.47146 0.362775
549 -1.7088 6.72705 -7.62277 -1.07914 -0.457568 0.0768143
285 -0.745098 6.57937 -8.3445 0.604661 -0.404206 -1.33775
536 -9.81777 7.91615 -7.5691 0.465537 0.0823342 -0.736519
534 -8.91625 7.77544 -8.41969 -1.2871 -0.911462 0.479835
557 -9.78596 8.58053 -8.44518 0.544347 1.30984 1.44806
559 -8.89932 8.6479 -7.65795 0.584327 -0.500596 -0.0535964
538 -8.08769 8.57809 -8.4995 0.839119 0.301521 0.354713
462 -8.28521 7.74506 -7.46696 -0.44691 0.82475 -0.503621
283 -2.37028 7.66536 -7.59377 -0.892495 0.918495 0.477648
566 -2.23816 8.23475 -8.56206 -0.161156 -0.589466 0.404175
573 -1.50595 8.4049 -7.62099 -0.00387387 0.707465 -0.133657
546 -1.35109 7.51244 -8.45637 0.0815289 -0.150479 -0.129048
264 -0.623482 8.29523 -8.38877 -0.816602 0.146255 0.240167
552 -0.830814 7.49008 -7.54153 -0.83288 0.0669437 0.122239
295 -9.07608 10.2477 -7.76197 1.45484 0.672954 -0.877279
560 -9.79327 9.52687 -7.79369 -0.282034 -0.286859 -0.0238835
558 -9.09822 9.44799 -8.50872 0.361307 1.15175 -0.168169
297 -8.19977 -10.2125 -8.44313 -0.902975 1.21487 0.436897
564 -8.22745 9.43463 -7.62354 -0.50219 -0.822259 -0.215031
308 -2.02461 10.0473 -8.72522 -0.252479 -0.0957849 1.16269
572 -2.14392 9.30346 -7.89649 0.589543 0.225846 -0.707465
307 -1.45981 10.2084 -7.76794 -0.843833 0.160218 -1.09295
309 -1.3552 9.16472 -8.57862 0.626078 0.304881 -0.11867
310 -0.490726 10.0668 -8.52193 0.742292 0.529435 -0.40941
576 -0.691912 9.38219 -7.71733 0.544474 0.126242 -0.199093
584 -9.88478 -9.27118 -6.28173 0.522155 -0.113133 -0.80274
582 -8.96611 -9.33895 -6.90663 -0.902838 -0.662096 -0.914402
583 -9.06458 -10.0163 -6.1712 -0.498502 -1.11159 -0.585674
588 -8.18358 -9.33863 -5.99118 1.00287 -0.297801 -0.284249
852 -7.46375 -10.2006 -5.90692 -0.197948 0.344472 -1.40338
585 -8.09604 -10.0379 -6.88665 0.590787 0.567608 0.328221
562 -7.21022 -9.28347 -6.8124 -0.152868 0.190599 -0.740649
611 -7.39402 -8.46534 -5.92982 0.068478 -0.118178 0.399781
586 -5.51488 -9.52461 -6.01241 -0.00448012 1.16042 -0.0851385
541 -4.6501 -10.2323 -6.26466 -1.07302 -0.518933 -0.823231
15 -3.87538 -9.30117 -6.32841 -1.00326 1.02803 1.2372
332 -3.15867 -9.35064 -7.12919 -0.813142 -0.0310278 -1.06764
589 -4.00055 10.2643 -7.0268 -0.927256 0.298325 -1.45662
596 -2.41851 -9.42578 -6.1804 -0.258008 0.505326 0.363034
619 -1.43868 -8.64785 -6.25039 0.414963 1.03878 1.79268
594 -1.36712 -9.4986 -6.94069 0.307172 0.138443 -0.342979
600 -0.699031 -9.3856 -6.1465 0.907106 -0.557832 0.726868
621 -0.567338 -8.76558 -7.02469 -0.550055 0.279439 1.75611
605 -9.61633 -8.53989 -7.13183 -0.566539 -0.704138 0.351191
608 -9.77612 -7.67993 -6.1884 -0.607609 0.280544 -1.0762
606 -9.05244 -7.53005 -6.94062 -0.798888 -0.88439 -0.815656
607 -9.03315 -8.63373 -6.03081 0.449959 0.61504 0.266613
609 -8.12382 -8.5858 -6.82318 0.185791 -0.455364 -0.216533
612 -8.03023 -7.68722 -6.00586 -0.231529 -0.134968 1.3668
347 -7.22827 -7.79295 -6.80391 0.218125 0.873839 0.221175
323 -6.2217 -8.68964 -6.44615 -0.0704524 -0.452906 0.277112
10 -4.60113 -8.40603 -6.60095 -0.365934 -0.693039 0.00487352
637 -5.68331 -7.85021 -6.24117 0.367738 0.817992 -0.415595
563 -4.46628 -9.14964 -7.3434 -0.661233 -0.0284285 0.679992
665 -3.79172 -7.62531 -6.28056 -0.103368 0.23032 1.41079
328 -3.16734 -8.56574 -6.27674 0.304973 -0.989438 0.839634
329 -3.05673 -7.82105 -7.22522 -0.235009 -0.0687385 0.229407
618 -2.3386 -8.72961 -7.04212 0.498035 -0.0217535 0.294385
929 -2.27082 -7.76228 -6.56275 -1.05978 -0.696296 0.173796
355 -1.12521 -7.87735 -7.00938 0.0349931 0.0217647 -0.686229
622 -0.0557337 -7.69408 -7.24348 -0.820405 -0.0962481 -0.549788
624 -0.520272 -7.93137 -6.15472 -0.54828 0.99424 -0.863885
631 -8.9964 -6.85807 -6.16197 -0.594808 -1.12105 0.454867
629 -9.85178 -6.76468 -7.00234 0.118827 0.868103 -1.24977
632 -9.82403 -6.01129 -6.05882 0.318483 0.571947 1.28918
630 -8.97014 -6.0612 -6.95952 0.261543 -0.33825 0.0547229
634 -8.07803 -6.92554 -6.86194 -0.802472 0.755529 -0.686152
636 -8.2002 -6.0702 -6.07792 0.651208 0.645901 0.130582
35 -7.2112 -5.8889 -6.75818 1.9989 0.647729 -0.164685
610 -7.35557 -6.90795 -5.79701 -1.12268 -1.4498 -0.557753
616 -6.29743 -6.92584 -6.52085 0.553391 1.17939 -1.35814
659 -6.58327 -6.10351 -5.83373 -1.40959 0.259043 -0.780699
284 -4.8952 -7.00178 -6.36182 -0.776788 -1.09454 -0.498432
613 -5.52101 -6.12924 -6.47251 -0.352846 0.252875 -0.370838
301 -5.68968 -6.75242 -5.63138 -0.0201127 -0.834903 -0.729524
325 -4.03296 -7.04844 -7.19279 -0.285653 -0.177911 -1.79303
974 -2.95061 -6.0082 -7.40368 -0.880462 -0.150899 0.100363
349 -2.97142 -7.0354 -6.55722 -0.173806 1.04419 0.129705
648 -1.90805 -6.92865 -7.16927 -0.946449 -0.0998648 -0.809598
953 -2.22968 -6.26771 -6.43434 -0.523121 -0.140193 0.507464
643 -0.774664 -6.98034 -7.3938 -1.29226 0.231395 0.221274
669 -0.0693082 -6.05889 -7.37162 0.63302 1.12675 -0.0877514
955 -1.18429 -7.04665 -6.42738 -0.621042 -0.423417 0.57224
4369 -0.0666343 -7.04376 -6.38699 0.990916 -0.140857 1.81252
653 -9.80753 -5.3178 -7.08794 -0.258703 0.659712 0.538107
655 -9.11899 -5.20665 -6.14244 1.84017 0.687845 0.299772
654 -9.15789 -4.51731 -7.06577 0.745842 0.00890191 -0.107728
656 -9.89699 -4.55456 -6.354 -0.184322 -0.110466 -0.635268
969 -8.20283 -5.2776 -6.90556 0.944336 0.1177 -0.703226
660 -7.37968 -5.16473 -5.87835 -0.943259 0.0227489 0.13166
681 -8.24051 -4.47327 -6.04864 -1.15378 0.835419 1.01688
971 -6.47032 -5.17425 -6.57426 0.587558 -0.0506843 -0.391984
352 -4.57244 -5.36916 -6.48886 0.495558 -0.940354 -1.09854
1282 -5.71138 -4.31323 -6.36912 0.396995 -0.32975 -0.386608
400 -3.97783 -5.25726 -7.28893 0.398417 0.211641 -1.29433
685 -3.83669 -6.35302 -6.40826 1.26346 0.0628436 0.236321
977 -3.33909 -5.35281 -6.45946 -0.52529 -0.340649 0.287162
691 -2.18863 -5.3014 -7.11311 -0.74307 -0.329076 0.498557
667 -1.43845 -4.95955 -6.23588 -0.298213 -0.724287 0.191657
647 -0.488934 -5.94086 -6.28843 -0.112347 0.13628 0.114035
644 -1.22377 -5.97717 -6.9374 0.250574 -1.54082 -1.40534
672 -0.511875 -4.96273 -6.93723 0.176308 0.294026 -0.593061
677 -9.88141 -3.7855 -6.94309 -0.00284669 -1.12113 -0.313963
966 -9.07959 -3.87006 -6.08853 -0.916857 -0.371328 -1.74566
680 -9.89419 -2.83353 -6.06741 -0.241199 0.502265 0.271242
688 -7.39569 -4.57583 -6.75917 -0.490901 -0.137905 -0.1408
679 -8.26168 -3.71665 -6.88469 -0.0806345 -0.646273 -0.161677
1281 -7.52805 -3.64035 -6.20068 -0.0231607 0.357318 0.651327
707 -6.49086 -3.62837 -6.98978 -1.32726 0.90776 -0.335503
687 -6.7509 -4.19251 -5.81995 -0.0522684 0.470654 0.461786
421 -4.7705 -3.60707 -6.39554 0.293225 -0.162712 1.62404
373 -4.00794 -4.38217 -6.5078 0.70603 1.46073 0.202181
374 -3.09273 -4.65621 -7.2556 0.610999 -0.174271 0.20925
686 -4.10992 -3.53376 -7.27928 1.10211 0.0131266 -0.502923
980 -3.24348 -3.70974 -6.56473 -0.126016 0.148427 -0.50266
711 -4.03056 -2.64626 -6.4353 0.0829797 -0.152679 -0.601282
978 -2.4597 -4.57174 -6.37818 -0.108506 1.07283 -0.595281
380 -2.30543 -3.44302 -6.95933 0.354928 0.56358 0.714248
692 -1.68082 -3.61939 -6.20869 0.584465 -0.293534 -0.260961
666 -1.57807 -4.27895 -7.07172 0.737668 0.150432 -0.81925
690 -0.597671 -4.11378 -6.09245 -0.180073 0.443825 0.541341
384 -0.679628 -3.4092 -6.89683 0.546976 -0.158209 0.212689
970 -8.95879 -2.8685 -6.88211 -0.191388 -0.956965 -0.873053
701 -9.94978 -2.17026 -6.97522 -0.810424 -1.59826 -0.298748
702 -9.16805 -2.00791 -6.13762 0.4089 0.367914 1.05647
708 -8.342 -1.94582 -6.80299 0.394478 0.627234 -0.0112811
706 -7.45432 -2.1168 -5.96363 0.357021 0.705315 -0.116483
683 -7.52361 -2.76633 -6.87444 -0.36978 -0.337101 -0.393413
705 -6.51819 -2.04689 -6.65987 0.183154 0.145358 -1.41087
730 -5.63396 -1.87566 -7.45546 -0.491446 0.755733 -0.585393
731 -5.6497 -2.87656 -6.84955 0.739787 0.0461916 0.0921661
757 -4.87441 -2.73324 -7.44295 -0.604665 0.215761 -0.278378
1021 -4.86828 -1.99477 -6.45587 -0.0785115 -0.178161 0.111549