ITEM: TIMESTEP
200000
ITEM: NUMBER OF ATOMS
6912
ITEM: BOX BOUNDS pp pp pp
-1.0259855680060181e+01 1.0259855680060181e+01
-1.0259855680060181e+01 1.0259855680060181e+01
-1.0259855680060181e+01 1.0259855680060181e+01
ITEM: ATOMS id x y z vx vy vz
8 -9.37753 -9.48074 -9.66701 0.215914 1.30597 2.05386
19 -1.02299 9.86879 -10.2269 0.125778 -0.165401 -0.477744
3443 -8.59755 -10.2713 -9.44151 1.37451 -0.288002 -0.643367
3174 -7.70474 -9.69905 -9.19512 0.0737438 -0.619538 -0.282857
572 -6.27892 -9.64946 -9.50644 -0.631606 0.492335 0.0613692
321 -6.63995 -8.66571 -8.92126 -0.209578 -0.048569 -2.04928
3137 -5.30776 -9.67698 -9.95529 -0.196755 -1.69834 -0.39751
44 -4.91201 -10.084 -9.0784 -1.31383 -0.0634133 -0.697174
258 -3.96655 -9.95601 -8.7511 -0.339941 -1.42602 0.670042
3164 -3.08328 -8.86808 -8.8917 0.198795 -1.01603 0.0877468
2725 -4.17136 -9.70996 -10.0927 -0.501822 0.301124 0.310003
27 -10.1663 -8.47505 -9.55071 -1.00019 0.519345 -0.440647
306 -3.18776 -9.83419 -9.54149 -0.173651 1.31117 -0.993097
48 -2.02688 -9.04941 -9.43182 0.145454 -0.524541 -0.450263
838 -0.017941 7.67213 -6.85833 -0.179738 -0.564507 0.16338
42 -0.99572 -9.57578 -9.83784 -0.0775528 0.342661 0.255469
47 -0.339785 -8.52964 -9.87403 -0.33184 -0.19353 -0.306211
32 -9.47856 -7.77396 -9.31823 -0.520696 -0.533585 -0.931786
3455 -0.716102 6.85312 -10.0571 -0.52454 0.241807 0.541732
277 -7.74943 -8.67511 -8.73849 0.0776952 0.957747 0.740477
31 -8.52176 -8.57847 -9.62325 -0.214773 0.410198 0.727961
318 -8.53742 -7.78066 -8.81667 0.156401 -0.998488 0.779095
58 -6.76338 -7.98417 -9.78568 -0.569914 -0.374347 -0.165346
18 -5.49465 -8.9475 -9.18814 0.722331 -1.3043 1.58679
345 -4.29179 -7.90967 -9.58367 1.65471 -0.159065 -0.0209054
360 -0.207823 -6.11753 -8.84044 -0.948269 -0.859497 -0.0150619
238 -0.204306 4.18391 -8.28036 0.110504 0.0369964 0.120485
3185 -3.5059 -7.37262 -10.1423 0.758527 0.748405 0.558244
252 -4.27074 -8.9821 -9.23119 0.200345 -0.0820745 -0.456868
3233 -2.41216 -8.02707 -9.49902 -0.722984 -0.64356 0.0735822
69 -1.19386 -8.15958 -9.29659 0.0449286 0.200531 -0.131341
854 -3.43993 -7.79153 -9.07648 0.453536 -0.255419 0.0460302
87 -1.6139 -7.22124 -9.78936 0.359403 -0.713 -0.883569
962 -10.1439 -2.67499 -5.08896 0.641811 -1.05302 -0.705429
359 -0.15898 -7.75406 -8.84434 -0.690422 0.623142 0.0186961
56 -9.56821 -6.23452 -9.37236 1.21904 0.255595 0.339185
30 -8.77077 -6.95163 -9.37313 0.433863 -0.665713 0.251236
165 -0.910511 0.0250869 -9.91467 0.383295 0.584143 -1.3815
17 -1.73726 9.03741 -10.2168 -0.665822 -0.285756 -0.503069
3275 -7.75402 -6.32702 -9.41119 1.89301 -0.680092 0.962124
3257 -6.11944 -6.75094 -10.1354 -0.00714618 -0.99817 0.257405
11 -7.68559 -7.44216 -9.512 0.0720864 -0.697365 -0.106407
2413 -5.58927 -7.85564 -9.56233 -0.105121 -1.01009 0.367504
273 -6.67694 -6.70328 -9.05634 0.320639 -0.153495 -0.133272
9 -5.06313 -6.54985 -9.10438 0.594232 0.119646 0.402897
2986 -6.14202 -5.68052 -9.07227 -1.35442 -0.774643 0.49631
722 -10.2681 0.835327 -6.71414 -1.76366 0.723348 -0.540441
66 -3.36805 -5.9935 -9.71552 -0.383101 0.677164 -0.455904
853 -3.95776 -6.82304 -9.13226 -0.899005 0.0428783 1.29497
547 -4.3242 6.14428 -10.2336 -1.11734 0.791228 -0.452694
336 -2.9497 -5.97594 -8.5706 -0.20857 0.447009 1.98345
3446 -2.83057 -6.85173 -9.66813 1.41286 0.158986 0.437044
37 -1.93093 -6.43428 -9.02672 -0.229574 -1.67227 0.793115
357 -2.04981 -6.31942 -10.1649 -0.4039 0.649948 0.616104
638 -0.89567 -6.91755 -8.98151 -1.21958 0.0181414 -0.0157147
72 -1.10915 -6.08463 -9.59878 0.612115 -0.00209495 0.139375
1728 -1.04958 9.40722 -1.33145 -0.761991 0.364136 0.805746
54 -8.6621 -5.71864 -9.34318 -0.794383 0.0968993 0.17272
372 -8.27815 -4.54846 -9.45067 -1.04974 -0.256987 -0.386506
214 -0.0892684 4.18709 -9.93185 0.335648 -1.18126 -0.178766
78 -7.28784 -5.14595 -9.40336 -0.549265 0.059892 -0.0265486
81 -6.35674 -4.62703 -9.32111 -0.83453 0.71649 0.661712
3304 -6.68203 -5.72799 -10.0587 -0.277014 0.0871735 0.107374
2992 -4.99007 -5.27134 -9.08636 -0.179461 1.37471 0.677639
3422 -4.03017 -5.69868 -8.83767 -0.217025 1.46512 0.364931
350 -4.48347 -4.56421 -8.60193 -0.770838 0.221494 0.216635
3037 -4.04452 -5.00387 -9.71789 0.368302 0.33552 -0.306342
3250 -3.08711 -5.03156 -9.20281 2.19709 1.29991 -0.0317089
687 -2.70756 -5.34319 -10.234 0.743465 -0.178282 -0.5493
93 -1.88394 -5.31661 -9.48791 -0.62493 -0.14827 -0.371757
3529 -0.259393 -5.19057 -9.48794 0.21329 1.24693 0.0879357
382 -0.370058 -4.38205 -8.85759 -0.555204 0.387301 -0.687983
79 -9.52867 -4.41216 -9.27766 0.529778 0.821015 -0.848007
80 -8.91129 -3.55334 -9.46588 0.661438 2.21372 0.150005
393 -8.09794 -3.79174 -10.1733 -0.774377 0.218604 0.298298
1660 -10.273 6.72291 -0.578339 -2.31859 0.526131 -1.24987
107 -7.24587 -3.94024 -9.47192 -0.0559858 0.166268 1.45857
370 -6.47864 -3.62758 -8.888 -1.10662 -0.834969 0.156083
390 -6.97534 -2.85388 -9.53914 0.571889 -0.106469 -0.00377954
106 -6.20672 -3.7241 -10.0141 0.166968 0.474897 0.72643
3229 -5.60481 -4.25336 -8.67221 0.391873 0.805374 0.861366
397 -4.81642 -3.50183 -8.80829 0.0331703 -0.563345 -0.220263
684 -5.69565 -2.98376 -9.19636 0.482695 1.18787 -0.0276971
111 -5.1188 -4.47776 -9.72172 -0.4447 -1.31367 1.33215
3260 -4.07706 -4.03097 -9.42247 -0.857153 0.690534 -0.195037
378 -2.49395 -4.16699 -9.23434 -0.0740107 0.260033 -0.0740493
375 -3.14488 -3.49688 -9.50468 -0.920072 0.789552 -0.591621
3298 -5.27722 -5.7551 -9.98931 -1.43818 -0.0470915 -1.03284
96 -1.12572 -4.48096 -9.65159 1.75863 0.217203 -0.678598
119 -0.259573 -3.6089 -9.72476 -1.5073 0.308529 -1.5486
115 -1.36776 -3.41211 -9.54236 -0.931313 -1.65115 -0.929831
104 -9.61726 -2.71376 -9.42761 0.677314 0.555176 -0.260819
414 -8.71818 -1.80945 -9.44126 -0.67137 2.59554 0.153348
125 -9.69411 -1.84462 -10.0969 -0.696066 1.02358 -0.0415958
103 -8.10327 -2.84547 -9.33238 0.755094 0.409867 0.846237
442 -5.15184 -3.52836 -10.1178 1.26056 -0.095175 0.573738
108 -4.76504 -2.55085 -9.97404 0.530861 0.538443 -0.179523
132 -5.73318 -1.91333 -9.45831 -0.365227 1.05995 0.140727
133 -5.06802 -2.45628 -8.60177 -1.48208 0.128624 -0.201727
3303 -3.92572 -2.67405 -9.35121 0.0891827 0.153887 0.432965
137 -2.819 -1.95687 -9.44368 -0.731785 1.48332 -1.40603
418 -3.70256 -1.7932 -9.89746 0.138846 0.497351 -0.658432
116 -2.12414 -2.68097 -9.63427 -0.832345 -0.666801 0.24398
38 -4.94779 -7.06993 -9.98903 -0.105639 -0.308471 -0.433055
139 -1.43978 -1.84686 -9.54602 -0.670829 -0.472557 1.25614
120 -0.586081 -2.54098 -9.4672 0.419587 0.0304666 -0.48749
435 -10.2259 -0.21632 -7.31615 0.965246 0.591091 0.661788
128 -9.70556 -0.946427 -9.35309 -0.313914 0.233231 -0.302183
149 -8.66448 -0.743744 -9.87003 0.829889 1.36302 0.377953
150 -8.98083 -0.210744 -8.97664 0.041976 -1.03413 -1.08787
126 -7.90318 -0.999584 -9.21176 -0.727703 -0.703919 0.87732
3324 -7.79329 -0.0986816 -9.7836 -0.494826 0.865538 -0.875292
3059 -6.99951 -1.13557 -8.17926 -0.843532 -0.26779 0.404988
3297 -6.93935 -0.639545 -9.33027 -0.0708559 -0.10664 0.976165
155 -6.27265 0.217929 -9.7641 -0.143804 -0.045048 0.672696
231 -3.67319 3.13428 -10.0507 -0.143185 -1.20099 -0.165291
2722 -5.85638 -0.777226 -9.37453 0.131989 -1.12685 0.666207
153 -4.73678 -1.59515 -9.72009 -0.402131 -0.470061 -0.423159
422 -3.40896 -0.341391 -8.78224 -0.667441 0.00481741 0.579079
1669 -4.51917 -0.555046 -9.43111 0.218886 -0.171435 2.24166
3305 -3.45653 -0.448074 -9.93391 0.2284 -1.17616 -0.0978763
161 -2.49529 0.35303 -10.1057 -0.593896 0.604549 -0.253846
140 -2.56208 -0.937935 -9.35375 -1.71104 -1.92434 0.861279
163 -1.78259 -0.00928431 -9.37327 0.765655 0.420098 -0.062337
144 -0.743922 -0.94974 -9.34665 -0.516672 -1.55048 -0.878263
138 -1.64001 -0.844402 -9.94002 -1.19619 0.605205 0.0249313
152 -9.65786 0.543397 -9.20172 0.219414 -0.555981 0.900707
3319 -8.41695 0.609689 -9.35787 2.30742 -0.711103 0.111056
3320 -9.75379 1.38883 -9.90738 0.356551 -0.0184707 -0.809287
175 -7.81862 1.55407 -9.511 0.718053 0.276179 1.33746
465 -7.2667 0.463112 -8.95614 0.0873225 -0.464284 0.000847909
469 -6.99417 0.928657 -9.94373 -0.639501 0.680754 -0.796524
203 -7.23227 1.66424 -8.61683 -0.598543 0.383091 -0.474581
470 -5.21062 0.308844 -9.59133 -0.114353 -1.06174 0.791706
782 -5.00644 1.61949 -8.88438 -0.297095 -0.422824 -0.426848
796 -10.0697 7.04034 -5.50118 0.0368358 0.115037 -1.38644
491 -4.40188 0.493131 -8.84083 0.609841 -1.19086 -0.488584
159 -3.31729 0.547057 -9.50478 -0.451511 -0.464495 0.970421
3374 -4.21839 1.30854 -9.58279 -0.462948 0.43652 0.252114
450 -2.34126 0.922061 -9.16095 0.651276 -0.471503 0.563163
982 -0.0963132 -2.55457 -5.25436 -0.0616392 1.65583 0.292911
189 -1.63474 1.00341 -10.0185 0.504397 -0.141384 1.22799
168 -0.711562 0.983501 -9.21232 1.28623 0.386927 0.0544628
438 -9.0513 1.44869 -9.0884 0.552343 -1.10164 0.715276
195 -9.94709 2.71349 -9.49709 0.874851 -0.303177 1.59452
1558 -0.141954 -3.5967 -2.78216 -0.197901 -0.0281328 0.371304
774 -8.09521 2.62352 -8.975 0.0969542 1.35773 0.786044
3049 -8.81418 2.16567 -9.82917 -1.73075 -0.3571 0.0101565
3060 -6.26137 1.21062 -8.9043 -0.536496 -0.408945 -1.10715
200 -6.85943 1.9592 -9.647 0.211914 -0.102051 0.27269
232 -5.91357 2.32681 -9.14599 -1.09203 -0.372389 1.68407
156 -7.10842 2.63895 -8.68092 0.511112 0.254066 1.04743
518 -4.9934 2.2767 -9.69536 0.451225 0.136708 -0.203033
223 -3.47708 2.02437 -10.1651 -0.221031 0.0577234 -0.915878
2464 -3.15295 1.62875 -9.20771 -0.565632 -0.204437 0.0170466
233 -3.73733 3.06384 -9.01528 0.332154 -0.748686 1.09049
3332 -2.38449 1.68949 -10.165 0.0787678 0.957945 0.564872
212 -2.70957 2.7412 -9.65221 -0.616533 -0.63735 -0.409048
501 -1.46411 1.70806 -9.2603 0.674528 0.94522 -0.0643499
192 -0.580172 1.64559 -10.1144 1.03077 -0.326071 0.676983
215 -0.735835 2.61349 -9.10356 -1.07945 -0.877362 -0.0633115
213 -1.49283 2.37415 -10.105 0.161128 -1.15755 -0.222202
2458 -9.43724 4.06395 -9.38883 0.590046 1.04161 -0.792618
3338 -8.8839 3.2284 -9.51117 -0.132768 0.758357 -0.0506369
1343 -0.178973 1.17943 -2.70796 -0.120385 -1.42661 -0.626814
770 -8.12844 4.08813 -9.77702 1.15055 1.22663 -1.08121
199 -7.58622 3.70406 -8.88506 -0.0152575 1.31227 0.589167
173 -7.48802 2.9483 -9.73988 0.184841 -1.50354 0.926286
1251 -10.024 -3.62351 -2.62835 0.220016 -0.325154 -0.956163
1047 -6.54873 3.44365 -8.4931 -0.452631 1.53375 -0.285682
3397 -3.13808 3.99144 -9.61575 -0.448086 0.300417 -0.297565
3063 -4.19463 0.279882 -10.1206 0.143386 -0.282465 0.356764
209 -1.73162 3.08867 -9.16387 0.363895 -0.754752 -0.748973
784 -2.06696 4.00115 -9.47562 0.216513 0.406142 0.677651
377 -7.4742 -8.73054 -9.70161 1.12524 0.32301 0.0641313
3399 -1.21856 4.27216 -10.1504 -0.510207 0.458146 -0.648582
498 -0.945802 4.26513 -9.15364 0.910838 -0.236137 0.343587
3384 -0.743915 3.2112 -10.0102 1.93369 0.175561 0.272166
228 -9.0991 5.00555 -9.41931 -1.74453 0.320035 -0.226182
487 -5.88192 1.23943 -9.85583 0.52406 1.16356 0.911982
1614 -7.89574 5.11765 -9.41145 -1.31295 -1.10899 1.32453
51 -10.1624 -7.04869 -9.66605 -0.5494 0.554075 1.78979
2797 -3.29237 4.98985 -9.3869 -0.194055 0.0769274 -0.755496
2776 -2.34417 4.96949 -9.83558 0.0302171 1.04192 -0.00858735
525 -2.40893 6.02338 -9.16193 -0.394516 -1.59114 -0.214556
805 -2.54138 4.56746 -8.81034 1.18486 -0.318148 -1.85992
3144 -1.68725 5.15798 -9.03146 -0.193928 0.71178 0.455601
261 -0.837842 6.04485 -9.17347 -1.86741 -0.401518 1.82405
3403 -1.01957 5.3212 -9.92539 -0.137228 -2.13913 1.21948
210 -0.33295 5.07174 -9.16613 0.466246 -0.461157 0.530255
242 -10.0505 7.45337 -9.54248 -0.747826 0.820765 1.24766
243 -9.81727 6.33587 -9.49528 0.218786 -0.457964 -0.58106
224 -8.75595 5.98215 -9.43447 -0.241279 -0.150608 0.564094
221 -7.39355 6.00689 -9.88803 0.156565 -0.759165 -0.195237
3083 -3.92331 6.97391 -9.65031 0.820884 -0.721852 0.511281
3087 -3.60067 7.80023 -9.15453 -0.104291 1.10879 -0.188396
521 -2.01384 6.9554 -8.76997 -0.861638 0.590963 -0.367086
3326 -2.58507 7.22676 -9.6557 -1.62979 -0.1814 -0.754815
3405 -1.81969 6.58065 -9.87432 -0.079163 0.0867601 0.0760886
276 -9.48338 8.58054 -8.98533 0.241672 0.424187 0.332632
2790 -8.93325 9.05257 -9.91754 -0.776454 -0.00885573 -0.15081
245 -8.01513 7.95226 -9.25163 0.264093 -0.893902 -0.312921
2460 -7.66016 7.21418 -9.95121 -1.36348 0.735346 0.279542
3439 -6.57567 8.53782 -9.02603 0.73664 -0.841763 0.86901
1208 -10.1665 -6.1128 -3.0572 1.12517 0.434434 -0.0461793
566 -2.86092 8.91509 -8.85131 -0.63512 1.47846 0.243878
742 -0.0937132 0.479527 -6.65783 -1.43597 0.404778 2.07522
23 -0.768984 7.73087 -9.32745 -0.285465 0.247034 0.769122
570 -1.65042 9.09171 -8.79679 -0.211412 1.24629 -0.512489
272 -9.76622 9.62493 -9.52546 -1.09391 -0.379937 0.369591
246 -8.0536 9.51744 -9.79664 0.620542 -0.354444 0.192693
561 -6.89001 9.79068 -9.28671 -0.252156 0.129726 0.222963
1624 -5.80479 9.85978 -9.47954 -0.351592 -1.75432 0.285458
3105 -5.73069 9.00802 -10.0611 0.601393 -0.338864 -0.0774997
2491 -4.58399 9.36827 -9.8257 0.360059 0.497843 -1.65283
283 -2.73754 9.2226 -10.0008 -0.257077 0.025163 -0.963347
3447 -3.62719 9.68848 -9.64788 0.834556 0.225591 -0.192868
3187 -2.03398 10.1613 -9.93431 -0.405657 1.08968 -1.12139
264 -3.26928 9.78622 -8.39278 -0.827094 -0.249936 1.24172
43 -0.7523 9.01983 -9.37931 -0.0463677 0.000864142 0.148229
24 -1.26505 9.98054 -9.16108 0.893127 0.307332 0.253803
3456 -0.167586 -10.2034 -9.80308 -0.217152 1.11862 0.80662
1065 -10.232 2.53552 -8.21235 0.212405 -1.10718 -0.875412
294 -8.6303 -9.4712 -8.61834 -0.142857 1.3311 0.164178
296 -9.66462 -9.4874 -7.8001 0.0401968 -0.0416654 0.733981
2891 -7.58946 9.97138 -8.42408 -2.17303 1.15819 -1.80148
295 -8.74976 -10.2095 -7.93996 0.902684 -0.847875 -1.68545
6 -7.7142 -9.44279 -7.98978 -0.243581 -0.0129366 0.595956
562 -7.1271 9.80986 -7.42031 -1.01537 -0.775291 0.319086
20 -6.16128 -9.86807 -7.47993 0.16618 -0.129905 0.11947
3180 -6.85241 -9.6771 -8.51412 -0.619568 -0.4434 0.405853
3205 -5.73449 -9.75861 -8.54075 -0.2686 1.08647 -0.12271
297 -6.47459 9.93922 -8.39539 0.40711 -0.119986 -0.12195
3445 -4.78459 -9.97819 -7.51111 0.0589102 -0.891856 0.996432
855 -6.39553 10.0465 -6.66142 0.813354 -0.537454 -0.321584
15 -3.71342 -9.75268 -7.61901 -0.627947 -0.118434 0.546853
568 -2.64274 -9.76311 -8.37489 -0.0472219 0.631597 0.161072
309 -1.67645 -8.877 -7.83917 0.248053 0.496651 0.179564
310 -1.46893 -9.81838 -8.13537 0.000952193 0.412576 0.465596
333 -0.155299 -9.23476 -9.03862 -0.358022 0.321169 -0.483184
621 -0.583439 -9.51745 -7.72895 1.42461 -1.05507 0.436364
2488 -1.06878 -8.91729 -8.63833 -1.37596 0.97173 -1.25067
317 -9.48776 -8.79319 -8.79344 0.657909 0.560029 -0.334382
320 -9.38465 -7.88648 -8.05984 -0.588719 0.76798 0.917808
319 -8.5079 -8.57598 -7.75312 0.165674 -0.415235 -1.46517
609 -7.62505 -7.89239 -7.90957 0.513657 -0.534353 -0.49002
3179 -6.90127 -8.72872 -7.95418 -0.784903 -0.621262 1.15481
300 -6.7695 -7.69339 -8.62771 -0.228963 1.61402 0.504872
2823 -5.70395 -8.21422 -8.52544 -0.116618 -1.89367 -0.389627
325 -4.88648 -9.12548 -8.32284 1.29599 -0.134733 -1.04295
270 -6.28345 -7.69627 -7.63735 -0.270565 -0.0167944 -0.482296
346 -4.91139 -8.11574 -7.73486 -0.157594 0.427297 1.75284
3202 -3.86131 -8.18435 -8.18607 0.958044 -1.67633 -2.11014
569 -2.82622 -7.58301 -7.29865 -1.4544 0.208739 1.44173
2897 -3.03689 -8.8064 -7.72342 -0.493017 -0.388653 0.424175
326 -4.28178 -8.87841 -7.28042 0.648798 -0.869994 1.21086
62 -2.36118 -8.2037 -8.24208 -0.148417 1.4727 -0.328341
335 -0.222744 -8.59046 -8.025 -0.0715224 0.773669 -1.14422
618 -0.984642 -7.75962 -8.06222 -0.392526 0.542295 0.991887
622 -0.342331 -7.76191 -7.27522 -0.0724485 -0.555306 0.655491
328 -0.508292 -8.75985 -6.95305 -0.0967782 1.1429 0.10209
342 -8.90054 -6.29237 -8.55642 0.897338 -1.01625 0.707183
341 -9.65664 -6.96709 -8.60742 -1.3532 -1.24147 -1.2675
344 -9.71532 -6.10086 -7.84759 1.00645 -1.01052 -0.235282
343 -8.69491 -7.08253 -7.83351 1.0794 -0.372776 -1.21624
85 -7.87172 -6.87775 -8.56072 -0.352935 0.236945 -0.119723
36 -7.90022 -6.08345 -7.82077 0.135255 1.57309 -2.03657
3249 -7.12256 -7.04227 -7.66478 -0.239248 -0.752285 2.02212
616 -7.10583 -5.88792 -8.45731 0.337245 0.0570299 1.04195
274 -5.82854 -7.05516 -8.5426 -0.579512 0.209437 0.38154
57 -6.16569 -5.808 -7.45002 -0.48267 -0.721973 0.542035
3207 -5.37206 -6.96603 -7.46723 -0.184118 -0.597036 0.26283
332 -4.45947 -7.26176 -8.26817 0.62098 -1.2299 0.394447
974 -3.69584 -6.37427 -7.92468 -0.399959 -0.91842 0.753741
567 -3.8339 -7.29104 -7.30058 0.233917 -0.502316 -0.288264
3452 -2.81187 -7.09734 -8.54124 1.25828 -0.636 -0.479311
645 -2.2956 -6.59099 -7.77817 0.0867872 -0.72849 0.0600164
327 -1.74838 -7.39131 -8.64043 0.134298 1.02834 -0.0472815
644 -2.38464 -6.47724 -6.64585 0.0276598 0.301589 0.262356
669 -0.220732 -6.94531 -7.99537 1.82679 -0.201996 -0.415985
356 -1.14123 -6.18076 -8.24512 0.549612 -0.491388 0.0840574
365 -9.5301 -5.32139 -8.63755 0.530073 -0.795289 -0.0777682
348 -8.8829 -5.29021 -7.78178 0.718104 -0.632766 -0.437912
368 -9.64693 -4.49406 -7.8961 0.535935 0.82613 -0.109527
633 -8.83407 -4.31715 -8.63806 -2.14889 0.887204 0.0626763
109 -8.10896 -5.19976 -8.52049 0.379798 -0.619405 0.153224
613 -7.10147 -5.25264 -7.61797 1.10586 -1.32485 -0.123194
371 -5.96772 -4.92456 -8.00011 -0.0486252 1.18966 0.07318
83 -5.44753 -6.03976 -8.26065 -1.44685 -0.360788 0.591534
648 -4.41986 -6.02938 -7.18346 0.0815336 0.527112 -0.638743
3188 -5.28815 -5.1333 -7.12632 -1.60913 -0.355641 0.677541
86 -5.15514 -4.32151 -7.75557 -0.226594 -0.39901 -0.0350188
324 -4.73073 -5.35063 -7.95794 0.333713 0.882559 -1.31503
424 -3.50576 -5.04716 -8.09989 -0.789116 0.508182 -0.0122482
376 -2.31102 -5.10652 -8.50286 1.41637 -0.389471 -0.466838
95 -1.0836 -5.24874 -8.80732 1.24855 0.487566 0.940001
354 -1.38283 -5.21046 -7.80486 -0.476745 -1.03744 0.314575
383 -0.333655 -5.31638 -8.08079 0.211585 -0.358422 0.0299581
389 -9.6239 -3.62219 -8.60711 0.0572852 -1.27621 0.334926
657 -8.86682 -3.64875 -7.85266 0.855034 -0.588644 0.389413
366 -8.02558 -4.50822 -7.62064 0.368793 -0.595958 -0.879079
55 -7.76796 -3.84466 -8.38859 0.353608 0.109451 0.468922
682 -6.86068 -4.55498 -8.36006 -0.130013 0.145192 -0.821898
688 -7.32275 -3.58573 -7.5004 -0.244415 -0.287364 0.713733
658 -7.4386 -2.90183 -8.56197 0.424911 0.0958081 2.16394
664 -5.63076 -3.38122 -8.14795 -0.104257 0.322343 -0.970477
445 -4.62419 -3.33617 -7.73855 -0.0524865 -0.53825 0.236721
135 -3.77715 -3.34997 -8.42681 1.33448 0.855637 -0.639082
3428 -3.97617 -4.19011 -7.64181 0.369091 -0.0488243 0.534927
1289 -3.08194 -3.42913 -7.7169 0.263783 0.616131 -0.0827872
112 -3.12564 -4.20283 -8.42272 0.802979 -0.126153 0.727056
401 -2.52633 -3.35688 -8.64108 -0.568269 -0.562953 -1.30437
668 -2.24099 -4.3067 -7.91081 -1.74681 -1.48834 -0.634298
403 -1.65776 -3.3437 -7.90558 -1.36043 0.443428 0.0648461
379 -1.57545 -4.08702 -8.72338 0.339423 -0.314873 0.52093
381 -0.821857 -4.14369 -8.00691 -0.103743 -1.40127 -1.18421
405 -0.591689 -3.37848 -8.65518 -0.0568225 0.511523 -1.2617
392 -9.62532 -2.804 -7.86369 0.747153 -0.990548 -0.615536
413 -9.66933 -1.79841 -8.78803 0.520757 -1.17856 0.579493
725 -8.94665 -1.93835 -7.91012 0.183392 -1.17447 0.24918
391 -8.87105 -2.75128 -8.58976 -0.589732 0.300253 -0.188337
415 -7.90574 -1.93209 -8.55539 0.824307 -0.667614 -0.546666
420 -8.23232 -2.79612 -7.76563 -1.45922 0.624649 0.0215071
441 -6.75831 -1.72951 -9.19796 -0.46941 2.15202 -0.568184
417 -6.4032 -2.57295 -8.63525 2.02977 1.40333 -0.0832271
369 -6.52312 -2.97593 -7.65664 0.156361 0.0736298 -0.0375989
443 -6.07029 -1.76689 -8.03701 -1.83593 -0.862293 -0.201849
448 -5.14294 -1.25723 -8.69239 0.655462 0.674169 0.80955
396 -5.60352 -2.52645 -7.38652 -0.0513117 -0.546797 0.287933
733 -4.74815 -1.6873 -7.81604 -0.225046 0.181103 -0.0145421
136 -3.99173 -1.57718 -8.9457 -0.571123 -0.504258 0.33712
712 -3.97573 -2.34488 -8.02739 0.72269 0.304288 0.980008
398 -3.18259 -2.55918 -8.64149 0.185171 -1.09705 -0.885
713 -3.18739 -1.57338 -8.13219 -0.261043 -2.60507 -0.19957
425 -2.15032 -1.94313 -8.59632 1.44305 -0.129798 0.0589999
404 -2.58688 -2.48444 -7.78788 0.850847 -0.186027 0.843433
427 -1.51977 -1.87534 -7.8021 -0.214608 -0.787301 0.405615
402 -1.40244 -2.74276 -8.76012 0.719428 0.796652 -0.573488
408 -0.775948 -2.7123 -7.78431 -0.234508 0.521174 -0.395562
429 -0.849297 -1.72697 -8.6711 0.671278 1.1465 -0.892887
416 -9.71935 -1.17498 -7.77714 -0.941604 -0.298147 -0.670401
437 -9.90212 -0.254901 -8.32382 -0.472306 -0.906112 -1.06681
439 -8.79037 -1.15442 -8.64157 1.39563 -1.18588 -0.338425
151 -8.14211 -0.356167 -8.34941 1.45881 -0.423267 1.31767
729 -7.16131 -1.98758 -7.52335 0.351389 -0.532015 1.41745
726 -7.90665 -1.31166 -7.70932 -1.34847 1.64277 0.860006
751 -7.34514 -0.0301592 -7.58529 0.157378 -1.58999 -0.144266
753 -6.62146 -0.98472 -7.17514 1.42207 -0.666576 0.675517
494 -5.252 -0.149667 -8.54826 -0.195751 0.492437 0.979818
3352 -5.61207 -0.790682 -7.73792 -0.287612 1.02637 -0.0288914
734 -4.35658 -0.684892 -8.20933 -0.635639 0.858096 1.30261
154 -4.90984 0.0909739 -7.57106 1.37938 0.299508 0.5572
423 -3.91554 -0.0344089 -6.86738 0.380067 -0.828748 1.28915
158 -3.19429 -0.422317 -7.71751 -0.0842095 0.371118 0.586345
428 -2.28656 -1.14388 -7.78721 -1.60686 1.44096 0.293699
451 -1.47852 -0.280391 -7.72585 -0.225026 0.0144928 -0.116262
426 -1.57404 -1.0766 -8.65978 1.38625 0.184468 -1.65763
449 -2.34784 -0.0494024 -8.38746 1.44874 0.13015 0.749858
432 -0.793074 -1.15128 -7.66097 1.52014 -0.0216353 0.822873
453 -0.763366 -0.24221 -8.65225 0.384812 -0.454494 0.514246
3131 -3.00153 6.03656 -10.0143 -0.57477 -0.149074 -0.0528191
750 -9.0482 -0.378261 -7.8493 0.326308 0.558348 -0.414666
440 -8.88 0.543709 -8.28037 0.323264 -0.373108 1.3008
3416 -9.72402 8.30138 -10.0466 -0.054587 -0.50102 1.42213
468 -7.84743 0.934006 -8.12771 -0.456498 0.0528034 0.725633
3367 -6.35127 -0.0754145 -8.54706 0.785451 -0.128087 -0.16266
1042 -6.82611 0.782435 -7.95017 -0.566544 0.502257 -0.757901
463 -5.85854 0.484347 -7.41122 -1.06079 0.297575 1.0134
472 -5.36915 0.892559 -8.31219 0.199211 -0.437023 -0.454968
164 -3.03518 0.817772 -8.36838 -0.216085 0.35902 -0.685781
1333 -3.90129 0.364872 -7.93287 0.065349 -0.335109 0.620529
471 -4.03426 1.3757 -8.37056 1.03371 1.47131 0.470924
473 -2.12219 0.665702 -7.58223 0.260662 1.56801 0.235251
185 -1.535 0.628776 -8.44504 0.227403 -0.954411 0.881652
476 -1.54554 1.72009 -7.31298 -0.0931392 0.654896 0.517118
477 -1.00609 0.702199 -7.45745 0.641962 -1.07392 -1.80041
176 -9.1323 2.47687 -8.64653 -0.423766 -0.214655 -0.0798901
459 -9.59895 1.58481 -8.1377 1.0849 -0.41631 -1.65349
814 -0.245463 6.01503 -7.02065 0.188889 0.526903 -1.52562
180 -8.30669 1.90897 -8.20075 0.776921 -0.253131 0.0300033
1355 -7.34771 1.84396 -7.44986 0.793089 -0.547533 -0.594218
490 -6.20832 1.73355 -7.54554 0.583683 0.544402 -0.20572
540 -6.48666 2.71599 -7.81403 -0.152925 0.946788 -1.15036
207 -5.05724 1.16865 -7.39968 -0.362377 -1.24353 0.377099
545 -5.53066 2.53127 -8.2469 0.476426 0.546835 0.867189
1069 -4.77914 3.07413 -8.89246 -0.612393 -0.521374 0.91895
786 -4.29127 2.1114 -7.23494 1.34155 -0.794591 -1.11414
519 -3.26152 1.62379 -7.61208 -1.24169 -0.284286 -0.405189
1619 -3.58656 3.20046 -7.88883 0.742228 0.0158137 0.842838
187 -2.21181 1.62511 -8.17796 0.417761 1.84107 -0.874772
208 -2.94353 2.4933 -8.52552 -0.0195762 0.412932 -0.772392
762 -2.38138 2.41821 -7.34604 0.115027 0.461434 -0.629991
211 -1.62394 2.38644 -8.32345 1.0095 0.926351 1.3716
474 -0.92396 1.6444 -8.2723 0.159725 0.332951 1.55763
480 -0.934959 2.56044 -7.52261 0.955191 0.456591 -0.374946
464 -8.7683 2.6099 -7.54798 0.865274 -0.410968 0.102198
458 -9.80681 3.48307 -8.67 1.3632 -0.23439 -0.801597
773 -9.40344 4.10213 -7.7592 1.28389 0.468272 -0.175115
3084 -8.70544 3.36827 -8.31914 -0.336176 0.610065 -0.84991
1061 -7.68697 2.73024 -7.86678 0.904262 -1.38955 0.678972
1085 -8.21183 3.59043 -7.37361 -0.865877 -0.322498 0.419074
3373 -6.89984 3.92921 -9.90001 -0.494687 0.100335 -1.2917
236 -3.4435 4.29771 -8.44183 0.573784 -0.949721 0.643438
788 -2.49555 3.43063 -8.39579 -0.268836 0.334117 -0.534209
499 -1.67324 4.22935 -8.28963 -0.391259 0.906623 0.952472
789 -1.64827 3.25671 -7.59703 -1.05103 0.577662 0.103845
1050 -2.41525 4.10617 -7.56928 -0.518471 -0.293614 -0.829158
497 -0.893272 3.40039 -8.37335 0.731688 0.427376 0.496572
502 -0.933273 4.20281 -7.3761 -0.662406 0.902772 -0.167044
478 -0.125709 3.2791 -7.37879 0.192711 -0.50025 0.556074
2014 -0.364039 9.44549 -0.427726 -0.0836212 0.440228 -0.0117512
483 -9.10879 5.05431 -8.23392 0.596383 0.311748 0.529045
3295 -8.98349 0.343895 -10.2074 -0.259522 -0.373718 -0.11093
217 -9.99982 5.73625 -8.62814 0.588157 0.995206 0.341237
3390 -8.55305 4.28193 -8.75219 -0.597572 -0.982058 0.775983
511 -8.43496 4.64579 -7.18482 0.218367 1.10064 -0.691128
813 -2.03724 5.85107 -8.07236 -0.409796 0.996875 -0.858677
760 -2.89728 5.14677 -7.8241 0.459818 -1.40256 -0.32589
239 -0.8753 5.1508 -8.20143 1.13881 0.513982 1.00652
219 -10.0661 6.74553 -7.4782 -0.134571 0.188853 -0.561159
509 -9.70657 6.79871 -8.43863 -1.12004 0.314599 1.05837
1610 -7.93902 6.74809 -9.14904 -0.367596 1.56209 -0.89463
798 -8.82471 7.30282 -9.04787 -0.00125369 1.09549 -1.30679
3395 -8.18981 5.95968 -8.22171 0.500359 -0.561504 -1.13516
537 -6.97673 6.84378 -8.26373 -0.0881903 0.0773321 0.135483
833 -3.20603 6.61443 -8.54362 -1.46954 -1.58617 0.835462
528 -1.85829 6.94845 -7.76518 0.1382 -0.24787 0.456227
2747 -6.11451 -8.73624 -9.97407 0.0990529 -0.38354 0.904581
240 -0.964615 6.21666 -7.79217 -0.00141719 0.574838 -0.219404
285 -0.919114 7.05797 -8.57929 -0.117557 1.25627 0.111303
3393 -8.89089 6.90909 -7.70638 0.745453 -1.02846 0.1394
531 -9.62087 7.73579 -7.9004 0.274582 -0.0821857 -1.18874
557 -7.85263 7.04953 -7.6961 -0.781356 -0.318985 0.028512
3201 -8.47736 7.89128 -8.23162 -1.177 -0.80288 -0.218269
559 -9.04061 8.7088 -7.86282 0.145466 -0.302526 0.451428
548 -2.55729 7.82772 -7.73744 -0.69493 -0.120535 0.578361
549 -1.62014 7.8226 -8.36584 0.423748 -0.140408 0.549602
552 -0.713582 7.70834 -7.68304 -0.412364 -0.383509 0.303531
576 -0.809112 8.45434 -8.52639 0.0614543 -0.0591881 -0.868944
293 -9.47873 -10.135 -8.85213 0.594925 -0.577249 0.382088
560 -9.61633 9.64615 -8.02032 1.42279 0.387133 0.888517
538 -8.71616 9.36337 -8.71204 -0.12889 -0.29665 -0.509762
589 -7.68512 8.97161 -8.63956 0.705186 0.569515 0.665813
3204 -7.98993 9.15872 -7.67346 -0.311921 0.699776 -0.521105
534 -6.40089 9.00891 -7.63777 -0.158198 0.141937 -0.582953
565 -5.61846 9.78544 -7.80327 0.0919497 0.310249 -0.275359
593 -5.54759 9.27822 -6.7402 0.236362 -1.7653 1.95579
260 -4.50171 9.79869 -8.32024 -0.553575 -0.164411 1.35585
305 -2.87825 8.7696 -7.80566 1.37314 -0.0231102 0.179701
641 -3.06947 9.92718 -7.27497 -0.151426 -0.900761 -0.410626
834 -2.05325 9.82401 -8.18022 0.696783 0.730719 0.550719
573 -1.96715 9.8805 -7.0751 0.435258 1.39722 -1.47228
312 -0.469328 -10.2292 -8.51467 -0.663545 -0.423226 1.42577
311 -0.818667 9.40988 -7.98952 0.0263505 0.234572 -0.455661
584 -9.92118 -9.18638 -6.28339 -0.143222 0.575856 -0.707686
582 -8.91759 -9.3595 -7.20076 0.936979 -0.681696 1.68391
583 -8.74955 -10.1462 -6.33426 0.442619 -1.51872 0.264062
581 -9.77328 -10.0723 -6.97754 0.615059 0.369091 -0.211759
852 -7.99682 -10.1991 -7.20165 -1.09503 -0.347516 0.093096
588 -7.94744 -9.37126 -6.63342 1.65755 -0.563096 0.489038
347 -6.91501 -9.51173 -6.75264 0.373397 0.341548 -0.234597
299 -5.6134 -9.56959 -6.47809 1.33577 -0.246518 -0.946942
860 -4.69423 -10.047 -6.32175 0.223533 0.495713 -0.6865
544 -5.17396 -8.72266 -6.74764 0.00376376 0.923328 0.45899
825 -3.70146 -9.624 -6.56312 -0.00699007 0.218198 -1.59325
830 -2.61194 -9.70666 -7.26438 0.560226 -1.10422 2.01891
857 -2.92969 -10.2425 -6.33404 -0.0112324 -1.02435 -1.9087
596 -2.31618 -9.25453 -6.3242 -0.553259 0.100141 -0.0602414
307 -1.41932 -9.4855 -7.03897 1.10005 0.0212206 0.759693
600 -0.753256 -9.4006 -6.23101 0.774372 0.724226 -0.180274
619 -1.46596 -8.50811 -6.36028 -0.296247 0.602214 0.825945
607 -8.66155 -8.44209 -6.48152 1.13806 -0.520237 0.443455
605 -9.59031 -8.55792 -7.01079 1.14447 1.19887 -0.117813
608 -9.63763 -7.71373 -6.26645 0.125253 0.0463017 -0.0736281
606 -8.9275 -7.70465 -7.02805 -0.13467 -0.416103 0.277139
322 -7.45418 -8.56834 -7.06864 -0.73989 -0.37084 -0.436428
612 -7.9781 -7.77031 -6.06671 -0.207184 0.894052 0.0938329
352 -7.09957 -7.656 -6.76108 -0.974084 0.558829 -0.925869
3184 -6.35793 -8.53498 -6.79659 0.198014 -0.31183 -0.323403
587 -6.50979 -7.86054 -5.92231 -0.848688 -0.0771526 0.398084
856 -5.71653 -8.8038 -7.64768 0.399851 -1.50468 -0.150953
2894 -5.58701 -7.76308 -6.55921 -0.958883 0.198537 0.945188
1086 -3.98331 -8.00283 -6.50989 0.292763 0.171014 0.27467
61 -3.1869 -8.60888 -6.60315 -0.495144 -0.303972 1.2007
637 -3.2582 -7.13299 -6.34425 0.774775 -0.894012 0.152554
355 -2.20561 -8.32462 -7.14499 0.719782 0.148577 -0.86016
929 -2.49182 -7.97379 -6.25175 1.37744 -0.170672 1.56751
624 -1.28254 -6.90607 -7.31993 1.58155 -0.652053 -0.122539
910 -0.567876 -7.85937 -6.20462 0.422208 -0.165067 0.44465
629 -9.64518 -6.83045 -7.09045 -0.0706672 -0.307751 0.442442
632 -9.83158 -6.13468 -6.01064 0.369268 0.802247 -0.662113
631 -8.86155 -6.95726 -6.14904 0.614304 -0.449623 1.45657
630 -8.90562 -6.06904 -6.95759 -0.956696 0.725591 0.601904
634 -8.0086 -6.95837 -6.88094 1.3465 1.09793 0.24131
636 -8.16394 -6.05556 -6.11008 0.619132 0.959933 -1.07476
971 -7.23104 -6.14357 -6.75887 -0.802342 -1.12563 -0.8574
665 -6.38763 -6.88812 -6.63656 1.24998 -0.0436509 0.322503
659 -6.51765 -5.96408 -5.97613 -0.801425 0.874903 -1.96277
563 -5.22777 -6.04134 -6.5199 -0.558468 -0.0715999 -0.157667
685 -4.45691 -6.87532 -6.56894 0.740155 -0.117898 0.832087
349 -3.73694 -6.00763 -6.17834 -0.61944 -0.388717 0.0624825
92 -3.16833 -5.92817 -7.1283 0.28477 -0.925555 -1.26815
955 -1.48959 -7.05874 -6.11128 -0.851682 -0.184821 0.612025
643 -0.460761 -6.81277 -6.44325 0.894949 -0.241437 0.474186
331 -0.395652 -5.961 -7.31763 -0.845865 -1.50568 -0.397749
647 -0.69746 -5.66415 -6.2179 0.153022 -1.17884 -0.381631
953 -1.47044 -5.96201 -6.94261 1.23101 -0.520712 0.603746
653 -9.72665 -5.27097 -7.09911 -0.0644922 -0.0934569 -0.375249