ITEM: TIMESTEP
160000
ITEM: NUMBER OF ATOMS
6912
ITEM: BOX BOUNDS pp pp pp
-1.0259855680060181e+01 1.0259855680060181e+01
-1.0259855680060181e+01 1.0259855680060181e+01
-1.0259855680060181e+01 1.0259855680060181e+01
ITEM: ATOMS id x y z vx vy vz
8 -9.54613 -9.55843 -9.24909 -0.229845 -0.123366 -0.0484829
6 -7.93635 -9.76727 -9.68977 -0.364304 0.542417 1.51923
326 -2.20019 -8.59284 -8.59286 0.835893 1.05219 -0.251903
308 -2.02496 -9.26102 -9.45261 0.0400232 -0.362235 0.564478
43 -1.03605 -9.48303 -9.86366 -0.106806 -0.251628 0.49274
2475 -10.1187 -1.4415 -0.197777 -0.358544 0.165346 -0.337808
32 -9.55245 -7.7885 -9.3167 -0.154128 0.419684 0.212277
31 -8.78833 -8.65312 -9.46211 2.03126 -0.114289 -1.45606
9 -7.87742 -7.86686 -9.47905 -0.312163 -0.035251 0.434629
509 -10.2276 5.89185 -8.29138 -0.739186 0.368309 -0.186859
77 -9.47116 -5.30044 -9.99993 0.0896447 0.726958 0.0636408
44 -1.78508 -8.32751 -9.98173 0.55765 -0.275064 0.451082
336 -1.78217 -7.71187 -9.15558 -0.65852 1.08414 -0.339403
357 -0.856269 -7.79203 -9.79694 -0.22621 1.18798 -0.0455242
330 -1.10274 -8.44118 -8.9302 -0.602527 0.439112 -0.411411
47 -0.302462 -8.84707 -9.71891 0.124236 -2.51759 -0.234369
56 -9.48043 -6.09162 -9.26873 -0.461274 -0.971915 0.618694
30 -8.65941 -6.90551 -9.13566 -0.185811 0.0952941 1.19959
109 -7.92509 -6.07052 -9.14963 0.0576635 0.564664 0.220514
983 -0.0977638 -3.51407 -4.49109 0.183019 -0.00395941 0.974944
41 -3.6219 -6.07812 -9.75056 -0.177439 -0.0521516 -0.540021
3212 -2.68558 -6.90679 -9.27903 -0.270767 -2.02919 -0.450931
3446 -2.61442 -6.12596 -10.0974 -0.671726 0.221418 0.548253
66 -1.9395 -7.00715 -9.94016 -0.877811 0.334144 -0.262296
37 -1.76375 -6.17701 -9.09345 1.15803 0.877332 1.31982
3036 -5.03293 1.66582 -9.84876 -0.151175 0.35736 -0.00756356
638 -0.94574 -6.90567 -8.87249 0.696356 0.628287 1.1372
72 -0.755237 -6.01742 -9.65813 -0.986898 0.21667 -1.67725
29 -9.59041 -8.50112 -10.0771 -0.00720229 0.236646 -0.43571
360 -0.10141 -6.08722 -8.82319 -0.504283 -1.28886 -0.551217
80 -9.52606 -4.44398 -9.39918 0.224219 -0.646514 0.568929
633 -8.65531 -5.32282 -9.11008 1.17844 -0.862908 -0.190111
3275 -7.76609 -5.31295 -10.0183 -0.837763 -0.131093 0.35497
2989 -6.53784 -4.42949 -9.35529 0.543726 -0.377858 -0.815163
38 -4.33852 -5.06056 -9.46351 1.15461 0.107437 -0.298546
350 -4.64013 -4.11028 -8.86979 -1.04493 -0.236753 -0.807954
687 -3.45389 -5.14614 -8.74662 0.735298 0.237638 1.54359
2482 -2.91166 -5.16265 -9.63096 -1.02462 -0.581875 0.17032
93 -1.78171 -5.26133 -9.83188 1.56627 -0.274868 0.013504
95 -1.08786 -5.29091 -8.935 0.550121 -0.708652 0.65283
382 -0.289812 -4.21755 -8.8021 0.734464 1.9886 0.462165
96 -0.924139 -4.4239 -9.67609 0.441687 0.841251 0.135591
5068 -0.26787 2.52127 -1.23334 0.47808 0.512017 0.888982
1586 -10.0315 1.87707 -2.23939 0.172827 0.0349811 -1.51971
372 -7.85807 -4.49658 -9.37136 -0.312785 0.674096 1.29896
103 -8.7432 -3.63371 -9.33209 -1.03704 -0.989686 0.520919
78 -8.63421 -4.66053 -10.0501 0.81738 -0.700629 0.416726
197 -10.136 2.49459 -9.5714 0.069689 0.157108 -0.951691
1998 -8.14404 10.1372 -0.0645812 -0.0816128 -0.260923 -0.0122543
107 -7.5507 -3.5309 -9.16384 0.207564 -0.776933 0.450793
395 -6.57215 -3.43837 -9.8841 0.79948 0.520099 0.366001
81 -5.45746 -4.28317 -9.4295 0.0789812 0.199301 -0.336549
684 -5.40719 -3.36172 -8.88259 -0.194066 0.482821 -0.158729
3260 -4.59839 -3.59195 -9.69707 0.351854 0.0104641 -0.137429
435 -10.0872 -0.119994 -7.32369 -0.577875 -1.14204 0.476952
254 -3.67194 -4.23289 -9.56139 -0.502852 0.358903 0.476494
112 -2.97337 -4.18786 -8.56294 0.775142 0.709149 -0.45235
375 -2.98526 -3.37293 -9.56287 1.04198 -0.269532 0.611708
378 -2.3419 -4.12339 -9.4544 0.240301 -1.14352 -0.927379
115 -1.326 -3.30717 -9.39215 -0.321715 0.380802 -0.52696
119 -0.200021 -3.42487 -9.52444 0.13139 -0.468218 0.446824
104 -9.57414 -2.84503 -9.49972 -1.25018 0.987517 1.0449
414 -8.73325 -1.77189 -9.3397 0.931071 0.592856 0.605442
803 -2.46502 5.06027 -0.0340974 -1.97119 -0.109354 -0.47278
53 -9.37764 -6.81338 -10.1338 -2.23826 1.38262 -0.983226
393 -8.10368 -2.66145 -9.20004 -0.874169 0.342438 0.443233
126 -7.84815 -1.69496 -10.1652 -0.123929 -0.22254 0.1719
441 -7.36706 -1.76889 -9.19636 0.491099 -0.738101 0.394682
390 -7.24988 -2.70273 -9.94343 -1.02887 -0.505232 0.36746
417 -6.40038 -2.63177 -9.12654 0.427166 -0.433634 0.266985
129 -6.31308 -1.88182 -9.84501 -0.815412 -0.81788 1.00855
397 -5.44823 -2.64812 -9.72326 -0.822574 1.34166 -0.220658
418 -4.54375 -1.79929 -9.62209 -0.530803 -0.229797 0.209734
442 -5.45409 -1.85022 -9.02903 0.459171 -0.467394 0.833989
3303 -3.78368 -2.69738 -9.56686 0.0899998 1.07274 0.601022
422 -2.90331 -1.61049 -9.45407 0.355106 -0.603384 -0.320989
116 -2.2522 -2.50711 -9.47618 0.848959 0.70265 0.0771314
149 -8.78098 -0.825052 -10.1216 0.862134 -1.07019 1.41317
139 -1.29527 -1.74432 -9.30514 0.280585 -0.0347535 0.0572918
120 -0.447303 -2.44717 -9.14687 -0.630715 0.279481 0.69541
141 -0.54962 -1.58817 -10.1321 -0.0658055 -0.306055 -0.1285
434 -10.1701 0.722619 -8.07824 0.535937 -0.913841 0.764257
128 -9.65691 -0.988753 -9.19218 0.154513 -0.188273 0.105477
146 -9.68392 -0.259942 -10.089 0.0980245 -0.528359 -1.51903
150 -8.86242 -0.324369 -9.03075 -0.194687 -0.0818043 -0.448437
3529 -0.206241 -5.10035 -9.68174 0.229359 0.291658 1.42947
151 -8.08659 -0.938098 -9.23433 -0.450592 0.929751 -0.883834
3324 -8.20567 -0.0900648 -9.88574 -0.141417 -0.62196 -0.460461
465 -7.20423 -0.343883 -8.99295 0.696973 0.514473 -0.231948
3297 -7.11021 -0.917886 -10.0389 -0.529194 -0.921007 0.17313
132 -6.54151 -1.14282 -9.08441 1.07373 0.904095 0.381224
3300 -6.21018 -0.0450465 -10.0539 0.440114 0.120471 -0.513499
371 -4.56648 -6.83011 -9.43857 0.425531 0.778475 1.04906
130 -5.62396 -1.02243 -9.66728 0.985613 -0.100357 -0.380498
3352 -5.66108 -0.28835 -8.96735 0.458404 0.128035 -0.940291
184 -4.70348 -0.206395 -9.54873 0.0839737 0.691573 -0.187231
160 -3.71066 -1.00052 -9.44979 0.370089 -0.00774568 0.499182
140 -2.10029 -0.837831 -9.44537 -0.192991 -0.5817 -0.309573
867 -10.1812 10.1305 -4.25528 1.39313 -0.857842 -0.169394
144 -0.592465 -0.780459 -9.39311 -0.0977497 0.21214 -0.822739
165 -0.523661 -0.0285455 -10.0899 -1.23671 -0.278212 -1.75248
152 -9.63901 0.44862 -9.19547 -0.467675 0.69423 0.437792
175 -9.1236 1.43673 -9.15574 1.10818 -0.281055 0.488372
3343 -9.04735 0.715373 -10.0604 -0.578597 0.14844 0.441397
156 -8.34398 0.676222 -9.07535 0.506708 0.569099 0.0578669
201 -8.21734 1.43507 -9.87113 -0.149659 -1.46282 0.0969952
177 -7.40055 0.599734 -9.69431 0.642702 -0.109068 -1.74768
178 -6.55262 0.613215 -9.01053 0.678996 0.949616 -1.00327
3367 -7.60623 1.39156 -9.10998 -1.22178 0.168388 -0.828323
801 -5.44174 0.637632 -9.43942 -0.741825 -0.197288 0.85225
234 -4.45693 1.60797 -8.81799 -0.20393 0.772164 -0.498877
159 -2.87075 -0.12092 -9.30613 0.821635 0.176916 -0.618218
3371 -3.48036 0.722252 -9.24006 0.0095803 0.18866 1.28707
3327 -2.97247 1.06066 -10.0274 0.326303 -0.351754 -0.592206
163 -1.40143 0.0503891 -9.32892 -0.322211 0.522143 -0.073526
187 -2.29101 0.874586 -9.19473 -0.0837691 -0.184955 0.898407
189 -1.43274 0.89473 -9.95876 2.44445 0.353331 -0.778193
161 -2.10982 -0.0542779 -10.1024 0.14703 0.0317968 -0.593475
168 -0.645932 0.753624 -9.15565 -0.456856 -0.392272 0.478959
173 -9.87853 1.41997 -10.1114 -1.01521 0.48333 -0.402606
176 -8.9633 2.33916 -9.79619 0.93249 0.386039 0.404617
199 -9.33816 2.45672 -8.70771 0.353899 1.52947 -0.791297
2414 -4.32171 -4.51009 -0.168587 0.0232076 0.0940572 0.763246
773 -8.36832 2.35999 -8.8912 0.835018 -0.0904645 0.405434
2748 -6.37578 1.17996 -10.028 0.0366596 -0.466354 -0.335959
200 -7.26538 2.41809 -10.0651 0.646889 -0.382269 0.585327
3400 -5.62925 2.33859 -9.24188 0.0638717 -0.136377 0.510305
1071 -3.81134 2.3631 -9.16971 -0.618147 -0.0490889 -0.270412
206 -2.92599 1.73139 -9.13537 0.0583183 -0.745512 -0.130151
113 -2.18989 -3.37017 -10.2015 -0.476411 -0.0654193 0.741323
3374 -2.02826 2.52378 -9.08694 0.143163 -0.137729 -0.809695
213 -1.60869 2.59424 -10.0186 0.136746 0.541163 0.0355387
3332 -2.16584 1.69298 -9.80559 0.0879482 0.604494 0.178901
501 -1.35944 1.62786 -9.14037 1.0587 -0.49517 0.950803
192 -0.693468 1.69983 -10.0331 -0.883316 -0.485286 0.310961
215 -0.874198 2.66546 -9.05601 0.639416 -0.958874 0.446398
298 -9.21877 4.2223 -10.04 -0.542012 -0.0494849 0.275515
774 -9.31427 3.25667 -9.49776 1.32435 0.87585 1.45852
491 -3.8137 1.66738 -10.0942 -0.210614 0.818863 0.61015
228 -9.40513 4.16213 -8.86194 0.0558426 -0.201043 0.637654
232 -8.21177 3.05285 -9.76748 -0.363697 -0.556944 -0.518728
539 -8.20835 4.37205 -9.64027 -0.677912 -0.855119 -0.0123368
2746 -6.88791 3.89239 -9.70916 -0.276018 -0.133413 -0.049044
2464 -2.91564 2.93427 -9.01522 -0.105925 0.682527 1.68163
3404 -2.40248 4.31445 -9.2105 -0.141342 0.68148 0.718543
209 -1.46869 3.4532 -9.28416 -1.05453 -0.113409 -0.597998
212 -2.33383 3.34091 -9.93635 -0.442254 0.730491 0.82653
3399 -1.49951 4.38907 -9.88788 0.0819975 -0.397031 -1.22427
3384 -0.75855 3.43106 -10.0045 -1.09951 -0.258755 -0.727426
498 -0.560209 4.13064 -9.20568 -0.864306 -1.22259 -0.788034
221 -9.86115 5.17885 -10.0665 -0.374952 0.161604 0.764909
1614 -8.99349 5.27766 -9.12763 0.454358 0.142157 -0.00824335
219 -10.0037 4.9974 -8.92221 -0.161726 1.12345 -0.902141
230 -7.62165 3.89328 -8.72074 0.399956 1.0756 -0.0566815
1657 -10.2399 5.84415 -1.36169 0.782423 -0.235165 -1.17245
231 -3.01476 5.10784 -8.90236 -0.040492 -0.169406 0.525085
3423 -2.39544 5.18118 -9.86628 0.810642 0.223817 0.0504193
3144 -1.37826 5.29893 -9.29131 0.002188 0.561664 -0.892277
3403 -0.610512 5.0457 -9.98288 0.714312 0.255479 -0.432499
2776 -1.47269 5.87648 -10.1417 -0.0541135 1.56831 0.164326
3040 -4.41254 0.799659 -9.63779 -0.532122 0.108727 1.35444
224 -9.88165 6.00268 -9.26732 -0.148959 0.773012 0.589792
2242 -9.13556 6.91007 -9.14743 0.819163 -0.0457178 0.549655
222 -8.98832 6.03083 -9.98752 -0.896416 -0.467593 -0.206195
249 -8.2916 6.94445 -10.0587 0.21188 -0.508214 -0.158112
3396 -7.98283 5.77536 -9.70331 -0.523184 -0.0226957 1.30237
2462 -2.42936 6.08484 -9.10486 0.575406 -0.149466 -0.529584
3378 -2.12649 6.63515 -10.1447 1.47758 -0.387918 0.461428
261 -0.48555 5.91129 -9.25482 1.40451 -0.255769 0.488429
3377 -1.34929 6.64265 -9.32134 -0.400417 -0.00709481 -0.0927177
3405 -0.540049 6.713 -9.99746 -0.409677 0.278885 0.82214
248 -9.94288 7.73848 -9.45141 0.492859 -0.968365 -0.0873915
246 -9.03781 7.65102 -10.157 -0.876287 -0.777465 1.25749
538 -9.13047 8.44351 -9.39237 -1.19228 0.918674 -0.0132241
534 -8.1868 7.63189 -9.42332 0.0697739 0.768101 0.424356
2507 -2.19657 7.33957 -9.31481 -0.979152 -0.921434 0.00862875
3455 -0.552864 7.50106 -9.23266 -0.352812 -0.526346 0.0123019
570 -1.65558 8.37572 -9.40365 -0.107233 -0.677053 -0.869769
3432 -1.31975 7.36659 -10.1201 0.685894 -0.392644 0.772131
282 -0.65767 8.31832 -10.0825 -0.748924 -0.540398 0.292971
7 -8.85837 10.1038 -9.30308 -0.146856 -0.446552 2.22144
272 -9.80228 9.44943 -9.18623 -0.613001 -0.706424 0.201056
3443 -7.98336 9.6364 -9.86177 -0.121286 -0.523027 0.483042
1345 -10.2279 4.47507 -6.46996 -0.488938 -0.656444 -0.930076
258 -2.07974 10.2095 -10.2253 -0.510069 0.318144 -1.9655
305 -1.35529 10.0486 -9.34873 1.32498 0.659991 -0.0445813
23 -0.552444 9.20258 -9.31774 1.42399 0.279653 0.0439651
3351 -3.62427 -0.132584 -10.1264 -0.279595 -1.08809 -0.967949
296 -9.85619 -9.41517 -7.78516 0.604559 -1.2468 0.587081
294 -8.7149 -9.54985 -8.71893 0.50502 -0.518567 -0.360374
295 -9.04201 10.2374 -7.60116 0.0362314 -0.0602461 -0.78041
3184 -8.16666 -9.57669 -7.71827 0.876189 -1.10343 -0.445632
12 -6.55554 -9.59071 -7.33502 0.23826 1.99865 0.187283
20 -2.92601 -9.31519 -8.78514 0.206938 0.754444 0.516857
617 -2.34637 -9.53939 -7.76572 0.727475 -0.97329 0.0419735
306 -1.44169 -9.4407 -8.59719 0.479825 -0.6329 -0.166816
312 -0.735703 -9.58961 -7.89081 -2.07994 -1.34811 -0.855592
641 -1.47034 -8.75795 -7.68615 -0.0740361 -0.743795 0.329584
317 -9.4637 -8.77157 -8.54629 -0.378902 -0.080665 -0.340758
320 -9.41393 -7.87032 -7.70472 0.985027 0.138933 0.798044
319 -8.97403 -8.80143 -7.68316 -0.44605 0.0608689 0.436741
318 -8.64481 -7.78165 -8.57286 -0.591927 -0.0517928 -0.867155
11 -8.00983 -8.69484 -8.5018 0.644289 0.609468 0.756658
322 -8.32023 -8.001 -7.59457 0.351799 0.094488 -0.439173
300 -7.46065 -8.7088 -7.58633 -1.00484 -1.14311 -0.489184
332 -3.96152 -6.5907 -7.18707 -0.591326 0.0561378 1.264
3164 -3.11936 -8.10334 -9.54727 -0.0792567 0.178535 0.715221
281 -2.2905 -7.77291 -7.83417 1.06234 -0.455745 -1.25438
618 -2.42809 -8.65449 -7.17821 -0.498162 -0.624671 0.533218
331 -1.1973 -7.82827 -8.06081 -0.642607 -0.628199 -0.274031
335 -0.448872 -8.5223 -7.99215 0.815628 0.576053 1.04521
341 -9.47628 -6.88559 -8.51795 -0.206768 -0.491831 -0.390527
344 -9.64737 -6.06336 -7.7468 1.69532 -1.03706 0.515398
343 -8.78488 -6.98041 -7.67859 0.450398 0.764211 1.5993
342 -8.72871 -6.1375 -8.41573 -0.607741 0.446202 0.132526
616 -7.81306 -6.86087 -8.40831 0.363382 0.276224 1.05836
36 -7.73671 -5.84843 -8.14005 0.0504249 0.710452 0.436586
648 -2.94623 -6.69874 -7.83553 -1.15284 0.201787 -0.0977896
92 -3.72641 -6.18709 -8.30388 -1.38408 -0.256791 -1.8862
349 -2.93645 -6.01702 -7.04181 -0.782682 -0.470724 1.23781
327 -1.83617 -6.93067 -8.2982 -0.273327 0.547462 -0.0765857
645 -2.06586 -5.94801 -7.85236 0.874111 -0.206891 0.612285
569 -2.12295 -6.83038 -7.10493 0.713168 -0.768716 0.635933
359 -0.0507657 -6.82312 -8.10904 -0.859424 0.0858094 0.104318
356 -1.08074 -6.13559 -8.12073 -0.0433059 -0.381072 -0.480103
643 -1.17084 -6.86668 -7.2696 -1.11922 -1.2261 0.712806
669 -0.267903 -6.12727 -7.34241 -0.544044 -1.21885 1.37171
365 -9.62879 -5.23875 -8.59453 -0.778744 -0.512332 -0.076697
348 -8.58276 -5.16923 -7.78755 -0.385392 0.301382 0.273224
79 -8.67312 -4.37831 -8.47382 -0.356291 0.797477 -0.808947
86 -7.14298 -5.34761 -8.92305 0.847572 -0.683109 -1.32179
367 -7.89433 -4.42932 -7.57089 1.30389 -0.981487 -0.975999
324 -7.05973 -5.15707 -7.52383 -0.361965 0.451768 -0.249714
974 -4.60868 -5.19827 -8.33872 0.387947 0.223322 -0.109057
329 -5.4405 -4.09566 -8.18443 -0.10021 -0.0772145 1.57619
424 -2.95912 -5.33663 -7.86248 0.992756 0.112201 -0.037408
400 -3.77272 -5.21764 -7.26823 -0.592809 -0.459034 0.548396
3452 -2.78563 -5.99194 -8.74984 -0.239982 1.30487 -0.196344
376 -2.19663 -4.99835 -8.8516 -1.34861 0.0208344 0.683732
354 -1.38233 -5.11186 -7.92637 0.460979 0.476813 0.485309
383 -0.280099 -5.24718 -8.09633 0.050665 0.85345 -0.503997
368 -9.55892 -4.52995 -7.80165 0.823435 -0.637499 0.586311
389 -9.48375 -3.56714 -8.62718 -0.415646 -0.37175 -0.630667
657 -8.89416 -3.69841 -7.38949 0.190846 0.86183 1.33282
55 -8.16898 -3.4036 -8.36554 0.366768 0.955302 0.144337
682 -7.12201 -4.18774 -8.55186 0.1899 0.710858 -1.59276
366 -7.30767 -3.31458 -7.51938 0.533784 0.27371 -0.987894
664 -6.32452 -3.34521 -8.27647 0.537371 -0.320861 -0.328222
445 -4.75526 -3.3955 -7.98971 0.403504 0.375632 -0.321951
135 -3.74114 -3.49656 -8.74414 0.802501 0.835538 0.672602
3428 -3.85338 -4.18846 -7.97109 -0.489726 -0.258438 -0.540185
1289 -3.00662 -3.45113 -7.70518 0.320136 0.440261 0.533234
401 -2.18515 -3.42918 -8.64543 -0.191594 1.06711 -0.396143
668 -2.10525 -4.25958 -7.89307 -0.810304 0.0628595 -1.19396
403 -1.37516 -3.47294 -7.76792 1.70127 -0.475706 0.516854
379 -1.31769 -4.12697 -8.75138 0.465805 0.00207312 -0.219484
381 -0.494344 -4.19261 -7.84865 -0.400942 0.68981 1.17772
405 -0.540851 -3.29735 -8.45432 -0.137131 -0.154453 0.0453928
392 -9.55876 -2.88618 -7.72858 -0.00162771 0.673694 0.0670305
413 -9.64388 -1.82205 -8.53277 -0.286986 -1.66677 -0.619625
725 -9.01933 -1.9555 -7.71553 -0.234447 0.0732758 -0.106197
391 -8.96217 -2.5979 -8.57011 -0.985129 1.06501 0.527523
678 -8.28788 -2.6783 -7.5682 0.84186 0.237618 1.1096
415 -8.11037 -1.98766 -8.31504 0.143589 -0.442121 0.786033
420 -7.44827 -2.1073 -7.57286 -0.317409 0.582783 -0.0401952
658 -7.23061 -2.64438 -8.41098 -0.904412 -0.977006 -0.210126
443 -6.44899 -1.96176 -8.23492 -0.401484 0.205856 -1.43813
133 -4.56436 -2.66033 -8.89646 -0.705335 -0.0917879 1.34423
396 -5.5984 -2.49599 -8.00506 0.64795 -0.769335 -0.458064
733 -4.83656 -1.76858 -8.09411 -0.885334 2.34094 -0.0813072
730 -5.61209 -1.82092 -7.21096 0.338648 -0.681535 0.936109
136 -3.71829 -2.00233 -8.66387 -0.493982 0.273974 0.87522
712 -3.89215 -2.80274 -7.98566 -0.312978 0.362209 -0.464595
713 -2.9657 -1.90659 -7.81217 0.561526 -1.2186 -1.09174
398 -2.87224 -2.65911 -8.55878 0.370985 0.497168 0.056208
404 -2.12964 -2.69319 -7.72279 1.1621 1.09959 -0.905838
425 -2.20016 -1.73301 -8.58196 0.651046 -0.14232 -0.20815
427 -1.41479 -1.78011 -7.70615 0.720173 0.69902 0.479202
402 -1.34229 -2.56207 -8.51625 -1.05807 0.567007 0.817998
408 -0.59906 -2.48719 -7.69257 -0.0219112 0.939101 -0.798599
429 -0.543508 -1.60639 -8.46355 -1.26787 -1.311 0.814824
3223 -8.71998 -7.69765 -10.2039 1.04255 -0.0642668 -0.879285
416 -9.88942 -1.27693 -7.73073 -1.00602 -0.0350625 -0.541122
437 -9.71743 -0.27601 -8.36142 0.388247 1.4204 0.207879
440 -8.93637 -0.398462 -7.67654 0.836835 -0.274315 0.359285
439 -8.80793 -1.22693 -8.4156 1.34044 0.560148 -1.25305
726 -8.134 -1.22642 -7.52302 -0.652374 0.232646 0.239134
468 -8.06823 -0.164201 -8.24779 -0.979818 0.151018 0.21283
203 -7.42827 -0.172794 -7.35993 -0.872831 -0.275185 0.51655
753 -7.21034 -1.23549 -8.22479 0.0457431 0.331931 -1.95471
153 -6.61296 -0.292273 -8.15673 1.34228 -0.400711 0.0305848
1018 -6.56534 -1.07506 -7.35354 0.994816 -2.06391 -2.11616
155 -4.70776 -0.871193 -8.75502 -0.194256 -1.0139 -0.250779
448 -5.64812 -1.07555 -8.16882 -0.25007 0.964685 -0.108536
467 -4.87558 -0.342654 -7.74562 -0.522855 0.185763 0.277264
158 -3.78014 -0.147113 -8.73337 -0.563907 -0.558737 0.966079
446 -3.93753 -1.06215 -7.98703 -1.41709 -0.67528 0.843034
423 -2.92128 -1.01387 -8.63927 0.1437 0.102272 0.707558
183 -3.08368 -0.206176 -8.01729 1.20116 1.73979 0.446004
428 -2.17519 -1.02484 -7.79235 -0.120686 0.784495 0.931763
426 -1.3783 -0.829434 -8.61947 -0.243476 0.906085 -1.06887
451 -1.37832 -0.253593 -7.60596 0.448266 1.2376 -1.16418
449 -2.08239 0.00927424 -8.53951 -0.1677 0.967929 0.602262
432 -0.550307 -0.969142 -7.43803 0.181536 1.30092 0.642227
453 -0.676933 -0.0680144 -8.30534 -0.109843 -1.01243 0.19469
333 -0.434772 -9.57984 -8.96387 1.1684 -0.271734 -1.29346
1119 -3.22373 2.69072 -10.0995 0.562449 -0.329183 0.235311
438 -9.06177 0.495593 -8.24896 0.342307 0.426099 0.497516
749 -9.32744 0.655448 -7.27563 1.05305 -0.557142 0.0441687
826 -9.80077 5.81704 -6.20795 1.04782 -0.0419633 1.47137
466 -8.19411 0.625175 -7.51543 0.83433 -0.346693 0.340941
463 -7.37614 0.737633 -8.15268 0.460429 0.724072 -0.80598
1355 -7.35432 1.67348 -7.10951 0.324468 0.146693 0.758381
470 -4.75591 0.437111 -8.53281 0.857987 1.33061 -0.585169
204 -5.7735 0.390504 -8.13407 0.541222 0.0427152 -0.412101
1333 -4.56422 1.47866 -7.77655 0.00666122 -0.453357 1.11552
164 -2.83055 0.922241 -8.22836 0.519857 -1.10851 0.552358
469 -3.83862 0.641753 -7.8323 0.908828 0.423206 -0.0828253
473 -2.01868 0.580273 -7.55495 -0.525568 -0.674033 -0.419982
450 -1.3175 0.807343 -8.33645 -0.544857 0.678238 0.668304
477 -0.74296 0.775036 -7.45093 -0.872875 0.151902 1.38604
461 -9.40922 1.81004 -7.88064 -0.932873 -1.96855 0.107153
540 -8.69118 2.64954 -7.73573 0.173196 0.0247005 -0.293929
1728 -1.08348 9.45358 -1.35259 -0.274996 -0.491672 0.232086
180 -8.50887 1.40876 -8.30137 -0.819414 -0.32554 -0.532178
490 -7.56938 1.941 -8.0866 1.15562 1.52011 -0.612741
3060 -6.48566 1.5433 -7.79166 0.609574 -0.0117653 -0.80006
2779 -6.52847 1.91501 -8.89005 0.187057 -0.299521 -0.267722
782 -5.65801 2.45655 -8.15428 -0.151949 -0.14843 0.939709
3344 -5.61362 1.3025 -8.59937 0.647043 -0.670785 -1.12304
233 -4.79154 2.38878 -7.43783 -0.0542403 -0.0695328 0.11466
16 -3.68518 2.20164 -7.23341 1.03137 0.319135 0.0348131
207 -3.59475 1.62838 -8.19932 1.17079 1.06831 -0.16062
471 -2.56945 1.41506 -7.24547 -0.229189 0.992726 0.581744
3375 -4.06425 3.03699 -8.25412 -0.22949 0.0268395 0.0224893
185 -2.08745 1.70369 -8.41085 0.233829 -0.0974048 0.105632
188 -2.79497 2.55001 -7.96981 -0.307256 -0.00236229 -0.482238
211 -1.51774 2.48348 -8.14716 1.12792 -0.662894 -0.347099
863 -0.0630588 8.57577 -6.06262 -0.607757 -0.705828 0.0756538
474 -0.675296 1.60567 -8.13672 0.100344 -0.796491 0.177403
480 -0.657526 2.44358 -7.5497 -0.425336 0.671959 0.027104
1527 -4.32049 -5.96588 -0.020945 -0.0439081 0.61345 1.32127
482 -8.59893 3.38686 -8.81105 -0.181138 -1.57164 -0.074326
1046 -9.32188 3.59542 -7.95158 -1.17833 -0.507162 0.626219
2014 -0.182285 9.41839 -0.304157 1.51634 0.299703 -0.194297
770 -7.39521 2.82663 -9.04681 0.557479 0.635185 -0.0262972
2460 -8.60561 4.52312 -8.31963 1.50348 -0.318621 0.386943
1332 -7.76445 3.14492 -7.79548 0.370853 -0.0249978 0.0521685
3373 -6.8445 2.64003 -7.55975 0.0284451 0.440909 0.336074
784 -3.36878 3.83825 -9.23931 0.00279778 -0.590817 -1.45161
1069 -3.1279 3.77704 -8.18885 -0.706996 0.442591 0.348873
236 -2.09348 3.37433 -8.38187 1.05208 0.96878 0.417835
783 -2.11087 4.32414 -7.74615 -1.53175 0.592113 0.410812
499 -1.39559 3.34181 -7.49532 -1.68381 -1.35718 1.365
788 -1.37681 4.36378 -8.60603 0.356443 0.0681848 -0.278203
497 -0.772545 3.43701 -8.39114 1.30899 -0.289769 0.457837
502 -0.81036 4.40974 -7.66879 -0.127646 0.060764 0.545687
1374 -9.37878 5.13415 -8.1054 0.477813 0.520528 0.334242
271 -8.16496 8.44224 -10.1415 -0.249041 -1.13201 -0.687118
247 -7.81592 5.29002 -8.68979 0.100965 1.86739 0.337741
1610 -8.21708 5.81515 -7.66568 -0.965742 -0.635022 0.220149
1357 -3.08519 5.0829 -7.82502 -0.274308 0.207326 -0.273187
525 -2.0929 5.06877 -8.44703 1.48779 0.33285 -0.00332672
805 -1.53809 5.17812 -7.50971 -1.12089 0.0347808 -0.78539
1669 -3.35116 6.22001 -8.52616 -1.15488 0.482185 1.24772
239 -0.643893 5.13225 -8.56642 0.0939923 0.166519 0.827426
240 -0.691029 5.82524 -7.48295 0.631057 -1.59173 -0.522206
506 -9.05124 6.10864 -8.31399 0.506749 -2.14255 0.0834811
533 -9.96686 6.98853 -8.54606 0.194132 -0.359464 0.374366
1802 -9.75423 -5.21301 -0.1277 0.602703 0.32048 0.310365
623 -0.0412238 -8.74194 -6.17731 0.23342 0.143257 0.189689
3395 -9.33197 6.94521 -7.69187 -0.298618 -0.14751 0.532625
537 -8.36929 6.89496 -8.39765 1.14953 1.21364 0.149419
237 -3.579 6.81565 -7.16855 0.133208 1.71334 1.51771
548 -2.29521 5.88481 -7.69132 0.767703 1.2555 1.56041
283 -2.32137 6.832 -8.33676 0.199034 -0.41266 1.14875
521 -1.48907 5.9128 -8.33835 0.313987 -0.558372 -0.812594
549 -1.40065 6.75483 -7.6611 0.133011 -0.435885 0.605377
285 -0.684796 6.61002 -8.42975 -0.258162 -0.443865 0.942963
536 -9.82407 7.85777 -7.58547 -0.472669 -0.110259 -0.262432
557 -9.83246 8.53913 -8.44645 -1.00742 -0.352473 -0.745167
559 -9.1025 8.63927 -7.4109 1.52491 -1.42749 -0.18264
276 -9.05234 7.83956 -8.5789 -0.620005 0.271614 0.203391
821 -8.59837 7.67678 -7.50212 -0.549117 0.504505 0.477565
546 -1.52667 7.65612 -8.28361 -0.652105 -1.19889 -0.700133
568 -2.49232 7.57897 -7.60933 -0.86313 -0.165504 1.26812
566 -2.35851 8.25295 -8.61138 0.609992 -0.807086 -1.77887
573 -1.54557 8.5927 -7.69412 0.116874 -0.811535 0.526312
264 -0.765313 8.42653 -8.42832 -0.603972 -0.150419 -1.10754
552 -0.745498 7.66642 -7.5434 0.250346 -0.0354311 -0.181842
293 -9.83764 10.2467 -8.46768 -0.0731658 0.0787655 1.43348
560 -9.82062 9.3754 -7.6928 -0.829933 -0.593554 -0.571011
558 -8.80705 9.35586 -8.15865 0.247363 0.245084 -0.314702
297 -8.13196 8.51901 -8.62641 0.494525 -0.885953 -0.366465
2511 -7.96823 10.1553 -8.4282 -0.652766 0.0459927 0.593817
564 -8.04781 9.22167 -7.43549 1.33517 -0.668063 0.559163
3204 -7.18187 9.88975 -7.68449 -1.53178 -0.164977 1.01489
567 -3.29808 -10.0783 -7.94498 0.585021 -0.333481 0.234822
3445 -2.24429 -10.1256 -8.84025 -1.15212 0.642337 0.416126
572 -2.64539 9.54799 -8.30772 -0.0921638 -0.0346488 -0.605283
309 -1.52032 9.19282 -8.82986 -0.0343173 -1.02983 -0.518872
307 -1.69152 10.0755 -7.89455 0.272833 0.0112237 -0.65481
310 -0.823963 9.99758 -8.47664 0.00206906 -0.0168736 0.797634
576 -0.709072 9.21893 -7.75258 -0.937487 -0.413357 -0.520601
584 -9.87002 -9.46557 -6.16655 0.181085 0.207853 0.680617
581 -9.89228 -10.2105 -6.91068 -1.03606 1.58986 -0.427124
582 -8.90185 -9.4277 -6.87851 0.265116 0.230396 -0.378704
583 -9.11714 -10.0865 -6.05808 0.0125773 -0.876222 0.156573
852 -8.06652 10.1903 -6.76599 -0.0421265 -0.654091 0.304887
588 -8.18642 -9.51363 -5.98139 -0.149897 0.364281 1.11294
562 -7.26477 -9.64775 -6.67056 0.904964 1.9461 -0.64396
589 -5.65956 -9.41469 -6.65792 0.756829 -0.526159 -0.355741
15 -3.69807 -9.56002 -6.15804 0.712832 2.22149 0.0283212
854 -3.17867 -9.35434 -7.15373 0.283151 0.458435 0.116559
596 -2.35135 -9.5092 -6.14259 -0.440283 -0.372711 0.689766
594 -1.50953 -9.5918 -7.11504 0.0600651 -1.16483 -0.403888
600 -0.714873 -9.61456 -6.21032 0.845999 0.862125 0.147775
597 -0.713509 10.0825 -6.95476 -0.160952 -0.568172 -0.98598
605 -9.71464 -8.65463 -7.01855 0.418561 0.367128 -0.508822
608 -9.70459 -7.80231 -6.29806 1.85207 0.510991 0.265014
607 -9.00905 -8.66633 -6.11076 0.437001 0.126795 -0.265692
606 -8.86206 -7.51718 -6.79967 0.869022 0.172426 0.0252296
609 -8.0812 -8.82882 -6.80464 -0.325697 0.944189 1.0349
612 -7.95926 -7.68845 -6.22257 0.805828 0.393968 -0.787522
347 -7.40683 -7.40302 -7.35502 -0.860021 0.446105 -0.987959
278 -6.30933 -8.45322 -6.9968 0.616636 0.458416 0.141646
587 -6.487 -7.79532 -5.84689 0.274772 -0.74301 0.20041
592 -5.40882 -7.76858 -6.56594 -0.331618 0.0960021 -0.642565
541 -4.69898 -8.5884 -6.55917 0.222685 0.935781 -0.627085
61 -3.65949 -7.81789 -6.44602 -0.919376 -0.283217 -0.198656
328 -3.06356 -8.72517 -6.21689 -1.44348 -0.687655 -0.479286
929 -2.37629 -7.74664 -6.43643 0.225701 0.341677 0.418372
355 -1.54118 -7.9581 -7.0011 0.127801 0.280768 -1.35134
619 -1.56134 -8.65246 -6.09808 0.254994 0.0570911 0.254178
622 -0.458822 -7.67083 -7.26502 0.788181 0.827989 0.0191604
621 -0.708183 -8.85834 -6.97233 0.376567 -1.25051 -0.500246
624 -0.686156 -7.82725 -6.24627 0.00820289 -0.0220667 -0.725469
629 -9.76947 -6.85086 -6.95133 -0.588782 -0.959839 0.431086
632 -9.75821 -6.07745 -6.16539 0.617504 -0.281092 -0.327637
631 -8.90005 -6.75471 -6.14655 -0.795078 -0.437489 -1.17114
630 -8.84116 -5.91842 -6.93738 -1.29622 0.623128 -1.09626
634 -8.06017 -6.56378 -7.07713 0.656727 0.645843 0.433463
636 -7.97898 -6.15595 -6.07131 -0.825708 -0.127897 0.301161
610 -7.12505 -6.83255 -6.04422 -0.554989 -0.705874 0.750064
971 -7.1307 -6.02004 -6.80893 1.19594 -0.240201 0.815904
665 -6.40793 -7.53949 -7.61624 0.371057 1.14122 -0.967984
352 -6.1962 -6.53296 -7.01242 0.388704 -0.189785 -1.71895
563 -5.20673 -6.16051 -7.04278 -0.626487 -0.998839 0.36853
325 -4.52096 -7.13699 -6.51127 -0.0190704 -0.386196 0.912641
685 -3.87634 -6.10693 -6.25799 -0.110107 0.535798 1.53039
637 -3.10552 -6.84743 -6.42957 0.219233 0.197071 -0.538895
955 -1.41107 -7.02671 -6.22741 -0.909678 -0.459707 -0.332021
4369 -0.291474 -6.95405 -6.48781 0.367868 -0.790674 -0.742985
644 -1.27952 -5.88607 -7.07506 0.642298 0.531099 0.708708
647 -0.593587 -5.9695 -6.1827 -1.07101 -0.306966 0.0307973
653 -9.72747 -5.28778 -6.91501 1.30973 -1.25638 -0.354838
655 -8.85243 -5.24978 -6.04673 1.35731 -0.774518 -0.874028
656 -9.82882 -4.39752 -6.16978 0.500492 0.810302 0.444495
969 -7.97784 -5.17406 -6.83431 -0.210555 -0.953326 -1.22423
681 -8.03819 -4.51893 -5.97141 -1.09137 -0.162576 0.657845
688 -7.16977 -4.32602 -6.75014 -0.0474601 -0.110731 0.425999
613 -6.38392 -4.25156 -7.51052 -0.150291 -0.701925 -1.17132
284 -6.40535 -5.29842 -6.66287 -0.889932 -0.121606 -0.888042
40 -4.71528 -4.26841 -7.268 -0.401551 0.474495 -0.647473
3188 -5.45933 -5.17442 -7.5177 -0.499536 0.848588 -0.0599013
399 -4.83896 -5.2481 -6.6014 -0.0129614 0.0475457 0.659292
949 -5.68476 -5.35718 -5.79706 -0.822441 -0.00483863 0.0271449
1282 -5.63543 -4.44024 -6.70209 0.321828 0.387371 -0.697263
977 -3.15551 -5.11535 -6.34516 0.759859 0.0667026 -1.12185
373 -3.9398 -4.31415 -6.42527 0.378756 0.0174302 -0.154045
953 -2.01972 -6.00626 -6.34501 -0.0459112 0.710228 -0.108295
691 -2.16031 -5.10853 -7.11689 -0.132589 -0.428876 0.161179
667 -1.56404 -5.06124 -6.19337 -1.0956 0.703656 0.805535
672 -0.565134 -5.09678 -6.97914 1.60648 -0.815516 -0.184757
654 -8.8452 -4.61337 -6.81461 -1.32876 0.402976 -1.51175
677 -9.7917 -3.54477 -6.75912 -1.33665 -0.993394 -0.208257
966 -8.92153 -3.82701 -6.08181 1.24392 -1.06108 1.68669
679 -8.05954 -3.60114 -6.74902 0.313151 0.482808 -1.11152
1281 -7.3367 -3.68953 -5.8843 1.245 0.235447 -0.763043
993 -8.09679 -2.95806 -5.90247 1.64858 -0.900523 0.794219
3277 -6.55387 -3.43078 -6.74037 1.59924 -0.961259 -0.250653
419 -5.577 -3.5042 -7.27314 -1.85929 -0.90999 0.41929
421 -4.78363 -3.61496 -6.46917 0.636032 -0.238116 0.119393
686 -3.97013 -3.37804 -7.142 0.0180645 0.979816 -0.0536362
980 -3.19502 -3.49551 -6.32049 -1.06094 0.857545 0.317224
374 -3.18614 -4.30439 -7.064 -0.202257 -0.478738 -1.15641
978 -2.39592 -4.37231 -6.20802 1.8391 1.1882 -0.801983
380 -2.20204 -3.46182 -6.93826 -0.455715 0.344661 -0.326941
692 -1.55977 -3.6311 -6.13917 -0.846777 0.309379 0.221257
666 -1.23551 -4.26098 -6.98047 -0.472842 -0.939107 0.72245
690 -0.507229 -4.24461 -6.0812 -1.67876 0.14025 0.377109
384 -0.623814 -3.44954 -6.84261 -0.445174 -1.24704 0.0987105
680 -9.76765 -2.74743 -6.04439 0.14678 -1.52513 -0.579204
970 -8.99253 -2.75083 -6.76903 0.643431 -0.38882 -0.0547262
701 -9.8849 -2.10828 -6.96023 -0.187273 -0.369045 0.62301
702 -9.06984 -1.94922 -5.94717 -0.332856 0.933991 -0.00683452
683 -7.31174 -2.68467 -6.5353 1.34074 -0.522958 0.966616
708 -8.15682 -2.03789 -6.62491 0.715558 0.500309 -0.598308
706 -7.46481 -1.83554 -5.7369 0.11739 -0.0125857 1.25555
369 -6.46441 -2.58565 -7.3421 -0.409754 -1.4013 0.78457
705 -6.47842 -1.88539 -6.52421 -1.50673 -0.461267 -1.28094
731 -5.66268 -2.70332 -6.46257 -0.964041 0.934022 -0.310532
757 -4.68049 -2.43777 -7.20706 0.367677 -0.18623 0.396367
1021 -4.86121 -1.88279 -6.30776 -0.0559194 -0.0997746 0.865728
736 -3.78756 -1.9231 -7.21463 0.0934438 0.669587 -0.00853661
711 -4.15219 -2.66202 -6.25516 0.500022 0.914161 -1.71829