ITEM: TIMESTEP
151000
ITEM: NUMBER OF ATOMS
6912
ITEM: BOX BOUNDS pp pp pp
-1.0259855680060181e+01 1.0259855680060181e+01
-1.0259855680060181e+01 1.0259855680060181e+01
-1.0259855680060181e+01 1.0259855680060181e+01
ITEM: ATOMS id x y z vx vy vz
8 -9.66721 -9.51759 -9.53906 -0.457615 -0.894041 0.921715
2790 -7.17217 7.54104 -10.1019 0.316807 -0.141592 0.0729828
11 -8.08645 -9.57016 -9.33404 -0.231937 -0.383037 -0.0138055
3363 -10.0544 3.28154 -10.0557 0.738675 0.674866 -0.246496
20 -2.61429 -9.47904 -8.58807 0.442293 0.231463 -0.778817
3185 -1.97226 -9.71085 -9.41157 -0.404914 1.22111 0.3769
43 -0.975769 -9.5284 -9.78415 1.51292 1.27002 1.16624
3432 -1.30423 7.33615 -10.1695 -0.513577 0.489346 0.225099
32 -9.55202 -7.54836 -9.52697 0.832224 0.0954609 0.0205833
3223 -8.63291 -7.54413 -10.1261 -1.38175 0.833308 0.0934505
31 -9.05192 -8.62844 -9.42053 0.563521 -0.758015 -0.695118
9 -7.75228 -7.54436 -9.31499 -1.44057 -0.153559 -0.0698171
44 -1.78617 -8.59097 -10.0647 0.154767 -0.982512 0.629533
336 -1.70278 -7.66428 -9.17648 -0.214797 -0.699843 0.100341
281 -2.79059 -8.05709 -8.76508 -0.117652 0.86833 2.19413
326 -1.85889 -8.74629 -8.61071 -1.05218 -0.412035 -0.891579
47 -0.0368533 -8.75966 -9.73835 -0.149433 0.530621 -0.51696
357 -0.838332 -7.76751 -9.76045 -0.199458 -1.5112 0.12689
334 -0.244216 -7.68409 -8.81283 -0.799593 1.31632 -0.888813
56 -9.74515 -5.99001 -9.41104 -0.761226 0.754749 0.0265053
24 -0.196091 10.1922 -9.52294 -0.97855 -0.848998 -0.215773
30 -8.82008 -6.75258 -9.39838 -1.51667 0.940023 0.0259973
109 -7.86003 -5.93889 -9.17369 -0.759858 0.553787 -0.72805
698 -10.1689 -0.998764 -6.65133 0.493806 1.55223 0.618117
3212 -2.50211 -6.93022 -9.44022 0.22511 0.570508 -1.03113
66 -1.44066 -6.94432 -9.95411 -0.753335 -0.704936 0.402014
638 -1.06434 -6.7978 -8.91684 -0.371685 -0.340548 0.458833
72 -0.870435 -5.98574 -9.67017 0.403563 -0.991307 -1.16924
360 -0.114743 -5.89822 -8.83445 0.142016 0.9117 -0.00685628
71 -0.0407979 -6.81593 -9.6447 -0.436459 0.109344 0.427495
509 -10.1882 5.95304 -8.32557 1.11441 0.680832 0.698874
80 -9.61971 -4.52527 -9.36035 -0.070488 -1.51434 -0.949488
633 -8.80985 -5.40141 -9.43263 0.499928 1.39499 -0.260098
3275 -8.01368 -5.28189 -10.0267 0.731756 -0.293822 -0.484323
1350 -6.37126 6.02326 -0.097361 -0.321189 0.280128 -0.0388741
370 -7.10069 -4.41705 -9.87985 -0.0753423 0.707754 0.0818425
81 -5.5442 -4.38335 -9.96241 -1.17878 0.641349 0.135677
38 -4.49374 -5.17528 -9.61733 -0.701946 1.76035 -0.200401
2482 -2.73912 -5.00996 -9.29019 -0.0831627 -0.793934 -2.01182
687 -3.7636 -5.0202 -8.81565 0.88377 -0.744411 -0.435907
93 -1.78619 -5.32211 -9.64687 0.613028 0.615639 -1.27833
37 -2.11212 -6.14015 -8.91175 0.612857 -0.00956002 1.24101
95 -0.937253 -5.08897 -8.88284 -0.287773 1.11338 -0.147473
3529 -0.108804 -5.02562 -9.62175 -0.97346 -0.0903012 0.478231
96 -0.962139 -4.34244 -9.68424 0.751362 0.0789426 0.0907025
103 -8.88504 -3.63178 -9.24231 0.132024 0.38492 -1.06079
101 -9.60307 -3.62905 -10.1796 -0.713794 -0.0493885 -0.635322
372 -8.09493 -4.55921 -9.24473 -0.0168715 1.30855 0.137748
105 -8.06925 -3.77354 -9.89754 -0.0432694 0.250704 1.16951
78 -8.85049 -4.40834 -10.1956 -0.465379 1.03969 -0.257068
2989 -6.20783 -4.31075 -8.98111 -0.302002 0.947975 0.174507
107 -7.07688 -3.55246 -9.09499 -0.563832 1.04984 0.965516
395 -6.35172 -3.52759 -9.8864 0.147843 -0.21076 -0.826976
684 -5.4825 -3.57013 -9.00598 0.818585 -0.233726 0.0792518
3260 -4.71553 -3.38641 -9.70162 1.07525 -0.934074 -0.732425
350 -4.63382 -4.29826 -8.94577 0.0809385 0.263049 0.40754
254 -3.63977 -4.21633 -9.53544 0.183501 0.301376 -0.703021
135 -3.87813 -3.38756 -8.87605 -0.354769 0.240802 -0.985044
375 -2.9227 -3.31392 -9.43575 -0.751653 0.936164 -0.308001
378 -2.11115 -4.18075 -9.33407 -0.497081 -0.642193 -0.795626
1587 -10.0313 3.99462 -0.803482 -0.364402 0.51456 0.541925
115 -1.35373 -3.21327 -9.47475 0.0128469 -2.00127 -0.347765
119 -0.317293 -3.45224 -9.57407 0.886867 -0.750044 0.626621
382 -0.222743 -4.27419 -8.86087 0.138834 -0.286572 -0.0597432
104 -9.61574 -2.77981 -9.26723 0.356122 -0.388988 -0.871366
414 -8.86633 -1.98449 -9.21344 1.03751 0.197695 0.131936
125 -9.54499 -1.87046 -10.1553 -0.369603 -0.845957 -0.330116
127 -8.83067 -2.81837 -10.0966 1.09055 -0.0133249 -0.629534
393 -7.97272 -2.82493 -9.21005 -0.149576 1.60391 0.403471
126 -7.93263 -1.84663 -9.90081 0.579568 0.636154 1.22007
441 -7.17378 -2.03245 -9.08897 -1.67915 -0.0818307 -1.77476
390 -7.10004 -2.60002 -10.0113 -1.4882 0.349278 0.565439
417 -6.24421 -2.65137 -8.86884 -0.600927 -0.674566 -1.55935
129 -6.3993 -1.75253 -9.8599 -0.434229 -0.818483 -0.0620815
397 -5.45366 -2.55693 -9.64896 -0.772673 -0.895491 -0.982572
418 -4.65805 -1.81857 -9.49013 0.733904 0.254321 0.532571
442 -5.5567 -1.89817 -8.83169 1.05875 0.920882 0.448707
3303 -3.7704 -2.44332 -9.41328 0.279511 -1.11573 0.175079
422 -3.00733 -1.76116 -9.40345 0.14306 -0.0264586 1.0626
116 -2.12878 -2.40401 -9.62537 -0.557865 -0.371778 0.0420098
120 -0.590475 -2.3833 -9.4298 -0.66393 -0.994186 -0.274288
139 -1.34037 -1.53318 -9.28264 0.978271 0.201034 -0.538242
141 -0.503146 -1.36842 -10.0666 -0.751152 -0.431539 0.805815
128 -9.58926 -1.16615 -9.33072 0.492837 -1.17806 -0.135202
146 -9.78937 -0.343012 -10.0594 0.370897 1.03934 0.396832
150 -8.97778 -0.325867 -9.33702 -0.993669 0.162758 0.231491
149 -8.83349 -1.15932 -10.0228 0.710041 -0.933624 0.874052
151 -8.27098 -1.12941 -9.14678 -1.84566 -0.260267 0.101966
3324 -8.09526 -0.404008 -9.96127 0.107514 0.976926 0.121621
465 -7.36879 -0.281055 -9.01189 0.552528 -0.019467 0.0807359
3297 -7.18106 -1.10825 -9.98902 -0.392439 0.678797 -0.187678
132 -6.4148 -1.21262 -8.94036 0.448626 -0.061199 1.21659
3300 -6.52468 -0.299659 -9.56245 0.710203 -0.771197 0.246956
130 -5.609 -0.978778 -9.59657 -0.494892 -0.996074 0.244774
3352 -5.6091 -0.287611 -8.74418 -0.8044 0.935511 0.244991
155 -4.60716 -0.970129 -8.74435 -0.680732 -0.881888 1.05219
160 -3.89079 -0.98884 -9.41742 -0.596233 -1.30694 -1.02221
159 -3.1768 -0.0638976 -9.51729 -1.15266 0.118497 0.575489
423 -3.15101 -1.04177 -8.66243 1.19071 0.282636 -0.812087
2475 -10.1978 -1.23047 -0.34007 -0.529975 -0.92297 -0.340821
140 -2.34192 -0.774052 -9.32138 0.0686384 0.705019 0.243044
144 -0.679114 -0.708099 -9.25327 -0.124985 -0.620931 -0.457598
165 -0.649141 0.031267 -9.95084 -0.755927 1.02179 -0.126405
138 -1.42036 -0.750693 -10.0763 -0.42137 0.472887 -1.06916
152 -9.7688 0.293993 -9.07159 0.308302 -0.360657 -0.59606
175 -8.94063 1.29874 -9.09322 0.499409 0.96248 0.246987
173 -9.70474 1.42814 -9.95374 0.837127 -0.47036 1.46637
3343 -8.70639 0.473251 -9.92662 -0.314661 0.388865 0.317682
156 -8.10591 0.643303 -9.11343 -0.335147 -0.150989 0.492398
201 -7.84259 1.50337 -9.97291 -1.01084 1.89284 1.60909
3367 -7.3152 1.40287 -8.95888 -1.28478 0.153325 0.932589
177 -7.10213 0.609097 -9.74902 -0.381354 0.023752 -0.19193
184 -4.64709 -0.192151 -9.40409 0.837204 0.686084 -0.154332
3344 -5.5556 0.369845 -9.59245 0.379178 -0.0213706 -1.02673
1071 -4.82756 1.67554 -9.35936 -0.619731 0.310921 -0.29278
435 -10.2065 -0.158012 -7.37298 0.397379 -0.755994 -1.22989
3371 -3.9341 0.714784 -9.37955 0.345789 -0.440834 -2.45715
3327 -3.01756 0.939733 -10.0263 -1.0202 0.162276 0.442312
164 -3.04002 0.618669 -8.62508 0.228149 -1.1998 -0.0772742
161 -2.30805 0.0368365 -9.98109 0.915662 0.568023 0.181225
163 -1.4205 0.0342977 -9.21595 -0.628542 -0.189761 0.560148
189 -1.56721 0.966577 -9.96484 -0.883174 -0.510721 -1.49798
168 -0.711991 0.852642 -9.19958 -0.647841 -0.733515 0.135885
176 -8.96103 2.12559 -9.77652 -0.229114 -0.51769 0.0370187
197 -10.0123 2.41263 -9.32697 0.379703 0.380277 -0.582017
199 -9.22905 2.37535 -8.54073 0.715919 0.0746813 -0.38301
171 -9.90216 1.48199 -8.86644 0.0898186 -0.817881 -0.175753
773 -8.26184 2.09422 -8.993 -0.862887 -0.221297 -0.925518
200 -7.19184 2.37158 -9.55399 -1.19633 0.205458 -0.760787
3396 -8.07077 3.02669 -9.59334 0.153006 0.556571 -0.264601
2779 -6.21234 1.16465 -9.65213 0.807457 -1.52256 0.795177
394 -3.69792 -3.4334 -10.2082 -0.973522 0.311127 -0.706395
3400 -6.23667 2.76639 -9.70282 0.20147 -0.0431994 -0.126332
491 -3.73269 2.32925 -9.34407 0.290148 -1.87657 0.165019
206 -3.11089 1.59257 -9.03325 -0.194697 -1.137 -0.0155511
2468 -2.98152 2.67747 -9.99661 1.09866 -1.05113 0.264536
3374 -2.29173 2.51124 -9.24399 -1.16346 0.603396 0.318219
187 -1.5413 1.75603 -9.26434 -0.0337394 -0.389317 -0.481855
213 -1.60034 2.7461 -10.1521 -0.843826 0.332376 -0.326974
3332 -2.36739 1.74216 -9.96198 0.0799135 0.192543 -0.367036
192 -0.632924 1.60472 -10.043 0.107354 -1.09417 -0.10091
215 -0.547278 2.4735 -9.22564 -0.872094 -1.02683 -0.771136
234 -3.93699 1.67015 -10.1064 -0.387074 -1.06725 0.580003
770 -8.95339 4.23272 -10.0669 0.979375 0.778485 -0.0055196
774 -9.07862 3.1014 -9.2335 0.869471 -0.522527 -0.530314
826 -10.1395 6.08766 -6.43386 0.640778 -0.776125 0.544091
3092 -4.12873 3.06479 -8.77095 0.480718 -1.19309 0.0909596
2464 -2.98116 3.49178 -9.27009 -1.00214 -1.73008 -0.666243
3404 -2.27719 4.46682 -9.02027 -0.233575 0.279986 -0.155539
3399 -1.2812 4.1717 -9.82913 -0.913326 -0.383388 0.528483
212 -2.24959 3.68335 -10.0956 -0.797704 -0.329254 -0.918454
209 -1.44298 3.26126 -9.18222 0.0508229 -0.756866 -0.328729
3384 -0.536482 3.3752 -9.8829 -1.00322 0.510141 0.123987
498 -0.396213 4.29179 -9.17536 -1.12745 -0.272277 -1.6546
506 -9.05272 5.06769 -9.34876 -0.256344 1.26786 0.607458
221 -9.73238 5.39332 -10.0571 1.02911 1.23194 -0.171918
219 -10.1437 5.0997 -9.13756 0.12695 0.535421 -0.821781
247 -8.33108 5.89467 -9.18702 -0.398925 -1.31736 -1.09728
298 -8.22816 5.01054 -10.1435 0.293356 -0.434328 -0.0815133
231 -2.99201 5.58068 -9.84616 0.844342 0.378598 0.715347
500 -2.03184 5.02862 -9.9339 -0.741672 0.749082 0.646963
3144 -1.25635 5.05008 -9.21927 1.5948 -0.292672 0.482097
3423 -2.04911 5.8587 -9.34129 -0.941014 -1.31541 -0.220133
3403 -0.513834 4.96951 -9.98329 0.165366 -0.920734 1.41031
2776 -1.28963 5.91817 -10.0259 -1.65598 -0.338074 0.101378
261 -0.467571 5.8786 -9.21815 -0.154548 0.158316 -0.186167
224 -9.81285 6.08626 -9.24758 -0.118532 0.799527 -1.58698
77 -9.55059 -5.18098 -10.1308 1.34669 -0.618282 -0.732757
2242 -8.86817 6.78017 -9.35639 0.835079 1.097 0.0761819
222 -8.78651 6.01845 -10.178 0.343201 0.199634 1.76174
249 -7.91274 6.65157 -9.96784 0.929273 -0.319259 -0.121833
3087 -3.25866 6.83567 -9.42603 -1.43293 0.73646 0.658
194 -10.036 4.15826 -9.54969 -0.000550916 0.191446 0.908324
283 -2.32921 6.73714 -8.54495 -0.180385 0.496969 -0.14183
3377 -1.16409 6.73556 -9.37771 0.830946 -0.214172 -0.127711
3405 -0.468382 6.65744 -10.0336 -0.606541 -0.606725 0.0700426
248 -9.55511 7.62288 -9.24919 0.217173 -1.7563 -0.914781
538 -8.74499 8.32252 -9.04518 0.633788 -0.356433 0.298282
271 -8.03197 8.69898 -10.2106 0.0121925 0.825194 -0.655867
3133 -7.96549 7.60292 -9.145 -1.32353 0.0211352 0.058371
1486 -0.101436 -7.68451 -1.97346 -1.7528 -0.0289041 0.961222
3040 -4.69641 0.822767 -10.0733 1.12497 1.06336 0.360065
237 -3.04779 8.11111 -9.48174 0.11041 -0.898327 -1.54785
2507 -2.15329 7.45991 -9.41462 0.367637 0.194936 -0.665543
282 -0.404304 8.12935 -10.1051 -1.50648 -0.469865 -0.308114
570 -1.32655 8.28642 -9.38215 0.577735 -0.747471 -1.08698
3455 -0.471333 7.60953 -9.15004 -0.248272 0.304967 0.013469
743 -0.0838892 0.00607429 -5.85698 0.940236 -0.154886 -0.598044
272 -9.62947 9.39446 -9.64015 -0.614847 -0.603423 -0.693309
7 -8.91379 10.177 -9.42672 -0.363059 0.00383404 -0.561178
297 -7.57769 9.5268 -9.27132 -0.319061 -0.450313 -0.229771
3445 -2.98482 9.0517 -8.66662 1.4724 -0.901375 1.45538
245 -9.59888 7.02932 -10.1522 1.17703 0.798382 0.184215
258 -2.04092 9.28407 -9.21504 1.89332 0.398192 0.330531
305 -1.26225 9.91346 -9.39547 0.344618 -0.131409 -0.18651
23 -0.605032 9.12727 -9.19315 0.394204 0.206717 -0.452334
17 -1.26766 8.99939 -10.0677 -0.512184 -0.440313 -1.21771
296 -9.64807 -9.4271 -7.86752 -0.724962 -0.495685 -0.654736
293 -9.7653 10.0894 -8.68776 0.155355 0.0244613 0.669383
295 -9.03225 10.2245 -7.81347 -0.241631 -0.369954 -0.829255
294 -8.92499 -9.38486 -8.6661 -0.326783 -0.622746 0.828927
12 -8.44454 -9.4714 -7.64853 0.10488 0.520952 0.981478
617 -1.90571 -9.52405 -7.82299 0.281556 0.183851 -0.737268
333 -0.215262 -9.36552 -8.93799 -1.19444 -1.30821 -0.0762085
306 -1.18687 -9.64854 -8.50551 0.733437 1.55042 0.656149
312 -0.596385 -9.43759 -7.65344 -0.0811227 0.507673 -0.196087
317 -9.73163 -8.70032 -8.66408 0.371719 0.185661 -1.29818
320 -9.65706 -7.70489 -7.73504 -0.830341 -0.162341 -0.531174
319 -8.95751 -8.53303 -7.71068 0.77995 0.460927 0.781454
318 -8.88503 -8.0043 -8.58191 -0.117864 -0.341999 0.663459
3184 -8.07789 -8.72865 -8.38812 0.242855 -0.169228 -0.894318
322 -8.02608 -7.82319 -7.72574 -0.0954952 0.462013 0.577688
300 -7.3774 -8.8789 -7.60578 1.89583 -0.134555 0.577029
332 -3.47719 -7.69532 -7.59007 0.411017 -0.0639545 0.836658
569 -2.11432 -7.56912 -7.22896 2.09833 1.13528 -0.0657277
330 -0.838161 -8.5042 -9.04367 -0.884895 0.741174 -0.160274
641 -1.19032 -8.63073 -7.58834 -0.217065 1.24376 1.18148
335 -0.168171 -8.51105 -8.15511 -0.108025 0.90155 0.977071
331 -1.15832 -7.79574 -8.19156 0.614775 -0.678408 -1.01635
341 -9.51793 -7.00869 -8.53337 0.479613 -0.408948 -0.657502
344 -9.73301 -6.05482 -7.90716 0.836105 -0.5414 -1.40819
343 -8.71295 -6.99377 -7.80727 0.410343 0.38381 -0.221771
342 -8.78602 -6.07548 -8.52688 -0.637746 -0.391306 0.669833
616 -7.94962 -6.81329 -8.61687 -1.73609 -0.0551828 -0.410626
36 -8.04337 -6.07104 -7.5621 -0.10128 -0.937089 0.0167091
92 -3.61877 -5.89818 -8.25717 0.332875 -0.271233 -0.628575
563 -3.97537 -6.63372 -7.33529 -0.412854 -1.77011 -0.388302
648 -3.10174 -6.76604 -8.41402 0.658771 -0.927888 0.210496
327 -1.97971 -6.97896 -8.26614 -0.379331 -0.29179 0.47562
645 -2.04289 -5.9446 -7.8189 0.554062 -0.995899 -1.38942
356 -1.01377 -6.02501 -8.23214 0.621757 1.65748 0.218324
643 -1.21197 -6.76383 -7.54468 -0.0620291 0.196861 -0.827244
359 -0.168057 -6.86576 -8.03302 -0.116881 0.649896 -0.594562
365 -9.71215 -5.30179 -8.57054 0.542775 1.18892 -0.30318
368 -9.63784 -4.48387 -7.79566 -0.994652 -1.06164 1.56036
348 -8.93064 -5.37765 -7.70705 0.180387 0.59022 0.448961
79 -8.86003 -4.49281 -8.58613 -1.0874 -0.719571 -0.0967818
86 -8.0537 -5.2016 -8.383 1.45546 -0.904458 -0.670747
367 -8.26837 -4.37088 -7.65479 0.408439 -0.145631 0.0980272
3188 -5.56351 -5.2924 -7.28582 -0.0405741 -0.838024 -0.44586
324 -7.28029 -5.2001 -7.60725 0.36971 0.839461 0.798013
974 -4.6281 -5.29999 -7.98248 0.351798 -1.26862 -0.975203
40 -4.71502 -4.49445 -7.30786 -0.249357 0.964094 -2.7206
424 -2.86548 -5.14732 -8.02329 0.676585 0.840959 0.0487536
400 -3.72544 -5.06016 -7.41871 0.512576 -0.0131769 0.965757
3452 -3.15862 -5.94305 -9.24561 -0.230221 0.000986494 -0.288077
376 -1.93517 -4.97206 -8.56829 0.540937 -0.763416 -0.0595037
354 -1.27623 -5.06641 -7.82152 0.482346 1.24522 0.0206868
383 -0.0965406 -5.12717 -8.03643 0.58788 1.1704 -0.0976335
389 -9.71229 -3.72747 -8.51929 -0.980347 0.26183 -0.0715344
657 -8.92746 -3.52114 -7.59026 0.255877 -0.586566 0.751785
55 -8.0591 -3.77584 -8.50004 -1.2927 1.24315 -0.54205
366 -7.36278 -3.68892 -7.54602 1.60106 -0.242874 -0.738977
682 -7.22919 -4.39902 -8.42853 -0.983754 -1.43119 -0.233488
613 -6.3323 -4.55966 -7.64136 -1.20415 -0.267522 -0.744397
664 -6.41446 -3.51634 -8.24462 -0.114129 0.94178 0.695554
329 -5.20553 -4.34432 -8.18823 0.807387 -0.829867 0.0693279
445 -4.58785 -3.39546 -7.98368 1.19929 0.544778 0.0658663
112 -2.97872 -4.07194 -8.70754 -0.106403 0.927515 -1.80957
3428 -3.97208 -4.23665 -8.09938 -0.784132 0.937419 0.0891578
1289 -2.97191 -3.28336 -7.91966 -1.04412 0.534457 -0.673001
668 -2.22978 -4.09834 -7.84195 0.935443 0.0988194 -0.412742
401 -2.13452 -3.28386 -8.64097 0.174608 0.47997 0.118077
403 -1.3177 -3.31352 -7.78291 -0.709478 0.535134 -0.0600398
379 -1.22485 -4.08774 -8.54391 0.33454 -0.386753 -0.307916
381 -0.51896 -4.17916 -7.78204 -1.48416 -0.390759 -0.849818
405 -0.56505 -3.14767 -8.60924 -0.557305 0.967492 0.72603
392 -9.69134 -2.76911 -7.61824 -0.727771 0.287648 -0.753849
413 -9.75054 -1.96085 -8.52138 -0.765986 0.068019 -0.0540386
725 -8.89315 -2.0731 -7.6099 0.63638 -1.51325 -0.0474141
391 -8.90098 -2.72494 -8.40976 -0.579271 0.383116 -0.128002
678 -8.08369 -2.71774 -7.60149 0.277642 -1.07752 0.349988
415 -8.17388 -1.92333 -8.49302 -0.602927 -0.0987199 0.561102
420 -7.24002 -1.85155 -7.40142 -0.840252 0.370975 0.899246
658 -7.2341 -2.83223 -8.31237 1.16181 -0.0937885 -0.59394
369 -6.54088 -2.66489 -7.38761 -0.731491 1.5893 0.362522
443 -6.48164 -1.96317 -8.18081 1.1203 0.0199526 -0.85243
133 -4.80469 -2.76825 -8.85035 0.425785 -0.36634 -0.454279
396 -5.62648 -2.61936 -7.95999 -0.29158 0.632011 0.538026
733 -4.79977 -1.80279 -8.07255 0.454626 0.319457 -0.330518
136 -3.91806 -1.75411 -8.67772 -0.682388 -1.01589 -0.817327
712 -3.7686 -2.57959 -7.88125 -0.699093 0.668701 1.23495
713 -2.93143 -1.7284 -7.88951 0.214663 0.0772682 0.489998
398 -2.95121 -2.52929 -8.67207 0.188925 1.09651 -0.44079
404 -2.13532 -2.4541 -7.83821 0.978535 0.731595 0.712321
425 -2.19008 -1.73984 -8.69981 1.36772 -0.652826 -0.0183953
427 -1.55084 -1.59822 -7.63979 0.0895541 0.348368 0.0260725
402 -1.39643 -2.43806 -8.61038 1.15788 -0.664691 1.03892
408 -0.645059 -2.50311 -7.74967 0.403624 -0.584635 -0.725177
429 -0.668766 -1.67129 -8.41235 -0.549781 1.75894 1.2008
1647 -5.10288 6.81557 -0.00499357 -0.59154 0.733766 1.03611
416 -9.94986 -1.2156 -7.64807 -0.355659 0.0586876 0.600531
437 -9.79671 -0.504371 -8.3779 -0.218304 -0.388978 -0.0918744
440 -9.08835 -0.559836 -7.53843 1.02062 -0.616584 -0.347694
439 -9.06298 -1.24027 -8.42744 0.298837 0.156022 -0.153396
726 -8.29298 -1.23685 -7.63637 -1.10575 -0.462418 0.3918
468 -8.34397 -0.333284 -8.44361 0.994425 -0.219369 -0.769785
203 -7.43961 -0.512651 -7.47692 0.268646 -0.788055 -0.212021
753 -7.45222 -1.2013 -8.19311 0.488091 -0.773299 0.113213
153 -6.54287 -0.318759 -8.24378 1.12834 0.502168 -0.798058
1018 -6.45796 -1.1245 -7.4723 0.00121771 0.0504011 -0.572955
448 -5.546 -1.12044 -8.13669 -0.273997 -0.755573 -0.543654
467 -4.84265 -0.120125 -7.91049 0.376849 -0.380896 -0.131169
158 -3.90963 -0.0701331 -8.68131 -0.568444 -0.686631 -1.15028
446 -3.98713 -0.97433 -7.8544 -0.485363 -0.830344 0.56338
183 -3.19845 -0.311479 -7.82431 -0.537334 -1.63759 -0.571823
428 -2.32768 -0.750993 -7.56969 -0.519043 0.197553 0.409778
449 -2.2386 -0.179922 -8.48677 -0.163892 -0.183971 -0.0783834
451 -1.44435 -0.0444376 -7.56474 0.861936 -0.47619 0.872409
426 -1.51345 -0.917276 -8.37246 -0.0503996 0.718437 0.195538
432 -0.726925 -0.887666 -7.55151 0.756459 0.699756 -0.368745
453 -0.715856 -0.0527792 -8.33305 0.185702 0.0458123 0.165207
1151 -0.181325 8.42008 -4.19794 0.817057 1.22858 0.060165
438 -9.10178 0.554518 -8.21502 -1.12044 0.915366 0.237037
463 -7.45815 0.580311 -8.23971 0.255931 -0.18611 -0.837638
180 -8.21543 1.3101 -8.16283 -1.02646 0.543729 0.146998
1355 -7.63615 1.08099 -7.266 0.474853 0.720943 -0.179381
178 -6.58478 0.604478 -8.8341 -0.203366 -1.27362 -1.19083
3060 -6.74971 1.39223 -8.01297 -1.61222 1.34693 -0.733764
179 -6.68163 0.408473 -7.42336 -1.73252 0.97538 -1.30073
1072 -5.75757 1.42777 -8.68772 -0.717568 -0.250591 0.495372
204 -5.77124 0.493339 -8.07228 1.32954 -0.270456 -0.475969
470 -4.81908 0.608736 -8.67089 0.0271406 0.281522 -0.774111
469 -3.90183 0.639655 -7.60575 -0.960748 1.30098 -0.290018
207 -4.10702 1.59733 -8.50858 0.391795 -0.408928 0.190161
473 -2.54515 0.584473 -7.75895 0.95348 -0.0880579 0.0067191
450 -1.52328 0.834459 -8.54578 -0.61243 -1.39803 -0.169353
477 -0.901039 0.862033 -7.48034 -0.693838 -0.581046 0.582663
461 -9.4218 1.50298 -7.99516 0.311953 -0.265988 1.07476
1510 -0.340373 -6.13791 -1.8757 -0.165706 0.0559876 -0.257998
540 -8.43301 2.38549 -7.77196 0.115808 -0.0401248 0.171982
490 -7.45402 2.1686 -8.16928 0.534063 0.335822 -0.208419
1332 -7.47001 2.64533 -7.08769 0.210652 -1.54087 0.164347
233 -6.43198 2.26201 -8.62943 -0.405345 0.818303 -0.857972
1333 -4.99779 1.50966 -7.70066 -0.0346909 0.236519 0.348795
3373 -5.50727 2.4871 -7.97064 0.12575 0.963504 0.0544371
782 -5.17254 2.58398 -8.98009 -1.07854 0.276189 0.474569
471 -3.12968 1.6302 -7.75769 0.511027 -1.44767 -1.07154
3375 -3.05011 2.49804 -8.38719 0.303156 0.318275 1.00518
474 -1.48236 1.72957 -7.60277 0.394662 0.120878 -0.462806
185 -2.25285 1.57974 -8.31745 0.336346 -0.657111 -0.515834
188 -2.22321 2.48099 -7.60902 0.283958 -0.526574 1.65515
211 -1.55673 2.49586 -8.50361 0.141278 -0.318369 0.510485
501 -0.751712 1.62488 -8.35002 0.0314831 -0.599733 0.895559
480 -0.651928 2.60461 -7.54266 -1.01889 0.545186 0.795839
228 -9.22217 4.02536 -8.53266 -0.290945 0.609903 -0.833382
482 -9.28719 3.06339 -7.8101 1.00389 -0.0267261 -1.21625
539 -7.11689 3.30489 -8.89417 0.132662 -0.0466661 0.519329
1035 -8.68038 3.8793 -7.5936 -0.53681 -0.226737 -0.197437
2460 -8.18924 3.19792 -8.43538 0.143623 -1.4086 1.04446
232 -6.53007 3.23951 -8.06132 -0.618747 0.873336 -0.053513
230 -5.06129 3.67031 -8.49102 0.574008 0.601351 -1.49157
2174 -4.91313 4.13171 -7.27022 -0.283156 -0.0930564 0.779542
518 -4.28635 3.46216 -7.76683 -0.974678 0.43096 0.241289
784 -3.25158 4.22592 -8.41909 0.304235 -0.536331 -1.33788
1069 -3.03258 3.39174 -7.77362 0.638585 -0.993173 -1.8885
236 -2.22278 3.38244 -8.48641 -0.760178 0.775771 1.0996
783 -2.25724 4.23554 -7.80334 -0.701225 0.131923 0.33285
499 -1.47716 3.36175 -7.67727 0.107281 -0.503345 0.53555
788 -1.29537 4.24022 -8.55898 0.882765 0.121692 0.359143
497 -0.541751 3.36943 -8.41968 -0.201231 0.678613 -0.467046
502 -0.655572 4.16158 -7.66159 1.53079 2.09028 0.20951
1749 -1.07055 10.2302 -0.318155 -0.179398 -0.0389293 0.778524
1374 -8.51114 5.36228 -8.13639 0.351424 -0.306523 0.209371
525 -2.46295 5.31816 -8.31309 0.725039 -0.041396 -0.96791
805 -1.48246 5.06029 -7.79894 -1.45101 -1.66793 1.02568
239 -0.590242 5.03965 -8.36292 -0.065431 0.220871 0.531786
1950 -7.58309 7.76755 -0.224494 -1.28456 -2.08281 0.407539
533 -9.89191 6.9337 -8.61385 0.41621 1.05658 -1.63999
3109 -9.11761 5.95784 -7.28438 -0.68352 0.534006 -0.0195409
536 -9.40664 7.37845 -7.57621 -0.64145 -0.138817 0.28252
537 -9.07965 6.24049 -8.42127 0.353488 -0.865368 -0.489306
534 -7.99394 6.67526 -8.51411 0.333175 0.156687 0.309117
548 -2.07652 6.03093 -7.69657 -0.565937 -0.40532 -0.561464
521 -1.41807 5.94261 -8.5557 -0.53888 -0.886506 1.66748
549 -1.51121 6.93444 -7.76849 0.441184 -0.0628647 1.06893
240 -0.84806 5.84143 -7.59156 0.141737 0.887906 -1.13565
285 -0.625136 6.63463 -8.25647 0.449349 0.796293 0.524715
557 -9.71076 8.68112 -8.79583 0.700175 0.0625929 -0.313969
559 -8.97554 8.31824 -7.87844 1.62538 -0.730907 -0.581471
276 -8.80085 7.3578 -8.51158 1.25266 -0.395904 -1.05984
568 -2.24103 7.70801 -7.84069 -0.442483 -0.755662 0.653513
566 -2.04029 8.37113 -8.62578 0.124811 0.314557 0.257419
573 -1.40478 8.49372 -7.778 1.51804 1.29332 0.118754
546 -1.45458 7.49002 -8.6406 -0.429544 -0.731968 -0.786462
264 -0.474036 8.40447 -8.51255 -1.06276 -0.13689 0.767062
552 -0.63485 7.65242 -7.76338 -0.228112 -1.02231 -1.10519
560 -9.56248 9.4215 -7.91159 0.123261 0.295493 -0.623157
558 -8.83508 9.35607 -8.76418 0.591707 1.4544 0.576644
3204 -8.17933 -10.1836 -8.4456 0.688842 0.558102 0.253769
564 -7.87451 9.30524 -8.28418 1.18953 -0.207682 -0.176672
308 -2.21858 10.1377 -8.5913 -0.0915587 -0.320878 0.519771
572 -2.29834 9.19042 -7.75848 -0.0484842 1.53941 -1.06902
307 -1.34424 10.0623 -7.74739 0.0555669 -1.80975 0.116745
309 -1.25597 9.26563 -8.42736 0.286325 -0.054463 0.88967
310 -0.40166 10.1516 -8.25721 0.485345 1.42037 1.26538
576 -0.556578 9.23633 -7.58779 -0.0418273 -1.1724 -1.06332
584 -9.85619 -9.3142 -6.13436 0.62746 -0.323331 0.203034
582 -9.0554 -9.3251 -6.81922 0.0366287 -0.0977204 0.517337
581 -9.75703 10.2877 -7.0014 -0.757064 2.9223 0.667911
588 -8.32959 -9.2935 -6.02416 0.732596 -0.92548 -0.940834
562 -7.47102 -9.40677 -6.68759 0.878185 -0.929274 0.174929
299 -5.52123 -9.4412 -6.57807 0.179767 0.703153 -0.696521
15 -3.76874 -9.42566 -6.16057 -0.0943993 0.705899 0.343871
854 -2.92272 -9.45128 -7.09109 -0.620553 -0.154846 -0.968205
328 -3.00766 -8.65794 -6.21592 -0.220774 1.74386 -1.09733
596 -2.25776 -9.55713 -6.14423 -0.873944 1.10397 -0.607828
619 -1.29679 -8.63846 -6.07637 -1.44473 -0.230069 -0.149636
594 -1.31355 -9.47433 -6.84314 0.602626 -0.864108 -0.276915
605 -9.80586 -8.44349 -6.96883 0.439739 -2.24201 0.125355
608 -9.87899 -7.72737 -6.15551 -0.0680152 0.804277 -0.778182
607 -8.97921 -8.33195 -6.08183 -0.105211 0.355227 0.923903
606 -8.8732 -7.7235 -7.02198 0.991709 1.24702 1.44948
609 -8.16533 -8.62704 -7.03416 0.306741 -0.326877 0.370848
612 -8.09933 -7.70765 -6.14226 0.324013 -0.454668 0.222922
611 -7.46129 -8.65807 -5.99415 -0.0217021 -0.482583 0.112002
347 -7.2147 -7.80335 -6.66664 1.30372 1.29389 -1.59636
278 -6.54804 -8.60179 -6.61986 0.715051 -0.752214 0.493562
541 -4.61802 -8.49509 -6.28284 -1.43218 1.11589 -0.5844
592 -5.56675 -7.50942 -6.60877 0.116849 -0.727413 -0.194816
61 -3.91185 -7.51295 -6.67113 0.292571 -0.701632 -0.362032
618 -2.05279 -8.65012 -6.86672 -0.123688 -0.636675 0.417657
929 -2.09409 -7.71286 -6.13873 -0.492401 -0.254 0.757129
622 -0.289625 -7.82086 -7.40209 0.0216757 0.312316 -1.01189
621 -0.459442 -8.6428 -6.77938 1.33313 1.61199 0.094189
355 -1.16389 -7.6685 -6.71099 0.299196 0.0480155 -0.28919
624 -0.523532 -7.9064 -5.88652 1.53203 -1.63967 0.321264
631 -8.91227 -7.00453 -6.05986 -0.475394 0.336851 0.622196
629 -9.67489 -6.91869 -7.18067 0.45319 0.966174 0.139183
632 -9.70442 -5.97547 -6.09733 0.56441 2.03729 -0.377725
630 -8.84446 -6.13254 -6.74526 -0.604023 1.0281 0.561198
634 -7.90438 -7.01599 -6.97593 0.331117 -0.512767 -0.686241
636 -8.09132 -6.00729 -5.80999 -0.162142 0.0775139 -0.706317
610 -7.23898 -6.95161 -5.98813 0.808329 0.586175 -0.261779
665 -6.60879 -6.87805 -6.94361 0.900802 0.189003 -0.0975406
971 -7.35804 -6.06804 -6.64668 0.730225 -0.458283 -1.24627
659 -6.56347 -6.12857 -5.85414 -0.744934 0.88425 -0.0173639
325 -4.585 -6.79233 -6.468 1.39266 -0.440663 0.784265
352 -5.73477 -6.17026 -6.60196 -0.805072 -0.616883 -0.0338498
614 -4.85993 -6.04158 -5.72446 0.834261 -0.235023 0.740946
685 -3.84523 -6.01168 -6.33106 0.36243 0.251868 0.409179
349 -2.99178 -5.8549 -7.3297 -0.725739 -0.419364 -0.441271
637 -2.89623 -6.86861 -6.94609 0.237425 0.419247 0.225007
955 -1.31254 -6.62616 -6.3284 -0.593018 1.04442 0.965095
953 -2.22638 -6.0854 -6.44475 -0.9322 0.806509 0.520473
644 -1.3149 -5.84218 -7.09785 0.163866 -0.303276 0.670431
669 -0.337318 -6.00562 -7.33482 0.747441 0.58359 0.313173
4369 -0.305098 -6.85037 -6.52137 -0.124031 0.381484 -1.2921
653 -9.7254 -5.25482 -6.97218 0.467593 0.660413 1.4839
655 -8.89098 -5.24077 -6.20054 -0.814835 1.37421 0.580093
969 -8.14368 -5.15579 -6.9334 -1.20871 0.00026424 -0.0791201
681 -8.17389 -4.32494 -6.01387 0.262255 -1.00572 -0.207248
660 -7.39079 -5.13742 -5.94418 0.507456 0.361815 -0.072592
284 -6.44806 -5.20278 -6.70985 0.940653 0.031034 0.549129
399 -4.71439 -5.26448 -6.51781 0.212461 -0.414334 0.675092
1282 -5.60041 -4.45337 -6.65308 0.148177 -0.353612 0.202424
977 -3.05873 -5.1819 -6.55828 -0.0437768 -0.185538 0.970637
373 -4.0035 -4.34934 -6.49226 -0.939825 0.19066 0.279783
691 -2.15048 -5.09222 -7.22119 -0.662349 -0.452971 1.97104
667 -1.52051 -5.09099 -6.34223 -0.759026 0.118142 -0.733821
647 -0.584949 -5.7708 -6.3459 -1.1513 -0.945527 -0.936754
672 -0.560003 -4.90497 -6.87318 -0.288392 1.00868 0.459938
656 -9.69973 -4.52496 -6.12776 -0.191315 0.271988 -0.310219
654 -8.95763 -4.37269 -6.85837 0.718514 -1.12415 0.639889
677 -9.74052 -3.6793 -6.79725 0.165731 -0.0385412 0.244649
966 -8.92363 -3.64046 -5.8945 -0.507384 0.0776636 0.412713
688 -7.28806 -4.56058 -6.81071 -0.905654 0.394178 0.594989
679 -8.15039 -3.61202 -6.80117 1.21524 -0.223817 -0.589256
3277 -6.54521 -3.74572 -6.90757 -0.623656 0.929967 0.733697
419 -5.50328 -3.54969 -7.49386 0.433076 0.406371 -0.818449
421 -4.78306 -3.53068 -6.6778 0.658041 0.132369 0.779902
1307 -5.86032 -3.63471 -5.93436 0.0169072 -0.1719 -0.164489
686 -3.89119 -3.50917 -7.20448 0.815299 -1.3417 0.494011
374 -2.99364 -4.18101 -7.17751 0.573598 0.459253 -0.875216
980 -2.96472 -3.41559 -6.41916 0.32541 -0.229563 -0.118617
978 -2.22926 -4.36045 -6.29371 -0.357533 -0.164137 0.68762
380 -2.1226 -3.33464 -7.05307 0.437486 -1.94006 0.300106
692 -1.48456 -3.42442 -6.22377 -0.581122 0.606421 0.223629
666 -1.39591 -4.191 -7.09377 0.0911596 -0.124621 -0.391186
690 -0.745884 -4.23433 -6.14059 -0.961283 -0.420257 -0.382033
384 -0.679238 -3.47131 -6.92842 -0.38309 0.404272 -0.93327
1463 -0.0922085 -10.21 -1.17674 1.10282 -0.908661 -0.844566
680 -9.75291 -2.87121 -6.06123 -0.297299 -0.329823 0.725759
970 -8.99545 -2.78328 -6.74573 -0.503327 1.61109 -1.05105
701 -9.80294 -2.04306 -6.87407 0.00987588 0.602187 -1.5285
993 -8.13256 -2.84847 -5.98083 -1.08313 0.615124 1.2466
708 -8.2088 -2.04306 -6.75038 0.0606367 -0.0303941 0.679994
683 -7.34785 -2.73774 -6.63524 -0.929226 -0.236123 -1.54819
705 -6.5908 -1.72981 -6.52396 0.826845 -0.525116 1.08396
731 -5.89543 -2.60078 -6.4477 0.693307 -0.94582 -0.353146
730 -5.72338 -1.83495 -7.32472 -0.061728 -1.61809 -0.0599888
757 -4.8975 -2.5162 -7.28492 0.117115 0.821034 -0.902723
1021 -4.95722 -1.90769 -6.4492 -0.590585 -0.848577 -0.0892203
736 -4.02502 -1.85866 -7.10405 -0.0676947 -0.802102 -0.558585
711 -4.03267 -2.74122 -6.43569 0.960452 -0.821046 -0.44746
998 -3.31238 -1.8928 -6.3013 0.118527 -1.20947 0.212287
689 -3.02774 -2.61318 -7.10111 0.530685 -0.741209 0.183579
716 -2.4329 -1.82038 -7.04238 0.0723714 0.285856 0.825655
1001 -2.31497 -2.55832 -6.25879 -0.42471 -0.316415 0.837489
715 -1.61403 -1.71333 -6.17484 -0.123801 -0.178251 -0.00508655
693 -1.37638 -2.54859 -6.93839 -1.08594 -0.955703 -0.63401
717 -0.650325 -1.70928 -6.82459 0.172518 -0.373593 -0.939231
696 -0.65407 -2.56233 -6.07568 -0.0877926 0.102077 -0.769942
1175 -0.094694 10.1537 -2.60444 -0.233771 -0.132735 0.0045966
195 -10.1663 3.51155 -8.78213 0.834906 1.02847 0.619133
1119 -4.82124 2.86738 -10.1361 0.462246 0.226063 0.0511047