ITEM: TIMESTEP
148000
ITEM: NUMBER OF ATOMS
6912
ITEM: BOX BOUNDS pp pp pp
-1.0259855680060181e+01 1.0259855680060181e+01
-1.0259855680060181e+01 1.0259855680060181e+01
-1.0259855680060181e+01 1.0259855680060181e+01
ITEM: ATOMS id x y z vx vy vz
8 -9.57849 -9.30434 -9.53004 -0.442873 -1.76957 -0.964224
59 -2.03168 10.0676 -10.1341 0.340857 0.439358 -0.625191
11 -7.65475 -8.94446 -9.80107 -0.322846 1.6392 -1.79115
20 -2.19969 -9.52365 -9.567 -0.660519 -0.751205 1.13217
43 -0.983241 -9.5302 -9.78925 0.58997 0.440991 -0.727826
333 -0.172076 -9.52494 -8.92085 1.13252 0.183523 0.274027
32 -9.58059 -7.76884 -9.49845 0.361727 0.125283 0.385409
1728 -1.18026 9.55354 -1.12345 0.113704 0.169049 -0.31637
1376 -10.0105 3.67119 -3.73748 -0.327425 -0.257361 -0.179846
910 -0.0381582 -7.96039 -5.10243 0.028447 0.810593 -1.58615
9 -7.08176 -7.89377 -9.76891 0.89972 -0.151261 -0.296715
31 -8.75802 -8.4936 -9.41009 0.591511 0.137249 0.063248
3184 -7.8655 -7.75441 -9.01818 0.0936015 -0.532974 1.27239
44 -1.70214 -8.50131 -9.8053 0.738161 -0.410439 -0.840402
10 -2.78942 -7.45129 -9.89034 0.938829 0.540235 0.141301
336 -1.69766 -7.59516 -9.11404 0.176459 -1.2487 -0.198237
357 -0.895186 -7.64836 -9.88794 -0.937833 0.434771 0.67178
330 -0.909822 -8.38452 -9.16328 -0.148953 0.344246 -0.523709
298 -8.27928 5.17677 -9.98196 -0.746543 0.61721 0.987179
30 -8.76145 -6.51994 -9.54365 1.28177 -0.117649 -0.394785
56 -9.73612 -5.984 -9.62211 -0.38162 -0.190943 0.221795
3250 -7.65683 -6.80641 -9.64608 0.0194843 0.296177 0.226849
161 -2.13046 0.0315485 -10.1129 -1.18217 0.251558 1.00152
3212 -2.46098 -6.73818 -9.3129 0.22166 0.127019 0.526883
66 -1.56463 -6.84838 -9.88461 0.545997 0.342146 -0.109943
37 -1.6915 -6.04715 -9.04222 -0.211758 -0.888256 -0.220953
638 -0.905451 -6.82187 -8.8572 -2.42555 -0.119905 -0.539315
72 -0.874807 -6.11408 -9.83456 -0.377439 -0.327448 -0.249868
53 -9.60051 -6.89956 -10.2495 0.49199 -1.12928 -0.265948
1078 -0.269011 4.14704 -4.89825 0.612473 -1.13829 0.524415
109 -7.77765 -5.64568 -9.52939 -0.0713952 -0.894273 0.403789
633 -8.85412 -5.47718 -9.32478 -0.441738 0.0613676 0.584797
3223 -8.5708 -7.52768 -9.83902 -0.101529 -0.742274 1.3452
88 -6.87174 -5.17009 -9.52751 2.01758 -0.158511 0.513857
2989 -6.04386 -4.23761 -9.25096 -0.549533 1.0367 -0.578096
254 -3.87907 -4.40966 -9.41759 0.546698 -1.04819 0.686961
38 -3.32815 -6.07248 -9.34003 0.659954 0.172125 -0.436438
2482 -2.76662 -5.0902 -9.60144 -0.10072 0.125321 0.425198
93 -1.72414 -5.21986 -9.79538 -0.269011 -1.09264 -0.933296
95 -1.04496 -5.10322 -8.79332 -0.738875 -0.0889482 -0.205682
96 -0.92238 -4.45147 -9.72261 0.101092 -0.603572 0.00416469
723 -10.2471 -0.956265 -4.86656 -2.02714 -0.764992 0.612868
80 -9.45815 -4.64519 -9.5484 0.426484 0.105003 -0.872224
103 -8.60167 -3.6471 -9.35492 -1.6705 0.616193 -0.482098
3308 -2.18394 -1.60522 -10.0753 1.0944 0.355613 -0.116019
372 -7.83568 -4.63255 -9.31776 0.0490951 -0.601604 -0.206807
141 -0.548138 -1.61103 -10.006 0.59229 1.06532 0.831879
105 -7.79642 -3.44847 -10.2484 0.160908 -0.143493 -0.10484
107 -6.96567 -3.59956 -9.15403 0.792063 0.800874 -0.166016
395 -6.09116 -3.38611 -9.80759 -1.19619 -0.361023 -2.22685
370 -6.97597 -4.27543 -9.95778 0.332254 -0.600902 0.412109
81 -4.89796 -4.71758 -9.70655 0.0874129 -0.444677 0.287716
684 -5.40996 -3.34555 -8.87811 0.463496 0.957352 1.5654
3260 -4.58225 -3.55399 -9.62189 -0.833971 -0.590287 0.151021
112 -2.97623 -4.38377 -8.71865 0.174707 -0.411894 0.679261
375 -2.93358 -3.51477 -9.42148 0.586876 0.894207 -0.363774
378 -2.026 -4.29681 -9.43179 -0.676327 -1.82284 0.311221
2462 -2.03519 6.57074 -10.081 -0.382171 0.912654 -1.1433
115 -1.29585 -3.23303 -9.45542 -0.478741 0.436992 -0.992213
382 -0.148155 -4.17571 -8.9946 -1.25151 -0.749421 0.841747
119 -0.195212 -3.3797 -9.66655 -0.553919 0.425144 -0.429072
510 -10.1746 4.21906 -8.25252 -0.0909028 -0.58689 0.329132
104 -9.62973 -2.77892 -9.21625 0.774217 -1.40958 0.346012
414 -8.89187 -1.90286 -9.29746 -0.904347 1.30795 -0.557669
1150 -0.0163149 9.27134 -5.17161 0.493982 0.922882 -1.02092
127 -8.74121 -2.7562 -10.0175 -0.0242883 -0.530663 1.19231
393 -7.79722 -2.91771 -9.18251 -0.800009 0.295994 -0.430413
126 -7.98574 -2.04093 -9.82521 0.0176281 -0.825423 0.964066
441 -7.02436 -2.04698 -9.09808 0.123578 -0.327315 1.13651
390 -7.00184 -2.75089 -9.90423 -0.104213 -0.447873 -1.52398
417 -6.28168 -2.81592 -8.8128 1.76053 -0.597907 -0.357953
129 -6.24978 -1.98833 -9.75413 0.712741 -0.0977752 1.17172
397 -5.22791 -2.71842 -9.65848 -0.146824 0.896653 -1.27099
133 -4.55506 -2.71307 -8.6799 1.49043 0.168822 -0.429577
418 -4.60742 -1.85594 -9.60832 -1.71186 -0.779939 0.23948
3303 -3.73634 -2.70575 -9.50624 1.48899 0.15262 0.331291
422 -3.08919 -1.53616 -9.35665 -0.0719592 -0.667952 -0.249374
136 -3.84634 -1.81343 -8.60145 0.495793 0.105351 0.121872
334 -0.164011 -7.58012 -8.84748 -0.375305 -0.185411 1.89492
116 -2.43256 -2.45814 -9.28461 0.298197 0.871427 -0.0977543
1006 -0.253339 -0.97301 -5.03818 -0.69239 0.550111 1.09027
113 -2.18103 -3.19063 -10.1345 -1.167 -0.40259 0.0546546
120 -0.52473 -2.38292 -9.31951 -0.930363 -1.43489 0.127114
139 -1.42606 -1.72876 -9.32556 -0.29432 -0.785873 1.24823
1687 -7.63516 9.31151 -0.104542 -0.368277 0.218717 0.223517
128 -9.7779 -1.20544 -9.26403 -1.37523 0.172385 -0.370634
146 -9.81673 -0.261906 -10.1113 -0.582432 0.516869 0.540786
150 -9.00459 -0.422403 -9.29438 0.501235 0.630662 -0.386776
149 -8.72566 -1.17725 -10.0327 -0.658767 0.58366 -0.651025
151 -8.12748 -1.14073 -9.09689 -0.729937 -0.205878 0.798972
3324 -8.06209 -0.306846 -9.82914 0.737337 0.363747 0.185812
465 -7.29205 -0.40533 -8.98289 0.2201 0.598746 0.261403
3297 -7.28027 -1.17759 -9.78705 0.331886 1.36113 -0.191268
132 -6.45206 -1.00418 -9.17325 -0.745891 -0.975624 0.192434
3300 -6.34579 -0.0648013 -9.84993 0.0632128 0.518664 0.303534
130 -5.43428 -1.06684 -9.59661 0.656691 -0.291819 -1.79351
184 -4.61125 0.0864345 -9.72092 0.298402 -0.21146 -1.65295
155 -4.72418 -1.00416 -8.6193 0.47287 0.297415 1.31602
160 -3.99611 -0.785161 -9.48104 -0.400272 -1.14332 0.601406
1984 -4.78618 9.54138 -0.128654 -0.7206 0.280891 -0.266673
140 -2.12945 -0.850018 -9.21837 0.313411 0.122154 0.232398
47 -0.0500245 -8.71717 -9.61585 0.262069 -0.303371 0.608067
144 -0.49397 -0.919404 -9.18139 -0.477421 0.608249 0.951478
163 -1.29573 -0.125437 -9.33944 1.09603 0.789024 -0.637154
152 -9.77434 0.559859 -9.26248 -1.43731 -0.154573 1.40074
175 -8.97474 1.22203 -8.93583 -1.26973 0.257894 0.562271
173 -9.79724 1.43839 -9.89893 1.06316 -0.124708 -0.337715
3343 -8.84487 0.474908 -9.89475 -0.334902 -0.579158 0.430271
156 -8.11275 0.424828 -8.9745 0.76322 1.98671 0.359704
177 -7.26843 0.62561 -9.76475 0.573242 -1.14139 0.417219
178 -6.44533 0.792091 -8.72202 0.608118 -1.47942 0.368045
2779 -6.50282 1.38113 -9.64465 -0.460392 0.698883 -0.266806
3367 -7.35956 1.36711 -8.84939 -0.528035 0.50945 -0.0412206
3344 -5.57882 0.864718 -9.86315 -0.494881 0.736411 0.53378
1071 -4.64728 1.27369 -9.46875 -0.192069 -0.664738 0.273891
1072 -5.55463 1.4291 -8.6788 -0.170916 -0.976926 0.175658
159 -3.01799 -0.207157 -9.30996 -1.54535 -0.147906 0.361933
3371 -3.67194 0.627936 -9.55267 -1.81941 -0.631592 -0.1435
206 -3.11468 1.48898 -9.30164 0.0479862 0.688225 -0.149585
2003 -5.42801 -10.1035 -0.239273 -0.739574 -0.907705 0.281372
164 -2.23678 0.724844 -9.29633 0.921487 1.82337 0.623437
814 -0.0687745 5.72912 -6.71938 1.09862 -1.12047 -1.0874
165 -0.490506 -0.0576759 -10.036 0.817015 -0.513292 -0.829372
168 -0.5502 0.786711 -9.15826 0.250449 0.230661 -0.124241
189 -1.29109 0.74495 -10.0245 0.628913 -0.3331 0.0148053
483 -10.1515 3.43181 -7.48269 -0.408014 1.07774 -0.538891
176 -8.87036 2.03445 -9.86277 -0.329694 0.118296 0.248899
199 -9.2382 2.43945 -8.77285 -1.03672 1.32641 -0.40525
171 -10.063 1.58596 -8.88392 -1.32305 -0.77987 0.462072
201 -8.09487 1.3129 -9.76351 1.62014 -1.76876 -0.762036
773 -8.09983 2.27183 -8.99826 0.0948232 0.0131284 0.165129
539 -7.25166 2.96187 -9.11046 -0.742475 -0.370003 0.43865
200 -7.46914 2.21478 -9.88644 1.11909 0.352351 -0.989377
2746 -6.24951 3.00604 -9.50438 -0.504122 0.714039 0.263017
491 -3.87519 2.21966 -9.45224 0.312861 -0.796726 0.506869
1679 -0.0471605 5.09781 -0.76352 0.0822045 -1.64027 0.75275
3374 -2.17844 2.56405 -9.27502 0.431023 -0.456793 0.821004
3332 -2.17947 1.66687 -9.89654 -0.324803 0.310293 -0.242761
187 -1.38511 1.50939 -9.23615 0.146249 1.92473 0.0175082
213 -1.42908 2.50131 -10.0612 0.40576 1.52861 -0.529272
192 -0.551148 1.6146 -9.98093 -1.35968 0.795099 -0.130531
215 -0.6338 2.48846 -9.28049 -1.15031 -1.38282 0.113175
770 -8.99645 4.38829 -10.0768 0.471491 -0.408565 0.768223
774 -9.50487 3.35417 -9.81596 1.20129 -0.339204 -1.51577
269 -9.88523 8.50431 -10.2066 1.11618 -0.00146325 0.0305687
228 -9.31703 4.09307 -9.06623 0.271755 0.773969 0.203255
194 -10.122 4.27474 -9.75755 -0.491617 0.0822561 -0.756321
2460 -8.43711 3.38334 -8.58086 -0.0206816 0.989738 0.335734
3396 -8.50612 3.24916 -9.70802 0.275601 -0.0364347 0.452124
2464 -3.15613 3.18287 -9.45225 0.162708 0.680919 0.0218356
518 -4.20327 3.07331 -8.76484 -0.57848 0.58765 -0.952179
784 -3.1691 3.75939 -8.5669 -0.829959 -0.0794174 0.101446
3092 -3.32656 4.22641 -10.0339 -1.45521 -1.0993 -1.043
212 -2.27889 3.39203 -9.89844 0.9947 -0.665466 -0.0568526
3404 -2.17288 4.20345 -9.23513 -0.5223 -1.81742 0.612805
209 -1.33784 3.31467 -9.39047 -0.618423 0.741871 -0.518588
3399 -1.48554 4.20006 -10.0887 -0.18831 0.249232 -0.389156
3384 -0.569874 3.32403 -10.1633 1.48563 0.985907 -0.113258
498 -0.598332 4.08946 -9.2913 0.48297 0.210687 -0.568155
219 -10.1807 5.12418 -9.10966 0.753745 -0.0962473 -0.440728
1592 -10.1515 2.71375 -3.22734 1.07278 0.296536 -1.10283
506 -9.20642 5.09656 -9.38147 -0.839641 1.11819 -1.64117
3443 -8.07062 10.2431 -10.0608 0.417709 -0.549053 0.201015
1707 -9.90948 9.46508 -0.831803 -0.343645 0.36449 0.132088
3423 -2.36933 5.94503 -9.25442 0.206457 1.24213 0.976935
1921 -10.0636 3.52843 -2.52387 -0.707656 -0.564848 0.687847
3144 -1.39385 4.83471 -9.36264 -0.0205659 1.03178 -0.111276
3403 -0.633668 4.8878 -10.0732 0.534055 -0.829064 0.0370648
261 -0.560164 5.70719 -9.27978 -0.295786 -1.18961 0.655605
222 -9.03895 5.82749 -10.17 -0.402141 0.0318231 -0.0825015
224 -9.77925 6.12018 -9.32199 0.6009 0.949834 0.872103
195 -10.1864 3.48062 -9.05248 -0.415831 0.108541 -0.107461
247 -8.62679 6.1947 -9.01405 -1.26685 -1.14987 0.308462
818 -10.1396 7.6422 -6.52439 -0.639367 -0.492577 0.480823
231 -3.05335 6.15892 -10.1714 0.452153 -0.394669 0.281449
3377 -1.27125 6.48722 -9.29256 -0.514348 -0.0188644 -0.607794
3405 -0.735432 6.68588 -10.1911 0.218012 0.464875 0.169437
101 -9.43585 -3.72469 -10.0072 0.613036 0.0343904 -0.0714445
248 -9.8314 7.56361 -9.34963 -0.490502 -0.342428 0.490115
538 -9.10501 8.44909 -9.37321 -0.158004 0.0993235 -1.20298
534 -8.73629 7.51325 -8.99772 -0.874519 -0.445963 1.12013
271 -7.97253 8.91109 -9.73431 -0.76516 -0.43789 0.0308591
2507 -2.22294 7.21145 -9.29309 -0.430079 -0.0855379 0.174192
570 -1.42349 8.34352 -9.31361 1.67442 0.138625 -0.3648
2492 -2.15997 8.28633 -10.2371 -0.174506 -0.455568 0.0575077
566 -2.21842 8.0415 -8.60502 0.612235 -0.415885 -1.59781
1961 -3.13816 7.85919 -0.0048229 -0.548582 -0.943784 0.100033
3455 -0.452523 7.45698 -9.38805 0.0954115 0.166949 -0.458552
282 -0.427974 8.19336 -10.1578 0.481039 0.976475 -0.607935
272 -9.66104 9.42326 -9.46417 -0.576764 -0.528489 0.124183
7 -8.91227 10.1792 -9.34732 0.273574 0.458249 1.35809
1998 -8.17589 10.2206 -0.139177 0.204149 0.481059 1.81698
297 -7.8732 9.81042 -9.16637 -0.367748 0.907084 -0.342077
1031 -0.114053 -0.336599 -4.16034 -0.867176 -0.459597 -1.10184
3445 -3.06665 10.1037 -9.29896 0.810355 -0.161829 -0.189805
3529 -0.140518 -5.12142 -9.6859 -0.0248788 0.278083 0.454776
258 -2.01902 9.22234 -9.20963 -1.47376 1.25795 0.153215
305 -1.26746 9.83169 -9.56315 0.264841 0.572413 0.692031
23 -0.414644 9.17142 -9.23542 0.0270753 -0.169963 1.27613
24 -0.1608 10.2114 -9.7745 1.56257 -0.400341 -0.0461491
479 -0.0140868 1.50794 -7.51785 -1.00551 1.33572 0.0291012
296 -9.74344 -9.42316 -7.77936 -0.242866 0.563608 -0.973176
294 -9.02548 -9.38041 -8.64646 -0.957563 -0.971559 0.350692
295 -8.95203 -10.2059 -7.64539 0.845394 0.871553 -0.0130292
293 -9.68025 10.2188 -8.44256 0.47855 -0.79093 0.00880644
300 -7.66092 -8.6951 -7.74475 0.797041 1.15117 -0.647655
3204 -8.17907 -10.0952 -8.36687 -0.323096 -0.222369 0.36892
281 -2.91902 -8.67041 -9.56909 0.824186 0.649917 -0.63564
854 -2.915 -9.47531 -7.15398 -0.575631 -0.0805489 1.06673
617 -2.18539 -9.49842 -8.10014 -0.796689 0.496511 0.45038
306 -1.15021 -9.50292 -8.67469 0.635783 0.478784 -0.517213
326 -2.13345 -8.60029 -8.69334 0.292057 -0.556983 -0.156676
308 -1.82139 10.08 -8.67477 1.71335 1.14845 -0.748104
312 -0.517824 -9.72103 -7.71828 -0.110328 0.5102 -0.836869
317 -9.77067 -8.67159 -8.58978 0.419223 0.143278 0.378911
320 -9.61476 -7.67676 -7.78602 -0.745636 0.478066 0.654505
319 -8.91328 -8.62642 -7.91403 -0.31644 0.0055461 -0.121164
318 -8.88744 -7.49015 -8.55659 1.53046 0.599558 0.0840236
12 -7.90713 -8.87745 -8.69809 -1.13091 -0.829061 -0.382802
322 -8.186 -7.80633 -7.62943 0.298653 0.266099 0.585146
332 -2.93941 -8.66234 -7.85327 -0.971553 0.135565 0.483406
569 -2.04333 -7.89307 -7.83208 0.178998 0.894237 0.314746
641 -1.26293 -8.71581 -7.93661 0.0237289 -0.626923 0.366252
335 -0.218169 -8.62279 -8.22321 0.468912 0.321512 -0.570653
331 -1.0641 -7.6748 -8.12438 0.25858 1.0603 0.716982
622 -0.251418 -7.73659 -7.34247 0.355753 1.17157 -0.462114
341 -9.59294 -6.59975 -8.74298 -0.493725 -0.561835 1.10303
344 -9.69347 -6.07398 -7.78482 0.978148 -0.344328 1.34813
342 -8.6735 -6.16408 -8.46213 -0.3736 -0.564879 0.302329
343 -8.96327 -6.85617 -7.70186 0.74886 0.933106 -0.0654787
616 -7.7688 -6.75155 -8.53297 -1.40853 0.341221 -0.444
36 -7.93735 -6.42353 -7.50345 -0.190435 1.12829 -0.673728
3188 -6.88671 -6.55479 -7.82898 1.87654 1.34532 0.89618
974 -4.56501 -5.10854 -8.10719 -0.305571 1.73138 0.231499
563 -3.94968 -6.9976 -7.16879 -0.203398 -1.01658 -0.411961
92 -3.75371 -5.9127 -7.83382 0.206546 -0.0738428 -1.30225
3452 -2.5725 -5.97523 -8.48855 -0.0649097 0.469905 -0.268546
327 -1.83684 -6.90408 -8.30741 0.303518 -1.30906 -0.500682
551 -0.107071 6.49019 -7.54209 0.362101 -2.42026 -0.7379
356 -1.02936 -6.08704 -8.19473 0.343925 0.680185 -0.411918
643 -1.19362 -6.87987 -7.36497 -0.977751 -0.0620706 -0.303623
669 -0.217081 -6.06968 -7.34795 1.14305 0.209677 0.267496
365 -9.67552 -5.4015 -8.6179 0.427993 -0.778381 1.10016
368 -9.72764 -4.4587 -7.80808 0.0792526 -0.997197 0.331169
348 -8.99267 -5.27484 -7.79782 0.598655 -0.708937 -0.0831587
79 -8.73278 -4.54066 -8.59763 0.507264 1.50716 -0.922859
86 -7.986 -5.3548 -8.54608 -0.371021 -0.317167 0.834343
324 -7.41364 -5.32672 -7.64989 -0.132845 -0.252709 -0.209924
329 -5.49541 -4.86 -7.53755 -0.105535 0.0968668 -0.84036
350 -5.18858 -4.39286 -8.63207 1.4391 0.234089 0.594772
687 -3.56849 -5.19959 -8.70936 0.671043 -1.3337 -0.278951
424 -2.74873 -5.06616 -7.77842 0.425908 0.976568 0.0254081
400 -3.75717 -4.98374 -7.0103 -2.55775 -0.047975 -0.691717
376 -2.06711 -5.04046 -8.54876 -0.0963137 0.978299 0.258628
645 -2.09182 -6.00411 -7.56504 -0.678534 0.843003 -0.0912856
354 -1.20155 -5.0616 -7.73025 -0.493055 1.18171 0.911774
383 -0.160806 -5.11566 -8.18057 -0.694313 1.20997 0.195922
389 -9.66763 -3.7768 -8.73402 -0.185323 -0.420435 -0.0283376
657 -8.9816 -3.60237 -7.95462 -0.375165 0.324456 0.457954
367 -8.01978 -4.36961 -7.63374 -1.03797 -0.341597 0.518616
55 -8.05929 -3.64452 -8.40916 -0.735736 -0.924528 0.444402
682 -7.1361 -4.37116 -8.43251 -0.554687 -0.187251 -0.4507
366 -7.34985 -3.54363 -7.56155 -0.720779 0.583842 0.421791
664 -6.40755 -3.58804 -8.157 0.0398532 0.543735 1.81524
613 -6.54734 -4.37862 -7.50858 0.792138 0.185935 0.139941
445 -4.73243 -3.63537 -7.81782 -0.988184 1.41607 -0.527586
419 -5.73067 -3.55761 -7.44684 0.457785 -0.332445 0.999897
135 -3.71426 -3.46042 -8.64269 0.180654 1.06434 0.434209
3428 -3.60737 -4.31428 -7.9504 -0.849045 0.533411 0.781307
1289 -2.97093 -3.41178 -7.84962 1.17629 0.513049 0.481387
686 -3.73979 -3.53897 -7.09388 0.667959 0.751394 -0.524123
668 -2.06371 -4.19351 -7.83798 0.857691 -0.474926 -0.951475
401 -2.18241 -3.25925 -8.60661 0.437859 -0.862592 0.900084
403 -1.44189 -3.30038 -7.7987 0.771211 1.41041 0.636223
379 -1.25165 -4.09454 -8.48903 -1.17231 -1.29684 -0.199489
381 -0.506248 -4.20021 -7.69403 -0.666963 -0.977352 -1.31717
405 -0.589873 -3.30318 -8.56291 0.186145 0.775102 0.0765316
392 -9.82208 -2.8486 -7.78311 -0.787307 -0.705027 0.940533
413 -9.85556 -2.00271 -8.48478 -1.0037 -0.243174 0.310146
725 -8.91993 -1.94169 -7.78757 0.597482 -0.432661 -0.395741
391 -8.69845 -2.76386 -8.59597 0.347328 0.394114 0.346762
678 -8.16078 -2.86111 -7.69326 0.589971 -1.39345 -0.225286
415 -7.95717 -2.02115 -8.44577 0.112869 -0.145585 0.057447
658 -7.17115 -2.78763 -8.28514 0.637013 1.03659 1.64774
369 -6.50504 -2.77227 -7.46351 -0.283435 -0.198841 -0.0955453
443 -6.26444 -1.96411 -8.07135 1.00911 -0.0238647 -0.753456
442 -5.55671 -1.97319 -8.72248 -0.332512 0.537109 1.27116
396 -5.36997 -2.81115 -8.00302 0.239475 0.463006 -1.06475
733 -4.81158 -1.77922 -7.98552 -0.776871 -1.22451 1.05854
712 -3.96587 -2.7775 -7.84385 -1.78015 -1.14701 0.226176
713 -3.04897 -1.74575 -7.76508 -0.406581 0.935648 0.308719
398 -3.14821 -2.58856 -8.623 -1.01166 0.253008 -0.108088
404 -2.23681 -2.63186 -7.71393 -0.92041 -0.553915 1.47564
425 -2.28858 -1.80465 -8.50318 -0.0257595 0.268195 1.18944
427 -1.44567 -1.87375 -7.73871 -1.01162 0.423489 -1.0259
402 -1.34171 -2.55576 -8.60906 1.25529 -0.120656 1.3126
408 -0.587412 -2.5751 -7.61762 -0.344635 -0.232866 0.0375674
429 -0.509176 -1.71047 -8.4274 0.65358 0.512038 -0.656247
416 -9.8412 -1.26497 -7.65763 0.549643 0.135385 0.941601
437 -9.85287 -0.322931 -8.54565 -0.238154 -0.537906 -0.619686
440 -8.93487 -0.452054 -7.59856 0.744423 -0.568041 0.534344
439 -9.13082 -1.15867 -8.42644 0.0453388 0.479513 -0.023385
726 -8.21859 -1.21635 -7.42869 -0.674583 -0.759604 0.951584
468 -8.11735 -0.545243 -8.22954 0.128178 -0.249919 0.288813
753 -7.15398 -1.20919 -8.18448 0.943629 -0.71548 1.41692
203 -7.40263 -0.356684 -7.4057 -0.907428 0.274942 0.94482
153 -6.3574 -0.200297 -8.02618 0.164501 -0.262846 0.62515
3352 -5.55685 -0.0409282 -9.01599 0.551424 1.00957 0.337053
448 -5.63476 -1.05961 -8.00144 -0.106993 0.376688 -1.11974
467 -4.88614 -0.161407 -7.91512 1.04258 -0.434324 -0.279064
1042 -5.80946 -0.327735 -7.16571 -0.431037 -0.244731 0.416558
158 -3.92654 0.000667379 -8.65632 0.240424 -1.13836 0.133585
446 -4.05801 -1.07586 -7.80172 1.34 -0.308875 -0.70449
183 -3.09812 -0.0634421 -7.69002 0.153933 0.111486 0.309054
423 -3.10729 -0.816662 -8.44057 0.134239 -0.30828 -0.955458
428 -2.26507 -1.06741 -7.78943 0.577199 2.04726 0.549484
449 -2.11338 -0.133394 -8.42394 -0.41744 0.418848 0.562035
451 -1.30188 -0.187491 -7.59129 -0.792197 0.496055 -0.470405
426 -1.33761 -0.876356 -8.49939 -1.50112 0.784106 -1.03943
432 -0.619076 -1.02679 -7.45142 -0.29235 0.171942 -1.19404
453 -0.583945 0.0250877 -8.54784 -0.473928 -0.703211 -1.48291
438 -8.93495 0.192548 -8.36116 -0.493845 0.0557482 -0.565629
434 -9.99438 0.726031 -8.26916 -0.932341 -0.929426 -0.377039
180 -8.28776 1.51404 -8.19661 0.213623 0.29212 0.317832
466 -8.26938 0.422167 -7.55082 -0.25542 0.143467 -1.08605
1355 -7.40475 1.43521 -7.30378 -0.364212 1.01254 0.945709
463 -7.33782 0.343 -8.15333 0.440875 -0.672511 -0.231234
3060 -6.41956 1.53394 -7.83314 -1.43257 1.73268 -0.297363
204 -5.6074 0.701419 -7.72818 1.17092 0.105328 -0.208059
470 -4.77 0.665996 -8.58012 0.468071 1.30904 0.0433017
1333 -4.82081 1.41648 -7.82425 -0.529708 1.1096 -0.420719
469 -3.94708 0.699262 -7.64864 0.0531987 1.25828 0.392098
207 -3.07843 0.768367 -8.44509 0.179622 0.526318 -0.689585
473 -2.18022 0.741469 -7.79822 1.39157 -1.40045 0.175079
450 -1.42359 0.739823 -8.44647 0.106775 -0.624161 0.514933
474 -1.53137 1.55831 -7.71624 -0.193986 -0.547297 1.02764
477 -0.695183 0.694566 -7.50675 0.0701166 -0.092403 -1.98322
1713 -7.14672 9.7651 -1.24308 0.354631 0.802762 0.928905
461 -9.4119 1.62753 -7.98583 -0.00530119 0.642905 0.286665
540 -8.66113 2.41041 -7.87093 0.710878 0.734463 0.451716
490 -7.20782 2.32322 -8.02146 0.754166 -0.948077 0.31911
233 -6.48562 2.1452 -8.77761 0.711082 -0.758091 -0.0787578
3400 -4.69752 2.06769 -8.62641 0.445355 0.409105 -1.22202
3373 -5.64337 2.29334 -8.03605 0.393993 -0.447223 0.0818407
782 -3.91946 1.41182 -8.48396 -0.404684 0.196778 0.256093
3375 -2.96592 2.39702 -8.60974 1.12315 0.039514 0.556752
471 -2.96039 1.54482 -7.7701 -0.640308 -0.248432 -0.309595
230 -3.74504 2.35248 -7.87681 0.0914148 0.783783 1.73401
185 -2.23468 1.53294 -8.66513 0.403528 -0.335625 0.851246
188 -2.23398 2.465 -7.60268 -0.491499 0.600626 -0.91988
211 -1.53588 2.44459 -8.4363 -0.128796 -0.136757 2.0361
501 -0.681272 1.54388 -8.41394 -0.255323 0.0586765 -0.528799
480 -0.770468 2.33866 -7.60605 -0.759654 -0.451884 -0.285166
2014 -0.364213 9.44156 -0.339449 1.17933 -0.915299 0.86167
482 -9.43758 3.44197 -8.22976 -0.965071 0.96729 0.00634528
1085 -9.4949 4.27883 -7.38498 -0.496741 0.525081 -1.48007
1028 -1.3266 -0.471519 -0.509616 0.567853 0.990902 -0.812723
1332 -7.70787 3.29143 -7.89641 -0.308302 1.39674 0.904797
2174 -4.5413 3.43089 -7.67206 1.00524 1.21899 -0.607528
515 -4.95571 2.76071 -9.61546 0.551652 -1.26229 -2.02104
1069 -3.02684 3.08078 -7.78728 1.35897 0.119084 1.04291
236 -2.15791 3.3404 -8.63927 0.141755 -0.987464 0.424243
783 -2.45517 4.16792 -7.63878 0.914888 -0.686072 0.306591
499 -1.67925 3.34848 -7.72303 -0.0810254 -0.579752 0.620766
788 -1.33385 4.06462 -8.49594 0.816653 -0.692108 0.848227
497 -0.751458 3.17639 -8.33958 -0.00622674 -0.878629 0.504506
502 -0.829616 4.22596 -7.5674 0.59452 -0.338143 0.684394
509 -10.0687 5.96107 -8.27288 0.265056 -1.5568 -0.740875
1374 -9.37532 5.06592 -8.07109 -0.753761 -0.39697 0.0870237
525 -2.14647 4.97777 -8.5558 0.312728 0.301857 -0.488379
805 -1.56725 4.94372 -7.68519 0.663753 0.111077 -0.758516
548 -2.35641 5.94758 -7.90164 0.469654 -0.106162 -1.05711
521 -1.49653 5.81577 -8.54941 0.530093 0.475941 0.790351
239 -0.548823 5.01889 -8.44726 0.206167 -0.897653 1.29898
240 -0.769487 5.78719 -7.7781 -0.273603 1.57456 -0.663371
245 -9.54568 6.80345 -10.1744 0.401096 -0.220092 1.25991
537 -9.03582 6.35713 -7.98999 -0.620258 -0.397186 -1.19125
533 -9.68917 7.00303 -8.44808 1.20523 -1.63287 0.215335
3087 -2.87346 6.97622 -8.13877 -1.33413 0.208885 -1.17797
549 -1.34002 6.70579 -7.79923 0.365706 -1.18081 -1.0512
285 -0.489005 6.7723 -8.58012 1.10975 -0.218381 1.04209
1345 -10.2378 4.26878 -6.71956 0.803632 1.16709 -0.647819
546 -1.359 7.48184 -8.65794 -0.352963 -0.592514 0.194096
536 -9.63641 7.57926 -7.48422 1.33952 -0.925394 0.246216
557 -9.55078 8.32217 -8.4079 0.215995 0.747599 -0.297346
559 -8.96546 8.73251 -7.49145 -0.143793 -0.208131 -1.1586
276 -8.33432 8.40863 -8.45797 0.0206603 0.318615 0.545318
821 -8.49446 7.50661 -7.50779 -0.343861 -0.0977411 0.21073
283 -2.07655 7.60531 -7.69158 0.781659 -0.272394 0.204308
573 -1.48445 8.46472 -7.63436 0.255718 -0.960318 -0.797719
264 -0.575424 8.13782 -8.55166 0.239451 0.40434 1.75257
552 -0.57076 7.45858 -7.66966 0.258506 0.671085 -1.20175
560 -9.71736 9.48296 -7.70183 0.572711 2.05964 1.17082
558 -8.90408 9.40415 -8.51255 -1.29464 -0.403857 0.0350113
564 -8.06374 9.36872 -7.93599 -0.66312 -0.763559 -1.34327
572 -2.29456 9.1622 -8.01121 0.246713 1.95342 0.299361
307 -1.27338 10.08 -7.75767 0.385592 -2.16698 2.21261
309 -1.16906 9.12437 -8.49536 -0.777269 -0.114 0.724137
310 -0.460679 9.89693 -8.44376 -0.444503 1.15094 0.0601238
576 -0.624502 9.25575 -7.65542 0.214138 0.219325 -0.152915
584 -9.86236 -9.36776 -6.19678 0.237904 -0.621577 -1.08005
581 -9.8361 -10.2469 -6.83076 -1.08559 0.0370195 -0.376437
582 -9.10848 -9.49102 -6.77786 -0.967323 0.0603845 -0.265585
583 -9.05344 10.2552 -5.95435 -0.486491 0.305696 0.111038
588 -8.22925 -9.42179 -6.01222 0.078528 0.325202 -0.746123
562 -7.16345 -9.3672 -6.89406 0.372311 0.770833 -0.251606
852 -7.17915 -9.91409 -5.85109 -0.450585 0.306008 0.131508
299 -5.25532 -9.45649 -6.81095 1.15278 -0.227032 -0.472468
825 -5.47357 9.95267 -5.75714 0.961904 -0.54773 -1.00272
15 -3.9068 -9.49091 -6.51454 1.39532 -0.500602 0.456845
830 -3.06686 10.1159 -6.03624 0.490925 0.0624738 -1.59439
596 -2.23084 -9.44459 -6.38338 1.4887 -0.655987 -0.519119
594 -1.40107 -9.67923 -7.04211 -0.827262 0.56876 -0.419457
600 -0.562241 -9.4548 -6.14677 -0.383854 0.704538 -0.123662
605 -9.62099 -8.55615 -7.10807 -0.170453 0.1232 0.10986
608 -9.89674 -7.79591 -6.27802 -0.632407 -0.0355332 -0.0650613
607 -9.18103 -8.56783 -6.07929 -0.538162 0.561584 -0.416939
606 -8.92236 -7.69204 -6.89755 0.916462 -0.0734044 -0.634407
609 -8.36843 -8.73366 -6.91978 0.539041 0.121624 0.668379
612 -8.1815 -7.86142 -6.06088 1.12086 -0.730144 0.152734
347 -7.22697 -7.75011 -6.47706 -0.855424 1.32412 0.691217
278 -6.48158 -8.5365 -6.65836 -0.450351 -0.436596 0.883392
541 -4.59404 -8.63058 -6.74191 0.199198 0.619076 0.543377
592 -5.50303 -7.80076 -6.65897 -0.109746 0.800322 0.508888
328 -3.0236 -8.7236 -6.46791 -0.940734 -0.294203 -0.143133
61 -4.00775 -7.76715 -6.33747 -0.254897 -0.724497 0.473492
618 -2.10035 -8.60366 -7.09254 0.110592 0.380849 -0.458233
929 -2.34605 -7.79861 -6.37675 -0.929569 -1.196 0.167323
619 -1.59554 -8.70433 -6.11435 -1.06632 -1.07438 -0.487194
621 -0.650555 -8.82565 -7.06429 0.110216 0.102247 -0.222479
355 -1.32274 -7.85232 -7.05127 -0.505707 0.212005 -0.3984
624 -0.696173 -8.05496 -6.18264 1.03878 -1.17538 0.488586
631 -9.05665 -6.96428 -6.13599 -0.393145 0.458634 0.131247
629 -9.80335 -6.84228 -6.90147 0.451006 0.284751 0.784295
632 -9.7911 -6.09947 -6.12427 -0.0610349 -0.435401 -0.561551
630 -8.9598 -6.18638 -6.79074 0.0738007 -0.219032 -0.653075
634 -8.19404 -6.93585 -6.60994 -0.577684 0.495647 0.652267
971 -7.17639 -5.83194 -6.77709 1.00947 1.17942 -0.632647
665 -6.57464 -6.80307 -6.72125 0.580788 0.686191 0.563428
659 -6.58121 -5.8958 -5.91857 -0.884638 0.126479 -0.292915
325 -4.90592 -6.71485 -6.48684 0.45557 -0.414228 -0.250704
352 -5.61227 -5.84613 -6.53007 -0.453584 0.139156 0.500663
614 -4.97087 -5.91475 -5.61658 -0.519306 0.0217204 0.159777
685 -3.83413 -6.06529 -6.41484 0.442542 -0.110672 -0.138466
349 -3.02071 -5.85205 -6.96377 0.602355 -0.672461 0.325621
637 -3.01477 -6.85473 -6.43623 0.932442 0.384329 0.912283
648 -2.73264 -7.07286 -7.67659 0.0262597 0.616037 -0.401621
955 -1.48849 -7.00188 -6.36583 -0.629691 0.240661 -0.127898
4369 -0.336368 -7.05998 -6.56619 -0.313837 0.463448 0.310874
644 -1.22056 -5.93393 -6.95086 -0.605547 -0.0800695 -0.471566
647 -0.666926 -6.07919 -6.06569 -0.165746 1.58443 -0.287346
653 -9.72646 -5.2774 -7.03837 0.0280234 1.0566 0.0674684
656 -9.81607 -4.46157 -6.16916 0.262842 -1.13661 0.148041
655 -9.02132 -5.36014 -5.98939 -0.196446 -0.297277 0.118193
969 -8.06139 -5.11807 -6.7534 -0.348291 0.443671 1.04574
660 -7.48444 -5.15717 -5.89771 -1.16795 -1.22624 -0.247456
284 -6.4709 -5.07766 -6.68276 -0.25241 -0.142427 1.58972
399 -4.74271 -5.10374 -6.44569 -1.59842 0.157177 -0.704206
1282 -5.71675 -4.15529 -6.55566 -0.284537 -0.0548869 -0.00152325
977 -2.94947 -5.06489 -6.14827 -0.347701 -0.990054 0.686842
953 -2.24178 -5.91588 -6.36742 -2.01405 0.391726 0.162655
691 -2.05455 -4.88128 -6.91533 -1.23698 -0.201003 0.145726
667 -1.37177 -5.10303 -6.12323 0.355685 0.189876 0.575075
672 -0.551173 -5.03604 -6.9311 0.329208 0.942944 1.20944
654 -8.86537 -4.50034 -6.97321 0.0119446 0.68317 0.538266
677 -9.88752 -3.69519 -6.97371 0.19104 -0.252181 -0.693735
966 -9.06215 -3.56661 -6.00985 0.928843 0.793799 -0.912273
681 -8.20691 -4.38026 -5.96737 -0.429295 1.05232 -0.369932
679 -8.24476 -3.58495 -6.74742 1.18369 -0.226135 1.26001
688 -7.30329 -4.44264 -6.71807 -0.362799 -0.806929 0.563583
3277 -6.61958 -3.52992 -6.7367 -0.461153 0.733769 0.622109
40 -4.5117 -4.26213 -7.01441 0.0516031 0.426989 0.398665
421 -4.74978 -3.52399 -6.36773 0.90973 -0.0109995 -1.21477
373 -3.88278 -4.31132 -6.10278 -0.0717157 -0.331534 -0.0972584
374 -2.95916 -4.28116 -7.03862 0.728327 0.623128 -1.40991
980 -3.11953 -3.45727 -6.31245 -0.525989 0.2457 -0.0994467
978 -2.37575 -4.17456 -6.14382 -0.355532 0.267528 -0.0387653
380 -2.24607 -3.38403 -6.97584 0.590447 -0.188895 0.436935
692 -1.51027 -3.51511 -6.19355 -0.704695 -0.211082 -0.329402
666 -1.36703 -4.12527 -7.09435 -0.351708 -0.627975 0.0337569
384 -0.449506 -3.40078 -6.92116 -0.425308 -1.3435 0.171828
690 -0.699381 -4.24838 -6.16052 -0.681852 0.369536 0.710852
680 -10.0262 -2.94996 -6.08869 1.65604 0.960472 0.769608
970 -9.16948 -2.85995 -6.89901 0.368641 1.14233 0.423254
701 -9.89759 -2.10118 -6.7777 -0.829918 -1.41511 0.329726
702 -9.22518 -2.21226 -5.93901 0.149594 -0.537908 -0.503633
420 -7.27818 -2.03326 -7.52871 0.0763959 0.0853068 1.1093
683 -7.56779 -2.77548 -6.75993 0.00046887 0.762576 0.495147
708 -8.29486 -2.01021 -6.72202 0.308335 -0.365099 -1.61141
705 -6.78858 -1.99599 -6.51887 -0.442965 0.137906 -1.45402
994 -6.84821 -2.79766 -5.77837 -0.923217 0.520491 -0.400289
730 -5.74932 -2.04869 -7.1396 0.65101 1.65142 -0.413198
757 -4.77351 -2.67583 -7.05238 -0.332664 -0.788655 0.572937
731 -5.79419 -2.82258 -6.47305 0.444819 0.27286 -1.58516
1021 -4.99198 -1.91116 -6.31022 0.625932 -0.0332744 -1.46015
736 -3.92272 -1.88663 -7.20172 -0.594113 -0.254605 0.181862
711 -3.96442 -2.62123 -6.40219 0.798333 -0.526846 -1.42628
998 -3.19082 -1.86565 -6.32494 -0.0922951 1.05053 0.298969
689 -2.98607 -2.73031 -7.00939 0.78016 -1.03502 -0.115979
716 -2.32274 -1.83176 -6.98803 0.0797625 -0.114635 -0.129876
1001 -2.44358 -2.68235 -6.05911 0.516912 1.96239 1.06364
715 -1.53747 -1.78898 -6.12938 -1.73603 0.790766 0.487887
693 -1.48804 -2.64801 -6.78234 0.0435015 -0.950715 0.470457
717 -0.751325 -1.84192 -6.7985 1.01789 -0.169841 0.478716
696 -0.681497 -2.7426 -6.13322 0.682937 -0.963084 -0.793929
728 -8.99836 -1.2592 -6.76133 0.375363 -1.83067 0.105456
752 -9.37475 -0.231425 -6.53858 -0.611101 0.918479 -0.800934
138 -1.29405 -0.836101 -10.0934 -0.473671 0.304115 0.962943