ITEM: TIMESTEP
101000
ITEM: NUMBER OF ATOMS
6912
ITEM: BOX BOUNDS pp pp pp
-1.0259855680060181e+01 1.0259855680060181e+01
-1.0259855680060181e+01 1.0259855680060181e+01
-1.0259855680060181e+01 1.0259855680060181e+01
ITEM: ATOMS id x y z vx vy vz
8 -9.74582 -9.40058 -9.46697 1.44288 -0.682984 0.217701
722 -10.1045 0.671348 -6.6742 -0.0805134 -0.49986 -1.15913
7 -9.0421 10.1796 -9.43625 -0.771545 0.223841 -0.452471
11 -8.38322 -9.5316 -9.34191 -0.780836 -0.144963 0.162125
277 -7.42462 -9.39902 -10.0741 0.112749 -0.434562 -0.756966
20 -2.03322 -9.82072 -9.44618 -0.47499 -1.14893 1.74516
43 -0.804145 -9.4809 -9.48025 0.557241 -0.791964 -0.764194
333 -0.12781 -9.51359 -8.66493 0.565966 -0.328458 0.855218
24 -0.0354581 10.1237 -9.6476 0.0378979 -0.233828 -0.389026
32 -9.73109 -7.64516 -9.30056 -0.331413 0.10081 0.414523
31 -8.91786 -8.39833 -9.42092 1.11175 -0.231609 0.724846
278 -7.95109 -7.76992 -9.66163 -0.933723 0.101483 -0.733723
1558 -0.241515 -3.48649 -2.85296 0.0890748 0.470803 -0.340372
987 -10.1484 -1.84291 -4.29906 -1.22007 -0.0948569 0.379718
2482 -2.70946 -8.53349 -9.33905 -0.101399 -1.3864 0.191921
41 -2.40656 -7.64375 -9.99629 -0.331843 0.671506 0.0252832
336 -1.86466 -7.88293 -8.8421 -0.384619 0.487035 -0.240869
44 -1.70251 -8.45979 -9.92987 -0.664445 -0.758221 -0.49955
357 -0.759669 -7.90323 -9.83017 0.0196108 -0.770722 -0.0531314
1154 -10.2151 -9.50971 -3.4331 0.58725 1.07187 0.344198
330 -0.867134 -8.52684 -8.90571 1.68472 0.943142 0.598856
269 -9.68638 8.68809 -10.0969 0.46544 0.825079 0.57847
56 -9.55126 -6.14533 -9.61794 0.146894 -1.18751 -0.057022
30 -8.90871 -6.97617 -9.45052 -0.560567 0.799302 0.896475
36 -8.12677 -6.03641 -9.4321 -0.138316 -1.49369 0.735507
109 -8.03027 -6.86327 -10.1454 -0.808518 -0.105742 -0.164983
66 -1.55215 -7.07982 -9.63811 -0.137253 -0.207141 -0.400116
61 -2.52177 -6.85076 -9.11799 0.220777 -1.19774 -0.222715
3452 -2.48665 -5.97766 -9.89478 0.107428 0.018734 -0.858677
37 -2.07182 -5.80414 -8.85625 -0.140948 -1.18311 1.3562
72 -1.07128 -6.14069 -9.39755 0.633704 0.801356 -0.572875
638 -0.681443 -7.01091 -8.90737 -0.454825 0.286298 -0.383843
633 -8.82825 -5.18988 -9.35996 -0.893206 0.198943 0.20703
125 -9.71424 -1.99787 -10.1319 -0.0568262 -0.703155 -0.720879
3275 -8.02014 -5.11844 -10.1288 -0.249025 0.0430928 0.990713
81 -7.37684 -5.33655 -9.19679 -0.986655 -0.0644498 -0.643375
92 -2.71248 -4.975 -9.25516 0.815571 -0.63264 0.524278
93 -1.75391 -5.13758 -9.84825 -0.0991171 0.0991525 -0.393322
376 -2.19826 -4.851 -8.33933 -0.479829 0.528655 -0.0651489
95 -0.967474 -5.14867 -8.95339 -0.119039 0.623067 -0.261086
80 -9.74573 -4.45473 -9.23773 0.627279 1.49719 0.242428
78 -8.80609 -4.35489 -10.148 0.000957579 0.304906 -0.0377027
103 -8.94673 -3.62595 -9.28059 -1.13864 -0.275356 0.0618014
372 -8.00887 -4.40786 -9.27946 0.632824 -0.361126 -1.057
105 -8.00139 -3.62094 -10.0676 -0.0344082 -0.259215 0.473075
107 -7.26746 -3.48845 -9.33408 -0.613752 0.0697984 0.707955
370 -7.13671 -4.50442 -10.0498 -0.840165 -0.169611 0.870449
395 -6.145 -3.75506 -10.1429 1.01362 0.634206 -0.124379
3277 -4.20334 -4.28162 -8.8839 -0.266989 0.256579 0.70871
684 -5.46564 -3.68519 -8.98887 -0.459721 0.551076 -0.344732
133 -4.27867 -3.57171 -9.67803 -0.141195 0.558743 0.813968
2989 -6.51237 -4.38157 -9.11166 -0.0811267 -1.05855 0.488443
350 -3.36619 -4.16419 -9.46233 0.210206 -0.417873 -0.887054
135 -3.76819 -3.30613 -8.74892 -0.0205711 -0.187224 0.0488345
399 -2.87248 -4.02411 -8.52926 0.160514 0.0428484 -0.0110495
375 -2.72479 -3.17976 -9.48538 0.173357 -0.00421629 -0.220669
378 -2.0437 -4.02262 -9.41607 0.629208 -0.271494 -0.446274
962 -10.2099 -2.62933 -5.13149 0.282929 1.26282 -0.236362
96 -0.983733 -4.31169 -9.63434 -1.44955 0.349216 0.161424
115 -1.18992 -3.25106 -9.22596 -0.0586004 -0.863572 -0.202976
119 -0.116295 -3.5069 -9.59644 0.296465 -1.24602 0.870188
104 -9.72492 -2.79686 -9.32382 0.197785 -0.745081 0.0846157
414 -8.9794 -2.00878 -9.29841 -0.946785 -0.10696 1.85938
334 -0.0765407 -7.89495 -8.84112 -0.258283 -1.08226 0.0044252
393 -8.16807 -2.6743 -9.24054 0.893323 -1.09857 -0.0272707
126 -8.07652 -1.98654 -9.983 0.546107 0.289672 -0.480771
441 -7.25655 -1.85968 -9.01637 -0.243913 0.143359 -0.310645
390 -7.24203 -2.71649 -10.0759 0.709005 -0.59801 -0.509884
417 -6.28523 -2.77577 -9.19013 1.13089 -0.921423 0.552142
129 -6.41374 -1.90437 -9.88453 -0.963625 0.0553971 -0.896031
397 -5.31442 -2.70965 -9.71519 -0.0278259 -2.01849 0.671812
418 -4.72607 -1.7723 -9.64335 1.2188 -0.792692 -0.572499
442 -5.64578 -1.80833 -9.0479 0.0672427 -0.441062 0.616364
445 -4.6222 -2.76108 -8.98836 0.884051 -1.27452 0.489595
3303 -3.5922 -2.65215 -9.63253 -0.89934 0.456194 -0.814581
422 -2.96075 -1.80943 -9.49846 0.40963 0.287335 1.13143
1223 -0.0896807 -6.84509 -2.96975 0.48222 1.08045 0.157795
116 -1.99109 -2.44472 -9.45475 1.50282 -0.0781361 0.575478
161 -2.07523 -0.149303 -10.113 0.591018 0.57551 0.939608
766 -0.00973253 2.46463 -6.72582 -0.205937 -0.108912 0.443722
120 -0.448267 -2.41204 -9.29982 -0.363394 -1.99787 0.0659371
141 -0.429713 -1.55084 -10.229 0.0665334 0.268176 -0.0330855
139 -1.22948 -1.74212 -9.39008 -0.644332 0.934547 0.242143
743 -0.0446278 -0.018614 -5.78623 0.147541 -0.454577 0.0662965
128 -9.63193 -1.23863 -9.16158 -0.407072 0.825527 0.496044
146 -9.70616 -0.387894 -10.0006 0.401944 0.501066 0.771392
150 -8.81718 -0.394098 -9.26792 0.615472 0.595934 0.698491
149 -8.88978 -1.2397 -10.0448 0.842743 -0.211144 -0.344324
151 -8.02331 -1.12126 -9.17656 0.342688 0.593872 -0.7993
3324 -7.98256 -0.198919 -9.98899 -1.03103 0.756919 -1.52764
3297 -7.135 -1.0191 -9.99906 0.803555 0.15454 0.390975
465 -7.27767 -0.201472 -9.23161 0.850368 0.971134 0.508472
3300 -6.44744 -0.224053 -9.7755 0.397626 0.410509 0.408548
132 -6.54221 -1.0258 -9.03135 -0.776724 -1.44556 0.491461
130 -5.5285 -0.898236 -9.74633 -0.588333 -0.143437 0.423484
184 -4.69101 -0.260585 -9.66737 -1.16684 0.698297 -0.0601208
3352 -5.71917 -0.17964 -8.98388 0.597953 -1.31653 0.00660458
155 -4.75022 -0.99668 -8.93154 0.666529 0.149652 0.673563
160 -3.76739 -0.985249 -9.47194 -0.248585 0.730765 0.409401
159 -2.96562 -0.0966871 -9.42769 -0.937229 0.281565 -0.47226
138 -1.24799 -0.851467 -10.109 -0.34888 0.469382 1.11322
140 -2.07617 -0.935744 -9.41688 0.658621 0.245485 -0.748108
144 -0.487354 -0.838484 -9.14646 -0.419629 -0.559039 -0.0346662
1510 -0.179305 -6.08883 -2.05093 1.73965 0.0172399 -0.484643
152 -9.81435 0.361049 -9.25464 -0.661942 0.251304 -1.0783
173 -9.81478 1.16153 -9.94349 0.803188 0.0961206 0.157444
3343 -8.94117 0.456653 -9.97806 0.248137 0.671405 1.0457
175 -9.06784 1.289 -9.13073 -0.802783 0.736563 0.59374
156 -8.02062 0.539748 -9.12106 -0.874677 -0.552791 0.837406
177 -7.16076 0.676908 -10.1254 0.105417 -0.511881 -0.701725
801 -7.34019 1.29585 -9.15359 -0.942503 -1.06304 -0.39262
178 -6.48574 0.588358 -9.14242 -1.27224 0.314864 0.574323
3347 -6.46569 1.55161 -9.93562 0.40929 -0.644804 -0.222774
3328 -5.46185 0.387287 -9.82799 0.820641 0.133624 -1.04687
1712 -8.84057 10.1524 -0.894513 -0.660872 0.865099 0.226487
470 -4.90615 0.488355 -8.94213 1.53503 0.660572 -0.390733
515 -5.609 1.32565 -9.21867 -1.8379 -0.0788669 -0.448046
231 -4.61403 1.5905 -9.11545 -1.46942 -0.614928 -0.725463
3371 -3.7977 0.742266 -9.49876 1.31053 0.23392 -0.0136879
164 -2.45639 0.864009 -9.41744 -0.71944 -0.519331 -0.511905
1078 -0.229162 4.24997 -5.1258 0.703245 1.12606 0.645142
163 -1.29114 -0.107988 -9.26618 -0.50506 -0.279802 0.329286
165 -0.529253 -0.0415405 -10.0683 1.03521 0.183884 0.227461
189 -1.43629 0.623791 -10.157 0.0579951 0.918024 1.07719
168 -0.627244 0.745838 -9.34325 -0.429549 0.140784 0.204008
223 -8.94983 2.35153 -10.0523 -0.60557 0.393526 -0.0305012
176 -9.46836 2.48473 -8.99852 -0.809404 0.293801 0.823532
490 -8.21442 1.32306 -9.84392 0.395098 -0.366473 -0.527127
513 -8.05479 2.24007 -9.15028 1.02307 -0.0507354 0.179231
487 -7.49661 2.02378 -10.2317 0.219616 -0.673986 -0.831866
775 -6.6528 2.17567 -9.14933 -0.0524841 1.42619 0.363819
791 -0.137155 3.42793 -5.87314 -1.20145 -1.16373 -0.443445
3376 -5.47528 2.31402 -9.59344 0.529436 -0.341286 0.735881
1961 -2.957 7.73415 -0.0881116 -1.73948 0.231971 -0.520944
782 -3.97249 2.59021 -9.0596 -1.09293 -0.376134 0.1224
206 -3.15737 1.8252 -9.07876 -1.09319 0.274415 -0.909234
3375 -2.27037 2.23606 -9.29771 -0.339717 -0.04117 1.14423
3374 -3.0409 2.50239 -10.0035 1.0272 0.999958 0.333715
3332 -1.9583 1.59727 -10.1866 -0.348312 0.743605 -0.253864
213 -1.4659 2.56087 -9.95037 -0.456553 0.183916 0.859564
187 -1.39855 1.60893 -9.41419 0.0176295 -0.707013 -0.322259
192 -0.578418 1.56568 -10.1207 -0.282713 -0.136087 -1.61773
215 -0.711006 2.49574 -9.2679 -0.20776 -0.822049 -0.426452
225 -9.46979 3.34138 -9.78247 -0.143745 -0.0342393 0.0370571
228 -9.61829 4.19441 -8.93569 -0.769754 0.0806774 0.18896
200 -9.00731 4.51613 -10.0968 2.12811 0.777153 -0.194287
3367 -8.16676 3.05486 -10.0464 1.17853 -0.481272 -0.432719
485 -7.6329 3.01196 -8.63272 0.527784 -0.0770871 -0.28116
234 -3.88761 3.2877 -10.0019 -0.692063 -0.904887 0.418785
233 -3.12642 3.31255 -9.13819 -0.055598 0.824258 0.199056
3404 -2.4358 4.36938 -8.98574 -0.157639 -0.940118 0.889353
212 -2.26013 3.43926 -10.0755 0.980035 -0.463545 0.235029
3399 -1.28747 4.30048 -10.2012 -0.53043 -0.549756 -0.162196
209 -1.44204 3.56238 -9.37222 -1.16003 -0.0263302 -1.8032
3384 -0.729724 3.27853 -10.0629 -0.707501 -1.1792 0.329041
498 -0.559193 4.21441 -9.2845 -0.985747 0.616303 -1.64254
506 -9.14727 5.26007 -9.26025 0.893282 0.591417 0.0522347
221 -9.83648 5.24089 -10.0873 -1.40645 0.158213 -0.653431
3400 -2.44674 4.83174 -9.97559 0.425304 0.209325 -0.357949
3087 -2.1304 5.92282 -9.38015 0.0266362 0.652607 1.24426
525 -1.45939 5.02753 -9.41176 -0.0733135 0.608508 0.729801
3403 -0.380121 4.97954 -10.0569 0.264937 -0.423491 0.369494
3144 -1.19999 5.88054 -10.0234 -0.331017 -1.10529 0.627007
261 -0.488135 6.00704 -9.193 -0.320534 1.32822 -0.885765
222 -8.70285 6.04908 -10.044 0.048762 0.559986 -0.0108889
224 -9.81505 6.03442 -9.04074 0.113764 1.02141 -0.319352
247 -9.14843 7.00343 -9.14997 0.222568 -0.416746 -0.689815
249 -8.08355 7.18343 -10.0261 0.0813677 -0.278467 0.329938
2492 -2.06608 7.41262 -9.85758 1.68091 0.617346 -0.420025
2507 -1.2656 6.78327 -9.40799 -0.717452 0.845063 -0.411725
3405 -0.352262 6.59507 -10.092 0.356269 0.573068 0.649441
248 -9.84013 7.92508 -9.32228 -1.19379 -0.624085 -0.722725
271 -8.91757 8.8244 -9.37951 -0.223878 0.0897512 1.5724
246 -8.97783 7.85468 -10.0779 -0.874381 -0.978477 0.0559502
561 -7.17457 7.89398 -9.90651 0.0010993 -0.87445 -0.0174571
273 -8.06335 8.83904 -9.9691 1.39905 -0.0839075 -0.898488
1151 -0.00936852 8.45646 -4.42024 0.446212 -0.257727 0.516698
566 -2.05599 8.53822 -8.52181 -0.358107 0.0343266 0.126799
1982 -3.70963 8.42735 -0.10919 -0.378897 -0.662386 0.648764
570 -1.19693 8.13657 -9.42212 0.43477 0.327796 -1.0629
3455 -0.44004 7.52001 -9.29567 0.57307 1.31729 -0.310325
282 -0.340039 8.31553 -10.1075 -0.404881 0.540601 0.227875
272 -9.81703 9.5362 -9.32269 -0.240719 -0.0764956 -0.746094
270 -8.87541 9.58944 -10.2539 0.17958 0.604234 0.339399
276 -8.20286 9.61676 -9.17557 0.348607 0.326721 1.10074
3180 -7.3653 9.62323 -9.92586 1.15067 1.48746 -0.381706
9 -8.20794 -10.1137 -10.239 -0.0989624 -0.496987 -0.0544228
562 -7.48506 -10.0797 -9.13098 0.760372 0.541388 -0.897514
3443 -7.38338 8.74375 -9.1171 -0.687313 -1.73671 -0.610212
303 -3.28845 10.1048 -10.1432 -0.820311 0.502189 -0.178353
258 -1.73593 8.99623 -9.39946 1.01721 -0.0195667 0.652608
171 -10.1238 1.56707 -9.02642 -0.618503 0.777886 -0.163269
305 -1.19531 9.99249 -9.46451 -0.645485 0.161499 -0.339219
23 -0.390052 9.13073 -9.31347 -0.714633 0.247456 -0.660454
296 -9.74126 -9.39738 -7.70405 -0.492622 0.680604 -0.682536
295 -9.01725 -10.2427 -7.52684 0.874947 -0.70375 -1.49127
294 -9.01611 -9.42496 -8.50111 -0.499853 0.469212 0.639363
293 -9.77566 -10.2427 -8.61896 -0.216801 -0.258981 0.884042
300 -7.87083 -9.88026 -7.47197 -0.357023 -0.035475 0.464193
297 -8.24626 -10.2272 -8.3793 0.766662 -0.802654 0.900409
565 -7.25384 9.75924 -7.97023 0.440831 1.09477 -0.0401582
3204 -6.72049 -9.30218 -7.52215 0.677172 0.985117 -0.763707
281 -2.79274 -8.84581 -8.2123 -0.146125 0.79054 1.24584
617 -2.12943 -9.74198 -7.99203 0.700908 -0.408948 -0.880672
854 -2.92974 10.0379 -7.87351 0.372809 0.174668 0.307611
306 -1.22493 -9.63373 -8.4949 0.430364 0.401319 -0.0174253
312 -0.630014 -9.593 -7.62696 0.110711 0.896379 0.909961
317 -9.61028 -8.54076 -8.50036 -0.460994 0.327192 -0.0581653
319 -8.44442 -8.88248 -7.79196 -0.361342 -0.227009 1.51965
320 -9.7265 -7.76394 -7.64768 0.344032 0.304803 0.232929
318 -9.02062 -7.65643 -8.4646 -1.65856 -0.170556 -0.308971
321 -7.95367 -8.32613 -8.62389 0.565519 0.0902695 -0.689362
322 -8.25095 -7.7257 -7.58865 0.188777 -0.279474 0.521734
323 -7.19787 -7.8585 -7.85899 0.3062 0.0312634 -0.234878
329 -2.85308 -7.47053 -7.21686 0.560322 -0.7543 -0.0167904
3188 -3.12847 -7.76189 -8.72613 -0.425129 -0.217288 0.696999
326 -1.90714 -8.96872 -8.8227 0.634182 -0.20272 -7.27609e-05
327 -2.07305 -7.95391 -7.77522 -0.39132 -0.512341 -0.519199
641 -1.2711 -8.76545 -7.83888 -0.325134 -0.793802 1.2012
331 -1.09274 -7.67865 -8.02635 -0.917689 0.431891 0.633275
335 -0.285242 -8.67857 -8.03581 0.231137 0.403637 -0.394908
341 -9.83621 -6.91318 -8.5448 -0.903851 0.618748 -0.266734
344 -9.62511 -6.06468 -7.70276 -0.353385 0.730626 -0.797606
342 -9.01698 -6.12358 -8.57719 0.0616305 -0.662437 0.377927
40 -8.13076 -6.85564 -8.70115 0.606176 -0.0106062 -0.00178915
343 -8.86728 -6.86336 -7.57039 0.148694 1.49966 0.34686
324 -8.38807 -6.02329 -7.73035 0.0904846 0.324304 -0.354349
325 -2.70049 -6.5818 -8.03119 -0.365279 -0.844259 -0.866247
645 -1.67733 -6.79416 -8.32357 -0.842147 -0.882373 0.719064
424 -2.10527 -5.80019 -7.76186 0.472657 0.601187 -0.175231
356 -1.0494 -5.93299 -8.15595 0.372798 -0.876139 -1.24273
643 -1.02062 -6.7357 -7.46524 -0.0536762 1.20335 -0.292577
365 -9.58789 -5.34364 -8.6188 -0.0752686 -0.229172 0.444607
348 -8.94447 -5.12748 -7.72798 0.333527 0.788512 0.774426
79 -8.90667 -4.47932 -8.64841 -1.12628 0.618178 0.736074
86 -8.07548 -5.27583 -8.34332 -1.41042 -0.471715 0.55856
88 -6.28709 -4.42399 -7.75802 -0.56544 0.854839 0.0243261
112 -3.11991 -5.10519 -7.72299 -0.496764 0.220666 -0.0129947
354 -1.2975 -4.92068 -7.72457 -0.113709 -0.872167 0.173468
383 -0.241899 -5.21781 -8.06416 -0.932799 1.13426 -0.672959
368 -9.79532 -4.41659 -7.71538 0.838224 1.87894 -0.88579
389 -9.69853 -3.67507 -8.58084 0.237798 -0.675208 1.2752
657 -8.94571 -3.52752 -7.72057 0.882584 -1.50684 0.427523
392 -9.63401 -2.78444 -7.72425 -0.0426973 -0.746888 -0.41279
367 -8.10021 -4.41004 -7.69608 0.825526 0.0541453 -0.141948
55 -8.05462 -3.53193 -8.47169 -0.313556 0.424882 0.0825477
366 -7.18168 -3.48373 -7.59544 0.618749 -0.711166 -0.120433
682 -7.3345 -4.35182 -8.37238 0.113914 -0.109355 0.0297165
664 -6.49527 -3.53925 -8.45075 0.229893 0.735076 -0.100651
709 -4.66856 -3.39477 -8.00463 -0.0738684 0.524846 -0.284089
419 -5.63395 -3.57839 -7.49978 -0.920681 0.904194 -0.296589
352 -4.71966 -4.90021 -6.69418 0.368637 -1.1579 0.307819
400 -3.75903 -4.17197 -7.89368 0.779272 -0.513268 -1.1596
1289 -3.00805 -3.29457 -7.75613 -0.247684 -1.0955 -0.102001
401 -2.13917 -3.22354 -8.51816 -1.25631 0.441459 -0.213992
668 -1.98836 -4.02478 -7.69344 0.874888 0.375838 0.458806
382 -0.222019 -4.33474 -8.83836 -0.434481 0.00248843 -0.973694
403 -1.38862 -3.15119 -7.64782 -0.562906 -0.0826377 2.1203
379 -1.32678 -4.2201 -8.50238 -0.000759439 0.0593148 0.190762
381 -0.618772 -4.10771 -7.7184 0.40132 -0.678421 -0.089968
405 -0.544326 -3.30676 -8.39803 1.32958 -0.220144 1.11907
391 -8.97177 -2.83625 -8.56481 0.0814614 0.371424 -0.209689
413 -9.73308 -1.98003 -8.49756 0.754794 0.830638 0.180539
725 -8.94321 -2.03174 -7.66155 0.264377 0.0844025 -0.241616
678 -8.06067 -2.70269 -7.78427 0.568934 -0.051634 0.285857
415 -8.07215 -1.85153 -8.412 0.0296082 -0.200839 0.476318
420 -7.0461 -1.96917 -7.44769 -0.605334 -0.82893 0.481688
658 -7.13527 -2.73423 -8.3453 -0.0318013 -0.198456 1.08051
443 -6.37766 -1.9019 -8.37404 1.19544 0.804044 -0.0879583
369 -6.33207 -2.71796 -7.47927 -0.468583 -0.61236 0.87525
396 -5.54615 -2.73813 -8.41993 -1.40267 1.349 -0.498177
733 -4.82215 -1.89258 -8.1292 0.590657 0.339224 1.52763
730 -5.65813 -1.78501 -7.31625 1.01755 0.595539 -0.161239
757 -4.88235 -2.72341 -7.24676 -0.413771 -0.197275 -1.2316
136 -3.89878 -1.76246 -8.78277 0.0617806 0.786413 1.18748
712 -3.89547 -2.68094 -7.78314 -1.06871 -0.313769 0.228293
713 -3.19176 -1.75815 -7.82498 -0.044384 -0.13416 -0.347455
398 -2.97601 -2.52696 -8.62763 0.149867 0.454188 -0.675729
404 -2.28806 -2.44796 -7.73408 -0.911311 -0.145308 -0.795587
425 -2.15694 -1.7613 -8.61921 0.0244687 0.397993 0.013073
427 -1.43795 -1.68274 -7.68285 -0.424968 -0.320877 -0.712782
402 -1.24504 -2.45564 -8.53849 1.08246 -0.0770101 -0.55515
408 -0.537051 -2.44789 -7.60325 -0.944408 -1.39231 -0.469082
429 -0.513341 -1.64578 -8.52251 0.752868 -0.120855 -0.692879
416 -9.84781 -1.23405 -7.67515 -0.00785384 1.09488 -0.0470212
437 -9.81282 -0.368987 -8.44229 0.0626885 -0.98594 -0.947338
440 -8.9857 -0.441794 -7.65286 -0.121843 0.693467 -0.662527
439 -8.96347 -1.25072 -8.4645 0.313847 -1.53149 -0.296669
435 -10.1065 -0.184794 -7.27326 0.0681103 0.433426 -1.12156
726 -8.10334 -1.14913 -7.59862 -0.190933 0.0221786 1.20298
468 -8.19736 -0.287565 -8.28496 -0.441999 -0.101329 -0.592134
203 -7.40587 -0.161365 -7.36015 0.924543 0.724321 -0.859561
753 -7.25973 -1.01015 -8.20359 -0.327946 0.27198 -0.636783
153 -6.46001 -0.272678 -8.22006 -0.144759 0.200717 -0.243186
1018 -6.46501 -1.0876 -7.52039 0.391111 0.268386 0.514524
1042 -5.64696 -0.41272 -7.43022 1.40229 0.144663 0.253491
448 -5.68656 -1.07572 -8.25627 1.08681 0.323922 1.02583
467 -4.82071 -0.264182 -8.12914 0.0443883 0.814426 -0.166463
423 -2.91747 -1.02597 -8.6997 0.425575 -0.494004 0.483574
158 -4.01791 -0.202004 -8.80423 0.688506 -0.801395 -0.111654
446 -4.05526 -1.0387 -7.96037 0.105707 0.0287269 0.63079
183 -3.1338 -0.16668 -7.98452 1.18127 -0.459683 -0.390979
428 -2.32157 -0.916399 -7.82483 -0.768335 0.0473783 0.0396753
449 -2.31349 -0.0214475 -8.53187 0.524168 -0.98345 -0.346894
451 -1.50773 -0.0795002 -7.66883 0.351264 -0.816738 -0.106883
426 -1.34689 -0.94394 -8.57422 0.720275 -0.0741809 -1.09572
432 -0.660288 -0.912012 -7.61302 1.04592 -0.390538 -0.362586
453 -0.613909 -0.0974814 -8.39071 0.386145 -0.984072 0.305795
53 -9.78566 -7.01057 -10.2063 -0.0347115 0.808079 -0.249436
438 -9.05197 0.40621 -8.53759 -0.693398 -0.481927 -1.34034
749 -9.37756 0.723486 -7.44204 -0.254429 -0.130929 -0.544
434 -10.0769 0.750231 -8.30436 -0.882231 0.494744 -1.06417
180 -8.27482 1.43727 -8.39206 0.133966 1.72671 0.476744
463 -7.30224 0.465697 -8.25042 0.10257 -0.901312 0.790382
466 -8.24079 0.485796 -7.48534 -0.897337 0.599719 0.524276
1355 -7.53331 1.55344 -7.26939 -1.40619 0.164237 -1.07162
179 -6.58775 1.34012 -8.39092 0.643928 -0.925158 0.0371565
154 -6.5765 0.494816 -7.39565 -0.990128 0.269321 -0.0749716
204 -5.77927 0.42819 -8.08051 -0.225018 1.07392 0.109236
781 -5.05099 1.28856 -8.11627 -0.508567 0.0280088 0.984802
1333 -5.74853 1.60226 -7.47363 0.684723 -0.146313 -0.597252
469 -4.20699 0.627209 -8.14319 -0.203093 0.198538 -0.254847
207 -3.1045 0.866352 -8.41196 0.856435 -1.03266 0.198603
473 -2.31213 0.753187 -7.6203 -0.40607 0.3127 -1.1937
450 -1.4313 0.687884 -8.46562 -0.763499 -1.86484 -0.575383
477 -0.780656 0.670156 -7.53998 1.73434 -0.566495 0.938029
461 -9.35226 1.70572 -8.17433 0.22189 -0.235311 -0.68827
199 -8.60856 2.56134 -8.14934 -0.267586 0.988665 0.0710375
772 -9.57911 2.67325 -7.50799 -0.271385 -0.0378239 1.3969
773 -7.35829 2.10946 -8.14575 0.214965 1.57142 1.39297
3060 -5.74141 2.10134 -8.45224 0.28491 -0.35005 -1.47649
1070 -5.03853 2.92147 -8.63153 0.0609965 -1.19382 0.474054
1071 -4.92722 2.26677 -7.58421 0.338088 -0.397657 -0.556494
471 -3.72183 1.77008 -8.1675 1.19958 -1.05734 -0.902508
232 -3.84046 3.12503 -8.17408 0.670591 1.34101 -0.685979
230 -2.69806 2.51451 -8.37866 0.399878 0.241615 -0.146446
185 -2.25596 1.42862 -8.3966 -1.41299 -0.313073 -0.115109
188 -2.02136 2.41891 -7.5575 -0.799958 -0.185412 0.741665
474 -1.44717 1.47052 -7.53542 -1.0138 0.584718 0.609774
211 -1.41077 2.39974 -8.44419 0.922115 0.996894 -0.45129
501 -0.735068 1.48884 -8.4636 -0.139467 0.258035 0.67478
480 -0.713929 2.34392 -7.54386 1.04997 0.796494 -0.149264
774 -9.45178 3.64994 -8.0874 1.04957 0.56044 -0.0605903
770 -8.60446 4.39936 -8.4802 1.30071 -0.979849 -0.510688
2460 -8.65294 3.3347 -9.02628 -0.674371 0.0409928 0.202711
1643 -8.28668 3.59923 -7.91446 0.781584 0.0896205 1.1501
491 -3.25667 4.50288 -8.01536 -0.889427 -0.205589 -0.396309
1069 -2.92886 3.39593 -7.66491 -0.176295 -0.226765 0.208989
236 -1.914 3.26048 -8.45623 -0.848003 -2.06351 -0.785637
784 -2.22112 4.27461 -7.78492 0.174486 -0.530943 -0.867518
499 -1.3574 3.31624 -7.52879 0.143879 0.969742 -0.579135
2013 -1.07035 8.71234 -0.267754 1.58187 -0.39523 -0.730656
788 -1.36553 4.2522 -8.57009 -0.989505 -0.161896 0.270135
497 -0.581217 3.37589 -8.55305 -0.630534 -1.29587 -0.683114
502 -0.752973 4.24619 -7.61116 0.105383 -0.603827 0.522822
1728 -1.1102 9.45936 -1.2787 0.449996 1.08454 -0.917719
510 -9.7182 5.09644 -8.16687 -0.469496 0.362307 0.0246723
3372 -8.20265 5.3104 -8.82105 -0.627693 -0.00792152 -0.125762
518 -2.21835 5.23351 -8.46679 0.0465998 -0.71215 0.931841
548 -2.25555 6.12516 -7.71831 0.634324 0.385892 -0.892496
805 -1.43216 5.13834 -7.67847 -0.327858 -1.15587 -0.610791
239 -0.501535 5.09116 -8.3743 0.598618 0.406166 -0.722185
240 -0.54942 5.92692 -7.74685 0.54566 0.0684008 0.816872
533 -9.99561 7.01894 -8.38439 -0.768511 0.290613 0.878566
3109 -9.07741 7.15175 -7.66088 -0.313316 0.221458 0.635339
3396 -9.12414 6.04825 -8.22361 0.60558 0.798594 0.682162
521 -1.44182 6.20687 -8.42171 0.105591 0.507779 0.705953
237 -2.20181 6.93243 -8.81276 -0.0480221 -0.0313875 0.0180646
549 -1.35813 6.72771 -7.59929 -0.11687 -0.712138 -0.584472
285 -0.414803 6.71367 -8.47268 -0.344331 -0.966567 -0.0257483
1733 -9.07059 -9.45367 -0.164327 0.592091 0.190781 0.728954
536 -9.9475 7.80638 -7.56055 -0.172026 -0.135895 0.829147
534 -9.22586 7.82287 -8.51868 -0.808064 -1.40521 -1.15829
559 -9.1035 8.76737 -7.5605 0.528792 -0.739145 -1.40426
557 -9.79413 8.66898 -8.69431 -0.0866674 -1.12324 -0.0563041
252 -8.29444 7.92799 -9.23525 0.0691446 -0.295547 -0.389929
462 -8.27659 8.04401 -7.43428 0.305409 0.113045 -1.17461
538 -8.45028 8.82631 -8.4151 -0.00333204 -0.89848 1.05123
283 -2.32671 7.11559 -7.68891 0.808021 -0.0673424 0.950298
573 -1.17166 8.38375 -7.6692 0.235829 -0.959637 0.451042
546 -1.33495 7.72938 -8.47838 0.0743047 -0.0515492 -0.451531
264 -0.291239 8.31809 -8.45839 -1.11401 0.991078 1.16432
552 -0.478646 7.40361 -7.60315 0.0765773 -0.13084 -0.635912
560 -9.90846 9.51806 -7.60125 0.795786 -0.239788 0.363851
558 -9.15605 9.5704 -8.51213 0.271549 0.0299728 1.65709
564 -8.17386 9.53402 -7.58814 -0.326474 -0.213558 -0.385128
569 -2.89471 9.31715 -9.15898 -0.326654 0.936855 -0.03212
308 -2.05018 9.94393 -8.69638 0.6225 -1.26209 0.143503
572 -2.08931 9.26595 -7.74132 -0.591127 -1.08709 -0.616346
307 -1.33826 10.0625 -7.67179 0.287036 -0.850782 0.865004
309 -1.16165 9.14426 -8.5876 -1.24753 0.74645 -0.823438
310 -0.513587 10.0436 -8.60987 0.20803 0.311882 -0.885415
576 -0.524131 9.34212 -7.54082 -0.512738 -0.0887432 2.20278
584 -9.92415 -9.26373 -5.99973 -1.01843 0.522656 0.119303
582 -9.00136 -9.28239 -6.90937 0.408712 -0.753881 -0.756059
581 -9.87867 -10.0842 -6.71134 -0.398565 -0.88948 -1.12772
583 -9.0782 -10.0309 -5.97 0.219886 -0.929362 0.612107
588 -8.17616 -9.22519 -5.9854 0.374595 -0.337731 1.52363
585 -8.20761 10.2451 -6.51217 0.631147 0.0554996 -0.792967
299 -7.27439 -9.49722 -6.54192 -0.254451 -0.239547 0.326374
852 -7.51487 -10.1254 -5.72494 -0.121231 0.439862 -1.60053
850 -6.66303 -9.45746 -5.71013 -0.247884 -1.08547 -0.262305
10 -6.04712 -9.68465 -6.53756 -1.41128 -0.378886 -0.349434
589 -5.05796 10.1686 -6.2528 0.382527 0.318607 -0.36368
15 -3.98584 -9.43615 -6.42952 0.276331 -0.16196 0.853015
332 -2.87665 -9.60207 -7.2861 2.19463 -0.733256 0.150374
596 -2.2971 -9.63775 -6.11991 -1.0342 1.02796 1.05328
830 -3.08197 10.2105 -5.94733 -0.385316 0.0503945 0.406499
594 -1.35894 -9.66098 -6.89727 -0.889935 -0.314848 -0.170693
600 -0.544048 -9.49262 -6.05524 -0.742628 0.910506 -0.75482
77 -9.62625 -5.27649 -10.2557 0.802623 0.0798648 -1.02065
605 -9.78658 -8.66757 -6.98635 -0.219386 0.0102451 0.705764
608 -9.82944 -7.65474 -6.20579 0.38629 0.0313508 0.294541
606 -8.93791 -7.80742 -6.85726 1.16207 -0.12015 -0.890788
607 -9.15991 -8.60066 -6.04372 -0.619521 -0.497426 -0.0349991
609 -7.95455 -8.63393 -6.94269 -0.305653 1.00123 -0.194322
612 -8.05 -7.96903 -6.06277 1.38843 0.460599 1.16789
611 -7.30567 -8.63912 -5.93631 0.358953 -0.520381 0.334063
347 -7.10684 -7.85993 -6.69907 0.123487 0.0338857 -0.175161
586 -6.29089 -8.66894 -6.71089 -0.271005 -0.10877 -0.254071
587 -6.44068 -7.75103 -5.80573 1.1489 0.309597 1.07193
563 -4.83135 -8.7395 -6.47271 -0.377053 0.349844 0.355829
637 -5.6132 -7.81936 -6.6449 0.47009 1.50817 0.253985
665 -3.7643 -7.86585 -6.48387 -0.223371 0.882631 -0.395039
328 -3.05851 -8.75744 -6.48024 -0.217057 0.23728 0.444721
618 -2.03448 -8.69456 -7.00396 1.46739 0.297375 0.272257
929 -2.27785 -7.75926 -6.32423 0.140792 -1.52072 -0.553646
621 -0.680502 -8.77957 -6.92953 -0.889232 0.28594 0.718275
619 -1.42534 -8.79186 -6.08751 -0.538672 1.26093 0.584138
355 -1.32959 -7.77733 -6.88692 -0.380382 -0.727316 -0.106678
624 -0.619629 -7.82331 -6.0139 1.27634 -0.291562 -0.83426
622 -0.293641 -7.70399 -7.29922 -1.05967 -0.378172 0.725274
631 -9.06184 -6.93144 -5.99975 1.76767 -0.081958 0.0429254
629 -9.67214 -6.84712 -6.94204 -0.613547 -0.557515 0.338527
632 -9.90404 -6.03509 -6.12688 0.115221 -0.210776 0.181475
630 -8.87812 -6.13517 -6.79565 -0.138884 -0.0160547 -0.239668
634 -8.06265 -7.10887 -6.74242 0.274405 0.887385 -0.900342
636 -8.13126 -6.10514 -5.98467 0.990589 -0.916267 0.0254738
610 -7.21044 -7.00793 -5.94358 0.533869 0.152927 -0.0205108
35 -7.24985 -6.0972 -7.07626 1.01852 -0.936246 0.0148446
616 -6.43307 -6.96503 -6.61385 -0.815564 1.43213 0.0262547
284 -4.71336 -7.20059 -6.29459 -0.24884 0.428247 0.0614682
613 -5.31587 -6.15057 -6.55181 -0.361984 0.931136 -0.521066
685 -4.08074 -6.2519 -6.499 0.981986 0.131937 -0.793662
349 -3.23326 -6.91777 -6.22834 1.73873 0.262943 0.0128608
974 -2.83261 -5.85976 -6.99821 -0.112316 0.711854 -0.212697
648 -2.01417 -6.85502 -7.11497 1.02458 -0.771205 0.29974
953 -2.11332 -6.21985 -6.2065 -0.0339045 0.291835 -0.319786
955 -1.30285 -6.98781 -6.29874 -1.10243 -1.03228 0.68039
669 -0.326885 -5.91517 -7.36628 -0.586701 -0.141668 -0.418018
4369 -0.262442 -6.74704 -6.61939 0.867642 0.145264 -0.220745
644 -1.3593 -5.83551 -7.03964 0.65427 -1.50718 0.387806
653 -9.64434 -5.26781 -6.91142 -0.537498 -0.844616 0.0567621
655 -8.94832 -5.31771 -6.10729 -0.962622 0.128353 0.1992
656 -9.68227 -4.43071 -6.21891 -0.113923 -0.445194 -0.830001
969 -8.08714 -5.24255 -6.9977 0.278324 -0.503979 1.31036
681 -8.21103 -4.54951 -6.06681 -0.803817 -1.00698 -0.408602
660 -7.3413 -5.29652 -5.97475 0.345632 0.318113 0.364682
688 -7.12305 -4.63153 -6.95101 -0.771977 0.607558 -0.859316
971 -6.44958 -5.39506 -6.7124 -0.830117 -0.0106514 0.905941
687 -6.56869 -4.43117 -5.91012 0.114783 -0.310599 -0.4054
949 -5.63462 -5.20451 -5.94178 -1.49262 0.0650693 1.69273
977 -2.75608 -5.15908 -6.21962 -0.0742371 0.697107 -0.930013
691 -2.14272 -4.89449 -7.11787 1.13073 0.139258 -0.255462
667 -1.45462 -5.12883 -6.29004 -0.108994 -0.249216 -0.499792
647 -0.7598 -5.96848 -6.24609 -1.55518 -0.640695 0.46239
672 -0.534604 -4.94863 -6.86897 -0.0064746 -0.241297 0.701599
654 -9.00399 -4.31732 -7.02267 -0.201141 0.968184 0.956202
677 -9.70435 -3.50481 -7.01728 -0.534621 -0.0859736 -1.6833
966 -8.81063 -3.67314 -5.9935 -1.6287 0.732158 -0.644786
970 -8.93443 -2.73178 -6.9159 0.593174 -0.737901 0.131917
679 -8.05233 -3.69511 -6.94325 -0.277693 -1.05288 -0.0165277
1281 -7.50904 -3.72591 -5.92832 0.116278 -0.212581 0.0862435
707 -6.55353 -3.50163 -6.60206 -0.596377 -0.525943 0.1345
994 -6.57589 -2.73256 -5.85198 0.772832 0.21537 0.54511
1282 -5.82062 -4.43885 -6.76788 -0.264601 -0.548921 -0.5567
421 -4.89293 -3.6469 -6.52509 0.366497 -1.13265 -0.12581
1307 -5.75559 -3.71334 -5.94243 -1.79649 -0.983105 -0.202923
373 -3.65487 -4.64835 -6.43861 -0.0168995 -0.190192 -0.26707
686 -4.05524 -3.41284 -7.08848 0.273639 0.610975 0.29008
980 -3.25119 -3.48594 -6.30117 -0.191151 0.486433 -0.9494
374 -2.90137 -4.13815 -7.03433 -0.0663593 -0.162421 -0.17152
978 -2.20481 -4.2384 -6.2366 -0.119959 0.451595 0.450152
380 -2.16107 -3.3412 -6.94095 -0.464582 0.00366902 0.520121
666 -1.34896 -4.1633 -6.78983 0.591142 0.359141 -1.85412
692 -1.46174 -3.35952 -6.10617 0.667404 0.544538 0.237024
690 -0.592908 -4.10709 -6.04983 -0.028496 -0.401138 0.0672439
384 -0.549234 -3.32495 -6.80236 1.06757 -0.315197 -1.18655
680 -9.7505 -2.87315 -6.10205 0.850059 -0.751489 1.04313
701 -9.90121 -2.15757 -6.89212 0.289332 -0.784453 0.73936
702 -9.07485 -2.03385 -6.17032 0.160751 0.411427 -0.296454
993 -8.31732 -2.79493 -5.92444 -1.18602 -0.426957 -0.205276
708 -8.19914 -2.0006 -6.89669 0.956909 -0.00954588 -0.0609234
683 -7.26003 -2.75209 -6.84487 0.334747 1.11721 -0.0442454
706 -7.50318 -2.11684 -6.00228 -1.12499 0.596082 0.620618
705 -6.48727 -1.96274 -6.55321 0.833876 -1.10238 0.717466
731 -5.69448 -2.81764 -6.54424 0.106254 1.93826 0.383386
1021 -5.02015 -1.86736 -6.45721 0.571826 0.916508 0.450163
736 -4.11902 -1.8005 -7.2309 -0.313796 0.406751 1.19855
711 -4.12649 -2.56427 -6.42579 0.59905 0.000533294 -0.425018
998 -3.23845 -1.74475 -6.11172 -0.788899 -0.322316 -0.756044
689 -3.1401 -2.57397 -6.92983 -0.0103202 -0.468127 -0.554775
716 -2.28292 -1.67273 -7.01342 -0.170269 -0.155898 -0.73224
1001 -2.46404 -2.43316 -6.1056 0.564878 0.452335 0.60329
693 -1.53841 -2.53394 -6.75868 0.414406 1.00328 0.217289
715 -1.66262 -1.6843 -6.08931 0.533344 -0.097361 -0.409493