ITEM: TIMESTEP
154000
ITEM: NUMBER OF ATOMS
6912
ITEM: BOX BOUNDS pp pp pp
-1.0259855680060181e+01 1.0259855680060181e+01
-1.0259855680060181e+01 1.0259855680060181e+01
-1.0259855680060181e+01 1.0259855680060181e+01
ITEM: ATOMS id x y z vx vy vz
8 -9.60667 -9.297 -9.62794 0.373548 0.0528249 0.11426
7 -8.68352 -10.1896 -9.55578 0.194727 -0.606639 0.483104
11 -7.95843 -9.51013 -9.20353 -0.373581 0.33411 0.507282
1660 -10.1127 6.4882 -0.680764 0.184089 0.685408 -0.900566
5092 -0.0548773 4.12405 -1.38482 0.0253138 0.242643 -0.0854939
43 -1.0328 -9.42229 -9.79131 0.564943 -0.447682 0.861876
333 -0.235864 -9.42763 -8.77425 1.16524 0.299389 -0.633725
32 -9.48755 -7.71664 -9.5146 -0.621288 1.21385 -1.07923
31 -8.73605 -8.64361 -9.47215 0.269121 1.56549 0.66639
9 -7.99698 -7.53538 -9.28872 0.187826 1.34264 0.13621
3332 -2.34088 1.38618 -9.92456 -0.999262 0.597486 0.523836
44 -2.08779 -8.85761 -9.91757 0.277527 1.45897 -0.0252976
336 -1.81601 -7.70869 -9.26622 0.117695 -0.277139 0.300878
2475 -10.0919 -1.77742 -0.759975 1.79766 -0.716644 -0.8063
357 -0.845296 -7.62269 -9.91014 0.416355 -1.7343 -0.353486
330 -0.778775 -8.45617 -9.22905 -0.446501 0.548086 -0.992118
334 -0.0352159 -7.72413 -9.13086 -0.780945 -0.137124 1.03599
6 -7.46514 -8.98185 -10.0427 0.758207 0.579348 0.626013
2748 -6.2715 0.615677 -10.1374 -0.0429667 -0.324306 -0.298858
56 -9.46038 -6.03795 -9.24105 1.22027 -0.899197 -0.201409
30 -8.81035 -6.84295 -9.26436 -0.0677808 -0.242327 -0.225239
109 -7.96113 -5.96098 -9.08096 0.621199 -0.306012 -0.463553
3212 -2.44632 -6.89345 -8.94916 -0.239894 -1.5168 0.934459
37 -1.74101 -6.02298 -8.99281 -0.618659 -0.442014 -0.501051
66 -1.76024 -6.9325 -9.98535 0.690639 -0.260376 -0.0793422
3446 -2.38195 -5.96056 -9.91661 0.296977 -0.319124 -0.402054
2492 -2.15969 8.27217 -10.1645 -0.160504 -0.480462 -0.0624795
638 -0.948744 -6.9802 -9.05953 0.156712 -0.268 0.508074
72 -0.913658 -6.18881 -9.82911 -0.361704 -0.47345 0.199886
360 -0.31854 -6.07111 -8.95943 0.195666 -0.47736 -0.435447
80 -9.64948 -4.30772 -9.42034 -0.992082 -0.62105 0.134198
791 -0.215563 3.29259 -5.80544 0.386624 0.996943 0.50932
633 -8.7981 -5.20241 -9.35846 0.739536 -0.116239 -0.709158
372 -7.91043 -4.33955 -9.17468 -0.983735 -0.259353 -1.2167
2989 -6.26954 -4.17516 -8.87281 -1.60875 -0.0841193 -1.04208
38 -3.41934 -6.32588 -9.8803 0.476837 0.15608 0.942389
254 -3.6047 -4.2448 -9.62515 -0.254297 1.66628 -0.184641
687 -3.62972 -5.19189 -8.83909 -0.93072 -0.534823 1.63511
2482 -2.83153 -4.9488 -9.61435 0.0126365 -1.04806 -0.497932
93 -1.74056 -5.24127 -9.67295 0.618337 0.105361 0.0522959
95 -0.989852 -5.15033 -8.96321 -0.503666 0.436633 1.22698
3529 -0.107402 -5.1418 -9.73523 -0.246107 -0.484864 0.0458393
1198 -0.114604 -7.81822 -3.7803 1.13902 -0.37274 -0.220231
1920 -0.241227 3.36059 -0.505286 0.14359 -0.838397 0.62106
103 -8.79051 -3.49182 -9.18199 -0.719798 -1.43744 -0.598706
105 -7.71351 -3.50819 -9.97789 -0.284242 0.623186 0.493621
370 -7.05545 -4.30311 -9.77962 -0.889942 0.225022 -0.703302
107 -7.11494 -3.43372 -9.13719 -1.25468 1.21876 -0.377856
395 -6.24273 -3.44622 -9.71805 -0.120252 0.652529 -1.18513
81 -5.44935 -4.42243 -9.70517 0.559168 -0.77811 -0.880362
684 -5.38319 -3.3936 -9.08791 -0.962851 0.116997 -1.04327
3260 -4.60547 -3.49484 -9.81457 1.29504 -0.230164 0.558837
350 -4.51974 -4.30221 -9.02931 -0.449695 0.0282427 -0.881465
375 -2.83853 -3.31988 -9.63021 0.127668 -1.04059 0.810024
135 -3.8425 -3.41157 -8.94128 0.174001 -0.287057 0.329698
112 -2.89102 -4.12512 -8.86822 -0.091973 0.148723 -1.5083
378 -2.09811 -4.07588 -9.4494 -1.63069 0.295691 0.575573
526 -0.011712 4.98919 -7.53564 -0.447232 0.0040551 0.673271
96 -0.870191 -4.45368 -9.83241 0.674356 -0.333231 -0.829723
115 -1.2525 -3.4262 -9.44215 1.43972 -0.948699 -0.322818
119 -0.156817 -3.54919 -9.7089 0.0565462 0.573799 -0.578086
382 -0.257715 -4.26944 -8.80162 0.131614 0.17373 -0.896704
125 -9.66224 -1.95119 -10.0421 0.107956 -0.541098 0.740668
104 -9.68466 -2.73523 -9.18531 0.508191 -0.483086 -0.427979
414 -8.91232 -1.80822 -9.31991 -0.723319 -1.15848 0.433194
393 -7.95944 -2.74133 -9.18236 -0.325787 0.967159 -0.437038
126 -7.9838 -1.98321 -9.8697 -0.521794 1.37342 -1.21603
77 -9.50639 -5.10582 -10.2375 0.466272 0.186178 -0.693862
441 -7.1644 -1.88705 -9.01757 -1.87721 0.897343 -0.15416
390 -7.07583 -2.58821 -9.73533 -0.119583 1.16265 -0.829094
417 -6.34013 -2.65037 -9.02961 0.881203 0.255026 0.0699761
129 -6.36662 -1.85308 -9.78165 -0.861847 -0.38208 0.178614
397 -5.46757 -2.6123 -9.75303 -0.614072 -0.497611 0.381813
418 -4.64565 -1.93305 -9.57158 0.735445 0.168067 -0.249037
442 -5.49994 -1.7731 -8.86553 0.396862 0.850619 0.209918
133 -4.65349 -2.59523 -8.76208 -0.608773 -0.116303 1.27629
3303 -3.67355 -2.59644 -9.56786 0.0097997 -0.603497 -1.56681
561 -8.85354 9.33977 -10.123 -0.122937 0.286091 -0.728717
422 -2.94751 -1.65245 -9.51094 -0.337853 0.704302 -0.81191
116 -2.08551 -2.4838 -9.4768 -0.0974171 -0.0894303 -0.447126
3308 -2.04503 -1.66373 -10.1777 -1.50042 0.864852 -0.906927
141 -0.461723 -1.6948 -9.88613 -1.02918 -0.500125 0.415421
120 -0.616786 -2.57005 -9.18498 0.16307 -0.066014 -1.2377
139 -1.38122 -1.69306 -9.27329 0.999797 -0.609853 -1.38702
114 -1.16498 -2.54375 -10.0689 -0.092425 -0.173888 -0.725723
128 -9.71519 -1.05571 -9.316 -0.274968 -0.442747 0.232977
146 -9.6901 -0.338821 -10.0792 -0.103806 -0.813692 -1.41252
150 -8.7551 -0.215371 -9.13459 -0.81988 0.264516 -0.406749
149 -8.75735 -1.02426 -10.2353 0.214225 -0.110301 -0.51686
151 -8.02462 -1.16729 -9.06172 -1.22135 2.00339 0.739041
3324 -7.96866 -0.123973 -9.94539 1.19832 0.0177071 0.991191
465 -7.41156 -0.353976 -8.96345 0.168944 0.858318 -0.348563
3297 -7.26053 -1.13019 -9.80962 -1.09927 0.949878 -0.915566
132 -6.383 -1.12925 -8.8623 0.412261 1.0664 -0.152503
3300 -6.49778 -0.276869 -9.50886 -0.625329 -1.71063 0.421606
130 -5.74833 -1.04212 -9.68371 -1.42511 0.210289 -0.357514
184 -4.68758 0.0227378 -9.41718 0.67461 0.379861 -0.123004
1006 -0.223628 -1.06141 -5.22763 0.358296 -0.505729 0.390972
3352 -5.54613 -0.324781 -8.86213 0.695948 0.1239 1.05993
1346 -10.2424 4.9147 -2.24803 -0.8799 0.912595 0.556363
160 -3.83739 -0.771581 -9.21471 -0.0903705 -0.794594 0.227687
134 -3.02358 -0.824831 -10.2224 0.994193 -0.178031 0.225815
159 -3.1192 -0.072577 -9.43612 -1.22445 -0.59848 -0.299679
140 -2.23958 -0.85362 -9.40695 0.582753 -0.917399 -0.13979
161 -2.27347 -0.0111501 -9.94189 -0.280361 -0.399593 0.0714598
144 -0.586245 -0.830886 -9.19857 0.483713 -0.811221 -0.45881
138 -1.2621 -0.93335 -9.94446 -0.185606 0.959781 -1.30373
163 -1.40196 -0.0708689 -9.23846 0.497904 -0.430285 -0.601891
152 -9.84302 0.597955 -9.32129 0.278104 -0.385912 0.399106
3343 -8.85451 0.606472 -9.83458 -0.75402 -0.964314 -0.631595
175 -8.92659 1.3481 -9.05976 0.329428 -0.1822 0.14084
156 -8.06147 0.558598 -8.89926 -0.40179 -0.516189 1.25332
201 -8.19873 1.55083 -9.79967 0.808168 -0.63441 -0.796837
177 -7.1984 0.546137 -9.635 -0.886203 -0.200883 -0.321141
178 -6.25101 0.554399 -8.91808 0.960774 -0.454744 -0.466618
3344 -5.38502 0.9939 -9.43269 0.138123 -0.248291 0.218192
3371 -3.85321 0.740815 -9.26064 -0.020211 -0.94935 -0.26485
3327 -3.07939 0.723314 -10.173 -0.228294 -0.586574 1.11844
187 -2.33908 0.711588 -9.04326 0.038531 -0.791001 0.0219925
189 -1.50089 0.799055 -9.80091 -0.302751 0.44066 -0.311992
165 -0.635634 0.210783 -9.97474 -0.356431 0.137434 -0.0742002
168 -0.551678 0.840575 -9.02831 -0.104387 0.687032 -0.3302
173 -9.5931 1.47374 -9.89207 -0.405618 -1.64815 -0.325403
3351 -3.82719 -0.0988358 -10.1982 0.480152 0.513864 -0.164463
199 -9.44538 2.79711 -9.00295 -1.20764 0.512169 -1.39294
3367 -7.34856 1.30973 -8.78812 -1.17962 -1.15148 -0.0316983
176 -8.94013 2.28446 -9.78108 -0.607931 -0.111839 -0.0023471
773 -8.29725 2.31094 -8.92169 -0.135265 0.836663 0.513919
2779 -6.37991 1.40169 -9.49032 0.270721 0.203978 1.18011
200 -7.21144 2.07313 -9.72041 -0.348434 1.46372 0.0246869
1071 -4.6624 1.7976 -9.40328 0.498592 1.08558 -0.946278
782 -5.81327 2.32374 -9.54231 -0.457702 -0.383784 0.920585
1246 -0.00505528 -5.13802 -4.4138 1.03292 -0.753614 -1.20784
206 -3.33914 1.67073 -9.32323 -1.25353 -0.65451 0.0896075
5062 -10.2438 0.88455 -1.44323 0.309044 -0.103853 -0.544849
3374 -2.46581 2.34885 -9.15348 0.640115 0.281951 0.651419
282 -0.474119 8.25773 -10.027 -0.606061 0.551116 -0.272473
1985 -2.22804 6.94067 -0.049885 1.03222 0.23404 -0.894568
192 -0.558055 1.72085 -9.94019 -0.882618 0.819647 0.156107
215 -0.655216 2.58858 -9.23788 0.278418 0.96152 -0.666413
774 -9.5466 3.30749 -9.89153 1.01678 0.909946 1.11177
197 -10.2454 2.56398 -9.73079 -0.0333596 -0.367722 -0.839827
770 -8.76544 3.75289 -9.50187 0.479925 -0.988684 0.128767
228 -9.47455 4.08592 -8.78358 -0.137399 -0.358736 0.182536
2790 -6.73125 6.71319 -9.02395 -0.577858 -0.463246 1.40641
3396 -7.93896 3.0338 -9.59287 0.720159 0.0905464 0.614168
2460 -8.60533 3.44314 -8.46835 0.894665 1.01981 0.370726
2141 -9.68051 -0.0510174 -1.03828 0.146447 -0.00742062 -0.600228
539 -7.56296 2.94507 -8.58266 -1.29375 -0.0026259 2.07061
230 -6.46407 3.301 -9.12767 0.153997 -1.60822 -0.476345
2464 -3.22877 3.11163 -9.47353 -0.548128 -0.31329 0.94906
209 -1.50745 3.25253 -8.94984 -0.841691 1.22386 -0.432072
3404 -2.25796 3.98686 -9.05013 -0.998047 -0.0728702 1.4183
3399 -1.54635 4.21607 -9.91735 0.629655 0.212453 0.472312
3384 -0.782916 3.37547 -10.0386 0.608566 0.363281 -1.86759
498 -0.703838 4.12632 -9.16591 1.14657 0.890454 -0.524034
219 -10.1244 5.14517 -8.87793 -0.445367 0.934513 0.269185
506 -9.17205 4.97521 -9.28242 0.580492 -1.45505 0.137509
113 -1.95158 -3.33599 -10.2193 -0.421545 0.364147 0.081279
434 -10.0544 0.763686 -8.20836 -0.0112456 -0.129789 0.250583
1493 -10.1534 -7.15108 -2.49413 -1.32303 0.614425 0.194431
3423 -2.26675 5.60471 -9.57236 0.0237349 -0.967498 0.0231103
3144 -1.51462 5.05357 -9.281 -1.48897 0.344304 0.357799
3403 -0.611223 4.84558 -10.08 0.364905 0.546181 0.287631
224 -9.9698 6.12402 -9.39615 -0.107119 0.249544 -1.39935
2242 -9.19227 6.92253 -9.38772 0.654512 0.965519 1.03802
867 -10.0291 10.0356 -4.14527 1.40333 0.267595 -0.118433
1150 -0.0228116 9.37315 -5.18164 -0.367747 -1.20268 -1.39779
247 -8.43695 6.03746 -9.42518 0.487882 -0.490134 -1.07434
1179 -10.2233 -8.6603 -2.52555 2.33377 -0.30445 -0.994689
1669 -2.78762 6.53425 -9.59584 1.22213 1.68602 0.884948
3377 -1.38124 6.45845 -9.3649 -0.414239 -0.0689818 -0.315579
261 -0.640523 5.68143 -9.24691 -0.0357049 0.66907 0.109224
3040 -4.52316 0.709271 -10.1727 0.118304 -0.191281 0.664614
3405 -0.572935 6.66144 -10.0173 -1.31636 -0.56748 0.234171
3443 -7.34145 -10.2071 -10.0655 0.446688 -0.689882 -0.441951
311 0.000208608 10.1539 -7.6471 0.67641 0.134366 -0.506233
248 -9.86975 7.77197 -9.45668 -0.268854 0.295124 -0.326187
538 -8.96701 8.52877 -9.49771 0.269804 -1.03721 0.0163858
551 -0.0432659 6.67445 -7.55188 0.827035 -1.02555 -0.836943
271 -8.05861 8.46164 -10.1762 1.21301 0.507875 0.950289
237 -2.99326 8.60884 -9.09389 0.574569 -0.0957907 0.187724
2507 -2.14605 7.60685 -9.33109 0.218666 0.356068 -0.898813
570 -1.37686 8.29958 -9.28528 0.839593 -0.0448807 0.252656
3432 -1.40557 7.32363 -10.0718 -1.56155 -0.3408 -0.749954
3455 -0.656846 7.41585 -9.27004 0.97677 0.550333 -0.44393
1223 -0.0845677 -6.89375 -3.02785 0.39057 -0.16321 -0.56453
458 -10.2095 2.44029 -8.30526 -0.220925 0.456793 0.41656
767 -0.0620167 1.47917 -5.94704 -0.389364 -1.04925 -0.32197
272 -9.70762 9.46835 -9.39492 0.109118 -0.612864 -0.787998
297 -8.02131 9.44235 -9.46935 0.669928 0.264888 0.594341
3445 -3.06817 9.89164 -9.252 -1.32412 -0.41603 -1.04675
59 -1.98667 -9.97663 -9.56002 0.872281 0.4996 -1.3804
258 -2.10812 9.23082 -9.3663 -0.31686 0.345487 -0.290324
308 -2.04927 9.98259 -8.58776 -0.752507 0.443949 -0.543859
127 -8.85535 -2.80902 -9.89789 0.00401074 -0.271351 -0.00886369
305 -1.2442 9.88867 -9.51861 1.00941 -0.116397 -1.87493
23 -0.573361 9.12676 -9.43465 -0.590801 -0.583668 0.498947
24 -0.175425 10.1953 -9.63448 0.85209 0.229809 0.373376
296 -9.73348 -9.36178 -8.00893 0.171382 -0.189686 0.0208057
294 -8.86319 -9.57829 -8.72119 0.131634 -1.10502 0.0105342
293 -9.75226 -10.1858 -8.73412 0.327335 -0.0351924 0.24559
295 -8.83674 10.2362 -7.83812 -0.301964 -1.7334 0.196046
12 -8.10677 -9.45593 -7.70281 0.563891 0.634053 -0.123321
3204 -8.07485 10.1922 -8.57229 -1.88656 -1.53312 -0.0500083
300 -7.0577 -8.88235 -8.03452 0.697621 0.606504 0.348432
617 -2.06203 -9.53179 -7.79809 -0.55447 -0.302481 0.766435
306 -1.30657 -9.59917 -8.79986 -0.528838 0.311892 -0.0650758
312 -0.793237 -9.57612 -7.72985 -1.23267 0.561443 0.175812
317 -9.48295 -8.48913 -8.7357 -0.84038 -0.943796 -0.796113
320 -9.62544 -7.73574 -7.94446 -0.340308 0.120065 0.227384
319 -8.92194 -8.66368 -7.80063 0.149316 0.840022 0.492227
318 -8.68067 -7.77707 -8.60218 -2.49653 1.05432 -0.992438
3184 -8.13547 -8.6906 -8.56809 -0.624093 0.947634 0.324586
322 -7.92073 -7.76333 -7.83794 -0.625204 0.860522 0.978487
326 -2.24083 -9.08846 -8.76105 0.331716 0.285802 1.34454
281 -2.12927 -7.72934 -8.12739 -0.729275 0.941477 -0.0833147
641 -1.5087 -8.65642 -7.99083 0.0785297 0.578479 -0.193301
335 -0.300897 -8.51928 -8.2238 0.280292 -0.0859671 0.690224
331 -1.1076 -7.75771 -8.37575 -0.442174 -0.584436 -0.492453
341 -9.63721 -6.84455 -8.61257 -0.774805 -0.845187 -1.22347
344 -9.59028 -6.07655 -7.78051 -0.953255 1.72719 -0.256259
343 -8.87093 -7.0623 -7.82988 -0.476073 0.911729 -0.465025
342 -8.72248 -5.96887 -8.36259 -0.988259 -0.208563 -0.345036
616 -8.01867 -6.80224 -8.36967 -0.87308 -0.291111 0.17356
36 -7.8963 -5.96379 -7.71409 0.0549425 0.393584 -1.30011
92 -3.75948 -6.01392 -8.10058 0.247645 0.520536 -0.226926
3452 -2.82036 -5.94031 -8.91898 0.0113907 0.537198 0.823947
648 -3.02107 -6.74504 -7.68909 -0.550178 -1.104 1.10486
327 -1.66895 -6.83464 -8.25537 0.702743 0.169035 -1.79294
356 -1.15905 -5.81376 -8.09261 -0.476228 0.0535209 1.21824
643 -1.05925 -6.99642 -7.33342 -0.664549 -0.554908 1.37649
359 -0.441893 -6.82465 -8.1725 -0.0111912 -0.680105 -0.58329
365 -9.58016 -5.03113 -8.65093 -0.0537088 1.01766 -0.657352
348 -8.94373 -5.02695 -7.86171 0.623784 -0.11586 -0.143948
368 -9.69355 -4.35881 -7.65866 0.23798 0.226599 0.657429
79 -8.71837 -4.34195 -8.53142 0.102503 -1.40805 -0.679822
86 -7.88649 -5.07958 -8.23558 0.861842 1.27722 -0.100337
367 -7.99622 -4.33801 -7.52623 0.67553 -0.0702812 -0.210355
324 -7.20567 -5.11535 -7.42425 0.633004 -1.29984 0.331378
613 -6.42955 -4.21212 -7.57571 0.222518 1.42081 0.0215808
682 -7.20802 -4.30502 -8.33006 0.745549 0.418021 0.554335
974 -4.66929 -5.05301 -8.22952 -1.70136 -0.200346 -0.0279268
329 -5.36361 -4.20831 -8.30482 -0.268005 -0.332059 -1.09754
424 -3.02669 -5.10741 -7.99255 -0.115653 0.196363 0.0490871
3428 -3.83699 -4.1648 -8.23225 0.239836 -0.243436 0.105122
400 -4.15946 -5.32306 -7.32492 0.221064 -0.225329 0.0510092
645 -2.25149 -5.96395 -7.85955 -0.160662 0.753355 -0.203313
376 -2.07419 -4.99816 -8.64334 -0.222859 -1.28925 -0.740617
354 -1.42595 -4.81282 -7.76117 -1.25743 -1.37075 -0.839539
383 -0.310609 -5.1608 -8.11477 0.634252 0.00323947 0.604557
389 -9.64723 -3.54064 -8.54034 -0.0427758 -0.406772 -0.147031
657 -8.97598 -3.56732 -7.74809 -0.663544 1.35164 -0.279366
55 -7.96739 -3.50796 -8.43381 1.00342 0.803564 -0.626307
366 -7.26687 -3.474 -7.572 -0.0186521 0.149978 -0.140419
664 -6.32437 -3.33916 -8.26025 -0.487244 0.482704 0.953658
658 -7.29875 -2.71046 -8.40673 0.118474 -0.0168801 -1.17998
445 -4.63932 -3.45398 -8.10285 -0.221245 -0.543908 1.25956
1289 -3.04452 -3.44039 -8.04127 -1.92783 -0.520355 -1.03262
668 -2.27035 -4.22864 -7.9875 0.305158 0.0296321 -0.305355
401 -2.10176 -3.37804 -8.7474 -1.50874 -0.986103 -0.0948732
403 -1.54005 -3.40191 -7.66959 -0.588617 -0.694063 0.361589
379 -1.34596 -4.0818 -8.53629 -0.21786 -0.182469 -1.2521
381 -0.551699 -4.12352 -7.72786 -0.256338 -0.808766 -0.0785389
405 -0.602941 -3.30429 -8.44301 -1.57447 -1.37063 -0.119114
392 -9.80852 -2.60672 -7.83916 0.154266 1.50887 0.544262
413 -9.71755 -1.88833 -8.639 0.283428 0.63279 0.178479
725 -8.92843 -2.01788 -7.53605 -0.251969 -0.365915 0.813338
391 -8.75598 -2.63742 -8.46958 -1.52721 0.780769 0.140315
678 -8.10365 -2.86539 -7.59741 0.334744 0.348843 1.1546
415 -7.98677 -1.91583 -8.2681 -1.08219 0.068337 -1.07894
420 -7.33327 -1.83669 -7.46944 0.428829 0.0092682 -0.576534
443 -6.49706 -1.91443 -8.08456 0.764628 1.16645 0.643673
396 -5.60775 -2.66718 -8.0604 -1.01705 0.00853495 0.490216
733 -4.8008 -1.87726 -8.07889 0.193104 -0.20494 -1.71229
136 -3.76633 -1.90926 -8.69009 0.429956 1.0373 0.363665
712 -3.88845 -2.65333 -8.01636 0.415204 -0.472855 -0.783455
713 -3.05726 -1.96703 -7.87855 -0.884057 0.356939 -1.41823
398 -2.89651 -2.70447 -8.75236 1.98153 0.690812 -0.146373
404 -2.37261 -2.70193 -7.82224 1.0089 0.18267 -0.801563
425 -2.28572 -1.74313 -8.6985 1.04962 -0.0265123 0.585079
427 -1.6072 -1.71044 -7.75081 -1.49324 0.187126 0.296316
402 -1.48172 -2.51273 -8.58661 0.648031 0.139202 0.552081
408 -0.794564 -2.66265 -7.64082 -0.884301 0.368668 -0.317581
429 -0.666042 -1.78667 -8.53034 0.101495 -1.81114 -0.159739
416 -9.79447 -1.18308 -7.72098 1.42066 0.989517 -0.547698
437 -9.73182 -0.339486 -8.58747 -0.0244993 0.0700288 0.367081
440 -9.09792 -0.286647 -7.66546 -0.892921 0.715465 0.386867
439 -8.94561 -1.13289 -8.46228 0.52046 -0.804221 1.3325
726 -8.40843 -1.10586 -7.4986 -0.354864 0.604234 0.817145
468 -8.15913 -0.413064 -8.25834 0.206179 -1.03486 1.76182
753 -7.27305 -1.11279 -8.28017 0.293059 -1.54759 -0.90585
153 -6.49029 -0.271129 -8.25343 0.01736 -0.971604 1.03354
1018 -6.59574 -1.14439 -7.40167 0.191815 -0.374624 0.134052
203 -7.52187 -0.392886 -7.40492 0.562253 0.30596 -1.44938
155 -4.83408 -1.0505 -8.97343 0.405932 -0.328154 0.922318
448 -5.65955 -1.04388 -8.06267 -0.105841 0.40253 -0.17122
467 -4.90917 -0.199001 -8.04731 0.610938 -0.643722 1.57313
423 -3.12163 -0.910899 -8.50743 -0.567973 0.459827 -0.962011
158 -3.9852 -0.0215278 -8.50679 -0.150766 -0.378302 -0.262881
446 -4.28445 -0.964645 -7.9769 -1.32243 0.671607 0.458455
183 -3.04878 -0.161957 -7.77185 -0.0550476 -0.348084 -1.13027
428 -2.35256 -1.05089 -7.67928 0.03457 0.374626 -0.384953
449 -2.20371 -0.201358 -8.43142 -0.699524 0.865483 0.827799
426 -1.50174 -0.945164 -8.41305 -0.423388 0.789594 0.376245
432 -0.702788 -0.98235 -7.6097 1.59221 -1.16139 -0.660067
453 -0.746147 -0.195497 -8.34185 1.39936 -0.615451 -0.196687
451 -1.59102 -0.0973012 -7.56755 -1.78008 -0.18891 -0.545668
22 -0.0630659 -9.47818 -10.2451 -0.280834 0.374058 -0.474663
213 -1.49773 2.34463 -9.90159 -0.621079 -1.09864 0.173353
438 -8.98666 0.59118 -8.33937 0.798444 -0.699851 0.492185
749 -9.46821 0.6479 -7.30706 -0.783322 -1.86692 -0.0406415
463 -7.34932 0.398244 -8.10187 -0.375621 -0.0317034 0.235137
180 -8.25492 1.34852 -8.19495 0.706208 -0.707083 1.58338
466 -8.2696 0.433136 -7.43342 0.775227 0.272821 -0.740555
179 -6.56536 0.331035 -7.17415 -0.390114 0.387237 -0.159858
3060 -6.63005 1.17939 -7.88845 -0.718284 -0.188649 -1.34073
204 -5.88091 0.525149 -7.88254 0.298882 0.337824 1.1547
470 -4.87244 0.722602 -8.49986 -0.8902 0.325201 0.315006
1333 -4.89528 1.63457 -7.96731 -0.569745 0.255582 0.510398
164 -3.20156 0.755483 -8.33347 -0.873833 -0.16516 -0.383811
469 -4.03103 0.656055 -7.68541 0.212648 -0.105567 -0.186112
473 -2.32671 0.768451 -7.57746 0.290614 -1.76395 -0.381307
450 -1.4723 0.686301 -8.4524 0.178339 0.00470271 -0.636844
474 -1.43763 1.6164 -7.6247 -0.271314 0.0992568 0.106859
477 -0.741822 0.749278 -7.57281 -0.279931 0.767431 -1.48052
461 -9.42024 1.60433 -7.97697 -0.472631 0.703117 0.466572
1728 -1.07233 9.42106 -1.15942 -0.741519 -2.99676 -0.10849
540 -8.70229 2.4458 -7.89919 -0.518413 -0.640673 0.71407
490 -7.45326 2.26561 -7.68595 -0.083491 -1.14504 -0.639479
233 -6.75207 2.1636 -8.74333 -0.44337 -0.495882 -0.597703
1355 -7.56509 1.23082 -7.36132 -1.1268 1.27135 -0.695443
1067 -6.40917 2.24226 -7.48941 0.240432 0.193602 -0.729364
1312 -5.85491 1.45643 -7.30289 0.317486 0.496255 1.13002
1072 -5.81653 1.63466 -8.517 -0.69477 -0.926322 0.144851
3373 -5.3527 2.55204 -8.25978 0.83174 -0.513447 -0.589955
207 -3.90496 1.61609 -8.46676 0.129504 0.574573 -0.880465
471 -3.34854 1.74145 -7.45 -0.452185 1.29848 -0.30594
3375 -3.11137 2.29838 -8.33313 0.643746 -0.516454 -1.14996
16 -4.18287 2.46714 -7.70654 0.469562 -1.03459 -0.573073
3092 -3.74651 3.27181 -8.52036 -0.136647 0.07892 -0.0750938
185 -2.42655 1.46718 -8.32432 1.58322 -0.452831 -0.286569
188 -2.39307 2.32913 -7.61341 0.291512 -0.177197 0.442724
211 -1.52543 2.54958 -8.21609 0.400726 -0.382852 0.341016
743 -0.0481291 -0.255992 -5.92326 -1.62737 -0.365525 0.35754
501 -0.88943 1.71707 -8.47871 0.644352 -0.350817 -0.480331
480 -0.753249 2.55865 -7.46779 0.0694475 -0.581448 0.35841
482 -9.54828 3.32499 -8.034 0.532555 -2.08414 1.88407
232 -6.6792 2.96157 -8.05367 0.235435 -0.71059 0.887842
1325 -4.83436 3.35358 -6.89714 -0.187608 -0.0215233 1.14944
518 -4.05248 3.94282 -7.56274 0.183488 0.0233602 -0.882483
784 -3.11265 4.19131 -8.32075 -0.499289 -0.0361354 0.191478
1069 -3.19524 3.17892 -7.65514 0.683051 -0.875004 -1.08439
236 -2.45164 3.16442 -8.43697 0.0061929 0.0740474 -0.272743
783 -2.2051 4.09775 -7.70324 -0.0192559 -0.708634 -0.0809101
499 -1.47718 3.34637 -7.57803 0.442821 -0.0233528 -1.53003
497 -0.67878 3.22177 -8.36236 0.695872 -1.4886 0.816505
502 -0.746397 4.1412 -7.6586 -1.19747 0.344354 1.06094
3323 -4.49595 -0.858473 -10.0888 1.10267 0.011561 -0.373587
222 -9.02871 6.04994 -10.2369 0.813917 -1.80855 -0.479123
1374 -9.2547 4.99346 -8.22758 0.736629 -0.109204 -0.290579
1357 -3.3632 4.90835 -7.32844 -0.1352 0.567377 -0.0105952
788 -1.43546 4.26254 -8.36533 0.422754 0.815416 -1.07955
525 -2.29082 4.85708 -8.37034 0.961343 0.903964 -0.850018
805 -1.41991 4.97444 -7.63573 1.03949 0.0896709 0.138267
521 -1.41247 5.65823 -8.44815 0.911403 -0.629112 2.37387
239 -0.590762 4.93285 -8.47435 0.158785 -0.0194608 0.772203
1184 -10.0538 -7.81788 -3.46293 0.613692 -0.340733 0.44466
78 -8.71727 -4.24957 -10.0477 -0.159548 -0.685039 0.968736
533 -10.0125 6.93398 -8.58133 -0.45591 0.223256 0.689476
537 -9.04582 6.06346 -8.5825 1.46866 0.498377 0.792578
3395 -9.08819 6.88697 -7.83073 -1.62986 1.45173 -0.0407281
534 -8.31782 7.00439 -8.5727 0.270244 0.883275 -1.28914
548 -2.3827 5.67205 -7.6905 -1.37546 0.352517 -0.642384
283 -2.22949 6.47065 -8.53031 0.63385 -0.553617 1.1127
549 -1.49389 6.69866 -7.71275 -0.359919 -0.0695849 -0.726887
240 -0.668283 5.81046 -7.76083 0.363965 -0.134351 -0.287746
285 -0.681113 6.61976 -8.49447 0.651724 -0.192318 -1.35834
511 -10.1971 5.25445 -7.29079 -0.263157 0.542827 -0.559272
557 -9.80551 8.59666 -8.74914 -1.60587 1.24815 0.0527762
559 -9.11525 8.48843 -7.9126 -0.299729 2.1587 -0.0853532
276 -9.10886 7.74236 -8.61285 0.357353 0.374811 0.410836
536 -9.90414 7.73567 -7.88902 -0.410851 0.29059 0.624411
3133 -8.14349 8.27275 -8.88383 0.550989 -0.331735 -0.408542
821 -8.27842 7.8653 -7.90371 -0.682724 -0.925817 -0.025948
568 -2.37461 7.63141 -7.65966 -0.273392 0.046615 -0.357528
566 -2.27855 8.26792 -8.4608 1.04638 -1.44207 -0.112563
573 -1.51192 8.2993 -7.77433 -0.0190956 -0.874641 0.0440525
546 -1.46553 7.51113 -8.46758 0.975339 -1.6198 0.915744
264 -0.743356 8.34383 -8.47614 -0.43173 1.80578 -0.163444
552 -0.777875 7.51987 -7.62304 -0.678457 -0.588134 0.41951
560 -9.75503 9.30036 -7.95797 -0.488144 -0.325514 -0.184019
558 -8.87952 9.46757 -8.68694 -0.0761812 -0.272473 -0.179155
564 -8.14522 9.2063 -7.9326 0.0422097 -0.361875 -1.07869
20 -2.8536 -10.2093 -7.63333 -0.522868 -0.845687 0.0588224
3087 -3.25732 8.4311 -8.05096 0.626395 -0.423912 -0.0236197
572 -2.31717 9.24895 -7.75438 0.642699 -0.948118 0.0289768
307 -1.37323 9.95811 -7.72538 1.08238 -1.26368 2.84884
309 -1.42575 9.16624 -8.51508 -0.173814 0.815575 0.111712
310 -0.573469 9.93555 -8.60156 0.472913 0.0293526 1.41648
576 -0.710052 9.22453 -7.63347 0.290982 -0.246795 0.891825
584 -9.83625 -9.52594 -6.40242 0.121423 -0.632355 0.21693
582 -8.99428 -9.41127 -6.99803 -0.374087 -0.590151 -0.574168
581 -9.77152 -10.203 -7.26443 -0.249134 -0.448906 0.979359
583 -8.96146 10.2361 -6.36284 0.364979 1.08455 0.538042
852 -7.87073 10.1225 -6.79877 -0.76982 -0.104688 0.94322
588 -8.10789 -9.33605 -6.09068 1.18465 0.865965 -1.1133
823 -7.14351 -10.1062 -5.92205 -0.47562 -0.116275 -0.187296
562 -7.20592 -9.19988 -6.64598 -0.737811 -0.854754 0.963614
299 -6.30521 -9.95607 -6.65177 0.701688 -0.763295 -0.857237
589 -5.31947 -9.46612 -6.56922 -1.74038 -0.41694 0.705716
15 -3.89152 -9.24793 -6.35096 -0.572501 -0.0367103 -0.346036
854 -3.10746 -9.27508 -7.09512 -0.297576 0.832397 1.47312
596 -2.34304 -9.23497 -6.10083 0.0682632 -0.473706 0.29084
594 -1.4994 -9.36892 -6.86384 -0.117164 0.241603 0.14633
600 -0.734403 -9.42028 -6.04345 -0.111803 1.25705 -0.49615
621 -0.696357 -8.74399 -6.97239 -0.760722 0.641226 0.877279
605 -9.7384 -8.5934 -7.06909 1.42224 0.117458 -0.777272
608 -9.86712 -7.64939 -6.18583 -0.767761 -0.292293 -0.179582
607 -9.14191 -8.7325 -6.19119 0.87211 -0.92533 0.320896
606 -8.92424 -7.79415 -6.95964 -0.809266 -0.588599 -0.0197626
609 -8.23308 -8.60763 -6.86521 -0.75467 -0.909773 0.620888
612 -8.29787 -7.91324 -6.20492 -0.205431 -1.14826 0.369236
611 -7.32382 -8.49503 -5.93365 0.635174 -0.0816377 0.134957
347 -7.36651 -8.07211 -6.93637 -0.579954 0.198374 -0.905348
278 -6.11545 -8.6947 -6.75053 0.865378 0.186052 0.693325
592 -5.59717 -7.80907 -6.40262 -0.412162 -1.08826 -1.54953
332 -3.04115 -7.76434 -6.94892 0.628964 0.596705 0.421905
541 -4.68594 -8.5081 -6.47678 0.392689 1.06704 -1.18573
328 -3.11207 -8.50098 -6.17857 -0.175267 0.140864 -0.150822
61 -3.94233 -7.7536 -6.36383 0.00290631 -0.0965649 -0.804378
618 -2.22708 -8.50627 -7.14002 -0.0773983 0.0637421 0.226719
929 -2.25667 -7.71926 -6.2347 0.839291 -0.46974 -0.399012
619 -1.47109 -8.56689 -6.23492 -0.400508 0.39566 0.483522
355 -1.41939 -7.83144 -6.96071 0.187486 0.416885 -1.09591
622 -0.308167 -7.71242 -7.30836 -0.829705 -0.601537 1.60438
624 -0.691553 -7.87847 -6.00079 0.779609 0.587054 -1.18293
631 -8.9701 -6.96293 -6.12101 0.220534 -0.853729 -0.287452
629 -9.66002 -6.87642 -7.10383 0.541349 -0.084891 -0.565577
632 -9.79352 -6.11166 -6.26609 0.470956 -1.94039 0.206018
630 -8.85608 -5.90386 -6.97811 -0.0597706 1.08895 1.05295
634 -8.15856 -6.83727 -6.9957 1.08476 -0.0272814 -0.391027
636 -8.27873 -6.11366 -6.09246 1.3356 -0.712611 -0.152929
610 -7.3755 -7.23033 -5.92343 -0.742038 -0.443476 0.277647
971 -7.31687 -6.35937 -6.55037 -1.36445 1.1167 0.447389
665 -6.62548 -7.20145 -6.89096 -0.131165 -0.284431 -0.373361
659 -6.3368 -6.05221 -5.93914 -1.27716 -0.694689 1.36989
325 -4.73258 -7.04797 -6.499 -0.216744 0.32656 0.00108376
352 -5.11954 -6.04873 -6.69249 -0.751194 0.785976 0.801255
563 -4.00055 -6.66844 -7.13448 0.0247252 1.25524 -1.44972
349 -3.19679 -5.89952 -7.05128 0.839217 -0.0594936 1.4806
685 -4.07711 -6.03233 -6.2798 -0.785353 0.729278 -1.49256
637 -3.26163 -6.9436 -6.39419 0.655076 -0.550195 0.187564
569 -2.13261 -7.06461 -7.1987 -1.57339 0.0407411 -0.340149
953 -2.53664 -6.15664 -6.18245 -0.42914 -0.116238 -0.611935
955 -1.48053 -6.94706 -5.91841 0.75536 -1.5513 -0.174789
669 -0.474285 -6.07639 -7.24912 0.211175 0.847369 -1.31806
4369 -0.378354 -6.80878 -6.44661 0.544422 0.393059 0.674924
647 -0.703079 -5.73395 -6.2396 1.78422 1.72816 -1.29707
653 -9.78808 -5.27745 -6.95947 0.0546717 -0.358461 -1.56635
655 -9.03838 -5.12809 -6.28893 -0.0268813 -0.433066 -2.23146
656 -9.84392 -4.37978 -6.32075 -2.09323 -1.67933 0.0079259
654 -8.95231 -4.32099 -6.96353 0.660012 1.37542 0.64379
969 -8.01768 -5.29858 -6.70302 0.301366 -0.781892 -0.349648
660 -7.16935 -5.32312 -6.00362 -1.29072 0.444314 1.87765
681 -8.16867 -4.45543 -6.06019 0.162778 -1.27654 -0.439987
688 -7.14072 -4.40707 -6.71527 0.195066 0.377197 -0.514137
284 -6.28885 -5.17902 -6.89904 1.28426 0.72717 0.507379
3188 -5.33867 -4.97238 -7.42901 -0.0631666 1.71646 -0.15283
399 -4.78698 -5.14825 -6.46908 0.0617039 -0.11274 0.312218
1282 -5.51874 -4.42436 -6.56154 -0.272244 -1.22727 0.181513
977 -3.3993 -5.21897 -6.26775 -0.168794 0.0928785 0.12287
373 -4.08744 -4.29773 -6.38167 -0.765097 0.19561 -1.34265
691 -2.4667 -4.92972 -7.10186 0.991996 -1.27005 0.544352
978 -2.53294 -4.32584 -6.25354 -0.28318 0.722114 0.988407
644 -1.51657 -6.21505 -6.77733 1.72286 -0.120983 0.51904
667 -1.62499 -5.15383 -6.4142 0.425673 -0.709335 -0.615859
672 -0.65369 -4.95682 -7.03581 -1.21572 -1.33142 0.0740406
677 -9.74842 -3.45866 -6.9859 -0.507189 0.027278 -0.677363
966 -9.07161 -3.68339 -6.05556 1.31988 -0.274427 -0.392027
679 -8.14892 -3.41924 -6.67904 -0.340319 -0.526023 -0.199154
1281 -7.39113 -3.58348 -5.98069 0.819107 0.818621 -0.498184
369 -6.40693 -2.73611 -7.32307 -0.510847 0.421057 0.0798802
3277 -6.42176 -3.63002 -6.49467 0.855979 -0.185942 -0.392862
40 -4.65284 -4.28194 -7.29783 -0.159193 0.704083 -0.771211
419 -5.60707 -3.53191 -7.38293 0.691312 1.13531 1.59898
421 -4.87609 -3.57411 -6.50061 0.436487 0.629496 0.950797
731 -5.7726 -2.853 -6.52116 -0.706014 1.33189 -0.0694198
686 -3.90817 -3.5549 -7.32885 -0.299369 1.42848 -0.285699
374 -3.49985 -4.38377 -7.11224 1.13701 -0.0965701 0.590518
980 -3.26774 -3.59545 -6.37763 -0.386588 -0.81135 -0.491209
380 -2.55091 -3.57586 -7.05126 0.683757 0.789961 -0.863432
692 -1.77035 -3.42957 -6.209 1.07881 0.79052 -0.591999
666 -1.55392 -4.22755 -6.85186 -0.627995 0.880794 0.943743
690 -0.749691 -4.40314 -6.19408 -0.562738 -0.334463 -0.398626
384 -0.768301 -3.46342 -6.82017 1.63499 -0.341713 -0.441229
680 -9.89026 -2.87834 -6.00282 0.234068 0.186697 -0.405151
970 -8.98665 -2.67348 -6.83154 -1.13691 1.2375 -0.491904
701 -10.0171 -2.09659 -6.7847 0.700593 0.170541 0.654013
702 -9.15626 -1.99571 -6.0998 0.608367 1.12681 0.269454
993 -8.29847 -2.80591 -5.8321 1.17911 -0.026267 -1.08502
708 -8.17779 -1.95476 -6.6891 -1.34896 -0.360486 -0.444234
683 -7.30769 -2.80719 -6.56476 0.233441 0.262968 0.0152744
705 -6.52188 -1.92205 -6.62331 0.0159403 -0.157108 -0.607473
730 -5.79275 -1.71769 -7.31821 0.564601 2.45107 0.111754
757 -4.81975 -2.75216 -7.25247 0.518894 0.279674 -1.26735
1021 -4.89407 -1.9229 -6.54679 -0.0484639 -0.868238 -0.467537