ITEM: TIMESTEP
90000
ITEM: NUMBER OF ATOMS
6912
ITEM: BOX BOUNDS pp pp pp
-1.0259855680060181e+01 1.0259855680060181e+01
-1.0259855680060181e+01 1.0259855680060181e+01
-1.0259855680060181e+01 1.0259855680060181e+01
ITEM: ATOMS id x y z vx vy vz
8 -9.71922 -9.54035 -9.5324 -0.93988 0.314221 1.14293
7 -8.95576 10.1767 -9.41876 -0.696657 -0.293272 -0.733935
3374 -2.85668 2.36301 -9.98954 0.506663 -0.978551 -0.864522
11 -8.16148 -9.47396 -9.36034 -0.0444627 -0.355159 0.0987545
3326 -4.6743 0.666985 -10.0624 -0.0971922 -0.157268 0.00865342
434 -10.0959 0.70719 -8.12716 -0.849392 0.384004 0.222404
2482 -3.73489 -9.58215 -9.78505 1.62189 -0.460748 -0.800412
20 -1.79342 -9.63129 -9.5642 -0.00330726 -0.972308 -0.743864
1510 -0.0828803 -6.03987 -2.11346 -0.529465 0.00565682 -0.241785
1633 -10.1196 4.32365 -2.79689 0.477592 0.688542 -0.706815
43 -0.720674 -9.50983 -9.75125 -0.419056 0.580341 -0.803204
684 -5.17764 -4.64992 -10.0212 -0.984332 -0.320762 0.394115
32 -9.73548 -7.72327 -9.36421 0.371451 -0.639665 1.44528
31 -8.99727 -8.53713 -9.4725 -0.147736 0.173934 -0.494178
278 -8.17 -7.78841 -9.38445 -0.190387 -0.445844 0.626359
161 -2.15073 -0.0712652 -10.2002 -0.35945 -0.166307 0.932866
274 -7.26094 -8.69436 -9.35306 -0.0671048 0.493158 -0.703449
3188 -2.59643 -8.24196 -9.06556 -1.09407 -0.163706 0.876443
41 -2.30057 -7.66672 -9.82246 -1.39332 -0.297619 -0.190689
336 -1.59226 -7.72185 -9.07893 -0.25734 -0.347819 -0.78867
44 -1.4147 -8.46496 -9.84142 0.0516285 0.409191 0.521804
330 -0.884192 -8.51176 -8.91182 0.823947 0.0962957 0.377976
357 -0.68537 -7.68483 -9.76233 1.00298 -1.23362 0.375208
1644 -5.53196 5.92321 -0.833574 1.46772 0.104152 -1.96931
56 -9.60486 -6.04518 -9.48017 -1.32094 0.499196 0.867237
30 -8.90064 -6.86796 -9.33809 0.180801 -0.0463068 -1.1647
36 -7.9426 -6.18599 -8.91393 -0.490714 -0.637716 -0.0893014
1250 -10.2378 -2.69973 -3.37512 -0.326679 0.0167471 -0.20181
2193 -3.15595 6.15961 -0.0910503 0.191147 -0.65849 0.134641
3452 -2.40859 -6.82043 -8.97221 0.173959 -2.08503 -0.740859
376 -1.61644 -6.03485 -9.04508 -0.177248 1.23353 0.763827
66 -1.64652 -6.89902 -9.78265 -0.115619 -0.465718 -1.40691
37 -2.32481 -5.97318 -9.88588 0.287076 0.829439 -1.09201
382 -0.198743 -4.31753 -8.83937 0.687097 0.342545 -0.281094
638 -0.762662 -6.84264 -9.07453 0.133485 -0.823731 -0.819229
72 -0.822758 -5.96747 -9.80581 0.295543 0.79016 -0.820436
633 -8.81738 -5.22186 -9.26427 0.695253 0.278252 -0.0603224
80 -9.60834 -4.42294 -9.40838 0.745941 1.14728 1.50771
3275 -8.10425 -5.10224 -10.0204 -0.413655 0.768911 -1.76929
372 -8.10543 -4.35102 -9.33265 0.997154 0.189959 -0.550112
86 -8.16751 -5.25169 -8.43103 -0.469949 0.175347 0.534682
370 -7.39589 -4.33738 -10.1305 -0.0789875 -1.17033 -0.595343
719 0.0303227 -1.6235 -6.08985 0.763143 -0.695162 -0.262225
92 -2.51711 -4.88948 -9.62876 0.115022 0.344147 -2.10294
93 -1.43681 -5.11083 -9.7203 -0.331901 1.39486 0.193309
95 -0.971255 -5.20391 -8.86162 -0.811658 -1.79819 -0.18691
2013 -1.14381 8.7756 -0.289975 -1.50006 1.26286 -0.550407
12 -8.07891 -8.44466 -10.1976 -0.0112723 0.124383 -0.788935
103 -8.88006 -3.62545 -9.3566 0.148715 0.0901133 0.242744
105 -8.09975 -3.40405 -10.0718 1.393 -1.13359 0.603089
107 -7.30727 -3.69553 -9.07937 -0.340379 0.19085 -0.244105
395 -6.50907 -3.64085 -9.91999 0.961779 0.213633 0.5267
133 -4.63931 -3.76492 -9.91074 1.0056 0.845894 0.141989
350 -3.53633 -4.16722 -9.73842 -0.897284 -0.366019 0.892357
135 -4.09052 -3.55216 -9.02897 -0.441984 1.02182 0.283113
378 -2.01065 -4.00874 -9.53893 0.904321 0.0567644 0.46516
375 -2.88499 -3.23288 -9.52133 1.17052 -0.422555 0.678601
399 -2.97345 -4.07827 -8.80723 0.55814 -0.443773 0.549713
113 -1.95956 -3.20884 -10.1801 -0.478749 0.768534 -0.552633
96 -0.862973 -4.20941 -9.58686 -1.32818 0.0997294 -0.132466
115 -1.18351 -3.24236 -9.21129 0.159685 -0.79417 -0.280544
119 -0.185657 -3.34352 -9.51764 0.435221 -0.581737 -0.0250616
104 -9.80026 -2.8691 -9.35753 -0.449499 -0.525615 -0.104831
414 -8.94595 -1.99077 -9.31048 -1.1915 0.0653252 -0.225977
127 -8.93716 -2.75994 -10.0775 -0.316022 -1.47466 -0.830766
1175 -0.0673663 10.0945 -2.81493 0.415852 0.29995 -0.829906
393 -8.23013 -2.84723 -9.13005 -1.10106 0.109577 -0.501448
126 -8.04037 -2.0796 -10.0402 -1.44786 0.5661 0.737345
390 -7.23745 -2.80129 -9.92228 0.261769 0.0791964 -1.46245
417 -6.46846 -2.87396 -9.00494 -0.278851 0.105303 -1.03756
441 -7.40054 -1.96222 -9.19444 -0.597952 -1.17755 0.503523
129 -6.42625 -1.99242 -9.839 0.380361 0.139376 0.523333
397 -5.75497 -2.74823 -9.8168 -0.647825 1.06705 0.370013
418 -4.675 -1.85098 -9.65294 -0.0249952 0.558913 0.726933
442 -5.68832 -2.03257 -8.93263 0.426499 -0.24251 -0.418271
445 -4.78121 -2.70445 -9.18571 0.629632 -0.174976 -0.244102
3303 -3.81379 -2.59775 -9.49885 -0.893653 1.49173 0.0185956
136 -4.00217 -1.89804 -8.73108 0.425523 -0.932287 0.532843
1102 -0.115232 5.93909 -5.07662 -1.14779 1.60271 1.48663
422 -2.81516 -1.7385 -9.47214 -0.348406 -0.0971123 -0.921119
116 -1.94739 -2.46274 -9.41743 0.201999 0.0324256 -0.82383
3308 -2.10949 -1.64758 -10.1969 -0.719655 -1.23507 -0.374798
120 -0.413461 -2.36179 -9.31132 -1.01907 0.889829 -0.755591
141 -0.461167 -1.61217 -10.0418 -0.732681 1.39962 0.979962
139 -1.20338 -1.66479 -9.31984 -0.389453 -0.51637 0.415812
114 -1.191 -2.45008 -10.131 1.0482 -0.320325 0.94123
128 -9.73827 -1.22763 -9.23956 -0.526154 1.14159 1.23101
146 -9.66889 -0.348166 -10.0501 -0.855822 -1.1651 -0.39579
150 -9.08206 -0.364441 -9.1726 -0.32088 -1.19655 0.111377
149 -8.92929 -1.13554 -10.0219 -0.00828206 -0.127147 1.42312
151 -8.07354 -1.08878 -9.16558 -1.13051 -1.10442 -0.822419
3324 -8.1794 -0.247635 -9.90058 0.967286 -1.53122 0.120695
465 -7.38241 -0.373863 -9.01531 -0.568005 -1.33999 0.434192
3297 -7.14487 -1.17129 -9.9077 0.801809 -0.313734 -1.77027
3300 -6.3463 -0.436946 -9.74507 0.88652 1.38923 -0.0399915
132 -6.62046 -1.25038 -9.02488 0.218128 -0.151994 -0.444992
130 -5.57651 -1.2053 -9.61997 -0.483093 0.216685 1.65557
184 -4.72269 -0.4915 -9.65654 -0.402199 -0.77058 1.15587
1030 -0.169596 0.732455 -5.07186 1.43071 0.948184 0.0820029
160 -3.72263 -1.00685 -9.50929 -0.377101 -1.16058 -0.0505485
159 -2.94992 0.0161583 -9.46023 -0.840358 0.117146 1.07168
140 -2.08452 -0.912957 -9.46724 0.710367 0.071599 -0.519921
1486 -0.137206 -7.90051 -2.16767 0.778663 0.0489621 0.235433
144 -0.551875 -0.662556 -9.20266 -1.23115 -0.330878 0.325077
138 -1.31383 -0.851626 -10.1785 -0.733619 1.08385 -0.123936
152 -9.86885 0.449743 -9.10033 0.913828 -0.127727 -0.643708
173 -9.80389 1.40151 -9.89634 0.0768369 0.74054 0.0130345
3343 -9.06741 0.445775 -9.94048 0.418563 0.145588 -0.980256
175 -9.08768 1.27525 -9.10223 -0.805219 -0.912938 -0.667284
156 -8.32135 0.473263 -9.11334 -0.153849 -0.906121 -0.824502
490 -8.24644 1.23913 -9.91774 -0.19198 0.370479 -0.219973
177 -7.40986 0.4391 -9.67696 1.75871 -0.404223 -0.258214
801 -7.52212 1.32351 -9.14244 -0.92725 0.320962 0.118186
125 -9.62386 -2.01846 -10.1272 0.14971 0.197962 0.939317
3376 -5.73203 1.38702 -9.88502 -0.023157 0.959297 0.0454425
3328 -5.51759 0.346522 -9.58397 0.00446552 0.338621 0.542797
3373 -4.53116 1.54675 -9.49885 1.19242 0.557284 -0.116855
515 -5.77366 1.39897 -8.80926 -1.04866 -1.4347 -0.230493
843 -10.1121 8.50602 -5.82139 -0.0104248 -0.141283 0.328508
3371 -3.84681 0.792727 -9.39167 0.631048 -0.489191 0.465747
164 -2.12789 0.879787 -9.40187 -0.0252833 -0.615597 0.817072
1079 -0.139736 3.23964 -4.0945 -0.431738 0.524999 -0.342246
3332 -2.11366 1.66799 -10.0613 0.0681552 1.17706 0.25598
163 -1.35613 0.116867 -9.27124 -0.276534 -0.157234 0.334023
165 -0.431341 0.0971432 -10.0253 0.267668 -0.382763 1.01312
189 -1.22981 0.853299 -10.0357 -1.01452 -0.0471075 -1.44089
168 -0.51508 0.84552 -9.20618 0.236328 -0.128915 0.235557
223 -9.056 2.08385 -9.93289 0.24775 -0.202871 -0.373819
176 -9.44031 2.34012 -8.93101 -1.27139 0.0871728 0.500412
171 -10.257 1.66931 -8.79894 -0.442389 0.969343 -0.901714
487 -8.416 2.15745 -9.02984 -0.516456 -0.228816 -0.533641
2460 -7.74639 2.18446 -9.99249 -0.44668 -0.0907836 0.202385
3347 -6.82382 2.00953 -9.56308 1.55121 0.607392 -0.883945
205 -4.75431 2.2619 -8.57653 -0.0280059 1.20951 -0.440689
782 -3.79841 2.30323 -9.50801 0.667116 1.14357 0.562599
206 -3.00194 1.45424 -9.35342 -0.470247 0.565857 0.115293
3375 -2.05897 2.44943 -9.30189 0.424774 0.323888 -0.985674
213 -1.23651 2.62329 -9.90072 0.921198 -0.0289577 -0.125043
187 -1.26685 1.53972 -9.25945 0.377138 -0.244493 -0.0291983
192 -0.4799 1.72888 -9.96399 1.17525 -0.620859 -1.1216
215 -0.717824 2.48316 -9.05214 -0.127183 -0.806685 -0.360471
225 -9.679 3.1324 -10.0241 -0.775434 -0.707795 -0.397567
228 -9.71631 4.45678 -9.07984 0.86004 -0.968238 -0.699223
1657 -10.232 6.05806 -1.47395 -0.0276709 0.308103 0.363208
246 -8.87558 7.82765 -10.1656 -0.0424854 0.451942 0.498999
3372 -8.00625 4.42772 -9.2284 -0.382543 -0.499888 0.224515
513 -8.74312 3.1606 -9.51773 -0.249688 0.0228179 0.0446315
233 -3.05097 3.2892 -9.34966 0.318221 0.489325 0.424559
3404 -2.05136 4.50833 -9.31675 -0.0210016 0.0976957 -0.100093
212 -2.09597 3.4605 -10.0308 -0.468112 0.108834 -0.190137
1830 -7.33755 -4.41318 -0.187024 -0.421948 0.00457149 0.0295445
209 -1.46759 3.32468 -9.04564 0.454483 0.0242305 0.583115
3384 -0.460207 3.38302 -9.90585 0.337465 -0.783412 0.444438
498 -0.532843 4.22687 -9.23196 0.2288 -0.91248 -0.604408
3399 -1.26541 4.41741 -9.98281 -0.11385 -0.991234 0.319986
200 -9.11462 4.23289 -10.1692 -0.681226 0.809686 1.05434
506 -8.89579 5.2204 -9.1673 0.829677 -0.17771 -1.02673
221 -9.72354 5.35006 -9.9955 -0.508749 0.214122 0.298205
3082 -8.23753 5.06959 -10.0851 0.308995 0.126168 -0.0174534
3400 -2.01602 5.23842 -10.1915 -0.831355 -0.441263 -1.74521
525 -1.22857 5.00099 -9.01719 0.0271835 -0.488525 0.237615
3403 -0.39993 5.10811 -9.98769 -0.111803 0.659298 0.0386556
224 -9.94551 6.09169 -9.20971 -0.142677 0.421258 -0.145836
247 -8.81288 7.03359 -9.26208 0.012514 -0.126365 0.123421
222 -8.83298 6.11384 -10.0464 -0.204684 -0.398265 -1.10685
383 -0.206188 -5.07961 -8.10568 -0.337748 -0.824491 -0.281851
3087 -1.90329 5.86578 -9.2409 0.224798 -0.599733 -0.225502
237 -2.17088 6.92644 -8.45898 0.447494 -1.24947 -0.109796
261 -0.479037 5.8699 -9.21557 0.704519 0.513189 1.33535
3144 -1.18003 5.93977 -10.2079 0.302085 -0.39707 0.691301
2507 -1.30923 6.80357 -9.05629 0.456015 -0.991624 0.0983958
3405 -0.396921 6.66114 -9.94203 0.0255609 -0.992713 0.0586726
249 -7.95827 7.11787 -9.97793 -0.87541 -0.486301 0.0236448
248 -9.75144 7.82597 -9.4435 -0.540512 0.503607 -1.24504
271 -8.68897 8.62737 -9.32886 0.836667 0.0948918 0.16814
1534 -0.189366 -4.39181 -2.08639 -0.163107 -0.140438 -0.541282
252 -7.97863 7.87938 -9.2724 0.241767 0.0888609 1.49418
273 -8.07982 8.68485 -10.1577 0.517262 0.577521 -0.161152
561 -7.2954 8.90862 -9.3483 -0.280757 -0.0609173 0.0966696
2195 -1.92588 8.1413 -9.99548 0.331064 0.162238 -0.450109
566 -2.20482 8.55562 -8.5121 0.355037 0.889102 0.298994
282 -0.428861 8.33833 -10.1333 -1.11926 -1.32268 0.748265
570 -1.14136 8.44317 -9.30671 -0.41178 0.0539249 0.270641
3455 -0.363785 7.46847 -9.23292 0.293027 0.000409929 0.251889
134 -2.94336 -0.857617 -10.2027 0.0429308 -0.493986 0.358239
272 -9.79238 9.55596 -9.43144 0.688122 -0.321401 -0.00671939
5353 -0.067532 1.70881 -0.25215 -0.484496 -0.545006 -0.417552
277 -7.41182 10.2303 -9.4301 1.3109 -0.327681 0.300216
276 -8.1878 9.52599 -9.42905 -0.172963 -0.196344 0.62886
3180 -7.3874 9.54041 -10.2141 0.3106 -0.209016 0.140535
1974 -8.47403 8.71454 -0.14474 -0.208138 -2.14853 0.878269
303 -2.88196 10.1591 -9.78873 -1.06402 -0.547745 -1.28486
258 -2.10785 9.35623 -9.44206 -0.370728 -0.460057 -0.173149
305 -1.11641 10.073 -9.25277 -0.559221 -0.0443289 -0.570211
23 -0.370902 9.12275 -9.24396 0.0724364 -0.0695457 -0.253617
17 -1.13206 9.1238 -10.1448 -0.259429 -0.77669 0.921403
296 -9.87766 -9.36954 -7.97704 -0.639729 0.34045 -0.0913413
294 -8.98662 -9.40175 -8.65141 0.115366 -0.737526 0.982172
293 -9.83413 -10.1467 -8.59341 0.124862 -0.821612 -1.04323
300 -8.22003 -9.54901 -7.71413 -0.0729424 0.174014 0.0732498
281 -2.66668 -9.44524 -9.10723 -0.303568 -1.12045 -1.02119
617 -1.93885 -9.67444 -7.91258 0.258405 -0.570021 -0.503026
306 -1.15993 -9.60612 -8.71849 0.93758 0.0707065 0.102466
312 -0.373213 -9.64704 -7.82697 0.465313 -0.364784 0.358757
317 -9.90107 -8.56762 -8.62879 -0.15984 -0.314656 -0.615372
319 -8.92769 -8.73501 -7.75454 0.517321 0.412737 0.522196
320 -9.82902 -7.85345 -7.69477 0.811359 0.221249 -0.699678
318 -9.03176 -7.90086 -8.47294 0.631783 0.237212 1.25328
321 -8.16087 -8.64356 -8.64147 0.03285 -0.91966 0.044719
322 -8.22239 -7.70154 -7.63862 -0.0541318 1.11336 -0.141556
323 -7.30164 -8.28 -7.65396 -0.927827 -0.529968 0.214359
3204 -7.52709 -7.53369 -8.56163 0.385622 0.133983 -0.442371
329 -2.79384 -8.88758 -8.19881 1.14134 -0.259991 -0.972603
284 -4.70084 -7.11018 -6.4488 0.916513 0.102038 -0.129611
326 -1.87054 -8.90642 -8.69493 -0.0100436 0.219896 1.09505
327 -2.07091 -7.80021 -8.15978 1.22432 0.749921 0.935939
618 -2.20039 -8.71787 -7.22837 0.762765 -0.605247 -0.967633
641 -1.09855 -8.73545 -7.81934 1.03071 0.711297 -0.35061
331 -0.78707 -7.58592 -8.29673 0.303532 -0.119406 0.816876
766 -0.0853591 2.44906 -6.74212 -0.229017 -0.783374 -1.73744
341 -9.7709 -6.85452 -8.64378 -0.660072 1.34298 -0.516085
344 -9.81503 -6.09706 -7.80915 0.0778518 -0.781194 -0.234418
343 -9.19032 -6.96034 -7.75396 0.502115 -0.184831 0.0537064
342 -9.01522 -6.12947 -8.51204 -0.0322702 0.447487 0.193104
40 -8.40724 -6.99683 -8.38998 0.155 -0.355183 0.60453
324 -8.25402 -6.17274 -7.71789 0.455191 0.361073 0.308578
35 -7.37649 -6.99161 -7.57134 0.0140961 0.138482 -0.530303
61 -2.81072 -5.77963 -8.7187 -0.997947 -0.0720797 0.43852
645 -1.58953 -6.91991 -8.35134 0.088087 -0.826523 -0.253962
424 -2.08113 -6.01849 -7.90178 0.394948 1.24242 0.656784
356 -0.762267 -6.00435 -8.07043 -0.1328 0.00331446 0.706831
643 -0.729726 -6.86666 -7.38994 -0.457606 -0.470731 1.2703
365 -9.80286 -5.29757 -8.68761 0.091872 0.836167 0.112461
348 -9.0985 -5.28131 -7.81708 -0.015676 -0.313229 -0.445027
368 -9.7661 -4.53955 -7.77179 -0.533995 0.992955 -1.1207
79 -8.99085 -4.47554 -8.5855 -0.656699 0.770084 -0.0266099
367 -8.37753 -4.45757 -7.76273 -0.422114 -0.601801 0.172687
400 -3.84044 -4.5997 -8.45632 1.16826 -0.248133 -0.214168
112 -1.93111 -4.99993 -8.63176 -0.720565 0.267888 0.131959
354 -1.32155 -4.93492 -7.78996 0.34175 -0.122549 0.550994
389 -9.74986 -3.61466 -8.55437 -0.689241 1.30231 -0.636999
657 -9.00743 -3.57952 -7.73271 -0.748595 0.476598 -0.11566
55 -8.16073 -3.67881 -8.45029 1.56595 0.95731 -0.394467
682 -7.31986 -4.52455 -8.46003 0.558653 -0.110028 -1.19923
366 -7.43117 -3.67581 -7.55043 -0.044748 0.772757 0.520308
664 -6.39461 -3.86667 -8.43226 0.0678482 0.34213 0.917258
88 -5.60419 -3.66254 -9.37971 -0.904838 1.15884 -1.04906
709 -4.89328 -3.93959 -8.57672 0.478116 0.254013 -0.944602
419 -5.60067 -3.6966 -7.52766 1.10304 0.545064 -0.623563
1289 -3.025 -3.39287 -7.94761 0.523518 0.116502 0.326893
401 -2.20756 -3.41968 -8.63657 -0.0745941 0.710289 0.378313
668 -2.1089 -4.16144 -7.88209 0.410069 0.703499 0.943389
1199 -0.013376 -8.67896 -2.80711 0.017865 0.273014 0.0626389
403 -1.33657 -3.32917 -7.8246 -0.0595081 0.214465 -0.931352
379 -1.29227 -4.14237 -8.62144 0.125869 0.232021 -0.927418
381 -0.552719 -4.14484 -7.79635 0.148646 1.05557 0.0355063
405 -0.44401 -3.20452 -8.41753 0.770716 -0.587681 0.605444
392 -9.91486 -2.86606 -7.67969 0.351084 -1.42542 0.339901
391 -9.0451 -2.7536 -8.40114 -0.666454 -0.425468 -1.0608
413 -9.91077 -1.96152 -8.43658 0.3026 0.709737 -0.565824
725 -9.09309 -1.95217 -7.62813 0.506345 -0.197824 -0.461634
678 -8.25302 -2.85174 -7.5767 0.0456689 -1.16588 -0.924555
415 -8.26025 -2.00319 -8.43055 0.567415 0.534401 -0.293995
658 -7.39129 -2.74452 -8.32285 0.162968 -0.397014 -1.27476
420 -7.56254 -2.04357 -7.49422 -0.786507 -0.383177 0.640635
369 -6.50837 -3.01649 -7.66709 0.0312633 0.577567 -0.355492
443 -6.55271 -2.008 -8.15372 0.0407768 -0.0454447 0.164296
396 -5.48084 -2.92278 -8.29625 0.164095 0.24505 0.398347
733 -4.95275 -1.9083 -8.16997 0.64993 0.361017 -0.7564
712 -4.17376 -2.90807 -8.21355 0.577202 0.38595 -0.488342
713 -3.18122 -1.79463 -7.90737 1.14791 -1.12421 -0.0293484
398 -3.008 -2.58574 -8.70686 0.783231 0.017791 -0.381081
404 -2.28909 -2.47527 -7.78641 0.667945 -0.287045 0.613494
425 -2.12507 -1.81477 -8.6212 0.0404281 0.675835 0.31608
427 -1.50383 -1.87377 -7.63514 0.428864 0.136996 -0.673461
402 -1.27324 -2.44618 -8.50155 -0.0740711 0.821903 -0.51124
408 -0.62487 -2.57553 -7.60191 0.0409267 -0.781801 -0.0180811
429 -0.478448 -1.5469 -8.44677 -0.90145 -0.600694 0.659778
416 -9.86302 -1.24477 -7.60901 0.706735 0.0157097 0.931369
437 -9.75448 -0.465394 -8.29169 -1.3146 -1.32743 -0.875703
440 -9.08685 -0.410661 -7.54352 -0.453584 -0.0678028 1.01306
439 -8.93771 -1.20728 -8.39695 0.187002 0.410894 -0.768736
726 -8.27485 -1.26989 -7.45509 0.21294 0.47461 0.191864
468 -8.19002 -0.332822 -8.28697 1.79673 1.23649 0.109446
203 -7.54079 -0.421411 -7.51691 -0.271972 -0.665479 -0.118242
753 -7.43879 -1.28391 -8.37106 1.00483 -1.7794 -0.137124
153 -6.63228 -0.362929 -8.10983 0.629976 -0.138071 -0.231329
1018 -6.76586 -1.25709 -7.44314 0.380658 -0.0718097 0.69524
155 -4.78968 -1.04739 -8.82391 0.0578477 -1.41614 0.327044
3352 -5.84016 -0.355889 -8.81872 0.0694903 0.00390896 0.653669
448 -5.72257 -1.17071 -8.19249 -0.189357 -0.945468 0.334067
467 -4.97474 -0.333169 -8.0462 -0.633043 0.473794 -0.677971
1042 -5.79332 -0.488713 -7.40295 1.35352 -0.191485 -1.98948
158 -3.85915 -0.107202 -8.93392 0.176355 0.110239 -0.595108
446 -3.98402 -0.981254 -8.10165 0.720881 0.131285 -0.184412
183 -3.18012 -0.1905 -7.89187 0.131615 -0.141266 0.371269
423 -2.9351 -0.87973 -8.70919 0.247669 0.260089 0.398078
428 -2.27682 -1.07352 -7.78932 0.459304 0.314822 -0.963697
449 -2.23777 -0.0628189 -8.68627 -0.0502111 -0.354435 0.880072
451 -1.44687 -0.0333476 -7.74609 -0.428676 0.389342 1.41386
426 -1.34522 -1.06623 -8.32145 0.206393 -0.325961 0.629431
432 -0.57616 -0.700608 -7.52395 -0.264355 -0.775748 0.305666
1247 -0.0967943 -5.17565 -2.85926 -0.122943 -1.78108 0.526732
438 -9.12551 0.345576 -8.40593 0.41346 -0.33548 -0.0764822
298 -7.08783 8.01663 -10.1943 -0.785244 0.593839 0.0132519
749 -9.46156 0.635623 -7.24649 -1.21776 -0.489445 -0.0432417
466 -8.29641 0.370873 -7.47437 0.405845 -0.337943 -0.119505
180 -8.41828 1.20024 -8.19328 -0.727561 -0.712474 -0.410607
463 -7.49953 0.554417 -8.40245 -0.849231 -1.28643 0.202706
178 -6.51474 0.565917 -9.089 0.907722 -0.16894 0.0996714
154 -6.6398 0.424011 -7.31235 1.24672 1.06986 0.602396
179 -6.56491 1.25358 -8.08748 0.398716 0.271606 -0.153668
470 -4.69747 0.475272 -8.84936 -0.364829 -0.909744 -0.276433
204 -5.77773 0.544966 -8.01254 -0.484002 -1.52116 0.184681
469 -4.00587 0.461005 -8.0004 0.359277 0.24808 0.822196
207 -3.13797 0.660742 -8.57129 -0.0460873 -0.474437 -0.836232
473 -2.25655 0.676935 -7.72458 0.327094 -0.973681 0.476239
450 -1.47115 0.709822 -8.46219 0.173145 0.30811 -0.278714
453 -0.440924 0.0406379 -8.36017 0.588904 1.35206 -0.615823
477 -0.688902 0.903541 -7.66167 -1.46656 -0.319939 0.0246669
458 -10.1834 2.50262 -8.14151 0.427237 0.228666 -0.881313
461 -9.54036 1.63524 -8.09169 -0.76217 1.48792 -0.236435
772 -9.67975 2.30796 -7.20882 -0.981797 -0.0872155 0.90536
485 -8.85238 2.49001 -7.90067 1.32009 -0.182234 0.604327
773 -7.49279 1.75673 -8.17006 0.225255 0.154372 -0.742093
3060 -6.70368 2.0082 -7.1851 -0.0365417 0.582509 2.20085
781 -4.86296 1.26297 -8.16821 -0.737103 0.583063 -1.42745
775 -5.72899 2.04754 -7.74368 0.0282538 0.673511 0.118121
471 -3.02239 1.45784 -7.84474 -0.0683165 0.515144 -0.618442
231 -3.82614 1.41602 -8.56157 0.423592 0.440773 1.11722
232 -3.72549 2.25376 -7.92646 0.605912 -0.728179 -0.674893
230 -2.93577 2.37134 -8.71761 0.283892 -0.34886 -0.264988
185 -2.15931 1.46881 -8.48427 -0.203387 0.905273 -1.42273
188 -2.48035 2.3191 -7.76515 0.126141 -0.0343856 0.427913
474 -1.5635 1.61579 -7.56937 0.744693 0.810001 0.846584
211 -1.54663 2.53231 -8.25287 0.0291197 0.309406 0.232871
501 -0.614196 1.55701 -8.4924 0.861025 1.11096 0.0496541
480 -0.70047 2.3898 -7.6195 0.091792 0.1308 -0.120981
774 -9.647 3.7485 -8.14212 0.077313 0.433611 -0.142269
770 -8.97576 4.56675 -8.36369 0.415714 -0.136687 0.737617
1947 -8.79344 5.69763 -0.196667 -0.135157 0.186163 -1.25883
783 -3.35952 5.00797 -7.87552 -0.338034 0.780425 0.788378
491 -3.72793 3.42744 -8.1502 0.299539 0.139638 -0.29568
1069 -3.12443 3.22368 -7.34817 0.760312 0.663285 0.336939
236 -2.38075 3.46565 -8.26293 0.139909 0.160549 0.0486527
784 -2.26871 4.14108 -7.49078 0.911517 -0.546721 -0.0102492
499 -1.4326 3.32921 -7.41648 0.0727541 0.664962 0.059568
1728 -0.977452 9.53856 -1.1729 0.17929 0.703992 -0.185497
788 -1.4138 4.1341 -8.34413 -0.0634845 -1.03882 0.354568
497 -0.705727 3.32111 -8.20431 -0.990688 0.802165 0.432216
502 -0.598689 4.06093 -7.51461 -0.738291 0.0676215 -0.385252
1503 -3.73479 -6.90109 -0.0294473 0.216609 -0.918185 -0.0875913
510 -9.80542 5.25576 -8.31147 0.691012 0.754477 -1.26077
253 -8.74984 5.09055 -7.4495 0.607418 -0.685373 -0.150531
518 -2.1068 5.00674 -8.31451 0.501759 0.00743104 1.43946
805 -1.29914 5.08935 -7.68247 1.06529 1.28565 -0.325854
239 -0.428459 4.99338 -8.3441 0.0370321 -0.740555 0.626594
240 -0.492348 5.84294 -7.50245 1.19555 -0.766735 0.68669
3396 -9.03647 6.26829 -8.55509 1.44719 0.487943 0.426599
533 -9.84174 7.1234 -8.62393 0.341033 -0.486052 -0.044676
3109 -9.23159 6.98088 -7.71358 -1.42066 0.623553 0.473475
537 -9.54044 5.87259 -7.45376 0.504915 0.367232 0.457428
462 -8.29699 7.13016 -8.3667 -0.290845 0.438695 1.08151
548 -2.12361 6.01695 -7.72995 0.869743 0.534039 -0.556784
549 -1.4585 6.8181 -7.7083 0.879003 -0.498818 -0.0616344
521 -1.14445 5.94992 -8.29541 -2.07621 0.608119 0.155006
285 -0.438353 6.68468 -8.19881 0.503234 0.50512 -0.298705
536 -9.86813 7.95002 -7.79063 0.0772845 -0.821242 -0.334744
534 -9.05382 7.86438 -8.51515 -0.0511977 0.700063 0.419542
557 -9.72529 8.72242 -8.6305 0.788823 0.311121 0.156078
559 -9.08086 8.64944 -7.70969 -1.88307 0.240903 -0.120834
538 -8.14994 8.64545 -8.41172 -0.157371 -0.756199 -0.285296
283 -2.39551 7.78667 -7.63192 -0.227906 0.15294 0.157512
573 -1.31325 8.41185 -7.70192 -0.601219 0.721608 -0.128444
546 -1.45566 7.7611 -8.56988 -0.250368 0.0411895 0.488377
264 -0.427557 8.29252 -8.33557 -1.28629 1.3457 0.470648
552 -0.547658 7.55556 -7.56634 -0.377256 -0.189172 1.13775
295 -9.14557 -10.1297 -7.81957 -0.340978 -0.148942 -0.755042
560 -9.80607 9.53189 -7.87212 0.502136 -1.08781 1.48026
558 -8.9023 9.51517 -8.57988 0.675205 0.673441 0.443074
297 -8.29183 -10.1779 -8.5937 0.95144 -1.21074 0.177902
564 -8.35903 9.55749 -7.62336 -0.631156 -0.758359 -0.249258
562 -7.58058 9.58158 -8.41957 0.08307 0.987672 -0.882605
854 -2.90744 -10.1671 -7.95896 0.567784 -0.760487 0.394143
308 -2.01383 10.1468 -8.666 -0.553806 0.729672 0.112893
569 -2.98405 9.74657 -8.851 -0.196631 -1.14673 0.332506
572 -1.92928 9.3177 -7.79243 0.812276 0.191253 -0.733871
309 -1.2782 9.20238 -8.56279 0.426617 -0.0148776 -0.663433
307 -1.11794 10.1014 -7.79285 -0.534538 0.0245626 0.385281
310 -0.376325 10.0635 -8.52933 -0.151415 -1.22676 -0.25969
576 -0.416437 9.27132 -7.66121 -0.681446 -0.153999 -0.309962
584 -9.92843 -9.54399 -6.24407 0.330502 1.16482 1.70119
582 -9.05049 -9.49181 -6.94029 0.746577 -0.216612 -0.712128
581 -9.82917 10.2159 -7.01139 1.22157 -0.869851 -1.21094
583 -9.0394 -10.2318 -6.14919 -0.575899 0.932718 -0.719313
588 -8.11208 -9.26049 -6.10961 0.0651989 -0.00961739 -0.388467
299 -7.16662 -9.36108 -6.67832 0.50551 -1.13112 -0.736089
10 -5.71014 -9.36056 -6.38768 -0.862357 -0.0397633 -0.122096
15 -3.77898 -9.64351 -6.26786 -2.42662 0.440735 -0.103532
332 -2.8108 -9.60894 -6.9828 -0.0640995 0.536817 -0.661986
596 -2.14799 -9.73239 -6.14097 0.163688 0.499573 -0.036361
830 -3.07009 10.0317 -6.15555 -0.0312137 -1.0187 1.16591
594 -1.17058 -9.61015 -7.07456 -1.55922 -1.015 -1.13108
600 -0.572153 -9.56624 -6.0791 -0.209025 0.0340813 0.693966
597 -0.434759 10.0671 -6.92825 -0.603107 -0.177567 0.496899
605 -9.79271 -8.66029 -6.96827 0.0183707 0.245892 0.345391
608 -9.81139 -7.81266 -6.13459 1.05428 1.09787 1.04101
606 -9.0391 -7.82793 -6.88899 1.24366 0.148577 0.866518
607 -9.0912 -8.61446 -6.15607 0.0269268 -1.15631 -0.0505723
609 -8.19701 -8.61389 -7.0134 0.588484 -0.132345 0.0630761
612 -8.17855 -7.86888 -6.07638 0.381082 -0.540136 0.112704
611 -7.30081 -8.52634 -6.03858 -0.405536 -0.0605184 0.346293
347 -7.39268 -7.724 -6.77169 1.11682 -1.00856 -1.2197
586 -6.48631 -8.47048 -6.69663 -0.333172 0.777801 -0.536464
587 -6.61771 -7.74378 -5.80995 0.701605 0.136813 0.99188
563 -4.40306 -8.86296 -6.64306 -0.0219433 -0.21447 1.67732
637 -5.21896 -8.32487 -6.50919 -0.0251748 0.757673 0.0355112
665 -3.68177 -7.94164 -6.41546 -1.15337 1.03965 -0.368914
328 -2.873 -8.81028 -6.25709 -1.00917 0.577097 0.290846
325 -3.19391 -8.52236 -7.23024 0.687953 -1.22927 -0.518155
929 -2.10253 -7.93623 -6.37889 0.273373 -0.727267 -0.645128
619 -1.47963 -8.88334 -6.26736 0.634184 0.414061 0.660471
355 -1.42191 -7.89113 -7.20218 -0.28993 0.29227 -0.203391
621 -0.530344 -8.71631 -6.93564 0.945896 -0.240329 -0.583475
624 -0.411871 -7.96673 -6.08868 -0.154682 0.527883 -0.0762251
631 -9.07114 -6.95932 -6.10915 -0.163278 0.307979 -0.988214
629 -9.87698 -6.88213 -6.96244 0.991308 -0.879252 0.616401
632 -9.81806 -6.16299 -6.09453 -0.0926874 -0.319038 0.262503
630 -9.02903 -6.10815 -6.85378 1.15201 -0.524874 -0.923927
634 -8.33499 -6.94748 -6.97135 -0.401494 0.911316 -0.359096
636 -8.23644 -6.13147 -6.03735 0.165459 0.580916 0.109379
610 -7.30241 -6.99471 -6.02106 -0.996175 -0.666368 0.467257
616 -7.49002 -6.06507 -6.95651 0.0575968 -0.140368 -0.51186
659 -6.32269 -6.19962 -5.74384 1.0712 -0.196804 0.67954
613 -5.41237 -6.23003 -6.80947 -0.723825 -0.187996 1.04894
301 -5.62056 -7.39932 -5.92086 -1.37775 0.00686658 0.143931
974 -3.79574 -6.47096 -6.59708 0.493758 -0.0386554 0.689482
349 -2.82188 -7.20606 -6.39258 -0.252274 -0.0905391 1.26288
648 -2.22933 -7.24948 -7.30416 -0.168565 -0.665867 -0.476007
953 -2.08515 -6.33966 -6.27827 -0.117146 1.06503 0.639706
955 -1.338 -7.11569 -6.49527 -0.178903 0.0978628 -1.03078
6 -8.9572 -9.49399 -10.2394 0.191965 0.563171 -1.73534
644 -1.32032 -6.05323 -7.03359 -0.0870263 0.2994 -0.476028
4369 -0.191541 -6.8835 -6.37675 -0.5451 1.31772 -0.701161
647 -0.617488 -5.90292 -6.31254 0.0130692 -0.891095 0.694358
653 -9.79948 -5.27755 -6.95541 -0.229046 -0.0299336 -0.562559
655 -9.13277 -5.41892 -6.0715 0.237515 0.530542 1.5156
654 -9.09448 -4.3875 -6.87608 -1.11558 0.393593 0.735303
656 -9.84149 -4.44745 -6.04624 0.579946 0.471021 -0.863488
969 -8.17433 -5.35405 -7.06588 0.00902449 -0.141639 -0.703209
681 -8.33117 -4.56771 -5.90679 0.697748 -0.150995 -0.500026
660 -7.37511 -5.36725 -5.95657 -0.3177 -0.517359 -0.747322
688 -7.44089 -4.4469 -6.8046 0.467233 0.719886 -1.11113
971 -6.3464 -5.46018 -6.51254 0.204082 0.455781 0.204032
687 -6.67443 -4.50271 -6.03774 0.694147 0.551882 1.18631
685 -4.46027 -5.64194 -6.74344 0.204168 -0.100727 0.95252
352 -4.7481 -4.57299 -7.07487 0.000412474 -0.242873 0.555846
1282 -5.70689 -4.50626 -6.44606 -0.228837 0.172036 0.229696
949 -5.54134 -5.45058 -5.88626 0.286325 1.03483 0.773397
977 -3.07331 -5.11362 -6.6034 -1.17835 -0.191392 0.842603
373 -3.9062 -4.31558 -6.53402 -0.297875 0.861485 -0.308802
374 -3.09836 -4.36363 -7.55076 0.00291425 0.144152 -0.912334
691 -2.1894 -5.1392 -7.29027 -0.489832 0.891265 -0.489279
978 -2.27483 -4.31581 -6.47814 -0.324953 0.318939 -0.730242
667 -1.51817 -5.06598 -6.3845 0.63936 -0.130191 0.876534
672 -0.562983 -4.82674 -6.99516 -0.364724 -0.505371 1.40214
677 -9.8237 -3.66064 -6.9425 -1.15319 -1.29624 0.2508
966 -9.10687 -3.64946 -5.94901 -0.390573 0.0970463 -0.663845
970 -9.10504 -2.91795 -6.89408 0.689583 -0.415695 0.0970447
679 -8.26115 -3.65156 -6.69763 0.34274 -0.0994051 -0.414635
1281 -7.52295 -3.5722 -5.9094 0.169007 -0.110827 -0.674125
707 -6.6522 -3.61711 -6.71727 -0.199884 -0.14047 -1.03131
421 -4.84782 -3.60582 -6.53762 0.714561 -0.461256 -0.432296
1307 -5.8251 -3.65275 -5.89977 -0.280269 1.11908 0.352397
686 -4.05758 -3.65103 -7.39564 0.170476 0.356138 0.629938
980 -3.19536 -3.63274 -6.40417 -0.586175 0.231302 -1.16389
380 -2.19738 -3.46044 -7.21487 -0.0595825 0.525602 -0.194616
692 -1.5437 -3.57293 -6.21498 1.09093 -0.0724065 -0.551364
666 -1.38966 -4.1799 -7.03653 -1.16226 -1.03757 -0.591161
690 -0.654784 -4.1759 -6.07609 -0.555548 -0.0872479 -0.795414
384 -0.595427 -3.36599 -6.94095 0.730398 -1.07702 -0.225176
680 -9.99995 -2.88703 -6.00305 -0.983724 0.24385 -0.518451
701 -9.89866 -2.21432 -6.77264 -0.962034 -0.89487 -0.784725
702 -9.26015 -2.07315 -5.9298 -0.355421 1.07593 0.3928
993 -8.3924 -2.73016 -5.89588 0.150932 0.136528 -0.318183
708 -8.30891 -2.00393 -6.67192 -1.06495 -0.103056 0.0278
706 -7.56492 -1.94293 -5.81568 -0.15997 0.964888 -0.0271082
683 -7.61165 -2.81235 -6.74527 -0.629032 -1.14171 -0.694014
705 -6.75465 -2.19115 -6.78677 -0.147403 -0.382807 0.138735
994 -6.63006 -2.7042 -5.8731 -0.51435 -0.0749344 0.318955
730 -5.6697 -2.13371 -7.51447 -0.211014 -0.866681 -0.222823
731 -5.76166 -2.89669 -6.66206 -0.00648893 0.501513 -0.618644
757 -4.84422 -2.72334 -7.24344 -0.625784 -0.644556 -0.376166
1021 -4.87392 -2.02487 -6.47982 2.14313 -1.31921 0.262349
711 -3.94304 -2.81742 -6.50309 0.25462 0.0797669 0.505693
736 -4.16111 -1.89007 -7.43157 0.00919076 -1.16654 0.602215
998 -3.29828 -1.91494 -6.34125 -1.52 0.521744 -0.106305
689 -3.20577 -2.53938 -7.22696 -0.520558 0.319306 -1.17121
716 -2.39073 -1.77257 -6.91191 0.453866 -0.107293 -0.667496
1001 -2.56918 -2.75896 -6.28463 0.175041 -0.470006 0.240597
715 -1.4678 -1.78855 -6.07864 1.125 -0.140912 -1.04818
1839 -3.54437 -5.44677 -0.137473 -0.837615 -0.878081 -0.1001
693 -1.60335 -2.60657 -6.94836 -1.47844 1.51279 -1.13288
717 -0.801232 -1.76626 -6.83607 -0.489084 0.209453 0.355708
696 -0.731264 -2.74918 -6.06606 0.215469 0.416918 -0.133362
728 -9.14046 -1.24874 -6.78953 0.57494 -0.493787 -0.290011