ITEM: TIMESTEP
82000
ITEM: NUMBER OF ATOMS
6912
ITEM: BOX BOUNDS pp pp pp
-1.0259855680060181e+01 1.0259855680060181e+01
-1.0259855680060181e+01 1.0259855680060181e+01
-1.0259855680060181e+01 1.0259855680060181e+01
ITEM: ATOMS id x y z vx vy vz
8 -9.81963 -9.39296 -9.33954 1.16682 -0.696924 -0.122315
1749 -1.13245 -10.1146 -0.497685 -0.441242 -0.262597 -0.703505
7 -9.03068 -10.2551 -9.26329 0.33414 -0.8006 -0.208135
11 -8.26754 -9.39021 -9.21993 -0.339892 -0.261718 -0.78085
2790 -6.66488 10.2638 -9.95953 0.212346 0.406468 -0.274976
3332 -2.09426 1.44673 -10.0952 0.253101 1.03992 -0.517199
277 -7.52093 10.2465 -9.37761 -0.761264 1.63988 0.456478
134 -2.84732 -0.882414 -10.1369 0.505226 -0.134888 0.37761
2482 -3.6175 -9.44841 -9.70801 -0.685696 0.461525 -0.322032
20 -1.75497 -9.55173 -9.62472 0.714108 0.291762 0.0369232
281 -2.82854 -9.47846 -8.80022 -0.545655 -0.390804 -0.102569
43 -0.776616 -9.52127 -9.7318 -0.0486893 1.08106 0.290817
333 -0.148437 -9.37215 -8.86891 0.708829 -0.454642 0.273386
32 -9.76755 -7.88435 -9.49537 0.837832 -0.56188 -0.703029
887 -0.0557762 10.1963 -4.41699 1.12085 -0.0421989 1.60434
31 -8.89788 -8.63245 -9.38783 -0.873646 0.0539822 1.08348
278 -8.19901 -7.6724 -9.23914 1.17476 0.580829 -0.536664
157 -3.56818 -1.77905 -10.1376 -0.91385 0.668523 0.445369
3204 -7.50694 -7.70799 -10.2442 0.31865 -0.535424 -0.941629
274 -7.51731 -8.49395 -9.33455 -0.226697 -0.248155 -0.65381
3188 -2.61827 -8.90335 -9.69056 -0.540498 0.525738 0.746042
44 -1.42979 -8.49654 -9.75791 0.0601127 -0.153255 -0.260909
41 -2.3316 -7.75481 -9.85271 -0.00400694 -0.702947 -0.0686035
326 -2.07731 -8.69811 -8.74709 -0.589994 -0.0601348 -1.06889
336 -1.49497 -7.65269 -9.11023 0.495299 0.566374 -1.82682
357 -0.6187 -7.73501 -9.72572 -0.0993367 -0.1972 0.75198
330 -0.804904 -8.44005 -8.94498 -0.705914 0.496404 -0.754026
1154 -10.236 -9.4934 -3.4561 0.4453 1.09387 0.19807
245 -9.76716 7.04632 -10.0514 -0.000499881 -0.855434 -1.02531
56 -9.68147 -6.02745 -9.30182 -0.29266 0.287745 0.241274
1068 -2.14684 5.13907 -0.0313599 -0.32661 0.824123 0.481234
1839 -3.71009 -5.34957 -0.16697 0.61778 -0.995084 -0.551204
30 -9.10184 -6.88806 -9.3625 -0.453382 0.628467 -0.0127924
36 -8.01141 -5.73371 -9.24908 -1.34391 0.207575 -1.27415
54 -9.01075 -6.03226 -10.158 -0.109748 -0.826286 0.591847
109 -8.19364 -6.63746 -9.85299 -0.495648 -0.486801 -0.156519
376 -1.56491 -6.19785 -8.94446 -0.234063 -0.0924099 -0.0842285
66 -1.40011 -6.81359 -9.84756 -0.0710562 0.756331 0.0461501
61 -2.39333 -6.86862 -8.86974 0.0757638 0.323848 -0.771564
37 -2.35436 -6.13234 -9.73846 -0.50312 -0.79297 0.302352
638 -0.705107 -6.82201 -8.99401 0.917042 0.845044 -0.295414
72 -0.74738 -5.98403 -9.71182 0.11101 -1.28881 0.112034
360 -0.0541801 -5.93075 -8.9206 -0.78933 1.22509 0.636318
80 -9.74628 -4.47442 -9.3765 1.51703 0.151516 0.0553157
77 -9.66773 -5.24128 -10.2473 -0.240927 -0.758004 0.262928
633 -8.93006 -5.19618 -9.35486 0.822391 -0.152648 -0.659481
1348 -10.1732 5.18195 -3.70883 0.159316 0.529701 1.24078
81 -7.05849 -5.55224 -9.86876 0.439047 -0.179384 -1.02476
370 -7.21181 -4.35685 -10.0452 0.0702689 1.12456 -0.490796
3277 -6.26401 -4.81425 -9.59488 0.382794 -0.629431 0.270454
684 -7.1266 -5.12019 -8.79791 0.736363 0.635309 1.0155
92 -2.80684 -4.98167 -9.8931 -0.742674 0.457174 -0.577792
93 -1.57078 -5.16635 -9.77164 -0.550757 -0.458153 1.08839
95 -0.894153 -5.12259 -8.975 -0.435847 -0.0163774 0.372914
96 -0.968943 -4.31052 -9.79223 0.107446 -0.00533525 0.748951
1657 -10.2242 6.02224 -1.21138 0.791001 0.09537 -0.687741
103 -9.03624 -3.42015 -9.23896 -0.0162009 -0.191742 0.208472
372 -7.96236 -4.48194 -9.23068 -0.695054 0.470394 0.260796
78 -8.8836 -4.21963 -9.9227 -0.430647 0.326478 -0.505396
105 -8.18119 -3.41124 -9.95187 0.259929 -0.346552 0.694623
107 -7.38715 -3.57953 -9.12533 -0.650986 0.146937 1.3891
395 -6.27967 -3.53813 -9.81713 2.02679 -0.417083 1.22237
88 -5.44944 -3.54278 -8.8724 -0.00414258 -0.190212 1.13807
133 -4.53548 -3.3741 -9.39498 -0.23591 0.21117 0.0803599
350 -3.65543 -4.26665 -9.90311 0.0193474 -0.531274 -0.346169
1681 -10.1257 7.63205 -1.4889 -0.785005 -0.0301579 0.117924
378 -2.07951 -4.19355 -9.54842 -0.100903 -0.106861 -0.143361
375 -2.88025 -3.39132 -9.72992 -0.185033 -0.230005 0.159845
119 -0.110681 -3.469 -9.72304 -0.684302 1.27487 0.709837
115 -1.25938 -3.32735 -9.55974 -0.00315215 -0.280439 -0.0850481
125 -9.90449 -1.93974 -10.1103 -0.670067 -0.680844 0.211514
104 -9.87462 -2.64904 -9.25627 -0.207438 -1.96345 -0.026957
414 -9.03711 -2.02181 -9.2851 -0.575153 -0.502647 0.112679
127 -9.11989 -2.67897 -10.1586 -0.279505 -0.740378 0.420243
393 -8.19196 -2.68594 -9.08604 0.108989 1.13898 -0.102726
126 -8.10492 -2.18255 -9.99261 0.135017 0.151935 -1.08646
441 -7.1944 -2.05267 -9.09487 -0.655391 0.477968 -0.93434
390 -7.23168 -2.75139 -9.8228 1.68657 0.247125 0.142252
129 -6.34242 -1.96393 -9.87979 0.55435 0.0677981 0.327717
417 -6.24859 -2.71048 -9.06995 0.32824 -1.05605 -1.17743
397 -5.31497 -2.66035 -9.60607 0.579519 0.677834 0.160225
418 -4.51822 -1.92075 -9.52616 0.0430312 0.79945 -0.070077
445 -4.71317 -2.55926 -8.67411 -1.23124 -0.0982589 0.643112
442 -5.62452 -1.91606 -8.84822 0.0404186 -0.325696 -0.298741
1908 -4.26738 5.62928 -0.0607005 -0.463102 -0.127093 -0.243912
3303 -3.76147 -2.63301 -9.42808 1.05405 0.00867603 1.01247
136 -3.747 -1.76985 -8.82209 -0.698488 0.176745 0.152481
422 -2.77885 -1.70343 -9.36875 -0.842406 -0.770274 0.6231
1271 -0.124797 -4.31349 -3.61784 0.365637 0.0662384 0.123338
116 -1.99276 -2.60705 -9.56224 -0.107391 -0.181189 -0.523435
797 -9.98593 3.32644 -5.33956 -1.56575 0.434316 0.377221
120 -0.416214 -2.39197 -9.28413 -0.472617 -0.657113 -0.225295
141 -0.22124 -1.65107 -10.214 -0.0448007 -0.543465 -0.82732
139 -1.20545 -1.73274 -9.40951 -0.412848 -0.624422 0.25755
1102 -0.0451096 6.16193 -5.18835 -0.389501 -1.14329 0.787766
128 -9.82791 -1.21947 -9.29821 -1.03309 0.390337 0.159206
146 -9.77136 -0.505005 -10.1457 -1.6263 -0.0886577 0.773576
150 -9.05969 -0.497567 -9.10316 1.05311 -0.334677 -1.1906
149 -8.95981 -1.31197 -10.0748 -0.357356 -0.216149 -0.869921
151 -8.14075 -1.29611 -9.16193 -0.774184 1.85744 0.459788
3324 -8.24026 -0.472215 -9.93451 -0.10489 0.707425 0.168269
465 -7.33018 -0.397184 -9.05542 0.761972 -0.544984 -0.125078
3297 -7.29706 -1.24407 -9.85645 -0.463493 0.255653 0.504709
132 -6.38524 -1.22226 -9.09032 -0.410774 -0.543531 0.151777
3300 -6.47031 -0.187739 -9.54744 -0.15908 0.593749 0.548845
130 -5.66339 -1.03447 -9.88059 0.649185 0.413222 0.524233
184 -4.73851 -0.287668 -9.4544 -0.262303 0.903117 -0.109831
155 -4.59168 -1.16115 -8.82291 -0.586373 0.982605 -0.616867
3352 -5.65592 -0.442232 -8.92828 0.359187 1.85999 0.298492
160 -3.65819 -0.941341 -9.4842 0.511468 0.0308118 0.0201086
159 -2.84664 -0.127836 -9.32563 -1.24054 -1.05806 0.289297
140 -2.13558 -0.93557 -9.32259 -1.04248 -0.0701247 0.195675
161 -2.1655 -0.00202129 -10.0368 -0.210018 0.0832682 -0.34217
12 -8.20193 -8.47065 -10.2276 0.0650889 0.520808 -0.333263
144 -0.499456 -0.915232 -9.2791 -0.194586 -0.000810461 -0.630034
138 -1.16879 -0.809237 -10.1733 0.965548 0.681279 -0.572218
165 -0.34376 -0.095488 -10.1305 -0.495614 -1.27732 -0.691461
163 -1.13488 -0.0570835 -9.34639 0.9349 1.27394 0.0809216
152 -9.8419 0.442209 -8.98675 0.281512 -0.251429 1.59408
173 -9.92855 1.37682 -10.0159 -0.404957 0.46616 0.0621189
3343 -9.1665 0.337993 -9.90827 0.63731 -0.387305 0.655737
175 -9.09366 1.3747 -9.33645 -0.0535687 0.500108 -0.367326
156 -8.45037 0.49859 -9.18569 -0.782773 -0.603311 -0.327501
490 -8.10564 1.29401 -9.84599 -1.46149 0.0804401 -0.584845
177 -7.49528 0.434479 -9.59174 -0.592953 -0.354436 -0.797994
3347 -6.50213 0.890191 -9.71975 0.244007 -1.1327 0.532196
178 -6.60641 0.508304 -8.76885 0.32421 0.0978518 -0.0922824
2460 -7.22531 1.83908 -9.88202 -0.896589 0.122298 1.09197
3326 -4.55027 0.576211 -9.98623 -0.69942 1.09934 -0.994667
3328 -5.52732 0.490088 -9.35077 0.504061 0.734632 -0.405932
515 -5.46838 1.26801 -8.51807 0.345716 0.095536 0.254607
3371 -3.69947 0.61066 -9.39053 -0.0705358 -0.12366 0.318353
164 -2.09804 0.625792 -9.19347 -0.200194 0.197278 0.0297858
3327 -2.94339 0.730889 -10.1323 -1.03065 -0.364748 -0.0628262
189 -1.24411 0.763737 -10.1401 1.1516 0.82743 0.647309
168 -0.500333 0.774166 -9.28172 -0.86485 -0.0378971 -1.07098
223 -9.21968 2.39401 -9.72828 1.08457 0.111632 -0.428624
176 -9.24146 2.24724 -8.57189 1.00588 -0.40226 -0.0606919
487 -8.15031 2.47448 -9.61442 -0.232806 -0.0691059 -0.257587
773 -7.52631 2.43925 -8.67749 -0.296742 0.0702053 0.890346
2746 -6.34861 1.79819 -9.10676 -0.509304 -0.325086 -0.000422092
3373 -4.6196 1.57368 -9.12531 0.123368 -0.434418 0.241173
782 -3.69813 2.19513 -9.2924 -0.112503 -0.378631 -0.248594
206 -2.82652 1.51546 -9.3341 -0.550902 -0.198604 0.402512
212 -2.13749 3.16061 -10.1281 -1.05743 -0.576631 1.00258
3375 -2.0557 2.21445 -9.38292 0.831798 0.906454 -0.471504
3223 -8.9155 -7.55946 -10.097 0.942954 0.65292 -0.21402
213 -1.20669 2.30839 -10.0269 0.267085 0.163655 0.00358246
192 -0.487047 1.5886 -10.0919 0.130815 -0.24745 0.360719
187 -1.25968 1.4435 -9.26854 -0.272085 0.332679 1.0327
215 -0.62631 2.32368 -9.11591 -0.750271 0.0238945 0.970722
225 -9.80885 3.45217 -9.857 -0.0223085 0.944013 -0.529114
200 -9.0516 4.25196 -10.1164 -1.47544 -0.585783 -0.0930219
3372 -8.76672 3.31844 -8.81739 1.10469 -0.185038 -0.259855
228 -9.53707 4.22968 -8.90425 -0.8963 -0.186513 1.32509
1961 -3.15053 7.80726 -0.12413 -0.075767 -1.05317 0.246886
513 -8.58547 3.3535 -9.86136 0.893871 -0.0590148 -0.72769
783 -2.89918 2.95212 -9.32825 0.709208 -0.377703 -0.318448
531 -10.1322 6.78834 -7.43831 -0.457535 -1.61113 -0.30932
3404 -2.30156 4.00507 -9.17284 0.462352 -0.161282 0.975575
1986 -1.50772 7.78604 -0.0557576 0.0798462 0.254717 -0.279014
3399 -1.37888 4.11082 -9.94345 -0.167796 -0.0867052 0.546075
209 -1.41578 3.26098 -9.27571 -0.255344 -0.550007 -1.75261
3384 -0.511065 3.39541 -9.86167 -0.514182 -0.302501 -0.342333
498 -0.659456 4.17281 -9.18666 1.32267 -0.485903 -0.530948
506 -9.2073 5.22771 -9.33705 1.62042 -0.652739 -0.121039
221 -9.89075 5.25108 -10.1689 0.463129 -0.870065 1.19196
525 -1.48472 5.10295 -9.21233 -0.493295 -1.12263 0.805397
3403 -0.475288 5.01388 -10.0383 0.893055 -0.412092 -0.303437
222 -8.93603 6.13812 -9.8586 0.191169 -0.146694 0.193683
224 -9.91305 6.17264 -9.38268 -0.286368 0.00842497 0.705639
247 -9.00715 6.96912 -9.12977 0.338555 -0.737099 0.905352
462 -8.00353 6.08564 -9.3584 0.0978335 -0.0495565 0.197454
249 -8.25127 7.19939 -9.98293 -0.241109 -0.914227 0.116119
261 -0.548826 5.81582 -9.32631 -0.428723 0.380285 -0.489643
2507 -1.37494 6.7429 -9.49651 -1.2078 -1.45691 1.14883
3405 -0.470199 6.61075 -10.1195 -0.35387 0.872335 0.602651
3144 -1.37274 5.72141 -10.1548 -0.720829 1.52636 -0.292642
269 -9.90131 8.59319 -10.1087 1.39421 0.948831 0.437543
248 -9.83777 7.8328 -9.26947 -0.0243428 1.12047 -1.31846
271 -9.07842 8.52916 -9.2606 0.470832 0.568683 -0.491689
1636 -10.1826 5.18131 -2.04511 -1.30501 0.800915 0.608099
252 -8.14218 7.76741 -9.01483 1.07942 -0.420278 0.63731
561 -7.41363 8.46494 -9.21247 -0.568275 0.0932829 0.0201753
273 -8.25103 8.52189 -9.9722 0.608407 -0.195946 0.176145
570 -1.10965 8.48668 -9.48737 -0.424776 -0.974073 -0.00159267
3455 -0.534092 7.55744 -9.24587 -0.478326 -0.370563 -0.086104
282 -0.31571 8.20116 -10.0826 -1.42149 0.897411 -1.23276
272 -9.69001 9.39698 -9.34921 0.134985 0.779555 0.00189248
276 -8.25883 9.4114 -9.22964 0.902263 0.265114 0.265332
298 -6.67063 9.33571 -9.4347 -0.0630557 0.224569 -0.134046
3180 -7.65086 9.40214 -10.0657 0.804638 -0.182811 -0.0691234
303 -2.72854 -10.1321 -9.69124 -0.48517 -1.46205 -0.0970712
258 -1.93665 9.12998 -9.55372 -0.652028 0.495928 0.260362
1130 -10.2575 9.39071 -5.1229 -0.0205679 -0.836269 0.345196
305 -1.13955 9.95261 -9.5246 -0.290824 -0.770635 1.37786
23 -0.365436 9.15563 -9.22542 0.761281 0.310035 -0.532584
296 -9.81686 -9.40103 -7.63303 0.379696 -0.517415 -0.320975
294 -8.92538 -9.29616 -8.46351 0.554181 -0.16028 1.32137
293 -9.82023 -10.1679 -8.55992 0.388539 0.136762 -0.197322
295 -8.92078 -10.2406 -7.58459 -1.2213 -1.78212 -0.733111
300 -8.16548 -9.33562 -7.5737 -0.263862 0.304125 -0.0224916
297 -8.13516 -10.1588 -8.46021 0.630897 0.793333 -0.144424
329 -2.74656 -8.68736 -7.8935 0.504295 -0.219023 0.290426
617 -1.96194 -9.55077 -8.02891 -1.18542 -1.01434 -0.415043
854 -3.00148 -10.265 -8.10586 -0.0545318 -0.719967 -0.331009
306 -1.22904 -9.49243 -8.77874 0.464146 0.281133 -0.0921919
312 -0.366256 -9.5891 -7.80311 0.635921 0.958721 0.832496
641 -1.12669 -8.82394 -7.84808 -0.586449 -0.554522 -0.177669
317 -9.6797 -8.60921 -8.59656 0.147561 -1.31554 -0.189666
319 -8.95587 -8.54418 -7.62614 1.61841 -0.516989 -1.05038
320 -9.63564 -7.66124 -7.87787 -0.187204 1.04238 0.337017
318 -8.83454 -7.92925 -8.53125 -0.877801 0.44129 0.269943
321 -8.07189 -8.62788 -8.43892 1.3382 1.27477 -0.0682509
322 -8.28772 -7.70086 -7.66345 0.223474 -1.32734 0.767063
323 -7.46505 -8.55977 -7.59643 -1.15693 1.07998 -0.971178
35 -7.31246 -7.71219 -8.32677 -0.591648 0.263184 0.975269
327 -1.80431 -8.02174 -7.94515 0.106101 0.552042 -0.672793
331 -0.783079 -7.6793 -8.23004 -1.04544 0.902407 0.0221478
341 -9.84591 -6.89537 -8.586 -0.368059 0.224305 -0.0224264
344 -9.82187 -6.16152 -7.78194 -0.094925 0.0628143 0.491737
343 -8.91038 -6.83291 -7.82051 -2.57019 -1.02371 -0.287745
1728 -1.20832 9.59317 -1.24665 0.593762 -0.665126 0.141987
342 -8.89383 -5.99507 -8.59444 -1.29894 -0.552012 -0.216232
40 -8.17659 -6.79704 -8.60462 0.0983769 0.34377 -0.125502
324 -8.28366 -5.98045 -7.51234 0.75052 -0.231551 -0.193966
424 -1.98491 -5.95585 -7.92509 -0.10358 1.48221 1.18147
645 -1.63316 -6.98527 -8.09076 -0.106712 -0.44373 0.565221
356 -0.914844 -6.14201 -8.097 0.0754009 0.164064 1.05718
3432 -1.20422 7.52853 -10.1666 0.499229 -0.163106 0.630356
365 -9.81366 -5.29955 -8.54663 -0.0506865 0.897798 -0.333243
348 -8.98738 -5.24647 -7.69578 0.185913 -0.457814 -0.871191
86 -8.15191 -5.13759 -8.28652 1.16293 0.337208 -0.934824
367 -8.06095 -4.39344 -7.50887 0.961079 0.570753 -0.609725
682 -6.80176 -4.50845 -7.65505 -0.808666 -0.0580066 0.0437167
352 -4.46964 -4.41486 -7.40799 1.27959 -0.31481 -1.25088
112 -1.97435 -5.16715 -8.67129 -0.499698 0.735151 0.184027
383 -0.139865 -5.14198 -8.16775 -0.136037 0.185719 -0.835935
354 -1.13879 -5.10378 -7.95609 -0.0181873 0.415025 2.65839
368 -9.70366 -4.34391 -7.75587 0.0602706 -0.328501 -0.944242
79 -8.94939 -4.47001 -8.54977 -0.109668 -0.92584 -0.321701
389 -9.8172 -3.51062 -8.53725 -0.798761 0.630602 1.52494
657 -9.02367 -3.51881 -7.74319 0.159525 0.194286 -0.215477
55 -8.19666 -3.63212 -8.39325 -0.928417 -0.121572 -0.391792
678 -8.32463 -2.67327 -7.64177 0.115404 -0.876561 -0.378328
366 -7.44364 -3.53479 -7.51656 0.76877 -0.532469 -0.0574515
664 -6.46064 -3.33259 -8.19645 0.973344 -0.217641 0.372453
709 -4.48365 -3.47231 -8.0479 -1.16241 -0.718429 0.368541
419 -5.47065 -3.92187 -7.65656 -0.721204 -1.27177 -0.321506
396 -5.49733 -2.76152 -7.82959 0.631449 -0.495141 0.490786
135 -3.57782 -3.48011 -8.86612 -0.196557 -0.670328 0.768176
400 -3.60764 -4.47233 -7.94844 0.620687 0.303772 0.573913
1289 -3.05178 -3.4451 -7.93405 1.61012 -0.361281 -0.684288
399 -3.04464 -4.40786 -8.99124 -0.133592 -1.50862 0.537483
401 -2.23382 -3.4223 -8.74383 -0.045511 -1.47542 0.228634
668 -1.9995 -4.33171 -7.90506 -0.315045 0.287082 0.158837
403 -1.34045 -3.47637 -7.92098 0.570767 0.752687 -0.580586
699 -10.2672 -1.91048 -5.81324 -1.12181 -0.167726 0.623428
379 -1.3071 -4.16687 -8.7927 -0.23537 -0.00382902 -0.671043
381 -0.45182 -4.16233 -7.7913 -0.752417 -0.0386624 0.0852482
405 -0.443208 -3.31273 -8.63731 0.396173 -0.506155 -0.838757
392 -9.87109 -2.77209 -7.63433 -0.388743 1.01404 0.415397
391 -9.16856 -2.70076 -8.3724 1.23474 0.382977 0.50619
413 -9.98665 -1.96447 -8.46324 -0.58553 0.309157 0.526943
725 -9.18026 -1.97877 -7.56931 1.50443 -0.118244 -0.599486
415 -8.21298 -1.88212 -8.37826 0.266522 1.08162 -0.662571
420 -7.33363 -2.05452 -7.47817 -0.391718 -0.541078 -1.14769
658 -7.33866 -2.80639 -8.26369 -1.13596 -0.15785 0.30027
369 -6.57265 -2.79854 -7.26754 0.729087 1.2082 -0.326448
443 -6.52379 -2.09292 -8.11998 -0.136756 0.71166 -0.761353
733 -4.76433 -1.78006 -7.94617 -0.582444 0.315575 0.746354
730 -5.88742 -1.88541 -7.25224 0.528031 0.340293 -0.642596
757 -4.66168 -2.72857 -7.22708 0.162866 0.998508 0.4898
712 -3.75577 -2.46557 -8.07056 -0.268993 -0.378768 -1.18303
713 -2.96744 -1.7518 -7.98127 0.0228641 -0.296927 -1.09777
398 -2.86648 -2.63244 -8.78698 1.3166 0.506305 -0.134065
404 -2.07529 -2.67142 -8.00345 -0.163928 -0.557288 0.0108828
425 -2.01443 -1.8477 -8.69003 0.0715797 0.286267 0.121436
427 -1.31366 -1.8424 -7.87252 -0.0560915 0.0324469 0.296412
402 -1.20237 -2.6333 -8.67727 -0.232388 -0.0610822 -0.0552274
408 -0.532851 -2.65224 -7.84084 -0.311284 0.311659 0.0040862
429 -0.464045 -1.71911 -8.42352 0.50537 0.397664 -0.161602
416 -9.95188 -1.24766 -7.56251 0.202393 -0.497946 -0.772532
437 -9.86364 -0.571511 -8.28726 0.519794 -0.0435079 -0.912998
440 -9.16997 -0.406645 -7.45711 -0.706951 -0.0427765 -0.543974
439 -9.04817 -1.29796 -8.43332 -0.250654 0.0545038 -0.128634
726 -8.31487 -1.21761 -7.43963 0.0168211 -0.417082 0.646734
468 -8.26284 -0.544537 -8.29172 -0.00956993 -1.22661 -0.927672
203 -7.4317 -0.488732 -7.49744 -0.272992 -0.553403 -0.861437
753 -7.30501 -1.33728 -8.32498 0.660313 -0.83981 0.610328
153 -6.51869 -0.482679 -8.21969 -0.629239 0.461657 0.94567
1018 -6.71827 -1.19892 -7.50327 -0.060008 0.0832515 -0.381677
448 -5.5841 -1.17005 -8.08439 0.433576 -0.159319 0.474439
467 -4.69812 -0.425913 -8.06688 -0.271453 -0.283198 1.62939
1042 -5.88957 -0.522692 -7.24392 1.0336 0.159287 0.686683
158 -3.75959 -0.114979 -8.55685 -0.438999 1.16653 -1.27697
446 -3.8654 -1.0894 -7.95668 -0.302455 -0.473824 0.223273
183 -2.99102 -0.344337 -7.79101 -0.249908 -0.414514 0.293489
423 -2.98785 -0.964639 -8.62489 -0.368347 0.20861 -0.617797
428 -2.20117 -1.09311 -7.87099 0.438843 1.40196 -0.0043347
449 -2.23911 -0.161481 -8.54147 0.961074 0.762232 0.674925
426 -1.26163 -0.909034 -8.5906 -0.0914055 1.50067 -0.397904
432 -0.530585 -0.889277 -7.64035 -0.33067 -0.152451 -0.367148
451 -1.52358 -0.12655 -7.66672 -0.562601 0.0989467 0.698809
438 -9.01188 0.241021 -8.25476 0.545932 0.820393 -0.498297
801 -7.33541 1.31222 -8.89018 0.0163827 -0.266687 0.82806
466 -8.3654 0.411993 -7.30866 -0.0842761 0.499199 -0.467373
180 -8.41445 1.41109 -8.43769 0.736583 1.24383 0.16463
463 -7.60751 0.3322 -8.27209 0.265139 0.878955 -0.277807
1355 -7.523 1.06913 -7.55407 -1.76452 -0.103201 0.863899
179 -6.5509 1.50281 -8.11876 -0.295463 0.767703 0.871121
154 -6.56955 0.474302 -7.56765 -1.27614 0.73724 -0.90165
470 -4.60397 0.587138 -8.53394 0.188241 -1.6922 0.769172
204 -5.53316 0.253048 -7.93309 -1.22059 -0.467086 0.415016
781 -4.62385 1.5364 -7.78888 0.0277488 2.01069 -0.629932
469 -3.74509 0.529235 -7.77035 -0.438802 -0.930998 0.780893
471 -2.90416 1.37421 -7.58655 -0.132269 0.188385 0.764812
207 -3.00837 0.689334 -8.45237 0.634852 -1.57027 0.704948
473 -2.34225 0.468061 -7.54864 0.212009 -0.169881 -0.349556
453 -0.563655 -0.139282 -8.43924 -0.120412 0.236006 0.675628
450 -1.4633 0.637025 -8.3873 1.2583 0.454956 -1.28424
477 -0.613884 0.679084 -7.53749 -0.612315 0.789006 -0.168515
461 -9.41918 1.24212 -7.9993 0.527658 0.491249 0.285614
485 -8.48518 2.60819 -7.97097 -0.23946 -0.280879 -0.0651209
199 -7.59016 2.16907 -7.55069 -0.21017 -0.511144 0.659283
205 -4.40596 2.51437 -8.36157 -0.392415 0.71567 0.310216
775 -5.52715 2.25161 -8.14744 -0.288302 -0.542758 -1.02273
231 -3.72818 1.52388 -8.5055 -0.168284 -0.618327 0.341773
232 -3.50062 2.29287 -7.75096 0.812174 0.741659 1.00764
230 -2.8009 2.29691 -8.51161 -1.30822 -0.141469 -0.297632
185 -2.19679 1.42579 -8.45656 -0.554643 -1.11753 0.688852
188 -2.15686 2.19898 -7.58533 -0.300774 -1.81174 0.674925
474 -1.48856 1.39416 -7.49984 -0.347643 0.369917 1.23358
211 -1.53668 2.45499 -8.5289 -0.540034 -0.23897 -0.655885
501 -0.610988 1.56239 -8.48959 0.856623 -1.01808 -0.255472
480 -0.915136 2.3193 -7.79308 0.499498 -0.22613 0.440696
774 -9.54705 3.17105 -8.10805 -0.184243 -0.528834 -0.960655
770 -9.50649 4.38294 -7.3057 -0.472157 -0.199148 0.873548
1643 -4.06319 3.1075 -7.32184 1.40556 0.0495536 1.19595
491 -3.59874 3.15208 -8.39711 -0.820445 0.778627 0.839447
1069 -2.76525 3.15526 -7.41974 -1.24963 0.699921 -0.0758764
236 -2.25948 3.2193 -8.47464 -1.94812 -2.11042 -0.72786
784 -2.38105 4.22544 -7.39468 0.347233 -0.976187 -0.166502
499 -1.69923 3.26668 -7.53443 0.194637 0.0741208 0.603872
788 -1.46936 4.15883 -8.29085 0.57033 -0.329059 -0.3842
497 -0.653543 3.43197 -8.35686 0.0431829 -0.464324 0.0649258
502 -0.628519 4.10895 -7.57648 0.174078 0.332024 0.276849
510 -9.51453 5.05991 -8.22991 0.542035 -0.55845 0.186859
537 -8.85121 5.65272 -7.38483 -0.846184 0.292266 -0.206372
805 -1.32148 4.98311 -7.60045 1.07732 -0.0956283 0.525845
239 -0.687001 5.04385 -8.44173 -1.38991 0.611988 -0.14088
240 -0.592949 5.9411 -7.53541 0.430297 0.71267 -0.74455
6 -8.92214 -9.4386 -10.1776 -1.02742 -0.115453 -0.239036
3396 -9.27782 6.0977 -8.56492 -0.549757 2.55125 -0.691353
533 -10.0161 6.96697 -8.50104 -0.967984 -0.541751 -0.142916
3109 -9.06128 6.91272 -7.82149 0.897132 1.01043 0.00208943
3323 -4.54017 -1.03713 -10.1496 -0.132639 -1.54867 1.03813
253 -8.10224 6.73271 -8.4657 0.332531 -0.946433 0.110336
237 -2.1607 6.72538 -8.41671 -0.7864 -0.722177 0.697035
518 -2.05029 5.89177 -7.71411 -0.168261 -0.71629 1.07595
521 -1.30245 5.92635 -8.51804 1.48456 1.62283 0.886089
549 -1.17205 6.82356 -7.64666 0.363786 0.386749 -0.28438
285 -0.480759 6.74965 -8.42052 0.0882585 -0.359936 -0.193202
536 -9.88329 7.80283 -7.68718 0.315859 0.870716 -0.34156
557 -9.85623 8.68637 -8.35787 -0.201667 0.36824 -0.0796696
534 -9.08435 7.84174 -8.43593 1.01559 -1.43525 0.96334
559 -8.9742 8.67167 -7.5182 -1.48489 0.756173 0.510793
538 -8.20869 8.49881 -8.15337 0.134081 -1.32738 -0.924254
283 -1.93895 7.59387 -7.75081 0.339228 0.713406 -0.0410245
566 -2.77778 8.1506 -8.31545 -0.709216 0.748603 -0.250575
573 -1.40064 8.62828 -7.92261 -0.107916 -0.740499 0.147287
546 -1.22697 7.67054 -8.49608 0.122035 -0.171 0.168825
264 -0.401125 8.42855 -8.49494 0.295718 -0.252032 0.304855
552 -0.45663 7.60002 -7.57908 -0.59315 -0.611108 0.0850845
558 -8.96955 9.38082 -8.44168 -0.453908 -1.54943 -0.143279
560 -9.76258 9.59139 -7.69867 -1.52193 -0.439939 -0.357829
564 -8.22416 9.38089 -7.54756 -0.782358 -0.113398 0.564052
562 -7.33482 9.15792 -8.39368 0.125398 -0.859112 0.149381
569 -2.82486 9.47571 -9.05885 0.0429304 -0.894694 -0.536008
308 -2.01592 -10.2295 -8.91533 0.509395 1.36542 -0.0937705
572 -2.2593 9.26873 -8.0945 -0.139359 -1.1386 -0.473629
309 -1.42227 9.41365 -8.68857 0.0489293 0.0636314 0.438329
307 -1.21163 10.203 -7.91619 -0.507987 -0.525091 -0.817185
310 -0.505832 10.1658 -8.70946 -1.5411 0.154171 0.390815
576 -0.566992 9.36026 -7.87811 0.187336 -0.0483338 -0.0952229
584 -9.84351 -9.38166 -6.13934 0.573934 -1.19898 -0.219891
582 -9.00335 -9.35769 -6.83147 0.352145 -0.658206 -0.455343
581 -9.83169 -10.1819 -6.90374 -1.3048 0.243931 -0.255076
583 -9.03 -10.1403 -6.13949 -0.92578 0.318551 2.3551
588 -8.1889 -9.39446 -6.07651 -1.1677 0.554272 -0.511188
585 -8.20888 -10.1708 -6.8504 1.04438 0.284943 -0.699881
299 -7.35662 -9.30576 -6.76401 -0.534571 -0.0515316 -1.24017
10 -5.55121 -9.46169 -6.6236 -0.810953 0.193643 0.648353
15 -3.99468 -9.64941 -6.49162 -0.0195003 -0.349512 -0.190252
830 -3.1428 10.1412 -6.39746 0.423419 1.70844 -0.874218
332 -2.95005 -9.5604 -7.13663 0.585981 -0.0431081 0.457537
596 -2.2879 -9.47266 -6.34116 1.14585 0.145696 -0.655745
593 -2.05296 10.1913 -7.10841 -0.2103 0.649831 -0.610207
594 -1.35646 -9.48818 -6.97497 0.627227 -0.473198 0.535746
600 -0.494742 -9.67675 -6.28522 -0.102968 -0.698997 1.32164
595 -1.35112 10.1165 -6.24397 0.521494 0.695483 0.0318963
607 -9.04414 -8.63194 -6.10388 0.292555 0.170539 -1.13734
605 -9.80159 -8.37817 -6.983 0.220093 0.263415 -0.332775
608 -9.80415 -7.67222 -6.14377 0.91393 0.477691 0.176547
606 -9.03533 -7.69034 -6.88292 0.706576 1.62573 0.632018
609 -8.24781 -8.4589 -6.8012 0.404788 -0.0734495 0.0971565
612 -8.17104 -7.61487 -6.09421 1.33428 -0.544162 -0.482155
347 -7.41003 -7.7323 -6.87168 -0.533263 0.915053 -0.0856009
586 -6.47844 -8.49873 -6.67365 0.11773 -0.261307 -0.154362
563 -4.69318 -8.51004 -6.51417 0.65316 0.450856 -0.1719
637 -5.60275 -7.82885 -6.52489 0.279964 0.182099 0.219172
284 -3.59339 -8.40321 -7.21979 -1.10667 -0.694115 1.48031
665 -3.88991 -7.88063 -6.27854 -0.776052 -1.36659 0.0199864
328 -3.17653 -8.76489 -6.3793 -0.244112 0.735501 1.35006
325 -2.63121 -7.81004 -7.26578 -1.18169 -0.298613 -1.59799
618 -2.02567 -8.71754 -7.11683 2.1606 -0.553225 0.17327
929 -2.25833 -7.58777 -6.32239 -0.870529 -0.409907 0.532461
621 -0.536177 -8.77037 -6.97929 -1.11457 1.01978 0.963093
619 -1.43356 -8.65016 -6.2878 0.31496 1.32998 -1.85334
355 -1.28993 -7.97122 -7.0755 0.712575 0.820976 0.0491346
624 -0.669236 -7.86043 -6.20447 -0.0774836 -1.00433 0.265647
622 -0.203276 -7.75044 -7.32843 0.23943 0.480293 -0.033939
631 -8.98464 -6.89174 -6.14493 -0.514288 0.401198 0.22274
629 -9.70973 -6.91382 -6.98595 -1.20812 -0.710063 -0.591959
632 -9.84277 -6.1011 -6.12922 -0.298632 0.628251 0.566892
630 -9.09073 -6.07899 -6.83842 -0.148746 -1.44538 -0.407282
634 -8.13898 -6.9132 -6.89415 -0.0612652 0.19834 0.795898
636 -8.36205 -5.99904 -6.04146 0.784027 0.320224 0.184373
971 -6.49002 -6.96076 -6.72956 -1.5114 -0.141934 -1.38953
616 -7.39856 -5.84495 -6.89913 -0.954218 -0.0693646 -0.133845
613 -4.70416 -6.94082 -6.46357 0.186223 -0.92042 -1.26496
974 -4.03197 -5.98795 -6.34184 -0.0805524 1.2617 -0.695342
349 -3.31648 -6.94433 -6.56952 0.219967 0.122269 -0.814296
648 -2.03446 -6.85554 -7.16541 1.07704 0.375869 -0.842719
953 -2.20635 -5.86361 -6.52218 0.612723 -1.65307 0.101275
643 -0.947157 -7.03287 -7.33136 0.505674 0.0855623 -0.682005
955 -1.25351 -7.0347 -6.1578 -0.927443 0.0780557 0.017374
647 -0.534471 -5.88424 -6.19709 0.997412 0.606219 -0.559249
669 -0.211712 -6.1903 -7.2036 0.799963 1.54598 -0.924323
4369 -0.157619 -7.04134 -6.50185 0.31238 0.571234 -1.49706
653 -9.79218 -5.20243 -7.00766 -0.274652 -0.817234 1.70636
655 -9.18395 -5.24819 -6.03347 -0.0749943 -0.388725 0.429129
654 -9.06318 -4.41079 -6.84182 1.35875 0.13812 -0.135259
656 -9.87549 -4.36171 -6.06187 -1.16878 -0.0922344 -0.419477
969 -8.40245 -5.21924 -6.79294 -0.148783 0.282105 -0.478516
681 -8.28361 -4.2968 -6.1816 0.368394 -1.0786 -0.23482
660 -7.52875 -5.28219 -5.86324 -0.530507 -0.964263 0.259635
688 -7.38216 -4.66839 -6.76301 0.657622 -0.516816 0.382436
687 -6.49615 -4.56108 -5.86366 -1.06412 -0.35942 0.568425
685 -4.63854 -5.15881 -6.56252 -0.140777 -0.678334 -0.499695
1282 -5.56079 -4.42623 -6.58865 0.105322 0.3245 0.193757
977 -3.07585 -5.18858 -6.36886 -0.273829 -0.912481 -0.161867
691 -2.0774 -5.12578 -7.16945 -0.334583 0.00215367 0.0087085
644 -1.21473 -6.0187 -7.02425 -0.197381 1.13141 -0.0386479
667 -1.33575 -5.11344 -6.32958 -0.29837 -0.237927 0.0102184
672 -0.49224 -5.03227 -6.97309 -0.676966 0.257213 -0.500236
677 -9.94975 -3.7486 -6.87629 0.644228 0.885717 -0.325731
966 -9.07223 -3.58946 -6.13419 0.913168 -0.831382 0.909908
679 -8.33982 -3.58975 -6.93936 1.09279 -0.947528 -0.451244
1281 -7.47012 -3.67216 -5.9038 -0.386417 -1.03149 0.535708
683 -7.53146 -2.77368 -6.62751 -0.169235 1.9105 0.809523
707 -6.44765 -3.72357 -6.80394 0.575795 -0.0967721 0.472655
421 -4.69523 -3.72775 -6.5179 -0.0630728 -0.396629 -0.316357
374 -2.98708 -4.21513 -6.99941 -0.157408 0.59086 -1.0833
373 -3.86328 -4.37056 -6.41103 2.20945 0.525362 0.405336
686 -3.80642 -3.51128 -7.23898 1.27484 0.637016 -0.152318
980 -3.16764 -3.44553 -6.25465 0.117668 -0.237451 0.657095
978 -2.18103 -4.355 -6.37223 0.738487 0.0579538 -1.16202
380 -2.25975 -3.44597 -7.13039 0.215387 0.0714567 0.16897
692 -1.51183 -3.45595 -6.35004 -0.965447 -0.526368 -0.353818
666 -1.21771 -4.33533 -7.12906 0.463827 0.342927 0.945919
690 -0.66061 -4.10335 -6.17376 -0.518476 -0.362606 -1.91761
384 -0.542448 -3.37836 -6.98842 0.653423 0.0100629 1.30609
970 -9.11811 -2.75901 -6.78839 -0.305009 0.553269 0.741861
680 -10.002 -2.91987 -6.22148 0.133874 0.228352 0.0489711
701 -10.0432 -2.02061 -6.84537 -0.20089 -0.729391 0.42748
702 -9.22412 -2.07047 -6.04386 -0.0919859 0.519872 -0.132843
993 -8.26967 -2.81431 -5.9159 1.10229 0.279086 0.612934
708 -8.33448 -1.98268 -6.74047 0.532783 0.266995 1.05162
706 -7.64396 -1.99737 -5.82543 -0.503385 0.271082 -0.0233064
705 -6.67503 -1.97657 -6.45413 -0.271442 0.171482 0.164955
994 -6.58103 -3.08561 -5.92056 -0.682339 -1.02021 1.53865
731 -5.66078 -2.87524 -6.76606 -0.13465 -0.40106 0.940917
1021 -4.69919 -2.03789 -6.51063 0.122699 -0.361456 -0.499865
1020 -5.78791 -2.27364 -5.92744 0.00378259 -0.566253 -0.599456
997 -5.01017 -3.04429 -5.80653 0.255187 0.708779 0.258011
711 -3.96455 -2.83365 -6.46526 0.139342 -0.180347 0.709613
736 -3.89345 -1.76659 -7.16011 -0.10328 0.201254 0.571307
998 -3.158 -1.90094 -6.20152 0.576305 0.415775 -0.789008
689 -2.96985 -2.51154 -7.05756 -0.113478 -0.0710123 0.929528
716 -2.16666 -1.83681 -7.12571 -0.18327 0.0956887 0.610837
1001 -2.24796 -2.67959 -6.23624 -0.0135528 -0.312721 0.71497
503 -0.0579852 4.15375 -6.68701 0.168079 0.00102748 -0.416651
715 -1.5765 -1.86544 -6.15299 -0.18948 -0.177921 1.05212
693 -1.38013 -2.67253 -7.07367 0.573185 -0.532171 0.124754
717 -0.633252 -1.7945 -6.8486 -0.0675594 1.13789 0.112445
696 -0.8356 -2.67046 -6.15737 -0.0668106 -0.201612 0.169502
728 -9.28376 -1.22586 -6.69887 0.995784 -0.945622 0.372903
752 -9.52816 -0.187377 -6.45253 -0.160435 0.720352 0.650214
1959 -3.91774 6.79647 -0.13184 0.351613 0.791695 -0.275603
750 -8.3427 -0.390545 -6.73908 0.810362 0.214194 1.48751
729 -7.51475 -1.259 -6.68764 -0.16527 1.09588 0.0974857
727 -8.39172 -1.21036 -5.95757 -0.262871 1.54302 -0.474153
1596 -7.68184 -0.265526 -5.96459 0.722879 0.293013 -0.870865
754 -6.68031 -0.493647 -6.52568 0.655283 0.516611 -1.56782
755 -6.74581 -1.24165 -5.79235 -0.448463 -0.159924 0.201141