ITEM: TIMESTEP
130000
ITEM: NUMBER OF ATOMS
6912
ITEM: BOX BOUNDS pp pp pp
-1.0259855680060181e+01 1.0259855680060181e+01
-1.0259855680060181e+01 1.0259855680060181e+01
-1.0259855680060181e+01 1.0259855680060181e+01
ITEM: ATOMS id x y z vx vy vz
8 -9.65451 -9.49823 -9.4573 -0.193734 -1.08015 0.889711
7 -8.92867 -10.2413 -9.72735 2.52122 0.26911 0.273758
11 -7.89227 -9.50462 -9.41612 1.26771 -0.100505 -0.163228
9 -7.84983 -10.2565 -10.2055 -0.492831 -1.90424 0.302557
6 -8.63324 -9.34826 -10.2312 0.201722 -1.56265 -0.470384
20 -2.29479 -9.75724 -9.2522 0.371132 -0.973246 -0.946498
326 -1.95649 -8.83386 -8.79636 -1.27603 -0.146672 0.5348
43 -0.727454 -9.44304 -9.74185 0.113336 -0.186618 -0.284577
32 -9.60737 -7.67002 -9.45761 -0.360292 -1.13407 -0.108066
31 -8.78934 -8.71756 -9.39934 0.369422 -0.863268 0.143646
278 -8.01206 -7.96035 -9.38716 1.39972 0.500361 0.553502
345 -7.177 -7.87208 -10.0412 1.661 0.996425 -0.778135
3180 -6.60861 -8.76965 -10.0004 -0.331002 -0.342415 0.0891438
281 -2.789 -8.49024 -9.27263 -1.03328 -0.318455 0.54114
336 -1.82303 -7.72593 -9.14108 -0.91884 -0.713836 0.982931
44 -1.59092 -8.78816 -9.7662 -0.617601 1.09358 1.45387
41 -2.79191 -7.53973 -10.003 1.03599 -1.06658 0.546986
357 -0.642158 -7.65774 -9.90688 -0.510042 0.332189 0.966891
330 -0.875657 -8.53027 -9.06377 -0.975855 -0.752566 0.135969
334 -0.0513674 -7.60467 -8.97071 -1.22689 -1.53768 -1.16262
56 -9.58906 -6.23786 -9.5605 -0.0509237 -0.131742 -0.394812
30 -8.71568 -6.98394 -9.54942 -1.2011 0.289056 1.14354
36 -7.67197 -6.12589 -9.2842 -0.828363 0.519842 -0.539427
54 -8.69898 -6.14734 -10.2518 -1.11024 -0.181109 0.300883
66 -1.60238 -7.05876 -9.98041 1.41792 -1.15503 0.220808
3212 -2.69478 -6.00854 -9.7367 -0.0426742 0.396117 0.703252
37 -1.78841 -6.131 -9.14617 0.720301 -0.895258 -1.00659
638 -0.939435 -6.90368 -8.97745 -1.08077 -0.223551 1.14518
72 -0.837951 -5.97824 -9.63785 0.661299 0.369662 0.157991
74 -10.2522 -4.48007 -10.0708 1.43124 -0.230224 0.780617
78 -8.98593 -4.49956 -10.1336 -0.125427 -0.711411 -0.531006
633 -8.88275 -5.27337 -9.43136 -0.0130044 -0.629815 -0.622966
81 -7.40048 -5.05995 -9.45106 0.495955 0.0669933 -0.108398
3275 -8.06709 -5.22123 -10.1949 0.576403 -0.902547 1.46081
2989 -6.26171 -4.6457 -9.38941 0.448158 1.27136 -0.14419
3250 -6.68533 -5.18302 -10.1425 -0.424955 -1.20243 0.585453
2482 -2.84711 -5.01363 -9.51678 -0.367913 0.579868 0.300618
93 -1.56957 -5.22413 -9.89253 0.0744731 -0.529375 0.0351833
360 -0.024517 -5.82288 -8.9418 -0.111287 -0.479239 -0.0897423
95 -0.919654 -5.13466 -8.89369 0.762059 0.657366 -0.617137
3529 -0.222543 -5.05984 -9.77525 -0.190301 0.342302 1.33755
80 -9.63298 -4.35891 -9.20002 -1.03487 -0.198479 -0.00192255
103 -8.87374 -3.5801 -9.33259 -1.28225 0.0889928 0.0235542
101 -9.63111 -3.56696 -10.0481 -1.40651 0.199739 -1.49571
372 -8.13893 -4.37523 -9.48417 0.294222 -0.252052 -0.11949
105 -8.00943 -3.49752 -10.1617 -0.131129 -0.132155 0.373516
107 -7.26537 -3.59958 -9.31624 -0.0997473 1.50729 0.686075
395 -6.29892 -3.49102 -10.0449 -0.457554 1.73883 0.128896
3260 -4.87542 -3.16524 -10.0565 -0.459862 0.613621 0.974289
83 -5.37935 -4.24713 -10.048 0.243197 -0.0733203 -1.09018
684 -5.47561 -3.46058 -9.30058 0.257922 -0.143268 0.954907
254 -3.82254 -4.06333 -9.5126 1.55729 -0.312593 1.47611
375 -2.93236 -3.35798 -9.48647 -0.11428 -0.675116 0.0365312
378 -2.06997 -4.14887 -9.53826 1.08973 0.973723 -1.04099
110 -2.91578 -4.1527 -10.2282 -0.557006 0.778291 1.30066
96 -1.04564 -4.30056 -9.79932 0.0748372 -0.700928 1.19642
115 -1.13303 -3.37049 -9.47503 -0.227992 -0.173572 0.258141
119 -0.144685 -3.51145 -9.71667 0.725915 -0.133044 0.455267
382 -0.22738 -4.34313 -8.83386 0.106394 0.48365 0.327473
104 -9.69885 -2.89127 -9.2654 -0.0441388 0.136491 1.57709
414 -8.80583 -1.97995 -9.29533 -0.0545337 -0.171391 0.70315
125 -9.64597 -1.96123 -10.0066 0.174193 -0.528007 0.0880042
127 -8.89616 -2.77165 -10.1234 -0.527972 -1.43798 -0.505049
126 -8.02699 -1.82765 -10.109 -0.838741 -0.603388 0.89652
393 -8.1159 -2.74326 -9.28414 0.298225 -1.48157 -1.12414
441 -7.35562 -1.73492 -9.11792 0.459865 -1.54583 -0.726115
417 -6.67609 -2.62575 -9.28204 0.776278 -0.455106 0.0624656
129 -6.39162 -1.61684 -9.8152 -0.903252 -1.73233 -0.805543
397 -5.82437 -2.41747 -9.9539 0.213778 0.165424 0.280954
442 -5.64093 -1.86214 -9.01446 0.767669 0.132345 -0.61445
133 -4.86909 -2.60859 -9.00262 -0.702109 0.968273 0.630009
418 -4.71939 -1.71551 -9.58886 0.0618994 -0.992258 -0.438776
3303 -3.79525 -2.6227 -9.63805 0.867715 -1.12361 -0.647222
422 -3.11086 -1.76397 -9.45417 -0.688834 0.287626 0.348041
136 -4.03844 -1.95556 -8.79628 0.406976 0.787041 1.05056
116 -2.19605 -2.54787 -9.43196 -1.00663 0.831192 0.52628
3308 -2.05492 -1.67696 -10.1018 -0.0112029 0.117836 0.120336
120 -0.296243 -2.34177 -9.42594 -0.0553073 0.790225 0.399297
139 -1.34207 -1.50351 -9.40714 0.122732 0.3963 0.793123
114 -1.31555 -2.38361 -9.93673 -0.83499 -0.40199 -0.810777
128 -9.67282 -1.31196 -9.30072 0.358213 1.01186 0.843462
150 -9.04438 -0.431811 -9.1607 -0.950446 0.981764 0.765052
146 -9.58886 -0.160979 -9.96929 0.348503 0.682506 -1.06383
149 -8.86653 -1.15711 -9.96741 0.0211125 -0.722651 0.0294046
151 -8.1785 -1.01954 -9.09699 0.919721 -2.06704 -0.458873
3324 -8.15543 -0.301312 -9.91762 0.297078 0.483284 1.38368
3297 -7.36109 -0.935972 -9.86528 0.306959 0.175105 0.186968
465 -7.41865 -0.186061 -9.02873 -0.371088 -0.0495595 -0.721834
132 -6.52283 -0.788008 -9.02253 0.22709 0.209181 0.650462
130 -5.59093 -0.849843 -9.61722 0.361572 -0.616948 0.36809
184 -4.8414 -0.148312 -9.32563 0.738633 1.4801 -1.56417
160 -4.07414 -0.865993 -9.38797 -0.366079 -1.65557 0.611654
159 -3.22012 -0.0119135 -9.37145 0.722415 0.498555 1.55138
140 -2.43552 -0.947863 -9.41849 -0.065686 0.0104401 0.969205
163 -1.48523 -0.0341662 -9.20964 0.514048 -0.562304 -0.445143
161 -2.18284 -0.0518984 -10.0147 -1.0833 -0.742153 -0.786271
144 -0.581686 -0.7077 -9.26245 -0.927882 -0.814959 -0.287687
138 -1.37409 -0.678387 -10.1165 -1.08169 0.945765 0.626899
165 -0.469627 -0.0638205 -10.0894 0.179506 0.485993 -1.27256
152 -9.76531 0.536851 -9.20989 -0.553676 1.22022 -0.312222
3343 -8.83807 0.552031 -10.0853 -0.0724977 -0.23163 0.800884
173 -9.69461 1.37682 -9.91323 -0.76651 0.976234 0.576037
156 -8.3191 0.606034 -8.93901 -0.678655 0.0497251 0.209291
177 -7.54109 0.549564 -9.87344 0.252514 -0.1665 -0.931921
490 -7.35066 1.34018 -9.00891 -0.351243 -0.846171 0.0251651
3300 -6.52968 0.0243875 -9.85089 0.199245 0.483254 -0.572895
515 -6.49759 1.05025 -9.68216 -0.298981 0.425672 -0.0898299
3040 -5.7037 0.487976 -9.33592 -1.61592 0.175725 -0.0617707
1071 -4.9487 1.40818 -9.45121 -0.920638 -0.367779 1.02334
1072 -5.85783 1.4579 -8.92644 -1.00673 -0.855713 -1.37991
3371 -4.07751 0.636107 -9.15459 -0.298688 1.60467 -0.509924
3327 -2.98859 0.66667 -10.1513 -1.00529 -0.70779 0.431155
3351 -3.91544 0.0991521 -10.2061 -1.31336 -0.0266529 0.342657
164 -2.35855 0.58571 -9.15827 -0.851717 0.423112 -0.818062
187 -1.60862 1.41025 -9.19756 1.46213 0.120254 -0.0609451
189 -1.3634 0.741459 -10.0095 -0.00955224 0.112884 -0.323724
168 -0.490084 0.716443 -9.20184 0.755654 -0.427829 0.26097
175 -8.99942 1.46722 -9.06252 0.0751411 -0.0132296 -1.04991
223 -9.04648 2.36843 -9.7755 0.177669 0.940173 0.47
197 -10.0958 2.62129 -9.57452 -0.349823 0.510905 0.311583
3367 -8.33999 1.48118 -9.85721 -0.199471 0.296776 1.02893
2746 -8.24355 2.24841 -8.96602 0.787509 -0.103812 0.201254
233 -6.44282 2.17947 -9.68909 -0.169532 -0.165451 -0.719391
3373 -4.96417 2.35157 -8.82215 -1.0209 -0.941469 0.761591
231 -3.77765 2.05522 -9.14875 -1.07448 -0.748324 -0.598524
234 -3.55294 1.4956 -10.2328 -0.129857 0.0439076 0.431373
206 -2.9204 1.57897 -9.38259 0.243716 -0.502202 0.245073
3374 -2.11902 2.26818 -9.23624 -0.0532215 0.234763 -0.759472
3332 -1.96911 1.69367 -10.084 0.541159 1.08187 -0.571181
2468 -2.64286 2.51646 -10.2475 -0.471511 1.12405 -0.255921
192 -0.53815 1.56608 -10.0332 -0.231739 0.572063 1.01608
215 -0.833805 2.41782 -9.07109 -0.924633 -0.527114 0.145346
213 -1.30096 2.50896 -10.1337 0.964078 -1.17301 1.1206
225 -9.29729 3.52411 -9.71248 -0.333078 -0.400089 -1.50826
194 -10.2215 4.1576 -9.79215 0.1588 1.27068 -0.877901
228 -9.36697 4.35756 -9.00532 0.0270554 0.607825 -0.392224
3079 -8.00122 3.23101 -9.8572 1.09483 1.57048 -0.74233
770 -8.29547 4.22416 -9.42643 -1.68252 0.730512 -0.111318
491 -3.18839 3.23771 -9.49783 1.40248 -0.155151 -0.107197
3404 -2.25577 4.32365 -9.48994 -0.168489 -0.264887 0.168685
209 -1.56802 3.24379 -9.4131 0.224003 -0.428246 0.887174
3399 -1.39355 4.1904 -10.0495 0.340483 0.140934 -0.432158
3384 -0.576665 3.24823 -9.8651 -1.46797 0.511156 -0.445485
498 -0.828759 4.08609 -9.07915 -0.0315672 0.0345257 -1.12466
221 -9.61142 5.18726 -9.86182 0.777602 -0.711056 -0.473509
219 -10.1672 5.09609 -8.9666 0.572276 -1.35542 -1.03579
200 -8.25915 5.28078 -10.0691 -0.488136 0.185869 -0.155904
506 -8.67266 5.24385 -9.02432 1.78858 -1.39176 -0.807949
525 -1.4867 5.05325 -9.2218 0.610242 0.0694199 0.478846
3403 -0.640651 5.05766 -10.0454 -1.23083 0.120429 -1.06158
261 -0.606175 5.80747 -9.31771 0.323479 -0.176102 1.26855
245 -9.65822 6.75245 -10.0351 0.228432 -0.101118 0.227873
224 -9.71322 6.02437 -9.16678 0.789871 0.635216 -0.547897
247 -8.87458 6.7924 -9.24744 -0.818603 0.224995 -0.421017
222 -8.98112 5.98765 -10.1737 0.859046 -0.219872 0.44598
3395 -7.81814 6.42455 -9.08536 -0.902356 1.24711 -0.0824061
3443 -5.99408 7.19712 -9.60581 -0.0884381 -0.4266 -0.719824
3423 -2.99366 7.06981 -9.10341 0.514934 -1.37242 0.411704
2462 -2.38418 5.89737 -9.41135 0.164531 -1.3826 -0.0500012
3377 -2.31678 6.86572 -10.1761 0.765043 0.46805 1.22631
3405 -0.444416 6.67341 -10.1596 0.535806 -0.11537 -1.52988
2507 -1.38085 6.83754 -9.57435 0.618753 0.311449 -0.445199
269 -9.60565 8.50563 -10.1755 0.664959 -1.43951 -0.367287
248 -9.75695 7.74578 -9.34658 -1.04868 -0.314175 0.35074
246 -8.8399 7.44331 -10.1835 0.535894 -1.17585 0.375716
271 -9.06577 8.57166 -9.2231 -0.919934 0.0166675 0.0403409
252 -7.99445 7.5362 -9.53342 0.283027 0.251017 -0.313148
273 -8.22057 8.46333 -10.1192 -0.183902 -0.812974 -0.396368
561 -6.97488 8.02552 -9.66802 -0.408336 -1.03293 0.576522
2492 -2.27455 8.03406 -9.48069 -0.811474 1.55757 -0.223724
3432 -1.46865 7.7663 -10.2004 0.781381 -0.262183 0.597404
570 -1.17641 8.43201 -9.33004 -0.200572 0.88834 -0.243581
3455 -0.444786 7.67852 -9.23874 0.90029 0.578752 -0.729032
282 -0.399625 8.35758 -10.0442 -0.157173 -0.164944 0.594502
272 -9.55367 9.51073 -9.33939 0.185999 -0.0267259 0.80944
276 -8.34103 9.33714 -9.37834 -0.375499 -0.579753 1.14219
3445 -2.88306 9.93459 -9.67784 1.00074 -0.424621 -0.288167
258 -2.00649 9.19246 -9.60857 1.08735 -0.527511 -0.532584
59 -1.85188 10.1108 -10.225 -0.333921 -0.0593911 -0.918817
24 -0.105336 10.2028 -9.41542 0.739081 -0.654577 1.07735
305 -1.15089 10.0815 -9.3284 0.539038 0.0975033 -0.378987
17 -1.08674 9.1867 -10.165 -0.470615 -0.182252 0.14748
23 -0.41629 9.25884 -9.35932 -1.42671 2.06267 -1.15566
296 -9.62952 -9.33644 -7.95419 -0.0752762 -0.619444 -0.137108
295 -8.86721 -10.2542 -7.76221 -1.22997 0.336777 -0.0838937
294 -8.85503 -9.55201 -8.6025 1.12551 -0.861557 0.939478
300 -8.01091 -9.41445 -7.69993 -0.968311 0.190554 0.640149
823 -6.76942 -9.87434 -7.44404 -0.239145 -0.418518 0.275128
10 -2.8614 -9.31537 -8.33452 1.07887 0.401055 0.204424
617 -2.02902 -9.59334 -7.59462 -0.688383 -1.05661 0.780893
333 -0.247965 -9.43713 -8.77876 -0.134146 -0.491601 1.11145
306 -1.40563 -9.76925 -8.51704 0.49826 -0.930886 -0.232309
312 -0.52694 -9.62592 -7.76603 1.53218 -0.895202 0.507766
317 -9.5759 -8.5248 -8.70282 0.0821662 0.440319 0.378703
320 -9.75999 -7.70804 -7.89281 -0.274438 -0.932498 -2.60186
319 -8.80773 -8.5426 -7.9445 -0.385803 -0.213043 -0.554774
318 -8.78333 -7.69746 -8.72782 0.589945 0.470836 0.275458
3204 -8.08371 -8.78298 -8.68752 1.01383 0.226237 -0.298772
322 -8.05147 -7.49348 -7.66162 0.107522 -0.316852 1.72096
299 -7.36658 -8.36168 -7.77481 -0.12962 -0.803607 -0.555884
569 -3.19192 -8.30773 -7.64301 -0.0196031 0.722466 -0.0866799
563 -2.73741 -7.46141 -8.65637 -0.555529 1.66788 -0.457414
327 -2.13772 -7.87526 -7.83092 -0.242405 -0.740442 0.121412
641 -1.41742 -8.72022 -7.85992 -0.637479 0.45783 -1.33326
331 -1.03802 -7.70174 -8.18687 0.80634 -1.17609 0.327158
335 -0.185441 -8.59518 -8.01988 1.36092 -0.699065 -0.950242
341 -9.49775 -6.94603 -8.68408 -1.01541 0.141871 1.07249
344 -9.59217 -6.04122 -7.81116 0.503283 -0.0127107 -0.855421
343 -8.98081 -7.03088 -7.67582 -0.0871721 -0.730796 0.242359
342 -8.58301 -6.16157 -8.73114 -0.236665 0.637717 -0.344181
324 -7.91372 -6.09478 -7.69321 -0.0754107 -0.823038 -0.379864
325 -4.69186 -5.976 -7.51252 -0.0632466 0.247215 0.943201
329 -3.70507 -6.93184 -8.36786 -0.234716 0.448268 -0.678679
3452 -2.9315 -6.02219 -8.57154 -1.5497 -0.901856 -0.856143
3188 -2.79143 -6.7263 -7.7795 0.247348 -0.26436 1.50619
645 -1.85533 -7.00274 -8.32864 -0.827802 0.428022 0.692871
92 -1.87261 -6.04574 -7.92685 -0.426455 0.326043 -0.00646864
359 -0.206031 -6.84877 -8.1044 0.16693 -0.549352 -0.0253151
356 -0.793474 -6.02763 -8.28015 -0.391372 -1.14615 -0.999251
643 -1.03005 -6.86473 -7.36164 0.127279 -0.237483 0.0732153
669 -0.207838 -6.14204 -7.34114 -0.834402 0.181108 -0.165959
365 -9.63048 -5.43201 -8.65807 0.0862879 0.355592 0.418512
368 -9.66879 -4.6265 -7.79934 1.25725 -0.98931 0.0474081
348 -8.75897 -5.23558 -7.6698 -0.384194 -0.404473 0.163906
79 -8.78803 -4.53408 -8.57259 -0.289777 0.421914 -1.24592
86 -7.90407 -5.27125 -8.55173 0.906024 -0.888337 0.470845
367 -8.06889 -4.43852 -7.66751 1.75496 0.241617 -0.272679
40 -6.99897 -5.76712 -8.51923 0.956068 -0.482026 -1.28842
88 -7.15892 -5.15269 -7.71585 -0.281574 1.59875 -0.66675
350 -5.94466 -5.07489 -8.29136 0.100848 0.588143 0.172108
687 -4.94753 -4.7075 -7.93156 2.05069 -0.090636 0.623359
424 -3.02257 -5.07123 -8.11382 0.910647 -0.338261 -0.444855
376 -2.13596 -4.99192 -8.69011 -0.244628 0.23312 0.87539
354 -1.25991 -4.98101 -7.8584 0.861132 0.0804005 -0.0954446
383 -0.186276 -5.16586 -8.08042 -0.24512 0.501711 0.531976
389 -9.76207 -3.63282 -8.51885 -0.415789 0.187187 -0.138063
657 -8.96138 -3.79494 -7.78352 -0.530452 -1.00849 1.83328
55 -8.20904 -3.5319 -8.4586 -1.05166 -0.0888199 -0.628134
682 -7.03274 -4.3946 -8.68089 0.310179 -0.280837 -0.288818
366 -7.27374 -3.44538 -7.51193 0.0188582 0.132564 0.406905
664 -6.37782 -3.53813 -8.55351 -0.793313 -0.492129 0.0678648
613 -6.54781 -4.23774 -7.58268 -0.612147 -0.258753 0.518739
445 -4.84852 -3.59029 -8.49203 -0.433302 0.446221 0.153794
419 -5.50013 -3.48256 -7.61667 -0.861312 0.554462 -1.49792
399 -4.4228 -4.09144 -7.34567 -0.169498 -0.92782 -0.425506
135 -3.68197 -3.36956 -8.71449 -1.11838 0.00597611 0.247824
3428 -3.90766 -4.38137 -8.43208 0.757583 0.736628 0.0683926
1289 -2.98354 -3.42129 -8.00492 -1.33411 0.0527235 -0.647044
112 -2.82053 -4.1764 -8.79262 -0.326596 -0.482888 0.506479
668 -2.22153 -4.25822 -7.94825 -0.0991423 0.969652 0.633977
401 -2.0977 -3.34303 -8.62572 -0.199277 0.348308 0.159359
403 -1.25655 -3.22103 -7.89473 0.682117 0.386833 0.38059
379 -1.27505 -4.13127 -8.62788 0.612772 0.791611 1.03256
381 -0.548664 -4.13212 -7.79094 -1.27232 -0.0860592 -0.279903
405 -0.498484 -3.27062 -8.62377 -0.205363 0.63279 0.523455
392 -9.88731 -2.81212 -7.80719 0.337104 -0.146503 -0.46817
413 -9.77487 -1.98255 -8.5069 -1.14414 0.498283 -0.833315
725 -9.2446 -1.96193 -7.598 -0.93389 0.373592 1.45049
391 -8.92812 -2.81692 -8.29857 -0.0894675 -0.0626644 0.975535
678 -8.24715 -2.7849 -7.52546 0.516128 0.585946 -0.233795
415 -8.12497 -1.98795 -8.30023 0.246109 0.497301 0.0399716
658 -7.42795 -2.78422 -8.36688 -1.03744 0.0823834 -0.680841
420 -7.30391 -2.16764 -7.36021 -1.00329 0.195865 -0.0956827
369 -6.38937 -2.91625 -7.4948 -0.303145 0.7717 -0.356668
443 -6.60032 -1.85059 -8.10831 -0.690448 -1.98209 0.559045
396 -5.66056 -2.61757 -8.33429 0.878018 0.304554 -1.18432
733 -4.66823 -1.90988 -7.92599 -0.672353 -0.814491 -0.246135
730 -5.56825 -2.05639 -7.44192 0.780173 0.539331 -0.00495756
712 -3.78999 -2.46359 -7.84055 -0.792834 0.932907 -0.818648
398 -3.0323 -2.3982 -8.62824 -0.0979558 -0.864477 0.128939
713 -3.12931 -1.66669 -7.61604 1.90862 -1.12803 -0.354667
404 -2.25177 -2.61211 -7.92366 0.662861 -0.609637 -0.503968
425 -2.10148 -1.77669 -8.64609 -1.5223 0.32811 -0.431583
427 -1.33922 -1.75458 -7.75198 0.74362 0.395281 -0.139415
402 -1.25125 -2.41053 -8.7688 -0.863237 0.517122 0.704482
408 -0.607536 -2.44139 -7.67763 -0.46263 0.672961 1.06637
429 -0.459066 -1.50998 -8.61671 -0.321382 1.7515 0.676674
416 -9.94859 -1.24019 -7.52102 -0.823199 0.212819 0.775586
437 -9.93599 -0.241753 -8.48193 0.370104 -0.551511 -0.662146
440 -9.18749 -0.393606 -7.55458 0.786987 0.878766 -1.10346
439 -9.0125 -1.31839 -8.41322 1.17233 1.46007 1.10802
726 -8.42982 -1.1039 -7.59072 0.0886046 1.03058 0.58678
468 -8.37988 -0.375925 -8.34045 -1.32227 0.109075 2.28236
203 -7.42841 -0.330088 -7.43711 0.641139 0.584715 -0.0695856
753 -7.44248 -1.21247 -8.05951 -0.836811 0.254329 0.815488
153 -6.65101 -0.390637 -8.12169 -0.268672 0.690132 -0.0912641
155 -4.80596 -1.05162 -8.67127 -0.108776 0.655016 -0.821741
3352 -5.64352 -0.317274 -8.60698 0.481522 1.32006 -0.196276
448 -5.74807 -1.16623 -7.9624 1.00816 -0.389416 -0.30529
467 -4.85891 -0.406809 -7.87521 -0.412356 -0.188285 0.0304601
446 -3.97712 -1.11801 -7.96535 -1.13477 0.696271 0.534157
158 -3.98214 -0.22274 -8.605 0.544374 -0.712253 0.652923
423 -3.06099 -1.22491 -8.54969 -0.148496 -0.0264742 -0.932191
183 -3.33293 -0.366352 -7.7917 -0.537319 0.225482 0.349534
428 -2.25325 -1.03074 -7.66269 -0.775198 0.850647 1.40513
449 -2.2615 -0.260421 -8.39626 -0.170366 -0.696821 -1.33638
451 -1.4965 -0.181922 -7.56986 1.21639 1.70818 1.35197
426 -1.45558 -0.861451 -8.42978 -0.033135 0.184017 -0.643959
432 -0.599723 -0.888863 -7.63125 -0.570991 -0.33424 -0.649899
453 -0.715341 -0.0516313 -8.36166 0.385138 -0.188644 -0.635854
435 -10.1634 0.133293 -7.35467 0.0689277 -1.23385 0.488666
438 -9.14083 0.382321 -8.34197 -1.52511 -0.452019 -0.561079
434 -10.2351 0.742307 -8.08529 -0.0117643 0.814931 0.26905
466 -8.44739 0.480091 -7.45135 1.22423 -0.406141 -0.19913
463 -7.56389 0.483486 -8.16841 0.177788 -0.727933 -0.177006
178 -6.65391 0.464108 -8.72383 0.632246 0.706215 0.536171
3060 -6.68125 1.28806 -8.20096 1.32434 0.661267 0.47695
204 -5.81779 0.447182 -7.9047 1.96403 -0.580867 0.937082
470 -4.95993 0.76091 -8.4874 0.845504 1.86865 0.222217
469 -4.10561 0.591809 -7.9713 -0.182063 0.648616 -0.246036
207 -3.21494 0.54281 -8.49283 1.0113 0.25543 0.752336
473 -2.47052 0.509723 -7.65661 -0.17076 -1.15177 -1.04103
450 -1.61176 0.593652 -8.32255 -0.37889 -0.0611638 -1.14531
477 -0.774682 0.634452 -7.57937 0.23337 -1.51742 -0.182153
171 -10.1274 1.62418 -8.73843 0.673563 0.819154 0.297358
461 -9.17362 1.60976 -7.93861 1.62083 0.223819 -0.317245
176 -9.35985 2.57411 -8.73917 -0.250971 -0.611675 -0.777837
772 -9.52879 2.44553 -7.35738 0.0105499 1.22078 -0.834692
458 -10.1879 2.66812 -8.05812 -0.738686 0.172243 -0.723958
180 -8.09304 1.47311 -8.20353 -1.09273 1.4075 -1.68087
199 -8.44278 2.33196 -7.67981 0.490959 0.567409 0.387709
773 -7.43347 2.71492 -8.00943 -0.762387 -0.453987 0.0469056
1355 -7.28003 1.47965 -7.3676 0.840041 1.19024 0.482557
232 -6.39984 2.49015 -7.86297 -0.24266 5.58601e-05 1.52756
1333 -5.37571 1.5907 -8.02867 -1.66727 -0.608978 -0.242127
230 -4.51815 2.40501 -7.83032 -0.789621 0.192679 0.101744
782 -4.25805 1.50286 -8.41092 0.0373705 0.648726 0.587223
3375 -2.99905 2.39537 -8.46518 -0.582142 -0.496504 0.376248
471 -3.27012 1.48831 -7.82283 -0.77221 1.32219 -0.990282
185 -2.29498 1.5215 -8.36833 -0.310965 0.270614 0.669444
188 -2.28731 2.22759 -7.52711 0.57371 0.110602 0.452537
211 -1.65597 2.43333 -8.28762 -0.528551 -0.174792 -0.21287
474 -1.53442 1.53978 -7.48718 1.02064 1.461 1.25841
501 -0.748937 1.61515 -8.38155 0.317047 -0.27102 0.165893
480 -0.795942 2.34065 -7.60155 0.223362 -0.783753 -0.607574
482 -10.139 4.23044 -7.98036 0.875484 1.0367 -1.08398
195 -9.96679 3.57717 -8.75323 -0.198732 -0.259649 -0.557996
540 -9.31098 3.29229 -7.93159 0.380178 0.243674 -1.3938
1085 -9.09129 4.34763 -7.42971 -1.01121 1.23547 -0.746149
774 -8.52178 3.27856 -8.62418 -0.348524 -1.4029 -0.240283
2460 -8.30285 3.36078 -7.47474 -0.856684 -1.20175 0.368381
518 -3.83092 3.32673 -8.39048 -0.684036 -0.384138 0.21486
545 -3.65968 4.13844 -7.52451 1.33592 1.03033 -0.480854
1069 -3.0632 3.04982 -7.61749 -1.20979 1.00109 0.730819
784 -2.92675 4.16989 -8.60143 -0.378581 0.0526565 -0.0854627
236 -2.37262 3.29479 -8.75974 -0.418222 -0.647594 1.82851
783 -2.33917 4.02164 -7.69361 0.404814 0.399242 0.65933
499 -1.53364 3.1787 -7.51911 0.0296758 0.728843 0.75402
788 -1.66125 4.20374 -8.52458 0.303289 0.097763 -0.184124
497 -0.855857 3.19268 -8.46336 -0.118642 -0.130487 1.14025
502 -0.853753 3.96885 -7.64457 -0.652094 0.121108 -0.00356851
238 -0.00100184 4.03651 -8.26279 -0.215147 0.757553 -0.462025
510 -9.44267 5.20046 -8.18621 -0.678653 0.0811663 -0.901722
513 -8.47648 4.53463 -8.24955 -0.799007 0.650291 -0.0571876
1621 -3.11342 5.04088 -7.74101 1.15422 -0.0662716 -0.383526
1119 -3.38818 5.19205 -8.75605 0.970404 -1.60766 0.399642
3087 -2.31236 5.08189 -8.43582 -0.143828 0.209155 -0.412644
805 -1.46498 4.84676 -7.71283 0.0717086 0.349953 -0.195476
239 -0.670124 5.12372 -8.51258 1.27552 0.601069 -0.576191
526 -0.0199917 4.84077 -7.54209 1.12361 0.645516 -0.255853
521 -1.42153 5.85307 -8.53547 0.659363 -0.0998845 1.55443
240 -0.74499 5.86082 -7.71496 -0.531472 0.895511 -0.571359
533 -9.93511 7.10332 -8.41132 0.149571 0.174797 0.185067
3396 -9.14602 6.27956 -8.31281 0.741554 1.26019 0.0884203
3109 -9.20035 7.02944 -7.57153 0.277717 0.362733 -1.10685
531 -10.2081 6.71509 -7.42991 -0.605248 0.0891575 0.290362
3372 -8.29657 6.9253 -8.31702 -0.425058 0.71062 -0.171016
253 -8.4348 6.06596 -7.42154 -0.257878 0.894969 -0.322878
548 -2.39184 5.90714 -7.81312 0.298371 0.465814 -0.413044
237 -2.22606 6.64845 -8.5598 0.58005 -0.528788 1.01205
549 -1.55246 6.71101 -7.76329 -0.335186 -1.88172 0.0112309
285 -0.695634 6.63256 -8.49613 0.573572 -0.24318 0.0568322
536 -9.99343 7.96602 -7.7275 1.48214 -0.277885 -0.60496
534 -9.0359 7.76202 -8.37767 0.0280711 0.0860283 0.125818
557 -9.81117 8.67152 -8.52515 1.09322 1.53096 -0.0787934
559 -9.02249 8.64677 -7.68459 -0.0879579 -0.963475 0.364821
462 -8.17853 7.77772 -7.75821 1.04593 -1.01154 -1.04279
538 -8.10202 8.45956 -8.63963 -0.320393 -0.196212 -0.0901052
283 -2.37172 7.58547 -7.91304 -0.0489223 -0.845022 0.610226
566 -2.15342 8.50749 -8.47314 -0.187603 -0.612882 0.168464
546 -1.48017 7.47039 -8.64132 0.319417 0.51645 -0.0989514
573 -1.36617 8.46338 -7.83671 -0.176351 0.483502 0.233532
264 -0.446994 8.48987 -8.48438 0.88804 -0.360589 0.476002
552 -0.725394 7.52335 -7.72657 0.374097 -0.742549 0.0278266
293 -9.62453 10.2382 -8.39636 1.22244 -0.0846681 -1.57824
558 -8.99033 9.32242 -8.45985 -0.461773 0.827701 -0.297815
560 -9.76765 9.43889 -7.71237 -0.161998 -0.103355 0.361163
297 -7.53481 10.1621 -8.35526 0.7389 -0.32143 -0.196548
564 -8.15978 9.3232 -7.6477 -1.26973 1.3836 0.333988
854 -3.24682 10.0651 -7.79398 0.543554 -0.291641 0.512505
308 -2.08876 9.92777 -8.66292 -0.630377 -0.0764337 0.902441
572 -2.00741 9.24933 -7.70761 -1.76067 0.482598 -0.247309
307 -1.35805 10.1254 -7.6954 -0.587902 -0.510444 0.103923
309 -1.22247 9.26389 -8.50528 0.643273 0.404922 0.370377
310 -0.474399 10.0223 -8.47943 0.0720466 0.141943 0.665199
576 -0.593831 9.21462 -7.62814 0.426788 -0.347742 0.0519607
584 -9.88995 -9.34673 -6.23386 -0.297081 0.535492 -0.500684
582 -8.86277 -9.29857 -6.97115 -0.0232728 0.914234 0.639601
581 -9.7071 -10.0945 -6.98959 -1.03196 0.617067 0.771699
583 -8.99122 -10.0493 -6.13358 -0.158149 0.805472 -0.559129
588 -8.22745 -9.24124 -6.00305 0.263454 -1.07066 -0.405848
585 -8.21292 -10.1853 -6.81691 -1.69203 0.111635 -0.230742
562 -7.472 -9.37256 -6.81378 -0.918979 0.31403 0.262164
852 -7.45265 -9.97441 -5.90995 1.23506 -0.126678 -0.0807376
850 -6.73372 -9.18392 -5.88138 -0.107686 0.373554 -0.442913
586 -5.95564 -9.30856 -6.68207 0.210675 -0.567406 0.186622
825 -6.12748 -10.052 -5.86573 -0.337533 -0.894157 0.967957
541 -5.00685 -10.0782 -6.70077 0.597893 -0.058471 -0.437119
856 -4.96368 -9.5099 -5.90553 0.868396 -0.640855 -0.0556927
15 -3.85011 -9.4229 -6.09572 0.969162 0.346409 0.328572
332 -2.96483 -9.59268 -7.06909 1.14193 0.0372254 -0.61004
830 -3.10349 -10.2077 -6.14318 -0.669872 -0.923699 0.246161
596 -2.20091 -9.43487 -6.20386 -0.956103 0.305326 0.0074061
595 -1.46795 -10.2532 -6.09869 0.834859 0.00483541 0.962223
594 -1.35811 -9.47558 -6.86904 0.758067 -0.624663 0.112179
600 -0.603636 -9.47202 -6.12935 -1.08607 -0.0812554 -0.0206629
621 -0.613589 -8.81498 -7.00651 0.274313 2.20876 0.51759
605 -9.74908 -8.4296 -7.01107 1.12994 -0.524838 0.24663
608 -9.82748 -7.60131 -6.13898 0.228459 1.42794 -0.198088
607 -9.0768 -8.46424 -6.11772 -0.254281 0.182402 -0.554588
606 -8.96625 -7.71108 -6.86855 0.438702 0.305869 0.10984
609 -8.13156 -8.53196 -6.85054 -0.869785 -0.120004 0.248578
612 -8.16981 -7.61234 -5.94774 0.332059 -0.0821494 -1.04788
611 -7.55996 -8.44447 -6.05371 0.367506 0.306141 -0.273517
347 -7.27411 -7.626 -6.76011 -0.154789 -0.141999 -0.611647
323 -6.70186 -8.51705 -6.78525 -0.160767 -0.686049 0.327495
587 -6.63828 -7.68161 -5.95387 1.12488 -0.32331 -1.33863
637 -4.84422 -8.48514 -6.90709 -0.418414 -0.621979 -1.38591
279 -4.90114 -7.75422 -6.02593 -0.585578 -0.00480921 1.12347
61 -3.36684 -7.83448 -6.58406 -0.0549253 -0.145847 0.321672
328 -3.02793 -8.77373 -6.26823 -0.451746 0.467538 -0.970249
618 -2.30864 -8.6095 -7.12509 0.649491 0.832434 0.285514
929 -2.19536 -7.79147 -6.24623 -0.344356 -0.763735 0.615669
619 -1.40963 -8.55523 -6.41103 -1.22536 0.990569 0.378825
355 -1.37704 -7.8695 -7.10377 0.0265234 0.154071 -0.0751099
624 -0.56353 -7.87446 -6.2542 -0.735986 -1.14106 -0.733512
622 -0.258966 -7.76886 -7.29079 0.763815 -0.217019 0.471654
631 -9.03834 -6.91145 -6.16499 0.762022 0.603748 -0.23968
629 -9.77015 -6.94051 -6.96473 0.0397216 0.110602 0.513572
632 -9.86742 -6.1496 -6.21919 -0.572208 0.325154 0.604902
630 -8.90297 -6.07743 -6.93721 -0.295368 -0.858829 -0.706912
634 -8.15841 -6.78959 -6.73327 -0.0172576 1.21812 0.798148
636 -8.17746 -5.96973 -6.02449 -0.794095 -0.181881 -1.10776
610 -7.36627 -6.81531 -5.97509 0.399881 -0.56181 0.992176
971 -7.28021 -5.95201 -6.69662 1.4141 -0.565577 -1.50962
616 -6.56295 -6.76681 -6.6692 -0.359549 0.752816 0.00351185
614 -4.79211 -5.9631 -5.96824 -0.427015 -0.525881 0.247963
301 -5.70261 -6.57863 -5.87323 0.178852 0.606574 -0.306724
349 -2.98195 -6.78483 -6.74573 1.25673 -0.825273 1.00224
665 -4.21249 -7.31925 -6.77585 0.0855521 0.455702 0.616211
685 -3.82871 -6.07966 -6.44257 1.33382 -0.216623 0.0358434
351 -3.8675 -7.15911 -5.86666 -0.434942 0.440547 -0.783554
648 -2.0691 -7.00835 -7.10487 -0.0877207 0.114291 -0.196862
953 -2.34727 -5.98119 -6.22579 0.121631 -0.504492 0.474268
955 -1.32144 -7.00467 -6.35394 0.79594 -0.496155 -0.755765
4369 -0.236786 -6.90434 -6.52251 -0.91968 -0.225025 -0.294605
647 -0.754558 -6.03526 -6.29088 1.02244 -1.26699 1.89443
644 -1.45254 -5.89125 -7.02617 0.227235 0.866872 -1.24031
653 -9.84523 -5.20115 -6.90386 0.0977377 -0.185811 0.182537
655 -9.12536 -5.27725 -6.06814 -0.384358 0.706901 0.0204363
656 -9.87864 -4.42537 -6.24809 -1.11831 0.711204 -0.028329
969 -8.22831 -5.14239 -6.74894 0.672547 0.681073 -1.01336
660 -7.38833 -5.10631 -5.97817 -0.363129 0.613537 0.553878
284 -6.04057 -5.12882 -7.03873 -0.913658 -1.05439 0.167965
688 -7.30781 -4.4085 -6.78797 0.306381 0.29749 0.486294
707 -6.45929 -4.6285 -6.07965 -0.240883 -0.619018 0.465043
659 -6.30584 -5.73162 -6.07323 0.758634 -0.37094 0.2598
352 -4.60628 -5.07548 -6.63837 -0.28872 -0.442564 0.712536
400 -3.84732 -5.23263 -7.31768 -0.069202 0.981091 0.892338
974 -3.04563 -5.85408 -7.19275 0.3783 -0.453305 0.808039
977 -3.0958 -5.21228 -6.33831 -0.679078 -1.00526 0.426379
691 -2.24377 -5.13655 -7.18958 -0.591657 0.443775 0.266295
667 -1.51061 -5.19336 -6.24883 1.59527 2.21091 0.896324
672 -0.720577 -5.04316 -6.94175 -0.113952 0.0377143 -0.449939
654 -9.08676 -4.36697 -6.86377 0.983042 0.233014 -0.596253
677 -9.97102 -3.78592 -7.08839 -0.667142 -0.229811 -1.02088
966 -9.05282 -3.62495 -5.99851 0.175814 1.21367 1.0678
970 -9.21491 -2.96487 -6.79406 -0.00229834 -0.578619 -1.35096
681 -8.21389 -4.31139 -6.04833 0.917237 -0.451064 0.0312219
679 -8.15036 -3.67894 -6.83761 -0.146945 0.315764 -0.0597581
3277 -6.49756 -3.71585 -6.61569 -0.799296 0.0308082 -1.1262
683 -7.28263 -2.97877 -6.59267 -1.18916 0.68377 0.366193
994 -6.47884 -2.96432 -5.86606 -0.490969 0.857395 -1.62356
1282 -5.48412 -4.28602 -6.61989 0.673141 0.740794 -0.918643
421 -4.85193 -3.48471 -6.58861 -0.697325 -0.339409 -0.103588
373 -3.82018 -4.32608 -6.52087 -0.90724 -0.144245 -0.0675689
686 -3.81382 -3.30082 -7.23716 -0.20409 1.04628 0.726672
980 -3.02185 -3.49191 -6.2943 0.957874 -0.279259 0.300723
374 -3.01514 -4.21984 -7.32573 0.257083 -0.55518 0.87357
978 -2.194 -4.34497 -6.37091 0.728402 -1.80411 0.715344
380 -2.14388 -3.46826 -7.2074 1.12479 0.417778 -0.901659
692 -1.52493 -3.53147 -6.19327 -0.768033 0.695317 0.80579
666 -1.37073 -4.12676 -7.0638 -0.143898 -0.318115 0.69886
690 -0.702661 -4.17864 -6.17921 -0.340059 0.732255 0.0432215
384 -0.614534 -3.32562 -7.04864 -0.0237665 -0.246468 1.09746
680 -10.0324 -2.928 -6.10799 0.250987 -0.626751 1.61082
701 -10.0233 -2.14245 -6.81165 -0.725956 0.441335 0.165469
702 -9.23668 -1.99285 -5.92427 -0.496679 0.391318 -0.106499
708 -8.29846 -1.97174 -6.94642 0.0904851 0.619075 -0.0461842
706 -7.41886 -2.0413 -6.15884 1.02794 -0.114714 0.546039
993 -8.2955 -2.88694 -5.98217 -0.114718 1.45184 0.4756
705 -6.44517 -2.05385 -6.62004 -1.72748 -0.255832 0.871066
757 -4.755 -2.73837 -7.30232 1.73877 -0.506145 0.0242896
731 -5.79122 -2.85097 -6.51131 0.140069 -0.0939175 -0.0639744
1021 -4.8583 -1.92335 -6.33056 -0.475492 0.920943 0.0664086
736 -4.05899 -1.84173 -6.99913 -0.095634 0.816504 -1.14164
711 -4.08977 -2.70602 -6.35654 -0.136248 -0.0971555 -0.105006