ITEM: TIMESTEP
232000
ITEM: NUMBER OF ATOMS
6912
ITEM: BOX BOUNDS pp pp pp
-1.0259855680060181e+01 1.0259855680060181e+01
-1.0259855680060181e+01 1.0259855680060181e+01
-1.0259855680060181e+01 1.0259855680060181e+01
ITEM: ATOMS id x y z vx vy vz
2 -9.81788 -10.0185 -9.57833 -1.05964 0.938475 -1.09017
277 -9.18088 -8.84841 -9.43821 1.33671 -0.853184 -0.264079
3137 -8.46758 -9.9311 -9.82098 0.188701 0.957262 -1.28945
31 -8.10603 -8.99277 -9.29961 -1.2344 -0.0341541 0.020131
258 -7.22796 -9.61073 -9.73798 0.977464 -0.453101 1.05508
2920 -6.10102 -8.91183 -9.58805 0.587286 0.701468 -0.500207
83 -6.61432 -9.62998 -8.78667 0.353894 -0.183574 -0.58934
3253 -7.01759 -8.67205 -9.04236 -0.54333 -0.215067 -2.27408
3212 -5.61985 -8.34122 -8.77697 0.799392 0.574319 0.530656
3234 -5.61092 -9.8137 -9.06896 0.986993 0.767366 -0.36641
3424 -4.78671 -9.07205 -9.60726 1.39988 0.924559 0.992784
70 -3.68116 -9.31094 -9.12265 0.0780328 -0.961809 -0.0215238
3111 -3.31782 10.2184 -9.84043 -0.78727 -0.133875 0.129241
550 -0.258477 7.51821 -8.79567 0.0261002 0.422989 -0.688023
59 -2.58172 -9.46119 -9.66846 -0.832899 0.492825 -0.521779
3189 -0.563567 -9.38366 -9.16213 -1.24921 -0.499879 2.10897
3211 -1.23527 -9.52088 -9.94051 -0.1219 -1.45496 0.768761
32 -8.64599 -8.11745 -8.7861 0.618478 -1.73288 -0.601896
314 -10.2129 -7.9353 -9.04476 -0.298963 1.0149 1.51923
3198 -9.25366 -7.77511 -9.73975 0.655974 -0.062072 0.983059
3214 -0.0138919 -8.40306 -9.72787 0.515923 -0.322837 0.955192
11 -7.9018 -8.12953 -9.84481 -0.0245728 0.887462 0.186719
3402 -6.88166 -8.60317 -10.1445 1.12645 0.269949 -1.1371
3011 -5.74297 -7.27667 -9.21699 1.12505 0.536295 0.000484989
357 -4.64196 -8.04798 -9.46132 0.304465 -1.561 1.09972
3484 -5.73645 -7.96658 -10.0003 -0.412963 0.225088 -1.07054
10 -3.58584 -8.4047 -9.61923 -0.616834 -1.00181 0.145103
63 -2.84064 -8.71705 -8.89369 0.0552464 -1.61089 -0.277255
330 -3.26287 -7.43757 -9.1861 0.398384 -0.191467 -0.725711
5329 -0.242043 0.964896 -0.684814 0.011883 1.17099 -0.081712
2898 -1.8652 -8.67301 -10.1657 -0.79382 -0.577786 1.40684
3185 -2.17172 -7.8693 -9.17915 -0.571532 -0.144307 0.894314
3233 -1.84709 -9.06646 -9.02459 -1.98124 -0.784528 -0.107777
638 -1.14969 -8.04614 -9.62116 -1.19851 0.203304 -0.0828327
2153 -4.38737 -1.48835 -0.0979869 0.476338 -0.16217 0.944208
3391 -8.35458 7.68948 -10.2339 -0.48875 0.178515 0.131196
51 -9.38389 -6.14187 -9.45671 0.0915433 1.15585 0.674774
3455 -2.30881 4.9489 -10.1293 0.541217 -0.158007 0.945063
1442 -8.1234 -10.1451 -0.669204 1.0904 0.639396 -0.51233
3219 -8.43346 -7.10584 -9.37522 -0.649856 0.665343 0.40062
85 -7.58569 -6.39891 -9.36631 -0.443347 -0.982928 -0.550525
1370 -10.219 5.72756 -2.80825 1.46593 0.424706 0.398896
3203 -6.74753 -7.17896 -9.45119 1.59256 0.622684 -0.111586
332 -6.0664 -6.31785 -9.39774 -1.35264 1.77008 -0.880798
1441 -10.1051 9.14197 -2.36108 0.650455 -0.396111 -0.868956
274 -5.1143 -6.9809 -9.88287 0.0214333 0.239407 -0.336863
563 -5.08878 -5.94568 -9.46082 -0.956103 0.0429569 0.0908545
3105 -9.68914 8.77261 -10.2238 0.205964 -1.25583 -1.33835
306 -4.34644 -6.89202 -8.88136 0.394157 0.977016 1.03712
88 -3.29513 -6.54366 -9.89703 1.51857 1.13465 -0.14921
360 -2.58665 -5.60476 -9.19984 -0.408312 -0.479046 1.00457
72 -1.59337 -6.98312 -9.91664 2.20506 -0.911496 -0.628927
87 -1.51664 -6.14021 -8.88225 0.349644 0.616161 -0.475511
669 -0.708296 -6.25605 -9.77563 -1.39779 -0.242679 -0.0527127
77 -9.73075 -4.50496 -9.48681 0.86705 -0.450735 -0.79157
1396 -10.0987 8.11241 -2.61414 0.443243 -0.938001 0.241298
3248 -8.46184 -5.54775 -9.32011 1.26303 1.37952 0.382864
3247 -8.45182 -4.47745 -9.46501 1.35434 -0.413836 0.864595
54 -7.29808 -4.26048 -9.1205 -0.914574 1.11697 0.617658
2986 -6.69034 -5.75236 -8.07182 -1.44787 0.17463 0.869351
78 -6.58408 -4.21762 -10.0186 0.564041 -0.158851 -0.84827
648 -6.72523 -5.52296 -9.14529 2.31657 0.792833 0.0384682
3422 -5.52292 -4.21732 -9.96848 -0.536834 0.303446 -0.725968
1486 -0.325929 -8.06591 -2.02234 0.737712 0.66521 0.613885
38 -4.21129 -5.47513 -9.80636 -0.686423 -0.615589 -0.0647709
354 -3.38696 -4.86473 -9.55623 1.30343 1.36759 -0.197702
254 -1.99762 -4.91127 -9.68317 -0.627812 0.0607784 -0.7539
324 -1.60868 -4.08292 -9.15136 -0.589923 -0.400619 0.184782
3529 -0.722489 -4.72706 -9.87891 0.823978 0.254936 0.816684
2972 -1.65909 -5.83249 -9.93871 -1.0645 0.108278 1.69699
3276 -9.60075 -3.03441 -8.85803 0.365667 0.170998 0.451173
633 -8.04706 -3.48295 -8.71398 -1.30653 0.377612 0.86332
2652 -7.76582 -3.86455 -10.1898 -0.450614 -0.538445 0.722876
132 -8.68877 -3.34682 -9.59014 0.489074 -0.821666 -0.586182
105 -7.05499 -3.3017 -9.65762 -0.15693 0.648913 0.464675
473 -1.76626 0.793825 -10.0642 0.339519 0.0567546 -0.771111
55 -6.04031 -3.20928 -9.61107 0.158294 0.0792769 0.0667862
350 -5.06807 -3.32255 -10.1363 0.806855 0.609005 -0.68154
399 -4.29976 -3.2624 -8.94563 -1.01179 0.590984 -1.44132
526 -0.0118992 4.68911 -7.54326 -0.311879 -0.906053 -0.024123
442 -4.41801 -4.3101 -9.67532 -1.64987 -0.952745 -0.776759
424 -2.53797 -4.4812 -8.84381 -0.765929 0.739378 0.196681
978 -3.36386 -3.84763 -8.97854 -0.637833 1.04229 1.6947
110 -2.83589 -3.97339 -9.91558 -0.883078 -0.498743 1.50603
96 -1.83378 -3.21519 -9.87612 -1.79915 0.340467 -0.840858
382 -0.477237 -3.87075 -9.37789 -0.141278 0.231804 0.987093
402 -1.74951 -3.22395 -8.6546 -0.0354353 -0.0537168 0.500859
99 -9.59895 -2.18053 -8.39682 0.0370791 1.20065 0.81665
104 -10.0096 -2.10055 -9.48384 -0.611715 -1.29562 0.49728
80 -8.98227 -2.20254 -9.51358 0.107659 0.394451 1.1491
654 -7.94564 -2.49451 -9.54388 -1.17246 -0.779293 0.0642648
86 -6.16431 -1.6144 -9.5553 0.309054 0.650237 -0.922583
107 -7.00109 -2.22368 -10.0346 0.838298 0.625232 -1.18865
2701 -4.78256 -2.33418 -9.47455 -2.70627 -0.095027 -0.459814
3255 -3.80355 -2.54021 -9.69271 -0.454609 0.981516 0.678516
157 -2.80398 -1.93507 -9.1087 0.242974 -0.576314 1.02816
3260 -2.85744 -2.96348 -9.60193 0.566841 -0.378721 -0.564681
139 -1.47064 -2.2208 -9.6352 -0.962144 -0.202691 -0.378444
425 -0.38764 -2.59512 -9.508 0.725229 1.50186 -0.184407
143 -0.562854 -1.89092 -8.63215 0.736226 -0.375741 -0.212381
410 -9.64466 -0.990338 -9.31551 0.256253 -0.138173 2.02284
1335 -0.0969435 2.77857 -2.75335 0.543224 1.09283 0.185676
128 -7.91265 -0.343957 -9.90115 0.390225 -0.897088 0.807992
415 -8.19624 -1.41069 -9.24479 0.435367 -1.06211 0.855582
184 -8.91259 -0.171186 -9.34313 -0.493705 0.427616 -1.10524
3305 -5.80073 -0.675809 -10.1928 0.0320508 -0.436908 0.280417
684 -7.0545 -1.07466 -9.52538 -0.124917 0.817872 0.503352
398 -5.06443 -1.21711 -9.29913 0.483905 0.060653 -0.909072
1275 -10.227 -0.772837 -3.0296 1.30974 -0.422381 -0.00459721
135 -4.25398 -1.50071 -9.93848 -0.344028 0.657592 0.250879
27 -10.1161 -8.87478 -9.85448 0.926924 1.06523 -0.777677
427 -4.80216 -0.202327 -8.98625 0.0507072 0.396219 0.187249
451 -1.64784 -1.4648 -8.84243 -0.389019 -0.557839 0.120469
734 -2.61352 -0.630417 -9.31842 -1.03596 0.238268 -0.745347
116 -2.13485 -1.36563 -9.99457 -1.1519 -0.38257 0.290464
501 -2.63959 1.49527 -10.2272 -0.270512 0.667238 0.324399
736 -1.62153 -0.271452 -9.75537 -0.665056 -1.42742 1.82445
165 -0.926326 -1.14995 -9.59323 1.50932 0.578264 1.57253
3231 -4.12881 -7.46046 -10.1221 0.116715 -2.05395 0.456123
3324 -9.71259 0.146264 -10.1718 -0.606623 0.607794 -0.426762
231 -9.28035 1.75168 -9.87986 -0.691369 0.654967 -0.356544
1085 -10.0524 2.683 -7.53565 -0.192524 -0.112508 -0.0793194
3303 -8.48914 0.643351 -9.92051 0.202925 0.872349 0.21468
801 -7.45031 0.892413 -9.54476 1.93312 -0.808855 -0.396204
206 -6.64366 0.109906 -9.79705 0.852327 0.0521272 0.656222
2748 -6.22075 1.07024 -9.98787 -1.99279 -1.48334 -0.273543
153 -5.62009 0.107237 -9.41941 0.285709 0.309839 -0.232288
1848 -0.798323 -2.74713 -0.12137 -0.404832 -1.7487 0.206548
469 -5.55654 1.6984 -9.25454 0.127995 -0.770975 -0.284355
137 -4.99365 0.922289 -9.19283 -1.3814 -1.70112 1.91606
716 -3.29669 0.00290533 -10.1026 -0.453627 0.455083 -0.956459
1073 -2.50353 0.414324 -9.50366 0.563868 1.24896 0.680065
3359 -0.274643 0.511714 -8.94926 -0.797496 0.0796235 0.0188983
1333 -1.64928 0.669366 -8.7931 0.623833 1.06941 -0.367833
3336 -0.70112 1.1452 -9.85165 0.293691 -0.62168 0.502447
3075 -8.78835 2.72252 -9.6909 0.379712 1.8748 -0.671954
1727 -0.59294 8.6649 -0.949798 -0.43686 0.880796 0.374117
170 -9.86845 2.77423 -9.41862 0.112634 -0.0293811 -0.000311325
1199 -0.0982583 -8.79387 -2.86674 -0.375691 -0.917631 0.0381759
3054 -8.35298 1.53713 -9.13742 0.407333 2.31062 -1.01251
1677 -0.0510352 5.88549 -1.10606 -0.226609 0.0561929 0.644102
1355 -6.75324 1.90574 -9.54176 0.142596 0.552162 -0.281737
1174 -0.0464326 -9.53548 -3.72739 -0.316107 0.171503 -0.162267
422 -4.36456 2.0762 -9.18976 -0.856807 -1.4107 -0.88013
494 -5.59623 2.73182 -9.31327 0.0591052 2.542 -0.607084
470 -3.40205 2.01371 -9.71044 0.117938 0.80159 -0.555542
519 -2.41597 1.49043 -9.14407 -0.242693 0.293241 -0.649477
764 -1.74131 2.87357 -9.0669 2.03037 -1.10285 0.436626
497 -1.41479 1.92833 -9.70786 0.137487 -1.29719 0.432397
3360 -2.32421 2.59511 -10.0703 -0.0159492 0.632087 -0.681118
5308 -0.273988 0.117016 -0.093822 1.27696 0.933215 -0.0215617
478 -0.400186 2.31994 -9.3564 -0.409033 0.596357 -1.66826
1728 -1.16028 9.48748 -1.23344 -0.397949 0.81926 -0.708861
3315 -9.18985 3.61904 -9.24558 0.957899 0.427398 -0.877421
2740 -7.99102 3.60588 -9.55017 -0.0786437 -0.595259 1.03792
176 -8.89219 4.71652 -9.44081 0.0543367 -0.939806 0.896763
3343 -7.02492 4.04847 -9.70618 0.155524 -1.79872 -0.663551
487 -5.95245 3.98935 -9.74985 -0.653777 -0.927761 -1.5551
3077 -6.66191 3.02892 -9.19948 -0.893942 0.216012 0.138606
168 -0.57167 -0.179751 -9.96829 -0.615642 -0.89329 -0.0735194
1075 -4.7625 3.38982 -9.57642 0.533573 0.337774 -0.306517
2818 -4.96015 4.46242 -9.94984 -0.118768 -0.32051 -0.0499135
3367 -5.705 3.7153 -8.73821 -1.94421 0.406305 -1.24534
3374 -3.91216 3.04336 -8.90756 -1.40633 0.869234 1.88195
775 -3.45924 3.20597 -9.88153 -1.1299 -0.072014 -0.731619
212 -2.80207 3.20558 -9.11966 0.19694 -0.421374 0.957674
782 -2.71443 4.10444 -9.57876 1.55889 0.231475 0.610185
209 -2.08026 3.54599 -8.25666 0.845849 0.954131 1.91484
3095 -1.83604 3.62981 -9.76224 -1.72435 -0.306134 0.294836
3116 -0.705347 3.3611 -9.71257 0.630028 0.208504 0.34322
214 -1.11123 3.82132 -8.74534 -1.44279 1.1681 0.490804
172 -9.91107 4.19346 -9.74611 0.882374 0.161027 -0.782023
2073 -5.72482 -7.69879 -0.084993 0.729084 -0.595658 -0.725414
220 -9.85902 5.38528 -9.88121 0.768053 0.274466 -0.211304
2460 -7.34303 6.81572 -9.53032 -0.698285 1.20552 0.938814
221 -7.75268 4.78567 -9.14579 1.09725 -0.011346 0.544453
3079 -8.58057 5.61546 -9.91423 0.995758 -1.12294 0.0554584
1271 -0.109476 -4.26124 -3.16386 0.735539 1.10033 0.157992
602 -10.2395 -7.99226 -7.19729 0.00541398 -0.746488 -0.687276
559 -7.45361 5.81022 -9.85502 -0.386786 0.130973 -0.330218
1061 -6.63868 5.0607 -9.85828 1.43682 -0.186625 -0.320351
2189 -5.51045 4.77529 -9.02128 1.43778 -0.244622 -0.593347
813 -3.20142 5.08777 -9.53594 -0.565255 0.621101 -0.596912
3087 -3.90217 4.25128 -9.53704 1.09959 1.53057 -1.26657
887 -0.23902 10.0629 -4.36116 0.375045 -0.395958 0.571789
2776 -2.27092 4.99213 -8.97919 -0.201031 -0.389636 0.0692656
2228 -1.30182 5.59571 -8.62882 -0.342017 1.09671 -0.0189917
1684 -9.40067 8.65482 -0.226162 -0.157925 -0.311673 0.341437
528 -1.28376 4.56224 -9.47288 0.0575027 -0.0725582 -0.934743
13 -0.342743 5.63547 -9.2009 0.607106 1.17594 1.77997
3675 -0.196437 4.11435 -9.2603 0.316359 -0.549873 0.21516
2125 -4.11413 -4.34783 -0.140271 -1.14266 0.95223 -1.14693
217 -9.36632 6.30065 -10.1676 -0.754249 -0.134012 -0.00857745
509 -8.38026 6.62921 -9.42634 -1.22488 0.194548 -0.77878
4558 -9.68688 7.14399 -5.70899 -0.322663 0.677155 -0.452979
224 -6.74049 7.60014 -8.8892 1.39967 0.51724 1.35205
3049 -5.96133 6.4832 -9.39311 0.11671 -0.247755 0.798626
1610 -5.01787 6.53593 -9.79651 1.0698 0.574137 -0.0294711
2797 -3.99173 6.78504 -9.14527 0.802523 0.721981 -0.527844
570 -3.19634 6.10069 -9.54842 0.126057 -0.225621 -0.0336114
1037 -10.03 -0.655547 -4.95838 0.413254 0.704546 -0.230276
275 -5.15736 7.66732 -9.36915 -0.820777 -0.0648969 0.538947
525 -2.23933 6.13746 -10.1221 0.751359 0.216944 -0.468854
3202 -2.14045 7.44404 -9.84711 -0.0745222 -0.0557998 0.167808
3186 -1.18418 6.5772 -9.49642 -0.188108 0.934257 0.26616
2014 -0.436945 9.5549 -0.439622 -0.481806 0.330838 -0.019786
3983 -9.4324 7.66564 -9.90214 -0.245248 0.367629 0.584602
589 -8.83331 7.61065 -8.94699 0.418408 -1.17471 -0.367192
506 -7.79167 7.81126 -9.15859 -0.531056 -0.269599 1.20186
3174 -8.69022 8.68351 -9.77269 0.26645 0.713639 0.0475532
1078 -0.0293961 3.37362 -4.41263 -2.21652 0.312895 -0.348396
3179 -6.61943 8.60196 -9.17157 0.204788 0.738948 1.11419
2247 -5.55604 8.58204 -8.981 -0.355762 0.231895 0.393406
2505 -3.08014 7.16823 -9.52969 0.0569434 -0.0613313 -1.42389
285 -1.70934 8.40876 -9.58962 0.311965 -0.456024 0.489083
283 -1.30663 7.26288 -8.78816 -1.80687 -0.309249 0.470694
3161 -2.83478 8.21034 -9.53578 -0.798648 0.242215 -0.27212
3453 -0.859545 7.69942 -9.71829 -0.360938 -0.666084 -0.103202
272 -9.55745 8.75067 -9.08703 -1.82672 -0.437942 -0.350135
8 -9.22298 9.61736 -9.74901 0.56165 -0.423141 0.975964
3040 -6.36006 3.08022 -10.2422 1.49588 -0.92566 -0.435829
3230 -8.14386 9.57094 -10.2167 -0.96122 -1.25651 -0.223497
3443 -8.31096 9.61872 -9.18862 0.824112 0.434506 1.4377
2846 -7.679 8.7447 -9.5418 -0.471222 0.0393247 1.26862
2465 -6.34462 9.13018 -10.1772 -0.540356 0.800993 0.671631
572 -7.30614 9.73287 -9.51935 -0.680642 -1.05154 -0.255057
245 -6.37149 -10.1871 -9.82437 -0.152234 0.0882067 1.07835
2725 -6.39692 9.8041 -8.8258 -0.126106 -1.17075 -0.170461
3187 -5.5865 9.63453 -9.60546 -0.903198 -0.400481 -0.0077754
345 -4.57753 9.94263 -9.80176 0.266169 0.827812 -0.335804
3447 -4.34879 9.05962 -9.10312 -0.100186 -1.13284 -0.0785887
552 -3.24737 8.96953 -8.80095 -1.0494 0.494058 0.815593
37 -0.383423 -7.22796 -9.55523 -2.01095 -0.569164 -1.21897
856 -3.73952 9.85131 -8.73818 -0.317251 1.12765 -0.99248
2948 -1.91405 -10.1182 -9.02535 0.774681 1.24466 1.83537
19 -2.52535 9.4401 -9.71226 0.514696 -0.545587 -0.195704
3456 -0.485796 10.1861 -9.95108 -0.761528 0.436733 -0.860761
3157 -1.78361 9.29404 -8.81864 -0.368299 0.0415628 -0.575029
62 -1.56658 9.99699 -10.1833 -1.2035 -1.11971 -0.470238
3421 -0.906108 9.16746 -9.45201 -1.42832 -0.929675 0.0443394
312 -0.61186 10.0273 -8.89163 0.0328781 -0.428242 1.74332
22 -4.00694 8.22704 -9.73992 0.229317 -0.0364671 -0.543174
317 -9.97282 -9.02612 -8.33169 -0.26146 0.613081 0.093224
296 -9.08944 -9.91396 -7.71227 -0.707672 -1.77818 -0.855552
58 -8.90689 -9.73234 -8.85007 0.516194 -0.106121 -0.184739
2413 -7.82461 -9.89909 -8.81757 1.07043 1.19431 -0.0992317
271 -7.97911 -9.97651 -7.57148 -0.613843 -0.81571 0.43327
2823 -7.05548 10.215 -8.01044 -1.14285 -1.81593 -1.56268
3184 -5.32934 -9.37415 -8.08312 1.59259 -0.527157 -0.272624
3086 -4.54853 -9.90478 -8.64608 -0.18607 0.452082 -0.574687
18 -4.64027 -8.73254 -8.64817 -0.218647 0.00224504 0.105651
346 -4.3994 -9.36916 -7.49554 -0.579856 -0.530848 -0.379841
270 -5.45732 -9.02863 -6.93284 0.857485 0.140583 0.619441
2488 -3.57389 -10.1994 -7.54766 -0.508547 0.00725647 0.00733039
1086 -3.66616 -8.895 -8.11119 0.740364 -0.169057 -0.903352
2897 -2.95387 -9.9659 -8.69745 0.142636 1.2737 0.822435
61 -1.60451 -9.38645 -7.5738 -0.991971 -1.19056 0.207927
309 -2.97928 -9.3559 -7.30137 -0.333987 0.300374 1.14922
333 -0.590276 -9.82727 -8.06627 -1.8102 0.745115 0.66984
3748 -0.343026 -8.70385 -7.96553 0.913276 -1.3253 1.45103
320 -9.65256 -7.87788 -8.06112 -0.412961 -0.964078 -0.0703668
30 -8.65894 -7.31577 -8.07235 -1.03461 -0.324562 0.947548
3199 -7.61433 -7.75265 -8.94283 -0.537678 0.247716 0.572301
318 -8.93809 -8.78576 -7.90889 0.447236 -0.215677 -0.930814
3249 -7.81638 -8.94976 -8.19348 -0.85982 -0.827132 -0.826249
609 -7.4732 -7.84246 -7.81375 0.347201 0.389892 -0.0595778
300 -6.49411 -7.87654 -8.49917 0.450732 0.665911 0.458519
3257 -6.13621 -8.60246 -7.90922 -0.579564 0.516526 -0.844294
592 -6.374 -7.69459 -7.44441 0.988952 -0.941528 -1.17772
544 -4.91989 -8.4136 -7.60923 1.26019 -0.383492 0.715492
3164 -3.84285 -7.87181 -8.39144 -0.158166 0.505314 -0.0963568
3452 -3.14873 -6.83057 -7.81088 -0.247757 -0.293247 1.15324
279 -3.61191 -8.10992 -7.3 -0.903133 1.66542 0.433959
618 -2.73685 -7.96994 -8.16381 0.277988 -0.489251 -1.08092
644 -1.94511 -7.28808 -7.93332 -1.16469 -0.334716 0.435604
359 -0.34014 -7.95879 -8.82811 0.546952 0.288562 1.0634
42 -1.38944 -8.28623 -8.32512 -0.938241 1.08618 -0.531112
622 -1.23028 -7.09339 -8.77631 -0.0272566 -0.573146 -0.576271
341 -9.48398 -7.07714 -8.83361 -0.0551287 -0.0880992 0.393176
344 -9.50677 -6.30154 -7.94117 -0.0187246 -1.232 -0.541472
56 -8.55033 -6.38537 -8.61358 1.38644 -0.114131 0.142681
3298 -7.58856 -6.94178 -8.37615 -0.46936 0.124829 -0.435388
36 -8.56104 -6.42501 -7.30344 -0.472134 0.334303 0.273359
64 -6.55456 -6.7357 -8.17292 0.590736 -0.419073 0.0292372
273 -7.40237 -6.80164 -7.15831 -0.704187 -1.02486 0.28141
3207 -5.42066 -7.5641 -7.96483 0.0683781 0.891265 -1.52455
2894 -5.38112 -6.41871 -8.06399 -1.33091 0.83665 0.160001
3304 -5.74349 -5.40735 -8.42839 -0.538742 0.357858 0.113156
614 -4.69311 -5.61771 -7.8371 -0.707905 0.66068 0.417063
3216 -3.31338 -6.31769 -8.8053 -0.836442 0.452957 -0.295508
2991 -4.20756 -6.91422 -7.86258 1.84841 0.286061 -0.446999
400 -3.56402 -5.90346 -7.65179 0.396969 1.2158 -0.693312
326 -2.37638 -6.79642 -9.17695 -0.742693 1.01649 -0.451265
356 -2.25494 -6.29273 -8.23667 0.558276 0.434578 0.402371
645 -2.47234 -6.33585 -7.17754 -0.135176 -0.135685 -0.285322
335 -0.524107 -7.38033 -7.94353 -0.714742 -0.500236 -0.408115
3772 -0.472385 -6.39366 -8.77282 0.0799158 -1.37916 -0.677298
643 -0.731324 -6.33405 -7.61244 -0.0170343 -0.845773 -0.970332
79 -9.46095 -5.25661 -8.66659 -0.0152139 0.826174 0.0707512
160 -4.78527 1.55975 -10.0033 -1.04084 0.363955 -0.375774
109 -8.44789 -4.8606 -8.48732 0.781036 -0.0929514 -0.742875
342 -8.73616 -5.41345 -7.50795 0.901075 -0.735016 -0.30171
682 -7.63046 -5.45805 -8.53512 -0.436043 -0.121505 0.969599
2989 -6.29846 -4.48558 -8.98684 1.37742 -0.0671714 -0.9595
284 -6.6203 -5.29857 -7.05892 -0.491179 0.173721 0.94138
57 -5.1122 -4.58403 -8.10828 -0.765861 -0.42297 0.681061
974 -5.33185 -4.90692 -9.18549 -0.209535 -0.456419 1.23626
376 -4.20222 -5.6846 -8.81954 -0.889846 0.0672993 0.38649
252 -4.07858 -4.73507 -8.6347 -0.379877 -0.622407 -0.452657
92 -4.0397 -4.93485 -7.59046 1.6279 -0.550195 0.57092
336 -3.14878 -5.25521 -8.4261 0.839438 0.434859 -1.04965
667 -2.2296 -5.05748 -7.92588 0.0962319 0.583431 -0.329444
40 -3.24156 -4.35658 -7.79059 -0.609201 -1.04494 -1.21505
668 -1.19602 -5.0256 -8.96732 -0.25097 -0.216956 -1.51618
953 -0.0835518 -5.39321 -8.59532 0.162579 -0.0986675 -0.49515
383 -0.418659 -4.17494 -8.31152 -0.335794 -0.180641 -0.70474
331 -0.72187 -5.21807 -7.74476 -0.0708289 -1.04939 -0.172108
368 -9.23925 -4.00655 -8.60249 -0.285285 0.402095 -0.349891
387 -8.97415 -3.00538 -8.03632 -0.226532 -1.78969 0.156315
365 -8.55137 -3.90497 -7.61017 -1.88815 -1.30377 0.373333
681 -7.95643 -2.65244 -7.6148 0.611709 -1.47911 1.07694
729 -5.94039 -3.95355 -8.06615 1.73193 -0.731102 -0.345435
372 -7.13505 -4.55561 -7.97497 0.849358 0.331044 -0.287584
664 -6.72582 -3.38638 -8.74089 -0.392578 -2.19052e-05 -1.25525
371 -5.33827 -3.70554 -8.96898 -0.790087 1.26795 0.0306577
3428 -4.97082 -2.78838 -8.28686 0.348002 -0.583678 -1.25412
3188 -4.19927 -3.79083 -8.00177 -0.115796 0.634225 0.994143
401 -3.97241 -2.79629 -7.72963 -0.240802 -0.400982 0.137713
374 -2.72495 -3.44485 -8.05931 0.363097 1.47141 -1.16869
691 -1.70721 -4.16355 -8.13348 1.29808 -1.15515 0.471956
384 -2.44877 -4.15599 -7.12974 1.13413 -1.41794 0.569494
379 -0.699875 -3.09995 -8.66817 -0.203259 -0.274025 0.264759
120 -1.00829 -3.52928 -7.6696 2.21772 0.295281 -0.318719
3037 -6.41467 -5.35285 -10.1246 0.00694187 0.876536 0.781777
389 -8.39128 -2.47094 -8.59943 0.237531 0.799262 0.300875
392 -9.72446 -2.67554 -7.33829 -1.06407 -0.462407 -0.924494
657 -7.80402 -1.66011 -8.20583 1.61034 -0.479965 -0.187815
108 -6.95615 -2.27219 -8.88352 -0.335028 -0.744265 -1.04524
369 -5.93848 -2.16885 -8.69485 0.00351713 2.41459 -0.169956
688 -7.01304 -2.1434 -7.58369 -0.553967 0.251364 -0.305536
417 -6.06089 -1.66712 -7.67642 2.3948 0.268053 0.914144
448 -5.0066 -1.61596 -8.24553 0.143121 -1.71058 -0.97866
419 -6.25915 -2.84316 -7.83636 -0.435069 -0.341419 1.34011
115 -3.38071 -2.85287 -8.69391 -0.756512 0.0756082 0.31267
712 -4.12316 -2.12169 -8.74251 1.87929 1.01238 0.0346725
432 -3.11877 -2.15601 -7.76686 -1.29885 1.12578 -0.29309
403 -2.24944 -2.44475 -8.29384 -0.616335 -0.0133833 -0.905024
693 -2.5078 -2.81993 -7.23393 0.1234 0.496852 0.201603
375 -1.98589 -1.99339 -7.25996 -1.00709 -0.777818 -0.539867
140 -1.14207 -2.49451 -7.85962 -0.630878 0.952862 0.703875
144 -1.1502 -1.06826 -7.99294 -0.448988 0.226839 -1.01396
152 -9.642 -0.185373 -8.58544 -0.649705 -0.368106 0.616498
391 -8.98918 -1.16818 -8.45973 2.44043 -2.18621 0.553652
151 -9.93688 -0.902041 -7.81714 -0.0922341 1.21546 0.118232
728 -8.81074 -0.136463 -7.89219 0.0703279 0.292335 -0.365459
420 -8.82058 -1.97506 -7.55807 -1.07056 1.53778 1.69673
133 -8.06687 -0.555765 -8.69013 0.149092 -0.845064 -1.03055
418 -6.3843 -1.18097 -8.71322 0.41637 0.826357 -0.605385
994 -6.94938 -0.820038 -7.80773 -0.826226 0.244169 -0.0797835
1019 -7.79761 -0.174577 -7.66577 -0.307927 0.155904 0.603136
3063 -5.07899 -0.202936 -7.86701 0.0642353 -0.254241 0.639272
683 -4.86874 -1.05622 -7.16037 -0.974892 0.403988 0.0833985
3352 -4.28121 -0.939097 -8.20928 -0.48144 0.900907 -0.205794
714 -3.22744 -0.791059 -8.28358 1.06011 1.06755 -0.634741
426 -2.33327 -1.30713 -8.05373 0.526921 -0.0773521 -0.0459969
450 -1.28522 -0.0694941 -7.59719 -0.276171 -0.582385 -1.04123
449 -2.70804 -0.383135 -7.36444 -0.453468 0.876568 0.360152
141 -0.979404 -0.287629 -8.81742 0.415982 0.483832 0.562153
430 -0.412798 -0.808619 -7.23657 0.589093 -0.216586 0.523766
434 -9.18093 0.885783 -9.06408 -0.1304 -0.43093 -0.261696
457 -10.0599 1.14382 -8.37554 -0.827653 0.286816 0.156004
465 -9.0373 0.878099 -7.99507 0.515596 -0.122285 -0.161028
443 -8.11106 0.590614 -8.70265 -0.0191606 0.273626 -1.04985
3297 -6.19142 -0.156483 -8.48616 -0.0549045 -1.16592 -0.357149
1596 -7.20162 -0.0126437 -8.78354 0.563128 0.0679303 -0.890011
2722 -6.39412 0.793481 -8.9555 1.68436 1.31189 -0.414228
179 -6.93102 0.66899 -7.95847 0.734771 -1.02496 -1.26349
1043 -4.3194 0.522955 -8.15007 0.387635 0.558197 -0.381138
468 -5.43618 0.701091 -8.23512 -0.271162 -0.873803 -0.0584001
154 -3.15938 0.17896 -8.73439 0.8912 -1.49564 0.629573
158 -3.93479 1.01998 -9.44638 -0.296634 0.840158 0.778874
428 -3.12465 0.606449 -7.64688 -0.259359 -0.87991 -0.936549
185 -2.10346 -0.359684 -8.55769 1.18301 -0.184845 0.418299
423 -2.12021 0.398764 -7.84629 -0.426276 0.427291 -1.27077
758 -2.87265 1.37894 -8.22652 0.130338 -0.878884 1.81681
191 -0.89663 1.48531 -8.74798 -0.471254 -0.402645 -0.617732
475 -1.2442 1.00886 -7.66305 -0.827525 0.823306 -0.118113
167 -0.326295 -0.0204951 -7.98565 1.26081 0.895984 -0.360733
680 -10.0855 -2.94078 -5.37679 0.854178 -1.27589 -0.599081
198 -9.22061 2.05611 -8.82101 0.29212 -0.0531418 -1.47327
195 -9.50123 1.83917 -7.57887 -0.673984 -1.4141 0.251203
3346 -8.92688 2.95789 -8.27062 0.351485 -0.113775 -0.120992
3390 -7.81763 3.02058 -7.51848 -0.974958 0.45717 -3.8638e-05
175 -8.14327 2.75216 -8.93496 0.0693588 0.394185 0.868055
155 -8.3964 2.05748 -8.19065 -0.462114 0.155868 -1.35937
1643 -7.38875 1.40219 -8.55496 -0.713174 0.0746579 0.129371
466 -6.88967 2.61478 -7.59605 -0.441918 0.681902 -0.748335
2430 -6.15414 1.6407 -8.31624 -0.232296 1.16744 0.00551193
482 -5.98398 2.89964 -8.22441 -0.376743 0.128065 -1.05213
1042 -5.07565 1.79817 -8.2874 0.58019 0.201535 -0.255088
1329 -5.7368 1.89246 -7.41643 -0.820881 -0.597494 -1.47358
1669 -4.99418 2.96294 -8.51132 0.052751 1.1389 -0.415934
472 -3.99369 1.51327 -8.31017 0.146017 -1.28879 -0.541534
759 -4.27587 2.29415 -7.64616 -0.511722 0.881848 0.447628
208 -2.96174 1.59998 -7.1463 0.736541 -0.643398 1.49333
233 -3.11139 2.32417 -8.64372 -1.06439 0.431448 1.15012
183 -1.8029 1.85369 -8.27622 -0.894774 -0.601462 0.508705
761 -0.775892 1.90539 -7.82963 0.274126 0.15676 -0.649187
197 -9.98391 3.21857 -8.45822 -0.0636627 -0.126961 -0.227983
3935 -9.60397 4.28878 -8.54322 1.00421 -0.4931 -1.57475
194 -8.83617 2.6153 -7.17283 -0.217688 -1.72233 0.539233
173 -8.45556 3.86052 -8.52638 0.594933 0.733123 0.839492
3084 -7.31915 3.48646 -8.47932 0.291851 -1.08056 -0.0528794
539 -7.41179 4.50815 -7.99351 -0.827617 -0.0396502 0.626224
773 -8.50609 3.92082 -7.49133 0.062124 -1.87274 0.578391
490 -6.45433 3.83006 -7.84153 -1.02679 -1.21452 -1.28461
1045 -5.29378 3.62403 -7.78288 -0.884769 -0.793501 0.483138
1566 -3.12997 2.55663 -7.49985 0.584595 -0.0543878 -0.726073
446 -4.66014 3.93173 -8.64916 0.0845153 0.630975 -0.38628
1097 -3.50338 4.13823 -7.38353 -0.640376 -0.0538494 0.27847
786 -3.12654 3.29155 -8.17749 -0.862417 0.562629 0.456871
3397 -2.08796 2.70435 -7.72232 -0.419844 -0.487363 0.827039
210 -0.954292 2.85308 -8.43222 -0.21862 -0.778388 0.467003
4225 -1.31545 3.61931 -7.27662 -0.515525 1.44209 0.0430396
238 -0.352863 3.35245 -7.64991 -0.310177 -1.53467 0.0724129
483 -9.28416 4.76057 -7.54642 0.290403 -0.231522 -0.359098
228 -10.0724 5.27921 -8.32479 -1.72953 0.612234 0.340395
3338 -8.53639 4.85981 -8.32723 -0.103667 -0.488583 0.597275
531 -9.00688 5.82484 -7.85423 0.453931 0.384436 -0.916325
3958 -7.80718 5.55489 -7.83803 -0.913163 -0.436963 -1.00421
1614 -6.64148 4.33928 -8.6709 -0.481664 0.770947 -0.726136
2511 -6.34189 5.02141 -7.90527 -0.163249 1.29385 -1.21195
225 -5.66176 5.60952 -8.39036 0.578594 2.00893 0.107455
1083 -7.07222 5.36497 -8.65074 0.682144 -0.290656 -0.672536
760 -5.35135 4.68223 -7.92818 -0.920778 0.905552 0.969661
2492 -4.28536 5.60818 -9.41614 -1.3337 0.528959 0.0546238
2174 -4.37392 5.06034 -8.07917 0.00998152 0.146196 -1.57874
261 -3.38538 5.57686 -7.60503 -0.724276 0.767226 1.11266
211 -3.45403 4.19644 -8.58388 0.234285 0.0748912 -0.0123532
805 -2.34332 5.68715 -7.97259 0.67495 -0.667679 1.01796
3403 -1.86333 4.73527 -8.04211 -0.118135 0.00200373 0.0334566
3405 -0.218936 5.62614 -8.10974 -1.57949 1.12641 1.19696
499 -0.711383 4.68043 -8.39487 1.55967 -1.12442 -0.53993
240 -1.28803 5.70392 -7.58572 0.578247 -0.403344 1.64354
1452 -8.53965 9.39778 -0.746262 1.15023 -0.694015 -0.45942
826 -10.238 6.89727 -7.92729 -1.39285 0.0577848 0.0900129
530 -9.56948 6.7182 -9.17788 0.508741 -0.179497 0.966099
558 -10.0894 5.92534 -7.32717 -2.55176 -0.856149 1.51512
529 -9.28711 5.60431 -8.96475 -0.567493 -0.212158 -0.245238
242 -8.22381 6.33656 -8.32252 0.340951 -1.08265 -0.0659813
3133 -7.50866 6.99992 -7.6888 0.115225 0.869242 -0.115546
534 -6.11969 6.7634 -8.20519 -0.537566 -1.84377 0.177435
557 -7.13896 6.41232 -8.55763 -0.270975 -0.83854 -0.921156
1592 -7.15604 6.09512 -7.30056 -0.657072 -0.504349 0.481498
1382 -5.52422 6.09377 -7.47167 1.02764 0.205009 -0.686356
1072 -4.91936 6.81661 -8.53467 0.0724284 1.705 -0.812973
542 -4.22946 6.11997 -7.74508 0.248525 -0.734305 0.145579
548 -4.91112 6.93747 -7.45171 -1.14 0.0734585 -1.36342
1114 -3.40991 5.73341 -8.6353 0.759202 0.224419 0.671967
641 -3.77699 7.01571 -7.90313 0.764999 -0.25814 0.243103
824 -2.84632 6.63102 -7.88107 0.177515 0.0371969 -0.228714
835 -2.23804 6.06746 -9.0588 -0.0118946 0.0322658 -1.44642
1066 -1.71585 6.55984 -8.0275 0.354854 -1.957 0.221932
3676 -0.324972 6.39946 -7.27502 -0.332044 0.43758 -0.781575
3454 -0.636118 6.49464 -8.55769 0.479983 -0.0543451 -1.60641
3444 -10.1705 7.74628 -8.78199 1.42378 -1.26341 1.66
822 -9.41186 7.76029 -8.04359 0.273271 0.0728276 0.451538
3392 -8.30456 7.725 -8.03635 0.439234 0.485852 0.697826
246 -8.49425 8.58626 -8.69985 0.297844 -1.18605 0.49633
845 -6.59516 7.63561 -7.52203 0.277159 -0.164459 0.0058547
831 -6.37469 8.62578 -8.02833 -0.531261 -0.481556 0.292129
564 -7.30803 8.27808 -8.33443 -0.77935 0.0248866 -1.22795
566 -4.19946 7.67775 -8.56119 -0.479139 1.1212 -1.26183
3386 -5.81116 7.75786 -8.21913 0.0724948 1.33382 -0.548229
523 -4.84432 8.42579 -8.14013 -0.469537 -1.45998 0.245832
591 -4.14234 8.06859 -7.40684 -0.277733 -0.538146 0.985797
783 -3.27027 7.5451 -7.16301 0.613854 0.269742 0.34464
239 -3.13096 7.7122 -8.62938 1.76201 0.144232 1.80463
549 -2.34562 7.0983 -8.77761 0.633733 -0.403295 -0.169034
3144 -1.76041 7.56007 -7.71479 -0.834274 -0.403788 -1.09802
836 -2.16331 8.2763 -8.60941 -0.178517 0.403956 0.0728241
43 -2.96887 8.44077 -7.8833 -0.240818 -0.0138484 0.183212
576 -0.742253 7.24946 -7.83846 -1.28374 0.206336 -0.681696
48 -0.961011 8.32937 -8.81125 -0.110892 1.47497 0.107657
66 -2.81496 -5.55696 -10.2144 0.350578 -0.213275 0.51137
438 -10.1972 1.49597 -6.71875 0.11576 1.57921 -0.14922
291 -9.96621 9.61967 -7.31649 -0.123121 0.751513 1.00973
3 -9.60272 10.0342 -8.61796 -0.199946 -0.0192402 -0.514975
554 -9.38654 8.81865 -8.01633 -0.445186 0.0290175 0.427756
293 -8.69043 9.59657 -8.16686 1.23663 -0.237244 -1.33572
1133 -7.66445 9.55166 -7.50389 0.392191 0.839445 0.0155933
294 -6.50143 9.44508 -7.35973 0.260591 -0.517276 -0.739207
377 -7.31892 9.23255 -8.71183 0.241681 -0.0454822 -0.627711
3223 -5.89102 -10.1828 -8.05021 -0.100148 0.518231 -0.661847
264 -5.29289 9.55799 -8.62667 -0.244196 -0.373636 -0.136831
251 -4.89112 -10.2391 -7.70385 -0.693475 0.443834 0.0457359
834 -3.88359 9.24982 -7.91489 -0.0339946 0.201842 0.986479
3449 -2.8493 9.56065 -8.07762 -0.107628 -0.49315 -0.0174465
311 -1.40974 10.0295 -8.19495 -0.102133 1.36897 0.355828
325 -2.19665 10.2082 -7.26926 -0.263377 0.957788 -0.558132
573 -1.94326 8.95704 -7.63321 -0.747513 1.06094 -0.376726
861 -0.830985 9.15343 -8.09759 0.0294882 0.644111 1.52091
584 -9.76198 -9.31853 -6.18614 0.277728 -0.818248 0.535864
319 -9.86009 -9.12491 -7.23118 -1.49337 -0.824397 -0.722759
843 -8.62466 -9.41177 -6.92728 1.09214 1.36331 -0.179697
322 -7.58072 -9.29782 -6.5198 -0.950483 -0.244388 -1.98826
870 -8.78509 -9.73408 -5.83255 -1.08065 -0.0158066 -0.68776