ITEM: TIMESTEP
66000
ITEM: NUMBER OF ATOMS
6912
ITEM: BOX BOUNDS pp pp pp
-1.0259855680060181e+01 1.0259855680060181e+01
-1.0259855680060181e+01 1.0259855680060181e+01
-1.0259855680060181e+01 1.0259855680060181e+01
ITEM: ATOMS id x y z vx vy vz
8 -9.772 -9.41101 -9.48553 -0.849627 0.682037 -0.566966
29 -9.78643 -8.66835 -10.2338 0.733223 1.38961 -0.733682
7 -8.93747 -10.2251 -9.26213 -0.585583 0.222102 0.471056
1007 -0.166864 -1.97718 -4.34659 1.64163 0.149405 1.22626
11 -8.02685 -9.36147 -9.4477 0.379836 0.171179 -0.736084
1415 -0.0709555 6.92729 -2.61445 0.677324 0.0157454 0.248272
1295 -0.122228 -2.79972 -3.62558 -0.735107 0.138454 -0.526168
2790 -6.59228 10.18 -9.99959 0.385924 -0.730244 -1.24967
20 -1.97324 -9.58091 -9.39992 0.24784 0.254628 -0.650807
43 -0.881657 -9.33729 -9.66475 -0.238453 -0.759592 -0.158711
333 -0.166707 -9.33044 -8.89536 0.0833848 0.268183 0.0424441
32 -9.69507 -7.76427 -9.49885 0.0225246 0.170117 0.679252
31 -9.01297 -8.63361 -9.5629 -0.556772 0.158024 -0.762203
274 -7.24898 -8.54522 -9.38858 -0.453539 -0.873851 0.0489831
278 -8.11946 -7.91821 -9.30437 0.0015335 -0.372768 0.0330651
1954 -6.62374 8.51792 -0.120823 -0.171492 0.00653089 -0.577698
1587 -10.1749 2.18803 -2.60745 1.4239 0.203476 -0.0491922
3188 -2.78818 -8.67963 -9.4857 -1.13216 -0.637419 0.299531
41 -2.43704 -7.67543 -10.1099 0.0418406 -0.172102 -0.380373
336 -1.71842 -7.76744 -9.27803 -1.04867 0.149139 0.62867
44 -1.71019 -8.56349 -9.97649 0.28141 1.18804 0.0749122
330 -0.910189 -8.49184 -9.05317 1.02262 0.604536 0.252812
357 -0.678703 -7.57971 -9.81837 -1.14047 1.16172 1.73767
1584 -0.185412 -1.94634 -2.68183 0.245534 0.493745 1.85868
1527 -4.21531 -6.12062 0.00534377 -0.0745817 0.414805 0.228936
56 -9.7287 -6.12121 -9.3539 -0.594778 -0.151703 0.0827156
30 -8.81184 -7.03744 -9.44778 0.79911 -0.208347 -1.2244
1894 -0.423133 0.640195 -1.75541 1.37895 -0.504833 -1.22473
36 -7.83905 -6.16563 -9.35636 -0.218795 2.06877 -0.20796
246 -8.97446 7.65578 -10.0786 0.893877 0.83247 -0.600816
37 -2.59239 -5.9934 -10.0131 -0.0439327 0.611496 0.528355
376 -1.85755 -6.19724 -8.97056 -1.26572 -0.0775786 0.0601034
66 -1.7732 -6.79032 -9.99103 -1.30438 -0.0214719 -0.290706
61 -2.64772 -7.01813 -9.32728 0.479468 -0.100358 -0.0222289
638 -0.891646 -6.89843 -9.10611 -1.04296 0.0584151 -0.290418
491 -4.69513 2.04278 -10.0613 -0.389252 0.675119 0.118794
1503 -3.49563 -6.90614 -0.0175751 -0.227748 -0.195341 1.12701
80 -9.71862 -4.48882 -9.28305 -0.047723 0.923509 -0.431814
1348 -10.0372 5.03732 -3.73838 0.400798 0.6555 0.568977
78 -9.05909 -4.3754 -10.096 0.321994 -1.11173 0.0955846
633 -8.87789 -5.38782 -9.37096 -0.156908 -1.0287 -0.586475
372 -8.05544 -4.35316 -9.23241 -0.180062 -0.464016 0.0891295
3275 -7.958 -5.14038 -10.0772 0.394787 0.667691 -0.625626
92 -2.71747 -4.92188 -9.79683 0.220705 -0.218133 -1.05152
93 -1.72584 -5.23077 -9.99604 0.397244 0.908907 0.237279
72 -0.925826 -5.96857 -9.79803 0.428679 -0.743189 -0.547365
95 -0.94339 -5.31921 -8.95929 -0.364383 0.133474 -0.430018
77 -9.6831 -5.26896 -10.1378 0.650776 0.205158 -0.956444
101 -9.58227 -3.40577 -10.2298 -0.832958 -0.119832 0.269416
103 -9.00171 -3.56678 -9.30483 1.14269 0.0104537 -0.175052
105 -8.09666 -3.54058 -10.1648 -0.0242938 0.504851 0.445299
107 -7.36798 -3.56521 -9.26396 0.190399 1.07742 -0.213599
395 -6.23688 -3.40027 -9.77429 -0.886857 -0.406587 0.61586
133 -4.39215 -3.45045 -9.65859 0.228928 1.06441 1.14568
88 -5.36093 -3.44924 -9.17188 0.115315 0.9579 0.128379
350 -3.47578 -4.25345 -9.57798 1.08701 0.170798 -0.187957
378 -1.9924 -4.1946 -9.52668 -0.51779 0.505609 -0.58898
375 -2.86788 -3.31386 -9.44542 0.723829 -0.0330924 -0.725486
227 -9.15247 4.32275 -10.2499 -0.412153 1.34729 -0.297125
96 -0.871654 -4.42214 -9.74104 0.240508 0.579559 0.0626576
119 -0.0893482 -3.60316 -9.60399 -0.651594 -0.179344 -0.231961
115 -1.14609 -3.48728 -9.36093 0.446375 0.405709 0.346577
104 -9.64063 -2.81058 -9.37504 -0.838553 1.45895 -0.283375
414 -8.91398 -1.92838 -9.17413 -0.531676 0.42306 1.00583
125 -9.7756 -1.96408 -9.98848 0.128096 1.20639 -0.881846
127 -8.80981 -2.6659 -10.0007 -0.619798 -0.221795 -0.775169
393 -8.12251 -2.84861 -9.19309 0.0886752 1.17137 0.0712069
126 -8.05723 -1.8685 -9.9796 -0.0823503 -0.296735 -0.515167
441 -7.34448 -1.93947 -9.12745 0.992117 0.0120365 0.258804
390 -7.27582 -2.71849 -9.86523 0.218044 0.428176 1.16697
129 -6.32301 -1.86015 -9.84554 0.676187 -0.801693 0.83685
417 -6.56549 -2.65742 -9.07798 1.14446 0.629446 0.016331
397 -5.35279 -2.56851 -9.8037 0.511942 0.107748 0.0916597
445 -4.60624 -2.63616 -8.86843 -0.508032 0.171198 0.381305
418 -4.53853 -1.79029 -9.67725 1.02168 0.258582 0.141709
442 -5.65873 -1.93506 -8.97189 0.309686 -0.882426 0.0626804
3303 -3.70487 -2.50034 -9.52516 0.628172 -1.09634 0.418493
422 -2.96354 -1.73475 -9.39489 -1.07971 1.22868 -0.0504335
116 -1.99349 -2.64483 -9.42283 -1.5412 -0.0473253 -0.423183
435 -10.0298 -0.316937 -7.38201 0.285656 0.188303 -0.0289561
120 -0.4319 -2.58361 -9.37211 -0.482457 -0.745334 -1.20711
141 -0.447135 -1.5625 -9.97978 -1.51288 -1.2199 -0.234525
139 -1.31151 -1.77323 -9.32281 0.459486 -0.446358 1.33433
1247 -0.0565709 -5.25611 -2.90511 -0.456798 -0.0986599 -0.650394
128 -9.93706 -1.22186 -9.23722 -0.076109 -0.751237 0.458882
146 -9.8853 -0.404338 -9.93421 1.07351 0.213565 0.760127
150 -8.83842 -0.352606 -9.09972 -0.952022 0.511001 -0.382038
149 -9.00985 -0.995116 -9.9726 0.472412 -1.37992 0.836148
151 -8.05662 -1.15468 -9.15481 0.403274 -0.67477 -0.0981808
3324 -8.08375 -0.383882 -9.84473 -0.0188576 0.10997 -0.750495
465 -7.32303 -0.188818 -9.01205 -0.313594 -0.768365 0.964299
3297 -7.17211 -1.03133 -9.85433 1.42087 -1.35932 -0.107121
132 -6.49152 -1.11502 -8.94919 1.41978 0.806121 -0.963091
3300 -6.54335 -0.122773 -9.79503 0.399471 -0.00565886 0.310983
130 -5.49261 -1.13593 -9.67061 0.370303 -0.766453 1.11576
184 -4.70337 -0.193449 -9.35868 0.333273 -0.435836 -0.580835
3352 -5.71958 -0.286237 -9.02515 -0.210883 0.300263 -0.365991
1370 -10.0576 5.84592 -2.97098 0.304939 -0.326586 -0.637332
160 -3.81726 -0.940271 -9.44937 0.135938 1.1453 0.241849
134 -2.93678 -0.898876 -10.1602 -0.398834 0.308782 0.808677
159 -3.0089 -0.172717 -9.31463 -0.0199823 -0.165177 0.421565
140 -2.17941 -1.00657 -9.29944 -0.514785 0.675033 -0.106445
161 -2.17554 -0.092785 -10.1908 -0.221082 -0.152654 -0.972827
138 -1.24758 -0.926836 -10.0153 0.0760887 -0.646565 0.007002
144 -0.601575 -0.965327 -9.14384 -0.461036 -0.816706 -0.535538
163 -1.42455 -0.121819 -9.29684 0.5527 -0.81816 -0.180069
165 -0.512732 -0.117358 -9.93912 0.384846 0.6865 -0.27346
152 -9.78669 0.286545 -9.1361 -0.232085 -0.242418 0.372511
173 -9.78987 1.39444 -9.8738 0.23756 0.925261 0.71234
3343 -8.98731 0.37569 -9.86144 0.131567 -1.39801 0.375005
175 -9.1939 1.19171 -8.85093 1.13587 -0.802022 0.17089
156 -8.16127 0.515063 -9.03332 -0.109074 -0.571134 0.779542
490 -8.49211 1.3703 -9.61678 0.33315 -0.300135 -0.881094
177 -7.38481 0.617747 -9.7998 -0.54487 0.0716438 -0.43432
801 -7.32919 1.27369 -8.81847 0.822158 0.611047 1.53971
3347 -6.42306 1.40561 -9.65563 1.47611 0.0267219 -0.125623
178 -6.5628 0.624736 -8.77223 0.171463 0.359333 1.60597
39 -7.22621 -9.55774 -10.2031 -0.610744 -0.632998 0.220853
3328 -5.66321 0.667718 -9.35485 0.18661 -0.632202 0.740695
3326 -4.59185 0.757189 -10.1376 -0.436522 -0.0586947 0.224236
515 -5.54205 1.43282 -8.56717 -0.120854 -0.0252044 -0.475564
3351 -3.84488 -0.0868317 -10.1513 -0.877693 0.186271 0.336534
3371 -3.83221 0.564542 -9.29395 0.786178 -1.12543 -0.782128
182 -3.72662 1.5469 -10.0131 -1.47076 0.665883 0.472402
3327 -2.93336 0.819658 -10.1811 -0.199528 0.734035 -0.10289
164 -2.16349 0.862218 -9.20886 -0.0406418 0.261519 0.302916
189 -1.34129 0.796136 -9.96957 0.977894 0.917083 1.46916
168 -0.522976 0.703716 -9.0739 0.357801 0.838794 -0.495037
223 -9.13524 2.26344 -9.70223 0.287802 0.129191 -0.802811
3432 -1.45899 7.77469 -10.1759 -0.933772 -0.357303 0.116899
3372 -8.41894 2.09659 -8.80707 -0.0520772 0.105979 0.423002
2460 -7.93218 2.33419 -9.77873 0.678011 -0.817922 -0.337734
3373 -4.61164 1.39803 -9.22671 0.193655 -0.205093 0.525038
782 -3.75224 2.40407 -9.18465 1.01159 -0.476242 -0.309476
233 -2.7678 2.47231 -10.0917 -0.29146 0.592615 -0.779749
206 -2.92254 1.77964 -9.23025 0.134142 -1.05573 -0.151238
3332 -2.13688 1.60492 -9.98579 -0.0060791 -1.29318 0.461158
3375 -2.14011 2.44731 -9.13152 -0.162155 -0.717584 -0.0786352
187 -1.24679 1.59542 -9.0665 -0.758006 0.758981 0.156774
192 -0.491272 1.55281 -9.92012 0.677835 1.30359 0.316262
215 -0.433525 2.41688 -9.09357 -0.623253 -0.563953 -0.39793
213 -1.23658 2.37012 -9.95855 0.958016 0.649303 0.099522
225 -9.6083 3.35095 -9.5726 -0.76733 0.604987 -1.69718
3040 -5.39244 0.0764862 -10.2793 -0.0299238 1.26239 -0.645855
5068 -0.0396867 2.53058 -1.42888 0.142369 1.58648 0.0457385
487 -7.49174 3.30218 -9.2271 -0.414269 -0.315127 0.805848
3400 -3.35543 3.97835 -9.90675 -0.964224 1.37522 -0.589209
500 -2.8411 3.23985 -9.28353 1.12409 1.36283 0.693496
3404 -2.06365 4.09334 -9.32807 0.523512 0.25145 -0.418608
212 -2.08393 3.28523 -10.0752 -0.150111 -1.96512 0.251927
209 -1.2453 3.22211 -9.31895 0.267041 0.172085 -0.332789
3399 -1.33172 4.20528 -10.0934 -0.206433 -1.23175 -0.4037
3384 -0.522404 3.31879 -10.0746 -0.378803 -0.239439 1.01771
498 -0.616866 4.1202 -9.32165 -1.3327 0.0118829 1.24862
221 -10.0842 5.33606 -9.93054 0.412143 -0.272052 0.152017
506 -9.29542 5.02818 -9.42277 0.474608 -1.15409 0.356143
1414 -0.0569683 7.88408 -3.53468 -0.293201 0.735573 -0.294892
200 -8.56552 3.97517 -9.38677 0.716892 0.178134 0.104217
525 -1.31839 5.05044 -9.09912 -0.501777 0.30525 -0.613502
237 -1.90561 5.09804 -10.1413 0.222759 0.184734 -0.712893
54 -8.92454 -6.12302 -10.1352 -0.127989 -0.279953 1.17777
3403 -0.533415 5.04323 -9.95993 -0.00353195 -0.686082 -0.440256
261 -0.605546 5.79427 -9.26358 0.936959 -1.09282 0.996564
245 -9.85125 6.95162 -10.1519 -0.652355 -0.387354 -0.185896
224 -9.98318 6.28526 -9.22817 -0.690326 -0.564968 -0.221233
247 -9.00002 7.05836 -9.10412 0.919015 -0.437964 -0.454017
222 -8.85126 6.40173 -10.015 0.49845 0.184293 0.46458
983 -0.0580727 -3.55156 -4.37746 0.26564 -0.0895528 -0.0379959
3405 -0.473722 6.73584 -9.93369 -0.24097 0.366472 -0.0612318
248 -9.96807 7.60529 -9.2907 0.443353 -0.37121 -0.617853
271 -8.8815 8.50291 -9.3249 0.187214 -0.0623226 0.343647
982 -0.0400654 -2.74059 -5.19661 0.0556537 0.132381 -0.268117
722 -10.2195 0.599293 -6.71654 -0.305661 1.01513 -0.22296
252 -8.14786 7.80594 -8.88905 0.00883145 -1.07171 0.495554
273 -7.96278 8.5064 -10.062 0.347926 0.00028294 -0.350863
791 0.00634373 3.3219 -5.80198 1.12981 0.913456 0.334815
3455 -0.548534 7.41226 -9.14336 0.613253 0.556948 0.0132806
570 -1.20287 8.3875 -9.33729 -0.478078 -0.648836 -0.177243
282 -0.361934 8.31025 -10.1748 -0.942911 -0.338978 -0.0858896
272 -9.79856 9.37415 -9.39408 -0.569998 -0.206373 0.662532
270 -8.85213 9.35464 -10.1428 1.44706 -0.189524 0.527412
276 -8.2705 9.40492 -9.20259 0.0309147 0.770483 -0.640631
277 -7.58653 -10.2442 -9.21284 0.599927 -0.43393 0.154675
3180 -7.41293 9.42073 -10.2233 0.0135077 -0.464849 1.014
281 -2.37085 9.98378 -9.49674 0.163966 -0.0654059 0.319104
258 -1.97957 9.00215 -9.44953 0.241626 0.96731 -0.556747
305 -1.26029 10.1032 -9.38728 0.5043 -0.647969 -0.542847
23 -0.503274 9.25836 -9.36285 -0.553102 0.663414 1.03901
1439 -0.0420065 8.70577 -2.65488 1.00283 -0.486678 0.916317
296 -9.66017 -9.3594 -7.76046 0.187203 -0.766048 0.0672136
294 -9.01964 -9.34398 -8.6048 0.704415 -0.19039 0.922573
293 -9.69596 -10.2201 -8.34984 -0.594769 0.163238 0.593035
300 -8.37456 -9.32553 -7.7035 -0.967579 0.614028 0.596172
298 -7.44008 -9.6116 -8.21269 -0.344689 0.0212496 -0.194473
617 -2.14113 -9.55585 -7.87403 0.970906 -0.827064 -0.25846
306 -1.2155 -9.53412 -8.58427 -0.666055 0.906508 -0.221391
312 -0.449677 -9.49449 -7.84653 -0.4476 -0.336262 -0.0852136
317 -9.71659 -8.56044 -8.77235 0.274866 -0.783879 -0.858176
319 -8.95496 -8.44337 -7.69505 1.36292 -0.625639 -0.20866
320 -9.75504 -7.74596 -7.76932 -0.209254 -0.967251 -0.469549
318 -8.91884 -7.84126 -8.60119 -0.0275921 0.171765 0.367957
321 -8.1304 -8.70855 -8.55063 0.949017 -0.670644 -0.942639
322 -8.14827 -7.61583 -7.55417 -0.446074 0.297269 1.35451
323 -7.43236 -8.60707 -7.59726 -0.617222 -0.368656 -0.344732
35 -7.382 -7.85014 -8.49519 0.0285813 -0.865336 0.319049
326 -1.92426 -8.71404 -8.75668 -0.960124 -0.397027 0.0275378
329 -2.79578 -8.61059 -8.15129 -1.27336 0.527511 -0.283476
641 -1.2996 -8.76933 -7.90577 -0.463832 0.608798 0.576344
331 -1.22433 -7.77951 -8.30852 0.142684 0.717435 -0.190344
335 -0.120313 -8.43041 -8.09416 0.169967 0.2572 0.577321
341 -9.61422 -6.87772 -8.63415 -1.58054 -0.48571 1.05715
344 -9.71353 -6.01336 -7.74312 0.630306 0.0932249 0.366054
343 -9.0874 -6.87661 -7.65281 -0.917049 -0.303576 0.677836
342 -8.8061 -6.07734 -8.59416 -0.405586 -0.0422001 0.0370253
40 -8.20969 -7.05242 -8.436 0.145301 -0.0503534 -0.418433
324 -8.18775 -6.05147 -7.6071 0.517513 0.948415 0.134118
327 -2.21103 -7.42719 -8.39277 0.427086 -0.709233 0.0802751
645 -1.80973 -6.29065 -7.78849 -0.452765 -0.413134 -0.982875
359 -0.0748905 -6.85511 -8.14988 0.97702 1.51356 1.66082
356 -0.842848 -6.1465 -8.2216 1.27171 0.150867 1.33067
365 -9.62244 -5.25218 -8.4866 -0.770868 0.254706 0.775126
348 -8.90005 -5.17798 -7.64081 1.30296 -0.335614 0.18026
86 -8.16272 -5.26294 -8.47691 -0.643364 -0.731332 0.179274
367 -7.99776 -4.47971 -7.62979 0.135006 0.258233 -0.182584
79 -8.95515 -4.39764 -8.51465 -0.442533 0.623247 -0.215739
682 -6.39272 -4.25343 -7.71036 0.593983 -0.435664 -0.780928
684 -7.12977 -5.30314 -7.16703 -0.378466 0.232035 0.99693
112 -2.07213 -5.1199 -8.94996 0.465105 1.16998 0.378968
354 -1.33087 -5.09822 -7.89243 -0.272065 0.663135 0.42064
383 -0.164025 -5.19839 -8.08382 0.324598 0.0133515 -0.505345
368 -9.76041 -4.4628 -7.73026 1.09052 -0.0867087 -0.4435
389 -9.79915 -3.64941 -8.52012 0.0475728 0.421588 -0.94566
657 -9.03061 -3.65297 -7.66896 0.772479 -0.435443 0.287198
55 -8.27884 -3.61416 -8.46058 -1.54454 -0.788299 -0.212349
366 -7.41357 -3.58062 -7.66055 1.47316 -0.928095 0.93866
664 -6.54179 -3.41492 -8.36989 -0.968303 0.481141 -0.348979
709 -4.65209 -3.5207 -8.07367 0.606283 0.397434 -0.187434
419 -5.5678 -3.66608 -7.37798 0.276602 -0.0600266 0.218431
135 -3.72464 -3.51854 -8.82123 -0.666592 0.626604 -0.177502
400 -3.76144 -4.31247 -8.03692 0.0821053 0.199627 0.227785
1289 -3.06284 -3.48142 -8.00753 -2.00795 -0.167541 0.768127
399 -2.78862 -4.35251 -8.75863 -0.235212 -0.00386103 -0.0928743
668 -2.18732 -4.33752 -7.86809 1.0872 -0.0109723 -0.225302
401 -2.05208 -3.43747 -8.71048 0.295511 0.01205 0.130295
379 -1.4359 -4.33238 -8.66692 0.445387 -0.699568 -0.786697
403 -1.4925 -3.4222 -7.87967 0.95751 1.06438 1.0794
382 -0.217809 -4.42624 -8.82159 0.313627 -1.24694 -0.773853
381 -0.574296 -4.21461 -7.86002 -1.00875 -0.242063 -1.07462
405 -0.435933 -3.40546 -8.52891 1.27603 0.684731 1.68927
392 -9.86982 -2.76144 -7.6774 1.14646 -0.673151 0.0452546
391 -8.89019 -2.69152 -8.41535 -0.102206 0.229177 -2.19839
413 -9.91981 -2.14481 -8.57458 -0.200781 0.537523 -0.295136
725 -9.0346 -2.03152 -7.65479 0.482623 -0.0951446 -0.405217
678 -8.16819 -2.83915 -7.50238 -0.00760114 -1.34282 -0.635899
415 -8.07657 -1.92117 -8.45019 -0.321649 0.790437 0.560139
658 -7.39315 -2.7924 -8.3546 1.19623 1.24983 -0.0597745
420 -7.33854 -1.97306 -7.53808 0.333956 -0.7028 -0.245744
443 -6.44398 -2.00282 -8.20356 -0.0572805 -1.63206 -0.355484
369 -6.425 -2.75194 -7.44919 0.197026 0.26429 -0.479912
396 -5.54688 -2.78881 -8.21461 -0.390191 0.0161649 -0.112272
733 -4.91186 -1.87229 -8.11673 0.192667 -0.316927 1.67768
136 -3.86433 -1.75977 -8.61779 0.575221 0.826397 -0.965615
712 -3.83118 -2.63652 -8.02002 0.937765 -0.511191 -0.420075
713 -3.00235 -1.87639 -7.80503 0.550397 -0.858207 1.03545
398 -2.9087 -2.562 -8.60525 0.923968 0.628566 0.706844
404 -2.10715 -2.56106 -7.91777 0.103445 -0.644485 -0.826691
425 -2.14103 -1.86227 -8.67987 -0.101778 0.924254 0.196358
427 -1.42244 -1.73925 -7.6385 -0.33859 0.163086 0.118712
402 -1.24648 -2.66593 -8.59932 1.59717 -0.103503 -1.2483
408 -0.578032 -2.65488 -7.71408 1.01292 -0.147978 -0.447074
429 -0.627043 -1.83736 -8.37548 0.222209 0.57742 -0.0177375
416 -9.83079 -1.31458 -7.84599 -0.58921 0.491297 -0.37557
437 -9.82031 -0.409749 -8.39555 1.13056 0.558843 -0.15002
440 -8.89288 -0.418315 -7.49112 -0.469341 0.730666 0.0591148
439 -8.90936 -1.14597 -8.40733 0.427238 -0.940695 0.174444
726 -8.17455 -1.26474 -7.51487 -0.193246 -0.344605 -0.309239
468 -8.18666 -0.351833 -8.21355 -0.55551 0.288272 1.15084
203 -7.29543 -0.486375 -7.29272 -0.370643 0.623946 0.192941
753 -7.32057 -1.18706 -8.33653 -0.21844 -0.535111 -0.209282
153 -6.44757 -0.309657 -8.24894 -0.712202 0.27917 -1.01366
1018 -6.57619 -1.19432 -7.48328 0.870022 -0.154687 0.205208
155 -4.78954 -1.10056 -8.91009 -0.438968 -0.0549624 -0.464186
448 -5.65146 -1.05453 -8.16911 0.659893 -0.413426 -0.731222
467 -4.84999 -0.361412 -8.07178 -0.181172 0.214941 -1.4754
158 -3.82814 -0.182186 -8.54848 -1.0326 -0.759384 0.452941
446 -3.85696 -0.945589 -7.7492 0.187766 -0.562131 0.40809
183 -3.05605 -0.143339 -7.84446 0.217722 0.0443242 0.0488177
423 -3.10478 -0.986883 -8.58048 -1.11402 0.942584 0.394547
428 -2.247 -1.0209 -7.78581 -0.944737 0.187089 -1.10947
449 -2.20677 -0.0939606 -8.51565 -1.08867 0.222987 -0.768512
426 -1.47061 -0.951071 -8.52484 -0.367278 -0.360338 0.418955
432 -0.639778 -0.98759 -7.59055 -0.389323 1.69114 -0.297253
451 -1.49421 -0.198349 -7.72049 -0.557723 -0.0262887 0.604942
453 -0.638269 -0.0672986 -8.32404 0.103522 -0.00921435 0.315946
1930 -5.07771 6.8134 -0.0337834 -0.555451 -0.267067 0.154675
438 -9.00619 0.339643 -8.2798 0.0205067 -1.5813 -0.307535
749 -9.28107 0.549414 -7.25298 0.171894 -0.423178 1.21576
466 -8.28081 0.406893 -7.44575 0.456148 0.393347 1.1813
180 -8.29961 1.16279 -8.20796 1.02586 0.0779392 -0.16146
1355 -7.52669 1.2377 -7.3693 -0.158762 0.0332842 -0.207592
463 -7.39922 0.40914 -8.10695 0.0523974 -0.146276 -0.107319
179 -6.63446 1.32044 -7.97292 -1.33556 0.0781272 -0.906735
154 -6.6039 0.376149 -7.36502 0.205437 0.538957 1.28399
204 -5.69561 0.423574 -8.14888 0.144169 -0.273591 -0.603579
470 -4.66833 0.567579 -8.40574 -0.696947 0.256486 0.586288
781 -4.6227 1.3947 -7.67186 0.475913 -0.173128 0.442472
469 -3.87436 0.635879 -7.78692 0.284734 0.227709 -1.05433
207 -2.97892 0.740046 -8.48113 -0.680726 0.751716 -0.441588
231 -3.84911 1.6294 -8.39592 -0.273094 -0.752998 -1.29195
471 -3.05904 1.46816 -7.76252 -0.467954 -0.0474573 0.00954213
473 -2.27535 0.792492 -7.65467 -0.570488 -0.118512 -0.0483564
450 -1.37866 0.711652 -8.47699 -0.175438 0.638526 -1.08544
185 -2.11117 1.65534 -8.35662 -0.469925 -0.745784 1.18657
474 -1.47395 1.62362 -7.47032 0.107947 0.463662 -0.579971
477 -0.685423 0.717491 -7.56813 -0.191681 0.898985 0.875826
461 -9.26791 1.52286 -7.84248 -1.47137 -0.398819 0.319984
176 -9.43825 2.2198 -8.57107 -0.80745 -0.294661 0.392083
485 -8.63647 2.32306 -7.78032 0.40845 0.882683 0.579503
199 -7.64577 2.05323 -8.04168 -0.17788 -0.14859 -0.0269251
2746 -6.89449 2.36987 -8.69731 -0.652957 -0.509221 0.009627
3060 -6.7851 2.07235 -7.23388 0.193041 -1.15265 -0.0672782
775 -5.77552 2.17918 -7.95285 -0.261889 0.421448 -0.812734
205 -4.71159 2.2174 -8.40332 -0.321832 0.0241067 0.24418
232 -4.01137 2.34936 -7.6216 -0.638695 0.00366473 -1.26262
783 -3.83334 3.24998 -8.60073 0.658019 -0.774719 0.336752
230 -3.00455 2.51593 -8.50337 0.233608 -0.209374 0.326153
188 -2.24745 2.4135 -7.59178 0.407906 0.647631 0.157735
211 -1.32017 2.4223 -8.38333 0.229987 -0.927067 0.806592
501 -0.586572 1.49425 -8.2717 -1.14072 0.709892 -0.641321
480 -0.712797 2.28758 -7.52073 -0.540044 0.718716 0.201193
1030 -0.00399574 0.824857 -4.9577 0.0233937 0.150299 1.31749
228 -9.5523 4.07056 -8.78855 -0.446187 0.490805 0.395109
774 -9.57509 3.29147 -7.9942 -0.299877 0.178962 -0.307512
513 -8.905 3.11432 -8.80976 0.81173 0.630387 -0.0918674
1069 -3.11678 3.40973 -7.5992 0.26974 -0.451594 0.416679
236 -2.16028 3.20829 -8.43925 0.604476 -1.2123 -1.49113
499 -1.40132 3.09341 -7.56766 0.532163 0.658412 -0.517215
788 -1.4452 4.17702 -8.52544 0.79925 -0.918318 -0.753167
497 -0.614897 3.25987 -8.3405 -0.849788 -0.602964 0.114457
502 -0.700904 4.05251 -7.55713 0.968932 -0.555301 0.40906
510 -9.62011 5.08974 -7.8053 0.573055 0.060501 -0.68736
784 -1.99934 4.0901 -7.60718 0.558021 -0.457622 -0.178234
805 -1.32294 4.98762 -7.50735 0.183827 -0.69265 -0.767926
239 -0.615896 4.83068 -8.29336 0.807636 -0.475098 0.559278
12 -8.12125 -8.55247 -10.1608 -0.0314078 -1.83927 -0.0558394
3396 -9.04081 5.89841 -8.60527 -1.55709 0.858312 -0.32349
533 -9.93591 7.01771 -8.39814 -0.824275 -0.962711 0.215177
3109 -9.26719 7.16213 -7.5239 1.09774 -0.545345 -1.0762
537 -9.12332 6.15143 -7.55073 -0.596664 -0.0416333 -1.81052
3144 -1.34513 6.04526 -10.1818 1.63235 0.118456 0.331944
240 -0.56364 5.84191 -7.43884 -0.201528 0.363668 -0.0133421
521 -1.24169 5.82017 -8.37987 -0.403391 -0.139396 0.736098
549 -1.36049 6.5846 -7.58588 0.157732 -0.426593 -0.319081
285 -0.425524 6.60942 -8.43139 0.161055 0.258355 -0.828141
536 -9.92073 7.90844 -7.68881 -0.633852 0.071579 -4.28598e-05
534 -9.20363 7.84867 -8.42719 0.918283 -0.00457562 0.606965
559 -9.07002 8.64337 -7.58457 0.183685 0.215567 0.0329318
557 -9.91738 8.71365 -8.47126 -0.0621691 0.785636 1.30954
561 -8.27497 8.74786 -8.3575 -0.200658 -0.182244 0.615931
253 -8.30691 7.77545 -7.60745 0.0442574 0.193115 -0.00431414
569 -2.9774 8.57237 -7.65842 0.231503 0.491647 0.672896
283 -2.19434 7.68253 -7.71558 -1.33867 0.0150882 -0.643941
566 -2.03436 8.50824 -8.43874 0.476856 -0.829446 1.17023
546 -1.18308 7.37614 -8.29897 -0.104061 -0.281183 1.16389
573 -1.24736 8.41332 -7.66336 -1.15154 0.732038 -0.918831
552 -0.513982 7.60608 -7.39026 -0.622595 0.890297 -0.643227
264 -0.554148 8.53017 -8.45658 -0.460143 0.127084 -0.68655
295 -9.01313 10.2817 -7.5414 0.376282 0.750883 0.546116
558 -9.02934 9.44059 -8.38463 -1.92499 0.0978693 0.399912
560 -9.93438 9.45363 -7.71875 -0.19281 -0.420502 0.396378
297 -8.33445 -10.1338 -8.40881 -0.399662 -0.672714 -0.357916
299 -7.57615 -10.3043 -7.46569 0.952311 -1.26105 -0.0776467
564 -8.17237 9.38104 -7.43641 0.469442 -0.237513 0.835765
562 -7.5286 9.63715 -8.32606 -0.12792 0.320908 1.16545
308 -2.07734 10.1878 -8.51251 0.716192 -1.21632 0.558782
303 -2.7907 9.29077 -8.76315 0.0216712 -0.0594095 0.0570795
854 -2.92374 -10.2716 -7.82643 0.234151 -0.724121 -0.0633251
572 -2.09058 9.44324 -7.86817 -0.329041 -0.555031 -0.519299
307 -1.25652 -10.2168 -7.7904 -0.0966007 0.357023 0.183363
309 -1.26374 9.37744 -8.58079 0.00250346 -0.213935 0.292073
310 -0.388116 10.0114 -8.63033 0.488856 -0.36029 0.0620424
576 -0.464915 9.35286 -7.70555 0.0343032 -1.03401 0.0596035
584 -9.89121 -9.34304 -6.14239 -0.565753 0.133009 1.05638
582 -8.98073 -9.30622 -6.80078 0.539568 1.0807 0.985062
581 -9.94634 -10.1371 -6.99954 0.336654 0.266771 0.429502
583 -9.18667 10.2231 -6.07249 -1.32945 0.0575621 -0.194862
588 -8.35743 -9.25356 -6.01722 -0.317677 0.734459 -1.08012
586 -7.42043 -9.31507 -6.71471 -0.131011 0.537482 0.641147
10 -5.52088 -9.51037 -6.41535 -0.679609 0.163819 0.309038
589 -4.7329 10.0343 -6.19902 0.858559 -0.20095 0.614959
284 -3.77078 -8.71927 -6.99258 0.841334 1.00938 -0.379417
15 -4.02575 -9.59431 -6.39543 -0.178324 -0.314691 -0.205344
332 -2.88113 -9.52408 -6.88509 0.951969 -0.0294057 -0.679031
596 -2.23695 -9.62654 -6.10383 -0.0400215 -0.873688 -0.069953
594 -1.29618 -9.37847 -6.97185 -0.19784 0.263545 0.30123
600 -0.457454 -9.64824 -6.06986 -0.456682 0.56742 0.172765
595 -1.3536 10.1856 -6.07231 -0.317815 0.609684 -0.723362
607 -9.13051 -8.50865 -6.03333 0.36715 0.0332009 -0.23669
605 -9.79997 -8.51486 -6.89629 -0.0813292 -0.901391 -0.197673
608 -9.9135 -7.81335 -6.0889 0.317224 -0.325972 -0.585461
606 -9.08901 -7.65793 -6.90668 0.164407 -0.9314 0.608379
609 -8.2161 -8.50755 -6.82677 0.854334 -0.677326 -0.386251
612 -8.27048 -7.77287 -6.02822 0.444764 0.659967 -0.715483
347 -7.46037 -7.71923 -6.63963 -0.647665 0.441393 -1.12758
971 -6.53894 -8.24215 -6.96992 -0.170279 1.45772 -0.954029
563 -4.73356 -8.69692 -6.24708 -0.150573 -0.963918 0.9746
637 -5.59103 -7.83383 -6.50157 -0.0119422 -0.728796 -0.00176133
665 -3.87873 -7.82995 -6.50084 -0.474229 -0.770363 0.43108
328 -3.07699 -8.76273 -6.22535 -0.305486 -1.67965 -0.361485
325 -2.86732 -8.05526 -7.10028 -0.530525 -0.56352 -0.461222
618 -2.03845 -8.68801 -7.02065 0.486239 -1.23774 1.23552
929 -2.16722 -7.97984 -6.17093 0.0528672 0.0560911 1.51744
619 -1.40077 -8.79485 -6.05068 -1.01722 1.03015 0.528453
622 -0.226401 -7.65359 -7.23371 -0.848545 -0.376767 0.647193
621 -0.514318 -8.6777 -6.89049 0.208141 -0.512934 -0.655845
355 -1.30184 -7.86709 -6.97205 1.45957 -0.00487547 -0.992125
624 -0.54959 -7.8645 -6.18203 0.0190422 0.222852 -0.13069
631 -9.12761 -6.86053 -5.99667 0.700386 0.797401 0.0153506
629 -9.90277 -7.01763 -6.98892 -0.493492 0.437854 1.27428
632 -9.82891 -6.10799 -6.12243 -0.227059 -0.439605 -2.15828
630 -8.96973 -6.09248 -6.91007 -0.727366 -0.503313 -0.308793
634 -8.28061 -6.88872 -6.73766 -0.357184 0.273347 -0.111277
636 -8.20966 -6.02482 -6.10816 0.254204 1.29516 1.00599
616 -7.41753 -6.25818 -6.87794 0.508947 0.722363 -0.0101633
659 -6.69879 -5.94194 -5.9629 -0.454537 0.30933 -0.306192
613 -4.82226 -7.05726 -6.40164 0.756304 -0.188367 -1.17283
614 -4.79269 -6.13723 -5.69671 0.728551 -0.356482 -0.212846
974 -3.72142 -6.09861 -6.38388 0.272899 -0.73525 0.637927
349 -3.0678 -7.14663 -6.21489 0.0165736 -0.0306265 -0.725747
648 -2.15889 -7.18401 -6.94066 1.01758 -0.399559 -0.0270878
953 -2.24489 -6.20145 -6.25643 0.722975 -0.0275769 0.151992
424 -2.92438 -6.3222 -7.41854 0.0932614 0.0796831 0.556049
643 -0.992412 -6.92518 -7.32603 1.10378 0.11996 0.451537
669 -0.235254 -6.10943 -7.19624 0.568464 0.0824653 -1.0648
955 -1.38066 -7.03443 -6.27344 0.102005 0.424116 -0.880258
4369 -0.320608 -6.90711 -6.49294 -0.262507 0.366454 -0.366381
644 -1.356 -5.95135 -6.81415 -0.880635 0.289551 0.925052
653 -9.83662 -5.23982 -7.03973 -0.578111 -0.275486 0.321809
655 -9.04534 -5.29361 -6.07082 0.335916 0.619361 -1.66656
654 -9.0609 -4.4569 -6.8339 0.26822 1.10586 -0.492235
656 -9.91498 -4.43398 -6.14834 0.362084 1.51688 0.794458
969 -8.18088 -5.15966 -6.90921 0.902185 -0.576509 0.915849
688 -7.18441 -4.3472 -6.68562 0.453333 0.114308 -0.879772
681 -8.21007 -4.40876 -6.07368 -1.09858 0.495896 -0.342822
685 -4.78129 -5.29477 -6.51644 0.00117194 -0.455863 1.24516
977 -3.09775 -5.10744 -6.35315 0.325131 0.290197 0.198331
374 -3.06799 -4.49918 -7.25465 -0.405919 -0.0548774 0.989197
691 -2.34179 -5.3759 -7.05939 0.724257 -0.578393 -0.286902
647 -0.590539 -5.95111 -6.12187 0.227819 0.320095 -0.990493
667 -1.4574 -5.04558 -6.24733 0.0067528 -0.197777 -0.414982
672 -0.63232 -4.97162 -7.12913 0.0389418 0.435121 -0.512752
677 -9.89297 -3.60687 -6.88861 -0.379731 -0.575256 -0.594062
966 -9.06415 -3.75722 -6.07272 -0.246274 -0.161929 -0.575462
679 -8.09517 -3.66731 -6.88119 -0.738852 -0.432782 -2.38487
707 -6.41987 -3.64511 -6.72391 0.121662 0.307466 -0.761797
352 -4.63944 -4.39315 -7.38663 0.877738 -0.884899 0.871053
1282 -5.59862 -4.37239 -6.52941 -0.463571 0.467193 -0.927321
421 -4.7941 -3.6324 -6.60479 0.90706 -0.264409 -0.414377
373 -3.84987 -4.21376 -6.59028 0.254291 -0.195227 0.764489
686 -3.83907 -3.46418 -7.27092 0.233618 0.376459 0.493309
980 -3.22976 -3.48967 -6.1848 -0.168646 -0.0826313 0.269768
978 -2.40964 -4.29742 -6.36529 -0.265492 -0.12846 1.15003
380 -2.54574 -3.51463 -7.12263 -1.08739 -0.468041 0.739568
692 -1.55386 -3.47561 -6.21769 -0.503056 0.928339 -0.550215
666 -1.54194 -4.30293 -7.04623 -0.120806 0.810388 0.322787
690 -0.766152 -4.26571 -6.15074 -0.160212 -0.658826 -0.681139
384 -0.725116 -3.41898 -7.0066 0.0679267 0.974001 -0.678751
680 -9.96457 -2.97626 -5.99675 0.619648 -0.235036 0.145379
970 -9.10316 -2.87873 -6.84403 0.0118486 -0.288681 1.22042
701 -9.8629 -2.08965 -6.81391 -0.695477 -0.845402 -0.145379
702 -9.22951 -2.13539 -5.97571 -0.381833 0.372557 1.43733
993 -8.32057 -2.92954 -6.01137 1.28844 0.192563 -0.814924
708 -8.39763 -2.0662 -6.77827 -0.640949 -0.962646 -0.437002
683 -7.27112 -2.85264 -6.77498 -0.916024 -1.11072 -0.0144615
705 -6.46721 -1.94893 -6.73989 2.03587 0.541665 -0.442561
730 -5.64126 -1.7569 -7.40155 0.0716973 0.48896 0.146931
757 -4.71355 -2.70744 -7.32927 -0.137199 -0.0571521 -0.670985
731 -5.63114 -2.79117 -6.66513 0.077864 -0.281102 0.401697
1021 -4.8738 -1.92086 -6.49773 0.268894 1.18977 0.455949
711 -3.94193 -2.66562 -6.29072 -0.157398 0.18183 0.64402
736 -3.94836 -1.8559 -7.0748 -0.45899 0.0322727 0.119297
998 -3.13485 -1.89843 -6.22589 -1.15867 0.561369 -0.132658
689 -3.1377 -2.6587 -7.07467 0.236895 -0.249699 1.16037
716 -2.2322 -1.75284 -6.86836 1.67956 0.75168 1.55504
1001 -2.36628 -2.76418 -6.2273 -0.343307 0.501378 -0.554924
693 -1.61565 -2.57711 -6.99993 0.426576 -0.421096 -0.275443
715 -1.56314 -1.72766 -6.03139 -0.39766 0.137648 -0.538834
717 -0.655212 -1.81466 -6.87901 -1.19232 -0.145692 0.320165
696 -0.767598 -2.64849 -6.11605 0.603895 -0.702541 0.156897
728 -9.10219 -1.23169 -6.81907 -0.331785 -0.314717 0.659815
752 -9.51579 -0.235117 -6.48762 -0.442865 0.0705415 -0.247692
750 -8.37272 -0.464278 -6.59108 -1.70855 0.566813 0.955113
727 -8.45507 -1.32402 -5.89839 0.384744 -0.459619 -0.674064
729 -7.56579 -1.30615 -6.67041 -0.150411 1.18204 0.549688
754 -6.43452 -0.291074 -6.55547 -0.189493 0.0804066 0.144348
1043 -5.74579 -1.08005 -6.53516 0.812941 -0.219905 -0.380592
1042 -5.64978 -0.270003 -7.35782 -0.621463 0.209383 -0.468667
734 -4.82071 -1.08825 -7.15374 -0.14517 -0.0702419 0.443854
1045 -4.88287 -0.3046 -6.4039 -2.02303 -0.142464 0.0405224
737 -3.06261 -1.01604 -7.14935 0.337796 -0.0849702 0.39338
710 -3.93082 -0.266498 -6.96319 -0.996132 -0.079538 -0.972349
735 -3.7945 -1.11747 -6.28846 0.97341 0.251301 0.668387
758 -3.16483 -0.207226 -6.08632 0.646569 0.0127942 -0.160592
447 -2.3281 -0.199448 -6.90917 -0.686646 0.525329 0.587048
739 -2.375 -1.0007 -6.10598 0.345125 0.614212 0.109657