ITEM: TIMESTEP
109000
ITEM: NUMBER OF ATOMS
6912
ITEM: BOX BOUNDS pp pp pp
-1.0259855680060181e+01 1.0259855680060181e+01
-1.0259855680060181e+01 1.0259855680060181e+01
-1.0259855680060181e+01 1.0259855680060181e+01
ITEM: ATOMS id x y z vx vy vz
8 -9.68217 -9.38101 -9.35995 -1.20996 0.0153983 -1.18786
7 -9.09785 10.129 -9.34272 0.186399 0.889117 -0.680246
11 -8.10121 -9.74934 -9.30477 0.226765 0.158156 -0.173572
3180 -7.24588 10.1217 -9.32195 -0.655539 0.32937 0.152097
20 -1.88969 -9.71811 -9.56175 -0.779439 1.16685 0.788096
43 -0.840396 -9.52307 -9.78571 0.194968 -1.32608 -0.587796
333 -0.115114 -9.53675 -9.02696 -0.442993 0.941854 1.35113
32 -9.59307 -7.84205 -9.41258 0.0866876 -0.256565 0.160503
31 -8.88365 -8.61738 -9.08417 -1.38909 0.0203554 -0.41254
110 -2.72535 -4.22484 -10.2127 -0.610713 -1.09675 -1.14183
278 -8.11112 -7.83395 -9.3046 1.09937 -0.0800476 0.276269
273 -8.06566 8.392 -10.1913 1.52312 -0.322924 0.585173
2195 -1.96369 8.39778 -10.2154 0.346918 1.18905 -0.0293022
274 -7.47514 -7.61662 -10.2094 2.0372 0.62028 -1.01298
44 -1.5986 -8.66564 -9.95756 0.678353 0.0792994 -0.420725
336 -1.6152 -7.8708 -9.17268 -0.258676 0.282757 -0.976439
41 -2.43069 -7.87113 -10.0719 -0.254545 -0.0485814 -0.602752
357 -0.677885 -7.69083 -9.90646 -0.690339 -1.65897 1.26997
330 -0.747 -8.66403 -9.08289 0.485298 0.593259 -1.2148
134 -2.82881 -0.893887 -10.1851 -0.117975 -0.179608 -0.395957
1806 -8.16515 -5.17388 -0.0977597 -0.973055 -0.404329 -0.0908897
56 -9.59509 -6.12495 -9.39022 0.303524 -0.842323 0.0406462
30 -8.80474 -7.04315 -9.35893 -1.0285 0.580641 0.338297
36 -7.95579 -6.10546 -9.46235 0.309645 -0.450175 -0.516183
3367 -8.01868 2.24705 -10.1572 0.134926 -0.000751708 0.434627
2482 -3.70289 -6.36183 -9.65811 -1.16384 -0.0958334 0.171591
37 -1.59749 -5.94334 -9.21879 1.09147 -0.442672 -0.211258
3452 -2.47444 -5.99812 -9.93627 0.329883 -0.702087 0.86288
66 -1.42125 -6.88848 -9.79386 0.257909 -0.120667 0.311797
61 -2.41717 -7.01799 -9.4061 0.276109 0.350322 -0.743946
638 -0.776059 -6.95514 -9.04462 -0.763795 0.0346393 0.274889
72 -0.76543 -5.92633 -9.77306 1.23469 0.543639 0.422483
360 -0.0691935 -5.91079 -8.80335 0.753605 0.754254 -1.21358
83 -5.2743 -5.35016 -10.1286 -0.511191 0.0474603 0.238951
633 -8.7258 -5.25498 -9.30797 -0.356535 0.287255 1.17207
743 -0.0914388 -0.0681627 -5.92599 -0.972535 0.211427 1.56603
81 -7.30188 -5.31045 -9.36239 -1.17159 -0.245385 0.92094
2989 -6.3782 -4.35354 -9.26138 -0.307253 -0.788586 0.207875
3277 -4.80013 -4.28587 -9.0051 -0.149852 0.547259 -0.227814
1451 -7.47444 -9.50927 -0.074184 0.390676 1.02851 0.063741
109 -8.31103 -6.95993 -10.2328 0.654524 1.17021 -0.977335
92 -2.86278 -6.28231 -8.82085 -1.80984 -0.51634 0.45275
93 -1.59882 -5.21369 -9.94986 0.198773 0.476606 0.146566
95 -0.914537 -5.21174 -8.8757 1.27723 -0.399521 0.0425384
1925 -9.87968 4.99129 -0.0753731 -0.379865 -0.432672 -0.618246
80 -9.47062 -4.40026 -9.29645 0.44383 -0.525825 0.228121
103 -8.87515 -3.49555 -9.28834 0.676608 1.54084 -0.325662
12 -8.27842 -8.92785 -9.9415 -1.57581 0.217419 1.15326
372 -8.04684 -4.31143 -9.25865 0.788765 -0.786791 0.2149
105 -8.07413 -3.39637 -9.94191 -0.913098 -0.0381992 0.00515036
107 -7.26737 -3.45327 -9.15732 -0.0446625 -0.0810762 -0.797401
395 -6.49974 -3.36489 -9.94207 1.33939 1.33485 -1.19976
370 -7.19992 -4.26635 -10.0328 -0.247498 -0.161388 -0.800855
684 -5.56167 -3.42615 -9.09409 -0.430421 0.104719 0.395024
133 -4.58513 -3.50637 -9.74138 0.38775 -0.381457 0.672187
3250 -5.57756 -4.1459 -9.98836 0.361125 0.506019 1.19366
350 -3.67101 -4.31944 -9.53846 -0.603971 0.376806 0.726807
399 -3.1639 -4.11297 -8.65221 0.37364 -0.0125415 0.115636
375 -2.94723 -3.43278 -9.61153 -0.487677 -0.0943513 -0.376518
378 -1.72877 -4.15226 -9.69086 0.174506 0.88612 0.988025
1657 -10.2222 6.0119 -1.45135 0.468808 0.509832 0.869856
96 -0.758782 -4.52928 -9.78131 0.252998 0.206649 0.0254677
115 -1.2604 -3.32142 -9.29815 -0.630218 0.298443 0.728016
119 -0.186396 -3.60223 -9.57354 0.272729 0.00126266 1.3076
382 -0.0364497 -4.35641 -8.8484 -0.409335 -0.251855 -0.553012
104 -9.68821 -2.85944 -9.30214 -0.207907 -0.630074 0.582866
125 -9.74663 -1.98109 -10.0964 -0.913782 -0.459029 -0.719087
414 -8.93031 -1.9668 -9.23785 0.166489 -0.590607 -0.64612
127 -8.95779 -2.73905 -10.0438 -0.653711 -0.286402 -0.331251
393 -8.16146 -2.64614 -9.27419 0.801818 0.801151 -2.01023
126 -8.15434 -1.90738 -10.0379 0.0561893 -0.246076 -1.54271
441 -7.50887 -1.8492 -9.19029 -0.349466 0.040584 1.01047
390 -7.27459 -2.59485 -9.8651 -0.612927 -0.753232 0.354224
417 -6.43923 -2.66494 -8.96844 -0.683773 -0.748651 0.204133
129 -6.43595 -1.91078 -9.86684 0.470606 0.429482 -1.14645
397 -5.44873 -2.72961 -9.84394 0.194606 0.696267 -0.332597
418 -4.69663 -1.92802 -9.64885 -0.524709 0.273807 -0.90377
442 -5.55621 -1.88093 -9.06514 -0.477166 -0.181803 -1.37248
3303 -3.7534 -2.6227 -9.65944 -0.0522814 -1.02001 0.236978
422 -2.95335 -1.69338 -9.3839 0.532259 0.805068 -1.4658
116 -2.1826 -2.59909 -9.3298 -0.383023 1.09118 0.145317
78 -8.67206 -4.30351 -10.0367 -0.604006 0.686573 -0.662036
1078 -0.333076 4.21691 -5.06804 0.0967621 -0.134243 -0.320149
17 -1.14174 9.17393 -10.1603 -0.592526 -0.287368 -0.610732
120 -0.475138 -2.50012 -9.3756 -0.866686 -0.620374 -0.0725567
141 -0.538961 -1.60002 -9.94347 -0.673008 -1.0355 1.22492
139 -1.4175 -1.57459 -9.15567 0.482623 0.0504052 -0.0807196
128 -9.68759 -1.12585 -9.14147 -0.331904 0.0715338 0.378556
146 -9.69753 -0.159472 -10.0217 -0.0842642 -0.556595 0.288121
150 -8.9725 -0.212181 -9.16622 0.260521 -0.593095 -0.713522
149 -8.88549 -0.973594 -9.92383 0.263335 0.980465 0.416777
151 -8.1762 -1.03372 -9.08125 -0.456709 -0.659781 1.67316
3324 -8.03464 -0.299232 -9.83428 0.0977709 -1.00627 0.461241
465 -7.31546 -0.0846629 -8.86496 -1.57981 0.0729804 0.703642
3297 -7.325 -1.1384 -9.96445 1.54458 0.639727 0.158119
132 -6.34826 -1.13555 -9.04106 0.290173 1.39335 0.387796
130 -5.62689 -1.22094 -9.86839 -0.23065 -0.504361 -0.311842
184 -4.52576 -0.0903594 -9.65439 0.404501 0.170307 -0.241685
155 -4.64502 -1.05147 -8.66528 0.553223 0.0244506 0.0849998
3040 -5.47285 -0.0808776 -10.0811 -0.420213 -1.17989 -0.160122
160 -3.69446 -0.878607 -9.50604 -0.520359 -0.172186 1.38199
159 -3.0464 -0.00812854 -9.30026 1.24058 -0.515607 -0.0435053
140 -2.217 -0.792703 -9.3233 -0.55981 1.44371 1.67915
161 -2.19927 0.0951675 -10.0951 1.45829 -0.530683 0.76547
723 -10.1495 -1.1022 -4.73357 0.0390056 -0.368922 0.0292881
138 -1.37514 -0.784322 -10.0075 -0.417704 1.25312 -0.520206
144 -0.494819 -0.876498 -9.22517 0.525552 0.074906 -1.80352
163 -1.33421 0.037655 -9.32849 0.322273 -2.01466 0.0237518
152 -9.8744 0.643193 -9.10338 -0.748812 -0.776171 0.310942
173 -9.78464 1.17728 -9.96838 -0.719689 -0.5975 -1.13212
175 -9.22987 1.44818 -9.01114 -0.487853 -0.13142 -0.0217493
3343 -8.85776 0.470259 -9.94009 -0.0560363 -0.697883 0.650541
156 -8.28524 0.51801 -8.90647 -0.73397 0.821453 1.56222
801 -7.37086 1.41153 -8.75135 0.682312 -0.750436 0.344829
490 -8.317 1.38195 -9.63993 -0.501161 -0.601275 0.0731103
3300 -6.44947 -0.170254 -9.51303 -0.528295 -0.209635 0.0710897
177 -7.29803 0.75586 -9.60886 -0.997678 -0.370645 -0.922945
526 -0.009006 4.94614 -7.47032 0.00245858 -0.295016 0.198087
3328 -5.72749 0.60548 -9.23026 0.344797 0.195273 -0.237903
887 -0.0467991 10.2192 -4.38066 0.0107976 0.5739 0.602503
3371 -3.8091 0.704041 -9.32648 0.274641 0.777746 1.73998
3327 -2.93658 0.89989 -10.059 -1.50833 0.667194 0.417026
164 -2.09516 0.794522 -9.25762 1.53201 -0.840147 0.326206
165 -0.507639 -0.0246211 -9.97394 -0.4122 -0.200557 0.419317
189 -1.28078 0.7948 -10.093 -1.12515 -0.0860374 -0.472762
168 -0.596144 0.75581 -9.24092 0.327988 0.450812 0.328676
223 -9.06468 2.49818 -9.92141 0.251945 -1.08421 1.39483
176 -9.4208 2.64413 -8.8671 -0.231839 0.710311 1.3289
197 -10.244 2.60406 -9.76869 -0.981517 -0.0298451 1.05396
114 -1.29654 -2.40924 -10.0871 -0.11985 -0.0380983 0.678696
513 -8.38966 2.33499 -9.05527 0.182717 0.176992 -0.641804
2746 -7.36289 2.19573 -9.38438 -0.382474 -0.408069 -0.469419
3347 -6.49054 1.50958 -9.37425 1.51753 0.137214 -1.77643
231 -4.80997 1.35623 -9.47016 -1.22583 -0.268941 1.08642
234 -3.68602 2.26946 -9.32766 0.881292 1.07133 -0.780745
53 -9.46617 -7.0225 -10.1855 0.107815 0.677343 -0.694151
2468 -2.94344 2.5537 -10.1418 -0.0346088 1.13417 0.366506
206 -2.81667 1.55533 -9.24088 -0.692216 0.980055 -0.419432
3374 -2.30356 2.54131 -9.25532 0.573502 0.418579 1.14443
3332 -2.14027 1.79551 -10.042 0.782611 0.143654 -0.601353
213 -1.40214 2.54379 -9.8653 1.16184 0.489836 -0.718343
187 -1.42072 1.56661 -9.11217 -0.414931 1.3616 -0.316598
192 -0.529408 1.68661 -9.93858 0.482855 -0.292461 -0.549586
215 -0.787919 2.41552 -8.97308 0.0937806 -0.737177 -1.24864
225 -9.45817 3.44762 -9.64196 -0.73111 -0.791821 0.0461528
228 -9.7138 4.19059 -8.85655 -0.465161 -0.458836 -1.17823
3275 -7.99773 -5.3442 -10.1821 0.385402 -0.104775 0.132634
509 -10.2473 5.95661 -8.33868 -0.347657 0.151768 -0.932595
200 -9.29874 4.47479 -9.87621 -0.134245 -0.200065 -0.132738
3082 -8.52168 3.56549 -9.96764 -0.0945173 1.3737 -0.28038
233 -2.96197 3.58452 -9.31717 -0.33598 -0.325935 0.0219194
3404 -2.18905 4.3276 -9.2759 -0.416739 0.637427 -0.670144
212 -2.15338 3.28347 -9.98902 -0.194445 -0.106358 0.270432
3399 -1.28353 4.32195 -10.0668 -0.579974 -0.142405 -0.357022
209 -1.42406 3.37739 -9.21236 -0.652769 -0.490769 -1.36791
3384 -0.501619 3.42664 -9.85216 -1.39353 -0.0434804 -0.393793
498 -0.606929 4.23174 -9.1838 -1.03897 1.11266 0.849309
221 -9.9813 5.36468 -10.1195 0.106683 1.5295 -0.266022
1997 -9.06516 9.35028 -0.0689477 0.440522 0.270471 -0.0434743
506 -9.31926 5.2208 -9.15129 0.403823 0.309457 0.360092
3395 -8.41294 5.84469 -9.10167 1.11366 0.710196 0.240033
3400 -2.2315 5.18923 -9.99001 0.965506 -0.371942 -0.678171
3144 -1.30967 5.88392 -10.07 0.454038 -0.101163 0.436294
525 -1.27662 5.01561 -9.1322 -0.107903 0.51798 0.87933
3403 -0.485002 5.02825 -10.0779 0.392549 -1.15026 -0.572146
261 -0.630553 5.89199 -9.20593 0.205073 -0.400123 0.145806
222 -9.18805 6.05145 -10.0694 0.449045 0.227058 -0.116064
224 -9.96217 6.07137 -9.27769 0.477179 0.39643 0.639945
247 -8.96574 6.79751 -9.29679 -1.64455 0.050112 -0.422506
1986 -1.38057 7.74199 -0.0690237 -0.184575 -0.316227 0.127589
249 -8.36696 6.82938 -10.2075 -1.19854 -0.841007 0.100766
2464 -1.99731 5.90508 -9.08862 2.06602 -0.385738 0.349172
3405 -0.543853 6.71437 -10.1444 -1.26295 1.22094 1.15256
2507 -1.38068 6.80429 -9.27944 -0.588547 0.273773 0.26114
277 -7.53598 -9.713 -10.1772 0.635836 0.324197 0.238578
246 -9.07612 7.72468 -10.0484 -0.442048 -0.968346 -0.286125
248 -9.66879 7.76826 -9.2515 0.617739 -0.42663 -0.714472
271 -8.8749 8.62129 -9.47968 1.17395 -0.095164 -0.14221
252 -8.20167 7.66104 -9.32342 -1.10229 0.16348 -0.595639
503 -0.0683213 4.19581 -6.69094 -1.19055 -1.03624 0.557764
2492 -2.01261 7.63939 -9.11924 -0.586995 -0.764722 0.532935
570 -1.25527 8.29586 -9.24667 -0.688102 -1.59186 0.936652
3455 -0.436271 7.60355 -9.29271 -0.78547 -0.483266 -1.98042
282 -0.337923 8.34059 -10.1607 -0.271738 -1.594 -0.653251
3432 -1.20911 7.62796 -10.1296 -1.1165 0.514039 0.281441
272 -9.95594 9.37677 -9.44445 -0.417605 1.26973 -0.950087
2119 -8.1674 -3.44489 -0.245522 -0.396087 -0.979886 -0.565327
276 -8.19647 9.47531 -9.12299 -0.460684 -0.248441 -0.902198
3443 -7.35822 9.52138 -10.2061 1.20319 0.418236 0.734464
569 -3.00086 9.94274 -9.7557 -0.496188 0.962447 -0.366868
258 -1.96578 9.21971 -9.50115 -0.646917 -1.74911 -0.846639
308 -2.02819 10.0477 -8.67279 0.257602 0.177735 0.0259568
1054 -0.111131 2.54256 -5.12061 0.0246854 2.1817 -0.688368
305 -1.17704 9.99914 -9.3085 -1.55435 -0.642373 -1.13068
23 -0.408927 9.15114 -9.34715 -0.770653 0.850733 1.11868
2462 -1.98368 6.72553 -10.1233 1.83968 -0.727435 -0.829585
1589 -10.1169 -1.12639 -1.11663 1.25212 0.222089 0.27278
296 -9.80172 -9.50774 -7.68645 -0.725701 0.59832 0.271599
294 -9.00813 -9.58726 -8.47853 -0.0452085 -0.349895 -1.0256
295 -8.99331 10.2653 -7.67105 1.28979 0.271169 -1.49489
293 -9.83973 -10.2532 -8.4958 1.92665 -1.07188 -0.398503
319 -8.748 -8.75379 -7.85773 -0.469985 1.18357 -1.01557
300 -7.86316 -9.34758 -7.33918 -0.96944 -0.191012 -0.979807
297 -7.88959 -9.87139 -8.28868 0.31017 -0.761214 -0.40976
563 -4.06051 -8.5779 -7.28506 0.32973 0.773904 0.0259185
617 -2.22092 -9.43954 -8.01938 -0.2718 -0.00969387 -0.903727
854 -3.08311 -10.2245 -8.00987 -0.260552 -0.601671 -0.167284
306 -1.22349 -9.52775 -8.59504 -0.759154 0.0217748 0.546248
312 -0.517086 -9.57358 -7.78593 0.481931 0.665388 0.0369755
317 -9.80246 -8.59743 -8.51278 -1.28873 0.111217 0.417803
320 -9.74509 -7.63631 -7.81293 0.723825 1.17847 -0.0981783
318 -8.92514 -7.74675 -8.51849 0.603905 1.2317 0.100192
321 -7.78138 -8.68476 -8.90612 1.28628 -0.0149882 -0.0960728
322 -8.19856 -7.80302 -7.68831 0.12167 -0.0243896 -0.162266
3204 -7.18764 -8.56336 -7.54358 -0.555004 1.39467 -0.0278685
326 -1.92514 -8.87019 -8.95703 -0.297389 -0.496785 0.490795
3188 -2.73418 -8.02006 -8.97356 0.184186 -0.0239507 -0.191765
281 -3.01106 -8.81711 -7.9545 1.73849 -0.586155 -1.16802
327 -2.09796 -8.10945 -8.06087 0.277616 -0.488767 -0.601607
641 -1.22668 -8.72971 -7.81813 1.68738 -0.364542 -0.236668
2001 -6.61892 10.1644 -0.0730495 0.827368 -0.370433 -0.29453
331 -0.700927 -7.80882 -8.21305 1.11446 -1.0008 0.61764
341 -9.64083 -6.98675 -8.74659 1.42856 0.414778 0.8148
344 -9.73743 -6.13698 -7.94162 1.67007 -0.311587 -0.286376
343 -8.84075 -6.91292 -7.88098 -0.16483 -0.741509 0.722933
342 -8.92343 -6.05029 -8.68726 0.30021 1.09106 -0.292865
40 -8.02224 -6.92956 -8.70958 -0.852154 0.00485332 0.31407
323 -6.31879 -7.73758 -7.61742 -0.021109 0.258339 -0.503719
645 -1.62309 -7.17349 -8.29006 0.370429 0.917612 0.291003
356 -0.939679 -6.12973 -8.31904 -0.703202 -0.321636 -0.705461
359 -0.0345479 -6.86924 -8.17417 0.821362 0.217688 -0.259079
643 -0.91296 -6.90981 -7.63114 -0.321048 -0.743764 -0.506511
365 -9.63022 -5.21823 -8.60964 0.365286 0.449512 0.169192
348 -8.89451 -5.29531 -7.76618 -1.59292 -0.775625 0.254103
79 -8.81579 -4.49702 -8.47634 -0.611462 -0.619121 0.425043
324 -8.19102 -6.08798 -7.78377 0.975491 0.263123 -0.154154
86 -7.95786 -5.1736 -8.50918 0.0104785 -0.92463 0.31366
88 -7.23904 -5.29425 -7.67367 -0.640105 -0.297055 -1.52278
682 -6.97997 -4.34766 -8.27544 0.223252 -0.690282 -0.314238
112 -3.20398 -5.22166 -8.14805 -0.170031 -0.790319 0.960679
424 -1.95995 -6.10749 -8.13094 0.13614 1.04021 0.0733731
376 -2.31959 -5.2093 -8.91324 -0.353296 -1.2123 0.172065
383 -0.12187 -5.15415 -8.09107 1.46997 -0.021981 -0.231443
354 -1.28431 -5.02342 -7.91719 -0.345729 -0.90388 1.39392
368 -9.79462 -4.44639 -7.7571 -1.194 -0.0115338 -0.809876
389 -9.56067 -3.66618 -8.4716 -0.564277 0.622222 0.706946
657 -8.77202 -3.66615 -7.63736 -0.973594 0.794677 1.17372
367 -8.05681 -4.40868 -7.56046 1.09301 -0.55934 -0.633832
55 -8.17956 -3.53166 -8.47005 -0.487158 -0.811053 -0.0172793
366 -7.34207 -3.59152 -7.72171 -0.0156752 0.960829 -0.865428
664 -6.32355 -3.45818 -8.42095 -0.526422 -1.13683 -0.232794
709 -4.92614 -3.51648 -8.27577 0.758948 -0.26805 0.0266581
419 -5.64741 -3.59026 -7.55484 0.555367 -0.119366 -0.192959
135 -3.97287 -3.48219 -8.65801 0.152617 -0.434516 -0.548706
1289 -3.2039 -3.26847 -8.0003 0.336234 -1.07268 -0.616707
668 -2.11462 -4.16903 -7.85207 -0.527026 -1.51786 0.351403
401 -2.24187 -3.43019 -8.78655 -0.470236 0.122256 0.0326165
403 -1.35674 -3.40644 -7.89088 0.344356 0.214462 0.289559
379 -1.31277 -4.24105 -8.60803 -0.954311 0.133471 0.0268863
381 -0.547441 -4.17903 -7.80298 0.302064 -0.900766 -0.370292
405 -0.432157 -3.29253 -8.55843 -0.0518395 0.251891 0.479967
392 -9.80416 -2.84993 -7.72508 0.653215 0.502093 0.748978
391 -8.97824 -2.72351 -8.46739 -0.760812 0.231116 0.682236
413 -9.78086 -1.96855 -8.43763 0.37576 -0.30155 0.624029
725 -9.00433 -1.96132 -7.46721 0.503637 0.165606 0.522248
678 -7.98099 -2.73339 -7.50605 0.633644 -0.306221 -0.466182
415 -8.22905 -1.90388 -8.30646 1.81677 0.724326 -0.480228
420 -7.20494 -1.8939 -7.44058 0.314033 -1.39797 -0.324397
658 -7.40603 -2.6578 -8.42561 -0.619439 1.08209 -0.394861
443 -6.45415 -1.93849 -8.27446 -0.138599 -0.470553 0.0887713
369 -6.52636 -2.83533 -7.52667 -0.668257 -0.219306 0.189097
445 -4.72514 -2.64251 -8.87357 -0.99783 1.15101 -0.496641
396 -5.60113 -2.62198 -8.20498 0.797782 0.880917 0.694888
733 -4.78862 -1.76228 -7.91426 -0.413632 1.10844 -0.274205
757 -4.86277 -2.74065 -7.31702 -1.22054 -0.590443 -0.588533
730 -5.65868 -1.94703 -7.35542 0.304901 -1.74284 0.310746
136 -3.90578 -1.77927 -8.72611 -0.112973 -0.220684 0.692354
712 -4.08764 -2.58581 -8.05791 1.27614 0.112664 0.354455
713 -3.0292 -1.92877 -7.86222 0.0239404 0.523576 -0.0777439
398 -3.19408 -2.64664 -8.80131 -0.164082 -0.649567 -0.7054
404 -2.15101 -2.69844 -7.91294 0.382316 -0.293525 -1.05103
425 -2.26226 -1.5528 -8.4891 -1.20414 0.995674 -0.268452
427 -1.53309 -1.81789 -7.6686 -0.124108 0.252239 -0.480063
402 -1.44283 -2.48435 -8.57299 0.700173 -0.462989 -0.00257008
408 -0.637665 -2.60487 -7.66506 -0.358042 0.135971 0.607041
429 -0.642784 -1.7195 -8.41702 -0.740175 0.22952 0.589078
416 -9.89063 -1.23037 -7.61669 -1.41943 -1.52817 0.199502
437 -9.76846 -0.398743 -8.40551 0.292812 0.882807 -0.699578
440 -9.08361 -0.351507 -7.58437 -0.52857 0.229004 -0.144183
439 -8.99575 -1.09473 -8.3336 0.158167 0.933753 -1.18096
726 -8.21319 -1.12089 -7.49177 -0.528495 -0.0991079 -1.49988
468 -8.21698 -0.337405 -8.26754 0.459442 -0.676852 0.155344
753 -7.32138 -1.28926 -8.23795 0.530726 -0.920774 -0.250552
203 -7.42943 -0.199462 -7.41801 -1.42951 -0.411015 0.310128
153 -6.34685 -0.326907 -8.41452 0.450959 0.726305 1.10549
1018 -6.60847 -0.929163 -7.54343 -0.129489 0.0967188 -0.245839
1042 -5.70878 -0.331232 -7.26064 -0.708065 0.535199 -0.866826
3352 -5.40039 -0.395765 -8.93553 -0.532795 0.45834 0.439397
448 -5.62985 -1.22828 -8.26716 -1.27036 -0.449886 -0.49095
467 -4.80295 -0.185576 -7.87465 0.295665 0.0196575 0.54242
734 -4.75849 -1.0603 -7.17426 0.0844171 -1.07941 0.517796
158 -3.89656 -0.164236 -8.6033 1.37673 0.6042 -0.787611
446 -3.90086 -1.0142 -7.83947 1.81323 1.369 1.11506
183 -3.06191 -0.311418 -7.73895 -0.313615 -0.167299 0.552112
423 -3.05738 -0.958741 -8.6083 -0.166819 -0.169505 0.923475
428 -2.23235 -0.929329 -7.62562 -0.617691 -0.657042 -0.846698
451 -1.56872 -0.0891698 -7.6445 -1.27349 1.15229 0.704291
449 -2.31493 -0.0999478 -8.40339 0.561325 -0.158705 -0.468429
426 -1.4889 -0.874877 -8.46606 0.985088 -0.38672 -0.159266
432 -0.841696 -1.00327 -7.5856 0.299061 0.386974 -0.361822
438 -9.30668 0.612846 -8.26653 0.482774 0.186439 -0.929329
749 -9.46696 0.907423 -7.14743 0.445588 0.248271 -0.617158
113 -1.99796 -3.21047 -10.1614 1.05104 -0.398819 -0.0230358
1355 -7.77776 1.34343 -7.00222 0.656561 -0.566251 0.152623
466 -8.43021 0.543941 -7.28025 -0.418737 0.533702 -0.212902
178 -6.58414 0.647495 -8.56917 -0.604312 1.3712 0.205518
463 -7.56126 0.835471 -7.89172 -0.771051 0.343066 0.41092
470 -4.71657 0.682024 -8.68441 0.450571 -0.630318 0.17151
204 -5.6107 0.386585 -8.16573 -0.0463392 0.245197 -0.0448141
472 -4.79907 0.491229 -7.09664 -0.482351 0.501267 0.296671
469 -4.04724 0.583188 -7.88531 -0.531705 -0.0309619 -0.0688318
207 -3.06675 0.779283 -8.54243 -0.207123 -0.150705 -0.21813
473 -2.4005 0.602684 -7.66019 -0.920794 -0.767316 -0.826212
453 -0.634794 0.0005878 -8.45856 0.127968 -0.531582 -0.739006
450 -1.39236 0.678808 -8.38695 -0.265787 0.564358 0.0530168
477 -0.713568 0.739942 -7.55815 -0.384152 -0.480953 0.00130036
461 -9.57339 1.71435 -8.08811 0.168861 0.3553 -0.717828
199 -8.75282 2.47113 -7.99275 0.152291 1.18951 0.170848
2014 -0.409608 9.67155 -0.353322 -0.212865 1.16334 -0.0256107
180 -8.58496 1.35355 -8.14748 0.130281 0.166675 -1.11161
773 -7.75034 2.03467 -7.8704 -0.850482 -1.28384 1.51781
179 -6.69028 1.47233 -7.90602 0.808583 -0.41964 -0.371492
3376 -6.34181 2.43269 -8.72944 0.0749019 -0.373275 0.924051
515 -5.65988 1.45401 -8.63397 -0.377445 -1.60215 -1.08204
781 -4.75058 1.59186 -8.02514 0.0428626 -0.592823 -1.06153
775 -5.86301 2.33286 -7.65887 -0.950729 -1.47003 0.907144
1070 -4.87736 2.63932 -8.37287 -0.689436 -0.0898493 0.228936
471 -3.22981 1.32907 -7.61333 -2.41075 0.0133729 0.51314
782 -3.92608 1.45901 -8.69659 0.629714 -0.586667 -0.0261851
230 -3.95461 2.31342 -7.92875 1.1316 -1.4913 0.000240754
3375 -3.0254 2.44456 -8.37625 0.156505 0.14575 -0.366256
185 -2.37216 1.55319 -8.28438 -1.51473 -0.439981 -1.42069
188 -2.33979 2.45703 -7.56528 -0.271411 -0.495958 -0.0225015
474 -1.49726 1.49696 -7.6719 0.117349 0.392538 1.07454
501 -0.670855 1.42932 -8.41753 -0.249662 0.00273548 -0.893866
211 -1.65581 2.49988 -8.32505 -0.952246 -0.147582 -0.290599
480 -0.810116 2.37978 -7.63755 -1.05484 0.507843 0.358044
774 -9.71688 3.34359 -8.06614 0.59731 -1.19823 0.600101
770 -8.95069 4.23882 -7.95698 0.31743 0.035663 0.0454941
3373 -5.67519 1.59238 -10.1004 0.648704 -0.0641029 0.848349
2460 -8.50498 3.39377 -8.90243 -0.620788 0.705179 -0.0596416
485 -7.81228 3.17464 -8.01637 -0.531754 -0.751555 -0.0121413
1072 -4.33619 3.4148 -7.64455 0.0340407 0.354589 0.164689
232 -3.87225 3.184 -8.73433 -0.597456 -0.603298 -0.706335
491 -3.67741 4.51235 -8.79567 -0.725452 -0.165355 -0.523207
1069 -3.0463 3.2099 -7.76255 -1.2387 -0.16358 -1.03773
236 -2.28146 3.36892 -8.54161 0.35089 -0.528256 1.48542
784 -2.31532 4.25276 -7.84483 -1.00245 -0.491793 0.362674
499 -1.70474 3.32808 -7.61651 -0.103056 -0.644034 -0.189846
788 -1.43254 4.18368 -8.44805 -1.00101 1.1131 0.319407
497 -0.757948 3.29027 -8.33806 0.148579 0.509794 -1.09455
502 -0.757273 4.04807 -7.50017 0.0928552 0.902061 1.25917
510 -9.62319 5.04291 -8.19233 0.133517 -0.950744 -0.815128
3372 -8.83469 4.9094 -7.03491 -0.652914 0.94149 0.470183
3087 -2.09704 5.08999 -8.54803 1.21437 0.0414429 0.0373558
805 -1.54264 4.97585 -7.32427 -0.512514 -0.459901 0.33134
239 -0.757785 5.10806 -8.242 -0.782977 0.44551 0.375327
521 -1.25431 6.04219 -8.34526 0.0429508 -0.0862135 1.72815
533 -9.87975 6.91525 -8.4614 0.568745 -0.572011 -0.701022
3109 -9.04358 6.79329 -7.66009 -0.220736 1.27165 1.4493
3396 -9.11139 6.07505 -8.45964 -0.503302 0.0586411 1.42711
3323 -4.66218 -0.967458 -10.2051 0.117942 -0.940449 -0.096374
548 -2.11832 5.97045 -7.8119 -0.172055 0.257196 -0.694532
237 -2.01935 6.83625 -8.44207 -0.619053 -1.10357 0.792655
240 -0.753164 5.79237 -7.40178 -0.162815 -0.903607 0.720763
549 -1.39349 6.94284 -7.66704 0.742942 0.0467278 0.0264617
285 -0.591376 6.83531 -8.46201 -0.0696143 0.9315 0.615514
536 -9.839 7.58501 -7.59174 0.121904 0.168818 0.446021
534 -9.05662 7.61342 -8.41615 -0.614488 -1.05719 -0.365248
557 -10.0002 8.61684 -8.61399 1.08682 -0.44609 -0.317431
538 -8.34366 8.45843 -8.5479 0.611733 -0.318738 2.22785
462 -8.19086 7.8109 -7.68532 -0.00731441 -0.542294 0.215406
283 -2.39282 7.57177 -7.6629 -1.37048 0.398191 1.68837
566 -2.01297 8.52285 -8.58015 -0.160504 0.551149 0.32484
573 -1.6483 8.3921 -7.64944 0.454915 0.791592 -0.945028
546 -1.2349 7.7114 -8.39467 0.781192 0.928732 0.352781
264 -0.4394 8.44959 -8.5209 -0.49662 0.105178 0.59362
552 -0.592399 7.51656 -7.51246 -0.509623 -0.119739 0.158399
559 -9.00268 8.50302 -7.66409 -1.29064 0.638748 0.140554
560 -9.97315 9.36266 -7.71864 0.260206 0.209247 0.00191236
558 -9.24104 9.28669 -8.47496 0.352234 0.0990418 -0.149189
564 -8.00772 9.30439 -7.92856 1.31187 0.78275 -0.907193
562 -7.1894 10.0016 -7.56122 -0.411925 -0.464503 0.633251
572 -2.3141 9.23068 -7.86922 0.317921 1.32885 -1.1293
307 -1.37643 10.0629 -7.87821 0.083966 -1.16244 0.229712
309 -1.24152 9.25156 -8.56108 0.330545 -1.13222 -1.02255
310 -0.547295 10.043 -8.53351 1.0361 0.0210964 0.696234
576 -0.587593 9.11669 -7.66899 0.29994 1.11333 0.121266
584 -9.64424 -9.35413 -6.22653 -0.428505 -0.421025 0.39891
582 -8.96091 -9.49666 -7.00947 0.744429 -0.448746 0.0122601
581 -9.80953 10.122 -7.01475 0.904206 -0.419959 -0.13355
588 -8.20187 -9.44681 -6.19455 -1.27713 1.0819 -0.362562
299 -7.03185 -9.82752 -6.7993 -0.202527 0.477715 0.309799
850 -6.46285 -9.62925 -6.01484 -0.57664 0.0947533 0.130694
10 -4.80749 -8.82006 -6.49338 -0.256651 -0.278449 0.740825
541 -4.6418 10.1524 -6.31769 -0.331599 -0.612886 0.404076
15 -3.94753 -9.43455 -6.45298 1.37327 0.258985 0.329872
589 -3.90744 10.2344 -7.18315 -0.174555 -0.298853 -0.106887
332 -2.85466 -9.44996 -7.05946 0.281549 0.865631 -0.588459
596 -2.16136 -9.54256 -6.21558 0.341256 -0.377358 -1.98105
594 -1.34751 -9.5624 -7.0933 0.10576 0.51942 -0.0853097
600 -0.753163 -9.62457 -6.17513 0.259192 1.01384 -0.208184
605 -9.81436 -8.68363 -7.03493 0.201419 -0.34388 -0.194756
608 -9.78996 -7.69514 -6.32427 0.819801 -1.07993 -1.43556
606 -8.97244 -7.7487 -6.95724 -1.12072 0.92047 -0.239385
607 -8.9958 -8.52011 -6.15373 1.91112 -0.221564 -0.796973
609 -7.94903 -8.46583 -6.64871 0.683017 -0.740058 0.0688086
612 -8.29826 -7.62069 -6.09993 0.135098 0.882377 -0.298683
347 -7.22531 -7.62493 -6.8708 0.485576 -1.2488 0.54366
611 -7.0965 -8.83942 -6.17448 0.14003 -0.976562 0.382087
586 -6.37819 -8.46065 -6.88763 0.235653 -0.88344 0.642316
587 -6.61012 -7.88055 -5.84712 -0.329217 0.567146 1.26286
637 -5.53199 -7.7964 -6.559 0.573455 -0.805702 -0.711643
592 -5.8381 -8.68041 -6.0312 1.07588 0.475172 0.105022
665 -3.86382 -7.90039 -6.40557 0.361568 1.01926 -0.236914
328 -3.15154 -8.70958 -6.37521 0.594231 -0.389003 -0.347052
329 -3.00964 -7.63021 -7.40273 -0.0115328 0.713708 -1.09623
618 -2.16404 -8.69604 -7.15558 -0.797113 -0.866589 -0.358275
929 -2.29755 -7.70832 -6.56636 -0.58831 -0.112364 -0.300457
355 -1.38732 -7.74793 -7.25878 -0.0832079 -0.0395288 -0.381568
619 -1.36861 -8.74019 -6.25928 -1.20774 -0.408377 0.861655
622 -0.0393551 -7.68622 -7.34161 0.0204768 1.05245 0.206005
621 -0.512046 -8.83332 -7.01402 -0.545019 -1.35891 0.643817
624 -0.583381 -7.8948 -6.32981 -0.109125 -0.603866 0.512203
631 -9.11006 -6.77442 -6.20609 0.339879 1.47853 -0.329964
629 -9.81429 -6.81267 -7.13256 0.70532 0.235486 1.27086
632 -9.83629 -6.06801 -6.32214 0.692234 -0.952452 -0.335282
630 -8.98638 -6.18011 -7.08241 -0.181092 0.527425 -0.386896
634 -8.13944 -6.79464 -6.88452 1.22943 -0.494127 -1.08975
636 -8.05012 -6.01093 -6.10647 -0.0604173 0.237002 -0.103354
610 -7.3682 -6.8359 -5.99832 -0.121038 -0.637839 -0.157965
616 -6.39307 -7.09327 -6.5521 0.959437 0.941787 0.703763
35 -7.3247 -6.08448 -6.93809 1.11869 -0.741086 0.106797
659 -6.40159 -6.11609 -6.10572 0.966539 0.0799021 0.0602292
284 -4.85462 -6.93883 -6.53581 -1.25068 0.440689 0.292034
613 -5.51563 -6.02273 -6.80103 1.02546 -1.21775 -0.242975
301 -5.62645 -6.94084 -5.83754 -0.418718 -1.10005 0.891766
974 -3.02951 -6.08885 -7.43586 1.06694 -0.0120079 -0.446977
325 -3.92656 -6.87804 -7.21396 -0.731968 -0.147312 2.29999
685 -3.85526 -6.12011 -6.50637 -0.434644 -1.60589 0.420639
349 -2.90954 -6.84216 -6.56992 1.15781 0.111328 -0.554311
648 -2.11365 -6.85117 -7.40794 -0.733684 -0.387061 0.472325
953 -2.20859 -6.0442 -6.5735 -0.182283 -0.551247 0.721769
669 -0.242478 -5.96243 -7.37951 -0.409729 -0.206788 0.0950253
955 -1.33053 -6.7858 -6.50758 -0.72938 -1.87642 0.00303293
4369 -0.181338 -6.862 -6.63032 0.598113 0.00772762 0.117538
647 -0.440008 -5.86015 -6.25216 0.60792 -1.10707 -0.763257
653 -9.756 -5.29069 -7.09189 -1.04763 -0.989673 1.39272
655 -8.96797 -5.35919 -6.28127 0.801562 0.905108 -0.448302
654 -8.98676 -4.53386 -6.90382 -1.19652 -1.08182 1.09342
969 -8.19543 -5.39257 -6.9505 0.00294037 -0.11064 1.40279
660 -7.30225 -5.19463 -6.02622 -1.02101 -0.11745 -0.827718
681 -8.27185 -4.59239 -6.12494 0.945766 -0.0498322 0.00636185
971 -6.52313 -5.36405 -6.77883 -1.33024 0.224616 -0.846283
352 -4.69748 -5.29382 -6.48449 -0.0257745 -0.177604 0.653316
400 -3.84433 -5.40758 -7.34171 0.919587 1.15991 0.93705
977 -3.09391 -5.42899 -6.58656 -0.977815 -0.803661 -0.247788
691 -2.15883 -5.16442 -7.32249 -0.235382 1.1589 -1.70321
644 -1.25599 -5.9251 -7.21332 1.52401 -0.259086 0.392477
667 -1.45025 -5.0626 -6.34244 0.0663965 0.202669 -0.909367
672 -0.642415 -4.97099 -6.92685 -0.0266589 -0.93489 -1.54717
656 -9.85244 -4.42521 -6.2721 0.324344 -0.667326 -0.423469
677 -9.76934 -3.64456 -6.95541 0.524639 -0.479697 -0.361324
966 -8.89227 -3.76039 -6.02876 0.168187 0.637852 -0.624073
688 -7.25698 -4.47442 -6.91837 -0.301758 1.27096 0.0816603
679 -8.00867 -3.66664 -6.81293 -0.0263851 0.0492811 1.89939
707 -6.46672 -3.57689 -6.78742 0.508977 0.249509 0.135838
687 -6.37651 -4.51256 -6.00911 0.324466 -0.151171 -0.440951
1282 -5.54698 -4.63185 -6.85521 -0.0819407 -0.131563 -0.0561511
421 -4.87201 -3.65784 -6.70258 0.347339 -0.665003 0.270238
374 -3.07409 -4.32808 -7.48483 -0.958496 -1.15028 -0.262095
373 -3.75961 -4.5635 -6.48141 -0.37491 -0.350405 -0.523338
686 -4.02491 -3.88832 -7.40413 -0.320298 -0.026859 0.99054
980 -3.0999 -3.60617 -6.37385 -0.668982 -0.669143 0.449192
978 -2.38063 -4.42709 -6.20488 -0.251906 -1.13742 -0.140688
380 -2.36132 -3.44598 -7.12053 -0.828617 -1.28358 -0.252642
692 -1.61435 -3.63373 -6.27185 0.0482652 -0.372647 1.70918
666 -1.38822 -4.18178 -7.0975 0.577519 0.547955 -0.248242
690 -0.664839 -4.10986 -6.01084 -0.696054 -0.363821 0.523717
384 -0.595765 -3.47228 -6.88187 0.701835 0.833646 -0.15945
680 -9.70656 -2.8007 -6.20079 -0.389899 0.52593 0.284151
970 -8.86002 -2.8475 -6.75518 -0.248851 -1.05942 1.71271
701 -9.93595 -2.00452 -6.85343 -0.265583 -0.351171 -0.627313
702 -8.95944 -2.08097 -5.96705 0.249976 0.0757648 -0.654754
699 -10.2599 -1.86674 -5.74486 -0.726529 -0.285968 -0.954912
993 -8.14885 -2.96975 -5.9374 -0.331591 -1.14156 -0.330138
708 -8.05516 -1.9837 -6.65953 0.601394 0.711212 0.448126
706 -7.34951 -2.03211 -5.8564 0.255334 0.0253567 -1.30977
683 -7.33768 -2.77735 -6.71472 -0.0283349 -2.28528 1.64518
705 -6.53484 -2.14233 -6.66712 -0.971848 0.491023 0.131722
731 -5.65361 -2.89463 -6.66887 0.424166 1.03509 0.510317
1021 -4.90834 -2.01817 -6.56412 -0.92988 0.506044 0.0180995
736 -3.97996 -1.94292 -7.17002 1.23455 0.132657 0.954519
711 -3.9512 -2.95913 -6.7035 -0.213158 0.228141 -0.1113
998 -3.27065 -2.01523 -6.38007 -0.121938 -0.123779 0.830588
689 -3.0909 -2.64794 -7.18882 -0.583404 -0.78627 0.404625