LAMMPS (29 Sep 2021 - Update 2)
variable t string 1

units lj
boundary p p p
atom_style atomic

lattice fcc 0.8
Lattice spacing in x,y,z = 1.7099759 1.7099759 1.7099759
region r1 block -6 6 -6 6 -6 6
create_box 1 r1
Created orthogonal box = (-10.259856 -10.259856 -10.259856) to (10.259856 10.259856 10.259856)
  2 by 1 by 2 MPI processor grid
create_atoms 1 box
Created 6912 atoms
  using lattice units in orthogonal box = (-10.259856 -10.259856 -10.259856) to (10.259856 10.259856 10.259856)
  create_atoms CPU = 0.002 seconds
mass 1 1.0

pair_style lj/cut 2.5
pair_coeff * * 1.0 1.0

velocity all create $t 322 mom yes rot no
velocity all create 1 322 mom yes rot no
reset_timestep	0
timestep 0.001

#### Equilibration ####
fix base all nvt temp 0.4 0.4 0.1

thermo_style custom temp etotal press density
thermo 1000

run 10000
Neighbor list info ...
  update every 1 steps, delay 10 steps, check yes
  max neighbors/atom: 2000, page size: 100000
  master list distance cutoff = 2.8
  ghost atom cutoff = 2.8
  binsize = 1.4, bins = 15 15 15
  1 neighbor lists, perpetual/occasional/extra = 1 0 0
  (1) pair lj/cut, perpetual
      attributes: half, newton on
      pair build: half/bin/atomonly/newton
      stencil: half/bin/3d
      bin: standard
Per MPI rank memory allocation (min/avg/max) = 3.260 | 3.260 | 3.260 Mbytes
Temp TotEng Press Density 
           1   -4.8649635   -5.4090823          0.8 
  0.39542758    -5.267748   -2.6452029          0.8 
  0.40582971   -5.2686136   -2.6878712          0.8 
  0.39918014   -5.2721989   -2.6217059          0.8 
   0.3962126   -5.2816686   -2.5722844          0.8 
  0.40526543   -5.2765931   -2.5261294          0.8 
  0.39822565   -5.3124361   -2.3811033          0.8 
  0.39673509   -5.3499285   -2.2054087          0.8 
  0.40099474   -5.4311316   -1.9782342          0.8 
  0.40304584    -5.543476   -1.6733045          0.8 
  0.40526136   -5.6481569   -1.3425197          0.8 
Loop time of 11.6059 on 4 procs for 10000 steps with 6912 atoms

Performance: 74444.736 tau/day, 861.629 timesteps/s
99.7% CPU use with 4 MPI tasks x no OpenMP threads

MPI task timing breakdown:
Section |  min time  |  avg time  |  max time  |%varavg| %total
---------------------------------------------------------------
Pair    | 8.4433     | 9.2644     | 9.9921     |  23.5 | 79.82
Neigh   | 0.4545     | 0.49084    | 0.52222    |   4.4 |  4.23
Comm    | 0.61102    | 1.3708     | 2.2308     |  63.9 | 11.81
Output  | 0.00021232 | 0.000232   | 0.00028513 |   0.0 |  0.00
Modify  | 0.34093    | 0.3534     | 0.36263    |   1.6 |  3.05
Other   |            | 0.1263     |            |       |  1.09

Nlocal:        1728.00 ave        1928 max        1465 min
Histogram: 1 0 1 0 0 0 0 0 0 2
Nghost:        3672.25 ave        3785 max        3522 min
Histogram: 1 0 0 1 0 0 0 0 0 2
Neighs:        64053.2 ave       75391 max       49861 min
Histogram: 1 0 1 0 0 0 0 0 0 2

Total # of neighbors = 256213
Ave neighs/atom = 37.067853
Neighbor list builds = 191
Dangerous builds = 0
unfix base


fix start all nvt temp 0.4 0.8 10

thermo_style custom temp etotal press density vol
thermo 1000

dump		vel all custom  1000 dump.* id x y z vx vy vz

run 300000
Per MPI rank memory allocation (min/avg/max) = 4.615 | 4.615 | 4.616 Mbytes
Temp TotEng Press Density Volume 
  0.40526136   -5.6481569   -1.3425197          0.8         8640 
  0.42612041   -5.6524611  -0.88367484          0.8         8640 
  0.43383251   -5.6545559  -0.82134137          0.8         8640 
  0.44117502   -5.6564759  -0.86899512          0.8         8640 
   0.4354199   -5.6602704  -0.74846765          0.8         8640 
  0.44318799   -5.6644467  -0.71662377          0.8         8640 
  0.44981772    -5.668804  -0.66403439          0.8         8640 
  0.44898665   -5.6721106  -0.70987426          0.8         8640 
    0.458375   -5.6770771   -0.6055753          0.8         8640 
  0.46255171     -5.68008  -0.69460564          0.8         8640 
  0.46129886   -5.6842017  -0.69239862          0.8         8640 
  0.46778594   -5.6889064  -0.63553304          0.8         8640 
  0.46863319   -5.6947368  -0.59901172          0.8         8640 
  0.46543195   -5.7006793  -0.57980111          0.8         8640 
  0.45971971   -5.7053077  -0.58081018          0.8         8640 
  0.47388662   -5.7120283  -0.56993458          0.8         8640 
  0.47812667   -5.7188018  -0.46135627          0.8         8640 
  0.46748364    -5.723831   -0.5159401          0.8         8640 
  0.46980383   -5.7289277  -0.58728211          0.8         8640 
  0.47517892   -5.7350923  -0.61942909          0.8         8640 
  0.48118689   -5.7420372  -0.54785528          0.8         8640 
  0.48143222   -5.7476516  -0.61070365          0.8         8640 
  0.47099454   -5.7532211  -0.63390939          0.8         8640 
  0.47419947   -5.7601681  -0.60155252          0.8         8640 
  0.46880848   -5.7666591  -0.51335592          0.8         8640 
   0.4719949   -5.7723743  -0.55476369          0.8         8640 
  0.47493812   -5.7779042  -0.65450481          0.8         8640 
  0.47358422   -5.7847341  -0.61099214          0.8         8640 
  0.47166077   -5.7906162  -0.61114102          0.8         8640 
  0.46844552   -5.7970039  -0.61493198          0.8         8640 
  0.46875552   -5.8018011  -0.67308871          0.8         8640 
  0.46590084   -5.8080831   -0.6615512          0.8         8640 
  0.46235291   -5.8142955  -0.60484871          0.8         8640 
   0.4742367   -5.8185439  -0.73348314          0.8         8640 
  0.46564339   -5.8233597  -0.75754522          0.8         8640 
   0.4637982   -5.8293845  -0.68797093          0.8         8640 
  0.46468996   -5.8344551  -0.70938446          0.8         8640 
  0.46650004   -5.8399039  -0.67525551          0.8         8640 
  0.46275861   -5.8446575  -0.72482778          0.8         8640 
  0.46075721   -5.8488649  -0.77067446          0.8         8640 
  0.46065382   -5.8530298  -0.83008132          0.8         8640 
  0.46384653   -5.8573149  -0.84681676          0.8         8640 
  0.45958183   -5.8612743  -0.79474738          0.8         8640 
  0.46194053   -5.8651284  -0.80266917          0.8         8640 
  0.46528799   -5.8694765  -0.81559836          0.8         8640 
  0.45617959   -5.8720744  -0.92196966          0.8         8640 
  0.45670294    -5.875111  -0.91379612          0.8         8640 
  0.45109104   -5.8784117  -0.83498583          0.8         8640 
  0.45702835   -5.8805871  -0.92043137          0.8         8640 
  0.45617093   -5.8828724  -0.91691102          0.8         8640 
  0.45382418   -5.8859585  -0.82168891          0.8         8640 
  0.45513113   -5.8866979  -0.89512896          0.8         8640 
  0.45840386    -5.887553  -0.89904091          0.8         8640 
  0.45933183   -5.8887979  -0.92970103          0.8         8640 
  0.45532224   -5.8892381  -0.90418585          0.8         8640 
  0.45274384   -5.8892083  -0.86701428          0.8         8640 
  0.45480805   -5.8893836  -0.86018327          0.8         8640 
    0.454913    -5.888095  -0.87497157          0.8         8640 
  0.46053365   -5.8864523  -0.94391617          0.8         8640 
  0.45944732   -5.8830116  -0.98795241          0.8         8640 
  0.45706212   -5.8823212  -0.87985718          0.8         8640 
  0.46218347   -5.8784022  -0.87941959          0.8         8640 
   0.4652735    -5.875027  -0.90378922          0.8         8640 
  0.46567368   -5.8706059  -0.91086781          0.8         8640 
  0.46347771     -5.86786  -0.83272799          0.8         8640 
  0.47280458    -5.862899  -0.87120651          0.8         8640 
  0.46709444   -5.8584729  -0.83198478          0.8         8640 
  0.47445176   -5.8539179  -0.82768529          0.8         8640 
   0.4709257   -5.8487067  -0.89085443          0.8         8640 
  0.47139277   -5.8442963  -0.86050674          0.8         8640 
  0.46965816   -5.8395247  -0.81990899          0.8         8640 
  0.47702471   -5.8341532  -0.85018499          0.8         8640 
  0.47380365   -5.8300524  -0.75800488          0.8         8640 
  0.47512108   -5.8252534  -0.80316847          0.8         8640 
  0.47359137   -5.8198492  -0.85555269          0.8         8640 
  0.47132574   -5.8152955  -0.79319859          0.8         8640 
  0.48939457   -5.8105373  -0.81033406          0.8         8640 
  0.47971209   -5.8059941  -0.78216128          0.8         8640 
  0.48113001   -5.8007561  -0.77451695          0.8         8640 
  0.48342771    -5.796537  -0.74599076          0.8         8640 
  0.48302209   -5.7911139  -0.74393338          0.8         8640 
  0.48423877   -5.7863385  -0.77377514          0.8         8640 
  0.48847171   -5.7811222  -0.79819667          0.8         8640 
  0.48854678   -5.7771536  -0.68328486          0.8         8640 
  0.49188893   -5.7719664  -0.74238593          0.8         8640 
  0.49850106   -5.7667881  -0.72488149          0.8         8640 
    0.488917   -5.7617728  -0.66129131          0.8         8640 
  0.49711406   -5.7572658  -0.70457223          0.8         8640 
  0.49415767   -5.7518742  -0.78124501          0.8         8640 
  0.49934373    -5.746727  -0.73677904          0.8         8640 
  0.49691203   -5.7425714  -0.63944778          0.8         8640 
  0.49660975   -5.7371752  -0.69817525          0.8         8640 
  0.50013284   -5.7320018  -0.73027706          0.8         8640 
  0.49844535   -5.7273315  -0.67272198          0.8         8640 
  0.50709696   -5.7227081  -0.68917894          0.8         8640 
  0.50570943   -5.7174309  -0.65820512          0.8         8640 
  0.51148736    -5.711889  -0.72128043          0.8         8640 
  0.50398945    -5.706308   -0.7151977          0.8         8640 
  0.51370545    -5.701511     -0.69427          0.8         8640 
  0.52135348   -5.6960784  -0.72027856          0.8         8640 
  0.50803866   -5.6916931  -0.64505542          0.8         8640 
  0.51359787   -5.6859543  -0.66985112          0.8         8640 
  0.51844026   -5.6819559  -0.62626761          0.8         8640 
  0.51717619   -5.6766618  -0.63550598          0.8         8640 
  0.52346095   -5.6718449  -0.65229208          0.8         8640 
  0.51923249    -5.665659    -0.635012          0.8         8640 
  0.51950917   -5.6611272  -0.65244855          0.8         8640 
   0.5233499   -5.6553431   -0.6397717          0.8         8640 
  0.51905753   -5.6506124  -0.58342902          0.8         8640 
  0.52413465   -5.6455071  -0.62865722          0.8         8640 
  0.53011196   -5.6411439  -0.57479082          0.8         8640 
  0.53276549   -5.6349618  -0.63839337          0.8         8640 
  0.52612311   -5.6303721  -0.54306989          0.8         8640 
  0.53129877   -5.6248348   -0.6009406          0.8         8640 
  0.53557779   -5.6203704  -0.59042977          0.8         8640 
  0.53090821   -5.6148035  -0.57062327          0.8         8640 
  0.53470272   -5.6096133  -0.55932696          0.8         8640 
  0.53028545   -5.6039362  -0.54636852          0.8         8640 
    0.533374   -5.5994804  -0.48881753          0.8         8640 
  0.54088766   -5.5940334  -0.58809299          0.8         8640 
  0.53983992   -5.5872253  -0.64152458          0.8         8640 
  0.53761633   -5.5826867  -0.59927684          0.8         8640 
  0.53775898   -5.5777691  -0.50390759          0.8         8640 
  0.53762583   -5.5722857  -0.48670726          0.8         8640 
  0.54805299   -5.5680592  -0.50817866          0.8         8640 
  0.54886104    -5.561488  -0.54992553          0.8         8640 
  0.55201727   -5.5548554  -0.55736724          0.8         8640 
  0.55126363   -5.5501966  -0.55718596          0.8         8640 
  0.55780804   -5.5449744   -0.5394029          0.8         8640 
  0.55082722   -5.5394107  -0.58159772          0.8         8640 
  0.54952233   -5.5344701  -0.48258746          0.8         8640 
  0.55728091   -5.5293277  -0.46374005          0.8         8640 
  0.55578917   -5.5241163  -0.46270225          0.8         8640 
   0.5638796   -5.5185072  -0.52259669          0.8         8640 
  0.56036709   -5.5131164  -0.44196573          0.8         8640 
  0.55411937   -5.5065267  -0.50244085          0.8         8640 
  0.54902681   -5.5020426  -0.42470697          0.8         8640 
  0.56568405   -5.4972487  -0.42157364          0.8         8640 
  0.57123452   -5.4917594  -0.46134501          0.8         8640 
  0.56456345   -5.4861326  -0.42692506          0.8         8640 
  0.56863198   -5.4804428  -0.46888706          0.8         8640 
  0.56346439   -5.4742964  -0.45947071          0.8         8640 
  0.57065562   -5.4691689   -0.4371929          0.8         8640 
   0.5702535   -5.4638083  -0.42361765          0.8         8640 
  0.57190681   -5.4580783  -0.44450541          0.8         8640 
  0.57286359    -5.452043  -0.46438438          0.8         8640 
  0.58263194   -5.4474941  -0.41592267          0.8         8640 
  0.58008854    -5.441284  -0.41196153          0.8         8640 
  0.57837982   -5.4365516  -0.34202412          0.8         8640 
  0.58057779   -5.4308656  -0.38550457          0.8         8640 
  0.58034192   -5.4251226  -0.44026386          0.8         8640 
  0.58053334   -5.4200179  -0.33542886          0.8         8640 
  0.58053404   -5.4138682  -0.34764064          0.8         8640 
  0.58356717   -5.4073774  -0.42347235          0.8         8640 
  0.58330666   -5.4017565  -0.46436741          0.8         8640 
  0.58073011   -5.3961331  -0.37894122          0.8         8640 
  0.58459587   -5.3908012  -0.35054777          0.8         8640 
  0.59407077   -5.3854155  -0.32647521          0.8         8640 
  0.59354979   -5.3795901   -0.3411412          0.8         8640 
  0.58618887   -5.3729585  -0.33386618          0.8         8640 
  0.59131505   -5.3673113  -0.44083548          0.8         8640 
  0.58430493   -5.3620384   -0.3650233          0.8         8640 
  0.59501564   -5.3561848  -0.28456099          0.8         8640 
  0.59930858   -5.3502403  -0.31642278          0.8         8640 
  0.59964356    -5.343221  -0.38993991          0.8         8640 
  0.58940528   -5.3365114  -0.38085695          0.8         8640 
   0.5868457   -5.3306726  -0.36512903          0.8         8640 
  0.59064614    -5.323795  -0.40611877          0.8         8640 
  0.60349322   -5.3180221  -0.39077091          0.8         8640 
  0.59559736   -5.3122388  -0.27007076          0.8         8640 
  0.60099858   -5.3056023  -0.31867356          0.8         8640 
  0.59556381   -5.2985125  -0.33396846          0.8         8640 
  0.61262691   -5.2930495   -0.3720086          0.8         8640 
  0.59649591   -5.2856082    -0.296891          0.8         8640 
  0.60329518   -5.2793836  -0.31582559          0.8         8640 
  0.60029752   -5.2725409  -0.28282714          0.8         8640 
  0.59767929   -5.2660146    -0.176029          0.8         8640 
  0.59794201   -5.2584022  -0.28577418          0.8         8640 
   0.5899925   -5.2515165  -0.33223223          0.8         8640 
  0.60015645   -5.2444371  -0.32999083          0.8         8640 
  0.60234377   -5.2376082  -0.26541562          0.8         8640 
  0.60197911   -5.2294667  -0.28494728          0.8         8640 
  0.60682285   -5.2225947  -0.29409996          0.8         8640 
   0.5991076   -5.2150184  -0.23888409          0.8         8640 
  0.60372255   -5.2078742  -0.27671004          0.8         8640 
   0.6034716   -5.1997546  -0.27644086          0.8         8640 
  0.59968599   -5.1920561  -0.23021083          0.8         8640 
  0.60479182   -5.1843695  -0.24736327          0.8         8640 
  0.61099841   -5.1767978  -0.25205123          0.8         8640 
  0.61348602   -5.1677751  -0.29725173          0.8         8640 
  0.60667679   -5.1597277  -0.28195079          0.8         8640 
  0.60721875   -5.1514989  -0.32533488          0.8         8640 
  0.60732172   -5.1431136  -0.29000582          0.8         8640 
  0.61057871   -5.1354883  -0.32188253          0.8         8640 
  0.60092846    -5.126602  -0.29898115          0.8         8640 
  0.59248826   -5.1179575   -0.2782261          0.8         8640 
  0.59912957    -5.109425  -0.32719375          0.8         8640 
  0.60270906   -5.1015094  -0.28081962          0.8         8640 
  0.60485963   -5.0927876  -0.23563525          0.8         8640 
  0.61376736   -5.0842727  -0.24528818          0.8         8640 
  0.61172607   -5.0753809    -0.250617          0.8         8640 
  0.61006214   -5.0666109  -0.24059705          0.8         8640 
   0.6043986   -5.0576696  -0.24556508          0.8         8640 
  0.60997148   -5.0482804  -0.24603453          0.8         8640 
  0.60954339   -5.0397285  -0.25824289          0.8         8640 
   0.6014568   -5.0304377   -0.2377921          0.8         8640 
  0.60060508   -5.0203808   -0.2504458          0.8         8640 
  0.60155541   -5.0105728  -0.35181488          0.8         8640 
  0.60227445   -5.0005115  -0.39225988          0.8         8640 
  0.60482575   -4.9912381  -0.42377591          0.8         8640 
  0.60952737   -4.9823788  -0.32210707          0.8         8640 
  0.60140683   -4.9732263  -0.23436341          0.8         8640 
  0.60861526   -4.9627561   -0.3137756          0.8         8640 
   0.6052609   -4.9521742   -0.2655087          0.8         8640 
  0.60934492   -4.9427996  -0.31223093          0.8         8640 
  0.61770446   -4.9331304  -0.24995688          0.8         8640 
   0.6122576   -4.9229567  -0.23606664          0.8         8640 
  0.61371962   -4.9128457  -0.23746142          0.8         8640 
  0.61474783   -4.9025363  -0.27563611          0.8         8640 
  0.61358153   -4.8918468  -0.23949499          0.8         8640 
  0.61689538   -4.8822538  -0.19039409          0.8         8640 
  0.61922512   -4.8719901  -0.13441152          0.8         8640 
  0.62017982   -4.8609758  -0.21741948          0.8         8640 
  0.61996925   -4.8503382  -0.22908713          0.8         8640 
  0.61101734   -4.8391437  -0.17960922          0.8         8640 
   0.6133012   -4.8271865  -0.22243103          0.8         8640 
  0.60871202   -4.8171824  -0.24669904          0.8         8640 
  0.61075706   -4.8062892  -0.26446182          0.8         8640 
   0.6026592   -4.7944156  -0.24285958          0.8         8640 
  0.59942397   -4.7835878  -0.19800222          0.8         8640 
  0.60590413   -4.7716671   -0.2239681          0.8         8640 
  0.60511947   -4.7601413  -0.25070415          0.8         8640 
  0.60921496   -4.7483728  -0.25773167          0.8         8640 
  0.60204843   -4.7370006  -0.21060333          0.8         8640 
  0.60568307   -4.7246084  -0.20419822          0.8         8640 
  0.60529385   -4.7134038  -0.17090027          0.8         8640 
  0.60713421   -4.7009438  -0.28842197          0.8         8640 
  0.60377086   -4.6885124  -0.25558551          0.8         8640 
   0.6024099   -4.6763602  -0.28253237          0.8         8640 
  0.60049334   -4.6633993  -0.28010329          0.8         8640 
  0.60073629   -4.6512681  -0.26941934          0.8         8640 
  0.60360082    -4.638016  -0.30194548          0.8         8640 
  0.60750737   -4.6254479  -0.28771693          0.8         8640 
  0.60468511    -4.613757  -0.27044129          0.8         8640 
  0.60392875   -4.6004697  -0.24735565          0.8         8640 
  0.61932395    -4.587821  -0.33472534          0.8         8640 
  0.61870734   -4.5749174  -0.31657028          0.8         8640 
  0.61838075   -4.5620874  -0.26942046          0.8         8640 
  0.62355311   -4.5496036  -0.30102093          0.8         8640 
  0.62465803   -4.5365543  -0.25401012          0.8         8640 
  0.63077686   -4.5243064  -0.25942988          0.8         8640 
   0.6349323   -4.5115208   -0.2199747          0.8         8640 
  0.64367514   -4.4990005  -0.20579097          0.8         8640 
  0.65268432   -4.4862998    -0.227349          0.8         8640 
  0.64960383   -4.4736864  -0.13085456          0.8         8640 
  0.66028545   -4.4608204  -0.14186703          0.8         8640 
  0.65385101   -4.4485396 0.0052617223          0.8         8640 
  0.66572381   -4.4363212 -0.052371566          0.8         8640 
  0.66319281   -4.4234161  0.025891586          0.8         8640 
  0.67015616   -4.4110274  0.047312196          0.8         8640 
  0.68195682    -4.399332 0.0050376053          0.8         8640 
  0.68373591   -4.3868826  0.046898705          0.8         8640 
  0.68619223   -4.3744151    0.1007044          0.8         8640 
   0.6891919   -4.3631437   0.10156731          0.8         8640 
   0.6939559   -4.3509057    0.1790189          0.8         8640 
  0.69587057   -4.3388011   0.20588476          0.8         8640 
  0.70932328   -4.3277636   0.14399781          0.8         8640 
  0.71269056   -4.3163817   0.19168449          0.8         8640 
   0.7214026   -4.3050508   0.21632831          0.8         8640 
  0.71077154   -4.2931696   0.35256515          0.8         8640 
  0.71429497    -4.282192    0.3124597          0.8         8640 
  0.72819431   -4.2713061   0.30218675          0.8         8640 
   0.7255783   -4.2606454    0.3794522          0.8         8640 
  0.73771278   -4.2501663    0.3665424          0.8         8640 
  0.74628971   -4.2397944   0.34368127          0.8         8640 
   0.7485638   -4.2300516   0.38957794          0.8         8640 
  0.75068577   -4.2203219   0.38072787          0.8         8640 
  0.75221231   -4.2109809   0.44945782          0.8         8640 
  0.76086615   -4.2017992   0.44516074          0.8         8640 
  0.75790863   -4.1923432   0.50090069          0.8         8640 
  0.76613934    -4.183616    0.5039764          0.8         8640 
    0.765515   -4.1750204   0.51468812          0.8         8640 
  0.76454276     -4.16693   0.58187406          0.8         8640 
  0.77914143   -4.1589564   0.56460028          0.8         8640 
  0.77895157   -4.1512334   0.56744802          0.8         8640 
  0.78377556   -4.1439839   0.58601348          0.8         8640 
  0.78321886   -4.1368971    0.6274044          0.8         8640 
   0.7933657   -4.1306479   0.55808577          0.8         8640 
   0.7926437   -4.1239961   0.64671386          0.8         8640 
  0.80140889   -4.1186999   0.55648223          0.8         8640 
  0.78951619   -4.1121408   0.69271081          0.8         8640 
  0.78825022   -4.1074518    0.6919384          0.8         8640 
  0.81033361   -4.1021432   0.58867181          0.8         8640 
  0.81046678   -4.0985437   0.60749151          0.8         8640 
    0.803187   -4.0940386    0.6722478          0.8         8640 
  0.80632817   -4.0901669   0.70328796          0.8         8640 
  0.80175176   -4.0867845    0.7212536          0.8         8640 
  0.79970037   -4.0836859   0.73056771          0.8         8640 
  0.81143919   -4.0802623   0.70097178          0.8         8640 
  0.80317063   -4.0782848   0.75672655          0.8         8640 
   0.8042995   -4.0762787   0.73842931          0.8         8640
