ITEM: TIMESTEP
163000
ITEM: NUMBER OF ATOMS
6912
ITEM: BOX BOUNDS pp pp pp
-9.5244063118091962e+00 9.5244063118091962e+00
-9.5244063118091962e+00 9.5244063118091962e+00
-9.5244063118091962e+00 9.5244063118091962e+00
ITEM: ATOMS id x y z vx vy vz
335 -8.55592 -9.3888 -7.91427 -2.9463 0.28941 -0.0245752
2980 -9.22356 -8.70303 -8.39304 0.300641 -1.46916 -0.968652
297 -8.6416 -7.98697 -8.82558 0.494213 0.980166 -2.33792
3 -6.23814 -9.3018 -9.46264 -1.29977 0.188791 -0.449368
3702 -7.72522 -8.36408 -8.30375 -1.80351 -0.417914 0.450921
222 2.28061 -4.38933 -9.02154 -0.909495 0.637208 2.26272
606 2.27303 -9.46973 -3.97294 -0.901489 -0.996683 -2.97981
1411 -3.18858 -0.177858 -2.85665 0.195732 -0.396777 -0.606009
3944 -6.40912 -8.71025 -8.69272 0.725784 -1.53632 0.138561
16 -5.60145 -8.09865 -8.24022 -0.768638 -2.77266 -0.840555
1148 7.89442 -1.03137 -1.21922 -0.156923 1.3877 1.99727
6830 -5.4836 -8.27935 -9.27183 -2.82084 4.09924 -1.17629
2648 -4.63458 -7.74973 -8.02319 0.874288 0.842744 -1.76192
6880 -5.32021 -9.41844 -9.14256 0.925784 -2.05817 -1.29898
4234 -4.83426 -8.65221 -8.68603 2.24035 -0.284306 -2.69745
4751 7.56511 -0.130414 -1.95284 0.656115 -0.841017 1.65349
878 -4.06693 -8.95174 -9.32637 -2.31342 -0.120573 1.26811
308 -3.94702 -8.62801 -8.31865 0.600932 -0.02465 -1.57201
289 8.65728 -9.52648 -5.06596 0.8813 -0.729536 1.75191
6883 -2.35404 -8.89224 -8.57096 -0.577478 -1.45826 1.15194
6879 -2.02696 -9.45768 -9.37591 0.266039 -1.08101 1.4041
84 -1.15961 -8.56752 -8.51534 1.18968 -0.941989 2.11173
66 -0.744022 -9.19684 -9.16062 0.573323 -1.6423 -0.182822
5466 8.11782 -9.10402 -0.993267 0.462837 -0.339487 1.03287
594 -5.67886 -9.38933 -6.44009 0.523045 -0.513368 -0.0357311
653 1.08682 -8.9589 -9.25465 -0.566116 -1.56786 2.01353
933 0.132234 -8.7551 -7.57445 0.692679 1.11348 -0.162199
121 -0.557543 -8.18591 -9.3221 -1.36235 1.77124 -0.260212
3247 1.5805 -7.95436 -9.25741 0.237207 -0.753342 -0.214466
3193 2.53592 -8.57359 -9.22047 0.0938322 0.40934 0.248229
1842 -3.0068 -5.03052 -0.149355 -0.0599463 1.12199 -2.06913
4017 2.54558 -9.2457 -8.54772 2.07079 -0.327138 -0.172728
6608 3.35111 -8.75145 -8.65365 2.07087 -0.273827 0.811489
369 2.69618 -7.66945 -7.97159 2.84423 -2.8071 -0.832197
2930 -6.91307 -6.6785 -9.4262 -1.19146 -1.02307 -0.700451
318 4.2168 -8.82695 -8.17261 -0.894945 -0.184423 1.50417
366 4.04841 -8.26886 -9.09025 -1.14337 -1.35633 1.85087
3249 4.34904 -9.22062 -9.37903 0.551955 0.576937 -1.25214
180 5.2317 -8.0849 -9.51683 1.62642 1.67031 -1.95806
85 5.8188 -7.90774 -8.37093 -0.364313 1.05059 -0.548165
4319 6.04564 -9.01945 -8.17652 1.96073 -1.48607 0.385834
37 5.18864 -8.77241 -8.75766 0.115931 0.878291 -0.320095
2975 6.16115 -8.66562 -9.51884 -0.575322 0.749967 -1.08377
5168 6.78995 -9.29742 -3.94321 -1.49937 1.27001 1.89901
233 9.52887 -7.90259 -9.48849 0.948312 -0.0280616 1.1119
6910 6.90814 -8.92132 -8.871 1.4955 0.69926 2.16831
88 6.58453 -8.19312 -7.71254 2.57968 -0.0571389 1.17374
102 7.71293 -8.40991 -8.21281 -1.43641 0.0520396 -0.574961
3173 8.81368 -8.56726 -8.20681 0.381847 -0.435934 1.07276
630 9.50142 -7.62442 -8.38667 1.28191 -1.77097 -0.879143
3363 -8.8159 -6.99631 -7.90252 -0.649743 1.1673 -1.83274
193 -7.99512 -7.34923 -8.57583 -2.40109 -0.319711 1.44687
3224 -8.91567 -7.09235 -9.15794 1.11726 1.12142 -2.14265
633 -7.14691 -7.64613 -9.22214 0.971924 -0.281234 -2.846
539 -7.05989 -6.67863 -8.45006 -0.383824 -1.95137 -0.186527
4764 -4.01119 -9.10625 -2.48154 2.08955 0.0829335 -1.79913
1166 -6.26579 -7.54143 -8.92356 -1.36809 0.372629 0.455087
684 -5.70781 -6.3233 -8.79425 -2.5723 -0.326185 0.893002
453 -4.62213 -6.07524 -8.97981 -1.0486 -0.602778 2.463
931 -5.00369 -9.02036 -3.8752 -1.62569 0.848978 0.183817
58 -5.34751 -7.23676 -8.80422 0.182537 -0.522911 -3.31978
14 -4.15206 -6.59511 -7.6069 -0.0114785 1.63776 0.546628
631 -4.24255 -6.81223 -8.5873 -1.14599 0.538386 -0.25583
746 -1.20928 -0.116664 -8.95006 -0.73354 0.499954 0.530315
63 -2.09945 -7.98332 -8.85363 1.47918 1.23407 1.40557
910 7.69434 -9.41796 -5.42208 1.10532 -0.257129 1.21273
693 -3.66834 -7.83771 -8.76047 -0.0315934 -0.240782 -3.74364
119 -2.49232 -7.17588 -7.75976 0.122278 0.334507 -0.291287
150 -3.04456 -6.34214 -9.05874 0.153672 0.638639 0.982458
353 -1.25367 -7.50259 -9.126 -0.2874 0.269302 -0.386403
3282 -2.06236 -6.85237 -8.61584 0.214332 1.67149 1.13529
124 -0.717738 -6.7091 -8.53082 0.825478 -0.799041 -1.348
365 -0.541223 -7.77031 -8.43801 0.24128 -2.22876 2.97926
3252 0.595984 -8.0401 -9.07085 1.62936 2.42722 -0.945943
3241 0.499172 -7.14207 -8.61637 -0.358846 1.95619 -0.82362
2702 0.21819 -6.28099 -9.27205 1.71817 -0.590613 0.177514
3196 1.40193 -7.63159 -7.92995 -0.04454 -1.1473 0.494194
659 1.77186 -7.11355 -8.71639 -0.365275 -0.69088 -0.516874
3395 4.64248 -1.40769 -9.35461 -1.06669 -0.415139 -3.15029
745 3.70814 -7.95245 -8.24997 -0.150463 -0.498509 -0.0391394
3007 2.99892 -7.70955 -9.07799 0.678716 0.435077 0.00430785
173 2.69946 -6.71269 -8.84689 -1.14585 0.901468 -1.13698
3399 3.56772 -7.03143 -8.64107 0.555999 0.241201 -2.04221
36 4.73755 -7.88889 -8.33347 -0.744973 -0.299472 1.84534
370 3.9739 -6.21172 -7.87564 -4.0424 -0.778066 -0.113791
697 4.10632 -7.17653 -7.63175 -0.347354 0.71409 0.79021
91 8.87215 -8.70268 -9.25746 -0.197026 0.967535 -0.699534
3202 5.13944 -7.07537 -8.57582 -0.496732 1.47969 0.185739
3115 6.05466 -6.42818 -8.82537 -0.686292 0.962709 -0.149305
375 5.92273 -6.57869 -7.82037 1.52624 -0.938023 0.304636
668 6.67628 -7.21175 -8.23034 -1.14349 1.22728 1.09414
2963 7.05057 -6.26812 -8.41393 -1.46278 0.0808155 -0.00577235
621 -7.34826 -9.27607 -8.24406 1.45352 -0.725565 -1.00396
3203 7.0632 -8.02497 -8.88012 0.0560725 -2.59219 0.124302
38 7.74086 -7.2861 -8.51296 0.0144924 -1.71114 0.0924719
477 8.67563 -6.96083 -8.66974 -0.312932 1.13456 -0.231583
1340 5.49339 -1.25188 -0.529936 -1.66298 0.693331 -1.07655
3212 8.68135 -7.5541 -7.7805 0.944323 0.388084 2.66162
1409 -1.26891 -0.254096 -4.74071 -0.562599 -0.59809 1.88127
68 -8.577 -6.02474 -8.19209 0.289889 -2.11418 2.04391
3071 -9.02832 -5.2558 -9.04212 -0.901109 -0.184719 -1.20592
83 -9.40161 -6.36835 -8.90665 -1.00052 0.588803 0.433631
3267 -8.00668 -5.29805 -8.67198 -0.419586 0.0347371 2.4582
437 -7.06628 -4.75369 -8.36265 0.623268 0.722642 -1.26278
408 -7.85367 -6.36559 -8.89764 3.04598 -0.476747 -0.823344
393 -6.41509 -5.84486 -9.28689 0.391675 -0.872936 1.73829
637 -7.50122 -5.90683 -7.94441 -0.334806 -1.04506 -1.01048
1013 -6.05953 -5.10993 -8.70694 0.755284 3.32099 -0.279349
107 -4.88958 -5.27535 -8.44622 0.999983 1.16576 0.0257235
3275 -4.30095 -5.08272 -9.17854 -0.845225 0.835496 -0.548072
4748 5.52552 -0.464036 -1.54168 -0.254806 2.4953 -0.238508
503 -3.81532 -5.87292 -8.45604 -0.364858 0.382734 -2.65025
452 -3.94381 -4.58686 -8.18771 0.647996 1.51802 -0.574547
980 -0.693127 -9.21745 -0.167319 -1.33368 -0.121226 1.61228
417 -2.21441 -4.93917 -8.21288 1.40249 -0.877856 1.67124
3243 -3.14358 -5.16222 -8.64969 -0.380521 -1.23245 -1.09824
5419 8.96235 -9.45818 -0.65785 0.7686 -0.997606 -0.557773
459 -2.07918 -5.87341 -9.2408 -2.39924 -0.385321 -1.10264
3291 -1.58239 -5.748 -8.38713 -2.83459 -2.07371 -1.2476
3382 0.662416 -5.25241 -8.59565 -1.26904 -0.836382 -2.50706
449 -0.593644 -5.7944 -8.79755 -1.10513 -1.11456 1.22001
126 -1.37756 -6.52476 -9.32667 -1.00891 -0.132063 0.0878867
182 1.56134 -5.50681 -8.18036 -1.51808 0.0261388 0.390949
2908 1.35655 -5.94592 -9.02482 -2.27802 0.0686958 1.53481
3398 2.71458 -5.76685 -7.60658 0.378573 0.76146 1.90089
708 3.27001 -5.82973 -8.62568 -2.3457 0.2918 -1.32828
230 2.39308 -5.49174 -8.89438 -0.679642 -1.81975 -0.563044
702 2.14816 -6.28706 -8.18428 -1.92323 0.461886 0.729012
127 3.96062 -5.15241 -7.39245 0.15245 -0.280774 0.716957
177 4.59025 -5.28405 -8.14386 -1.0296 -1.85013 -0.0490307
4138 -6.95316 -0.130988 -7.60328 0.945088 0.610728 -0.632008
613 5.05172 -6.18628 -7.86935 -0.542812 -2.09598 -0.268696
185 6.35277 -5.66067 -8.15556 1.11513 -0.850395 -2.49461
136 4.42223 -6.09383 -8.90588 -1.89281 -3.05743 1.98272
227 5.54429 -5.01493 -7.8629 1.29174 -2.13687 0.0348448
92 5.4889 -5.55513 -8.63971 1.37988 -1.30323 1.75868
138 6.79318 -4.79078 -8.49533 -2.22699 -0.55841 -0.76389
147 7.54849 -5.22027 -8.96233 0.10958 -0.409309 0.360632
378 7.67917 -6.2775 -9.25215 -0.96925 2.39713 0.598986
3272 8.50301 -5.77009 -8.75674 1.30962 -0.787538 0.802238
3311 8.10328 -6.50936 -7.96091 1.73247 -0.596921 0.394864
392 8.61568 -4.0674 -7.76779 0.381671 0.869718 0.267454
191 -9.17317 -3.97258 -8.1457 -1.80002 -2.09943 -0.614996
196 -8.1197 -3.51952 -9.29194 0.0611483 -1.01434 -1.15629
3324 -8.86608 -4.89746 -7.90179 -0.678676 1.46213 0.49291
197 -9.07471 -4.12958 -9.19628 -0.593647 1.83765 -1.92999
479 -8.26043 -3.37631 -8.02935 -3.63879 -0.244698 2.54368
104 -8.08007 -4.32257 -8.62666 0.557001 -1.24507 0.67301
3319 -6.70663 -4.25933 -9.15832 0.550935 -0.138661 0.396237
288 -7.18934 -3.6936 -8.60449 -2.34284 -0.249651 -0.969771
3329 -3.45211 -4.49669 -9.25265 2.36113 0.987735 0.140111
164 -6.28197 -3.71349 -8.13047 2.10034 1.05527 -0.104246
342 -5.72255 -4.17209 -8.97655 0.873594 0.786217 0.122975
971 -7.88128 -9.32226 -3.9021 -1.15872 1.15639 0.236597
682 -3.75456 -3.56575 -9.17479 -0.0479127 -1.25033 -1.4047
1019 -4.43356 -4.065 -8.83594 0.989902 -1.1009 -1.09933
737 -4.14871 -3.67971 -7.76587 0.868686 0.95729 2.09272
2872 1.66119 -0.45598 -8.96981 2.22073 0.721661 2.78101
163 -3.05421 -4.24071 -8.36138 1.60453 1.38027 -0.166625
789 -2.9758 -3.48594 -7.81033 -1.84119 1.74432 -0.268481
206 -2.74672 -3.36306 -8.76454 -0.389335 -0.0956122 -3.13374
734 -2.38947 -4.23878 -9.06492 1.30856 -1.47489 1.18728
3377 -1.3027 -4.79214 -8.9394 0.590158 0.0738601 0.970166
169 -1.90315 -3.90673 -8.23194 0.391854 1.08998 -1.81556
402 -1.5942 -3.52609 -9.30802 -1.54543 -0.580046 0.410823
738 -0.880912 -3.79883 -8.58916 1.48365 -2.52599 -0.452613
461 0.00376341 -3.94311 -8.49288 0.114976 1.70382 -0.2304
3244 -0.646425 -5.11269 -8.10364 -0.24134 1.32312 -0.155323
272 -0.224675 -4.77151 -8.99534 1.3724 -0.68037 0.1739
1646 -3.81822 -0.0925529 -1.53362 -1.14076 -0.726454 1.87709
3287 0.709036 -4.26732 -9.2634 -0.167703 0.118942 2.75892
507 1.40743 -4.61229 -8.5942 0.151485 -0.994641 0.328102
749 0.9841 -3.73802 -8.23338 0.0415796 0.515651 0.821689
1083 2.02928 -3.59337 -8.56129 2.73526 1.47987 -2.17582
3769 3.5276 -0.0870693 -8.66699 -0.565524 -0.281562 0.596359
4069 2.17387 -2.88581 -9.55051 -1.59771 -1.209 -2.14865
3194 2.31221 -4.75369 -8.07082 -0.224993 -0.795378 -1.96311
280 3.05469 -3.85551 -8.3622 0.170596 0.307303 0.319754
509 3.35465 -4.94755 -8.26354 -0.0837651 0.23945 0.493207
482 4.93373 -3.96381 -8.21726 2.33015 -0.633182 2.18826
3397 4.10622 -4.21968 -7.9717 -0.162879 -0.558786 -0.832562
275 4.00321 -4.0874 -9.00471 1.52801 2.89575 2.6001
517 3.67384 -3.32931 -7.63922 0.345388 -0.198485 -0.320802
532 5.93946 -4.40701 -8.62782 -0.00373553 -0.75648 0.00454164
518 5.69466 -2.82048 -8.71577 -3.92089 -1.18134 0.84106
139 8.29803 -4.70779 -8.70181 -0.17666 1.20961 -0.705222
418 6.89495 -3.87865 -8.21071 -0.932681 -0.105447 -2.04482
3032 7.6579 -3.82482 -8.75419 0.54423 -0.534353 -0.553593
3497 6.39866 -3.05415 -8.0935 0.226276 0.694826 -0.223264
90 8.67759 -3.73837 -9.15792 0.661419 0.444132 -0.332182
729 9.24253 -4.69632 -8.39886 1.85523 0.44164 0.375525
3315 8.78928 -3.06242 -8.05111 -0.671655 2.65737 2.70915
6338 -9.29725 -2.3707 -9.24665 -1.95892 1.16102 0.110965
3799 9.47017 -3.22961 -8.77663 -1.33536 0.397005 0.381801
3785 -8.10893 -1.49864 -8.84284 0.318637 -0.399947 -3.19851
853 -8.50878 -2.48345 -8.64519 0.0125809 -0.0957016 1.74255
3511 -9.31648 -2.31566 -8.07053 -1.0166 0.461167 -0.153128
686 -5.38475 -0.0766003 -8.54985 -0.288831 -1.34273 -1.04341
726 -7.70744 -2.38515 -9.12374 -0.859234 -2.44987 -2.16119
531 -7.23714 -2.7575 -8.32179 -0.00829678 -1.1294 -0.79811
235 -6.34411 -2.21653 -9.45946 -2.18827 0.836539 -0.259604
448 -6.17272 -2.70137 -8.38345 1.02938 0.13862 -0.0055303
817 -5.51372 -2.13964 -8.81281 -0.0509265 -1.15409 -0.861322
728 -6.49059 -3.38835 -9.20796 -1.16365 0.640449 -0.242034
4641 3.14682 -0.782797 -0.963495 0.587843 -2.3441 0.678002
542 -4.58662 -2.77055 -9.03637 0.403185 0.911062 1.0114
109 -5.45264 -3.20782 -8.74874 0.979235 -0.96908 -2.92313
451 -3.57402 -3.02077 -8.3881 1.75469 -0.691706 -1.72291
3322 -4.35563 -2.75385 -7.84184 -3.03844 -1.65752 2.06822
3761 -4.39851 -1.85089 -8.64119 -2.14141 -0.765716 0.94579
494 -3.56314 -2.01974 -8.22075 -2.03816 -0.766223 1.18554
3127 -9.30081 -0.106528 -9.02979 -0.935371 2.42635 -1.65324
1033 -2.68802 -2.4372 -8.39389 -1.75065 1.3234 -0.529342
547 -1.79648 -1.96595 -8.66186 -0.603716 2.18139 1.63837
210 -0.945823 -2.51899 -8.36814 -1.59604 -1.30252 -1.28744
263 -1.77098 -3.02532 -8.45708 2.686 0.157974 2.19432
3107 -0.558317 -3.09133 -9.25147 -3.36756 -2.85574 -0.231593
175 -0.823055 -1.84818 -8.98924 -1.37089 -0.757504 -0.336286
460 0.0583712 -2.90561 -7.78999 -1.19844 -0.284241 0.963099
6653 0.11722 -2.54337 -8.79004 -0.423377 -3.45701 -0.485651
4913 -4.927 -0.543118 -0.139103 -1.86941 1.22399 2.16718
265 0.88329 -1.89533 -8.32048 1.59284 -0.531266 0.26517
4325 8.16724 -0.222846 -0.331155 0.742016 0.148535 0.510384
214 -0.125741 -1.28252 -9.52895 -0.647309 -1.59464 -1.12584
3200 1.32158 -9.48476 -6.77594 0.967547 0.912847 -2.12259
3386 1.35165 -2.42188 -9.16419 -3.34627 0.141464 -1.12916
808 3.87067 -3.23065 -8.6836 -1.15853 0.812626 1.79738
3829 2.67538 -1.91964 -9.28404 2.48615 -0.275723 0.270884
3782 3.56615 -2.32703 -8.86997 0.854041 -1.32653 -0.728638
4886 3.361 -9.40846 -3.60492 0.646263 -0.00551856 0.263661
558 4.52851 -2.46425 -9.1119 -1.95005 1.51178 -1.01058
3352 5.07285 -3.57515 -9.21137 0.661447 0.0979583 1.64181
226 6.43439 -2.93052 -9.3235 -3.69439 0.603139 -0.337844
232 6.41291 -2.12514 -8.67917 0.0912721 0.318102 -0.523333
768 5.49197 -1.96503 -8.25057 -1.22905 0.783968 -2.07296
3447 7.10447 -1.68966 -9.01611 -1.49488 -1.63369 0.16557
3491 7.21914 -2.79079 -8.71119 -1.01226 -1.77225 1.91806
3314 8.10483 -2.89209 -9.07904 2.19938 -0.161174 -1.01894
5179 -9.1009 -9.25011 -1.15213 1.44488 -1.63307 2.29127
278 8.87551 -2.23854 -8.81016 3.78465 1.72646 -0.24895
1147 8.00862 -1.31517 -8.46661 -0.084192 0.4631 0.73835
6627 -8.66553 -0.718805 -8.32583 2.61828 -2.06077 1.95237
4082 -9.31166 -1.33005 -8.79392 0.143762 -1.53196 -0.0968976
3663 -2.4198 -8.96671 -7.65411 1.69596 -3.8439 -2.43767
3221 7.07424 -7.15829 -9.29719 -1.74231 -1.25397 -0.555644
5143 -4.49513 -9.41393 -1.59812 0.347829 2.00477 0.228708
200 -7.5685 -0.572098 -9.27077 -0.744642 -0.806357 -2.0604
858 8.12309 -1.7743 -9.46613 -1.87844 -0.831163 -1.4835
3350 5.25677 -0.550256 -7.05239 -0.326802 -0.53764 1.03188
3753 -6.47551 -0.588187 -8.55698 -1.8351 1.59221 0.207441
492 -5.68151 -1.15424 -9.13055 -4.027 0.690249 -1.59687
1880 -6.55637 -3.07797 -0.0100118 -1.4657 1.41324 0.566437
816 -6.90453 -1.85409 -8.71373 0.111641 1.39436 2.07967
490 -4.82205 -0.917258 -8.1569 1.81913 -1.99513 -1.48757
2299 8.50531 -1.36171 -0.321855 1.96852 1.84125 -0.247299
2800 -3.71163 -0.872982 -8.86703 -1.02713 1.43072 3.18234
3803 -4.001 -0.175628 -8.22477 -0.545369 -1.08607 -0.498314
3227 -7.44848 -8.69489 -9.18997 -0.982684 -1.67611 1.05462
3428 -2.87112 -1.42119 -8.71722 -0.599768 -0.314609 -1.95443
3383 -3.10055 -0.0597308 -8.54399 -1.63534 1.47253 -0.484872
4347 -0.34908 -0.779334 -8.62637 1.19133 0.22601 0.353667
319 -1.4331 -9.17339 -7.62571 -0.334 0.00236056 -0.267209
545 -2.13308 -0.772286 -8.82693 -0.677495 -0.335358 -0.735319
1756 -0.0877576 -9.26648 -1.04384 -0.125387 0.844553 -1.33935
6655 0.740858 -0.846315 -8.83976 3.5751 2.0399 1.43354
2841 -8.06857 -2.06104 -0.215451 -1.40523 0.137936 0.318468
3637 5.84437 -9.44067 -6.2349 -0.581652 -0.386028 0.728236
4346 -1.23749 -0.455695 -2.57226 0.281758 1.75923 -0.118752
3145 1.38025 -1.00492 -8.05374 -0.144278 -1.18371 1.05857
269 2.29706 -0.463402 -7.69858 -2.22659 0.646609 0.77395
171 1.79396 -1.50273 -8.98074 0.338643 -1.46258 -0.92469
3064 3.47836 -1.33339 -8.73405 1.71294 0.49296 -0.681452
4624 -3.18542 -0.117902 -4.97201 -0.550393 2.74046 -0.077019
1982 -6.0237 -1.89424 -0.0337313 1.69124 -0.762278 0.0970455
4068 5.22121 -0.971644 -8.02768 0.461304 0.894152 2.28363
3492 4.31302 -0.858167 -8.49176 -2.19773 1.31987 1.16959
565 5.10604 -0.50039 -8.97852 1.29148 1.7841 1.12307
3499 9.21427 -0.105984 -7.69934 -1.42339 0.163924 -0.52363
3774 6.12094 -1.22197 -9.15742 -0.214232 2.58488 2.96843
3747 6.3456 -0.196744 -8.61846 -0.668189 0.619703 -1.32326
3835 7.13542 -0.624985 -9.20998 -2.23802 1.92899 0.675284
381 7.73146 -9.50672 -8.57083 -0.097396 -1.63721 1.55354
1729 -7.74056 -9.14031 -1.97079 0.0205952 3.11477 -1.86096
3503 8.16649 -0.735267 -9.30304 -0.326425 1.30194 -0.0059238
524 8.11506 -0.519879 -8.02428 0.263675 2.2377 2.2229
5036 4.57041 -0.198789 -1.18142 -0.229705 0.503868 -0.934267
298 -8.62534 -7.94265 -7.75956 -0.757653 0.454724 -1.73069
581 -9.21677 -9.01657 -6.20297 -1.60761 1.64776 -2.47186
56 -7.98306 -8.65482 -7.40364 -0.624273 0.0604286 -0.224186
345 -8.50719 -8.34937 -6.636 -0.157657 0.610771 -0.327824
3225 -9.21973 -8.64647 -7.28051 0.408651 -0.231643 -0.0836815
921 -7.77754 -8.94465 -6.35659 -0.927761 0.0878506 -0.407906
2888 -7.69054 -7.76627 -7.43608 2.27724 0.529139 -1.91782
4284 -7.12097 -8.35796 -6.8775 0.0973898 -1.44053 -0.0421921
447 -6.32083 -9.12584 -7.2287 -1.04979 1.47576 1.86581
588 -6.44911 -8.36829 -7.80392 0.985885 -1.42749 0.947197
690 -5.5177 -9.11963 -8.13321 -1.57841 0.341182 -0.664757
587 -4.98783 -8.53852 -7.35558 -1.73436 -0.718891 -0.627645
3986 -4.18868 -9.04287 -7.56455 -0.706937 0.842184 -1.47486
689 -3.90838 -8.08118 -7.50347 -1.56268 0.2072 0.11359
349 -5.4991 -8.30223 -6.27419 2.32118 0.474635 -1.38372
251 -4.77227 -1.04083 -9.09881 0.661899 0.590004 1.95361
3716 -3.24479 -8.59099 -7.23575 -1.23011 -0.255205 -2.6971
1124 -2.12994 -0.0983757 -4.25369 -3.11751 -0.95927 -2.46347
299 -0.757393 -8.95465 -6.96213 0.325829 -0.208547 0.464032
695 -0.623642 -8.03923 -7.50055 -0.697056 -0.756131 1.69538
403 -1.81703 -8.66006 -6.69209 0.669271 -1.31807 1.05293
655 -1.12228 -7.93688 -6.7479 0.689412 -0.933896 1.17018
312 0.392308 -7.86326 -7.96401 -1.50206 1.42343 0.0578866
4006 0.343982 -8.00635 -6.88119 -0.753998 -0.596033 -0.118654
125 1.44482 -7.69553 -6.81335 0.0734639 1.10366 -1.94787
71 1.86862 -8.47556 -8.32504 -0.150245 -0.0122382 1.3694
3736 2.21821 -9.05903 -7.31804 0.977155 0.530768 -0.187153
317 1.13761 -8.50768 -7.41934 0.264448 3.20048 0.309745
4010 1.91732 -8.58318 -6.55324 0.0959215 -0.233578 0.0361865
6887 1.54673 -9.48494 -7.93912 0.955561 -1.35836 0.350058
898 3.10308 -8.7685 -7.63152 1.30818 -2.51381 -0.0226369
990 2.97974 -8.76294 -6.54063 1.49384 -2.56125 0.683191
1451 -6.47854 -9.26216 0.017502 -1.17955 2.49077 1.32924
321 5.0948 -9.09914 -7.71788 1.42183 -1.24274 1.08388
77 4.05401 -9.07631 -7.19729 -1.88404 -0.694568 1.02438
4018 5.06541 -8.76445 -6.70069 -1.39942 -0.596969 -0.780257
1041 6.68489 -8.28578 -6.72891 -1.6713 -1.54313 -0.419372
3211 6.06086 -9.24476 -7.15235 1.71686 1.5298 -0.193099
3891 7.11804 -9.16068 -7.65308 -0.170088 -1.5475 -1.17183
590 7.42329 -8.33238 -6.12698 -0.997979 0.17128 -1.40371
3988 7.6633 -9.29716 -6.85297 -0.931301 0.752293 3.53442
1795 -1.5967 -9.23268 -0.400568 0.166712 0.659137 -0.726392
2971 8.56323 -8.26854 -7.1232 1.5785 2.5263 1.28295
430 7.58323 -8.3775 -7.17352 0.12207 -0.299196 0.209454
291 8.18843 -9.0522 -7.63607 0.235191 -0.404091 -0.671002
382 9.31081 -8.19305 -6.50262 -2.19644 2.36467 -1.36114
3271 9.46056 -7.42718 -7.21778 -0.522959 -0.241021 0.4788
683 -8.46365 -7.34453 -6.97297 1.00724 -1.17451 -0.188835
347 -7.0501 -7.66165 -8.2514 0.185721 -1.66187 0.44857
103 -7.45636 -7.05071 -6.8436 0.483806 -0.908703 -0.943781
396 -7.9114 -6.75238 -7.71766 -1.74729 1.64232 -0.624807
870 -6.12196 -7.07507 -8.03609 1.63227 -2.05902 -1.23125
600 -5.31981 -7.06889 -6.45754 -0.573352 0.917002 -0.421909
3710 -5.66677 -7.90471 -7.1329 0.711331 -1.89653 2.1935
584 -6.65407 -7.60002 -7.11503 1.32014 1.41404 -0.343172
3184 -5.8439 -6.41243 -7.28969 1.43446 -0.43811 0.205329
168 -5.19383 -7.08864 -7.43885 -1.90993 -0.705498 3.56617
399 -4.71165 -7.75562 -6.76658 -0.470233 -0.0340278 -0.611996
412 -4.81698 -6.25024 -6.86289 -0.477019 0.510745 1.87621
24 -3.81082 -7.28425 -6.95768 0.320318 -2.56267 -0.22438
1502 -3.42582 -7.04241 -8.00342 0.117754 -1.01745 -0.737244
3959 -3.05228 -8.03872 -8.03707 -0.202242 -0.810134 -2.7964
874 -2.88067 -6.834 -6.98905 1.46597 0.684735 0.00874013
596 -2.85088 -7.76971 -6.53655 -1.57379 0.830013 -1.28201
597 -1.91921 -8.1127 -7.71893 -1.56751 -0.519797 -0.280801
3998 -1.83522 -7.0759 -6.82569 1.17901 -0.871185 0.374852
4237 -1.45945 -7.2571 -7.90721 1.05391 3.71814 -0.149161
170 -1.94086 -6.35833 -7.70108 -0.91292 2.55428 -2.80794
938 -0.899382 -6.87877 -7.0185 1.08675 -0.74485 -0.386024
416 0.556422 -7.45731 -6.11565 -0.92964 0.618817 -2.16642
753 -0.288367 -7.13404 -7.7027 -0.903095 0.039225 2.33086
4016 0.723742 -6.89752 -7.39601 -0.643167 -0.23219 0.621719
468 1.57661 -6.56831 -6.64104 0.320374 0.162658 1.31541
803 1.54852 -7.77691 -5.66019 -0.6184 1.21483 0.916921
699 0.528852 -6.18377 -6.41099 0.316323 -0.114919 -1.25097
519 2.3555 -7.87685 -7.13659 -1.86722 0.378851 1.57317
3300 3.06302 -6.72578 -7.65242 0.440741 0.754198 -0.956692
610 3.56445 -7.96037 -7.04665 0.0789687 -2.9721 -2.07854
128 1.97889 -6.98853 -7.50283 1.37607 -1.53702 0.893851
704 2.47201 -7.54005 -6.1844 1.406 -1.31255 2.11089
368 2.61406 -6.70721 -6.75571 -1.84064 1.25088 -0.986958
609 5.07419 -7.29305 -7.52242 1.7826 2.38079 -1.44994
323 4.49112 -8.14782 -7.29582 0.109825 -0.688059 -0.0469521
466 4.64954 -6.94187 -6.59748 -0.266844 2.72134 -0.556507
616 4.17617 -7.79593 -6.32293 -0.482793 1.41112 -0.904176
4024 6.08806 -7.25482 -7.1131 -0.523776 0.100357 -0.156882
611 5.50531 -8.20801 -7.55992 -1.55625 -0.475041 -0.0852599
474 5.42607 -6.51252 -6.87596 1.309 1.40798 1.88002
3739 6.16429 -7.45746 -6.04342 -0.135147 0.363729 -0.279165
666 6.20745 -6.54136 -6.3168 -0.97534 0.130934 -1.79198
42 7.53352 -7.509 -7.62102 -0.132628 -2.03223 1.27283
152 7.3273 -7.48218 -6.60286 0.467962 -0.938239 -1.06429
4027 8.30951 -7.55 -6.19492 -1.03894 1.56114 0.449537
428 8.03925 -6.63697 -5.92477 2.17169 1.19358 -0.457663
60 8.01733 -6.89073 -7.05256 -0.25865 -1.2125 -1.45694
189 9.01576 -6.88841 -6.51008 -0.0745019 -0.455964 1.82895
667 8.98807 -6.41419 -7.64956 -0.71451 3.02798 1.23054
327 8.40964 -5.90419 -6.79296 1.89134 1.64343 -0.624638
3368 -8.85135 -6.16468 -7.28516 -0.148989 0.0881726 1.74068
491 -8.58894 -5.14091 -6.86437 0.457465 1.47409 1.1165
237 -9.47885 -5.60738 -8.24438 1.85384 -0.117054 2.16577
2944 -8.08177 -6.49606 -6.37144 -1.66187 -0.297141 1.15444
356 -7.90189 -5.82829 -7.0354 1.11813 -1.28733 2.65261
302 -6.76526 -5.32246 -7.43916 -0.553265 0.561521 -2.54044
194 -7.86013 -5.27251 -5.78805 1.13315 -0.194878 0.47971
1542 -6.91664 -6.46731 -7.41557 -0.0429862 -2.28196 0.203932
770 -6.41763 -5.87993 -8.18775 -0.0996723 2.41819 -1.27571
76 -6.16532 -5.6382 -6.75618 -0.228455 -0.209523 -0.200626
748 -5.02175 -6.1876 -8.0503 -2.46091 -0.469451 -1.45912
739 -5.64688 -5.51648 -7.70722 -0.803301 0.0828964 -0.866932
642 -4.40556 -5.5007 -7.54483 1.13001 0.125944 1.10575
582 -4.97001 -4.46177 -7.92978 0.053816 0.628261 -0.268292
592 -3.73156 -5.91916 -6.98115 1.40942 1.63072 0.849335
605 -2.68097 -5.95303 -8.2594 2.27207 -1.54653 -1.62749
932 -2.34649 -5.47188 -7.17923 1.70871 1.42812 -0.719438
441 -3.253 -5.26865 -7.66389 0.731552 -1.49531 0.934973
457 -2.83072 -4.69259 -6.61016 -1.5719 0.374881 0.501064
3335 -3.97054 -5.11615 -6.47742 0.334991 -1.14384 1.19906
3337 -1.23395 -4.10438 -7.38976 0.486794 -0.49628 -1.84925
405 -0.963817 -5.94529 -7.45419 0.70637 0.440522 -1.55992
3767 -1.45655 -5.11717 -7.35841 0.0686771 0.509992 0.0713545
221 0.364758 -6.17099 -8.17415 -0.479726 -0.49166 -0.821988
464 0.695957 -5.37522 -7.19996 0.789895 0.210962 -0.515198
26 -0.304314 -5.1144 -6.95896 1.66563 1.32679 -0.631917
1272 -0.119712 -6.24913 -7.1695 0.281179 1.09852 -0.816443
987 0.259534 -5.23572 -6.19905 -1.76498 -0.517258 0.670308
122 1.47657 -4.80341 -7.51254 2.96973 0.708414 -0.501871
897 1.99763 -5.60378 -7.05596 -0.710508 0.514476 -1.10175
174 1.39375 -5.69247 -6.23611 -0.121339 0.399211 -0.811411
424 2.81257 -4.9404 -7.10579 -0.941791 0.664797 1.5323
3295 3.3564 -5.9337 -6.79581 -1.67592 1.47683 -0.63073
181 2.68444 -4.94287 -5.59855 1.04257 -0.521483 -2.00122
3011 3.55951 -6.90931 -6.75238 2.48115 -1.33023 0.028891
419 4.69012 -5.98117 -5.89219 -0.514121 0.341325 -0.0974756
414 3.96323 -5.24703 -6.34227 0.599907 -0.078628 0.807771
372 4.69043 -4.54217 -7.28163 2.97865 -0.941817 -1.13085
183 4.43212 -6.05318 -6.9262 -1.19214 1.76605 2.50533
322 5.27169 -5.54732 -6.91761 -1.72472 -0.641399 -0.403121
665 6.19599 -5.8213 -7.15846 0.367312 -0.88032 1.51405
380 6.9497 -6.73742 -7.21525 1.4041 -0.16131 -2.52986
754 7.64629 -4.4746 -7.85432 -0.457375 0.3122 -0.604224
384 7.44301 -5.74998 -7.61504 0.7427 0.932076 -0.137277
376 7.36646 -6.19187 -6.60953 0.692023 0.0927886 -0.124938
300 8.63377 -5.25156 -7.72192 0.213755 1.42019 -1.41495
87 7.88786 -5.09442 -6.88757 1.75354 1.24051 -0.662128
924 8.90091 -4.97237 -6.78495 -0.778797 2.10064 -0.717504
51 9.49394 -5.64611 -6.98279 0.105543 1.44355 -0.614652
3023 9.44392 -4.42667 -7.36703 1.79319 -1.29353 0.478893
4333 -7.81178 -4.99396 -7.70721 -1.2049 -0.00368841 -1.19825
869 -8.70384 -4.01169 -7.27237 0.194757 0.688572 1.7967
481 -7.37585 -4.04247 -7.72762 1.25546 1.34289 0.845585
3320 -7.77708 -3.46438 -6.95344 -2.20297 2.66296 -0.188247
394 -6.56165 -4.39565 -6.96635 -0.0739613 1.19178 -1.03858
3259 -7.74545 -4.48057 -6.83779 0.402045 1.81476 -1.86173
3318 -6.12226 -4.61813 -7.88792 -0.811147 0.543987 -1.38776
390 -5.90247 -3.39655 -7.1989 -1.75909 -1.37972 0.232833
12 -5.23205 -3.49364 -7.8714 0.583747 -1.33752 -0.752134
1553 -5.49207 -4.25381 -6.97812 -0.98095 -0.0906721 -1.77718
782 -4.43732 -4.53519 -7.10866 1.10844 0.354076 -1.00987
735 -3.47813 -4.29749 -7.22249 -1.01978 1.83035 -1.02242
793 -2.20767 -4.41211 -7.3673 -0.95485 -0.645766 0.549855
742 -3.03285 -3.52129 -6.84522 -1.98024 -1.43547 -1.01303
696 -2.0807 -3.38043 -7.33519 -0.28049 -0.36635 0.257995
215 -1.7578 -3.93459 -6.40692 -0.180898 0.397303 2.40448
463 -1.01814 -3.23698 -7.61816 0.189747 -1.85472 -2.01168
3331 0.316354 -4.70055 -7.79807 0.748504 -0.978954 2.02506
1082 -0.203731 -3.97177 -7.49699 1.93446 -3.33232 -0.664634
3293 0.645846 -4.42301 -6.80515 0.82055 -1.04858 0.380807
3773 -0.81509 -4.34321 -6.52663 0.869642 2.11762 -0.544444
1039 0.704862 -3.49616 -7.28483 -1.36112 1.63371 1.09735
790 0.0748277 -3.97034 -6.0296 1.59384 -1.45684 2.24621
271 1.87715 -3.82627 -7.52312 0.35962 -0.820866 0.660138
462 1.59885 -3.69923 -6.40061 0.777369 0.249348 -0.404912
3391 2.13067 -4.6784 -6.39442 -0.127401 0.993755 1.11451
692 2.46142 -3.11658 -7.57203 0.00989209 -0.489852 1.21932
799 3.04919 -3.96839 -7.24926 0.9753 1.01743 -0.24967
231 2.94507 -4.21598 -6.28904 0.664873 -0.863907 0.540307
229 3.76585 -3.97363 -6.69699 0.792856 1.11714 1.72537
1380 4.28815 -3.18663 -6.25786 0.680441 0.788102 3.80457
711 4.78702 -4.05698 -6.35207 0.854229 0.0672858 1.98698
371 5.98171 -4.90452 -6.74436 0.954634 1.09285 1.6486
377 6.05219 -4.28655 -7.53652 0.157572 0.261375 -0.616829
471 4.58418 -3.53394 -7.33857 -1.19284 1.42607 3.14884
807 5.56605 -3.83856 -6.88309 -1.11851 -1.43995 -0.790982
523 5.55793 -3.30765 -7.65014 0.260171 -1.18009 -1.41656
188 6.8111 -4.85003 -7.35609 -0.761687 -0.271429 1.34898
964 7.85928 -4.04508 -6.92907 1.82946 0.213155 2.79656
521 6.60188 -3.59788 -7.1784 -0.979278 0.0893915 -0.59657
135 7.75363 -3.36516 -7.88352 0.411057 -1.33851 0.462004
861 8.21462 -3.03524 -7.02299 -0.124309 1.73313 0.467961
144 8.84035 -4.04692 -6.35322 0.134059 0.570124 -0.0212904
434 -9.1715 -3.06008 -7.49201 0.491977 0.425116 -0.113004
429 -8.7195 -2.16661 -7.36321 0.739636 -1.61451 1.40896
724 -8.54732 -2.92748 -6.62748 -2.20809 -1.68309 -0.63759
1010 9.32586 -2.35747 -7.22125 -0.752369 -0.955651 -0.0989048
820 -8.286 -2.00275 -6.30042 0.638915 0.358551 0.177873
809 -7.85304 -2.48321 -7.24651 -0.697972 1.55843 -0.483811
578 -6.95016 -3.1156 -7.41605 0.607888 1.86255 2.06121
3791 -7.689 -1.76329 -7.88334 1.84456 0.385169 -2.91794
244 -5.40148 -2.40852 -7.81497 -0.509658 0.463435 -3.06478
3520 -5.88313 -1.43559 -8.12358 -0.938162 -1.52756 -0.043992
819 -6.33143 -2.55835 -6.68289 -1.33254 0.63336 1.17541
4043 -5.07084 -1.84013 -6.78506 2.07588 1.42769 1.85871
4055 -5.03328 -2.87857 -6.90269 -1.96517 0.899456 -0.83031
498 -4.08869 -2.22257 -6.89609 -2.71163 -0.742182 1.39903
3474 -4.0783 -3.3661 -6.83973 -1.93306 -0.983204 1.49541
688 -3.29437 -2.61999 -7.36508 -0.659202 -2.5472 0.50899
458 -2.81038 -1.82657 -7.65255 1.13028 0.848955 1.96312
552 -2.97003 -1.83716 -6.64526 -0.765701 -1.37993 1.7486
538 -2.08502 -2.29248 -6.72241 -1.62537 2.04185 -0.259069
216 -1.66237 -2.28497 -7.67961 0.558602 -1.29406 0.453379
3431 -0.621976 -2.403 -7.3197 -0.0439087 0.61634 -1.47126
3436 -1.30735 -1.05026 -8.25113 0.217274 0.773034 -1.60924
512 -0.376876 -1.73745 -8.04266 -1.98017 -0.555762 1.28979
176 0.525606 -2.52505 -7.0481 1.30872 -0.634029 0.498915
407 1.75255 -2.59952 -6.96281 1.2894 -0.411387 -0.759277
555 1.19981 -1.67243 -7.31407 0.567893 -0.397022 -0.415237
223 1.36423 -2.88008 -8.09069 -1.61015 1.12556 -2.38545
852 1.95019 -2.09259 -7.8341 -2.03555 1.0429 -1.24932
838 0.974603 -2.03776 -6.31624 0.905522 -1.00476 0.597527
273 2.55667 -2.61194 -8.50046 -0.494362 1.07726 -1.04436
473 3.33648 -2.95302 -6.73118 -1.00357 -3.89643 -0.625253
267 2.62685 -2.04242 -7.11521 1.40077 -3.08594 1.2202
564 3.69385 -1.89317 -6.65022 -0.0415528 -2.36396 -0.10499
805 2.72319 -1.45468 -7.88874 0.381934 -0.587346 -2.47658
283 4.48754 -1.76692 -8.29803 -1.62958 -0.360497 -2.45329
3402 3.25404 -2.39659 -7.82338 -2.36855 0.00969234 -0.942905
850 4.65895 -2.79883 -8.22289 0.687124 -0.144241 -1.40006
514 4.18205 -2.45897 -7.40426 -0.95611 0.243819 -1.80396