ITEM: TIMESTEP
85000
ITEM: NUMBER OF ATOMS
6912
ITEM: BOX BOUNDS pp pp pp
-9.5244063118091962e+00 9.5244063118091962e+00
-9.5244063118091962e+00 9.5244063118091962e+00
-9.5244063118091962e+00 9.5244063118091962e+00
ITEM: ATOMS id x y z vx vy vz
51 -8.64945 -7.67986 -8.64955 0.832167 -0.758216 0.203016
290 -8.61671 -8.7474 -8.01189 1.25744 -0.490987 0.117701
3765 -1.46901 -0.098493 -8.10034 0.117 3.56316 -1.49517
8 -7.87374 -8.63667 -8.64674 -0.387087 1.19855 0.217138
55 -7.13059 -7.91954 -8.71194 -1.0411 -0.68263 0.206987
294 -7.17076 -8.60979 -7.98361 0.762098 2.93834 -1.26854
341 -7.80614 -7.7821 -8.01904 0.857836 3.93257 2.05484
1441 9.05648 -9.51432 -1.67343 -0.736445 -0.409765 1.26285
12 -6.29814 -8.66414 -8.83358 1.77975 -3.18627 -0.179386
94 8.8343 -7.24612 -9.50068 -2.1114 0.315319 0.342922
1163 -5.54112 -9.37238 -2.37862 -0.559148 -1.18614 -0.176752
298 -5.46865 -8.56211 -7.83856 0.166417 -0.275854 -1.54213
16 -4.85145 -8.43471 -8.63634 0.579306 -1.07135 -1.98406
63 -4.08232 -7.82694 -8.609 0.0554361 1.80326 -0.353492
7 -7.05075 -9.30626 -8.90973 -2.83622 0.0530332 0.566349
20 -3.17654 -8.55017 -8.64089 -1.18889 -0.289182 -1.69149
353 -3.2582 -7.75486 -7.95118 1.3936 -1.32718 -0.00632072
67 -2.47144 -7.86788 -8.59435 2.38104 -0.254169 3.57599
306 -2.34779 -8.6737 -7.7451 1.74686 -0.377231 1.8383
24 -1.66562 -8.62835 -8.63333 -1.50393 -0.231863 0.757239
71 -0.732118 -7.93665 -8.56802 -0.74456 1.07017 0.641877
28 0.0948964 -8.50518 -8.65549 -0.826156 0.645908 1.97866
314 0.923107 -8.78244 -7.87596 0.54863 0.213211 -2.44237
361 0.141856 -7.91609 -7.80797 0.6389 -1.36704 -1.10632
61 -4.35964 -7.53912 -9.44175 -0.484256 -1.03434 -0.532241
1727 8.62221 -1.66587 -0.711881 -1.19237 -1.19403 3.28836
32 1.50136 -8.9094 -8.81995 -3.36704 -0.760247 -0.833377
75 0.97133 -7.90141 -8.83206 0.525526 0.652368 0.455156
50 -8.67519 -7.0112 -9.4994 -0.807368 0.935771 0.653749
36 3.17802 -8.87325 -8.80021 -1.67547 1.88123 0.359064
318 2.32452 -8.69508 -7.88553 -2.11443 0.509022 1.23032
79 2.28412 -8.04039 -8.73302 2.37136 -1.58241 0.16361
1167 -4.02854 -9.45194 -2.67712 -1.5325 -0.896764 -0.676969
40 4.69967 -8.77732 -8.65487 -0.731757 0.256161 -1.22937
83 3.73478 -8.01577 -8.6872 0.936514 -1.10268 0.462002
3771 0.697276 -0.241555 -7.1534 -0.513476 -0.612881 -1.68692
44 6.33835 -8.93488 -8.79339 0.288353 -0.169046 -0.295205
87 5.51515 -8.15981 -8.89425 -0.899527 0.637283 -1.82869
326 5.55333 -8.74434 -7.9661 -0.729673 -0.573001 0.241368
4939 7.29218 -0.0687192 -0.873873 0.783459 -0.880817 0.239874
1457 -3.3829 -9.19934 -1.80043 -1.11462 0.720581 -1.18528
48 8.06937 -8.90329 -8.63437 -3.20629 -2.28898 -0.121897
330 7.07818 -8.88728 -8.07134 -0.268262 1.87205 -0.849488
4 -9.4335 -8.81291 -8.7971 1.41083 -1.63465 0.623183
891 0.654395 -9.46044 -4.11591 0.664875 0.360716 -0.393976
56 -7.85115 -6.91317 -8.83068 -0.684655 -1.19991 -0.355166
99 -8.76168 -6.29271 -8.8177 -1.04898 1.37066 0.511926
4897 9.42952 -0.0297971 -1.31219 0.184242 0.801529 1.41785
297 -6.31 -9.31463 -7.90175 3.45405 -1.17511 1.18862
342 -7.04965 -6.81646 -7.76582 0.727969 -0.357087 0.500037
209 -3.05597 -3.22438 -9.52472 1.80269 1.22043 -1.92541
59 -5.62771 -7.84494 -8.69084 0.873265 0.596386 -0.386318
4937 6.41602 -0.0820793 -1.70468 1.08472 -0.235486 0.144454
60 -6.12121 -6.97482 -8.87973 0.0314804 0.578431 -0.621412
393 -6.33169 -6.10839 -7.87215 -1.43873 -2.72528 0.868899
346 -5.6193 -6.97677 -7.96186 0.645727 0.609601 -1.75427
64 -4.87631 -7.08972 -8.66345 -3.41811 0.565403 -0.434958
299 -5.40432 -9.30185 -7.09167 0.115919 -0.068517 -0.317863
111 -3.96128 -6.19692 -8.6597 -0.0458785 2.08006 -1.31407
68 -3.25067 -7.02576 -8.73384 -0.00304408 -1.00835 -1.49797
115 -2.31385 -6.42671 -8.8137 1.73655 1.70903 -0.854402
354 -2.37072 -6.84386 -7.87315 0.294761 -1.32777 -2.31132
1527 5.49068 -9.44544 -0.859577 -0.179874 -1.59563 3.12995
226 3.95934 -2.54303 -9.35643 0.186894 1.71009 0.129457
72 -1.62607 -7.0057 -8.83707 2.25975 -3.11486 0.353136
76 -0.62543 -6.32573 -8.67372 -0.96186 1.49332 0.885441
405 -1.4116 -6.38519 -8.03077 -1.7163 0.0739053 -2.40734
273 3.44455 -1.65889 -9.16705 -0.751973 -0.153301 2.12549
889 -0.130682 -9.50334 -4.89315 -1.49671 -0.0142987 1.7844
362 -0.0945906 -7.14563 -8.63412 -0.55989 1.41502 -1.49909
368 0.974173 -7.13457 -8.04672 -1.07238 0.51009 0.152827
4051 -2.4427 -0.0191122 -5.62464 -2.74819 -0.660745 0.0960905
409 0.0159381 -6.0644 -7.88813 2.2463 -0.816953 -0.907792
80 1.7521 -7.20261 -8.80991 -1.18703 -1.63669 -1.75331
4935 5.44327 -0.169415 -0.813255 -1.00034 -0.551853 -0.964324
1461 -1.46451 -9.46808 -1.53582 -0.672887 0.458002 0.153217
84 2.99093 -7.25187 -8.85761 0.844048 0.207382 -1.99468
127 2.34589 -6.30106 -8.71281 0.756798 1.35227 -0.404673
194 -8.73153 -2.24203 -9.42977 -0.255198 1.0026 -0.606745
88 4.59079 -7.42235 -8.76042 -0.797698 -0.590687 -0.492369
15 -4.19199 -9.51643 -8.76855 -0.452838 0.213442 0.687669
373 4.50449 -8.03916 -7.91797 0.23433 -1.63932 2.08639
370 3.87885 -7.22928 -7.93152 -1.10418 -1.40222 -0.672872
82 3.88157 -7.28837 -9.49776 2.3719 -1.16574 -1.97585
92 6.20216 -7.31109 -8.62214 -0.579296 -1.08461 -1.98884
374 5.36791 -7.52661 -8.02527 0.628089 1.61585 -0.474212
377 6.20428 -8.04058 -7.60184 -2.1637 -2.45571 -0.853351
1854 2.37107 -5.72689 -0.144788 -0.0562158 -0.198504 1.13424
233 6.50615 -3.32574 -9.27001 -0.358099 -1.64128 0.553316
91 7.14202 -7.89466 -8.66006 -0.42396 -1.72082 -1.09254
96 7.80739 -7.2342 -8.6648 -1.00545 -1.57558 -3.06988
429 7.95055 -6.53374 -7.93166 -0.112161 0.0517767 1.51078
52 -9.46535 -7.12663 -8.7649 0.849805 -0.328033 0.371406
95 8.79007 -8.11627 -8.70619 1.94622 -0.276009 0.469971
593 -3.02991 -9.26252 -6.40242 0.100725 0.977908 0.869201
104 -7.98677 -5.66424 -8.89644 3.99914 -1.15724 -0.554124
100 9.50712 -5.51964 -8.75291 0.610361 1.23846 0.562881
386 -8.77174 -5.57755 -8.10485 1.59521 0.31602 0.223529
73 -0.0193305 -7.92091 -9.38819 0.764248 -2.68292 -0.228849
103 -7.02078 -6.24364 -8.86268 -0.773847 1.26373 2.16925
151 -7.11257 -4.77372 -8.85415 0.722158 0.793369 0.540048
389 -7.88689 -6.17379 -7.94725 0.924737 1.18399 0.396089
178 4.05598 -4.1522 -9.42363 -0.939778 0.886071 -0.162752
107 -5.65362 -6.13971 -8.76245 -0.90444 -1.06085 0.443486
108 -6.20204 -5.27092 -8.8011 -0.737739 0.931445 1.35143
155 -5.60861 -4.43797 -8.76077 -1.15835 0.827968 -1.53623
112 -4.97908 -5.34498 -8.63023 1.74544 -0.213388 0.356719
397 -4.90186 -6.28773 -8.01091 2.07341 -0.720642 1.05102
18 -2.43317 -8.76476 -9.334 1.28948 -1.2512 -1.1179
116 -3.03024 -5.5064 -8.80541 -1.66213 1.49747 -1.47165
163 -2.39279 -4.64775 -8.64449 0.404814 -0.199063 -2.53911
1445 -8.06437 -9.40842 -1.48591 0.496653 1.8094 -2.74288
120 -1.55103 -5.58791 -8.67695 -1.05294 -0.322859 -0.381939
123 0.727653 -6.43151 -8.7742 0.225913 1.99728 -0.709854
124 0.151358 -5.50318 -8.85799 -0.531573 -0.345263 -1.11152
167 -0.730841 -4.83668 -8.75165 -0.506853 0.95393 -1.37432
122 1.50041 -5.75277 -8.96851 -0.268373 0.128232 -2.13854
286 8.6968 -0.774475 -9.47071 2.29584 0.480617 -0.114255
873 -6.25844 -9.29476 -4.8844 -1.87679 0.542854 0.327351
461 1.47516 -4.64403 -7.86271 -1.26008 -1.85469 -1.6235
128 3.31522 -5.51686 -8.86692 -1.01618 -0.998785 1.00149
175 2.22618 -4.99781 -8.81698 1.42069 0.321426 -1.30123
1453 -4.6377 -9.44426 -1.74378 0.681101 1.4 -1.84547
875 -5.45448 -9.41522 -4.06885 -1.81454 -0.628791 -0.218478
131 3.99904 -6.47652 -8.87849 0.947199 1.54371 -1.07697
136 4.82352 -5.71238 -8.74755 -1.0315 -0.0868548 0.336781
1169 -3.08906 -9.35225 -3.42931 1.59101 -0.486254 -0.05144
135 5.39002 -6.63946 -8.72694 -2.19255 -0.00153491 0.918288
140 6.23802 -5.63774 -8.77875 -0.199789 -2.31644 -0.976501
425 6.21961 -6.4881 -7.95817 0.400013 -0.513716 0.291894
418 5.65443 -5.57269 -7.90943 -1.28532 -0.364976 0.187442
39 5.40483 -9.50562 -8.67698 2.22483 -0.299733 0.841052
885 -1.49602 -9.51873 -4.96705 0.814046 -0.521409 -1.74807
473 6.30682 -4.87323 -7.87808 -0.0352556 0.932569 0.434168
139 7.09717 -6.32278 -8.60393 -0.465685 -0.11795 -3.68938
144 7.86535 -5.65221 -8.65896 -0.970947 -0.3929 -1.82137
426 6.99405 -5.63229 -7.76274 -1.08061 -0.239339 1.06513
1481 6.37222 -9.45875 -1.64301 -2.0879 -0.198577 0.130995
143 8.82492 -6.32732 -8.75984 2.44258 1.85445 -0.445285
430 8.75432 -5.8103 -7.93617 0.0704137 2.23178 -0.190057
147 -8.7031 -4.84133 -8.9395 -0.801192 0.773379 0.0983319
195 -8.70666 -3.26393 -8.77378 0.478469 -1.20087 1.30007
148 -9.42518 -3.97721 -8.72161 -0.0131558 1.54127 -0.7094
152 -7.95229 -3.9011 -8.70086 1.27642 1.21187 -1.15869
485 -7.8575 -3.04098 -7.94187 -1.13252 0.638727 1.65534
199 -7.2282 -3.18256 -8.83605 1.38735 2.07509 -0.175186
438 -7.28471 -4.0869 -8.10856 1.11782 -0.155924 0.0674688
156 -6.43434 -3.92153 -8.84235 -1.25861 0.104038 -0.976671
203 -5.71751 -3.22086 -8.87257 -1.08454 0.805027 0.360133
229 4.76718 -3.17001 -9.46154 -1.2595 -0.69172 -1.75001
160 -4.65987 -3.83377 -8.65039 0.149975 0.988135 -0.97076
449 -3.46704 -4.79183 -8.10481 0.483836 2.06593 -1.16629
445 -4.48324 -4.66696 -7.96303 0.435232 1.12817 0.726664
305 -3.3901 -9.41422 -8.00124 -0.899726 -2.19587 -0.35894
164 -3.23364 -3.96251 -8.66509 -0.815421 -0.315259 -2.85631
450 -2.35001 -3.96949 -7.95623 0.385287 0.461763 0.245737
301 -4.74473 -9.43118 -7.81793 -0.522468 2.25132 -1.44607
211 -2.45371 -3.12073 -8.71914 -0.598975 -0.150111 -1.23091
162 -2.36304 -4.12574 -9.48695 0.368222 -0.526637 1.12934
3475 -2.32196 -0.0765533 -8.69587 -2.52978 0.332036 2.32427
168 -1.58543 -3.96173 -8.63828 -0.383046 -0.923877 -0.608711
453 -1.64133 -4.82773 -7.9461 -0.400137 -1.08555 -1.54129
1165 -4.82178 -9.34233 -3.15659 1.78505 -0.349739 0.0284691
214 -0.795103 -2.51191 -9.32719 -0.564831 0.175216 1.06779
172 -0.00453426 -4.05833 -8.78594 0.184535 1.14965 -1.43312
215 -0.847857 -3.24812 -8.67573 0.865379 1.05548 0.735444
185 6.45991 -5.04245 -9.51324 -2.19792 2.70301 -1.17577
26 0.70061 -8.88592 -9.49562 1.85225 0.595474 0.716309
171 0.919453 -4.8211 -9.0454 1.38151 0.0144536 -1.02695
219 0.784969 -3.42973 -8.78244 0.351417 0.788051 0.484709
176 1.75193 -4.04506 -8.76765 0.710725 -1.04456 -0.0316375
221 1.63152 -3.1032 -9.46471 -1.50585 1.63998 0.85714
23 -0.83978 -9.3064 -8.62902 1.40815 0.0162768 1.55515
46 8.79759 -8.82132 -9.4566 0.756974 0.985408 -0.00716513
180 3.18008 -4.26125 -8.82618 -0.253393 -1.44925 1.01711
182 5.80057 -4.04497 -9.37662 1.82489 1.28768 -1.50241
469 4.8268 -4.84038 -7.75432 0.921267 -1.63582 0.716893
179 4.17842 -4.85466 -8.61332 0.783584 -2.36575 2.1168
184 4.86807 -3.99864 -8.72778 0.640622 0.179923 -0.0748257
282 7.11465 -0.871021 -9.5266 -0.150962 -0.285964 -1.57743
14 -4.08297 -8.57564 -9.25683 1.47515 1.92851 -1.385
183 5.5786 -4.79824 -8.69635 0.352046 -1.96476 -0.201406
188 6.46708 -4.26742 -8.64678 2.56211 0.572288 -0.65086
521 6.52655 -3.81584 -7.726 -0.648606 1.55902 0.2483
238 8.8136 -2.42596 -9.25922 0.939367 1.0431 -1.34844
187 7.0649 -4.97237 -8.63045 1.96287 -0.986607 1.36905
192 7.92123 -4.10384 -8.90215 -2.50733 0.0217048 0.0237564
477 7.77334 -5.00402 -7.80357 -0.340961 -0.415276 0.493139
525 8.20764 -3.11832 -8.38652 1.09805 1.72045 -1.71016
191 8.6693 -4.96418 -8.58875 -0.0288465 1.21457 0.213852
239 8.65818 -3.40161 -9.12202 0.00809068 -2.21268 1.43963
196 9.43381 -2.1959 -8.52957 -3.33722 -1.93053 1.94741
481 -9.38398 -3.06231 -8.03809 -0.104638 0.255462 -0.981712
482 -8.67317 -2.31671 -7.98369 1.35643 1.07718 -0.141032
4335 -4.13834 -0.0963182 -3.73625 0.252191 0.930832 -1.81081
200 -7.91988 -2.33694 -8.77848 -1.42537 -1.20265 0.245655
533 -7.82983 -1.56372 -7.93065 0.670006 -3.09232 0.445118
42 7.3098 -8.91157 -9.50036 -2.36802 -1.47302 -1.03394
204 -6.45122 -2.35833 -8.92289 0.546999 -0.560455 -1.15658
251 -5.52476 -1.69828 -8.82424 1.47334 -1.02504 -3.24287
3479 -0.579859 -0.136851 -8.82202 -0.988163 -0.628863 0.339783
207 -3.97418 -3.03824 -8.94339 -0.843811 -1.80523 -0.477402
208 -4.82364 -2.50999 -8.73097 0.171325 -1.52249 -0.326271
255 -4.1318 -1.7654 -8.75167 1.90425 1.33864 0.440041
493 -4.74062 -3.16984 -7.84637 0.399437 0.965017 -0.418692
541 -4.91941 -1.73386 -8.02012 -0.453622 -0.629712 1.81867
4633 -0.00683484 -0.0149385 -2.99837 -0.263365 -0.76493 0.42753
212 -3.08055 -2.28296 -8.73058 -1.1585 -0.172455 -0.108823
174 2.38861 -3.9184 -9.45365 -1.27906 0.0970536 0.944941
22 -1.02183 -8.54817 -9.37035 0.0522208 0.814854 1.83996
216 -1.50151 -2.36491 -8.43802 -0.424592 -0.258853 -1.16965
70 -0.826695 -7.34836 -9.35552 -0.713661 -1.25069 1.83173
4625 -3.2149 -0.183795 -3.01739 0.127433 -0.199837 0.613103
1758 2.28249 -8.7934 -0.044559 -0.496852 -0.361295 1.17508
505 -0.0626821 -3.2027 -7.94011 -0.0949221 0.0290604 1.51894
220 0.0252987 -2.40657 -8.63939 -0.981314 1.92016 0.0396455
553 0.0969613 -1.52793 -7.89025 -0.997449 1.62309 0.195881
224 1.49866 -2.45543 -8.69223 2.00445 -0.572195 -0.596973
506 0.788565 -2.496 -7.843 -0.469201 -2.22828 -2.95409
161 -3.3653 -4.69118 -9.20481 0.303676 -0.0836144 -0.410434
223 2.44267 -3.32677 -8.68058 1.76789 -0.809524 -0.740215
228 3.12002 -2.5161 -8.6474 -0.121478 -0.674123 0.917265
510 2.46273 -2.33175 -7.99885 -0.438472 -0.406525 -0.789262
1463 -0.849317 -9.51138 -0.721712 1.03567 1.17466 -0.534947
517 4.78391 -3.38906 -7.99246 0.930607 -1.00482 -0.207968
227 3.89249 -3.38704 -8.685 0.450469 0.678051 1.41398
232 4.92656 -2.54601 -8.61278 -0.549518 0.584569 -1.74246
237 7.69154 -3.18403 -9.25215 -0.927685 0.346822 -1.98754
514 4.00138 -2.54766 -7.96035 -1.40375 -1.6308 -0.775884
1794 -2.27315 -7.05982 -0.0956079 1.18693 2.70468 -1.52403
231 5.74042 -3.22202 -8.71334 -0.485459 0.0564915 -0.428693
236 6.48946 -2.27625 -8.79242 -0.825306 1.81207 0.00893551
3779 3.76154 -0.0773104 -7.2365 -0.172859 1.09944 1.02735
265 0.0669875 -1.79327 -9.45401 -0.194656 0.165602 0.843973
235 7.19454 -3.28448 -8.32703 -1.11256 1.16342 -0.942471
283 7.19389 -1.46763 -8.49812 0.0636307 1.2473 -2.40762
522 6.5649 -2.77578 -7.53708 0.869776 0.50464 0.651826
528 7.39547 -2.24125 -7.81392 -0.00103369 -1.15001 -1.11777
240 7.58126 -2.38954 -8.7528 -0.439649 -1.36592 1.58158
287 8.62627 -1.54956 -8.68436 -2.07178 1.07261 1.5264
262 -0.592016 -0.892686 -9.51589 2.98266 -0.589987 -1.83994
243 -8.71599 -1.45595 -8.72444 -0.728937 -0.560219 0.348905
244 -9.45042 -0.85014 -8.87143 0.497149 0.978186 -0.410542
530 -8.70702 -0.621684 -7.9057 -0.109517 -1.9373 1.69599
248 -7.92582 -0.743799 -8.71643 -3.00489 0.787369 2.26267
247 -7.19401 -1.6405 -8.81244 2.88392 0.303034 0.473301
319 2.30551 -9.51524 -7.11674 0.346001 0.284633 1.52439
252 -6.13709 -0.925272 -8.76334 -0.602623 0.451442 1.7423
256 -4.97503 -0.900623 -8.62172 -0.124263 1.54822 -1.13472
90 7.12683 -7.09997 -9.48775 -0.142826 2.09568 0.721428
295 -7.184 -9.40447 -7.2681 -0.180785 0.670528 -1.35052
259 -2.12233 -1.63473 -8.88754 -0.896266 0.845564 -0.770249
260 -3.22764 -1.06348 -8.7713 2.6236 -3.05362 0.00754154
545 -3.27934 -1.54497 -7.9721 -2.00724 -1.79532 -1.60461
585 -6.39487 -9.3782 -6.22177 1.85623 -0.0853801 1.72981
264 -1.34734 -0.91364 -8.85315 -1.02059 -0.407154 -1.31348
217 -0.0235391 -3.22147 -9.3244 0.531349 1.28139 -0.339857
263 -0.688183 -1.6591 -8.65696 -0.549054 0.630033 1.21698
138 7.05616 -5.80631 -9.52293 -2.2362 0.110304 -0.987642
268 0.0113148 -0.986077 -8.68316 1.58789 -2.25387 0.771693
554 0.983624 -0.818379 -8.13296 -0.889436 0.607446 -0.490442
3773 1.87913 -0.156486 -8.20071 0.621794 -2.14217 0.329819
267 0.797815 -1.71893 -8.57348 -0.911235 1.70606 -0.00658967
272 1.85165 -0.890186 -8.87885 -0.0481341 -0.565214 -1.18618
557 1.60894 -1.5817 -7.99124 -0.772973 1.64939 -1.65943
4341 -1.68458 -0.0227325 -4.86512 1.08227 -0.517974 -0.031214
271 2.3151 -1.81029 -9.08127 -0.40522 1.14224 0.0859441
4363 7.25398 -0.021866 -3.85401 -0.157447 0.642083 -0.183343
276 3.556 -0.797407 -8.81624 0.150096 -0.745183 0.376068
561 3.35144 -1.58934 -8.06459 -0.326028 0.901672 -1.99254
887 -0.878792 -9.32397 -4.04269 0.142029 -0.653566 -0.427704
1894 -0.581107 -3.72912 -0.135721 -0.78367 -0.529232 0.354204
3473 -3.18072 -0.111166 -9.41772 -0.369211 2.36149 0.814104
275 4.22201 -1.82647 -8.57489 -0.217838 0.292719 -0.991023
280 4.63876 -1.00074 -8.85963 1.34458 0.961065 0.356394
565 4.64835 -1.39316 -7.83471 -0.232118 0.734887 2.3064
562 3.98955 -0.743639 -7.92238 -0.65599 -1.01099 -1.81827
213 -1.62599 -3.06519 -9.33115 2.29268 0.513147 -2.08101
279 5.55436 -1.64434 -8.69905 -0.340838 -0.40644 2.2594
569 6.31211 -1.60454 -7.73692 -1.18162 -0.960602 -0.169878
284 6.34107 -0.736531 -8.72307 -2.28526 -1.35502 -1.12225
288 8.07081 -0.699907 -8.7802 -0.170624 0.0246696 -0.70001
1858 3.98771 -5.69559 -0.0578428 0.656819 2.59487 -1.43925
1818 7.0802 -6.92466 -0.0502631 0.840271 -1.44917 -0.700604
321 3.00229 -9.50676 -8.05585 0.0514689 -0.373106 0.870849
574 8.85562 -0.616889 -8.09383 -1.47668 -0.135142 -1.48733
1910 5.4248 -3.90306 -0.214364 -0.0459741 1.24121 -0.513449
337 -9.32909 -7.91383 -7.79832 -0.60917 0.480728 1.39296
339 -8.55709 -7.77543 -7.18574 -1.17495 -0.384276 0.488048
587 -5.48273 -9.2632 -5.76745 -0.585767 1.01395 1.7181
296 -8.00774 -8.70246 -7.15123 -0.257654 -0.422269 0.637218
343 -6.96286 -7.8423 -7.13853 2.73755 0.0552093 0.767095
345 -6.42209 -7.67171 -7.9224 0.851661 2.26363 0.60404
582 -7.28315 -8.71277 -6.44826 0.177957 0.761791 -1.43804
300 -6.24371 -8.6304 -7.05495 1.89585 2.03458 -1.08111
347 -5.67268 -7.75953 -7.1667 -0.460066 -1.71941 -0.132876
1982 -3.93171 -0.757715 -0.0797655 0.125388 -0.263077 1.09447
877 -4.77101 -9.27152 -4.86515 -0.0858071 -0.628345 2.21293
1177 0.088478 -9.35458 -3.09417 2.14789 -0.481629 0.725618
302 -3.98831 -8.55018 -7.8197 -1.62466 -2.04643 -1.89783
304 -4.69719 -8.50836 -6.98295 -0.17627 0.989876 -1.79374
637 -4.82548 -7.57934 -6.36158 -0.0108851 -0.485492 0.641391
1986 -2.39551 -0.789658 -0.00572706 0.027938 0.825508 -0.376051
308 -3.22206 -8.39868 -7.21133 -0.724627 2.63409 -1.73866
310 -0.943 -8.77585 -7.84298 0.0529661 1.13885 0.624159
312 -1.47802 -8.43899 -7.05511 -0.414172 1.13851 0.072189
357 -1.58457 -7.91294 -7.8626 1.09757 -0.00139724 -1.29887
645 -1.45823 -7.8283 -6.23645 -1.58322 0.731779 0.324551
359 -0.786178 -7.7904 -7.32591 -2.08642 0.251908 -0.238736
598 -0.690963 -8.58974 -6.47709 0.582312 0.939685 0.263058
316 0.215193 -8.72738 -7.16129 -0.717625 -0.927629 0.5138
365 1.67623 -7.90262 -8.00033 -0.790241 0.0802346 2.15575
363 0.804998 -7.85951 -7.1393 0.0456846 -0.819341 0.256391
320 1.56512 -8.55589 -7.06144 -2.6592 1.35085 -0.976408
606 2.37624 -8.64794 -6.42365 -0.320393 0.134695 -0.185032
369 2.9415 -7.79095 -8.06504 -0.0913571 0.206021 -0.302966
324 3.08657 -8.88486 -7.03138 -1.20661 -1.57669 -0.0593918
367 2.5263 -7.88933 -7.11674 2.95688 -0.385873 0.826775
657 3.16036 -7.87439 -6.25708 1.39804 1.69699 1.303
1726 8.68277 -0.643407 -1.41848 2.786 -1.31293 1.07117
322 3.91896 -8.95656 -8.04042 -0.34953 -0.112968 0.38747
328 4.76552 -8.76896 -7.19812 1.70229 0.595444 -0.0195319
610 3.97038 -8.71401 -6.25044 0.420224 0.505173 1.61902
597 -1.78164 -9.51343 -6.32063 -1.21593 -0.329775 2.26271
31 2.32808 -9.42491 -8.87984 -1.47092 2.29792 1.59196
332 6.15088 -9.05764 -7.03155 -0.418155 0.006971 -0.316089
614 4.97582 -8.83574 -6.21467 0.205562 -0.378596 1.3565
3763 -2.22267 -0.150793 -7.26452 -0.49379 -1.32813 -2.79084
336 7.90277 -8.94347 -7.25387 -0.464108 0.590011 0.895572
379 7.03481 -8.32216 -7.03683 -0.879741 0.757121 -0.937144
4643 3.74005 -0.172981 -2.38839 0.309203 0.235492 -0.0457973
334 8.83878 -8.74981 -7.81486 -1.46937 -2.24777 -0.195614
1957 4.70972 -3.24472 -0.0189149 -0.483503 -1.66477 1.10772
292 -9.3612 -8.69539 -6.9879 -0.358043 0.0569325 2.27078
258 -2.21024 -0.695638 -9.43866 -1.94284 -1.41101 -1.86304
338 -8.42615 -7.03415 -7.82268 1.14031 -0.801039 1.20005
340 -9.4193 -7.18896 -7.2019 1.13912 0.934475 1.38026
387 -8.80196 -6.28938 -7.21301 0.280145 -0.7519 2.83523
344 -7.83795 -6.86582 -6.96582 -1.38318 0.974418 1.23628
391 -7.06339 -6.14898 -7.01886 -0.7064 -2.53496 2.71186
630 -7.14288 -7.06748 -6.15304 1.58654 -1.29726 0.586125
348 -6.36726 -7.03117 -6.96871 -1.55624 0.949937 -1.4541
395 -5.68645 -6.28573 -7.06837 -2.61388 -0.805188 -1.92674
682 -6.28092 -6.17524 -6.19328 -1.83557 -2.66871 0.363601
633 -6.40256 -7.84681 -6.23293 -1.13723 -1.30026 0.957001
349 -4.8552 -7.72591 -7.84947 -1.66385 0.713305 0.28707
351 -3.97166 -7.73955 -7.1387 -2.06774 0.974472 -0.403119
350 -4.00717 -6.97725 -8.05896 -0.508653 -2.37728 -0.137328
352 -4.83234 -6.91301 -7.21279 0.32622 -1.78275 -0.857866
638 -3.95862 -6.99745 -6.39281 0.884003 1.32614 -0.953504
399 -3.88276 -6.19905 -7.12861 0.887079 2.09874 1.3049
683 -4.8241 -6.30431 -6.43358 1.33283 -0.677039 0.32029
401 -3.16846 -6.06433 -7.98345 -1.021 -0.803873 0.493226
355 -2.41907 -7.72064 -7.33023 0.98236 -0.181724 1.4524
356 -3.1114 -7.03415 -7.05951 -0.298411 1.69108 -1.16387
360 -1.59671 -7.10937 -7.23532 -2.13593 -1.20652 -0.0432282
358 -0.657145 -6.98608 -7.76286 0.858739 1.79142 1.60144
646 -0.634636 -7.03178 -6.50328 -0.158221 0.628001 2.15228
364 0.24489 -7.00164 -7.27486 1.24348 -2.47805 0.817508
650 0.714173 -7.06814 -6.38761 0.904978 -2.96544 -1.11735
411 0.895712 -6.19065 -7.0102 -2.72336 -0.321193 0.734027
697 0.0186463 -6.28814 -6.25858 0.0534021 1.37907 1.75538
654 1.61193 -7.25526 -7.27774 1.79776 -0.0188038 4.07241
413 1.60653 -6.24634 -7.99469 1.09966 -0.62485 -0.0911689
366 2.32518 -6.94517 -7.96493 0.372112 1.52636 -0.144661
417 3.21244 -6.49623 -8.20689 -1.70061 1.24891 -0.45958
372 3.22 -6.8832 -7.24805 0.228514 0.109291 0.941785
655 2.17532 -7.19844 -6.43493 -0.332836 -1.40002 2.59377
415 2.07401 -6.36674 -7.00418 -2.27512 1.12758 0.208349
705 2.94999 -6.36952 -6.19841 2.01538 -0.14415 0.509632
661 4.71729 -7.8944 -6.46756 0.428857 -0.288445 0.561509
371 3.82433 -7.93371 -7.04687 0.944104 0.877369 -0.813456
376 4.75571 -7.20436 -7.30532 -0.88429 2.41613 0.47855
419 3.96558 -6.31161 -7.23574 1.58355 0.178206 -2.11239
709 4.7817 -6.47245 -6.36405 1.34089 -2.00454 -0.18017
375 5.53766 -8.12792 -7.01273 0.397331 1.26421 -2.0711
380 6.3417 -7.14544 -7.16211 0.488236 0.755583 0.134519
381 7.99714 -8.10743 -8.00412 1.4994 -1.92032 0.40248
378 7.19983 -7.37219 -7.75161 -0.176954 0.468935 -2.91001
384 8.01744 -7.12559 -7.06225 0.556582 -1.14657 -0.307611
666 7.09849 -7.2908 -6.569 -1.09002 0.0950846 1.35907
382 8.81367 -7.2883 -8.1635 1.0353 -0.262936 -1.0722
385 -9.48867 -6.44638 -7.91816 -0.694036 0.568745 0.421483
383 8.6222 -7.97351 -7.23347 0.0633347 2.16831 -1.57266
669 7.78789 -8.23505 -6.4315 0.674478 1.24964 -0.786767
435 -8.7506 -4.78176 -7.1104 1.62626 1.86871 0.541012
392 -8.10921 -5.53647 -7.03574 1.99029 0.0126436 0.874252
437 -8.00074 -4.81942 -8.1165 -0.1787 -2.33941 -0.363197
390 -7.15173 -5.40083 -7.98057 -0.713975 1.89452 1.19226
678 -7.13451 -5.33276 -6.24556 -0.245066 0.702944 -0.345048
725 -8.00533 -4.63343 -6.31684 -0.0675798 -0.911016 -1.34287
394 -5.66707 -5.28909 -7.96104 -1.48202 0.00908541 -0.247845
396 -6.35199 -5.26231 -7.09243 2.67156 0.167097 0.591587
443 -5.43825 -4.67586 -7.06599 0.985508 -0.402308 -1.02703
685 -5.5515 -5.50432 -6.39021 -1.36701 0.72821 0.150098
398 -4.20331 -5.58146 -7.89625 0.639719 0.515373 -1.54867
400 -4.97337 -5.58664 -7.2533 -1.52941 -2.10059 0.835122
733 -4.8238 -4.69811 -6.18787 0.60882 -1.77041 -2.57801
403 -2.41352 -6.30374 -6.98914 0.423762 0.670551 -0.707345
404 -3.25334 -5.3356 -7.19696 -0.381552 0.109134 2.00947
451 -2.41128 -4.65902 -7.24035 -0.350758 0.164697 -0.230621
690 -2.24541 -5.54104 -6.31759 1.83888 1.50787 0.403823
402 -2.43027 -5.48269 -7.91493 -1.14399 0.157911 -1.13114
406 -0.868767 -5.51467 -7.92709 -0.465284 0.711114 -0.0893608
408 -1.60761 -5.60647 -7.14709 0.72185 1.20879 1.55623
455 -0.830727 -4.72851 -7.25753 -2.4591 0.725539 0.447385
694 -0.803958 -5.44596 -6.32042 1.80064 0.913033 0.824193
407 -0.731514 -6.21007 -7.1692 2.31678 0.992864 -1.3551
412 -0.0863484 -5.38285 -7.19362 -0.629021 1.23287 0.739624
410 0.886794 -5.49996 -8.09271 -2.07694 1.18571 1.76139
416 1.58671 -5.49196 -7.22612 0.584712 0.264727 -1.81339
459 0.729481 -4.79032 -7.10568 -0.222048 0.258498 -1.04495
465 3.31235 -4.8065 -8.03082 -0.611052 0.802141 0.277683
414 2.59626 -5.57464 -7.97027 -1.48846 0.665869 0.922743
420 3.20811 -5.66846 -6.99943 0.301677 0.276686 -1.30381
702 2.14358 -5.54237 -6.21048 -1.7234 -0.54761 -2.04937
463 2.38317 -4.82209 -7.31843 -0.0662738 -0.100864 -0.319954
132 3.86961 -5.65514 -7.9222 0.36834 0.111677 1.31869
421 4.7212 -6.57362 -8.07948 -0.925113 -4.13197 -0.72512
424 4.83418 -5.75274 -7.2606 -0.826037 -2.10734 0.0161205
706 4.66227 -4.97473 -6.45193 1.46098 0.240725 1.28052
423 5.50015 -6.49671 -7.09581 -1.30601 -0.543878 0.197246
428 6.25383 -5.68867 -7.00946 0.732647 0.413353 -0.127951
471 5.57279 -4.91172 -7.03125 0.529035 -0.251791 -0.294014
713 6.48006 -6.46127 -6.37181 -2.65312 -0.515252 -0.440617
427 7.14576 -6.44184 -7.15063 -2.17354 0.636356 -1.20908
475 7.10581 -4.82728 -6.98769 0.857258 0.684683 0.740374
765 7.84964 -5.10815 -6.48308 0.221413 -0.927694 -2.46231
673 -9.23894 -6.15824 -6.21337 -0.584209 -1.49415 -0.450685
431 8.79489 -6.5038 -6.95166 0.6004 -0.828517 -0.302529
388 9.51486 -5.60752 -7.24046 -0.174662 1.1421 1.87566
432 8.00781 -5.8864 -7.12365 -0.990561 -0.594456 -1.11301
721 -9.45631 -4.92421 -6.49649 0.928681 0.745433 -3.2786
433 9.44322 -4.88653 -7.91728 -0.0235149 1.39802 1.05484
434 -8.75521 -4.16225 -7.9643 0.377488 1.4419 1.72691
483 -8.57831 -3.15017 -7.20041 1.00871 -1.0091 -0.0984168
722 -8.80455 -4.03585 -6.30856 -0.443957 -1.14315 -1.08947
439 -7.32867 -4.72463 -7.30161 0.478166 0.196733 0.222521
440 -7.96129 -3.87906 -7.15755 1.08354 -0.518176 0.632164
441 -6.5235 -4.69441 -8.00434 -0.65966 -1.17943 0.0854286
442 -5.51375 -3.80832 -7.85971 0.735361 -1.35607 1.0007
444 -6.4139 -4.15898 -7.06034 2.35966 0.434964 -0.700761
729 -6.27634 -4.70143 -6.26957 1.82842 0.707866 1.64151
730 -5.64558 -3.84414 -6.30854 -0.241616 1.55593 0.581073
446 -3.90325 -3.75988 -7.96799 0.164092 -1.08238 -1.27979
447 -4.17785 -4.72469 -7.01297 -1.53633 0.830702 -0.979715
448 -4.82368 -3.82278 -7.16608 -0.987591 -0.316782 -1.99234
495 -4.05666 -3.00412 -7.102 -2.08838 1.24625 0.17516
734 -3.89984 -3.90906 -6.43175 -1.93792 -0.840609 1.23577
497 -3.21032 -2.94855 -7.89064 -1.71848 1.72892 -0.0286614
452 -3.1922 -3.99415 -7.20168 0.930696 0.514712 1.46585
501 -1.82208 -3.20235 -7.94652 -0.668009 0.666642 0.463637
454 -0.7574 -4.0516 -8.0578 -2.83593 2.35547 -3.86318
741 -1.43331 -4.73061 -6.40626 0.229613 -1.60115 -0.957983
456 -1.60861 -3.96957 -7.24282 -1.13242 -0.993103 1.48222
789 -1.52492 -3.0977 -6.5723 1.11161 -0.316892 1.68179
457 -0.0062163 -4.71775 -8.00328 -1.23308 -0.212154 -0.347367
460 -0.145344 -3.92119 -7.23818 -0.726318 0.705745 -0.787728
503 -0.835384 -3.19826 -7.21622 2.22467 1.50123 -0.526558
458 0.683626 -3.90749 -7.91018 1.30971 -1.60351 1.82034
464 1.39572 -3.90165 -7.19774 0.42481 -1.56122 -1.30277
746 0.840766 -3.99945 -6.32654 0.241611 0.636707 -0.562814
462 2.299 -3.98188 -7.83705 1.54371 0.0788736 3.06316
468 3.09643 -4.03183 -7.18854 0.639601 0.280612 -2.28956
511 2.58621 -3.04629 -7.13514 0.118257 -0.425112 1.37249
466 4.05811 -3.98032 -7.76177 1.26001 -0.208577 2.5965
467 3.89025 -4.9742 -7.10123 0.111899 -1.06611 1.71386
472 4.79322 -4.13892 -7.01846 -1.85448 -0.506675 -2.46171
754 3.85356 -4.04797 -6.39534 0.513584 -0.435261 -1.53829
470 5.52835 -4.12481 -7.93531 0.954654 -1.08035 0.804848
476 6.39101 -4.105 -6.76467 -2.61969 0.234226 -1.4095
519 5.68208 -3.32921 -6.84022 1.5412 -1.61509 -0.434064
809 6.50451 -3.28516 -6.31422 -1.05097 0.274796 -2.16045
474 7.383 -4.17217 -7.97648 -1.17385 0.013792 -1.81066
480 7.92413 -4.05659 -7.13462 -3.19823 0.481243 -0.812634
762 7.37412 -3.94118 -6.32286 -0.835437 -1.00963 -1.4854
479 8.69448 -4.83954 -7.14464 -3.95289 1.45364 2.00043
436 9.45345 -4.08647 -7.19995 0.0441183 2.41705 0.787688
478 8.78742 -3.96724 -8.06235 2.65724 0.697159 0.615499
766 8.79388 -3.85702 -6.41955 0.260991 -1.19649 1.40673
484 -9.41523 -2.30782 -7.30565 1.08658 2.06732 -0.270913
531 -8.69235 -1.49948 -7.25567 -3.78341 1.2589 1.80652
486 -7.03261 -2.35215 -7.9984 -1.91802 1.52144 -1.17804
487 -7.199 -3.12233 -7.03173 1.21093 -1.39392 -0.543339
488 -7.9854 -2.37617 -7.22191 -0.980247 0.919513 0.320929
535 -7.12762 -1.77599 -7.2427 -0.280356 0.813862 -0.122832
490 -5.65321 -2.66779 -8.0787 0.120118 0.296275 1.43075
491 -5.69741 -3.12393 -7.18676 1.51601 0.42105 -0.00380781
489 -6.50293 -3.27333 -7.83778 -0.766562 -0.585318 1.37963
492 -6.48101 -2.41206 -7.05239 -0.0510793 0.724597 -0.412905
539 -5.62589 -1.72315 -7.28635 -0.914767 -0.703373 0.909663
494 -3.97151 -2.27954 -7.86179 -2.4009 0.0584861 0.870988
496 -4.87283 -2.36871 -7.22942 1.57854 1.19799 1.02049
782 -4.22836 -2.34318 -6.26512 -0.153622 -1.02646 -0.633826
499 -2.43202 -3.1541 -7.12736 -1.43055 -0.0105827 -0.339063
498 -2.36529 -2.33608 -7.99938 1.88073 -1.00046 -1.41491
500 -3.17863 -2.20302 -7.24158 0.720566 -0.494293 0.58589
547 -2.2348 -1.44393 -7.33146 0.748584 1.13708 2.07047
502 -0.702698 -2.4867 -7.946 -1.56526 0.166677 -1.94021
504 -1.46888 -2.30357 -7.25563 -0.00553659 1.25996 0.830836
837 -1.60958 -1.64401 -6.48185 0.076774 -1.12579 -0.0581883
790 -0.818992 -2.37853 -6.46669 -0.587016 -0.0083884 1.43712
793 -0.200075 -3.18338 -6.44934 1.53952 -0.257614 -0.481082
508 0.0437917 -2.23679 -7.10828 -0.850613 -0.421678 -1.03626
555 0.818987 -1.33811 -7.25085 -1.74798 -1.36454 -0.417373
841 0.268657 -1.45665 -6.39204 0.659757 -1.1337 -2.33786
509 1.61971 -3.19693 -7.96991 -0.607587 -0.344416 2.41458
507 0.667417 -3.16682 -7.13393 0.168669 -0.540949 -0.947144
512 1.63643 -2.43042 -7.18843 -2.2525 -1.28766 -0.659051
513 3.13799 -3.26103 -7.91269 1.88872 -1.64513 -0.143075
516 3.58664 -2.17356 -7.11755 1.0505 -0.394514 -1.88667
798 2.41403 -2.34633 -6.41806 -0.141708 0.177465 -1.69243
805 4.69704 -3.34528 -6.34989 -0.322842 -0.975936 0.251024
515 3.91372 -3.20605 -7.08083 -0.141063 -2.52958 -0.617765
520 4.57539 -2.25909 -7.13666 -0.26328 -1.03053 -0.585223
853 4.87829 -1.60398 -6.07025 1.71563 0.888909 0.979502