ITEM: TIMESTEP
36000
ITEM: NUMBER OF ATOMS
6912
ITEM: BOX BOUNDS pp pp pp
-9.5244063118091962e+00 9.5244063118091962e+00
-9.5244063118091962e+00 9.5244063118091962e+00
-9.5244063118091962e+00 9.5244063118091962e+00
ITEM: ATOMS id x y z vx vy vz
290 -8.77062 -8.65603 -8.04074 -0.176771 -0.570873 -0.283751
1950 2.39454 -2.27145 -0.085072 -0.349078 -1.35151 -0.488466
619 7.31198 -9.41624 -5.5016 -0.700805 -0.367061 -1.0581
891 0.762418 -9.51828 -4.03742 -1.60644 -0.94089 1.23624
299 -5.62067 -9.40722 -7.15499 1.38112 1.51802 0.936044
8 -8.09688 -8.69455 -8.76407 0.00435362 -1.34765 0.656001
4365 7.88304 -0.0514255 -4.9381 0.99706 0.200973 0.722032
4077 7.80005 -0.0654638 -6.44171 0.33905 -1.96417 0.254165
12 -6.28531 -8.70758 -8.70512 0.821931 -0.439011 0.0629647
59 -5.50221 -7.92175 -8.82851 -0.665172 -0.0259559 0.48008
233 6.30308 -3.20652 -9.47465 -0.647848 1.87174 -1.61634
298 -5.57118 -8.58561 -8.094 -0.691308 0.767195 0.699915
16 -4.7575 -8.74956 -8.85195 -0.222453 1.18288 -1.06869
3761 -3.09205 -0.0410312 -7.99201 0.165456 0.912775 -0.84361
3747 -8.71117 -0.031784 -7.2982 0.298217 1.89576 -0.865816
189 7.8769 -4.8173 -9.33638 0.19235 1.53194 -0.511754
1483 6.9706 -9.36944 -0.984986 -1.57487 1.30092 -0.671952
20 -3.28407 -8.84549 -8.84323 -1.10707 0.973874 0.393667
306 -2.39977 -8.80863 -8.08814 -1.72479 -0.408383 -0.670947
1822 8.77442 -7.20332 -0.0989417 0.700608 -1.20859 -1.01832
1727 8.65263 -1.74135 -0.9052 1.49651 4.1759 -1.86831
177 3.09168 -4.80609 -9.39052 -0.586303 0.210344 -0.285376
24 -1.50886 -8.55573 -8.73884 0.168908 -0.713104 -0.884172
205 -4.622 -3.13221 -9.5018 -1.77267 1.61715 -0.026815
895 2.37615 -9.43677 -4.07324 -2.50237 0.655661 -0.546741
28 0.0423482 -8.85858 -8.86584 0.535167 0.981524 -0.803385
314 0.832875 -8.69182 -7.90963 0.611817 0.227898 -0.625552
75 0.65837 -7.87588 -8.62706 0.451106 3.65549 -0.43645
1974 -7.04798 -0.817607 0.00722644 -0.601426 -0.306192 0.701233
2 -8.67342 -8.76824 -9.5512 0.747928 -1.10576 -1.74975
4923 0.669368 -0.162446 -0.683232 0.669142 0.791184 0.538648
32 1.48244 -8.7525 -8.72653 -1.6113 -1.20389 -0.171159
907 7.17996 -9.50908 -3.93673 -1.91854 -0.884954 0.891021
36 3.16607 -8.80366 -8.81414 -2.42221 2.00588 -1.31076
318 2.51407 -8.6005 -7.97488 0.853007 0.131623 0.667738
1183 2.42056 -9.47169 -2.47055 -0.159026 -0.303661 -0.723883
369 3.19771 -7.83051 -7.9591 -0.908866 0.0338617 -0.131717
40 4.76702 -8.7651 -8.5229 -0.662889 -1.57935 -0.211288
322 3.98514 -8.73889 -7.86627 0.392559 1.46436 -1.26816
83 3.98564 -8.07417 -8.68737 0.225307 -0.805981 -0.696374
3765 -1.64079 -0.0646456 -8.1077 0.198535 0.915599 2.00176
44 6.29941 -8.88062 -8.83741 0.680768 0.952812 -1.93061
87 5.51095 -7.96252 -8.7683 1.41589 -0.908506 2.02863
202 -5.48901 -2.19025 -9.52492 0.591482 0.960048 -1.43448
48 7.80081 -8.70491 -8.92953 -0.399589 -0.697513 1.02831
4915 -2.49027 -0.340396 -1.15514 0.410359 0.531623 -1.78946
1451 -5.51638 -9.51392 -0.795242 -2.28489 -1.02331 -0.288587
4 -9.54279 -8.76963 -8.81425 -1.03688 -0.34266 0.0869367
4051 -2.51191 -0.0172129 -5.49963 -0.705153 2.14481 0.325294
4063 2.38352 -0.0470098 -5.49765 1.78429 0.630491 -0.724788
4941 7.98672 -0.253855 -1.63421 0.356353 1.57994 2.77062
51 -8.75745 -7.78699 -8.64986 0.787729 -0.4573 0.130766
99 -8.70051 -6.4281 -8.51371 -0.492647 -0.272138 0.328246
55 -7.19535 -7.93936 -8.69879 -0.158917 -0.680746 -0.750774
56 -7.88361 -7.23723 -8.55784 -0.0876276 0.504171 0.271661
81 3.2928 -7.90284 -9.46195 -0.186883 2.442 1.22772
60 -6.33247 -7.11957 -8.78152 -0.732023 -0.369244 -1.70931
4329 -6.49684 -0.0459771 -4.70793 -1.84898 -0.148021 2.21857
346 -5.60474 -6.99519 -7.82091 -0.424003 -0.554401 1.1343
63 -4.01867 -7.93068 -8.77403 1.0752 0.228234 1.17362
64 -4.78936 -7.21429 -8.84105 -0.513176 0.277539 -0.770174
349 -4.96779 -7.79056 -7.92512 2.87464 1.15164 -1.65726
350 -3.8464 -7.29592 -7.90258 -0.684056 1.59493 -1.52332
281 6.2082 -1.59954 -9.49639 -0.643242 -0.101245 -1.23354
67 -2.48319 -8.10322 -8.8621 -0.654462 0.965094 -1.27938
68 -3.15046 -7.28194 -8.78465 -0.620095 -1.0642 -0.772446
354 -2.40035 -7.00555 -7.91473 -1.11176 0.540312 2.19359
194 -8.79662 -2.40015 -9.45504 -0.786773 -0.651705 0.00229562
1990 -0.887095 -0.92064 -0.0322467 -1.94464 0.00785802 0.548675
71 -0.69217 -7.91595 -8.62929 1.02888 1.01082 0.757695
72 -1.66198 -7.53837 -8.65062 -1.05689 -1.00499 -1.58762
357 -1.5888 -8.29462 -7.60007 0.033282 -0.049791 -0.682887
76 -0.0383561 -7.11613 -8.65714 1.06071 -0.460396 -1.08553
80 1.59559 -7.24346 -8.681 -0.425258 -1.73385 -1.51952
123 0.802549 -6.29643 -8.86247 0.61503 -1.22533 1.27428
79 2.42318 -7.70178 -8.61943 -0.858259 -0.0553568 0.116651
84 3.25486 -7.01535 -8.93238 -1.54122 0.921043 -0.375058
366 2.16029 -7.04795 -7.94644 -0.231376 -0.225033 0.0103499
88 4.71735 -7.13176 -8.79613 -0.376924 -0.566045 0.39412
370 3.97305 -7.13398 -8.03979 1.34031 0.271647 2.42718
92 6.17028 -7.23694 -8.79814 0.160031 0.766332 -0.37998
135 5.46091 -6.23082 -8.69842 -0.543753 -0.788307 2.58148
4913 -3.16985 -0.089509 -1.74436 -0.802606 -0.442318 0.48266
91 7.05093 -8.02032 -8.72429 0.345555 0.145881 1.65105
181 4.83368 -4.64429 -9.41504 1.65258 -2.54773 -0.25222
378 7.09543 -7.28771 -7.96194 0.77075 -0.383017 -0.61406
139 7.16704 -6.32086 -8.63331 1.24618 0.734027 -0.454303
96 7.76824 -7.1057 -8.77567 -0.224893 -0.0473922 -1.02708
52 9.26517 -7.23578 -8.60555 -0.292262 1.0876 0.726136
95 8.61335 -8.12733 -8.74808 -1.40192 -0.171001 -1.69252
337 9.41319 -8.09305 -7.98709 -1.00884 -0.453813 2.103
382 8.62128 -7.1826 -7.6654 -1.04595 -0.391692 0.0857117
143 8.63638 -6.42315 -8.5488 0.919859 -0.922509 -0.68747
100 -9.38872 -5.62022 -8.49975 1.27178 3.32619 -0.709347
386 -8.60837 -5.60871 -7.86112 -0.538173 0.181203 0.311808
433 -9.49253 -4.72571 -7.73478 0.30337 0.200386 0.51384
389 -7.77715 -6.4441 -7.74418 -0.376679 -1.10298 -2.19522
103 -7.08807 -6.24979 -8.75645 -1.01623 0.458657 2.36407
104 -7.83955 -5.53498 -8.66618 0.530942 1.98609 1.12083
390 -7.1004 -5.46505 -7.91653 0.871196 -1.26043 0.834944
198 -6.92791 -2.56429 -9.41251 -1.39938 -0.215952 1.44524
107 -5.57806 -6.40152 -8.67591 -2.27209 -1.29509 -2.48892
108 -6.17224 -5.60171 -8.73851 0.150213 -1.87181 -0.638003
393 -6.44964 -6.28276 -7.90443 -0.194518 -1.37902 1.42741
130 3.85422 -5.48865 -9.44286 -1.32202 -1.86496 1.04379
111 -3.89933 -6.57379 -8.72329 -0.236041 -0.454974 0.305432
112 -4.58413 -5.67662 -8.79503 -1.134 1.33616 -0.169663
397 -4.7864 -6.21849 -7.99423 2.45967 1.55838 -0.118312
115 -2.63533 -6.47777 -8.7904 -1.37346 1.02069 -0.365841
116 -3.09208 -5.55747 -8.94394 2.65262 1.75496 -0.0714221
402 -2.41807 -5.56448 -8.09311 1.01192 1.7683 -0.523538
119 -1.01396 -6.48317 -8.76221 0.0119545 1.46068 1.42942
120 -1.60459 -5.53798 -8.88686 1.02161 -0.174106 -0.394157
405 -1.65848 -6.12752 -8.0103 0.110019 -0.0652915 1.73413
124 0.183041 -5.5321 -8.7097 -1.75384 -0.0285695 2.01378
4917 -1.55046 -0.27408 -1.53681 -0.944807 2.82748 -0.211881
2014 8.61822 -0.829705 -0.245165 -0.910148 0.0704176 0.613979
128 1.58923 -5.62183 -8.70793 0.338608 -0.427479 -0.51977
127 2.25366 -6.40765 -8.73408 0.696808 -0.180299 1.63527
132 3.07106 -5.55319 -8.72201 0.98321 0.15715 1.41168
245 -7.74855 -1.69783 -9.48125 -1.62999 1.18172 -0.522453
131 3.94345 -6.21824 -8.63211 1.40377 0.752307 1.88237
136 4.76673 -5.51405 -8.90353 0.833835 -0.150847 0.424059
469 4.84965 -4.72987 -8.02919 -0.73998 1.11579 -2.24737
421 4.9025 -6.01305 -7.85018 -2.53547 1.61549 -0.521283
140 6.51513 -5.55866 -8.72214 1.97687 1.71831 0.210659
183 5.59801 -4.66428 -8.72978 2.10843 -0.365086 1.5057
425 6.30213 -6.54734 -8.05942 0.313469 -1.28959 -1.27149
422 5.82515 -5.46821 -8.05014 -1.40019 1.62628 -1.97066
1459 -2.39744 -9.38372 -0.872122 -0.591851 -1.80565 0.441557
144 7.96065 -5.57618 -8.65275 -1.26408 0.133072 -0.23702
426 7.25397 -5.61036 -7.7967 -0.835457 1.04491 1.1131
429 7.94761 -6.38794 -7.78073 -0.773509 -2.05729 -0.538157
477 7.87666 -4.78781 -7.85006 2.23447 1.13404 2.15038
191 8.74479 -4.75791 -8.57298 -0.518975 -1.75981 -0.866187
430 8.9525 -5.61235 -7.91252 -0.645931 0.719965 -0.260555
147 -8.62904 -4.64284 -8.69923 -0.108709 -0.354555 -1.61664
152 -7.71419 -4.1907 -8.82905 1.80502 1.80412 1.52228
148 -9.43175 -4.10062 -8.49568 -0.72272 -2.95232 -0.767238
1994 0.817896 -0.933109 -0.0200083 -1.00481 0.196842 1.01755
151 -6.91518 -4.84157 -8.79694 -0.515145 3.86636 0.256898
438 -7.20709 -3.95575 -7.74854 -3.15642 0.267746 0.777258
155 -5.24607 -4.90959 -8.79313 0.245798 -0.26556 -2.72544
441 -6.28801 -4.81982 -8.06164 -0.103729 -1.9082 0.695181
156 -6.38097 -4.01346 -8.73184 -1.79066 0.967836 -0.384414
442 -5.49988 -3.73838 -8.11576 1.64189 -2.56632 -0.60188
159 -3.84922 -4.74394 -8.69747 0.0710645 -0.609993 -0.656896
160 -4.53679 -3.86822 -8.66536 -0.156493 0.901322 -0.589311
163 -2.38715 -4.75896 -8.82911 -2.02066 -1.2948 0.217955
164 -3.08068 -4.03099 -8.71388 0.484329 1.3377 0.478729
449 -3.15347 -4.79664 -7.88161 -1.64028 -1.71697 -1.16285
4933 4.67773 -0.177792 -1.47802 -0.211604 0.0493942 -0.368057
168 -1.53942 -4.03488 -8.7339 2.24143 0.84886 -0.793866
605 1.59672 -9.32648 -6.35917 -0.0328265 -1.0277 -1.14743
289 -9.40092 -9.50469 -7.97943 1.59908 -2.02047 -1.61124
167 -0.818727 -4.76419 -8.94086 -0.511684 -0.630795 0.106416
454 -0.67322 -4.13213 -8.09648 0.286005 -0.319277 1.54148
172 0.179409 -4.07527 -8.9017 1.55875 1.7719 -1.06879
53 -7.9066 -7.90509 -9.35778 0.716659 -0.627445 0.910496
7 -7.18782 -9.44764 -8.72735 -0.0809328 -0.502934 0.262949
171 0.833603 -4.81721 -8.92682 0.00508299 1.55093 1.05691
176 1.43615 -3.84937 -8.74662 -0.0497931 -0.529787 0.372133
1801 0.130548 -7.76144 -0.0608737 -0.559392 -2.44468 -0.55852
175 2.27796 -4.66195 -8.6779 -1.48857 -1.52022 1.86774
180 3.20586 -3.78916 -8.77765 -0.979826 -0.0991323 -0.969085
465 2.97334 -4.78697 -7.96382 -0.08254 -0.745287 1.94137
1853 1.81762 -6.24944 -0.0219321 0.566897 -0.282004 2.10353
1475 4.14595 -9.44642 -0.621112 -0.610719 -1.41055 -1.23491
179 3.89746 -4.73257 -8.68452 2.10206 1.88174 1.16525
184 4.88035 -3.95859 -8.74331 0.594323 -2.57187 0.973433
517 4.71453 -3.16667 -8.0779 0.250816 1.16156 0.354603
466 3.80875 -3.83848 -7.98169 0.519414 -0.864521 -0.175979
188 6.48114 -4.0448 -8.70807 0.744477 -1.4736 1.27898
473 6.30111 -4.61315 -7.88314 0.8789 0.620804 -0.32375
470 5.59397 -3.97125 -7.76102 -0.216548 -0.0636821 -3.45154
885 -1.65229 -9.52555 -4.6772 1.46428 -1.04232 -0.420237
1766 5.49649 -8.69178 -0.014348 0.855244 2.6717 0.0685629
187 7.22094 -4.69992 -8.63408 0.0486222 0.105094 0.552217
192 7.90538 -3.99728 -8.61771 2.96562 0.298761 2.74352
474 7.20229 -3.89715 -7.89641 2.1926 -0.104193 -0.857201
478 8.66341 -3.98751 -7.9632 -1.09199 -0.143179 -2.01257
525 7.97086 -3.23567 -7.88949 1.04066 0.393366 -0.734009
5205 -1.60724 -0.204812 -0.046192 -1.58253 0.774461 -0.286418
195 -8.77834 -3.2411 -8.66067 0.973435 -0.45287 -0.393001
481 9.48783 -3.13514 -7.86154 -0.743015 0.691678 1.86069
200 -8.15179 -2.40694 -8.64338 0.992215 0.705952 1.27873
196 9.48364 -2.43284 -8.68601 0.649018 1.08627 0.459514
482 -8.76896 -2.50678 -7.88505 -0.128402 1.22873 0.354057
199 -7.11454 -3.3588 -8.61934 -2.46524 -0.238168 -0.03341
247 -7.00562 -1.72129 -8.65315 -1.38693 -0.288886 0.164109
486 -7.14 -2.39021 -7.792 -0.99585 -0.169727 0.8541
2010 7.11902 -0.784771 -0.0146571 0.224922 0.544614 1.10821
203 -5.38105 -2.95946 -8.7818 -0.178587 -1.3004 -0.19834
4929 3.19728 -0.0695048 -1.52797 1.50365 1.80817 1.40378
204 -6.29899 -2.68297 -8.59291 -0.675704 -0.666623 -0.0978213
489 -6.35001 -3.19861 -7.67281 1.60807 -0.709222 -1.36931
234 7.01566 -2.22782 -9.45692 0.238149 0.637861 -2.0988
207 -3.76881 -3.038 -8.75156 -0.392918 0.323944 -0.579723
208 -4.60714 -2.36895 -8.93054 0.359874 1.15754 -1.56124
255 -3.88996 -1.56857 -8.7554 -0.610792 -1.58662 -0.934038
98 -8.6436 -5.38456 -9.46414 1.38639 -1.19838 0.104392
4645 4.61575 -0.0686815 -3.19047 -0.221672 1.10554 -1.22339
211 -2.25061 -3.16171 -8.80646 -2.35026 -0.727484 -0.105927
212 -3.0341 -2.40253 -8.65283 1.74545 0.0655843 -1.86304
498 -2.30073 -2.35662 -7.98355 1.61209 1.60665 0.49705
545 -3.02635 -1.49876 -7.97677 1.37156 2.51215 -2.00972
259 -2.40486 -1.62288 -8.96767 -3.07699 -0.670213 1.52253
497 -2.97979 -3.11613 -7.99946 -0.730674 -0.603917 0.0967372
501 -1.59516 -3.22666 -7.91693 -1.83509 -0.602448 -1.15412
215 -0.854362 -3.29159 -8.97466 0.107262 1.59841 2.65381
216 -1.50092 -2.41384 -8.76643 -0.972103 0.652342 -0.176423
1477 4.76698 -9.47244 -1.69286 2.437 0.384397 0.341503
23 -0.756744 -9.51418 -8.74048 -0.176859 -0.878116 0.318689
220 -0.0890437 -2.31868 -8.76741 3.3148 -0.318373 -0.0476682
553 -0.00437913 -1.57277 -7.98331 -0.889344 2.30547 -1.30613
250 -5.39807 -0.783344 -9.30663 0.00368704 0.993274 0.42315
903 5.65346 -9.43501 -3.95076 0.303479 -1.00152 1.00686
219 0.711769 -3.02974 -8.70033 -0.378356 -2.06829 -1.83759
224 1.66114 -2.34754 -8.90839 -0.266875 -0.899527 2.23182
223 2.49122 -3.04822 -8.76231 -0.509269 0.214014 -0.262055
228 3.24955 -2.32725 -8.99823 -0.519137 -0.945525 0.542706
510 2.42615 -2.26447 -7.95881 0.508734 -0.331218 0.229937
561 3.27838 -1.79968 -8.10687 -0.300885 -0.472954 -2.18334
271 2.54005 -1.34709 -8.755 -0.581322 -0.632245 0.172165
513 3.04371 -3.03629 -7.80844 2.19855 -0.0569541 0.905517
1906 4.13088 -3.84202 -0.0699018 -0.127106 0.0335084 1.37398
193 9.482 -3.30245 -9.46816 1.93264 -0.387166 0.946248
227 3.95837 -3.04578 -8.83601 -0.929995 0.24847 -1.06951
232 4.83633 -2.24339 -8.77775 2.63619 -0.0329334 1.14702
275 3.91188 -1.54786 -8.83318 1.51971 -1.06633 -1.43737
231 5.61339 -3.16986 -8.72657 1.88963 -1.91113 1.59128
236 6.13157 -2.32674 -8.85813 0.0886699 0.72788 -0.440151
569 6.29489 -1.68912 -8.10394 -0.0842952 -0.0691047 2.03713
235 7.0952 -3.08561 -8.66435 0.14343 -1.00024 0.646705
240 7.98138 -2.32776 -8.8208 0.282682 0.0486009 0.636478
283 7.11456 -1.73592 -8.65813 -0.424312 -1.36026 1.74844
522 7.15599 -2.46227 -7.91088 -1.96533 1.14645 0.748654
11 -5.56202 -9.42754 -8.72255 1.89967 -0.731069 0.999954
239 8.71872 -3.17394 -8.67164 1.02804 -0.81263 -1.35206
526 8.62307 -2.4575 -7.91603 0.553959 1.74259 -0.792495
243 -8.76203 -1.59897 -8.68278 0.398077 -1.24886 -0.535743
244 9.45316 -1.04193 -8.85934 0.52621 1.2013 0.337705
3483 0.594799 -0.0336799 -8.79923 -0.617779 -0.327703 -0.286366
1467 1.02663 -9.43023 -0.727815 -0.537586 0.914153 -0.630626
248 -7.82274 -1.02496 -8.63288 0.128967 -0.229892 1.50806
534 -7.09726 -0.928136 -7.89169 0.968795 -0.838431 -0.464802
319 2.30647 -9.49394 -7.27013 0.644926 -0.0941644 -0.183076
251 -5.65159 -1.65394 -8.80364 0.866798 -2.57884 1.88963
252 -6.27066 -0.804535 -8.78235 2.91534 0.83834 -0.22077
538 -5.60918 -0.814074 -7.9528 3.94134 -3.11476 -0.481616
256 -4.66932 -0.882388 -8.60698 2.20587 0.438533 0.211212
542 -3.89899 -0.89097 -7.81142 0.645895 2.01285 -0.661035
541 -4.70539 -1.50536 -7.88707 1.58122 -1.30453 0.00253323
609 3.22428 -9.43426 -6.42801 -1.71363 -1.84071 -0.0174819
260 -3.04045 -0.856949 -8.64753 0.769751 2.14613 -2.75259
1195 6.95047 -9.29043 -2.47361 1.63592 -0.532556 0.722354
549 -1.59287 -1.56278 -8.03143 -0.0355504 -1.9648 -3.39038
263 -0.788118 -1.61992 -8.78563 -1.05489 1.32959 -2.30897
264 -1.35379 -0.874166 -8.98289 0.915714 1.11001 0.829276
550 -0.728643 -0.937416 -8.05601 0.290226 1.1749 0.652925
121 -0.146715 -6.48027 -9.5291 -0.843524 -1.22879 -1.55396
268 -0.0912328 -0.862555 -8.86552 -1.45199 -1.08321 1.79317
267 0.677348 -1.61648 -8.63823 -2.1444 -0.575169 0.936409
272 1.52253 -0.736463 -8.76369 0.663825 0.0256102 0.637986
276 3.19028 -0.580441 -8.67032 2.86016 0.459602 1.01466
301 -4.88208 -9.31609 -7.89685 -1.16656 -0.547343 -0.821964
280 4.59604 -0.624743 -8.70856 -0.569542 1.23046 0.391999
562 3.98467 -0.575572 -7.8957 -0.723225 -1.83452 -0.995966
1962 7.03229 -2.51572 -0.0222703 -0.770143 0.548387 -0.452988
1153 9.44713 -9.27286 -3.20167 -2.19731 -0.410892 0.373331
279 5.57171 -1.26232 -8.73944 1.51797 -3.08244 -0.490325
284 6.4243 -0.747992 -8.86837 -1.5989 -1.39741 -0.661106
566 5.35251 -0.559735 -7.95073 -1.58312 1.00407 -0.184956
4935 5.40728 -0.0682064 -0.677073 0.107304 1.29418 -0.916687
145 -9.43466 -4.85027 -9.25688 0.432967 -0.669115 -1.15425
570 6.96222 -0.6643 -8.0981 -1.45032 -0.255136 -1.49275
288 7.71381 -0.900365 -8.689 -0.776264 0.662086 -1.26322
70 -0.814304 -7.31377 -9.53295 -1.01853 1.12552 -1.20028
287 8.70954 -1.72885 -8.63195 0.363535 -0.422233 -0.73815
529 -9.50716 -1.6601 -7.99604 0.813962 1.03819 0.346427
4925 1.5846 -0.0276962 -1.60578 -1.31139 -0.48892 0.946818
1742 -4.06167 -8.62628 -0.0268101 0.542341 -0.264833 1.43941
865 -9.45055 -9.38165 -4.75434 -1.36069 -0.213839 -0.123067
578 -8.71354 -8.90879 -6.22271 -1.63371 -0.71581 1.26595
1837 -4.51642 -6.12771 -0.107458 -1.29048 0.642725 0.632359
294 -7.08422 -8.71442 -7.98975 -1.82825 -0.844811 0.676241
296 -8.16921 -8.85137 -7.103 0.782791 0.937963 -0.824589
1849 0.0875432 -6.32566 -0.12582 0.0844358 -0.507713 0.16958
4943 8.75088 -0.0991311 -0.793605 0.719835 0.224657 0.564631
300 -6.26833 -8.62298 -7.27731 -0.671704 1.4446 0.167441
633 -6.27004 -8.10662 -6.39384 -0.398069 0.0929567 -0.104921
586 -5.56072 -8.79724 -6.29967 1.59691 -0.32433 0.280845
302 -3.99611 -8.82092 -8.02188 0.178107 0.953486 1.45805
304 -4.90002 -8.59161 -6.99926 -1.31651 2.13773 0.143439
351 -3.93481 -8.02459 -7.24913 0.694841 0.508178 -0.679079
590 -4.14094 -8.70039 -6.20189 -1.57722 0.510396 1.36891
4637 1.51148 -0.0365372 -3.12453 0.845727 -0.452023 0.491686
579 -8.53775 -9.50601 -5.39247 -0.0106954 0.176201 1.10051
1481 6.27073 -9.43771 -1.68663 -0.386063 2.40816 -0.669146
308 -3.1038 -8.80881 -7.33233 -1.28832 -0.314401 -0.053229
355 -2.49862 -7.99493 -7.18365 -0.273769 0.144625 -1.39402
310 -0.753432 -8.63918 -7.97618 -0.310565 -1.14368 -0.236722
312 -1.39247 -8.76826 -6.68979 -1.87686 -0.533252 -0.0138625
361 0.0777499 -7.92631 -7.85345 0.761303 0.286208 0.150957
316 -0.158199 -8.75299 -7.2036 -0.220071 -0.371841 0.973483
649 -0.00463968 -7.76961 -6.40771 1.86025 0.103602 -1.80978
602 0.642772 -8.65797 -6.50781 -0.238618 -1.05596 -1.85229
1850 0.852516 -5.45911 -0.146468 1.80058 -3.01585 1.46134
363 0.853816 -7.74617 -7.19252 -0.794796 0.34098 0.0703185
365 1.55083 -7.95359 -7.97999 -0.538751 -0.00210511 0.918008
320 1.48244 -8.54609 -7.07951 -1.80411 0.099233 1.53182
653 1.66187 -8.05358 -6.21012 -2.04137 0.129808 1.36145
324 3.27138 -8.58378 -7.13111 1.04192 0.283579 -0.349458
367 2.45991 -7.81439 -7.16882 -1.10052 -0.0254128 -2.20358
657 3.27395 -7.92822 -6.32694 1.95331 0.555131 0.877449
3749 -7.72944 -0.130247 -8.03763 1.39888 0.446666 -0.524672
328 4.69731 -8.69812 -7.15744 -0.99948 -1.52737 -0.373292
371 3.87914 -7.72554 -7.25431 -0.48913 0.0838795 -1.84779
326 5.57673 -8.81349 -7.98767 -1.84025 -1.60896 0.959606
4333 -4.74944 -0.0128613 -4.94346 1.23324 -0.0452835 -2.68476
332 6.38834 -8.63619 -7.20824 -0.892496 1.22832 -0.222751
375 5.60079 -7.86416 -7.07688 -0.18589 -0.206458 -0.682411
614 5.64021 -8.59064 -6.39939 0.346621 2.38691 -0.0169852
665 6.64427 -8.02606 -6.15173 -0.594881 -0.939475 -0.261287
330 6.95155 -8.77733 -7.98524 0.498228 0.631397 1.07884
336 7.80815 -8.79375 -7.36749 0.637929 1.67197 -0.160033
618 7.34572 -8.87731 -6.46852 0.962569 -0.548486 -0.417472
142 8.73103 -5.58366 -9.26003 -2.23358 1.40727 0.832822
593 -3.27434 -9.51415 -6.3752 -1.13497 -0.999227 0.541675
190 8.84135 -4.06515 -9.3748 -0.739615 -0.140547 -2.08792
292 -9.47988 -8.83301 -7.1499 0.45388 -0.335252 -0.246722
334 8.74699 -8.82561 -7.98689 -0.0721259 -0.155836 0.264172
57 -6.28673 -7.84937 -9.44591 -1.22599 -1.07142 -0.147913
338 -8.61855 -7.2341 -7.82828 1.36583 -0.182865 0.0279775
339 -8.80529 -8.0258 -7.14018 -0.0553335 1.1675 1.627
385 9.39396 -6.44165 -7.93145 1.15914 -0.713239 1.09212
387 -8.87868 -6.23525 -7.19364 -0.978198 -1.76226 -0.0147516
625 9.35987 -8.29172 -6.38813 -1.18114 0.141095 -1.18622
341 -7.86152 -8.19665 -7.80338 -1.07789 -0.591456 0.453382
342 -6.92832 -7.13662 -7.7904 -1.90415 0.442037 -2.99906
343 -7.24119 -7.71976 -7.05521 0.312732 2.11613 -1.62418
344 -8.15497 -7.12183 -6.85526 2.10371 -1.47814 0.356131
345 -6.24981 -7.83158 -8.01149 0.290548 0.90996 2.13127
347 -5.61459 -7.91508 -7.21445 1.56478 -0.355383 -2.07247
348 -6.32351 -6.99645 -7.0192 -0.715357 -0.0529386 1.26213
634 -5.62022 -7.24497 -6.36593 1.16457 -0.128912 0.711193
352 -4.81164 -7.09564 -7.10107 1.32432 -0.293139 -1.3955
638 -3.94502 -7.16594 -6.40353 0.590918 -0.609763 1.39635
353 -3.15405 -8.16129 -8.0393 2.06581 -0.203779 0.990965
356 -3.16378 -7.2204 -7.11284 -1.0394 -0.855748 -0.648164
641 -3.11349 -7.93791 -6.17042 0.730778 -1.93684 -0.0324732
359 -0.797747 -7.90486 -7.0629 -2.0955 -0.76352 0.543025
360 -1.7684 -7.15514 -7.1179 -1.28727 -2.32418 -0.0315153
646 -0.860054 -7.01207 -6.4145 1.25815 0.714251 0.0537961
358 -0.942566 -7.21126 -7.82551 -0.520639 -0.203412 -0.727332
364 0.0147206 -6.99611 -7.03394 -1.61898 -0.164849 0.162348
413 1.51261 -6.25208 -7.77644 1.24438 -0.873541 0.48251
362 0.944672 -7.06155 -7.8676 0.679043 -1.12246 0.953472
368 1.72012 -7.01997 -7.02529 -1.00939 1.50238 0.0376163
701 1.64121 -6.16738 -6.37745 -0.136523 -0.791803 0.57565
372 3.11471 -7.02379 -7.14109 -0.447098 -1.93575 -3.77387
417 2.96996 -6.53402 -7.97639 -1.57693 1.11775 0.709671
415 2.35692 -6.24088 -7.17212 0.103678 -1.92109 1.90613
373 4.72267 -7.95672 -7.7654 -0.892072 -0.736462 0.384943
376 4.57815 -6.85977 -7.32044 -0.412623 -0.775309 -0.562278
419 3.81057 -6.17756 -7.2284 0.0537923 0.0481677 -0.263278
658 3.9153 -6.95952 -6.52378 0.78267 0.587888 -0.60014
377 6.19765 -8.08349 -7.99622 0.221031 -2.95368 -0.0980752
374 5.52757 -7.2455 -7.7772 0.857498 -0.0253084 1.09871
380 6.40622 -7.11844 -7.11404 -1.1811 -0.453428 1.78906
662 5.51675 -7.18383 -6.32195 0.240971 0.453214 0.285279
713 6.35744 -6.34191 -6.35593 -1.4594 -0.677934 0.684954
381 7.90532 -7.8979 -7.81961 0.118878 -1.48441 -0.190442
379 7.10627 -8.00791 -7.03402 1.91171 -0.60975 0.660252
384 7.90716 -7.1874 -6.98052 1.09465 -0.863304 1.95259
666 7.12133 -7.16434 -6.27342 -1.95666 -0.200294 1.68094
340 -9.45626 -7.13137 -7.30836 2.75205 -1.34073 0.0832166
383 8.75416 -8.09217 -7.30838 -0.393003 -0.480549 -0.684742
670 8.90819 -7.41181 -6.56111 0.818605 0.82454 0.181884
388 9.42427 -5.50205 -7.06548 -0.114047 -2.24601 -0.416638
435 -8.67562 -4.68869 -7.20089 -0.166731 1.56309 -0.862912
674 -8.64175 -5.61734 -6.38977 0.442471 0.229164 -0.846533
391 -7.12875 -6.42564 -7.04372 0.368949 -0.246191 0.0828895
392 -7.93435 -5.48897 -7.10452 -0.796193 -1.48088 1.49161
678 -7.25191 -5.54509 -6.31067 0.496211 0.0877655 -0.282645
394 -5.57928 -5.47186 -7.98859 -1.72325 -1.71727 -0.314922
395 -5.44034 -6.11098 -7.08609 0.187251 0.301413 -0.88566
396 -6.34544 -5.6221 -7.13711 1.05788 -0.629513 -0.737002
681 -6.44066 -6.38063 -6.23142 1.29305 -2.26355 0.794254
682 -5.58262 -5.65117 -6.19174 0.715855 -1.90968 -2.09554
398 -3.7718 -5.60276 -8.01212 -1.03898 1.33122 -1.34917
399 -3.8409 -6.36086 -7.14657 1.40421 -1.4313 0.200117
400 -4.50917 -5.51026 -7.15199 1.2456 0.000453141 0.634364
685 -4.73061 -6.45301 -6.26019 0.542105 -1.59171 1.66338
686 -3.84911 -5.49454 -6.31054 -0.748887 -1.46112 0.645568
401 -3.20218 -6.44283 -7.95651 -0.0153465 -0.133506 -1.01199
403 -2.42542 -6.22574 -7.12013 0.22651 -0.731568 1.62299
404 -3.26564 -5.54239 -7.13158 -0.0628471 0.682265 -0.841388
689 -3.2497 -6.33611 -6.23289 1.64255 1.21781 0.797696
690 -2.45878 -5.62434 -6.25722 -0.290646 -3.56749 1.15133
408 -1.42373 -5.40544 -7.20087 1.57772 0.804842 -1.39368
694 -0.887499 -5.55353 -6.21505 0.455939 -1.8377 -0.642246
406 -0.782916 -5.51924 -7.9192 1.182 -0.333301 3.16473
409 -0.181429 -6.38143 -7.93091 2.63644 0.534218 -1.13654
407 -1.03096 -6.34956 -7.15774 -0.770146 0.0853985 0.478583
412 0.00839259 -5.70932 -7.19092 -0.163486 -0.19812 3.35739
410 0.720853 -5.57824 -7.82467 -0.86721 0.862301 -0.133608
411 0.87817 -6.30237 -7.13107 -0.381462 -0.20971 -1.39501
416 1.64062 -5.38638 -7.23698 0.0422209 -2.05789 1.2912
414 2.38412 -5.55986 -7.91952 -1.18801 -1.19205 0.69177
705 3.12809 -6.14188 -6.38291 0.922211 -0.392297 -1.88629
420 3.12631 -5.40408 -7.0602 0.935771 0.205557 0.202208
463 2.26175 -4.61663 -7.20675 1.37913 0.602329 -0.797205
418 3.92189 -5.45409 -7.97613 0.810234 -0.232315 1.9064
424 4.73849 -5.49689 -7.08436 0.948556 -0.361613 0.37671
706 4.07422 -5.51311 -6.30236 0.159356 0.0502846 2.74959
757 4.58144 -4.59748 -6.75632 0.956082 1.79636 -3.47369
423 5.66323 -6.33015 -7.12978 0.593845 -0.342035 -1.12105
428 6.33548 -5.40837 -6.967 0.855469 0.364164 0.930382
710 5.40279 -5.4811 -6.28001 -0.639799 1.51211 -0.349326
471 5.5929 -4.77738 -7.07339 -1.3779 -0.755457 0.722818
427 7.0532 -6.31801 -7.08886 -2.09865 0.209844 0.67252
432 7.91858 -5.51747 -7.0707 0.110131 0.230877 -1.97797
475 7.08039 -4.78295 -7.22898 0.14169 -1.00609 1.20048
714 7.25451 -5.50203 -6.32949 0.503589 -0.462361 -0.109434
431 8.73805 -6.46511 -7.01579 -1.55628 -1.32088 -0.805703
718 8.76551 -5.36186 -6.33373 0.608332 -0.940281 1.46795
434 -8.65024 -3.93348 -7.93995 -0.021409 -2.07102 2.04988
436 -9.47271 -3.8951 -7.16626 -0.370224 0.803862 -0.0950904
483 -8.61135 -3.10211 -7.05244 -0.127511 -0.389338 1.53404
437 -7.82772 -4.75989 -7.799 -1.41741 -0.0870763 1.37552
439 -7.07445 -4.90537 -7.03112 1.84003 -2.19947 1.17956
440 -7.81008 -3.8549 -6.9441 -0.374907 1.08467 0.280738
443 -5.42338 -4.98089 -7.18891 0.436761 2.03881 -0.180606
444 -6.09004 -4.05432 -7.12426 1.48 -0.878306 0.844821
445 -4.68177 -4.79886 -7.99217 0.533477 -0.149101 0.838671
446 -3.69259 -3.80846 -7.92126 1.51369 -1.06624 -1.38074
447 -3.88889 -4.79648 -7.05205 -0.284057 0.877118 1.36013
448 -4.60884 -4.09729 -7.10759 -0.333874 0.78106 0.485102
733 -4.8442 -4.89259 -6.22586 0.744829 0.848021 1.11764
734 -4.01967 -3.77791 -6.29508 1.11139 1.61742 -2.13753
451 -2.3528 -4.87725 -7.19258 2.57025 -0.56884 0.661981
452 -3.1833 -4.07288 -7.11463 -0.103945 0.249946 0.733575
785 -3.10779 -3.26959 -6.09716 -0.178726 -0.691413 0.436356
453 -1.5629 -4.85071 -8.01446 0.365396 0.224986 0.0512622
450 -2.45442 -4.04305 -7.92695 -2.53623 -0.43463 0.213902
456 -1.56205 -4.08834 -7.19836 -0.0726344 -1.29869 -1.74869
503 -0.8432 -3.28841 -7.24301 -1.27813 0.507974 0.950298
457 0.101774 -4.81918 -8.05138 1.07203 1.37111 -0.820633
505 0.102999 -3.07776 -7.96171 -0.0794386 -1.06983 -1.77552
455 -0.4659 -4.79771 -7.23346 0.374993 2.88852 -0.800346
460 0.0329842 -3.87906 -7.3394 -1.57811 -0.710668 0.172811
742 -0.779405 -3.90585 -6.4164 0.00138853 1.95866 0.516119
509 1.68314 -3.07195 -8.0245 0.995673 0.336467 0.54894
459 0.689136 -4.65813 -7.20425 -1.15539 -1.36978 -1.54123
458 0.679314 -3.91551 -8.07003 -0.473403 -1.77915 -1.17795
461 1.33247 -4.75118 -7.99807 0.220628 -1.22748 1.56108
464 1.50457 -3.84194 -7.20924 -2.39543 -0.411659 0.123228
462 2.34936 -3.82579 -8.03693 0.0474557 -0.923337 -0.788008
468 3.16219 -3.91429 -7.13321 -0.866452 -0.101099 -0.440212
801 3.03788 -3.14939 -6.27636 -0.691262 -1.80466 -0.848964
467 3.77015 -4.64649 -7.28152 -0.675414 -1.71249 0.12615
472 4.59395 -3.80746 -7.31253 -0.830629 -0.424921 -1.24718
754 3.89785 -3.88073 -6.40167 -1.5352 -1.26955 -2.5033
515 3.79127 -3.08697 -7.11216 -1.56597 -1.43197 0.0440057
761 6.35159 -4.6939 -6.20007 -0.931518 -0.0691234 1.78346
476 6.31772 -3.71206 -7.04152 0.53041 -1.15507 0.642432
758 5.48931 -3.82582 -6.37769 -0.413366 -0.954453 1.75028
480 7.78815 -4.06639 -7.0804 0.541336 0.724399 1.13909
813 7.82596 -3.29954 -6.28761 -0.511376 0.542591 0.244033
762 7.11282 -3.96936 -6.16548 0.19231 2.25528 -0.0569911
479 8.69076 -4.70003 -7.16487 1.81532 0.0144966 -1.4545
769 9.33556 -3.17747 -6.35487 0.233395 0.782579 -0.81954
485 -7.74967 -3.16016 -7.88316 -0.987785 -0.356861 0.840293
770 -8.73553 -2.29545 -6.19742 0.0205394 -0.669872 -0.896155
488 -7.98418 -2.3624 -7.16517 -1.74644 0.248366 0.0352018
533 -7.89604 -1.67037 -7.85686 -1.96422 0.906217 -1.85928
487 -7.11779 -3.06259 -6.91029 -0.662756 -0.697841 0.343719
774 -7.23688 -2.24193 -6.27981 -2.46915 2.58403 -0.895953
773 -7.97043 -3.12407 -6.1691 2.75873 -0.85641 -0.349698
490 -5.35757 -2.37574 -7.78592 1.57985 0.787458 0.391489
491 -5.371 -3.24728 -7.16449 0.181126 0.127936 -0.195669
492 -6.22133 -2.1812 -6.92896 -0.243573 -0.623881 0.272062
777 -6.18572 -3.31021 -6.54303 -0.716312 -0.869011 -0.0759182
778 -5.49132 -2.47326 -6.37373 0.425184 -0.716273 1.74513
493 -4.36899 -3.06156 -7.83565 2.23159 -0.130744 -1.15755
495 -3.54796 -3.0991 -7.17941 1.15516 1.16474 0.884045
494 -3.98793 -2.20824 -8.02172 -0.660371 -1.30559 0.117348
496 -4.6295 -2.68266 -7.0506 1.6127 0.732664 1.06862
543 -3.98617 -1.59277 -7.1184 2.04925 -1.37823 -0.643921
500 -3.00335 -2.24268 -7.20312 1.58428 1.15218 -1.10306
502 -0.902597 -2.3056 -7.85815 0.940686 1.83213 -1.711
499 -2.50977 -3.14376 -7.10739 0.25112 -2.35625 -0.617241
789 -1.67001 -3.2291 -6.52934 -1.34967 -2.69619 -0.1395
504 -1.71751 -2.37314 -7.15645 0.903066 0.267786 0.595885
790 -0.807954 -2.63993 -6.48881 1.49752 -0.993477 -2.64531
793 0.0118671 -3.36328 -6.15545 -0.911881 2.0719 1.69911
508 -0.0235177 -2.59682 -7.04622 1.20157 -0.977951 -2.1684
506 0.71214 -2.30419 -7.87338 0.709268 -0.604834 0.301826
555 0.666474 -1.54491 -6.94001 -1.18527 -0.189597 -0.432731
507 0.899173 -3.06515 -7.16139 1.73996 2.59224 -0.435894
512 1.72933 -2.38197 -7.28856 0.21396 1.36063 0.18604
511 2.3055 -3.27864 -7.16279 0.766327 1.32035 -0.426189
516 3.05843 -2.37839 -7.10202 -1.3054 0.270135 -0.313299
559 2.40396 -1.57707 -7.2159 -0.250346 1.97361 -0.00902136
849 3.20467 -1.52925 -6.37758 1.40708 0.704559 0.366849
514 3.99964 -2.38152 -8.093 -0.260216 1.0951 1.10495
565 4.84897 -1.42092 -8.09573 0.00829171 -1.75413 -0.917699
805 4.67662 -3.07497 -6.14347 -0.851577 -1.40869 -0.0433757
520 4.64024 -2.48537 -7.2111 0.868895 -1.03281 0.224166
563 4.06753 -1.63669 -7.36146 -0.0759647 -0.317369 -0.868845
802 3.89831 -2.20622 -6.374 -1.27764 -0.289355 -0.845606
518 5.44498 -2.45096 -8.0517 -1.16643 -2.02895 -0.529885
519 5.423 -3.07338 -7.01927 0.459103 1.24328 -2.68529