ITEM: TIMESTEP
57000
ITEM: NUMBER OF ATOMS
6912
ITEM: BOX BOUNDS pp pp pp
-9.5244063118091962e+00 9.5244063118091962e+00
-9.5244063118091962e+00 9.5244063118091962e+00
-9.5244063118091962e+00 9.5244063118091962e+00
ITEM: ATOMS id x y z vx vy vz
51 -8.58543 -7.88081 -8.73447 0.762489 1.33621 0.00541943
585 -6.07523 -9.50206 -6.40871 0.808338 0.223243 0.293152
8 -7.9679 -8.64495 -8.8577 -0.53653 0.968504 -3.3933
294 -7.11675 -8.57105 -7.79045 0.0552992 1.56679 -0.103682
3475 -2.44746 -0.134099 -8.79541 -0.538354 -0.707352 -1.02774
12 -6.39658 -8.6479 -8.73111 0.871077 0.128211 1.65674
298 -5.61442 -8.8223 -7.94159 0.359294 -0.0344394 1.10276
15 -3.94469 -9.49364 -8.66817 -0.39369 0.0232392 -0.769945
229 4.67625 -3.11829 -9.41491 -0.851276 0.143396 -0.372127
16 -4.76273 -8.73068 -8.5634 0.119844 -0.572767 0.213228
293 -7.62116 -9.30882 -8.1705 0.45847 -0.504973 0.0311216
5209 -0.0622029 -0.25985 -0.24641 -0.225496 0.194577 0.1147
20 -3.23062 -8.79929 -8.79337 1.90133 -1.05651 -0.279066
306 -2.53996 -8.57608 -7.91697 -0.378448 1.20375 0.925283
335 8.7253 -9.47985 -7.18467 -0.10279 -1.71974 1.26484
24 -1.77576 -8.64988 -8.75524 -0.775214 2.2553 -0.200388
26 0.691599 -8.76641 -9.5236 2.48963 -0.00716401 -2.603
71 -0.927278 -8.02462 -8.60286 1.74611 1.44753 -0.110638
22 -0.915978 -8.62543 -9.42808 -0.375054 -1.51225 -1.30274
28 -0.159283 -8.71329 -8.79719 0.0396302 1.87788 1.53209
165 -1.86328 -4.94049 -9.51233 -2.21679 0.626431 -0.883068
1798 -0.726958 -7.16573 -0.0332456 0.0940374 -0.422014 -0.167227
32 1.56407 -8.81686 -8.87396 -0.46342 -0.389064 -0.272182
75 0.616876 -7.79547 -8.70511 0.753427 -0.207986 -2.97058
365 1.26138 -7.65484 -7.90286 -0.493839 0.970497 -1.06428
36 3.27981 -8.5638 -8.76149 1.26074 1.80882 -0.178712
369 2.99374 -7.94954 -7.84687 2.08027 0.59377 0.271045
118 -0.756601 -5.48946 -9.52706 -0.499461 2.60108 -1.44081
40 4.67348 -8.58638 -8.46066 -0.185587 -1.38176 0.33672
83 3.9329 -7.84287 -8.43793 0.0236054 0.43813 0.449535
322 3.92169 -8.67394 -7.70029 -0.0113296 -0.885507 0.113138
50 -8.64423 -7.11819 -9.52367 0.170246 -1.12483 -1.167
44 6.2097 -8.64046 -8.74532 1.1225 0.156637 1.06857
4339 -2.42059 -0.0542704 -3.91781 0.754611 0.165492 -0.76817
326 5.49495 -8.62225 -7.89483 0.0505901 -1.11933 1.2699
48 7.86066 -8.76964 -8.79248 -1.64043 2.3297 -0.393005
91 7.11276 -7.9669 -8.60497 0.551577 1.39977 0.787324
330 7.05932 -8.80932 -8.04236 -2.53964 -0.112551 0.00395292
157 -4.65026 -4.58264 -9.48699 -0.59657 0.278367 0.75083
4341 -1.4388 -0.0772272 -4.71338 -0.12483 1.7514 -0.99379
4 9.51211 -8.65866 -8.62485 0.960474 0.0941753 -1.53525
334 8.6394 -8.75504 -7.91992 2.00607 -1.21086 1.02532
381 8.08653 -7.83574 -8.0535 -1.08158 -0.81717 0.560521
95 8.57271 -8.04886 -8.84436 -2.17604 0.604686 0.130159
899 4.08576 -9.49786 -4.0597 0.946022 -0.589626 1.82786
2009 6.53063 -1.5707 -0.0541004 2.12905 0.59273 0.69478
1199 8.80196 -9.52854 -2.47729 1.45589 -1.37698 -0.671945
887 -0.773504 -9.504 -3.94139 -0.637193 0.451282 0.757313
55 -7.02646 -7.90301 -8.61378 -1.12134 0.067885 -2.14651
56 -7.78797 -7.00886 -8.86242 -1.40056 0.340177 0.480171
341 -7.84319 -7.7961 -7.9293 0.0509101 -0.202836 2.33819
581 -7.75374 -9.43804 -6.22438 0.206405 0.999425 0.684939
59 -5.46934 -7.92881 -8.6064 -0.15886 -0.215906 -0.0764535
60 -6.35638 -7.12166 -8.82039 -1.38421 0.157942 -1.14205
107 -5.59075 -6.18306 -8.85872 -1.06088 -0.932214 2.42714
269 1.57704 -1.66808 -9.37417 -0.655004 -0.777523 1.85143
63 -4.01168 -7.97527 -8.71482 1.29912 1.38063 1.57674
64 -4.79193 -7.01973 -8.89555 2.09763 1.95392 1.28204
1449 -6.22458 -9.3638 -1.69753 -1.6433 0.472734 -0.131412
47 8.7691 -9.42396 -8.77783 -1.52342 -0.666614 -1.26343
350 -3.91768 -7.06248 -7.85034 -1.51848 -1.08028 -1.17593
62 -3.9226 -7.13939 -9.46876 1.02119 0.436042 -0.174773
68 -3.22227 -6.94855 -8.65699 0.44026 1.23473 -0.158392
115 -2.35347 -6.43228 -8.59664 -0.0894379 1.30134 0.740809
67 -2.41575 -7.75124 -8.89737 0.520464 1.69121 1.27483
354 -2.46753 -7.14464 -7.90961 0.315442 -0.372036 -0.531635
3781 4.63712 -0.0285988 -7.89367 0.851353 1.67657 -0.169666
72 -1.54559 -7.30017 -8.67082 0.130408 -1.13326 0.590544
405 -1.59836 -6.5213 -8.02898 0.663137 -1.57008 -1.261
37 4.75494 -9.10074 -9.40487 1.10762 1.05002 -1.48224
119 -0.980227 -6.36381 -8.84009 1.52324 -0.0628 -0.045629
76 -0.105767 -7.20633 -8.80354 3.44497 -0.529049 -3.33747
409 -0.0081928 -6.20362 -7.9538 0.0162237 1.3069 -3.02359
80 1.5699 -7.08044 -8.80177 -0.285413 1.46104 2.31558
362 0.516399 -7.14784 -7.78603 0.608922 2.3082 0.366026
123 0.637381 -6.49342 -8.72886 0.477423 1.24351 1.17178
79 2.19702 -7.85916 -8.64877 0.223179 -1.97541 1.02066
150 -7.1366 -3.94774 -9.40897 0.554019 -0.917716 0.355358
84 3.16647 -7.06235 -8.53366 -1.06336 0.257352 0.817679
1786 -5.6379 -7.14204 -0.0978475 0.828149 0.0702507 -0.682982
88 4.64441 -7.09323 -8.64326 -0.229008 0.366068 1.5881
131 3.92226 -6.2751 -8.6579 0.527249 -0.723449 1.65526
421 4.63905 -6.25729 -7.64911 1.06172 -0.703612 1.17609
87 5.61366 -7.79403 -8.68318 -1.0278 -1.40277 -1.47217
92 6.25131 -7.03653 -8.80143 -0.261638 -0.894745 -0.977943
425 6.30341 -6.23135 -8.17728 0.757766 -0.820929 -0.468776
374 5.81486 -7.02643 -7.82292 -0.738833 -0.454576 -0.43576
377 6.41725 -7.90455 -7.87474 0.179681 -1.11554 -1.6047
4937 6.35182 -0.16676 -1.57525 -0.807483 0.125366 1.46955
378 7.03041 -7.08224 -8.04962 -0.567812 -1.80351 0.0837373
52 9.52462 -6.9485 -8.65991 0.199353 -0.0225204 0.85746
96 7.78881 -7.20722 -8.7624 0.915194 -0.323264 1.47282
3759 -3.83012 -0.0742858 -7.21774 4.02819 0.491019 -1.66211
99 -8.74 -6.28483 -8.73611 -0.152248 -0.899093 0.401155
147 -8.76075 -4.63124 -8.75587 0.697331 -1.94866 -2.8741
100 -9.51742 -5.5002 -8.77072 0.386921 -2.32841 1.77599
249 -6.35883 -1.46549 -9.43345 1.38233 1.90768 -2.70092
103 -6.94213 -6.19792 -8.82685 -0.719074 -1.34135 -0.0933374
104 -7.90676 -5.62442 -8.68797 0.490141 -1.47397 -0.478137
390 -7.15657 -5.60339 -7.89039 -2.41742 0.1128 -1.1939
151 -7.11919 -4.75244 -8.75519 2.05942 0.0145885 -1.15071
389 -7.89387 -6.35949 -7.92525 -1.17836 0.0960265 -0.0487669
108 -6.28517 -5.44362 -8.76937 -2.19657 -0.765679 -1.0793
155 -5.56352 -4.61455 -8.52683 1.19841 -0.666161 1.29506
393 -6.35612 -6.36151 -7.95566 -0.833234 -0.450799 1.12171
394 -5.58935 -5.65055 -8.00835 -0.445882 1.42271 3.77854
441 -6.45047 -4.76853 -7.9616 -2.50652 1.5082 1.15085
111 -4.08186 -6.2272 -8.83274 -1.53114 -0.883759 -0.18413
112 -4.95673 -5.33972 -8.7452 0.434939 0.636874 -1.2335
159 -4.00736 -4.89233 -8.66789 -3.06414 1.45868 -0.944646
398 -4.08642 -5.64019 -7.94168 -0.796938 -0.336973 -0.713722
1167 -3.92386 -9.47495 -2.35179 -0.0554254 -1.00517 1.84228
116 -3.22592 -5.58144 -8.6586 1.51179 -0.744647 0.159935
401 -3.2438 -6.27856 -7.88087 0.481786 1.01771 -2.99875
402 -2.505 -5.52879 -7.75301 -0.892826 -0.562048 -2.73989
449 -3.30395 -4.77944 -7.71282 -1.0395 0.76569 -0.961776
120 -1.68041 -5.61578 -8.62843 -1.06613 -1.50559 0.346481
124 -0.101264 -5.45563 -8.68862 -0.647983 -0.544429 -2.37447
406 -0.925026 -5.56944 -7.9193 0.32215 1.32727 1.08041
410 0.499857 -5.30105 -7.76962 1.31631 0.547321 1.55227
217 -0.0400103 -3.11191 -9.41336 0.928696 1.91619 -0.488681
128 1.34744 -5.64019 -8.66073 -1.75457 -0.649412 -1.08525
461 1.48428 -4.66492 -7.86834 0.530285 0.970656 -1.36835
1187 3.89696 -9.27373 -2.41326 -0.29758 1.10796 -2.01206
127 2.38253 -6.25388 -8.61971 -0.292758 -0.978503 0.773131
132 3.20979 -5.52322 -8.64835 0.288604 -0.518869 -0.769598
1487 8.69023 -9.49371 -0.754911 1.0386 0.438746 0.391317
414 2.34086 -5.51357 -7.91299 -0.635447 1.717 0.0107426
39 5.32962 -9.39094 -8.71059 -1.71164 2.19854 0.115672
136 4.73112 -5.47529 -8.70113 1.29096 1.16564 0.449305
179 3.99063 -4.76644 -8.60123 1.01028 -0.253187 0.54505
135 5.51268 -6.27093 -8.74306 0.457368 2.53002 0.926661
140 6.21453 -5.38727 -8.71398 1.00404 2.17235 0.0926876
183 5.41382 -4.69456 -8.55156 2.57153 -1.45615 -1.45997
422 5.33442 -5.43684 -7.82899 1.3524 0.19862 0.449823
139 7.29499 -6.34832 -8.7057 1.19299 0.0704206 -1.90302
429 8.06716 -6.31607 -7.93967 2.04287 -2.82542 1.17804
144 7.94648 -5.56893 -8.5668 0.195486 -2.05716 -0.334815
477 7.90308 -4.69579 -8.02818 -1.10372 -1.38666 -1.55268
426 7.06133 -5.41179 -7.90447 0.57068 -1.41652 -0.55518
143 8.77137 -6.1316 -8.68033 1.83487 -0.585108 1.27979
1878 -7.01252 -3.81481 -0.05705 0.335321 0.866848 0.832815
430 8.64091 -5.53342 -7.79619 -1.06039 0.255453 0.455976
195 -8.74548 -3.27538 -8.66487 0.76188 1.44321 -0.764573
4655 8.79434 -0.275159 -2.37143 0.869184 -0.182942 -0.716432
433 9.44772 -4.90036 -7.76131 1.31565 -0.619487 -0.246791
152 -7.84511 -3.91008 -8.69177 0.646278 -0.781132 0.252308
438 -7.10716 -4.07814 -7.78582 1.10866 0.584615 1.84911
156 -6.32616 -3.98941 -8.6023 0.530396 -0.0226147 -0.505517
442 -5.45241 -3.99518 -7.73874 -0.138439 -1.42747 -0.971025
160 -4.64397 -3.85598 -8.71525 -0.834173 -0.881826 0.985429
207 -3.77797 -3.21983 -8.76466 -1.45092 0.342138 0.167717
445 -4.86809 -4.83889 -7.74228 1.17463 0.81996 0.323162
446 -4.06385 -4.19145 -7.86289 0.0337377 0.741308 2.83741
163 -2.39548 -4.83339 -8.6747 -0.690359 -1.0588 0.517905
164 -3.31839 -4.21413 -8.53151 -1.369 0.19309 1.27437
1998 2.27191 -0.862199 -0.042307 0.769283 2.64284 0.598317
450 -2.57466 -4.20531 -7.84857 0.517022 -2.18935 -0.0431986
168 -1.73691 -4.05686 -8.61629 1.00006 1.8428 0.653682
453 -1.66388 -4.68318 -7.8759 -2.19317 -1.75184 -0.209404
167 -1.00569 -4.76999 -8.80564 0.169269 1.15203 1.83698
172 -0.0462037 -3.86687 -8.78596 0.646748 -0.832359 -1.00067
458 0.741055 -3.88336 -7.98467 -0.750544 -0.339158 0.79583
171 0.771526 -4.79204 -8.6697 -0.723653 0.24444 -0.485757
176 1.49382 -3.63923 -8.66112 0.187577 0.878712 -0.964709
1155 -8.83457 -9.48731 -2.43624 -0.513032 -0.516815 -1.58552
175 2.37055 -4.79388 -8.71572 0.900024 -0.809834 -1.31523
605 1.73271 -9.48856 -6.3436 0.939498 0.893389 -2.19621
180 3.2416 -3.87702 -8.62188 -0.857401 1.17692 1.5151
513 3.16784 -3.03449 -7.90578 -0.300734 0.852939 -1.87336
462 2.42264 -3.85445 -7.97311 0.85553 -0.377563 2.20315
14 -4.16207 -8.79076 -9.41228 -0.701893 -0.717212 -0.154273
184 4.74443 -3.99697 -8.65524 2.23995 -1.43066 -1.11056
201 -6.38129 -3.29226 -9.46059 0.507553 1.00153 -2.26941
895 2.38649 -9.5029 -3.95415 1.00616 -1.22444 1.13454
188 6.23963 -4.04799 -8.79061 -0.0129945 -1.50204 2.3743
470 5.5104 -3.91632 -7.92002 2.29216 -0.115635 1.80991
473 6.3215 -4.67309 -7.98512 0.735638 0.315017 -1.31266
231 5.59414 -3.18377 -8.78578 1.93271 -0.419138 0.059072
521 6.43295 -3.16469 -8.03504 0.978591 0.116373 0.365641
187 7.06655 -4.68549 -8.70172 -0.261582 -0.765863 0.56609
192 7.97525 -3.88885 -8.80582 -1.46401 2.00292 -0.853688
235 7.14692 -2.9807 -8.84938 -0.120903 1.29801 0.794286
525 7.83635 -3.12898 -7.97169 0.0269362 -0.25588 1.05443
148 -9.53493 -4.03765 -8.56689 -1.20482 1.37501 -0.372073
191 8.80744 -4.70861 -8.77714 2.0754 0.92627 1.63264
239 8.64216 -3.13183 -8.76045 1.25998 2.83898 -1.41282
478 8.71131 -3.894 -8.03639 0.189779 1.56332 0.9754
196 -9.4312 -2.52571 -8.43149 0.589654 -1.24888 0.539408
243 -8.69288 -1.51756 -8.67392 0.558117 2.13076 0.989278
1733 -8.0746 -9.4229 -0.120447 1.71587 -0.98639 0.723582
4647 5.6381 -0.0817707 -2.50472 2.18342 0.530689 0.1578
4057 -0.113456 -0.0396434 -6.23275 -2.51862 -0.652546 -1.94531
199 -7.15842 -3.11861 -8.79546 2.03719 0.211957 -0.859363
200 -7.94112 -2.44266 -8.73906 0.219572 0.617704 -0.261275
247 -7.06186 -1.37445 -8.68364 -0.533214 -0.467671 0.98405
305 -3.2894 -9.50022 -7.84921 0.886283 -1.49973 0.501692
2014 8.76132 -0.867028 -0.0416806 -0.991714 0.618147 1.12466
203 -5.61847 -3.20519 -8.63131 -1.28091 -0.205153 -1.2293
204 -6.27938 -2.49021 -8.57595 3.08905 1.09733 0.240427
251 -5.52201 -1.37214 -8.70625 -0.197676 0.177423 -0.990187
489 -6.30031 -3.32724 -7.6882 -1.09772 -1.87451 0.42565
490 -5.35848 -2.41457 -8.01565 1.31343 -0.0161187 0.0190115
537 -6.26039 -1.4702 -7.89425 1.03103 1.73339 -0.584473
4049 -3.13128 -0.0517436 -6.3926 -0.411487 -0.811136 1.35239
208 -4.6982 -2.73787 -8.71821 -0.259479 -0.150727 0.397558
541 -4.75375 -1.4837 -8.04497 -0.399897 0.525729 -1.58122
1790 -3.96409 -6.95596 -0.152062 -1.13163 0.543447 1.75197
211 -2.54666 -3.41858 -8.53858 -0.975781 0.000579568 1.86629
212 -3.38844 -2.32072 -8.77062 0.350359 -1.93285 1.48898
85 4.52512 -7.82666 -9.41713 -0.0318045 0.034475 -0.198037
216 -1.49682 -2.21744 -8.71684 1.14323 1.02868 -0.0322446
215 -0.970234 -3.06324 -8.85478 0.158802 -0.65699 -0.343301
263 -0.856759 -1.4522 -8.745 -0.523659 0.135203 0.0287123
114 -2.68253 -5.60004 -9.50351 -0.48307 -0.0684824 -1.8411
501 -1.69961 -3.1214 -8.00757 1.56939 -1.3439 1.67059
502 -0.80402 -2.20198 -7.86174 0.143003 -0.805058 -0.0187242
220 -0.258132 -2.2127 -8.88584 -0.0325573 -1.69905 0.0997771
210 -2.39468 -2.2975 -9.50439 0.0626583 1.35138 -1.88969
219 0.741626 -2.9033 -8.62322 0.680818 -0.950415 1.12828
509 1.53905 -3.11221 -7.80664 -1.28802 0.679869 -0.914438
224 1.74894 -2.40164 -8.66831 1.43048 -1.80106 -1.19429
557 1.60276 -1.69375 -7.90051 1.75168 1.85624 0.554804
223 2.46182 -3.21251 -8.83388 1.09603 0.0853379 -0.33634
228 3.25397 -2.28934 -8.71462 -1.955 -0.833279 -1.63576
271 2.46074 -1.66991 -8.71907 0.782293 0.360417 -0.47974
227 4.00802 -3.04376 -8.75075 1.92557 -1.00638 -0.0214296
232 4.97911 -2.3049 -8.72277 0.737684 -2.14279 0.434546
1873 -9.50847 -4.68698 -0.100817 -0.653067 1.1064 -0.956103
236 6.2611 -2.31945 -8.75235 0.973198 0.447755 0.766455
279 5.65875 -1.50681 -8.65083 0.627979 2.94357 -0.58204
518 5.60618 -2.48035 -7.91946 0.198763 -0.396214 -0.118948
240 7.98621 -2.32297 -8.45095 -0.269485 0.281953 0.343469
522 7.0633 -2.30342 -8.05196 -1.19583 1.39061 0.622645
573 7.87881 -1.44029 -7.89824 0.971163 0.924637 0.183377
166 -0.839861 -3.88209 -9.50133 -2.31773 -0.54381 -3.09924
287 8.72985 -1.6284 -8.64184 1.24629 -1.48752 -0.912952
526 8.5997 -2.38834 -7.78456 -3.81125 -1.03721 0.458982
530 -8.66957 -0.722553 -7.9209 -0.522712 -1.34038 -0.19241
889 0.058574 -9.36114 -4.72405 -0.474575 -0.418168 0.96971
248 -7.84901 -0.4856 -8.61652 1.51656 1.30675 -1.37303
534 -7.2162 -0.728275 -7.83326 -2.24813 -3.2343 -0.550829
252 -6.21818 -0.680632 -8.7006 -3.54494 -0.683285 -1.63382
538 -5.59725 -0.794537 -7.86953 -0.715381 0.959336 -1.48641
4351 2.39309 -0.0879264 -4.13273 1.10255 1.11086 -3.08839
255 -4.01014 -1.49518 -8.76779 -0.4292 -0.441169 1.67253
256 -4.78774 -0.748108 -8.79733 -0.401316 -1.17136 0.921848
542 -4.07705 -0.781965 -7.96473 0.00374541 -2.14294 0.927625
259 -2.3913 -1.35331 -8.74618 2.01991 0.16899 0.00920896
260 -3.34863 -0.694488 -8.78232 -1.83847 0.963465 -0.453912
546 -2.72699 -0.838152 -7.88924 2.22622 -1.40397 -1.18811
202 -5.43222 -2.46875 -9.28558 -1.32668 0.763037 -1.6919
122 0.747773 -5.60455 -9.42752 0.678004 -0.48278 0.082573
264 -1.63643 -0.746657 -8.86435 0.987955 1.27217 -1.26188
90 6.99126 -7.00667 -9.51121 -1.84732 2.3366 0.172825
1914 7.19741 -4.03973 -0.189407 0.881281 1.22616 -2.04952
268 0.018643 -0.91575 -8.80412 1.56791 -3.26039 1.3283
267 0.632274 -1.75756 -8.68669 -0.974168 0.198254 0.197716
3765 -1.78942 -0.0189451 -7.8976 0.93755 1.36838 -0.421242
4365 8.14659 -0.0804912 -4.78415 -1.01847 -2.05838 0.765232
4357 4.85129 -0.0434282 -4.81125 -1.43994 -1.08551 -1.29265
272 1.57515 -0.903853 -8.74286 1.20336 -0.475094 -0.656922
601 0.0584038 -9.54333 -6.32494 0.145967 -1.72775 1.37597
276 3.3434 -0.87725 -8.76218 1.98362 1.85123 1.49794
1785 -6.22497 -8.1486 -0.0520377 0.736239 0.449853 1.9824
319 2.42331 -9.4924 -7.37622 1.90564 0.925147 0.233037
275 4.17813 -1.69526 -8.64428 -0.484597 -2.12138 -0.0109715
280 4.98429 -0.695172 -8.58594 -1.0465 -1.08191 -0.562753
4637 1.64739 -0.0724444 -3.51858 1.86435 1.0043 0.076588
4327 -7.06381 -0.0290412 -3.81991 -0.0490109 1.982 0.202302
1841 -3.15801 -6.06182 -0.0180439 -1.66428 -1.09158 -0.397394
284 6.41861 -0.831311 -8.89998 1.50878 -0.123091 -0.217024
566 5.75249 -0.622257 -7.93989 0.529049 0.228285 1.58146
4935 5.50666 -0.11159 -0.984382 -1.48839 -0.86132 0.179919
1870 8.71661 -5.53857 -0.127496 -0.514789 0.631535 3.07476
283 7.06368 -1.4832 -8.80916 1.94225 -1.30481 -2.75891
288 7.90233 -0.961804 -8.74023 0.0685252 0.432939 -0.160077
570 7.29684 -0.644384 -7.94665 -0.722353 -0.403553 0.844914
244 -9.43833 -0.781386 -8.8021 0.542288 1.36916 0.250318
1451 -5.41709 -9.44726 -0.906447 -0.849094 0.636395 0.780915
285 8.00251 -1.6722 -9.45499 0.728409 1.51099 0.305768
1746 -2.30713 -8.77379 -0.0362948 1.25408 1.83477 -0.384763
290 -8.55763 -9.03289 -7.9146 0.251314 -0.436747 -0.796703
296 -7.94276 -8.67835 -7.2711 0.15735 -1.77418 -0.498223
339 -8.74143 -7.99986 -7.31513 1.69633 0.826245 -0.176284
343 -7.12142 -7.92302 -6.98348 0.669442 -1.12724 1.15062
4909 -4.77119 -0.236984 -1.53347 0.639682 -0.299558 -1.42885
345 -6.22042 -8.00307 -7.88702 -0.662443 1.1518 0.752955
300 -6.0379 -8.58569 -6.86575 -0.113986 -0.372395 1.63314
347 -5.37801 -7.98894 -7.35706 -1.24955 -0.303714 1.05095
586 -5.26535 -8.54857 -6.35312 -1.51478 -0.962627 1.86239
4053 -1.67221 -0.0821487 -6.39405 0.668684 -1.19275 -1.65917
27 0.681513 -9.50996 -8.70428 2.2323 -0.101226 1.76705
302 -3.87126 -8.66009 -7.93511 1.60077 0.461423 1.53093
304 -4.7552 -8.72037 -7.45578 -1.92184 0.573361 1.19799
327 5.6693 -9.40333 -7.11278 0.569339 -0.968669 1.54849
308 -3.19187 -8.68123 -7.15132 2.16122 -1.72203 2.43191
353 -3.26115 -7.94741 -7.91619 0.422072 -0.439668 -0.572098
357 -1.73301 -7.96227 -7.93514 -1.12533 0.97363 -0.625313
312 -1.70503 -8.69752 -7.25027 -0.0379688 1.5652 -0.917085
359 -0.980261 -7.92303 -7.11999 -0.504851 -0.404908 0.541143
598 -0.674316 -8.67211 -6.45091 2.52001 -1.08654 -0.411557
1197 7.97888 -9.5181 -3.09335 -1.6714 0.0576885 -0.725161
310 -0.841937 -8.74471 -7.82515 -0.194398 1.06627 1.7565
314 0.912174 -8.61318 -8.0389 -0.498267 1.1742 1.12528
316 0.0859036 -8.51366 -7.09727 2.14326 0.233173 -0.385307
4643 3.90788 0.00554977 -2.29017 1.4376 1.00579 -1.16863
320 1.46425 -8.63801 -7.12518 -0.352686 -1.03904 -0.834573
602 0.692939 -8.62009 -6.09903 1.29139 -0.121775 -0.631301
318 2.32732 -8.65514 -8.13342 1.67812 0.39169 -0.631999
324 3.12267 -8.57495 -7.06273 0.090152 0.769806 -2.22314
367 2.22584 -7.88212 -7.17854 1.75823 -0.45342 2.341
3489 3.25776 -0.0804498 -9.4128 0.00906976 -0.081342 0.728355
328 4.79822 -8.61435 -7.13564 0.12131 0.437282 0.629774
371 3.92749 -7.86768 -7.06705 -0.119358 -0.123514 2.73601
373 4.98557 -7.65932 -7.93312 -0.681883 -1.28434 -0.816333
332 6.5968 -8.59728 -7.10195 0.660528 -0.609446 -1.29293
4931 4.20506 -0.184852 -0.944171 -0.134499 -0.828381 2.09428
336 8.0161 -8.73025 -6.98717 0.230016 -0.467926 0.191397
618 7.21348 -8.81686 -6.19159 -0.087908 -1.43241 -0.0365164
379 7.39777 -7.90559 -7.33199 -0.211852 1.49297 -0.104989
292 -9.42655 -8.76187 -7.3573 0.750446 0.00978216 -1.59157
3755 -5.57756 -0.048273 -6.93633 -0.487215 1.86345 0.572221
338 -8.62378 -6.99717 -8.09378 -0.140147 0.516725 2.58407
385 -9.51205 -6.02461 -7.89254 -0.315411 2.80166 -1.56485
340 -9.50093 -7.11959 -7.16329 -2.03039 -0.440867 1.0809
342 -7.04755 -7.0632 -8.10132 0.383118 -0.273461 -0.270181
344 -7.94992 -7.03181 -7.06911 -0.503307 0.741238 0.893392
346 -5.6245 -7.08044 -8.01784 -0.651279 -1.3775 0.527942
348 -6.35372 -7.24935 -7.2192 -0.0554314 0.542602 -0.641576
395 -5.49996 -6.41865 -7.21385 -0.162394 -0.268638 -0.824743
634 -5.38602 -7.1193 -6.18145 -0.196671 0.372081 -1.74461
397 -4.82232 -6.44229 -7.98015 -2.50528 -2.59463 0.750845
349 -4.659 -7.7795 -8.02778 -1.21594 -1.04123 -1.36403
351 -4.03161 -7.87644 -7.21476 0.189417 -0.0136052 -0.852316
352 -4.75818 -7.03028 -7.18516 0.759354 -1.33431 -1.39577
637 -4.60543 -7.8598 -6.44176 0.335485 1.84294 0.0977818
355 -2.38237 -7.98606 -6.99334 1.35024 -0.540709 -1.94802
356 -3.1553 -7.21823 -7.17647 -0.168034 0.395421 -0.46927
358 -0.685179 -7.10528 -7.9493 0.555786 -0.0508331 1.55519
360 -1.48416 -7.05971 -7.14504 0.174156 0.817079 -0.685575
407 -0.863175 -6.27621 -7.23991 -0.304307 0.246799 1.3805
361 -0.126627 -8.01609 -8.00049 0.0376075 -0.268955 0.551698
364 -0.16373 -6.97188 -7.08329 -0.766265 0.24425 0.342525
697 -0.207972 -6.2437 -6.3539 -0.385824 1.88087 -0.497503
363 0.77476 -7.78318 -7.02203 0.41392 -0.938256 -0.795577
368 1.41298 -7.00331 -7.05175 0.00751512 0.225841 0.352145
413 1.32205 -6.37153 -7.88612 -0.346854 -1.21768 1.35345
650 0.592806 -6.94628 -6.33348 -0.681487 -2.47659 -1.76413
366 2.18495 -7.00417 -7.91867 -0.26144 -1.46824 2.67081
372 3.10641 -7.13259 -7.1428 0.369134 0.478364 -0.580004
370 3.97717 -7.01595 -7.91554 0.194623 -0.62179 -2.28356
376 4.6993 -7.10196 -7.11439 2.68173 -0.0747835 2.47667
658 3.86392 -7.21033 -6.28048 -1.21013 0.595629 0.144931
375 5.5376 -7.84459 -7.11865 1.20621 -1.37296 0.146433
380 6.54964 -7.33053 -7.09445 -0.77753 0.361297 1.45905
665 6.5028 -8.03815 -6.36377 -0.218143 0.941403 -0.399969
423 5.53557 -6.2418 -7.24706 -0.534038 2.42433 0.254136
384 8.01816 -7.09501 -7.27045 -1.0415 -0.51001 -1.9097
666 7.44017 -7.23918 -6.36178 -0.987881 1.79456 0.257705
427 7.20533 -6.56748 -7.07886 -2.46159 -1.01361 -1.46733
717 7.86105 -6.22924 -6.41606 0.663011 0.34547 1.4799
337 9.42612 -7.97762 -7.96086 -1.01136 -0.860097 -2.12157
382 8.70836 -7.0656 -8.12571 1.78709 0.780269 1.23936
383 8.68416 -7.753 -7.28417 -1.00118 0.235079 0.782831
670 8.76747 -7.13694 -6.42587 -1.85168 -0.81509 -1.20275
431 8.75399 -6.36794 -7.06628 0.676379 -0.834123 0.254155
386 -8.70092 -5.39324 -7.99241 0.177767 -1.05786 0.812267
387 -8.78767 -6.11651 -7.2861 -0.618768 -0.730401 -0.988773
435 -8.68877 -4.68379 -7.14962 0.182412 0.161496 -1.84245
673 -9.44746 -6.41662 -6.49709 -0.557576 -0.882588 -0.321402
674 -8.724 -5.54645 -6.35706 0.795403 -1.5065 1.17317
391 -7.05737 -6.36552 -7.07242 -0.454293 0.306048 -1.18478
392 -7.9707 -5.4649 -7.12141 1.14997 -0.672642 -2.16136
678 -6.87618 -5.58242 -6.3909 3.42271 -0.612987 0.229301
677 -7.89302 -6.37727 -6.24554 1.5688 -0.199484 -0.662647
681 -6.10561 -6.4191 -6.32233 -1.22471 -2.12107 -0.974479
396 -6.26077 -5.46268 -7.2456 1.12815 -0.52436 -1.28208
682 -5.45482 -5.59607 -6.36318 -0.315555 -1.44876 -1.09381
399 -3.93589 -6.29625 -7.0497 -2.40518 -0.926543 1.13093
400 -4.84563 -5.5966 -7.14422 1.37171 0.312756 0.303099
686 -4.07732 -5.41452 -6.28301 1.97127 -0.366308 -0.0712652
733 -4.77506 -4.70299 -6.31106 -0.519705 1.30547 -1.23821
403 -2.52256 -6.36019 -7.11055 1.18348 0.457703 -1.38929
404 -3.23064 -5.59724 -7.13273 -0.669669 0.444597 0.22371
451 -2.29059 -4.76048 -7.0216 1.57342 -0.751794 1.81543
689 -3.35003 -6.14059 -6.09929 1.71257 -0.0717978 -1.30076
737 -3.29602 -4.77021 -6.48946 0.891849 -0.623091 -0.642026
690 -2.51796 -5.56092 -6.32249 0.0842966 2.94192 2.44508
408 -1.80296 -5.672 -7.05434 2.36269 0.648761 1.24004
455 -0.900168 -4.77304 -7.03591 1.98122 0.916392 -1.53103
741 -1.6556 -4.8804 -6.17815 0.661563 -0.106867 0.136356
694 -0.858974 -5.57174 -6.16558 -0.255648 1.89324 0.996731
412 -0.257175 -5.48992 -7.05938 -1.19462 0.853094 -0.847817
457 -0.312174 -4.7466 -8.02221 -2.28568 -0.294224 0.321428
411 0.579072 -6.17402 -7.13991 0.374163 1.0477 0.725355
701 1.41344 -6.13771 -6.45219 0.00181389 1.26037 -0.44392
416 1.32912 -5.52996 -7.25776 1.88112 -1.04108 -1.07463
698 0.556899 -5.39924 -6.33223 -0.199623 -0.844672 0.700832
417 3.12175 -6.4449 -7.75062 0.244254 1.12504 1.60305
415 2.21758 -6.36026 -7.23839 -1.33599 -0.289972 -1.74608
420 3.19685 -5.47428 -7.35948 -1.76739 2.74897 1.01141
705 3.13493 -6.29144 -6.43141 -0.316967 -0.935536 -1.32345
702 2.34604 -5.54622 -6.22769 -0.38715 -0.541268 1.10774
419 3.92341 -6.46081 -7.00652 0.867012 0.769711 -0.75605
418 4.02154 -5.47318 -7.8172 -0.244572 -1.35398 1.25246
424 4.82149 -5.28403 -7.09651 1.11869 0.706328 -0.960353
467 3.86047 -4.62963 -7.1903 -0.864128 0.469779 -1.56661
709 4.80621 -6.28497 -6.50207 0.297357 0.0748315 -0.19545
706 3.94577 -5.4352 -6.58695 2.1158 1.32334 -0.65788
428 6.33941 -5.3051 -7.29798 -1.68128 -0.786951 -1.51335
710 5.50047 -5.50514 -6.28531 1.41257 -1.41282 -0.490716
713 6.30017 -6.28852 -6.50783 -0.402388 -0.252506 1.25038
432 7.86733 -5.19466 -7.00229 0.249235 2.10147 -0.228127
714 7.05754 -5.45046 -6.22427 -0.812504 1.75568 -0.165113
388 9.42359 -5.55215 -7.04057 0.653905 -0.612638 -0.107597
718 8.68382 -5.42971 -6.50376 -1.56481 -0.40773 0.700065
479 8.60983 -4.51745 -7.17 0.236437 1.06774 1.7552
434 -8.8213 -3.8268 -7.74122 -1.25107 0.170289 0.941929
481 9.38912 -3.1193 -7.7294 -1.47397 2.21698 0.705275
483 -8.71922 -2.91282 -7.21371 1.23488 -2.06038 -0.258556
722 -8.90798 -3.83712 -6.41403 1.57207 0.79661 -0.447035
437 -7.89609 -4.7118 -7.97638 0.718313 0.0170727 0.39798
439 -7.15802 -4.89089 -7.06388 -0.168049 0.533711 -1.97204
440 -7.94529 -4.04351 -7.2479 -0.0541687 -0.11018 0.630276
485 -7.84883 -3.29536 -7.88192 0.0863644 2.34825 -0.909129
487 -7.19862 -3.30717 -6.87125 -0.666259 1.98686 -0.68433
773 -8.01954 -3.24206 -6.29721 -1.53807 -0.338338 -0.0759883
443 -5.60429 -4.64226 -6.96995 -0.446268 -1.00497 1.10525
729 -6.36531 -4.71385 -6.23648 1.19552 -1.51771 0.406443
444 -6.31879 -4.07282 -7.11109 -1.1941 0.254302 0.562548
730 -5.52739 -3.84926 -6.32713 -1.23769 1.13612 0.480181
447 -4.14029 -4.80509 -7.05324 -1.56894 -1.50178 1.71098
493 -4.82585 -3.1775 -7.74709 -0.0614164 0.0625821 -0.247101
448 -4.78848 -3.86275 -7.01167 1.33153 -0.452283 -0.646065
734 -4.04069 -4.02096 -6.34623 -0.0476621 -1.10745 0.441562
497 -3.18875 -3.26536 -7.69342 1.23014 1.61266 -0.579181
452 -3.01122 -4.00291 -6.99007 -1.05395 -0.149118 -1.21934
499 -2.32403 -2.57316 -7.38216 2.30985 -1.17745 2.08096
456 -2.00832 -3.68649 -7.16149 -0.562188 0.834568 -1.87489
742 -1.0853 -3.91906 -6.51721 -1.90628 0.953316 0.00678557
738 -2.43445 -4.10073 -6.14311 0.870129 0.529271 -1.87253
454 -0.907685 -3.91341 -8.00552 1.66842 -1.60011 2.2152
460 -0.0871346 -3.93016 -7.15407 0.957744 0.324143 0.975264
745 -0.144334 -4.60422 -6.20246 -0.263983 -0.0886625 -0.49626
459 0.779878 -4.51103 -7.20684 -0.626818 -1.90532 -0.460642
464 1.6556 -3.94932 -7.22875 -0.543416 -0.169723 -0.0154957
463 2.20824 -4.80168 -7.09019 0.783702 1.88274 -0.0910543
465 3.08088 -4.59487 -7.90922 -1.77357 0.851305 -0.710582
468 3.08588 -3.91088 -7.175 -0.811397 -0.838062 1.24538
466 4.02493 -3.79506 -7.80726 -0.628646 0.176027 2.26229
469 4.72955 -4.67755 -7.89432 1.12446 1.12693 -0.334668
472 4.67709 -4.08339 -6.87061 0.896595 -1.03598 0.290126
754 3.81555 -4.01048 -6.35894 -0.905914 -2.47132 1.24917
471 5.64548 -4.5963 -7.24069 0.75823 -0.766161 1.81925
476 6.41465 -3.81245 -7.13164 0.930949 -1.80541 -0.333685
758 5.33609 -3.84925 -5.98723 0.246136 -0.875056 1.71226
809 6.17312 -3.24659 -6.19688 -0.779651 2.26151 1.23152
474 7.08873 -3.92496 -7.98482 0.730522 -2.71053 -0.381011
475 7.08339 -4.55709 -7.24364 0.856631 -0.31512 -0.359284
480 7.77225 -3.81688 -7.05943 0.455095 0.962719 0.117264
762 7.00562 -3.90022 -6.12195 -0.145899 -0.898415 -2.00741
436 9.43944 -3.97466 -7.10394 -0.90537 0.213135 0.538394
527 8.5697 -3.27757 -7.16129 0.478918 -0.794604 -1.96761
766 8.8406 -4.04678 -6.26977 -2.13981 -2.0136 0.256323
482 -8.63772 -2.26263 -7.89772 -0.571791 -0.271491 -2.03619
531 -8.74655 -1.73902 -7.14364 0.531858 2.04669 0.368275
770 -8.71961 -2.52092 -6.28009 -1.52848 -1.04507 -0.509296
821 -8.0542 -1.6429 -6.26283 0.119677 0.782559 0.0450369
486 -6.95024 -2.61892 -7.67049 0.75266 2.15528 -1.77488
488 -7.98116 -2.29326 -6.96864 0.406044 -0.232544 -1.05612
535 -7.18178 -1.58257 -7.03936 -0.707714 0.448371 0.806946
774 -7.08181 -2.40392 -6.38302 0.917582 -0.109076 0.452577
491 -5.4951 -3.06404 -7.06413 -0.29455 1.8794 2.48939
492 -6.25994 -2.34774 -7.0729 -0.0190727 0.0891937 -1.92147
539 -5.4584 -1.61733 -7.13212 2.26565 -2.09643 2.13705
825 -6.36072 -1.4556 -6.35512 -1.69754 1.17372 0.165323
777 -6.22787 -3.208 -6.39166 0.1649 0.3035 -0.609085
778 -5.54107 -2.29337 -6.43283 0.678723 2.50753 1.2098
495 -4.00027 -3.30358 -7.03345 0.669409 1.43039 0.959384
494 -4.1545 -2.33235 -8.01855 -0.840169 1.12947 -0.645983
496 -4.71955 -2.33709 -7.04275 1.03994 -1.01699 -0.688082
543 -4.15386 -1.56493 -7.22495 0.774325 -1.38009 0.665976
829 -4.69763 -1.59693 -6.18058 -1.87852 1.49135 0.331811
498 -2.43881 -2.3188 -8.34725 -0.461981 -0.0797255 0.433179
500 -3.48066 -2.40909 -7.14962 -0.103141 -1.59403 0.657876
545 -3.26447 -1.7455 -7.95439 1.38035 0.308055 0.456632
547 -2.48541 -1.59963 -7.14533 -1.7554 2.00203 2.55907
504 -1.36067 -1.95245 -7.08011 -1.65952 -1.84329 -1.40969
790 -0.885616 -2.29559 -6.26147 2.52539 -0.918764 -0.986654
503 -0.980996 -3.06848 -7.25106 3.2362 -1.55829 -1.82694
505 -0.30417 -3.10993 -8.08583 -1.89687 0.406808 -0.82901
508 -0.0510314 -2.63529 -7.24594 0.363342 0.650549 0.4308
507 0.793231 -3.26011 -7.12928 0.0237546 -0.0649095 2.83654
794 0.602009 -2.46209 -6.47697 2.07226 2.29292 0.592415
506 0.784791 -2.39816 -7.76555 -0.499275 -0.607371 0.571472
512 1.52308 -2.31506 -7.08377 0.677899 -0.737713 2.64373
510 2.51073 -2.22747 -7.87736 -0.228558 -1.47071 1.01854
511 2.39996 -3.08393 -7.13538 0.557823 0.844911 -0.14422
559 2.26797 -1.55486 -7.1059 -0.202385 -0.211137 -2.20479
516 3.0914 -2.29426 -7.03879 -0.0176442 -0.486933 -1.87398
517 4.82049 -3.27724 -7.5841 2.07002 -2.25791 -0.991227
514 3.95614 -2.43114 -7.91497 -0.526726 1.36999 0.630761
515 3.78801 -3.15332 -7.05712 -0.0355705 0.531887 0.673629
520 4.85917 -2.16502 -7.11216 -0.186091 -0.199661 0.626159
563 3.825 -1.65939 -7.17934 1.8348 -0.704891 0.136813
802 4.01042 -2.41549 -6.26359 0.625531 2.15751 -0.995488
565 4.86824 -1.57877 -7.9396 0.37613 -1.18198 1.36695
853 4.61176 -1.54286 -6.41892 0.727708 -0.952579 -0.268258
519 5.74517 -3.1434 -7.27494 -0.358671 0.872937 -0.261416
524 6.3195 -2.24566 -7.18606 0.105051 1.17642 1.54854
857 6.33094 -1.34935 -6.27129 1.18107 0.588918 1.4407
806 5.52068 -1.98818 -6.34738 0.435779 -1.3145 0.680189
523 7.03921 -3.06872 -7.08366 -0.544495 -0.989162 -0.814539
813 7.70304 -3.18545 -6.2633 -0.203962 -0.818416 -0.100713
810 7.00952 -2.17003 -6.29125 -0.19898 0.436945 -1.50143
528 7.74092 -2.28714 -7.16547 0.875417 0.196824 1.303