ITEM: TIMESTEP
127000
ITEM: NUMBER OF ATOMS
6912
ITEM: BOX BOUNDS pp pp pp
-9.5244063118091962e+00 9.5244063118091962e+00
-9.5244063118091962e+00 9.5244063118091962e+00
-9.5244063118091962e+00 9.5244063118091962e+00
ITEM: ATOMS id x y z vx vy vz
5215 2.45723 -0.101514 -0.559483 -1.31708 -1.57276 1.89631
60 -8.13189 -7.65153 -8.17154 0.19194 0.296425 -0.659141
57 -8.49399 -8.87189 -9.00332 0.302149 1.37524 1.18322
101 -9.30006 -8.29265 -8.67598 -0.3308 -0.387396 -1.45195
103 -9.32467 -9.37836 -8.64766 2.21777 -2.17804 0.341317
298 -7.68819 -8.54544 -8.47802 -0.0492526 -0.677879 -1.75445
633 -7.33708 -7.85943 -8.99726 0.462397 -1.43363 -3.17622
11 -6.81069 -8.97845 -8.22467 0.300346 0.474311 0.286415
3172 -7.48542 -9.25836 -9.18248 -0.496481 -0.512341 -2.21841
346 -6.05416 -8.57919 -8.66809 0.690866 0.619415 0.0408368
1199 8.23791 -9.51452 -4.09028 -0.472647 -0.185812 -0.590327
58 -4.73397 -8.64163 -8.66054 -0.424045 -1.0519 1.64476
3436 -0.145153 -0.560847 -9.40434 -0.352797 0.39684 -0.318034
14 -4.11926 -7.98575 -9.14932 1.14788 0.221506 -0.0477039
13 -5.44061 -9.0026 -9.45272 0.720083 -2.00844 1.81881
301 -3.67504 -8.9826 -8.8733 0.164235 1.85734 0.510527
308 -3.17317 -8.18965 -8.23464 -0.151347 0.279005 -0.0586917
1675 6.6335 -3.07648 -0.155037 1.10808 -2.51583 -0.0537442
15 -2.42816 -9.11927 -7.70286 -0.342095 0.442798 -0.924089
689 -1.79988 -8.17925 -8.74134 0.544377 -1.17101 -0.0606097
357 -1.04375 -8.87181 -8.50599 -2.68039 -0.613891 1.06475
597 -1.47927 -9.03253 -7.59163 -0.429922 0.733626 1.93319
1442 -9.06616 -9.44293 -0.691767 -1.70866 1.94052 -0.0604455
3495 7.3036 -1.53668 -9.1952 0.774311 -1.64353 -1.30236
28 -0.0941768 -8.84215 -8.28954 -0.0728773 -1.07913 -1.01632
317 0.737523 -8.99588 -8.68304 -2.00646 1.42891 1.63415
26 -0.177783 -8.83049 -9.41023 -0.51307 0.10453 0.342239
318 2.0795 -9.08937 -9.09604 -0.658908 1.91112 -0.0912035
361 1.79954 -8.6164 -8.22455 1.67528 0.114012 1.38154
191 -9.14228 -4.31322 -9.50008 1.1967 0.895642 0.680703
367 2.33073 -8.07359 -8.85199 -0.634463 -0.408963 0.036704
36 2.9937 -8.8069 -8.86142 -0.324182 0.768124 0.317154
319 3.19435 -8.30797 -8.06326 0.474525 -1.28033 -1.82836
370 3.33187 -7.75778 -8.89211 -0.455982 1.06638 -0.165247
369 2.70702 -9.42162 -8.18171 -2.50456 0.477369 -0.0680058
321 4.03397 -8.69633 -8.37067 0.419594 -0.86654 -0.28622
326 4.87068 -7.85084 -8.861 1.44072 -2.13414 -0.170009
37 4.72313 -8.88947 -9.01803 -1.57277 -0.697674 2.71096
613 5.3832 -8.55366 -8.10134 -0.179402 -1.94526 -0.720233
34 5.76705 -8.99194 -9.20677 0.157537 -0.84815 -0.958223
3259 5.97888 -7.97376 -8.71265 -0.710367 -0.704808 1.99938
328 6.39194 -8.50583 -8.03418 0.332242 -2.32137 -0.196625
89 7.34837 -9.11436 -9.1943 1.54995 0.0156359 0.0356987
91 6.84213 -8.27313 -8.96004 0.717969 0.586065 -0.295633
141 7.3789 -9.03848 -8.06117 0.377846 -0.339494 1.28893
5108 -1.93584 -9.41238 -0.698838 0.0727678 0.454727 -0.597838
4917 -1.20562 -0.283787 -1.74151 -0.203937 0.329855 1.476
3264 8.16626 -8.17555 -8.79197 1.62445 -0.312027 0.914311
483 8.89109 -8.9088 -8.56653 0.0917306 0.411583 0.619929
152 -8.82351 -7.02958 -8.37998 0.898149 -1.79288 0.227194
484 -9.20988 -7.22419 -9.28354 1.7004 1.55467 -0.599046
3363 -8.52489 -6.57794 -9.3695 -0.126066 -1.23086 -2.15306
634 -7.04661 -7.13239 -8.18636 0.356981 1.23809 0.0525499
630 -6.55816 -6.23958 -8.14351 0.0402853 0.547223 -2.03443
3271 -7.7356 -6.96193 -8.79601 0.580354 0.0479061 -1.32062
631 -5.00254 -6.53856 -8.49565 0.304517 0.339249 -0.456533
396 -6.11928 -7.41095 -8.52913 0.0388269 -1.5209 -1.07981
61 -5.12529 -7.49846 -8.94065 -0.197508 0.256238 0.22542
3232 -5.82277 -6.39113 -9.33545 1.41644 1.44193 2.80628
3225 -6.68742 -6.89716 -9.14808 0.761676 1.68208 1.0104
352 -4.05162 -8.16032 -7.7244 -0.634096 1.91516 0.0578109
350 -3.50693 -7.1503 -8.98448 -0.815172 -1.82451 -1.89387
64 -4.28463 -6.37374 -9.28812 0.961483 -2.44949 -1.46883
684 -4.3826 -7.28002 -8.36971 0.237394 2.02007 0.00535799
120 -2.57161 -6.21483 -8.84919 1.81236 0.729173 1.21837
4613 9.19772 -0.14179 -2.98825 -1.21899 -0.658061 -1.77777
1154 -6.72635 -9.49991 -2.47998 0.83236 1.66562 1.5766
24 -1.2125 -7.95027 -8.01447 -2.999 0.068509 -0.285001
406 -2.5849 -7.09108 -8.13462 1.92184 -0.799047 0.9064
165 -0.573438 -6.88268 -8.61802 0.506305 -0.755732 -0.828487
5443 -2.25142 -8.54626 -0.392372 -0.0990774 -0.0265684 0.739878
358 -0.36205 -7.81823 -8.70016 -0.142186 0.985476 -0.354925
124 0.399317 -7.09495 -8.62285 1.19716 -2.16212 -1.6984
310 0.604138 -8.04635 -8.4919 0.958466 0.0837813 -0.798511
362 1.36933 -8.31719 -9.14719 -1.65444 1.9517 0.475368
1989 -0.875822 -2.13885 -0.0417233 -0.361822 1.47251 1.37129
702 1.55184 -6.67414 -7.83625 -2.22688 0.116047 1.82103
127 1.41222 -7.08037 -8.98628 1.30797 -0.203441 1.70039
417 2.45173 -7.08711 -8.79139 -2.22985 -1.05674 0.515794
128 3.32401 -6.76506 -8.36511 0.0476307 0.532338 0.427493
323 4.113 -7.58149 -8.239 -0.403755 -2.11826 0.638654
322 4.92613 -6.82177 -8.96789 1.83039 -1.36614 -0.334891
371 5.03867 -7.57614 -7.98088 -0.740507 -1.20463 0.0753802
88 5.96608 -6.85256 -8.83288 1.10903 2.06558 0.464945
377 5.9265 -7.50536 -7.81387 -2.33375 0.603616 1.05233
376 5.32306 -6.56265 -8.04178 -0.672435 1.26235 -0.723826
87 6.29808 -6.51257 -7.79586 -0.57105 -0.833379 1.39587
429 6.84122 -7.16996 -8.39638 -1.03162 1.67395 -1.09644
3311 8.16331 -7.25219 -8.2738 -1.79634 -2.519 -0.314647
384 7.80086 -6.34241 -8.2095 -0.0141935 -0.880725 -0.409608
4977 4.26621 -0.304614 -2.86735 -0.0576744 0.240531 0.0669399
147 9.13437 -7.07694 -8.57983 -1.86495 -2.16386 -1.12565
3307 9.04009 -7.86592 -9.30004 1.37518 -1.14815 -1.45853
477 8.5658 -6.41153 -9.00528 1.19494 -0.407296 0.30576
491 -9.03338 -5.05574 -8.67888 0.086336 -0.489881 0.398703
193 -8.25807 -5.82487 -8.87013 -0.0037187 -0.471442 -0.849107
145 9.52089 -6.31905 -8.9938 -0.364408 -1.40141 -1.70518
3318 -8.12118 -6.50015 -8.04371 0.695267 -1.14769 0.783641
231 5.63835 -2.65361 -8.9848 -0.936365 0.217003 2.69748
153 -7.2421 -6.13871 -9.28189 -2.43304 -1.20951 1.05651
3368 -7.3993 -5.13685 -9.3638 -0.574708 -0.205759 -0.514648
3226 -6.43183 -5.62911 -8.97468 -2.10174 1.27744 -0.152538
342 -6.59001 -4.6709 -8.35025 -0.052102 -0.125094 0.396749
105 -5.72533 -5.32341 -7.99773 0.850162 0.561173 0.516375
107 -5.05179 -5.77917 -9.17008 -0.239409 -2.76016 0.191299
393 -4.4738 -5.48883 -8.27549 0.978821 0.265 -0.212955
397 -4.08173 -5.33145 -9.3041 -1.36748 -0.443192 -0.953251
68 -4.13649 -6.48242 -7.69124 1.4584 2.41295 1.03225
158 -3.60242 -5.99642 -8.71952 1.82233 0.623415 0.203836
168 -1.95543 -5.40476 -8.85609 -0.997456 0.656453 0.23059
459 -1.04072 -5.81868 -8.79275 -1.55795 -0.298778 1.11318
117 -1.74313 -6.45691 -9.29494 -0.263966 0.891994 0.818309
748 -1.69155 -6.65752 -8.33824 0.271691 -0.739139 2.59277
123 -0.0186936 -6.02538 -8.46492 0.0894263 -0.342401 -1.62563
410 -0.106278 -4.77213 -8.56424 -0.817129 1.23978 0.594987
1891 -3.1727 -5.14259 -0.124683 2.07559 0.0262678 -0.249518
368 1.02844 -6.14865 -8.68148 0.14745 0.919318 -0.125416
461 0.889184 -5.08963 -8.4373 -0.250439 1.86944 1.21116
79 1.97776 -5.9746 -8.57111 -0.202683 -1.47924 -1.39054
745 0.21533 -5.49001 -7.65272 0.10316 2.59501 2.55209
177 3.0396 -6.24385 -9.10983 -0.175854 -1.27006 -0.797886
705 2.53652 -6.28419 -7.76448 1.6514 -0.47876 0.0902421
181 3.5621 -5.74392 -8.30517 1.39597 -1.48822 0.28135
180 2.68718 -5.30224 -8.68801 -1.00898 -0.13223 -0.346442
80 2.74771 -5.16179 -7.70252 -0.364383 -0.0146264 0.598322
467 4.85686 -5.4028 -7.92919 0.0900212 1.08773 3.48544
183 4.55819 -4.32303 -8.36328 0.241475 -0.430241 -1.37529
130 4.17344 -5.1124 -9.00021 -0.639954 0.30358 1.26828
136 5.5732 -4.76077 -8.54037 0.665339 2.1168 0.224452
185 5.92016 -5.79931 -8.48331 -0.991495 -0.0881059 -1.51901
135 5.04536 -5.71065 -9.05459 -0.210958 1.31827 1.10918
139 7.00482 -5.73444 -7.90692 -0.745804 -1.40767 0.783534
138 7.0836 -5.17339 -9.04778 2.34919 -1.99671 1.03122
86 6.75744 -6.30659 -8.96657 -2.85054 -3.43229 1.13753
478 8.83193 -6.17039 -8.11607 -1.75441 -0.983993 0.554311
189 8.1027 -5.42827 -8.58829 0.515356 2.30614 -1.14133
481 9.39408 -4.25262 -8.58513 1.66383 0.250942 -0.804008
3071 9.11051 -5.30243 -9.03857 1.38365 1.70844 0.681167
486 -8.29515 -4.80438 -9.16971 -0.325189 -1.69072 0.0230763
442 -7.57183 -4.45159 -8.46525 -0.104885 -0.300752 -0.0519994
196 -9.08745 -3.44856 -8.89717 0.6933 -0.269965 0.328666
3453 -8.3806 -3.94429 -8.16841 1.09517 1.11321 0.725299
489 -7.71317 -3.45224 -8.82528 0.0730726 0.00311344 -0.100485
194 -7.01232 -4.14064 -7.64596 1.16788 -0.796671 -3.24567
3413 -6.81333 -3.93254 -8.91899 0.692538 0.759855 0.556824
448 -6.93335 -3.31439 -8.17304 -1.23398 -0.0793718 0.514606
390 -5.26209 -4.47397 -7.97016 -0.866627 -0.296534 2.11823
150 -5.6057 -4.97748 -8.95479 -1.23275 -0.366177 2.04763
154 -5.81313 -4.00973 -8.73197 0.0608712 1.34189 0.564656
3752 -7.04228 -0.259727 -4.25146 -0.240747 0.329468 1.46583
164 -4.43806 -3.91941 -8.27877 -1.29021 -0.658646 -0.281583
208 -4.98321 -3.18868 -9.19498 0.501845 0.903773 1.97359
685 -4.01488 -3.56455 -9.03579 -1.75132 0.987643 0.618991
449 -3.9423 -4.6866 -8.44343 -2.05116 2.7967 0.306531
4919 -0.532043 -0.45969 -0.815745 1.59407 -0.49305 -0.398171
166 -3.08331 -5.19254 -9.41548 0.988606 0.991065 -1.79692
163 -2.30764 -4.51752 -9.43397 -0.114486 -2.29953 1.93865
453 -2.83181 -5.43506 -8.31204 -2.12744 -0.681358 -0.839532
503 -2.31525 -3.53426 -8.85496 -1.43797 -0.34973 0.489338
733 -3.03852 -4.16278 -8.57305 0.423887 -1.31751 1.76498
167 -1.15154 -4.74114 -8.74644 1.06149 -1.0833 2.62929
793 -2.1874 -4.64116 -8.22423 -0.818333 -1.40484 1.08843
3750 -6.41015 -0.25489 -7.21182 -0.48244 -0.71888 -2.76899
455 -2.04817 -5.72799 -7.87959 1.45784 0.489918 -1.78116
454 -1.11938 -3.48369 -8.87578 0.713653 -1.72758 2.26077
3410 -8.30571 -0.0759468 -9.39933 -1.12301 -1.14653 -0.942872
170 -0.256252 -3.85879 -8.30365 -2.19233 0.80881 0.134121
460 -0.0401243 -3.13647 -9.08868 0.151726 1.9163 -0.496491
749 0.655549 -3.93597 -7.82543 -1.94282 -1.10472 0.61226
176 0.656371 -4.16046 -8.94416 1.15153 -1.80451 2.10211
122 1.85223 -4.5299 -9.04819 1.50641 -0.430675 -0.330844
224 1.80393 -3.80269 -8.40131 -0.23603 -0.452908 0.546745
416 1.909 -4.78188 -7.86096 0.61702 -0.629754 0.0715063
4093 -5.63763 -0.00753191 -5.10781 0.651059 0.646337 -0.405463
834 -4.00319 -0.0477076 -4.75948 -0.517552 -1.73154 2.61085
463 2.80917 -4.3585 -8.16562 -0.475459 -0.722537 -0.265915
465 3.77075 -4.82876 -7.98744 -0.285079 -0.0769416 0.165655
228 3.66926 -4.30723 -8.96539 2.28241 0.714474 -0.931414
706 4.34875 -3.33774 -7.58914 0.241957 0.0967173 1.51235
184 3.93873 -3.35737 -9.09926 -1.32971 -0.709357 -0.868682
424 6.46217 -4.37862 -8.7274 1.73266 -1.39239 0.0620427
229 4.60227 -4.24435 -9.37152 0.234686 0.749351 -1.45774
473 5.62899 -3.72476 -8.83181 0.947149 0.0900903 -0.2312
768 6.09541 -3.34506 -8.0114 -0.714631 0.596401 -0.584116
188 7.38821 -4.76943 -8.18603 -1.30509 1.90328 -1.07789
236 7.79074 -3.88582 -8.16344 2.6231 -0.650804 0.304429
234 8.77605 -4.07929 -7.90702 -0.100107 -1.59061 -1.0197
3356 7.47334 -4.06536 -9.04071 -0.845849 -1.61422 1.75659
3407 8.9041 -3.42169 -8.99308 0.599379 -1.43025 1.76369
3316 8.42594 -4.50422 -8.80181 1.97969 0.335435 2.00335
525 7.95261 -3.21713 -9.01845 -0.97669 -0.471018 0.340378
576 9.32746 -3.00849 -8.2394 -0.878698 -1.98706 -0.417929
3360 -8.40773 -2.97752 -8.13192 0.687848 -1.22086 -0.0774058
3361 -9.4584 -2.60854 -9.42353 0.251967 0.156205 0.0139251
3785 -9.13058 -1.92002 -8.65528 -0.557634 1.73747 0.212587
535 -8.12408 -1.92209 -8.42273 -0.413138 -0.150101 -1.03245
1529 6.15034 -9.40066 -1.81752 -4.24766 -0.357678 -1.82606
247 -7.2425 -2.51991 -8.76764 2.1378 -0.151233 0.1516
200 -7.10423 -1.46686 -8.28045 -0.624788 0.552903 -0.0829797
155 -6.05772 -2.91387 -8.84679 -1.3064 -1.98741 1.90426
779 -6.46291 -2.30079 -7.94034 1.87548 -1.5787 -2.62045
202 -5.22502 -2.15927 -8.44272 1.47857 -0.508977 -0.789465
539 -6.04976 -3.77695 -7.67975 -1.35447 -0.624999 -2.20804
496 -5.11804 -1.21243 -8.76749 -1.152 -1.79169 -0.33918
446 -4.56132 -2.21861 -9.40111 0.564555 -0.804634 -0.397337
541 -4.33774 -1.71736 -8.40104 -0.501445 3.05175 1.21435
497 -4.4037 -2.75881 -8.44471 -0.158709 0.536974 -0.0823853
499 -3.42234 -2.86053 -8.87193 0.636737 1.87123 -1.5898
257 -3.42103 -1.77317 -8.96002 -0.131077 -0.582381 -1.94064
4900 9.22875 -0.888634 -0.996251 1.72576 -1.63673 0.214659
263 -1.77145 -2.6744 -8.83275 1.60505 0.0503003 0.214093
216 -2.74914 -2.46538 -9.36625 0.532727 -3.5401 -0.504279
458 -0.781585 -2.68262 -8.44533 -1.75806 -0.366789 2.20444
265 0.363968 -2.05045 -9.2187 -0.291304 0.154783 0.255473
218 0.984979 -3.18037 -8.83655 0.480027 -0.440556 0.0865513
512 0.82235 -2.1276 -8.29184 0.283376 -0.224341 -0.553957
557 1.96397 -2.88141 -8.74732 -0.23744 -0.327209 -0.861553
269 1.5599 -1.80527 -8.82033 -0.0823502 0.28274 -1.89646
272 2.01751 -2.29611 -7.81382 0.3854 0.0370467 -0.105024
509 2.78743 -3.51177 -8.91652 -0.582225 0.834764 1.94573
466 3.48504 -3.62078 -8.23398 -1.21259 -0.410611 -0.339442
219 3.18289 -2.55714 -8.52606 0.803551 -2.60263 0.659274
3813 -1.33335 -0.102379 -9.27464 1.13739 -0.223046 0.071567
271 2.66251 -1.60564 -8.74143 0.531026 -0.542267 0.138193
223 4.50881 -2.1645 -8.7715 0.182144 0.0864496 0.765481
134 5.88958 -5.21409 -9.39909 -1.53275 -1.72259 -0.658078
470 4.92756 -2.96302 -8.34255 1.33069 -1.8788 1.32588
518 5.56654 -1.95901 -8.33339 0.520595 0.281418 -0.252984
3402 6.45824 -2.47346 -8.17298 1.07951 -1.27557 -2.03868
256 -5.67059 -0.465329 -9.03777 -0.0792407 -0.803154 -2.38641
482 7.02989 -3.29157 -8.44969 -1.91843 0.862662 -1.22293
230 6.53035 -3.3895 -9.47325 -2.36856 0.711615 1.4041
814 7.59269 -2.31759 -8.73454 -0.654074 2.17277 -0.338058
215 -1.05065 -2.77967 -9.51145 -1.5453 -0.425248 -0.730145
238 8.58816 -2.40239 -8.83066 -0.404425 0.256564 0.797351
575 -9.07556 -0.866144 -8.6585 -1.53569 0.880959 0.888064
251 -5.49376 -2.24485 -9.52116 -0.190688 -1.24114 -0.563118
72 -2.52849 -7.22234 -9.40336 0.102774 1.78354 -0.594693
287 -7.91326 -0.915894 -8.61149 -0.173147 -1.05313 0.560203
817 -7.52217 -0.990531 -7.47297 -1.66378 -0.972407 -1.32462
246 -7.14289 -0.915406 -9.21083 -2.03464 -0.93158 0.663019
126 1.452 -5.37297 -9.28366 0.623866 -0.774125 1.43401
3465 -6.0261 -1.55577 -8.4848 -0.735514 -2.38032 -0.593103
1703 -1.52793 -0.0345873 -0.749425 -4.74098 -1.30617 -1.05625
6636 -6.92348 -0.476473 -8.32508 -3.23808 -1.32586 -0.42485
253 -4.72418 -0.241761 -9.4838 -1.67515 0.783222 -0.610392
3757 -4.80858 -0.476428 -7.97008 0.308607 1.48025 -1.56661
402 -4.95109 -4.25147 -9.20698 -0.862652 0.057257 -1.57608
259 -4.05495 -0.921618 -9.08774 -2.2718 -2.58338 -1.46974
3200 1.03134 -9.4637 -9.46708 1.18386 0.955362 1.25671
835 -2.81166 -1.16517 -8.00484 -1.16566 -0.992055 -0.423921
3474 -3.01519 -0.791736 -8.98525 0.0367272 1.06647 -0.529449
3479 -0.63666 -1.58049 -9.26041 2.41928 0.553117 -1.76328
3767 -1.22826 -1.90442 -8.27543 -1.82842 -0.437193 -0.565256
258 -2.00496 -0.582936 -8.80381 -1.2672 3.18183 1.17598
3762 -1.0685 -0.835873 -8.66637 1.3848 0.364102 1.44258
266 0.72359 -1.14336 -9.19159 0.386736 -0.00195149 -0.499781
217 -0.0713874 -1.10375 -8.57669 1.78036 0.0190102 0.949452
268 0.530119 -0.149929 -8.03814 0.215745 0.223775 -0.287511
267 0.911634 -1.06633 -8.21558 1.02135 -0.247938 -0.274452
3487 1.64718 -0.606054 -8.96783 0.184268 -0.976207 -0.0600674
554 1.95343 -1.11376 -8.1404 0.278452 -0.383928 1.01069
1657 1.25318 -4.04122 -0.278158 -0.46284 0.192639 0.317034
564 2.88563 -0.384517 -6.17081 -1.31851 -0.337392 1.04176
558 2.92738 -0.485598 -8.47435 0.472081 -0.240728 -1.56914
232 4.79361 -1.24064 -8.78414 -0.144537 0.225444 -1.80518
275 3.64709 -1.30074 -8.95789 -0.229603 -0.408702 -0.983307
3491 4.03668 -0.402112 -8.73585 -0.191824 -0.853386 -0.0154243
245 -7.6628 -1.78174 -9.29785 1.52339 3.30833 -0.93049
283 6.03201 -1.47504 -9.13225 -0.417867 0.0675382 -2.25433
565 5.61275 -0.665653 -9.33539 0.454401 0.0583532 -0.0716545
809 6.23352 -0.96478 -8.20247 1.95105 -0.741384 -0.627223
3451 7.67801 -0.645721 -8.86128 2.2575 -0.634023 0.524989
281 7.01101 -1.54348 -8.15342 -1.59422 1.07321 1.15204
3497 6.651 -0.751959 -9.14033 0.9033 0.226423 1.98523
3498 9.15195 -1.60281 -8.16783 -0.290186 -0.733936 -0.675512
3499 8.46707 -1.39888 -8.7854 -0.474028 1.13665 1.4856
3409 9.29024 -1.54378 -9.34148 1.04699 -0.115551 0.832672
381 7.16384 -9.47953 -6.43183 -0.685638 -0.481168 0.662354
6669 8.86037 -0.496706 -8.89572 -0.32888 -0.40647 -1.94904
291 -8.66305 -8.65721 -7.9483 0.724334 1.71353 1.63149
910 9.47502 -9.32468 -6.67126 -0.397844 -0.219539 2.17997
343 -8.54682 -8.8389 -7.03909 -0.85712 0.8996 3.06889
51 -9.38892 -8.23 -7.08231 -0.0119477 -0.00865772 -0.438548
12 -6.72527 -7.93825 -7.7554 1.96314 -1.09737 2.6627
1111 -6.34926 -0.245917 -3.23476 -0.588663 0.2664 0.315573
295 -7.84219 -8.29857 -7.45496 0.84342 0.191789 1.31617
921 -6.5125 -8.91555 -7.2547 -1.20165 0.782608 -1.95273
347 -5.6049 -9.13543 -7.91405 -0.0624972 -0.734006 -1.31675
878 -5.68861 -8.78252 -6.30815 0.595964 1.28677 1.53741
345 -6.04321 -7.97431 -6.78632 1.07464 3.68507 1.25223
349 -3.47794 -9.18337 -7.95135 -0.0180977 -1.15998 0.141821
593 -4.57427 -9.18509 -7.55307 0.306607 0.416249 -1.39846
241 -8.25572 -2.70639 -9.25205 -0.442629 1.56986 0.527872
870 -5.15538 -7.99643 -8.01251 0.625064 1.78734 -0.363151
635 -5.04675 -8.49999 -7.06151 0.0959299 -0.261071 1.74529
447 -4.02665 -8.7434 -6.63475 2.35848 -1.64304 -0.540616
47 8.03867 -9.44039 -7.10927 -0.177697 0.509366 -0.322524
643 -3.05856 -8.54827 -7.23488 0.907609 1.67881 0.776853
4290 -1.27591 -9.01868 -6.38357 0.506254 -1.0441 0.721663
355 -2.21696 -9.2407 -6.679 -1.30608 0.292795 -0.774062
646 -0.568796 -8.34321 -7.46714 0.968529 -0.587306 -0.0245817
698 0.534797 -8.57007 -7.46784 0.765911 0.670696 -0.145101
320 0.516427 -9.25557 -6.74145 0.13917 -0.859308 -0.437683
1728 8.26686 -1.11217 -0.450669 0.114864 -2.30755 -0.0324874
1660 1.3721 -3.02155 -0.0174135 -0.5631 -1.3761 -0.174533
4635 1.74636 -0.139478 -2.42692 1.26155 -1.3166 -1.8309
415 1.44261 -9.09568 -7.08589 0.604383 -1.8174 1.67524
359 1.48428 -8.10047 -7.22944 -0.363316 -0.55243 -1.09251
659 2.50213 -7.9224 -6.92366 -1.8658 -0.205051 -0.674074
4308 3.94003 -8.79116 -6.17142 -0.565485 -1.62116 0.553859
657 2.50449 -8.78195 -7.40508 0.369559 -1.81209 -0.957694
609 3.53809 -9.29656 -7.38629 -1.69282 0.527478 0.315162
366 3.71022 -8.42697 -7.04674 0.822767 -1.19546 -1.76087
4018 4.53341 -9.15495 -6.97953 0.496001 2.1748 -0.102728
658 4.58796 -8.35867 -7.59331 -0.789867 0.182609 0.83623
902 4.48625 -7.97077 -6.51437 0.915077 2.11732 -1.0696
1186 5.60393 -8.35583 -7.17448 0.43685 0.0818962 -2.16024
665 6.39957 -8.54612 -6.53225 0.405637 -0.449219 -0.311189
327 7.21215 -8.02364 -7.94863 -1.56924 -2.23902 1.41672
617 6.50491 -9.1295 -7.33898 0.418144 -1.37971 0.464131
42 7.35254 -8.54156 -7.07402 2.06035 -2.42444 0.441316
49 9.00407 -9.06394 -7.56508 1.28021 -0.289489 1.7536
95 8.17569 -8.57372 -7.86255 0.562518 -0.732681 -1.90839
296 8.5041 -8.39201 -6.825 0.363774 -0.117463 -1.52329
1687 -6.50235 -0.747068 -2.20197 2.74715 -4.39194 0.694423
382 9.47007 -6.90518 -7.5878 -2.04193 1.00667 0.925169
56 -8.75144 -7.53951 -7.468 0.573158 -1.50545 -0.227878
727 9.16539 -5.86561 -7.2402 -0.819685 0.0384429 -0.726426
300 -9.08726 -7.16346 -6.57885 0.468119 -0.670395 -3.52264
488 -8.51262 -6.32804 -7.20464 -1.09006 -1.04814 -0.667598
869 -7.96403 -7.64151 -6.50759 0.163378 -0.889694 1.55838
590 -7.63657 -7.29229 -7.38904 -1.21058 0.752964 1.29376
582 -7.37686 -6.20652 -7.39125 -0.480562 0.277076 -1.96534
1013 -7.90061 -6.69998 -6.5189 0.79233 -0.321937 1.62682
731 -6.99379 -6.17108 -6.42742 -1.39545 -1.00097 0.676794
356 -5.60854 -7.09004 -7.68761 1.73628 -0.121692 0.960543
683 -6.59097 -6.92251 -7.2251 1.10958 2.26573 0.207352
637 -5.41049 -7.34247 -6.65626 0.317954 0.0771048 -0.453552
682 -5.28195 -6.03486 -7.62881 -0.116647 -0.363252 -0.639566
600 -4.61277 -7.29865 -7.40587 -2.19857 -0.699511 -0.571826
640 -4.9359 -6.49508 -6.64034 3.58208 0.414335 0.617185
360 -3.48407 -7.26219 -7.68598 0.672908 -0.712505 0.289502
693 -2.29893 -7.36748 -7.17582 1.62429 -1.35849 0.606139
399 -3.37779 -7.79436 -6.77516 -0.729606 -0.952388 -1.37835
932 -2.26252 -6.41951 -7.29344 0.0307622 -0.781287 -0.0180897
403 -2.24648 -8.22549 -7.91112 -1.16417 -2.79275 -0.646514
687 -3.81422 -6.77259 -6.64133 0.82529 -0.169755 -0.574778
309 -1.77722 -8.10041 -6.95369 -0.251497 -0.0563702 -1.29015
741 -1.43848 -7.04609 -7.28013 -0.472805 0.501693 1.82319
405 -1.01731 -6.42904 -6.37417 -0.879755 1.71844 2.58241
649 -0.337913 -7.26483 -6.54873 -0.599582 0.554724 2.83885
642 -0.203528 -7.49402 -7.57879 1.30726 0.621157 -0.139366
363 0.653846 -7.24505 -6.7846 -1.73192 0.703404 0.765752
647 0.794374 -8.25175 -6.41351 2.11187 0.669903 -1.22313
411 1.46097 -7.63606 -8.18042 -2.2173 1.42598 -1.60946
945 2.41985 -6.92849 -6.95003 -1.56892 -1.0017 -0.302494
655 1.38449 -6.35073 -6.9334 -0.847163 1.42818 -0.0417765
697 1.69953 -7.46197 -6.50024 -0.118322 -1.9263 -1.58212
413 2.40906 -7.57909 -7.90816 0.173078 -0.556119 -0.669756
372 3.337 -7.46969 -7.40576 -1.21234 0.959778 -0.869063
1041 3.00583 -6.13139 -6.53946 1.90603 0.305735 -1.35262
610 4.27004 -7.37107 -7.27285 -0.615487 0.689549 0.1999
661 4.3494 -6.64734 -8.13518 -2.15355 0.448015 -1.23436
375 4.79663 -6.54136 -7.02379 0.999027 0.0546607 0.942043
614 5.30858 -7.43139 -6.87851 -1.25825 1.56866 -0.145625
666 6.60785 -7.58134 -6.99641 0.25284 1.58093 1.97497
378 5.84577 -6.42301 -6.89467 0.367483 0.369088 0.169567
90 7.20604 -6.73987 -7.48119 1.77389 1.61833 -1.46344
142 8.01512 -7.63492 -7.35907 -0.319249 0.603463 -0.0702843
96 7.07725 -7.64493 -6.12024 -0.903577 0.837398 0.551304
723 7.6315 -6.97425 -6.5949 1.21709 0.921684 1.44862
431 6.77297 -6.53144 -6.2619 -1.69117 1.21635 2.24886
433 9.01977 -7.96417 -7.86312 0.0945125 1.3355 0.754801
529 8.36835 -6.75665 -7.39911 0.537601 -2.01241 3.29006
338 8.85494 -7.39784 -6.64267 1.62382 -0.0569441 -0.109643
722 -9.17754 -5.96663 -8.06566 -0.255243 -1.11531 0.845988
775 -8.36474 -5.32926 -8.02719 0.684691 0.866157 1.69454
435 -8.90211 -5.004 -6.43224 0.155636 0.101688 -1.69795
443 -7.34655 -5.50046 -8.46198 0.362022 0.837407 -1.5366
729 -7.13856 -5.03427 -7.06215 1.7385 -0.931829 -0.576089
440 -7.96534 -5.36328 -6.74217 2.11738 0.105411 0.38321
395 -6.44919 -5.74225 -7.3217 0.927146 0.887756 0.535824
160 -6.32134 -5.28467 -6.25208 -0.556071 0.879345 1.4174
445 -5.38769 -5.13549 -6.95648 -0.749668 1.26068 -0.32337
1350 -5.21523 -5.64768 -6.14532 1.10754 -0.973279 -0.104754
394 -4.47988 -4.67388 -7.26403 -1.0105 -1.05627 0.933536
408 -4.52972 -5.71763 -7.22994 0.550377 1.87398 -0.236196
1019 -4.58811 -4.77171 -6.15003 -1.33214 -1.22767 -0.0600559
76 -3.15171 -6.2896 -7.77599 0.65321 1.24941 0.269997
690 -3.61598 -5.36905 -7.69826 0.421529 2.07381 2.28799
738 -3.75585 -4.96308 -6.70792 -0.64174 -0.616545 1.19321
691 -2.63448 -5.0929 -7.23202 -1.18653 -0.827949 -2.22532
735 -3.14643 -5.89991 -6.70007 -1.16768 0.775131 -1.23076
412 -2.14998 -6.02845 -6.2177 -0.840573 -1.17104 3.23068
700 -1.89976 -4.61885 -6.14249 0.640088 0.535439 0.822442
364 -1.34128 -5.95199 -7.16831 -0.288973 -0.553777 -0.367524
407 -1.37199 -5.4204 -6.27929 -1.42735 0.536401 0.729338
457 -0.84526 -5.39293 -7.86387 -0.214207 -0.476661 2.12091
119 -0.558115 -6.45624 -7.6233 -0.905584 1.80521 -0.854201
694 -0.584192 -5.27883 -6.81266 -0.310362 0.371254 -0.89348
987 0.11313 -6.1098 -6.85726 -0.390314 -0.746126 0.279382
695 0.53904 -6.66294 -7.74454 0.513685 -0.23384 0.629122
990 1.95353 -6.47648 -6.1558 0.120304 -0.291786 0.669885
654 1.22035 -5.76891 -7.81533 1.82866 0.52815 0.0150575
704 0.878257 -5.68347 -6.33114 0.961937 -1.69329 -1.18569
420 3.44333 -6.16103 -7.37704 0.502862 -0.428834 -0.935714
753 2.06859 -5.57751 -7.03399 -1.31385 -0.47505 -2.81895
761 3.32889 -5.12546 -6.83197 0.118468 -0.481248 1.19501
132 4.1641 -5.45049 -7.11055 0.259698 1.33052 -0.399509
660 4.19354 -5.92314 -6.19147 0.389192 1.5956 0.865434
474 5.35499 -4.74506 -7.34471 0.508282 1.3887 1.2338
662 5.06868 -5.62008 -6.65414 1.53101 0.690618 -0.249305
92 6.34087 -5.01031 -7.79537 -1.0854 -0.28972 -0.604815
419 5.65258 -5.74555 -7.49934 0.747231 1.14522 0.625542
714 6.40209 -4.62869 -6.80157 0.216578 0.358269 0.192145
383 6.71194 -5.73395 -6.95292 0.764694 1.28806 -0.0223356
427 7.35651 -5.00502 -7.08618 -1.86998 2.30952 2.85188
480 7.59695 -5.90722 -6.38596 0.17392 1.25114 -1.16295
523 7.34832 -4.76205 -6.11466 -0.806015 -1.66438 1.15123
192 9.1791 -5.15577 -8.0345 -1.60042 0.606237 -2.01034
143 8.07241 -5.79131 -7.29692 0.509859 -1.44885 0.032222
1010 9.2033 -4.8694 -7.03704 1.43309 0.687257 -1.14547
1250 8.5546 -6.40569 -6.33664 0.0140104 -1.3805 2.37333
391 9.16573 -5.63184 -6.28856 0.204371 -1.0284 -0.471166
156 -8.61267 -3.9613 -6.98864 -0.921735 0.411944 1.24458
151 -7.78952 -3.41045 -7.44906 0.265772 1.65941 -0.719341
777 -6.8482 -3.32617 -7.14081 -0.804074 -0.613917 1.1009
531 -7.9916 -4.57841 -7.53438 2.34632 -0.577278 1.50163
392 -7.47017 -4.20448 -6.68532 0.159753 -0.337116 -0.429559
825 -6.33042 -4.15142 -6.59427 -0.387235 -0.477241 -0.893245
3320 -6.20113 -4.705 -7.42296 -1.45292 -2.66212 0.720683
441 -5.34631 -3.7751 -6.86917 0.658913 2.59223 0.563355
452 -5.23785 -3.16728 -7.97934 -0.0488284 -0.465151 1.39533
500 -4.48634 -3.50917 -7.34931 -0.528172 2.45619 -0.859913
404 -3.59874 -4.08142 -7.43489 0.719488 0.738636 0.654878
451 -4.05378 -3.84349 -6.48606 0.714198 -2.15491 -0.699962
781 -3.43311 -2.91886 -7.21891 2.48795 1.00844 1.07523
922 -2.94229 -4.30088 -6.58574 -1.45287 0.267314 -0.102931
789 -3.62458 -3.46479 -8.11181 0.997495 -0.391176 0.284746
744 -2.35712 -2.98069 -6.97039 2.33623 0.768941 -0.412856
791 -2.49304 -3.96366 -7.57658 1.15647 -0.302255 0.143936
790 -1.26661 -4.31221 -7.77675 -0.0672157 0.230123 0.477609
505 -0.520246 -3.46694 -6.61179 0.876218 -1.27538 0.416115
988 -1.82717 -3.85517 -6.92205 -1.21246 0.285883 -0.506739
1040 -1.597 -5.04298 -7.17836 -0.0884612 0.0545172 -1.11112
172 -0.226803 -4.39017 -7.2066 -1.29732 -0.142234 -0.138287
1033 0.516382 -3.74218 -6.93417 -0.730153 0.252046 2.52797
796 0.0353156 -4.45467 -6.26192 0.937704 -1.02615 -0.0969309
746 0.192641 -2.94102 -8.20205 -1.24698 0.208626 0.357004
462 1.53493 -3.98314 -7.26636 0.93355 -0.313909 -1.04804
464 0.769771 -4.8354 -6.99755 1.17602 -1.09081 2.02091
751 1.70581 -4.743 -6.55087 -1.12477 -0.550272 -0.62624
750 2.59467 -4.45094 -6.89572 -1.13368 -1.87685 2.22861
758 3.43688 -4.17192 -6.32527 -0.0789545 0.949225 0.884748
807 3.37286 -3.98844 -7.39519 2.59721 2.08693 1.93845
468 2.49802 -3.37229 -7.76877 1.59843 0.286206 -0.105679
469 4.32914 -4.43618 -7.12164 0.656122 2.90347 -0.0623986
1050 3.84793 -3.47802 -6.80642 0.214181 1.16494 0.429391
1054 5.16619 -4.33695 -6.43672 0.339011 -0.812487 1.21178
140 5.16946 -3.2988 -6.89849 0.582087 0.26459 0.078884
187 5.23093 -3.89591 -7.79619 -1.36575 1.55664 0.557599
763 6.22184 -4.53739 -5.857 -0.375414 2.18224 -0.495035
521 6.6961 -4.14959 -7.64964 -0.644461 1.2225 -0.263279
520 6.09866 -3.72482 -6.93082 0.283518 -1.81357 0.945344
240 8.26413 -4.94061 -7.68197 -1.40575 -1.56595 -1.92274
471 7.26035 -3.94643 -6.66088 0.550136 1.31687 -2.21631
434 -8.93603 -5.35364 -7.29615 0.692301 0.227452 -0.91725
522 -9.18622 -4.48536 -7.76417 -0.203556 -2.86399 0.19593
721 8.3923 -4.32259 -6.92158 0.47233 -0.450707 3.70048
573 8.67483 -3.39056 -7.12146 -0.959822 0.631918 0.934935
766 9.39128 -3.94475 -6.71439 0.568855 -0.401908 -0.474299
436 -9.14271 -3.47774 -7.59742 -1.70342 1.7711 0.795175
235 -9.38376 -2.92888 -6.78845 1.6195 0.616394 0.499166
725 -8.45314 -2.69488 -7.18456 0.752701 2.04355 0.160219
244 -9.18421 -2.35679 -7.74476 0.02534 -2.29289 0.437755
4033 -8.92895 -1.93889 -6.68852 1.45718 -2.07134 -0.611281
770 -7.44171 -2.37266 -7.64834 0.723405 1.62095 -2.23049
493 -6.62729 -2.3731 -6.74055 -1.20765 0.614474 1.18427
490 -7.6466 -2.80747 -6.63208 1.68638 0.263039 1.48428
818 -7.42099 -1.98221 -6.17342 0.521542 -0.597202 0.444054
773 -4.94403 -2.79494 -6.89962 3.29457 -0.58928 -1.96869
827 -5.62133 -2.19788 -7.40484 -0.263483 -1.0314 -0.77082
829 -5.97879 -3.09944 -6.66977 -1.62846 -1.06405 0.92115
4330 -5.97382 -1.7723 -6.32448 0.126911 0.68131 1.02608
495 -4.32129 -2.27678 -7.53106 2.02735 -1.16864 -1.71888
782 -3.70639 -2.15964 -6.47687 1.2563 -0.584093 1.2302
544 -4.75078 -1.80472 -6.77333 -0.381146 0.611412 -0.890255
686 -3.17857 -3.24096 -6.22724 -0.267387 -1.00511 -1.7659
456 -2.25818 -1.85255 -8.35864 -1.16379 -0.165461 -0.266427
737 -3.29811 -2.13011 -7.95152 -0.203321 -0.0257057 -0.175642
4049 -2.72901 -2.16979 -6.49889 1.28919 0.00304523 -1.09142
504 -2.58084 -2.79509 -7.98288 0.550186 0.28707 -0.367549
547 -2.17471 -1.92179 -7.34369 -1.05773 -0.0568469 -0.186869
734 -1.53347 -3.14467 -7.91383 -0.0606274 -0.318096 -0.790171
1085 -1.30682 -3.43084 -6.01353 1.18966 -0.0785529 0.483113
550 -1.08005 -2.30145 -7.35859 -0.791549 -0.207363 1.74968
220 -0.565096 -3.26224 -7.63216 -1.44074 -1.61222 2.3547
553 -0.104419 -1.93117 -7.89494 1.97772 0.241785 2.11164
794 -0.00765787 -2.66156 -7.14847 -0.330331 1.04878 0.648512
551 -0.172815 -1.70695 -6.744 -0.360757 -0.520656 1.32603
801 1.10002 -2.89036 -6.72487 -1.65671 1.47895 -0.185902
507 1.20232 -2.92289 -7.9025 -1.86117 1.90105 0.029931
847 0.825293 -2.06308 -7.29292 -1.81957 1.6411 -0.00225705
841 1.90107 -3.23709 -6.75549 -0.360555 -0.30584 1.35389
511 3.19545 -2.84161 -7.25605 -0.754783 -0.710091 0.0639688
808 4.03699 -1.42577 -8.03365 1.52681 -1.13293 2.52421
555 1.89204 -2.21037 -6.47808 2.67691 1.06479 2.65073
510 2.93826 -2.39784 -6.35027 1.19017 -0.785276 -1.04309
1095 4.11106 -2.3952 -7.73343 0.220552 -0.526425 -0.820512
812 3.40602 -1.93459 -7.15033 -0.953413 2.75338 0.299721
514 4.83696 -1.7572 -7.28682 -1.60118 0.899555 -1.321
569 5.56948 -2.58527 -7.62289 -1.54775 1.26146 0.443741
1052 5.52967 -2.008 -6.54618 0.0807932 0.873976 1.70509
528 6.42454 -2.44752 -6.7667 1.27216 -1.12375 0.687868