ITEM: TIMESTEP
77000
ITEM: NUMBER OF ATOMS
6912
ITEM: BOX BOUNDS pp pp pp
-9.5244063118091962e+00 9.5244063118091962e+00
-9.5244063118091962e+00 9.5244063118091962e+00
-9.5244063118091962e+00 9.5244063118091962e+00
ITEM: ATOMS id x y z vx vy vz
51 -8.71091 -7.93854 -8.80415 0.630304 -0.51041 0.841267
1726 8.72863 -0.710682 -1.60541 -1.96862 -0.528658 -0.618162
4643 3.94422 -0.168812 -2.33709 -1.25632 1.43314 0.575616
8 -7.85685 -8.79559 -8.6429 0.804125 -2.01889 0.0974775
262 -0.778149 -0.857546 -9.46565 1.08694 1.10333 1.51493
294 -6.88778 -8.51942 -8.07614 1.71982 1.76884 -0.199253
12 -6.31076 -8.46113 -8.97758 -0.0145618 0.326221 2.20077
298 -5.59935 -8.80405 -8.00264 -0.881654 -0.830412 0.859998
16 -4.80319 -8.75842 -8.86334 -0.945674 1.09909 1.07957
209 -3.17952 -3.34264 -9.48275 -1.59497 0.561277 -0.146648
63 -4.03572 -8.09177 -8.78186 0.75003 -0.615083 1.07316
1527 5.68538 -9.35922 -0.791073 0.857739 0.0543288 -0.546529
20 -3.17282 -8.80188 -8.63637 0.182984 0.371177 1.11504
67 -2.13841 -8.02117 -8.89398 0.3312 1.71921 -0.155881
24 -1.42179 -8.77323 -8.67943 -0.605608 0.587182 2.20117
357 -1.4249 -7.91023 -8.15303 -1.95298 2.55378 -1.67398
71 -0.746168 -7.94402 -8.94023 1.79187 -0.746449 -0.212684
310 -0.782815 -8.77559 -7.7764 -0.330418 0.00646681 0.746539
3497 6.25328 0.0122448 -9.4823 -2.02086 2.20437 0.77151
28 0.14792 -8.80142 -8.55672 -0.774582 0.303809 0.779895
313 0.222629 -9.4956 -7.77246 0.711915 0.0022624 -0.390328
4911 -4.07069 -0.13458 -0.776114 1.3769 0.613614 -1.89373
32 1.72789 -8.74554 -8.70006 2.41497 0.938077 -0.588591
158 -4.18956 -3.96998 -9.44791 1.62114 -0.292794 -0.845876
314 1.21075 -8.76028 -7.80719 -0.259602 -0.32577 -1.03353
36 3.15679 -9.00666 -8.7675 0.610551 0.516804 -0.251167
79 2.67528 -8.15767 -8.73293 -0.801588 0.988826 -0.267621
369 3.4184 -7.8733 -8.0003 -1.42958 -2.06347 -2.20809
1447 -7.07927 -9.49388 -0.798021 2.04961 0.712138 -1.75704
40 4.81697 -9.11953 -8.49456 0.651994 -0.999092 0.304323
322 4.00094 -9.11129 -7.938 1.54236 -0.558879 -0.725919
3491 3.92105 -0.0809434 -8.75549 -0.584339 0.327693 -1.59828
2002 3.91164 -0.847609 -0.159983 -0.251169 1.18373 -1.04921
4059 0.648662 -0.000837921 -5.37177 0.925926 0.755401 -0.42902
44 6.42532 -8.72256 -8.61635 -1.55954 -2.31844 0.112058
599 -0.666191 -9.37894 -5.51192 0.19303 -0.280485 1.1523
326 5.6742 -8.95962 -7.87003 -1.58735 -0.413006 -0.577087
85 4.8886 -8.0083 -9.39371 0.171812 1.52894 -0.0913622
48 7.946 -8.85804 -8.93637 -1.62371 0.722369 -1.06843
245 -7.93338 -1.64489 -9.33196 -1.0407 2.07892 -1.35276
238 8.64756 -2.44101 -9.51776 0.403866 -0.166997 -1.8766
3475 -2.60357 -0.2232 -8.57024 0.8428 1.07194 -1.70261
4 9.50075 -8.76053 -8.64857 0.606937 -0.99776 -1.41859
1728 7.9204 -0.720279 -0.839877 -0.010756 -1.26124 1.58402
56 -8.15726 -7.07166 -8.90691 -1.83483 0.936789 -1.26466
52 -9.51624 -7.31366 -8.80022 0.305094 -1.83996 -1.16594
341 -7.69303 -7.97885 -8.14324 0.00211463 0.28733 2.02115
337 9.33545 -7.99088 -8.07695 -1.87278 -0.865087 0.362642
55 -7.13985 -7.82012 -8.97174 1.59715 -1.50068 -0.782238
342 -7.21059 -7.07762 -8.0466 1.38559 2.08047 0.100897
1477 4.8275 -9.39065 -1.69261 -0.992364 -1.13256 -0.413514
103 -7.2045 -6.411 -8.93253 -0.495635 -1.53567 1.1064
59 -5.49625 -7.74962 -8.78563 2.57175 0.684655 1.44872
60 -6.36144 -7.11314 -8.92698 0.465912 2.19951 1.01122
393 -6.51433 -6.30675 -7.86698 0.398069 1.97912 1.32616
89 6.45141 -7.90936 -9.38942 0.058752 -0.5892 -2.56299
64 -4.77833 -6.95867 -8.86895 -0.0183442 -0.107132 1.81052
350 -4.07994 -7.25465 -8.07785 3.35171 -2.76957 0.918135
225 3.30868 -3.23598 -9.28287 2.12805 -1.22903 -1.66594
68 -3.12722 -7.44479 -8.81276 0.962854 0.425588 0.151682
201 -6.54319 -3.35808 -9.43717 -1.33197 0.333784 -0.704931
353 -3.30477 -7.91893 -8.0139 -0.0853909 -1.95201 -1.31104
72 -1.5048 -7.07427 -8.70002 0.77177 1.18666 2.51857
169 0.0204771 -4.99387 -9.51471 -0.889208 -1.62039 -0.865167
358 -0.717567 -7.02968 -8.04619 -0.233391 0.549541 -0.842801
76 -0.786555 -6.26547 -8.78386 0.717361 -1.04758 -1.45095
362 0.147467 -7.26454 -8.79793 -0.771015 1.49334 -1.28834
1977 -6.18716 -1.52827 -0.0369456 -0.126301 0.168946 3.21871
4333 -4.69504 -0.155904 -4.65732 -0.663169 -0.0796585 1.10879
75 0.699422 -8.03228 -8.36377 -1.30342 -0.00578864 2.02095
80 1.81268 -7.32335 -8.78446 1.91256 2.29719 0.636745
123 0.901334 -6.4425 -8.76082 1.48957 0.404598 2.6196
413 1.92977 -6.3898 -8.1517 0.443982 -0.0861752 0.0300406
289 9.43372 -9.52635 -7.95908 -2.16618 -1.66682 0.111509
84 3.36867 -7.0576 -8.71732 0.0785342 0.583073 0.968073
83 4.11067 -7.80652 -8.76288 -0.98015 0.413933 -3.96107
88 4.96884 -7.04854 -8.7776 0.305999 1.24105 1.08928
131 4.11814 -6.23933 -8.75423 0.742458 0.777074 -0.0443482
1163 -5.71234 -9.50527 -2.2476 0.545025 1.26937 -0.443182
873 -6.38144 -9.44545 -4.57652 0.883997 1.06569 -1.14024
87 5.53432 -7.9102 -8.60805 0.594355 -0.898032 -0.72355
92 6.51741 -7.14934 -8.68322 -0.562895 -1.16956 1.20055
377 6.3627 -7.90497 -7.96182 -0.0403575 -0.0147466 -1.56537
4067 3.84783 -0.0349372 -5.633 1.04654 0.372807 2.06949
91 7.40488 -7.89275 -8.72002 -0.0541137 0.48936 0.751999
96 7.99628 -7.20257 -8.88476 1.59462 -1.52117 0.790083
178 4.15345 -4.12127 -9.45932 -1.23162 0.485842 0.466971
95 8.70079 -7.88224 -8.93267 0.479408 -0.794646 -0.895756
381 7.89533 -7.93737 -7.84788 3.73293 0.85935 -0.964487
382 8.76878 -7.23982 -8.08212 1.07724 1.09936 2.16805
1845 -1.45961 -6.33037 -0.176864 1.2317 -1.20455 0.834065
99 -8.8372 -6.30782 -9.05406 0.966089 -0.876604 1.30293
100 9.35878 -5.60382 -8.7449 -0.998028 2.0837 3.32278
4609 -9.46603 -0.053844 -3.12518 0.390799 -0.736881 -0.480253
104 -7.81076 -5.5104 -8.54729 1.30136 -1.15122 -3.36597
151 -7.1335 -4.81488 -8.74836 1.1047 2.90666 -1.85243
389 -7.96026 -6.4216 -7.9977 -2.14428 1.04688 -1.21861
390 -7.14827 -5.52178 -7.66635 1.51772 -0.457227 -0.613148
4631 -0.91307 -0.0700452 -2.42154 -0.517482 0.290027 0.659227
126 1.98881 -5.59509 -9.42417 1.06839 -0.908674 0.057012
107 -5.65813 -6.35961 -8.7945 -0.208221 0.355921 3.06503
108 -6.55922 -5.633 -8.76514 0.639847 -2.63341 0.0255699
155 -5.84089 -4.8848 -8.8635 -2.71061 0.402685 1.45051
111 -3.95095 -6.26858 -8.78979 -1.74784 -2.20504 -0.563875
112 -4.77434 -5.70155 -8.75902 -1.21933 -0.793705 -0.560412
159 -4.06624 -5.0213 -8.78434 1.87378 3.14353 -0.342631
4041 -6.34899 -0.0981594 -6.44102 -0.138393 -0.909626 -0.488252
90 7.19508 -7.13493 -9.43681 -1.11969 -0.799262 0.755415
115 -2.31424 -6.56414 -8.69441 -0.506901 0.386984 -1.25042
116 -3.10068 -5.7978 -8.73389 0.982064 0.612155 0.279209
163 -2.36991 -4.90803 -8.7408 -0.613154 1.03796 0.97119
401 -3.11724 -6.57222 -8.10848 2.1565 0.295966 -1.5287
1159 -7.06747 -9.43388 -2.52905 0.910962 -1.46642 1.12232
120 -1.63029 -5.60462 -8.71108 -2.30049 0.781893 -0.670614
167 -0.701748 -4.95897 -8.80759 1.81792 0.369022 0.738763
4329 -6.09768 -0.177549 -4.66194 1.0165 0.129445 1.06219
124 0.185295 -5.75013 -8.54705 -2.06623 1.64449 0.359901
122 1.3808 -5.53964 -8.6163 0.123592 -0.413128 0.411152
128 2.58922 -5.65609 -8.53247 0.135606 0.468678 1.0383
461 1.51573 -4.84145 -7.96004 -0.18696 3.42347 0.457135
410 0.933489 -5.70558 -7.72801 0.0114649 0.630895 -2.52835
127 2.46921 -6.54899 -9.13382 -0.639143 0.234588 -0.364131
132 3.53838 -5.27563 -8.6326 0.513551 -0.207198 -0.65424
175 2.40982 -4.60034 -8.76081 -0.0603824 -1.35634 -0.337637
465 3.10428 -4.57613 -8.00222 -0.433186 -0.759815 0.53328
136 4.87717 -5.56501 -8.69989 -0.235681 -0.825263 0.681866
421 4.85412 -6.34575 -8.05912 -1.54657 1.38463 -0.2332
469 4.89953 -4.84976 -7.74195 -0.947607 0.117987 0.530199
135 5.60354 -6.28633 -8.75895 0.851761 0.142171 0.767457
140 6.42102 -5.4278 -9.00761 -0.22818 1.26247 -1.30538
1929 -6.40137 -3.44362 -0.259865 -0.530425 -0.0243137 -0.541326
139 7.05119 -6.34128 -8.82532 -0.655886 -1.56148 0.240104
426 6.88322 -5.54935 -8.06771 1.9454 -0.311927 -1.83733
1770 7.17886 -8.63036 -0.0413813 0.334014 -1.39463 -0.00651189
34 4.09105 -8.74316 -9.38203 0.900005 0.110262 0.460017
143 8.76107 -6.53603 -8.91112 -0.571954 -0.792822 0.794637
144 7.85022 -5.63228 -8.62972 1.37875 0.50047 1.98262
4045 -4.83163 0.00653698 -6.34943 1.33883 0.832344 -1.75676
147 -8.82876 -4.79168 -8.73835 0.0395853 -0.0620988 -0.446906
481 9.41843 -3.12113 -7.78164 -1.12266 0.0178517 -0.904204
195 -8.81254 -3.16043 -8.73136 0.493482 1.87457 0.784611
152 -8.12965 -3.99583 -8.626 -0.345246 -0.438705 1.16442
199 -7.32161 -3.21716 -8.79675 1.57879 -1.44521 -0.971904
485 -8.08952 -3.21803 -7.97795 -1.27423 0.714677 0.757779
601 0.171365 -9.36441 -6.20829 1.40057 0.344974 -1.5167
81 3.33454 -7.87919 -9.50094 1.6871 0.856808 -0.225464
156 -6.47279 -3.93687 -8.65121 -0.509133 0.720008 -1.51919
203 -5.7475 -3.18121 -8.61268 -1.19755 0.892827 -0.0827913
150 -7.50858 -4.14723 -9.37283 -0.662192 -1.00663 -1.86283
160 -5.09658 -3.8108 -8.90831 1.78385 -0.280362 1.17232
4033 -9.5129 -0.206745 -6.40543 -3.30685 -2.17962 0.953427
164 -3.31448 -4.12973 -8.73334 0.681159 -0.336101 -2.557
450 -2.47299 -4.18665 -7.9989 -0.878566 -0.838783 -1.38318
295 -7.16661 -9.49461 -7.2124 -0.272618 -0.248878 0.959724
273 2.95327 -1.61813 -9.28041 -1.40327 0.623661 0.225181
168 -1.5417 -4.20722 -8.72251 1.63078 1.07936 -0.218878
1485 7.94935 -9.45898 -1.53058 0.151296 -1.70101 1.65056
172 0.00836975 -4.18371 -8.76568 0.191538 2.82251 1.36256
219 0.71683 -3.37264 -8.72234 0.768885 1.36576 1.08137
505 -0.0353054 -3.35273 -7.86578 0.176337 1.49269 2.12153
457 0.0473713 -4.79666 -7.97461 -0.86154 -1.31925 -0.104939
1973 -7.74368 -1.82884 -0.0386277 0.666478 -0.169513 0.228982
171 0.924983 -4.6998 -8.76112 1.841 1.76611 -0.00777104
176 1.58445 -4.026 -8.61061 0.0775247 1.61087 0.536591
509 1.5122 -3.20292 -7.92069 -2.92532 0.223613 1.42035
327 5.49117 -9.45826 -7.01592 0.0211763 2.0646 -0.589473
180 3.39261 -4.18614 -8.8278 1.0527 -0.58902 0.953072
462 2.10946 -4.07998 -7.85394 -1.03915 -0.947286 0.913862
179 4.25824 -4.5967 -8.49586 -1.44594 -2.14001 -0.115104
184 4.98356 -3.8118 -8.56147 0.873248 1.55451 0.117853
466 3.8719 -3.96695 -7.79607 1.34945 -0.31102 -0.153915
227 3.91105 -2.98841 -8.53526 0.332174 -0.891951 -0.321322
1689 -6.38332 -1.62378 -1.65373 -0.10466 -1.53762 1.22719
1691 -5.50099 -1.63492 -0.900532 -0.677602 2.82067 0.751408
183 5.61761 -4.84044 -8.80881 -1.97405 0.63631 -0.0845989
188 6.23728 -4.046 -8.93806 1.16552 -1.37813 -0.655619
231 5.55682 -3.06492 -8.77985 -2.41305 0.35121 -0.642776
585 -6.35779 -9.35184 -6.25743 0.628447 0.626096 -0.485683
210 -2.291 -2.35357 -9.42589 1.26468 0.637266 -0.770585
222 2.35035 -2.57741 -9.47955 -0.811161 0.348112 -0.446397
106 -5.58508 -5.57179 -9.49804 -2.11322 2.39482 -1.90443
187 7.10613 -4.66014 -8.86464 0.910582 -0.111161 -1.28434
192 7.98963 -3.97446 -8.84715 -1.02394 4.33571 1.03061
1688 -7.78027 -0.913547 -0.715596 0.771882 1.47354 -0.189956
1889 -3.35045 -4.88947 -0.127811 0.0168481 -1.94358 1.15371
191 8.49511 -4.78069 -8.65537 4.13803 0.500329 -1.4644
148 -9.4994 -3.854 -8.8541 -1.79992 -0.802781 0.131145
478 8.81859 -3.8939 -7.97296 -0.418093 1.11751 -0.616789
4037 -7.86066 -0.0372545 -6.35473 -1.04573 -1.67977 0.490902
482 -8.74847 -2.32624 -7.99888 -0.312536 1.71308 0.0467617
243 -8.94427 -1.59645 -8.70786 0.603406 2.25201 -1.1124
200 -8.03172 -2.52153 -8.76128 0.630488 0.16151 -1.25769
486 -7.42648 -2.40919 -7.93777 0.896807 0.327125 -0.233399
5213 1.58611 -0.101547 -0.197293 -0.594738 -0.437641 -0.788431
204 -6.46927 -2.39702 -8.68865 1.44227 -1.37824 1.47618
4641 2.78164 -0.0160097 -3.09655 0.77389 0.257167 0.82148
490 -5.52877 -2.34506 -8.09283 1.48747 -1.97592 -0.464731
207 -4.04078 -3.2152 -8.79149 -3.02072 -0.943629 1.96637
208 -4.84865 -2.524 -8.84498 -0.0178399 -1.48102 0.738054
541 -4.71865 -1.72355 -8.28997 -1.4148 0.472717 0.00133134
221 1.60337 -3.28303 -9.47039 -1.15917 2.23557 0.750984
494 -4.0022 -2.56078 -7.95659 -0.0884489 -1.25841 -2.67573
1901 1.42215 -4.75901 -0.0879781 1.33781 0.441895 -1.0238
212 -3.00885 -2.63929 -8.7335 -1.45836 -2.16258 0.893579
4909 -4.82462 -0.0590095 -1.65612 0.000470258 -1.71221 1.58642
211 -2.31308 -3.41061 -8.90905 -0.207737 1.92569 0.281413
215 -0.726147 -3.20285 -8.65704 2.20198 1.05893 -0.185039
216 -1.4481 -2.59276 -8.81494 1.66007 -1.02235 -2.31564
549 -1.52559 -1.53433 -7.8112 -0.763471 0.670894 0.299875
3461 -8.08515 -0.16893 -9.49164 1.76882 1.27044 -0.415766
220 0.212096 -2.35899 -8.62396 0.332699 -0.864556 0.00176303
263 -0.76042 -1.69283 -8.72814 1.71663 0.188111 -0.112162
1742 -3.92793 -8.84664 -0.0356014 -1.95279 0.966021 2.09458
1175 -0.969166 -9.48028 -2.41978 -0.491861 1.84218 -0.565429
224 1.43757 -2.64273 -8.79419 -0.258707 0.739348 0.677377
267 0.899532 -1.4552 -8.69675 1.5049 2.76822 0.290755
557 1.74371 -1.52456 -7.83638 0.526441 0.832717 1.92695
223 2.42077 -3.44131 -8.59125 -1.23079 1.03864 -1.19751
228 3.03934 -2.44858 -8.59224 -1.0567 -0.312916 0.128949
510 2.22857 -2.43981 -7.99171 1.13243 -2.33491 -1.0592
271 2.04311 -1.73652 -8.83711 -0.0745952 0.336053 0.176826
513 3.17215 -3.2383 -7.89969 -0.760414 -0.316312 -0.550677
129 3.2492 -5.87528 -9.25251 -0.46946 -2.35057 -0.380243
232 4.64717 -2.36934 -8.65574 0.464926 0.450288 1.13887
275 3.92765 -1.38861 -8.66937 0.00545793 -1.74755 0.590356
565 4.70002 -1.58907 -7.66841 -0.750795 -0.607905 0.0847003
517 4.63704 -3.15154 -7.87801 1.92249 0.933466 -0.850178
4927 2.37628 -0.159913 -0.901599 -0.250646 -0.109655 1.28739
236 6.41913 -2.36713 -8.75972 -2.14239 1.34533 0.378299
279 5.42301 -1.83559 -9.00311 -0.320155 0.49694 -0.376297
569 6.40962 -1.66462 -7.86049 0.0711725 0.239629 -0.916735
161 -3.15408 -4.86451 -9.4757 0.552097 -0.329905 -1.79254
235 7.26794 -3.17778 -8.84545 0.763089 -1.69805 -1.37114
240 7.90692 -2.36304 -8.85652 1.0477 -0.135354 1.01121
283 7.2877 -1.58174 -8.917 0.159083 0.959955 -0.501087
1685 -8.18863 -1.53265 -1.70297 0.0630177 0.608914 0.0375881
196 9.49836 -2.4365 -8.60349 -1.93328 -3.34175 0.0419409
239 8.84007 -3.15849 -8.76235 -1.12661 -0.813713 -0.647497
266 0.678388 -0.639952 -9.44076 -0.533225 0.343478 0.844609
248 -8.11595 -0.587798 -8.45298 -0.37629 1.54052 -0.62472
244 9.28556 -0.846212 -8.87034 -0.143198 -0.0174508 -0.00457802
3761 -3.38 -0.143637 -7.93956 -4.54627 -0.202572 0.0973052
533 -8.05548 -1.40815 -7.9878 1.98015 0.424664 1.54328
247 -7.11537 -1.61079 -8.68971 -0.912597 1.36098 0.22988
534 -7.16048 -0.782272 -7.97304 -0.807252 -0.310983 -2.27103
4935 5.44379 -0.0538985 -0.792674 0.456484 0.0641925 -0.501794
1881 -6.30529 -4.57024 -0.131786 -0.373397 -1.49484 -0.963916
251 -5.56267 -1.48194 -8.98239 -0.423448 1.29613 0.26168
252 -6.31629 -0.739557 -8.76948 2.16049 -0.199273 0.987464
538 -5.45939 -1.06752 -8.0041 1.02254 1.05911 -0.220348
258 -2.56776 -0.9603 -9.50738 -1.00083 0.996513 -1.27299
1457 -3.16429 -9.42016 -1.6268 -0.417671 -1.89509 1.34752
194 -8.77269 -2.51743 -9.49092 1.38114 0.350081 -0.259367
255 -4.04552 -1.71104 -8.95579 3.01161 -0.809683 -1.10389
256 -4.79672 -0.749043 -8.90742 3.40868 0.260053 -1.36128
114 -2.35787 -5.74415 -9.52643 -0.867866 -0.0596806 -0.553602
259 -2.44841 -1.62249 -8.71949 1.43161 -0.822537 0.110913
260 -3.19514 -0.953822 -8.64015 -2.3322 -0.352961 1.64547
546 -2.50166 -0.977366 -7.92685 0.457863 -1.28813 0.146752
545 -3.27155 -1.81324 -7.9045 -1.44056 0.427765 0.228033
4321 9.3849 -0.116262 -4.68961 1.99621 0.944588 1.0075
3765 -1.5288 0.00193813 -7.7756 -0.953223 0.253873 -2.00714
264 -1.77702 -0.804094 -8.62857 0.724452 -1.24374 1.79099
246 -7.19864 -0.954455 -9.44344 1.57674 1.70729 0.0419098
1686 -7.147 -0.888442 -1.54226 -0.868511 -0.292091 0.00860529
597 -1.34648 -9.38747 -6.2841 -1.02491 1.73906 -1.96287
268 0.00797919 -1.04971 -8.70405 0.976162 0.762473 -2.11927
5185 -9.37324 -0.208493 -0.127348 0.204331 0.819838 0.853187
3763 -2.3909 -0.12003 -7.14368 -0.179285 2.3041 -0.706385
272 1.78044 -0.764442 -8.563 1.3835 0.908302 1.23084
1785 -6.44577 -7.95821 -0.127319 1.35315 -0.0878128 0.14141
276 3.13639 -0.79426 -8.77064 -1.51827 0.282231 -1.06196
1683 -8.64888 -1.51998 -0.494849 0.234557 -1.03497 -1.36761
280 4.74169 -0.718949 -8.85669 -1.64237 0.989912 1.67518
242 -8.89467 -0.943219 -9.50859 -0.772116 -1.32724 0.390689
1950 2.49234 -2.46436 -0.0462207 1.53525 1.46016 0.36481
284 6.33554 -0.81373 -8.73475 1.04811 -1.65378 -1.83115
566 5.48243 -0.897274 -7.8935 0.879242 0.869854 -1.53995
335 8.78595 -9.38137 -7.17057 -2.47166 -2.21762 -0.124108
1193 6.20114 -9.50795 -3.50635 -1.70409 -0.0249562 -0.371394
1886 -4.20192 -3.70786 -0.230882 0.445911 -0.036259 -1.60617
1443 -8.83497 -9.5069 -0.710698 -1.45444 -0.949366 -0.652674
288 7.76911 -0.711565 -8.86565 -0.354849 -0.315052 1.05476
287 8.43271 -1.5297 -8.7887 1.33832 -1.18834 -1.23407
17 -3.13774 -9.51863 -9.42708 2.70755 0.521829 0.0826408
290 -8.61708 -8.6476 -8.00025 -1.25351 -1.32614 0.97438
578 -8.73537 -8.78256 -6.40964 0.867437 -0.349946 0.383131
4905 -6.18464 -0.0156853 -1.52094 0.45834 2.68206 -1.30556
292 -9.4074 -8.60424 -7.30969 -1.30947 -1.01469 0.893412
625 -9.48085 -8.06325 -6.47548 2.22028 0.150002 1.08975
181 4.93935 -4.88108 -9.45838 1.17149 0.641128 0.65458
296 -7.86946 -8.86522 -7.2254 -0.0297685 -0.929309 0.974948
582 -7.25336 -8.78233 -6.44453 -0.118355 0.822481 -1.38657
4647 5.40762 -0.0709612 -2.38555 -2.59437 0.399448 1.10378
345 -6.09733 -7.99697 -8.01793 -0.082142 -1.09806 -0.528176
300 -6.48647 -8.75108 -7.1068 1.12668 -0.275792 -0.493509
347 -5.45973 -7.9019 -7.10938 1.32983 -0.410082 -0.535444
142 8.55542 -5.53905 -9.35484 1.50572 -0.0924084 0.336108
302 -3.95162 -8.90611 -7.92689 0.405157 0.333856 0.635137
304 -4.81168 -8.97689 -7.35703 1.59833 -2.12645 0.359808
590 -3.62372 -8.62317 -6.25949 -1.60865 -0.147115 -0.999991
351 -3.98404 -7.88909 -7.17784 1.2268 0.173833 4.01692
637 -4.53684 -8.18215 -6.36027 0.543797 0.0538051 -0.247494
306 -2.32242 -8.52936 -7.90484 0.439707 -0.414483 -0.821074
308 -3.22867 -8.61353 -7.26505 -2.32581 -2.78199 0.068604
355 -2.4907 -7.82519 -7.14214 1.29873 -1.27326 3.2258
312 -1.464 -8.72716 -7.14536 1.11151 0.781541 -2.19366
359 -0.684877 -7.9123 -7.04701 -1.12056 0.110797 -1.24943
316 -0.0951706 -8.66002 -6.9934 1.33458 -2.12388 -1.39343
361 -0.0820947 -7.7981 -7.77791 -0.629456 0.4027 -0.0725528
885 -1.57595 -9.30998 -4.6495 1.12103 -2.12937 -0.580627
320 1.91953 -8.62677 -7.06238 1.8625 2.25853 0.0430498
365 1.97991 -7.9809 -7.99591 1.61372 1.09706 0.175961
363 0.807658 -8.03447 -7.25887 0.621516 -1.29553 -0.44747
602 1.00126 -8.66303 -6.17037 0.992005 -2.18117 -1.09168
318 2.47543 -8.7968 -7.94255 0.775083 2.17805 0.376726
324 3.20009 -8.85058 -6.97578 0.106609 1.38054 1.4873
328 4.65769 -8.77007 -7.15005 -0.964035 0.775486 -1.07874
371 3.84717 -8.09264 -7.13135 -0.0439942 0.596219 -1.33951
610 4.02668 -8.87731 -6.3655 -2.51171 -0.708837 -1.27485
1786 -5.64878 -7.01877 -0.174269 0.0851367 1.70263 0.197988
1682 -8.73803 -0.758711 -1.65535 0.66367 -0.795559 0.166075
332 6.37798 -8.84393 -7.18845 1.06369 -1.27766 1.42204
614 5.47058 -8.86356 -6.24096 -0.753007 0.486553 1.45126
1910 5.55586 -3.85459 -0.0602191 -1.08629 -0.195334 2.18048
330 7.21297 -8.76314 -7.90438 -0.345197 -3.49434 1.02398
336 7.88963 -8.81044 -7.17238 1.4505 0.380388 0.882796
379 7.07508 -8.04047 -7.16244 -0.142609 -0.31824 0.129732
669 7.92078 -8.02212 -6.39551 0.216718 -0.559057 -0.27378
257 -3.12742 -1.70566 -9.50326 0.868603 1.02047 -1.40375
1684 -9.41899 -0.843097 -1.00805 0.78738 -0.576316 -0.228675
334 8.6324 -8.71574 -8.07297 1.29944 1.76974 -1.8673
622 8.80937 -8.79178 -6.43469 2.02821 0.756269 1.02961
261 -1.50271 -1.61836 -9.46025 0.0771747 -0.861743 0.494435
339 -8.7024 -7.90512 -7.24662 -1.79158 -1.82494 -0.725226
338 -8.78986 -7.14668 -8.04349 -3.05416 -1.22359 0.795943
340 9.4585 -7.06462 -7.20245 2.13613 0.551272 -0.413207
343 -7.27334 -8.01154 -7.21226 -1.53918 1.0298 -0.755018
344 -7.97902 -7.10937 -7.1633 -0.327347 -3.45313 -1.34821
391 -7.18829 -6.38798 -7.10946 0.281195 -0.609834 -1.79885
630 -7.27372 -7.18102 -6.39896 1.99725 0.827353 -2.15599
346 -5.52987 -7.14776 -7.93797 -1.59926 -0.0196913 1.70732
348 -6.40837 -7.42006 -7.26013 2.1476 -0.280592 -2.50838
349 -4.86677 -7.946 -8.1232 0.315752 -1.65874 0.168354
352 -4.76914 -7.06261 -7.29097 0.272016 0.386307 -0.613152
397 -4.86145 -6.3786 -7.96416 0.469563 -1.65705 0.718455
399 -3.99946 -6.33485 -7.24647 1.69372 -0.076011 -0.999102
638 -4.08867 -7.0113 -6.42223 -1.60324 0.882141 0.18414
354 -2.46022 -7.30521 -8.0212 -1.00397 0.309267 -1.04292
356 -3.32618 -7.0958 -7.27539 0.461092 -1.4859 -0.458683
403 -2.3157 -6.8077 -7.1026 0.822581 -0.385523 0.104892
689 -3.07692 -6.69288 -6.39056 0.180271 0.614521 0.212098
360 -1.53167 -7.41723 -7.35734 1.14488 -0.381775 0.53888
405 -1.56091 -6.38128 -7.91545 0.687904 0.549849 -0.919915
693 -1.71033 -6.43995 -6.33076 0.0530009 2.89777 0.601043
364 0.00943115 -7.20266 -6.98452 -0.618767 0.69504 -0.673142
409 0.0222193 -6.44042 -7.7696 -2.26533 -0.907093 1.42285
407 -0.965172 -6.31902 -7.14385 2.63826 -0.613112 0.876355
368 1.11466 -7.20421 -7.83757 -1.529 -0.632292 -1.02048
654 1.67239 -7.46203 -7.00737 1.462 -0.108426 0.753428
411 0.785125 -6.51269 -7.08374 -1.73509 -1.44153 0.18934
650 0.819984 -7.35758 -6.04944 0.200422 0.362245 -0.988755
366 2.51916 -7.1764 -7.91082 0.380555 -0.406814 0.941136
367 2.70722 -8.0089 -7.16273 -0.845385 -1.67098 -0.993434
372 3.34262 -7.00174 -7.27449 1.70441 -0.11448 -0.22542
417 3.29956 -6.25489 -7.97064 -1.42533 -1.17127 -0.0400689
415 2.38738 -6.5863 -6.99322 -0.0608717 1.07851 0.289034
705 3.21344 -6.41426 -6.09229 -0.364008 0.0915406 -1.29946
373 4.6955 -8.1699 -8.03276 -0.63957 1.4934 -0.878789
370 4.22485 -7.18701 -8.04677 -0.674201 2.61195 1.59874
376 4.78252 -7.4324 -7.15423 -0.0287498 -0.888721 1.71079
658 4.00093 -7.27499 -6.28851 0.0226161 -0.570288 -0.694157
374 5.58376 -7.09458 -7.85771 -1.43399 0.766075 -0.628814
375 5.64913 -7.95822 -6.97569 0.609508 -1.01302 1.74571
380 6.46069 -7.24749 -7.13652 -2.08423 -0.351151 1.16548
662 5.49288 -7.08604 -6.45578 0.426574 0.256641 -1.79603
429 8.01015 -6.56323 -8.1035 -0.542036 0.557231 -0.834547
378 7.23224 -7.08072 -7.69679 -0.582265 1.2214 1.75027
384 8.1914 -7.11411 -7.23248 0.740077 -0.459024 -0.316141
666 7.30394 -6.99325 -6.67246 0.966819 0.380181 0.542122
383 8.6783 -7.92535 -7.0273 2.38719 0.448576 -2.57199
670 8.70764 -6.8631 -6.42727 0.392098 -2.01524 1.64546
385 -9.46458 -6.51512 -8.17182 -2.22665 1.13328 -0.573244
386 -8.7538 -5.72736 -8.01104 -1.17843 -0.726515 -0.248379
387 -8.79387 -6.4288 -7.29838 0.868827 0.804965 -0.240718
388 9.4768 -5.60877 -7.24106 -0.617409 0.190607 -1.74664
392 -8.13483 -5.67902 -7.30955 0.560636 -0.632172 -1.97834
437 -8.02582 -4.76531 -7.80546 -0.0419806 0.0933991 -0.348423
394 -5.55846 -5.63551 -7.91869 -0.151748 0.892578 -2.60365
395 -5.74872 -6.38977 -7.27407 1.49269 -0.0866778 1.20146
396 -6.40375 -5.55593 -6.93297 -0.3187 0.100458 0.909539
729 -6.30415 -4.63851 -6.46032 -0.437796 1.61445 -2.47682
398 -3.99047 -5.58493 -7.91409 -0.853321 1.29997 1.62473
400 -4.8354 -5.62455 -7.15937 -0.0694139 -0.930518 -1.52631
445 -4.94596 -4.90646 -8.16768 -1.12408 0.365237 -1.24034
447 -4.00013 -4.9944 -7.0956 2.21282 -0.758946 -0.416558
404 -3.08244 -5.76541 -7.14621 -0.0454816 -0.461813 -0.455186
402 -2.38455 -5.72282 -7.96555 -0.298682 -0.302676 0.671446
690 -2.47186 -5.78172 -6.22182 -0.0422471 -2.13806 -0.710247
406 -0.841185 -5.65026 -7.8977 -0.0321247 2.15363 0.300744
408 -1.68381 -5.6014 -7.08474 0.126052 0.393362 1.24322
453 -1.72327 -4.80223 -7.82516 -0.57768 0.42099 0.312424
694 -0.874403 -5.70713 -6.36812 -0.734132 -0.763995 0.0508885
412 -0.0138879 -5.63018 -7.16673 0.692678 -1.13349 2.12489
745 -0.0533787 -4.74068 -6.35948 -0.291648 0.901334 -0.729744
701 1.43217 -6.52145 -6.31086 1.36533 -1.94621 -0.748556
416 1.59963 -5.81828 -7.00287 0.209132 -2.2033 1.24385
698 0.717935 -5.56189 -6.51744 0.554846 -1.02211 0.406814
459 0.894152 -4.79385 -7.13016 1.54853 -1.9944 0.357707
414 2.58127 -5.65209 -7.46661 0.598682 -0.685731 -0.576896
420 3.42511 -5.95301 -7.03493 1.38986 1.4351 -2.08878
463 2.28331 -4.72457 -7.13621 0.554789 0.710568 -1.88142
418 4.09981 -5.68844 -7.94451 0.715192 -1.30861 1.46622
419 4.44188 -6.44549 -7.1352 -1.90487 0.144142 -0.486728
424 5.00148 -5.68353 -7.02235 -0.854559 -0.92009 -0.0993308
467 3.83223 -4.87754 -7.24656 0.495502 0.388123 -2.12248
706 4.067 -5.62517 -6.18864 -0.293062 0.0428512 -0.340148
422 5.68694 -5.57433 -7.99326 0.348614 -0.0357838 -0.498376
423 5.74914 -6.373 -7.0079 -1.32321 0.809459 0.955106
425 6.489 -6.44075 -8.00965 0.121869 1.17762 0.445307
428 6.36595 -5.60287 -7.2105 1.08188 0.753991 0.25822
713 6.56498 -6.34646 -6.46829 1.19958 1.93442 -1.22988
427 7.23269 -6.1429 -7.3419 -2.03775 1.06919 1.48969
432 8.24825 -5.57089 -7.22706 0.301338 0.451204 -0.328199
714 7.24971 -5.38995 -6.44415 1.39734 -1.58922 -0.856413
717 7.95114 -6.28169 -6.49201 -0.450409 0.192664 -0.160128
431 8.77835 -6.39312 -7.39464 1.16993 1.91964 -2.21872
430 8.67857 -5.72355 -8.06618 -0.54085 -1.13536 0.166189
718 8.81898 -5.70739 -6.46991 -1.29692 0.149251 1.0689
721 9.43178 -4.53965 -6.31966 2.55363 0.676672 1.11137
434 -8.94975 -4.00625 -8.04631 -1.55077 -0.442299 -0.580001
435 -9.10151 -4.72393 -7.20694 0.668259 -0.943549 0.517697
433 9.32719 -4.89955 -8.01549 1.50109 1.23137 -1.49846
483 -8.8347 -3.13612 -7.09501 1.38046 2.20449 -1.39812
439 -7.18509 -4.69458 -7.14812 0.455827 0.33126 -0.360371
438 -7.30349 -4.03833 -8.0302 -1.68529 -0.530233 2.06593
440 -8.10536 -3.92325 -7.31202 -1.48378 0.12318 2.07427
489 -6.55339 -3.16496 -7.96077 -1.55537 2.7735 -0.0497304
443 -5.61205 -4.83319 -7.28105 -1.86407 -0.547655 -0.650981
441 -6.41388 -4.90521 -7.97985 2.13173 -0.952058 1.36945
442 -5.66504 -4.04301 -8.0728 -1.6326 -0.628548 0.381406
444 -6.30297 -4.07802 -7.37836 2.12794 0.520304 -1.4619
491 -5.68749 -3.12374 -7.30645 0.139272 1.62285 0.918618
493 -4.78898 -3.27478 -8.0434 -1.54025 0.959454 -1.26412
446 -4.01077 -4.21531 -7.90039 1.45378 0.521136 -0.506308
448 -4.92888 -3.95834 -7.27381 -0.958624 1.03401 0.583125
449 -3.07428 -4.97817 -8.06925 -1.9685 1.47136 1.19607
451 -2.53722 -4.98154 -7.02186 -1.27938 -0.930094 -0.068715
497 -3.28022 -3.33489 -7.90287 -1.02612 -0.0944453 -1.30275
452 -3.22852 -4.14189 -7.17833 -1.47821 2.90198 0.267788
738 -2.49613 -4.19226 -6.41101 -0.518427 0.386128 0.88827
455 -0.754322 -4.77126 -7.11267 -3.01778 1.22063 -2.1129
456 -1.61696 -4.23182 -6.99038 -0.800219 -0.575348 -0.0203202
503 -0.987176 -3.4215 -7.2739 -1.50013 -0.0771919 0.22986
454 -0.832239 -4.2016 -7.98034 0.925085 0.00185835 1.34257
460 0.0368862 -4.07422 -7.29249 -0.740498 2.19277 -0.138669
793 -0.0996709 -3.10973 -6.30677 0.682924 -0.0466426 0.708828
458 0.789104 -4.02155 -7.92765 -1.20493 2.08411 -0.420559
507 0.739661 -3.0773 -6.97487 -0.721788 0.905848 -2.7116
464 1.55243 -3.95401 -6.93913 0.120648 -0.682937 -1.08943
797 1.49432 -3.01314 -6.15315 -1.97154 -0.38382 -2.97036
746 0.665319 -3.99664 -6.30437 2.04305 0.0793845 -1.29046
468 3.24256 -3.9937 -7.03859 -3.03278 0.82712 -0.333209
511 2.24764 -3.27639 -7.24592 -0.31092 -1.66784 1.23488
472 4.78976 -4.02976 -7.19034 0.84766 -0.916227 0.121852
515 3.8601 -3.136 -7.03245 1.17984 -0.481755 0.265527
473 6.31763 -4.66024 -8.10597 1.40379 1.26016 -0.0925788
471 5.7102 -4.80714 -7.07637 -0.616843 0.315729 -1.95188
470 5.53939 -4.01123 -7.78298 1.968 0.440221 -2.27748
476 6.47358 -3.9727 -7.12652 -0.409739 0.213044 0.557496
521 6.50603 -3.18312 -8.09478 1.5563 2.37094 -2.60345
519 5.39248 -3.21581 -7.18766 1.2341 -0.157064 -0.80409
474 7.15213 -3.91961 -8.07139 1.24398 1.14662 2.8759
475 7.04458 -4.81874 -7.32552 -0.350522 1.07724 -0.0427875
477 7.89931 -4.87528 -7.86575 1.13719 -1.78422 -0.537895
480 7.76797 -3.93436 -7.2412 0.503411 0.675033 2.29482
525 8.02115 -3.13495 -7.99097 -0.598462 0.227489 2.03287
479 8.73274 -4.56355 -7.14998 -0.249293 0.455813 0.197727
436 9.35906 -3.8138 -7.09933 -0.828466 0.233741 -0.272471
527 8.59083 -3.10442 -7.15406 -1.83248 -2.6779 0.689418
529 9.24765 -1.53579 -7.9855 -1.02302 -0.64873 -1.01186
531 -8.85883 -1.46108 -7.23966 -1.69908 2.15994 -1.50005
817 9.45811 -1.49607 -6.36724 0.729709 -0.733032 0.134777
487 -7.32488 -3.24755 -7.07903 -2.60359 -1.11676 -1.00452
488 -8.0969 -2.33194 -7.1731 -3.11113 -0.660555 -0.2665
774 -7.28272 -2.36772 -6.44789 1.77476 0.23439 1.19451
821 -7.96292 -1.53985 -6.4009 0.547405 -0.561176 0.140293
537 -6.47918 -1.66239 -7.9184 0.407182 0.979326 -0.838287
492 -6.52384 -2.48623 -7.12167 -0.205827 1.55387 0.318886
495 -3.91881 -3.39524 -7.0778 1.9008 1.45856 0.236729
496 -4.79945 -2.54323 -7.26087 0.0942328 0.141782 1.51476
543 -4.06257 -1.63399 -7.20863 0.463673 0.884704 1.32179
829 -4.71073 -1.54609 -6.52439 0.473903 -0.312257 1.46773
499 -2.45941 -3.33615 -7.26133 1.30444 -0.910214 1.33327
498 -2.08414 -2.40632 -8.07097 0.172273 -0.684252 -1.29644
500 -3.10225 -2.58012 -7.2242 2.62474 -0.818765 0.116034
547 -2.38886 -1.83084 -7.14909 2.3512 -0.92449 -1.18341
785 -3.28507 -3.5557 -6.38372 0.422925 0.392489 -0.165236
786 -2.55487 -2.57135 -6.37329 1.66165 0.77061 -0.63631
502 -0.61351 -2.37922 -7.853 -0.0862521 0.0387129 0.16103
501 -1.5511 -3.53074 -8.07988 -0.262979 -1.05924 -2.57622
504 -1.55285 -2.39544 -7.03539 0.185988 0.478558 -0.712346
789 -1.67085 -3.35479 -6.44537 0.795864 2.27141 -0.127011
553 0.185259 -1.61743 -7.79471 -1.68228 0.392135 0.299838
551 -0.757479 -1.41517 -7.12326 0.163963 0.495168 -2.97255
508 -0.0262028 -2.23071 -7.00282 -1.08575 -0.620486 -0.0908814
794 0.681169 -2.26609 -6.27161 -1.61551 2.01122 0.458926
790 -0.862878 -2.27585 -6.23326 -0.784812 0.12714 0.0700623
506 0.813629 -2.52222 -7.87439 -2.46889 0.474099 1.66841
512 1.56244 -2.33305 -7.05288 0.374385 0.524405 0.970837
845 1.73823 -1.30943 -6.29868 1.32908 -0.134058 0.764393
555 1.01335 -1.52811 -6.82974 -0.538501 -1.4445 1.72137
561 3.13315 -1.57465 -8.09738 0.26207 0.428097 0.643479
516 2.90154 -2.38942 -7.3038 -0.0821888 1.60477 1.30466
559 2.59139 -1.36241 -7.24312 3.70893 1.69668 -1.75544
798 2.42036 -2.33847 -6.33452 -3.70802 1.00013 0.168103