ITEM: TIMESTEP
131000
ITEM: NUMBER OF ATOMS
6912
ITEM: BOX BOUNDS pp pp pp
-9.5244063118091962e+00 9.5244063118091962e+00
-9.5244063118091962e+00 9.5244063118091962e+00
-9.5244063118091962e+00 9.5244063118091962e+00
ITEM: ATOMS id x y z vx vy vz
57 -9.01681 -8.53537 -8.48219 0.242494 -0.210052 0.679137
101 -8.36093 -7.86103 -7.91498 -0.969061 1.02431 0.427038
1199 -9.51265 -9.25001 -4.06432 1.76665 -0.96024 0.941626
3296 -0.654949 -6.28111 -8.7731 1.04491 0.314419 2.18468
298 -8.1112 -9.04853 -8.29448 -2.19022 -0.883147 -0.044542
59 -7.40628 -8.95239 -9.10528 -0.650363 0.418776 -0.300528
633 -7.03107 -8.50678 -8.3993 1.50022 -2.90106 1.44985
346 -6.33686 -8.05177 -9.49781 -1.39195 0.416486 0.769003
870 -5.82274 -8.2359 -8.05689 -0.515036 -1.82238 -1.54816
61 -5.41036 -7.5394 -9.40665 -0.0317281 -1.16183 1.46444
3011 3.55275 -4.80452 -8.92297 -0.871456 2.96202 0.171372
58 -5.56655 -8.54013 -9.20764 -1.33877 0.912823 -0.141916
279 5.97237 -0.405321 -9.0115 -0.604194 0.981582 0.370636
3184 -4.14756 -8.54893 -8.23461 -1.62997 -0.78929 1.03992
3710 -4.09452 -9.01555 -9.27374 1.0183 0.170325 -1.71724
308 -3.3931 -9.0549 -8.53115 0.787163 -0.0931371 0.510845
689 -2.38765 -9.33624 -9.1058 0.371293 -0.578965 -1.25912
406 -3.14515 -7.8356 -8.09779 -0.770192 2.3619 -0.243465
302 -2.95619 -8.23413 -9.06091 1.47285 -1.01319 -1.06949
878 -4.88994 -9.43482 -6.58 2.11198 -1.78222 -2.53931
28 -1.47729 -9.04515 -8.95704 -0.930371 -0.857048 -1.81133
286 -8.49356 -2.02987 -9.2936 -0.964837 2.46919 -0.682775
317 -0.574557 -8.71913 -8.81845 0.112914 -0.772807 3.0236
174 2.6368 -4.54527 -9.18512 1.13908 -0.707117 -1.44816
361 0.321528 -8.3784 -7.91111 1.26365 -1.86296 -0.50226
312 0.0380052 -9.29867 -8.36155 0.735618 0.301 2.95323
3200 1.05963 -9.1764 -9.37937 1.11151 1.02321 1.05976
362 0.394467 -8.52811 -8.91402 -0.138945 -1.85523 0.225863
319 1.78677 -8.52954 -8.92364 1.04412 0.994739 1.43093
3271 -8.56933 -6.20733 -9.31805 1.90816 1.12224 2.58012
321 3.39871 -8.42006 -8.48093 1.97955 -2.24458 -0.684738
568 7.25839 -0.103443 -7.26578 -0.675376 -1.91599 -1.58494
413 2.22994 -8.95118 -8.08066 -0.92998 -0.773212 1.50279
35 3.81739 -9.20971 -9.02103 3.91996 -0.236207 -0.903736
37 4.70544 -8.7271 -9.39426 0.0500066 1.29762 -0.882218
1183 2.49062 -9.30087 -3.13376 1.1002 -0.308201 0.327109
39 5.25096 -9.16791 -8.66606 0.157291 1.28362 0.160392
3212 6.2678 -8.73006 -8.44911 -1.17183 -0.727012 -1.05282
613 5.19512 -7.89816 -8.07103 0.7902 1.99527 0.794082
91 7.08888 -8.12731 -8.10589 2.62388 -1.31559 1.40592
814 7.23512 -1.66048 -9.41274 -0.431286 0.288898 -1.50227
89 7.35325 -9.01916 -8.41903 -2.12861 0.160318 2.00274
93 8.29964 -9.40912 -8.74483 0.118107 -1.81848 -0.827878
14 -5.13945 -8.95373 -8.1435 0.233761 1.13048 -1.86133
483 8.97629 -8.77338 -8.40701 -2.62863 -0.604684 -1.48384
8 9.50083 -8.83075 -9.50328 -0.843845 -1.27266 -0.327665
536 -8.62721 -0.193042 -5.23835 -1.4627 -0.666974 0.638454
3307 -9.4425 -7.83035 -7.84895 1.02359 1.97208 0.792832
102 -8.85329 -7.56305 -8.81345 0.620145 -0.428901 0.619314
3318 -8.62707 -6.62329 -8.48423 -0.843026 -0.403557 3.52939
60 -7.89057 -8.02559 -8.71168 0.419918 1.2725 1.0644
634 -6.30147 -7.48015 -7.73752 -2.14347 0.774262 0.611329
630 -6.81304 -6.69653 -8.12548 1.55983 -0.427464 -2.28327
3225 -7.74989 -6.56824 -8.91857 -2.86743 -2.0149 0.633214
3232 -6.33248 -6.64464 -9.2114 0.0925262 0.601209 0.0185502
396 -6.8795 -7.46777 -8.82673 -0.0450711 0.832634 -0.48212
356 -5.75689 -7.23991 -8.56563 -2.48328 1.62423 -0.152726
631 -4.84647 -6.90685 -8.95244 0.887333 -0.75208 -2.84323
684 -4.98169 -8.00803 -8.51664 -1.64566 0.598549 0.304507
158 -3.88892 -6.47368 -8.65873 -0.162066 -0.202851 0.132749
350 -4.01823 -7.62981 -8.74555 0.918321 0.592118 -1.9384
3358 6.96603 -3.56849 -9.50629 0.669209 0.521898 -1.17733
24 -2.39969 -8.69088 -8.16605 -1.47705 -2.3575 -1.26093
4086 -7.45973 -0.121904 -6.98445 -0.512349 -2.6869 0.414901
748 -3.03387 -6.93123 -8.39109 -1.73823 1.44013 0.799523
4682 1.75202 -0.115641 -2.86569 -3.80563 -0.330786 -1.58178
165 -2.21103 -7.49237 -8.39391 -1.22576 -0.95761 1.56395
124 -0.780142 -7.19702 -8.92143 2.68444 -0.803605 0.495737
642 -1.33123 -7.93645 -8.57216 0.0965839 2.52146 -1.61964
119 -1.53217 -6.79063 -8.52851 -0.334966 -0.69271 -0.99958
310 -0.0813072 -7.77106 -8.59267 -0.409536 -1.71076 0.0138811
127 0.551922 -7.03818 -8.95598 -0.402265 1.27188 -2.16622
411 1.41138 -7.64498 -8.71146 -1.41335 0.088443 -0.208304
417 1.1023 -6.1748 -9.44116 -1.85162 -0.120043 0.265427
3761 -3.93625 -0.248142 -8.10419 0.920409 -0.986575 0.138588
370 2.97766 -7.29448 -9.19188 1.44087 -0.129479 -0.672844
128 3.40081 -6.37291 -8.51647 -0.258058 -0.614119 0.0770121
5425 -9.47195 -9.25755 -0.261297 2.10048 -1.79012 -0.485872
945 2.43586 -7.92116 -8.32134 -2.1281 1.23048 -2.2126
372 3.66008 -7.38113 -8.27319 0.815166 2.4184 -0.845412
80 2.43344 -6.44791 -8.87187 1.11376 1.20061 -0.520555
326 5.05265 -7.23839 -9.01365 -0.286436 0.599316 -2.66221
323 4.39271 -7.88039 -8.78097 2.53256 -0.16851 0.580769
661 4.5673 -7.01912 -8.11486 0.929176 -2.54072 -0.0702492
421 3.97297 -6.9605 -9.16284 1.59305 -0.504328 -1.52422
38 5.60657 -8.10488 -8.98887 0.922838 2.2895 -1.8699
3259 6.051 -7.20831 -8.9575 -1.34754 -1.67206 -2.31216
34 6.17198 -7.83837 -8.10271 -0.301552 -0.566834 1.22192
335 -9.19366 -9.25522 -6.67716 -0.398126 1.13612 -1.91845
3264 6.81072 -8.01619 -9.08367 -0.757914 -0.429106 -0.0714364
429 7.00298 -7.19215 -8.64294 0.307714 0.740745 -2.16379
144 7.7222 -7.75829 -9.2768 -1.43208 -0.975239 -0.738781
2980 7.70605 -6.49477 -9.1656 0.613985 0.170189 2.35811
484 9.38878 -6.86438 -8.33517 0.934599 0.987805 0.0173843
53 8.14044 -8.08459 -8.46991 1.16484 -1.26715 -2.01675
477 8.2625 -7.07006 -8.60895 0.219712 0.158241 0.93353
3217 9.0825 -7.82898 -8.74551 0.223802 0.0437506 -1.53882
152 9.50231 -6.06213 -8.85102 -0.437308 -1.40727 0.935556
491 -9.19703 -5.08061 -8.43952 0.95355 -2.21473 -1.46177
193 -7.61112 -5.93523 -8.15694 -1.30681 -0.595711 0.610898
486 -8.42374 -5.38224 -7.966 1.66694 -0.0808271 1.42455
3361 -9.2162 -2.89223 -9.43219 0.887272 1.08859 -1.41544
443 -6.68128 -5.55047 -8.27114 -0.217845 -0.0870205 -0.176827
105 -5.43645 -5.03023 -8.48998 1.79515 -0.843352 -1.05623
342 -6.74803 -4.72784 -8.98682 -0.331095 2.26117 1.97644
393 -5.74673 -6.0829 -8.57323 -0.00496755 0.182654 1.27772
107 -4.77981 -5.733 -9.11288 -0.24068 1.02018 1.62812
449 -3.78555 -5.5661 -9.37993 2.48243 0.503091 -1.16342
690 -4.17114 -5.24036 -8.48556 -0.0221531 -0.0728113 0.171898
120 -2.82801 -6.13716 -8.99658 -0.64934 0.495294 2.51097
453 -3.20692 -5.41861 -8.40102 -0.492729 -0.362805 -1.68447
168 -2.40822 -5.09383 -8.89678 -0.838364 0.174857 1.7513
2014 7.48508 -1.36489 -0.593609 -3.21381 -1.43313 -2.87106
890 1.34357 -9.45772 -3.99032 0.81097 -0.0928279 -1.35565
459 -1.58996 -5.84443 -8.99742 -1.29726 1.615 -0.201904
457 -1.45407 -5.47807 -8.0304 0.815076 -0.638916 -0.363432
3335 -0.984814 -4.86258 -8.99552 0.60482 1.14108 -0.147947
702 0.38374 -6.14254 -8.4193 -1.31721 0.271652 -1.51636
123 -0.382382 -5.47374 -7.90087 -1.01122 -0.379961 1.98099
74 0.0246935 -4.53203 -8.67185 -0.725449 -0.0110854 -0.101366
126 0.236324 -5.48191 -9.14914 -1.63159 -1.08723 0.443904
461 1.05634 -4.65978 -8.89672 -2.75185 0.809078 0.679368
79 1.36059 -6.57559 -8.4486 2.38743 0.274405 -0.784319
122 2.08133 -5.45171 -8.98722 -0.584916 0.906074 -0.589526
180 2.93876 -5.40114 -8.50079 1.63598 -0.996941 -0.276837
228 3.09723 -4.19905 -8.14117 0.587186 2.40791 -2.01883
178 3.87392 -5.93027 -9.31761 -0.137135 0.445875 -0.928775
181 3.82405 -5.19726 -7.92921 1.73864 2.1036 0.163805
130 4.4407 -5.12177 -8.77645 0.852032 0.0183037 0.346527
414 4.35092 -6.01052 -8.43552 -1.36186 -0.482578 0.517545
577 7.98092 -9.23412 -3.60328 1.08841 0.570531 -1.39526
322 5.48176 -5.67799 -8.64247 0.294571 -3.07935 1.34883
185 6.44555 -5.38496 -8.85693 0.537094 0.436999 1.45684
136 5.43836 -4.62467 -8.35835 0.56259 -0.103566 2.00628
3213 7.45845 -8.74548 -9.51552 -1.30379 -1.21345 0.588446
3067 7.31171 -5.58059 -9.23754 -0.310851 2.32726 0.581683
384 7.26487 -6.07534 -8.35974 -2.23585 0.0239636 -0.325047
138 7.09734 -4.62614 -8.48795 1.3936 -1.30585 -1.6917
145 8.57384 -6.16835 -8.78413 -0.496964 -0.97106 0.863877
189 8.01972 -5.29848 -8.61506 -0.490182 1.44053 1.03103
3071 8.90219 -5.32639 -8.11013 -1.73904 -1.04915 0.73235
3023 8.95559 -5.19045 -9.18375 1.42579 1.20002 0.0909712
191 -9.34667 -4.10952 -8.72995 0.820145 0.430469 -0.920781
489 -8.36219 -4.29413 -8.8514 0.880114 1.55513 -1.08837
3821 1.86164 -0.114413 -6.79405 -0.889754 0.91601 -0.529021
3368 -7.64194 -4.90409 -8.55235 -0.84952 -0.793334 0.233536
3413 -7.64583 -3.47506 -8.94568 1.45301 -1.65252 1.07501
448 -7.13973 -2.82564 -7.8844 -0.00974929 -1.09634 0.833754
3360 -8.08335 -3.15771 -7.92575 0.86713 -0.87024 1.13888
4066 4.93115 -0.227357 -5.49094 -0.532825 -0.479044 0.113709
390 -6.02023 -4.15355 -8.40782 -0.115361 -0.627713 -0.719798
154 -6.98233 -3.81109 -8.2706 0.0452246 0.512935 -2.37336
402 -5.37551 -3.60656 -8.80416 2.34732 0.516969 3.13189
194 -6.56736 -4.59485 -7.78635 -0.908493 1.81896 2.31521
48 8.82306 -9.24885 -5.88626 0.483619 2.16135 1.73248
685 -4.07746 -3.93406 -8.93587 -0.673811 -0.842221 -1.28197
789 -3.51714 -3.32654 -7.48838 1.23511 -0.511556 0.870737
164 -3.92696 -4.19759 -7.99075 2.25286 1.09705 3.23771
404 -3.50927 -5.04626 -7.46548 0.45553 0.782421 -0.125811
503 -3.13072 -3.54675 -8.62089 -0.440808 -0.256615 -0.431858
733 -3.3423 -4.5843 -8.97888 0.30819 -0.729882 -0.0751254
793 -2.64892 -4.32237 -8.27812 -0.848926 -1.34069 3.03334
163 -2.33757 -3.72489 -9.30354 0.83967 -0.835793 -0.173779
169 -1.71642 -4.36083 -8.70759 1.139 -0.930696 -0.581357
454 -1.55824 -3.40724 -8.8048 -1.19332 1.64612 2.09748
170 -0.85892 -3.37243 -7.94901 0.0315518 1.356 -0.150123
410 -0.70274 -4.43361 -8.01792 0.421517 0.776281 0.439167
175 -0.649881 -3.8528 -9.01521 -1.54137 -1.24814 -1.37937
749 0.382194 -3.65189 -8.82546 -0.344138 0.548272 0.939206
224 1.45132 -3.71138 -8.55912 -0.0297706 1.22362 -0.551457
218 1.39832 -2.53825 -8.42147 -1.35344 -0.896117 -1.48528
446 -3.7915 -1.78839 -9.39695 -0.388918 0.366061 0.0803552
221 1.73745 -4.19232 -9.41921 -0.507039 0.340006 -2.09803
463 2.09104 -4.57912 -8.42836 -1.99882 -0.713435 1.95984
509 3.58264 -3.43751 -8.64975 -1.74722 0.232221 -0.58461
557 2.59671 -3.44199 -8.51929 -0.15412 0.66186 2.52044
183 4.2428 -4.40711 -7.20578 0.226089 -2.04427 -1.44471
187 4.46696 -4.18903 -8.18098 1.2639 0.282946 1.28074
229 4.33933 -4.19296 -9.17632 -1.47133 2.40081 0.609849
2050 5.3368 -8.68506 -0.00801986 -1.04129 -1.338 -0.548809
424 6.21253 -4.27444 -8.93323 0.479747 -1.07842 1.00948
521 5.53446 -3.46443 -7.8017 -0.803861 -0.60423 -0.236457
473 5.18508 -3.62902 -8.83665 -2.22395 -1.12465 0.21777
482 6.88362 -3.52571 -8.4159 1.07042 1.81454 -1.29717
3403 7.89131 -3.43297 -8.76372 0.340002 0.0411414 0.342263
3356 7.72779 -4.38638 -9.21839 0.776662 -0.488217 0.662792
522 9.22007 -4.34166 -7.92467 -0.403802 -0.377235 -2.18159
104 8.73773 -4.21925 -8.87577 -1.99212 0.448593 -0.566415
481 8.92916 -3.25155 -9.10071 -1.18703 -0.831734 -1.86117
196 -8.58344 -3.32712 -8.80278 0.405619 1.1427 -1.83031
3785 -8.58872 -2.21255 -8.20534 -0.122617 0.112002 -0.520532
575 -9.3599 -1.76269 -8.78768 -2.22057 -1.63259 0.0304429
247 -7.61679 -2.298 -8.74924 1.50672 -2.09429 -0.821112
155 -6.97796 -2.79844 -9.3393 0.629661 -1.36823 -1.02296
770 -6.62301 -2.07664 -8.42656 0.173175 -0.172722 0.597965
452 -6.36102 -3.17747 -8.69447 -0.400147 -1.57024 0.994257
447 -3.74924 -9.45776 -6.62982 1.98463 2.15094 -0.00571731
541 -5.44444 -2.41709 -8.48069 -0.666053 -0.988607 0.484025
497 -4.77784 -2.71352 -9.10004 -0.833154 -0.134749 -0.357301
495 -4.50092 -3.06753 -8.20864 1.97242 0.580723 -0.81571
737 -4.38923 -2.11145 -8.37929 -0.297351 -1.10788 -2.60798
499 -3.75265 -2.81738 -8.8858 1.26108 1.43922 -2.14077
504 -2.99023 -1.64953 -7.54575 1.23045 -0.578821 -1.08538
498 -3.35982 -1.82691 -8.45541 -1.0008 -1.36503 -2.65721
216 -2.35527 -2.64768 -9.02632 0.481079 1.05469 -0.470176
791 -3.13268 -2.55039 -7.94479 1.1263 -0.227855 1.11372
460 -0.41358 -2.88456 -8.66565 2.8199 0.876669 0.579303
263 -1.88783 -2.81198 -8.13804 -1.24318 0.637368 -2.51218
215 -1.36067 -2.41675 -8.99172 -1.0005 -0.192978 0.559218
3340 0.356777 -2.34745 -8.94115 -0.876532 1.10505 1.3166
265 -0.515835 -1.8921 -8.61417 -0.219455 -1.70277 1.58244
746 0.379166 -2.88121 -8.04494 2.15591 0.29485 -0.224011
458 -0.619606 -2.39155 -7.64258 0.150239 0.210831 -0.0800713
430 8.96232 -6.84258 -9.36183 2.14914 0.266558 2.10448
512 0.51156 -1.92959 -7.97564 -0.358944 -0.714622 0.0450736
271 2.47917 -2.50992 -8.86382 -2.12807 -0.491052 1.10495
219 2.59436 -1.92826 -8.09476 0.0424463 1.2509 -2.91026
559 3.40936 -1.64749 -8.49511 1.132 1.09032 -0.73279
517 3.37655 -2.85223 -9.35868 2.34092 0.552549 -0.641976
184 3.25773 -2.71503 -7.95028 -2.02014 1.98846 0.674167
223 4.15321 -2.27101 -9.18881 1.97364 1.62333 -0.304007
470 4.59425 -3.14831 -8.11265 0.542681 -0.54846 3.09949
518 4.88219 -1.70856 -8.72998 0.00190389 0.210758 0.601893
1095 4.20631 -2.20456 -8.12353 1.19047 1.14283 0.678086
1974 -6.05261 -0.0602426 -0.652152 -1.15231 1.78137 -0.102346
231 5.32626 -2.42941 -9.37968 0.491531 -1.54338 1.16219
705 1.82291 -7.04585 -9.50276 1.31111 1.10729 -0.125413
527 7.38363 -2.63096 -8.71502 -1.4099 1.2719 0.975082
813 5.89946 -3.07645 -8.62149 1.15787 -1.33865 -0.74012
281 6.9946 -1.74032 -8.42817 1.49123 0.184143 1.05354
3323 -5.5421 -4.38612 -9.32218 0.257011 -0.582559 -1.23043
576 9.49695 -2.34364 -7.82109 -0.806052 -0.798996 -0.982037
238 8.1708 -2.58762 -9.16868 -1.27757 -0.403099 -1.613
535 -8.55843 -1.15708 -8.28449 1.14809 -0.463449 1.28583
287 -8.84134 -0.242589 -8.21074 0.633426 0.922198 0.0100073
284 9.45214 -0.82676 -7.65611 0.756054 1.59444 0.389763
3410 -8.62093 -0.804018 -9.37418 1.12009 0.588194 1.38299
779 -6.82023 -0.997526 -8.36225 -0.356291 -1.55808 -1.07154
200 -7.62318 -1.25159 -9.05018 1.38779 0.625985 -0.198434
6636 -8.03244 -0.109861 -8.95784 -0.133103 0.695837 0.408204
1194 7.93648 -8.98334 -0.9587 0.598281 -0.038007 1.92845
3754 -6.07695 -0.308899 -6.63776 0.472348 0.0391241 0.587662
496 -5.39771 -0.732024 -9.10425 1.23937 -0.924063 0.41637
3465 -5.97607 -1.42095 -8.77537 0.825999 2.16103 0.0499548
4634 0.102633 -0.0274253 -4.73405 1.2306 -0.285091 -0.340121
251 -5.09834 -1.69636 -9.13304 0.0768936 -1.02746 0.103008
3757 -5.10421 -1.32138 -8.20064 -1.50203 1.37171 0.838448
259 -4.31278 -1.07476 -8.7593 -1.42569 -1.20237 -0.646719
835 -3.99092 -1.30309 -7.86403 1.04968 -1.37423 0.275948
1699 -2.77036 -1.26299 -0.0816656 -0.0121197 1.17416 -0.213449
257 -2.93986 -0.861666 -7.99202 1.99093 0.0716672 0.336031
3473 -2.90393 -1.00053 -9.0841 -1.15327 0.550564 1.35051
1853 1.45684 -7.6205 -0.0873614 -1.86866 1.32388 0.313986
456 -2.38232 -1.7036 -8.4987 -0.473309 0.116815 1.22795
3479 -1.05608 -1.04685 -8.49772 -1.3701 -1.20697 -1.06236
1727 -9.49885 -1.12421 -1.50614 -1.53632 1.52012 0.426564
3475 -2.00459 -0.453558 -8.58877 0.234743 -0.122807 0.579127
217 0.286879 -1.27506 -8.72629 -1.37464 0.367343 0.0591023
837 0.127697 -0.440606 -7.95117 -0.935227 -2.13138 1.53329
3436 -0.297553 -0.613926 -9.14474 1.54728 -1.41387 1.33978
1983 -3.48 -3.08129 -0.446277 -1.33395 2.14993 -2.28215
268 1.10603 -0.244594 -8.67896 -0.527333 1.17631 -0.462042
267 1.59732 -1.48603 -8.516 0.964482 -0.872576 2.99655
3487 2.12507 -0.602416 -8.55334 -2.08177 1.76751 2.74201
3392 1.2815 -3.1515 -9.48777 -0.351602 0.904601 -1.10309
558 3.24012 -0.690945 -8.58877 1.3174 0.871428 2.22099
270 2.07496 -1.01204 -7.55746 -0.302932 -0.41092 0.924695
3396 2.87006 -1.60649 -9.33612 -0.61555 -0.146643 -1.4078
808 4.25584 -1.11305 -8.0843 -0.278452 -0.1731 -2.19919
275 3.95094 -1.0642 -9.15311 -0.353228 -0.408827 0.890075
232 4.8994 -0.589703 -9.02341 -0.461278 2.05368 -0.691854
3491 4.17487 -0.220032 -8.51782 1.48881 -0.307738 -1.66265
562 5.1816 -0.504022 -8.05011 1.59529 -0.969207 -0.991915
283 5.69952 -1.26547 -8.42442 1.31948 -1.4178 -0.352915
4921 0.818597 -0.361913 -2.52267 0.878303 0.308589 0.187095
1442 -8.6583 -9.42547 -0.718172 1.07029 -0.879535 -0.871822
3547 7.79555 -0.304448 -8.97699 -2.27054 -2.02451 0.290335
3455 7.95222 -1.67951 -8.72081 1.24786 0.53555 -0.147636
3451 6.94387 -0.882614 -8.79832 0.259756 -1.34843 -0.0510056
572 7.66292 -0.862917 -8.00954 -0.180562 -0.511451 -3.16565
3257 6.55979 -9.22755 -9.16352 1.97441 -0.480911 0.359581
3499 8.58878 -0.612861 -8.36416 -0.131047 0.0724902 -0.829733
256 -6.59606 -0.541784 -9.40483 0.349872 0.376377 -0.344781
3498 8.81389 -1.58523 -8.23199 0.174279 -1.09676 1.29474
6669 -9.46124 -0.736395 -8.80356 0.908856 -0.0446286 -1.92074
3790 -8.73919 -0.1454 -6.32898 -1.7636 -0.905246 0.043258
51 -8.59447 -8.68494 -7.50139 0.805539 -0.480428 -1.92215
56 -8.1929 -7.62597 -6.90753 0.843563 -0.441977 0.0550506
99 -8.04089 -9.35881 -6.51297 -0.158424 0.314312 0.987252
291 -7.55817 -8.70659 -7.615 2.99238 0.158834 -3.46959
296 -8.81567 -8.31282 -6.67593 1.41545 1.29138 0.679576
11 -6.81295 -9.48558 -8.07468 1.98071 0.666396 1.60155
295 -7.33498 -7.77177 -7.60169 1.08276 -0.75967 0.605258
348 -7.43486 -8.37074 -6.63315 0.110764 0.538021 -0.0957018
921 -6.52843 -8.5689 -7.21569 -0.505309 0.59295 -0.558288
1929 -6.40461 -2.70482 -0.0918041 0.938155 -1.02478 1.67721
12 -5.62122 -7.93176 -7.02406 0.0910361 0.588644 -1.45252
593 -5.5249 -9.00419 -7.15283 1.03676 -1.63845 -0.0938501
600 -4.75012 -8.07755 -7.44558 1.50265 1.51005 -0.398935
352 -3.67833 -8.18473 -7.38411 -0.0427048 -0.982916 1.53453
349 -4.44928 -9.00433 -7.35138 0.160974 0.298875 -0.725635
4573 -4.22129 -8.34479 -6.64435 -1.20357 1.07597 0.777203
643 -3.175 -8.98973 -7.47582 -0.420299 -1.48622 -0.636424
403 -2.44133 -8.04389 -7.34699 0.437072 -1.27804 -0.320991
597 -2.27051 -9.4568 -7.47279 -0.642712 0.983247 -1.54701
641 -1.43533 -8.73113 -6.96923 2.0642 0.611884 0.0793174
309 -1.45293 -7.79628 -7.41042 0.923749 2.02422 -0.348629
605 -1.22454 -8.88223 -7.99372 2.09082 0.162962 -3.81406
4290 -0.635008 -8.18099 -6.68224 -0.0168574 -1.54442 -0.382609
881 -1.65811 -8.005 -6.28917 -1.55806 -2.10918 0.52692
646 -0.609633 -8.20178 -7.82365 1.17246 0.0224073 -1.73863
320 0.392729 -8.99929 -6.82451 -1.74786 2.39586 0.409435
4006 -0.40884 -9.24758 -7.53712 -2.06998 -0.414457 -2.89793
4856 -6.60871 -7.72669 -0.144814 -0.252041 -0.365033 -2.40154
415 1.36438 -8.93891 -7.30464 1.03641 0.795643 0.00697193
659 1.1028 -9.10339 -8.27255 -1.27267 0.913118 -0.0227043
359 1.34563 -8.09235 -7.70403 -1.35175 -1.80026 -0.313644
6643 -2.97715 -0.0645208 -9.32162 -0.0630255 -0.396887 -0.118095
650 2.69663 -8.85344 -7.20595 -0.276773 -2.50934 -2.35359
366 3.29917 -8.1359 -7.34343 0.59112 -1.00704 0.393411
609 3.47419 -9.11324 -7.65883 -0.477091 1.82214 1.71345
4311 5.49494 -9.39534 -6.76812 -0.865682 -0.341208 0.911789
4305 3.63586 -9.09483 -6.6827 1.50278 -0.866986 0.0435048
658 4.41329 -8.88007 -8.22219 -1.21013 3.21206 -1.08735
902 4.88571 -8.40679 -6.91209 -1.71744 -1.65781 -1.3668
610 4.26552 -8.06238 -7.68493 0.41185 -0.807285 -0.862495
4312 5.38656 -8.87125 -7.60794 0.59982 0.200055 -0.360247
44 6.57683 -8.89662 -7.39841 0.924491 -0.667916 0.520193
328 7.5832 -9.35814 -7.08877 -0.668255 -1.69327 0.418581
42 8.26024 -8.88321 -6.70455 0.84764 0.166071 -1.18027
665 6.76115 -7.92452 -6.91047 -0.215519 1.21561 -1.07979
95 7.80991 -8.12208 -7.50416 0.864697 0.796839 -0.0548891
261 -1.70908 -1.41181 -9.07244 2.08218 -1.53855 0.626933
341 8.83792 -8.48014 -7.47435 1.80892 -0.795427 0.582094
142 8.55038 -7.67425 -6.29375 1.43106 1.65698 -0.812804
47 8.20971 -9.16231 -7.80177 -0.238765 -0.774184 0.646052
1797 -1.05869 -8.04247 -0.199234 -0.90245 -1.47859 -1.58556
382 9.29981 -6.73511 -6.60371 -0.813386 -2.50768 0.353617
488 -9.1042 -6.96277 -7.40257 -1.56499 -1.68438 1.32133
1013 -8.23618 -6.79577 -6.59132 -0.00183105 -0.186429 -2.04046
582 -6.94816 -6.03938 -7.36419 2.13108 1.40216 -0.568617
590 -7.82982 -6.9529 -7.94183 -3.50852 1.29979 0.74846
679 -7.26139 -6.89262 -7.01538 -0.132862 1.80753 0.865315
731 -6.76579 -6.40971 -6.20199 2.19751 0.457981 -0.0953073
683 -5.71267 -6.66432 -7.47107 0.267392 -1.70853 -0.558995
637 -4.92076 -7.06324 -7.91881 -0.127591 2.53186 -0.698516
68 -3.93451 -7.2094 -7.78755 -0.169558 0.510422 0.367382
880 -3.82607 -7.34274 -6.71036 0.549084 1.5513 -0.592569
640 -4.20261 -6.37654 -7.02855 1.58503 -1.98822 -2.36316
687 -3.23854 -6.65642 -6.44984 -0.445509 1.76507 1.56511
360 -3.00232 -7.06957 -7.34141 2.28452 0.937686 0.751468
932 -2.68109 -6.14501 -7.17265 0.304364 -0.641783 -0.796176
399 -2.89911 -7.65346 -6.48538 -0.321851 1.19178 0.489128
929 -2.0169 -7.01524 -6.40718 0.0192897 -0.92162 -0.326269
693 -1.94418 -6.93666 -7.54692 -1.11967 -1.08397 3.43321
741 -0.738143 -7.11547 -7.19658 -1.67126 3.44094 -0.0984531
930 -1.26555 -6.38908 -6.55502 -0.383715 0.862135 1.4865
363 0.107017 -7.71591 -7.15163 1.14214 0.388463 -1.45963
695 -0.283384 -6.97 -8.0776 1.52825 1.34691 -1.52599
698 0.762138 -7.42493 -8.02225 1.31673 0.800593 -0.670319
987 0.237426 -6.53914 -7.27068 1.2967 -1.11446 -0.0401352
697 1.01852 -8.05301 -6.64876 1.33201 3.67931 1.53012
655 1.25715 -7.28692 -7.09803 3.61309 -0.4782 -0.368499
990 2.41562 -6.66044 -6.61604 1.1622 0.241773 1.44126
753 2.03646 -7.13518 -7.90358 -0.760238 0.0345307 -0.0786149
897 2.26506 -7.8612 -7.19531 -0.57038 3.39715 -0.38495
519 3.06098 -7.14699 -7.52501 -1.04947 -0.200737 2.03218
1041 3.92348 -7.26375 -7.2112 0.586941 2.37686 0.853709
660 3.53845 -6.33543 -6.43413 0.641505 1.69947 2.55936
375 5.08242 -7.26299 -7.11422 -0.874304 2.19655 0.23655
1186 5.87159 -8.09131 -7.18149 -0.883624 -0.333311 2.20822
371 5.60182 -7.03715 -7.91717 0.0387149 0.799122 0.83988
711 5.95557 -7.14814 -6.75382 -0.530502 -0.324078 -0.136116
377 6.64682 -7.06647 -7.6467 -1.05118 -1.39673 1.00599
327 7.58581 -7.33659 -6.72483 0.167733 0.575483 1.46358
90 7.65365 -6.89426 -7.85712 -0.915591 -0.164785 0.46248
87 7.09717 -6.27435 -7.02718 -1.72829 2.18452 0.796487
3311 8.58555 -7.4814 -7.44662 -0.235692 -0.0349887 0.898389
433 9.40782 -7.73356 -6.86138 -2.72303 2.5092 0.770735
529 8.24172 -6.61905 -6.85394 -1.45804 0.987982 1.97944
722 -9.37188 -5.99825 -7.82483 -0.60526 0.463074 0.419315
434 -8.47259 -5.07625 -7.05622 0.400756 0.63885 1.71891
440 -9.23449 -5.79407 -6.68222 0.313185 1.09517 1.17661
192 -9.51588 -5.03674 -7.25274 0.72286 -2.51997 0.627951
775 -8.42945 -6.22576 -7.4742 -0.710514 -0.808142 0.661965
531 -7.46183 -5.14135 -7.5379 1.06405 -1.23268 1.67807
729 -7.78077 -5.77378 -6.79216 -1.30177 0.109238 -0.231947
1542 -5.12174 -5.9678 -6.87028 -0.514129 -1.63047 0.570428
395 -6.61707 -5.18337 -6.94774 -2.48392 -1.52432 2.77612
445 -5.84969 -5.63631 -7.55272 0.325534 1.46163 0.518333
160 -5.98001 -5.71796 -6.20467 -0.166389 -0.319009 -2.26589
682 -4.80512 -6.04292 -7.97685 1.00252 -0.396705 -1.41764
408 -4.42599 -5.32166 -7.5155 -0.143454 -0.0763447 0.497271
76 -3.50284 -6.12601 -7.79452 -2.12475 1.33032 -1.94558
691 -3.39083 -5.61449 -6.63392 0.290249 -1.61051 0.725654
412 -2.54381 -5.09607 -6.69262 1.35054 0.922429 -0.930599
1040 -2.30309 -5.07147 -7.60014 -0.342865 -1.35355 -1.07833
455 -2.34546 -6.04005 -8.16494 -0.0433582 0.317089 -1.32903
364 -1.72561 -5.78531 -7.12805 0.222375 -2.17469 0.323208
790 -1.39989 -4.75191 -7.12285 0.260609 0.77803 -1.4572
745 -1.14157 -6.35574 -7.67865 0.218082 1.14997 -0.614413
694 -0.745849 -5.43727 -6.77123 -1.44391 -0.522517 -0.237747
654 0.490746 -5.55148 -7.40332 3.36833 -1.53607 1.22286
172 -0.140124 -4.58737 -7.21711 0.86116 2.21163 -0.493342
1566 0.234 -5.42712 -6.31037 -0.786109 2.0992 -0.558013
368 1.24782 -5.64731 -8.20536 -0.92708 -0.599955 -2.84802
416 2.25734 -6.11544 -7.97412 1.08031 2.41815 -1.60014
751 1.18052 -6.287 -7.33844 -0.608363 0.29935 -0.237474
462 1.8653 -5.20782 -7.55617 0.4999 -0.540271 0.158955
465 2.7878 -4.99843 -7.52345 -1.10299 0.350918 0.941904
708 1.98384 -5.85704 -6.68969 0.11897 -0.911917 0.60536
132 3.11283 -5.96837 -7.28302 -0.545312 0.625924 0.762073
750 2.27303 -4.64603 -6.67347 -0.259719 0.597814 0.618896
761 3.20898 -5.21218 -6.6541 0.33717 0.352791 0.289995
467 4.74345 -5.25438 -7.87741 -1.08016 0.630435 -0.687335
420 3.99032 -6.33417 -7.5671 -2.21575 -0.37645 -0.150833
469 4.19695 -5.50992 -7.01547 -1.03921 0.852353 -3.6497
376 5.18882 -6.2202 -7.58822 0.797627 -0.114405 -0.167688
668 4.71773 -6.38493 -6.64019 1.10456 -1.17767 1.1067
614 6.08288 -6.17577 -7.06293 -0.661063 -1.55384 -0.076003
662 5.38714 -5.34847 -6.75243 -0.112592 1.91526 -0.296841
419 5.86326 -5.33626 -7.65165 -1.21502 -0.227314 0.184573
88 6.28468 -6.36132 -8.27767 -1.99117 -0.170639 1.26103
139 7.03984 -5.15521 -7.69704 2.65179 2.05435 1.61857
383 8.07168 -5.882 -6.17263 1.06008 -1.02788 -0.64792
427 7.57841 -5.26342 -6.81085 2.97899 -0.550484 -0.372334
378 6.52823 -5.32715 -6.76754 -0.0973585 -1.66611 -0.00444253
478 7.83665 -5.74338 -7.62248 0.611477 0.919977 -0.257491
147 8.65217 -6.43393 -7.74734 -2.24333 -0.804667 1.00996
143 8.41272 -4.996 -7.3432 -0.647203 -0.914797 -2.03346
1010 8.87598 -4.95597 -6.3833 -2.90438 0.735455 0.239217
3453 -8.72426 -4.25023 -7.97531 0.743261 1.62996 -1.6826
156 -9.14665 -3.95882 -7.05629 -0.427741 0.44817 -3.06785
436 9.2078 -3.39861 -7.70745 -0.589503 -2.76846 -0.272595
151 -8.85319 -2.76582 -7.34903 -1.81989 -0.151106 0.376539
392 -8.18328 -4.06407 -6.97676 -0.518092 1.25866 -1.35779
442 -7.69896 -4.21751 -7.69295 -1.92487 -0.0132936 1.06474
825 -6.9436 -4.08779 -6.81604 -0.404214 2.41994 0.0337571
490 -7.59479 -3.32182 -7.10297 0.154231 -0.44862 -0.793358
3320 -5.88907 -4.0597 -7.13505 1.91029 0.148713 -1.55283
539 -5.43354 -3.31567 -7.85251 0.311562 -1.38446 -0.893395
441 -5.60792 -3.36116 -6.43467 -2.24898 -0.224706 0.692582
829 -6.50247 -3.40733 -7.55416 -1.01024 0.0833205 -1.16339
444 -6.21008 -4.61679 -6.15439 -1.16022 -1.13471 -0.844831
394 -4.98533 -4.34954 -7.69277 0.414663 1.82159 0.506993
451 -4.00981 -4.13946 -7.02829 -1.02637 1.03766 2.96141
773 -4.63206 -3.45795 -7.31583 -0.809898 -0.132408 0.228274
922 -2.95378 -4.23929 -7.04518 1.28001 0.171718 1.77038
500 -3.55087 -3.45193 -6.48109 1.22965 -1.30772 -2.04613
734 -2.51018 -3.37242 -7.47367 0.103022 -1.11075 -0.850588
167 -1.69512 -3.97258 -7.78377 -2.41513 0.882641 -0.352266
988 -1.96287 -4.27316 -6.44188 -1.05049 -0.197907 0.424001
220 -0.785769 -3.88087 -7.1053 1.55199 -0.540538 3.0224
1033 0.022117 -3.74819 -7.94993 -2.2957 -0.445159 0.213526
796 -0.949512 -4.38378 -6.25651 0.471109 -2.75118 -0.662128
795 0.608494 -3.89567 -7.112 -1.5099 -1.47251 -2.51427
464 0.744634 -4.79394 -7.94556 -1.28574 0.250952 1.43842
799 1.21844 -5.25755 -6.81298 -0.501646 -1.07547 0.119904
507 1.20613 -3.09152 -7.41734 1.8786 -0.490345 -2.16989
841 1.51327 -4.10551 -7.54161 0.180257 1.42969 0.248759
1039 2.53133 -3.69368 -6.06802 -2.07892 -0.198719 0.162416
466 3.74859 -3.62184 -7.46835 3.39159 -0.0478813 -2.11632
468 2.61514 -3.97177 -7.30484 -2.97549 1.253 -0.329582
1138 3.40871 -4.17385 -6.60436 0.011816 1.15429 1.72023
807 4.68343 -4.53916 -6.33509 -0.476638 -0.277823 -0.715341
706 4.73164 -3.56803 -6.99211 1.08675 0.929635 2.75081
1054 5.63459 -4.51844 -6.26229 -1.52935 -0.754866 1.20896
140 5.20913 -2.82586 -6.23963 1.26356 0.215986 -1.06836
92 6.26257 -4.34901 -7.93699 -1.69079 0.739596 0.420451
474 5.29611 -4.50585 -7.25169 -1.37184 0.492371 -1.37726
520 5.87517 -3.56442 -6.67982 -0.795532 -0.72458 -1.76346
714 6.33175 -4.39664 -6.94039 1.15329 -0.71331 1.3209
236 6.55657 -3.38671 -7.3978 -1.76631 2.86749 0.565718
528 5.63584 -2.48186 -7.18343 -0.322527 0.302654 0.254831
188 7.24188 -4.125 -7.5064 -2.09681 -1.7057 -1.67549
471 7.03154 -3.75053 -6.47894 1.96742 1.63629 0.771588
861 7.55008 -3.14065 -7.81513 -0.751004 -0.0212279 -0.0895567
3316 8.11009 -4.37707 -8.12678 -2.52727 1.46308 -0.354732
721 8.26874 -3.03282 -6.37382 -0.614971 0.886685 0.819408
240 8.95589 -4.11897 -6.91778 0.592137 1.25505 -0.829714
234 9.35477 -3.22682 -6.61419 -1.42977 -0.612701 -0.186544
573 8.2045 -3.54887 -7.25055 -1.0851 -2.65826 1.38406
725 -9.38349 -2.29523 -6.51272 1.37015 -1.7159 1.57052
244 -8.85141 -1.81695 -7.22518 -1.03707 0.518935 -0.522588
493 -6.85179 -1.97762 -7.37017 -1.66365 0.246076 2.12343
195 -7.90623 -2.36718 -7.34196 2.20745 2.12177 2.2608
4333 -6.95974 -2.70569 -6.73734 0.0339882 1.7126 0.746687
1063 -7.92152 -2.35053 -6.32263 -0.311774 1.03244 -0.539695
777 -6.02398 -2.50773 -7.5238 1.12239 -1.34988 -0.926788
202 -5.91945 -1.55821 -7.6399 0.0673773 -1.30574 -0.580699
827 -5.18243 -2.7011 -7.01625 1.41267 1.07613 1.605
4043 -6.02585 -2.52474 -6.3892 0.969501 -0.70872 1.13005
782 -4.11873 -2.55722 -7.37567 -1.01739 0.966016 -0.274875
544 -4.73435 -1.82593 -7.37577 0.618581 -0.655251 -0.271183
686 -4.22147 -2.56229 -6.35608 1.60312 -1.18899 -1.2128
203 -4.23371 -1.70988 -5.56288 1.13066 -1.44157 -0.242501
781 -3.01642 -2.65345 -6.74874 1.65801 -1.88711 2.1021
4049 -3.41007 -2.2017 -5.88267 0.747396 -1.02894 1.5822
547 -2.04492 -2.3019 -7.21563 2.0956 -1.69462 -1.79251
549 -3.78065 -1.76475 -6.97129 -0.481553 -2.58697 -0.954332
3767 -1.45328 -1.83306 -8.0525 0.846024 0.892373 1.64351
550 -1.4672 -3.08349 -7.07052 -2.65303 0.301526 1.2457
508 -2.08486 -2.59859 -6.26413 0.19181 -0.206125 -1.10887
553 -0.480755 -1.3107 -7.70554 -1.03133 -1.23419 0.849806
794 0.895979 -3.11038 -6.37958 -1.2606 -0.580555 0.639399
551 -0.22174 -1.8214 -6.91145 2.17196 -0.246351 0.930074
839 -0.00411318 -3.13974 -7.19364 -0.899953 0.556447 -0.241064
506 0.531407 -1.41623 -6.25492 -1.39124 1.37578 -0.458941
272 2.28313 -2.85172 -7.59115 -0.365611 -0.927561 -1.04319
801 0.845373 -2.17969 -6.8421 -0.443143 -0.524466 0.239618
560 1.52978 -1.95259 -7.47797 -1.16479 -1.2806 1.25336
805 1.85846 -2.79418 -6.72685 -0.55808 -0.488483 0.732928
554 2.59511 -1.86861 -6.93835 -1.13705 -1.17809 -0.806679
555 2.24077 -2.46729 -5.9445 1.31834 -0.32206 -0.712486
511 2.85639 -2.99605 -6.74855 1.04738 -1.27525 -0.564514
516 3.32627 -1.36183 -7.52429 0.120138 0.0246641 1.11856