ITEM: TIMESTEP
133000
ITEM: NUMBER OF ATOMS
6912
ITEM: BOX BOUNDS pp pp pp
-9.5244063118091962e+00 9.5244063118091962e+00
-9.5244063118091962e+00 9.5244063118091962e+00
-9.5244063118091962e+00 9.5244063118091962e+00
ITEM: ATOMS id x y z vx vy vz
57 -8.9701 -8.44367 -8.71391 1.17804 0.151138 1.50865
60 -7.98988 -8.10526 -8.19432 -0.718291 -1.08877 -0.538154
581 -9.06154 -8.60528 -7.70858 0.78038 -1.47056 1.08192
446 -4.59824 -2.21492 -9.15536 -2.56554 -0.497279 0.751569
232 5.16334 -0.694057 -9.46445 1.52068 -1.00143 -0.0208564
4693 5.41513 -0.00951122 -1.58491 0.333539 0.617468 -0.0311322
633 -5.9882 -8.4875 -8.96006 -1.27213 -1.42575 3.09587
870 -5.49249 -8.68046 -7.83467 0.0920524 1.01098 0.583777
58 -4.88852 -8.4301 -8.80415 -1.23323 -0.919783 0.357403
221 1.46967 -4.4075 -9.30194 -1.24999 -3.17616 -1.12231
14 -4.4947 -9.01036 -7.88138 -1.16967 -0.0637404 -2.49537
3184 -3.96134 -8.17857 -8.49703 0.0902704 0.33571 -3.20121
3710 -4.18352 -8.95874 -9.20498 -1.05703 0.73504 0.203777
4066 5.00179 -0.332627 -5.43045 -0.535011 -0.887566 0.964042
308 -3.22529 -8.77892 -8.79878 0.351881 -0.482983 -1.29575
3431 -0.802703 -1.62893 -9.20323 -1.67206 1.06232 -0.148831
24 -2.52422 -8.21743 -8.19746 0.315134 1.20943 1.59488
357 -2.42279 -8.43727 -9.4145 1.04975 1.82325 -1.23312
3344 -0.575199 -2.9464 -9.28619 -2.59265 2.21002 2.35565
605 -1.59969 -8.8164 -8.46825 -2.07762 -0.614555 -1.52838
646 -0.513458 -8.30784 -7.31086 -0.618242 0.22415 1.69563
317 -0.714177 -8.35674 -8.4409 2.15406 0.335561 -0.285686
312 0.216825 -8.93946 -8.77341 2.21721 2.18951 0.278741
3200 0.814355 -9.31486 -9.44223 -1.51999 -1.035 -0.332534
361 0.371582 -8.17591 -8.07131 0.445258 2.49144 -0.462384
362 1.08388 -8.3597 -8.88184 -1.21174 -1.4797 0.995188
319 2.09396 -8.94404 -8.70055 0.368188 -2.15473 1.84895
659 1.13542 -9.16883 -8.32728 0.543653 -0.939674 -1.4028
945 1.72324 -7.92082 -8.08404 -1.71821 0.15736 2.26042
321 3.45288 -8.4231 -8.5924 -1.93127 0.845467 1.3201
413 2.87098 -9.03347 -8.03901 -1.2262 0.424486 -1.46593
30 2.94059 -9.21757 -9.29752 1.15949 -0.629439 1.27014
1707 0.381406 -0.281614 -2.1845 -1.09298 1.34043 0.263943
658 4.21513 -9.04685 -8.25969 1.58947 -2.86163 -1.73171
323 4.54317 -7.63236 -9.06348 -0.0975723 0.0208345 0.727072
37 4.85158 -8.76192 -8.94067 0.157616 -1.70166 0.720718
39 5.72156 -8.31469 -8.59162 -1.43534 1.14813 0.550203
3212 6.88718 -8.22714 -8.56341 1.05248 0.395334 -0.347743
4312 5.13949 -8.89285 -7.95767 -1.54418 -0.660354 1.3395
89 7.57271 -8.73469 -9.00575 0.523504 -1.82637 0.989382
6672 -9.09419 -0.347885 -9.4933 -1.2552 1.57334 -1.78617
546 -3.93616 -0.0601598 -6.14031 0.890935 0.575283 0.185347
483 9.40872 -9.14624 -8.64319 0.157423 -0.214336 -1.82617
53 7.69076 -8.07641 -7.9576 -0.150145 -0.1994 2.14026
3220 8.41059 -8.06523 -9.10254 1.87372 -1.10096 0.693929
47 8.27511 -8.95556 -8.09466 0.100844 -0.0107663 1.37397
3307 9.09049 -8.1525 -8.15013 1.99405 -1.18941 -0.270865
102 -8.57927 -7.60642 -9.14148 -0.895293 0.962135 -0.13417
3318 -8.40242 -6.08322 -8.53755 -1.19905 -3.20177 0.683152
152 -9.22725 -6.77191 -8.35647 -1.22009 -0.057309 -3.83273
101 -8.94476 -7.64836 -8.0127 -1.09662 0.477921 0.701504
3225 -7.69277 -7.71997 -9.48555 0.153591 -0.239282 -1.53169
396 -6.33404 -7.22939 -8.96928 0.91915 -0.925967 -3.19785
295 -7.09001 -7.43369 -8.33287 0.278103 -2.00383 0.0477281
61 -5.44035 -7.56843 -9.39218 0.356257 1.15393 -0.531401
356 -5.81071 -7.6613 -8.23776 -0.697269 0.041142 -0.54134
393 -5.44526 -6.72557 -8.60699 -1.10264 2.52196 1.38508
684 -4.86387 -8.02801 -7.71293 0.858584 0.00226353 1.42341
583 -4.45908 -9.27163 -5.12573 -1.439 0.406913 0.247949
631 -4.70885 -7.4504 -8.5772 -0.606475 0.102621 -0.151118
68 -4.30411 -6.98379 -7.71349 0.929864 0.0346437 1.02549
302 -3.29174 -7.90891 -9.21858 -0.0580207 -0.611535 1.9644
350 -3.84814 -7.02829 -9.11841 -1.02171 -0.0508194 1.02259
406 -3.34105 -7.38442 -8.38955 -0.460726 -0.73518 -1.00081
748 -2.70376 -6.64398 -8.32293 -1.30822 0.518092 -1.38497
165 -2.0366 -7.32257 -7.34668 1.38563 0.529154 4.19482
120 -2.47986 -7.32777 -8.9835 -1.30723 -2.95086 2.13937
642 -1.24104 -7.55183 -8.94168 -0.0727288 1.58853 -1.12966
119 -1.85773 -6.49334 -8.71703 0.85266 -0.329774 -2.23551
35 3.89687 -9.17851 -9.28113 1.88279 -0.609038 0.22466
310 1.06344 -7.42477 -7.26317 -0.75125 0.0598027 -0.921435
127 0.327513 -6.54676 -8.44871 0.172833 0.456973 0.0540632
695 0.0448404 -7.23323 -7.63849 0.261069 1.14505 0.132012
2944 -6.95242 -8.19673 -8.89289 -1.24952 -0.856925 0.896761
253 -4.40879 -0.094096 -9.2263 -2.56138 -1.1814 0.584309
1858 2.16323 -8.12041 -0.175006 -0.247589 0.831188 -0.220087
698 0.941987 -7.31662 -8.2614 0.864783 -0.257163 0.552463
36 2.58981 -8.01013 -9.03461 0.814236 2.05063 0.310985
370 3.62222 -7.70977 -9.26017 0.863948 -0.0800542 -0.648809
372 2.63233 -7.08831 -8.52996 -0.867146 0.40134 -0.142591
753 1.75151 -7.2091 -9.08092 -0.5005 -0.674781 -1.07871
326 4.7565 -6.76007 -8.7704 0.407074 0.259815 1.03305
421 3.75758 -6.93408 -8.55858 0.854597 -0.411915 0.800834
5434 -2.7661 -9.35775 -2.5185 -0.420622 0.964178 -1.11392
242 8.53744 -0.00502713 -7.32363 -0.474125 0.066427 -0.17354
38 5.40393 -7.4396 -8.2211 -1.30502 0.207854 -0.857775
3259 6.40541 -7.384 -8.81949 -0.19229 1.43257 0.753585
88 6.07556 -6.6686 -8.06262 2.93383 0.233238 -2.05248
429 7.09686 -7.09945 -8.17995 -0.205199 -1.7918 -1.08627
144 7.98812 -7.33582 -8.63613 1.59503 0.454654 -0.738356
2980 7.69282 -6.45307 -8.76764 -0.968206 0.864964 -0.672334
90 7.9646 -6.80874 -7.64939 -0.349601 -1.67807 1.18975
3206 7.32519 -7.35965 -9.33316 0.561383 0.325589 1.81172
477 8.88708 -7.01456 -8.17491 -0.498113 1.25934 0.297277
3217 9.45623 -7.64307 -8.97078 -0.405337 2.72879 0.249711
430 8.84306 -6.80869 -9.16428 0.68548 -0.278315 0.248283
491 -9.37716 -5.79671 -8.76961 -0.25541 -0.508369 -0.863205
492 -7.49352 -3.61095 -9.15507 -1.21903 2.02396 -0.2571
775 -8.83416 -5.61799 -7.83321 0.864425 0.0139107 -1.61605
193 -7.62225 -6.24329 -7.91621 0.700989 -1.24394 -0.0767361
443 -7.41685 -5.50457 -8.72094 -1.40154 -0.327565 1.20298
3368 -8.68129 -5.12031 -8.82091 -2.36724 0.972519 1.28129
55 -8.38868 -9.50078 -8.79371 2.697 -0.068699 -1.43827
630 -6.50426 -6.26594 -9.18303 -1.72233 -1.84941 -0.630267
105 -5.72156 -5.46465 -8.80648 -0.5854 -2.0372 -0.190697
5215 2.73285 -0.028014 -0.775996 0.0593107 1.41392 1.09314
342 -6.43263 -5.01441 -9.41512 -1.26403 -3.69049 0.652913
107 -4.27796 -5.92025 -9.40265 0.0644883 2.61 -1.73154
690 -4.68174 -5.50379 -8.48511 2.70286 -0.186264 0.326962
682 -4.28102 -5.9063 -7.43747 0.820268 0.472105 0.985812
3323 -4.96531 -4.95775 -9.43715 0.594793 -0.944597 -0.741856
239 -8.26262 -4.44809 -9.3986 1.107 -0.766296 -3.36038
158 -3.26186 -6.174 -9.29689 2.10334 -0.665622 -1.78624
453 -3.34661 -5.2471 -8.8719 0.141176 -2.55998 0.915925
4121 7.7263 -0.165072 -4.86295 1.05837 0.579909 -2.48905
455 -2.29643 -5.7056 -8.41367 0.327049 -0.138685 0.355355
459 -1.43215 -5.63568 -9.23417 -1.02396 -1.09277 -0.783339
457 -1.44022 -5.62538 -8.035 0.402182 0.691957 -0.315074
1040 -2.30507 -5.03435 -9.13285 3.11916 -1.86037 -0.790157
3335 -0.402887 -4.87814 -8.8884 1.23602 -1.41345 -0.211668
3296 -0.591007 -5.97604 -8.82666 -0.00787972 0.28008 0.0770328
3300 2.51124 -5.45675 -8.9644 -1.04397 -0.617168 0.375331
417 1.01228 -6.54035 -9.16696 -1.26743 -0.342057 0.720538
368 0.400544 -5.65811 -9.02709 1.24266 -0.677308 0.965225
122 1.97539 -6.28076 -9.4435 0.586738 -0.118789 -0.877759
751 1.39664 -5.80112 -8.60135 1.60961 -1.89829 -1.17409
128 3.5426 -6.0107 -8.12955 -1.11818 0.4823 -2.23199
80 2.94591 -6.95276 -9.42365 -0.068749 -0.477287 -4.82836
180 2.91942 -4.55463 -8.39676 -1.26533 0.542138 0.166531
174 1.7401 -4.92721 -8.44641 -0.999862 -2.33722 0.46021
178 3.80516 -5.14554 -8.83392 0.467342 -0.430737 0.92999
130 4.33921 -4.41606 -9.26687 -1.7733 -0.869554 2.04512
414 4.46509 -5.95232 -8.2677 1.58938 -0.785046 -1.68424
322 5.46609 -5.80067 -8.63861 0.461062 -0.657307 -0.902004
3308 6.11433 -5.04481 -8.87357 1.1163 -2.78938 -0.345185
467 4.86178 -4.9614 -8.4718 0.083701 -1.23411 -3.83694
185 6.12064 -5.68675 -7.92096 0.162234 0.413094 1.07458
86 6.62993 -6.11488 -8.78583 0.188157 -3.58359 -1.86739
3067 7.4854 -5.50761 -9.0646 0.574739 -0.266615 0.7018
384 7.23431 -5.90468 -8.08834 0.0750719 -0.916531 1.49055
189 8.05808 -5.15664 -8.09824 -1.2442 0.761252 1.36381
145 8.53416 -6.04359 -7.90644 3.71104 0.990028 -1.05824
3023 8.59123 -5.70799 -8.92009 -2.08651 -0.380136 0.206935
192 9.16301 -5.18203 -7.58746 1.1698 0.58825 -1.41245
486 -8.88306 -4.5922 -7.93442 2.36114 0.75333 -0.135349
191 9.07337 -4.77956 -8.61107 1.80916 -0.0145444 1.30067
489 -9.13147 -4.18221 -8.93055 0.702161 -0.86289 0.214371
196 9.50385 -3.34251 -9.13666 -0.655067 -2.37872 1.04743
3453 9.47012 -3.83701 -7.97801 0.209174 0.176244 -0.971076
3360 -8.56359 -3.52704 -7.76325 -1.02642 -1.95582 -1.14381
3413 -8.04682 -3.98468 -8.46002 -2.66832 -1.50795 0.981128
154 -7.08685 -4.52706 -8.66715 0.259813 -0.246204 2.44921
448 -7.69615 -3.0668 -7.66496 0.851691 0.494273 1.48238
4907 -4.40084 -1.21424 -0.279512 -0.141897 0.865206 0.0170699
390 -6.03489 -4.48835 -8.6595 0.937914 0.122861 0.385543
452 -7.04906 -3.63847 -8.06589 -1.87379 -0.793418 -1.32775
402 -5.16677 -3.79651 -8.652 -0.365221 0.0931352 1.23479
206 -4.90153 -1.25365 -9.38651 -1.68499 0.797754 0.487478
164 -4.27711 -4.58062 -8.84892 0.840853 0.342964 -2.8307
503 -3.272 -3.34537 -8.87304 0.867394 0.138319 -0.702989
1872 7.35294 -4.88168 -0.0424443 -0.729752 0.930481 0.372744
793 -2.54447 -4.85286 -7.87284 0.420061 0.3708 0.24211
163 -2.97052 -4.38777 -8.64497 -0.0789203 0.145914 1.19601
1938 -2.81229 -2.41811 -0.227798 0.586205 -0.600522 -1.08152
169 -1.6744 -4.5182 -8.41778 0.0924508 -0.594603 1.09534
454 -1.59303 -3.77458 -9.02289 1.74986 -0.323114 0.376384
167 -2.4203 -3.56241 -8.15535 0.143534 -1.8449 1.58656
74 -0.87008 -4.62127 -7.83957 -0.0471513 0.951313 0.442416
175 -0.290351 -3.86342 -9.06578 -0.637717 0.875989 -2.0414
749 0.218829 -3.0703 -8.71242 -1.24621 -0.868753 -2.211
1033 -0.598764 -3.66023 -8.08412 -2.17183 0.0267377 -1.89541
461 0.532523 -3.84092 -7.96811 -1.90464 1.26849 1.56295
224 1.46089 -3.95922 -8.14843 -1.38671 1.32126 1.1685
463 0.616117 -4.75246 -8.56241 -0.52655 -1.16281 1.54673
3011 3.60786 -3.76878 -8.63451 1.62414 -1.24807 -0.636123
557 2.84583 -3.5612 -7.99945 0.762703 0.199444 0.559199
227 2.14136 -3.80976 -8.8075 -2.32114 -2.74476 -1.34423
509 3.61978 -2.98257 -7.58217 -0.155865 1.03641 -0.71086
229 4.62558 -3.91603 -8.20897 1.56522 -0.180189 -1.54852
136 5.39476 -4.18721 -8.79485 -1.17956 -0.484215 0.678399
1383 6.56985 -3.88266 -0.14003 -1.18466 0.481713 1.32417
1226 0.391885 -9.41203 -3.10537 1.7226 3.27386 0.07436
521 5.64766 -3.62868 -7.86194 -0.60724 -1.84215 2.58402
138 6.95219 -4.95774 -8.26784 -0.131048 1.39319 -0.53363
482 6.46651 -3.83544 -8.57372 -0.0505348 0.568851 0.664393
685 -4.77739 -3.9578 -9.485 -0.698197 0.98449 -0.873763
3316 7.28613 -4.06551 -8.08234 0.24525 -0.469918 0.753107
3356 8.08998 -4.52732 -8.83059 -0.386797 1.2423 2.03209
365 0.280235 -7.8384 -9.14127 -3.37223 -0.977084 -0.295678
104 8.72903 -3.86898 -8.65405 -2.44225 0.246492 -0.0882746
4808 -7.87357 -9.47044 -3.50087 3.67957 0.128005 -0.609492
3785 -9.1327 -2.80312 -8.30991 -2.62332 -1.76824 2.42414
575 -9.38351 -2.29137 -9.11044 2.31759 -0.581343 -0.513684
247 -8.08699 -2.90315 -8.62125 2.10903 0.706185 -1.34001
155 -7.50301 -2.4381 -9.43346 0.294902 -0.96459 0.0715494
770 -7.13311 -2.46891 -8.36288 -0.480546 0.271098 1.08696
3036 -6.86984 -1.21414 -9.04703 -0.32048 -1.27721 0.0692315
541 -6.15023 -2.66563 -8.35608 -0.892451 0.269916 -0.209106
251 -6.51637 -2.18153 -9.15292 -0.590797 0.338292 -0.589192
3465 -6.27402 -1.52284 -8.16534 0.722745 3.77034 -3.07879
208 -6.40748 -3.54136 -8.87413 0.902379 2.53005 0.332407
497 -5.50403 -2.9638 -9.1329 -0.795339 -2.48508 0.136011
495 -5.17047 -2.92255 -7.8581 -0.282239 0.744042 0.696709
737 -4.42712 -1.96294 -8.2359 -1.26564 -0.579673 -1.2339
499 -4.45292 -3.23149 -8.45853 -0.319316 -1.22697 -0.750054
216 -3.58793 -2.32102 -8.79658 0.770466 0.316721 0.0712424
456 -2.53551 -1.75715 -8.79847 -0.076467 0.514537 -2.222
263 -2.37247 -2.88451 -8.73707 3.06948 0.893648 -0.258303
791 -2.90168 -2.24964 -7.96098 -0.32525 0.695566 2.6901
1490 -8.24979 -9.16925 -1.78565 -1.15658 0.837286 0.146876
170 -1.44442 -3.05253 -8.27489 1.68155 0.0860085 -1.07171
215 -1.39691 -2.42551 -9.16314 0.88957 -0.0896231 1.04134
3767 -1.58957 -1.62821 -8.45642 0.612638 0.865749 0.657326
460 -0.540876 -2.30144 -8.44107 -0.256011 1.49088 0.452632
3340 0.521368 -2.27168 -9.20969 -0.149466 -1.17584 2.35007
265 0.0380597 -1.46475 -8.77535 1.678 -2.11711 0.127544
746 0.332048 -2.05837 -8.04048 -1.13115 2.30754 2.27119
217 1.20511 -1.2221 -9.24323 1.19718 0.174767 0.025646
3392 1.63096 -3.19664 -9.29382 0.199341 -0.595507 -1.6914
218 0.96201 -2.76554 -7.70922 -2.11139 0.856541 1.5001
267 1.28649 -1.92636 -8.46893 -2.02552 0.533221 -1.25364
3474 -2.87592 -0.0282381 -8.95028 -0.511927 -2.52622 0.165781
271 2.1413 -2.85256 -8.43413 0.0360901 -1.68638 0.280792
559 3.86008 -1.27007 -9.02501 0.15927 2.6916 3.5464
517 3.20187 -2.65569 -8.71689 1.88702 -1.31621 0.576154
570 4.20373 -3.03875 -8.71165 -0.456153 -1.80985 0.638132
223 4.65155 -1.9788 -8.61099 1.56957 0.497702 -0.857954
470 4.57985 -2.8551 -7.92226 2.26986 -0.59258 0.394531
473 5.2783 -3.19071 -8.79253 -0.0792412 -0.305511 -0.0563139
813 6.18198 -2.84113 -9.02321 0.629719 0.608909 -2.14519
3402 5.47808 -2.44767 -8.0518 -1.48175 -1.8973 0.754716
768 6.39999 -1.4551 -8.93562 0.588857 -1.42143 -0.342217
527 7.11819 -2.38618 -8.96882 -0.261067 0.437778 -0.97646
3252 -0.26119 -6.96779 -9.16184 -2.41706 0.324845 -0.684674
3760 -4.48588 -0.00767729 -4.31544 -1.89978 -1.62299 -0.819662
3498 8.95585 -1.59091 -8.69294 -2.24567 -0.162924 -0.451147
532 7.79506 -3.21491 -8.90204 0.989873 -0.323149 -0.495595
576 8.65248 -2.69392 -8.69386 0.49567 0.140401 0.300623
4600 5.76779 -9.52552 -4.48543 0.948622 -0.793705 0.647264
535 -8.7548 -1.88732 -8.44231 0.269181 -0.666609 -1.24903
3410 -9.11069 -1.25076 -9.04753 -1.53798 -1.80931 1.23032
533 -8.46541 -0.814076 -8.30726 -0.643031 -1.6057 -0.398205
1356 -7.84711 -0.0998213 -1.29162 2.14447 0.880296 -0.648965
779 -7.288 -0.871313 -8.20137 -0.0675189 2.1819 -1.38706
200 -7.82225 -1.76279 -8.78132 0.531719 -1.09567 0.115677
48 9.42067 -9.2997 -5.80628 -0.149841 -0.394374 -1.59664
496 -5.5662 -0.6473 -8.88839 1.33785 0.416875 0.949553
3757 -5.34798 -1.69988 -8.62087 0.520313 -2.23475 -2.07533
256 -7.06527 -0.18896 -8.88799 1.28577 0.146719 -0.149309
252 -6.36558 -0.502156 -8.37293 -0.10389 0.637848 -0.75771
545 -3.75443 -0.246606 -8.43405 -0.0449372 0.869075 -0.0299987
259 -4.30698 -1.05255 -8.60235 -0.974618 0.0507437 0.779855
3520 -4.92257 -0.756791 -7.77345 1.41218 -1.80686 0.278066
498 -3.31924 -1.15597 -8.43548 2.47119 -1.71714 0.176422
3761 -3.65016 -0.707243 -9.39525 0.935119 -1.09536 -0.0947801
1853 0.952894 -7.88769 -0.256255 1.40379 -0.854347 1.43128
3479 -0.816786 -0.886809 -8.4356 -1.19795 0.811904 1.05508
3475 -1.67292 -0.378975 -8.52499 2.13662 -1.48432 -0.575924
233 7.03745 -4.46977 -9.18657 0.693468 -0.373496 -1.97726
311 -0.990732 -9.41086 -9.28935 -1.71085 -1.58048 0.898879
3741 5.77266 -9.52332 -8.86993 -0.166008 -0.744665 0.527941
1576 5.59596 -4.01567 -0.130085 0.0574246 0.231703 0.207975
3224 -8.07412 -8.63081 -9.0994 2.73335 -0.842701 0.41189
512 1.04189 -0.897361 -8.32064 -1.92817 -1.46514 1.1315
3436 -0.492419 -0.713781 -9.30187 -0.608593 -0.010114 0.226008
837 0.0854716 -0.496055 -8.21592 1.25566 1.9693 0.574836
1406 -3.54069 -0.179149 -3.47754 -0.890664 -0.731336 -1.09898
268 0.636987 -0.298924 -9.1587 -1.41961 1.00888 2.09421
231 5.59811 -2.06374 -9.11542 -1.58601 -0.532788 -1.07313
847 2.03438 -1.11781 -8.582 -1.04711 1.2817 1.59465
3396 2.9002 -1.60904 -8.75545 -0.87897 1.00397 0.733271
3487 3.12809 -0.583933 -8.73524 -0.699054 2.94765 0.139675
83 5.54141 -7.75522 -9.49713 2.37956 -1.4477 0.751151
824 -7.94891 -0.231689 -3.91567 -0.399361 1.77979 -1.02698
3415 -7.75178 -0.744121 -9.3643 1.5499 -1.73419 0.23476
4859 -3.11162 -9.18068 -3.58574 0.03619 1.18107 1.92014
808 4.45333 -1.00164 -8.04686 -1.97258 -2.00922 -3.16997
4366 9.15864 -0.00355028 -3.66056 1.2297 -0.227229 0.835078
3491 5.17801 -0.176778 -8.38358 -1.19835 2.44241 1.37532
518 5.26952 -1.17049 -8.52461 0.21183 -0.35025 0.598285
4059 1.67988 -0.129164 -6.78758 -2.29264 -1.88381 1.59705
279 6.22577 -0.357633 -8.66299 0.891282 -0.322354 0.804354
283 6.08189 -1.03734 -7.91856 -0.236083 -1.95725 -0.13276
1548 -4.2267 -5.75296 -0.316843 0.462595 -1.18388 -1.48695
222 2.42188 -2.6022 -9.47939 1.80589 -0.52649 0.746995
281 7.06779 -1.59737 -8.13355 -0.504906 -0.965946 0.00417662
3455 7.8971 -1.74474 -9.00674 -0.512003 1.30183 0.00834455
572 7.6639 -1.56512 -7.24592 0.487063 -1.36732 1.87998
3449 7.29326 -0.832143 -9.06164 -2.4038 0.615246 0.873619
6669 9.11386 -0.630562 -9.11905 0.823545 0.543495 0.304015
3499 8.5408 -0.692515 -8.16836 2.1565 -0.847601 0.623776
6381 8.26513 -0.851125 -9.43739 0.940487 -0.776955 0.4052
1728 7.83805 -0.345857 -1.28109 0.241466 -0.611566 2.03373
335 -8.90581 -8.84905 -6.50015 -0.924351 0.836576 -1.14628
51 -8.07376 -8.30233 -7.10063 0.235328 -0.99702 1.05885
298 -7.12995 -8.25018 -7.72779 0.623227 0.364424 1.17115
11 -6.46547 -8.847 -8.06555 0.0516458 0.79971 1.1951
291 -7.32207 -8.91305 -6.76122 0.645006 -1.4002 -1.01404
921 -6.7324 -7.45093 -7.35906 -1.09333 -2.27964 -0.0760281
588 -6.26941 -8.76837 -6.9392 -0.00723563 1.79072 -0.0571221
593 -4.95457 -8.65193 -6.98292 -0.499518 -0.566892 -0.544513
176 0.772428 -3.7033 -9.10601 -0.858636 -0.250355 -0.664784
349 -3.52468 -8.04107 -7.54614 3.16783 0.431197 1.26637
4573 -5.32373 -8.09724 -6.01318 0.260472 0.0316481 -1.58716
878 -3.99558 -9.06706 -6.99817 1.28991 -0.0582804 -1.03013
447 -3.55408 -8.40404 -6.55243 -1.15314 -0.85165 0.45436
643 -3.02647 -8.96594 -7.42309 0.569776 -0.853573 0.774503
884 -2.3618 -9.2002 -6.66173 1.0327 1.22448 0.286981
1727 8.67416 -0.770796 -0.724122 -0.267591 0.706608 -0.571866
403 -1.65978 -8.18925 -7.59409 2.25801 -1.21845 -0.144629
597 -1.73001 -9.24307 -7.52125 -0.123831 1.54223 -0.288992
641 -1.21263 -8.83253 -6.6992 -0.743316 0.571349 0.33993
4290 -0.472326 -9.17676 -6.17334 3.20332 -0.421828 0.365386
4006 0.258063 -9.08562 -7.82928 0.602696 -0.866279 -0.180747
363 0.273781 -7.9795 -6.91574 -0.654021 -1.95239 0.700818
320 0.566323 -9.00291 -6.74883 -1.16377 -0.948425 -1.08598
415 1.90678 -9.42518 -7.64599 1.45143 -0.563622 -1.58523
359 1.12655 -8.42854 -7.37895 -0.0152364 0.695627 -0.404958
697 1.12858 -8.28543 -6.31521 1.91952 -1.52801 2.91855
897 2.12031 -8.48748 -7.35364 2.16297 -0.863958 -0.892866
650 2.67567 -9.28874 -6.91256 -0.431729 0.519677 0.368737
366 2.73976 -8.03527 -7.99209 -1.76697 1.10859 -3.30552
5425 -9.021 -8.76263 -0.260085 2.95662 1.58939 0.764794
898 2.92545 -8.37512 -6.68148 -0.432955 -1.86414 -0.132708
4305 3.66703 -9.17506 -6.8118 1.58707 2.66734 -0.920274
610 3.62665 -8.47477 -7.55499 -1.47443 -0.662254 2.71258
3173 -9.0204 -9.12612 -9.3785 0.289634 2.27415 0.308894
34 6.28824 -7.69338 -7.64507 -1.86662 -0.701347 -1.06005
4311 5.34779 -8.98087 -6.83478 -0.424087 0.52321 -1.78709
44 6.2429 -9.01108 -7.84288 0.222768 -0.61568 -0.684476
1186 5.42842 -7.98507 -7.28077 1.13523 -1.28575 3.03344
589 -5.22702 -9.36072 -8.55022 0.929638 -2.13397 0.729965
91 6.98104 -8.39509 -7.36932 -2.06466 -2.24701 -0.971931
328 7.38613 -9.24835 -7.54177 -0.39815 -1.07672 -0.222354
619 7.26184 -8.8113 -6.37007 0.993278 1.92539 1.52564
95 8.00704 -8.63573 -7.03565 0.364231 -0.954894 0.238176
341 9.1224 -8.69167 -7.21319 -0.032161 -0.570726 0.183522
910 8.77169 -8.66162 -5.99978 0.283112 -0.71104 1.96969
42 8.26682 -9.40661 -6.42751 -0.56712 -0.323575 0.215408
56 -8.45894 -6.64036 -6.45149 -0.878704 -1.43614 2.54944
488 -8.5915 -6.82068 -7.44969 -3.05552 0.533282 -0.788929
590 -8.11063 -7.03333 -8.39839 -1.36035 -0.135436 0.540709
382 -9.49826 -6.76775 -6.29443 2.03643 0.676374 -0.106213
348 -7.85625 -7.36412 -7.21253 -0.511942 0.337122 0.793656
679 -7.11969 -6.53838 -7.13071 0.515213 0.556544 0.979204
634 -7.43645 -6.68284 -9.02804 -1.26029 2.21324 -1.24066
345 -6.05395 -6.83068 -6.9383 1.24485 -0.799188 -0.296526
12 -5.67627 -7.92854 -7.11086 -1.36122 0.129862 -0.89362
683 -6.47666 -6.71305 -7.99442 -0.470968 1.59712 0.176908
1206 -5.32468 -7.05649 -6.0946 -1.29142 -0.429684 0.61435
637 -5.23992 -7.08123 -7.47443 1.54132 -0.00125962 2.27428
600 -4.30043 -7.79856 -6.93386 -1.50694 0.331702 -1.19726
880 -3.28061 -7.36849 -6.35569 0.533777 1.31748 0.0810384
640 -3.585 -5.90996 -6.74855 -0.541165 0.520477 2.27111
639 -4.20438 -6.74354 -6.64034 -0.404618 2.94823 1.66605
352 -2.59984 -8.15478 -7.0724 2.36443 -0.994549 -0.435748
687 -2.60495 -6.44606 -6.75804 -1.06904 0.334922 -0.894904
360 -3.31194 -6.93412 -7.41281 -0.800112 1.08297 1.15145
399 -1.45579 -8.15781 -6.01316 -0.740525 -0.458723 -0.869226
309 -0.882533 -7.52524 -7.81363 0.264611 -1.52243 1.84478
693 -1.70968 -6.32975 -7.4401 -1.00504 -0.473803 -1.19926
930 -0.897926 -6.67674 -7.04613 -0.0505897 -0.774915 0.180875
745 -0.772614 -6.58795 -8.16073 -0.84919 -1.70728 1.15301
702 1.09917 -6.45419 -7.55532 -1.29372 -0.909441 -2.32854
741 -1.03896 -7.65903 -6.78089 0.882233 -0.970803 0.735865
987 -0.0133372 -6.23014 -7.41514 0.154198 -0.867422 1.79999
939 -0.218633 -7.07728 -6.51669 2.28057 -2.10964 -1.68757
655 2.08791 -7.19961 -7.66181 0.506927 0.387959 -0.676935
990 1.92118 -7.73775 -6.71954 1.68258 -2.60634 1.39247
985 0.725882 -6.57966 -6.64899 1.20525 0.677715 2.22913
519 2.29648 -6.11999 -8.29698 0.41707 0.384037 -0.961403
420 2.86485 -6.5158 -7.66693 0.368838 -2.01464 0.353334
991 2.82304 -7.39283 -6.92916 2.19507 1.72996 0.896394
661 4.30433 -6.79738 -7.80317 -2.80986 1.95913 0.455798
613 4.36244 -8.03979 -8.0625 -1.77054 -1.09807 -0.284319
1041 3.49928 -7.33062 -7.62457 -0.0823901 0.0380303 -1.2023
375 4.50351 -7.48628 -6.99662 2.51821 0.67542 -1.46028
668 4.9719 -6.65302 -6.53861 0.410204 -1.15877 -0.0326389
371 5.2705 -6.70604 -7.48773 -1.14012 0.859727 0.0329083
711 5.81543 -7.14971 -6.81835 -0.284912 0.759794 -1.88377
614 5.86906 -6.14064 -6.74581 3.82944e-05 0.321559 -2.52138
665 6.62705 -7.87157 -6.57466 -0.935861 -0.497129 1.31154
377 7.26943 -7.34237 -7.26444 0.440229 -0.415701 2.37202
327 7.8842 -6.9114 -6.62857 0.280957 0.18603 0.727254
374 6.74059 -6.81367 -6.45917 -0.232616 0.396862 -0.594489
484 9.40238 -7.27736 -7.36963 0.00628985 0.197993 1.24485
3311 8.45231 -7.73671 -7.36706 -1.11316 0.354654 -1.10225
433 -9.17563 -8.00249 -6.92816 -0.835367 -1.37811 0.0124553
147 8.76341 -6.57766 -6.85196 -0.0289059 0.464851 -0.413574
1013 -7.89289 -5.92807 -7.02958 0.440399 -1.06253 -1.01771
722 -9.37419 -6.27379 -7.30154 -0.447913 0.45505 -0.593945
440 -8.99156 -5.81466 -6.49455 2.65384 -0.163521 1.8016
582 -6.67613 -5.78876 -8.23898 1.8096 -0.0779507 -0.539522
531 -8.47201 -4.99848 -7.01454 -0.799006 0.927305 0.669449
194 -7.13785 -5.26491 -7.28767 -1.25828 -2.28004 -0.423672
445 -5.33715 -6.04583 -7.74875 -0.187289 -0.862934 0.834988
3320 -5.99959 -5.22873 -7.67283 -0.413796 0.457064 -3.42444
160 -6.13307 -5.88199 -7.06502 -0.173192 0.370361 1.32269
1542 -5.12322 -6.29214 -6.81767 -2.13043 -1.26729 0.0445126
1350 -5.46516 -5.30253 -6.57029 -1.16046 -0.0862548 0.769216
408 -4.54845 -5.01298 -7.18678 -1.46067 0.0616625 1.04236
76 -3.8976 -6.28562 -8.40202 0.884782 -0.0662385 -0.355019
404 -3.72465 -5.16625 -7.92042 -1.23135 -0.85718 1.04491
932 -3.01345 -5.79882 -7.59058 -1.69671 0.0164055 -0.311477
691 -2.47883 -5.8809 -5.78089 0.353182 -0.49109 -1.41651
412 -2.91997 -5.17612 -6.59789 2.04195 -1.25878 1.25789
364 -2.11208 -5.41229 -7.18397 0.444639 1.58776 -0.181134
694 -0.822029 -5.56078 -7.25853 1.35418 -0.399088 0.941156
926 -1.72524 -6.06071 -6.49961 -1.88453 -0.326304 -1.56705
405 -0.151031 -6.03078 -6.04229 -0.724781 -0.649367 0.534712
123 -0.195665 -5.41305 -8.02006 0.321742 0.0193113 -0.570793
654 0.263504 -5.52775 -6.75708 1.1858 2.79229 0.892276
1566 0.416332 -4.52459 -6.46516 0.513552 1.99607 -1.53135
462 0.864718 -5.56593 -7.60165 -0.320709 -0.573707 0.560557
708 2.2924 -6.06474 -6.98972 0.599846 0.0493556 -0.0283089
799 1.43144 -5.60515 -6.83659 -0.883751 -0.240505 -0.00962442
750 2.16363 -4.93047 -6.74456 -0.0705793 0.770993 0.489931
416 2.1181 -5.33665 -7.69634 1.87351 1.06183 -0.531891
132 2.94345 -6.27397 -6.29765 -1.2793 -4.39464 0.127064
181 3.01545 -5.19157 -7.52249 -0.716244 0.157758 0.104589
469 3.57341 -6.07402 -7.048 0.948707 0.0442505 -0.109224
376 5.22492 -5.53469 -7.61366 -2.68268 1.36177 0.584043
183 4.00854 -5.29425 -7.73718 -1.73596 -0.88055 -2.37037
662 4.52021 -5.45596 -6.83477 -2.18419 -0.306437 -0.305849
419 5.70613 -5.09562 -6.9033 0.222997 -1.02112 0.276894
714 6.67197 -4.45324 -6.394 -0.108716 0.0034579 0.387818
378 6.7568 -5.78357 -6.46029 -1.21811 -0.0625227 0.588032
87 6.78887 -6.46073 -7.37105 -1.09832 -1.70972 1.85742
139 6.79099 -5.27434 -7.32864 0.867149 0.718921 -0.335624
427 7.4487 -5.0516 -6.0238 -0.190137 -0.75177 0.700477
478 7.62499 -5.97325 -7.01058 2.31872 2.49105 -1.64166
3071 8.27086 -5.22977 -6.94298 -0.480311 1.14227 -3.11581
434 -8.68445 -4.02451 -6.67361 0.353248 0.308315 0.781229
392 -9.24664 -3.19795 -7.0352 0.981384 0.133943 -1.09853
400 -7.41503 -4.18061 -6.45103 0.0945072 -0.0211695 0.810484
442 -7.96728 -5.23177 -7.9495 1.08066 -0.514759 1.69783
490 -7.7102 -4.17855 -7.55833 1.54285 -1.58427 -1.01257
825 -6.67742 -3.71927 -6.85858 1.72657 1.80109 -1.43223
539 -5.95358 -3.6914 -7.93696 0.0847935 0.0603702 2.25134
441 -5.60383 -2.8915 -6.81752 -0.47709 -0.429127 -0.150605
829 -6.72274 -4.51794 -7.65745 1.74798 -0.685942 -0.0651075
1019 -5.76076 -4.30015 -7.26064 -0.52592 0.142654 -0.452344
394 -5.17818 -4.63447 -8.09106 -1.25127 -0.106405 -1.56986
451 -3.67716 -4.45579 -7.18301 1.09238 -1.54782 -0.0389613
773 -4.87351 -3.93895 -7.53834 1.11204 -0.712451 0.323593
789 -3.81607 -2.76646 -7.84888 0.183114 -1.34438 2.71517
922 -3.82311 -3.99611 -8.10895 -2.32486 0.965764 0.22518
734 -3.28279 -3.44104 -7.22056 -1.62702 -1.69226 0.133387
410 -1.59169 -4.05352 -7.54532 1.59326 -0.172108 -1.34894
790 -2.63214 -4.1272 -6.94183 0.684382 -0.770264 2.21843
550 -2.11077 -3.22346 -7.20363 -0.517602 -0.923031 -1.46061
796 -0.702844 -4.72309 -6.68754 1.27605 -2.00851 0.421192
220 -0.852472 -2.60714 -7.36231 -0.284448 2.48512 0.927302
172 -0.741921 -3.76596 -7.12706 -1.23764 0.228546 0.384385
795 0.26278 -3.52477 -6.47699 0.0429071 2.48771 -1.22646
839 -0.00459545 -2.97043 -7.678 -0.0659077 -0.510705 -0.515849
464 0.146539 -4.69071 -7.45132 1.19543 -1.11839 0.823476
841 1.24186 -4.56562 -7.33332 -0.552912 2.51735 0.0889096
1083 1.91186 -4.01101 -6.74628 2.31467 0.366894 -1.18679
507 0.999143 -3.52458 -7.17462 1.64074 0.43243 -1.3297
465 2.43675 -4.33798 -7.54257 -1.89057 0.651131 0.719807
761 3.00024 -4.53364 -6.51109 -1.96394 0.492729 1.50297
468 3.01321 -3.52958 -6.97631 -0.482493 -0.409875 -1.68425
228 3.70022 -4.06318 -7.68782 -0.699287 1.7046 0.0427465
187 4.68678 -3.59135 -7.21784 -0.255933 -1.28448 1.36408
466 3.90304 -3.48024 -6.60897 -2.28524 0.0530304 2.24106
706 4.00583 -4.48415 -6.78472 -0.442436 -1.16607 -1.1333
92 6.19418 -4.599 -7.72773 0.793712 -0.220633 0.929142
474 5.0523 -4.55453 -7.44522 2.05616 -0.788713 0.161386
520 5.76505 -3.79386 -6.74765 1.49592 2.01472 -0.931422
143 7.46292 -4.62727 -6.97622 -1.47373 0.068286 -1.70331
188 6.84296 -3.84594 -7.16948 -0.922996 -0.215159 2.36583
471 6.58981 -3.398 -6.36686 -1.17772 -0.371852 1.52322
573 7.80496 -3.41731 -6.97392 -1.56887 -1.19834 -0.872039
522 8.37166 -4.22955 -7.76195 -0.626832 0.340787 0.829789
1010 8.38136 -4.29185 -6.67607 0.950997 0.765473 -0.142763
156 9.35452 -4.35474 -7.01425 -1.17161 0.332197 0.553725
436 8.12765 -3.26201 -7.88968 -0.626451 -0.428543 -2.11176
240 8.77838 -3.36912 -6.93159 0.346506 -1.47969 -0.865194
817 -7.97954 -1.97701 -7.67781 0.164231 -0.313549 -0.125608
244 -9.4695 -1.73521 -7.85224 1.78208 -0.27974 1.10036
195 -8.71172 -2.54484 -7.4256 -0.698111 -0.0656418 2.8283
435 -8.78858 -2.57703 -6.39487 1.96839 -0.32175 -1.44527
1063 -8.04817 -1.76481 -6.53467 -0.0363706 -0.95559 1.09353
493 -6.99214 -1.89703 -7.49183 2.30078 -1.12506 1.44538
4333 -7.38662 -2.44639 -6.75154 -0.823062 2.28496 -1.752
4330 -7.14699 -1.45017 -6.23507 2.02323 0.202402 0.0797657
777 -6.65655 -2.85533 -7.38003 0.846424 -0.0750762 0.827605
827 -5.64005 -2.0655 -7.62886 0.809247 1.02824 -0.94742
4043 -6.36345 -2.20103 -6.67844 -1.96564 -2.41057 -2.51813
3805 -5.4548 -1.93327 -6.42747 0.100577 -1.6332 0.426348
202 -6.21694 -1.31711 -7.16139 -1.6505 0.368951 -0.181495
544 -4.8798 -1.6538 -7.16484 0.263867 -0.0394776 -0.203944
686 -4.61675 -2.7726 -7.02519 0.0332461 0.0621902 0.455795
500 -3.99314 -3.56574 -6.6229 -2.27386 -0.652231 1.60227
782 -3.81938 -2.07798 -7.13247 0.568481 -1.45307 -1.1946
504 -2.82314 -1.3743 -7.43702 -0.73127 0.927452 2.18052
781 -2.8352 -2.46239 -6.99844 0.252809 -1.15265 0.445663
552 -2.12124 -1.59917 -6.69733 0.296906 -0.77872 1.50177
547 -1.81713 -2.31979 -7.72656 -0.153591 -0.91784 -0.986204
556 -1.08768 -1.62636 -6.64917 -0.243644 -0.0509411 1.99297
1129 -1.6714 -2.44237 -6.73642 -1.99259 -1.45565 0.215372
458 -0.971974 -1.65779 -7.69152 -0.331454 0.477628 -0.104143
551 -0.197586 -1.99683 -6.81566 2.40473 -1.74962 -0.128632
3773 0.790345 -1.71132 -7.10822 1.2518 -0.713725 -1.24957
801 0.705384 -2.71805 -6.69594 2.66709 1.52004 -0.2894
560 1.78518 -2.33761 -7.29124 1.1993 -0.188243 -0.482583
805 2.21503 -2.89048 -6.57751 0.810182 0.00806755 1.6127
272 1.98476 -3.32972 -7.56372 1.72214 1.18009 -0.670415
219 2.81173 -1.67636 -7.74076 1.58266 -0.751469 1.44863
184 2.69726 -2.59826 -7.67558 0.461947 2.62898 1.80969
554 2.48754 -1.95646 -6.62443 0.00127901 0.442444 1.60023
511 3.21428 -2.63832 -6.62356 3.00234 1.71399 0.394522
1095 4.02462 -1.99943 -7.89046 -1.42021 1.93055 0.854825
1050 3.60714 -1.68911 -6.56728 1.404 0.0300662 -1.51802