ITEM: TIMESTEP
24000
ITEM: NUMBER OF ATOMS
6912
ITEM: BOX BOUNDS pp pp pp
-9.5244063118091962e+00 9.5244063118091962e+00
-9.5244063118091962e+00 9.5244063118091962e+00
-9.5244063118091962e+00 9.5244063118091962e+00
ITEM: ATOMS id x y z vx vy vz
51 -8.84599 -7.92383 -8.70828 0.857271 -0.491461 -3.72694
290 -8.81772 -8.69801 -7.96038 -0.023011 1.74043 1.59371
5225 6.33547 -0.210238 -0.0367388 -0.000559366 -0.886552 0.388026
869 -7.86249 -9.49114 -4.81498 -2.18439 -3.07974 0.556792
8 -7.99091 -8.65226 -8.67923 -0.738707 0.0318858 -1.41381
55 -7.22931 -8.06519 -8.71208 -1.29225 -0.701158 0.230447
294 -7.26029 -8.6459 -7.92472 -1.4518 0.63274 -1.41298
4333 -4.61877 -0.03331 -4.83828 -0.443602 -0.246901 0.927978
12 -6.21149 -8.82857 -8.77779 0.534633 -1.1322 -0.222562
59 -5.69093 -7.9142 -8.84806 0.333831 1.37756 0.777739
345 -6.32855 -7.91102 -8.0678 1.42218 0.641262 1.09894
4919 -0.802769 -0.0844148 -0.719004 -1.24323 -0.929923 -3.13551
16 -4.7277 -8.75404 -8.59112 -0.557067 -0.96995 -0.59895
63 -3.94887 -7.80718 -8.70764 -0.42903 -1.64946 0.204064
349 -4.97209 -7.85345 -7.89301 -1.05212 -1.55154 2.10096
3 -8.72015 -9.47333 -8.75124 -1.91619 -1.56078 1.40463
302 -4.02975 -8.59453 -7.82607 -0.792431 0.638525 1.098
33 3.23238 -9.54368 -9.50689 0.159791 -3.24177 -0.370514
4625 -3.27253 -0.176651 -3.24807 0.922249 1.8776 -0.553186
20 -3.41557 -8.85006 -8.62162 -2.1647 0.0193639 0.880947
306 -2.54725 -8.66119 -7.91536 -1.58695 -1.48659 -0.144916
353 -3.17802 -7.8545 -7.88782 -0.556288 1.89065 1.37175
3779 3.8884 -0.0184862 -6.93704 -2.70639 0.563698 -0.327079
24 -1.56009 -8.74927 -8.77567 -1.38832 -0.750767 0.702223
357 -1.81493 -7.96565 -7.97264 -0.000517023 0.716773 -0.275401
310 -0.83121 -8.69302 -7.96338 -2.32486 1.68135 -2.00083
28 0.0107122 -8.9451 -8.74124 -0.528374 1.51081 0.962399
361 -0.0169612 -8.17425 -7.81094 -0.824436 0.605053 -0.323245
314 0.928277 -8.71089 -7.8701 2.50154 -0.693618 0.843469
5 -7.91798 -9.45377 -9.45193 -0.764574 -1.66247 -0.112476
75 0.518246 -7.97574 -8.80474 -0.64689 -1.75196 -0.745725
32 1.64141 -8.61894 -8.61929 -3.2196 2.08325 -0.48193
365 1.50804 -7.9117 -7.96592 0.928879 0.0549858 0.785626
1467 0.885551 -9.45964 -0.652066 -0.91682 1.05267 1.23991
36 3.18567 -8.90709 -8.70049 1.77078 -0.354936 -1.21695
79 2.4424 -7.85578 -8.74856 -0.108775 -1.20291 -0.838253
318 2.46818 -8.76004 -7.99375 -1.09895 1.57165 -0.466703
1179 0.919693 -9.50491 -2.4672 -0.20101 0.0710217 -1.2596
40 4.85083 -8.60649 -8.81682 0.727728 0.14844 3.17439
373 4.78258 -8.06524 -7.85086 -1.73373 -0.126814 -0.041099
293 -8.01596 -9.49662 -7.98886 0.372964 -2.08649 2.96874
44 6.31383 -8.80243 -8.6406 -2.12202 -2.36992 2.27264
377 6.203 -8.02825 -7.96282 -1.17189 -1.45711 1.29421
3791 8.64195 -0.290774 -7.21063 0.428413 -1.5933 -1.87052
87 5.50083 -7.87742 -8.75075 -0.940222 1.75333 -1.19057
326 5.43789 -8.9647 -7.86894 -1.456 0.519904 1.96528
895 2.45408 -9.51642 -3.80428 2.33242 -0.420009 -3.8674
229 4.76472 -3.23051 -9.40454 -0.599932 -2.15105 -0.308121
137 6.34015 -6.41959 -9.38878 0.0537177 0.173501 0.753608
899 4.04633 -9.42995 -3.8394 0.383561 -0.795939 1.07334
48 7.92145 -8.75558 -8.72825 2.63083 -0.310708 -1.6241
4 9.51766 -8.7447 -8.70064 0.904152 -1.59242 2.15566
334 8.75412 -8.87061 -7.79207 -0.770303 -2.26091 0.500121
52 -9.46532 -7.03864 -8.56081 -0.12308 -1.59926 -0.543711
4655 8.74996 -0.029186 -2.52212 -2.64043 -0.317302 -2.29548
56 -8.12102 -7.05963 -8.64073 1.33756 -0.376557 -2.38002
53 -8.03737 -7.75957 -9.44651 0.279382 -0.797308 0.335205
4909 -4.66372 -0.0217407 -1.57245 0.681067 0.803731 2.01725
60 -6.34311 -7.06409 -8.67234 0.215819 0.924271 0.616132
346 -5.71998 -6.96827 -7.82662 -0.575012 0.279774 1.39584
133 4.77361 -6.28539 -9.46022 -0.427437 2.12825 -3.22247
393 -6.57427 -6.3812 -7.81393 1.24275 0.0851379 0.0932993
64 -4.75733 -7.06334 -8.5588 1.19052 -1.77145 2.65843
397 -4.73588 -6.06545 -7.97047 -1.60686 -1.19925 -1.54908
90 7.10086 -7.09986 -9.37322 0.741685 0.655855 -0.00470654
350 -4.03976 -7.00488 -7.92756 0.21772 -1.68682 2.40478
4077 7.94507 -0.0512061 -6.34764 0.300623 0.762586 1.65757
67 -2.51269 -7.94194 -8.71493 1.37626 1.35658 -0.0840735
68 -3.18351 -6.9498 -8.72063 -1.07797 1.51206 -2.23643
401 -3.12648 -6.33024 -7.93898 -0.358334 1.2865 -0.653883
354 -2.43104 -7.18208 -7.96542 1.17231 0.462688 -0.469529
71 -1.02794 -7.85528 -8.65399 0.391637 0.547916 0.486093
72 -1.73991 -7.09236 -8.74082 -1.08444 0.0427503 1.7491
76 -0.119284 -7.11733 -8.72163 -0.204688 0.522201 0.267371
119 -0.939633 -6.35611 -8.6782 0.255594 0.409658 0.357167
358 -0.909761 -6.9732 -7.95396 1.15771 -1.30804 0.14765
362 0.819759 -7.23319 -7.9067 0.0412968 1.70514 -1.88155
80 1.50748 -7.23357 -8.70671 -1.19746 -0.50921 -0.2777
123 0.781829 -6.55247 -8.95039 -1.80277 1.83783 0.445918
413 1.53447 -6.41479 -8.1813 -1.70273 0.719826 -0.0577875
213 -1.48602 -3.04422 -9.48408 -0.667601 -0.935399 0.00551625
127 2.15804 -6.55585 -9.02587 -1.69041 1.32646 0.0985544
84 3.30503 -7.00585 -8.58644 1.07537 -1.28226 0.74049
366 2.48181 -7.12642 -7.97454 0.548675 -0.179422 2.01414
83 4.05016 -8.01358 -8.62696 -2.06767 1.33447 -1.17061
88 4.65165 -7.10634 -8.72348 -0.761036 -0.291459 -0.645648
131 3.99125 -6.33464 -8.67698 -2.37566 -1.0568 -1.0506
421 4.86631 -6.31848 -7.89758 -1.10146 -1.16344 0.301766
92 6.18671 -7.22764 -8.53458 -0.987061 -0.170289 1.58406
1165 -4.79483 -9.52572 -3.37983 2.0939 -1.48724 -0.471683
374 5.39948 -7.17906 -7.99571 -1.0167 -0.000985887 -1.5768
91 7.01328 -7.89397 -8.69125 0.57156 -0.0280345 -0.433485
378 6.91497 -7.27616 -7.88119 0.87276 1.49266 0.723208
96 7.91799 -7.14565 -8.65563 0.236401 0.476809 -0.203865
1479 5.7298 -9.40421 -0.750754 -1.66859 -0.5986 -0.810629
101 -7.8864 -6.26992 -9.37041 -2.00713 0.20822 2.77164
95 8.8052 -7.93902 -8.82373 -0.500662 0.842869 -1.20862
143 8.69461 -6.20499 -8.543 1.48121 2.34947 -0.117472
4609 -9.42156 -0.0113708 -3.22758 -0.0259377 0.977993 -1.91855
99 -8.79485 -6.21583 -8.77004 -0.0254831 0.549421 1.06369
386 -8.73543 -5.46685 -7.85699 -0.535851 0.958994 -0.108334
147 -8.83854 -4.62154 -8.6677 -0.657213 -0.403417 1.29075
103 -7.24677 -6.22675 -8.5958 0.479112 -3.05451 -1.9654
104 -8.01139 -5.33778 -8.6045 2.50783 -0.954774 -0.0599849
389 -8.12143 -6.26706 -7.95175 2.02159 -0.954654 1.82385
107 -5.49354 -6.40808 -8.72388 0.865997 0.356299 -0.799777
108 -6.37362 -5.69949 -8.55395 0.818001 -1.74061 -1.64072
394 -5.65193 -5.70936 -7.95491 -1.54117 -0.792844 -0.710039
155 -5.71726 -4.79847 -8.73626 -0.295715 -0.326407 0.0557405
441 -6.38432 -4.71662 -7.92059 -0.906386 0.209901 2.20663
4341 -1.64979 -0.116151 -4.75662 -0.452938 -0.296327 0.574849
30 2.41897 -8.91955 -9.48049 0.524651 1.20268 0.000576613
111 -4.05301 -6.2346 -8.71843 -1.04881 -1.92834 -1.62527
112 -4.75141 -5.36422 -8.83674 -1.56838 0.666447 -0.536892
115 -2.49227 -6.16769 -8.71016 1.38024 0.434993 1.05143
116 -3.13786 -5.45336 -8.73546 -0.456949 1.28623 -0.435679
163 -2.22418 -4.87755 -8.71306 0.936085 0.0401269 1.05061
120 -1.59369 -5.59247 -8.90962 -0.125415 -1.04183 -0.257141
167 -0.746411 -4.7723 -8.67585 -0.978966 -0.277031 0.268971
202 -5.59765 -2.52518 -9.47497 0.70422 -2.2013 -0.472305
124 -0.00563374 -5.43523 -8.76607 1.88347 -1.50477 -0.29547
457 0.0624974 -4.6875 -7.98447 -1.37837 -0.960704 0.503386
128 1.54665 -5.55089 -8.74352 -1.07612 0.700141 -0.397981
171 0.770197 -4.74041 -8.75618 2.33186 -1.68088 2.65292
410 0.812564 -5.5454 -7.96557 0.426414 1.2063 1.2989
461 1.4256 -4.83581 -7.78497 -0.085876 -0.860223 1.99433
132 3.30946 -5.45633 -8.92053 0.891858 1.10099 -0.260327
414 2.60208 -5.71723 -8.11169 0.977139 0.852548 -1.47683
136 4.82561 -5.62655 -8.74721 1.66316 0.454 0.676026
179 4.00105 -4.63157 -8.60824 0.6433 0.926554 0.178304
418 4.03061 -5.5538 -7.92178 1.21105 1.05654 1.44977
135 5.59522 -6.2505 -8.67937 -3.228 0.297233 0.157947
140 6.30974 -5.48567 -8.66324 -0.963961 -0.350182 -1.47767
425 6.3602 -6.30773 -8.00525 0.738 -0.651061 1.11283
422 5.51897 -5.54113 -7.93804 0.145553 1.10523 -0.424829
3491 3.99407 -0.0758564 -8.66948 0.80374 0.547501 -0.515067
139 7.16315 -6.2889 -8.77399 -0.621763 1.75845 -1.93669
144 7.80081 -5.49088 -8.55565 0.67595 1.02924 -1.99816
187 7.03227 -4.85899 -8.67241 -1.35777 1.96805 2.06288
426 6.98339 -5.60424 -7.76076 -0.701942 0.769913 0.468599
100 -9.51176 -5.35751 -8.68506 0.195401 -0.0997365 -1.6845
3761 -3.11043 -0.0333802 -7.87217 0.323475 1.56705 -1.55538
430 8.60806 -5.47169 -7.84164 1.98534 -2.38808 -2.02124
3753 -6.4391 -0.168456 -7.97364 0.830557 -0.0507692 -1.73135
434 -9.00472 -3.88702 -7.83681 0.744575 0.316711 0.113963
151 -7.08294 -4.88042 -8.99731 0.0964762 0.438597 0.590095
437 -7.99305 -4.65126 -7.88613 1.76089 0.251585 -0.490594
152 -7.8123 -4.11321 -8.80045 -0.190549 1.23336 -3.85073
199 -7.09111 -3.07783 -8.8134 -0.673158 -1.00947 -1.00877
3463 -7.18696 -0.0707695 -8.70049 2.08979 0.321142 -1.2535
156 -6.45067 -3.97678 -9.00942 0.8799 -2.11338 -1.35218
203 -5.69247 -3.35868 -8.82748 0.331171 -0.559773 1.9942
442 -5.60863 -3.9465 -7.94352 -0.880113 1.2981 -0.200838
159 -4.02192 -4.66025 -8.76639 1.7096 -0.385151 0.85951
160 -4.64678 -3.8711 -8.69376 0.900242 0.661943 -2.66061
207 -3.92679 -3.20845 -8.79133 -1.09756 0.867916 1.46023
445 -4.82488 -4.82685 -7.94716 0.0176033 1.93858 -1.98757
58 -5.63638 -6.99403 -9.48494 -3.09327 -1.16216 0.198789
164 -3.0959 -3.79385 -8.72701 0.0986521 0.469946 -0.573213
211 -2.40736 -2.90941 -8.75578 0.729609 -0.789084 2.23138
497 -3.30654 -3.12403 -7.96612 -0.362413 0.347716 0.804047
1937 -3.10224 -3.21367 -0.0971538 -0.529589 -0.570727 -1.50749
3757 -4.8158 -0.0301398 -7.75945 0.0308235 0.914876 1.1548
450 -2.35533 -3.75484 -7.92563 0.318489 0.390721 0.889262
4329 -6.44074 -0.0149465 -4.81104 -0.277795 0.923989 0.308669
168 -1.55174 -3.94116 -8.87894 -0.337037 2.06893 -1.34818
501 -1.44882 -3.09607 -8.25244 0.68863 -0.393722 -2.03932
3473 -3.13331 -0.115027 -9.48512 -0.56757 -0.519594 -0.379017
172 0.0177745 -3.93408 -8.78424 -2.41054 2.52442 -0.722216
621 7.88873 -9.45162 -6.36574 -1.60441 0.316553 1.34129
215 -0.663066 -3.08475 -9.03097 0.0111406 0.240432 1.63765
505 -0.0274868 -3.06029 -8.05403 -0.105792 -1.69838 -0.228486
176 1.53362 -4.01325 -8.64877 0.40605 -1.96583 -0.0641598
219 0.91571 -3.19672 -8.82608 -1.21706 -0.210389 1.29266
458 0.640844 -3.83132 -7.96297 -0.952876 -0.563794 -0.330325
4923 0.89333 -0.0790855 -0.85381 -0.476936 0.597987 0.0406175
175 2.35492 -4.924 -8.67161 0.571581 -1.16132 -0.619572
180 3.01817 -4.08375 -8.81503 -1.83519 -0.338871 2.26114
223 2.3589 -3.30068 -8.6424 2.55173 0.834729 -0.0777637
253 -4.89002 -1.6339 -9.44828 0.0144413 -0.746552 0.492559
184 4.82867 -4.0086 -8.6248 -1.83264 -0.884866 0.384202
227 4.10133 -3.17465 -8.70854 -0.740667 -0.67808 -0.473805
1157 -8.08746 -9.47615 -3.22151 -0.47601 -0.602149 -0.239458
89 6.1944 -8.02241 -9.44942 -0.62695 -0.581858 -1.06077
4633 0.00808682 -0.0730224 -3.14063 1.64605 0.702663 2.44538
4047 -4.15793 -0.0750717 -5.71105 -0.569309 0.0447742 0.585755
183 5.56714 -4.86827 -8.66306 1.74467 -1.55615 0.558651
188 6.34177 -3.88552 -8.78466 0.448265 -1.09253 -1.81747
231 5.68563 -3.2441 -8.61907 -0.215694 1.46381 -0.926024
473 6.27568 -4.63854 -7.88909 0.518888 2.56366 -0.605283
4943 8.71745 -0.111222 -0.706374 0.271944 0.89779 1.95623
235 7.19174 -3.21204 -8.75088 1.39394 0.929398 0.357751
192 7.98349 -4.02925 -8.78639 0.029239 -0.918784 0.570893
525 7.91569 -3.34335 -8.1267 1.42356 0.515123 -0.410031
191 8.61852 -4.73376 -8.7056 0.0494749 -0.957382 0.86499
148 9.45585 -4.01147 -8.64132 0.254662 -0.951301 -1.45587
239 8.72605 -3.16631 -8.86888 0.228727 -1.78369 0.979599
433 9.39154 -4.68263 -7.87265 0.698193 -0.121863 1.83584
478 8.76894 -3.91032 -7.95531 -0.650466 -0.364718 1.22645
49 -9.4282 -7.87282 -9.4532 1.8159 -0.175941 0.936807
195 -8.75886 -3.26851 -8.61265 0.694119 -0.282133 -0.826027
243 -8.76092 -1.61434 -8.64127 -0.264122 0.343644 0.803946
200 -8.07828 -2.50191 -8.7349 -1.39057 0.710838 1.3086
486 -7.21835 -2.37229 -7.82045 -2.17369 0.453243 -1.94656
204 -6.43881 -2.38056 -8.74657 -1.29528 -0.0223385 -0.239475
251 -5.66936 -1.71748 -8.65458 1.51563 0.611304 0.298045
489 -6.40783 -3.31962 -7.84758 0.272669 -1.68837 -0.988307
4075 6.93477 -0.0631279 -5.69763 -0.884177 -0.184416 0.519362
208 -4.76473 -2.52277 -8.69484 0.360128 -1.30093 0.74565
493 -4.91301 -3.13518 -7.88696 0.946805 -2.66474 0.677854
212 -3.38039 -2.36204 -8.75008 -2.61114 0.775822 0.191364
867 -8.84999 -9.27838 -3.909 0.208658 1.92541 0.794905
498 -2.21034 -2.37999 -7.91322 -2.92226 1.44367 0.254023
259 -2.42061 -1.70001 -8.69248 0.94309 1.05683 1.6321
216 -1.62938 -2.30265 -8.8134 -0.13437 0.721896 -0.264264
502 -0.739112 -2.30115 -8.08444 -2.12638 -0.428305 -0.476255
220 0.130853 -2.45356 -8.7685 1.40708 -1.70207 1.10968
263 -0.73741 -1.47321 -8.71659 -1.31716 -0.873184 -0.27822
267 0.856039 -1.65038 -8.7555 0.506346 -0.426825 -0.128517
553 -0.0546927 -1.61208 -7.89179 -0.37968 0.935973 0.808789
224 1.62936 -2.44982 -8.8383 0.393864 -0.75687 -1.14828
506 0.686063 -2.35857 -7.93659 -0.747147 1.85611 0.660737
557 1.61918 -1.61302 -7.96659 -0.99025 -0.614025 0.778379
1810 3.9226 -7.10336 -0.140104 -0.446684 -1.59218 -0.405673
228 3.01839 -2.46236 -8.79713 -0.20538 0.44632 -0.94035
271 2.35907 -1.55152 -8.65573 -2.11144 0.562096 0.859423
510 2.5008 -2.37195 -7.90829 1.89578 1.35062 -1.90065
561 3.2195 -1.56245 -7.97989 0.622556 -1.91396 -1.25339
232 4.88315 -2.35448 -8.63014 1.04019 -0.987476 -0.0336978
514 3.81823 -2.42248 -8.007 -0.545587 0.156916 0.767104
275 3.93777 -1.67663 -8.76531 1.86381 0.599999 -0.103469
126 2.3009 -5.61676 -9.43855 0.377194 0.920501 -0.0559821
22 -0.657015 -8.43316 -9.47731 1.3391 2.42101 -0.739593
230 5.53426 -2.29103 -9.47955 0.594943 -0.400115 0.00711897
236 6.15921 -2.3727 -8.61577 0.686125 1.66409 1.57604
279 5.61564 -1.55481 -8.49163 1.34264 -1.61036 1.73173
522 7.29404 -2.40543 -7.96971 -0.273806 -1.54089 0.403865
871 -7.15124 -9.46196 -3.95961 -0.0365162 0.529116 0.660934
1761 3.2397 -9.47857 -0.0269745 -0.578706 -0.510217 2.6741
196 9.4707 -2.34062 -8.76817 1.63832 -0.239885 -1.32183
240 7.92672 -2.11389 -8.87038 -1.13529 -0.229801 -0.55408
287 8.82088 -1.57617 -8.9746 -0.712168 -0.0803209 0.871045
1447 -7.14666 -9.48305 -0.621564 0.204603 -0.625283 -0.0353362
1189 4.79158 -9.40394 -3.12914 -1.19816 -0.14084 -0.333907
244 -9.48953 -0.925592 -8.80223 -1.63184 1.57852 -1.4409
248 -7.96643 -0.943847 -8.70152 -1.09668 -0.775284 0.586378
109 -4.84212 -6.25397 -9.49461 -0.172334 -0.535369 -1.90673
307 -2.27301 -9.44725 -7.18641 0.191608 -0.653176 -1.89401
4079 8.68189 -0.0798025 -5.6995 0.95981 1.63012 -1.54217
247 -7.30017 -1.85196 -8.7132 -0.149104 -0.553657 0.496685
534 -7.18722 -0.89977 -7.86862 1.97709 1.8213 0.481543
252 -6.48227 -0.897533 -8.76243 -1.91311 -0.211828 -0.217185
1469 1.80939 -9.38238 -1.71409 1.81637 1.3013 0.410766
255 -4.02799 -1.48397 -8.29723 -0.374079 0.243579 2.182
256 -4.84229 -0.820967 -8.74192 1.21811 -2.4176 -1.27099
141 8.08149 -6.31469 -9.38553 -0.184003 0.862263 -1.45884
178 3.99598 -4.01247 -9.47973 -1.60894 -1.47399 0.118915
260 -3.20756 -0.878677 -8.64497 -1.4463 -0.685544 -0.795346
546 -2.39126 -0.749806 -7.88008 -1.99958 1.85508 -0.0274891
545 -3.05065 -1.82924 -7.86729 0.052376 -1.68024 -0.739836
264 -1.53824 -0.875744 -8.78868 0.588712 0.152482 -0.913668
268 0.0880734 -0.84163 -8.67889 1.54267 -0.558459 -1.56743
1842 -2.32727 -5.72185 -0.0277945 0.994089 -0.848671 0.543232
272 1.47802 -0.700025 -8.64125 0.134372 2.71798 0.806771
554 0.716553 -0.71929 -7.83355 -2.95161 0.461969 0.0208994
276 3.1675 -0.894059 -8.78781 -0.484606 0.196889 0.0240552
558 2.32323 -0.848466 -7.80398 -1.02247 -0.197276 -2.18787
17 -3.31066 -9.41422 -9.47392 2.1948 -0.195792 -0.715395
1684 9.49869 -0.765086 -0.928639 -0.30574 0.774134 -0.501408
565 4.66823 -1.52866 -7.98069 0.859534 0.516832 -0.314111
170 0.872226 -3.89225 -9.47694 1.1998 0.907362 -0.348088
280 4.66958 -0.807676 -8.67433 1.17083 0.300036 -3.55358
562 3.86271 -0.845791 -7.8885 -1.22969 -1.12664 0.687686
1475 4.10471 -9.53703 -0.720244 0.202077 -1.16263 -0.973878
3749 -7.93505 -0.171832 -8.00316 1.4228 -2.35058 0.787524
284 6.34434 -0.757468 -8.76518 1.15454 -2.2768 0.82064
4073 6.31137 -0.0674164 -6.488 0.0178003 0.912737 -0.483969
5205 -1.61715 -0.0845583 -0.0800122 -1.0522 0.541798 1.40746
283 7.03464 -1.6122 -8.66815 -3.71313 1.31304 -0.380532
288 7.98017 -0.956746 -8.72933 1.18684 -1.07105 -0.724511
4325 -7.86635 -0.0910496 -4.71655 1.43402 -3.33879 1.87536
573 7.96704 -1.52742 -7.93979 2.22629 -0.0969123 -0.599971
574 8.84211 -1.00445 -8.02971 0.0938057 -0.848574 0.995387
4935 5.52735 -0.154326 -0.866071 -0.867098 -0.582023 2.47602
292 -9.40484 -8.83256 -7.13974 -1.27782 -0.120852 1.6465
339 -8.67257 -7.89865 -7.11506 -0.238307 1.52901 3.13013
3765 -1.45755 -0.230465 -8.04248 -0.887261 1.39377 -1.73194
341 -7.95961 -7.9794 -7.86573 -0.330055 -0.275526 -1.76978
296 -8.02028 -8.79625 -7.1399 0.954647 2.52774 -0.480717
343 -7.27716 -7.99325 -7.19018 -0.521483 -0.365005 -2.92317
300 -6.42832 -8.72432 -7.22416 0.0723329 -0.858565 -1.75454
298 -5.54244 -8.74267 -7.97738 -0.0710201 -1.61362 1.35025
1723 6.99128 -1.71193 -0.993019 1.15028 0.0672276 -1.52844
347 -5.62004 -8.00548 -7.17952 1.54878 -0.0173655 0.120991
304 -4.82374 -8.69671 -7.29147 -1.64907 2.00322 -0.110842
351 -4.09128 -7.75105 -7.27351 1.65326 0.684543 0.0456169
637 -4.78203 -8.10751 -6.53818 -1.03397 -0.150374 -3.4473
308 -3.09015 -8.81093 -7.08828 -3.10531 -1.48799 -0.744754
355 -2.48606 -7.97809 -7.12158 -0.392377 1.60172 0.507148
594 -2.34561 -8.70856 -6.42163 0.000642375 -0.261418 1.09748
266 0.761983 -0.819708 -9.44309 0.417744 1.31011 0.895217
312 -1.54759 -8.6535 -7.10478 1.46683 -0.225523 -1.47545
359 -0.888977 -7.91074 -7.33577 0.608407 -0.0726617 -1.1229
316 -0.11121 -8.99067 -7.21636 -1.39565 -0.995669 0.457916
320 1.62545 -8.87881 -7.14256 -0.806255 -2.25314 -1.11218
363 0.779985 -7.9153 -7.14815 -1.352 1.88551 1.81321
369 3.22691 -7.77854 -7.87517 -2.47529 1.37798 -0.688841
324 3.24681 -8.82935 -7.25971 -1.14486 1.9972 2.2213
367 2.30961 -7.94276 -7.3673 0.832924 -1.79103 -1.7023
657 3.30383 -8.14902 -6.31255 0.784004 0.636213 -1.99505
322 3.98957 -8.7624 -8.02381 1.8082 -0.87601 -1.86438
328 4.75064 -8.78111 -7.13514 -0.049188 0.656939 1.72825
371 4.01924 -8.08326 -7.1051 1.03717 0.614521 -0.504847
332 6.30011 -8.65991 -7.09271 -0.276749 -1.87452 0.618646
589 -4.76932 -9.50798 -6.35477 -0.883028 0.428831 -0.450403
1765 4.85828 -9.44727 -0.00983858 -1.79937 1.56474 -0.141016
330 7.10766 -8.66973 -8.0433 1.11647 -1.15918 1.6767
379 7.14589 -7.88811 -7.09043 -2.08083 1.45372 -1.62447
669 7.86428 -7.9469 -6.3053 0.467037 -0.435073 1.54477
336 7.90984 -8.71058 -7.15521 0.153102 -0.883395 -1.73408
10 -5.47319 -8.7827 -9.43071 -0.521629 -2.40839 -0.945055
337 9.49816 -7.91682 -7.85778 -0.0683817 -1.54421 -0.397425
338 -8.85221 -7.11673 -7.77238 -0.0878408 0.845125 0.615597
340 9.49744 -7.16552 -7.15651 2.09222 -0.656749 -1.13536
626 -8.71111 -7.22424 -6.33542 0.769248 -0.181539 -1.18235
342 -7.27877 -7.20138 -8.11839 0.17939 0.509511 0.749361
344 -7.86918 -7.07933 -7.08171 -0.0999875 -0.38817 0.318701
630 -7.07952 -7.22097 -6.18219 -0.215027 1.71048 -2.73697
348 -6.52799 -7.24267 -7.1768 -0.551747 -0.271956 0.371862
681 -6.42543 -6.4413 -6.38802 -1.95484 -1.01844 0.356881
634 -5.44873 -7.15401 -6.49512 -0.738751 -2.67351 0.292326
395 -5.83958 -6.22157 -7.14681 0.546811 -0.843387 0.139797
352 -4.82606 -6.8847 -7.37527 -0.744805 2.39199 -2.4201
638 -4.03652 -7.12043 -6.41975 -1.8154 0.0560232 -0.576319
399 -4.01782 -6.18424 -7.10809 -1.05022 -0.300194 1.39081
685 -4.82133 -6.27806 -6.59876 -0.796723 -0.233378 -1.50184
641 -3.20569 -7.91171 -6.46208 0.336026 1.76353 -0.401335
356 -3.20687 -6.91282 -7.05668 -1.20797 -1.08944 0.573987
403 -2.28982 -6.2242 -7.16671 -1.58326 -2.03252 1.48964
689 -3.39734 -6.17369 -6.1314 0.229797 0.852483 0.455257
645 -1.57428 -7.98044 -6.35228 0.716602 0.334113 1.27898
405 -1.78781 -6.18194 -8.00345 0.922084 -0.731898 0.421909
360 -1.79632 -7.31202 -7.13405 -0.931677 -1.52233 0.158406
646 -0.83304 -7.05872 -6.38109 -0.795373 1.61982 -1.62467
407 -1.08539 -6.41967 -7.17209 1.34863 1.46172 0.155763
364 -0.0585189 -6.95714 -7.41427 -0.724103 0.679003 -0.695685
697 -0.165728 -6.3147 -6.43768 0.257516 0.173497 -0.700414
409 0.0467024 -6.27562 -8.02029 -0.347357 0.939901 1.00775
411 0.887113 -6.371 -7.36755 -0.58687 1.12349 0.511161
368 1.61511 -7.15122 -7.30259 -0.82494 0.462162 0.41714
415 2.43997 -6.45597 -7.16894 0.942947 -1.04423 0.684417
650 0.892104 -6.8985 -6.498 1.12255 2.91606 1.40727
417 3.22736 -6.425 -7.78597 0.851833 0.177408 -1.36325
372 3.11863 -7.28288 -6.93324 0.013356 -0.895635 1.66612
370 4.11936 -7.03899 -7.7116 -0.526692 -0.993577 1.61198
376 4.91373 -7.01372 -6.98643 -0.0550707 -0.421803 0.285577
419 3.91794 -6.43031 -7.00408 -0.646404 0.892751 -0.507234
375 5.60289 -8.00502 -6.96605 0.872024 0.0970915 2.28788
380 6.08888 -7.13413 -7.14446 0.859179 1.41409 -0.923286
662 5.51479 -7.25797 -6.22006 -1.08658 -0.378512 -1.79595
381 7.93459 -7.98515 -7.89659 0.133601 -0.294866 -0.415419
384 7.9092 -6.9344 -7.07512 0.646353 0.151092 -0.400893
427 6.93309 -6.35194 -7.07391 -2.13979 0.222754 -0.404404
429 7.88777 -6.40718 -7.90845 0.708894 1.79587 -1.17879
382 8.66965 -7.24108 -7.84415 2.38374 0.422737 0.998255
383 8.61934 -7.9577 -7.14742 1.15851 1.21511 1.04771
625 9.4415 -7.77658 -6.41738 0.516761 0.282855 1.59161
385 9.48963 -6.30361 -7.98599 1.4306 -2.06333 0.0635954
387 -8.79513 -6.33875 -7.15861 -0.651514 0.693537 -0.195256
388 -9.50648 -5.56426 -7.04036 -0.468563 -0.287487 0.556385
674 -8.7323 -5.70912 -6.28159 -1.02791 0.413221 1.01843
390 -7.46641 -5.51009 -7.79059 -0.119715 0.337523 0.147926
391 -7.25421 -6.39399 -7.11784 1.80603 1.01182 -1.16542
392 -8.10334 -5.69786 -6.95248 -0.438701 -0.771169 -1.54533
439 -7.21948 -4.63928 -7.20209 1.01266 -1.53325 -0.785668
678 -7.2662 -5.52393 -6.42291 -0.233108 1.74075 -0.766746
725 -7.92565 -4.67658 -6.36048 -1.11088 -1.77825 0.209799
396 -6.51974 -5.35759 -7.19726 0.867586 1.15749 -1.40542
682 -5.7048 -5.63573 -6.42098 -0.0704539 2.05303 0.516867
398 -3.9409 -5.36686 -7.97326 1.9152 0.0211727 -0.569164
400 -4.64286 -5.41205 -7.21616 -3.3882 0.879974 0.681913
733 -4.94582 -4.74574 -6.43706 -0.344939 -0.0790279 -1.39836
447 -3.95585 -4.64082 -7.01799 -0.672674 0.330745 -0.394119
686 -4.14897 -5.51064 -6.23824 0.492324 0.186265 1.22971
449 -3.18772 -4.64415 -7.76186 0.0825302 -0.650854 0.662881
402 -2.66617 -5.47769 -7.89337 -1.75759 1.01197 1.28294
404 -3.35455 -5.4405 -7.08621 -1.90982 -1.74303 0.508742
451 -2.36904 -4.58501 -7.145 -1.97402 1.5638 -1.82519
408 -1.68191 -5.40963 -7.15559 -0.371432 1.07158 1.4506
453 -1.65646 -4.54679 -8.0159 -0.91987 1.69535 1.48507
455 -0.732334 -4.92289 -7.28276 1.83296 -0.272305 1.18344
741 -1.68984 -4.33581 -6.44603 0.360345 -1.40825 2.03234
406 -0.797484 -5.61971 -7.97785 0.168077 -0.632826 0.416039
412 -0.104126 -5.73531 -7.193 0.750196 -1.55499 0.460539
459 0.642668 -4.84103 -7.07405 -0.567926 0.50046 0.81333
745 -0.162027 -4.68284 -6.37967 -2.2435 1.24767 0.49844
416 1.80998 -5.59965 -7.35379 -1.20743 0.0351244 2.45808
702 2.39233 -5.51065 -6.26562 0.439441 1.17668 1.5178
420 3.27278 -5.54823 -7.21245 -0.446273 0.799903 1.75048
465 3.19435 -4.79855 -8.08123 0.308783 0.0495939 0.593853
463 2.51841 -4.91056 -7.32011 -0.36957 0.231438 -1.48236
709 4.6242 -6.28714 -6.24808 1.1998 -1.03161 -0.735397
424 4.78753 -5.55652 -7.12451 -0.0825646 0.362585 -0.133784
469 4.75779 -4.82721 -7.96242 0.0996326 -0.86795 -2.46502
467 4.13942 -4.7864 -7.15347 0.50205 -0.876179 1.08128
423 5.5591 -6.30998 -7.25519 -0.764384 0.406834 -1.11323
471 5.40845 -4.71056 -7.14286 -0.98119 -1.11167 1.9377
761 6.44878 -4.75331 -6.34696 -1.05171 -0.68993 0.936648
713 6.21331 -6.33822 -6.38268 0.0645155 0.252139 0.2298
717 8.0159 -6.41139 -6.18441 1.39994 -0.415139 -1.87652
428 6.0773 -5.53831 -7.09623 -1.35899 0.570822 0.384684
432 7.92196 -5.83777 -7.12147 0.890879 -2.02924 -0.880057
477 7.91622 -4.64488 -7.91557 -0.236401 -1.68483 -1.01064
431 8.80546 -6.44139 -7.21713 -1.14545 0.0460624 -0.113782
673 -9.51025 -6.42676 -6.41362 0.738206 1.81895 1.27391
718 8.67262 -5.6679 -6.39136 0.419978 0.589594 1.03654
435 -8.61522 -4.7794 -7.04602 0.416914 0.70428 0.202659
721 9.40991 -4.81213 -6.31302 -1.94158 -0.0212247 1.64131
436 9.27279 -3.91182 -7.11988 -0.240778 -1.04307 -1.07548
483 -8.75888 -3.16815 -7.08476 -0.679799 -2.89015 -0.76364
722 -8.78587 -3.94238 -6.56581 -0.804616 1.69192 0.298914
440 -7.91341 -3.8806 -7.02146 0.265499 0.540899 -0.0391555
438 -7.12206 -3.99289 -8.1386 1.36256 0.926638 -1.82544
726 -7.10229 -3.96228 -6.19698 -0.311511 0.889146 -2.13164
487 -7.1367 -3.11304 -7.1493 0.26318 0.913549 -0.672985
773 -7.94315 -3.19322 -6.1827 1.03229 -1.68966 0.481552
443 -5.59954 -4.84897 -7.21898 -0.397787 -2.07794 -1.42229
444 -6.45328 -4.00547 -7.02568 -2.20267 -0.115157 0.471953
446 -4.01753 -4.02364 -7.88324 1.59784 -1.72572 0.461658
448 -4.80802 -4.08215 -7.17011 -0.52658 0.832833 0.960789
734 -3.82388 -3.72171 -6.3403 -1.17951 0.235861 1.46171
452 -3.07609 -3.74578 -7.18415 1.25953 -0.256343 -0.986908
499 -2.22016 -3.03213 -7.13953 1.29819 -0.27247 0.282968
738 -2.52187 -3.8727 -6.31517 -0.391181 0.990561 0.179555
454 -0.759679 -3.91944 -8.11069 0.1882 -0.630146 0.763765
456 -1.5435 -3.7846 -7.26378 1.96533 1.421 1.03898
789 -1.47863 -3.1675 -6.50144 -0.678973 -1.24675 -1.3724
503 -0.766368 -3.14021 -7.36917 -0.24948 -1.54544 0.321646
742 -0.882392 -3.90257 -6.47633 -0.901017 0.257467 -1.03089
460 -0.0715899 -4.01655 -7.23391 -0.831268 -0.579025 -0.687597
507 0.744329 -3.14595 -7.23989 -0.842944 1.25465 -0.86109
793 0.101074 -3.13811 -6.50142 -1.42039 -3.48671 -1.19413
509 1.63496 -3.07143 -7.98662 1.68337 1.94337 -0.854388
464 1.50982 -3.92581 -7.273 1.27769 -0.0241343 0.576155
797 1.46734 -3.13432 -6.40621 -1.74009 -1.58815 0.43485
462 2.37226 -4.04379 -8.00379 1.25755 1.10055 -1.55927
468 3.18622 -4.0333 -7.08269 0.890813 1.44837 -1.62245
511 2.29659 -3.15939 -7.27505 -0.0120168 -0.145303 0.693218
801 3.05908 -3.12762 -6.51181 -0.19986 -0.0717314 -0.3382
466 3.89282 -3.88917 -7.90835 -0.655957 0.10167 0.0118446
472 4.67044 -3.81923 -7.31467 -0.125977 0.0315103 0.953312
754 4.01942 -3.99165 -6.4127 0.942797 -0.593332 -1.05147
470 5.63688 -3.88661 -7.8034 0.607695 -0.897369 0.150368
521 6.3813 -2.96383 -7.80277 -0.276549 2.44105 -1.31784
476 6.5038 -3.93277 -7.19055 0.256125 2.47417 -1.01912
519 5.39396 -3.12205 -7.14145 -1.01567 0.55433 -0.572869
474 7.17192 -3.95973 -7.98654 -0.310497 -1.91756 -0.938531
475 7.04625 -4.80727 -7.16099 0.547381 -2.43673 0.657329
523 7.20823 -2.99745 -7.02672 -0.519113 0.277918 1.76246
480 7.92025 -4.00507 -7.17238 -2.59918 0.506387 0.127139
762 7.13582 -3.95732 -6.41498 -0.720885 1.69868 -1.06605
479 8.65707 -4.80441 -6.97453 0.74353 0.556838 -0.14106
766 8.62733 -3.93364 -6.38769 -1.36352 -0.148858 -0.650751
527 8.62574 -2.97782 -6.7133 -0.355518 -0.177778 -0.649402
482 -8.62523 -2.35744 -7.83833 0.315925 0.891146 -0.351562
484 9.49084 -2.41522 -7.01915 -1.59034 -1.09005 1.01725
485 -7.91889 -3.18055 -7.78906 1.48992 0.284621 -1.23609
488 -7.94574 -2.54719 -7.03466 2.83843 -2.821 -0.748336
533 -7.92527 -1.65065 -7.94004 -0.978599 -0.556027 -1.29982
774 -7.16721 -2.30286 -6.25416 0.570007 -0.113162 1.69029
491 -5.5173 -3.39154 -6.96667 -0.458149 -0.204186 2.36788
490 -5.62684 -2.5088 -7.77266 -0.979642 -1.4379 -0.274296
492 -6.40667 -2.38572 -7.05163 1.0064 0.210203 0.299531
494 -4.14455 -2.43996 -7.89022 -1.14844 -0.418445 1.70784
541 -4.84419 -1.73491 -7.88441 -1.43794 0.470812 0.210937
495 -4.11578 -3.16613 -7.12575 -0.447003 2.72627 -1.46512
496 -4.84 -2.40668 -6.98666 1.03944 -1.45196 1.14206
782 -3.97853 -2.51767 -6.32857 -0.433733 0.26195 -1.20255
543 -3.9488 -1.61044 -7.16791 2.46375 0.252093 -0.236436
500 -3.28587 -2.539 -7.14146 0.606354 -0.090121 -0.396864
785 -3.10033 -3.06936 -6.27415 2.16641 1.75712 -0.177472
549 -1.56593 -1.4691 -8.0294 -0.465985 -1.17365 -1.45572
504 -1.40567 -2.39728 -7.28548 -0.0990917 0.744172 -0.361111
790 -0.715751 -2.35089 -6.41146 -1.57299 0.402253 0.251653
508 -0.0889518 -2.30517 -7.17936 0.343306 1.43047 0.631347
841 0.146811 -1.67382 -6.33406 1.72256 0.107009 -0.639198
794 0.731683 -2.3724 -6.50826 -0.228855 1.8352 -2.05913
512 1.48856 -2.4149 -7.24143 2.22718 0.663024 0.207422
555 0.792164 -1.4944 -7.24652 0.370143 0.921269 0.265662
845 1.44008 -1.6323 -6.32854 -0.924953 -0.83896 -0.217952
513 3.17963 -3.19482 -7.99875 1.0522 1.10567 0.116332
516 3.05037 -2.05283 -7.01659 1.38068 1.40055 -1.46761
798 2.16017 -2.35638 -6.38881 2.52854 0.857511 0.0679461
517 4.79584 -3.1584 -7.97916 -0.423405 0.251162 1.86538
515 3.89433 -3.10305 -7.22911 -0.141279 -0.616627 -2.47144
520 4.6874 -2.33876 -7.24327 -1.01774 0.575121 0.71046
518 5.51751 -2.47792 -7.87901 0.261132 -1.32858 0.272097
524 6.3063 -2.47155 -7.02324 -2.13556 1.28286 -2.8868
809 6.03789 -3.36817 -6.45651 1.01587 1.16026 1.3407
857 6.17021 -1.60602 -6.48467 0.805432 0.0682346 -0.424645
481 9.41295 -3.03606 -7.87675 0.0339591 0.48486 -1.54108
528 8.00466 -2.23373 -7.08804 -1.92227 0.718501 0.551053
526 8.59757 -2.27314 -8.09089 -0.137034 -0.523019 -3.07851
575 8.78461 -1.62089 -7.22346 0.982962 -0.613709 -0.313937
530 -8.67167 -0.932713 -7.93537 0.992147 -1.16198 1.7503
531 -8.62969 -1.45744 -7.0193 1.44479 -0.564264 2.673
535 -7.27818 -1.57013 -7.01975 0.0624512 -1.7396 0.855766
536 -7.7997 -0.752102 -7.03594 -1.57766 -2.02057 -0.549478
295 -7.1351 -9.47263 -7.05864 0.939874 -0.940308 -0.568796
825 -6.27545 -1.47933 -6.34204 1.27904 0.565926 2.69087
537 -6.49785 -1.62824 -7.9662 0.257725 1.64059 1.64619
538 -5.67923 -0.970925 -7.9385 -1.65753 1.26016 -1.83552
539 -5.6303 -1.5838 -7.06114 0.639418 1.3064 -0.248241
540 -6.45162 -0.718987 -7.23481 0.244402 -1.39013 1.39597
4617 -6.32566 -0.136129 -3.10247 -0.717983 1.25935 -0.925205
4635 0.811042 -0.0575527 -2.48031 0.389089 -0.728282 -0.100772