ITEM: TIMESTEP
192000
ITEM: NUMBER OF ATOMS
6912
ITEM: BOX BOUNDS pp pp pp
-9.5244063118091962e+00 9.5244063118091962e+00
-9.5244063118091962e+00 9.5244063118091962e+00
-9.5244063118091962e+00 9.5244063118091962e+00
ITEM: ATOMS id x y z vx vy vz
921 -8.54336 -8.69825 -8.44377 0.651331 2.36143 0.138384
6726 -9.06762 -8.00843 -8.96967 -1.53017 -0.642636 -2.40608
3307 -8.76216 -7.91161 -7.83849 -2.49262 0.98756 0.23066
3988 5.59994 -8.99933 -4.85777 1.95863 0.21544 0.897306
382 -9.46953 -8.5469 -8.16128 -1.64855 -1.23216 0.996109
1715 -9.0755 -0.0731558 -1.93207 0.174878 0.832365 0.24235
3309 -8.03227 -8.19966 -9.07648 -1.1856 -0.463104 0.320363
4846 -6.67003 -9.55198 -8.87809 1.34258 -1.77273 -0.500939
6463 3.49604 -0.648847 -9.06912 -0.853593 -1.58948 -0.241937
729 -7.30723 -4.88463 -8.45215 -1.34113 -1.04624 1.88844
408 -6.97746 -8.50782 -8.57728 1.6923 -2.08741 -0.909851
6260 -5.04847 -8.99516 -8.84625 -0.350314 1.43982 -0.48713
4853 -5.78902 -9.13921 -8.17495 -0.309255 -0.442797 1.07412
600 -4.28713 -8.23847 -8.62951 1.75821 -0.233324 -0.606843
592 -4.17474 -9.27012 -9.09408 0.619503 -0.00581033 1.88328
3132 -6.73336 -0.202959 -6.58275 -0.0795703 -0.947537 -0.661239
5 -6.88677 -4.88494 -9.39239 0.636556 -2.21868 -0.0872719
3291 -3.34799 -9.00743 -8.73346 4.66917 -0.196192 -1.34767
4250 0.210176 -9.49825 -6.0692 0.668188 -0.474669 2.1665
454 2.66241 -5.18432 -9.18614 0.926273 -2.31772 -1.53437
6881 -1.50654 -8.24712 -8.3508 1.0711 -0.273907 -0.407083
3247 -0.526826 -8.0725 -8.29805 -2.19021 1.78983 -2.93915
4646 5.83098 -0.393356 -2.70575 1.34145 -1.87761 1.69609
311 -1.841 -8.84764 -7.6623 1.59551 -0.131123 -0.531715
3449 7.30494 -2.50262 -9.49878 1.07745 -2.03175 1.1034
230 -0.0154092 -8.84119 -9.02068 1.13814 -1.95844 -0.0312631
2909 0.221635 -8.68325 -8.0263 3.54962 -0.096884 1.45016
3297 1.93431 -8.77658 -8.35579 -0.16694 0.239835 0.129526
833 1.0083 -8.21257 -8.30675 0.343413 -2.04361 0.0637695
3308 2.2179 -7.94185 -8.73727 -1.66193 1.41342 -1.34147
1599 -0.915937 -4.5976 -0.276693 -0.0920414 0.640046 -1.28714
36 3.60984 -8.14283 -8.63262 1.89219 0.821126 -3.33823
2886 -5.93612 -8.64203 -9.10785 0.347642 0.275309 -1.4541
603 2.81708 -8.70716 -8.88852 1.1073 -3.98771 -0.241668
6330 4.45093 -8.54088 -8.49058 0.141383 -0.0487682 -0.960621
4354 9.00147 -0.0604866 -7.82402 -0.0746533 0.58226 -1.1213
419 3.72135 -9.09563 -8.97676 1.79796 -2.48435 1.17398
2740 8.64998 -4.22673 -8.99104 0.704466 1.04804 -2.89558
853 -8.15137 -1.9067 -9.1008 2.2891 0.874905 -0.528646
3211 5.79731 -9.05684 -8.32422 -0.0578449 1.07495 -0.074912
1041 5.51058 -8.14382 -8.13724 -0.81289 0.0615717 1.05069
4229 5.64204 -8.41168 -9.18556 -0.30668 1.65724 0.567582
6608 6.62144 -9.22952 -8.82137 2.3159 0.00168516 -1.40862
6900 7.57837 -8.53112 -8.42677 1.98238 1.10154 1.50585
3225 -7.80821 -9.1206 -8.99126 1.40322 3.19599 2.24523
3840 4.32674 -0.294267 -3.64608 -1.07283 -0.447799 -1.80951
6870 8.98244 -7.82736 -8.1075 -2.31983 -0.541199 1.86608
3940 8.81943 -8.94806 -8.77518 0.0249152 2.24293 0.44295
3227 9.42703 -6.13583 -9.21151 0.289633 0.932214 -0.447224
233 -8.21403 -7.42215 -8.54387 -0.430263 -0.370272 -1.58085
3312 -9.24522 -7.16741 -8.3752 -0.526685 -1.91073 0.247947
6 -8.76805 -7.10036 -9.32961 0.756609 -1.63711 0.827255
160 -7.35767 -7.10936 -8.02372 0.664775 -1.39768 1.18922
3224 -7.88126 -6.74058 -9.19177 -1.65927 2.60821 1.0671
3363 -7.31555 -7.59859 -9.06541 1.18507 -0.541852 0.875117
3184 -6.61918 -6.63973 -8.7667 -0.176979 0.125385 -0.312655
4240 -6.30314 -7.7318 -8.69233 -0.622718 -0.805048 0.186693
4688 -0.723989 -0.171875 -0.0577676 -1.48782 -1.00438 0.632377
495 -5.09507 -7.479 -8.64219 -2.5605 -2.08457 -1.21911
4016 -0.813689 -8.95619 -8.55847 2.09451 -1.00738 1.87846
6773 -4.51998 -6.75788 -9.00188 -0.821773 0.300746 -0.259203
4266 -4.62516 -7.73088 -7.58438 -0.313087 0.82481 3.72269
3243 -3.34805 -7.89479 -8.81431 0.346101 1.6871 1.01045
3226 -3.92614 -7.09722 -8.16547 0.152599 -1.40674 1.66805
3279 -3.41893 -6.72599 -9.29814 -0.560683 -0.742366 -0.380309
4764 -2.58254 -7.50724 -8.06567 2.26491 -1.99978 -1.7897
113 -2.42099 -8.04076 -8.90839 -2.13263 0.776448 0.792627
985 -1.58886 -6.67018 -8.28351 2.27101 0.971339 -0.576899
3382 -2.28968 -7.08908 -8.89327 -0.788277 -0.942682 1.88271
753 -2.10117 -8.9423 -8.64635 -0.484941 0.732961 -0.544553
1082 -0.946292 -7.20845 -8.82691 2.83064 -0.739485 0.269416
3388 0.339713 -7.89397 -9.08499 1.42795 -0.0456055 0.280193
365 0.195074 -6.81133 -8.84526 1.73696 1.40521 -2.47156
979 0.250273 -7.46206 -8.02342 -1.49275 -0.763971 -0.19725
4252 1.74267 -7.70206 -7.68461 2.14197 0.145242 1.37546
466 1.36769 -7.62291 -9.11933 -0.600214 -0.156299 -0.99219
3377 1.07093 -6.97272 -8.40098 0.259259 2.67322 -0.706239
662 1.18832 -6.67207 -9.48248 0.624036 -2.37437 0.17258
86 1.99981 -6.72082 -8.92649 -0.564666 -1.13228 -0.344559
803 3.52413 -7.26478 -7.58688 3.16737 0.105755 1.93327
3109 3.21107 -7.17391 -8.70738 -0.372905 -0.771194 0.491579
708 4.03369 -6.39734 -8.3477 -0.780362 -2.49516 -2.06037
6719 -9.18203 -0.228671 -4.20038 0.0909765 -0.697228 0.0122679
5152 -2.59394 -9.50082 -1.36943 2.61151 -0.923242 -1.48486
2823 4.12307 -7.33902 -8.4381 0.369378 -0.157701 0.844689
3203 6.13416 -7.41982 -9.31991 0.139219 -0.830502 1.47661
6889 4.96182 -7.69715 -9.01052 -2.00408 0.833719 0.220825
745 5.54341 -7.04958 -8.27471 0.196961 0.361703 0.132501
39 6.67127 -8.08526 -8.45285 0.938089 -0.567163 -1.28762
4319 7.21597 -6.34227 -8.81365 1.04719 -2.21488 0.277497
4312 7.87279 -7.00907 -8.16755 -0.991685 -0.413638 -2.36288
2913 7.368 -7.79572 -9.11832 -0.996201 1.18825 -1.41535
4277 8.03514 -7.04975 -9.15662 0.589436 1.68096 -2.13263
4024 6.6128 -7.02946 -8.41099 -0.362565 0.871134 -1.60645
4823 0.632488 -9.38479 -3.21529 0.631572 0.118967 1.42261
5629 -2.33613 -9.16874 -0.488546 -0.453163 0.179407 0.73727
93 8.45961 -7.89609 -8.88693 -0.538041 -0.94589 0.297481
6910 8.7886 -6.80499 -8.44905 -0.662164 -1.59228 0.38106
139 -8.78572 -6.20356 -8.7302 -0.570226 0.697357 1.12449
1321 1.71268 -9.49919 -1.74936 -1.10838 -1.23735 -0.172147
60 9.11567 -5.90903 -8.07142 -1.78038 -0.153696 0.637083
6319 9.17351 -5.22252 -8.88909 0.841437 1.4737 -0.55581
3354 -9.00624 -4.98252 -8.5155 -0.0851455 -1.29898 0.195975
2944 -7.50165 -6.26405 -8.37826 1.03878 0.180543 0.368667
192 -5.60629 -6.34613 -9.10624 2.18365 -1.06764 0.95325
295 -6.61162 -5.63258 -8.81536 -0.402538 -0.388439 -2.13818
3319 -5.17342 -4.70544 -8.88394 2.49464 1.23299 0.120649
4484 -5.03899 -9.42005 -7.35737 0.328273 -0.187028 0.951858
881 -5.72843 -5.6017 -8.44779 0.0575457 -2.18845 -1.96076
393 -4.72073 -5.81431 -8.42949 0.186895 -0.571785 -0.331171
3942 -4.81507 -6.75786 -7.94042 -2.08207 1.60188 2.89106
793 -3.76014 -6.16639 -8.40588 -0.868152 -1.02094 -3.7108
819 -7.08879 -3.24757 -9.4205 -1.6304 -1.01031 0.328586
14 -2.93923 -6.55696 -8.2271 -0.219648 -3.39956 -0.0731694
3524 -2.89224 -0.300587 -9.1189 1.54756 -0.374559 -0.215215
2749 -2.90168 -5.25193 -8.67684 2.19667 -0.221551 -0.269989
228 -1.9764 -5.85652 -8.64833 -0.694152 2.40005 2.69156
121 -2.72017 -5.98848 -9.32335 0.166865 0.811476 1.05609
3244 -2.05499 -5.10842 -9.3149 0.936042 -1.14876 -0.362106
3107 -1.12217 -5.28356 -7.8666 -1.85353 -0.962321 0.379348
3094 -0.998202 -5.08709 -9.03994 -1.86703 -0.729959 1.16612
3952 -9.29238 -9.45631 -4.05727 0.569255 1.10435 1.70246
1189 -0.896592 -6.18911 -8.79672 -0.377055 1.05244 2.33948
3192 0.0845073 -4.87601 -9.45723 -0.287041 -0.254819 -0.690368
6653 -0.14464 -5.46986 -8.16015 1.65224 -0.290536 1.35096
3194 0.736784 -6.03443 -8.38943 0.126629 2.86866 2.06609
464 1.53798 -5.27687 -7.97687 1.29386 -1.58331 -0.348844
1083 1.96191 -6.35581 -7.92628 -0.58902 1.9853 2.53828
799 0.900537 -5.25228 -8.9505 1.09223 0.201892 0.369181
2772 3.48349 -5.35975 -8.18149 0.184215 -0.0762087 -0.307938
3386 1.75129 -5.67383 -9.0423 -0.298657 -0.446997 1.36175
1094 3.03198 -6.24137 -7.86256 2.87774 0.348088 -0.228105
3205 3.04039 -6.15468 -8.92236 -0.169136 0.721821 -2.175
5182 7.77862 -9.40946 -2.13684 0.665043 0.781639 0.438502
130 4.44351 -5.53955 -8.69159 -0.0290362 0.776334 -0.716498
570 4.85683 -6.57598 -8.74391 0.368045 -1.79437 -0.899283
3362 5.97163 -6.38775 -9.00557 -0.273715 -1.24243 -1.55253
126 -4.26252 -5.9246 -9.48421 -1.83383 0.958691 -1.43712
2928 6.36107 -5.05117 -9.27455 -0.777227 1.34162 0.724841
3016 5.78007 -4.97785 -8.46 -1.19855 -2.22352 -1.77808
322 5.66086 -6.0515 -8.06049 0.406055 -0.615539 -0.275345
2435 6.63565 -5.58762 -8.44249 0.47281 0.777476 -0.109516
3294 8.49405 -5.96755 -8.90275 1.27123 1.45626 -1.79702
178 9.19615 -4.49187 -8.12814 0.72557 -0.770439 1.088
147 7.4436 -4.5306 -8.99659 -0.616483 1.16451 -1.4491
4247 2.85882 -9.45307 -2.71334 0.792997 1.57375 -0.326553
284 -9.11853 -4.12518 -8.96268 -0.939308 1.30835 1.92597
875 -8.14546 -5.5073 -8.38839 0.619712 -2.19754 1.40117
2776 -8.65728 -2.94166 -8.90709 -0.838045 0.270283 -0.125834
3974 5.93725 -9.07864 -3.9586 1.51558 0.36216 0.659151
237 -8.06701 -3.83309 -9.00751 -1.15787 -1.55617 -1.63562
1079 -7.35049 -4.21102 -7.57499 -0.0811411 -0.658226 -1.78492
816 -6.15527 -3.70814 -9.27926 -1.43763 -2.03045 2.50331
3235 -6.23275 -4.53367 -8.53045 2.58006 -1.58458 -0.221883
453 -5.38831 -3.6367 -8.5252 -1.98533 0.217492 -0.81463
6359 -6.04181 -3.84264 -7.82037 0.531194 2.48258 0.0352716
531 -5.54921 -2.86927 -8.0124 0.815834 2.79646 -0.219565
235 -3.89801 -5.18004 -8.66119 -0.374407 -1.54286 -0.516229
443 -4.00202 -3.78606 -9.35734 0.561524 1.34838 -3.43149
5504 5.01193 -0.900026 -1.69663 -1.35968 0.302006 2.73385
220 -3.54311 -3.3266 -8.30148 -1.98653 1.27824 -0.011895
2999 -3.18355 -4.28735 -8.50799 1.61606 -0.757694 3.67363
643 -2.9521 -3.53866 -9.1414 1.17355 -1.60242 1.40915
463 -2.15593 -4.82857 -8.23138 -1.23309 1.28225 0.48215
250 -2.25714 -3.78246 -8.27251 0.52542 -1.23951 1.35592
922 -1.3979 -4.17077 -8.88105 0.425895 0.975896 -2.15102
2651 -5.76 -7.32538 -9.46179 -1.71687 0.0862242 1.68862
4636 -0.300773 -4.53893 -8.54782 3.18911 0.214496 1.00782
1456 -6.47273 -6.39065 -0.110914 0.743065 0.700755 0.836876
2956 -0.214765 -3.46043 -9.26672 3.19517 0.145532 -0.544958
3863 0.561238 -3.37715 -7.80869 0.287823 0.29097 1.45571
3288 0.596376 -4.50918 -7.98206 -1.10299 1.21382 0.125841
460 1.69545 -4.44964 -8.85759 -1.44559 1.0823 0.502235
3342 0.668571 -4.11208 -8.89435 -0.140952 -1.0577 0.359644
1027 1.33358 -3.64173 -8.47663 1.65246 -0.563771 -0.320978
4327 -6.20304 -0.109794 -5.55054 0.864119 0.833638 0.22976
3159 2.31817 -3.88688 -8.09787 -0.698271 0.0651791 1.08584
3101 3.35215 -3.3437 -8.16804 -0.535444 -2.97873 2.79862
3395 3.28188 -4.31926 -8.41406 1.0526 1.91467 -2.13025
2872 2.31978 -3.61389 -9.01833 2.79648 -0.987685 1.60802
2725 3.69924 -4.33218 -9.37044 -1.16554 2.32445 -0.765799
3405 4.99139 -3.55161 -7.08035 -0.712496 2.54267 1.22192
3065 4.29721 -4.04112 -8.06998 1.27782 0.360914 -0.326945
3440 4.20211 -3.43798 -8.86781 -1.00346 -1.83771 1.39493
3017 4.84356 -4.21319 -9.0975 -1.86231 0.152244 -0.542964
3352 4.94993 -4.90445 -7.83754 0.0141015 -0.969205 1.64982
3014 5.71352 -3.73764 -8.79894 0.79704 -0.397154 3.08764
171 4.85461 -3.12111 -7.97945 1.18098 -0.824299 -2.13692
3529 5.46316 -4.06334 -7.91776 -2.27049 -2.1981 0.624329
6911 -7.78511 -9.2181 -7.91288 -0.931409 -1.67058 -0.858677
375 6.52599 -4.14115 -8.64662 -2.52225 1.74654 -1.46856
388 7.36868 -3.55817 -8.70527 -0.631015 -0.452197 0.362295
2613 -1.46489 -9.13013 -9.35255 -1.80257 0.38844 -0.37852
1312 -3.66291 -2.31089 -0.0340714 -0.586043 1.70445 -0.70828
3407 8.58225 -3.50972 -8.20388 1.94488 -2.3031 2.30044
557 -9.39509 -3.58724 -8.1091 -1.59061 0.564094 -2.65646
1160 9.12297 -9.52442 -5.03132 0.021554 -2.0704 -0.994751
1098 5.45379 -0.190983 -4.23687 -1.87549 3.24906 1.21889
3071 -8.30774 -1.53136 -8.24659 -0.162456 -1.19578 -0.257867
4138 -9.09955 -2.50805 -8.0456 1.99315 -0.0599935 -0.122456
3033 -9.27712 -1.45138 -8.44068 0.521923 0.90474 -2.32262
162 -7.74355 -2.77858 -8.75014 -0.56535 -2.19741 0.767727
1070 -7.25921 -1.92881 -8.03683 0.77489 -2.1257 0.236734
824 -6.59659 -2.83416 -8.31474 0.457448 -0.857589 -0.706438
1592 -6.36922 -2.91525 -0.218301 -2.37423 0.741744 -0.249833
196 -6.93793 -3.81995 -8.4823 -5.31655 0.162401 -0.432987
2800 -5.85255 -2.3361 -8.8616 1.40727 0.275143 -1.10244
5179 9.21994 -9.15826 -3.25553 0.323237 0.0693738 -1.23011
252 -4.95493 -2.00295 -9.00854 0.586082 -1.18147 -1.28784
1013 -4.65191 -2.87084 -8.33561 -0.230733 -0.823862 1.14951
3803 -4.08345 -2.0381 -8.03035 1.3919 -0.581543 -0.198605
3470 -4.05958 -1.66918 -9.05702 0.176904 -0.290194 0.39036
3410 -5.15509 -2.94901 -9.41192 -0.24372 -1.7297 -0.788655
826 -3.9343 -2.67974 -8.96197 0.326962 0.179059 0.346551
109 -2.90946 -2.46641 -7.9442 -0.257294 -1.59037 -0.778035
342 -3.06482 -2.04761 -8.97502 -0.239038 -0.144015 -0.94054
213 -1.39136 -3.05368 -9.2211 -1.65792 2.117 -0.102851
1033 -2.16305 -2.69173 -8.61272 -0.875066 0.687441 -1.10744
3431 -1.05738 -2.15054 -8.93305 -0.911306 -0.890235 -0.965773
4130 -2.02807 -1.75849 -8.93005 -1.85777 0.896045 0.651277
1423 3.26616 -0.455547 -3.52272 0.780761 0.0238588 0.730097
610 3.819 -5.90291 -9.46649 -1.45042 0.396306 0.971166
176 -0.145818 -2.73343 -8.54649 -3.32661 1.19332 0.333702
4006 2.50696 -9.4624 -5.7782 -2.13194 0.803918 -0.424143
1668 6.43939 -4.39858 -0.216004 0.38265 -1.57422 0.169609
3102 0.700897 -3.07812 -9.0556 1.49652 0.729367 -1.34421
3289 1.55837 -2.54235 -8.69816 -0.228098 1.62092 0.159874
3475 0.603287 -0.931019 -8.85811 -0.880357 0.692278 0.265553
186 2.18104 -1.88079 -8.18619 -2.16274 -0.107664 -0.795552
1039 0.698463 -2.06299 -8.7969 -0.882508 2.19672 -1.69582
5505 2.15371 -1.40801 -9.34176 -0.569389 -1.73337 1.53881
795 2.42842 -2.89801 -8.12743 -2.92394 -0.76608 -2.18818
3479 3.15999 -2.1931 -8.72744 -2.42503 -1.80247 -2.15398
3485 2.5313 -2.40056 -9.39556 0.76557 0.922475 -1.75045
805 4.00228 -2.46303 -9.01471 -0.669796 1.10183 -0.000188176
3536 3.31286 -1.48872 -9.45457 -1.5725 -0.86713 -1.31121
3537 3.88599 -1.50093 -8.71283 -3.01955 -2.95962 -1.67778
768 5.03104 -2.85396 -9.07466 -2.01346 1.82599 0.226624
2769 3.86941 -2.4479 -8.03683 0.187114 -0.740858 -0.828045
850 5.79663 -2.2277 -8.79565 0.0951844 -0.748045 -1.72986
3787 7.33761 -0.0339157 -3.9292 0.768759 -1.13964 -1.60758
3358 8.15519 -3.40871 -9.51729 -1.58108 0.84554 -0.878523
197 6.68325 -2.75296 -8.82242 1.49173 2.10259 0.552809
3445 7.8298 -2.71254 -8.58093 -2.79313 1.97301 1.24675
6370 7.96395 -1.75959 -8.92898 -1.80851 -0.778455 -2.91543
1190 4.60518 -9.32118 -7.9297 -1.57508 0.888644 -2.15263
2429 1.20953 -4.66554 -0.147216 0.0816487 1.18577 -0.751753
3324 -9.4148 -2.05164 -9.18938 -1.00288 0.321356 -0.148058
6625 -8.86143 -1.23964 -9.48526 1.00804 1.48998 -1.52875
3206 8.74841 -2.05866 -8.30553 -0.816128 -1.95896 1.12615
6340 8.66259 -2.3059 -9.30723 -2.03048 1.18185 -1.83416
2739 9.30149 -2.87653 -8.71172 1.43545 -1.12176 -0.374135
6602 -1.10667 -8.14837 -9.2057 0.211417 -0.981708 -1.14752
3785 -8.55082 -0.533231 -8.10108 -0.549718 2.20784 0.550247
478 -7.71364 -0.845487 -7.59046 0.775799 -0.637463 1.00723
448 -7.83588 -0.820387 -8.82709 0.57895 -0.967394 1.64361
3899 -6.9357 -0.354234 -8.32949 -1.92536 0.628588 0.201573
3753 -6.89308 -0.507377 -9.38666 -1.03449 -0.396659 -0.368099
2422 -3.80186 -5.42614 -0.511115 -1.57629 0.62295 -1.82082
4375 -5.38932 -1.11806 -9.13835 1.08677 -0.479064 0.480887
3856 -6.53187 -1.35478 -8.76166 1.93921 -1.20392 -1.66692
1641 -5.65036 -1.32318 -7.96256 -0.19283 1.0432 -2.33104
6338 -6.03728 -0.466026 -8.76862 0.460332 1.66818 -0.940325
3761 -4.67714 -1.22212 -8.39646 -0.0509431 -0.858133 -2.63623
5541 2.13061 -0.157901 -0.364928 0.323153 1.41949 -2.8485
686 -4.77503 -0.27407 -8.50563 1.06107 -0.81578 -0.480786
4625 -2.7681 -0.152154 -7.97974 -2.07312 2.75503 2.50618
4141 -2.7675 -1.19938 -8.41088 3.53491 1.76717 -0.524766
4094 -3.81006 -0.825896 -8.51953 0.723145 2.8174 -1.52969
1833 9.33783 -6.69086 -0.217522 1.57652 -0.84942 -0.242302
3378 -1.88624 -0.469914 -8.48933 -1.30564 1.79198 0.101176
4335 -0.904464 -0.51625 -8.21723 0.354474 0.314615 3.06527
261 -1.20334 -0.581992 -9.38054 1.02606 -2.93469 2.53431
5051 -6.17387 -9.34802 -3.59885 -0.129732 -1.30971 -1.20309
6639 -2.06445 -0.918592 -7.5326 2.01788 -0.283532 -0.0617412
839 -0.329259 -1.34305 -8.86093 -3.74075 0.337161 -2.45331
2213 6.05625 -3.408 -0.137568 -0.0803924 0.0172998 -1.31758
4615 -9.17202 -0.143123 -5.89404 0.221625 2.43884 0.445509
1123 -0.212122 -0.850578 -7.63386 0.326837 -0.783043 0.849453
3329 0.744294 -0.314234 -8.03013 -2.43513 -2.00102 1.26744
3578 2.35119 -0.444859 -9.0663 -1.06961 2.2664 0.256006
550 1.54422 -1.06397 -8.32505 -1.49673 -1.47577 -4.12752
5445 -2.12182 -7.04431 -0.00797402 4.47487 0.871277 -0.148143
3829 2.69624 -1.18098 -8.52669 -0.785421 -1.64401 -0.399532
2093 0.248658 -8.68996 -0.327378 -0.484406 2.17511 1.0928
265 4.69728 -0.987792 -8.35336 -0.305515 -0.462259 0.988524
416 -1.71469 -6.35993 -9.3512 2.61367 -2.08027 -1.22113
3493 4.85635 -1.91852 -9.39018 1.1967 0.679849 -1.78514
234 6.5259 -0.46374 -8.53172 1.88562 -0.496307 0.174627
6708 1.57344 -0.0402185 -8.63187 -2.26229 1.84341 -0.532369
240 7.04203 -1.65249 -8.82991 -0.12044 -1.22546 0.167048
3125 8.16686 -0.710522 -9.22528 0.325417 1.36651 -0.558009
762 0.86359 -9.3686 -7.70517 1.72123 1.77443 0.356475
677 9.09813 -1.27016 -9.24154 -0.579277 -0.310584 -2.75392
2286 1.01124 -1.8576 -0.173527 -0.13402 -0.176126 -0.318764
1820 8.89551 -1.33721 -0.822091 -0.64639 -1.49274 -0.269307
683 -8.48223 -8.87829 -7.28294 -1.66605 -1.62831 -0.184635
355 -8.62794 -8.05792 -6.78712 0.266043 1.05228 -0.292307
3349 5.30457 -0.867892 -0.705337 -1.70573 0.897519 0.722661
296 -9.44081 -9.09175 -7.14696 0.887112 -1.5103 0.263188
2426 7.5132 -5.48333 -8.96599 2.04759 -0.0521498 0.708157
56 -7.80848 -8.10699 -7.96367 -0.816007 -0.343263 -1.14677
3992 -7.62984 -8.54867 -6.81274 2.42781 -0.963049 -0.890653
4894 -6.99145 -8.65307 -7.5824 0.129612 0.404384 -0.897381
433 -5.37309 -8.34332 -5.79336 -0.112921 -2.29819 2.42086
168 -5.07129 -8.28414 -7.01012 3.63298 1.6844 -0.568241
6880 -6.14203 -8.57334 -6.9171 -0.0724715 2.14562 -0.605211
539 -5.2439 -8.36206 -7.97584 -0.292339 -1.40888 -0.174691
3702 -6.46456 -7.77368 -7.62608 0.744869 -1.47404 -1.41221
2648 -3.42324 -7.71936 -7.53559 -1.8322 0.986262 0.41648
396 -3.95561 -8.51234 -7.51931 0.572004 -0.896031 -1.33441
3214 9.2448 -7.26214 -9.13649 -0.232953 -2.11858 -0.289851
3991 -4.44449 -9.14124 -8.10886 -0.932879 -0.164906 -3.62029
3282 -2.86423 -9.1775 -7.33618 -2.41419 -2.56751 -0.107683
24 -2.75346 -8.47377 -8.07494 -2.12684 1.28601 1.79523
1790 -2.42196 -8.13032 -7.00247 -1.25406 -0.983447 -1.52916
5126 3.04582 -0.789392 -0.463915 0.815874 0.451481 0.568101
2702 -1.90162 -8.89637 -6.66573 0.213612 1.01975 0.05765
354 -0.696842 -8.88999 -7.56364 -0.329241 -1.18844 -2.18854
652 -1.41426 -7.97914 -6.31104 -0.44203 1.4044 2.30149
1085 -0.749777 -8.79199 -6.37296 -3.36432 1.37179 0.0139955
655 -0.00329151 -8.13883 -6.46507 0.102862 -0.715543 -0.963171
222 -0.427457 -7.75711 -7.32635 0.626855 -1.02912 -2.25059
315 0.358516 -8.84576 -7.01292 -1.29659 -2.36209 -1.32046
3241 1.30123 -8.56199 -7.30401 -0.212403 0.428152 0.114328
3196 2.17019 -9.02839 -6.68727 -0.403374 0.825008 0.129406
127 1.70362 -7.95245 -6.75357 2.44661 -1.21037 2.17746
646 0.729004 -7.74833 -7.25082 -0.026987 -0.847732 1.97642
659 2.43983 -8.47945 -7.57051 0.690105 -0.261957 1.58183
3063 3.26897 -8.41284 -7.04985 -0.389312 -1.18755 0.263341
3295 3.01372 -9.44583 -6.851 0.325588 0.734158 0.861836
368 4.47384 -7.91356 -7.75866 -0.45939 -1.64058 -1.02018
3255 5.08967 -8.8286 -7.11033 -2.35378 -0.17856 1.29533
616 3.6926 -8.20521 -6.05333 -0.624469 0.670724 0.235396
704 3.5755 -8.95974 -7.97046 -3.93677 -2.66979 -0.253531
613 4.6593 -8.30972 -6.37546 -0.966071 -0.149904 -1.1395
317 4.16374 -8.88017 -7.02433 -0.70999 2.18405 0.844301
611 6.78066 -8.99082 -7.89831 1.86018 -2.44998 -0.0433189
994 5.71388 -8.57626 -6.50787 2.4049 0.822138 -1.1262
3726 6.17728 -8.33801 -7.33643 0.466668 0.399983 1.20555
778 -6.47382 -0.126165 -1.7147 -0.299442 -2.0683 2.64205
38 7.81152 -9.53133 -7.69327 -0.436125 -1.11376 0.6367
6808 6.73748 -9.01979 -6.81561 0.0392951 -0.311136 -1.97317
291 7.61479 -7.86696 -7.76604 0.659314 0.45232 -1.38489
3604 7.63718 -8.69794 -7.14982 -0.815947 1.86048 -3.39609
1877 -4.0714 -6.48902 -0.0989368 -0.4586 0.106524 0.780717
57 8.61629 -8.70795 -7.80277 0.195555 1.42235 -0.787835
621 8.66488 -8.50008 -6.71964 1.29424 1.38369 2.32435
378 -8.8899 -5.8528 -7.50845 -1.27948 0.531499 1.05998
1580 -9.06894 -7.09879 -7.03867 -0.6017 -2.47133 -0.442561
348 -8.14977 -7.37144 -7.19761 0.192917 0.843605 1.71095
2978 -8.42498 -6.70346 -7.91396 -0.131388 0.896012 -2.22687
400 -7.15896 -7.59512 -7.0648 0.796983 -0.112492 0.396773
52 -7.35502 -6.33269 -7.21 -0.808958 -0.403565 -1.12631
316 -6.53907 -6.76139 -6.6281 0.942972 2.71766 -1.78072
726 -5.69369 -6.66207 -8.21682 1.93094 -3.90921 -0.541529
103 -6.4465 -6.75932 -7.55997 2.52071 -1.56365 0.295702
1058 -5.43884 -7.45323 -6.5313 3.15451 1.93945 0.654074
584 -5.50125 -7.27796 -7.39923 0.270149 -4.06339 -0.636988
637 -4.60663 -6.89055 -6.71413 0.298554 -2.16417 1.20325
3986 -4.19846 -7.87722 -6.6098 0.671391 0.266907 0.573845
3710 -3.53221 -6.86524 -7.07802 0.40001 1.29401 0.0800558
741 -3.57936 -5.86096 -6.71867 0.630164 1.08195 -0.376407
734 -3.21257 -7.63819 -6.56187 0.491288 0.0530187 -0.00982512
123 -2.57379 -6.66393 -7.02038 1.46872 -1.03578 -2.30181
2961 -1.33666 -8.20766 -7.22299 -0.364601 -2.01146 1.64898
455 -0.963466 -7.10104 -6.726 0.60339 0.247491 0.139994
874 -1.78907 -7.27397 -7.36989 -2.38313 2.6394 -2.36648
4577 -2.35939 -7.40423 -6.16478 0.219299 -2.92027 0.0417678
3767 -0.586832 -6.93228 -7.84025 -1.33916 -1.36385 -1.28284
224 0.225481 -6.46862 -7.50501 2.10078 1.93032 -1.12479
882 -0.0293678 -7.00313 -6.79053 -0.84754 0.460037 0.400069
231 1.26832 -6.94469 -7.52884 -1.21306 -1.64819 -0.549463
174 2.50683 -7.19729 -8.08609 -0.0883513 -0.705126 -1.44936
182 2.52549 -7.54027 -7.18 -0.250358 1.26514 -2.52577
267 2.75043 -7.89628 -6.07655 0.572278 2.28109 -0.10099
656 2.86935 -6.43978 -6.90662 -0.971158 1.62302 0.115232
692 3.44129 -7.47005 -6.63967 1.05724 -1.07914 1.57585
661 1.89202 -6.82928 -6.67944 -0.117159 0.0453802 -0.65474
80 4.39387 -7.35694 -6.83417 0.978999 -0.425703 -1.75955
122 5.34534 -7.54935 -7.19652 1.29157 0.0192525 0.752835
136 6.66567 -7.4478 -7.61817 -1.59948 -0.771703 0.329878
430 6.17575 -7.53354 -6.54193 3.81527 -0.843776 -0.338694
95 7.14381 -7.77751 -6.74549 1.22766 0.132625 0.517425
85 6.89285 -6.67601 -6.81052 -0.666207 -0.89073 0.143977
335 7.79677 -6.90058 -7.05519 -1.37728 0.836937 1.39102
47 8.41357 -7.61179 -7.2875 -0.323005 0.668025 -0.472383
300 9.42311 -8.06517 -7.24563 -0.625051 -0.321622 -0.211476
4893 9.12557 -6.84854 -7.55709 -0.957885 -0.866034 1.00961
88 8.82783 -6.82584 -6.61765 0.245823 0.506969 -1.87976
3267 -7.67226 -5.30113 -7.47355 -0.0641717 0.150372 -1.37088
484 -8.28863 -6.39496 -6.80089 -1.7751 1.03248 -0.283956
4562 -8.49011 -4.98971 -6.95069 -1.15141 0.945772 0.109751
345 -7.69286 -5.6427 -6.34247 0.54167 0.412062 -2.02345
395 -6.76914 -5.85173 -7.74983 -2.28549 -0.437102 1.6285
723 -6.31374 -5.6214 -6.38679 1.26122 0.299093 -0.554534
770 -6.63755 -4.93534 -7.43942 0.759364 -0.267042 1.19968
437 -7.67116 -4.51572 -6.66411 -1.66721 1.44447 -0.408859
639 -5.79234 -5.71148 -7.4514 -2.40146 -2.28053 0.389853
68 -5.65714 -5.01083 -6.71072 0.447708 -0.954118 2.52516
1207 -4.77444 -5.69618 -6.68469 2.90256 1.65871 0.300184
3323 -4.51398 -5.16565 -6.01347 0.896764 0.612002 -2.57713
452 -4.23315 -6.19279 -7.41386 1.53341 1.21967 2.46937
1542 -4.92991 -5.37377 -7.56439 0.402366 2.02349 1.45126
1645 -3.77965 -4.78637 -6.62824 0.0405331 0.00704052 -1.21195
742 -4.05058 -4.97091 -7.69013 -2.80929 -0.178068 -0.309789
507 -2.47105 -5.7181 -6.48476 3.07069 0.590573 1.10122
932 -3.1606 -5.53292 -7.6559 -1.12725 -2.15682 -0.755936
449 -2.1974 -5.68092 -7.61939 -0.772165 0.78033 1.92717
925 -1.97166 -4.92946 -7.12411 -0.0436912 3.00314 -1.41473
3398 -1.23565 -6.21854 -7.46305 -1.00592 2.71197 1.47723
3436 -1.27999 -5.54201 -6.6272 0.365029 0.34128 0.306056
3052 -0.609924 -6.26075 -6.29566 0.627534 -0.732397 2.10111
273 -0.365066 -5.68959 -7.16978 1.3983 -1.96194 2.28884
1088 0.291221 -5.95215 -6.61284 0.754211 -1.23689 -0.407318
133 0.523972 -5.28395 -7.42984 0.365363 -2.12475 -0.101824
3348 1.16921 -5.97456 -7.40222 1.19869 0.916895 -0.0801047
181 1.39324 -5.07163 -6.95377 -1.76109 -0.481241 1.12144
3441 2.45687 -5.1363 -8.19825 -0.623073 -2.19285 -0.634289
3331 1.62733 -5.87843 -6.30104 0.499839 -2.45321 -2.01982
1561 3.18138 -5.2617 -7.18532 0.188053 -0.997101 2.26914
808 2.27823 -4.9933 -6.38367 -0.709176 -1.24895 -0.574574
271 2.19358 -5.77053 -7.07188 -0.17642 -2.31656 -0.334302
384 3.76757 -4.64127 -6.31015 -2.53137 -2.42762 -2.96697
473 4.67273 -6.78089 -7.75424 -0.917831 -1.49845 -1.54847
3249 4.19621 -5.57807 -7.49864 -3.98917 -0.488206 0.514776
711 3.89468 -6.39941 -7.11298 0.747505 0.880895 -0.195746
532 5.76322 -6.60528 -6.2505 0.0694203 0.166056 1.96387
3298 5.90072 -6.78448 -7.24187 -0.727126 0.900657 0.19518
699 5.16017 -5.73753 -7.13533 -0.179021 0.538424 -1.56827
665 6.70458 -5.72911 -6.52592 -1.04452 -1.6111 0.183149
2534 8.22467 -4.89727 -8.37803 2.90413 1.70447 -0.638352
98 7.09323 -6.31264 -7.73634 -0.933565 -0.719477 -1.4532
991 7.04321 -4.95669 -7.77605 -0.657127 1.17651 -0.507112
3399 7.65375 -5.5684 -7.20937 -0.202698 2.9127 0.436559
3397 8.25201 -6.21205 -7.72971 -0.429883 0.0286676 -0.766239
3212 -9.23022 -6.34813 -6.59422 0.30792 -0.871776 2.07689
2640 -9.53477 -5.14294 -7.61942 -1.07183 -1.62178 1.51411
3115 9.07067 -5.79592 -6.93427 0.101928 0.232357 0.840849
1054 -9.38864 -4.99354 -6.50925 -0.566118 0.970323 -1.50095
6627 -9.22866 -3.27633 -7.18084 -0.150771 1.18552 -1.39719
191 -8.63391 -4.44723 -7.76478 0.00932792 0.355975 -1.44627
3268 -9.06025 -4.05063 -6.68617 0.314146 0.821168 0.467334
302 -8.23892 -3.61663 -6.87447 0.164931 -0.265036 0.414433
194 -8.37071 -3.46345 -7.85941 1.90831 -1.21685 3.49937
385 -7.33952 -3.46254 -6.79983 -3.41574 0.0885355 -1.18643
164 -7.6523 -3.83213 -5.8469 0.268871 -2.20921 1.49035
831 -5.33355 -4.5113 -7.79559 0.892264 1.80255 1.86215
74 -5.58227 -3.91388 -6.91888 -0.502078 -1.99022 0.699512
1553 -6.50375 -4.4701 -6.57139 -0.469827 1.05979 -1.11468
884 -4.35523 -4.28407 -8.4643 -0.397736 0.394896 -0.561122
3790 -4.79846 -3.63534 -7.6264 -1.88055 -0.58565 0.391809
1221 -4.67188 -4.53154 -7.01462 -0.230313 0.923413 0.953399
503 -3.77979 -3.78209 -7.34185 0.359598 -2.15358 2.13915
457 -3.05556 -4.58082 -7.57351 -0.00362255 -1.13859 -1.77775
2996 -2.76513 -3.56092 -7.52307 -0.860321 -0.724374 -0.137898
700 -1.37122 -3.35693 -8.30728 -3.40567 -0.528153 -5.07456
2804 -1.18864 -4.23465 -7.72218 -0.473184 1.26452 2.19499
1362 -2.06056 -3.92961 -6.98649 0.634509 0.0251863 -1.47691
263 -1.06359 -3.98943 -6.60989 2.45782 -1.07361 -0.5457
179 -0.378893 -4.73297 -7.44983 -1.13129 0.19328 2.33363
555 -0.354625 -3.59709 -8.28536 -1.7626 -0.446836 0.88078
838 -0.205748 -3.74662 -7.22985 -0.978805 0.429732 -3.16879
3041 0.537748 -4.29904 -7.03503 1.0462 -2.37714 2.33662
796 0.399894 -5.05214 -6.16729 -0.542442 -0.105428 2.45119
214 1.40638 -4.15201 -7.57776 0.422989 -0.146613 -2.12867
26 1.3185 -3.92369 -6.61069 -1.18802 2.14084 0.609733
177 2.29973 -4.61566 -7.27381 0.57484 -1.50654 -2.29937
1050 3.59504 -3.53889 -6.53979 -0.136371 -0.424785 -2.67808
852 2.80567 -3.32092 -7.23839 1.39502 0.587439 2.28524
3154 3.31947 -4.19817 -7.35932 1.11784 1.62615 -1.31884
3539 4.21228 -4.54027 -7.13827 -2.25861 0.136645 -1.61076
3305 3.98787 -3.17727 -7.4107 -1.15792 -0.589933 -0.167564
3356 5.45166 -3.17924 -6.34271 -0.313804 0.402924 0.268972
414 6.10828 -5.25777 -7.37643 0.156299 -1.46357 -1.07518
372 5.33738 -4.66211 -6.97356 0.754907 0.366235 -0.579898
727 5.92097 -3.80778 -6.99835 -0.643836 -1.26312 -0.511949
482 6.99364 -3.95581 -7.79073 -0.815673 0.876277 -1.06079
42 6.90113 -3.62976 -6.84743 -2.76606 0.45512 0.0547702
3250 8.05306 -4.19669 -7.77481 3.05249 -0.0583119 -1.44911
520 6.98039 -2.78379 -7.8793 0.212916 1.60314 1.93544
527 7.90438 -3.2521 -7.27745 -0.849995 -0.543812 1.93027
813 8.62935 -4.82756 -7.22505 -1.45534 -0.170503 0.507426
4288 9.01805 -3.85389 -7.42696 -1.92846 -0.189745 -0.780951
3311 8.13907 -3.82143 -6.48355 1.83248 -0.0611949 -1.38785
488 -8.15986 -2.45009 -7.73391 -1.76213 -0.108437 -0.498685
3791 -8.78157 -1.42725 -7.4169 -1.37164 -0.924674 1.81252
244 -7.41955 -3.17159 -7.87824 -0.834776 1.10524 -0.111957
3754 -7.36148 -2.47132 -7.16196 0.00027367 1.2011 1.05721
4333 -6.20796 -2.08311 -7.75104 3.63562 4.23072 -1.4493
288 -5.01653 -2.00893 -7.85227 -2.35859 1.46051 -1.91433
862 -6.48853 -2.29008 -6.60944 0.846347 0.551353 -0.500143
542 -6.56949 -3.14977 -7.30494 -0.96194 0.0787613 -0.463525
3423 -5.57594 -2.86363 -6.91476 0.524719 -0.10464 -1.88499
492 -4.2231 -1.43353 -7.1227 -0.914822 -1.0924 0.27454
498 -3.67182 -2.66416 -7.25796 -0.628395 2.04542 2.00008
4043 -4.61249 -2.40019 -7.02068 1.77079 1.42022 0.655726
1081 -3.61914 -2.88696 -6.29234 -1.23822 0.60142 -1.18984
3808 -3.29163 -1.33224 -7.62893 -0.689443 0.426768 1.50546
3383 -3.39853 -1.98152 -6.52128 0.583015 -0.681692 0.150152
696 -2.61393 -1.71616 -6.95003 -0.953678 -2.00689 0.766197
251 -2.71844 -2.745 -6.83726 -0.584794 1.54326 -1.22336
3376 -1.27846 -1.21882 -8.67846 1.71184 -2.12371 -2.55012
3334 -1.23153 -3.24515 -7.21061 -0.738265 -0.916813 0.533428
360 -2.07696 -2.89348 -7.61774 -1.55778 -1.35774 -0.518878
541 -2.03754 -1.9228 -7.85722 -1.05103 -0.28637 -1.90542
746 -1.53236 -2.21881 -6.99339 3.57345 1.39735 0.0464503
6065 -1.212 -2.35033 -8.01486 -2.60029 -0.764879 1.81587
451 -0.312765 -1.82689 -7.90687 -1.78033 0.540862 0.144128
761 -0.0709398 -2.75375 -7.41274 1.04824 -0.657963 1.22453
841 -0.490338 -1.77978 -6.79494 -3.14643 -0.823701 -0.0248808
4360 0.555493 -2.08876 -6.86889 0.286389 2.85276 -0.567022