ITEM: TIMESTEP
95000
ITEM: NUMBER OF ATOMS
6912
ITEM: BOX BOUNDS pp pp pp
-9.5244063118091962e+00 9.5244063118091962e+00
-9.5244063118091962e+00 9.5244063118091962e+00
-9.5244063118091962e+00 9.5244063118091962e+00
ITEM: ATOMS id x y z vx vy vz
2 9.53848 -8.79739 -8.68591 2.35664 0.868003 -1.87881
51 -8.64763 -7.98849 -8.87215 0.75382 -0.167992 2.84159
4941 8.0723 -0.236289 -1.85817 -0.963039 -1.26188 -0.819656
8 -7.86962 -8.73266 -8.83824 -0.359636 -0.123996 0.689488
294 -7.11961 -8.65 -8.09976 0.440041 -1.31389 -1.3406
55 -7.00338 -7.84658 -8.75863 -1.95326 -0.344905 2.39598
12 -6.32239 -8.74169 -8.84849 -3.00204 1.83569 -0.617867
59 -5.38874 -8.1055 -8.85381 1.26529 -0.0504909 -0.00200788
298 -5.51639 -8.90283 -7.86798 -2.15983 -0.042371 -1.31737
4071 5.63677 -0.00286484 -5.49135 0.755973 0.0747978 0.368048
16 -4.73445 -8.81298 -8.73876 -3.7216 -1.09603 0.214728
302 -3.93259 -8.71165 -8.0217 0.984578 -1.52494 0.187046
1684 9.4261 -0.953726 -0.850384 -1.41598 -2.78339 2.14973
20 -3.27862 -8.983 -8.8024 0.364045 -0.459758 -0.419858
4351 2.43121 -0.0700082 -4.14349 -2.9967 -0.983177 -0.00757198
67 -2.31488 -7.97579 -8.91344 0.701267 -0.256696 0.31426
313 -0.0070088 -9.46697 -7.98508 -0.0428435 -0.75733 -0.521957
306 -2.52223 -8.80728 -8.05907 1.03349 1.27091 2.27194
24 -1.5846 -8.80754 -8.91695 -1.12698 -2.37516 -2.79474
1794 -2.66872 -7.0869 0.0112898 -2.5798 -0.954891 2.14581
28 0.127323 -8.90347 -8.94557 0.307626 -1.20697 0.492537
71 -0.814381 -8.00961 -9.03455 -0.814299 -1.14413 -1.33183
75 0.966773 -7.86716 -8.74859 1.47618 -0.685751 1.59558
1175 -0.839863 -9.42363 -2.37091 -0.155008 -0.733963 0.213757
1471 2.4447 -9.44251 -1.05111 -0.719494 1.01978 -1.53939
32 1.65222 -8.73646 -8.83198 0.0316876 -4.45093 -0.467968
3491 3.90208 -0.351171 -8.71544 0.166794 -0.756449 -0.156047
1197 8.01704 -9.36927 -3.19232 -0.176759 0.627934 0.89126
36 3.1957 -8.43986 -8.74886 0.787912 -0.912361 2.47668
206 -3.85226 -2.24324 -9.40108 0.0399178 -1.63889 1.22135
331 7.12002 -9.44262 -7.19476 -0.165362 0.821836 1.68555
5185 9.5395 -0.0185311 -0.135165 1.69205 -0.965688 0.828667
40 4.7273 -8.90241 -8.76834 1.04392 1.29519 -0.197395
322 3.8115 -8.85261 -8.05477 0.78514 0.746994 -1.02346
266 0.782235 -0.986729 -9.48712 1.23941 -1.09363 0.270518
373 4.62252 -7.73984 -7.85996 2.066 -0.759894 -1.16113
35 3.69239 -9.45142 -8.81461 -0.380391 -0.903494 1.12177
154 -5.56916 -3.63756 -9.50512 -0.891202 -0.298044 -2.67762
44 6.52771 -8.54883 -8.68885 1.22224 1.43614 -0.9564
875 -5.49698 -9.42209 -3.93496 -0.499754 -0.279838 -0.235693
1179 0.746871 -9.45742 -2.47336 0.436455 1.27609 2.40217
153 -6.40103 -4.9137 -9.5014 1.21535 -1.49918 -0.922767
48 8.01421 -8.76315 -8.57302 0.855297 -0.174869 -2.28264
4359 5.6751 -0.12331 -3.85252 1.17006 -0.383196 -1.77257
91 7.05741 -7.75691 -8.79754 -0.0248386 0.35073 -1.02735
170 0.681569 -3.94306 -9.39986 -1.44053 0.673003 -0.0524157
5225 6.48582 -0.0621959 -0.123816 2.39459 -0.0864345 -1.62165
273 3.28121 -1.55898 -9.35796 0.61506 -0.872574 1.05932
99 -8.55262 -6.21123 -8.72237 1.66749 -0.548206 2.32821
52 -9.4473 -6.99426 -8.77214 -0.846392 -1.16257 1.04464
1989 -1.62698 -1.40611 -0.0721467 1.97313 1.36637 -0.487515
161 -3.15366 -5.08666 -9.33291 -0.980274 -0.851817 -0.850432
599 -0.869832 -9.47637 -5.82745 -0.35093 -0.164715 1.79574
56 -7.98002 -7.03808 -8.86883 1.39214 -0.566523 1.77626
342 -7.18518 -7.28495 -7.75679 0.998816 1.36843 -0.436515
103 -7.08556 -6.19895 -8.7368 1.40596 0.467691 -1.76832
60 -6.32793 -7.08333 -8.58362 0.413437 1.54121 0.4767
107 -5.56953 -6.49593 -8.58242 0.514383 -0.89031 0.922591
3364 -8.99524 -2.16339 -9.49326 1.06088 -2.06706 -1.90585
63 -4.05234 -8.05922 -8.81066 -2.92935 0.744167 1.81292
64 -4.75716 -7.32989 -8.93593 0.209449 0.193508 0.793574
111 -3.96498 -6.43697 -8.69361 0.327333 -2.45666 0.278559
68 -3.09446 -7.1771 -8.78638 1.56234 -0.321911 0.187996
115 -2.20076 -6.35275 -8.83739 -2.06139 2.36252 2.10444
354 -2.35493 -7.18229 -8.12981 1.84573 -0.215764 1.60861
401 -2.96627 -6.49209 -7.96797 -1.05077 1.52926 -0.732047
72 -1.54895 -7.23248 -8.818 -1.01035 -0.38629 4.31305
358 -0.766824 -7.09492 -8.1941 1.52949 -1.21478 1.93575
362 -0.118331 -7.13931 -9.04898 1.9017 -0.176485 1.75661
291 -8.76555 -9.3072 -7.26883 -0.530851 -1.3848 -0.385385
198 -7.17386 -2.08596 -9.44037 0.850527 0.227266 -0.016756
613 4.85596 -9.45873 -6.42473 -1.86739 -0.221166 1.48769
80 1.60494 -7.13361 -8.65818 1.08237 -0.678873 0.354057
413 1.53871 -6.33992 -8.0177 1.90623 0.165927 0.0710086
365 1.56399 -8.20294 -7.95745 -0.67495 1.10574 0.643053
79 2.20675 -7.9518 -8.77804 0.553622 -0.824409 -0.160758
84 3.27122 -7.22117 -8.79441 1.38768 -0.00820544 -0.567205
127 2.37369 -6.37523 -8.74233 0.856127 -1.02366 -0.850046
1894 -0.879532 -3.9143 -0.277167 0.814532 1.9929 0.487877
3483 0.846527 -0.0351843 -8.56926 -0.849873 -0.348077 0.642621
214 -0.650088 -2.44881 -9.33192 1.13735 2.02108 1.72819
83 4.07986 -7.91605 -8.85422 0.66618 -1.58173 1.22144
88 4.50215 -6.92865 -8.80329 -0.372169 -1.58475 2.22403
4653 7.87899 -0.0513265 -3.39663 -0.534705 1.25804 -0.0114874
326 5.18589 -7.76573 -8.81244 1.4895 0.0318165 -0.528794
87 6.28447 -7.082 -8.80399 -0.38258 -1.30404 -1.83817
1195 7.10552 -9.47831 -2.18934 2.12471 0.0585665 2.86123
249 -6.23819 -1.47074 -9.41068 -0.157028 0.903553 1.36949
307 -2.44972 -9.48611 -7.19686 -0.199268 0.968413 1.70675
92 7.03517 -6.33069 -8.8449 -0.485176 -0.997878 -0.366403
96 7.83592 -7.0384 -8.61682 -0.0295837 1.12628 -1.27456
95 8.7825 -7.72672 -8.75629 0.507294 0.399245 1.03768
143 8.74781 -6.25746 -8.8423 0.062971 -0.967056 -0.176179
221 1.61065 -3.32176 -9.28129 0.512905 -0.968893 2.53402
100 -9.44658 -5.47135 -8.61883 0.807915 -0.183741 1.73156
147 -8.7326 -4.78653 -8.57665 -0.734604 0.856431 -0.0544083
53 -7.94375 -7.92261 -9.50297 0.322793 0.104515 -2.96839
1926 -7.20445 -2.57021 -0.259488 1.48767 1.37103 2.90409
104 -7.77577 -5.45627 -8.81471 -0.76202 1.07509 1.93167
390 -7.20611 -5.5174 -7.8556 0.784004 0.297952 0.102014
151 -7.02647 -4.75273 -8.56978 -1.07831 -1.47924 -1.35796
202 -5.5398 -2.29951 -9.37179 -0.751074 -0.545153 -1.52013
3495 5.49506 -0.235701 -8.49643 -1.28064 -2.21019 -3.96255
108 -6.32916 -5.49853 -8.4526 -1.3395 -0.576247 0.710461
155 -5.59831 -4.79564 -8.71499 0.908761 0.545615 0.12227
441 -6.32695 -4.61708 -7.75477 0.148104 1.73381 -0.509476
597 -1.5614 -9.40936 -6.48605 1.01928 0.846746 -0.48482
112 -4.815 -5.72428 -8.79534 1.58207 0.696954 0.697624
158 -4.17365 -4.74299 -8.7876 1.63194 1.65394 1.1212
398 -4.06519 -5.70935 -8.08248 -1.208 1.12208 -0.39011
445 -4.59896 -4.82771 -7.84209 1.10018 -0.130895 0.116627
235 7.93243 -3.25194 -9.51902 -1.12126 -0.204693 -0.37863
116 -2.97441 -5.78104 -8.61816 0.049283 -0.206903 -2.47477
163 -2.5507 -4.76787 -8.5956 0.0606558 0.30658 -0.431988
38 5.4734 -8.5742 -9.50553 -0.349502 0.523352 -0.754446
120 -1.58693 -5.53996 -8.80255 -0.241893 -2.24823 0.908426
453 -1.69648 -4.75711 -7.97373 0.382074 1.53755 1.53722
76 -0.836421 -6.40661 -8.85224 -0.624527 0.292324 0.0737036
167 -0.909357 -4.75981 -8.57997 0.896298 -1.03284 -2.56107
124 0.0448844 -5.55523 -8.76549 0.708953 -0.640921 -1.17755
409 0.254119 -6.25895 -8.03904 0.716567 -0.00688958 -0.853902
123 0.739186 -6.52668 -8.87667 -1.37109 -1.5895 -0.00241968
122 1.35604 -5.63713 -8.84568 0.436596 -0.252532 -0.242452
410 0.901702 -5.61048 -7.77928 -1.23015 -2.65407 0.238048
461 1.6206 -4.76507 -7.94853 0.201368 1.23533 -0.58794
4655 8.91042 -0.0282094 -2.37254 -1.72847 -2.27681 0.591417
265 -0.0605434 -1.59151 -9.41022 1.58149 -1.21504 1.58711
128 3.21007 -5.33198 -8.82941 -0.31545 -0.340756 0.230734
175 2.35461 -4.82508 -8.70906 3.1093 -0.570605 -0.197064
131 3.64154 -6.16036 -8.68514 2.26635 -0.0809536 -1.60409
136 4.4263 -5.38238 -8.74345 -0.183647 -0.295182 2.08842
179 3.868 -4.54169 -8.66104 2.24174 1.038 -0.825304
149 -7.9478 -4.60787 -9.4674 -0.107288 1.07681 1.30369
132 3.80507 -5.44366 -7.88854 0.274757 0.234535 1.10807
5197 -4.80576 -0.234988 -0.14008 -0.278631 0.41997 -0.212895
609 3.19486 -9.37467 -6.51296 -0.844246 -0.122223 -0.0499624
135 5.38593 -6.23584 -8.77089 0.864741 -0.16886 0.339056
140 6.24301 -5.56356 -8.75272 -2.49896 0.648773 -1.13166
418 5.27573 -5.38556 -8.12124 1.96094 0.833454 1.09138
165 -1.60438 -4.8221 -9.51505 2.01551 -0.852579 -0.0287864
181 4.74698 -4.6339 -9.50764 1.08181 -1.81709 -1.4906
144 8.02753 -5.55231 -8.85316 0.873301 1.67888 -0.463643
1925 -8.00643 -3.12709 -0.106291 -0.437267 0.393523 -0.645046
191 8.7859 -4.82847 -8.66488 1.12895 0.693555 -0.532336
1998 2.4071 -0.762015 -0.102995 0.139839 -0.152824 1.31505
109 -4.92623 -6.50013 -9.47275 -0.413699 0.0100321 -0.908313
195 -8.85355 -3.16373 -8.46552 1.09483 -0.947509 -0.434345
239 -9.42407 -3.94295 -8.78235 -0.258902 0.511177 0.874954
481 9.34868 -3.28097 -7.85667 -0.236118 0.307437 -0.997344
229 4.5549 -3.1507 -9.51053 1.74098 -1.17558 -2.4036
152 -7.83266 -3.88061 -8.52739 -0.312691 -1.14323 1.10116
199 -7.27846 -2.94637 -9.04265 -2.98977 2.62955 -1.25
225 3.05503 -3.12428 -9.45003 0.989286 0.303747 -0.606564
489 -6.63338 -3.16725 -8.08035 1.63965 -0.0489669 0.0212723
197 -8.10132 -3.53384 -9.40472 0.0543789 -1.42455 0.381247
156 -6.1433 -3.88385 -8.70412 -0.324172 -0.625638 -0.615256
442 -5.53957 -3.96259 -7.87041 0.284178 1.04338 -2.54755
303 -3.88392 -9.48685 -7.18231 2.23704 0.629294 1.67722
4897 -9.38533 -0.220728 -1.73207 1.34566 -0.0692 0.657572
160 -4.87616 -3.93255 -8.77016 0.665493 1.24059 -0.109381
446 -3.88695 -3.87619 -7.87882 -1.11984 0.468911 3.17589
2006 5.62596 -0.855919 -0.179895 0.733053 -2.75526 0.918025
164 -3.28868 -4.12225 -8.88321 -1.29761 -0.0798099 0.457968
450 -2.41406 -3.96732 -8.03481 -1.06365 -0.0288586 -0.242353
497 -3.24628 -3.15006 -8.0386 0.396029 -0.144727 -1.20922
168 -1.59754 -3.9139 -8.61769 -1.5021 -0.440864 0.0184215
215 -0.886595 -3.04644 -8.51472 -0.987913 0.0378931 -0.0566006
454 -0.91668 -4.11326 -7.66822 -1.72034 -0.707226 2.5014
172 -0.277756 -3.85626 -8.46037 -0.641476 -1.03917 -1.24808
171 0.768687 -4.8583 -8.93997 -0.231459 0.390432 -1.28885
505 -0.128105 -2.94013 -7.62114 -1.02058 0.358428 1.76291
176 1.50033 -4.19425 -8.76481 -2.59757 -0.959588 -0.0839138
509 1.48233 -3.32613 -8.10216 -1.75696 1.5821 -0.187105
174 2.53235 -4.04692 -9.31073 -1.10179 -0.50368 0.544976
201 -6.32199 -2.94734 -9.35237 0.445311 -0.805507 -0.0992391
180 3.09085 -3.93014 -8.54403 0.162094 1.78527 -0.359207
223 2.43517 -3.26566 -8.6637 -0.171971 -0.0267921 0.195223
253 -4.68519 -1.61169 -9.4252 -0.752148 -0.922973 2.37836
513 2.98543 -3.10937 -7.94315 -0.474619 -1.82601 0.663963
1475 4.21977 -9.48663 -0.957117 1.56139 -0.747278 0.371098
1976 -7.10647 -0.796355 -0.167258 -0.311217 0.191132 0.812997
184 4.76768 -3.77971 -8.69951 -0.545331 0.662478 0.615971
227 3.79356 -3.35787 -8.64787 1.4913 -0.155817 0.335603
466 3.68229 -3.9062 -7.61725 -2.52916 -0.934615 0.818475
183 5.69656 -4.76147 -9.01464 -0.353843 1.44479 -0.73733
188 6.20841 -3.89692 -8.55721 0.155455 -0.54841 -0.883598
187 7.08997 -5.01736 -8.73571 -0.756109 -1.32894 -1.51124
192 8.14741 -4.11263 -8.98652 1.29511 -0.268753 2.97406
477 7.98059 -5.01477 -8.03306 2.42223 1.14503 0.905635
321 3.14076 -9.48177 -8.03765 -0.982458 1.01569 0.681598
237 8.82042 -3.10876 -8.75998 -0.623578 -1.51574 -0.224977
4651 7.13915 -0.119524 -2.4218 0.169932 0.38124 1.48103
478 8.5123 -3.92951 -7.98752 0.466172 0.433537 -0.132486
482 -9.01587 -2.34987 -7.95042 0.223707 0.287412 0.872202
243 -8.88965 -1.44792 -8.44536 -1.871 0.90876 0.683221
194 -8.11377 -2.53042 -9.38494 0.68149 -0.500114 -2.83942
200 -7.89954 -2.19998 -8.30964 -1.15595 0.707045 0.128515
533 -8.07022 -1.2465 -7.92335 -1.24342 -0.191278 1.78503
4645 4.65728 -0.130186 -3.01456 -0.239393 2.04304 -0.533859
203 -5.48321 -3.10514 -8.54808 -0.0584592 -0.783011 -0.340522
204 -6.46989 -2.26223 -8.6353 0.778079 -1.91468 -2.2916
490 -5.79007 -2.32095 -7.8344 -1.48287 0.868761 -0.139193
207 -4.05883 -3.1521 -8.63366 0.446047 -0.217658 0.262173
208 -4.70759 -2.28223 -8.66033 0.183515 -1.20026 0.621221
255 -4.04921 -1.12387 -8.67411 1.24774 1.414 -2.75402
246 -6.84725 -0.617829 -9.32795 0.528633 -1.04108 0.0177406
261 -1.55785 -1.77293 -9.37338 0.421415 1.14625 0.977793
4623 -3.61335 -0.0289892 -2.3815 2.3645 -1.31055 -0.165674
212 -3.14771 -2.39822 -8.56737 1.85663 -0.846794 -0.347728
226 3.72723 -2.40159 -9.47817 -0.362626 -1.02812 -2.07858
545 -3.20692 -1.38275 -8.11524 -1.06539 1.72647 0.513152
277 4.8285 -1.55675 -9.50295 -0.00198754 1.31556 -0.848717
211 -2.24189 -3.04492 -8.66998 -0.311667 -0.409696 -1.71566
216 -1.57127 -2.289 -8.51054 2.39222 -4.00207 -2.03804
502 -0.794392 -2.27048 -7.82683 1.08834 2.93428 -0.0215137
263 -0.670751 -1.51864 -8.62888 -0.700792 -0.0940395 -0.50251
133 4.59169 -6.07313 -9.53275 0.913056 2.58371 -2.45274
220 -0.0697109 -2.4116 -8.51192 -1.63469 0.0234923 0.747466
219 0.439257 -3.25435 -8.50534 -0.972582 -1.29549 1.26863
119 -0.873041 -5.41587 -9.45024 1.07311 3.3658 -0.241211
218 0.776311 -2.30862 -9.38425 -0.24201 1.37341 2.5095
224 1.47841 -2.48463 -8.71633 1.93844 -0.587734 -1.39491
506 0.88543 -2.50803 -7.97908 -0.680552 0.312953 0.155373
228 3.05832 -2.29987 -8.5652 -0.164482 -2.57587 -1.54748
583 -7.20788 -9.5337 -5.54522 0.793227 -1.47999 -0.814091
145 -9.37459 -4.9088 -9.42693 -1.25407 0.292632 -1.01202
517 4.55395 -3.2648 -7.93919 -0.618069 1.52632 0.372501
232 4.67371 -2.42597 -8.7667 -2.77292 -3.42158 -2.8759
565 4.77982 -1.94322 -7.85121 1.14228 0.39366 -0.129863
4943 8.90098 -0.0898403 -1.05357 1.8026 -0.0715344 -1.41177
4899 -8.67244 -0.143326 -1.00269 2.63641 0.48082 1.21701
186 6.94163 -4.08308 -9.38359 0.0402171 0.317399 -0.703422
231 5.48152 -3.07279 -8.689 -0.249821 0.591198 2.31163
236 6.34317 -2.72264 -8.68368 0.382098 0.378616 2.52002
279 5.58142 -1.98713 -8.6576 -1.54415 0.478303 0.213978
607 2.55557 -9.39561 -5.58552 0.888119 1.4265 0.479816
150 -7.07182 -4.13287 -9.45202 -1.2322 -0.773378 -0.137787
522 7.13359 -3.33413 -8.86881 -0.361982 0.457988 0.589241
240 7.83474 -2.39681 -8.8487 -1.06285 0.673307 -0.845593
283 7.03084 -1.59739 -8.86611 1.32587 0.220304 -2.19822
196 9.44398 -2.38432 -8.77662 -0.0828562 -1.02804 -0.40105
529 9.27943 -1.48362 -7.93628 1.62353 3.35221 2.03571
213 -1.33012 -3.28811 -9.46291 -1.65446 0.42601 -0.499651
530 -8.75595 -0.579865 -7.76723 -0.171724 -1.00548 0.651829
3481 -0.0359986 -0.12317 -9.45737 1.60584 0.218853 -0.17508
58 -5.8443 -7.28141 -9.46959 0.874123 -0.288924 -0.721991
247 -7.15216 -1.48643 -8.59986 0.762927 1.24541 -1.29433
248 -8.03295 -0.481862 -8.80818 1.13482 -3.50209 1.87043
534 -7.24067 -0.698642 -7.86295 -0.907966 -0.59997 1.13146
42 8.152 -9.47894 -9.52088 1.6297 1.35185 -1.52083
242 -8.89449 -0.838726 -9.45518 -2.39204 -0.56453 0.725794
251 -5.63228 -1.64902 -8.60894 -2.34059 0.472637 0.500056
252 -6.35648 -0.699055 -8.4622 1.0973 -0.211804 1.14864
537 -6.20987 -1.40358 -7.77164 -1.42204 0.333184 1.19433
4639 2.24946 -0.0918734 -2.26225 -1.33028 0.913606 -1.13347
256 -4.93953 -0.931491 -8.56228 0.271299 1.35588 2.03599
541 -4.93515 -1.67483 -7.78724 -0.232923 -2.23652 -0.80867
542 -4.16515 -0.683515 -7.85405 3.10663 1.139 0.382886
260 -3.16365 -0.571968 -8.78956 -0.714063 0.62302 2.2238
1810 3.84325 -6.90247 -0.155455 0.068691 2.77061 0.510877
98 -8.6239 -5.51929 -9.50914 1.14456 0.0713831 -0.773594
911 8.56862 -9.43333 -4.0521 -0.315662 0.747715 -1.33859
259 -2.33949 -1.52295 -8.7606 1.45867 -2.69916 1.32606
264 -1.66499 -0.688856 -8.82094 1.20841 -0.961144 -0.222874
1854 2.08899 -5.43874 -0.149444 -0.607312 1.55112 1.53099
262 -0.746934 -0.841656 -9.32632 0.97041 3.15885 -1.18914
901 4.89704 -9.47253 -4.78199 -1.88259 -0.114032 -0.235789
268 0.169498 -0.89966 -8.56606 -0.876052 -0.191324 1.39758
2010 7.17373 -0.8007 -0.0459118 -1.6732 -1.11674 2.49251
1858 3.86643 -5.47679 -0.119228 -0.136735 1.1292 -1.51596
267 0.749266 -1.76129 -8.6502 0.569141 5.19327 -0.76743
272 1.65279 -0.634116 -8.52397 2.72 3.44386 -0.809713
557 1.46518 -1.50906 -7.91105 -3.16399 -1.23657 -1.48409
1941 -1.55765 -3.11923 -0.0523414 -0.646111 0.747063 -0.108238
257 -3.39866 -1.35806 -9.41597 3.02458 0.371698 1.56371
271 2.24998 -1.63791 -8.57876 3.55599 -0.946762 -0.0884636
276 2.94196 -0.857547 -8.79774 0.476894 1.20191 -0.514115
275 4.00152 -1.69837 -8.55804 -1.05149 1.8714 0.119024
280 4.8232 -0.95587 -8.64476 0.481636 -0.415557 -1.83299
562 3.97664 -1.08377 -7.79783 -0.44354 -1.31229 0.415743
3479 -0.674784 -0.0393548 -8.63323 1.11193 0.431857 -0.0595597
4935 5.46575 -0.0890319 -0.706668 0.170528 -0.923599 0.836419
1738 -5.33305 -8.92144 -0.105251 0.905228 -0.638057 1.10324
4035 -8.60404 -0.0191684 -5.66745 0.745204 2.52543 -0.241436
284 6.04123 -1.09029 -8.62431 0.383461 0.364897 0.464786
4911 -3.87874 -0.0751616 -0.702282 1.93431 -1.52962 -0.99502
288 8.02507 -0.835111 -8.81991 -0.140869 0.5429 0.446221
4333 -4.9505 0.0120111 -4.69979 -1.70456 1.1981 -1.98654
4929 3.12139 -0.209464 -1.57128 -0.53514 -0.0962592 -0.525381
162 -2.36606 -4.18473 -9.48392 -1.56745 1.29289 -0.0188413
287 8.58866 -1.60835 -8.82976 1.55738 1.07343 -0.567626
244 9.31571 -0.762876 -8.79689 0.607369 0.0801662 1.36964
105 -6.22337 -6.41523 -9.34088 -0.492202 0.377269 0.287593
337 -9.46566 -7.7271 -7.90628 1.27338 0.834485 -0.344855
290 -8.65795 -8.64491 -7.96194 -0.295031 0.507713 -1.51344
339 -8.76832 -7.7549 -7.24335 0.847947 1.26277 0.14087
296 -7.90067 -8.6947 -7.27763 2.11846 -0.00953625 0.571802
343 -6.86874 -8.12284 -7.23948 -1.87653 -0.680751 0.163697
582 -6.90949 -8.90005 -6.55306 -0.967435 0.664132 1.78955
341 -7.87604 -7.95293 -7.93254 0.0208919 0.642572 0.72881
345 -6.14132 -8.15748 -8.06692 0.861466 1.11133 -0.973888
300 -6.28605 -8.89925 -7.25403 -0.364185 2.0868 -0.34043
347 -5.49174 -8.0067 -7.3456 -0.664881 0.0950324 0.168412
586 -5.69475 -8.93453 -6.59122 0.374376 -1.35368 0.792393
349 -4.72971 -8.14221 -7.93568 -1.58956 0.946944 -1.37946
1861 4.74776 -6.22019 -0.0796536 1.34415 -1.77543 0.966557
304 -4.77964 -8.86161 -7.07556 -0.251987 2.84586 -0.8625
351 -4.02138 -7.98867 -7.14786 0.306714 -0.156685 -0.318296
637 -4.84696 -8.01884 -6.35088 -0.230092 -1.20395 -0.0160126
308 -3.20784 -8.74921 -7.30659 -0.963047 -0.695634 1.21211
353 -3.06681 -7.79416 -8.12824 0.336377 0.0797771 -0.609652
355 -2.41575 -8.10042 -7.31374 -1.4964 2.34904 -0.526828
641 -3.32832 -7.9048 -6.41093 -0.941011 -1.61983 -1.79008
357 -1.81286 -8.04777 -8.09882 2.02029 2.86481 0.116486
312 -1.58958 -8.62183 -7.29924 -0.845034 0.357858 0.99397
310 -1.04103 -8.73731 -8.14168 1.63823 0.0263976 0.0829221
359 -0.96897 -7.8286 -7.63865 0.00629855 -0.875949 -0.748964
316 -0.0948091 -8.69406 -7.32366 -0.918045 0.633131 0.942226
361 0.0562043 -7.73128 -8.30524 0.162003 -0.982732 1.75885
1727 8.57314 -1.68226 -0.832011 0.647284 1.47821 -1.70911
314 0.678739 -8.78585 -8.00523 -1.5639 0.698587 -1.23532
320 1.42726 -8.57259 -7.06839 0.685213 -0.0911399 0.194666
318 2.32198 -8.8121 -7.91782 0.535274 -0.0614468 0.911183
369 3.22248 -7.87346 -7.91467 0.757067 -0.441538 -0.382734
324 3.04828 -8.5694 -7.19541 -0.432409 1.44831 -0.00700033
367 2.28489 -7.91047 -7.09867 0.249244 1.13416 -0.168255
577 -9.46714 -9.41699 -6.23495 -0.127478 1.03707 -3.11326
245 -8.04003 -1.42661 -9.30723 4.23128 -0.555848 -0.971147
867 -8.79055 -9.47546 -3.84053 -1.08641 0.943648 0.74471
328 4.69437 -8.67693 -7.53037 0.873421 0.677382 -0.0878307
610 3.99494 -8.67007 -6.63953 -0.911266 -0.169046 -1.62176
1721 6.50046 -1.69905 -1.55514 -1.64024 0.146195 1.27618
327 5.57003 -8.74164 -8.21602 -1.69285 -0.311355 -2.20357
332 6.27803 -8.66518 -7.41272 0.832983 2.57889 0.640559
377 6.34937 -7.7695 -7.87538 0.200815 -0.588998 -1.03527
375 5.49326 -7.79783 -7.24111 0.978263 -1.27003 -0.0362937
665 6.29114 -7.89673 -6.606 -0.294233 2.56638 -0.255302
1986 -2.35515 -0.710928 -0.0420242 0.586987 -3.7568 2.10905
330 7.20472 -8.72378 -7.9634 -0.22464 -0.701435 -0.353069
336 7.89104 -8.5638 -7.07156 1.30312 2.86135 -0.142915
379 7.23663 -7.71998 -7.1856 1.81606 -1.27703 -1.04146
381 7.77952 -7.90781 -8.08344 -0.150175 -0.579778 0.362067
2013 7.79679 -1.65898 -0.117529 -1.1028 -0.833724 3.07862
334 8.79426 -8.54876 -7.91566 0.497132 0.907011 0.981668
292 -9.40621 -8.54759 -7.2381 -1.94153 0.307158 -0.641636
383 8.67829 -7.85601 -7.09813 -1.18051 -0.130028 0.538373
338 -8.59155 -7.22499 -8.11085 1.66057 3.21235 1.74305
387 -8.62704 -6.59683 -7.19621 -0.932055 0.223689 -2.01668
344 -7.83133 -7.24526 -6.92691 -2.06521 2.45667 0.0160022
391 -7.03944 -6.36722 -7.17955 0.947156 -1.28969 -1.76568
393 -6.44538 -6.31444 -7.92056 -1.66923 0.319647 -0.912946
346 -5.33517 -7.32873 -8.12033 -0.258477 1.38841 -1.06324
348 -6.12541 -7.17326 -7.54426 1.04235 -0.175488 1.00417
395 -5.58206 -6.38976 -7.08458 0.218312 -0.683785 -0.159472
397 -4.77823 -6.45194 -7.90818 1.08689 -3.10385 1.75812
350 -4.00835 -7.23118 -8.02024 -1.72279 -1.53669 2.13024
352 -4.76596 -7.19111 -7.25775 0.49551 0.991373 -1.29443
399 -4.09922 -6.44112 -7.24867 1.64427 -0.416315 -0.977523
356 -3.26225 -7.21094 -7.32526 -0.736016 -1.04507 0.598224
403 -2.39736 -6.52426 -7.18437 0.165332 0.86724 -1.17131
642 -2.56948 -7.26914 -6.56534 -0.283527 0.281036 -0.301521
360 -1.82769 -7.29353 -7.34674 1.1891 -0.16078 -2.70491
693 -1.59765 -6.60307 -6.4066 -2.0508 1.85566 -0.434137
407 -0.830611 -6.44857 -7.2347 2.39073 1.51954 0.918621
364 -0.0881383 -7.04961 -7.40841 -1.51808 0.859999 1.53776
368 0.901514 -7.1126 -7.88379 0.357525 1.36833 -0.981131
697 0.0873736 -6.44069 -6.33729 0.333258 -0.308233 -1.3453
363 0.646001 -7.97825 -7.41265 -1.83926 0.473828 2.08285
411 0.949273 -6.39161 -7.19758 0.678254 -0.434897 1.22536
654 1.52419 -7.1909 -6.96427 1.43923 2.9193 -0.35372
650 0.816192 -7.30615 -6.30522 -0.800131 1.20165 1.07879
366 2.41153 -7.06481 -7.93043 -2.36208 -1.40805 -2.16282
372 2.9801 -7.19053 -7.09393 0.165445 -1.29062 -0.368799
415 2.26757 -6.36617 -6.99971 0.711764 -0.101234 0.97125
371 3.89716 -7.78541 -7.11635 1.29728 0.0344087 0.079891
370 3.85927 -7.05645 -7.86494 0.00784412 1.60653 1.97639
376 4.61424 -6.99241 -7.08846 -0.671785 -0.141306 -0.36965
658 3.80199 -7.099 -6.26689 0.128968 0.408759 1.12052
374 5.37678 -7.05395 -8.06303 -2.2012 -2.00776 -0.564949
380 6.27095 -6.97579 -7.16369 1.56517 -1.73658 -0.84627
713 6.34284 -6.37784 -6.35927 -0.89221 2.08192 -2.2149
662 5.49058 -7.08645 -6.40435 -1.22433 0.713871 1.10085
378 7.02656 -7.10341 -8.07646 1.93533 1.50731 -1.61686
384 7.9416 -7.02289 -7.23165 1.0619 -0.378893 3.73692
429 7.71892 -6.29966 -7.9425 -0.533388 -2.57674 0.668021
717 7.67904 -6.25842 -6.41159 1.07963 0.472812 -1.87665
385 -9.33287 -6.42765 -7.87432 1.66666 -1.81915 1.78219
340 9.53655 -7.04477 -7.09381 0.931406 -0.603628 1.14805
382 8.76054 -7.15874 -7.93983 0.34273 -0.837395 0.797561
431 8.56823 -6.20639 -7.21968 -0.38358 -0.438771 -0.349869
386 -8.73679 -5.51082 -7.93548 -1.73364 -2.89639 0.528278
388 9.44023 -5.65936 -7.2753 -0.547136 -0.21911 -0.451101
435 -8.69273 -4.84716 -7.24125 1.12223 -0.967333 -1.0741
437 -7.88409 -4.78235 -8.0036 0.470868 -0.48717 1.59996
389 -7.85203 -6.32219 -7.87486 -1.06667 -1.32461 0.103044
392 -8.07124 -5.62521 -7.21068 -1.66631 1.94799 -0.542048
439 -7.05859 -4.84187 -7.13276 -0.381848 0.282863 0.32975
725 -7.98444 -4.82077 -6.3826 0.213475 2.36806 -1.40062
394 -5.46115 -5.54205 -8.03863 0.00370727 0.972443 1.1153
396 -6.13003 -5.53291 -7.24185 0.0671643 1.23629 -0.454817
729 -6.15452 -5.07624 -6.2665 1.56418 0.990913 -1.67086
443 -5.32813 -4.67905 -7.01366 0.440825 -0.693952 -0.73709
400 -4.69315 -5.57078 -7.1925 -0.465351 1.26081 -0.394028
447 -3.86263 -4.86189 -7.16317 -0.888162 -0.235133 -1.21804
402 -2.23673 -5.68267 -7.99411 0.315743 0.495416 0.501809
404 -3.2373 -5.78648 -7.24073 -1.3353 0.0875721 0.410391
451 -2.54559 -5.0042 -7.29269 -1.6282 -1.73491 0.526611
405 -1.62549 -6.43267 -7.91617 -0.145153 -0.755591 -1.81248
408 -1.572 -5.56216 -7.0555 0.692507 0.748705 -0.513431
406 -0.88081 -5.68962 -7.98547 0.0174319 0.939749 0.321175
694 -0.889852 -5.64648 -6.3606 -0.878637 -0.654456 0.573385
412 -0.0260536 -5.69502 -7.32028 -0.116219 -2.06747 -0.519173
745 -0.179051 -4.86441 -6.38461 -1.86202 0.741467 -2.17542
698 0.565873 -5.54641 -6.52431 1.34218 0.376166 0.569718
416 1.60102 -5.63148 -7.06257 1.55551 -0.714732 0.361399
459 0.898529 -4.69363 -6.96706 0.706689 2.02734 -2.15433
749 1.70124 -4.86654 -6.3211 -1.7542 1.00928 -0.348761
417 3.06568 -6.28655 -7.8147 -2.27193 1.94266 1.23944
414 2.2165 -5.71688 -7.95261 0.480755 0.624312 -1.56213
465 2.89801 -4.86818 -7.85725 -1.00054 -1.76021 2.59882
420 2.93652 -5.53567 -6.96306 1.3618 0.0650178 -0.68977
463 2.21989 -4.78821 -7.12001 0.699275 0.704146 1.51321
702 2.32135 -5.69625 -6.13645 0.182225 -1.40721 2.79621
421 4.51562 -6.22081 -8.05346 -3.25201 -0.72408 1.81959
419 3.7843 -6.2401 -7.0108 -0.585462 0.185708 -2.41562
424 4.62317 -5.37951 -7.20318 -0.368833 1.25799 0.276913
425 6.23403 -6.34799 -8.04345 -1.67304 -2.49111 1.15471
423 5.35747 -6.24113 -7.29573 0.252607 0.181803 -1.22115
428 6.162 -5.59369 -7.33359 1.33315 0.105871 0.114685
426 7.10096 -5.5364 -7.83563 0.415414 0.0455209 0.0606332
427 7.08626 -6.26852 -7.11482 -0.106008 2.9546 -1.29021
432 7.96837 -5.40906 -6.96172 -0.21599 -1.14876 0.879358
430 8.90315 -5.80984 -8.01284 -2.63709 0.023531 -2.74256
721 9.50997 -4.89821 -6.59546 0.478547 -0.281272 1.68015
479 8.81033 -4.82348 -7.18788 -0.756674 -0.753371 0.417623
718 8.8142 -5.50906 -6.37574 -1.1485 1.34392 -0.135996
434 -8.61261 -3.97902 -7.90987 0.435556 -2.13164 -0.136571
436 -9.51748 -4.02474 -7.05738 -1.57586 0.919045 1.0453
483 -8.72043 -3.25148 -7.13097 0.495843 -2.32414 1.13679
722 -8.73605 -3.96011 -6.28198 -0.743129 0.715309 1.41677
438 -7.21842 -4.00185 -7.75024 1.99026 -0.245393 -0.0967902
485 -7.69469 -3.10114 -7.78112 1.15695 0.18898 0.794182
440 -7.85036 -3.97962 -6.89209 -0.577956 -2.37356 0.233552
487 -6.91657 -3.25331 -7.07187 -1.07272 -0.200874 2.46571
726 -6.88536 -4.12722 -6.33374 -1.65466 3.26913 0.671026
444 -6.17987 -3.96045 -7.05448 0.153666 -0.437218 0.359198
491 -5.45372 -2.96752 -7.04689 -2.34776 -2.5729 0.337289
448 -4.54988 -3.99747 -7.04 0.855009 1.25913 -1.85429
493 -4.79271 -2.93614 -7.84111 -1.48597 -2.44046 0.726289
733 -3.98002 -4.01938 -6.2362 0.0839911 2.12748 -0.754187
449 -3.41474 -4.85301 -8.16046 0.15429 1.05486 -1.15058
452 -3.00851 -4.13623 -7.18332 1.21207 0.999027 -0.570166
499 -2.46035 -3.09802 -7.21623 0.601501 0.506075 -1.1125
738 -2.73347 -4.04693 -6.21763 -0.489441 0.50588 0.898638
501 -1.50752 -3.22438 -7.68387 2.44204 -0.518194 -0.393757
456 -1.84002 -3.96169 -7.03335 -0.120528 -0.49151 1.99686
455 -0.767576 -4.77916 -7.05613 0.276825 2.43278 0.797911
457 0.031383 -4.93872 -7.9471 -0.754461 -2.68708 -0.590583
460 0.0850243 -3.8793 -7.25543 0.939383 0.381674 -0.562294
507 0.813721 -3.17236 -7.17996 0.771393 0.915156 1.55204
458 0.813564 -4.24771 -7.95109 -1.23539 0.331894 -1.2026
464 1.50965 -3.93661 -7.22932 0.671608 -0.918973 -2.99175
511 2.27165 -3.05515 -7.02672 -1.55424 -0.77653 0.231465
797 1.56259 -3.21276 -6.13824 1.30159 0.481667 1.16736
462 2.30976 -3.86701 -7.87536 -0.736113 0.871655 0.803785
468 2.88572 -4.00472 -7.05335 -1.56458 -1.24998 0.527133
801 3.05406 -3.20831 -6.17248 -2.39657 -1.97257 -0.719145
469 4.51319 -4.5268 -7.83309 -0.471044 1.73674 0.90159
467 3.73079 -4.85843 -7.08261 -0.497966 -3.13345 -0.037456
472 4.65064 -3.8165 -6.95253 -2.01181 -0.928659 1.41588
515 3.79197 -3.15149 -6.98499 1.29482 -0.737799 -1.2866
754 3.68006 -3.99757 -6.22585 -0.262753 -0.750157 -1.20116
805 4.39982 -3.23653 -6.2382 1.95611 -1.79313 -0.470889
470 5.46587 -3.87092 -7.86536 0.129482 -0.833467 -1.16913
473 6.21635 -4.76862 -8.04552 -0.749104 -1.24825 0.856079
471 5.46656 -4.77175 -7.24677 0.0463674 -1.43337 -0.330571
521 6.5733 -3.24929 -7.827 1.00317 2.60439 1.33445
476 6.36579 -4.17335 -7.22022 -0.441372 3.35598 2.59938
475 7.1447 -4.83177 -7.06514 -0.082626 1.16414 -1.10696
474 7.31332 -4.13502 -8.04032 -0.345031 1.29291 -0.101214
480 8.0259 -4.133 -7.09858 -0.762269 3.24246 -2.14589
813 8.07481 -3.15368 -6.38112 0.0729277 0.479152 1.52075
433 -9.45885 -4.72957 -7.84558 -0.434493 -0.128324 0.896998
766 8.80935 -4.11851 -6.34905 1.36967 -0.713141 0.440934
527 8.61468 -3.09643 -7.18348 -1.84547 0.247181 0.229338
531 -8.75343 -1.69954 -7.3051 -2.2432 -1.59895 -2.18661
484 9.46647 -2.59044 -7.1859 -1.50928 0.499535 3.33935
773 -7.92592 -3.07443 -6.54866 0.524563 1.08211 -1.34655
488 -8.01808 -2.30618 -7.18568 1.1503 2.7885 2.14794
486 -7.18471 -2.12945 -7.72194 -3.42873 0.459332 0.340361
774 -6.99566 -2.56058 -6.29637 0.337423 1.92289 1.4459
492 -6.25925 -2.30242 -6.87087 -0.150872 -0.285822 -1.37054
778 -5.53066 -2.48232 -6.05815 -1.32361 1.53401 0.234776
825 -6.34552 -1.47449 -6.32269 -0.0193483 -0.546242 1.81241
494 -3.91425 -2.28512 -7.92095 0.380477 -0.906091 -0.233344
495 -3.65214 -3.23914 -7.10746 1.48008 -0.342904 0.0959949
496 -4.59664 -2.37835 -6.95244 -2.07719 0.225032 1.37438
498 -2.61084 -2.24133 -7.76535 2.12151 -0.436231 0.593306
500 -3.49415 -2.21672 -6.76032 -0.500179 -0.40063 1.15275
547 -2.5928 -1.46536 -7.19393 -0.0914283 -0.451309 -0.784825
504 -1.7199 -2.24942 -7.27069 0.237214 0.698942 0.495356
503 -0.859043 -3.21858 -6.98968 1.44317 -0.245346 0.3321
508 -0.248735 -2.36442 -6.89084 2.8106 -0.172852 1.52965
551 -0.843452 -1.55868 -7.10047 0.799206 -2.27754 -2.13164
512 1.5025 -2.31034 -7.16004 -1.36225 1.39811 -0.900415
845 1.6071 -1.67555 -6.17558 -2.00958 0.744683 -0.0355218
561 3.06814 -1.50508 -7.86255 2.36333 -2.1409 -1.15125
798 2.39375 -2.46585 -6.139 -1.11938 0.260847 1.41544
510 2.14218 -2.52085 -7.92918 -0.652927 -0.334053 -1.00792
516 3.06521 -2.37692 -7.21821 -2.18625 -0.760982 0.497821
559 2.3325 -1.72626 -6.87994 -0.624499 -1.18016 0.326634
514 3.8333 -2.44329 -7.8768 0.412137 1.09264 -0.233599
520 4.7589 -2.59395 -6.98768 1.39679 2.02089 0.433236
563 3.97942 -1.89315 -7.08733 -0.462624 -0.178587 -0.0811548
802 3.69006 -2.30785 -6.24199 3.4627 0.235711 -2.55086
518 5.67289 -2.68969 -7.73991 0.0644026 1.38284 2.28098
519 5.69165 -3.42366 -6.98028 1.14106 -3.58703 -0.755397