ITEM: TIMESTEP
48000
ITEM: NUMBER OF ATOMS
6912
ITEM: BOX BOUNDS pp pp pp
-9.5244063118091962e+00 9.5244063118091962e+00
-9.5244063118091962e+00 9.5244063118091962e+00
-9.5244063118091962e+00 9.5244063118091962e+00
ITEM: ATOMS id x y z vx vy vz
51 -8.62989 -7.89326 -8.83343 0.230027 -0.461533 1.44754
8 -8.00532 -8.72583 -8.7496 0.133013 1.67845 -0.930736
337 9.4707 -8.15367 -8.02827 -0.468494 -1.26515 0.539008
883 -2.43174 -9.49384 -4.14725 -0.629496 0.0971748 -0.0843605
290 -8.75182 -8.89674 -8.10023 1.3386 -0.608099 -1.05273
55 -7.13052 -7.86791 -8.76159 -0.552688 1.29752 -1.15419
294 -6.97298 -8.6424 -8.10213 1.46498 -0.348868 0.520601
341 -7.75589 -7.94625 -7.76139 -0.621299 2.37705 1.3711
1471 2.45386 -9.39004 -0.879222 -0.589843 0.382368 1.72214
2009 6.33579 -1.57367 -0.074729 -0.950008 1.38425 -0.00317027
12 -6.2874 -8.69848 -8.95816 -1.74336 0.337806 0.828815
298 -5.40666 -8.61196 -8.05589 -0.00903069 1.39878 -0.168532
59 -5.45083 -7.86253 -8.87952 1.10369 0.71081 -1.41028
345 -6.25619 -7.99928 -7.94881 -0.996855 0.235853 1.04744
89 6.38597 -7.90058 -9.41146 0.944102 -0.113598 0.587577
1765 4.81828 -9.46615 -0.0205832 -0.525669 -2.77078 1.76788
16 -4.7752 -8.80044 -8.88799 1.30451 0.818262 -0.413561
63 -3.8248 -7.79831 -8.83819 -0.729251 0.799671 0.155828
1684 -9.2749 -0.655489 -0.803346 -0.274065 -0.854861 -0.585087
302 -4.12914 -8.83629 -8.1862 2.01791 -0.456821 -0.132899
1733 -7.86108 -9.45003 -0.0950092 -1.45039 -1.83234 1.65164
233 6.67421 -3.18895 -9.34469 -1.25912 -0.323045 -0.713948
20 -3.23135 -8.65345 -8.70294 -1.6131 0.357355 -0.112069
607 2.47378 -9.48382 -5.7139 0.051724 -1.61774 -1.80657
24 -1.86002 -8.85724 -8.68766 2.49031 0.0589546 -0.620141
73 0.0232281 -8.06915 -9.37435 0.827567 1.50445 0.56513
310 -1.03729 -8.88054 -7.93001 -0.640537 0.414284 2.81367
28 -0.0977047 -8.80334 -8.55947 2.49764 -0.869087 -3.23377
71 -0.659319 -7.98883 -8.70845 -0.135907 1.51262 -0.729703
75 0.739591 -7.92195 -8.63988 1.27861 1.11526 -0.641154
222 2.32147 -2.27792 -9.37878 0.32373 -0.304048 0.439997
314 0.852864 -8.65891 -7.93217 -1.34363 -0.790961 0.879049
32 1.72473 -8.56364 -8.64688 -1.01344 -0.949326 2.20904
365 1.56063 -7.8082 -7.99837 0.153521 1.40746 -2.16814
318 2.50536 -8.58213 -7.94227 -1.08787 1.253 -0.441174
36 3.15179 -8.74984 -8.8282 -1.368 1.03191 3.15866
40 4.85902 -8.68792 -8.52855 -0.363382 -1.1076 2.07469
83 4.10419 -8.10624 -8.83099 1.14946 1.53802 -0.6851
322 3.93061 -8.64734 -7.99067 1.07206 -2.20355 -0.656838
3495 5.6195 -0.023466 -8.87439 0.66859 1.03996 0.454373
373 4.73134 -7.94992 -7.77469 -0.166546 0.164385 1.80922
44 6.52598 -8.84071 -8.63727 -0.273601 -2.18344 0.146602
87 5.68486 -8.12772 -8.81759 0.472439 -1.04565 -2.41001
229 4.68465 -3.31315 -9.39153 -2.01034 -0.575777 1.65009
5201 -3.15981 -0.203161 -0.0206729 0.954726 -0.752853 1.77253
48 8.00789 -8.79945 -8.5915 -0.898184 1.18616 -0.286534
3765 -1.55583 -0.0385484 -7.99015 0.0841443 0.737544 -1.16337
4903 -7.06345 -0.146282 -0.822313 0.920373 1.84598 0.509192
3763 -2.4784 -0.0508109 -7.1253 -0.479738 1.08174 -1.52018
4 -9.50901 -8.77411 -8.82064 -0.280556 0.18373 0.891207
1806 2.38681 -7.22886 -0.0604565 2.56279 -1.58088 2.9213
593 -3.11877 -9.46538 -6.38543 -0.872445 -0.220303 0.0919502
77 1.82466 -7.86354 -9.37298 -0.0333398 -1.73712 0.677316
52 9.40739 -7.30636 -8.53292 0.606921 1.2409 1.11621
338 -8.64727 -7.24901 -8.05173 1.60581 0.0706472 -1.35559
56 -7.85318 -7.10169 -8.71364 -1.93768 0.960976 -1.97231
342 -7.17834 -7.15332 -7.94119 0.0648861 -0.548982 -0.526394
60 -6.21683 -7.14187 -8.68645 0.904465 -0.500204 -1.7763
346 -5.52692 -7.18359 -7.97455 -0.729553 -1.43973 -1.87728
3777 3.14813 -0.12146 -8.10149 -1.02854 1.60739 0.369006
4625 -2.97534 0.0142447 -3.11031 -2.43608 1.26979 0.54991
4343 -0.773097 -0.065322 -3.93056 -1.40906 -0.186607 1.24693
64 -4.58882 -7.06747 -8.78356 0.313197 1.28778 -0.712062
67 -2.44825 -7.98781 -8.74328 -0.916309 -1.67428 -0.643834
68 -3.14096 -7.00024 -8.86059 -0.63846 -2.06536 0.561011
115 -2.3978 -6.39416 -8.70734 -1.64064 1.30384 1.91328
353 -3.153 -7.85822 -7.91336 -1.20727 -1.58036 -1.67201
1441 9.42515 -9.46359 -1.5642 1.03295 1.64338 0.0246204
72 -1.64173 -7.10763 -8.87652 -0.311623 -1.02486 -2.14387
358 -0.94121 -7.12893 -8.02677 1.95001 1.79245 0.528955
76 -0.11672 -7.09121 -8.72178 0.344747 1.11979 -1.65051
119 -0.883821 -6.34056 -8.846 0.557208 0.814758 -1.04161
80 1.6744 -7.09997 -8.68183 -0.804285 0.380509 -0.678714
123 0.71632 -6.27844 -8.65105 0.0443128 1.73925 -0.697038
362 0.811643 -7.12871 -8.04715 -1.16976 0.732859 1.4676
413 1.58033 -6.34565 -7.90159 0.686141 -0.152921 -0.734798
291 -8.56234 -9.47713 -7.03876 0.111757 1.61671 -1.40775
79 2.61484 -7.865 -8.65159 -2.81428 0.930443 -0.705051
369 3.23307 -7.82979 -7.91519 -0.603618 0.473667 -1.33549
84 3.38851 -7.08081 -8.67428 0.0503813 -0.864713 -0.664143
1790 -4.05702 -7.1046 -0.0615258 0.286692 -1.06846 1.19609
88 4.78082 -7.42029 -8.74991 -0.144423 1.52371 -0.456725
370 4.11727 -7.13952 -7.91707 0.456413 0.140929 -2.30709
4621 -4.83366 -0.0228518 -3.11444 0.734356 0.875153 1.84868
92 6.5445 -7.08931 -8.89594 -0.254655 -0.809057 0.716849
135 5.58256 -6.25576 -8.73209 -1.02612 0.866688 0.14608
425 6.41961 -6.24418 -7.91634 -1.34776 0.527766 -0.139769
374 5.71921 -7.22657 -8.08421 -1.36645 -0.154431 -0.835792
91 7.18851 -7.93871 -8.71051 0.751512 1.22144 1.84222
96 7.87726 -7.08803 -8.33333 -0.909113 0.356597 0.0364807
139 7.1604 -6.27759 -8.69424 0.940063 0.74573 1.2891
3493 4.70471 -0.20979 -9.4274 0.153317 0.57903 -0.393
95 8.59351 -7.9521 -8.69428 2.03647 -1.7459 -2.78331
143 8.62133 -6.50598 -8.82393 1.31301 0.00729764 0.422893
99 -8.70481 -6.47851 -8.7476 -0.985769 0.310038 0.938057
100 -9.47171 -5.72952 -8.74555 -0.275201 0.369867 -1.31884
386 -8.66728 -5.7219 -8.03458 -1.13146 -0.318859 0.41751
225 3.20972 -3.1259 -9.43826 0.512694 -0.758324 -0.253601
103 -7.15374 -6.45571 -8.76831 -2.52245 -0.550763 -0.715459
104 -7.98099 -5.7279 -8.9218 -0.0423366 -0.0648741 1.36308
4071 5.43643 -0.1947 -5.59493 1.38559 -0.821064 -0.184398
4359 5.3738 -0.0531464 -3.96938 -1.91951 0.581413 -1.19591
393 -6.2411 -6.15249 -7.88603 0.353483 0.0790287 0.313728
107 -5.55902 -6.38084 -8.73203 0.845722 -3.26116 0.438062
108 -6.07583 -5.49387 -8.77337 0.59328 -1.34309 -0.124896
4061 1.62736 -0.0034553 -6.37195 -0.319874 -0.103071 1.01735
111 -3.83537 -6.15474 -8.53916 0.786139 2.61885 1.09427
1970 -8.5072 -0.960559 -0.126699 -0.474341 2.55888 0.144262
112 -4.85326 -5.63692 -8.86039 -0.370503 -0.559192 1.62884
185 6.36517 -4.72107 -9.42929 0.99219 0.54077 -1.58278
173 1.796 -4.74517 -9.41846 0.554541 -1.00284 -1.4636
116 -3.17917 -5.42029 -8.91064 -0.0469994 -2.93684 1.78087
163 -2.43794 -4.73219 -8.82215 0.0871852 1.5947 -0.202686
93 7.90384 -7.9839 -9.45587 -0.484481 1.64524 -0.87264
3771 0.729746 -0.0197121 -7.25359 -2.16962 1.07954 -0.736852
120 -1.54495 -5.63372 -8.71161 0.415091 -0.654321 0.0786928
453 -1.6124 -4.73393 -8.13259 0.410652 -0.19434 -1.49394
409 -0.140858 -6.34042 -7.98081 -0.58507 -0.699872 0.485399
406 -0.788321 -5.58404 -8.04308 -1.97278 -1.82304 -0.681838
124 0.100108 -5.60217 -8.63632 2.44397 -0.100439 2.72732
1449 -6.34904 -9.50401 -1.61019 -0.457407 0.0291215 0.679045
128 1.58937 -5.37546 -8.67057 1.093 -2.48766 0.165606
127 2.4592 -6.47223 -8.85405 -0.484577 -1.24653 1.12242
132 3.21384 -5.58924 -8.53208 -1.26181 -1.1249 0.253713
465 3.34814 -4.8097 -7.84012 0.878673 -1.31349 -0.40062
175 2.40305 -4.83367 -8.37587 -0.706676 -3.29933 -0.0811195
417 3.35663 -6.36204 -7.80432 1.00137 0.0704089 -0.313905
131 4.05955 -6.17189 -8.55239 -0.543394 0.0206232 -1.7384
136 5.02148 -5.42172 -8.64339 -0.23986 -1.0423 0.969949
418 4.37763 -5.48664 -7.70047 -1.00755 0.533821 1.37126
469 4.96615 -4.6894 -7.92649 0.585699 0.274177 -1.5404
140 6.24082 -5.50676 -8.6293 1.86011 0.48182 -0.297151
169 0.148209 -4.77583 -9.60133 -1.00221 -1.14921 -4.27286
4929 2.816 -0.0715239 -1.67005 0.210488 -0.0968689 -0.510615
174 2.50428 -4.01039 -9.21127 -1.20633 -0.80861 -1.17845
4341 -1.58407 -0.102189 -4.83738 -0.0610766 2.39555 -0.344098
144 8.27411 -5.57885 -8.97682 -0.241229 -1.45412 -0.583201
430 8.74483 -5.67168 -8.06176 0.934945 0.0538496 2.85527
433 9.56364 -4.73276 -8.16845 2.02299 -0.261009 0.611386
191 8.87126 -4.52538 -8.88986 1.01522 -1.32446 -0.187857
30 2.34885 -8.81047 -9.43147 0.0560409 0.0807172 -1.21475
147 -8.68427 -4.85675 -8.74134 0.967044 -0.223279 0.908841
151 -6.99484 -4.73801 -8.71619 -2.9928 -0.388301 2.09768
152 -7.95538 -4.01672 -8.77056 1.55255 -1.07318 -1.3611
438 -7.17508 -4.01223 -7.9723 -0.28845 -0.918572 -0.398914
199 -7.15257 -3.21815 -8.83372 -0.113458 1.07533 0.70535
1933 -4.77037 -3.19156 -0.0966604 1.46606 -0.117936 -0.0968121
155 -5.39108 -4.59508 -8.6707 -0.802911 1.06672 -0.131498
441 -6.19867 -4.65026 -8.03552 -1.8819 -1.21251 1.58189
4941 7.97749 -0.0116288 -1.53322 -0.910985 0.486163 1.11771
156 -6.30712 -3.76353 -8.75056 1.44814 0.53573 -2.66793
159 -3.95916 -4.62495 -8.9145 -2.90373 2.78569 0.00621642
160 -4.72873 -3.8756 -8.80918 0.461563 1.80464 0.904518
186 7.32392 -3.89578 -9.41092 0.740545 0.453941 -1.1205
1909 4.82789 -4.69996 0.0292903 -1.0757 -1.69384 2.21085
164 -3.12785 -4.01187 -8.86758 0.0725267 1.25473 -1.06957
3783 5.48368 -0.0936176 -7.10902 -0.607458 -0.820818 0.929297
168 -1.52634 -4.0439 -8.89229 -1.82471 0.0459453 -0.965708
215 -0.919362 -3.03395 -8.90972 -0.92411 -0.553285 -0.00937238
167 -0.465003 -4.7962 -8.72208 0.717741 -1.46016 1.9295
172 -0.0202817 -3.87158 -8.7824 1.3576 2.04877 0.554168
505 0.0456694 -3.23175 -8.08004 0.177906 -1.00512 -1.3656
171 0.725585 -4.81431 -8.69512 -0.277556 0.0178142 -0.954536
176 1.67571 -4.0023 -8.66733 1.4883 0.130285 0.297226
509 1.41671 -3.11798 -7.96203 -0.623186 -0.160796 -0.905264
901 4.78411 -9.44494 -4.74432 0.912647 0.301841 1.42915
895 2.47962 -9.38672 -3.84222 -1.06808 -0.652639 -1.23414
180 3.20357 -3.86594 -8.46847 -0.625567 -0.0535115 1.34883
223 2.40583 -3.19107 -8.61971 -1.73274 0.405241 -0.492279
513 3.19446 -3.04808 -7.85532 -1.7963 0.44441 -1.14597
589 -4.65345 -9.43844 -6.61047 -0.761461 -2.19834 1.76859
179 4.09637 -4.76902 -8.53465 0.235094 -0.371554 1.3367
184 4.83213 -3.97789 -8.66203 0.212497 1.23192 2.93596
466 4.15467 -3.97055 -7.76481 -0.131348 -1.28791 0.0812033
183 5.67263 -4.55611 -8.7247 1.6894 1.97499 -2.83144
188 6.54337 -3.73277 -8.45289 -0.70335 -0.141228 -2.46993
521 6.61777 -2.93525 -7.88285 -0.109335 0.458009 -0.751454
187 7.04424 -4.61568 -8.6497 0.652332 -0.692189 1.28314
192 8.06562 -3.94519 -8.71591 1.43502 0.0635613 0.417097
474 7.44471 -3.93443 -7.9291 0.245053 -0.713577 0.0998842
148 -9.49219 -3.70982 -8.57278 -1.55487 -0.808714 2.01226
478 8.72278 -3.87483 -7.92194 0.927512 -0.388168 1.86
195 -8.56976 -3.07631 -8.62113 -1.51527 -0.348135 2.39282
196 -9.43714 -2.37952 -8.65107 0.0450967 0.93126 -0.0727405
170 0.996295 -4.04839 -9.48336 -0.9313 1.23488 0.866066
485 -7.86649 -3.18132 -7.8429 -0.414131 1.95224 -0.140934
200 -7.7496 -2.39496 -8.7601 -0.0912392 1.09154 -0.94826
4053 -1.60754 -0.10543 -6.16369 0.287749 0.342031 -0.266556
489 -6.73412 -3.10076 -7.8111 -0.151021 -0.763029 -0.89707
203 -5.48656 -3.04905 -8.65083 -1.82216 -1.54712 -1.01653
204 -6.46244 -2.45531 -8.72785 1.21841 -0.229666 1.05344
490 -5.76545 -2.5112 -7.86807 -0.45635 0.198917 -3.13559
154 -5.59234 -3.73685 -9.43327 -1.11429 -0.449948 0.478673
207 -3.9038 -3.17432 -8.90596 -2.22087 -0.539213 -0.410439
208 -4.82641 -2.34563 -8.79663 -0.0988801 -0.291279 -0.637107
583 -6.86814 -9.40696 -5.74614 1.36939 0.0322817 0.787198
1913 6.25634 -4.76587 -0.101143 -1.34049 -1.71663 -0.813755
86 5.5566 -7.08622 -9.32752 -0.190983 0.931042 0.590776
226 3.98764 -2.37909 -9.41233 0.833531 0.425646 0.31419
211 -2.32401 -3.19019 -8.87191 -1.18094 -1.07849 -2.20786
212 -2.96032 -2.23052 -8.68295 -0.249182 1.212 0.248429
216 -1.78359 -2.38056 -8.82314 0.429777 0.724102 -0.79925
1770 6.92786 -8.81376 -0.24092 -0.729649 1.39214 -1.9048
220 -0.112069 -2.36259 -8.63705 -1.27187 0.00407969 0.846823
553 -0.227645 -1.64718 -7.91724 -0.324907 2.21609 -0.594333
22 -0.923962 -8.77693 -9.20432 -1.53171 -0.288391 -0.0741258
219 0.746073 -3.15016 -8.79665 -0.838528 2.6388 -0.145531
224 1.46586 -2.38132 -8.72692 -0.450204 -1.56491 -0.883717
267 0.547356 -1.71971 -8.79002 0.734663 -1.7954 0.975972
228 3.18729 -2.33043 -8.7094 0.140038 -0.342354 -0.604338
282 7.03266 -0.803598 -9.40358 -1.20536 -0.407174 -1.48237
271 2.26054 -1.43319 -8.68653 1.21549 0.504659 0.570821
561 3.06327 -1.68566 -7.87603 0.991652 -0.031044 -2.18981
227 3.91763 -3.15452 -8.55031 0.680803 0.351106 0.300185
232 4.8059 -2.51386 -8.61341 -0.312 -0.020014 0.0680203
514 4.02314 -2.28901 -7.8418 -1.48993 0.441094 0.805253
275 3.95687 -1.67778 -8.7224 -2.46001 0.833824 0.431377
565 4.78246 -1.45977 -7.94138 1.21504 -0.937583 -0.214842
266 0.677127 -0.693586 -9.47985 0.449088 -2.6355 -1.04517
231 5.6459 -3.08999 -8.77516 0.53471 -2.50287 1.03223
236 6.44206 -2.20589 -8.67925 -0.420921 0.39858 -0.384926
569 6.63197 -1.44932 -7.81655 -0.392532 0.196385 -1.59778
235 7.41687 -3.05475 -8.53662 0.125028 -1.72041 -0.476172
240 8.12983 -2.32448 -8.76082 -0.252079 0.471137 -1.28828
525 8.21585 -2.94107 -7.91412 -0.418626 -0.978504 0.0974769
522 7.26301 -2.23048 -7.86491 1.03587 0.0815327 -0.136172
239 8.73745 -3.19421 -8.62203 0.889802 -0.0704563 -0.0365613
526 8.88816 -2.07676 -7.85948 1.17269 -1.25683 0.787523
481 -9.45711 -2.95486 -7.81901 -0.12923 1.04211 -0.655257
529 -9.42304 -1.46149 -7.89887 4.37086 -1.60081 -2.81113
243 -8.58372 -1.64087 -8.91715 -2.25398 -0.500169 0.52621
530 -8.66943 -0.846675 -7.73127 -0.164251 0.880727 0.276095
533 -7.88249 -1.44538 -7.85391 0.213426 1.43299 -1.09169
37 4.90125 -9.47378 -9.21969 -0.0375365 0.356619 0.18556
247 -6.96901 -1.58433 -8.85307 -0.431487 -0.46896 0.394281
248 -7.83332 -0.843219 -8.74411 -1.10271 -2.54209 2.87624
1922 -8.92013 -2.45973 -0.00222151 1.1113 -1.23255 -0.252357
105 -6.56833 -6.26317 -9.49881 -0.523259 1.57787 -1.16084
251 -5.63833 -1.66742 -8.69392 -1.66332 -0.0603079 -3.0895
252 -6.45501 -0.745257 -8.93857 3.79593 -1.36402 -1.83901
537 -6.44966 -1.74207 -7.98151 0.922238 -1.17645 0.618384
3789 8.1173 -0.0722329 -7.73067 1.42421 -0.526505 -1.22296
255 -4.01626 -1.51237 -8.74037 -0.306956 -0.209119 -0.0410554
256 -4.82015 -0.729419 -8.76467 -0.317105 -2.90001 -1.62366
259 -2.3973 -1.4808 -8.69631 1.59228 -0.772957 1.29817
260 -3.21529 -0.767854 -8.7587 -1.57576 0.253235 0.157398
130 4.11163 -5.50147 -9.36177 -0.267807 -0.644082 1.07659
546 -2.37566 -0.757443 -7.97635 -0.151853 0.401803 -1.43059
1455 -4.06909 -9.37757 -0.729919 0.85332 -2.49255 -1.77175
591 -4.14902 -9.4727 -5.58967 1.68044 0.0378602 0.523766
102 -7.10119 -5.50723 -9.32922 -0.380673 1.95232 -1.27028
263 -1.01627 -1.70666 -9.00793 0.221307 -0.613818 0.49956
264 -1.63203 -0.764684 -8.84946 -0.45795 -0.591612 -0.917495
35 3.9465 -9.43136 -8.55989 0.55803 1.05083 1.86622
1165 -4.76233 -9.49584 -2.93894 1.18929 -1.28059 -0.292573
3761 -3.26502 -0.162267 -7.85913 -0.0278863 -0.424814 -0.516252
268 -0.142186 -0.894688 -8.68248 0.630639 1.06157 0.774555
193 -9.28106 -3.09071 -9.51196 -1.0134 0.671736 -1.03835
238 8.93947 -2.52991 -9.41975 -1.23373 0.455834 0.908232
272 1.43327 -0.684346 -8.78742 -0.271565 1.5473 -0.188675
557 1.44471 -1.4382 -7.97595 -0.516554 -0.305677 -0.149989
554 0.636452 -0.892865 -7.78676 1.29942 1.00075 -0.559619
1171 -2.4196 -9.49754 -2.46516 0.687591 -1.70998 -1.0912
18 -2.52379 -8.89272 -9.54849 -1.5712 1.42558 -2.05531
276 3.14234 -0.939572 -8.62528 -0.198743 1.186 1.24707
558 2.38839 -0.880104 -7.91139 -0.588769 0.986191 -1.15489
15 -3.88612 -9.50315 -8.95119 1.69166 -1.52757 1.15843
280 4.78543 -0.902791 -8.75838 1.01477 0.617715 1.1684
277 4.765 -1.56756 -9.49486 -1.20132 0.466254 -0.977633
279 5.55898 -1.57368 -8.66394 0.344351 1.15518 0.965856
284 6.51771 -0.750348 -8.59216 1.75118 -0.389969 -0.512767
1881 -6.3164 -4.62049 -0.0515662 -0.0158405 -1.02992 -0.309734
893 1.69908 -9.47355 -4.76579 0.0681207 0.968824 0.539061
283 7.4044 -1.52309 -8.53273 -0.470068 -0.638812 0.64759
288 7.89861 -0.682577 -8.77391 0.367401 -0.0583096 1.01639
321 3.24296 -9.49807 -7.7897 1.45023 -0.142877 -0.152583
570 7.20238 -0.605554 -7.76511 0.183454 2.46279 1.36795
1990 -0.849293 -0.735051 -0.038083 -0.924551 0.292683 2.7868
287 8.70985 -1.4491 -8.73144 0.737641 -2.18641 0.489619
244 -9.43392 -0.730526 -8.68918 -0.0653746 0.730708 -0.089987
3489 3.01864 -0.080709 -9.4315 -0.835003 -1.12361 0.821217
4937 6.47902 0.0191584 -1.43737 -1.55383 1.2715 -0.614493
296 -7.8241 -8.77777 -7.33347 1.10811 -0.807593 1.07759
578 -8.71174 -8.7492 -6.40296 1.23416 1.66544 -1.22776
343 -6.97494 -7.83322 -7.15702 1.96556 1.5148 -2.61363
1873 9.47203 -4.74981 -0.218122 -0.538078 -0.213178 -0.226027
582 -7.24377 -8.76252 -6.45692 0.408274 0.267854 0.676621
1475 3.84441 -9.41798 -0.663477 -2.24268 -0.387393 -0.408583
300 -6.23537 -8.69553 -7.15937 0.953094 0.879092 0.127507
347 -5.24287 -7.94339 -7.2462 -0.208058 0.417219 0.924718
4355 3.92905 -0.0930513 -4.13978 -0.855957 -0.716646 0.450411
4645 4.54404 -0.0330849 -3.37135 -1.23798 0.355527 0.209626
349 -4.49422 -7.84481 -7.97093 0.484924 2.14176 -0.541262
1187 3.99843 -9.48417 -2.36456 0.853695 0.56446 2.19765
304 -4.57641 -8.67464 -7.26652 0.0650006 0.642311 0.0518233
637 -4.85121 -7.93717 -6.36686 -0.856835 1.54746 0.559582
590 -4.22362 -8.62695 -6.29015 0.814479 0.473608 0.944773
306 -2.56383 -8.76349 -7.87827 1.47869 3.15764 -0.54117
308 -3.52483 -8.83543 -7.27549 1.06884 0.232058 -0.414258
594 -2.35676 -8.77992 -6.38784 0.408976 0.448497 0.152826
1766 5.46145 -8.74255 -0.0763739 0.759731 1.70412 0.463914
281 6.38334 -1.5659 -9.42083 -1.98523 2.51179 0.490739
312 -1.79952 -8.87066 -7.18967 -1.81345 0.973761 0.198107
601 0.0719025 -9.39492 -6.53259 -2.28518 0.133867 -1.71976
316 -0.0215574 -8.62453 -7.42074 -0.8459 1.53199 0.170226
1734 -7.20812 -8.72462 0.00956048 0.11016 0.0484164 0.688782
320 1.67881 -8.50771 -7.23294 0.212117 0.93261 0.11134
653 1.50033 -7.88796 -6.38131 -1.43246 2.29934 2.45574
367 2.39515 -7.83646 -7.20731 -0.385764 -0.765635 -0.614895
324 3.2105 -8.48812 -6.9942 1.85977 -0.424275 -1.26543
606 2.2073 -8.55874 -6.27466 0.748296 -0.583098 -0.553307
328 4.71802 -8.80781 -7.2226 -0.396894 -0.0300379 -2.43527
371 4.03463 -7.88925 -6.95975 0.994019 2.31437 -0.0117935
661 4.8878 -8.17521 -6.37157 1.64914 0.55909 -0.425709
326 5.75686 -8.65742 -7.79019 -1.37443 0.173333 0.691081
377 6.39176 -7.95602 -8.09829 -1.30822 0.902158 0.545489
332 6.60593 -8.9033 -6.91083 -0.102662 -0.159623 -1.15485
375 5.83175 -7.90288 -7.0465 0.383022 0.531996 1.70418
614 5.74381 -8.74422 -6.39894 0.829394 -3.38843 -0.00969983
330 7.32499 -8.70319 -7.91107 -0.523272 -1.63871 0.202606
336 7.93347 -8.61275 -6.96314 0.759873 -0.403913 -1.43772
379 6.90988 -7.89359 -7.03765 0.496733 -1.0123 -1.8723
381 7.82412 -7.89526 -7.77009 0.396529 -1.15378 -1.79689
669 8.07754 -7.9487 -6.24357 0.105589 -1.73971 -0.746537
889 -0.0798826 -9.38121 -4.86859 -0.985305 -1.0619 1.7466
315 0.946943 -9.3889 -7.1408 1.03072 1.77186 -1.57643
292 -9.42438 -8.75215 -7.14056 1.31398 -1.48253 0.437154
334 8.51589 -8.60907 -7.81197 0.231747 0.740744 -0.446817
383 8.89019 -8.01052 -7.09373 0.931152 0.267603 -0.597575
1773 7.84637 -9.35245 -0.0172867 -2.66398 -0.60982 1.11389
339 -8.79452 -8.00148 -7.22718 0.24381 -1.10007 0.303535
340 -9.47862 -7.17057 -6.87924 0.252018 -1.05213 1.53478
344 -7.83133 -7.03521 -7.17087 0.578195 -0.544041 -1.31418
630 -7.08744 -7.11363 -6.51589 -0.316668 0.605369 1.46997
348 -6.2115 -7.20119 -7.22891 -1.34754 0.0987007 0.116773
395 -5.5713 -6.26993 -7.17612 -2.44788 1.52077 2.17804
350 -3.83892 -6.91104 -7.91903 -1.62949 -0.427916 0.905983
351 -3.80888 -7.85913 -7.15371 -0.506844 -1.17489 -0.426339
352 -4.83546 -7.05689 -7.23992 -0.018514 0.433665 1.03777
638 -4.13832 -7.0431 -6.51552 -0.223036 0.0385561 0.0282577
401 -3.11818 -6.12496 -7.82851 0.0462786 0.45773 0.695463
354 -2.442 -7.09202 -7.94094 0.947136 0.017283 1.31303
641 -3.20087 -7.62177 -6.33713 1.7444 0.911052 -1.48848
355 -2.65638 -8.16828 -7.10232 -1.35796 -1.12364 1.97727
356 -3.16626 -7.02802 -7.28473 -0.790139 -1.91039 0.17161
403 -2.37932 -6.13026 -7.0506 -0.229543 0.448688 -1.11032
405 -1.65502 -6.41461 -7.95452 0.0824749 0.611659 0.61497
357 -1.76158 -8.04373 -7.88566 0.115856 1.26617 -0.746956
360 -1.74864 -7.16134 -7.30807 -1.7089 -1.1877 1.2724
361 -0.0654303 -7.63507 -7.90392 2.04622 1.53979 -0.637302
359 -0.95216 -7.90735 -7.30628 1.01214 0.692178 0.832149
364 0.0563272 -7.18784 -6.94006 0.540465 0.877526 -0.866064
649 -0.019211 -8.02824 -6.48382 1.51085 -0.92787 -0.405987
363 0.781132 -7.88639 -7.28422 0.453957 0.461865 1.23053
368 1.57994 -7.10167 -7.10877 0.241787 -0.00414545 -0.674173
650 0.83236 -7.1965 -6.22342 -1.23124 0.681836 -1.16942
701 1.65309 -6.49758 -6.20999 0.564267 -0.280999 -0.0477684
366 2.46345 -7.01743 -7.85843 0.675549 2.1928 0.0502624
372 3.30373 -7.17104 -7.02481 -1.02578 -1.99515 -0.992685
654 2.44951 -7.10082 -6.50734 -1.76455 1.5306 1.14699
376 4.76212 -7.18884 -7.13015 -1.84558 -0.454636 -1.15213
658 4.15255 -7.12155 -6.11521 -3.22132 0.793125 0.517084
709 4.92231 -6.23935 -6.12109 0.541088 0.639459 0.109378
380 6.51301 -6.91417 -6.89125 -2.063 0.521852 -0.164238
423 5.68601 -6.55584 -7.21355 1.2061 -0.628861 0.440935
378 6.88518 -7.09928 -7.82463 0.354252 1.2956 0.138153
384 8.0626 -7.1031 -7.04755 1.02964 -0.1856 1.70101
666 7.19438 -7.10148 -6.19604 -0.0347837 -0.358571 0.608569
429 7.8978 -6.18234 -8.02999 0.00279954 -1.71652 0.283555
382 8.7527 -7.33051 -7.77824 -0.39106 -0.369246 0.140695
670 8.7676 -7.22922 -6.12178 -1.06628 -0.209461 -0.28765
717 8.01772 -6.49304 -6.21912 0.000378492 -0.37862 -2.41267
673 9.47653 -6.29547 -6.33166 -0.897274 0.918357 -0.994101
387 -8.54596 -6.30543 -7.01752 0.206466 -0.0225881 -0.727129
437 -7.81171 -4.80264 -7.94433 -0.380829 1.42415 1.21272
389 -7.88455 -6.37114 -7.86804 -0.8164 -0.798226 1.70888
391 -6.89235 -6.33941 -7.1618 -1.01301 0.715454 -0.390777
390 -7.00209 -5.56125 -8.22083 1.65169 -2.50005 0.172792
392 -7.60004 -5.52246 -7.09419 1.41148 1.902 1.21429
439 -6.92827 -4.58553 -7.15315 -0.0434915 -2.51318 0.0564984
394 -5.36853 -5.47849 -8.01938 -0.0780754 -1.54722 -0.025597
396 -6.17116 -5.35621 -7.19121 1.12488 0.737695 -1.0116
397 -4.84027 -6.28665 -7.91201 0.528881 1.48092 -0.374931
445 -4.67325 -4.59561 -8.00493 2.08837 -0.342206 1.61346
398 -4.11684 -5.41072 -7.7743 -0.761754 1.09212 -1.44568
399 -4.01277 -6.17379 -7.098 -0.622663 -0.474059 0.677132
400 -4.83411 -5.37687 -6.89901 1.42 -1.88499 -0.326224
447 -3.96952 -4.60741 -7.09352 1.77247 -0.646327 0.0811669
733 -4.80695 -4.47321 -6.29325 -0.953825 1.56012 -0.760824
402 -2.30963 -5.44095 -7.97291 -0.917227 -0.346148 -1.18588
404 -3.15069 -5.51086 -7.07769 0.141312 0.0725614 -0.653061
690 -2.48109 -5.54485 -6.20503 -0.516814 0.375382 2.06363
451 -2.28946 -4.70814 -7.24912 1.27096 -0.0958323 1.01168
408 -1.51654 -5.46189 -7.38493 -1.96746 1.57875 0.576587
455 -0.735847 -4.73685 -7.17251 0.429451 0.52921 -0.13579
407 -0.897324 -6.41557 -7.10898 -1.44751 -1.91238 -1.15132
412 -0.0770754 -5.52874 -7.1408 0.535693 -1.53814 0.308594
457 0.0910395 -4.85042 -7.91438 0.540373 0.275187 2.55339
411 0.691654 -6.41617 -7.19436 -0.915109 1.23609 -0.878526
410 0.878602 -5.61874 -7.84826 -1.07236 2.08529 -0.315935
416 1.63118 -5.8701 -6.99886 -1.32792 -0.700651 0.0315473
414 2.4686 -5.71376 -7.84165 0.793355 -0.631871 -0.167964
459 0.829297 -4.92356 -7.04724 0.169948 -1.05905 -0.595984
415 2.56742 -6.37234 -7.0893 -0.187703 -0.0209703 1.36142
420 3.45012 -5.57006 -7.18922 0.41245 2.41317 0.578016
463 2.29184 -4.75382 -7.10443 0.596877 -0.944043 -0.80138
705 3.26232 -6.10954 -6.38449 -0.221483 -1.85137 -1.46192
753 3.24211 -4.87461 -6.45601 -0.42446 0.357209 1.38534
419 4.06376 -6.34071 -6.95883 -1.05181 -0.362774 -0.985209
421 4.86636 -6.46367 -7.96656 0.574897 0.658323 -0.891655
424 4.93112 -5.57102 -6.86654 0.128872 0.3236 -0.357875
467 4.02386 -4.71359 -7.09499 1.66934 -1.31527 0.221829
422 5.61903 -5.70283 -7.82904 -0.227586 0.168097 0.211252
428 6.46121 -5.48444 -7.20787 1.26549 0.245993 0.0646198
761 6.4413 -4.60136 -6.56413 0.739537 0.972755 0.510939
477 7.94996 -4.84799 -8.35735 -0.0191728 0.988433 -0.792773
426 7.14406 -5.41997 -8.0037 -0.783272 2.13233 -1.34575
427 7.42674 -6.35821 -7.0188 -1.48435 -1.02144 0.64004
432 7.92374 -5.57017 -7.28023 -2.28361 -0.459686 -0.0263997
714 7.33801 -5.53265 -6.4165 -0.669571 1.5746 0.181841
385 -9.28419 -6.43627 -7.74117 1.36097 -0.467691 -0.0362619
431 8.85338 -6.44798 -7.24643 1.70533 1.72716 0.837572
388 9.39683 -5.52237 -7.33077 -0.0456443 -1.69378 -0.387891
718 8.77207 -5.59383 -6.46012 0.539533 0.843633 -0.181938
479 8.53518 -4.78965 -7.49017 -2.40907 2.36197 0.664155
434 -8.52541 -3.91875 -7.82445 -0.31412 0.0551443 0.297585
435 -8.72218 -4.93032 -7.28146 0.0731676 2.25742 0.854195
721 9.52921 -4.85301 -6.3971 0.534754 -0.10577 -0.827431
483 -8.63511 -3.11441 -7.11196 -1.36837 -0.260479 1.02517
722 -9.03619 -3.85084 -6.3021 -1.1087 -0.25942 0.72944
440 -8.03267 -3.8792 -6.89969 -0.720459 0.167868 0.980002
726 -7.25009 -3.96724 -6.18776 -2.0689 2.85142 -0.267832
442 -5.51815 -3.77518 -7.84412 1.0779 -0.538633 0.923052
443 -5.49333 -4.53614 -7.06947 0.346981 1.16106 0.941781
444 -6.40005 -3.65604 -7.07496 2.41056 0.70384 -0.482261
777 -6.47873 -3.16645 -6.13184 -0.0166318 1.06413 0.155318
491 -5.41125 -3.11878 -7.04446 -0.250319 0.233098 -0.388727
493 -4.68312 -3.08594 -7.87936 0.119835 -1.5698 1.23429
446 -3.91975 -3.9229 -8.10289 -0.379877 0.0401823 -1.65136
448 -4.70317 -3.85828 -7.16663 2.8528 -2.50527 1.60844
734 -3.94286 -3.84704 -6.4353 -1.95454 -0.706567 -0.359062
495 -3.78451 -3.2098 -7.28091 3.07023 1.02728 -0.672469
449 -3.2711 -4.77198 -7.89979 1.62665 -3.25812 1.9652
450 -2.37591 -3.98945 -8.00419 1.77439 -0.0195154 -1.4549
497 -3.11453 -3.25303 -8.14419 -0.982875 0.377291 2.39902
452 -3.05551 -4.02236 -7.10693 -0.536968 0.459903 0.310279
738 -2.40045 -4.02769 -6.40502 1.35477 -0.0881145 1.03314
456 -1.5719 -4.04529 -7.33812 1.10547 0.873344 1.32825
501 -1.81197 -3.17756 -7.97154 -0.804851 2.08501 -0.562635
454 -0.584891 -4.03956 -7.95638 -1.23783 1.10834 -1.22732
460 0.00954772 -3.90965 -7.19962 0.173873 -1.55066 2.49502
742 -0.709851 -4.03398 -6.33338 -1.74568 -0.881577 1.52911
458 0.69866 -3.99122 -8.05214 1.18468 -0.963935 -1.4448
461 1.58288 -4.92609 -7.75726 1.62428 -1.58483 1.98565
464 1.46531 -4.12334 -7.11675 -1.16666 -0.811557 -1.83547
749 1.64453 -4.86857 -6.26107 0.933707 -0.0266156 -0.299791
462 2.33127 -3.90119 -7.77133 -3.2586 -0.500699 -0.470551
468 3.14605 -3.99608 -7.28871 0.119207 -0.383954 -0.681486
750 2.17619 -3.97549 -6.46802 1.34049 0.693374 0.0680248
472 5.00249 -3.89963 -7.05963 0.0356448 0.914224 -1.42239
515 4.01683 -3.22421 -7.15469 -1.01482 0.724645 1.43176
517 4.87198 -3.19919 -7.84707 -0.958906 -1.83923 -0.83563
754 4.04247 -3.98006 -6.27121 -0.859888 1.63868 -0.846367
470 5.72985 -3.81354 -7.90986 0.672878 1.16439 -0.836993
473 6.34033 -4.74438 -7.86739 0.62301 1.13281 -0.400096
471 5.58378 -4.87488 -7.14463 1.3781 -0.432504 0.381117
476 6.43112 -3.88656 -7.20743 -1.2808 -0.68689 -0.137601
519 5.76904 -3.09742 -7.23132 1.14944 1.33833 0.117157
758 5.65545 -3.93915 -6.21479 0.257177 2.07053 -1.17823
765 7.96948 -4.65209 -6.50509 2.61751 1.71694 -1.1279
475 7.29662 -4.62042 -7.32068 -0.112689 -1.18685 -1.00419
480 8.24881 -3.82856 -7.11971 -0.791317 -1.53928 -0.26285
762 7.15516 -3.94157 -6.47808 -0.225601 0.920812 -0.15328
436 9.51493 -3.86689 -7.28343 -0.30582 -1.36943 -1.07887
766 8.8527 -4.07931 -6.28005 1.78752 -1.85978 -0.967504
813 7.98854 -3.26108 -6.36381 -0.529927 0.750996 -2.84006
482 -8.62031 -2.24694 -8.00022 -0.941939 0.284874 3.3778
770 -9.02872 -2.32006 -6.16354 -0.122583 -0.335436 -1.43496
488 -7.94668 -2.12425 -6.98506 -0.160148 -0.259685 -0.0565116
769 9.41421 -3.07951 -6.38063 -0.554429 -2.13982 1.825
486 -7.26665 -2.29024 -7.80524 -1.23069 -0.713112 3.12236
487 -7.33587 -3.10392 -6.79632 -0.606963 0.271891 0.377936
492 -6.29352 -2.44522 -7.00877 2.48292 0.0465936 -0.118055
494 -3.96704 -2.39938 -7.84547 0.821445 -0.149559 -1.84252
496 -4.71804 -2.36379 -6.9371 -0.144619 -0.16572 -0.731609
782 -4.04416 -2.33578 -6.16454 0.0564373 0.89387 1.24572
498 -2.57174 -2.3725 -7.74558 -1.2305 0.160446 -0.256193
499 -2.51953 -3.19137 -7.14449 -0.365085 -0.494314 -0.883708
500 -3.28339 -2.42565 -7.02439 0.955896 3.16933 0.703354
785 -3.17147 -3.11825 -6.25738 -0.682023 -0.36624 0.590033
504 -1.6547 -2.56456 -7.00164 -0.989109 0.488473 0.803446
502 -0.925646 -2.51812 -8.06647 -2.649 -0.919023 -1.17009
551 -0.898393 -1.8346 -7.10444 0.915478 -0.932195 -0.144934
789 -1.69267 -3.39392 -6.39782 0.808213 -1.17611 1.43886
790 -0.80035 -2.44727 -6.22034 -0.500622 -0.463304 -2.03533
506 0.705153 -2.35172 -7.97684 0.580054 0.639391 1.46419
503 -0.836376 -3.2768 -7.17197 0.0986368 -1.9611 0.116964
508 -0.177281 -2.47725 -7.3241 1.46296 -2.33057 -1.2263
507 0.812043 -3.32429 -7.07734 -0.0961145 -2.66938 -1.00718
794 0.653977 -2.42644 -6.45605 -0.359084 0.855025 -0.368744
512 1.44361 -2.35645 -7.17542 0.271664 -0.714466 0.785622
510 2.30532 -2.35642 -8.12351 -0.176674 1.75512 -0.743861
511 2.23245 -3.10134 -7.03421 -2.45515 1.79395 -0.369857
516 3.22033 -2.30161 -7.15128 -1.40054 -0.395043 -1.25437
798 2.4128 -2.29916 -6.37052 -1.74142 -1.61191 -1.77143
559 2.22652 -1.64619 -7.31642 -1.67394 0.0784244 -2.35157
520 4.79225 -2.35885 -7.12347 -2.36055 0.172487 -0.976429
563 4.0073 -1.7148 -7.08746 -1.48377 0.160855 0.462192
802 4.10989 -2.72027 -6.35588 -0.305408 -0.577079 2.276
853 4.71851 -1.64478 -6.29691 -0.361205 0.630927 -2.38419
518 5.67784 -2.31212 -8.00416 0.0712768 -1.39402 -0.605522
524 6.22803 -2.19067 -7.19064 -1.06425 0.504965 1.40331
806 5.41843 -2.4613 -6.36583 -0.776221 0.221205 0.053785
857 6.32129 -1.63849 -6.36225 1.09883 -1.27275 -0.686237
567 5.6175 -1.50546 -7.21556 1.2471 0.857331 1.86995