ITEM: TIMESTEP
130000
ITEM: NUMBER OF ATOMS
6912
ITEM: BOX BOUNDS pp pp pp
-9.5244063118091962e+00 9.5244063118091962e+00
-9.5244063118091962e+00 9.5244063118091962e+00
-9.5244063118091962e+00 9.5244063118091962e+00
ITEM: ATOMS id x y z vx vy vz
57 -8.99795 -8.46233 -9.0804 0.372236 1.82131 0.796647
101 -8.37319 -8.00382 -8.33992 0.971588 0.707799 -0.0119019
3203 5.50146 -9.05771 -9.44045 -0.682096 -2.96896 -0.100847
298 -7.7924 -8.90401 -8.55225 0.409613 0.339369 -1.74101
60 -7.61614 -7.7296 -8.89195 -1.11215 -0.251604 2.66131
633 -6.40425 -8.47507 -8.01973 0.579292 0.422992 -0.629042
11 -7.05141 -9.37631 -7.85336 -0.124525 0.177632 -0.0409133
3368 -7.27827 -4.52551 -8.79892 -0.816617 -0.313971 1.09487
346 -5.79495 -8.68749 -9.33896 -0.0724032 0.258793 1.95932
870 -5.52342 -8.88072 -8.17136 2.13057 0.369549 -0.124643
1616 -0.800769 -5.92048 -0.363949 -0.534905 1.34276 -0.490924
58 -4.80454 -8.97565 -9.33755 -1.37852 -0.690491 -0.443781
14 -4.74936 -9.46306 -8.29173 -0.289946 1.20973 -1.04044
3184 -4.04173 -8.82948 -8.55962 -1.79856 -0.78961 2.32889
5230 8.22911 -0.58476 -0.632603 0.466243 -1.84211 -0.609419
308 -3.16241 -9.04481 -7.97015 -0.334484 0.010862 -0.194197
689 -2.855 -8.66192 -8.84948 -0.537314 -0.267406 -0.282787
4018 4.63522 -9.46437 -7.06943 0.79659 0.0115509 0.235831
874 -4.52025 -9.04284 -5.45427 -0.105177 -1.6776 0.32164
357 -1.62911 -8.34538 -9.24755 0.0928195 -0.5657 0.728425
28 -1.23455 -8.77747 -8.48031 -2.34809 -1.60229 1.32889
24 -2.41937 -7.86672 -8.26833 1.46428 -0.729547 -2.3976
597 -2.1354 -8.97068 -7.94287 0.324999 -0.475366 1.15007
317 -0.294538 -8.61292 -8.81636 -1.03014 -0.400927 1.23151
657 1.91501 -9.41194 -6.56197 0.431381 0.649623 -1.43715
3724 0.407169 -9.2461 -9.34379 -0.806406 -0.79151 -0.536184
4886 4.21833 -8.96547 -2.44019 2.48109 1.18249 1.37127
3200 1.53696 -9.35609 -8.89626 0.336698 -1.0738 -1.32334
361 0.701899 -8.22483 -8.1084 0.0926238 1.16703 0.84529
362 0.96487 -8.37872 -9.03056 2.38108 1.17014 -1.35683
318 2.50223 -9.3133 -8.59114 -1.21312 -1.54614 0.536983
1654 0.313608 -1.86139 -0.0848422 2.04358 1.03018 -1.30841
319 1.86382 -8.38069 -8.60431 0.150614 3.04863 -1.45753
321 3.59992 -8.49252 -8.60118 1.64578 1.58982 0.71762
35 3.67654 -9.35228 -9.04345 0.693839 0.0752516 -1.2609
37 4.69654 -8.72988 -8.90461 -1.39358 0.734166 -1.345
55 -8.26927 -9.42472 -9.39574 0.357995 -0.514376 0.160017
39 5.36518 -9.37842 -8.35572 1.05823 1.33628 -0.0103787
38 5.46312 -7.8412 -9.09117 -0.936774 -1.42016 -1.03547
3212 6.28873 -8.73772 -8.83236 -1.2711 -0.791464 0.307599
895 2.75659 -9.35097 -3.48231 0.408181 1.21334 0.387548
91 7.23186 -8.06455 -8.06898 -0.37054 0.403172 -0.25991
141 7.25771 -9.28854 -8.43845 0.901182 -0.733712 -1.32318
3264 6.91347 -7.88254 -9.28552 -0.38227 -0.65127 -1.20643
256 -6.57363 -0.964672 -9.4302 0.507698 -0.972627 -0.880858
483 8.04346 -8.89981 -8.11757 -0.237979 -1.50907 0.982045
8 9.05902 -8.62376 -8.87826 0.877827 -0.149571 1.48278
3307 -9.52174 -7.72288 -8.41919 1.49793 -2.15317 -2.19828
102 -8.82222 -7.42204 -9.11247 -0.112975 -0.0663138 -0.494385
3318 -8.17872 -6.76447 -8.61153 -0.0326519 1.73509 0.436173
484 9.43075 -6.69697 -8.42049 0.885894 1.39752 0.0590183
634 -6.87259 -7.48252 -8.03943 -0.352754 -0.128044 0.688471
1985 -2.56761 -1.94525 -0.264299 -0.97851 2.52913 0.466793
193 -7.48731 -6.04498 -8.81456 -1.83551 0.493243 0.489775
582 -6.98991 -6.40095 -7.57991 -2.02627 1.27163 0.183274
3232 -5.85119 -6.5497 -9.13341 0.67676 -0.952882 0.814163
396 -6.22975 -7.68137 -9.06024 -1.06096 -0.382316 1.21469
630 -6.66159 -6.77081 -8.57039 0.646052 -1.38181 0.747927
61 -5.32506 -8.04875 -8.71062 -0.599372 2.11244 -0.220952
631 -4.91745 -7.18907 -8.65521 1.84826 -2.17639 0.246493
4593 2.88409 -9.16869 -5.72424 -0.376376 0.136885 -0.817852
684 -4.32395 -7.87116 -8.37646 2.67133 1.68439 -0.985034
158 -3.90268 -6.34067 -8.39438 -0.205707 -1.62268 0.665646
350 -3.94101 -7.14252 -8.9469 0.866664 -2.02173 0.264615
406 -3.42507 -7.92119 -8.41029 1.99626 -0.5956 0.407412
117 -3.01919 -7.21051 -9.29387 0.982576 -1.16585 1.50186
120 -2.63627 -6.31602 -8.90698 -0.0772836 0.149521 -2.07407
70 -1.96025 -7.34987 -9.20126 -0.212555 -0.371046 -0.667508
165 -1.94763 -6.9201 -8.37653 0.953572 2.19776 -0.335665
124 -0.775052 -7.17087 -9.16067 1.37186 -1.06359 -2.21155
642 -1.09338 -7.54606 -8.36597 -1.02615 1.41739 -1.5385
119 -0.897317 -6.45987 -8.43213 -0.48788 -0.225181 -0.280432
310 -0.019661 -7.67952 -8.94889 0.866076 -0.0834745 -0.102208
127 0.0426889 -6.72044 -8.73359 0.13851 0.143925 0.753363
1959 4.41759 -3.97138 -0.0779436 0.384815 -0.537745 0.141651
411 1.08043 -7.30698 -8.57489 0.916823 -1.96373 -0.176573
417 0.959827 -6.52712 -9.23649 1.7323 -0.206239 -1.72283
702 0.655085 -6.2036 -7.95643 0.501507 2.63895 0.881871
370 2.83295 -7.55265 -8.8804 0.113962 -2.86272 -0.316345
128 3.36047 -6.52163 -8.40279 -1.64218 0.399749 -1.24336
177 2.63784 -6.6363 -9.26517 0.1642 1.47402 -0.50349
705 1.83342 -7.18464 -9.10388 -0.55839 -1.2791 2.27259
613 5.07655 -7.99203 -8.00663 2.26708 -2.38124 -1.11399
326 5.07734 -7.03356 -8.83235 -1.2968 2.11534 1.24423
323 4.35434 -7.71073 -8.81221 1.50947 -1.16926 -1.35194
661 4.52676 -7.05275 -7.95328 -0.987394 -0.3581 -0.328161
421 3.76895 -7.00531 -9.28033 -0.139837 0.0842312 0.982958
3259 6.16114 -6.96751 -8.62336 -1.45666 1.97372 2.50527
322 5.83936 -5.9463 -8.51966 0.72079 -0.95461 -0.388182
88 6.81011 -6.36906 -7.83048 -1.5868 3.14867 -0.909561
429 7.35683 -7.03473 -8.29873 -0.940466 -0.433094 -0.640682
144 7.91514 -7.49286 -9.26364 -0.409733 -1.05095 0.57793
53 8.50578 -7.90429 -8.56742 1.07046 -0.00385044 0.516244
477 8.47161 -6.53582 -8.66109 0.198239 -0.0655683 -1.28093
4037 9.17554 -0.0322007 -5.26322 0.889557 1.79489 -0.373164
152 -8.84926 -5.94517 -8.94288 -0.592505 2.01769 0.37901
491 -9.00937 -5.05784 -8.44278 0.441925 -0.957865 -0.902845
2031 -4.44376 -9.39529 -0.288642 -0.386188 -0.524552 1.85914
486 -8.04488 -5.30831 -8.53354 -0.196388 1.72602 0.798165
443 -6.62428 -5.57554 -8.66785 1.18746 1.40553 -1.10218
36 2.75526 -8.56902 -9.14139 1.58142 -0.246018 1.09454
105 -5.56151 -5.51854 -9.13998 -0.502871 -0.301289 -0.854466
342 -6.23816 -4.78151 -9.05058 0.086613 0.00375717 1.19866
390 -5.49114 -4.70671 -8.49632 1.17016 2.44189 -1.13933
393 -5.69971 -5.92267 -8.20333 1.48698 -1.72304 0.414561
107 -4.74002 -6.17173 -8.94942 0.43341 -0.653718 0.506019
150 -4.61072 -4.74734 -8.91732 -0.824868 0.160131 -0.217282
453 -3.28796 -5.57204 -8.18217 -0.245416 -0.456526 -1.53586
168 -2.24205 -5.26292 -8.61986 -1.8037 1.05053 -1.0468
59 -6.81756 -8.53251 -8.99177 1.08497 1.4944 0.671952
166 -2.98388 -5.44568 -9.37858 1.54122 -1.56185 -0.508407
459 -1.60279 -6.04649 -8.85897 -0.943555 1.78824 1.80486
169 -1.47662 -4.47229 -8.63947 -0.30955 1.51679 0.375434
457 -1.20041 -5.33524 -8.27967 -0.877016 0.557347 0.0751919
123 -0.324381 -5.79806 -8.82373 1.37181 -1.63416 0.446378
74 -0.0643095 -4.80498 -9.02927 0.23121 1.37571 -2.28916
126 0.733904 -5.65449 -8.84231 3.30443 2.82672 0.722025
461 1.14316 -4.83213 -8.59247 1.49069 0.711749 -0.959117
745 -0.579453 -5.86985 -7.62895 -1.50194 -0.373177 -0.580023
368 1.03642 -5.34005 -7.73564 1.37912 0.177836 0.470248
79 1.8976 -6.05908 -8.61641 0.171863 0.977051 -0.583996
122 2.04712 -5.14829 -9.13045 0.0320424 -2.01159 -0.0196649
180 2.80296 -5.60869 -8.32393 0.112546 -0.513489 -1.73524
228 3.52708 -4.88062 -8.71686 -1.16495 -0.152235 -0.893512
178 3.56489 -5.86414 -9.22042 0.134417 0.25433 1.30655
4345 -1.50348 -0.119039 -4.80836 0.27814 0.80024 -0.255068
181 3.75357 -5.61015 -8.08535 -0.790253 0.911972 -1.2312
130 4.64177 -5.04016 -8.54791 0.93697 -0.841298 0.676619
414 4.39854 -6.1671 -8.7221 0.709947 -1.71327 -2.07214
467 5.05068 -5.06315 -7.65923 -0.124522 -0.330282 0.25658
135 5.11179 -5.58015 -9.20428 -1.63049 0.229156 -0.870515
185 6.55439 -5.35362 -8.68562 -0.148823 1.66555 -3.39201
629 -6.23346 -9.4684 -6.46313 1.19108 -1.01517 2.51829
86 6.94214 -6.19043 -9.25743 -0.36437 -0.612088 -1.13736
3067 7.20717 -5.14116 -9.43007 -1.50895 -0.707701 1.45107
384 7.56471 -5.99706 -8.50424 -0.515302 -0.311578 -0.198413
138 7.42381 -4.78275 -8.42849 -1.19937 -2.47771 0.0182317
145 9.19538 -5.87956 -9.12019 -0.434924 1.28865 1.63244
478 8.16278 -5.47719 -7.90112 -0.494497 0.949339 1.66554
189 8.14054 -5.12143 -8.95978 -0.865086 0.0505961 1.15375
3071 9.11179 -5.27877 -8.29684 0.819764 -0.683691 0.355444
3316 8.26165 -4.33373 -7.90546 -0.764403 0.224435 -0.170494
89 7.82406 -8.47181 -9.03115 -0.171091 -0.772708 -0.654576
191 -9.30827 -4.09257 -9.04077 0.0967066 0.841236 -1.60273
3453 -8.69377 -4.10446 -7.8463 1.45982 -0.832913 0.247317
522 9.36436 -4.26998 -8.01109 -3.47732 -0.290773 -1.30699
442 -7.58768 -4.30992 -7.89806 0.193407 0.43994 -0.17911
489 -8.33742 -4.15285 -8.74715 -1.08411 2.16778 2.19248
3413 -7.53214 -3.47983 -8.99646 2.84359 0.826797 0.390274
448 -6.93141 -3.53769 -8.13846 1.6265 -2.70882 3.05241
3340 0.29743 -3.04399 -9.34944 -0.595348 1.07986 0.885545
154 -6.18314 -3.79542 -8.76284 1.15623 -0.997551 -0.712092
452 -5.67058 -2.57681 -8.23224 -2.17177 1.13692 -0.0943541
685 -4.11426 -3.55691 -8.935 -1.00578 1.75135 -2.06483
449 -3.82642 -5.30136 -9.01754 -0.0785149 0.0575893 -1.47288
402 -5.22836 -3.38669 -8.8838 1.58516 1.06513 0.742297
503 -3.00827 -3.49893 -8.97757 1.5342 0.557361 0.115424
733 -3.47872 -4.44247 -8.89135 -1.77685 -0.379329 1.64423
793 -2.76328 -4.34151 -8.16309 0.107094 -1.07019 0.117509
789 -3.69513 -3.43255 -8.02135 -0.188023 1.46053 0.998717
454 -1.89355 -3.614 -8.70727 0.495132 -2.07793 0.469131
170 -0.995769 -3.53806 -8.31595 1.87352 1.83594 -1.9993
410 -0.465292 -4.41886 -8.13614 -0.0790258 -1.12231 0.257606
175 -0.609501 -3.92661 -9.29256 0.244852 -1.63916 -0.52278
460 -0.77611 -2.99796 -9.17528 1.2215 -0.912401 -1.17224
749 0.244669 -3.81443 -8.74384 0.304601 -0.406744 0.439555
224 1.74682 -3.97879 -8.01543 0.221684 -0.645251 0.866148
463 2.48986 -4.58621 -8.41844 -0.51848 -1.51795 0.703822
509 3.12058 -3.85846 -8.83124 -0.212447 -1.53457 1.23843
557 2.19732 -3.3155 -8.65504 0.495617 -2.12453 -1.42946
465 3.04375 -4.92459 -7.59142 1.02584 -0.470842 2.19442
183 3.9781 -4.34148 -8.06172 0.162886 -1.22593 0.21803
184 4.01898 -3.17521 -8.56953 -1.55491 0.711967 1.78228
187 5.00554 -4.14338 -8.2583 2.2987 2.38544 -1.60972
229 4.13489 -4.05259 -9.10136 1.12632 0.949368 0.241879
1968 8.84196 -1.66973 -0.148104 -1.66109 2.02989 -0.550119
136 5.61566 -4.95155 -8.41367 1.64372 0.74439 3.01697
424 5.93378 -4.23632 -9.2491 0.113607 -0.530427 -0.978904
768 6.18372 -2.82334 -9.1226 1.50666 2.153 -2.55157
521 5.93857 -3.86885 -8.32631 0.787661 -0.427903 -1.87641
92 6.40803 -4.65992 -7.92521 -1.53764 -0.438222 1.04178
5108 -1.56099 -9.38174 -0.940236 0.481316 -0.157072 -0.225196
525 7.37672 -2.76793 -9.1736 0.72497 0.780697 0.746017
482 6.84323 -4.09535 -8.638 -2.20928 1.28601 1.82561
3403 7.92351 -3.48992 -8.5829 0.224386 0.0116012 -0.574834
262 -1.03417 -0.531226 -9.46797 0.0382961 1.1829 -2.06432
104 8.74938 -4.26223 -8.81926 2.48214 1.60594 -0.744797
481 9.14913 -3.36896 -8.43323 -0.694256 1.40138 2.12398
3771 0.320795 -0.205739 -7.51854 0.361849 1.01808 1.90093
286 -8.66193 -2.09883 -9.50062 0.602256 0.726768 -1.16306
196 -8.74102 -3.13981 -8.80993 1.08683 0.887168 0.249588
3785 -8.49399 -2.45291 -8.00571 -0.0486883 1.56416 0.0666724
535 -8.37429 -1.33572 -8.38271 -1.00699 -1.02442 -0.85024
3360 -7.96665 -3.38504 -8.08268 -0.0630802 -2.02339 0.308688
247 -7.69551 -2.45657 -8.79158 0.285662 -0.667213 -0.0504141
3362 -8.68416 -4.81677 -9.43094 -0.918408 3.12017 -0.587055
155 -6.62946 -2.84589 -9.00642 -2.24369 -0.524691 -1.61328
779 -6.78743 -1.34537 -8.26368 0.0527227 0.481243 -0.0723399
208 -5.78913 -2.21464 -9.17622 -1.67539 -0.473733 0.43534
3547 7.39276 -0.485622 -9.25452 1.22453 -1.22015 -0.0703141
541 -4.92406 -1.82406 -8.08426 2.67711 0.0093368 -0.793213
497 -4.82514 -2.43994 -8.99969 -0.964269 -1.29953 -2.41571
495 -4.50024 -2.89974 -8.21981 0.988348 1.18888 0.706383
499 -3.33315 -2.59143 -8.6481 -0.4316 0.330393 1.09039
504 -2.72487 -1.97575 -8.19145 -1.56952 1.76347 -0.932497
498 -2.95885 -1.80114 -9.14152 -0.833949 0.838197 0.533646
216 -2.28222 -2.47703 -8.98702 1.88357 2.52274 -0.925148
456 -2.01615 -1.50662 -8.60752 -1.16115 -2.1177 0.491578
263 -1.72472 -2.64883 -8.11717 0.302422 1.6304 -0.10337
3767 -1.33333 -1.79132 -7.77682 -1.34775 -1.63591 0.683111
215 -1.29539 -2.17763 -8.88632 -1.22629 -0.11746 -0.111546
265 -0.164644 -2.23036 -8.8794 -1.27658 1.21399 -0.875043
746 0.172538 -2.94057 -8.24153 0.38632 -1.57815 -0.375556
553 -0.135593 -1.87483 -7.87586 -0.253117 2.28285 1.46309
218 1.1714 -3.34804 -8.68587 -1.23717 0.879857 -0.773035
4635 2.39839 -0.163021 -2.16669 0.742355 -0.0557575 0.634746
269 1.17388 -2.59987 -9.34949 1.93564 -1.60926 0.186718
272 1.84482 -3.02913 -7.68423 -0.0377814 -1.82464 1.90033
271 2.25102 -2.32111 -8.9668 1.49968 -0.186946 -0.859486
219 3.16816 -2.57313 -7.9799 -0.809222 -1.2336 0.98628
559 3.36809 -1.82559 -8.58189 0.79187 -1.01748 1.89932
517 3.24588 -2.79098 -9.187 0.779348 0.768609 -1.00151
223 4.06984 -2.23683 -9.0729 0.230937 -0.260578 2.81228
470 5.02766 -2.81071 -8.43817 -0.523611 -0.666526 0.470553
518 4.95 -1.92585 -8.70996 -0.194344 -0.455367 0.272248
808 4.24701 -1.37706 -8.40224 2.3175 0.915971 -0.380688
3709 -6.2747 -9.44736 -8.56827 -0.0739886 -0.959784 0.717826
3402 5.81349 -2.14655 -7.96142 -1.01906 0.248868 2.20281
4366 8.10462 -0.064428 -3.45849 -1.58041 0.913245 0.362229
4068 5.46634 0.000546641 -4.71484 2.45144 1.76446 -0.0655387
3455 7.68888 -1.58207 -8.9626 -0.243637 1.31408 -2.03801
527 7.58644 -2.5606 -8.14203 -1.42916 1.14074 -0.759102
813 6.71096 -3.06319 -8.07242 -1.95855 -1.07346 1.26722
281 6.71161 -2.05847 -8.59584 0.378499 0.287491 -2.10037
3361 9.23596 -2.67443 -9.43768 0.306455 -1.0309 -1.68431
576 9.22733 -2.307 -8.27074 -0.210332 -0.788315 -1.32057
238 8.38745 -2.64598 -8.8159 -1.77265 -1.67918 0.48011
575 -9.21727 -1.65755 -8.80696 2.48215 2.51247 -0.0923368
906 6.58472 -9.50426 -3.52114 -0.923158 1.48252 -1.07506
287 -8.76337 -0.221794 -8.33388 -0.0617424 1.07679 -2.37661
242 9.51187 -0.254604 -7.6621 0.167875 2.17142 -0.532444
200 -7.8411 -1.38696 -9.331 -0.250117 -1.05811 0.302861
6636 -7.54766 -0.615601 -7.9911 1.19803 0.719731 -1.58639
246 -7.28053 -0.372888 -9.35694 0.755235 0.0332419 -0.92726
496 -5.55508 -0.437966 -9.05783 -1.08349 1.5567 -1.32398
3465 -5.85985 -1.38363 -8.55436 1.3104 1.52509 0.0603468
3469 -6.46993 -0.439508 -8.49401 -1.13935 1.2325 -0.661842
4359 4.89701 -0.059781 -3.87922 1.49172 0.279593 -2.35913
251 -4.73026 -1.27772 -9.11232 0.334739 1.86225 -2.0725
3757 -4.80442 -0.650896 -8.29334 0.502375 -2.83587 0.140012
259 -3.91036 -0.75055 -9.09027 -0.895503 1.17582 0.00920153
835 -3.84078 -1.07515 -8.06788 0.411328 0.656161 0.404771
3023 9.31906 -4.95199 -9.47256 -1.4628 0.082665 -1.49193
257 -2.95429 -0.940113 -8.55659 -1.05275 1.03865 0.0856005
163 -2.34752 -4.33891 -9.48745 0.83829 2.44047 0.518784
3761 -3.70172 -0.0777128 -8.22785 -0.925208 1.16994 -1.35692
3479 -0.951121 -1.26204 -8.66306 -0.256631 0.607598 0.471633
3762 -0.91658 -0.0763999 -8.52984 -0.86343 0.972552 -0.111706
3475 -2.05004 -0.506907 -8.47505 0.628114 -0.113589 0.39439
258 -1.34279 -0.828657 -7.7179 -1.74467 0.385297 -0.695691
3513 -6.68655 -0.186716 -7.63886 -1.47761 0.666007 -1.09734
217 0.365478 -1.30196 -8.61602 1.25063 -1.36734 2.3788
837 -0.289699 -0.725135 -8.13061 -0.94392 2.32146 -1.23424
3436 -0.0160982 -0.598077 -9.21323 -0.930702 0.128535 -1.27295
268 1.05435 -0.400253 -8.30312 1.77485 0.873294 1.06221
267 1.46318 -1.51014 -8.84059 -0.325993 0.470888 0.279112
3487 2.08901 -0.666575 -8.65333 1.00167 -0.482272 -0.347526
3827 2.46527 -0.720564 -7.66695 1.46903 0.584184 0.969691
554 2.61644 -1.82632 -7.4312 -0.0592284 -0.363794 0.977482
558 3.25044 -0.504569 -8.63218 1.48642 -0.424626 0.35455
270 2.49153 -1.4902 -8.39539 -1.09119 -1.70458 -0.583462
275 3.81607 -1.32181 -9.35263 -0.473395 0.907494 -1.40509
232 5.08747 -1.03777 -9.32959 0.63567 1.24556 0.952741
3491 4.36922 -0.446797 -8.98149 0.795165 -2.33322 0.677331
283 5.81101 -1.05284 -8.53528 -0.444943 0.534947 0.603573
562 4.98818 -0.515889 -8.24543 -1.90121 -0.279231 -0.617373
3451 6.63532 -1.08494 -8.98357 -1.94904 -1.63026 0.264394
3499 8.1442 -0.438476 -8.50117 -1.75373 1.29318 -0.968163
1874 8.96845 -3.88264 -0.077769 0.0638978 -0.84334 2.07322
6381 8.29426 -0.822157 -9.37273 1.24939 -1.57648 -0.669299
3498 8.81844 -1.09695 -8.2158 -0.0303061 0.994037 0.972807
6669 9.30828 -0.543865 -8.95298 -1.55361 -0.171004 0.0365001
1128 -0.534801 -0.146378 -3.79998 0.212782 0.926559 -0.698548
3409 8.9516 -1.57397 -9.21125 -0.970768 0.134592 0.474913
51 -9.07701 -8.69502 -7.85593 1.05152 -4.804 0.392765
56 -8.34381 -7.98927 -6.99372 -1.17904 -2.49941 0.291878
99 -8.59592 -9.28804 -6.57814 2.88395 -1.66245 0.0565904
291 -8.17649 -9.07335 -7.57187 1.62768 -0.10742 -1.08414
295 -7.49157 -8.2855 -7.77518 -0.116762 -0.467587 2.24803
348 -7.74357 -8.6647 -6.61863 0.489801 0.869307 -0.642048
921 -6.66 -8.85626 -7.15815 -0.489671 0.492488 -1.69338
12 -5.86725 -8.18193 -7.12268 0.969316 -0.453386 0.212326
635 -5.58032 -8.66733 -6.27407 0.90539 0.0707864 0.522206
600 -4.97182 -8.3376 -7.59711 0.345093 0.364007 0.31452
352 -3.89966 -8.24577 -7.55828 -0.477717 -0.774874 -2.11439
593 -5.45969 -9.19396 -7.13106 -0.765866 0.31765 -0.0724695
349 -4.30251 -9.16724 -7.45536 -0.656609 1.36594 0.33616
2015 9.04354 -0.261993 -1.00385 0.978932 0.837654 0.574989
643 -3.44316 -8.91676 -6.81421 1.21356 0.102151 -0.472861
403 -2.54652 -8.49403 -7.21406 0.29739 3.3931 -0.961539
884 -2.57166 -8.48367 -6.24699 0.493688 -2.43991 0.181223
3473 -2.29757 -0.909871 -9.41728 -1.14916 -0.577562 1.78057
641 -1.75225 -8.92443 -6.4366 -0.523973 -2.33124 0.0719756
309 -1.61388 -8.19871 -7.56608 -0.323925 0.53156 1.7882
605 -1.12879 -9.11187 -7.41918 -0.825015 -2.47511 1.16027
4290 -0.774551 -8.55015 -6.71859 -0.00741719 0.653111 -0.252137
646 -0.538026 -8.25652 -7.82594 -0.296426 0.0651068 1.51623
320 0.381132 -8.69225 -7.01866 1.02035 -2.2078 0.284852
647 0.0577353 -8.0839 -6.04025 0.115287 -2.51427 -2.33162
4300 0.129624 -9.28018 -6.21206 1.54674 0.698871 0.96702
1728 8.02538 -0.670738 -1.73235 -0.656366 1.22916 -0.687244
415 1.37362 -8.63881 -6.81977 0.124755 0.774168 -0.549205
659 1.63981 -9.07054 -7.87833 2.66753 -0.346682 1.16831
1946 1.30478 -1.39826 -0.245141 0.142083 0.546725 -0.423697
413 2.77719 -8.63344 -7.91658 0.127654 -0.984324 -0.70117
4305 3.73619 -9.03903 -6.39935 -0.179982 0.0147051 -0.267646
1532 7.50044 -6.27834 -0.10123 0.528728 1.49312 -0.794947
650 2.51074 -8.90017 -7.03301 -1.54919 0.682319 -2.06526
366 3.17585 -8.01399 -7.12699 -0.211808 -0.480155 -1.48413
609 3.54129 -9.05952 -7.50834 0.315687 -1.52865 -1.27761
658 4.3775 -8.8695 -7.90271 1.66258 -1.32219 1.49628
902 4.83235 -8.40297 -6.9126 0.204516 1.34704 -1.02856
664 4.0417 -8.0803 -6.30761 0.849311 -2.00315 -1.56983
34 6.12259 -7.83936 -8.17498 0.869685 0.449036 0.532539
4312 5.44911 -8.93591 -7.46881 -0.475643 -0.472001 -0.27458
1186 5.63024 -7.88638 -7.14476 0.912696 -1.66678 1.2665
44 6.41701 -8.71639 -7.83194 -3.83934 -1.00394 -2.02249
328 7.32415 -9.13867 -7.51742 -0.441285 0.743221 0.573891
42 7.72677 -8.76476 -6.64342 -0.387317 -3.78511 0.738701
1252 -6.58378 -4.2607 -0.368211 0.948053 0.905164 -2.01509
665 7.0511 -8.23208 -7.10732 1.01308 2.7383 -0.135095
1841 -3.62099 -5.22794 -0.267921 -1.35804 0.0643933 -1.47468
341 9.01396 -8.6105 -7.69186 -2.26006 -1.37225 2.05735
95 8.04627 -8.20025 -7.41387 0.0124233 0.505913 0.418662
296 -9.39764 -8.72334 -6.79377 -0.588043 -2.63846 0.292853
910 8.7647 -9.07096 -6.31704 -0.0379304 -1.71923 0.827713
869 -8.9388 -7.45741 -6.28627 0.0534318 -0.582698 0.0378282
382 -9.36449 -6.65523 -6.81334 -0.163753 -0.303539 1.78088
488 -8.88004 -7.15195 -7.59482 -1.63066 0.767967 -1.37955
590 -7.84029 -7.3081 -7.90269 1.13271 0.923067 -1.92975
1013 -8.13878 -6.75006 -7.06361 0.55414 -0.187595 0.219461
679 -7.41171 -7.78643 -6.87932 -0.330102 -0.0594091 0.870179
683 -6.30185 -7.30839 -7.2372 0.441837 0.51368 0.377828
345 -6.58957 -7.87326 -6.26022 2.18857 0.42804 -1.61923
356 -5.70185 -6.99266 -8.10505 1.26914 -0.46545 0.0818455
637 -5.30424 -7.1481 -7.19161 3.79163 -0.118558 -1.20084
1542 -5.88281 -6.27288 -7.05253 -1.06361 2.4972 0.846947
68 -4.20939 -7.15101 -7.68601 -0.955811 1.89008 -1.97822
880 -4.4721 -7.57472 -6.8009 1.22369 0.98813 0.269019
682 -4.7879 -6.25533 -7.85216 0.612251 0.324145 0.639636
687 -3.64082 -6.85884 -6.86897 0.544795 0.43283 -0.563346
360 -3.02484 -7.66867 -7.58252 -0.763304 0.579782 1.57922
932 -2.64964 -6.44944 -6.99823 -1.36177 1.8316 1.30559
748 -3.11261 -6.78849 -8.08891 -1.232 0.585008 -0.194485
693 -2.14116 -7.26743 -7.40404 -0.432452 1.59492 -1.87474
741 -1.09372 -7.12171 -7.33514 1.95184 -2.41231 -0.211611
363 -0.195266 -7.64179 -7.03869 -0.730993 -1.58929 1.9398
695 -0.294871 -7.231 -7.89051 -0.0951305 -0.833061 -0.0128101
698 0.596567 -7.20711 -7.51717 -0.435809 0.563214 1.34072
655 0.931365 -6.53449 -6.79775 -0.269142 -1.61348 -1.16445
987 -0.604536 -6.50445 -6.64768 0.608321 -3.13398 0.790698
359 1.46628 -8.02149 -7.57087 -0.28327 1.93149 -0.663547
990 1.90097 -6.65897 -6.73067 -0.440756 -1.32914 -0.1212
753 1.56917 -6.93591 -7.74405 1.18463 -0.446984 -0.654689
697 0.773607 -7.71505 -6.68666 -3.23696 0.374843 -0.332222
897 2.07703 -7.65344 -6.64524 -0.359301 -1.3771 0.0334461
945 2.35889 -7.78141 -8.03185 2.33991 0.63992 0.356539
372 3.35847 -7.43905 -7.99921 0.249666 0.669443 0.147613
991 3.11432 -7.45325 -6.33978 2.05398 -0.0785223 0.46049
519 2.67893 -7.06966 -7.2836 -0.404103 0.122185 -1.90938
610 4.11771 -7.91786 -7.53399 -2.11372 -0.691989 -0.798144
709 4.10641 -6.95561 -6.14612 -0.878969 -1.77877 1.23541
375 5.01782 -7.13795 -7.01335 0.136075 -3.19204 -2.97745
1041 3.69306 -7.02503 -7.18406 -1.53819 2.65469 -0.427337
371 5.61853 -7.00284 -7.84981 0.543786 0.529085 0.259665
377 6.8004 -7.28652 -7.47535 0.276469 -1.90399 1.66789
614 6.17301 -6.32649 -6.99638 1.12435 1.96948 -1.35844
327 7.74895 -7.36799 -6.83076 -1.52737 0.496633 1.24987
90 7.91883 -6.59784 -7.69504 -0.592932 -0.848743 0.409115
3311 8.56954 -7.31353 -7.80352 1.28707 -0.00929726 0.46446
147 8.92306 -6.19373 -7.57943 1.00419 -1.46012 1.92319
433 9.4623 -7.66202 -7.29308 -0.0152099 -0.194149 0.438848
142 8.86142 -7.97801 -6.61438 0.315834 -0.979959 -1.04982
529 8.63375 -6.89295 -6.9292 -0.188172 0.0762071 0.363151
722 -8.91524 -6.08155 -7.95733 -0.436285 0.615394 1.20326
434 -8.35558 -5.14894 -7.45794 1.35622 0.115551 1.95612
578 -8.62218 -5.09221 -6.29864 -0.701683 0.735262 1.58943
440 -8.76217 -5.86497 -7.00087 -0.825632 -0.477178 -1.08178
775 -7.91873 -6.1234 -7.80818 1.07061 -2.49234 -1.34435
531 -7.34526 -5.24126 -7.58753 -1.47561 -0.711759 -1.73274
731 -7.11855 -6.71729 -6.55304 0.0686818 -1.79975 0.404471
729 -7.59437 -5.80589 -6.80634 0.0750152 1.26053 -0.553814
400 -7.45712 -5.11443 -6.17771 0.392119 -1.16005 2.04433
395 -6.4378 -5.45156 -7.61873 2.42863 0.047931 0.310921
445 -5.44886 -5.4081 -7.36253 1.40646 2.13082 0.973512
3320 -5.79168 -4.52244 -7.40664 -0.627787 1.72566 -1.55811
160 -6.60305 -5.74011 -6.44161 1.22822 0.898134 1.03991
408 -4.24833 -5.40698 -6.8483 -1.25436 0.99632 0.137789
690 -4.47407 -5.23827 -8.12398 1.86915 1.26668 0.603388
640 -4.6511 -6.36292 -6.91261 -1.83669 -0.144321 -0.848684
76 -3.68727 -6.07058 -7.42983 0.912029 -1.43104 -0.508713
691 -3.43738 -4.98744 -7.13178 1.17012 1.02597 -0.42383
412 -2.55964 -5.47418 -6.60945 1.65908 0.699417 -0.212009
455 -2.10378 -6.07364 -7.8113 1.1605 0.534581 -1.78972
364 -1.46188 -5.82815 -6.96823 0.174129 1.34496 -0.380069
1040 -2.2412 -5.05915 -7.57132 -2.27072 -0.733399 -1.35642
694 -0.557598 -5.50785 -6.67797 -0.23825 -0.0597721 2.29704
407 -1.36585 -5.1044 -6.04838 -0.28984 -0.707195 1.1224
654 0.207664 -5.93425 -7.07607 1.19517 -0.836939 -2.11817
172 0.0199125 -4.90846 -7.25861 0.247773 2.84238 0.172549
985 0.633152 -6.19346 -5.8767 1.2758 -2.38808 -0.508008
416 2.18927 -6.03638 -7.64741 0.47872 -1.17199 0.197752
751 1.44606 -5.74152 -6.98846 -0.0212634 0.00220584 -0.0738985
708 2.37449 -5.78321 -6.61034 -1.83562 0.500257 -1.49697
80 2.40192 -6.81568 -8.24436 -0.878958 3.32632 1.63288
132 3.17086 -6.04582 -7.35314 1.52677 -0.0885506 -0.255706
750 2.47691 -4.7693 -6.54426 0.142965 -0.756833 -0.891114
420 4.1069 -6.163 -7.21924 -0.105911 -2.15945 -0.926227
660 3.33915 -6.46255 -6.45899 -0.950252 -1.1514 0.011016
469 4.09918 -5.05516 -7.06639 0.359103 -0.279013 -0.708602
376 4.96182 -6.15681 -7.74895 -2.23093 -0.270463 1.02784
662 5.59604 -5.19275 -6.79877 -1.83591 1.33025 -0.796834
419 5.9099 -5.52369 -7.61038 -1.20365 -1.14339 -0.993579
87 7.24144 -6.54317 -6.88492 0.857008 2.62278 -0.707027
139 7.0083 -5.34556 -7.72639 -0.735586 1.62572 -0.139554
383 7.91853 -5.89803 -6.97692 -1.2577 -0.235994 -0.24939
192 -9.46589 -5.36454 -7.47618 -1.62429 -3.34416 -0.672506
727 9.10321 -6.00085 -6.35261 0.172852 -1.93517 1.14775
143 8.51422 -5.06819 -7.04091 -1.15242 -0.697593 -1.05951
156 -9.16658 -4.17733 -6.97465 -0.885279 1.75055 1.71454
436 -9.1975 -3.22228 -7.64612 -0.799671 1.60709 0.693609
194 -6.56619 -4.52356 -8.0353 1.84079 1.06512 -1.34286
151 -8.24834 -3.34399 -7.04041 0.773033 1.64037 1.61343
392 -8.13764 -4.15498 -6.40983 1.69406 1.14859 1.71395
825 -6.91789 -4.675 -6.85278 0.318734 0.0204165 -1.32377
490 -7.26493 -3.69608 -7.19282 -1.49579 -1.50164 0.236166
726 -7.76812 -3.44193 -5.74274 0.803787 0.290161 1.10635
777 -6.46194 -2.83803 -7.28287 0.807697 1.57453 -0.097941
539 -5.61675 -3.60113 -7.78617 -0.243506 -0.256638 1.48268
441 -5.21874 -3.90979 -6.6842 -0.655016 -0.174814 -3.17116
829 -6.29769 -3.75058 -6.85336 -1.79651 0.293175 -0.780504
394 -4.85675 -4.68108 -7.16234 1.42171 0.726904 -0.611775
164 -4.75708 -4.06937 -8.07481 -0.0593114 -0.237018 0.426064
451 -3.9802 -4.21043 -6.89005 -0.21503 -0.892251 2.72903
404 -3.72306 -4.39634 -7.97355 -1.67241 -1.4717 -1.42356
922 -3.03197 -3.98605 -7.25994 -2.56291 -0.25564 2.59603
791 -2.56307 -3.17288 -8.11913 -0.67332 0.612756 0.0691206
500 -3.65151 -3.28987 -6.7834 1.05906 -0.864816 0.339405
167 -1.78526 -3.76126 -7.7394 0.108379 -0.45442 -1.63723
988 -1.88308 -4.2838 -6.77268 2.63025 -0.188232 -0.0892799
790 -1.17498 -4.8307 -7.43506 0.579117 -0.0195483 -0.459088
1033 -0.204779 -3.7762 -7.39166 -1.20716 -0.0864338 1.99472
220 -1.03713 -3.71468 -7.0499 -0.353462 1.04414 0.0829382
796 -0.569276 -4.29865 -6.37529 -0.511068 1.00185 -0.172108
795 0.549041 -4.07682 -6.87817 -0.649087 0.0323025 1.75003
794 0.592249 -3.16382 -6.53396 -1.07871 0.30989 1.32567
464 0.721664 -4.39302 -7.80268 -0.0120998 -0.272462 1.75916
462 1.99319 -5.0255 -7.57245 -0.852569 2.11988 0.801188
799 1.51654 -4.63071 -6.79099 0.655563 -0.88382 -1.36634
507 0.850179 -3.38824 -7.76686 -2.80871 -0.690718 -0.154357
841 1.41716 -3.68018 -6.98696 -1.4025 2.2724 1.06123
466 3.2565 -3.74981 -7.77219 -0.491555 1.35076 0.195559
468 2.39827 -3.98149 -7.32663 -0.138471 -1.175 2.23178
1138 3.2907 -4.25974 -6.93046 1.62446 2.36747 -0.207684
807 4.41604 -4.08193 -7.17476 0.522981 1.43274 0.200452
706 4.46244 -3.20582 -7.74912 -0.90363 -3.96902 0.638036
1050 3.80599 -3.07686 -7.10293 -0.923535 -1.52375 -0.683456
474 5.56466 -4.29512 -7.43601 0.635187 2.04652 -1.48536
1054 5.11218 -4.21049 -6.39522 -0.368244 1.71067 -0.0905233
140 4.82873 -3.29918 -6.79029 0.92796 -0.402107 1.1597
520 5.9509 -3.65312 -6.60398 -0.802101 -0.838611 0.20888
188 7.29877 -4.46178 -7.27664 -0.884955 -0.701568 -0.578392
714 6.45741 -4.58771 -6.81901 0.419584 1.01733 0.690803
427 7.61947 -4.96696 -6.48345 -0.240234 0.0940565 -1.85276
236 6.50183 -3.72265 -7.34516 0.0455559 0.762437 1.83747
471 7.16634 -3.86491 -6.4499 0.405493 0.677383 0.649805
721 8.21776 -3.58811 -6.51437 -1.45552 0.390356 -0.333522
240 8.87574 -4.17863 -7.07412 0.93356 0.915792 0.475743
234 9.26728 -3.16612 -6.77649 -1.36174 -0.466849 1.39424
766 9.16581 -3.98801 -6.0901 1.40291 -0.246381 -2.62631
725 -8.91899 -2.61378 -6.82314 0.760421 -0.382727 1.89644
244 -8.70822 -1.76944 -7.27576 -0.0271012 2.35831 -0.177302
770 -6.87835 -2.41525 -8.21842 0.945974 2.0056 0.267116
493 -6.97217 -1.87529 -6.97643 0.82094 0.817932 -1.50576
195 -7.49061 -2.68751 -7.38413 0.428348 0.611616 -0.615095
4333 -7.03672 -3.09243 -6.40878 -0.0911589 0.149747 1.38707
202 -5.93123 -1.78908 -7.39186 -1.83956 2.13788 2.63543
827 -5.38409 -2.68959 -7.18541 -1.54366 1.45018 0.0435426
534 -5.83602 -1.31448 -6.35927 0.218941 -1.66145 -2.07729
737 -4.01114 -1.92839 -8.58705 0.216563 1.80065 0.952584
773 -4.60291 -3.51955 -7.29759 -1.38442 0.734541 1.64444
782 -4.10203 -2.30356 -7.50973 -1.37952 -0.816166 0.501424
544 -5.04327 -1.80174 -6.90404 2.14439 -0.385583 0.384998
781 -3.1578 -2.62909 -7.535 -0.678126 1.68125 1.63716
744 -2.87836 -3.04445 -6.13246 -0.250363 -1.20244 -0.0574608
4049 -3.27067 -2.13047 -6.49129 -1.04366 1.43736 3.07563
547 -2.27007 -2.16772 -7.35718 -1.37987 -0.468714 0.0329563
734 -2.39621 -3.3647 -6.85903 -0.60568 2.11731 -2.60638
550 -1.46797 -2.84079 -7.05011 1.64531 -0.993072 -2.02509
1085 -1.53271 -3.42608 -6.22899 -1.60066 -1.3936 -0.793574
458 -0.747862 -2.63774 -7.93721 1.05165 -0.310236 -1.6262
551 -0.593344 -1.83632 -6.87435 -1.16562 1.85416 -0.548344
839 -0.384234 -2.8753 -7.04564 -1.67532 -2.8458 0.0639374
1089 0.148858 -2.35429 -6.12128 -0.425012 0.398319 0.876553
506 0.542746 -1.58576 -6.67612 -0.868638 -1.43249 1.52042
512 0.921466 -2.40568 -8.38366 -1.21107 -0.02045 -1.74473
801 0.741188 -2.36787 -7.26562 0.773869 0.057426 -0.752515
560 1.7103 -2.08264 -7.28951 -0.914064 1.58751 2.96743
555 2.55392 -1.99294 -6.48038 0.38368 -2.29738 -0.122559
511 2.5739 -2.98815 -7.06423 -0.429184 0.22579 -0.77881
516 3.60292 -2.20621 -7.21897 0.611479 -0.033494 0.422456
1095 4.29643 -2.27902 -8.02892 0.488594 1.37721 -0.258078
1094 4.30773 -2.71149 -6.168 -1.13652 0.198831 2.59183
569 5.02795 -2.36926 -7.1969 -1.4141 -1.32068 1.33371
563 4.42426 -1.68831 -6.76583 -0.418491 -0.954197 -1.0398
1052 5.5272 -1.61974 -6.70435 2.28794 2.14621 0.602137