ITEM: TIMESTEP
178000
ITEM: NUMBER OF ATOMS
6912
ITEM: BOX BOUNDS pp pp pp
-9.5244063118091962e+00 9.5244063118091962e+00
-9.5244063118091962e+00 9.5244063118091962e+00
-9.5244063118091962e+00 9.5244063118091962e+00
ITEM: ATOMS id x y z vx vy vz
3180 -9.45376 -8.05106 -8.80734 0.697515 0.774953 2.0901
6911 -8.77526 -8.88208 -9.07562 -1.40062 0.109028 -2.20693
3227 -8.39549 -7.95105 -8.85229 -0.458046 0.542898 -2.01673
3309 -8.70224 -8.76815 -8.07628 -0.672349 -0.00553669 0.522992
633 -7.25613 -8.64247 -8.73251 -2.76348 2.89486 -2.71321
3363 -7.91008 -8.25319 -7.93843 0.930956 -0.174545 -0.898425
690 -6.83099 -9.30965 -9.33082 -1.73714 1.62641 -2.62893
3225 -7.95311 -9.31838 -8.61489 0.947958 1.16604 1.00426
2600 -5.85909 -9.14403 -8.76789 -0.853505 -1.79178 -0.392255
3272 -6.24282 -8.1213 -8.65574 -1.04964 -3.7372 0.88765
539 -5.14808 -8.35872 -8.47013 0.314832 0.654972 -0.847318
6880 -5.23995 -9.2073 -7.96964 -1.79018 -0.0670515 -0.870056
6260 -4.87205 -9.45153 -8.91091 -0.84483 0.0927608 -2.84349
592 -4.17791 -7.94516 -8.59307 1.35889 1.86699 -0.125506
308 -4.11667 -9.02512 -9.35189 2.04156 -0.112031 0.0425817
870 -4.36401 -8.69345 -7.99606 -0.149379 -1.15976 -0.825087
1166 -3.2162 -8.30795 -8.87316 0.258975 -0.0243225 0.281368
3291 -2.41167 -7.99301 -8.22509 -1.14884 0.988706 -1.27517
311 -2.41776 -8.92173 -8.86097 2.01239 -0.353512 1.4925
3716 -3.41709 -8.90694 -8.01893 0.401588 -1.35767 -1.39225
354 -1.20845 -7.96023 -8.30121 -1.70083 0.272353 2.20231
319 -1.60973 -8.17938 -9.21745 2.65913 -0.219096 0.50311
4237 -1.6345 -9.06749 -8.24172 1.16183 -0.914492 0.918111
6839 -0.731755 -8.91994 -8.65389 0.169419 0.267718 -0.389507
3297 0.386554 -9.12571 -9.06913 0.300543 1.14296 0.610426
3196 0.068441 -9.03186 -8.05218 1.47069 -2.04835 -0.812919
3241 0.281289 -8.21538 -8.80818 0.904408 1.70182 2.38723
113 -0.591386 -8.14323 -9.2399 2.33353 -0.658582 0.25836
173 1.12356 -8.7605 -8.39085 -1.21892 -0.332665 -0.67662
2619 1.35177 -8.29562 -9.25369 -0.622909 -2.25574 1.47493
3351 2.2451 -8.5097 -8.71688 -0.600735 -1.61683 1.06892
658 3.52963 -9.01925 -8.44035 -1.11267 -0.17107 0.0668811
3728 3.28168 -8.7504 -9.44653 -1.17825 -1.42384 -0.400619
419 4.09729 -7.93706 -9.10779 -2.58236 -1.68518 -1.50438
3255 4.63197 -8.60862 -8.41817 1.7095 -0.883703 -1.81552
37 5.40784 -8.92379 -9.11325 2.50631 -0.219973 -0.468477
3203 6.16135 -8.09481 -9.19038 -2.35109 1.50552 2.31067
6889 6.2842 -9.16634 -8.51369 1.12069 -1.85079 1.71049
1041 5.40629 -8.83467 -7.9642 1.68197 -0.772663 0.409372
3726 6.96614 -8.50856 -8.27296 1.05089 -0.49142 2.51476
2913 7.28596 -9.21721 -9.27096 1.69099 1.25718 -1.72957
4312 7.9169 -8.86916 -8.18175 -1.67958 1.84148 0.0227863
98 8.02749 -8.28715 -9.15438 -0.208549 0.404793 0.933072
102 7.09112 -8.35936 -9.50941 -1.23034 -2.45726 0.433224
93 9.41185 -9.41737 -8.81591 -2.10249 1.77844 -0.0880224
3312 8.80875 -8.45689 -8.47633 1.04078 -0.175233 1.3467
630 -9.27309 -7.06595 -8.77991 -3.08533 -0.688635 -2.43766
3307 -8.91304 -7.5643 -8.02438 0.122751 -0.255425 -1.30598
83 -8.05007 -7.19899 -8.11568 0.00602092 -1.24455 0.728853
3224 -7.96205 -6.82225 -9.34105 -0.571917 -0.518419 0.00871983
3944 -7.50144 -7.69966 -9.00433 -1.67114 -1.30829 1.17154
192 -6.71683 -7.12836 -8.7997 1.22695 -1.75598 -1.8032
160 -7.16546 -7.68615 -8.05992 0.354908 0.700734 0.602928
408 -5.82776 -6.76126 -8.35897 0.882657 0.713699 -0.51515
4240 -5.36815 -7.59557 -9.00786 0.427112 -3.42086 -0.119193
3178 -5.56977 -6.7554 -9.37713 1.7297 1.37573 -0.138074
631 -4.94137 -7.18342 -8.2367 0.995839 -2.05053 0.465119
2891 -4.28757 -7.22054 -9.20696 0.502731 0.777112 0.242217
3243 -3.3176 -7.30002 -8.57005 0.284725 1.57658 -0.281855
116 -2.3307 -6.8401 -8.58837 -0.373974 -0.268292 -0.687842
14 -3.03705 -6.81163 -9.37821 -1.08282 -0.843967 -0.0891325
66 -2.49139 -7.67503 -9.23391 0.465265 0.310914 -0.301727
938 -1.25809 -6.92612 -8.33419 1.00675 -0.156026 -0.794093
124 -1.53505 -7.24141 -9.30894 -1.87276 2.00456 1.23955
2961 -0.907294 -6.51027 -9.3618 -2.27802 -1.79329 3.05148
365 -0.478434 -7.2702 -8.92318 0.7003 -1.67069 1.5953
2620 -0.215817 -7.90457 -8.03626 0.951848 2.48337 3.77735
985 0.226956 -6.62844 -9.08816 0.878311 0.515097 -0.750032
3252 0.445098 -7.04289 -8.15284 1.36993 0.394551 -0.096531
128 2.12817 -7.59518 -9.21218 -0.646895 -0.793809 -0.683011
2908 1.58787 -6.72213 -9.07815 0.824602 0.96728 -2.3579
230 0.810379 -7.46557 -8.94875 0.399167 -0.611964 -0.311778
3295 1.6347 -7.61933 -8.26708 0.716809 -0.15442 0.960079
466 2.07608 -6.805 -7.99095 -2.24445 -0.271261 -1.50197
370 3.14102 -7.7617 -8.88646 2.1917 1.28226 -0.751354
3063 2.86885 -7.31959 -7.93801 -0.730515 1.41237 0.693775
659 2.85937 -6.62928 -8.62126 -0.908816 0.801787 -1.53434
187 3.31581 -6.82249 -9.48929 -1.58049 -0.921503 -2.96151
36 4.96078 -7.68609 -8.54027 -2.42005 1.22019 -2.44598
509 3.95034 -6.98921 -8.69484 -2.77648 1.75464 -0.401865
3202 4.93211 -6.6375 -8.9937 -1.16028 0.567002 -0.251884
1190 3.83068 -7.88817 -8.03295 0.313149 1.84915 -2.13192
662 4.50802 -6.65318 -7.98244 -0.178666 -2.50279 0.103311
3308 5.84592 -7.17422 -8.9198 0.193459 -1.51719 0.501292
2963 6.43406 -6.92472 -8.10487 1.42144 0.503555 2.86768
4024 6.0452 -7.92687 -8.17943 0.965148 0.487414 3.73046
898 7.068 -7.64078 -8.64636 0.632564 1.93605 -1.94404
3399 6.97388 -6.70609 -8.94268 -0.0983771 -0.0369623 1.08153
3264 8.01419 -7.64955 -8.16582 -0.577966 0.598931 -2.37588
2921 7.83356 -6.58209 -8.05161 2.33531 1.23688 -0.267192
3115 7.68383 -7.10703 -9.35268 -1.74637 -0.627043 2.23294
2640 8.57218 -7.3782 -8.95423 2.13964 0.959867 -1.14951
60 8.91425 -6.60117 -8.39797 -2.39417 2.53449 0.224478
3212 9.14691 -7.52606 -8.07028 0.733475 -1.13816 -2.62014
729 -8.49932 -6.23839 -8.49892 -0.745323 1.80308 -0.627723
2978 -8.06741 -5.15411 -9.18 1.21942 -0.120808 1.12206
3324 -8.67779 -4.84423 -8.38191 2.4939 -1.4102 0.99251
237 -7.86686 -5.51572 -8.24151 -2.0276 2.33728 0.981088
295 -6.96441 -5.23108 -8.83972 0.62616 -0.885854 1.63226
61 -7.25128 -6.2858 -8.99611 1.06746 -0.0664093 1.90338
193 -6.37685 -5.96813 -8.61214 2.30122 -1.83266 2.04523
3222 -5.5272 -5.45093 -9.11434 0.987279 3.12083 0.848917
637 -5.92654 -5.24352 -8.03787 1.74548 -1.40006 0.244672
393 -4.8388 -6.12496 -8.88149 0.65724 0.407057 -1.38793
748 -3.80222 -6.04676 -9.42262 1.14499 -0.559503 -0.111056
453 -4.06454 -5.04046 -8.26772 -0.0610711 0.0243138 -3.03504
3942 -4.03251 -6.08832 -8.3293 -0.472779 0.335658 -2.88613
3285 -2.64964 -5.76115 -9.31835 0.675078 0.176463 0.0438017
399 -3.11839 -6.24786 -8.34734 -0.680798 0.6566 0.933332
734 -3.29329 -5.12308 -8.90069 0.28747 1.55895 -3.20021
874 -2.35889 -5.43629 -8.4066 0.824777 -1.77101 0.412548
3382 -1.57809 -6.11215 -8.64886 0.675538 -0.0669706 -0.186113
3244 -1.25776 -5.07354 -8.7355 0.0512509 -0.156212 1.95264
507 -0.464356 -5.76163 -7.93879 0.544743 2.26777 -0.302933
3381 0.319854 -5.11029 -8.94976 1.45245 -0.797978 2.4584
3377 -0.609322 -5.74234 -8.97469 -0.652712 -0.513195 0.370867
228 0.321646 -6.03387 -8.37261 1.8823 -0.144361 0.618295
1189 1.22431 -6.15444 -8.01609 -1.4145 1.79533 -1.18854
3192 1.14888 -5.82782 -9.13154 -0.549604 -1.07583 1.34503
3194 2.04045 -5.82874 -8.5443 -2.01701 2.57037 -0.326018
3331 0.782738 -5.22964 -8.10251 -0.358071 1.27932 -1.16499
424 3.13973 -5.28643 -9.32905 0.93469 -0.840347 0.249061
464 2.99253 -5.47076 -8.37289 0.343844 -0.467992 0.905738
799 2.35041 -4.8701 -8.84661 1.47077 1.43587 -0.356305
127 3.52966 -6.27398 -7.97948 -2.41555 0.61012 -1.84998
275 2.38854 -6.15833 -9.3461 -0.117743 2.51635 -1.51801
697 3.9127 -6.02058 -9.12383 -1.24729 -0.380808 0.940437
3065 5.07088 -5.07467 -9.3266 0.450967 -0.340251 1.89484
86 4.05567 -5.13991 -8.73326 0.0914008 0.106597 -1.66354
2823 4.75977 -5.84876 -8.46898 1.97563 1.45124 -0.96754
708 5.19399 -5.16704 -7.94731 -1.11659 0.786124 0.663014
3539 5.88313 -5.1145 -8.78174 1.98615 1.17708 -0.544394
3249 6.55385 -5.7466 -9.09545 0.375693 0.561711 0.271954
3294 5.80544 -6.24951 -8.55937 -1.75278 0.656648 0.788657
42 6.70502 -5.95324 -7.99191 0.0689402 1.90528 0.736884
147 7.54056 -5.7576 -8.61123 0.158704 1.06511 -1.92476
557 7.71781 -4.91625 -7.98119 -1.70081 -0.913504 0.986626
754 6.94704 -4.98255 -8.63618 1.42972 -0.653945 -2.84496
3210 7.6824 -5.17823 -9.36878 -1.16877 1.97964 -0.104065
3354 8.49604 -6.08613 -9.17902 1.67134 0.626029 -2.20834
813 8.51589 -5.77436 -7.99763 -2.66693 -1.39814 -1.28485
2739 9.37981 -5.23424 -8.71451 -0.00549048 2.73608 0.489005
2740 8.38483 -4.99102 -8.69906 0.63219 1.66404 0.00238058
2639 9.47227 -6.24247 -9.29075 2.05619 0.787886 -2.63531
146 -9.32852 -3.46198 -9.2341 -0.435966 0.55484 0.855529
3355 -8.79071 -3.41333 -8.43416 -0.963604 -0.631264 -0.0149746
3268 -9.47054 -4.21215 -8.28751 1.54653 2.11683 1.96082
434 -8.50228 -4.17701 -9.24643 -1.02858 1.4203 0.268883
94 -7.46856 -4.44734 -8.83201 0.414671 -2.25058 -0.717776
294 -6.83796 -3.94084 -8.32703 -0.683461 -0.78024 0.773318
6627 -7.96786 -3.34789 -8.94708 0.879544 0.93063 -1.79455
4333 -7.85989 -3.66482 -8.06786 1.07287 0.578849 -1.594
728 -6.72758 -3.8936 -9.33601 -0.757617 -0.532769 -0.801358
3319 -6.16268 -4.69333 -8.88224 1.88088 -0.908059 -0.535015
817 -5.67762 -3.88031 -8.53227 -2.57026 -0.412619 1.02124
443 -4.27469 -4.29871 -8.99133 2.60346 -0.0445952 -0.727138
1069 -4.84951 -3.28821 -8.60373 -1.71763 1.77934 0.709519
235 -3.93397 -3.20244 -9.03828 -1.96078 -1.26293 0.894223
770 -5.08559 -4.74373 -8.45409 1.22872 1.45386 -0.223577
402 -2.63649 -4.47419 -8.49134 0.348989 1.05114 0.857801
126 -2.46017 -4.61567 -9.44313 -0.223873 1.0437 -1.10286
2804 -2.50818 -3.24344 -8.11427 0.0983772 1.00376 0.222243
3034 -2.95128 -3.65124 -9.49956 -0.915065 -0.921314 0.578329
831 -3.38639 -3.90282 -8.31039 -0.0522677 0.85067 0.00771528
220 -2.19851 -3.18938 -9.20645 -0.945632 0.749089 1.32829
2999 -1.66954 -4.10216 -8.51053 0.752278 0.021529 2.43988
922 -1.20098 -3.3346 -9.17008 -0.920705 0.800218 -0.75211
206 -0.620005 -4.30296 -8.73115 -1.73598 2.55805 1.32777
213 -0.33057 -3.50572 -8.17924 1.0552 -0.274363 1.37279
1095 0.522175 -4.14715 -8.82426 2.40416 0.263371 1.13394
460 0.646724 -3.17494 -8.40287 2.08947 0.334027 2.28665
3398 1.36666 -4.64016 -8.89386 2.49252 -2.46752 -2.59967
273 1.46825 -3.74901 -8.27802 1.12347 -0.759427 0.544072
749 2.1131 -4.10451 -9.36961 -0.125423 0.23488 0.226915
133 2.55182 -3.86 -8.5722 -0.713235 -1.7663 2.27377
3159 3.51841 -3.45369 -8.67644 0.629794 1.1261 0.971492
1083 3.24291 -4.51649 -8.3356 -2.00426 -0.25099 1.84157
75 3.24086 -4.22708 -9.44025 -0.755962 1.46988 1.35455
3395 4.58757 -3.44815 -8.86347 0.213499 0.919811 -0.0516094
130 4.86073 -4.317 -8.54825 1.21427 -0.0107842 0.652102
3386 4.18134 -4.31797 -9.31482 0.226671 0.329855 1.28914
3154 5.74328 -4.02324 -8.50982 0.00235464 0.284409 0.845763
808 5.14473 -3.43691 -7.98842 -1.55224 0.194628 1.3801
284 7.72543 -3.47515 -9.22678 0.169979 -2.20666 1.25197
522 7.66655 -4.29424 -8.79243 0.296607 -1.02737 -0.433988
520 6.72862 -4.13477 -8.03034 -1.27026 -0.0930922 -2.46417
2534 6.75964 -3.98553 -9.2178 -1.8991 1.27998 2.70834
3164 7.69084 -3.57312 -8.24759 1.3769 0.143622 2.06351
6661 9.33351 -3.21114 -8.27588 -1.77643 -0.444408 -0.0445976
3267 9.34491 -4.31264 -9.31086 -1.60669 1.09576 -0.187752
3453 8.65493 -3.656 -8.97421 0.607788 -0.499173 0.126644
3314 -8.98197 -1.8104 -8.36251 -1.23775 0.16742 -2.52044
3791 -8.4309 -2.5765 -9.2352 -2.09494 -0.0731628 -1.05377
819 -8.09278 -1.65887 -8.96589 -1.31718 -2.2142 -1.65798
853 -9.0557 -1.75333 -9.43643 1.23919 2.29756 1.19661
1063 -8.12636 -2.36708 -8.2059 0.873356 -0.995804 -2.49114
774 -7.23029 -2.59206 -8.724 -1.49943 -0.240313 0.676985
3520 -7.20176 -1.70726 -8.28523 1.2699 0.101163 -0.0752763
816 -6.34625 -3.02063 -9.05908 0.252535 -1.17783 -0.581356
2800 -5.41076 -1.73039 -9.29917 -1.44599 -1.5726 -0.0758745
288 -6.23232 -2.07277 -8.61775 0.546921 0.369557 -2.65459
542 -5.3689 -2.37368 -8.49759 0.648605 0.0133209 2.72919
394 -6.13979 -3.16272 -8.05025 0.438624 -3.9139 -0.0997534
726 -5.47715 -2.97164 -9.51294 -1.51109 -1.2445 -1.28017
162 -6.55614 -2.08505 -9.50166 0.553739 0.361446 2.17052
342 -3.7749 -1.90186 -9.35696 -0.0177356 0.136094 -0.166665
498 -4.15349 -2.43512 -8.42124 0.756092 0.947457 2.39677
3410 -4.68029 -2.46475 -9.27227 -0.627885 1.53499 1.24463
450 -3.07729 -2.85602 -8.82631 0.130311 -1.04973 0.359428
250 -2.90541 -1.69793 -8.86152 1.18682 -1.5676 2.07277
1033 -2.08736 -2.20455 -9.42617 -1.82031 0.489314 -1.72544
547 -1.47571 -2.45205 -8.70541 0.981782 0.271654 1.68555
3329 -1.02436 -1.69564 -8.1115 -0.378498 -0.766848 2.01628
3436 -0.313529 -2.70144 -8.92812 -0.925309 -2.71151 -0.470509
175 0.653541 -2.15512 -8.73227 -1.30703 -0.478549 -1.14428
3431 -0.244272 -1.68273 -8.90796 0.839316 1.50822 -1.53754
6653 0.40794 -3.15124 -9.36128 -0.822102 -0.334397 1.09252
176 -0.216556 -2.52577 -8.01329 -1.53074 0.913809 -1.89179
3384 1.91028 -2.06918 -9.21737 -0.686941 -1.3179 -0.945469
3340 1.78335 -3.12905 -8.95883 3.23605 3.1223 -0.237152
555 1.45028 -2.38186 -8.23413 0.709139 -1.55804 -1.15281
454 2.61029 -2.54329 -8.62039 -0.0895711 0.207922 -1.4745
3782 3.42696 -2.23351 -8.00956 0.253719 -1.38215 0.780508
3348 2.88645 -2.96088 -9.47676 1.55865 1.45234 1.70108
3829 4.72864 -2.35557 -8.54164 1.42202 1.30889 0.995388
2293 3.8266 -2.6173 -9.15897 0.869152 -2.13127 0.0253833
171 3.70743 -1.67355 -8.74399 -0.377229 -1.73249 -0.863484
2769 5.4527 -2.94675 -9.01644 -1.27131 -2.48371 -1.22326
1382 5.253 -1.71674 -9.10417 -1.66311 1.36352 -0.230593
3016 6.00952 -2.30265 -8.48457 -0.564347 0.402978 -0.95522
6669 7.52982 -2.45144 -8.68602 1.72938 -3.47868 -1.31181
3449 6.76188 -1.90361 -8.03548 1.52933 1.54616 0.973138
3407 6.78353 -3.08083 -8.73355 1.31847 -0.913218 -1.2538
6376 6.87006 -2.06662 -9.46695 0.814381 -1.78934 1.24328
527 9.45058 -2.45008 -8.81195 0.642618 -3.15638 1.75397
3496 8.06165 -1.62799 -8.80506 -0.683844 -0.609801 -0.126657
197 8.52703 -2.64301 -8.30299 -0.274399 -1.67826 0.149044
6625 8.56476 -2.85345 -9.38196 1.99335 -1.78581 -1.80353
4082 -9.42975 -0.851817 -8.20143 -0.322988 1.26867 0.16465
3798 -8.62925 -0.712059 -8.81067 -3.24704 -1.08272 -0.833719
3848 -8.76473 -0.156591 -8.00411 0.379603 -1.3613 -0.149908
200 -7.32203 -0.292099 -8.04076 -2.42232 0.473644 0.493131
6338 -6.9381 -1.16334 -8.99851 -0.423282 -0.3833 0.0411908
3424 -7.76483 -0.632831 -9.36203 1.18614 -0.629262 0.357015
3753 -6.99284 -0.0679713 -9.05913 0.526145 2.82834 2.43354
4138 -7.93946 -0.97534 -8.0974 -0.873252 -0.56486 -0.48584
824 -5.98089 -0.889037 -9.31912 1.91329 2.99406 0.899763
1070 -6.37467 -0.493422 -8.38792 1.74885 2.79205 -1.08196
3761 -5.75493 -1.2671 -8.42979 0.892766 -0.0309452 -0.325455
4375 -5.35962 -0.122341 -8.38662 0.163325 -2.93875 1.64294
3803 -4.58056 -1.56664 -8.76093 3.61684 0.531991 0.223127
255 -3.86414 -0.75458 -9.44134 -0.529095 -1.20594 0.340766
4094 -4.37873 -0.745504 -8.18124 -0.412043 -1.05158 -1.00991
446 -5.04462 -0.72067 -9.02307 1.97139 1.39839 -1.07872
3808 -2.43801 -0.609478 -8.24017 -1.45226 3.16837 1.16499
3759 -3.37981 -0.874505 -8.41962 0.797869 0.710644 0.174692
4141 -3.02533 -0.467354 -9.43861 0.531651 0.410604 -0.0602711
6645 -2.17818 -0.98651 -9.4102 0.753539 -0.0867271 1.24897
3378 -1.60897 -0.427392 -8.83957 2.99338 -1.51114 0.283418
3334 -1.97503 -1.43307 -8.4758 -0.329469 0.213674 -1.33161
261 -0.790526 -0.561472 -8.18568 0.923507 2.26804 2.11523
4347 -1.25779 -1.3186 -9.13044 0.782233 0.460133 -0.661201
4053 -0.605454 -0.631887 -9.13662 1.28612 -1.66097 -2.20475
3864 0.231888 -0.480723 -8.53766 0.546273 -0.515713 -1.45739
3536 1.17574 -0.415102 -8.73855 0.330195 -0.592195 -0.313977
214 1.0547 -1.4549 -9.38483 1.23159 0.0725825 1.1879
3783 1.73288 -1.26022 -8.59484 0.799774 -1.11945 1.06136
840 0.73571 -1.28809 -8.28041 0.246901 -2.49693 1.21223
265 2.7261 -1.46809 -8.70288 1.97409 -1.22222 -1.52736
805 2.56594 -0.451453 -8.61437 -0.599449 -2.32845 -0.992674
4065 3.56308 -0.31722 -8.60841 -0.980881 -0.0654268 -0.601209
807 3.44468 -1.18018 -7.97857 0.815427 1.79865 -1.77724
3490 3.09476 -0.89799 -9.4562 -1.21746 0.439231 1.73502
3877 4.66729 -0.539662 -8.80292 0.962305 1.53062 1.20256
6660 4.10782 -0.787221 -9.50153 0.461782 1.13839 0.211159
3385 4.67872 -1.34286 -8.39221 0.118712 0.444244 -1.0493
226 5.47097 -1.50491 -7.96287 0.94854 2.15556 0.75335
768 5.87461 -0.460169 -8.8057 4.22014 -0.571357 -2.1885
3529 6.34304 -1.00534 -8.05479 -2.29857 -2.35939 0.0597856
3538 6.17443 -1.40274 -9.25325 -1.37906 0.104275 2.15328
3445 7.04515 -1.20777 -8.76571 2.41753 1.89547 1.34193
3447 7.8277 -0.618379 -8.7703 -1.34371 -2.76223 1.72161
6756 7.01686 -0.448891 -9.4926 1.92399 1.98427 1.06344
3507 6.84309 -0.223815 -8.18335 0.302652 -0.451221 -1.86529
278 8.43794 -0.132162 -9.30623 -1.45753 0.921613 1.45705
3799 9.12901 -1.53029 -8.68214 2.32396 0.716969 -0.47912
232 8.46834 -0.956233 -8.07296 0.560364 0.225928 3.65387
3408 9.01317 -0.108104 -8.52606 -0.387881 -0.393125 -0.194995
4277 -9.43635 -8.22797 -7.42032 -1.63957 0.584886 -0.372501
957 -9.31802 -8.62417 -6.47542 1.29054 -2.15107 0.678621
3265 -8.89202 -9.13261 -7.19137 0.691304 0.666937 0.583502
683 -7.86332 -8.69305 -6.8655 0.907907 -0.606341 2.94582
298 -7.07373 -8.21073 -7.19785 2.05669 0.782239 -0.140044
433 -6.91517 -9.04227 -6.57545 0.576073 1.75481 -1.48118
3992 -7.45218 -9.33051 -7.62999 0.594838 1.47355 -0.689809
591 -5.96632 -9.46274 -6.72955 0.692809 2.11338 -3.61346
347 -6.42699 -8.72561 -7.81092 -0.897858 -0.16682 -1.22805
4266 -5.71461 -8.54416 -7.14249 -0.603558 1.37416 -0.346757
4273 -4.99762 -9.25343 -7.0641 0.175919 -0.931151 1.25582
58 -3.99021 -9.30066 -7.29917 0.207341 -2.2935 1.68688
396 -4.44044 -8.55165 -6.92174 0.439293 -1.10044 0.570509
3282 -2.50381 -8.92774 -7.83887 -0.140306 0.963886 0.664124
689 -3.55102 -7.94459 -7.74794 0.274885 -0.254119 1.93617
406 -3.00668 -9.31168 -7.07117 -1.5198 -0.149917 1.15824
316 -2.70714 -8.13976 -7.01774 -0.750285 0.619731 -1.15848
3986 -3.56765 -8.53699 -6.61355 -1.28711 1.26424 -3.86142
4016 -0.872763 -8.59707 -7.26788 1.0286 0.599234 0.62191
24 -1.76896 -8.56735 -6.44609 1.13117 0.312143 -1.69683
3713 -1.76006 -9.3033 -7.10386 0.303636 0.851674 0.602781
4580 -0.780822 -9.1205 -6.40025 -0.391399 -0.670729 -1.31685
685 -1.79713 -8.22485 -7.46606 -1.48869 0.040622 0.84354
751 0.0635508 -8.40292 -6.94278 0.742404 -1.20101 0.0831276
803 1.99771 -8.25492 -7.46343 1.30035 -0.691296 1.54785
3047 0.734303 -9.04043 -7.25974 -0.741617 2.04858 -2.11893
317 1.8427 -8.98632 -6.76698 -0.0455045 -0.976689 -3.64689
315 1.48405 -8.02316 -6.66674 1.99135 1.91856 -3.65466
4584 1.83996 -9.14964 -7.80041 -0.827721 -1.76291 -2.92957
4006 0.735803 -8.04668 -7.83135 0.944011 1.65973 -0.122801
3011 2.91139 -8.71573 -6.83838 -0.379347 -2.22383 -0.437189
4216 3.01025 -8.39605 -7.87137 1.68981 -1.13228 -3.08096
704 2.91601 -9.41631 -7.67236 -1.18645 0.125853 -0.493428
469 4.17734 -8.12556 -6.53056 0.280755 0.437498 1.33281
3200 4.14731 -8.7386 -7.57418 1.24233 0.844333 -0.646098
289 4.71199 -9.074 -6.86843 0.573632 -1.25753 -2.67848
994 5.41004 -8.25916 -6.89652 0.65806 -0.463963 1.49398
474 5.54439 -9.13622 -6.45879 -0.472208 0.147307 1.2545
3731 6.46632 -8.85354 -7.43548 0.215776 1.22805 -2.08304
1482 6.54382 -9.47946 -6.48678 2.28513 2.34469 0.507752
430 7.44215 -7.96154 -7.4793 1.48984 0.703059 0.334816
376 6.9999 -8.33285 -6.65465 -0.215684 -1.55222 -1.81042
38 7.64104 -8.92953 -7.1925 0.119262 -0.245018 -1.60131
382 9.1536 -9.02786 -7.56603 0.606461 0.393864 -0.14743
4027 8.5187 -8.3139 -7.49873 0.32538 1.56316 -0.633628
4893 8.24589 -8.65434 -6.53207 -0.395877 -0.902671 -2.75588
4560 9.04881 -9.3718 -6.59256 1.11174 1.00133 1.53889
3368 -8.543 -6.92393 -7.21765 -2.55263 0.203378 -0.0497564
378 -9.29383 -6.55178 -7.84384 -1.55658 1.14993 0.0982862
300 -9.43238 -7.24976 -7.0061 1.04879 -1.2258 1.45088
3702 -7.57034 -7.32439 -7.22302 0.540209 -1.37227 1.11401
194 -6.99938 -6.54009 -6.69301 1.42309 2.24712 -1.44683
103 -7.42683 -6.48525 -7.77771 -1.79556 -1.69149 -0.338184
583 -6.52605 -7.13134 -7.66454 -1.85787 0.849756 -0.115909
584 -5.55214 -7.75671 -7.66747 -1.98155 -0.97812 -1.35219
3710 -5.83471 -6.68057 -6.9851 4.57573 -2.59923 -1.30253
1058 -6.37718 -7.33524 -6.52497 0.72495 -0.603515 -0.0342444
4861 -4.4829 -7.7031 -7.58569 0.551242 0.571889 1.61235
684 -4.83323 -6.91684 -7.049 2.51905 -1.97745 0.532551
600 -3.98565 -6.87043 -7.75719 -0.433049 0.731195 -2.99585
1170 -4.98105 -7.82685 -6.457 1.70896 -0.761935 0.48917
2648 -2.91756 -6.95915 -7.57326 -1.37566 2.54571 -1.28211
4764 -3.53623 -7.45327 -6.89399 0.408477 -1.47013 -0.122343
741 -2.52588 -6.6729 -6.67219 -0.612961 -1.10781 2.29097
3663 -0.93439 -7.63243 -7.3501 -0.808387 -2.08708 0.975017
753 -1.84766 -6.91022 -7.58005 -0.661276 -0.401049 -1.5355
6881 -1.87345 -7.57725 -6.68935 -0.959236 0.256991 1.22197
936 -1.15746 -6.38308 -6.97934 2.97998 -0.42254 0.371113
2702 -0.472419 -6.83391 -7.80316 -0.17704 1.43834 -0.778666
1082 0.288418 -6.4683 -7.41986 -1.71386 -0.794102 0.917992
455 -0.18648 -7.21309 -6.84229 -2.12232 1.67243 2.42918
416 0.810747 -7.39324 -7.09065 1.36394 -1.59944 -1.41305
63 1.47634 -6.57356 -7.22819 0.732528 2.63123 -1.29446
4252 2.29643 -7.36896 -7.16539 -1.15938 -0.15605 0.787983
182 2.9481 -6.56541 -7.17162 -1.29876 0.361312 -0.12358
616 3.29845 -7.70612 -7.05654 1.47618 1.37606 -1.17907
80 3.96459 -6.99365 -7.26419 1.34918 3.39321 -0.492934
613 4.75314 -7.69599 -7.42374 1.01108 -0.500058 -0.770301
570 4.81707 -6.61544 -6.73906 1.10064 1.41241 2.20949
136 5.5697 -7.2093 -7.47983 2.70289 2.27034 0.26497
991 5.68222 -7.089 -6.38281 0.0538172 1.82404 1.24392
1629 6.43159 -7.77337 -7.20096 -2.58814 -0.120658 0.714464
280 6.36732 -6.66915 -7.11218 0.765422 -0.454591 1.75106
34 7.16333 -7.01385 -7.45152 -1.14368 -1.60646 -0.0686545
529 7.84054 -7.77354 -6.45742 -2.31762 1.0451 -0.794843
1054 7.6203 -6.54584 -6.70624 2.06701 0.903389 1.38996
2971 9.03415 -7.79528 -6.46957 1.33973 2.19167 0.302899
3311 8.50853 -7.2275 -7.34079 1.94805 2.01708 1.71256
139 -9.03107 -6.05095 -6.80822 0.215108 1.3451 1.75664
191 -8.73409 -4.97583 -7.25678 1.2795 -0.526422 -1.2594
2944 -8.35159 -6.09529 -7.55151 0.772893 0.793327 2.8266
4288 -9.38298 -5.51285 -7.81993 -1.35481 -1.71525 0.0130085
3184 -7.08582 -5.44922 -7.84295 -0.00615347 -0.905171 0.295974
875 -7.60649 -5.51993 -7.05476 -0.316375 -0.534552 -0.282805
68 -6.79991 -4.87507 -7.11952 -1.08294 -2.00855 0.549049
2930 -6.29052 -5.7586 -7.14463 -2.56351 0.30193 0.996637
880 -5.65903 -4.83905 -6.97471 1.15071 -1.70208 0.962103
1079 -5.33069 -5.95945 -6.66044 1.69319 1.82644 1.0924
1542 -5.05292 -6.12709 -7.717 0.604907 0.494318 1.84057
642 -4.6016 -5.1873 -7.3926 -0.855756 0.613225 0.0860458
503 -3.67573 -4.89679 -6.97263 -0.496864 0.84943 1.86283
441 -4.29823 -6.21093 -6.70318 -0.06755 0.253916 0.8876
3226 -3.16776 -5.35578 -7.78614 0.345727 -1.08694 -0.89348
881 -3.57646 -6.0573 -7.31619 0.0778975 0.851468 -0.564184
3998 -2.3684 -6.04012 -7.69083 0.0278866 2.61976 -1.61829
452 -2.76881 -5.40634 -6.90004 0.416338 1.88616 -1.55729
123 -1.39445 -5.79282 -7.68784 0.18426 0.903596 0.078155
884 -1.93095 -5.90558 -6.79963 0.355026 1.47268 0.497872
605 -0.747958 -5.44896 -6.7982 -1.55136 1.06067 0.91848
700 -1.91869 -4.86809 -7.79416 0.159148 0.154447 1.51186
3052 -0.944434 -4.80218 -7.9032 -0.0340143 -1.80668 1.80813
169 -0.230666 -6.20638 -6.52763 0.530002 1.82525 -1.81528
3767 0.231458 -5.5024 -7.35121 -0.766833 0.776458 -0.157211
462 0.225394 -5.21862 -6.42675 0.109045 0.668691 -1.74028
221 1.53682 -5.6162 -7.07974 1.58868 0.89672 -2.01949
833 0.82109 -6.31716 -6.57886 1.40523 3.15355 1.13018
122 2.29316 -5.70915 -7.58245 -1.86429 -2.81169 1.56285
267 2.38683 -4.99379 -6.87136 0.565813 -0.109939 -1.52289
174 3.28853 -5.56553 -7.1681 1.84784 0.407694 0.530055
322 4.42052 -5.77723 -7.46537 1.0568 0.937415 0.393765
699 3.94673 -6.13508 -6.7811 -0.318587 -1.39934 -1.32248
1094 4.23551 -5.15092 -6.51355 -0.297392 0.293832 1.84563
473 4.18227 -4.86244 -7.7153 1.04679 -1.50669 -1.44117
3397 5.44518 -6.15623 -7.39063 0.320004 1.2584 -1.88113
414 5.14225 -5.40456 -6.71358 0.322411 -1.47436 0.272005
482 6.17696 -5.0632 -7.87532 3.9265 -0.34442 -0.441286
532 6.39177 -5.64906 -6.88433 0.82719 0.296408 0.869874
2689 7.56646 -5.78091 -7.29097 0.645803 -0.263376 -1.01186
3353 7.00238 -4.86992 -7.04396 -2.1116 1.31679 0.891216
3173 9.05271 -6.31259 -7.10866 -2.11703 -0.0690583 -0.954354
727 8.33795 -4.9307 -6.84216 0.488718 -1.13618 1.5383
667 8.42122 -5.77751 -6.44863 -0.684599 -0.618833 -1.26563
428 9.41927 -5.27298 -6.67304 0.476787 -1.72576 0.560538
227 8.9973 -4.82458 -7.61343 1.80224 0.640766 0.872926
869 -8.64029 -3.85855 -7.51543 -0.810852 0.302899 -0.741734
3032 -9.11001 -3.31207 -6.69312 2.39087 0.312907 -2.32622
144 -9.41805 -4.20315 -7.00406 -1.06552 -0.652135 0.771735
924 -8.00392 -4.15976 -6.56327 -0.94364 3.33605 -0.798388
437 -7.90922 -4.62295 -7.56631 -0.775391 -0.51189 1.32001
479 -7.11911 -3.82361 -7.14172 1.4423 -1.18915 -0.543593
1553 -6.15846 -4.10943 -6.4555 0.470186 -0.542017 0.463986
385 -6.09128 -4.1489 -7.73471 0.250716 1.32533 -1.16241
3790 -5.48483 -3.29997 -6.94568 -0.632783 -1.27482 0.57293
2996 -4.00742 -3.22926 -7.91009 -0.378778 -0.413295 3.69884
74 -4.66703 -4.35908 -6.76567 -0.746598 -1.48925 -1.41603
531 -5.05297 -4.01049 -7.797 -0.112004 -1.04117 -1.29563
1013 -4.0043 -4.1861 -7.52367 0.402296 -0.58592 0.797266
390 -4.36742 -3.4356 -6.82344 -0.10441 0.265405 0.050875
688 -2.75999 -4.28793 -6.49662 -1.29634 3.11368 1.46977
1019 -3.07383 -3.4879 -7.32087 -0.0655246 -2.15203 0.334731
502 -2.97613 -4.48063 -7.41313 1.16756 -2.42045 1.02618
500 -3.26361 -3.32659 -6.40364 -0.328066 0.730605 -0.338726
793 -1.19833 -3.93185 -7.66055 -0.469415 -1.33455 0.134691
457 -2.12109 -3.96432 -7.23106 0.491091 -1.09303 -0.154915
463 -1.15385 -4.54037 -6.88842 -3.70243 -0.55195 -0.685733
417 -1.31219 -3.34132 -6.80897 0.55508 1.23684 2.98826
3300 -0.00957024 -4.74607 -7.87005 1.2158 -2.61997 0.674922
3041 0.639597 -3.66171 -7.45681 0.892199 -1.57296 0.824177
263 -0.150371 -4.34553 -6.97168 1.79553 -1.14448 -0.0570744
512 -0.283248 -3.37429 -7.08393 2.06845 1.48409 2.38979
231 1.81536 -4.76161 -7.80534 2.19875 -1.00422 -2.14077
461 0.883886 -4.73947 -7.06248 -1.07766 -1.845 -1.60077
1272 1.09803 -3.4366 -6.50748 -2.09797 1.49184 0.34437
554 1.6133 -3.9193 -7.25432 0.554061 0.740656 -0.702535
181 2.68162 -3.98681 -7.57016 -1.29241 -0.882173 -2.4949
558 3.61539 -3.41719 -6.93268 -0.0191628 -4.57908 -1.21627
1705 2.61256 -4.10405 -6.40849 0.556263 -0.82619 -0.642395
4636 2.29935 -3.26999 -6.988 -0.926787 -1.45957 -0.0755111
692 3.54725 -4.44346 -7.00998 3.16888 -1.38245 -0.392837
3441 3.92565 -3.94129 -7.85902 1.12281 2.25112 -0.644984
177 4.88456 -4.59173 -7.18531 -0.536483 -1.26024 0.868779
935 4.62007 -3.58458 -7.0312 0.71379 1.31359 -0.467216
3352 6.09362 -3.23488 -7.81504 1.01242 0.916367 -1.58883
3391 5.81213 -4.13111 -7.58715 0.632786 -2.90403 1.75212
372 5.65826 -3.28347 -6.91529 -0.302314 -1.30979 0.680837
185 6.17812 -4.1318 -6.5952 -2.16747 0.367427 -0.209371
523 6.62634 -3.37057 -6.96582 0.69131 -1.41352 -0.609293
384 7.52417 -4.30422 -6.37772 1.0197 0.122958 -0.482483
418 7.54948 -4.05097 -7.32701 2.02028 -0.0111169 -0.119864
4114 7.84407 -3.30524 -6.58819 0.60729 0.720192 -1.03323
3206 8.69157 -3.86007 -7.68532 1.06505 -0.164462 0.846054
392 8.67305 -3.99128 -6.7107 0.710428 -0.527867 -0.337602
677 -8.88654 -2.78866 -7.67796 -0.434544 -0.0863357 -1.78983
809 -8.47646 -2.31393 -6.91897 -2.15684 0.848036 -2.83788
302 -7.2371 -2.95533 -7.77999 1.74449 -0.0784246 2.76407
3754 -7.53769 -2.0974 -7.36392 -0.180644 -1.46581 -0.795245
4562 -7.93678 -3.04098 -7.11707 1.68313 3.06177 0.229204
718 -7.52868 -2.37042 -6.40365 0.79114 1.76982 -0.755661
1151 -6.47728 -2.11626 -7.58328 0.186606 -0.206725 1.04036
3413 -6.47634 -3.05361 -6.80779 0.296447 -0.660311 0.353161
481 -6.40266 -1.82418 -6.39758 0.434887 2.19523 0.530989
164 -5.6413 -2.34268 -7.14644 0.633489 0.934748 0.937967
109 -4.85845 -2.9534 -7.64886 -0.432873 1.26364 1.48195
251 -3.86105 -2.52532 -6.92636 0.890949 0.930058 1.02344
1351 -5.0755 -1.71122 -7.78934 0.66328 2.02726 3.41961
4047 -4.00317 -1.87493 -7.61624 1.59015 -2.09186 0.000625283
3423 -4.79271 -2.18589 -6.66432 1.47956 -1.03211 -0.433792
3383 -3.17528 -2.53301 -7.78597 -0.837788 0.748629 0.191009
737 -2.8941 -2.25472 -6.80979 2.34 -0.251808 -1.82746
6065 -1.28789 -2.97683 -7.83108 -0.236102 -2.35226 3.06162
540 -2.06443 -2.08518 -7.69761 1.7301 -0.85861 1.49523
782 -2.18639 -2.93814 -7.1826 2.08357 -0.479649 -0.952306
738 -1.37029 -2.26903 -6.80683 1.51338 2.16917 -1.1348
838 0.486304 -2.63331 -6.91236 -0.758018 -0.723372 -1.28232
215 -0.476711 -2.09705 -7.14142 0.445047 -0.924393 2.07681
1138 0.614209 -1.9938 -7.59082 -0.215291 0.390922 -1.75584
852 1.99492 -3.03615 -7.90957 0.897699 -0.377136 -0.644224
3145 1.22756 -1.83653 -6.77521 -1.00361 -1.30903 -0.972843
1027 1.40463 -2.84152 -7.12286 1.61058 -0.441548 -0.218844
795 3.01197 -3.10556 -7.87425 0.738944 0.0920108 0.143014
223 2.34088 -1.92091 -7.69808 0.318636 -0.603168 0.108058
514 3.05144 -2.55603 -7.04322 0.471638 1.92173 -0.703431
3451 3.56821 -1.67827 -7.13505 -1.67989 3.28394 -1.0253
1039 2.32704 -2.1517 -6.54853 -1.72022 1.32902 0.967263
3497 4.59656 -1.66764 -7.28298 0.948187 0.147764 -1.20944
3058 4.30228 -2.79818 -7.64738 -4.51149 -0.20771 -0.103638
3491 4.88003 -2.66327 -6.71176 0.688634 -0.87218 -3.13523
3305 5.37706 -2.42422 -7.64765 -2.06805 -1.23667 -0.721906
279 5.60988 -1.91806 -6.62355 1.5319 -2.42536 0.0782366
135 6.38959 -2.46978 -6.89365 4.36083 0.0956017 -2.34115
138 6.94781 -2.81173 -7.76494 -0.252983 -2.18435 -2.1476
572 7.98168 -1.92596 -7.86783 -0.554254 2.14903 -0.866816
236 7.40739 -2.39729 -6.8259 -0.151493 -1.45154 -1.98559
388 7.82899 -2.99996 -7.4808 0.367757 2.67188 1.10838
1147 9.30974 -2.20133 -7.82877 -0.558385 1.40937 1.08089
143 9.19098 -3.12702 -7.30311 -0.531628 0.791602 0.821357
3511 9.49927 -2.21456 -6.90678 0.221612 1.01907 -0.191525
6671 8.50883 -2.4648 -7.0602 -1.81054 0.695672 0.0482424