ITEM: TIMESTEP
103000
ITEM: NUMBER OF ATOMS
6912
ITEM: BOX BOUNDS pp pp pp
-9.5244063118091962e+00 9.5244063118091962e+00
-9.5244063118091962e+00 9.5244063118091962e+00
-9.5244063118091962e+00 9.5244063118091962e+00
ITEM: ATOMS id x y z vx vy vz
290 -8.87486 -8.70483 -7.86813 -1.03584 0.796455 1.65041
2 -9.47682 -8.82144 -8.61496 0.472986 0.313128 0.779464
3 -8.41291 -9.45971 -8.92385 -0.571661 -0.269703 0.440094
8 -7.82135 -8.43378 -8.91459 -0.315068 -0.184909 0.797836
294 -7.18971 -8.48538 -7.94558 2.80871 2.40212 0.324062
1197 7.99494 -9.4982 -3.23278 -0.5293 -0.774637 2.04986
883 -2.54165 -9.54599 -3.83902 1.11926 -2.86422 -0.742474
12 -6.40501 -8.73197 -8.65532 0.682944 -0.695576 -0.200653
59 -5.50647 -8.02202 -8.69985 -0.0553488 -0.854086 1.38258
298 -5.70699 -8.74083 -7.90477 -0.708309 -0.641264 -0.124647
257 -3.04422 -1.54467 -9.41746 -1.59292 2.46487 1.59658
16 -4.67331 -8.80102 -8.857 -0.306187 2.31162 0.741379
277 4.75255 -1.51903 -9.4894 -0.871936 -1.14959 0.231168
302 -4.00725 -8.80147 -8.01655 -1.25106 -1.7753 -1.05126
281 6.33455 -2.01006 -9.44644 -0.62658 -0.473939 -0.280958
20 -3.12486 -8.69875 -8.66719 -1.53722 1.32857 -0.0938556
306 -2.16123 -8.77741 -7.92951 -1.00507 0.732832 -0.848763
579 -8.56891 -9.46092 -5.57156 0.441121 -1.07662 -0.947948
24 -1.90607 -8.56114 -8.91067 0.441278 2.53367 -0.990349
1853 1.80447 -6.55194 -0.0119486 -0.865529 -1.05687 0.437537
1167 -4.14157 -9.31492 -2.25771 0.810904 -1.21782 -0.0327243
357 -1.46126 -7.90832 -7.90258 0.481427 -2.56119 1.84761
28 -0.128734 -8.62981 -8.75444 -2.38154 0.075705 1.87996
314 0.720931 -8.73388 -7.82175 0.866546 0.900309 0.080289
897 2.75863 -9.48064 -4.83927 1.95931 0.772719 -0.935109
32 1.80938 -8.77865 -8.80913 -0.944435 0.91384 3.33306
318 2.33363 -8.85476 -7.81318 -0.424772 -0.05413 -0.941658
36 3.08159 -8.93681 -8.71422 -0.980696 0.440324 1.0043
79 2.27867 -7.86823 -8.87719 2.37198 1.48322 -2.41107
4899 -8.71095 -0.144315 -0.508967 1.21827 0.0765518 -1.24785
40 4.75701 -8.89995 -8.69083 -0.441 -2.71413 1.55851
373 4.81043 -7.98208 -7.97954 1.16019 0.715851 -2.56253
322 3.9702 -8.86214 -7.91047 -1.40171 0.484964 0.351792
148 -9.07103 -4.22904 -9.32932 -0.0660511 0.593087 0.990993
44 6.41635 -8.93468 -8.72066 0.556355 1.17856 1.69404
327 5.49013 -8.92888 -7.77475 -0.731244 -0.331435 0.960389
125 1.52948 -6.24683 -9.41947 1.61652 -0.335061 0.40641
74 0.76263 -6.91368 -9.49694 0.41431 1.45338 -0.775734
48 7.85184 -8.74384 -8.79297 -0.319472 0.0873057 -0.517794
330 7.12449 -8.9061 -7.91479 -2.2225 1.39205 0.880491
381 8.02778 -8.14647 -7.90316 1.14626 0.442402 -1.65948
317 1.46564 -9.49927 -8.10138 -1.85183 -2.23935 2.08905
334 8.86181 -9.10392 -7.88261 -0.2382 -1.17903 -1.27043
51 -8.71381 -8.00027 -8.6779 -0.804168 -0.0609237 -1.21243
337 -9.57471 -7.94228 -8.05908 -2.52065 -0.0820741 0.447452
104 -8.66519 -6.33161 -8.93872 -1.34007 -0.324496 0.160022
341 -7.9911 -7.82331 -7.94294 2.56439 -0.926244 -1.21954
56 -7.89962 -7.298 -8.80765 -1.46958 -1.13652 -1.70187
55 -6.97476 -7.83079 -8.91733 -2.63419 -0.489329 0.527651
1953 3.18788 -3.31773 -0.151762 1.02676 3.0486 0.00480632
342 -7.14518 -7.10083 -7.91417 -0.809666 0.769784 -0.347981
99 -7.93586 -6.39771 -8.17181 1.37771 -2.92905 -0.69206
154 -5.466 -3.28539 -9.43532 1.06979 0.582813 0.401081
60 -6.14563 -7.20819 -8.83768 -0.522776 0.0163993 1.72805
346 -5.40402 -7.13938 -8.1343 -0.931218 0.952336 -0.194018
345 -6.36719 -7.92526 -7.99493 -0.27821 0.941985 -0.304445
63 -3.75844 -7.79875 -9.05403 0.747828 -0.0383312 -2.11686
349 -4.62137 -8.01809 -8.19839 -0.696958 -1.01993 1.14099
64 -4.76956 -7.16526 -8.90904 -1.767 -0.804999 0.441477
111 -3.92763 -6.29009 -8.83321 -0.54452 -1.9092 0.839333
397 -4.7205 -6.30394 -8.07734 -1.04572 -1.52056 -1.33572
350 -4.02587 -7.04562 -7.95255 -1.93909 0.582251 0.760719
67 -2.48595 -7.84731 -8.58078 -0.931514 0.946978 -0.314935
68 -3.2213 -7.12104 -8.71532 0.537476 1.03231 0.42974
354 -2.45438 -6.96471 -7.96468 -1.66447 -0.389609 -0.132866
115 -2.40683 -6.3126 -8.64945 0.428274 0.951565 1.873
4075 7.19909 -0.0570863 -5.37702 0.540041 0.874191 1.79659
71 -0.959955 -7.98868 -8.9419 1.13194 0.404078 -3.19891
72 -1.54773 -7.14812 -8.62314 0.225466 -0.985174 -0.372868
362 0.101805 -7.07469 -8.77914 0.500837 -0.695132 -1.82826
121 -0.15396 -6.39212 -9.47665 -1.83214 0.0744011 0.225045
365 1.50239 -7.98108 -7.81082 2.81644 -1.82013 1.99594
75 0.721373 -7.91101 -8.72475 -0.722388 0.425909 -0.565999
80 1.56009 -7.11554 -8.75846 -1.22892 -0.275086 -1.72858
123 0.72567 -6.29251 -8.53491 0.91186 3.00577 0.186315
84 3.45898 -7.12002 -9.0314 2.30989 -1.80016 0.891435
369 3.167 -8.19425 -8.0132 -1.2234 -1.16568 0.986013
127 2.32276 -6.33445 -8.7565 -2.00146 1.52437 -0.376793
417 3.08244 -6.39442 -8.11586 -0.463657 -1.48272 -0.790332
83 4.04721 -8.0576 -8.56961 1.14283 -1.22728 1.145
88 4.60242 -7.22643 -8.73414 -0.810623 -1.151 0.37427
370 3.67371 -7.33448 -8.01711 -2.15302 -0.360925 0.0986477
131 3.91482 -6.22035 -8.65813 -2.34937 -1.79005 -1.50651
3485 1.58897 -0.0263442 -9.23053 1.17247 -0.132387 -0.8868
194 -7.19 -2.3676 -9.32969 1.79945 1.15937 -2.39898
326 5.50661 -8.06965 -8.66587 0.128379 2.46262 -1.20375
87 6.44047 -7.10515 -8.78272 0.143344 -0.190434 1.48497
374 5.56185 -7.24541 -8.11778 -0.151781 0.814199 -0.184126
135 5.52788 -6.36016 -8.70428 1.86944 -2.451 0.689168
91 7.20454 -8.12784 -8.52918 1.6686 2.51713 1.06606
96 7.96501 -6.98247 -8.72422 0.65186 -0.846036 0.183456
92 7.04555 -6.37335 -8.53067 -0.766013 -0.014887 -0.111593
1153 -9.53579 -9.14656 -3.17534 -1.41121 0.153425 -0.133386
1838 -3.73516 -5.56055 -0.138744 -0.256559 1.07041 -1.06216
95 8.62257 -7.87234 -8.72038 0.643091 0.471994 -3.01793
52 9.42756 -7.07205 -8.74523 0.703798 -2.25531 -0.396053
97 9.50748 -6.19937 -9.50219 -0.185782 -0.12351 -0.61913
382 8.65513 -7.10172 -7.90472 0.858615 -0.418675 0.424194
100 9.467 -5.61057 -8.62166 0.106302 -0.63815 -0.285675
386 -8.79779 -5.75105 -7.93391 0.532355 0.0951956 -1.1412
103 -7.15997 -6.55023 -8.84329 0.212507 -0.0745065 3.28474
2009 6.1832 -1.46921 -0.0226456 1.35805 -1.2828 -0.171443
389 -7.84147 -5.69032 -8.92742 -0.158235 -0.359564 -1.5828
390 -6.7591 -5.70766 -8.75226 2.85712 -0.323746 -2.91679
4609 9.49628 0.00725686 -3.4605 -0.328037 2.64338 -1.45078
107 -5.4644 -6.3641 -9.03796 0.469534 -1.06394 0.16148
108 -5.8574 -5.40875 -9.23263 1.18051 0.707739 1.52842
155 -5.68409 -4.30052 -9.47724 1.1607 2.04552 -0.0823129
270 2.32204 -0.856439 -9.24469 -0.0884427 0.551622 0.151388
112 -4.67151 -5.68014 -9.09297 0.057535 -1.5171 0.807934
50 -8.66001 -7.20314 -9.41736 -0.715189 0.877452 0.202809
210 -2.03128 -2.45085 -9.46319 0.71258 0.796437 0.282901
116 -3.20472 -5.5159 -8.72103 -1.53031 -0.423929 -1.47734
5221 4.66006 -0.093357 -0.0941491 0.740349 -1.81885 -0.437734
401 -3.31772 -6.25175 -7.88419 1.81451 0.176383 -1.49425
76 -0.787975 -6.49035 -8.64823 -0.63267 0.940612 -1.52107
120 -1.56749 -5.72599 -8.82342 -1.94341 -0.394021 1.56375
217 0.176833 -3.13036 -9.40756 1.08599 -0.445015 1.59959
406 -0.7352 -5.29879 -7.88549 -0.673018 0.481248 1.03611
124 0.0211847 -5.50129 -8.67978 -0.408223 -2.12683 -0.765217
409 0.00433273 -6.2044 -7.9022 1.4864 0.539167 1.96971
145 9.48464 -5.15595 -9.49195 -0.835046 -0.0494476 -0.855201
261 -1.56883 -1.3611 -9.3903 0.32939 0.30882 -1.93003
122 1.62637 -5.53912 -8.72708 -0.960982 0.351793 0.448993
171 0.725846 -4.80561 -8.68015 0.812443 -1.18591 1.48779
413 1.55267 -6.49682 -7.96005 -0.295891 0.322201 -0.247495
128 3.09224 -5.58797 -8.77037 -1.21011 1.40228 0.322878
414 2.29168 -5.80438 -7.84951 0.31246 0.00156242 -0.504107
175 2.39432 -4.86079 -8.66392 -1.4602 0.00272479 -2.13506
136 4.8415 -5.48913 -8.63369 -0.470548 0.816874 -0.67781
132 4.15597 -5.43849 -7.75621 -0.592142 -1.58236 -2.35937
179 3.93754 -4.98474 -8.72653 2.65966 -1.17963 -1.12741
469 4.96391 -4.86784 -7.93909 0.767306 -0.544434 -1.40282
169 0.148501 -4.76459 -9.47073 0.470269 -1.08266 0.531185
4321 -9.26186 -0.0723397 -4.66026 -1.08258 -2.84591 1.52505
313 -0.0631869 -9.30143 -7.85244 2.03221 -0.520639 -1.85465
418 6.15898 -5.5211 -8.69732 0.546932 -3.44128 -0.859513
183 5.59996 -4.69149 -8.90901 1.4209 0.513242 0.376205
139 7.04224 -5.58549 -9.25205 1.36327 -0.472953 -0.189762
144 7.80998 -5.7485 -8.45988 0.601769 -1.24982 1.9455
187 6.6636 -4.67308 -8.61132 1.83442 -0.395147 1.40658
4937 6.40894 0.0146483 -1.68602 -0.727465 1.78868 -0.957927
143 8.64626 -6.20741 -8.8774 2.14752 -1.36157 -2.86777
142 8.34245 -5.39869 -9.44326 -0.55042 -0.795209 -0.695904
147 -8.70479 -5.04264 -8.72001 -0.734216 -0.476288 1.91006
152 -8.23244 -4.3193 -8.38065 -0.246947 1.03763 -0.115797
239 9.29664 -4.13925 -8.61899 0.776083 0.0770405 0.421899
151 -7.25227 -4.75591 -8.68339 -1.53845 -1.2561 -0.388534
438 -7.23562 -3.97802 -8.03333 -1.98006 1.0965 0.303075
93 7.85771 -7.85662 -9.3945 0.484191 -0.860672 -1.01537
437 -7.95327 -5.29242 -7.94888 0.0470067 -0.337119 0.967534
4363 7.18635 -0.0268867 -4.01651 -1.97105 1.34131 0.0277707
441 -6.02909 -4.66889 -8.48836 0.929578 -2.32931 1.09199
156 -6.39369 -3.80562 -8.9122 0.669374 -0.187791 -0.431548
203 -5.55108 -2.78781 -8.53512 -1.60043 -1.34178 3.99533
221 1.59802 -3.29483 -9.47492 -2.37573 0.471963 -1.80073
158 -3.87396 -4.45727 -9.17462 -1.77923 1.52618 1.1246
160 -4.72173 -3.76902 -8.98142 -1.14368 -0.330711 1.63566
445 -4.86161 -4.84562 -8.52009 0.216487 -0.646938 -1.26918
1954 4.008 -2.54775 -0.150997 0.26828 0.996279 0.108273
163 -2.376 -4.72039 -8.90573 1.05706 1.60028 -1.46741
164 -3.03015 -3.89452 -8.72949 -1.28728 -1.1782 1.87969
25 -0.186596 -9.49591 -9.37698 1.51913 -0.570624 -0.735694
168 -1.43174 -4.1078 -8.82405 0.094391 -0.757016 -0.0221432
215 -0.687885 -3.16853 -8.60898 2.37837 -1.72123 -0.042415
1198 8.84582 -9.44759 -3.87204 -1.88552 0.774199 -1.16521
501 -1.44233 -3.27939 -7.81851 -0.523486 -1.67902 -1.36292
454 -0.760783 -3.98206 -7.91487 1.61186 2.34567 1.92894
457 0.0481462 -4.7344 -7.94073 2.26338 -0.367724 0.318663
167 -0.896045 -4.87622 -8.75288 -0.877992 0.965812 -0.291622
172 -0.00327673 -3.95839 -8.74236 -0.420471 0.163781 -1.47615
176 1.58425 -4.04579 -8.61582 -1.15783 0.205653 -0.297391
461 1.67509 -4.91638 -7.8229 0.544432 1.46537 1.30542
170 0.935365 -3.19177 -8.62696 0.189901 0.436192 -0.848498
458 0.896159 -4.18409 -7.84697 0.369615 -1.80721 0.724574
180 3.26647 -4.15461 -8.83327 -2.16855 -0.108066 0.415463
509 2.4013 -3.20357 -8.76381 -0.474703 0.127074 -1.2708
462 2.4144 -4.03303 -7.8425 -0.950384 -0.220118 -1.97739
223 3.09039 -3.20065 -8.05202 -0.342294 1.41332 -3.07451
249 -5.62526 -0.995356 -9.43356 0.17457 0.931813 -0.715881
184 4.53697 -4.14752 -8.81703 0.984294 2.86061 -1.31732
517 4.37114 -3.12474 -8.10297 1.09208 -2.01906 -0.534194
227 3.77574 -3.34551 -8.86723 0.269644 0.60212 -0.262098
226 3.79144 -2.36595 -9.31772 -0.108985 -0.784541 -0.753129
188 6.21265 -3.63585 -8.44668 -0.661859 -1.1669 0.405259
231 5.41786 -3.30988 -9.00923 -0.261708 -0.160062 -0.325771
470 5.17364 -3.83095 -7.9833 -0.563951 1.69513 0.382942
521 6.28142 -2.90006 -7.66107 0.380873 -2.47023 1.0135
19 -2.34767 -9.51172 -8.79097 -0.893442 -0.287712 -1.38265
3767 -0.70682 -0.0305001 -6.89085 -1.55682 0.0918602 -3.25313
522 7.26261 -3.83794 -8.30483 -1.09019 1.24083 -0.191906
242 -9.03641 -1.02115 -9.28371 1.08336 -1.52412 2.55537
191 8.60339 -4.84633 -8.49021 1.14423 -0.028142 -0.373532
192 7.62148 -4.69131 -8.83774 -0.206656 -1.19661 0.114116
237 8.36917 -3.7877 -8.47057 -1.0944 0.971231 1.85796
4935 5.36627 -0.182825 -0.907816 0.154644 -0.916385 0.145644
235 7.79178 -3.74854 -9.26852 0.877591 2.04834 -1.67555
195 -8.98473 -3.18835 -9.01243 -1.70599 -2.24802 0.820775
482 -9.05457 -2.40918 -7.97518 1.65425 1.38398 0.568393
200 -7.83885 -2.06967 -8.53417 -2.89974 -0.0815229 -1.06457
243 -8.87215 -1.85208 -8.8598 2.36448 -0.40571 -1.24062
488 -8.19801 -3.21187 -8.18019 -0.331461 -0.806529 0.134236
199 -7.35687 -3.34258 -8.79615 2.06182 2.31235 1.15617
3787 7.25289 -0.169901 -7.17332 -1.44645 -1.20475 -0.755831
247 -6.94848 -1.30569 -8.6746 0.356807 -0.701275 -1.08336
486 -7.31207 -2.86877 -7.92966 0.0564665 1.06315 1.35552
201 -6.34474 -2.86964 -9.18226 0.41773 1.74651 -1.1791
204 -6.5719 -2.22966 -8.40004 -0.973861 -0.383232 1.94801
489 -6.41298 -3.15139 -8.01116 -0.883836 -1.83218 -3.60129
202 -5.75855 -2.10724 -9.15842 -1.18804 -0.518526 1.75496
207 -3.84676 -3.10399 -8.75915 -0.88461 -0.709722 0.145218
208 -4.70125 -2.22547 -8.6806 -0.424691 -0.739939 -1.99071
1754 0.90996 -8.91579 -0.076101 -1.30274 -0.21894 -1.3447
205 -4.59125 -2.87971 -9.5002 1.23042 -0.396355 -3.58074
211 -2.23945 -3.24323 -8.71875 -0.345672 -1.22292 3.01213
212 -2.95122 -2.27836 -8.71337 0.0510966 -1.41243 0.794538
259 -2.28816 -1.49 -8.67636 0.656701 0.1627 2.26517
1833 -6.21024 -6.23706 -0.0326348 1.19499 -0.0656867 -0.150555
3292 0.713638 -5.60639 -9.34693 1.15295 -1.88099 -2.27909
274 4.17178 -0.72173 -9.35923 0.671193 -0.0730165 -0.00859186
216 -1.54254 -2.44821 -8.51615 -0.122247 0.288058 -0.289813
263 -0.884387 -1.45332 -8.53488 -0.829814 -0.74709 -1.97281
214 -0.787451 -2.24076 -9.43779 -1.84657 -1.94055 -0.503999
26 0.90886 -8.71594 -9.42326 -2.84497 0.858266 0.356057
220 -0.0869464 -2.2868 -8.75948 -1.43036 -0.256625 -2.12421
506 0.922973 -2.37544 -7.88767 -0.546392 0.67048 1.41745
553 -0.183247 -1.52181 -7.85565 1.46474 1.57672 -1.41871
4367 8.65017 -0.0864226 -4.0966 0.980552 1.37999 -0.396891
219 1.68432 -3.28317 -7.86534 0.367897 1.85993 1.50504
224 1.76944 -2.42705 -8.58585 -1.18073 0.569271 0.443713
267 0.736243 -1.51349 -8.59195 1.43365 3.13205 0.387567
557 1.5897 -1.52429 -7.82102 -0.398244 0.343479 1.48921
909 7.06559 -9.4367 -5.48614 2.0388 0.466536 -1.39665
228 2.88314 -2.36435 -8.62787 0.0610318 -1.62262 0.251575
271 2.40064 -1.47118 -8.30447 0.32281 -1.76648 -2.43229
1957 4.86352 -3.22224 -0.16832 0.275204 -2.38157 -2.74547
232 4.83696 -2.3731 -8.79853 0.726837 -1.91454 0.130964
275 4.10143 -1.47209 -8.72922 1.44425 -0.209175 0.723691
236 5.8513 -2.55219 -8.63155 -0.98697 -0.311423 1.12926
518 5.23685 -2.43073 -7.80275 0.635171 0.912036 1.69788
1946 0.829977 -2.24458 -0.17781 0.448039 -0.045298 -0.0757052
34 3.97092 -8.94548 -9.39055 0.767905 0.536613 -0.0959658
4033 9.38364 -0.0554352 -6.47899 0.97383 1.63403 -4.12488
240 6.87858 -2.8108 -8.52738 -1.23173 -0.482724 0.775299
528 7.88536 -2.05397 -8.66484 2.50852 -0.132504 -2.01513
525 8.06866 -2.96869 -8.0609 -0.636687 -0.719233 -1.27449
481 9.23124 -3.11037 -8.12173 -3.21103 -0.564905 1.07896
196 9.262 -2.53717 -8.98343 -0.0941272 -0.273432 -1.0002
287 8.60811 -1.72606 -9.41468 0.283964 0.735011 -2.10597
238 8.26368 -2.86383 -9.03127 0.571754 0.0475353 1.38513
530 -8.82412 -0.627948 -8.22625 0.712264 -1.50479 1.52211
248 -7.85175 -0.985299 -8.6873 -0.60373 0.34177 -1.59076
293 -7.8665 -9.23451 -8.18068 0.478795 0.364438 0.218855
534 -7.23988 -0.486103 -7.91393 2.89072 0.909471 -0.495997
251 -5.26675 -1.34294 -8.46761 -0.440726 0.396041 1.02985
252 -6.37932 -0.538742 -8.54106 1.05648 0.658484 -0.101487
537 -6.21067 -1.37195 -8.04943 1.02111 0.502479 0.990782
265 -0.0559967 -1.5782 -9.38448 -0.947298 -0.374972 1.09059
255 -3.9193 -1.48177 -8.73087 2.77512 1.73769 1.37223
256 -4.532 -0.514629 -8.9288 1.7644 -0.959719 -0.0670322
541 -4.53673 -1.55091 -7.84396 0.429419 0.637865 1.11026
542 -3.82958 -0.665901 -8.03431 1.72882 -0.578104 1.01011
260 -3.09681 -0.77146 -8.73414 -0.209353 0.790498 -0.0741344
546 -2.33597 -0.721649 -7.8668 0.307503 0.563706 -0.571644
1977 -6.41198 -1.56182 -0.137739 -1.74179 -0.225511 0.508356
2006 5.59422 -0.724563 -0.0527003 -2.6989 -1.08645 -0.454024
264 -1.59523 -0.747993 -8.62919 -0.61098 -1.35189 1.32087
550 -0.653201 -0.38111 -7.78936 -1.44883 1.62507 -0.116911
4655 8.80516 -0.088845 -2.44004 1.6328 -0.49571 -0.597294
1937 -3.03369 -3.0188 -0.0865126 3.13085 -0.13359 -2.40824
1165 -4.86751 -9.27446 -3.1002 -0.553064 0.949816 -1.48555
268 -0.21027 -0.707373 -8.67052 0.482662 1.98378 3.29878
1726 8.57347 -0.916157 -1.73534 0.956733 0.203076 0.922226
4079 8.92982 0.00333943 -5.41193 -1.03743 1.20071 1.35886
272 1.45398 -0.785059 -8.46647 0.481307 -0.879801 1.37761
4915 -2.3975 -0.167547 -0.841255 -1.16619 1.51032 -0.795752
4651 7.08838 -0.0501796 -2.48619 -1.76585 0.223293 0.507583
276 3.19835 -0.867059 -8.67806 0.449543 -0.571697 -1.24695
561 3.32748 -1.59507 -7.85093 1.07863 -0.0981426 0.558007
558 2.54297 -0.530115 -7.82076 2.23631 -0.97735 2.39059
562 3.78119 -0.503527 -7.86191 0.465573 -1.5795 -0.724003
879 -3.89197 -9.32543 -3.94797 1.7702 -1.09808 2.31967
280 4.81703 -0.634926 -8.59237 -0.582595 -0.0286808 0.481214
279 5.43154 -1.56473 -8.72487 1.60074 -0.5158 -0.897845
284 6.28754 -0.894128 -8.25519 0.27555 1.00569 -0.245731
569 6.0642 -1.84977 -7.80282 0.107865 0.227195 0.0890497
282 6.91867 -1.64112 -8.74285 1.59161 -3.09353 -3.005
283 7.3211 -1.04099 -7.91009 -1.20649 -0.045019 -0.154176
288 7.9522 -0.968536 -8.91148 -0.944756 -0.479018 -0.55906
244 9.26549 -1.16416 -8.76528 0.883164 -0.691146 -1.17443
339 -8.87121 -7.8189 -7.24738 -0.245854 0.462843 0.253279
578 -8.64563 -8.58243 -6.26836 -0.545333 -2.06249 0.0534153
585 -6.44833 -9.53893 -6.55634 2.0229 -1.31147 0.542735
1730 -8.51358 -8.6511 -0.360074 0.502438 -0.0730822 0.39638
296 -8.02104 -8.69735 -7.31795 0.390303 -2.39745 1.19867
343 -7.09177 -7.72386 -7.15023 -0.678165 0.995548 -0.156076
582 -7.12099 -8.82001 -6.63009 1.03095 0.310645 -1.08568
629 -7.90668 -8.01512 -6.58699 -0.265225 -2.04091 -0.387792
3499 6.95754 -0.65835 -9.13868 -0.0775471 -2.17299 -1.00607
137 6.20073 -6.39759 -9.428 -0.663261 0.443159 -2.07379
300 -6.42688 -8.62192 -7.29263 -0.0116101 -0.599013 0.840391
586 -5.56049 -8.78222 -6.59277 -1.27194 -0.926139 2.17816
633 -6.12119 -7.93525 -6.63066 2.26989 -0.537505 -1.35321
347 -5.47012 -7.86972 -7.3805 -0.397069 1.95739 -2.29306
1682 -8.81723 -0.725826 -1.43509 0.589557 0.173671 -1.79028
1175 -0.878671 -9.51832 -2.16822 1.76854 -1.95636 1.91418
304 -4.8034 -8.58406 -7.41675 0.830284 1.58079 -2.81298
637 -4.6977 -8.02723 -6.40856 -1.40715 -0.574095 -0.798281
590 -3.97105 -9.02573 -6.72715 -0.329682 1.76196 -0.0519334
186 6.87175 -3.97129 -9.49496 1.38257 1.38714 -0.3994
308 -3.0657 -8.95531 -7.31079 -1.3863 1.63906 0.728959
641 -3.32838 -8.10884 -6.50399 -0.663867 -0.330601 -0.0527995
310 -0.901497 -8.67473 -7.82596 1.81085 0.554024 -0.459737
312 -1.66702 -8.79696 -6.97374 1.50261 -1.1528 -0.178242
598 -0.88776 -8.81629 -6.35454 -2.22007 -1.06004 1.09804
645 -1.62959 -7.92098 -6.31976 -0.815177 0.569341 -0.535316
361 -0.122556 -7.79243 -8.10178 -1.08912 -0.0640459 -0.67237
81 3.34483 -8.22726 -9.48563 -0.458994 1.49429 -3.22271
316 -0.0314581 -8.32405 -7.20399 0.665401 0.229119 0.264776
602 0.401758 -8.68543 -6.19591 -0.689624 2.31235 0.133744
363 0.86723 -7.86482 -6.9431 -2.18445 -0.422473 0.919608
320 1.5991 -8.84363 -7.26605 -0.520961 -1.63942 -1.92587
329 6.37166 -9.49608 -7.98887 -0.0767629 -0.757381 -1.19444
324 3.14757 -8.71932 -7.18753 0.183998 -1.2906 1.82995
367 2.31538 -7.93751 -7.02916 0.998536 -0.943831 0.804657
5214 2.94651 -0.185677 -0.347254 0.733934 -1.08028 -1.72562
2010 7.42406 -0.687187 -0.0187141 0.229215 0.192952 1.11151
328 4.71282 -8.81955 -7.10356 -0.281517 1.19561 0.549353
371 3.98182 -7.99534 -7.33882 -0.178177 -0.17576 -0.561878
377 6.35438 -8.14386 -8.05141 -0.622248 0.940604 -0.798152
1193 6.16538 -9.52277 -3.29569 0.603613 -1.44083 0.301441
332 6.36007 -8.79939 -7.15005 0.773953 -0.701286 -0.877465
614 5.506 -8.84437 -6.28565 3.4501 -0.36851 1.21054
49 -9.5196 -8.03544 -9.27625 -0.434797 -0.0454081 0.976392
234 7.38405 -2.70714 -9.4421 -1.83522 0.910108 -1.47228
4933 4.68061 0.0739746 -1.75152 0.620383 2.66086 1.23865
336 8.10194 -8.9441 -7.28535 2.59538 -0.901057 -0.595392
379 7.36981 -8.25726 -7.0731 -0.640914 -0.917994 0.862534
618 7.09915 -8.81626 -6.2795 -0.429628 -0.41203 -1.44979
1842 -2.31702 -5.49838 -0.0765281 0.214498 -1.46173 1.10141
3481 0.0326463 -0.142658 -9.55257 0.857437 0.968866 -1.92322
292 9.46288 -8.82978 -7.09705 0.0638823 -2.00868 1.0576
622 8.661 -8.48735 -6.26795 -0.966062 -0.11897 -0.85432
1997 1.84644 -1.61246 -0.0717811 -0.86694 -0.205699 -0.126034
338 -8.60093 -7.14205 -8.08877 0.715569 -1.40311 1.34476
626 -8.69751 -7.3062 -6.35925 -0.916161 -0.678839 0.55919
387 9.48294 -6.61736 -6.24034 1.25247 -1.93605 -1.3852
344 -8.08372 -7.02216 -7.24749 1.78298 2.1861 1.86241
391 -7.09896 -6.06349 -7.69803 1.58199 1.43342 0.993306
630 -7.37857 -6.89954 -6.48005 -1.16022 -0.445231 -1.43207
348 -6.30137 -7.10812 -7.25138 2.93451 -0.0919085 -0.215866
395 -5.4804 -6.23772 -7.28981 1.31815 -1.3766 0.446609
634 -5.38076 -7.0819 -6.42621 -0.379464 0.60289 0.537574
679 -6.33381 -6.81843 -6.32174 1.86125 -3.33142 0.878644
351 -4.06714 -7.85494 -7.17199 -2.83686 2.11528 1.29441
352 -4.72157 -7.11539 -7.20508 0.146756 0.136094 0.852724
399 -4.04741 -6.38209 -7.18692 -0.810331 -0.363735 -0.257987
353 -3.25771 -7.84376 -7.86909 0.326224 -2.62883 0.170681
356 -3.15358 -6.97636 -7.16411 -2.42092 -1.9084 -1.02098
355 -2.35004 -7.92168 -7.27722 1.76818 0.196253 -1.63168
403 -2.41021 -6.40592 -7.03052 2.74127 1.98635 -2.32776
689 -3.33407 -6.25589 -6.35182 2.52065 -0.877703 1.88703
360 -1.62436 -7.0495 -7.1864 -1.34942 -1.22419 1.01336
359 -1.00626 -7.90815 -7.06072 1.53551 0.0133445 0.619482
358 -0.829304 -7.02161 -7.80238 0.215758 -0.445445 1.21239
693 -1.90908 -6.75637 -6.27044 1.18054 1.32292 1.37529
364 -0.109618 -7.15127 -7.04946 -1.44724 1.17628 -0.954861
368 0.684668 -7.20653 -7.81363 -1.41034 1.40506 1.50307
650 0.896634 -7.11769 -6.12835 -2.08596 -0.510113 0.500474
654 1.52083 -7.17662 -7.19199 -2.36731 -2.97331 2.03677
411 0.655172 -6.33918 -7.05072 -0.71078 -0.303833 -2.63111
366 2.34396 -7.08188 -7.73395 -0.357316 1.59109 0.367578
372 3.09818 -7.30254 -7.19262 -1.15858 2.31746 1.78972
415 2.31633 -6.50312 -6.8673 1.09938 0.889414 -0.832813
421 4.60948 -6.53213 -7.98178 -1.83353 -1.27248 -1.72807
376 4.46168 -7.19119 -7.2823 1.017 -0.477607 -1.25176
425 6.33678 -6.54551 -7.99542 -0.794236 -0.233268 -2.86317
375 5.58719 -8.0048 -7.26323 -1.70915 0.630833 -0.741073
665 6.32244 -8.07847 -6.29515 -4.29987 1.60814 -2.73818
380 6.40609 -7.43443 -7.15609 -1.32699 0.248033 -0.48302
662 5.36405 -7.00209 -6.35249 -0.142132 -1.22475 -1.69693
423 5.60204 -6.75954 -7.27592 0.484352 -0.490238 -2.11195
713 6.25353 -6.33489 -6.22507 0.992732 0.386815 0.228116
378 7.09099 -7.51861 -7.79278 -0.360338 0.317542 0.0835154
666 7.01705 -7.40929 -6.4776 2.39291 0.15077 1.5198
427 6.84931 -6.39148 -7.13723 0.518351 0.440909 0.703816
429 7.69662 -6.29949 -7.70831 0.192815 0.0336459 0.203848
384 7.81436 -7.22953 -7.26844 0.410767 0.313928 1.89534
383 8.84895 -8.06846 -7.24253 0.679679 -2.46511 0.0738494
340 9.40555 -7.20525 -7.30139 3.18312 -1.31669 -0.528919
385 9.4556 -6.39159 -7.97633 2.25301 2.26206 -1.1548
677 -8.96451 -6.47383 -7.09994 1.42633 0.0619442 -1.38166
674 -8.96353 -5.56039 -6.14326 -0.65582 3.16718 2.53849
388 -9.52759 -5.68008 -7.23258 -0.826794 -2.40733 2.26569
392 -8.74522 -4.95465 -7.29858 1.77051 0.489535 1.4345
727 -7.95226 -5.94219 -7.19127 0.0956802 -0.874668 -1.52069
678 -7.07469 -5.70798 -6.38973 1.25725 -2.02756 -1.39576
393 -6.22285 -6.52986 -8.10037 -1.05959 0.664174 -0.715414
682 -6.3345 -5.82777 -6.97419 -1.46054 0.650062 -1.5512
394 -5.54685 -5.68388 -8.29157 -0.00781975 0.468986 -3.38585
396 -6.43246 -5.33817 -7.84511 0.666303 -1.19586 -0.163238
398 -4.12436 -5.4122 -8.10484 0.258632 -0.288641 0.345385
686 -3.96797 -5.50724 -6.43806 0.646849 2.68843 3.13346
729 -4.73311 -5.48805 -7.33168 2.42956 -1.17166 -0.438515
402 -2.54636 -5.46725 -8.00022 -1.30586 -0.135519 -0.0616178
404 -3.30216 -5.50882 -7.19597 2.4886 1.42397 2.71464
405 -1.55357 -6.32048 -7.94075 -0.0230199 0.444365 1.01836
408 -1.56096 -5.51538 -7.24538 0.562978 1.77748 0.302013
407 -0.922989 -6.34423 -6.92261 0.911103 -0.930789 -0.482032
455 -0.866887 -4.63137 -7.17432 0.973407 0.762449 0.589397
451 -2.32306 -4.60929 -7.35143 -0.925946 -0.432422 -2.38313
412 -0.199824 -5.65305 -7.07224 -1.35239 2.09685 -0.514876
410 0.800449 -5.52748 -7.80732 0.124565 -1.21835 -0.880538
459 0.704538 -4.90599 -7.02495 -0.921641 -1.71604 -0.596261
416 1.51996 -5.76938 -7.25815 -0.255711 -0.668859 -0.909569
749 1.69315 -5.07101 -6.45816 1.05811 -0.700115 -0.406097
465 3.17912 -4.93978 -7.96568 0.177151 -0.887206 -1.4075
420 2.95277 -5.81348 -7.08295 -0.170378 -0.349808 3.27269
753 3.03726 -4.88001 -6.09453 -0.648666 0.825666 -0.880447
419 3.74748 -6.38129 -7.33996 1.10834 1.58356 0.0342548
424 4.76124 -6.24436 -7.07146 0.815481 0.479237 -0.530415
467 3.72038 -4.98817 -6.97203 1.70705 -1.76191 -0.249604
706 4.43413 -4.18066 -7.36828 0.403953 1.02615 -1.73545
471 5.34878 -5.79631 -7.84851 -0.326554 -0.871306 0.92804
473 5.90454 -5.02516 -7.61599 0.110566 2.15949 -1.82514
428 6.1148 -5.77053 -7.14064 0.856269 -2.3147 2.08321
477 7.75645 -4.99557 -7.79205 -1.44389 -0.4288 -0.308909
140 6.90966 -5.54775 -7.92892 0.218147 1.32473 -0.728663
426 7.83753 -5.58821 -6.90594 -1.8729 0.402028 -0.698749
475 6.88972 -5.07206 -7.08755 0.357118 -1.50677 -1.13566
714 7.05915 -5.7383 -6.15312 0.0737775 -0.781892 1.10296
430 8.64759 -5.72155 -7.84326 0.439147 -1.11061 0.310482
431 8.73819 -6.3803 -7.16091 0.273431 0.980139 -1.7899
434 -9.42328 -4.7186 -7.96188 -0.0407191 -3.10973 -1.77684
435 9.51078 -4.92036 -6.64892 -0.629457 -1.2881 -0.358073
722 -8.93686 -4.07827 -6.74864 0.965719 -0.770121 -1.63906
440 -8.04559 -4.1819 -7.44008 0.381603 -1.21999 2.55781
439 -7.31527 -5.03411 -7.20133 2.19535 -0.781405 0.563589
485 -7.3051 -2.66581 -6.79312 -0.527802 1.7568 -1.2092
726 -6.97779 -4.16052 -6.58218 -1.66911 -2.18621 0.898127
442 -5.49696 -3.65505 -7.99732 2.46905 -0.637613 -3.07797
400 -5.51398 -4.75205 -7.63214 0.754573 1.80864 -0.415644
443 -6.43762 -4.13571 -7.38986 -2.67839 0.449828 -0.400153
777 -5.57619 -4.02284 -6.91089 -0.856693 -0.4361 1.31517
447 -4.0525 -4.70345 -7.32326 -1.67938 -1.28941 -0.450238
446 -3.87128 -3.94521 -8.16396 -0.768416 -0.562427 -0.427555
448 -4.68803 -3.82905 -7.36543 1.59382 -0.829196 2.08206
495 -3.93254 -3.12283 -7.0266 0.847973 2.36558 0.284762
449 -3.2006 -4.77377 -8.10135 -0.891447 -0.303274 -1.00176
450 -2.29818 -4.0691 -8.092 -2.4102 -0.107757 0.302432
452 -3.06319 -3.86298 -7.3542 0.899224 -0.513002 0.358686
453 -1.73255 -4.87854 -8.17101 0.448275 0.180935 -1.19157
456 -1.60071 -3.884 -7.04091 1.85759 -2.51667 -0.315553
460 0.158671 -3.98227 -7.25603 1.40788 0.681843 -1.27956
505 0.192139 -3.19552 -7.99937 0.834995 0.422375 -1.47426
745 -0.208009 -4.58628 -6.3348 -0.708209 0.473554 -0.170833
746 0.711637 -4.16571 -6.25779 -1.60593 -2.57133 1.70124
464 1.63056 -4.12237 -7.09418 -1.5689 -2.3666 0.992696
463 2.48571 -4.85807 -7.20904 3.17599 -0.500358 0.956195
468 3.20271 -4.11959 -7.02483 -0.798941 -1.53289 1.09792
511 2.45413 -3.36106 -7.15492 -1.04361 1.36359 -1.40178
466 3.58392 -4.05388 -7.96512 -0.230158 -0.143535 -2.85739
513 3.9618 -3.31217 -7.12874 1.19916 -0.549924 1.12829
472 4.99953 -3.30626 -7.16671 -2.26249 -0.873835 1.6658
476 5.61801 -4.08452 -7.21038 -3.63921 -2.32519 -0.990714
758 4.94793 -5.2317 -6.98387 -1.01453 1.26279 0.857375
519 5.04298 -4.16708 -6.37421 -0.0876385 -0.964815 -1.27648
474 6.60668 -4.07576 -7.59417 1.39096 -0.17447 1.00564
478 8.03614 -4.13533 -7.51364 -1.22451 -0.4246 1.9679
480 6.65785 -4.10765 -6.57011 -1.56721 -1.39582 -1.69253
523 7.38932 -3.33308 -7.3752 0.511924 0.571186 0.96637
765 7.96163 -4.6529 -6.487 -0.655795 0.0202209 0.741851
433 9.03027 -3.99471 -7.63928 2.52966 -0.260644 -2.14078
479 8.61525 -4.93006 -7.24097 0.491846 -0.0545579 0.141958
436 9.42106 -3.267 -6.89895 0.0612495 -1.16904 -2.37131
766 8.81253 -4.09021 -6.70216 0.0231678 0.475888 0.0159864
483 -8.98624 -3.73014 -7.88388 -1.89444 -1.70183 -1.02676
531 -7.78372 -1.53579 -6.79493 -1.06985 1.14319 -0.628105
487 -8.01765 -2.32348 -7.54425 -0.669931 1.31432 -0.962985
484 -8.58108 -3.17084 -7.14754 1.35127 0.408349 -1.62691
535 -7.11481 -1.49708 -7.61886 -0.631253 1.9596 0.664873
773 -7.77877 -3.58892 -6.70658 0.0732081 -0.284099 1.23886
774 -7.44986 -1.76391 -5.82005 0.203281 1.71389 -0.497216
490 -5.38833 -2.10725 -7.76825 -0.627253 0.478699 -1.58394
491 -5.61795 -2.91268 -7.1202 -0.114896 0.771619 -1.57119
492 -6.41915 -2.19335 -7.3333 0.893641 -1.49353 -0.457087
444 -6.49926 -3.26038 -6.98299 -2.08156 1.28849 0.477244
778 -5.44076 -2.34741 -6.24749 0.73039 -0.075141 -1.03673
494 -3.78231 -2.24402 -7.90293 1.76624 1.40749 -0.339976
493 -4.63501 -3.06406 -8.00872 -1.78 0.581073 0.603181
496 -4.58225 -2.17934 -7.14188 -0.857428 -0.0257673 1.37332
781 -4.85877 -3.2135 -6.43319 1.48528 -1.93754 -2.08454
497 -3.08479 -3.02298 -7.94751 -1.02382 2.65774 -1.00185
498 -2.33607 -2.19959 -7.90229 -0.69147 0.262226 -1.16837
500 -3.02398 -2.25256 -7.1893 2.28343 0.522377 -0.423099
499 -2.32896 -3.10236 -7.10085 0.104352 -0.543285 0.575138
547 -2.12867 -1.71902 -6.96178 1.01934 -0.0457942 1.22375
502 -0.614786 -2.49092 -7.91968 0.51014 0.888992 2.60029
504 -1.42261 -2.44924 -7.26588 -0.668199 2.37618 0.292868
503 -0.435515 -3.2022 -7.20039 1.34665 -1.64379 -0.386139
793 0.137767 -3.31966 -6.41962 1.37471 1.27742 1.45867
507 0.988237 -3.38684 -7.17419 1.84787 -0.833418 -0.622032
508 0.16996 -2.34287 -7.30527 1.16125 1.46087 -0.386693
512 1.69303 -2.35184 -7.15088 0.775568 1.15681 -0.821283
797 1.72068 -3.24308 -6.51141 -2.623 -0.98269 -0.282522
555 0.897027 -1.55915 -7.1911 -0.221786 0.619041 0.562246
794 0.9182 -2.61497 -6.54607 -0.649769 0.299624 -1.81943
510 2.40988 -2.32192 -7.75913 0.467918 -0.921074 -0.776361
516 3.18105 -2.43142 -7.13841 -1.80727 -0.906905 2.74626
798 2.42503 -2.23772 -6.32676 -1.41645 1.28211 2.59714
514 3.89032 -2.34132 -8.20932 -2.04745 -1.25785 1.67355
515 4.32438 -2.3121 -7.33616 -1.30463 1.91379 0.0594508
802 3.98986 -2.18644 -6.42157 0.978373 0.793201 0.695014
520 5.93853 -2.46157 -6.84759 0.397397 0.301709 0.241665
524 6.96625 -2.10523 -7.63787 -3.05501 1.74259 -0.512704
806 5.04965 -2.54763 -6.37456 -0.757169 0.891813 0.512732
571 6.05834 -1.47975 -6.86435 0.960805 0.665745 0.632068