ITEM: TIMESTEP
161000
ITEM: NUMBER OF ATOMS
6912
ITEM: BOX BOUNDS pp pp pp
-9.5244063118091962e+00 9.5244063118091962e+00
-9.5244063118091962e+00 9.5244063118091962e+00
-9.5244063118091962e+00 9.5244063118091962e+00
ITEM: ATOMS id x y z vx vy vz
335 -8.9725 -9.04657 -8.64992 0.825905 -0.900331 2.46303
3346 5.24002 -3.56692 -9.32622 -0.720715 -2.08633 -0.790723
3107 -0.221243 -3.07363 -9.00366 -1.78678 -0.2177 -0.00185617
3702 -7.26924 -8.77603 -8.31865 0.663568 -0.314117 -1.24918
297 -8.03411 -8.40997 -8.80951 0.674644 -2.70637 0.902079
325 4.03579 -9.37071 -7.4253 2.71819 1.86927 1.80171
3944 -6.33061 -8.46458 -8.35895 0.81564 0.650549 -0.0815387
16 -5.26016 -8.30459 -8.39845 0.451848 0.413578 0.215593
3183 -5.62917 -9.29342 -8.40922 0.516164 -1.22598 0.457258
587 -4.36924 -8.87141 -7.95558 -2.14563 3.53921 -1.12036
2648 -4.29966 -8.03586 -8.86199 0.268258 -1.29599 -1.78848
878 -3.47308 -8.69814 -8.82903 0.495284 1.09527 -0.222647
63 -2.65323 -8.15176 -8.74353 0.764156 -1.33014 -2.40792
6883 -2.32044 -8.70734 -7.97811 -2.81969 -1.6934 -3.21789
84 -1.57271 -8.51531 -8.60314 0.233963 0.0523142 -0.937718
365 -0.595074 -8.29655 -8.43589 -0.575104 -3.86721 -1.93475
5709 8.11338 -9.17349 -0.0995138 2.54576 2.19791 -0.653295
695 -0.436014 -9.05502 -7.78707 0.649766 1.07791 -0.595678
312 0.361851 -8.38374 -8.25202 -0.405441 -1.76026 2.80201
354 -0.157815 -8.91111 -9.19571 0.471516 2.28727 -2.1438
3227 -6.33004 -8.02514 -9.31063 -2.42098 -2.33182 0.892005
71 1.40217 -9.13946 -8.36981 -0.614045 -2.98408 0.401781
3247 1.85943 -8.29994 -8.7383 -1.82123 -0.554312 0.553383
653 1.07653 -8.51213 -9.33902 -0.376588 -0.564436 -0.102201
3193 2.27285 -9.12863 -9.03957 0.736163 -0.00733114 -0.918119
369 2.14526 -7.62859 -7.99383 -0.351511 0.434398 -0.981612
4861 -3.30458 -9.2312 -5.07737 -0.544757 2.07382 2.19203
4017 2.51251 -8.61241 -8.03819 0.0899421 0.45881 0.484538
3287 0.978325 -4.16215 -9.47561 0.704554 0.23611 -0.698456
3758 -2.14021 -0.0871414 -7.45239 1.34251 0.625089 -1.03852
2920 3.23824 -9.19691 -8.57253 0.295662 0.858392 2.5951
321 5.01146 -9.16246 -8.09513 1.77959 -1.46281 0.185102
318 4.14445 -8.76563 -8.37621 0.171641 -0.0194497 0.0356361
85 4.78321 -8.00898 -8.52613 1.24226 0.31141 -0.266499
4319 5.84813 -8.59468 -8.14919 0.0464834 0.116812 -0.816418
4596 6.07288 -8.03754 -8.99925 2.01768 0.430509 1.24433
37 5.43025 -8.81054 -8.97863 0.478412 1.57871 -0.569545
1186 6.67022 -9.15275 -8.61685 -4.65061 1.3068 -0.840126
6910 7.15656 -8.01109 -8.98744 -2.27579 0.0999202 2.27476
88 6.74994 -8.28609 -8.1122 0.240749 0.828702 1.81155
3891 7.57606 -8.81166 -7.98488 -0.373059 -0.397974 -1.63569
4229 7.68431 -9.01497 -8.91546 2.65693 -1.04025 1.76176
57 8.48733 -9.15541 -8.45304 1.63835 1.15612 -1.4732
2971 9.14934 -8.22263 -8.62242 -1.39531 0.950212 1.93584
102 8.0771 -8.0513 -8.6845 0.0560404 0.513851 1.42121
477 8.84044 -6.48298 -8.55941 -1.20639 1.89337 -0.654648
630 -9.20092 -7.60039 -8.69583 0.510134 -0.611426 0.686445
295 -7.66052 -6.7233 -9.50795 -2.97544 2.15911 0.130752
193 -7.9895 -7.13908 -8.59129 -2.21038 -0.192069 -0.709515
633 -7.04374 -7.51755 -8.46176 -0.695316 -1.05786 -1.11095
539 -6.65814 -6.84445 -9.04544 -2.03601 1.27939 1.49943
3308 4.47926 -6.25803 -9.25789 -2.43257 -0.37719 -2.43788
870 -6.32353 -7.09103 -7.41176 0.693905 -0.969709 2.7449
1166 -5.95415 -7.50665 -8.54938 1.6711 -0.623244 -0.840353
684 -5.75928 -6.46302 -8.44582 -0.755568 0.343798 0.151084
58 -5.08825 -7.33254 -8.84253 -0.52365 -2.39991 3.33058
1403 -4.26487 -0.132092 -4.13675 -0.196345 2.95545 -0.67749
693 -3.51104 -7.72746 -8.35437 0.400042 1.47227 1.24689
119 -2.7258 -7.17402 -8.37858 0.242373 -0.681234 0.637071
150 -3.30294 -6.53897 -8.96782 -0.385626 -0.96476 -0.226003
5172 5.53985 -9.47889 -0.943842 -0.35974 -0.593439 -2.22696
353 -1.20746 -7.64117 -8.94134 0.0806963 0.641684 -0.143406
3282 -1.46903 -6.6344 -8.85904 -0.0310556 -2.50988 -0.611998
1781 -7.65993 -7.44146 -0.229174 0.63324 -4.41452 -0.924107
3252 0.147389 -7.68195 -8.8767 -1.45762 -0.564247 1.03261
4325 8.1884 -0.391546 -0.104141 -3.21347 2.88228 2.77489
4016 0.778574 -6.84422 -8.21594 -3.10377 1.19234 0.219094
3196 1.27768 -7.59948 -8.43573 0.386442 0.210815 0.451349
659 1.68099 -6.69013 -8.68481 -1.30079 2.51017 -2.51362
808 3.56967 -2.17903 -9.34657 -1.09216 0.403253 -0.563686
127 3.12593 -5.96271 -7.95762 -0.249284 -1.65453 -0.758483
898 3.4122 -8.24082 -8.04042 0.69453 -0.658413 1.52093
745 3.00518 -7.37708 -8.51204 2.61383 -2.56626 0.0117421
2618 2.36542 -7.5387 -9.3057 -0.869231 0.0686906 0.550941
36 4.06046 -7.26545 -8.88874 -0.846944 1.1793 -1.51033
3202 5.03965 -7.00691 -8.80735 0.774259 -0.812284 0.740678
697 3.64935 -6.86832 -7.9088 0.359262 0.0572709 -0.719597
3399 3.74701 -6.28899 -8.6652 -1.29531 -0.624013 1.32112
3115 5.92598 -6.86107 -9.37609 0.939201 0.668388 0.763053
180 5.19359 -7.66927 -9.47364 -1.3012 1.86625 -0.351052
375 6.05983 -6.71029 -8.16348 0.661403 0.599715 -0.544973
848 5.00809 -0.215142 -3.4131 0.884441 -0.240517 0.919901
668 6.74051 -7.13782 -8.69938 -0.783789 -1.94105 0.41148
42 7.92094 -7.52055 -7.79508 1.19497 1.58008 -2.31561
2963 7.54374 -6.68125 -8.20075 -0.486104 0.947913 0.387369
233 8.96206 -7.49129 -9.2536 0.27897 0.353229 0.578458
38 7.62835 -7.16323 -9.11458 -2.28087 -0.718895 -2.3946
3212 8.83381 -7.32818 -8.19482 0.413566 2.83411 -0.966763
192 -8.50548 -5.97257 -9.03989 0.18765 0.276595 -0.923464
3267 -7.91392 -5.26114 -8.84337 0.57555 0.167185 0.154131
4293 1.59169 -9.19534 -4.36153 -1.11413 1.40002 -1.53955
68 -8.52628 -5.83275 -7.96483 0.839754 -0.820259 -0.440249
1102 7.49564 -0.0845519 -0.859928 1.0717 -0.0428157 -0.876371
1013 -6.09532 -5.04033 -8.30014 1.65849 0.615075 -0.552092
437 -7.16686 -4.86444 -8.19075 1.7566 0.218614 1.83686
393 -6.52362 -5.7288 -9.07743 1.50911 -1.50786 -1.30355
107 -5.11978 -5.37505 -8.16424 0.353907 -0.0765857 -0.62141
637 -6.50291 -6.06777 -7.82824 -1.20965 -1.49228 -0.742848
453 -4.70909 -6.02617 -8.94104 -0.970108 1.21924 -0.0939407
495 -4.13406 -4.97122 -9.19907 0.899769 -1.72648 -0.588866
503 -3.84753 -5.79659 -8.63546 -0.716531 -0.78009 0.0476792
900 4.8979 -9.26888 -5.80974 0.0134363 0.034605 0.628248
605 -3.04986 -6.08623 -7.92309 -0.711704 -0.160347 -0.282011
3243 -2.8147 -5.47695 -8.62501 -0.164501 -0.241825 0.208657
417 -2.09257 -6.53028 -7.99487 0.448515 -0.948983 1.51363
2705 -2.39037 -6.01164 -9.32945 -0.266758 0.755937 -0.296369
3173 8.94346 -8.67776 -9.38559 -0.974399 0.342844 2.47864
3291 -0.946711 -5.99019 -7.89978 1.53843 -0.170797 3.34379
459 -1.80727 -5.42311 -8.84666 0.193664 0.673856 0.123539
124 -0.501176 -6.84614 -8.77033 -1.93731 -2.33102 0.147076
449 -0.886632 -5.48763 -9.04323 1.61406 -0.775037 -1.27881
221 0.0117659 -6.0068 -8.88264 -0.147277 1.41923 3.80717
464 0.100234 -6.25427 -7.9873 0.985347 -0.199741 0.67348
122 1.07961 -5.97745 -8.6115 -0.787687 1.68141 0.0173399
507 1.28801 -4.91438 -9.00007 0.875239 1.33619 1.1864
3007 2.68323 -6.49625 -8.86474 -2.47831 0.17542 0.103644
3398 2.06978 -5.26196 -8.31188 0.525022 -1.50722 -0.613885
177 4.04021 -5.31207 -8.49349 -0.354184 -1.88152 0.780777
372 4.82082 -5.03423 -7.94188 1.23843 0.520762 1.97504
613 5.06962 -5.38254 -8.8704 -1.82698 1.13006 -0.414539
185 6.1064 -5.80608 -8.39944 -0.0711392 -1.07674 2.09824
136 5.51791 -6.00136 -9.47644 -1.31818 -1.24051 -0.171277
138 7.05424 -5.25024 -8.68474 -1.20492 0.211036 -1.66072
147 7.42272 -5.76261 -7.94569 1.34266 -0.359089 0.883381
3221 6.94239 -6.24599 -8.90871 1.14253 1.45287 -0.842396
3354 6.2869 -5.33947 -9.35735 -2.47591 -1.23633 1.15285
139 7.85452 -4.66764 -8.11356 -1.18821 -0.0436704 -0.598946
154 9.06825 -4.86502 -9.34035 1.00803 0.87976 1.47347
378 7.9935 -5.99893 -8.87196 0.308471 -1.18406 0.936536
3206 9.46456 -5.84462 -9.06099 -2.26589 2.34102 2.10618
3272 8.60338 -5.27001 -8.51952 0.734642 0.0763715 -1.63644
3355 -8.50222 -4.24217 -9.22469 0.214398 0.540046 -1.88107
3071 -9.11038 -5.01542 -8.7029 0.507222 1.16288 -0.41246
191 -9.16322 -3.80073 -8.20902 -1.66826 -0.113106 -1.66842
196 -8.28258 -3.29709 -9.08116 -0.267402 -0.35691 0.536153
3324 -8.42085 -4.52261 -8.13592 -0.495738 0.713145 1.07601
104 -7.703 -4.03729 -8.67342 -1.47455 -1.37459 -3.28333
2055 5.39543 -8.82699 -0.226627 0.429931 -1.02675 -2.22431
3319 -6.65054 -4.0488 -8.65301 0.993883 0.0490952 3.69104
288 -7.21678 -3.24076 -8.12568 0.899855 -0.533914 -0.843489
3222 -7.00154 -4.94584 -9.20235 0.542565 0.0453446 -1.17862
109 -5.72684 -3.72237 -8.39382 -0.478135 0.773373 0.820666
1537 -5.91005 -4.27619 -0.354347 0.398341 1.8398 -0.639719
826 -5.23936 -3.48933 -9.22221 -1.17722 -1.70019 -1.9143
817 -5.64644 -2.48681 -8.06012 -0.662777 0.609359 1.32452
682 -3.82837 -3.8968 -8.9777 0.982173 -2.08485 -0.0297236
1019 -4.8635 -4.3727 -8.8438 0.125994 0.597244 -0.149717
451 -3.66913 -3.12321 -8.43439 2.19231 -2.86183 0.253261
163 -3.24871 -4.64083 -8.65971 1.0742 1.55503 -0.584095
1378 3.757 -5.07112 -0.116832 -1.4777 -0.579995 0.172237
789 -2.62121 -3.65151 -8.39766 0.486378 -0.285088 0.505809
3224 -7.98537 -7.7074 -9.45322 -0.340595 -0.128497 1.1168
3337 -1.1508 -5.09906 -8.17077 -1.08636 -3.14317 -0.987616
3377 -1.21299 -4.53534 -9.11438 -0.543663 -0.549138 1.90982
169 -1.94882 -4.46017 -8.42415 -1.37634 2.80009 -0.213262
402 -1.88209 -3.52094 -9.30462 2.21087 1.41288 0.171902
696 -1.93032 -3.48712 -7.36536 -0.738104 -1.94823 2.7616
3326 0.33888 -4.91157 -9.20874 -0.28144 0.0702074 0.338209
3331 0.692657 -4.75902 -8.17291 -0.13615 1.72846 2.17696
3064 2.22653 -1.55221 -9.49688 0.802364 -1.47724 -0.65282
461 0.495115 -3.86966 -8.46588 -1.42628 0.846551 -0.941524
3244 -0.283904 -4.63705 -8.5146 -2.6577 1.04259 -1.11416
823 -5.68783 -0.0910229 -2.88053 -2.15549 -2.24738 1.30015
4860 -4.07381 -9.11681 -1.10531 0.59468 2.78739 -0.69797
271 1.76083 -4.18937 -7.98979 2.30555 -0.386523 0.993019
3391 2.65688 -4.51837 -7.633 1.23526 0.9347 0.342856
424 3.06271 -4.53455 -8.47663 1.85972 -1.14398 0.0875271
3194 2.15552 -4.11485 -8.87839 2.05545 -0.898569 0.498696
799 2.61183 -3.49549 -8.06949 -1.22872 -0.828406 -2.00049
187 4.65521 -4.43202 -9.19593 -0.634699 -0.397929 -0.650937
280 3.06474 -3.42353 -8.92649 -0.00177223 1.25254 -0.677312
482 5.04422 -4.01357 -8.19766 0.813013 -2.16301 -1.41302
3397 3.97029 -4.12399 -8.30167 -0.355759 0.181476 -1.30091
1408 -5.3694 -0.0458197 -0.779341 3.31868 -1.12767 -1.18243
275 4.06542 -3.40436 -8.99186 1.05815 0.915136 1.9452
92 5.63153 -4.57844 -9.40954 0.780706 -0.414669 0.147999
532 5.96295 -3.86907 -8.59983 0.701034 -0.632734 2.33842
418 6.83233 -4.21129 -8.24261 0.587873 0.689373 -0.161854
3032 7.45043 -4.12979 -8.9477 0.397618 -0.380711 -1.36548
226 6.88928 -3.22339 -8.88406 1.97163 1.45849 -1.55687
3497 7.394 -3.35825 -7.92095 -1.18168 0.578342 0.0847835
3268 8.06726 -4.8828 -9.26772 1.04814 -1.1969 -1.18805
197 9.47121 -3.99266 -9.31679 1.58232 0.510381 0.223073
90 8.51043 -3.98953 -9.07561 -1.24011 0.948612 -2.78485
729 9.06536 -4.3615 -8.37161 1.32006 0.163951 2.17539
4260 2.2326 -9.31757 -2.25347 -0.353226 1.64345 -0.613568
3799 9.5085 -2.26472 -9.13967 0.699676 -0.341995 1.57962
3785 -8.49998 -1.8044 -8.93135 0.469334 0.294948 0.859112
853 -8.86266 -2.61853 -8.39788 1.58914 1.06957 2.08285
576 -7.13896 -3.17538 -9.09824 -2.88598 -0.883813 1.85653
531 -7.78008 -2.46491 -8.65678 0.350459 0.39386 0.0262047
235 -6.60186 -2.06899 -9.0503 -1.24723 -0.908986 1.14183
448 -6.75966 -2.3756 -8.18907 -0.120468 0.116879 -0.0909925
492 -6.06642 -1.2212 -8.96968 -0.851707 1.48013 0.783455
728 -6.06539 -2.87178 -8.8261 -1.46131 -0.133419 2.08957
3423 -5.23507 -1.95022 -8.98068 -0.30895 1.0991 -1.28128
3520 -5.53801 -1.58872 -7.77271 -1.49076 1.76025 0.0792157
2800 -3.86184 -1.21788 -9.10614 -0.724331 -0.561639 2.91366
3322 -4.71967 -2.7984 -8.65615 1.29807 0.251779 0.160921
3761 -4.59912 -1.71312 -8.19873 -0.538421 -0.540676 0.579681
502 -2.86112 -2.67308 -8.71113 -1.95444 -1.44216 0.445599
3474 -3.68113 -2.59975 -7.59223 -1.79635 1.26587 0.639722
547 -2.0125 -1.7744 -8.00748 -0.0730363 -1.65215 -1.10489
494 -3.81772 -2.1559 -8.44046 2.83083 -1.21341 2.62329
738 -1.12884 -3.57634 -8.65395 -0.479309 1.08724 -0.301071
629 -6.55011 -9.28336 -3.58259 0.19189 -0.946146 3.87401
167 -1.91135 -1.71088 -9.10066 0.155851 -0.568737 2.92653
210 -1.0247 -2.14384 -8.20755 -2.02124 -2.80589 0.497244
213 -1.31594 -2.73311 -9.17549 1.01143 0.284185 -2.4319
263 -1.81209 -2.93438 -8.21082 2.415 -0.365928 1.7192
460 0.674432 -2.39284 -8.72346 0.206711 -0.0305686 0.878115
749 1.24606 -3.21806 -8.71135 -1.14112 1.00829 -1.34509
3386 1.44561 -2.18922 -7.92153 -2.65382 -0.537405 -0.227614
795 1.50704 -2.32835 -9.28331 1.42143 0.92569 1.64343
473 3.83081 -3.12206 -8.06511 -1.14173 0.129307 3.05569
1083 2.18826 -2.84121 -8.70843 0.966562 -0.220368 -0.178031
273 3.35233 -2.39764 -8.42842 -0.955134 -1.49946 0.499746
558 4.53588 -2.57003 -8.77285 1.1812 2.17558 -1.70013
470 4.15367 -1.90535 -8.18156 -0.578971 1.74272 2.41396
6830 -5.68859 -8.73209 -9.383 -0.368702 1.25433 -0.383222
232 5.56465 -1.67886 -9.0547 0.850973 1.00512 0.670718
3447 6.52329 -1.6263 -8.74472 1.08329 -0.546208 0.519961
283 5.3321 -1.99308 -8.13933 0.610141 0.533749 1.08519
768 6.13681 -2.49296 -8.94734 1.5657 -0.601742 -0.604286
3449 6.97314 -2.29703 -9.39584 0.268714 -0.329478 -1.3155
3491 7.34584 -2.30436 -8.33681 4.18453 2.30644 -0.480354
858 7.87752 -1.86072 -9.18877 1.50278 0.369469 0.373197
3315 9.19916 -3.23582 -8.67156 -0.923151 -0.563558 -0.898171
3498 8.87959 -2.26424 -7.39276 0.72516 -1.60112 0.20565
767 9.06817 -0.0901949 -5.86098 3.9432 0.772634 0.24299
278 8.64447 -2.26151 -8.66761 2.21633 1.44938 0.996081
3503 8.6861 -1.37481 -8.87348 1.31257 2.65549 -0.635535
3511 9.43879 -1.71802 -8.12401 0.790802 -0.983629 -0.334351
6627 -8.50112 -0.825657 -8.62891 2.34239 1.443 1.72045
708 2.87268 -5.4562 -8.85692 4.77398 1.82638 1.67523
527 -7.33436 -1.3106 -8.6758 0.844605 -0.430956 -1.58314
821 -7.53178 -0.442428 -8.02912 -0.643302 0.220552 -2.02327
313 0.733187 -9.3644 -5.89253 0.534424 0.253149 0.392666
1148 8.39282 -0.563925 -1.33911 -2.12582 0.647463 -1.87668
5419 8.74777 -9.41786 -0.800303 -1.83177 -0.207849 -0.332897
3753 -6.61699 -0.525262 -8.70378 -1.50504 0.192536 -0.380941
3757 -5.75429 -0.360198 -9.2321 1.78039 0.0365225 -2.06676
259 -4.76859 -0.0223093 -8.93734 -2.28713 2.23642 -0.202673
6608 3.04386 -8.32917 -9.18187 0.674549 -0.315599 2.16655
3803 -4.32908 -0.703269 -8.30991 -0.106865 0.713306 1.1439
3428 -2.86448 -1.57982 -8.61736 -0.37857 -1.07273 1.00242
3952 -6.03999 -9.47649 -5.09712 0.657136 -0.845407 1.31219
3383 -3.27331 -0.613867 -8.47371 0.605925 1.34939 -0.793134
175 -1.03058 -1.1524 -8.84298 -0.297836 -1.70902 0.476103
3435 -2.16652 -0.746392 -8.82066 0.425792 1.31401 -0.0129195
6653 -0.430129 -1.89624 -9.06933 -0.743286 0.240667 0.616347
512 -0.0582833 -2.16052 -7.98447 1.5857 -0.605172 0.501295
6655 -0.213637 -0.485963 -8.71045 -0.587815 0.22194 2.62169
3384 0.30392 -1.24847 -9.24834 -0.237035 1.46368 -1.61372
4323 -5.72649 -0.0779447 -3.91429 -0.99829 -0.308773 -1.6513
265 0.987792 -1.29886 -7.84977 -1.04837 -0.465198 0.245599
3145 0.90712 -0.596547 -8.67819 2.06156 2.87806 -1.8044
269 1.92694 -0.557271 -8.24714 -0.804929 -1.92574 2.69176
171 1.66568 -1.39159 -8.62201 -0.778334 -0.0346866 0.10777
1455 -2.54388 -9.1237 -1.32368 -0.452938 2.58227 0.724305
4092 -4.27679 -0.222281 -5.07689 -0.537304 0.54968 -1.79774
3829 2.53761 -1.81181 -8.66643 0.991641 -1.34243 -0.764367
3769 2.97322 -0.472336 -8.7185 0.388564 0.289254 2.20114
3782 3.29691 -1.395 -8.19848 -0.39916 0.14469 -0.345369
4068 4.83 -0.991955 -8.56106 2.72145 0.31034 -0.139859
4080 -8.7977 0.00834878 -3.67799 -1.38763 1.60324 0.87816
3492 3.9994 -0.547614 -8.65421 0.126241 1.47927 0.99801
985 1.33721 -7.54124 -9.45567 0.662802 -1.0138 1.19152
3774 5.91625 -0.64878 -9.13926 1.20963 -1.34601 -0.729688
279 5.7935 -1.17288 -8.01845 -0.586615 -1.73263 -2.14812
3835 6.87401 -0.702839 -8.13533 0.580517 -1.11827 1.99029
3314 7.93642 -2.92891 -8.97566 0.914658 0.0543723 -1.14931
851 7.19336 -0.829421 -9.42072 -1.37088 1.33579 0.798506
3834 7.78082 -0.576958 -8.68686 -0.943556 -1.34791 0.945183
1635 -9.438 -0.292053 -2.94401 1.13299 -0.433849 1.61382
4082 -9.31694 -1.26507 -9.10019 1.67392 -2.4143 1.85401
1715 4.46896 -0.893662 -1.11271 0.36116 -1.78612 0.568249
524 8.66851 -0.242909 -8.22431 -0.211487 0.28384 -1.26574
3792 -9.40979 -0.655664 -8.23633 0.621404 -1.81698 -0.575362
298 -8.67741 -8.16372 -7.99825 -2.52196 1.85447 -0.131481
3225 9.48849 -8.8402 -7.62259 1.52003 1.30609 -0.45985
581 -8.95662 -8.98677 -6.68051 0.227435 -0.204327 -1.97425
6887 0.513585 -9.42904 -7.96532 -0.274207 0.792625 -0.256689
347 -6.64792 -8.10425 -7.46738 0.0964972 -0.33026 2.0235
56 -8.20495 -8.82744 -7.37266 -1.00661 1.71043 0.725756
921 -7.45308 -8.80867 -6.53336 0.485218 2.01602 0.143108
4228 -7.24801 -9.29622 -7.38317 -0.468053 -0.417779 0.298523
4284 -6.17729 -8.93821 -7.19753 0.125851 1.6093 1.00068
447 -5.38673 -8.55503 -6.53384 -1.68724 0.638898 1.46551
588 -5.71688 -8.03579 -7.42203 2.06318 -2.7394 0.429732
160 -6.35983 -8.83491 -6.08691 1.0949 -0.255294 -0.216416
690 -5.10449 -8.97989 -7.36731 -0.45313 -0.754869 -0.163617
308 -3.27937 -8.54923 -7.85635 0.144638 -2.19861 -2.57822
4573 -4.35296 -8.7371 -6.70868 -0.438301 -0.826165 0.381209
3986 -3.60505 -9.29154 -7.40625 -1.97368 -1.22898 1.28095
399 -4.54168 -7.63349 -7.92724 -0.37881 1.62395 1.40938
3959 -2.67023 -7.72485 -7.47508 1.12371 -0.269235 0.47632
689 -3.42935 -8.29792 -6.77839 1.29801 0.0806848 -0.808005
3716 -2.2982 -8.63194 -7.00604 -2.3373 1.60359 -0.224475
403 -1.99104 -7.8063 -6.51694 -0.160636 -2.88145 1.80938
20 -3.61692 -9.41997 -6.41211 -0.176986 -0.0498588 0.526474
299 -1.21557 -8.05541 -7.21192 0.219577 1.25561 -0.589384
320 -0.892025 -8.89215 -6.84436 1.36627 0.014524 0.329318
6881 -1.65989 -8.78614 -6.2029 -0.0885637 -2.92857 1.06488
938 0.0691228 -8.22255 -7.24394 -0.895099 -0.712594 -2.18122
4006 0.109237 -9.05834 -6.81997 -0.42255 0.793161 0.798187
3736 1.80916 -9.04056 -7.32678 1.36737 1.84134 2.11678
317 0.896413 -8.62562 -7.41705 -1.18295 1.46123 0.86909
77 3.57331 -8.48042 -7.00341 2.01419 -1.45937 -1.1677
990 2.51414 -8.53603 -6.98981 0.189344 0.280102 0.164141
32 3.67853 -8.92614 -5.98574 -0.653655 1.41427 0.543627
323 4.3768 -8.13932 -7.44764 0.131401 1.05853 1.30912
4462 7.67242 -0.314136 -5.66161 1.8457 1.97968 -0.622935
4302 4.42065 -8.32735 -6.25656 0.927255 0.356281 0.572858
4018 4.9414 -9.03842 -7.0203 -0.392263 0.895115 -0.344358
611 5.37901 -8.04599 -7.25408 1.27771 -1.84605 -0.121107
1041 6.29877 -8.08189 -6.93157 0.113458 -0.690287 -0.149551
142 6.65956 -6.90856 -6.51428 -0.104631 0.0919124 -2.22798
658 5.55653 -8.59481 -6.41807 -2.94184 -1.21045 2.12808
4311 6.80765 -8.88831 -6.11675 -0.215077 0.31193 -1.39605
3211 5.91206 -9.23066 -7.29142 -1.02837 0.603977 -0.647755
319 -1.42315 -9.15613 -7.77326 -2.76931 0.0388699 1.33543
47 6.96696 -9.261 -7.0619 -2.37791 -1.68418 1.3909
1728 -9.14506 -0.861556 -1.13732 0.0530307 1.24413 -0.153251
590 7.2295 -8.15612 -7.28117 -1.04592 1.31799 0.335966
962 9.09294 -9.03841 -6.59403 0.192152 1.81836 -1.45167
430 8.47999 -8.40253 -7.86679 1.58967 2.56646 -0.102887
291 8.49451 -9.37596 -7.42446 0.881232 -0.11098 -1.54656
3744 8.21287 -8.01288 -6.77007 0.701792 -0.235744 1.5066
345 -8.63681 -8.06131 -6.92344 -0.322009 -0.268165 1.18706
3271 -9.35562 -7.57724 -7.59998 1.77227 -1.59754 0.500047
3363 -9.04297 -6.67479 -8.48243 -0.263855 0.461526 1.37973
3307 -8.97796 -7.00954 -6.58853 0.959708 -0.441345 -0.415094
382 -9.50019 -8.07814 -6.6849 -1.03335 1.00213 -1.65838
103 -7.40488 -7.73872 -6.87465 0.799509 0.59478 -1.01801
396 -7.41958 -6.99755 -7.66552 0.0194555 3.85231 1.78715
2888 -7.64057 -8.00619 -7.83987 -0.960077 0.482611 -0.750747
408 -7.31701 -6.33599 -8.44583 -0.885636 0.336513 -0.89837
683 -8.55997 -7.04746 -7.5844 0.0978597 -2.7983 -0.181854
600 -5.53984 -7.09436 -6.69831 1.59532 -2.27033 -1.72899
3710 -5.34055 -7.11356 -7.68599 -1.10006 -0.0163929 -1.9482
14 -3.89506 -6.78124 -8.04962 2.70103 -1.69377 1.71762
349 -4.76301 -7.77548 -6.95648 0.297685 1.11754 0.997937
412 -4.70384 -6.57173 -7.09198 -1.90411 0.0137998 0.566462
597 -1.80596 -7.75357 -7.98322 0.477493 2.54653 -3.67197
3998 -2.05188 -7.0188 -7.1319 -0.422604 1.35212 -1.17384
1502 -3.75754 -7.37427 -7.18204 2.01703 1.15409 -0.0811455
874 -3.07171 -6.59151 -7.00455 1.68207 0.241638 2.97675
4237 -1.15948 -6.99577 -7.82738 -0.786199 0.528214 -0.0635071
884 -2.15112 -6.81668 -6.1973 0.159183 -1.77644 -0.63916
751 -1.20675 -7.16088 -6.48837 1.82742 -1.76755 0.155219
405 -0.441625 -6.37443 -7.01222 1.02464 -0.538231 1.38843
315 0.788896 -8.24085 -6.41297 -0.0775837 -1.28609 1.99895
3241 -0.0800634 -7.41177 -7.8721 1.15157 -0.144116 -1.16747
125 0.804878 -7.51709 -7.45059 -1.4538 1.5674 0.544306
416 -0.0606813 -7.34185 -6.66757 0.132607 1.38977 0.20407
753 0.603341 -6.66438 -6.99356 -1.13699 -0.0735996 -0.869868
519 1.55678 -7.97049 -7.21849 1.90187 -1.14866 1.03024
468 1.51069 -6.81461 -7.39808 0.95876 -0.650288 -1.01645
3300 2.41963 -6.79062 -7.85965 1.73449 1.17536 -0.262554
3011 3.23742 -6.40683 -7.08091 0.311581 -0.394161 -2.02027
610 2.82884 -7.6391 -7.27586 -0.601102 0.361064 -0.850926
616 3.19801 -8.0348 -6.17339 0.923194 2.26633 0.306802
128 2.38037 -6.8684 -6.74879 1.77877 -0.172935 -0.0254428
994 4.93933 -7.4134 -6.71215 -1.83297 1.59198 2.98727
609 4.60101 -7.24063 -7.94672 1.72724 0.971921 -1.60701
466 3.7916 -7.2473 -6.95338 0.187128 1.17707 -1.88712
474 4.948 -6.5414 -7.35162 -1.41199 0.634093 0.578538
419 4.6763 -6.58796 -6.44417 0.660347 -0.71827 0.746584
4024 5.75574 -7.58609 -8.12764 0.772505 -0.839779 1.19509
3739 5.81345 -6.96346 -7.18614 -1.06408 0.128582 0.257139
380 6.52696 -6.11525 -7.56543 1.88734 -1.41895 0.877761
666 5.82593 -6.09707 -6.64118 -3.2502 3.06387 -1.36892
152 6.85462 -7.1747 -7.67527 -0.433286 -0.154658 -0.139171
4027 7.58657 -7.3455 -6.74987 0.438327 -1.22473 0.651333
428 7.4804 -6.23927 -7.12501 -0.153288 -0.987076 2.76574
60 8.45144 -6.82771 -7.25132 -0.677859 2.50876 -1.73585
189 8.95776 -7.31123 -6.48406 2.09587 -1.8525 -0.371744
83 -9.51763 -5.80043 -8.10509 0.750294 -0.704583 -0.877164
3368 -8.65784 -6.23466 -7.1121 1.67529 0.352841 0.774399
3023 -9.30453 -4.90489 -7.73797 -0.609492 -0.944183 -2.6839
4333 -7.82124 -4.87279 -7.16328 -1.96273 1.48588 1.88296
356 -7.54377 -5.91394 -7.54342 -1.01048 1.29457 -1.9671
302 -6.66071 -4.98111 -6.99411 1.36527 -0.770218 0.758507
395 -7.04584 -6.17198 -5.76178 -0.951087 0.75833 1.82647
194 -7.86404 -5.7268 -6.63175 -2.66452 0.479715 -0.768115
1542 -6.89027 -6.08152 -6.69112 0.334361 -0.368536 0.872319
770 -5.7497 -5.31896 -7.3086 -1.54867 -0.00870481 -0.633071
4288 -6.98615 -5.30729 -6.15562 -2.96932 -0.292702 1.13422
3184 -5.60893 -6.20731 -7.10133 -0.0953704 -0.243916 -1.49155
748 -3.81537 -5.99787 -7.3185 -0.728978 -0.329319 -1.02364
168 -4.8126 -6.38638 -8.06978 -1.9504 0.339258 0.366669
739 -4.83576 -5.55476 -7.1583 -1.86811 -1.60137 0.330973
642 -3.98258 -5.20053 -6.39784 0.054197 -1.96166 -0.813576
932 -2.79426 -5.50639 -7.06031 -0.334197 0.611918 1.75195
441 -3.30725 -5.2097 -7.83683 0.316074 0.286103 0.407033
3335 -3.39786 -4.42607 -7.106 1.1061 1.90313 0.947868
3767 -2.10845 -5.37957 -7.72953 -0.0163887 -1.97621 0.199216
170 -1.95238 -6.04781 -7.06161 -0.689333 0.633118 1.59338
26 -1.05664 -5.42617 -7.19374 0.843156 0.385737 0.0644594
455 -1.0836 -6.16497 -6.26196 -1.57937 0.642724 -0.221143
3293 -0.239749 -5.13673 -7.62666 -0.705783 -0.952439 0.895808
1272 -0.115112 -5.32205 -6.59196 -1.31961 -0.543865 2.69981
988 0.913903 -5.3633 -6.53992 -2.19273 0.700038 -1.36736
702 0.843329 -5.66998 -7.53492 1.32165 -0.762171 -0.664117
174 2.26076 -5.20399 -6.387 1.17213 0.0223294 -0.62795
897 1.58427 -6.17288 -6.6781 -1.41398 0.809906 -1.1552
368 2.66306 -6.0534 -6.31761 -0.19041 2.02596 -0.575258
3295 2.27808 -5.87779 -7.53969 -2.19617 2.45473 2.05923
991 4.00791 -5.88014 -6.64569 -1.38657 -2.25271 0.0646522
183 4.1075 -5.67786 -7.59942 1.64114 0.222023 -1.30376
370 4.7458 -6.20272 -8.22053 2.11914 0.337475 -1.92141
1271 4.20391 -4.90249 -6.85661 -0.515224 -1.82808 0.0956323
326 4.96742 -5.59269 -6.88346 -0.111565 0.118942 0.256556
227 5.71299 -4.8063 -8.40877 -0.445398 -2.48058 1.06241
322 5.67371 -5.49448 -7.61941 -1.31237 -1.40523 0.986424
1245 5.69748 -5.03144 -5.9215 -0.675943 2.58565 -0.287019
754 6.65815 -5.10613 -7.7387 -0.169937 -1.0796 -0.239687
188 7.5316 -4.41084 -6.46009 0.732721 0.0664845 -1.6626
665 6.61587 -5.1421 -6.63167 0.65332 -0.554947 1.18335
384 7.48182 -5.25549 -7.08957 0.82513 -1.85155 -1.52274
3311 8.39644 -6.07988 -7.82605 0.546854 1.99917 0.309982
667 9.45104 -6.55197 -7.46543 -0.00605584 0.915345 -1.15328
237 9.46961 -5.72104 -6.96079 -2.10527 -2.46874 0.997594
4562 -8.98251 -4.66116 -5.81459 1.28406 1.68674 -0.747787
300 8.37225 -5.75783 -6.88521 -1.62743 0.370895 -0.950833
144 9.38388 -3.95988 -7.34645 0.00600653 -2.18802 0.447271
869 -8.67503 -4.21296 -7.14978 -0.277438 2.06752 0.340447
479 -8.17906 -3.40937 -8.11821 -0.589403 -1.09864 -0.401427
434 -8.77194 -3.18906 -7.15154 -0.717605 0.0104026 -0.693254
481 -7.1179 -4.15854 -7.51289 -0.426849 -0.900525 0.296611
3320 -7.76996 -3.40964 -7.18169 1.09839 -0.121337 2.14498
164 -6.13278 -3.27923 -7.58143 0.686541 0.362679 -1.42744
3318 -6.08195 -4.371 -7.62173 -0.970548 1.62981 1.34207
390 -6.38685 -3.61738 -6.72243 0.929507 -2.09118 -0.140557
12 -5.3039 -3.64016 -7.29663 -0.741103 -0.122767 -1.31128
1553 -5.63668 -4.35336 -6.65062 0.305941 -1.39188 -0.493171
452 -4.20787 -5.01198 -8.03886 0.302052 1.56555 -0.0713057
342 -5.1426 -4.4654 -7.82178 -1.75091 0.639247 1.00687
737 -4.604 -3.59882 -7.96489 -1.79013 -3.93662 0.787933
582 -4.40974 -4.30484 -7.24327 -0.338209 -0.141922 -0.258886
1069 -4.81561 -3.72663 -6.44044 -1.26662 -1.41243 -1.01096
743 -3.58361 -3.81241 -6.16073 0.597111 -1.66738 1.31391
735 -3.56132 -4.05953 -7.9724 -0.798867 0.0232668 0.159376
793 -2.31807 -4.37414 -7.42749 0.675467 -0.1589 -1.90639
742 -2.97281 -3.57785 -6.93136 2.08297 0.458369 -0.309691
457 -1.84432 -5.08633 -6.78438 1.73518 3.07051 1.44859
215 -1.33421 -4.3184 -7.65729 -2.24032 1.11442 0.355469
781 -1.66573 -4.1186 -6.57295 -0.588309 -0.289777 -1.19394
987 0.580075 -4.73528 -7.19191 1.70002 -2.89675 -2.42499
3773 -0.133464 -3.86409 -7.51006 0.359326 -0.105072 -2.60769
794 0.675515 -3.59717 -6.70066 -2.11487 -1.60828 -0.587648
462 1.65156 -5.13935 -7.31177 0.525456 0.226486 1.14237
841 1.87974 -3.25901 -6.1002 1.28511 -0.0175639 2.49522
692 2.32913 -3.57414 -7.00187 1.56652 -0.29232 1.50021
1039 0.968042 -3.93675 -7.56322 0.612442 -1.29468 -0.74057
407 1.52336 -4.24048 -6.7958 -0.406144 -1.26929 -0.368906
414 3.51455 -4.85596 -7.59417 0.122786 -1.90955 -2.2513
267 3.01535 -2.87351 -6.99502 1.28613 1.19263 1.70612
181 3.23237 -4.84937 -6.57155 -1.48645 0.375839 0.89279
231 3.47573 -3.78338 -7.49019 1.54943 1.37269 1.19414
371 5.25835 -4.66113 -7.05983 -0.549787 -2.01907 2.74366
229 4.3986 -4.07768 -7.43831 -0.118464 -1.22961 2.99171
711 5.08604 -4.12324 -6.2475 -0.13188 1.2904 -1.89616
377 6.04944 -4.17551 -7.57541 -0.283426 -0.435344 -1.213
471 5.44514 -3.5451 -7.16724 -0.834807 -0.927253 -2.61416
518 5.48939 -2.98604 -8.50395 0.477697 -1.57799 -2.40975
523 6.44207 -2.88839 -7.9215 -0.725026 -1.04858 0.685281
964 7.17603 -4.32807 -7.33378 -0.577609 1.80877 -1.11895
521 6.7873 -3.48678 -7.08452 2.11092 -0.978115 -2.27852
87 8.50912 -4.31879 -6.82047 1.21178 -0.939162 -2.23616
135 8.39597 -3.62693 -8.1486 -1.94806 -0.912211 -1.6539
392 8.56586 -4.91029 -7.52134 0.21044 1.23304 -1.79144
236 8.75109 -3.42436 -6.48156 0.259188 -2.40603 -0.133383
809 -7.97054 -2.38382 -7.61534 1.9607 -0.303464 0.486282
573 -9.1762 -0.9561 -7.06894 2.52656 0.404541 -0.599789
429 -8.99112 -2.23693 -7.45021 -1.0025 -1.67677 -1.63349
3788 -8.99758 -1.9676 -6.45327 -0.121884 -1.33243 -0.480334
578 -6.9728 -2.78764 -7.20772 0.194778 0.662551 -1.23384
774 -7.30234 -1.37896 -7.45831 0.0229559 2.03449 0.378483
816 -6.45598 -1.36721 -8.07481 -0.37764 -0.97035 -0.421275
244 -6.13085 -2.28486 -7.13041 0.340477 -2.34901 1.88192
4043 -5.13168 -1.87805 -6.82291 -1.38594 -2.05289 -1.7614
782 -3.91917 -3.38869 -7.12413 -2.18201 2.17584 -0.832205
4055 -4.83883 -2.54059 -7.50656 0.380528 3.16028 1.44143
498 -4.20558 -1.84301 -7.20337 0.64436 -1.00811 0.775038
688 -3.28858 -2.72478 -6.58212 -1.09978 -0.787631 1.22948
1033 -2.60035 -2.6382 -7.71985 -0.23939 1.18877 1.72687
458 -2.94927 -1.87744 -7.14092 -0.647155 0.618136 0.879434
791 -2.21047 -3.04086 -6.43852 0.628332 -0.952067 -0.72431
538 -2.19109 -2.01617 -6.42954 1.39126 -1.67273 -0.638241
463 -0.910839 -3.08767 -7.15352 0.666333 -0.359814 1.64239
216 -1.64774 -2.48022 -7.17761 0.149155 1.57735 -1.00905
3431 -0.648427 -1.97606 -7.25036 -1.54832 -1.41406 -2.63904
801 -1.14053 -2.42065 -6.15142 1.50667 0.269899 0.237888
1082 -0.498744 -2.96877 -8.0715 1.82271 1.08487 -1.33698
410 0.397918 -1.58572 -6.90631 -0.60596 -1.36736 -2.60243
176 0.459494 -2.94598 -7.68135 0.434024 -0.870526 1.09309
555 1.07129 -2.35405 -6.90933 1.05318 1.77608 -0.114753
223 1.45646 -3.01391 -7.44943 1.36653 0.83483 0.893779
515 1.50068 -1.30959 -6.67004 1.46614 1.15073 -0.33962
3402 3.95442 -2.48368 -7.23746 2.40528 -0.859507 -3.39748
1138 2.03437 -2.45622 -6.78489 -1.44188 -2.22462 -4.08506
852 2.64116 -2.32245 -7.71547 -0.792539 0.636268 -1.33231
517 4.7655 -2.83527 -7.76878 2.8659 -0.812069 0.0405919
569 4.41072 -2.33472 -5.80728 -0.1913 -0.939815 0.356216
559 4.92753 -1.02587 -7.51466 -0.649773 0.850728 -0.490953
1380 4.59348 -3.14763 -6.77201 0.153382 1.87965 -0.166741
850 5.67245 -2.57299 -7.4809 -0.104667 -0.802145 -1.96273
3451 6.45017 -1.91778 -7.67764 -1.99497 1.33934 1.04219
514 5.13981 -1.93952 -6.96947 -0.248802 0.182223 -1.27904
3356 7.14778 -2.49147 -7.25259 3.99874 1.38998 0.546466
861 7.81165 -3.39109 -6.95421 -0.251175 0.610077 2.86853
6661 8.11087 -2.74956 -7.78927 -0.403206 -1.73244 0.449644
572 7.40721 -1.58631 -7.35027 -0.455743 0.919102 -0.0223316
143 9.40389 -3.02854 -7.60071 -2.16805 1.35945 0.593386