ITEM: TIMESTEP
71000
ITEM: NUMBER OF ATOMS
6912
ITEM: BOX BOUNDS pp pp pp
-9.5244063118091962e+00 9.5244063118091962e+00
-9.5244063118091962e+00 9.5244063118091962e+00
-9.5244063118091962e+00 9.5244063118091962e+00
ITEM: ATOMS id x y z vx vy vz
4 9.53207 -9.08405 -8.67484 1.81847 0.770974 0.419768
51 -8.92267 -7.82151 -8.75766 0.379298 -0.572573 0.805033
3487 2.46854 -0.0857015 -8.75827 0.5742 -1.34545 -0.895131
290 -8.56104 -8.87667 -7.86348 -0.225419 0.64375 -0.112063
8 -7.96884 -8.71138 -8.81682 0.590512 0.00637691 -1.8931
294 -7.31807 -8.62883 -7.87877 0.0759147 0.402254 3.64801
4351 2.4303 -0.0735535 -3.85111 0.334286 -1.17434 -0.0360557
3767 -0.828227 -0.0710227 -7.43786 0.556273 0.5046 -0.343306
12 -6.4659 -8.80354 -8.81411 0.504454 -1.10622 -2.08245
11 -5.84619 -9.52983 -8.61447 0.936728 -0.642042 -1.77859
3777 3.28268 -0.0839458 -7.95995 0.425018 -0.866644 -1.3902
345 -6.62081 -8.01812 -8.28033 -0.394545 0.656399 -3.27862
3459 -8.68938 -0.015265 -8.70284 -2.38071 2.02976 1.62878
4079 8.84065 -0.194347 -5.42837 -0.170834 0.13336 0.328554
16 -5.05046 -8.68837 -8.8908 -0.289227 -2.41963 -0.673929
1938 -2.43075 -2.29953 -0.0876962 -0.514164 0.667382 -0.586596
193 -9.46014 -3.05784 -9.3905 -0.715274 -0.510191 -0.630876
597 -1.68402 -9.41383 -6.42081 1.93376 -0.111796 1.42086
20 -3.19749 -8.69468 -8.76768 -1.05041 -0.851771 3.24179
67 -2.32837 -7.79523 -8.69121 1.73398 -1.54218 -2.94374
2005 4.70194 -1.82412 -0.0665383 -0.469277 0.985733 0.174494
1469 1.3435 -9.43383 -1.40369 -1.04716 0.185309 1.15853
24 -1.57581 -8.77547 -8.93739 -0.702591 -1.61629 -0.659551
357 -1.55093 -7.72074 -7.99315 0.248559 -1.67664 -4.54258
28 -0.123482 -8.75377 -8.56441 0.440826 -0.756687 -0.623915
71 -0.920717 -7.88464 -8.89242 -0.66406 1.12757 -0.825577
254 -4.05286 -0.897063 -9.47433 1.40266 -0.501369 -2.15082
66 -2.49365 -7.15684 -9.47523 -0.561426 -0.704276 0.528843
32 1.80639 -8.69065 -8.57462 -0.68001 -0.366814 -1.24934
36 3.1058 -8.67652 -8.80746 -0.844921 0.439883 -0.475677
1886 -4.04105 -4.21797 -0.102399 0.28327 -1.23093 1.08615
4649 6.53742 -0.284345 -3.01198 -0.412935 0.861425 -0.235116
40 4.57085 -8.78807 -8.81984 -0.254606 1.92098 3.37075
322 3.87618 -8.71025 -8.0714 2.54623 -0.858485 -1.2171
1909 4.66528 -4.71483 -0.00726071 -0.836629 -0.815732 1.09084
4929 3.12387 -0.235279 -1.6634 -1.12728 -0.293815 -0.646603
44 6.27524 -8.6973 -8.88151 -0.329882 -0.442597 -3.61082
87 5.50398 -7.96941 -8.79645 -2.3002 -0.647307 0.727477
48 7.93269 -8.82483 -8.58194 -1.35564 0.349379 -2.32755
7 -7.17753 -9.44915 -8.64995 2.13693 -2.75328 0.0731334
91 7.11556 -7.8736 -8.89162 0.439289 -1.50937 0.536907
1745 -3.13163 -9.51806 -0.0522572 -0.528726 -0.460882 -0.777615
97 9.52409 -5.96881 -9.44677 1.32191 -0.0364993 0.247725
95 8.90545 -8.03118 -8.66283 -1.0694 -0.820702 -0.65287
1897 -0.226921 -4.69363 -0.0747492 -1.70812 -1.38797 0.681323
337 -9.31909 -8.00431 -7.88507 0.26533 0.730729 -0.338195
338 -8.80195 -6.94448 -7.71183 0.229261 -0.451583 -0.573197
99 -8.8598 -6.17954 -8.64556 -0.648627 0.173897 -0.0491531
4069 4.83697 -0.256582 -6.37057 0.0938078 0.758384 0.860221
341 -8.14734 -7.95322 -8.10878 -1.75702 -0.702379 -2.37469
55 -7.38298 -7.87738 -8.94357 -0.937197 0.212889 0.0343753
56 -8.17624 -7.15213 -8.74584 1.1264 0.721772 -2.72386
103 -7.29648 -6.39751 -8.78221 -1.80587 -1.76473 0.259131
309 -1.58413 -9.38285 -8.10738 1.1347 1.14096 0.00521014
342 -7.1504 -7.32216 -7.94439 -1.37186 -0.971718 0.34045
1471 2.2882 -9.40604 -0.76041 -2.9874 0.253716 -0.611711
59 -5.60142 -7.88408 -8.62507 0.278618 1.40648 -0.0262787
60 -6.41519 -7.04251 -8.71862 1.30226 -0.571273 1.39202
1898 0.731856 -3.8942 -0.136153 -0.0949139 -1.63073 0.150569
63 -4.08193 -7.90102 -8.6765 -0.768787 -0.580826 1.43207
64 -4.85928 -7.06153 -8.67907 -0.438305 -0.0764071 -2.13752
111 -3.9256 -6.34884 -8.9082 -0.792836 0.861461 -1.34787
4331 -5.63944 -0.0446782 -4.04762 0.368228 -1.79379 0.608571
68 -3.26682 -7.20658 -8.7494 -0.594468 -0.869147 0.187862
401 -3.30828 -6.28311 -8.00614 0.854083 0.757537 -1.48387
354 -2.521 -7.1234 -7.9612 1.30583 0.252846 -0.0906274
72 -1.56955 -7.01018 -8.95822 1.138 -0.957114 0.649512
119 -0.915601 -6.26655 -8.73744 0.876666 -1.65082 -0.84073
405 -1.66902 -6.38728 -8.12905 -1.08814 -0.253665 -0.729473
4363 7.23851 -0.0667944 -4.25013 1.17795 -1.02829 0.39367
76 0.0972337 -7.06833 -8.82635 0.11145 1.2529 0.454724
4943 8.78494 -0.100505 -0.728563 1.17528 -0.593559 -0.383067
118 -0.815462 -5.46197 -9.47272 -0.00468095 -2.10756 -1.13188
75 0.786372 -7.83696 -8.69794 -1.03392 -1.57346 2.37732
80 1.6545 -6.95134 -8.58689 -0.635062 2.04077 0.954942
79 2.47164 -7.77831 -8.73331 0.164728 1.16819 -0.715819
84 3.21227 -7.07302 -8.68974 0.86358 1.12783 1.0026
417 2.9616 -6.27249 -7.92215 0.779491 -1.45576 -0.872058
127 2.33391 -6.1691 -8.83922 -2.15472 -0.27587 -0.745485
142 8.56428 -5.59923 -9.44944 0.720137 0.523609 -1.05735
102 -7.16039 -5.56921 -9.44476 2.259 0.380683 0.199472
83 3.81634 -8.00482 -8.91633 -0.0730078 2.38484 2.89658
88 4.80406 -7.0907 -8.6216 0.610614 -0.420261 -0.972117
131 3.94926 -6.23302 -8.65305 0.537505 -0.336237 -0.0331675
370 3.96668 -7.24859 -7.99477 -0.573306 0.224762 -0.76563
3493 4.71025 -0.187202 -9.39256 -0.0975154 0.963873 0.900874
92 6.25438 -7.15728 -8.80883 2.02839 -0.363386 0.292116
1463 -0.707974 -9.47844 -0.788404 0.762082 -0.414728 0.890726
96 7.94675 -7.3267 -8.81916 0.453638 -0.916726 1.28933
139 7.12357 -6.50833 -8.83724 1.17461 0.0529188 -0.286474
4347 1.04674 -0.300057 -3.92557 1.24376 -1.83359 -2.68361
133 4.72151 -6.36216 -9.319 1.15042 -0.208396 -1.02063
583 -7.02104 -9.47219 -5.52189 -1.92776 1.70218 3.32387
52 -9.44515 -7.03177 -8.4343 -0.200473 -0.049539 1.69614
143 8.80706 -6.21124 -8.66285 0.773445 0.225402 -1.38045
134 5.50135 -5.80329 -9.51377 0.707809 1.38987 0.112867
100 -9.36794 -5.28181 -8.60008 0.337675 1.06895 -1.13134
147 -8.60341 -4.63445 -8.63691 -0.153305 -1.47373 1.32704
1196 5.5576 -9.51668 -2.291 -2.01647 -0.809802 1.25883
104 -7.94425 -5.52742 -8.72311 -0.804762 0.609542 -0.802472
151 -7.00632 -4.60162 -8.56378 -1.50328 0.767043 -0.668172
107 -5.586 -6.10715 -8.67091 0.51937 -0.114326 -0.889416
108 -6.27841 -5.38841 -8.52537 1.6441 0.133443 -1.57966
155 -5.4715 -4.78323 -8.86065 0.177549 0.113329 0.94161
112 -4.68819 -5.53007 -8.82184 0.5492 0.49435 2.36943
159 -4.01432 -4.61841 -8.67031 -0.18985 -0.433314 -2.73212
398 -3.85789 -5.46189 -7.98415 1.30134 1.4211 -2.99403
4367 8.86594 -0.133815 -4.20391 0.639328 0.79448 -2.25974
115 -2.36035 -6.37181 -8.78073 0.948352 -1.76109 -1.18304
116 -3.17879 -5.6357 -8.87694 3.05736 1.63322 -1.36974
163 -2.64841 -4.65618 -8.69817 0.476862 -0.609995 -2.96483
449 -3.20264 -4.77602 -7.80795 -1.78008 1.14119 0.405607
331 7.01412 -9.36653 -7.12538 -0.540681 0.843917 1.23064
120 -1.77882 -5.53789 -8.78502 -0.909175 -0.413725 0.535949
406 -0.886959 -5.53677 -8.10236 0.885305 2.74946 -0.38627
453 -1.71345 -4.76839 -8.16392 -0.830876 -0.325191 1.37883
4939 7.22109 -0.243424 -0.625194 -0.827712 1.31737 -0.892874
123 0.880521 -6.24445 -8.58167 -0.652129 0.544158 2.51722
124 0.0118589 -5.4322 -8.68321 0.996056 0.0242749 -0.321932
128 1.68881 -5.46004 -8.6843 0.0418413 -0.45566 1.11602
171 0.779771 -4.79403 -8.7156 -1.01372 -0.514322 -1.02355
177 3.25937 -4.88812 -9.45478 -0.469731 -2.25136 0.395342
461 1.55438 -4.76588 -7.85781 2.51581 -1.08834 1.53754
414 2.36793 -5.3578 -7.91072 -1.28006 -0.688876 -2.41206
132 3.00646 -5.4135 -8.70958 -0.165321 0.959574 -0.535474
175 2.4228 -4.68388 -8.80981 -0.261903 2.09505 -0.741191
186 7.12978 -4.03471 -9.49581 0.477386 2.08721 -2.11317
465 3.22701 -4.64825 -7.97232 -1.14216 0.698413 -0.93554
599 -0.660814 -9.46363 -5.80145 -0.0697486 0.352202 1.19142
136 4.76962 -5.57527 -8.46126 -1.06798 -0.265781 1.63805
179 3.90594 -4.82812 -8.61037 0.131214 -0.603047 1.04322
469 4.74545 -4.86919 -7.83813 -1.79659 1.39819 -1.82225
94 8.91501 -7.0381 -9.21445 -1.1972 -1.07063 0.0486928
135 5.65084 -6.33428 -8.5489 1.39211 -1.37581 0.332134
140 6.40479 -5.7098 -8.63117 -1.22847 0.224652 3.15569
183 5.5775 -5.02018 -8.71378 0.68805 -1.14273 -0.233438
4359 5.5761 -0.00396263 -3.90641 1.5846 0.14076 0.276834
144 7.94101 -5.77739 -8.76013 2.13328 2.17507 -2.5936
4345 0.0467187 -0.0640188 -4.78582 -0.966573 0.720595 -2.00783
430 8.86127 -5.42162 -7.95925 1.46295 1.3722 -0.543229
433 -9.35066 -4.56134 -7.85853 0.64087 1.05252 2.42219
191 8.76286 -4.69831 -8.67593 -2.38911 -0.255158 0.722765
148 -9.41168 -3.9281 -8.83406 -0.142154 -0.666881 0.491909
195 -8.6708 -3.10311 -8.78874 -0.211943 0.586965 -0.458808
152 -7.85704 -4.02332 -8.84556 1.02364 0.670655 0.00742356
199 -7.22771 -3.23511 -8.80561 -0.686305 0.897291 -1.25426
156 -6.02488 -4.05341 -8.8436 1.22033 2.12851 -1.43363
234 7.09512 -2.50694 -9.41561 -0.0812516 -0.805493 0.398717
441 -6.10986 -4.60709 -7.97191 -1.41289 1.58802 -1.92278
4897 -9.4676 -0.130599 -1.59726 0.852534 0.64602 0.127414
61 -4.86608 -7.85033 -9.49942 -2.14077 0.50914 0.641835
160 -4.85574 -3.91345 -8.88649 -0.0395176 0.582352 -1.17174
446 -3.92979 -3.94615 -8.0413 -2.88139 -2.15422 -0.962236
4925 1.73321 -0.108042 -1.79519 -1.0438 1.00284 1.1131
164 -3.09291 -3.77583 -8.56647 -2.04749 -1.13415 0.365225
5221 4.53542 -0.172089 -0.00863512 -1.09227 0.791407 -0.0408959
130 4.06812 -5.52114 -9.44641 0.291103 0.703261 1.22503
167 -0.861515 -4.65312 -8.76336 -0.159773 -1.05368 0.063739
168 -1.74115 -3.99628 -8.77694 1.31804 -0.424914 1.29531
3783 5.57711 -0.0696442 -7.06293 -2.78281 -2.19444 -1.17553
501 -1.51217 -3.18121 -8.00938 1.38034 0.100889 -2.3972
86 5.43947 -7.03124 -9.39195 1.39641 -0.0681423 0.890643
172 0.0621744 -3.99161 -8.73974 1.96601 1.75348 -0.191937
215 -0.702714 -3.22052 -8.90199 1.67223 0.627031 2.27612
105 -6.27673 -6.26343 -9.39686 0.0155629 -0.0493191 -1.105
45 8.09866 -9.41338 -9.50632 -0.58079 0.591808 -1.00982
176 1.59305 -3.98375 -8.69425 -0.146197 0.251302 0.467472
219 0.793912 -3.31364 -8.75341 -1.24954 0.1371 1.46918
509 1.55291 -3.06748 -8.00892 -0.370155 0.575792 -1.1669
1858 3.73319 -5.57929 -0.0936181 -0.321293 -1.12031 0.579076
180 3.33286 -3.91394 -8.73719 -2.17295 -1.47767 0.647427
1473 3.07077 -9.38993 -1.54028 0.295182 1.66802 1.50943
462 2.24154 -3.98763 -7.92406 1.62766 1.39408 0.142512
1461 -1.57264 -9.49535 -1.56241 -0.972109 -0.88017 0.408578
184 4.96524 -4.20318 -8.58682 1.13255 -0.466829 -0.382403
466 4.10697 -4.04158 -7.92358 0.48523 -0.0167411 -2.0473
517 4.92193 -3.36856 -7.95689 -0.724982 2.58015 -1.05186
188 6.38038 -4.12614 -8.70924 0.00978021 1.78336 0.97564
470 5.55055 -4.13501 -7.60657 1.01119 -0.131166 0.117539
187 7.20689 -5.10909 -8.75946 0.220376 -2.8059 -0.33637
192 7.92032 -3.94234 -8.81968 1.83558 1.16302 0.320757
235 7.14574 -3.33177 -8.67466 -0.173508 -0.474382 -1.33602
525 7.98139 -3.19156 -8.01624 0.756565 1.88647 -2.00876
239 8.80007 -3.03498 -8.6833 2.18556 -0.810807 -1.20628
875 -5.5248 -9.49012 -4.03913 0.288267 -0.0821152 1.62515
196 -9.50261 -2.15169 -8.73601 0.63514 0.719775 0.273119
243 -8.76967 -1.41963 -8.84905 -0.586802 0.675776 1.99529
481 -9.44411 -3.20561 -7.97198 -0.960758 2.56888 -2.00234
482 -8.77578 -2.36133 -8.01705 -0.388951 0.596657 -0.0997888
529 -9.41182 -1.44344 -7.81291 -1.33813 2.21077 0.00203413
185 6.46642 -4.86397 -9.34862 2.16797 0.126094 -1.84586
200 -7.93449 -2.376 -8.76878 0.0542618 -2.24183 -1.06938
533 -7.96738 -1.56556 -8.052 -1.13997 -0.403842 -1.9853
486 -7.27385 -2.39667 -8.05151 0.527342 -1.60836 -0.583673
121 0.120625 -6.17269 -9.4622 -0.892836 -0.0966374 -2.12021
203 -5.52585 -3.26088 -8.76938 -0.572126 0.0250564 0.33975
204 -6.40111 -2.59495 -8.58262 1.57677 0.507898 -0.366127
251 -5.60961 -1.84419 -8.60529 1.14636 0.748836 0.436389
207 -3.97862 -3.22792 -8.80685 1.55374 0.572218 -0.723824
208 -4.79449 -2.53258 -8.91591 0.551282 -0.760649 0.42804
255 -4.21759 -1.71348 -8.7528 -0.494697 2.23029 -1.46039
494 -3.94251 -2.42158 -8.0057 1.72538 1.2602 -1.13848
211 -2.29846 -3.14783 -8.86112 0.644796 0.976558 -2.0907
212 -3.23117 -2.46963 -8.68943 -0.512707 0.311079 -1.879
259 -2.48022 -1.6202 -8.83761 -0.690487 0.361387 1.04209
497 -3.11794 -3.08728 -7.83779 -0.269107 -2.18887 0.501695
498 -2.29227 -2.36269 -8.07858 -1.15505 0.203923 0.484547
545 -3.10994 -1.45141 -8.04317 0.764195 0.234221 -1.23079
216 -1.48395 -2.40499 -8.80926 -0.426582 -0.754207 0.879363
263 -0.825211 -1.60103 -8.89087 1.2966 -0.166584 0.179597
502 -0.733932 -2.27919 -8.18631 -0.817113 -0.28639 -1.03418
549 -1.61809 -1.5263 -8.12726 -1.87774 0.766352 -0.0242186
58 -5.59458 -7.09762 -9.38401 -0.0166341 2.99251 0.76067
220 0.0230824 -2.24505 -8.89267 1.93186 -3.05154 -1.02249
25 0.0133344 -9.34609 -9.31461 0.563274 0.150751 -0.686636
224 1.60185 -2.54277 -8.91064 -0.409556 -0.767645 -0.411402
506 0.774827 -2.47771 -8.10345 0.345892 0.348817 0.36437
258 -2.36929 -0.842244 -9.49541 -0.970979 0.198017 -1.5259
223 2.35362 -3.33033 -8.86547 0.779185 1.2125 -0.627204
228 3.18437 -2.76365 -8.73808 -0.295446 -0.751599 0.872245
70 -0.670514 -6.90898 -9.43847 0.0256161 0.0328784 -0.152216
227 4.21545 -3.35601 -8.69737 1.0946 -0.90735 1.037
232 4.79788 -2.56963 -8.71423 0.375864 -1.54762 1.70185
514 4.14597 -2.48413 -7.93344 2.25468 0.681419 -1.77465
565 4.9102 -1.79997 -7.88908 0.930473 3.3736 1.6772
231 5.61975 -3.35337 -8.71129 1.00766 2.25905 -1.27623
521 6.20296 -3.37026 -7.83769 -0.223988 -1.55787 -0.466262
4631 -0.979291 -0.0274532 -2.51291 0.976975 0.254177 -2.10193
236 6.38894 -2.66777 -8.59413 1.22314 0.341487 -1.46943
518 5.51683 -2.5931 -7.94599 1.67617 0.100663 0.700341
887 -0.95531 -9.49671 -4.20469 -1.22312 0.239349 -1.82587
4329 -6.39296 0.0256171 -4.90947 -1.36905 1.35046 0.424091
240 7.85508 -2.40149 -8.61304 -0.27827 -0.050751 0.469932
522 7.12059 -2.33637 -7.53094 -0.12601 -1.87401 1.40838
573 7.98283 -1.65774 -7.91447 1.41971 1.21588 2.33243
4057 -0.0283199 0.00270367 -6.37873 -0.262726 1.36734 -1.7178
1177 -0.0985583 -9.30501 -3.39712 0.744027 0.823526 -1.20048
287 8.70254 -1.56312 -8.59138 -1.56691 1.52545 2.82366
3791 8.77053 -0.132511 -7.01179 -0.0890672 0.290827 0.291639
4901 -7.90854 -0.0396684 -1.58543 -0.912184 -0.753757 2.17004
244 9.38926 -0.67626 -8.70769 0.19419 -0.0972486 2.57366
247 -7.13492 -1.57264 -8.83663 -0.856575 0.0871486 0.0521681
248 -8.08137 -0.784349 -8.77266 -0.472811 1.3819 -1.66035
1167 -3.77674 -9.51123 -2.31637 -1.30894 0.793322 0.0279579
4909 -4.81685 0.0137351 -1.61577 1.07691 0.891392 0.149773
1161 -6.34982 -9.46405 -3.09074 -0.898441 1.06791 1.19832
252 -6.22901 -0.822845 -8.87583 0.995141 -0.313912 -1.41601
305 -3.14419 -9.2914 -7.94105 0.122042 0.270407 -2.33065
256 -4.86908 -0.944621 -8.90022 0.177694 -1.38376 -1.56194
1810 3.90629 -6.99692 -0.112054 1.00174 0.123896 3.19421
4903 -7.31962 -0.09642 -0.718038 1.13289 -0.485508 0.270878
579 -8.75135 -9.42361 -5.37363 -0.737834 0.289804 -0.726344
4921 0.118203 -0.127188 -1.66993 1.35468 -0.1335 0.906898
2 -8.76836 -8.71384 -9.37683 0.714011 1.34804 0.763251
1179 0.635356 -9.36191 -2.33706 -1.22204 -0.530072 -0.316389
260 -3.24071 -0.718769 -8.86157 1.41168 -1.59011 0.0686209
299 -5.58047 -9.45219 -7.23646 -0.770321 -1.1136 0.791967
264 -1.48877 -0.679609 -8.85422 0.477662 0.230149 -0.90128
181 4.88246 -4.91858 -9.48753 0.453038 -0.741142 -0.586605
1173 -1.7594 -9.41762 -3.47334 0.803032 2.80563 0.54561
2001 3.03314 -1.72173 0.0510272 -1.41925 -1.72433 2.69199
268 -0.173385 -0.698108 -8.80314 0.555318 -0.197364 2.53999
267 1.03716 -1.51814 -8.79215 -0.576312 0.388826 1.35742
621 7.96325 -9.32519 -6.3238 0.370318 -0.919018 -0.30861
4913 -3.13527 -0.00479173 -1.63228 0.808215 2.81132 -0.544463
13 -4.9062 -9.46369 -9.47899 0.0185971 2.45145 -1.24937
272 1.52617 -0.688792 -8.79469 -0.0427827 1.22407 -0.153714
557 1.61674 -1.60691 -7.97297 -1.98597 -0.0624894 0.514478
178 4.09768 -4.22345 -9.39506 -1.72754 0.904845 0.764547
907 7.00797 -9.49074 -3.85816 0.0469837 0.25949 1.80516
1727 9.06691 -1.77917 -0.755048 -0.716803 -0.716516 -0.930513
271 2.31587 -1.50743 -8.6702 1.0267 -1.4999 2.6449
276 3.32496 -0.964488 -8.65373 0.51804 0.044895 -2.18043
1165 -4.73954 -9.45696 -3.01195 0.117584 0.370861 1.47779
1985 -3.22695 -1.49089 -0.111017 -0.342834 1.1681 -0.865256
275 3.92349 -1.79515 -8.74136 0.498657 -0.926781 -0.142438
280 4.70865 -0.936504 -8.67903 2.03604 -0.262927 -0.488431
273 3.13511 -1.57514 -9.36999 0.301666 0.531989 -0.46713
562 4.0432 -0.985328 -7.91427 -0.396911 1.55052 -2.11195
4643 3.94494 -0.10819 -2.42823 3.69021 -0.00524908 -0.302402
279 5.55356 -1.6571 -8.65191 -0.571648 -0.366991 -0.506772
284 6.33369 -0.791348 -8.76143 1.0671 0.60478 -1.28768
569 6.158 -1.81574 -7.88455 2.68637 0.319371 -1.59653
566 5.65804 -0.799448 -7.94649 -0.420647 -1.42686 -0.579818
1183 2.05362 -9.26912 -2.31625 -0.649668 -1.62917 1.43043
283 7.12461 -1.58917 -8.46739 -0.120629 1.17184 1.96433
288 7.93527 -0.74795 -8.74679 0.413147 -0.615998 -2.47853
297 -6.42288 -9.52249 -7.84354 2.86924 -0.516692 0.556816
873 -6.36621 -9.39964 -4.7355 -0.713991 0.258381 1.19029
42 7.26153 -8.71463 -9.36229 0.862992 1.11245 2.38556
301 -4.84519 -9.30313 -7.86352 -0.0841989 1.7466 0.214082
574 8.67154 -0.731598 -7.91671 -0.361974 1.06158 0.399531
619 6.99426 -9.46534 -5.68424 1.45916 -0.306416 0.0675427
292 -9.44306 -8.67052 -7.05894 -1.45267 0.828742 -1.05105
625 -9.3665 -7.87677 -6.39721 2.87738 -1.42063 -1.8426
3781 4.82662 -0.212056 -7.86945 -1.22129 -1.11894 -1.88753
296 -8.01363 -8.67915 -6.93466 -0.636216 -1.75323 1.57084
298 -5.66914 -8.64974 -7.93593 0.913867 0.6917 -0.284267
300 -6.37225 -8.61033 -7.2581 0.349649 -0.00543173 0.759292
586 -5.6625 -8.54919 -6.37842 -0.2549 -0.444344 -0.040553
349 -4.79036 -8.00507 -7.8764 -1.98245 1.10665 2.58933
3753 -6.21457 -0.123197 -8.0251 1.18564 -1.55562 1.57272
302 -4.05079 -8.64026 -7.99794 0.70519 -0.405162 2.25213
304 -4.88003 -8.7459 -7.05886 -1.60881 1.80488 0.809822
590 -4.20129 -8.75156 -6.41826 -2.3444 -0.0790369 -0.211199
1986 -2.40057 -0.827873 -0.169233 0.829049 0.309224 0.0164004
78 2.30122 -7.07326 -9.485 0.245511 0.0168327 -1.46202
306 -2.32819 -8.68955 -8.10304 -0.671107 -0.850279 0.459265
308 -3.43619 -8.72475 -7.09524 -2.12975 -3.4753 -2.14536
594 -2.4582 -8.73005 -6.71797 -1.13102 0.484636 -0.624981
329 6.20599 -9.44973 -8.07251 0.914193 2.16783 0.99286
312 -1.60499 -8.7659 -7.28723 0.140129 1.87858 -0.534751
359 -0.991995 -7.77742 -7.17019 -0.36163 -0.862185 1.02608
1181 1.46409 -9.40696 -3.11919 2.21672 0.864503 -0.32105
310 -0.973701 -8.65918 -8.03299 2.47428 2.44442 -0.160614
314 0.822292 -8.50312 -7.76237 0.221911 -2.29174 2.82922
361 -0.119546 -7.8641 -8.03665 0.714681 -1.01828 -1.15246
316 -0.18637 -8.66893 -7.21388 -0.465847 -0.517703 1.81958
365 1.66276 -7.95204 -7.92935 -1.25215 -0.316072 -1.29408
320 1.49429 -8.65777 -7.02145 0.694312 0.633484 -3.15015
363 0.70718 -7.88835 -6.88923 -0.641878 -1.47298 -0.279951
85 4.70509 -8.00018 -9.55276 -1.95205 -1.39102 -1.44132
122 0.893678 -5.45905 -9.5483 -2.2177 -1.44235 -0.862723
318 2.52277 -8.60897 -7.85227 0.138649 -0.999895 0.43097
324 3.3296 -8.69716 -7.07135 1.08501 0.328759 -0.793105
367 2.3742 -8.05322 -7.03829 -1.14473 -0.783676 -0.851472
189 8.01605 -4.73987 -9.52943 -1.09422 0.431191 -1.17611
1723 7.39839 -1.7054 -0.669192 0.405806 -0.0465746 -0.274744
328 4.8313 -8.73317 -7.23905 -0.00418218 -0.363108 1.48513
371 4.0589 -8.09727 -7.24596 1.70412 0.999203 -0.969137
373 4.72412 -7.86514 -8.09841 1.13201 0.273956 1.59416
1443 -8.63459 -9.54335 -0.950187 1.61934 -2.48491 0.580687
326 5.46648 -8.68271 -8.17217 -1.15795 0.254442 1.13592
332 6.17743 -8.7748 -7.2441 -1.96015 0.00522823 1.28183
198 -7.25839 -2.37 -9.505 0.767908 0.842211 -0.861949
330 6.94191 -8.66266 -8.12666 0.0470685 -0.910527 0.642275
381 7.71896 -8.00555 -8.00298 0.223706 -0.147536 -0.701163
222 2.4868 -2.35264 -9.4694 -0.650311 0.723885 -1.32944
336 8.02385 -8.54852 -7.06809 0.0380806 -1.63339 1.01265
379 7.05524 -7.93775 -7.11718 -0.0429447 -1.08951 -2.52417
3765 -1.62477 -0.0158893 -8.06555 -0.523399 0.0290027 -0.686856
334 8.73182 -8.73444 -7.96769 -0.784518 0.763192 -2.40339
383 8.84257 -7.94597 -7.00251 1.96727 -1.53964 0.189811
622 8.76676 -8.71148 -6.35895 1.15786 1.80847 0.949663
339 -8.50029 -7.87544 -7.06644 2.28629 3.4129 -0.926891
340 9.43215 -7.26895 -7.2109 1.16621 -2.27644 -1.51269
387 -8.66591 -6.21539 -7.02207 0.507765 0.239743 0.985997
626 -8.67365 -7.10433 -6.42391 -1.77319 0.00676997 0.603502
389 -7.87311 -6.37526 -7.86934 -1.56936 -1.34381 -2.20323
344 -7.8241 -7.1276 -7.21444 -1.06822 -0.673849 2.46148
343 -7.1309 -7.84076 -7.06134 0.321351 -1.49282 0.378045
391 -7.11683 -6.21903 -7.01934 -0.970554 -0.208934 -1.75571
347 -5.48273 -7.71785 -7.16715 -1.09569 -2.78899 0.735695
346 -5.63813 -7.00163 -7.98639 1.31761 0.731047 -1.35668
348 -6.33438 -7.12962 -7.27206 -1.25684 0.523439 -1.29459
393 -6.51622 -6.2506 -7.91622 0.397361 -1.11742 3.21058
395 -5.6883 -6.1765 -7.24922 -1.01403 -0.598892 0.539127
350 -3.95498 -7.11965 -7.95706 1.57464 -1.82884 -0.508694
351 -3.89016 -7.87455 -7.16011 -2.241 -0.0492327 1.31131
352 -4.78126 -7.08427 -7.23634 0.306422 -1.54706 1.11186
638 -4.06848 -6.96826 -6.30138 -2.06854 -3.35713 -0.845516
353 -3.20281 -7.91791 -7.95537 0.580439 3.89269 -0.748389
355 -2.38421 -7.88431 -7.27072 -0.24381 -0.635225 -1.8267
356 -3.24389 -7.03812 -7.09623 1.08749 1.13907 -0.69284
642 -2.32387 -7.05094 -6.47594 1.28519 -0.822351 -0.117053
403 -2.44254 -6.21573 -7.02641 -2.16812 -0.391971 1.63534
358 -0.722802 -7.10242 -8.16537 1.75617 -0.918803 -0.92235
360 -1.68966 -7.00616 -7.20188 2.26482 -1.8715 0.150444
364 0.048665 -6.91353 -7.14149 0.202436 -0.787374 1.3784
649 -0.193244 -7.91374 -6.49849 -2.18055 0.569521 0.461254
650 0.864386 -7.18326 -6.14209 -1.26113 -0.923675 -0.194462
409 -0.00013767 -6.28514 -8.05008 0.792413 1.17759 0.0868729
362 0.751661 -7.22046 -7.85736 -1.63534 -1.90156 1.97831
368 1.6532 -7.31959 -7.19924 1.0866 0.154124 0.199075
366 2.50828 -7.15008 -7.81101 -0.182356 -1.38243 0.724591
369 3.25741 -7.87197 -7.84472 -1.47153 0.703205 -1.08331
372 3.2526 -7.40165 -6.96602 0.262346 3.1285 1.77841
415 2.42302 -6.2773 -7.01621 -0.297954 -2.0975 0.157334
376 4.73339 -7.16615 -7.22812 0.87157 -0.838886 -1.87658
658 3.97768 -7.19237 -6.32189 1.33454 1.43487 1.88003
419 3.96615 -6.36102 -7.00486 0.0984031 -0.297004 1.21811
377 6.25403 -7.89858 -7.89336 1.36749 0.160692 0.752813
425 6.40352 -6.34577 -7.81159 1.70706 0.0273021 -0.0387473
374 5.48348 -7.1428 -7.94197 -1.40997 2.34009 0.802625
375 5.49286 -7.9179 -7.17998 0.485805 0.182611 -0.294531
380 6.27765 -7.18692 -7.1696 -1.1732 2.33773 -1.04416
429 7.88753 -6.47798 -8.04491 2.29234 -1.01517 0.346712
378 6.98799 -7.20418 -7.95393 0.286771 -0.391731 -1.12398
384 7.92894 -7.35738 -7.20038 -1.574 0.577029 -0.332482
385 -9.40709 -6.12532 -7.81586 0.896262 0.763583 0.0839709
382 8.63287 -7.30728 -7.91028 -0.71655 0.765291 -1.82435
386 -8.5217 -5.54313 -7.85748 0.741276 1.04339 0.0494592
674 -8.63666 -5.39467 -6.4475 -3.29741 0.932059 0.626338
435 -8.62306 -4.68873 -7.17465 -0.167822 -0.174617 0.436788
721 9.43217 -4.56852 -6.32074 -1.74779 1.04692 0.772963
437 -7.80236 -4.71614 -7.96644 -0.591571 0.501596 1.0636
390 -7.22891 -5.56776 -7.99823 2.58633 0.546693 -1.37376
392 -7.63362 -5.36409 -7.094 1.9378 -0.129201 0.228675
439 -6.93573 -4.54575 -7.2968 -0.775853 0.989525 0.65146
678 -6.92856 -5.38592 -6.39279 -0.0481569 -0.37927 -0.911715
725 -7.76005 -4.68225 -6.36559 -0.671613 -0.713629 1.26009
394 -5.28053 -5.32207 -7.95406 -2.96417 1.25388 2.11482
396 -6.34341 -5.3578 -7.39146 -0.250089 1.07139 2.81766
445 -4.57352 -4.65821 -7.76107 -1.13884 1.59437 0.509376
397 -4.64728 -6.25402 -7.96206 1.35935 0.707435 -0.225112
399 -3.9936 -6.3452 -7.08896 0.653396 -0.941292 0.741767
400 -4.86313 -5.6941 -7.10686 -1.71859 -0.69738 -0.723549
447 -3.82876 -4.76941 -7.0837 1.48667 -0.225586 1.2916
402 -2.47542 -5.63342 -7.91454 -0.18727 1.59235 0.337364
404 -3.18804 -5.60469 -7.13337 1.98227 -2.09123 0.410815
451 -2.3132 -4.79439 -7.30982 -0.216696 -0.488759 -1.01171
690 -2.35816 -5.46277 -6.38167 -0.387144 -0.180837 -0.606451
407 -0.981189 -6.37093 -7.37996 1.66103 -0.483471 1.18569
408 -1.58562 -5.59404 -7.41735 2.68237 -2.14228 0.449255
693 -1.61208 -6.25002 -6.44031 1.14195 -1.18592 -1.49455
697 0.0219606 -6.3962 -6.24791 -1.34327 1.56274 -0.24955
410 0.709064 -5.72337 -7.7097 0.973832 -1.14886 0.465018
412 -0.209167 -5.59533 -7.36262 -2.02654 -0.328684 0.52664
413 1.9635 -6.34618 -7.80589 0.435844 0.835573 0.610749
411 0.888992 -6.45846 -7.09601 1.11111 0.779469 1.85608
416 1.64735 -5.59749 -7.19834 0.653053 -0.267271 -0.0298182
420 3.24098 -5.47256 -7.10957 -0.640057 0.828349 1.53124
463 2.37059 -5.00014 -6.83486 0.463624 0.239287 -1.34369
702 2.44132 -5.58662 -6.03329 0.0504459 -0.602367 -1.58935
705 3.18904 -6.14156 -6.3082 1.39286 -0.646724 -1.22279
421 4.69761 -6.30796 -7.76216 1.25464 2.07325 -0.31145
418 3.84623 -5.5347 -7.95501 -0.64396 -0.497364 -1.87338
424 4.69012 -5.53086 -7.17962 0.268106 -0.0981804 0.627452
706 4.1142 -5.62361 -6.2738 1.81396 0.526709 -0.264282
709 4.83891 -6.28579 -6.36128 -0.541218 -2.08321 -3.1354
423 5.53054 -6.22818 -7.05819 0.280365 -1.21647 -0.0415399
422 5.57192 -5.56234 -7.84975 0.0745628 -0.91258 -0.868531
428 6.53883 -5.58828 -7.09772 1.68761 0.640473 0.369421
426 7.2622 -5.78156 -7.89904 -0.209047 -2.28277 -0.0633026
427 7.24175 -6.47614 -7.10795 0.0939244 -1.30561 0.371452
432 7.99937 -5.84529 -7.10334 0.684706 1.49165 -1.77322
717 7.98513 -6.5768 -6.3398 0.0369385 -1.00038 -1.11205
388 -9.38646 -5.40447 -7.13345 2.28209 1.63752 1.25487
431 8.78662 -6.43641 -7.1859 0.709037 1.45816 -1.94862
434 -8.60336 -3.87373 -7.97906 -0.374468 -0.182379 -1.3633
483 -8.7459 -3.1593 -6.81674 -0.321342 -2.27616 -0.305874
440 -7.8617 -3.89304 -7.21328 -0.455944 -0.347284 -1.07463
436 9.47832 -3.87132 -7.2089 3.24334 -0.52798 -0.0230518
438 -7.19987 -3.82061 -7.95712 0.0998191 -2.02317 -0.362667
773 -7.96694 -3.23735 -6.3301 1.07049 -0.178034 -0.59093
485 -7.96127 -3.10702 -7.92328 0.491571 -1.19107 -0.860035
726 -7.11569 -3.8633 -6.27078 -0.267093 1.48719 -0.387453
442 -5.35898 -3.91851 -7.91793 -2.59785 -0.340745 1.47942
443 -5.52498 -4.56452 -7.13451 0.740328 0.56844 1.47684
444 -6.2881 -3.86019 -7.18335 2.22555 -0.934957 2.25229
489 -6.23442 -3.32165 -7.96874 -2.04458 -0.591482 0.563676
730 -5.50782 -3.961 -6.34903 -0.344951 0.97211 1.32897
777 -6.22227 -3.09711 -6.21227 -0.557487 0.327032 0.726827
448 -4.79559 -3.9329 -6.97442 -1.69976 -0.188938 -1.37959
450 -2.23687 -3.82805 -7.91908 -0.566263 -0.167875 0.250269
452 -3.08124 -3.96024 -7.20286 0.646434 0.295209 -0.170861
499 -2.236 -3.1194 -7.19372 -0.259387 0.478426 1.68264
737 -3.03436 -4.67857 -6.39093 0.24569 -1.02914 0.183511
738 -2.38503 -4.0549 -6.55407 -1.05111 -0.532741 -0.120924
455 -0.981782 -4.81822 -7.22849 0.289461 0.712323 0.484539
456 -1.42983 -3.90637 -7.10236 1.60103 3.50204 1.9351
454 -0.911025 -3.99984 -8.06539 1.83647 -0.097088 -0.33435
457 -0.203862 -4.68779 -8.05679 -0.126635 -1.28331 1.71763
503 -0.755624 -3.19063 -7.12724 2.07294 0.702169 -0.776802
505 -0.0389101 -3.00192 -8.18305 1.55166 -1.53231 0.446261
460 -0.173805 -4.06327 -7.31908 0.844539 0.286824 1.19839
793 0.074856 -3.01254 -6.19715 -1.25946 0.175439 -0.10258
458 0.694846 -3.94268 -7.96283 0.706469 -0.777686 1.52009
459 0.593607 -4.80995 -7.22413 1.38913 0.991417 -0.321724
464 1.51324 -3.68447 -7.23682 0.461141 1.17635 -1.08283
507 0.654032 -3.0805 -7.22221 1.40724 2.05137 0.464582
749 1.40617 -4.77209 -6.36168 -0.994571 -0.289995 2.91089
753 3.1993 -4.73901 -6.1983 0.822978 -1.89081 3.09948
468 3.37127 -4.0614 -6.98924 -1.10485 -0.732076 -1.02048
750 2.28827 -3.87539 -6.62092 0.394773 0.22583 -3.14696
467 4.05049 -4.84396 -6.94002 -0.601452 1.38046 -0.623388
472 4.74188 -4.00882 -6.95336 -0.404537 1.30569 0.743146
757 4.94165 -4.89519 -6.31991 -0.336913 -1.25902 -1.67863
754 4.05574 -4.00433 -6.19139 -2.30111 -0.0882025 -0.448371
473 6.45251 -4.87878 -7.97386 0.513192 1.81758 -0.231777
471 5.82436 -4.91797 -6.97503 0.616203 1.30293 -1.35788
519 5.55279 -3.286 -7.0056 -1.62171 -0.151575 -1.73781
476 6.54782 -4.18496 -7.24918 -3.10162 -0.772699 -0.833196
758 5.65623 -4.04869 -6.38567 1.64111 0.892253 -0.929777
474 7.40969 -4.09106 -7.75256 -0.0867227 -0.462763 0.87761
475 7.4104 -4.92998 -7.08124 1.13753 -1.04315 -0.881904
477 7.9656 -4.91487 -8.06133 -0.543624 -0.209614 -1.56733
480 8.21197 -3.90489 -7.11639 -0.65668 -0.622737 2.56179
478 8.74286 -3.94888 -7.93284 0.52705 -1.48923 0.52896
479 8.82569 -4.7607 -7.15941 -0.0233185 0.201939 -0.601649
527 8.85235 -3.10286 -7.22841 -2.20005 -0.499757 0.537175
488 -7.99233 -2.55665 -7.10769 0.353303 0.30971 -0.0551154
484 -9.36586 -2.3598 -7.16367 -0.037498 -1.77238 -2.51611
769 9.40891 -2.98703 -6.21971 1.44798 -0.404482 1.49756
487 -7.07902 -3.0902 -7.28477 -0.955996 1.12111 0.0549863
774 -7.14802 -2.4841 -6.48621 2.56327 -2.53504 -0.478443
535 -7.19715 -1.79298 -7.23872 1.39538 -2.22045 0.290318
491 -5.43814 -3.08579 -7.02051 -2.88643 0.316189 -0.962743
490 -5.48742 -2.5177 -7.85863 1.85344 1.20249 0.134767
492 -6.34179 -2.37313 -7.15698 -1.16047 0.224262 0.738068
539 -5.63379 -1.66561 -7.13942 1.48723 0.0334084 -0.300382
495 -4.02041 -3.33244 -7.09532 -0.211362 -1.99813 -1.29394
493 -4.67332 -3.29343 -8.03201 -1.07903 -0.664477 -0.689805
541 -4.83907 -1.82993 -7.94282 -0.146003 0.407385 1.24679
496 -4.67592 -2.47801 -7.21056 0.330718 -1.5448 0.184372
543 -3.89944 -1.39981 -7.34478 0.385934 -1.67581 -0.686842
500 -3.29927 -2.36464 -7.21595 1.2806 -0.221874 -0.517144
547 -2.40166 -1.53901 -7.38208 3.54494 0.525589 -0.454675
785 -3.24161 -3.10157 -6.38458 -0.825677 -0.913694 -1.28777
786 -2.46192 -2.28033 -6.38805 -1.21108 -0.193924 1.24993
504 -1.52929 -2.30443 -7.41459 0.318925 1.04439 -0.55465
551 -0.700155 -1.47675 -7.2846 3.42256 1.17479 1.10437
789 -1.54066 -3.04422 -6.54951 1.12299 0.933996 1.33943
790 -0.729417 -2.28938 -6.43448 1.54285 1.18998 -0.1794
553 0.142654 -1.54353 -8.19796 -0.0829626 -0.069878 -1.29338
508 -0.0667107 -2.1864 -7.27759 0.104935 0.977776 -0.430742