ITEM: TIMESTEP
105000
ITEM: NUMBER OF ATOMS
6912
ITEM: BOX BOUNDS pp pp pp
-9.5244063118091962e+00 9.5244063118091962e+00
-9.5244063118091962e+00 9.5244063118091962e+00
-9.5244063118091962e+00 9.5244063118091962e+00
ITEM: ATOMS id x y z vx vy vz
3 -8.75087 -9.40419 -8.67026 -1.40963 -1.29745 0.507625
289 -9.44684 -9.38174 -7.99285 -0.365506 -1.90999 0.255918
8 -7.98997 -8.54546 -8.60307 -1.86985 -0.789727 0.47318
55 -7.0193 -8.07732 -8.68005 0.0620036 0.860701 1.7534
293 -7.93974 -9.52245 -8.12445 -0.456502 -0.72302 -1.69255
6 -7.24922 -8.81668 -9.24505 1.38141 -1.83733 1.1934
294 -7.13114 -8.94682 -7.99137 -0.108173 1.47904 0.460306
3704 -8.05666 -9.46285 -9.39623 -1.06369 2.25755 0.171431
12 -6.31164 -8.82664 -8.6823 -3.18458 -0.641325 2.8554
59 -5.53606 -7.95286 -8.93171 0.778974 1.46265 -2.49847
345 -6.21745 -7.98639 -8.04586 0.741508 -0.359485 -0.159358
57 -6.32983 -8.19897 -9.46606 0.556068 -0.217109 1.4612
10 -5.51955 -9.0263 -9.41749 -3.04837 1.46018 -0.334713
16 -4.7144 -8.87885 -8.53459 -0.945754 1.52075 -0.53309
349 -4.55397 -7.97551 -8.06953 -2.69445 0.831114 2.2906
14 -3.92162 -8.80706 -9.3222 0.745237 1.32066 -1.90082
61 -4.74281 -8.10783 -9.44917 0.225334 0.725311 -0.317247
20 -3.09819 -8.81474 -8.68215 1.3704 0.146813 -1.18752
67 -2.40138 -8.22165 -8.82336 -3.01478 0.814386 0.0685009
24 -1.57023 -8.73004 -8.82796 -1.65688 -2.10028 -0.530892
357 -1.61678 -8.18528 -7.99132 0.536075 -1.68664 1.62333
71 -0.797353 -8.08581 -8.63064 0.154767 1.0812 1.29369
309 -1.54156 -9.37629 -8.06807 0.829954 -0.464775 -1.72723
28 0.0692381 -8.71106 -8.71275 -0.289965 1.36519 -1.94496
73 -0.00484998 -8.02447 -9.47728 -2.02302 0.100541 -0.381085
23 -0.728207 -9.40067 -8.78377 0.0121424 1.12268 2.10546
25 0.213729 -9.52351 -9.5151 -0.215559 0.167443 3.31203
75 0.94258 -7.98054 -8.8204 -0.675569 0.0382329 -0.944877
32 1.54574 -8.79335 -8.82586 -1.02934 0.108307 1.13168
317 1.49817 -9.28936 -7.97889 0.906923 2.19682 2.30066
365 1.58645 -8.03884 -8.06407 -1.30736 -1.03888 0.0569254
31 2.18294 -9.50355 -8.76455 0.948199 -0.72931 -0.560671
79 2.72354 -8.03836 -8.87962 0.46319 0.380326 1.01713
36 3.03719 -9.02069 -8.81767 1.83118 -0.540902 0.576056
369 3.16967 -8.19606 -7.97461 0.220028 -0.465157 0.242104
318 2.31311 -8.7637 -7.96108 -1.26048 -1.93042 0.201615
40 4.64809 -8.64806 -8.8873 0.637399 0.00694233 1.78954
83 3.8487 -8.0235 -9.02992 1.11591 -1.65472 1.56386
322 3.95698 -8.86959 -8.12856 -2.36961 0.705157 -0.0507435
373 4.86694 -8.25021 -7.94327 -1.195 2.98206 -0.274403
44 6.50141 -8.72194 -8.89696 0.389887 -0.587181 -0.943598
326 5.52841 -8.24579 -8.67506 1.34157 -0.628071 -1.07743
39 5.58391 -9.43781 -8.71107 0.232272 -0.855905 0.920952
329 6.34164 -9.45878 -7.94493 0.256116 2.71225 -1.09202
41 6.41612 -9.49807 -9.474 0.640398 0.254042 1.23258
48 7.85404 -8.73138 -8.76747 0.384165 1.04264 0.905447
93 7.82068 -7.95658 -9.38206 0.316651 -0.10713 -0.627336
2 9.46711 -8.6666 -8.89775 -0.570227 -2.25067 -0.422926
47 8.74744 -9.3762 -8.64078 -1.10795 -2.71306 1.47692
334 8.62009 -8.64772 -8.03372 -0.758333 4.08245 0.266763
337 9.51314 -7.99063 -8.06078 -0.690314 -2.78112 2.08744
51 -8.60591 -7.80623 -8.68934 -0.485006 2.00131 1.60061
104 -9.07192 -6.49681 -8.82566 -1.77462 0.208486 0.720146
338 -8.74887 -7.10469 -7.93721 1.37328 -1.89556 1.19694
56 -7.83839 -7.17199 -8.78085 1.13019 0.507344 0.0391349
103 -6.76276 -6.38148 -8.77466 1.11591 0.0159103 2.72086
53 -7.95285 -7.86091 -9.45133 0.932249 0.572326 -1.05318
342 -7.04399 -7.26038 -8.09756 0.251145 0.680502 1.34118
54 -7.0876 -7.25954 -9.41705 -0.263493 1.08814 0.362131
60 -6.237 -7.28044 -8.76796 -1.18293 0.134176 1.27505
346 -5.50659 -7.15933 -8.06473 -1.46191 -0.360314 0.614301
63 -3.76214 -7.80195 -8.83022 0.0967317 -0.942894 0.482387
64 -4.6542 -7.19865 -8.86253 -0.952405 -0.909675 0.277138
350 -3.82076 -7.21513 -8.03958 -1.37672 -0.271746 2.38464
111 -3.81609 -6.42083 -8.68771 0.613402 -1.22118 0.412712
397 -4.67617 -6.4765 -8.1302 -0.48902 2.79389 -0.356221
68 -2.93026 -7.28948 -8.62152 0.649768 -0.660819 -0.958237
401 -3.00733 -6.42308 -8.09699 1.67104 1.55882 1.63347
354 -2.04337 -7.09756 -8.00511 -0.367493 -0.134917 0.0330105
72 -1.72663 -7.42727 -8.84442 1.27424 1.17926 -0.403352
76 -0.958159 -6.56135 -8.73253 -1.41627 1.69916 1.06263
362 -0.0741415 -7.32532 -8.70515 1.08587 0.664013 -0.714107
409 -0.153559 -6.5995 -8.10185 1.07681 -0.107716 -0.272581
121 -0.239843 -6.58173 -9.46543 -2.04465 0.722213 1.55496
80 1.63792 -7.31088 -8.88278 0.782904 -0.536523 -0.521109
413 1.62085 -6.50424 -8.22524 1.81098 -0.256546 0.410793
123 0.869141 -6.44256 -8.97641 -1.14661 0.730033 -0.488153
368 0.89949 -7.30683 -8.09927 1.34155 1.02013 -0.204003
366 2.35677 -7.25163 -8.05006 -0.390109 0.420547 -0.359784
84 3.1313 -7.19495 -8.60595 -0.392873 0.176987 -2.18659
127 2.38572 -6.54576 -8.9446 -0.291377 1.19893 -0.514295
88 4.63256 -7.50941 -8.82825 1.20396 -0.842809 1.0867
421 4.86948 -6.54238 -8.2182 -0.237636 -1.00616 -1.44255
131 3.97737 -6.5951 -8.77498 -0.990526 -0.345778 -0.0115756
370 3.85805 -7.53137 -8.13397 -0.848952 0.0701294 -0.245872
87 6.1725 -7.37477 -8.88462 0.56874 0.678516 0.866893
374 5.51209 -7.5029 -8.10644 -0.863933 1.2811 0.683247
425 5.92265 -6.54987 -8.32123 0.741467 -1.7567 -0.814403
137 6.17108 -6.61119 -9.49071 0.423515 -0.403467 -0.972309
91 7.04887 -7.88343 -8.66495 -0.407588 0.94577 1.90599
96 7.94721 -7.17274 -8.76986 -0.606128 0.503711 -0.467699
92 6.95302 -6.50958 -8.89508 1.77902 0.755221 2.18738
381 7.80227 -7.90136 -7.99199 -1.41735 -1.83275 -1.91072
378 6.83042 -7.06113 -8.00362 0.85199 0.801801 -0.0661424
95 8.58322 -7.93384 -8.69478 -1.08616 -1.93631 -1.1311
52 9.4007 -7.38834 -8.8898 -0.0485636 -0.861615 1.6437
143 8.66983 -6.42816 -8.71758 0.943091 -1.39492 0.801543
94 8.60279 -7.09308 -9.52022 -1.30636 -1.11098 -1.32416
382 8.74964 -7.17616 -7.95985 -2.61886 -0.595706 1.53321
147 -8.48083 -5.57569 -8.59441 1.14652 -0.142093 1.62866
100 -9.47123 -5.63961 -8.27167 -1.44656 -1.97195 2.26078
102 -6.91017 -5.71332 -9.52294 0.487385 2.42625 -2.25444
389 -7.68915 -5.97526 -8.98646 -1.35256 0.47699 0.20165
152 -7.18975 -5.1784 -8.51368 -1.54846 -1.25595 -0.550555
107 -5.63304 -6.30269 -8.65545 1.25679 -1.72072 -3.00528
390 -6.17104 -5.38624 -8.5744 -1.44728 1.29333 -1.41854
394 -5.27616 -5.53479 -8.17238 -0.692457 -0.206765 -0.00593434
153 -6.03562 -4.77728 -9.38593 1.45847 0.419503 2.6274
108 -5.51949 -5.62351 -9.45018 -1.50817 -2.55797 2.5383
112 -4.59398 -5.64354 -9.01538 -1.45762 0.0501747 1.31191
158 -3.95099 -4.93735 -8.97384 -1.04972 -0.11971 -0.752286
398 -3.81135 -5.63343 -8.19252 1.80853 0.560946 1.2785
115 -2.19998 -6.342 -8.87009 -0.189912 2.26007 1.38277
116 -3.03843 -5.58047 -9.00659 0.617255 0.667879 -0.145086
402 -2.41957 -5.45437 -8.16033 0.283825 -1.41407 2.23576
120 -1.5746 -5.57813 -8.88206 0.395778 -1.27372 -0.200945
406 -0.746398 -5.60082 -8.23592 -1.53725 0.639774 -2.36391
124 0.156424 -5.80175 -8.81816 -1.02228 -0.649904 1.31894
169 0.00294403 -4.93642 -9.4851 -1.42965 -0.566685 0.742453
122 1.58035 -5.62914 -8.78939 -1.97596 -0.686378 1.72816
410 0.934559 -5.78181 -8.02991 -1.39723 -0.244399 1.15625
171 0.794502 -4.85595 -8.661 0.979449 0.0686012 -0.67304
461 1.5297 -5.02745 -7.96085 -2.60964 -2.49547 -0.271565
128 3.21765 -5.57889 -8.56275 -1.59386 0.154223 0.110112
175 2.54461 -4.84131 -8.69016 -0.632961 -0.877926 -0.54836
136 4.51421 -5.63762 -9.08135 -0.730792 -2.11681 0.785207
132 4.12888 -5.79751 -8.12825 -1.3514 0.430553 -0.503251
469 4.47896 -4.87886 -8.3739 2.52752 -0.534839 1.89423
135 5.27667 -6.31236 -9.18988 -0.570147 0.218715 -1.76939
418 6.41813 -5.61041 -9.09598 0.952704 -1.15474 -0.462913
183 5.49442 -5.01186 -9.35016 1.18668 -0.487025 -1.78249
473 6.45889 -4.93334 -8.36674 0.736487 0.225866 -0.06415
471 5.44425 -5.63937 -8.52533 0.866596 0.891467 1.59354
187 7.47516 -5.0177 -8.94765 0.122375 -0.853373 0.608989
140 6.85652 -5.90031 -8.16744 -0.918961 0.905059 -1.93009
144 7.74352 -5.98429 -8.80397 -0.939385 -0.928396 1.46822
145 9.38673 -5.20231 -9.37789 -0.858511 -2.8894 -0.543718
191 8.54244 -5.08827 -8.67332 -0.686215 0.823381 -1.60909
433 -9.06884 -4.43132 -8.51168 2.0454 -0.189567 1.19045
239 -9.0748 -3.61421 -9.06863 1.25606 0.316138 -1.95223
195 -8.36314 -3.23388 -8.44576 0.866554 0.68342 -0.0684682
481 -9.27484 -3.48585 -7.9807 1.94279 0.275665 0.0554257
483 -8.08565 -4.49686 -8.82831 2.41044 0.817938 -0.900463
199 -7.48136 -3.58727 -8.69019 0.757432 0.40066 -1.35683
150 -7.09462 -4.46994 -9.28637 1.92259 -0.214698 1.28928
441 -5.47143 -4.60676 -8.55633 2.75772 -1.13202 -1.0931
156 -6.28317 -3.78433 -8.4815 -1.3651 -0.344301 0.10864
155 -5.47855 -3.84979 -9.43052 1.54432 -1.77785 -1.05242
445 -4.60452 -4.62923 -8.091 -0.343075 -1.29416 -0.630682
160 -4.61548 -3.90079 -9.00256 -0.212152 -0.529182 -2.90905
446 -3.83402 -3.93299 -8.21379 1.54475 -0.477839 0.570405
159 -4.882 -4.72713 -9.49993 -0.633471 0.775767 1.71531
449 -3.19428 -4.73267 -8.2294 -0.388237 -0.26851 -1.51241
164 -3.07669 -3.8229 -8.83477 -1.50742 0.718354 2.84483
450 -2.2223 -3.83707 -8.24917 -2.85675 1.37712 0.904784
163 -2.42197 -4.64896 -8.89091 -0.800711 -0.254882 0.0575968
453 -1.53609 -4.75898 -8.09732 -2.2419 -1.03783 1.75239
168 -1.53994 -3.89306 -8.93678 -0.525691 0.490646 -0.161053
167 -0.785946 -4.67243 -8.7771 1.73028 -0.0391957 0.0322975
215 -0.740139 -3.22335 -8.87033 -0.418966 1.24037 -1.67345
501 -1.40018 -3.19901 -8.11927 -0.712978 2.34201 0.0619413
172 -0.016062 -3.95011 -8.83824 -2.76647 -3.15826 -0.480565
170 0.652746 -3.19344 -8.81597 0.0750081 -0.806679 0.464674
176 1.53209 -3.8543 -8.70119 -1.30762 -1.73809 -0.0416245
462 2.11172 -4.20364 -7.98136 -1.31234 -0.626615 1.51233
173 1.65516 -4.71146 -9.29608 3.65073 0.260145 -0.22484
458 0.749397 -4.05091 -8.13729 3.18001 1.31079 0.968098
3344 0.800486 -4.10736 -9.35583 1.04649 -0.902485 -0.473741
179 3.61934 -4.68152 -8.85795 1.27075 -0.357856 -0.373156
180 3.06522 -3.96269 -8.44838 0.395333 -0.000146553 0.530004
174 2.32509 -3.90947 -9.30059 0.135188 1.02866 -0.843028
509 2.29054 -3.21037 -8.56093 -1.63123 0.176612 0.470545
184 4.28136 -3.81544 -8.81342 -0.681142 -1.92971 0.364465
470 5.11624 -3.26338 -8.69644 0.192086 0.391289 -0.894793
181 4.48487 -4.59783 -9.50546 1.12749 -0.602972 0.720403
476 5.48464 -4.20082 -8.60506 -0.394901 1.85782 1.62631
192 7.66614 -4.0075 -8.66613 -1.69634 2.10984 0.14351
188 6.62136 -4.06213 -9.07554 0.156439 -1.89267 -0.808582
474 6.70048 -3.81079 -7.99261 0.731463 -0.735946 0.32189
235 8.13516 -3.36223 -9.47391 1.30925 0.215854 0.421077
237 8.89966 -4.12533 -8.41595 0.37483 -0.168877 -0.719157
190 9.23712 -4.1583 -9.39629 2.08583 0.356253 -2.22286
196 -9.03085 -2.54881 -8.87308 0.337363 -1.56755 -2.36168
482 -8.97559 -2.06172 -8.05079 -0.379725 -0.505441 0.327327
3368 -7.94933 -2.84058 -9.33481 -0.670462 -0.240594 0.988764
200 -7.78867 -2.27091 -8.55707 -0.0551204 0.425387 0.568777
204 -6.93544 -2.75174 -8.68522 -0.132597 -3.02092 -0.940052
202 -5.5052 -2.24578 -9.39276 -0.810985 -0.786227 -1.94022
154 -5.27374 -3.04401 -8.6584 -0.0017381 1.51974 -0.300177
201 -6.00042 -2.29671 -8.60864 1.82935 0.636748 1.81767
203 -5.31042 -2.37096 -7.96563 -0.0189022 0.822425 0.496881
3324 -6.11964 -3.05944 -9.38909 -1.37606 -0.531081 -2.16625
207 -3.87255 -3.00061 -8.86768 -1.62801 -0.862498 1.11057
208 -4.70046 -2.28135 -8.66417 -0.914563 -3.56835 -0.844766
212 -3.15877 -2.32547 -8.8679 -0.0099542 0.91206 0.385306
497 -3.00874 -3.12297 -8.04704 1.8281 -0.827874 -1.26489
211 -2.41342 -2.96435 -8.83406 2.01685 1.69273 -0.513877
494 -3.64421 -2.27636 -7.94121 -1.53204 1.05951 1.30947
213 -1.61696 -3.03922 -9.44256 0.447225 -1.04938 -2.56365
216 -1.59792 -2.26501 -8.81542 -2.32133 -0.446272 -0.821666
214 -0.894929 -2.39346 -9.48112 -0.783554 -0.163548 0.364504
502 -0.70765 -2.43698 -8.11411 -2.21928 0.45869 -0.163435
220 0.028245 -2.3891 -8.93411 2.2519 -0.842741 -2.58776
506 0.639082 -2.60029 -7.98321 0.869368 -0.319373 2.31692
553 0.0574279 -1.64703 -8.10305 -1.04399 -1.18336 -1.24672
221 1.54422 -3.14498 -9.40476 4.31617 -2.0248 2.92962
224 1.52493 -2.39257 -8.61536 -0.0682458 -3.17111 -1.20911
218 0.948662 -2.36457 -9.45217 0.441481 0.910809 -2.17008
222 2.33768 -2.27097 -9.23652 0.496217 0.189718 -1.75164
228 2.98158 -2.17978 -8.50868 -2.77229 1.64184 0.0124376
227 3.50536 -3.08812 -8.88069 -1.82731 -2.07432 0.856828
226 3.60865 -2.1771 -9.50119 -1.07148 -0.696503 1.67417
517 4.39281 -2.95135 -8.06011 1.29081 -2.17085 0.0314252
232 4.34455 -2.24801 -8.8767 0.262559 -0.281365 -1.30156
236 6.0951 -2.72976 -8.34277 0.134945 0.210883 0.0700876
518 5.2683 -2.16376 -8.12495 -1.01028 -0.156985 -0.501652
282 6.55445 -1.75067 -8.63917 1.52885 -1.70436 0.576778
230 5.25504 -2.31654 -9.35357 -0.171705 1.37461 -0.195319
231 5.98572 -3.16273 -9.21591 0.0900388 -1.0534 -1.3689
281 6.09641 -1.83199 -9.45049 0.436318 0.819354 0.657642
3408 6.87707 -2.53134 -9.43016 2.08789 0.676323 -1.06529
240 7.18299 -3.13571 -8.5622 -2.01491 -0.513188 -1.63478
234 7.61347 -2.16155 -8.70916 3.4679 0.232553 -0.624157
3360 8.36477 -2.33386 -9.35647 1.24897 -1.44355 1.36706
522 8.15632 -2.95216 -8.44707 0.0295917 0.844358 1.73205
238 9.08661 -3.07039 -8.6623 1.236 1.80818 -2.08486
526 8.95618 -2.1439 -8.11077 0.0157955 1.77476 -1.42996
287 9.16012 -1.59848 -9.20174 0.717403 -0.147504 0.722296
243 -8.71098 -1.5513 -8.79866 0.901838 0.481462 0.715576
244 -9.2696 -0.840988 -8.81748 -0.167693 -0.281747 1.04706
245 -7.69218 -1.56103 -9.37956 0.75946 -0.51869 0.467351
247 -7.04925 -1.49936 -8.46782 0.46265 -0.925572 1.26484
248 -7.84377 -0.553127 -8.82226 0.536607 2.81516 1.01199
533 -7.93787 -1.30225 -8.02893 -3.51116 0.421599 -2.23404
246 -7.08178 -0.591081 -9.52431 1.15289 -0.687424 0.232273
3753 -6.22831 -0.0159246 -7.98844 -1.01347 -2.15058 -0.517973
251 -5.46161 -1.49344 -8.72706 0.0479755 0.1764 3.09752
252 -6.24756 -0.764314 -8.71409 3.34271 0.320371 0.871709
538 -5.42092 -0.747277 -7.94689 1.04704 0.823464 2.50302
249 -5.54008 -0.764368 -9.40301 -0.993956 2.9839 -0.86232
3465 -6.44437 -1.34071 -9.45415 0.68877 -0.316167 2.04533
255 -3.86375 -1.50292 -8.61933 -1.13196 0.323475 2.55657
256 -4.63778 -0.839286 -8.75383 0.218181 -0.459524 -0.201535
541 -4.73397 -1.52416 -7.993 1.31091 2.00145 -0.748038
3469 -4.84528 -0.00980699 -9.51559 0.051949 -0.548788 -0.480523
260 -3.08072 -0.794132 -8.84575 1.25012 -0.66584 0.298063
545 -2.89022 -1.41044 -7.98561 -0.855928 0.318079 -1.0641
257 -3.31834 -1.40516 -9.52185 0.161014 0.788037 -0.75026
259 -2.08717 -1.46763 -8.66736 -1.57804 -0.0951876 -0.554776
264 -1.53433 -0.645565 -8.63762 0.0896361 0.30246 -0.183177
549 -1.41587 -1.46091 -7.94839 -0.332675 -1.1746 1.77745
263 -0.651017 -1.46854 -9.01917 1.92001 -0.32733 -0.7722
268 0.0700294 -0.858695 -8.73352 0.829478 -0.0471981 1.57309
550 -0.672161 -0.825071 -7.96925 -2.50662 0.789196 -0.122089
3483 0.771536 -0.112277 -9.0364 -2.18041 -0.41555 1.40707
267 0.897814 -1.42047 -8.81304 -1.29238 0.806597 -0.160676
272 1.59843 -0.648128 -8.97049 1.05054 -0.964017 -0.455994
557 1.50133 -1.56807 -7.94731 1.60317 -0.582842 0.51991
271 2.19113 -1.44628 -8.65842 -0.194056 -1.77704 -0.350664
554 0.748745 -0.750992 -7.97414 0.686518 -1.11115 -0.388665
273 2.94729 -1.41168 -9.46268 0.0625764 -2.10136 -2.03197
276 3.01928 -0.550735 -8.65965 -1.90367 -0.274851 0.588275
561 3.00815 -1.31968 -7.93998 -0.888337 2.17543 2.28678
558 2.23436 -0.529314 -7.96699 -0.855557 0.104466 1.09028
274 3.812 -0.743607 -9.3511 1.07049 -0.104182 -0.944275
565 4.49701 -1.37795 -7.99286 0.906844 -0.550508 -0.162638
275 3.7808 -1.47366 -8.70822 -1.02721 -0.876182 0.973374
280 4.48674 -0.500432 -8.67064 -1.02915 0.822727 0.760928
278 5.25266 -0.63407 -9.40414 -1.72162 -0.0749978 3.18742
279 5.27032 -1.45366 -8.79901 0.152103 1.18596 0.703142
284 6.4032 -0.604592 -8.66114 0.15354 -0.175932 -1.54604
569 6.02529 -1.3473 -7.97352 1.84961 -0.739871 0.949322
566 5.30884 -0.655265 -8.02745 0.307998 3.41946 -0.962388
3497 6.11975 -0.0245046 -9.48879 -1.01097 0.82935 2.20242
283 7.35004 -1.15241 -8.58507 -3.45649 -0.980186 -1.24052
3785 7.2306 -0.177058 -9.00436 -0.847856 0.0835296 -1.0074
3789 7.99449 -0.484835 -8.32068 2.1775 -0.219975 0.890801
3503 8.9212 -0.263161 -8.87088 -1.58559 -2.65418 0.444502
528 8.34966 -1.41738 -8.41298 -0.251448 -0.877469 1.63539
288 8.2487 -1.13123 -9.39903 0.138517 0.891651 -0.28605
573 9.2036 -1.1687 -7.97451 2.02374 0.0145983 0.341699
290 -8.62527 -8.64345 -7.74249 -1.7795 -0.279978 -1.71098
578 -8.8661 -8.63248 -6.5964 -1.41227 0.865222 -0.45001
296 -7.86562 -9.03131 -6.94559 -0.34577 0.499396 -0.60802
629 -7.77185 -8.09186 -6.73481 1.36764 -1.41038 0.652675
298 -5.52125 -8.80121 -7.90887 0.922748 0.192086 1.53184
300 -6.36576 -8.73075 -7.18327 1.18773 -1.59062 -1.63624
586 -5.3939 -8.89248 -6.6008 -0.86592 -1.5768 0.774832
347 -5.54244 -7.96225 -7.37641 -1.00183 -0.538318 0.839314
633 -6.04128 -8.18048 -6.54422 0.943176 -1.01637 0.736948
302 -3.81482 -8.68909 -7.8652 -1.6689 1.3616 -1.34243
304 -4.74597 -8.71906 -7.30531 -0.251804 1.31955 -1.6143
590 -3.98395 -8.75539 -6.35765 -1.37491 -0.0398331 0.209239
637 -4.71912 -7.96736 -6.53145 -1.10166 2.67733 0.289197
306 -2.49539 -8.86373 -7.91573 0.772417 -1.20176 1.6253
308 -3.0543 -8.94159 -6.97256 1.46522 0.284154 -0.379889
594 -2.33436 -8.68554 -6.457 1.25489 -0.570576 -1.56825
355 -2.27156 -7.97112 -7.15743 2.24741 -1.30064 -0.273665
312 -1.53218 -8.91491 -7.2436 0.609443 -0.652646 0.105266
359 -0.931015 -8.08951 -7.17357 0.138932 0.923174 0.236575
310 -0.638568 -8.78488 -7.79906 0.315897 -1.71527 -0.615805
316 0.0206579 -8.62625 -7.06852 -0.714082 0.454039 -0.858453
649 0.0972955 -7.94723 -6.4022 -2.00412 2.35253 -0.531042
311 -0.594763 -9.3878 -7.01284 -0.293735 2.53676 -0.362372
319 2.03076 -9.47176 -7.14679 -1.37095 -0.766707 0.466917
314 0.750487 -8.55359 -7.83513 -1.27793 -0.348169 0.0637278
320 1.44827 -8.50155 -7.14555 0.663067 -0.349341 0.274445
602 0.885811 -8.64284 -6.35863 0.463634 2.48577 -0.879248
324 2.96055 -8.80019 -7.16765 1.18493 -1.98593 0.0890231
367 2.30941 -8.08431 -7.27832 -1.65752 0.659259 0.015488
657 3.35258 -7.9588 -6.47307 -0.250242 -0.907181 -0.14347
321 3.06966 -9.45697 -7.90495 -0.564978 -0.0667554 -0.984712
609 3.04117 -9.40623 -6.39203 0.307522 -3.21589 -3.81938
323 3.90543 -9.41274 -7.12816 -2.24112 2.51528 1.06577
328 4.74801 -8.85198 -7.09003 0.472611 -0.866301 -0.134381
371 3.9582 -8.15863 -7.38102 -0.413347 -0.223325 -0.948697
610 4.02752 -8.70083 -6.4197 -2.25293 -0.94096 -1.45868
377 6.36201 -8.09939 -7.90693 1.66031 0.10353 -0.65052
327 5.49017 -9.0203 -7.80265 -1.83962 2.09559 2.59395
332 6.34275 -8.92195 -7.03417 0.357614 1.79966 0.294167
375 5.5432 -8.16765 -7.13148 1.16912 2.13825 2.35531
623 7.83265 -9.51065 -6.42106 -1.25146 0.717675 0.351266
330 7.12874 -8.78468 -7.82276 1.00818 -0.899044 0.650608
379 7.04666 -7.95706 -7.13834 0.0525622 0.54932 -3.09454
618 7.11429 -8.78747 -6.36357 -1.01352 -1.66735 0.902904
336 7.87469 -8.74463 -7.13097 -0.736321 1.17482 -1.3872
335 8.8519 -9.40806 -7.35955 -0.0305052 1.10417 0.68221
292 9.49054 -8.55929 -7.25391 -1.19683 0.892151 2.61439
383 8.72438 -8.02324 -7.35571 -0.0859063 1.41419 1.46022
622 8.78724 -8.76253 -6.37789 -0.18055 0.0626064 0.34387
339 -8.78046 -7.75604 -7.1622 -0.497225 -2.28883 -0.482261
677 -8.83762 -6.67 -6.82208 -0.615116 0.566548 -1.15707
341 -7.83293 -7.85495 -7.76843 -0.702355 -0.689646 0.281633
99 -7.54575 -6.43457 -7.81081 -2.02533 -1.0125 -0.183884
343 -6.83013 -7.73635 -7.24922 -0.481874 -1.14719 1.83822
344 -7.61845 -7.13089 -6.9949 0.852652 -1.27087 -0.223567
391 -6.93455 -6.42803 -6.82289 -1.88566 1.81474 0.905311
348 -6.1711 -7.10663 -7.09033 3.18034 -0.751842 1.01883
395 -5.42681 -6.40838 -7.36178 -0.0460221 1.67947 -1.16671
393 -6.4769 -6.40892 -7.76952 0.231207 1.43739 0.104216
351 -3.8792 -7.7516 -7.06198 0.372056 2.26861 0.630555
352 -4.81211 -7.24809 -7.39183 0.630888 2.25155 1.17077
399 -3.87019 -6.47543 -7.34324 -0.952968 -0.550836 -0.339334
353 -3.07223 -7.90143 -7.84405 -0.286373 1.04833 -0.749595
356 -3.03331 -7.11184 -7.28726 -1.34452 0.121937 -1.97408
642 -2.377 -7.27419 -6.35668 0.376106 0.507442 -1.41278
689 -3.24496 -6.44104 -6.46081 0.555983 0.639753 -1.17015
360 -1.67453 -7.13514 -7.02915 -1.46847 -0.55546 -2.63028
358 -0.904505 -7.15225 -7.91381 -2.61819 -0.47623 -1.69753
407 -0.81188 -6.43841 -7.25794 -1.01109 -0.858852 0.204386
361 -0.184958 -7.93137 -7.81157 1.30071 -1.10506 -0.877978
363 0.67296 -7.79814 -7.17052 -2.00342 -1.05176 1.01265
364 -0.230098 -7.33542 -7.06382 0.88882 -1.26803 -0.235664
411 0.654277 -6.7649 -7.21955 0.780754 1.79343 -0.55635
654 1.55793 -7.19557 -7.33218 -1.72862 -0.528829 0.847046
415 2.40638 -6.54811 -7.22537 -0.753485 -0.117019 0.979763
417 3.04616 -6.45368 -7.92899 0.577671 -0.364632 0.748763
372 3.2621 -7.40401 -7.23773 -0.0446483 0.314152 -2.71984
655 2.55561 -7.10101 -6.48364 -0.579158 0.960412 2.41054
376 4.67492 -7.4306 -7.38573 -0.077689 -0.915524 0.540494
419 4.1694 -6.41881 -7.29366 -0.68015 -1.64984 0.322712
658 4.00999 -7.06771 -6.42332 1.11711 -0.863015 0.0668677
661 4.55698 -7.83336 -6.42738 -0.961116 -3.26406 -0.834207
380 6.20558 -7.4436 -7.15384 -1.69699 0.228811 0.773597
423 5.3511 -6.63972 -7.32418 -1.05852 0.0855431 0.192254
713 5.8787 -6.42623 -6.47911 1.62782 -1.80042 0.144371
662 5.52725 -7.3978 -6.43486 1.49098 -0.287015 -0.21915
429 7.7685 -6.57416 -7.83875 1.02722 -1.22869 0.386164
427 6.73159 -6.39004 -7.23995 -0.953465 -1.59757 0.758405
384 7.99495 -7.3023 -7.09218 0.392059 -0.335645 0.44865
666 6.9264 -7.20185 -6.44363 -0.884337 -2.44961 1.22215
717 7.65464 -6.55093 -6.64993 2.34731 0.0154869 -0.111997
385 9.51748 -6.49801 -7.66809 2.84617 -0.440376 0.327291
340 9.36696 -7.36141 -7.09441 0.608063 -0.198401 0.402939
431 8.6435 -6.549 -7.05867 0.369236 -0.558524 2.53286
386 -8.67695 -5.94644 -7.71207 0.845818 -0.244429 -0.342539
392 -8.81431 -5.10046 -7.00363 1.18728 -0.274233 -0.0270284
727 -7.99587 -5.58409 -6.79372 -0.53423 -0.0368662 0.452288
437 -7.18515 -5.56822 -7.58198 -0.739686 1.96232 -1.19349
439 -6.95051 -5.59998 -6.40303 -2.08095 -0.482112 -0.0332979
440 -8.0425 -4.88669 -7.81748 -0.330864 -0.795465 -3.13626
682 -5.9701 -6.13736 -6.45396 -1.20991 -0.838224 -1.59684
396 -6.09235 -5.5673 -7.4789 -1.09932 -0.953684 -0.300235
685 -5.63192 -5.158 -6.53231 0.756407 1.7183 0.00406611
400 -5.26632 -4.82948 -7.34896 0.736104 -2.68509 1.78187
729 -4.59511 -5.60633 -7.41648 0.876183 1.09318 2.92447
730 -4.50572 -4.80165 -6.48983 0.432882 1.17952 -1.26986
683 -4.97292 -6.04816 -6.61177 -0.309092 0.329701 0.49395
686 -3.7387 -5.56398 -6.68095 1.52884 0.278045 -1.98667
403 -2.30688 -6.1967 -7.1613 -1.5985 0.793707 -0.701247
404 -3.0177 -5.32821 -7.3665 -0.89509 -1.13213 -0.293736
690 -2.31281 -5.26044 -6.56803 -0.188949 0.0817658 0.650148
405 -1.53103 -6.21737 -7.93447 0.692301 -1.13519 0.423288
408 -1.4108 -5.60317 -7.20546 -0.0514214 -0.104597 0.394162
741 -1.34698 -4.92646 -6.35124 0.631585 0.418867 -0.423899
693 -1.57398 -6.27584 -6.48134 0.516621 0.744271 0.387352
455 -0.782007 -4.80955 -7.35702 -1.00877 -0.57179 0.336822
412 0.0604132 -5.85505 -7.08143 0.840587 -0.610262 -1.26541
745 -0.0261744 -4.81347 -6.57906 0.173236 -0.318955 2.97829
457 0.264574 -5.13348 -7.85946 1.13675 -0.870534 0.743217
416 1.50049 -5.88241 -7.17531 1.17421 -0.0125994 0.682966
459 0.880762 -4.87602 -7.07748 1.80873 -0.495164 1.29548
698 0.861782 -5.68501 -6.38301 0.494497 -1.21924 -1.65734
414 2.30168 -5.65386 -7.88308 0.449656 1.22323 -1.56321
465 3.13148 -4.80582 -7.797 1.52523 -0.183587 -1.66533
705 3.18133 -6.19024 -6.38713 0.903771 -0.0827326 -0.66694
420 3.37291 -5.69883 -7.30604 1.21711 1.48582 0.504612
463 2.35643 -4.86751 -7.15996 1.54108 0.665528 -1.57603
702 2.38778 -5.60342 -6.50135 1.80557 1.22293 -2.42858
753 3.47992 -4.95621 -6.51917 2.99936 -1.61688 1.00367
709 4.79749 -6.23276 -6.56897 -0.90222 1.02727 0.725529
424 4.92856 -5.69502 -7.47511 -3.22858 0.489705 0.895377
708 4.50658 -5.30047 -6.69939 1.6745 -0.0626145 0.108258
467 4.0751 -4.94536 -7.42971 0.529563 -1.66906 0.0135388
758 5.17854 -4.77999 -7.64677 1.55211 1.76213 1.21944
428 5.91905 -5.84276 -7.61902 -0.913682 0.663335 -0.46069
422 5.65154 -5.16624 -6.72789 -0.0339121 -1.00459 -0.696681
714 6.57278 -5.54998 -6.81207 -0.0302732 1.3965 0.775167
426 7.65621 -5.66625 -7.49252 -1.58784 0.0118771 -2.22385
475 7.14527 -4.84615 -7.10687 0.172316 -1.08822 -1.72568
430 8.5882 -5.85189 -7.90798 -0.338707 -1.20936 -1.77653
434 9.32508 -4.82857 -7.66758 1.42386 1.26875 1.11899
388 9.33168 -5.65275 -7.1223 -0.335731 1.86897 -0.628362
435 9.36373 -4.8689 -6.48136 0.592816 0.954076 -0.332363
479 8.36906 -5.12744 -7.09972 -0.278163 0.508615 1.18858
722 -8.57161 -4.1559 -7.3539 -0.325339 -1.35672 -1.51427
438 -7.03334 -4.28492 -7.84655 -0.199204 0.343209 -2.77567
725 -7.80904 -4.64702 -6.62639 0.200487 0.441554 1.31189
484 -7.71054 -3.68066 -7.06991 2.24672 -0.169035 -1.50588
726 -6.805 -4.65464 -6.92002 0.166431 -2.46464 -0.0537835
486 -6.88763 -3.19445 -6.8626 -0.975802 2.40163 -0.202433
151 -6.08614 -4.57383 -7.82006 0.347909 -0.275217 -1.4119
442 -5.32424 -3.76241 -7.86182 -2.48734 1.58823 -0.251689
443 -6.08462 -3.86311 -7.12242 1.37581 1.71242 0.859317
447 -3.79343 -4.70607 -7.29241 0.247654 -2.25373 -0.694982
777 -5.01992 -4.0094 -6.37067 -1.03402 -0.586117 0.169999
448 -4.53006 -4.00498 -7.27229 2.39636 -0.100254 -2.32685
495 -3.70923 -3.34059 -7.22279 0.584247 -0.508557 1.17675
733 -3.90071 -4.02241 -6.47591 -0.931034 0.263343 -0.395968
451 -2.24791 -4.75892 -7.45167 -0.262388 -0.77956 -0.564997
452 -2.70212 -3.90304 -7.42522 0.222462 -1.81734 -0.381302
734 -2.9993 -3.47041 -6.45846 1.78394 -1.61216 -0.463195
454 -0.754439 -3.94251 -7.93092 -0.653758 -0.401585 -0.854243
456 -1.56257 -4.01904 -7.15844 1.08566 1.78336 -1.46107
503 -0.813234 -3.19314 -7.08021 -1.16335 -1.62571 -1.71232
789 -1.61181 -3.47486 -6.39209 -0.561062 0.00932483 1.90519
505 -0.110617 -3.24652 -7.85276 0.928425 -0.780637 -0.0731976
742 -0.732612 -4.01401 -6.51462 -0.0899344 -1.14727 -1.75775
460 0.153504 -4.04093 -7.28759 -0.0252937 0.647699 1.62828
793 -0.0418514 -3.23512 -6.36712 -0.141074 2.23334 0.78381
507 0.689601 -3.18761 -7.03535 -2.09794 -0.41367 -2.51771
464 1.23125 -3.9276 -7.29871 1.09855 -1.18274 -0.598468
511 2.17317 -3.3077 -7.24768 -2.27438 -0.148252 2.08131
749 1.68031 -4.68502 -6.43623 0.0105747 1.42708 0.924946
468 3.03633 -4.04386 -7.20066 1.0525 -2.95642 1.43333
750 2.39895 -4.0972 -6.39133 0.209514 -0.927564 -0.386196
466 4.01012 -3.81596 -7.68871 1.69199 -0.36154 0.252344
706 4.91941 -3.82826 -7.88368 -1.15186 -0.394995 -1.86599
519 4.59408 -4.30806 -6.90791 0.853876 -0.733822 -0.657695
754 3.67197 -3.80974 -6.44425 -0.0272176 1.40141 0.0977993
761 6.23282 -4.55647 -7.53162 -1.42508 0.840393 0.271552
807 5.94931 -4.0117 -6.73836 0.0839264 0.656848 -1.56314
521 5.93909 -3.35232 -7.61255 -0.54168 -0.728929 -1.34797
477 7.92863 -4.68818 -7.87403 -1.15717 -0.892397 -1.48067
480 6.99789 -3.70183 -6.9621 1.07243 1.10525 -0.962951
523 7.72216 -3.62874 -7.79578 0.826279 1.20913 -0.271121
765 7.8083 -4.42997 -6.43938 -0.762796 -1.09719 -0.821599
768 7.92403 -3.42791 -6.71224 2.12439 1.47655 0.354438
478 8.60398 -3.91976 -7.44643 -0.815947 1.05794 -1.68984
766 9.51646 -3.8195 -7.09215 -0.883647 -1.11973 0.367825
721 8.73974 -4.09017 -6.38037 -0.781803 1.80397 -0.519026
436 -8.40653 -2.92534 -7.39271 0.222023 1.90422 -1.70096
532 -8.66624 -2.20094 -6.37293 -2.58234 -0.888064 -0.66573
487 -8.16727 -2.00469 -7.35592 0.0358162 -0.323641 1.33677
527 -9.52032 -2.48609 -7.2066 3.02917 -0.49933 -1.68704
816 -9.03613 -3.08628 -6.54432 -0.251262 -0.867171 0.834678
488 -7.34898 -3.0188 -7.64741 1.32006 -0.314041 1.31764
485 -6.92667 -2.20846 -6.67012 0.393447 0.525485 0.744955
492 -6.65954 -2.28527 -7.60846 0.0408408 -1.09777 -1.03057
770 -7.77989 -2.7837 -6.47553 0.275424 -0.775001 -0.88368
489 -6.13824 -3.07256 -7.71574 -0.430907 1.91222 0.50081
491 -5.20519 -3.16063 -7.09744 0.881624 -0.42039 -0.884028
490 -6.0206 -2.47855 -6.8048 0.317747 -1.24238 2.30596
539 -5.32448 -1.70821 -7.17339 0.302043 -1.32987 -0.789428
493 -4.52153 -3.10254 -7.89878 4.84343 -1.03811 1.12141
496 -4.44498 -2.23379 -7.08299 0.998744 -0.087944 1.4306
778 -5.08556 -2.29923 -6.3784 -0.633277 2.65345 -1.29912
500 -3.09957 -2.6447 -7.16895 1.16838 -0.440406 -0.458896
498 -2.34787 -2.23721 -7.86108 0.278785 -0.437292 -0.909048
833 -3.16108 -1.66515 -6.37782 -0.0782879 -0.125831 0.826833
786 -2.31387 -2.35174 -6.39571 -0.887344 0.316557 0.579775
499 -2.13803 -3.03263 -7.18699 -0.802934 -0.360661 -0.867037
504 -1.45341 -2.35173 -7.14036 -0.94724 -0.0801101 1.6945
790 -0.818697 -2.34154 -6.47847 0.589944 -1.93016 0.113659
508 -0.146295 -2.44668 -7.29069 -0.768692 -0.417333 -0.879718
555 0.678138 -1.61228 -7.23634 -1.34855 -0.460541 -0.509083
794 0.73395 -2.23504 -6.48229 1.72999 1.81616 0.355463
219 1.36873 -3.14827 -7.87233 -1.68928 -0.658213 1.5929
512 1.5312 -2.38312 -7.25461 -0.591428 -0.318297 1.91342
798 2.10514 -2.4923 -6.47418 -1.3445 2.03228 -0.558921
510 2.30364 -2.43772 -7.81349 0.884399 0.958752 0.0515267
223 3.11187 -2.95299 -7.93525 -0.157811 0.57813 -0.276711
516 3.0451 -2.10355 -7.27282 2.30315 0.477103 1.36893
801 3.04678 -3.00042 -6.51024 -1.85043 -2.15236 0.704707
514 3.84111 -2.13594 -7.87793 -1.88555 0.374374 -1.46211
513 3.80225 -2.86062 -7.25586 -0.774486 -0.910522 0.951015
515 4.55876 -2.00488 -7.19335 -1.15693 0.404157 -0.441489
802 3.74615 -2.11135 -6.4713 -1.35354 -0.0605592 -0.856655
472 5.07935 -3.1199 -7.07 1.38728 1.62556 2.22205
1050 6.10585 -2.85946 -6.68076 -0.665575 1.19994 -0.417258
806 5.36661 -2.05799 -6.39586 1.51773 0.240846 -1.59405
520 6.10965 -2.2614 -7.4232 -1.28771 1.26661 1.13364
525 7.91004 -2.31339 -7.80393 -2.80594 0.756532 -1.5262
524 6.96816 -1.80607 -7.68752 -1.79852 -0.239149 0.954023
809 7.11572 -2.7836 -7.48327 -0.95357 -0.523182 0.201085
812 7.31514 -1.87879 -6.66835 0.451952 0.336692 -0.911822
810 8.3026 -1.94034 -6.85291 0.0117719 -1.0927 1.99218
813 8.6539 -2.93537 -7.40679 0.720408 1.34431 0.455792