ITEM: TIMESTEP
41000
ITEM: NUMBER OF ATOMS
6912
ITEM: BOX BOUNDS pp pp pp
-9.5244063118091962e+00 9.5244063118091962e+00
-9.5244063118091962e+00 9.5244063118091962e+00
-9.5244063118091962e+00 9.5244063118091962e+00
ITEM: ATOMS id x y z vx vy vz
290 -8.81746 -8.89354 -7.89779 -0.531191 -0.491749 -1.10771
51 -9.00858 -8.03856 -8.90879 0.804632 0.153093 0.0475416
245 -7.93818 -1.5135 -9.49291 -1.04106 0.881634 0.0219688
8 -7.98149 -8.84519 -8.867 -1.02431 -1.3706 0.00885003
1185 3.30701 -9.41953 -3.07805 -1.42807 0.466457 -0.606126
12 -6.28041 -8.89805 -8.64471 0.849464 1.53111 -1.76181
59 -5.42004 -8.00159 -8.68789 2.62458 -1.66423 -0.224616
1782 -7.02729 -7.21395 -0.104048 -0.180671 2.59618 -0.813267
98 -8.85736 -5.46544 -9.44967 -0.122388 1.48209 0.297391
16 -4.74737 -8.89695 -8.57561 0.0173804 1.08275 -0.377793
302 -3.89452 -8.73913 -7.89504 -0.796387 -0.105859 2.62096
349 -4.72869 -7.98925 -7.97941 1.5761 -0.494505 -0.3988
20 -3.11253 -8.92366 -8.63396 -0.168068 0.365881 1.37667
4935 5.52508 -0.0612137 -0.981646 -0.240437 -0.65488 2.05973
306 -2.36539 -8.89188 -7.99535 -0.169084 -0.56424 1.41721
24 -1.4196 -8.75019 -8.63135 0.833499 -2.08697 0.369775
310 -0.512656 -8.65596 -7.90965 0.980018 1.76182 -0.589723
28 0.0432736 -8.81515 -8.70915 -0.372099 -1.01917 -0.683167
46 8.86399 -8.86491 -9.32825 -0.336469 2.41379 -0.0429843
1853 1.64282 -6.40621 -0.0549484 0.630984 3.16439 -0.623557
32 1.54724 -8.90112 -8.57469 2.20039 0.898683 0.566144
365 1.69402 -8.02839 -7.94679 0.73537 0.494258 1.57866
246 -7.11972 -0.82419 -9.46953 0.468249 -0.609448 0.37169
36 3.28801 -8.64856 -8.81422 -0.501079 1.53254 0.608127
79 2.55342 -7.78891 -8.72768 -0.481835 -0.0690606 1.6845
226 4.0038 -2.48783 -9.52794 1.73022 -1.35816 -2.07256
1785 -6.30144 -8.05526 -0.105053 -0.901383 0.0310846 -0.730957
40 4.83932 -8.81006 -8.87626 -1.34083 -1.97576 -0.786521
133 4.65728 -6.37831 -9.35927 -0.611196 0.669784 -0.117253
4323 -8.56359 -0.0292347 -3.97029 -1.50137 0.186278 1.46641
44 6.40312 -8.70094 -8.79962 -0.247355 0.370966 0.538707
87 5.45172 -7.89709 -8.71427 1.261 0.962045 1.21761
377 6.20739 -7.9689 -7.94962 0.692549 0.577853 1.11854
4035 -8.81454 -0.0252164 -5.26266 0.802986 2.80183 1.40265
18 -2.21454 -8.75585 -9.4289 1.21609 0.100194 0.3699
48 8.00745 -8.82083 -8.6277 0.0488991 -0.959379 0.492006
330 7.04311 -8.72525 -8.07446 1.9509 3.14558 -1.57725
4637 1.53362 -0.168273 -3.26262 0.784886 3.04329 -2.23404
1933 -4.88822 -3.31263 -0.189927 -0.369539 -0.393555 0.382509
91 7.19194 -7.90698 -8.94562 0.633629 -0.0851235 -1.28534
4 -9.50588 -8.89726 -8.59714 -1.25409 1.47152 -0.659194
337 9.44622 -7.95497 -8.01237 0.122874 -0.782007 0.733304
95 8.6953 -7.80818 -8.67615 -0.964642 2.07825 1.32971
70 -0.805046 -7.15505 -9.51366 -2.14694 -0.334832 -0.202756
334 8.73689 -8.70573 -7.92384 -0.524726 1.32397 1.34294
99 -8.77927 -6.19938 -8.83001 -0.0621097 -0.341273 0.0760667
2010 7.21488 -0.813173 -0.172304 -1.12356 1.45608 0.0329906
55 -7.32236 -7.95716 -8.7404 -0.33224 2.05329 0.853854
56 -8.28853 -7.15169 -8.80697 -1.91711 0.842843 0.870399
103 -7.23515 -6.63851 -8.73766 0.332061 0.614598 3.28691
4053 -1.40973 -0.0458444 -6.23602 -0.409409 -1.32979 -0.456748
1790 -4.24067 -6.95576 -0.0299654 1.60714 1.42964 -0.797318
60 -6.28508 -7.45606 -8.63269 -1.23672 0.821571 0.0689621
346 -5.46756 -7.23236 -7.98736 0.905262 -0.441367 -1.52745
107 -5.54978 -6.39775 -8.64797 -0.0884499 0.820749 -2.30406
63 -4.06712 -8.2063 -8.8193 0.491136 -0.350692 1.69735
64 -4.76152 -7.18774 -8.84599 -0.841972 -0.674879 -1.0794
111 -4.03146 -6.31506 -8.7196 1.669 -0.56645 1.0248
397 -4.8063 -6.37927 -7.89884 2.11846 0.543955 0.011348
4079 8.83953 -0.153291 -5.63167 0.270868 1.66859 -1.37144
68 -3.01589 -7.18666 -8.72472 -1.34708 -1.78629 -0.723712
115 -2.33638 -6.40852 -8.52853 -0.22326 -0.394756 1.2393
71 -0.617262 -7.97023 -8.77679 3.36534 0.728492 -0.702027
67 -2.31418 -8.04637 -8.4609 0.148817 1.80096 -0.288872
72 -1.46916 -7.23853 -8.56639 0.614496 0.493596 1.58263
1849 -0.0467645 -6.38505 -0.107748 1.27745 1.26391 0.49401
405 -1.40586 -6.2398 -7.97487 -2.26567 -0.935621 1.63613
75 0.98549 -8.07402 -8.85203 0.323852 -1.99979 0.168238
76 0.0256772 -7.18395 -8.87594 -0.568136 1.00613 -0.510882
80 1.51146 -7.20556 -8.77129 -0.0492636 0.531479 -1.68493
123 1.01913 -6.29159 -8.70944 0.53051 -1.27031 -0.202856
362 0.715298 -6.93293 -8.09835 -1.1684 -1.10292 -1.1494
84 3.25017 -7.19891 -8.7189 1.20339 -0.303094 -0.63332
597 -1.45707 -9.38617 -6.17025 1.19031 -0.271662 -2.03635
4055 -0.606489 -0.0265659 -5.36475 -0.940287 -0.375617 -1.44305
83 3.95594 -7.94545 -8.74964 -1.03696 4.78611 -0.266945
88 4.73617 -7.24947 -8.62712 -0.242157 0.0840853 -1.31533
131 3.96336 -6.33766 -8.63776 -0.497935 -0.560301 -0.628282
370 3.89142 -7.05622 -7.9084 -1.31241 2.06691 -0.911851
3761 -3.11319 -0.177878 -8.10039 0.295495 0.237156 2.01817
92 6.22036 -7.08313 -8.71635 -1.70995 0.507019 1.42876
1837 -5.0724 -6.42135 -0.185257 0.0414102 -0.102625 0.556543
96 8.00411 -7.13342 -8.70221 -0.233231 0.51064 -0.593482
139 7.07358 -6.24531 -8.66248 -2.30469 2.64985 1.64232
4367 8.86224 -0.130941 -3.77435 0.754964 0.571 1.10011
52 9.45756 -7.17829 -8.68349 1.08994 -0.801514 -1.99077
143 8.53829 -6.20819 -8.79565 -1.0339 1.58024 0.159884
4351 2.152 -0.127297 -4.14837 -0.929194 1.03277 1.18243
4925 1.54126 -0.234774 -1.58389 -1.01482 1.06937 1.30434
1465 -0.167854 -9.44544 -1.52755 2.45136 -0.0464093 -1.21468
104 -8.04541 -5.43074 -8.92352 -0.184074 -0.559274 0.0853677
3499 7.09408 -0.0404803 -8.67083 -0.100628 -0.941235 -1.20374
147 -8.93667 -4.68072 -8.64342 -0.0574456 0.0100726 0.527431
433 9.51839 -4.79231 -7.87861 1.22575 0.242039 1.0339
1738 -5.43357 -8.82973 -0.0231484 0.938717 1.20938 -0.460129
151 -7.19779 -4.67565 -8.90933 0.204448 -1.33969 -0.320751
3483 0.800296 -0.0319398 -8.75861 -2.00921 1.09852 0.605594
887 -0.881706 -9.30562 -3.88727 0.736682 0.819589 0.28801
108 -6.45342 -5.83204 -8.72995 0.0402804 0.27524 0.767895
155 -5.79251 -4.85412 -8.83626 -0.811567 0.249744 -0.30516
214 -0.634222 -2.35761 -9.50482 0.828356 -1.56855 -0.662825
1441 9.49761 -9.38829 -1.54946 0.598514 -2.2104 -1.78181
112 -4.72722 -5.3782 -8.7874 -0.256185 -0.0277997 -0.464694
202 -5.55611 -2.36917 -9.39866 0.959587 1.21037 -0.340838
398 -3.98586 -5.53828 -8.00736 0.893381 -1.93521 4.14791
116 -3.10043 -5.65479 -8.66157 -0.949405 -0.242567 -0.100293
402 -2.21524 -5.48893 -7.98702 0.210705 1.22864 2.77892
1473 3.14536 -9.42583 -1.49297 0.985808 -0.192389 1.75087
120 -1.39346 -5.52957 -8.72058 -0.337855 -0.14589 -0.0114946
167 -0.697114 -4.75524 -8.8137 2.08336 0.956765 -0.276783
406 -0.585697 -5.39379 -8.01365 -1.40717 0.819549 -1.71251
119 -0.600738 -6.26911 -8.7199 0.0789306 1.50376 -0.871862
307 -2.22085 -9.46563 -7.07335 0.387081 -1.77433 -1.41039
124 0.161134 -5.46023 -8.84031 -0.412001 0.730901 -1.69669
128 1.69726 -5.50772 -8.75916 2.15116 -1.49146 -1.85725
171 0.813749 -4.71705 -8.70865 -0.0643449 2.4006 -0.228536
127 2.5774 -6.3866 -8.74407 1.32256 -0.990499 -2.4377
132 3.11235 -5.61098 -8.78227 0.756651 1.78736 -1.69071
175 2.46894 -4.7346 -8.75437 1.14797 -0.25588 1.58772
414 2.28828 -5.44234 -7.90448 2.34616 -2.00847 -1.78511
136 4.70228 -5.53824 -8.76341 1.72222 -1.47995 -1.26456
4341 -1.41646 -0.0187827 -4.72054 -0.376882 -0.740325 0.629906
421 4.67619 -6.36848 -7.94451 -1.05767 -0.685334 0.622879
135 5.40487 -6.34797 -8.73529 0.802086 -0.565338 0.850763
140 6.17543 -5.59563 -8.68795 0.848708 0.428199 -1.74076
425 6.27883 -6.50535 -7.87323 -2.77615 -0.894982 0.173962
422 5.39427 -5.49355 -7.81389 0.737691 -0.0291242 -0.199373
3783 5.57052 -0.0652427 -7.19097 -1.08136 0.416839 -1.64366
144 7.85302 -5.31255 -8.45469 0.26758 0.455004 1.50549
187 6.96822 -4.76956 -8.42234 -2.52567 -1.07858 0.590576
426 6.92513 -5.51639 -7.84598 -0.254151 0.646606 -0.374991
477 7.68321 -4.6507 -7.6637 0.16848 -2.53704 -0.626374
4345 -0.0125518 -0.0124047 -4.44637 0.453318 -0.718792 1.52811
100 9.37906 -5.51065 -8.7802 0.0255906 -0.191485 0.189539
191 8.7186 -4.81477 -8.60315 -1.77143 1.5928 -1.75228
434 -8.80177 -3.71315 -7.98101 -0.201076 -1.69557 0.537646
437 -8.02589 -4.6618 -7.94587 1.23505 -0.883383 1.11579
4647 5.49944 -0.0182265 -2.3348 1.32432 1.0625 0.79169
152 -8.15604 -4.02157 -8.81192 -1.81232 -0.704989 -1.71033
485 -8.04853 -2.88782 -7.96366 0.506048 1.60838 0.593671
1877 -7.98092 -4.94903 -0.0837521 0.110775 0.434015 -0.463367
273 3.3013 -1.70172 -9.48869 -0.168355 -2.1954 -0.0279229
156 -6.41748 -3.94198 -8.78581 0.25641 -2.57165 1.36519
442 -5.50038 -3.96373 -7.82502 1.08771 2.15859 0.14279
1487 8.78591 -9.44366 -0.679627 -0.360054 -0.407139 0.124466
489 -6.40452 -3.20611 -7.94236 0.557101 -0.335013 1.54341
891 0.741682 -9.48991 -3.89192 -1.11119 0.805982 -0.038972
159 -3.8957 -4.8034 -8.70974 0.86891 0.8727 -0.101157
160 -4.95428 -3.94072 -8.71128 0.310557 -1.33978 0.44805
446 -3.83113 -3.98131 -8.14616 -1.74732 -0.181731 -0.796474
493 -4.56075 -3.16464 -7.93925 1.7767 1.22415 -1.67224
163 -2.16682 -4.80197 -8.79173 0.46434 -0.918359 -1.0372
164 -2.97222 -3.9707 -8.86914 -0.258069 -0.295828 1.11668
211 -2.36578 -3.11166 -8.76274 0.147727 -0.331883 0.620875
497 -3.03446 -3.34232 -8.02291 0.20593 1.51275 -1.43033
449 -3.01547 -4.84968 -8.02435 -0.724385 -0.369822 0.0179196
450 -2.12082 -3.86483 -8.11031 -1.04425 1.02712 -0.160867
453 -1.45323 -4.74398 -8.01119 0.149929 0.179334 -1.56313
168 -1.47368 -4.0214 -8.83396 -0.979628 1.00923 -0.695505
215 -0.919033 -3.21226 -8.82697 1.0686 1.12332 -2.17582
454 -0.935643 -3.8501 -8.00391 0.0412814 0.431041 0.79446
172 0.00488559 -4.02745 -8.72704 -1.63119 -0.987306 -0.976168
134 5.54355 -5.31834 -9.48919 1.54445 0.634583 -0.0294722
176 1.69349 -4.07667 -8.70285 1.29637 1.25544 0.774164
458 0.767145 -3.96141 -7.95903 -0.159964 0.870743 -0.613201
465 3.14316 -4.95637 -8.00703 -0.202706 2.12254 0.990964
180 3.17673 -3.99849 -8.76288 2.15404 0.76885 -0.330741
4909 -4.7879 -0.0236557 -1.4306 -0.445453 0.970496 -0.119169
1193 6.26977 -9.33386 -3.21439 0.566791 -2.08818 -1.10338
462 2.32133 -3.88473 -7.90665 -0.619086 -0.763675 2.10424
3485 1.65258 -0.00819537 -9.40064 1.52683 -0.120678 -0.956114
469 4.7155 -4.64349 -8.0633 -0.549293 -0.0931033 -1.53374
179 3.89551 -4.70325 -8.84725 0.28434 -0.351321 0.0185112
184 4.60051 -3.88116 -8.70013 -0.34257 -1.40354 -0.602016
227 3.83637 -3.23203 -8.86382 0.346698 1.37239 -0.141145
466 3.8204 -4.04464 -8.0714 -0.0513008 -0.312788 -0.589378
183 5.60047 -4.77351 -8.66365 -0.97132 -1.555 0.476094
188 6.40291 -3.86577 -8.70766 0.350313 0.229954 1.2803
473 6.08237 -4.76661 -7.7946 -0.909281 1.2436 0.263701
192 7.74105 -3.98678 -8.67598 1.23911 0.17582 -0.820659
474 6.98607 -3.85709 -7.84778 0.00673571 2.10635 -2.03814
148 9.32667 -4.00276 -8.56756 1.21097 0.366482 0.418139
478 8.51987 -3.9883 -7.86283 -0.676236 0.305527 1.41669
481 9.34356 -3.12475 -7.76579 -0.123422 -1.32539 0.791971
195 -8.95358 -3.15071 -8.77172 -1.93962 0.105872 0.820825
196 9.43619 -2.28376 -8.73724 1.2356 0.243034 -0.0434342
243 -8.81627 -1.42921 -8.7528 -0.183668 -0.216777 -0.227551
529 9.3268 -1.50328 -8.06071 -2.36557 0.0933849 0.950873
482 -8.8499 -2.18867 -8.03748 0.473718 -0.184074 -0.374135
200 -7.94259 -2.38099 -8.92071 -0.411325 -0.96333 -1.69584
199 -7.15816 -2.99865 -8.63136 2.51374 -0.115824 1.53766
533 -8.00239 -1.57166 -8.21712 0.84079 -0.242929 0.423822
203 -5.64346 -3.09267 -8.71352 2.21043 0.0862168 -2.12414
204 -6.28534 -2.27941 -8.76115 1.31628 0.919005 -0.438481
207 -3.78776 -3.25038 -8.82281 -0.504635 0.756703 0.42195
208 -4.52786 -2.48378 -8.72616 0.37395 1.03372 2.46483
255 -3.96994 -1.58338 -8.73654 0.471411 0.429183 -0.353712
494 -3.93438 -2.22253 -7.88438 -1.24462 -0.364231 2.60966
212 -3.1036 -2.48078 -8.69773 -0.629792 1.55657 1.6915
259 -2.38137 -1.61458 -8.83326 0.705502 -0.376708 0.149989
498 -2.43639 -2.4242 -8.03215 -0.521378 -0.029095 0.63484
545 -3.07129 -1.58222 -8.01127 2.29288 2.26892 -1.32174
216 -1.6106 -2.313 -8.77275 -2.22183 0.566228 0.837363
263 -0.52084 -1.51508 -8.68529 -0.0115553 0.329647 0.110671
501 -1.5294 -3.00453 -8.06328 -0.298157 0.469186 -0.416195
549 -1.49446 -1.81096 -7.91608 -2.46525 1.53417 0.277748
220 -0.0599475 -2.4201 -8.7098 1.26947 0.316187 -1.29257
506 0.870946 -2.53861 -7.81883 0.0643946 0.416841 -0.774428
219 0.73063 -2.96633 -8.75782 0.0321028 -1.00738 1.17564
224 1.57451 -2.41579 -8.80404 -1.79357 1.24055 -0.376164
267 0.752155 -1.72584 -8.79666 -1.0836 0.539781 -0.354441
557 1.58213 -1.65776 -8.01098 1.63685 1.83745 0.378849
509 1.65999 -3.18209 -7.99957 -0.489827 0.360347 0.617331
223 2.39143 -3.17805 -8.84875 0.00699852 0.331946 -2.85047
228 3.2116 -2.46133 -8.73117 -1.24085 -0.282358 1.17827
271 2.33309 -1.69724 -8.68007 0.421096 0.225795 -0.630652
4037 -8.18526 -0.229363 -6.17921 -1.28235 -0.58329 0.199116
232 4.60259 -2.45041 -8.72517 1.00032 0.540844 0.987141
514 3.8901 -2.37471 -7.86531 -0.888879 2.16408 -2.22717
275 3.92298 -1.66581 -8.55683 -0.248834 -0.872697 1.24193
231 5.39269 -3.10392 -8.7084 -0.879676 0.0511929 -0.221094
236 6.27775 -2.40697 -8.78547 -0.400074 0.378299 1.21487
518 5.36661 -2.37594 -7.86061 -0.727324 -0.908545 0.186737
279 5.47258 -1.60818 -8.62305 1.71221 -1.5813 1.62266
521 6.21712 -2.97629 -7.98724 -1.29576 0.840759 1.48972
569 6.22363 -1.57859 -7.94541 -1.38624 0.468158 0.329012
235 7.05942 -2.95643 -8.80937 1.11436 -1.78806 -0.470583
525 7.77178 -3.0947 -8.06504 -0.939231 -2.46934 0.172551
607 2.45458 -9.44251 -5.4193 -1.27991 -1.85849 1.09913
240 7.79821 -2.26365 -8.81036 -0.880977 1.26631 1.52887
239 8.62915 -3.33222 -8.72089 -0.166641 0.312652 0.864358
526 8.61699 -2.3297 -8.06904 -2.32199 -1.43595 -0.702978
530 -8.57891 -0.696529 -8.08705 0.046236 0.195525 0.0738805
247 -7.1102 -1.57386 -8.70085 1.02028 -0.316763 -1.72351
248 -7.87826 -0.838889 -8.78201 1.38309 0.264545 1.31563
534 -7.16032 -0.78926 -7.86243 0.474819 0.766891 -1.15418
605 1.64643 -9.40256 -6.35818 -0.388071 0.960471 0.650048
241 9.46443 -1.4743 -9.381 0.173471 0.501992 -1.83839
251 -5.41902 -1.67555 -8.62639 1.26003 0.92058 -0.539756
252 -6.38095 -0.576276 -8.73851 -0.364147 -0.00384345 -0.00526799
538 -5.59232 -0.686848 -8.13349 -1.07778 -1.03739 -0.997018
537 -6.34758 -1.53366 -8.00737 0.993966 -2.98314 -0.142367
541 -4.74385 -1.52798 -8.0241 1.2158 -0.447253 0.349561
256 -4.7448 -0.798773 -8.68032 0.226337 -0.96429 -0.377634
542 -3.87443 -0.87381 -8.04205 0.583865 0.0575108 1.10426
5201 -3.2501 -0.125326 -0.0126502 1.73863 -1.66939 1.05785
4063 2.19746 -0.0312239 -5.57138 -0.944646 -0.945172 0.582303
4051 -2.19811 -0.035857 -5.65637 -1.48783 -1.17026 1.93811
260 -3.10938 -0.999158 -8.9536 0.835094 0.847672 -0.225396
1455 -3.9593 -9.47112 -0.652508 0.113618 -1.61466 0.539101
264 -1.46958 -1.07673 -8.66248 0.764769 0.0663712 -1.6748
550 -0.683128 -0.776987 -7.94515 -0.38252 -0.222557 0.358939
268 0.0918713 -0.754161 -8.78726 0.14239 0.374224 -1.52966
553 0.188126 -1.55676 -7.7457 -0.294466 0.426709 1.79303
6 -6.82145 -8.84786 -9.39883 -0.0225258 -0.0622391 0.0348368
583 -7.2891 -9.52057 -5.6633 1.48854 1.71229 -0.400869
272 1.48405 -1.0576 -8.84353 0.549035 0.755312 2.33629
554 0.826509 -0.752063 -7.98157 -0.594292 -0.776244 -1.21575
3493 4.68512 -0.0447032 -9.51538 -1.11925 0.949995 -0.614028
907 7.12299 -9.47595 -4.06108 -0.500986 0.590076 -1.7091
276 3.20203 -0.734369 -8.70231 -1.52223 -2.45818 0.662142
561 3.03698 -1.5942 -7.96358 3.33292 -0.657216 0.0985319
558 2.23974 -0.865422 -8.04741 0.936396 -0.872286 1.56438
89 6.40596 -7.84296 -9.46596 1.07573 -0.600576 -0.981698
166 -0.700172 -4.05265 -9.45804 0.449466 -0.110822 0.301137
280 4.82101 -0.902806 -8.9107 -0.512108 0.368806 -0.0238538
562 4.04168 -0.716557 -8.13569 -0.894519 -0.761727 -2.04145
1199 8.91081 -9.40815 -2.5267 0.792405 0.9502 0.631593
284 6.29898 -0.824418 -8.90029 1.87487 -0.184439 0.0599522
566 5.42435 -0.753697 -7.98875 0.604783 -1.72194 0.203872
299 -5.59069 -9.45658 -7.01234 0.787556 -0.154122 -0.607487
5221 4.87722 -0.0332383 -0.0528295 -0.407632 -0.956123 0.0964381
573 7.86128 -1.55161 -7.88423 -0.627496 1.90767 0.495689
283 6.93041 -1.60105 -8.80375 0.233472 -0.31541 1.8337
4641 2.94418 -0.119375 -3.33955 1.21823 -0.295825 -1.34501
288 7.69364 -0.836408 -8.70202 0.90603 -0.0371279 2.38054
570 6.91025 -0.826578 -7.84507 2.26575 0.255033 -0.780834
1723 7.30868 -1.73862 -0.75489 -0.0106271 -2.76896 -1.00293
4639 2.38115 -0.202179 -2.33182 0.199055 -0.883638 -1.5031
1833 -6.26848 -6.28455 -0.0238655 2.95113 -0.951627 0.445075
287 8.5674 -1.50809 -8.73612 -1.88691 -0.00671844 -0.479974
244 9.49669 -0.710146 -8.6361 -0.204702 0.256656 -0.0573096
341 -8.11258 -8.14968 -8.16207 -0.301327 -1.13185 -0.640665
292 9.43108 -8.94784 -6.94744 0.843201 -1.57842 0.837219
339 -8.94381 -8.02697 -7.22476 0.128231 1.06526 1.13268
296 -7.84446 -8.82206 -7.28024 -0.706716 0.880062 2.23999
294 -7.1694 -8.74707 -8.04669 -2.56765 0.481835 2.27992
343 -7.26431 -8.13103 -7.09435 -0.0409865 -1.05557 0.168924
633 -6.38828 -7.90005 -6.4065 0.446849 1.81771 -1.3242
582 -7.2006 -8.75997 -6.36378 -0.355751 0.0889347 -2.03574
298 -5.54342 -8.87818 -7.97206 1.11484 -1.92405 0.682349
345 -6.29144 -8.10365 -7.88632 -1.61163 -1.25343 -0.934602
300 -6.38836 -8.82635 -7.1444 0.321738 1.16321 -1.00962
347 -5.50568 -8.0313 -7.31595 -0.809225 0.865674 -0.361716
304 -4.73926 -8.70869 -7.05449 -1.52526 -1.15922 0.489793
590 -3.99637 -8.81018 -6.31962 0.699271 -0.266311 -1.61138
351 -3.88492 -7.96251 -7.14982 -1.17689 2.20644 -1.16891
637 -4.91718 -7.86739 -6.46162 -1.71083 1.01233 -1.55857
308 -3.19787 -8.94176 -7.17976 -0.975302 -0.62337 0.551751
641 -3.06894 -7.93149 -6.41094 -0.389293 -0.0966173 -0.826579
355 -2.35652 -8.23847 -7.22911 2.29607 -0.319069 1.42043
4333 -4.60564 -0.0767648 -4.75168 -0.397596 -1.06286 -0.115797
357 -1.31237 -8.04177 -7.91984 0.917163 1.25062 1.3163
312 -1.44243 -8.77449 -7.14087 -1.9385 0.336989 0.0835548
645 -1.45294 -7.91008 -6.51992 1.42301 1.0048 0.447971
1974 -7.25497 -0.747657 -0.179336 -0.27772 -0.810791 0.415439
1978 -5.59171 -0.950724 -0.266023 0.737798 1.4595 -0.561522
314 0.741612 -8.82681 -8.04548 0.350488 0.275449 -0.0544966
316 -0.118645 -8.80682 -7.06452 -0.305554 1.00132 0.0115321
363 0.747821 -8.21922 -7.13789 0.538637 -1.09774 -0.536874
598 -0.682424 -8.67726 -6.26633 2.24657 -1.19615 -0.744799
1722 7.28643 -0.929042 -1.49662 -0.27608 1.17845 -0.667467
286 8.50384 -0.782646 -9.50402 0.793009 0.1978 -0.633059
2006 5.64691 -0.642323 -0.0117277 -0.612851 2.451 0.134735
602 0.761205 -8.96676 -6.23121 1.0671 -0.295183 -0.408808
320 1.82489 -8.80329 -7.34187 -0.319051 -1.27022 -0.512359
318 2.57738 -8.55814 -8.05033 0.233528 0.546219 -0.493845
324 3.09717 -8.87242 -7.04805 -0.0234055 -1.09061 -0.537992
367 2.55056 -8.0049 -7.14297 0.0965084 0.965718 0.659642
606 2.52941 -8.8229 -6.11369 0.246097 0.636855 0.283374
4321 9.49535 -0.119073 -4.53897 0.77871 -1.07122 0.456408
373 4.70951 -8.17184 -7.76595 0.481014 1.136 -0.0745731
322 3.92007 -8.80297 -7.83731 0.744064 -0.347786 0.706346
328 4.82494 -8.8354 -6.91095 0.57445 0.853369 -0.903178
326 5.64445 -8.79948 -7.98284 -1.11159 1.86221 -0.904803
332 6.30356 -8.95239 -7.10422 0.644057 0.777642 0.673932
665 6.2291 -7.95515 -6.25239 0.986453 -2.63073 2.38036
375 5.55411 -8.03512 -7.16045 1.92549 0.345997 -0.523702
336 7.78473 -8.72078 -7.28158 1.08847 0.780539 -1.79968
381 7.77322 -7.94829 -8.04459 1.86972 -0.152435 -0.58399
4919 -0.888741 -0.281983 -0.719729 0.694542 0.0349854 -0.718795
383 8.60097 -7.90651 -7.32528 -0.132374 -0.297049 -1.68912
253 -4.7148 -1.60625 -9.38854 -0.602057 0.725783 0.582833
338 -8.86173 -7.29672 -7.95278 -1.48736 0.558968 -1.67929
344 -8.06527 -7.25876 -7.14704 0.555809 -0.770323 0.427229
387 -9.01319 -6.5426 -7.26737 -0.0041549 -0.166346 -1.40024
342 -7.1259 -7.44905 -7.83448 0.0809202 0.701481 0.363169
630 -7.15687 -7.19722 -6.48755 -1.07828 0.0826802 1.09771
389 -8.16882 -6.5734 -7.88804 -3.02733 -0.969423 -1.15923
348 -6.3353 -7.30614 -7.21499 0.849375 -1.55326 0.724296
634 -5.53162 -7.04123 -6.37027 -1.87206 -0.295409 1.13527
395 -5.75781 -6.48003 -7.09087 -2.02421 -1.24971 0.351585
681 -6.51756 -6.22881 -6.62973 -2.34378 1.86861 0.425393
350 -4.02863 -7.13446 -8.07725 -1.6438 -0.334385 -0.118051
352 -4.79712 -7.25332 -7.22279 0.802229 -2.58417 0.913303
638 -4.00428 -7.20604 -6.5159 1.49773 -0.752077 1.63194
399 -3.87344 -6.45016 -7.23889 -2.47006 0.037154 1.31765
353 -3.2224 -7.99451 -7.9344 2.20333 1.94529 0.52916
354 -2.29489 -7.2167 -7.77209 -0.71192 -1.47345 0.928227
356 -3.13658 -7.23454 -7.20815 -0.191404 -1.22209 -0.0981278
360 -1.20427 -6.94294 -7.14795 0.154858 -0.224761 -0.356762
358 -0.590024 -7.06511 -8.0482 -2.1678 0.476604 0.67914
359 -0.552211 -7.8499 -7.04758 1.07883 1.20801 0.421391
361 0.182628 -7.88612 -8.13221 1.08642 1.55257 -0.738328
364 0.146037 -6.96058 -7.31022 -0.827392 0.980538 1.34333
409 0.110868 -6.11907 -8.06156 -2.02915 -0.306891 0.980116
413 1.74433 -6.39117 -8.03945 -0.866483 0.503232 -2.14162
368 1.78475 -7.09731 -7.09366 0.194779 1.5968 -0.830257
411 0.953517 -6.23648 -7.32162 0.832495 0.221556 2.45155
369 3.38387 -7.88821 -7.84813 -0.71411 -1.13964 -0.765859
366 2.51421 -7.13546 -7.81402 0.75979 4.27407 0.184477
417 3.19851 -6.23899 -7.91374 0.920485 -0.966308 -0.559831
372 3.24947 -7.07683 -7.03307 0.75872 -0.41208 0.320562
371 3.93737 -7.83748 -6.95553 -0.0469327 -0.642918 -1.85663
376 4.81088 -7.25707 -7.13122 -0.388509 0.708905 0.393951
419 3.98682 -6.36707 -7.0765 -0.152218 0.908438 -0.0743554
374 5.42159 -7.18599 -7.88623 -0.188186 -0.506689 -0.0372806
380 6.16624 -7.12552 -7.03733 -2.78184 0.2339 -0.336383
662 5.59335 -7.04756 -6.20225 -1.57702 -0.592609 -1.62475
713 6.34944 -6.33771 -6.25352 -1.07323 -0.482893 0.297723
378 6.95435 -7.25792 -7.93148 -1.39243 -0.201348 -0.793718
379 6.95736 -8.05029 -7.1574 -0.0623552 0.813656 1.19632
427 7.00929 -6.41665 -7.15199 -0.779401 -0.504437 -1.31222
384 7.8076 -7.18758 -7.29772 2.24123 0.394217 -0.590358
382 8.7341 -7.12096 -7.97222 0.782836 -0.451577 0.712565
669 7.85058 -7.81798 -6.49739 -0.929876 1.32925 -3.06611
385 9.34548 -6.34581 -8.10412 1.44757 -1.27218 -0.330106
340 9.43232 -7.31559 -7.2666 -0.836619 -0.639706 -0.78434
431 8.87687 -6.34123 -7.25753 -0.795576 -0.16156 0.641787
386 -8.78139 -5.44094 -8.12129 -2.69544 -0.450045 -1.03665
390 -7.44787 -5.67674 -8.24646 -1.48595 0.227172 -0.574053
391 -7.2562 -6.27125 -7.433 1.46092 0.184355 -0.285519
392 -7.98111 -5.55746 -7.28946 1.08672 -0.739633 -0.90659
439 -7.29761 -4.60647 -7.12158 -0.209944 0.188681 -1.37697
393 -6.39536 -6.63104 -8.06476 1.92113 -0.139205 -0.37379
394 -5.74944 -5.75605 -7.93066 -0.274794 -0.880568 1.27335
396 -6.57129 -5.40746 -7.17213 0.421703 -1.17669 -1.00087
682 -5.64855 -5.62768 -6.60732 1.14313 0.21844 0.690115
685 -4.79885 -6.4411 -6.56351 0.611066 1.02729 1.04323
400 -4.71173 -5.40888 -7.47037 -0.827617 0.524539 0.574371
686 -4.00959 -5.55515 -6.66653 -0.787212 -0.244294 -0.963204
733 -4.75998 -4.86504 -6.60784 0.175019 0.92888 0.123639
401 -3.14041 -6.36629 -7.94218 2.23052 1.41307 -2.34915
403 -2.34545 -6.28742 -7.20099 1.95441 -0.609065 -1.63611
404 -3.18193 -5.45281 -7.17754 -0.176852 -2.74649 0.65297
451 -2.36694 -4.70454 -7.15056 -1.68349 -1.70195 1.04941
690 -2.43614 -5.45949 -6.48802 0.386394 -0.44938 1.01566
737 -3.28238 -4.72806 -6.40899 -1.05034 2.19868 -0.660008
408 -1.6316 -5.5958 -7.19353 -1.62832 0.190252 1.66528
455 -0.844526 -4.89228 -7.13402 1.56822 0.19214 0.921891
694 -0.865555 -5.4402 -6.2234 1.75345 0.0870095 -1.16352
407 -0.723124 -6.085 -7.26269 1.16659 -0.452255 0.775213
412 0.152129 -5.39048 -7.07294 -1.02967 1.87885 -0.916818
698 0.952345 -5.46834 -6.25922 -0.021919 2.04325 -0.542677
410 0.898863 -5.45639 -8.01792 0.476474 -0.755385 -0.360401
416 1.63241 -5.43218 -7.20964 2.13537 -2.37954 0.527658
701 1.60821 -6.29429 -6.38092 1.00216 -0.0400398 0.753032
415 2.40289 -6.35799 -7.20111 0.792565 -1.46378 0.708627
420 3.12978 -5.59234 -6.96782 -0.348177 0.237942 0.159835
705 3.22119 -6.32748 -6.31181 0.660661 -2.5419 0.57872
702 2.35564 -5.43345 -6.19595 0.443881 0.594492 0.233131
418 3.92689 -5.4766 -7.76897 0.444491 1.2435 0.900176
709 4.76696 -6.37859 -6.10164 0.864164 -0.500041 0.232028
424 4.74139 -5.60938 -7.0632 -1.14492 0.193699 -1.95717
706 4.12664 -5.63046 -6.29659 0.813777 -0.349016 0.334492
757 4.74146 -4.8308 -6.34842 -0.820172 0.099167 0.446835
423 5.55768 -6.36301 -7.11872 -0.167008 0.293354 -0.332706
428 6.2941 -5.6402 -6.99845 0.592601 2.37376 0.206234
710 5.44576 -5.60456 -6.34672 0.583987 -0.500393 2.74686
429 8.02486 -6.39224 -7.89294 1.01917 0.560457 -0.794523
432 7.80709 -5.50464 -7.1575 0.518988 -0.834702 -0.390854
475 6.89456 -4.65641 -6.89572 0.992854 -1.9374 0.0536323
714 7.11676 -5.44762 -6.37805 0.263091 -1.8602 1.08266
765 7.82773 -4.80939 -6.49007 1.03379 -2.22442 -0.836908
430 8.67715 -5.50318 -7.81667 -0.792837 0.790062 -0.826361
388 -9.46505 -5.56087 -7.26019 1.88899 -1.09602 0.240852
479 8.69886 -4.73923 -7.13575 0.436323 0.771979 -0.563328
435 -8.74642 -4.66092 -7.27653 0.220946 -1.41494 1.08911
483 -8.81042 -3.15428 -7.1032 -1.42852 -0.297448 -1.06328
721 9.46445 -5.04281 -6.45645 -0.785488 0.164245 0.792736
725 -7.99835 -4.82876 -6.37632 1.12786 1.33771 -0.627563
440 -8.01314 -3.80719 -7.25745 0.467717 -0.233646 0.771316
438 -7.29206 -3.85016 -8.05735 -1.5245 2.4422 1.50137
726 -7.27273 -4.0035 -6.35408 -0.391169 -1.42452 -1.10849
487 -7.10883 -3.08325 -7.20002 0.134263 -2.50043 0.818891
441 -6.5701 -4.76245 -8.0337 -2.95973 -0.279066 0.669057
443 -5.47432 -4.84668 -7.24907 0.277341 0.0966912 0.659782
444 -6.38967 -4.22088 -7.22632 -0.272685 3.37796 1.0926
491 -5.57874 -3.15864 -7.09883 1.25226 3.64978 0.172158
445 -4.75205 -4.61483 -8.00138 0.394573 -0.474869 0.784204
447 -3.9416 -4.54714 -7.28022 -0.226312 0.913555 0.170536
448 -4.70767 -3.89204 -7.15912 -2.57618 1.88656 -1.43359
781 -4.78327 -3.04455 -6.31807 -0.276755 0.742438 -0.66416
495 -3.95769 -3.13538 -7.21548 0.874989 -1.75518 1.30819
452 -3.14644 -4.00902 -7.11817 -0.696996 -2.57758 -0.666153
738 -2.39181 -4.0861 -6.34719 -0.918422 0.18683 -0.72742
499 -2.2012 -3.26947 -7.26569 -1.57232 -0.215454 1.10218
785 -3.15529 -3.12135 -6.50181 0.534651 1.93592 -0.510396
456 -1.448 -4.03173 -7.16419 1.24264 0.769242 -2.83756
503 -0.80889 -3.17848 -7.14078 1.43247 -0.691216 0.0162659
741 -1.56558 -4.72116 -6.36852 -0.462864 0.153554 -0.444835
742 -0.652936 -4.05554 -6.2925 0.310715 1.93949 1.45669
457 0.13753 -4.73021 -7.92749 1.39564 0.610225 1.26316
745 0.0647078 -4.83585 -6.21786 0.320735 0.856935 -0.834986
460 -0.232074 -4.00255 -7.23249 1.71269 1.18712 -0.0190623
746 0.717387 -4.01968 -6.42634 -0.556534 0.311796 -0.176131
459 0.887654 -4.64173 -7.14841 -1.13128 -1.26227 1.20747
461 1.63685 -4.67816 -7.93176 -2.04404 -1.18784 -0.219475
464 1.59931 -3.90627 -7.0528 -1.07886 -0.372238 0.9278
749 1.5538 -4.64883 -6.15838 0.217361 0.617972 -1.20628
463 2.46277 -4.67332 -7.16162 2.58186 -0.209714 -1.83078
468 3.24801 -3.91456 -7.07295 2.80062 -0.911804 1.80491
801 3.16424 -3.19032 -6.42535 -0.750291 0.181406 -0.509518
750 2.48774 -3.96426 -6.37412 2.45502 -0.5733 2.63149
753 3.32271 -4.62958 -6.31643 2.11523 0.0742184 -1.45854
467 4.05404 -4.77762 -7.07274 -1.35676 1.25529 -1.66412
472 4.81761 -3.80559 -7.21011 1.22158 1.93543 0.10395
754 4.05576 -3.84677 -6.35186 -1.56281 1.04271 -0.761504
471 5.2134 -4.67881 -7.19534 1.54009 -0.21305 0.88803
470 5.47512 -3.80715 -8.00674 -0.21218 0.185826 -0.740017
476 6.2289 -3.87842 -7.21409 0.226288 -0.428259 -2.26078
758 5.57813 -3.88774 -6.42858 -1.68246 -2.18729 -0.523073
480 7.87637 -3.86259 -7.08057 0.736736 -0.155079 -1.15927
523 7.05957 -3.10138 -7.09763 -0.74739 0.402131 -1.83477
813 7.86987 -3.15634 -6.35854 -1.12788 -0.220992 2.75933
436 9.44364 -3.95847 -7.30832 -0.251055 -0.444967 -1.40857
527 8.66115 -3.01913 -6.91406 0.297385 -0.613586 0.645331
766 8.9007 -4.01061 -6.34461 1.911 -2.00731 0.734522
769 9.46335 -2.95212 -6.28054 1.156 1.9561 3.70497
531 -8.87684 -1.43379 -7.17564 3.16914 0.208608 -1.34537
770 -8.70886 -2.26687 -6.52997 -0.0491987 0.984848 0.927174
817 9.41669 -1.65985 -6.44934 -1.2478 -0.56885 -0.784307
486 -7.13352 -2.23325 -7.8936 1.55956 1.28531 0.0199687
488 -7.8699 -2.25554 -7.29961 -0.583496 -0.351084 -1.69632
773 -8.01533 -3.12106 -6.31633 0.131302 0.391286 -0.839215
774 -7.02772 -2.43509 -6.45773 0.506602 2.36693 -3.57389
490 -5.55205 -2.47513 -8.0015 0.161729 -0.00320143 -0.418561
492 -6.33708 -2.42763 -7.1997 3.04854 -0.425225 0.31796
778 -5.47723 -2.24536 -6.44903 -0.601664 1.15426 -0.57135
496 -4.74658 -2.3771 -7.27209 1.80248 0.321516 1.27395
543 -4.00167 -1.4772 -6.94714 -1.1498 0.261568 0.582594
829 -4.80072 -1.52102 -6.34805 1.48601 2.78333 -0.754586
500 -3.10765 -2.29523 -7.30532 -1.54072 -0.582846 -0.0047879
786 -2.3794 -2.49888 -6.4241 -2.59791 1.11819 -0.423981
502 -0.73882 -2.37935 -7.89935 -0.673102 0.675955 0.660682
504 -1.57938 -2.47184 -7.09653 -0.0229586 -1.37064 2.04784
789 -1.52934 -3.21666 -6.32181 0.0991557 1.66839 -3.68267
505 -0.163432 -3.23393 -7.98096 1.95439 0.693388 -0.503962
508 0.00211202 -2.45184 -7.1801 0.440318 1.39522 -0.333425
793 -0.0505422 -3.19499 -6.38214 -0.689697 -0.98024 -0.55187
790 -0.805676 -2.33551 -6.31146 0.763153 1.03343 -1.90412
794 0.729727 -2.43627 -6.30162 -0.173927 -1.25282 -0.280967
507 0.819613 -3.17746 -6.9577 -0.703138 0.235008 0.275782
512 1.68798 -2.48799 -7.21846 2.39185 -1.42139 0.078721
797 1.72315 -3.06158 -6.42907 0.576198 -0.650131 -0.165745
513 3.14285 -3.18138 -7.78708 0.879974 0.492835 -0.223096
511 2.4334 -3.22842 -7.1345 0.529065 -0.150377 0.464071
510 2.44319 -2.46706 -8.00281 -1.21396 -0.496839 -0.0175398
516 3.09448 -2.32412 -7.16592 1.51854 2.05952 -0.244134
798 2.44837 -2.30893 -6.30405 -1.67349 -0.233296 0.289646
517 4.59033 -3.09782 -7.94174 -1.68102 2.52798 0.700009
515 4.06588 -2.9494 -6.93016 -0.619192 -0.669039 -0.576709
520 4.79943 -2.11295 -6.92876 0.787437 1.83033 -0.554484
563 3.84482 -1.39486 -7.22343 -1.25573 0.36373 -0.399345
519 5.42784 -3.07287 -7.09805 0.131625 1.82575 0.529007