ITEM: TIMESTEP
172000
ITEM: NUMBER OF ATOMS
6912
ITEM: BOX BOUNDS pp pp pp
-9.5244063118091962e+00 9.5244063118091962e+00
-9.5244063118091962e+00 9.5244063118091962e+00
-9.5244063118091962e+00 9.5244063118091962e+00
ITEM: ATOMS id x y z vx vy vz
3702 -8.5981 -8.38672 -7.38457 2.25829 -0.986027 2.40614
297 -8.60406 -9.25928 -8.0862 1.52305 0.0402072 -0.385139
3227 -8.11995 -8.6684 -8.62509 -1.03647 -0.650124 -2.28578
2639 9.1672 -5.90705 -9.29003 -0.159661 0.597327 0.697378
3180 -9.16413 -9.02602 -8.98058 -0.956403 2.42738 -0.794753
1642 -7.41696 -0.101724 -2.85311 -1.82221 3.20937 -2.01128
2600 -7.16278 -9.0653 -8.50043 3.06316 -0.212436 -0.152877
633 -7.09393 -8.04298 -8.59929 0.965826 -0.702226 -0.602812
3235 -5.31377 -2.78126 -9.35592 2.11376 -1.70847 -0.769733
6880 -5.13038 -8.9717 -7.49992 1.73904 -1.49519 -0.272355
4240 -6.27089 -8.57757 -8.87948 -0.550119 1.20227 -0.392107
592 -5.39245 -8.21746 -8.27433 -0.147872 0.205885 0.0151616
6260 -5.19225 -9.11128 -8.62029 1.12263 0.243778 -0.0744337
359 2.75386 -8.62651 -9.39874 2.92119 -0.248786 1.2056
116 -4.35607 -8.54093 -8.98007 1.34638 -3.1648 -0.0611831
3959 -2.29565 -8.61803 -8.53393 0.148848 -1.37128 0.577702
3232 -3.27222 -8.14146 -9.08655 -0.450317 -2.17833 -1.2117
16 -3.3878 -9.14208 -8.95212 -1.21564 -1.04088 -0.713671
3282 -1.59757 -8.74578 -7.75128 2.49772 0.499264 0.0310585
1509 -1.93561 -9.37383 -3.57999 1.84929 0.51949 0.0943932
3242 -1.01298 -8.2754 -8.46903 0.922739 -2.61432 0.129775
2449 -9.27183 -2.94803 -0.331665 -0.99998 0.843201 -0.48477
66 -1.92039 -8.49811 -9.51229 0.135849 0.304714 -0.526268
4237 -0.400912 -7.72684 -7.73665 0.749362 -0.171942 1.57357
354 -0.329762 -9.002 -8.65952 -0.0501726 -0.245009 1.74004
319 0.317491 -8.53241 -8.06755 0.153375 -0.191363 -0.434474
312 1.01349 -8.23573 -9.14376 -0.819965 -2.53795 -1.98406
793 -2.84867 -3.56831 -9.31224 0.541747 1.28391 4.9519
84 1.23312 -9.06505 -8.52423 0.432965 -3.48405 0.746191
3241 1.297 -7.95741 -8.18556 -0.573754 1.3655 2.11909
173 1.95273 -8.3304 -8.8558 -0.128334 1.78322 -1.25233
369 2.9741 -8.50083 -8.48582 0.556576 2.15564 -1.27909
6606 3.81277 -8.21015 -9.38673 1.40739 1.33253 -0.508142
2255 8.08939 -1.74097 -0.136645 1.13658 -2.70904 -0.617562
5153 2.44596 -9.32273 -3.30454 -1.27528 -0.0502668 -0.317206
519 2.7378 -7.68601 -9.18135 1.00187 -1.9994 0.833572
323 4.74025 -8.62408 -9.48173 -0.353919 0.167224 -0.487632
609 4.32443 -8.44612 -8.54759 -1.82203 1.38263 -0.174923
2024 -3.95214 -7.88201 -0.197254 -0.0917053 0.130004 -0.825541
898 6.232 -7.73179 -8.54508 -0.288195 0.643482 0.527786
36 5.66137 -7.99898 -7.56893 0.92325 -1.26723 2.43914
37 5.43213 -8.40935 -8.8277 -2.89486 0.497482 -0.718512
6369 1.87614 -1.99829 -9.33382 -1.71641 0.572475 -1.32697
3203 6.65751 -9.24419 -8.57525 1.09 1.31761 -2.92043
102 7.39718 -9.54946 -9.17025 0.329272 -2.20204 0.246623
4312 7.50331 -9.26146 -8.08441 0.309441 0.224612 1.11556
3312 8.11513 -8.30691 -8.50641 0.866276 -0.301773 -0.222816
3363 9.43146 -8.44899 -8.144 0.157462 -0.242373 0.865391
133 1.89571 -2.9886 -8.67386 -1.23572 1.8017 0.913558
3224 -8.46761 -7.68832 -8.02915 -2.38684 0.48507 0.312169
83 -8.97682 -6.84915 -8.37906 0.947035 1.06359 -1.16368
630 -8.99496 -8.12697 -8.91574 -0.38932 -0.142825 2.18542
3351 3.51258 -9.22006 -8.9652 1.28883 1.22959 -1.21037
729 -8.92379 -6.02681 -8.986 2.45787 1.71421 2.84836
539 -6.87006 -7.18504 -8.12248 2.08121 -2.46702 1.13881
5 -7.37808 -7.15744 -8.9736 0.833855 2.515 -0.0321944
6874 -6.50415 -7.71159 -9.4339 -2.59457 -2.37774 -1.0333
393 -6.03831 -6.88226 -8.63319 -0.206147 0.335167 0.107295
631 -5.36093 -7.10798 -7.73609 -1.43624 -1.13283 -0.281813
2891 -5.17331 -7.36609 -8.80092 1.14276 -0.28917 0.53981
3243 -4.22907 -7.46395 -9.17978 1.57359 -0.275651 -3.96411
2648 -4.44763 -7.61423 -8.20814 1.05182 1.5746 1.53576
453 -4.06009 -6.6625 -8.47654 3.9263 0.343833 -0.304008
685 -3.47295 -8.20488 -8.23553 -0.353224 1.32039 -1.32187
150 -3.11515 -7.17767 -9.41886 2.44025 2.57126 -1.80586
14 -1.9838 -6.5652 -8.56824 -1.19012 1.93172 1.23559
881 -3.09414 -6.61151 -7.63031 -2.43097 -2.19377 0.259135
119 -2.70367 -7.53109 -8.50543 0.999895 0.291611 3.66515
357 -1.95548 -7.59103 -9.15087 0.810926 4.03971 -1.14388
405 -1.34074 -6.81094 -9.46835 -1.21469 0.82217 -1.18571
3291 -1.69963 -7.48839 -8.0769 -0.0772991 -0.474445 0.274183
365 0.0326509 -7.99668 -8.76523 0.262128 -0.870304 0.00328493
124 -0.786783 -7.22387 -8.45943 -0.144855 -4.16762 0.0688485
2702 0.422156 -7.21268 -8.4028 -0.838962 0.329051 -1.26344
705 0.205443 -7.37288 -9.47906 0.668397 -0.436403 -1.64013
3247 1.60122 -7.20264 -8.82579 0.573373 0.756072 -0.695133
985 0.807366 -6.18731 -8.74029 -0.32278 0.969586 0.814068
3192 1.22836 -6.58521 -7.86941 -1.12946 -1.54436 0.260929
3252 2.42251 -7.52395 -8.28417 1.48823 -1.39959 0.0931861
370 3.59078 -7.69686 -8.49346 -2.88563 -0.346533 -0.492336
659 3.26823 -6.59601 -9.20951 1.46326 -1.11391 -1.09996
3202 5.19917 -7.42064 -8.60602 0.40682 -1.57138 -2.20389
697 4.19175 -7.1103 -9.16827 1.02079 0.149866 -0.601954
136 4.63069 -6.52937 -8.23335 2.22983 0.750775 -2.94826
509 3.79849 -6.75597 -7.90852 0.985333 0.0943697 -0.908423
3864 -1.03676 -0.0315041 -8.9207 -1.64873 -0.0678463 1.16693
5098 -6.34928 -9.39323 -2.85511 0.782383 2.0517 -0.651965
668 6.59997 -6.95149 -7.82699 1.10517 3.11144 -1.66584
42 5.76816 -6.68599 -8.30522 -0.179418 0.635077 -0.778167
34 7.11033 -8.06994 -8.70671 -5.07614 0.104533 0.161865
2963 6.88171 -6.90921 -8.85733 0.0526521 0.50363 -0.609217
813 7.88433 -6.16863 -7.84028 -0.690163 0.241249 -0.802127
3173 7.61133 -7.35091 -8.13111 -0.0868217 -0.129751 -0.00880288
4693 2.82723 0.00438055 -3.12969 -0.819735 0.928138 1.89813
300 8.56571 -6.72641 -8.05652 -1.39014 -4.02816 2.54692
3212 9.11585 -7.61296 -8.52547 1.83097 -0.627708 -0.363453
139 -9.4849 -6.09087 -8.04085 -2.69181 1.75068 -3.32235
3829 2.94109 -2.18373 -9.26544 -0.574313 -1.22736 -1.3799
408 -8.15905 -6.46865 -8.53262 1.65961 -0.409483 0.419609
237 -7.35002 -5.16402 -8.5055 -0.0365183 1.28175 0.416537
2930 -6.81327 -5.42628 -7.60753 0.631147 1.02589 0.825135
193 -7.05258 -6.16342 -8.4984 1.13248 1.23031 -0.377484
3222 -7.3363 -4.98552 -9.51733 1.9208 2.15966 -0.302561
3324 -8.32942 -5.2499 -8.71759 0.693125 0.345959 0.641096
637 -6.4304 -4.884 -8.30619 0.0633255 -0.245824 0.0640993
770 -5.88914 -5.68677 -8.16511 1.60538 1.70809 1.15604
105 -6.48745 -5.65017 -9.17296 -0.0331388 -0.612286 0.534538
443 -5.45454 -4.74066 -8.27988 0.42533 -1.46744 -1.3401
2163 -4.37593 -9.45783 -0.00182689 -0.292949 0.759768 0.482268
748 -5.17134 -6.39613 -8.53706 -0.789672 -0.484835 -1.2687
3275 -4.38477 -5.86917 -9.13916 0.126645 0.878247 0.138108
642 -4.66021 -5.45136 -8.1733 -0.279329 0.26372 -0.814871
734 -3.11972 -6.3113 -8.82964 0.87147 -1.36608 -2.64375
402 -2.36277 -4.75777 -9.01747 -0.047876 -0.642489 0.490889
3285 -2.32387 -5.6902 -8.46963 -1.39663 -0.986526 -0.441781
123 -1.34916 -4.99711 -8.93609 1.39646 1.06854 -0.185877
263 -1.09002 -4.88996 -7.94161 0.356996 0.983603 -2.60471
3382 -1.03167 -5.76539 -8.4028 -1.52161 1.11297 0.130382
1356 -8.40068 -0.0623345 -2.97821 -1.03506 -1.77108 -0.890921
461 0.852689 -5.66503 -7.81344 1.29669 -0.343248 0.933489
3244 -0.370614 -5.08979 -9.18624 0.479294 4.01693 -0.126314
507 -0.102356 -6.01418 -8.38312 0.884588 0.167041 -0.165849
5142 -2.04058 -9.16184 -4.60129 -2.93023 0.399663 -1.3628
2908 2.38232 -6.57213 -8.77047 -0.411773 0.113658 0.0569451
3398 1.93406 -4.76066 -8.97658 1.19742 -2.07752 0.322608
3331 1.757 -5.7835 -8.55077 -0.878542 -1.05169 -3.0111
233 -9.36946 -7.40753 -9.35249 -0.804433 -1.18766 -0.510437
6636 -7.82332 -0.560025 -9.44446 1.73892 -0.495624 -0.166573
3194 2.87876 -5.24513 -8.69097 0.298066 0.311923 -2.26104
231 2.02692 -4.83609 -7.91945 -0.459479 -0.816991 -0.167013
3205 3.87546 -5.45221 -8.10878 2.58393 -2.23024 -0.785393
3397 5.06905 -5.22133 -9.33749 -0.664827 1.34571 -0.68435
467 4.27789 -5.95534 -8.91534 0.0164826 -2.49377 1.65555
92 5.80364 -5.70287 -8.72767 -0.034584 0.232821 0.510724
188 6.05265 -5.0806 -7.95491 -0.98451 1.39755 0.855032
1436 7.43164 -0.685837 -1.12985 -0.960839 -2.01122 -1.57461
2689 7.75015 -6.43611 -8.71718 -1.07382 0.427645 0.312925
557 6.74865 -6.04609 -8.49591 -0.228029 1.35362 1.94375
2740 7.61766 -3.28019 -9.00777 0.567922 0.438342 1.1063
380 7.49437 -5.65731 -9.29697 -1.13376 0.382594 0.494305
147 7.67414 -5.42036 -8.41152 0.809172 0.53749 0.26727
185 6.7403 -5.09456 -8.81568 -0.24655 -0.246599 -1.43613
2739 9.30272 -5.02168 -8.90401 1.1574 -0.37937 0.83535
60 8.70399 -5.72383 -8.47642 1.57588 1.76515 -1.01063
3268 8.48482 -4.79194 -8.19546 -0.323346 -0.781441 1.31475
3267 -8.88798 -4.38482 -8.8348 -1.36097 0.0301166 1.90589
6661 -9.12644 -3.65957 -8.03564 0.88848 -2.31462 0.458731
869 -8.38236 -4.48379 -7.86419 -0.164972 0.414357 -0.989392
434 -8.53383 -3.54636 -8.81287 -0.38205 0.784963 -0.0511315
2031 -3.49924 -9.28344 -0.896428 1.41814 0.467484 -2.89475
4333 -7.68667 -4.05706 -8.76696 -0.534669 -0.707309 3.31655
153 -6.78735 -4.22082 -9.13242 -1.8008 -0.432751 0.688697
6338 -7.63863 -3.02784 -9.24684 0.64102 1.31776 1.42405
3319 -7.17361 -4.28375 -7.68965 -0.332054 1.15483 1.14338
107 -4.91598 -4.47936 -9.25071 0.792939 -3.05599 0.0426927
5104 -7.79579 -8.98671 -0.215395 0.843807 -1.9103 -1.46134
3318 -6.09015 -3.95259 -8.28568 1.88081 1.76971 -0.312553
818 -5.87964 -4.89777 -9.18142 -0.687385 0.0609468 1.42458
3226 -3.21981 -5.2626 -8.56597 -1.8521 -1.16355 0.197779
782 -3.88209 -3.55789 -8.54985 1.4741 0.161195 2.30109
457 -4.40751 -4.31274 -8.12891 -0.754321 0.355075 0.407849
1069 -5.20642 -3.74545 -7.91223 0.534714 1.25358 -1.19419
450 -0.835398 -3.04736 -9.18157 -1.54549 3.26238 -1.23239
502 -3.29318 -4.29775 -8.61616 -0.325783 -1.47688 0.261001
696 -2.93834 -3.11754 -8.29913 0.176469 -0.689805 0.162617
1771 7.20864 -9.3675 -0.25074 -0.239499 1.53917 0.814471
417 -2.17963 -4.6712 -7.89931 -0.292237 -0.0530607 -0.637734
932 -1.88591 -3.97181 -8.75089 -1.66851 -0.340749 1.09171
3329 -0.776796 -3.03209 -8.10215 -0.122321 1.13648 -0.420249
540 -1.83923 -2.8379 -8.76677 0.729689 -1.6189 2.98424
3767 0.101776 -4.76458 -8.29163 2.00516 -0.387655 -0.409919
210 -0.907569 -3.96297 -8.73891 0.690702 0.217845 0.43929
213 -0.0857742 -3.75268 -8.25995 0.591411 0.0293745 3.13155
3052 0.273572 -4.11263 -9.16667 0.935087 0.379312 -1.90131
3465 -2.90727 -0.245525 -7.65753 0.916198 -0.925369 0.953317
341 6.01439 -8.89201 -6.06608 0.378432 0.00528003 -1.55974
228 1.11461 -4.68778 -8.31653 1.23165 -3.37698 -0.558195
477 -8.37188 -7.34357 -9.16486 -1.54442 1.17583 2.6366
1095 0.883687 -3.17653 -8.33063 -1.04341 -2.24902 0.398301
749 1.32648 -3.89275 -8.9296 -1.13673 0.622295 -0.415317
473 3.19252 -4.81219 -7.73028 0.106647 1.55349 -2.09293
3441 3.15113 -4.24335 -9.07177 0.162257 -0.882468 1.35665
273 2.37342 -3.96041 -8.51101 0.860882 -0.062279 1.71843
558 2.97419 -3.02783 -8.54109 -1.64128 -1.65436 0.511933
708 3.89126 -5.04609 -9.00246 -2.75501 0.0851477 2.41392
808 3.90971 -3.42448 -8.82496 0.450961 1.03908 0.495171
523 4.74662 -3.24267 -7.77079 1.44193 -1.73794 0.0275146
3391 3.90846 -4.21261 -7.98837 0.144264 1.33672 -1.79198
482 4.87338 -4.17813 -7.78333 0.13768 3.31759 -0.174041
280 5.92288 -4.51609 -8.96715 1.35612 -1.54126 -1.56819
3154 4.82001 -3.84354 -8.70847 -0.841331 0.428187 -0.848173
3016 5.92574 -3.57171 -9.36971 0.686833 0.546236 2.4934
3352 5.81547 -3.68445 -8.27158 -1.06933 -0.29647 0.68725
384 6.66991 -4.3078 -8.21775 -0.242669 -0.491547 -0.144067
3784 9.31445 -0.498521 -5.42577 0.260481 1.57434 -2.46794
4114 6.8621 -3.3537 -7.65605 2.28233 0.5796 2.00614
754 7.63369 -4.33468 -8.64396 3.55764 -0.663793 -0.56318
392 7.87071 -3.47085 -7.90441 -2.06151 2.84145 -3.20809
3206 9.10073 -4.00593 -8.75778 -0.651102 -0.88914 0.116835
3309 8.86607 -9.00024 -8.93578 -1.69475 1.68792 2.6175
4082 -9.29852 -1.5454 -8.57172 -0.546918 1.1523 -0.315911
527 -9.50424 -2.96661 -8.81256 0.16005 0.559594 0.394128
3791 -8.40795 -1.82529 -8.18861 1.59643 -0.191096 -2.31233
1063 -8.53424 -2.51161 -8.908 -0.313483 0.632164 -1.81361
728 -7.05886 -3.19479 -8.45372 0.700946 -1.06494 0.0448988
816 -6.61079 -2.31091 -8.90372 -1.50553 0.022406 0.497849
4829 4.16576 -9.35165 -4.14778 -0.776773 -0.620641 -1.93603
235 -4.98512 -3.56664 -8.87995 0.964292 -1.02483 0.699111
817 -5.88157 -3.00407 -8.57639 -0.671486 -1.50867 0.679255
109 -5.47503 -2.81622 -7.3983 1.31636 1.93512 1.11322
3423 -4.91311 -2.77884 -8.33458 -0.480276 -0.692129 1.43677
1019 -4.11666 -2.60415 -8.88564 -1.42043 0.494445 1.35992
737 -4.32459 -3.42831 -7.56925 0.0252843 1.15066 0.0571198
163 -3.40242 -1.68817 -9.03116 -0.173346 0.954837 -1.80849
552 -2.70738 -1.86625 -7.8796 -0.991944 -1.08477 0.397085
541 -2.28257 -1.73927 -8.90526 -1.24707 -2.09617 0.537202
3818 1.74506 -0.196819 -8.48001 3.11804 -1.29095 -1.54295
547 -1.6 -1.97004 -8.15708 0.904345 -1.57655 -1.31348
167 -0.746009 -1.92687 -9.08018 1.61418 -0.529163 0.431494
2215 6.80457 -0.262059 -0.396805 2.02207 -1.67213 -0.585715
512 -0.113335 -2.57955 -8.5966 1.04142 1.1108 1.41372
175 0.617891 -2.15383 -7.98373 -0.621283 3.91755 -0.0159834
2820 0.241482 -1.71573 -8.89647 -1.7765 -1.86685 -0.713684
3431 -0.529064 -1.83978 -8.06461 0.351602 -1.12087 0.662881
6653 1.0354 -2.45332 -8.92693 -2.41627 1.22724 -0.187203
454 1.54994 -2.3876 -7.90259 -0.0936354 1.41021 0.489281
3384 1.39335 -1.53104 -8.5007 -2.82899 1.65422 0.926104
795 1.02538 -3.01052 -7.31812 -0.288183 0.245697 0.905454
171 2.1363 -1.75422 -7.43734 0.245462 0.655129 -0.961663
3782 2.25981 -2.91325 -7.435 -0.177414 0.404041 -3.28886
517 3.81578 -3.04646 -7.77095 -0.238451 -0.46719 -0.737277
3395 3.88219 -2.28299 -8.74507 -0.0116907 -0.458024 -1.15334
1382 4.5999 -1.89244 -8.26542 0.194017 0.429515 0.105154
3538 4.75851 -2.13995 -9.21654 0.792842 -1.29615 -0.128126
1901 4.59892 -7.82707 -0.314439 0.96999 -0.365462 -1.42352
2769 5.22423 -2.77316 -8.48806 -1.42593 1.4778 -0.162283
226 5.99401 -2.41209 -8.9503 -0.786982 -1.38742 -0.925442
135 6.1273 -2.6449 -7.93905 0.287827 0.986163 -1.92378
520 6.64569 -3.38846 -8.70913 -1.67471 -1.3375 0.506736
3449 7.34389 -2.43372 -7.32173 -2.23243 1.22818 -0.394799
3164 7.32822 -2.5957 -8.29945 -2.42881 -0.0303721 0.834285
3799 8.54476 -2.7433 -8.59766 1.86306 -0.933344 -0.989473
858 8.05557 -1.92372 -8.61731 -0.386438 -0.734222 2.14899
1147 9.5246 -2.35368 -8.09351 0.0778142 -2.67912 0.706195
90 9.23593 -2.0447 -9.3443 -0.587516 0.425831 1.91434
677 8.92234 -3.32089 -7.86342 -4.72503 -0.168807 1.82558
6667 -8.55145 -1.18163 -9.03498 -1.1727 -1.37617 -0.876796
5226 7.83564 -0.529306 -0.235992 -1.80386 0.959788 2.73669
200 -7.66294 -0.972123 -8.38329 0.661178 -1.84908 2.84005
492 -7.61515 -1.93508 -8.82004 1.04314 -2.45397 -0.6956
996 -0.228094 -9.00621 -4.82024 1.17405 1.83757 3.65706
2741 -8.03541 -5.72174 -0.0587766 -1.4076 0.554841 0.00909834
256 -6.86297 -0.461714 -9.07951 0.952089 1.31961 -1.79789
542 -5.57562 -1.89794 -8.82606 -0.803573 -0.0747504 2.31528
244 -6.60169 -1.27542 -8.74766 -1.30164 -0.763409 -0.0859184
2800 -5.96586 -0.541792 -8.49852 1.47829 1.19251 -0.910462
3474 -4.61401 -1.74848 -8.60041 0.589163 1.84297 1.72606
3761 -5.113 -0.879849 -8.90009 2.30297 1.1651 -1.86511
3383 -4.65607 -0.121063 -8.46751 0.150011 -0.291596 -1.98467
4343 -0.0888432 0.00992984 -0.220708 -0.476626 1.35698 1.58672
3803 -4.05667 -0.91402 -8.85564 1.07665 -1.41932 -0.479728
451 -2.16209 -0.857372 -7.98419 -0.166333 2.48503 -1.71171
494 -2.63241 -0.737319 -9.03369 -1.93688 0.574339 0.79011
5501 1.35174 -0.377499 -0.0392974 0.943053 0.087811 0.624518
4347 -1.50891 -0.965339 -8.7245 -0.366785 2.77493 -0.518387
840 -0.239491 -0.86465 -8.92806 1.00351 1.00471 0.488722
3783 0.409911 -1.0961 -8.03168 1.0999 0.395621 0.643839
214 0.805438 -0.92755 -8.91862 2.56605 -0.815991 -1.52119
28 -0.979561 -9.33792 -4.18331 0.103398 2.63242 1.8768
3385 2.30566 -1.14873 -8.75414 1.78267 -0.615859 0.393181
3490 2.89616 -0.335698 -8.91317 0.661238 -2.51662 -1.14493
1124 -2.04521 -0.0268168 -2.41365 0.256599 1.17111 -1.58602
3058 2.47432 -2.13304 -8.41978 0.81491 -1.5954 -0.57238
3440 3.47882 -1.07835 -9.22501 1.48419 0.293652 0.936394
283 3.75951 -0.310308 -8.39908 0.0615574 -1.0981 -1.56632
768 4.50367 -1.09472 -8.74793 -0.303282 -1.07901 2.58134
629 -8.32481 -9.2015 -3.1644 1.23701 1.92168 -0.744803
3643 5.35258 -0.388044 -8.48845 2.2198 -2.46404 -1.15442
6376 6.42833 -1.18579 -9.47177 0.722471 -2.25303 -0.180722
3497 5.50639 -1.50047 -8.62516 0.317955 -0.853144 0.267463
4904 8.314 -1.50608 -1.02279 -0.0509145 -0.637101 -1.90341
3804 -8.76848 -0.122565 -9.40496 0.786591 0.658119 0.977877
1544 7.33909 -9.47169 -2.7765 1.88235 0.438869 0.463573
3529 6.98447 -0.664133 -8.57748 -2.85129 1.33925 -2.0503
3774 7.57675 -1.27185 -9.16245 0.70577 -1.75474 0.104083
6814 9.30955 -0.158921 -9.2577 -2.1593 -1.55051 1.41232
3265 8.6776 -9.116 -6.93149 -0.847329 -0.619335 1.1001
278 8.64476 -0.942177 -8.79858 1.44596 1.43032 -2.20729
3499 9.32332 -0.656054 -8.1446 -1.14396 0.407247 -0.332455
596 -2.31913 -9.53055 -7.6183 -1.03755 -2.02214 0.0094363
589 -4.40278 -9.52343 -9.28811 -0.357419 -2.21806 1.76833
621 -8.86991 -8.39422 -6.48116 1.73986 2.38931 -3.02985
3992 -8.0102 -9.50753 -7.18768 2.27648 -1.47118 0.611074
2888 -6.10105 -9.13373 -8.23568 0.535652 -0.3135 -1.30256
347 -7.67 -8.64146 -6.70091 0.0717837 -2.03949 -0.0907864
298 -7.71482 -8.5117 -7.74885 0.000753337 0.0537927 0.785044
4352 2.8361 -1.68053 -0.0260637 4.1305 3.61716 -0.0533171
447 -5.23909 -8.29479 -6.59049 -1.08909 -1.50529 -0.0126764
396 -6.16154 -8.8277 -7.01991 2.06862 0.324417 2.11075
684 -6.17608 -7.45925 -7.17838 -0.894471 1.31808 -0.289257
4528 -5.23147 -9.41445 -4.18802 -1.45039 -1.45081 -2.60093
1166 -4.28546 -8.91811 -8.09249 0.329601 -0.702552 1.63746
689 -4.8043 -8.06111 -7.44967 -3.16845 -1.55261 2.06987
3716 -3.50586 -9.14262 -7.42985 2.38209 1.38844 -0.536795
58 -3.92753 -8.24682 -7.02846 0.812046 -1.63656 -1.06181
24 -2.69403 -8.60591 -7.40887 -1.76719 1.7111 -0.773981
6881 -2.99452 -8.22515 -6.63761 -2.18335 -0.321483 -1.0153
5453 2.07219 -8.79016 -0.204685 0.852098 -1.23271 2.41664
3663 -1.71813 -8.58085 -6.71157 0.673896 1.69736 2.40813
597 -2.06816 -7.8713 -6.09917 0.95339 -0.58874 0.716252
403 -2.35668 -9.45084 -6.70392 1.65826 0.215313 0.135488
6883 -0.647078 -8.74465 -7.68432 -0.875025 -0.230889 3.53893
4580 -0.998359 -9.24835 -6.07662 1.8341 -0.301287 -1.70172
655 -0.551773 -8.24734 -6.79733 -1.07445 -0.647762 0.873452
3047 -0.134701 -9.1657 -6.65469 1.89759 -1.14184 0.294179
566 1.47652 -0.109201 -5.79333 1.28114 -0.2386 -0.86438
2649 -2.44823 -9.30538 -0.650891 2.44386 0.300674 1.98429
4010 2.04671 -8.70472 -7.97756 -2.92834 1.12893 1.1854
933 1.13168 -9.03961 -7.39255 0.383928 0.0236765 -0.925873
803 1.58303 -8.22484 -7.19327 -0.634826 0.363577 2.07073
762 2.15899 -9.33394 -7.21563 -2.21595 -0.697337 -0.436792
1655 -2.19419 -7.73081 -0.128831 1.30059 -0.947879 -0.560817
3011 2.43709 -8.47432 -6.63544 -0.90494 0.0289359 1.07092
616 3.24118 -8.78975 -7.25772 -1.53267 2.86013 -0.793177
610 4.07946 -8.30668 -7.33511 -2.02206 1.51337 1.57299
994 4.86374 -8.79806 -7.66041 0.0814752 -0.526989 1.04623
80 3.58495 -8.26452 -6.32922 1.73989 -1.70763 -0.368019
658 4.24984 -9.09866 -6.75933 -0.476854 -1.33672 -0.143875
1041 5.42541 -8.64991 -6.78572 0.330225 1.67353 1.08698
291 6.50759 -8.93515 -6.99237 0.154315 -0.177447 -2.73813
3731 5.92487 -8.89558 -7.97645 3.10093 -1.41814 -1.99208
430 7.66071 -8.29718 -7.67114 -0.257041 -2.06095 -0.899297
4024 6.60083 -8.08134 -7.54387 -0.250545 -1.05352 -0.868584
683 9.34675 -8.35779 -7.06789 -0.219144 0.606303 -0.86547
57 7.62214 -9.20938 -7.15658 0.384606 -1.05973 -0.266161
382 8.60415 -9.20473 -7.9667 -0.670481 -3.18808 -1.94663
2971 8.08879 -8.32918 -6.71482 1.27834 1.19675 0.318183
2693 -4.66662 -5.7707 -0.0686638 -1.75621 0.626402 -0.26611
3307 -9.31755 -7.61074 -7.5612 -0.14826 -0.42331 -0.0843783
56 -8.8006 -7.39279 -6.67921 -0.403261 -0.828208 0.885489
3272 -7.70606 -7.0125 -7.5999 -0.607187 -0.631546 -1.66173
194 -8.73516 -6.64861 -7.32242 -0.41029 -0.231951 0.105383
345 -9.20404 -6.39323 -6.44832 -0.22063 0.0124228 -0.11209
160 -7.92594 -7.71329 -7.05622 0.682203 1.45794 -3.31877
584 -6.84541 -8.13675 -6.97088 3.48113 -0.508383 -0.558901
3184 -7.62444 -5.94994 -7.68696 -0.854603 -3.24162 -1.54792
875 -7.34818 -7.46898 -6.28543 -3.79419 0.150634 -0.091823
870 -6.38986 -8.24885 -7.85003 -1.57183 -1.54285 1.52993
4573 -6.02206 -7.68393 -6.15681 -0.617838 -2.31944 0.0752272
103 -6.9981 -6.7573 -6.98287 2.90532 0.822487 -0.00785224
3710 -6.279 -6.46235 -7.56525 0.13183 0.747576 -0.176228
395 -6.02492 -6.61474 -6.61197 -0.977939 1.73218 0.553794
1170 -6.78817 -8.39719 -6.01541 2.82531 -1.05245 1.02573
399 -4.50037 -6.97641 -7.40566 0.454139 1.9361 2.64669
3942 -4.16868 -6.13628 -6.71832 3.77132 1.41021 0.97239
4527 -3.51051 -7.50965 -7.48777 -0.0876724 -0.293845 -0.19071
874 -2.51407 -7.64526 -7.47483 1.55959 2.21439 0.745026
884 -1.86322 -6.6325 -7.56069 0.403099 1.69044 2.14165
938 -1.4394 -7.73061 -7.07202 -2.07995 0.682255 0.438614
1272 -1.20042 -5.77848 -6.89963 0.63624 0.93222 0.0850775
741 -1.73138 -6.94707 -6.50219 1.43947 0.529399 -0.132226
751 -0.18759 -7.14244 -6.902 -2.22127 -1.64728 0.00338806
63 0.38848 -8.44317 -7.12073 -0.0915007 -0.630377 0.618335
753 -0.851535 -6.65998 -7.4789 0.112765 0.95629 0.560658
4016 0.714584 -7.45814 -7.33527 -0.863084 0.238062 -2.89525
4006 0.567879 -7.91072 -6.28211 2.25831 0.747962 -0.325238
1189 1.78066 -7.32058 -7.48468 -1.26569 -1.68469 -1.13939
182 1.73938 -7.22185 -6.42371 -0.633496 -0.456318 -3.10954
3300 2.21049 -6.43022 -7.83216 1.13509 1.35861 1.86532
128 2.85094 -7.95319 -7.55182 0.111404 0.68186 0.566195
3295 2.73305 -7.51455 -6.6093 -1.56127 -0.887992 -1.44309
127 2.9681 -6.84285 -7.45602 -1.49612 0.136401 -0.911576
322 3.61442 -6.39792 -6.5927 -0.83717 0.37931 -3.52082
466 3.72439 -7.3965 -7.10511 0.802297 -1.9975 -0.30981
613 4.88728 -7.90204 -7.06838 2.0099 0.163888 -2.29375
419 4.46797 -7.53618 -8.03325 -0.779573 1.13983 -1.61382
662 4.56479 -6.82974 -7.13626 -1.70192 -2.0575 -1.33448
665 5.58626 -6.97143 -7.39167 1.81943 1.06343 1.43091
474 6.11445 -7.99839 -6.70241 -0.330946 1.22529 0.172258
152 6.47213 -7.02444 -6.81363 1.09159 1.07318 -0.759886
532 7.23868 -6.3817 -7.10951 -1.81265 -2.27436 -0.309289
1245 5.69481 -6.18127 -6.52893 0.419759 -2.14703 2.48151
3311 7.42875 -7.39924 -7.16269 -0.26535 -1.44503 0.477241
376 7.11428 -7.99028 -6.5012 -2.36918 1.1975 -0.83917
327 6.31002 -5.36668 -6.82523 2.24993 -2.06867 0.583899
529 8.06387 -7.41371 -6.36728 -0.385764 -0.648396 3.13516
4027 8.48124 -7.64938 -7.66984 -0.936448 1.71998 -1.5017
997 8.33763 -6.57592 -6.90042 -0.85311 0.600648 -2.02232
191 9.45792 -4.64219 -7.89285 1.59451 0.126879 0.839339
3368 9.31971 -6.73238 -7.33611 0.461378 -0.154065 -1.60646
356 -9.04284 -5.47066 -6.56024 -0.820469 0.842071 1.45529
52 -8.1979 -5.64779 -6.93855 -0.396878 -1.30847 -2.53574
437 -8.7686 -5.35271 -7.70053 0.851336 2.33709 0.44461
68 -7.61396 -4.98998 -7.14986 -1.96432 -4.69394 -1.3525
400 -8.0181 -6.7968 -6.61441 0.0319264 0.138403 -1.58581
76 -6.23848 -5.68682 -6.80634 -0.423427 1.44764 1.33852
880 -5.50321 -5.27876 -7.43513 1.43907 -2.44575 -0.913842
412 -5.24763 -5.99588 -6.57526 -1.17182 -0.0929525 -0.0973321
1553 -5.3906 -4.71335 -6.56871 1.06466 0.204913 -0.46209
1542 -5.0052 -6.09637 -7.55915 -1.31823 -0.936059 0.439363
503 -3.72975 -5.8972 -7.86359 -0.181504 1.12186 -1.53759
74 -4.58464 -5.32243 -6.89614 -1.33946 1.81097 -1.00519
452 -3.34877 -5.44806 -6.67216 -0.998986 2.60909 -3.5875
441 -2.81012 -5.43165 -7.54187 -1.08231 0.482888 0.763855
170 -2.58857 -6.11808 -6.91452 0.915621 1.25128 1.04675
224 -2.26745 -5.11561 -6.73618 2.15871 -0.0435289 1.57902
172 -1.8551 -5.88449 -6.25655 0.142531 1.72396 -0.925654
605 -1.66424 -5.6372 -7.76423 0.966418 0.989757 0.351115
3337 -1.36479 -4.93477 -6.25506 -0.983222 0.936648 1.18399
169 -0.376998 -5.50145 -7.45602 -0.91324 0.411775 -1.40819
221 -0.400916 -6.29042 -6.70007 -0.541597 -1.83326 -2.3137
1082 0.207803 -6.40588 -7.44943 -2.75372 -1.3171 -0.627465
462 0.291451 -4.8155 -7.25814 -2.0722 0.946771 1.68843
3293 1.58983 -5.82665 -7.24998 -0.408041 2.72483 -2.07943
122 1.39262 -4.78373 -7.14577 0.268609 1.07152 -0.16007
464 2.51364 -5.58508 -7.39684 -2.51328 -1.12921 2.86777
1192 1.8236 -4.90326 -6.34505 -0.45753 3.6447 -0.417249
424 3.08071 -6.03034 -8.17595 -0.790518 0.59918 -1.72335
699 2.25919 -6.48865 -6.84309 -1.11002 0.444866 -0.0825749
374 3.50506 -5.4387 -6.93128 -1.74491 -0.356447 -0.0340568
2823 4.28989 -5.9425 -7.33512 -1.59366 -1.15361 -0.222539
177 4.99094 -5.28638 -8.37835 -0.205977 1.93087 0.269509
1271 4.28059 -4.81626 -7.32393 -0.763748 1.96444 0.616087
717 4.30969 -5.52859 -6.40202 2.47558 -2.27021 -1.45714
1337 5.24313 -6.01915 -7.41084 0.533513 0.429129 -0.93978
3739 6.22227 -6.09141 -7.40734 1.81289 -0.339901 0.00777119
227 6.92822 -5.33249 -7.79294 -1.81646 1.42043 -1.42089
326 6.06872 -4.55015 -6.3472 0.117292 -1.68089 -0.244851
377 6.00229 -4.08788 -7.38634 -1.06345 0.226089 0.799762
666 5.42228 -5.31344 -6.11742 0.860597 1.75359 -1.76981
750 5.4351 -4.91954 -7.12712 -0.919766 -0.271253 -1.72144
964 6.87025 -4.98239 -6.05428 -1.11104 0.726426 0.571728
4288 8.64195 -5.40976 -7.4905 1.1898 0.514523 3.28413
1341 9.03002 -5.9021 -6.68756 -1.37399 -1.07193 0.504121
667 7.40108 -5.5861 -6.61187 -0.770603 -0.0341435 -0.367965
51 8.07265 -4.76798 -6.62673 -2.01736 -1.07633 -0.0228571
3023 -8.73695 -4.52606 -6.84696 2.32216 1.2863 -0.224325
4562 -8.43601 -3.56691 -7.17681 0.832534 -2.8714 1.24187
3315 9.49327 -3.78194 -7.06415 1.35029 0.150001 -1.03421
302 -7.82891 -4.12179 -6.56906 -1.41969 1.67968 -0.471879
479 -7.96813 -3.51712 -7.98682 0.477833 0.599065 0.546805
3413 -6.89183 -3.9071 -6.8167 0.00780045 0.849696 0.777037
394 -6.58678 -3.32332 -7.6221 0.780985 1.70189 -0.642097
718 -7.48852 -3.12827 -7.11946 -0.675447 0.753229 -1.87519
385 -6.47862 -4.68462 -7.21205 -1.95299 -1.29446 1.45153
739 -5.81065 -3.87333 -7.17135 -1.41979 1.29877 -1.01835
1360 -5.14925 -3.91554 -5.90502 -0.349453 -0.115972 1.50337
1013 -4.7026 -4.18306 -7.04879 -1.26721 1.40018 1.28326
582 -3.44614 -3.84722 -7.60846 0.0560862 -0.994178 -1.5549
831 -3.88806 -4.97105 -7.41841 1.76368 1.5852 -3.09099
688 -3.50613 -4.47569 -6.67424 3.01322 2.083 0.35889
360 -4.15269 -3.80757 -6.24365 1.49062 1.21629 1.63488
700 -2.56723 -4.14601 -7.11523 0.661398 0.879536 2.6426
742 -2.33584 -3.23138 -6.5521 -1.17108 0.341932 -1.01843
789 -1.60883 -4.4178 -7.0885 -0.835045 1.24147 1.82989
463 -2.0961 -3.49341 -7.81839 0.220888 0.614928 -2.45507
794 -1.47544 -3.29693 -6.93571 -2.96837 0.771076 1.39667
790 -0.68652 -4.53137 -6.77763 -0.73947 0.361168 -1.16695
738 -0.692102 -3.88003 -7.47412 0.426463 -0.237431 0.0214431
460 0.790106 -4.08402 -7.67318 1.40705 -1.82084 -2.28756
852 0.342154 -3.67626 -6.88986 0.725155 -1.26309 0.531742
1083 1.64995 -3.72979 -7.84394 -2.18462 -0.0520068 -0.754063
554 1.31035 -3.93328 -6.80944 -0.0180522 -0.607876 -0.056819
761 0.611065 -4.65331 -6.28603 -1.77208 0.0933705 0.478068
271 1.73978 -2.9065 -6.53605 -3.90003 0.255476 -0.288117
986 2.45858 -2.78724 -5.76613 -0.250139 1.23855 2.96793
799 2.97006 -3.64325 -7.72849 0.0441368 0.137193 -1.31813
267 2.35294 -4.16413 -7.0953 0.964135 1.2805 -0.215459
1374 3.57657 -3.7793 -6.10396 0.653273 2.71426 0.267698
181 3.41988 -4.43926 -6.8349 -1.77892 0.11335 -1.42623
372 4.08256 -3.66935 -7.05395 1.41512 1.17255 1.04241
521 5.17961 -3.87167 -6.75951 0.728014 -2.22173 -0.772532
758 4.624 -3.37292 -6.17711 0.126358 0.652326 -0.611269
1244 6.25378 -3.34093 -6.62048 -0.1758 -1.68224 1.3155
3491 5.513 -3.08913 -7.30327 0.642377 0.547036 -2.11463
3032 8.19819 -3.11541 -6.85552 1.88318 -0.800314 -0.155427
727 6.78791 -4.58672 -7.13945 0.610699 0.661127 -2.44074
764 7.60091 -3.96781 -6.99178 -1.34953 0.318415 -2.97051
418 7.59887 -4.68759 -7.65108 0.371664 -0.0527671 0.721203
3356 7.30115 -2.81464 -6.4333 -0.0452415 -1.72703 2.13479
143 8.48581 -4.19694 -7.4418 1.55554 1.53772 0.6285
144 9.06061 -4.78946 -6.7622 -2.42464 -0.673018 0.21389
861 8.68571 -3.88296 -6.42888 -0.326497 1.76326 1.40755
3314 -8.58789 -2.81234 -7.73231 0.448086 2.45986 2.01579
3511 -8.35551 -2.09994 -6.96512 -1.24723 -0.0698188 1.1817
1010 -9.46229 -2.82974 -7.15251 -2.11141 0.718888 1.90774
429 -9.32119 -1.48302 -7.58182 -3.07037 -0.153469 0.808836
3259 -8.80823 -2.51965 -6.05744 -4.35971 -1.45803 -1.12494
6627 -7.66963 -2.47859 -7.88615 -0.699889 0.193229 0.970526
819 -7.37778 -2.11514 -6.93115 -0.383427 -2.55119 0.408954
481 -6.46377 -2.49792 -7.09632 0.321348 1.18317 -1.06123
531 -6.15061 -3.58049 -6.3006 -1.3997 -2.26484 0.846801
390 -4.96786 -3.3117 -6.63241 -0.36111 -0.420249 0.616075
288 -5.8508 -2.05704 -7.93534 1.19531 -2.50519 -1.40776
164 -5.41116 -1.66648 -6.89207 0.0379091 -0.683817 1.26452
500 -4.61221 -2.24502 -7.49808 -0.766566 -3.34506 0.469764
640 -3.98029 -2.75096 -6.87287 -1.03052 -2.22733 0.0402722
1065 -4.73175 -2.31822 -6.54911 -0.446424 0.840813 3.14041
735 -2.92133 -2.98166 -7.37468 1.87672 1.41926 -1.61504
534 -3.11374 -2.0359 -6.8643 -2.39169 -1.29772 -0.877855
498 -3.67083 -2.4262 -7.92384 0.379984 -0.795472 -2.05761
538 -2.17111 -2.44398 -7.21258 1.23925 0.449154 1.40646
216 -1.09588 -2.42234 -7.03653 -1.8655 0.475279 0.334075
215 -1.70709 -1.216 -7.07636 -1.56089 -1.65344 0.00704512
508 -1.54063 -1.96307 -6.30313 2.21745 0.631011 -0.76401
176 0.179661 -2.97107 -7.65956 0.398086 -1.11595 1.76311
1027 0.114925 -1.75416 -7.22777 -0.629972 1.37302 -0.360972
1566 -0.305052 -2.95239 -6.76885 -2.11291 -0.0668704 0.570328
555 0.642753 -2.48138 -6.49527 -1.28476 -2.175 0.312874
223 1.22989 -1.8957 -7.12052 1.76031 0.167376 1.13186
470 2.47532 -2.25307 -6.66684 -0.74175 -0.0794489 0.327538
514 3.37895 -2.05395 -7.76551 1.13501 1.27092 2.12602
4636 3.38025 -2.80954 -6.95308 0.321289 0.208016 0.940605
692 2.74009 -3.41985 -6.46016 -0.0946115 -0.854278 -0.875987
807 4.40124 -2.46633 -7.15106 -1.09673 1.15184 0.621008