ITEM: TIMESTEP
30000
ITEM: NUMBER OF ATOMS
32000
ITEM: BOX BOUNDS pp pp pp
-1.4938015821857215e+01 1.4938015821857215e+01
-1.4938015821857215e+01 1.4938015821857215e+01
-1.4938015821857215e+01 1.4938015821857215e+01
ITEM: ATOMS id x y z
83 -14.2469 -13.5093 -14.23
802 -14.2651 -14.1399 -13.4081
4 14.8355 -14.1839 -14.275
8 -13.4656 -14.2218 -14.1968
87 -12.8273 -13.4185 -14.2539
885 -13.481 -13.4134 -13.5617
16863 8.21752 -0.0721475 -12.8113
12 -11.9529 -14.077 -14.2087
91 -11.2126 -13.3953 -14.1404
23275 12.7236 -0.0679851 -0.735312
16 -10.3834 -14.1262 -14.1362
814 -9.72171 -14.2084 -13.38
8794 12.7784 -0.903616 0.0116721
24073 12.0224 -0.0546051 -0.0315206
20 -8.96359 -14.214 -14.1227
818 -8.15493 -14.1225 -13.4029
24 -7.47538 -14.0952 -14.2497
822 -6.81508 -14.1938 -13.4511
258 -8.20394 -9.71945 -14.9041
28 -6.02035 -14.1665 -14.1622
7924 14.8541 -0.733382 -0.742694
16015 -9.68794 -0.0188009 -14.1898
8017 -8.9803 -14.9104 -0.0379781
32 -4.4875 -14.2046 -14.1115
16873 11.8854 -0.0562033 -13.5085
5627 -5.22327 -14.9202 -3.77372
830 -3.72574 -14.1318 -13.4859
36 -2.93635 -14.1016 -14.1844
834 -2.23325 -14.2457 -13.3905
40 -1.54247 -14.1447 -14.1432
119 -0.719269 -13.3398 -14.1785
44 -0.0128215 -14.1744 -14.2153
123 0.631353 -13.3785 -14.2278
414 -9.77233 -6.73525 -14.8527
23271 11.2568 -0.0198562 -0.807546
48 1.41452 -14.1049 -14.1957
842 0.722832 -14.1713 -13.4628
925 1.43341 -13.4013 -13.3839
52 2.94049 -14.1541 -14.1962
127 2.16354 -13.4483 -14.0764
4817 -9.11828 -14.8903 -5.95686
929 2.93782 -13.438 -13.5167
56 4.52395 -14.2165 -14.1661
131 3.74381 -13.3902 -14.1665
2473 11.9344 -14.8896 -10.3772
16837 -1.50742 -0.058977 -13.4236
586 -5.23183 -3.66738 -14.9377
4011 -11.2181 -14.8701 -6.68237
60 6.04825 -14.1661 -14.2174
135 5.34387 -13.4271 -14.226
2431 -3.75183 -14.9081 -9.67826
854 5.23168 -14.1655 -13.4556
937 5.95198 -13.4008 -13.454
64 7.53487 -14.1807 -14.1624
858 6.79479 -14.1535 -13.4594
941 7.49777 -13.4181 -13.407
18403 -14.2586 -0.0439904 -9.77315
139 6.79429 -13.3592 -14.1018
166 -12.6395 -11.1989 -14.9648
68 8.95906 -14.3102 -14.1767
143 8.3054 -13.4312 -14.2047
16821 -7.46298 0.0190625 -13.48
602 0.813579 -3.72873 -14.8987
72 10.428 -14.1295 -14.1599
866 9.67202 -14.201 -13.4442
147 9.69856 -13.3882 -14.1941
76 11.9577 -14.1578 -14.2032
151 11.1169 -13.3243 -14.1554
349 -4.43448 -9.01118 -14.8725
80 13.4388 -14.1602 -14.1998
20815 -9.71985 -0.00715469 -5.198
8000 13.5042 -0.791892 -0.840069
881 -14.9595 -13.4283 -13.4806
878 14.205 -14.2562 -13.4531
84 -14.8585 -12.6704 -14.2191
163 -14.1928 -11.867 -14.2557
6451 3.60215 -14.9796 -2.23869
88 -13.4882 -12.6303 -14.3411
167 -12.8437 -11.8997 -14.1591
6449 2.94657 -14.8908 -2.97252
506 -5.21175 -5.28227 -14.9634
92 -12.0368 -12.689 -14.2086
23251 3.74937 -0.0200881 -0.798496
8445 1.56041 -7.44265 -0.0428259
95 -9.68563 -13.3653 -14.1477
96 -10.5625 -12.6513 -14.2356
175 -9.76057 -11.9936 -14.1647
973 -10.5686 -11.8875 -13.5166
23263 8.21644 -0.0204218 -0.730838
16809 -11.9152 -0.053782 -13.4098
99 -8.23242 -13.446 -14.1508
100 -8.9027 -12.6194 -14.2061
179 -8.2039 -11.9 -14.149
897 -8.99453 -13.3815 -13.4038
5645 1.47514 -14.9184 -4.44015
103 -6.7326 -13.423 -14.149
104 -7.43788 -12.7034 -14.1103
901 -7.44423 -13.4016 -13.4441
902 -6.72565 -12.7026 -13.4237
107 -5.27417 -13.4373 -14.1873
108 -5.93767 -12.7425 -14.1788
905 -5.98226 -13.3572 -13.4517
906 -5.24685 -12.6438 -13.3148
111 -3.75236 -13.3809 -14.1366
909 -4.58745 -13.3645 -13.5203
112 -4.48249 -12.605 -14.1179
910 -3.77442 -12.5959 -13.4194
989 -4.55275 -12.0012 -13.3779
115 -2.22995 -13.3658 -14.1377
116 -2.9908 -12.7113 -14.0876
195 -2.23495 -12.0362 -14.2024
441 -0.0561943 -7.41348 -14.7933
913 -2.92984 -13.5112 -13.4134
914 -2.25972 -12.778 -13.3894
917 -1.48388 -13.3844 -13.3216
120 -1.46868 -12.7771 -14.1683
199 -0.760047 -11.9477 -14.155
124 -0.0577879 -12.6737 -14.2617
128 1.44282 -12.6995 -14.1609
1005 1.50512 -11.9508 -13.4562
203 0.645974 -11.899 -14.2443
2433 -2.9714 -14.9308 -10.3619
132 2.99473 -12.6782 -14.1886
207 2.26622 -11.9673 -14.161
926 2.31193 -12.6631 -13.4784
1009 3.03585 -11.8974 -13.4345
136 4.57761 -12.766 -14.1988
211 3.74775 -11.9059 -14.2227
725 -13.4788 -1.4969 -14.9016
140 6.03903 -12.6757 -14.2439
215 5.31549 -11.9883 -14.2021
934 5.28851 -12.6461 -13.3353
1017 5.98861 -11.913 -13.4676
734 -9.70711 -0.691392 -14.9107
144 7.52834 -12.699 -14.1545
938 6.78245 -12.6471 -13.3879
219 6.76996 -11.8946 -14.221
1021 7.50827 -11.9469 -13.4912
148 8.98837 -12.6352 -14.2288
942 8.2833 -12.7368 -13.3073
223 8.21015 -11.98 -14.1865
14 -9.65816 -14.2091 -14.9094
152 10.4171 -12.6004 -14.2218
227 9.65241 -11.92 -14.2086
946 9.76768 -12.5675 -13.4478
1029 10.4616 -11.8076 -13.562
821 -7.50181 -14.8913 -13.4076
156 11.9044 -12.6879 -14.1746
231 11.2222 -11.8763 -14.3657
546 9.65813 -5.19409 -14.9111
155 12.7198 -13.4034 -14.1859
160 13.5333 -12.6696 -14.2315
235 12.7151 -11.9576 -14.3007
4051 3.72757 -14.9654 -6.72753
159 14.2758 -13.4538 -14.2276
239 14.2114 -11.9365 -14.208
958 14.1364 -12.6524 -13.4059
243 -14.1372 -10.4492 -14.1425
168 -13.5364 -11.185 -14.3795
6405 -13.4059 -14.8996 -3.00838
164 -14.9134 -11.182 -14.2682
247 -12.6867 -10.357 -14.176
3227 -5.17996 -14.8761 -8.21732
171 -11.2642 -11.8808 -14.2055
172 -12.0561 -11.1939 -14.1474
251 -11.27 -10.4502 -14.1922
16845 1.55788 0.0250072 -13.4165
1049 -12.0066 -10.4616 -13.4368
20025 -5.99944 -0.0380741 -7.51607
176 -10.4547 -11.0948 -14.2507
255 -9.60618 -10.4908 -14.1412
31 -3.7429 -14.93 -14.1369
8214 5.19364 -11.2832 0.030122
180 -8.91946 -11.2559 -14.1066
978 -8.18511 -11.1787 -13.4491
259 -8.1503 -10.4913 -14.1401
17637 -1.55373 -0.035344 -11.9918
19229 -4.42184 -0.0877802 -8.96032
1649 3.08033 -14.9215 -11.9005
183 -6.67279 -11.9684 -14.2025
184 -7.38806 -11.1859 -14.1933
110 -3.7191 -12.576 -14.8125
765 1.51214 -1.45904 -14.918
187 -5.26748 -11.9149 -14.0842
985 -5.98778 -11.8644 -13.364
188 -5.93016 -11.178 -14.152
986 -5.24608 -11.1412 -13.3516
191 -3.66802 -11.9216 -14.1131
192 -4.4998 -11.1932 -14.1958
990 -3.77067 -11.1743 -13.3333
196 -2.96713 -11.2078 -14.1685
275 -2.22839 -10.5156 -14.0905
993 -2.94924 -11.9316 -13.3952
994 -2.20786 -11.2407 -13.42
200 -1.49842 -11.2859 -14.1964
170 -11.2461 -11.1417 -14.8857
204 -0.0537347 -11.1346 -14.3167
5677 13.4678 -14.8619 -4.47993
208 1.43617 -11.1312 -14.2237
1085 1.5145 -10.4629 -13.4211
841 -0.0783628 -14.9189 -13.3716
212 2.97932 -11.1501 -14.1693
287 2.21969 -10.4809 -14.1856
1006 2.20929 -11.2245 -13.428
216 4.48758 -11.1484 -14.2438
1010 3.69118 -11.1354 -13.4761
291 3.72731 -10.4431 -14.2066
220 5.99727 -11.1823 -14.2442
295 5.32955 -10.4435 -14.1808
1014 5.31257 -11.1595 -13.5018
1097 6.00514 -10.3857 -13.486
22463 8.21115 -0.0584782 -2.18062
224 7.52924 -11.2786 -14.2209
1101 7.45817 -10.4838 -13.4641
1018 6.73138 -11.1503 -13.4676
228 8.93943 -11.263 -14.2687
1022 8.25104 -11.113 -13.4401
1105 9.03378 -10.3561 -13.4783
38 -0.773521 -14.12 -14.9053
232 10.4737 -11.1617 -14.3369
307 9.71139 -10.4803 -14.2333
236 11.9822 -11.2115 -14.2811
1030 11.2071 -11.1902 -13.5924
311 11.1774 -10.3768 -14.3106
1033 11.9714 -11.9125 -13.5164
3229 -4.46568 -14.9105 -9.02397
109 -4.53315 -13.4944 -14.8033
240 13.5079 -11.1743 -14.2618
315 12.7437 -10.3883 -14.2472
6461 7.4388 -14.9351 -2.98429
1117 13.4878 -10.4405 -13.4975
319 14.2111 -10.4579 -14.1418
1038 14.2826 -11.1688 -13.508
781 7.56379 -1.52023 -14.8525
17645 1.49912 -0.0788551 -11.9248
241 14.8955 -10.4073 -14.8902
248 -13.4683 -9.7434 -14.2708
327 -12.7438 -8.98475 -14.1403
8001 14.8707 -14.9215 0.0056197
252 -11.9432 -9.72009 -14.1991
331 -11.3529 -8.94026 -14.2324
558 14.2515 -5.28171 -14.9869
256 -10.5276 -9.71687 -14.2059
335 -9.6628 -9.01508 -14.2358
22477 13.4113 -0.0425814 -2.99048
260 -8.92536 -9.65592 -14.1568
339 -8.13056 -8.89225 -14.1555
20013 -10.4844 -0.111902 -7.35785
263 -6.61078 -10.4576 -14.1708
264 -7.41414 -9.66399 -14.2199
1141 -7.42361 -8.9483 -13.4586
538 6.72203 -5.27488 -14.9433
1062 -6.71819 -9.67168 -13.5485
313 11.9519 -10.4228 -14.9298
1065 -5.98036 -10.4799 -13.3878
267 -5.25958 -10.4315 -14.239
268 -5.94122 -9.69976 -14.1125
1066 -5.08582 -9.62326 -13.3729
271 -3.75296 -10.4626 -14.1711
1069 -4.52433 -10.4436 -13.4882
272 -4.50177 -9.71335 -14.2394
351 -3.73544 -8.9575 -14.1417
1070 -3.7462 -9.7505 -13.4361
276 -2.95749 -9.77799 -14.1487
473 11.9171 -7.53965 -14.9075
1073 -3.0335 -10.5048 -13.3814
1074 -2.32652 -9.67379 -13.3245
514 -2.22156 -5.23306 -14.8975
1077 -1.50501 -10.452 -13.395
280 -1.54489 -9.7384 -14.1916
1157 -1.50519 -8.99974 -13.4623
279 -0.887239 -10.4931 -14.1481
359 -0.839229 -8.98592 -14.2475
1078 -0.764196 -9.74687 -13.5237
283 0.747718 -10.4425 -14.2025
1081 -0.00708208 -10.5152 -13.5621
284 -0.0704105 -9.68404 -14.2533
1161 -0.0749066 -8.9432 -13.513
288 1.43548 -9.74799 -14.1998
1082 0.71914 -9.74755 -13.369
16859 6.6817 -0.0668258 -12.7535
292 2.99019 -9.71409 -14.2802
1086 2.16569 -9.75367 -13.4387
26 -5.23329 -14.2058 -14.8672
296 4.45154 -9.6754 -14.1974
1090 3.75 -9.77108 -13.439
371 3.71355 -8.98841 -14.2096
1093 4.53653 -10.4995 -13.4652
300 6.05812 -9.63065 -14.2229
1094 5.24571 -9.70479 -13.5772
375 5.26724 -8.94918 -14.2468
105 -5.98847 -13.4347 -14.9155
1177 6.0245 -8.95449 -13.4728
698 6.7603 -2.16646 -14.9145
299 6.81081 -10.5002 -14.2809
304 7.44419 -9.72445 -14.1579
1098 6.7608 -9.74951 -13.4748
379 6.78616 -8.91951 -14.2121
1181 7.47369 -9.04848 -13.428
17649 2.96305 0.0240766 -11.9116
303 8.25726 -10.4462 -14.2687
308 8.95309 -9.71665 -14.2072
1102 8.23706 -9.71652 -13.4793
312 10.5185 -9.64831 -14.2198
387 9.74866 -8.98087 -14.1579
16073 12.0197 0.0081647 -14.9787
1109 10.5143 -10.4632 -13.5457
4809 -12.0109 -14.9073 -5.93041
316 11.9341 -9.70423 -14.155
391 11.2732 -8.92849 -14.1199
1110 11.2002 -9.67577 -13.4478
20023 -6.73392 -0.0516951 -6.74383
21679 14.2203 -0.0215716 -3.81211
320 13.4483 -9.72552 -14.2384
395 12.7191 -8.94721 -14.1979
1114 12.6534 -9.6844 -13.4566
2415 -9.77198 -14.8846 -9.75442
244 -14.8528 -9.59977 -14.1956
399 14.2598 -8.92162 -14.2053
21 -7.52477 -14.887 -14.8824
19271 11.1747 0.00249976 -8.17433
323 -14.1549 -8.93668 -14.2983
1122 -14.2435 -8.12693 -13.5187
16877 13.4984 0.0161759 -13.5246
328 -13.5257 -8.16359 -14.2657
1125 -13.4271 -8.97386 -13.5146
4071 11.1811 -14.886 -6.76005
1126 -12.7882 -8.19937 -13.5217
332 -11.9792 -8.11459 -14.199
189 -4.55754 -11.9386 -14.9208
336 -10.5022 -8.26528 -14.1915
415 -9.71649 -7.41124 -14.157
20049 3.01205 0.0105101 -7.43791
525 1.48947 -5.94214 -14.8905
340 -8.9155 -8.20497 -14.2244
419 -8.19108 -7.43057 -14.277
6479 14.3032 -14.8802 -2.23046
17611 -11.2208 0.00611102 -11.2454
343 -6.69131 -8.95337 -14.1772
344 -7.31407 -8.16278 -14.1808
423 -6.60243 -7.41195 -14.2014
1142 -6.70096 -8.20944 -13.3417
867 9.77752 -14.8415 -12.6566
347 -5.20665 -8.90251 -14.1319
348 -6.01299 -8.2335 -14.2134
1146 -5.2788 -8.18247 -13.4601
427 -5.36244 -7.45873 -14.2283
5621 -7.46381 -14.9175 -4.37396
1145 -6.00682 -8.89465 -13.4013
1225 -5.97987 -7.47206 -13.3837
352 -4.51701 -8.22054 -14.2024
431 -3.77025 -7.47628 -14.1982
1229 -4.4453 -7.48432 -13.38
1149 -4.46414 -8.85957 -13.4176
6415 -9.76457 -14.9169 -2.22386
355 -2.28042 -8.8724 -14.1337
1153 -3.02969 -8.87789 -13.4753
356 -3.03648 -8.10838 -14.1549
1154 -2.34417 -8.1102 -13.3974
562 -14.1169 -3.72709 -14.9548
360 -1.45922 -8.22307 -14.2669
439 -0.840902 -7.54172 -14.0564
364 0.0184093 -8.22291 -14.1314
1241 -0.0222467 -7.55013 -13.4615
363 0.765635 -9.01542 -14.1549
368 1.45103 -8.28049 -14.2415
1245 1.5334 -7.53248 -13.4116
367 2.16366 -9.00236 -14.1895
372 2.94183 -8.23716 -14.2171
1166 2.2802 -8.27895 -13.4844
1169 2.97774 -8.99022 -13.5375
1249 2.93914 -7.51073 -13.4633
376 4.49336 -8.19802 -14.2394
451 3.69819 -7.57771 -14.2218
1173 4.58166 -8.89805 -13.4548
1170 3.65666 -8.2247 -13.5088
18427 -5.16849 -0.0987548 -9.77466
380 6.15794 -8.18382 -14.1892
1174 5.31977 -8.27182 -13.4239
455 5.22489 -7.43276 -14.1364
1257 6.04191 -7.49359 -13.4748
16851 3.78758 -0.0120945 -12.6892
34 -2.2832 -14.1418 -14.89
384 7.44058 -8.22309 -14.1335
459 6.75384 -7.35666 -14.2013
1178 6.80654 -8.14611 -13.4105
383 8.16726 -8.9853 -14.2505
388 8.98894 -8.16545 -14.2094
1182 8.21131 -8.25001 -13.4176
392 10.4364 -8.24284 -14.2117
467 9.73831 -7.42962 -14.2504
396 11.9439 -8.22966 -14.1738
471 11.1233 -7.50371 -14.2092
20015 -9.77419 -0.0672133 -6.67184
400 13.5002 -8.28495 -14.1221
1277 13.5005 -7.50222 -13.4902
475 12.831 -7.5516 -14.2008
106 -5.24094 -12.6559 -14.9091
1194 12.7296 -8.22631 -13.4145
324 -14.9024 -8.17226 -14.2464
1198 14.281 -8.18821 -13.5251
1201 -14.9481 -7.46442 -13.5072
23211 -11.2856 0.0030376 -0.737728
1205 -13.4486 -7.39962 -13.4418
403 -14.1503 -7.39804 -14.2367
404 -14.8974 -6.64957 -14.2181
407 -12.7706 -7.43922 -14.1684
408 -13.4188 -6.68155 -14.3448
5607 -12.6868 -14.8806 -3.77596
5601 -14.7818 -14.8164 -4.40756
17629 -4.46761 -0.0615762 -11.8729
2457 6.04006 -14.8609 -10.4757
411 -11.1773 -7.49976 -14.1869
412 -11.9798 -6.77383 -14.2037
416 -10.5171 -6.78613 -14.1799
1214 -9.7177 -6.70393 -13.4612
438 -0.790348 -6.69068 -14.9865
334 -9.68332 -8.27365 -14.8777
4871 11.1417 -14.9093 -5.22373
420 -8.93104 -6.75638 -14.1517
3201 14.8661 -14.9008 -9.09528
1221 -7.27331 -7.45425 -13.4401
424 -7.46163 -6.75526 -14.1309
1222 -6.68519 -6.717 -13.382
21647 2.20424 -0.129129 -3.58311
428 -5.94805 -6.69 -14.152
507 -5.21477 -6.01129 -14.1116
1226 -5.21639 -6.72347 -13.3181
1305 -5.98959 -5.84139 -13.439
97 -8.92737 -13.4197 -14.8879
432 -4.50537 -6.75149 -14.1987
511 -3.73761 -5.9152 -14.1496
1233 -3.08173 -7.42923 -13.4046
435 -2.23124 -7.52203 -14.2614
436 -2.94994 -6.79581 -14.1891
1234 -2.2976 -6.72923 -13.3929
1313 -2.99382 -5.89007 -13.4718
4851 3.63022 -14.9172 -5.17194
1237 -1.50818 -7.46398 -13.4546
440 -1.51405 -6.68692 -14.2037
444 -0.106314 -6.63881 -14.1785
523 0.688393 -6.00291 -14.1802
519 -0.845088 -5.94575 -14.1537
22449 2.96444 -0.0609094 -2.92715
443 0.68246 -7.45681 -14.1687
448 1.42397 -6.76775 -14.132
1242 0.813456 -6.79944 -13.3773
447 2.18499 -7.474 -14.2329
452 3.02198 -6.77293 -14.1924
1246 2.22481 -6.76618 -13.4798
1657 5.94299 -14.8682 -11.9287
498 -8.10066 -5.26685 -14.9095
1253 4.57817 -7.4959 -13.4006
456 4.38734 -6.6667 -14.1478
1250 3.71699 -6.71065 -13.4481
1333 4.45283 -5.98415 -13.4058
460 5.97085 -6.71744 -14.1713
535 5.21541 -6.03863 -14.186
21627 -5.28782 0.044073 -3.62853
737 -9.0152 -1.39168 -14.935
464 7.55126 -6.79402 -14.192
539 6.77771 -6.01456 -14.2267
537 5.95817 -5.99217 -14.9298
463 8.23023 -7.52064 -14.168
468 8.9195 -6.77749 -14.2415
2471 11.1645 -14.9344 -9.74405
472 10.5224 -6.69301 -14.17
547 9.68433 -6.00827 -14.2489
262 -6.64082 -9.72022 -14.9016
1266 9.7166 -6.74779 -13.4548
24017 -8.97855 -0.0350232 -0.0603218
476 12.0349 -6.79457 -14.1994
551 11.2623 -6.02227 -14.2087
1273 12.0619 -7.43406 -13.4112
480 13.4763 -6.71116 -14.1932
19225 -6.03562 -0.0232839 -9.06112
22475 12.7516 -0.0462473 -2.26676
17663 8.22967 -0.127736 -11.2317
839 -0.698294 -14.8323 -12.6667
19241 0.0124931 0.0025067 -8.98795
479 14.2269 -7.3973 -14.2383
483 -14.1567 -5.97115 -14.2282
4077 13.4674 -14.8851 -7.5052
1282 -14.209 -5.19466 -13.3878
484 -14.9236 -5.26097 -14.2525
21623 -6.70967 -0.0475975 -3.75341
487 -12.6697 -5.90404 -14.2787
488 -13.4478 -5.25083 -14.1416
567 -12.6879 -4.47099 -14.2369
491 -11.2719 -5.91841 -14.2323
492 -11.8989 -5.15446 -14.2956
6457 5.96231 -14.9263 -3.04051
4033 -2.90618 -14.9332 -7.4346
571 -11.1444 -4.50673 -14.2386
495 -9.69272 -5.94476 -14.139
496 -10.441 -5.225 -14.2191
1294 -9.66327 -5.25685 -13.5106
499 -8.13096 -5.98248 -14.115
500 -8.89355 -5.22017 -14.17
503 -6.72686 -6.00066 -14.2315
504 -7.47412 -5.21442 -14.1553
1301 -7.43361 -5.9467 -13.4196
583 -6.81924 -4.52062 -14.2387
8698 6.74857 -2.17357 -0.0412534
819 -8.14923 -14.9303 -12.6618
508 -5.96949 -5.14067 -14.2084
1306 -5.15622 -5.11253 -13.4372
21637 -1.45761 -0.0667247 -4.47654
1385 -5.95409 -4.46166 -13.3838
19223 -6.78007 0.0735018 -8.22338
512 -4.46201 -5.25114 -14.2324
1389 -4.50717 -4.46108 -13.4908
1310 -3.74484 -5.15866 -13.4605
494 -9.62372 -5.16367 -14.9241
515 -2.23817 -5.95504 -14.1388
516 -2.98343 -5.1948 -14.201
595 -2.215 -4.41695 -14.2478
2447 2.31352 -14.9597 -9.65961
1317 -1.53301 -5.98627 -13.4051
520 -1.53827 -5.24412 -14.1563
599 -0.739162 -4.50246 -14.1127
17619 -8.2238 -0.0284335 -11.2245
3217 -8.98842 -14.8983 -8.9878
7253 4.4548 -14.9172 -1.43582
524 -0.0715501 -5.27895 -14.2312
1401 -0.0769364 -4.51426 -13.3554
823 -6.77403 -14.8889 -12.7257
528 1.4449 -5.26606 -14.1545
527 2.20543 -5.98237 -14.2007
532 2.95106 -5.33083 -14.1644
607 2.27122 -4.53212 -14.2064
66 9.70742 -14.1253 -14.9487
1329 3.00525 -6.01122 -13.3863
4845 1.62549 -14.9558 -5.9289
531 3.75324 -5.94088 -14.1218
536 4.54771 -5.2851 -14.223
1330 3.73974 -5.21909 -13.4401
590 -3.75719 -3.69708 -14.9103
540 5.91806 -5.22971 -14.2039
615 5.25853 -4.43513 -14.1363
544 7.50469 -5.10828 -14.212
619 6.74722 -4.48217 -14.1703
1341 7.46455 -5.97944 -13.5041
7201 14.9224 -14.9122 -1.49364
543 8.24583 -5.9555 -14.2336
548 8.96465 -5.22558 -14.2012
686 2.24008 -2.1595 -14.8776
1342 8.19406 -5.25014 -13.5117
552 10.5104 -5.17463 -14.3008
22453 4.49833 -0.0130424 -2.96048
18445 1.46764 -0.0127588 -10.4828
556 11.9064 -5.18584 -14.2113
631 11.2462 -4.42514 -14.16
555 12.7802 -5.97123 -14.2201
560 13.4966 -5.26872 -14.2475
635 12.6187 -4.54529 -14.2101
559 14.2589 -5.98161 -14.2027
639 14.2351 -4.55529 -14.371
6419 -8.24317 -14.8376 -2.24964
22427 -5.19814 0.031438 -2.24072
353 -2.95001 -8.96344 -14.8391
563 -14.1725 -4.51596 -14.2426
1361 -14.915 -4.46052 -13.4461
568 -13.4536 -3.79921 -14.2554
647 -12.7089 -3.02256 -14.3101
2477 13.3494 -14.879 -10.4564
4849 2.9796 -14.9337 -5.98269
572 -11.9511 -3.77122 -14.2742
22465 9.00446 -0.0755026 -2.95981
575 -9.67428 -4.51552 -14.1363
576 -10.456 -3.70651 -14.1732
655 -9.69887 -2.88582 -14.2166
3209 -12.064 -14.8686 -8.95169
579 -8.23853 -4.4836 -14.1381
580 -8.9235 -3.69762 -14.1702
659 -8.14607 -2.97721 -14.1827
22479 14.1421 -0.0368511 -2.25273
1377 -8.96569 -4.45448 -13.4211
2427 -5.23711 -14.899 -9.69605
4835 -2.21423 -14.9703 -5.18715
584 -7.44407 -3.71652 -14.1899
663 -6.70766 -2.91268 -14.2087
1382 -6.70164 -3.74569 -13.3486
17673 11.924 -0.159176 -11.889
587 -5.25991 -4.4786 -14.1942
588 -5.9989 -3.81072 -14.1607
667 -5.32783 -2.93187 -14.1175
1386 -5.26157 -3.674 -13.4143
1465 -6.07411 -3.00285 -13.3915
591 -3.83503 -4.4896 -14.2419
592 -4.5724 -3.75531 -14.2037
671 -3.82808 -2.94445 -14.1067
17677 13.4302 -0.0486044 -12.0227
6459 6.65231 -14.9337 -2.26584
596 -2.993 -3.64589 -14.1982
1397 -1.46458 -4.45291 -13.3935
600 -1.5356 -3.71839 -14.1851
1398 -0.740777 -3.76868 -13.4479
534 5.29147 -5.20599 -14.9332
1477 -1.44614 -2.93303 -13.4352
23215 -9.70357 -0.0579038 -0.708114
604 0.03563 -3.73595 -14.1448
1481 -0.0197398 -2.92511 -13.5795
679 -0.768394 -2.93517 -14.1994
603 0.76944 -4.42965 -14.1618
608 1.54651 -3.83904 -14.2085
1485 1.49365 -2.97032 -13.4474
612 2.9778 -3.7728 -14.2273
687 2.25825 -3.00041 -14.2609
17631 -3.54011 -0.0498085 -11.154
611 3.71055 -4.47994 -14.2345
616 4.46963 -3.8121 -14.189
691 3.69748 -3.00712 -14.2053
5649 2.91059 -14.9215 -4.47488
16853 4.51416 -0.04677 -13.4886
7217 -9.04043 -14.8838 -1.46896
620 6.09225 -3.75022 -14.1561
1414 5.34424 -3.8045 -13.4158
695 5.22848 -3.1211 -14.1644
624 7.39507 -3.74498 -14.2947
8726 -12.6195 -0.871262 -0.0148473
413 -10.4719 -7.46582 -14.9652
623 8.23919 -4.45442 -14.221
628 8.94556 -3.68886 -14.2514
5635 -2.29417 -14.939 -3.70864
1609 -11.9997 -14.936 -11.8303
627 9.67895 -4.39576 -14.2176
632 10.4462 -3.61268 -14.1956
1429 10.5043 -4.39151 -13.4432
636 11.9068 -3.72589 -14.179
1629 -4.53331 -14.9231 -11.9645
17635 -2.23894 -0.0653763 -11.2083
8785 8.98985 -1.46972 -0.0611166
640 13.5489 -3.79425 -14.2568
715 12.6621 -2.98539 -14.166
1437 13.4528 -4.47013 -13.5912
564 14.9281 -3.69497 -14.2505
1438 14.1963 -3.77271 -13.5666
16865 9.0014 -0.0549666 -13.4355
643 -14.2077 -3.06668 -14.2486
644 14.9328 -2.26985 -14.2176
648 -13.4242 -2.31469 -14.1835
1525 -13.3684 -1.5638 -13.4448
651 -11.267 -2.91203 -14.2836
652 -11.9007 -2.22356 -14.2486
731 -11.2605 -1.53423 -14.1938
656 -10.4163 -2.11123 -14.1384
735 -9.78445 -1.41613 -14.1987
210 3.66942 -11.2556 -14.9558
213 4.52895 -11.8355 -14.9279
46 2.18802 -14.144 -14.8759
2469 10.4496 -14.8184 -10.4744
19211 -11.2369 0.0294453 -8.21875
660 -8.99527 -2.12457 -14.2407
739 -8.12071 -1.4428 -14.3007
1458 -8.23383 -2.13172 -13.488
664 -7.51847 -2.2531 -14.3387
743 -6.78123 -1.47683 -14.2053
1541 -7.49584 -1.48626 -13.4924
1462 -6.77304 -2.12793 -13.4169
5629 -4.44823 -14.9774 -4.42282
94 -9.69223 -12.635 -14.8843
668 -5.97308 -2.15749 -14.1378
1466 -5.19319 -2.16027 -13.4428
747 -5.19229 -1.44229 -14.2099
1545 -5.91729 -1.42593 -13.3795
8573 -10.541 -4.52127 -0.0300632
829 -4.47419 -14.9053 -13.3917
672 -4.50458 -2.21277 -14.2759
751 -3.62685 -1.4259 -14.1722
1549 -4.48902 -1.41671 -13.4185
670 -3.70186 -2.21885 -14.8896
8414 -9.76943 -6.84459 -0.113044
2409 -12.0331 -14.8827 -10.4666
675 -2.20053 -2.95403 -14.1352
676 -2.98059 -2.26891 -14.1264
755 -2.36754 -1.4859 -14.2357
2439 -0.7445 -14.9233 -9.69731
185 -5.92805 -11.9284 -14.954
680 -1.48688 -2.23967 -14.2024
759 -0.758731 -1.50514 -14.1666
1478 -0.655171 -2.24365 -13.4105
684 0.0119179 -2.1848 -14.2607
1482 0.78267 -2.19332 -13.4757
815 -9.72675 -14.8734 -12.6406
683 0.772281 -2.95104 -14.1696
688 1.48927 -2.24829 -14.2196
1565 1.48699 -1.46112 -13.4927
530 3.74358 -5.23976 -14.9385
692 2.98612 -2.24059 -14.2332
1569 2.97294 -1.4593 -13.461
17675 12.7024 0.00298298 -11.1897
1493 4.50927 -3.03992 -13.39
696 4.49994 -2.3459 -14.2673
16003 -14.1018 -0.0594714 -14.2474
1490 3.69708 -2.37665 -13.4364
1573 4.48228 -1.63203 -13.4379
700 5.97164 -2.25574 -14.165
1497 6.00032 -3.00968 -13.4464
509 -4.47161 -6.05907 -14.9106
15 -9.64899 -14.8928 -14.1764
4879 14.3217 -14.8713 -5.23425
699 6.84505 -3.01152 -14.0967
704 7.46704 -2.26797 -14.0978
779 6.68674 -1.53704 -14.1257
1498 6.7703 -2.24205 -13.3903
5641 0.0913934 -14.8862 -4.43286
8529 3.12749 -5.96229 -0.0238742
703 8.18481 -2.98819 -14.2776
708 8.93861 -2.26377 -14.2813
783 8.22767 -1.55118 -14.1413
1505 8.98224 -3.02644 -13.4479
1502 8.28062 -2.30097 -13.4202
102 -6.78866 -12.6605 -14.9495
474 12.7654 -6.83104 -14.9118
707 9.66676 -2.97984 -14.2454
712 10.4882 -2.22531 -14.2387
1506 9.66443 -2.22406 -13.4958
17625 -5.98545 -0.093242 -11.9416
277 -1.58567 -10.5304 -14.8971
711 11.2616 -2.95074 -14.2176
716 11.9631 -2.24401 -14.2617
8554 12.739 -5.18988 0.00755664
1517 13.5001 -3.06607 -13.4853
720 13.4269 -2.27813 -14.2745
1597 13.5451 -1.41597 -13.4684
795 12.7751 -1.54161 -14.2045
8773 4.4858 -1.45352 -0.0471662
719 14.2 -2.96874 -14.2905
1655 5.22458 -14.9145 -11.2309
799 14.1692 -1.50761 -14.1671
1521 -14.924 -1.50548 -13.5004
1518 14.2318 -2.21288 -13.4623
601 -0.039184 -4.48992 -14.9296
723 -14.1701 -1.52298 -14.1675
724 -14.8821 -0.717358 -14.1789
1522 -14.1938 -0.856562 -13.4559
4079 14.2273 -14.8722 -6.72872
727 -12.6724 -1.4789 -14.1772
728 -13.4347 -0.841054 -14.1549
8721 -14.8767 -1.57959 -0.00609316
732 -11.9485 -0.733231 -14.1252
205 1.50777 -11.9124 -14.9262
1530 -11.2202 -0.716346 -13.4146
813 -10.4187 -14.9157 -13.4417
581 -7.58641 -4.44484 -14.9542
736 -10.5136 -0.724221 -14.1583
16811 -11.2226 -0.0268609 -12.6055
740 -8.87326 -0.694013 -14.2334
8566 -12.6573 -3.80031 -0.0310233
8546 9.75307 -5.269 0.0054361
744 -7.46833 -0.706243 -14.261
1542 -6.62678 -0.710317 -13.4656
8509 -4.53699 -5.93641 -0.0467214
629 10.4536 -4.46366 -14.9364
174 -9.66771 -11.1909 -14.9361
748 -5.93965 -0.771662 -14.1638
1546 -5.17276 -0.699791 -13.4591
4019 -8.22393 -14.9 -6.6698
752 -4.47726 -0.765031 -14.2228
617 5.98687 -4.53609 -14.8999
22405 -13.4841 -0.10024 -3.00635
831 -3.72367 -14.8922 -12.7621
756 -2.93056 -0.660653 -14.2585
1554 -2.2341 -0.750406 -13.4519
4803 -14.1597 -14.9535 -5.27264
760 -1.48416 -0.808116 -14.1473
19205 -13.3871 -0.0103721 -8.95527
7995 12.754 -1.49975 -0.838493
1561 0.0343097 -1.50568 -13.4584
764 0.0213336 -0.7343 -14.1281
1562 0.727761 -0.786272 -13.4673
7991 11.2048 -1.54108 -0.783347
763 0.753485 -1.43847 -14.2392
768 1.54358 -0.74639 -14.1276
7990 11.1863 -0.748957 -1.53899
361 0.0205771 -8.91395 -14.8613
767 2.25186 -1.44758 -14.2211
772 3.03127 -0.749239 -14.2057
7996 11.9414 -0.741946 -0.797508
6401 14.9311 -14.9157 -3.00324
771 3.75957 -1.52405 -14.1849
776 4.43796 -0.879706 -14.225
1570 3.8313 -0.856095 -13.4791
1659 6.74613 -14.909 -11.3138
505 -6.005 -5.98128 -14.9717
4069 10.4169 -14.9407 -7.48962
2463 8.20949 -14.8675 -9.78735
513 -2.95927 -5.96853 -14.9648
775 5.23106 -1.5378 -14.231
780 5.92959 -0.73232 -14.2001
19265 8.96506 -0.0604333 -8.99702
5609 -11.9493 -14.8987 -4.51642
784 7.4342 -0.764173 -14.2027
788 8.94064 -0.687956 -14.2179
4839 -0.686114 -14.8902 -5.1745
7257 5.95496 -14.9427 -1.52997
266 -5.17832 -9.64828 -14.9245
7237 -1.49703 -14.9551 -1.47745
787 9.67672 -1.45709 -14.262
792 10.4009 -0.747075 -14.3423
8010 -11.2213 -14.2615 0.0392782
6409 -11.9752 -14.8713 -3.01918
3277 13.4047 -14.8921 -8.9142
791 11.1557 -1.46395 -14.2261
796 11.9627 -0.695505 -14.2709
20871 11.2351 -0.0890377 -5.22724
835 -2.27161 -14.9221 -12.6602
800 13.4952 -0.7699 -14.2671
1594 12.6477 -0.828767 -13.4478
18451 3.78636 -0.0255501 -9.65707
21665 8.92024 -0.0608587 -4.51511
17659 6.74686 -0.0343761 -11.2628
20053 4.49271 -0.0505653 -7.57425
8237 13.4073 -11.8555 -0.0393301
883 -14.2289 -13.4111 -12.6902
804 14.8931 -14.1467 -12.7334
806 -12.7762 -14.2044 -13.4071
808 -13.4971 -14.1323 -12.7571
887 -12.8201 -13.4369 -12.6806
1685 -13.5274 -13.5098 -11.9586
810 -11.324 -14.1525 -13.3675
812 -11.9798 -14.2809 -12.6468
889 -12.0374 -13.4372 -13.4354
7273 11.8917 -14.9038 -1.52524
19249 2.9184 -0.0197574 -8.98573
893 -10.4356 -13.3891 -13.4465
816 -10.4937 -14.1821 -12.6664
1614 -9.69302 -14.0866 -11.9215
855 5.29638 -14.8868 -12.7502
23267 9.71292 -0.0030875 -0.783237
4811 -11.1765 -14.9009 -5.32205
8661 -7.5356 -2.98754 -0.104274
820 -8.92649 -14.1834 -12.801
899 -8.21644 -13.4259 -12.7179
824 -7.38264 -14.0847 -12.6506
1622 -6.6614 -14.2081 -11.9386
17603 -14.2501 -0.0684095 -11.2132
4825 -6.01133 -14.8628 -5.89245
826 -5.22285 -14.1434 -13.4754
828 -6.03109 -14.1981 -12.7594
1626 -5.2172 -14.188 -11.957
657 -8.99137 -2.97511 -14.9226
832 -4.49008 -14.1533 -12.7386
1630 -3.76657 -14.1975 -11.939
16039 -0.775625 -0.0515796 -14.1723
8261 -7.53009 -10.3699 -0.0177697
2419 -8.27828 -14.9358 -9.723
836 -2.98795 -14.1603 -12.7003
915 -2.28247 -13.5209 -12.6109
838 -0.694426 -14.1387 -13.392
840 -1.47401 -14.1794 -12.756
1638 -0.638548 -14.1736 -11.931
7986 9.64752 -0.799975 -1.56133
1669 10.4654 -14.892 -11.8939
921 -0.0246573 -13.4129 -13.4498
844 0.112491 -14.1609 -12.6907
848 1.52153 -14.1952 -12.7501
1725 1.45644 -13.4358 -11.9482
1642 0.789488 -14.2441 -11.9664
846 2.25358 -14.2019 -13.4202
270 -3.70248 -9.72301 -14.9514
852 3.00282 -14.1012 -12.7779
927 2.20052 -13.3929 -12.6467
1646 2.23692 -14.2751 -12.0261
1729 3.01203 -13.4571 -12.0245
7992 10.5612 -0.719098 -0.833006
850 3.76277 -14.117 -13.4963
856 4.45729 -14.1655 -12.7098
933 4.5431 -13.4391 -13.5042
931 3.71791 -13.4084 -12.8068
1650 3.78863 -14.0358 -11.9593
273 -2.92984 -10.485 -14.9156
860 6.06089 -14.1542 -12.7301
935 5.25032 -13.5254 -12.7535
1654 5.14607 -14.1873 -11.9712
864 7.50072 -14.1722 -12.7557
939 6.73924 -13.4071 -12.6545
1658 6.77396 -14.1818 -12.0342
1741 7.50149 -13.3879 -12.0014
862 8.27731 -14.0979 -13.4405
945 9 -13.327 -13.4752
868 9.01157 -14.176 -12.7335
943 8.27095 -13.4655 -12.7097
872 10.4887 -14.1515 -12.649
947 9.76188 -13.3676 -12.7711
1666 9.74097 -14.1625 -11.9394
1749 10.4233 -13.4151 -11.9893
870 11.1865 -14.135 -13.4341
953 11.9389 -13.4309 -13.4507
876 11.9835 -14.1549 -12.8021
874 12.6918 -14.2172 -13.4658
880 13.3347 -14.1167 -12.7695
957 13.4395 -13.3765 -13.5085
959 14.1823 -13.4243 -12.8013
882 -14.1762 -12.7343 -13.4764
965 -13.5285 -11.8805 -13.5365
963 -14.1816 -11.9202 -12.7165
888 -13.4292 -12.6549 -12.7086
1682 -14.2675 -12.6096 -12.0425
886 -12.8343 -12.711 -13.5174
967 -12.7586 -11.9229 -12.6741
1686 -12.7355 -12.76 -11.9078
890 -11.321 -12.6796 -13.4072
969 -12.0245 -11.9641 -13.3914
891 -11.2875 -13.4294 -12.6521
892 -12.0447 -12.7395 -12.6584
894 -9.73392 -12.633 -13.4428
895 -9.77704 -13.3994 -12.6936
896 -10.5248 -12.5915 -12.7942
1694 -9.81839 -12.7202 -12.0083
975 -9.73832 -11.9102 -12.6909
977 -8.95961 -11.9891 -13.4585
898 -8.18818 -12.675 -13.458
900 -9.01733 -12.6964 -12.6414
1698 -8.22482 -12.6826 -11.9776
1777 -8.92983 -11.9991 -11.9234
981 -7.46632 -11.8988 -13.4119
903 -6.69177 -13.4097 -12.6554
904 -7.46385 -12.6276 -12.7136
1701 -7.40455 -13.3193 -11.9804
1702 -6.73934 -12.6215 -11.9343
907 -5.1861 -13.4616 -12.7021
908 -5.93408 -12.7019 -12.6957
1706 -5.19948 -12.6187 -11.9641
911 -3.75436 -13.4236 -12.6835
912 -4.48631 -12.6969 -12.7131
1710 -3.74045 -12.7168 -11.9116
916 -2.99488 -12.7441 -12.6938
995 -2.26987 -11.9621 -12.691
1714 -2.18397 -12.8522 -11.9451
1713 -3.06106 -13.4416 -11.8975
997 -1.533 -12.0337 -13.4527
918 -0.718091 -12.6636 -13.3516
920 -1.45262 -12.6872 -12.6453
1797 -1.64969 -11.9758 -11.9167
1718 -0.696398 -12.703 -11.9208
999 -0.822905 -11.9513 -12.5436
919 -0.750104 -13.4199 -12.6317
924 0.0135049 -12.6933 -12.5402
1721 0.0723783 -13.4905 -11.9299
923 0.771071 -13.4419 -12.6595
922 0.751257 -12.6491 -13.4738
928 1.47508 -12.6582 -12.6785
1805 1.46493 -11.8977 -11.9535
932 2.98999 -12.627 -12.7152
930 3.74637 -12.6465 -13.4706
936 4.49369 -12.6935 -12.8007
1730 3.7186 -12.6524 -12.0491
1013 4.42726 -11.8517 -13.519
1011 3.7709 -11.9445 -12.7088
940 6.024 -12.6807 -12.7571
1734 5.17367 -12.652 -11.9659
944 7.53224 -12.5709 -12.6651
1738 6.74179 -12.6315 -11.9516
1019 6.76057 -11.8971 -12.705
948 9.07379 -12.6403 -12.7303
1025 8.90031 -11.9656 -13.4279
1023 8.29653 -11.856 -12.6387
949 10.4258 -13.3954 -13.5253
952 10.5126 -12.6149 -12.7668
1027 9.77477 -11.9042 -12.706