ITEM: TIMESTEP
20000
ITEM: NUMBER OF ATOMS
32000
ITEM: BOX BOUNDS pp pp pp
-1.4938015821857215e+01 1.4938015821857215e+01
-1.4938015821857215e+01 1.4938015821857215e+01
-1.4938015821857215e+01 1.4938015821857215e+01
ITEM: ATOMS id x y z
8 -13.4123 -14.1319 -14.0966
6425 -5.98512 -14.9469 -3.09967
802 -14.2174 -14.2002 -13.3938
23251 3.63206 -0.0292116 -0.770184
806 -12.609 -14.1499 -13.3723
7924 -14.9273 -0.78331 -0.702525
87 -12.716 -13.39 -14.113
606 2.24837 -3.77659 -14.8829
653 -10.3803 -2.97996 -14.8582
12 -11.9391 -14.1833 -14.2302
8349 -4.57688 -8.96122 -0.0714732
16 -10.4929 -14.1274 -14.1205
814 -9.73772 -14.2144 -13.404
95 -9.74669 -13.4037 -14.1007
5627 -5.27131 -14.8894 -3.76421
7217 -8.93505 -14.8786 -1.4621
20 -8.9952 -14.1587 -14.2203
99 -8.26175 -13.4248 -14.07
897 -9.05003 -13.493 -13.3611
418 -8.308 -6.78754 -14.9456
7999 13.9804 -1.48317 -0.771448
23279 14.238 -0.0541726 -0.786544
24 -7.53546 -14.186 -14.1733
822 -6.71734 -14.1979 -13.4808
103 -6.68515 -13.4179 -14.1959
706 9.68643 -2.2472 -14.9065
28 -5.94845 -14.1467 -14.1105
107 -5.2561 -13.4092 -14.1909
905 -6.03182 -13.3676 -13.4377
7215 -9.62728 -14.8698 -0.732582
342 -6.76626 -8.19678 -14.9149
32 -4.44518 -14.1465 -14.2085
909 -4.48538 -13.3975 -13.4864
337 -8.93615 -8.91635 -14.8943
282 0.705579 -9.76732 -14.9163
36 -2.9603 -14.1839 -14.2295
115 -2.31142 -13.3971 -14.2027
206 2.18101 -11.2209 -14.9203
6423 -6.76298 -14.9055 -2.15628
40 -1.41016 -14.1045 -14.2568
838 -0.731614 -14.2169 -13.4883
7997 13.3681 -1.44646 -1.52172
693 4.50683 -3.04013 -14.9144
44 -0.0533241 -14.2423 -14.1846
8646 -12.7071 -2.24192 -0.0760321
48 1.48735 -14.1507 -14.2202
123 0.705968 -13.415 -14.1985
842 0.823383 -14.2003 -13.4797
7219 -8.2297 -14.9255 -0.801023
52 2.95687 -14.3454 -14.1933
127 2.27072 -13.5144 -14.192
846 2.24156 -14.322 -13.5115
8210 3.84862 -11.2119 0.00305142
22411 -11.1233 -0.10857 -2.26519
56 4.46911 -14.3109 -14.2033
4051 3.69437 -14.9307 -6.72674
60 5.92543 -14.2928 -14.2084
126 2.29704 -12.7284 -14.8502
64 7.4258 -14.1642 -14.2367
410 -11.17 -6.7575 -14.8896
16823 -6.617 -0.0657164 -12.6918
16803 -14.2307 -0.0897923 -12.6895
68 9.02909 -14.1545 -14.1431
21677 13.4699 -0.0594434 -4.51009
862 8.1973 -14.1815 -13.4403
161 -14.8924 -12.0171 -14.9288
482 -14.1701 -5.17349 -14.9076
197 -1.4877 -11.9488 -14.8566
72 10.4292 -14.199 -14.2529
147 9.79283 -13.4492 -14.1834
565 -13.3973 -4.49725 -14.9124
76 11.9594 -14.271 -14.2094
151 11.2343 -13.4304 -14.2359
953 11.9133 -13.3609 -13.4809
870 11.1725 -14.1859 -13.5281
8546 9.72997 -5.22267 -0.0339038
509 -4.48183 -5.9463 -14.8588
80 13.4911 -14.1931 -14.1634
874 12.6518 -14.2683 -13.4208
1679 14.2495 -14.9184 -11.2001
4 14.8783 -14.1914 -14.1933
878 14.2355 -14.2273 -13.4028
83 -14.1302 -13.41 -14.1595
882 -14.159 -12.6756 -13.3845
84 14.9523 -12.7951 -14.1826
88 -13.4213 -12.6146 -14.2138
102 -6.76222 -12.6826 -14.9022
965 -13.4561 -11.8993 -13.4728
91 -11.278 -13.4379 -14.075
92 -11.9386 -12.768 -14.0753
171 -11.2637 -12.0006 -14.1629
890 -11.1785 -12.6702 -13.3448
96 -10.5006 -12.6852 -14.1142
893 -10.4386 -13.4545 -13.2895
973 -10.3469 -11.9514 -13.2817
100 -8.97512 -12.7163 -14.1397
898 -8.14717 -12.5894 -13.4978
179 -8.23995 -11.8242 -14.1434
7239 -0.678951 -14.8841 -0.692913
104 -7.46396 -12.6671 -14.1541
902 -6.70942 -12.709 -13.459
981 -7.43317 -11.8993 -13.37
7233 -3.00816 -14.8591 -1.53578
677 -1.50725 -2.98189 -14.9012
108 -5.95671 -12.63 -14.1749
187 -5.23851 -11.8722 -14.2503
906 -5.18053 -12.6249 -13.402
985 -5.9529 -11.9649 -13.3368
111 -3.69934 -13.5033 -14.2062
112 -4.5094 -12.6263 -14.26
191 -3.77905 -11.9471 -14.2192
989 -4.40874 -11.9936 -13.386
20063 8.24407 -0.0589546 -6.81058
4879 14.1461 -14.9227 -5.21114
116 -3.03474 -12.656 -14.217
195 -2.33181 -11.9496 -14.2104
120 -1.46085 -12.7464 -14.1803
918 -0.719937 -12.7829 -13.4422
23259 6.76175 -0.00516405 -0.892923
669 -4.41184 -3.04322 -14.9402
119 -0.640074 -13.4461 -14.2483
124 0.0761055 -12.5965 -14.2616
510 -3.77951 -5.16536 -14.7838
128 1.44285 -12.764 -14.1983
203 0.720099 -11.9118 -14.1886
922 0.680353 -12.7279 -13.4319
1005 1.513 -12.0353 -13.5214
132 3.10606 -12.7252 -14.2597
207 2.27378 -11.9629 -14.1521
16843 0.787498 -0.0379899 -12.6264
131 3.78625 -13.4899 -14.1686
136 4.52762 -12.7535 -14.1815
930 3.81742 -12.7521 -13.482
211 3.73892 -11.958 -14.272
135 5.14281 -13.5345 -14.1468
140 5.82931 -12.797 -14.1275
215 5.25416 -11.9561 -14.1924
20829 -4.42654 -0.000330234 -6.01269
8530 3.70231 -5.26882 -0.0152196
23245 1.48615 -0.0423368 -1.4984
17665 8.97924 -0.00830766 -11.9774
139 6.70531 -13.5178 -14.1628
144 7.4551 -12.7478 -14.1761
941 7.39738 -13.5204 -13.4123
143 8.17451 -13.4438 -14.215
148 8.96405 -12.7964 -14.1819
223 8.27278 -11.9196 -14.1721
16819 -8.1543 -0.075634 -12.7716
152 10.3954 -12.6948 -14.1261
946 9.72549 -12.5986 -13.4656
23253 4.52967 -0.0390566 -1.38077
156 11.9321 -12.7229 -14.2641
231 11.2519 -12.0397 -14.1762
682 0.856588 -2.29553 -14.8943
8342 -6.71799 -8.18172 -0.0549606
155 12.7242 -13.5345 -14.2503
160 13.3531 -12.6897 -14.2384
235 12.6498 -11.9277 -14.2413
957 13.4236 -13.4433 -13.4331
1037 13.4718 -11.953 -13.4722
159 14.1811 -13.4456 -14.2007
239 14.2612 -12.0376 -14.1296
881 14.9112 -13.3899 -13.4132
958 14.1137 -12.7101 -13.4376
163 -14.215 -11.9523 -14.1889
243 -14.1891 -10.444 -14.123
167 -12.6014 -11.9726 -14.2481
168 -13.5112 -11.157 -14.1327
247 -12.6797 -10.4452 -14.1396
172 -11.9685 -11.2052 -14.1016
175 -9.72385 -11.8735 -14.1312
176 -10.4387 -11.2493 -14.078
1053 -10.4375 -10.4359 -13.3914
255 -9.60158 -10.4438 -14.1277
173 -10.5564 -12.0093 -14.8974
180 -8.95498 -11.2024 -14.2544
978 -8.18787 -11.1321 -13.3752
8614 5.32672 -3.70087 -0.0544408
14 -9.82152 -14.1356 -14.9393
183 -6.70871 -11.9623 -14.1752
184 -7.41065 -11.2328 -14.2331
5601 14.8632 -14.9284 -4.34394
188 -6.10754 -11.2509 -14.1582
192 -4.49559 -11.2304 -14.2246
271 -3.79046 -10.4977 -14.2233
863 8.15551 -14.9096 -12.7451
990 -3.70966 -11.2323 -13.4317
21673 12.0227 0.006621 -4.45912
330 -11.1586 -8.19394 -14.902
993 -2.95781 -12.0309 -13.4027
196 -3.06196 -11.2018 -14.1858
1073 -3.0867 -10.5048 -13.375
275 -2.26505 -10.5011 -14.1151
6419 -8.13097 -14.8778 -2.23908
20845 1.4921 -0.0582277 -6.04409
997 -1.52351 -11.9285 -13.3427
200 -1.52618 -11.2325 -14.108
998 -0.803242 -11.2964 -13.4129
199 -0.735462 -12.0358 -14.1532
22421 -7.46231 -0.00162298 -3.00075
513 -3.00864 -5.92988 -14.8971
204 -0.100707 -11.1808 -14.1787
1001 -0.00337892 -11.9733 -13.3736
208 1.44649 -11.231 -14.1214
1085 1.46938 -10.5136 -13.3856
212 3.01213 -11.233 -14.2571
287 2.16315 -10.5373 -14.168
20847 2.26535 -0.016555 -5.26778
741 -7.5344 -1.53504 -14.9261
1013 4.46489 -11.9263 -13.4943
216 4.48238 -11.1482 -14.2389
1010 3.73167 -11.1777 -13.4487
54 5.17336 -14.3169 -14.9163
220 5.97085 -11.0889 -14.114
845 1.49446 -14.9195 -13.5032
219 6.69023 -11.9646 -14.1955
224 7.51211 -11.2595 -14.1589
1018 6.72388 -11.2009 -13.4125
1021 7.43278 -11.9495 -13.3905
1101 7.34514 -10.4794 -13.377
138 6.67883 -12.7802 -14.8394
228 8.92968 -11.2214 -14.2269
303 8.16524 -10.5431 -14.191
1022 8.11108 -11.2013 -13.4311
16071 11.2216 -0.0241396 -14.2861
227 9.64048 -11.9581 -14.1957
232 10.4998 -11.1526 -14.2088
1029 10.5351 -11.8812 -13.4553
1109 10.5055 -10.3807 -13.4936
378 6.79754 -8.34676 -14.9487
236 11.9571 -11.1829 -14.1954
311 11.2083 -10.4569 -14.2185
240 13.4001 -11.2885 -14.2028
315 12.6945 -10.5344 -14.1489
1034 12.6715 -11.2102 -13.4681
164 14.9386 -11.1614 -14.186
1038 14.1992 -11.2163 -13.3957
1041 14.9202 -10.4479 -13.4345
319 14.1876 -10.4838 -14.2056
1042 -14.2481 -9.72616 -13.3774
248 -13.4815 -9.71687 -14.1314
327 -12.7475 -8.96016 -14.1463
1046 -12.7392 -9.7505 -13.369
1125 -13.4934 -9.00861 -13.3682
251 -11.183 -10.4133 -14.1175
252 -12.0398 -9.65069 -14.1621
1050 -11.2832 -9.69139 -13.4214
8338 -8.22004 -8.15927 -0.09191
1049 -11.9855 -10.4434 -13.4577
1129 -11.983 -8.9314 -13.4023
256 -10.3974 -9.75914 -14.2522
335 -9.67997 -8.92868 -14.1617
5649 3.04872 -14.8903 -4.58529
1054 -9.65256 -9.77251 -13.3599
23219 -8.14474 -0.0288215 -0.750357
259 -8.22761 -10.4608 -14.2694
260 -8.90747 -9.6524 -14.1482
1137 -8.96163 -9.0371 -13.3615
1057 -8.92509 -10.4832 -13.3708
18455 5.38359 -0.0181662 -9.66487
263 -6.76411 -10.465 -14.1282
264 -7.51045 -9.70798 -14.2012
343 -6.85258 -8.95237 -14.1786
1141 -7.45823 -9.00174 -13.425
267 -5.1788 -10.4508 -14.2195
268 -6.1012 -9.6523 -14.2366
1066 -5.18813 -9.76865 -13.333
1069 -4.49197 -10.5078 -13.4878
272 -4.47543 -9.7052 -14.158
276 -3.02254 -9.78433 -14.1085
1074 -2.2588 -9.72497 -13.4295
446 2.27741 -6.70489 -14.9242
279 -0.76626 -10.4701 -14.0372
280 -1.48741 -9.80695 -14.1114
1078 -0.737081 -9.74213 -13.4188
8450 3.71513 -6.7507 -0.0585624
1157 -1.48041 -8.99698 -13.4061
284 -0.0937511 -9.67676 -14.2663
843 0.75496 -14.9157 -12.6813
1082 0.726825 -9.72007 -13.4585
22427 -5.17901 -0.0359864 -2.29977
283 0.731059 -10.4336 -14.1448
288 1.49529 -9.76278 -14.2045
363 0.720411 -8.96711 -14.1961
145 8.911 -13.5423 -14.9075
292 2.95051 -9.74125 -14.1725
21619 -8.2029 -0.0381474 -3.66114
2423 -6.74041 -14.9196 -9.66752
291 3.7502 -10.422 -14.319
296 4.43312 -9.71123 -14.2305
23243 0.771935 -0.0716076 -0.714583
1097 5.92669 -10.4242 -13.4386
295 5.14902 -10.4408 -14.1624
300 5.96846 -9.67919 -14.1537
375 5.2557 -8.94494 -14.2091
17645 1.55299 -0.0367904 -11.941
686 2.25653 -2.19722 -14.9127
16821 -7.34107 -0.127795 -13.4926
4027 -5.19766 -14.9183 -6.64234
299 6.69646 -10.3813 -14.1927
304 7.46851 -9.72326 -14.1701
1098 6.73064 -9.68035 -13.3195
379 6.74449 -8.98642 -14.1567
1181 7.43554 -8.96497 -13.4982
308 8.956 -9.73723 -14.2495
694 5.27087 -2.24799 -14.9516
1105 8.99238 -10.4337 -13.5356
307 9.75999 -10.4133 -14.2221
5643 0.763465 -14.8266 -3.71056
312 10.4674 -9.70005 -14.2168
387 9.66775 -8.98772 -14.2796
1106 9.68207 -9.72108 -13.4483
22437 -1.46948 -0.0455962 -2.92971
1113 11.8233 -10.4753 -13.3847
316 11.9293 -9.77702 -14.199
1193 11.9489 -9.01531 -13.5192
391 11.2216 -8.99971 -14.2985
93 -10.4306 -13.3287 -14.8428
320 13.3299 -9.78966 -14.1118
244 14.9457 -9.72926 -14.1261
1118 14.1193 -9.7884 -13.396
399 14.2081 -9.01212 -14.1552
323 -14.1976 -8.99175 -14.152
1122 -14.1602 -8.28904 -13.3476
403 -14.1275 -7.56569 -14.1737
1201 -14.9227 -7.49469 -13.4983
328 -13.451 -8.33264 -14.2328
1126 -12.7243 -8.31258 -13.4052
1205 -13.4471 -7.60276 -13.3688
331 -11.2203 -8.89142 -14.1186
332 -11.9209 -8.24979 -14.2018
1209 -11.9855 -7.59603 -13.4465
411 -11.1622 -7.50555 -14.156
1130 -11.1819 -8.21563 -13.3945
336 -10.491 -8.22006 -14.17
415 -9.65675 -7.54682 -14.112
1133 -10.4121 -8.90872 -13.3895
339 -8.21625 -8.93465 -14.1416
340 -8.96497 -8.2579 -14.0536
344 -7.50022 -8.16068 -14.1215
1221 -7.4144 -7.44257 -13.4052
1142 -6.72237 -8.25679 -13.4432
63 8.22586 -14.8841 -14.149
347 -5.24931 -9.01109 -14.0989
348 -5.9784 -8.29257 -14.0994
351 -3.73191 -8.93581 -14.1839
352 -4.53708 -8.22848 -14.1944
431 -3.77976 -7.58687 -14.1414
1149 -4.48682 -8.94014 -13.4182
153 12.0079 -13.4955 -14.9403
590 -3.72432 -3.83549 -14.9293
355 -2.14781 -8.87681 -14.1664
1153 -2.98039 -8.97894 -13.4948
356 -2.94309 -8.24572 -14.1835
435 -2.25859 -7.4157 -14.1248
1154 -2.28351 -8.19002 -13.3493
430 -3.76028 -6.7846 -14.8557
217 5.96486 -11.9291 -14.9124
359 -0.798423 -8.88897 -14.2171
360 -1.51836 -8.14971 -14.1557
1158 -0.729602 -8.24706 -13.4915
1237 -1.53923 -7.5098 -13.4464
439 -0.768026 -7.45225 -14.2112
7229 -4.53124 -14.9271 -1.42393
1161 -0.0123705 -8.93158 -13.4582
364 0.0301466 -8.21425 -14.259
1241 0.0414417 -7.5571 -13.5046
368 1.51621 -8.22388 -14.0545
1162 0.723796 -8.24521 -13.5061
367 2.25358 -8.91428 -14.1581
372 2.93443 -8.15164 -14.1429
447 2.20962 -7.38541 -14.1663
1249 2.93356 -7.4024 -13.4578
218 6.71826 -11.2443 -14.923
371 3.69354 -8.93727 -14.2278
376 4.50139 -8.16234 -14.1916
451 3.69518 -7.48225 -14.1373
1253 4.56913 -7.40976 -13.4645
233 11.9265 -11.9447 -14.9407
380 6.0132 -8.25208 -14.1726
265 -6.00574 -10.4407 -14.8557
361 0.0246414 -8.94182 -14.8892
384 7.39593 -8.21839 -14.1756
7 -12.6617 -14.8355 -14.0977
6421 -7.43369 -14.9103 -2.99521
383 8.18697 -8.9039 -14.1972
388 8.89176 -8.10092 -14.2047
392 10.4501 -8.27642 -14.2998
1186 9.65581 -8.23524 -13.4878
8009 -11.9591 -14.8898 -0.026312
396 11.9323 -8.27341 -14.3044
471 11.2021 -7.5139 -14.2739
395 12.7228 -8.94228 -14.1244
400 13.4836 -8.26419 -14.1402
475 12.7264 -7.50694 -14.2288
1277 13.4548 -7.44608 -13.3851
1194 12.7034 -8.19071 -13.4829
597 -1.50896 -4.40076 -14.8682
324 -14.906 -8.30332 -14.0928
1198 14.1395 -8.20804 -13.4118
479 14.1276 -7.52948 -14.172
8581 -7.46291 -4.46233 -0.0576856
404 -14.7972 -6.68684 -14.1822
408 -13.4496 -6.68981 -14.1787
1202 -14.0897 -6.72645 -13.3961
407 -12.7449 -7.54696 -14.2403
1206 -12.7243 -6.85001 -13.5069
7273 11.9261 -14.8976 -1.48597
412 -11.9312 -6.78878 -14.2088
491 -11.2294 -6.05993 -14.1905
1289 -11.9499 -6.00991 -13.4777
416 -10.4221 -6.78818 -14.1698
495 -9.73193 -5.86496 -14.1045
1213 -10.4341 -7.57076 -13.4328
1214 -9.77825 -6.77054 -13.3694
419 -8.19897 -7.34999 -14.1421
420 -9.0095 -6.69616 -14.0408
499 -8.28606 -5.91674 -14.0934
1217 -8.91407 -7.42665 -13.3898
1218 -8.17512 -6.69628 -13.4109
1297 -8.96165 -5.90235 -13.3575
413 -10.4568 -7.45482 -14.9212
423 -6.71589 -7.51109 -14.2125
238 14.1891 -11.2774 -14.868
424 -7.45713 -6.74841 -14.1097
1222 -6.72336 -6.68515 -13.4066
50 3.76231 -14.1992 -14.8955
427 -5.2852 -7.40596 -14.1626
428 -5.97267 -6.7028 -14.1837
1225 -6.00407 -7.50737 -13.4798
1226 -5.26908 -6.68159 -13.4378
23239 -0.706881 -0.0265379 -0.869836
432 -4.44948 -6.76692 -14.1424
1229 -4.48698 -7.51381 -13.3544
1230 -3.77643 -6.68094 -13.4123
1309 -4.43066 -5.95897 -13.3338
436 -3.09157 -6.7531 -14.1375
515 -2.26846 -5.94906 -14.0994
1233 -2.96408 -7.46723 -13.3735
1234 -2.26567 -6.75132 -13.3943
417 -9.07864 -7.46372 -14.905
440 -1.54335 -6.72071 -14.1183
444 0.0149756 -6.79282 -14.1925
443 0.814292 -7.49786 -14.1321
1245 1.54057 -7.52054 -13.3105
448 1.43289 -6.74701 -14.1826
23229 -4.46445 -0.039972 -1.48348
452 3.02525 -6.69925 -14.2054
1246 2.21721 -6.73309 -13.3775
527 2.18826 -6.0195 -14.1608
1329 2.94002 -6.03744 -13.3968
456 4.45865 -6.66284 -14.1139
531 3.72795 -6.01659 -14.224
1333 4.47895 -5.93945 -13.4249
630 11.2587 -3.74627 -14.8707
594 -2.33615 -3.74074 -14.9232
455 5.29591 -7.3812 -14.1628
460 6.04573 -6.64029 -14.1964
535 5.29515 -5.89593 -14.233
459 6.68718 -7.5047 -14.2249
464 7.50618 -6.74136 -14.2349
21613 -10.5312 -0.0640531 -4.51175
463 8.19748 -7.46049 -14.2411
468 8.9175 -6.77172 -14.2947
474 12.7829 -6.76689 -14.9044
467 9.64781 -7.52609 -14.1849
472 10.4327 -6.81483 -14.3055
450 3.77075 -6.73821 -14.9087
476 11.9583 -6.75863 -14.2161
1273 12.009 -7.47829 -13.5325
837 -1.51399 -14.9402 -13.5827
480 13.512 -6.75952 -14.1322
555 12.7549 -6.00509 -14.1903
1357 13.5015 -5.99587 -13.4605
23211 -11.1908 -0.119012 -0.771436
1278 14.2767 -6.71581 -13.4808
559 14.3899 -5.95269 -14.1854
483 -14.1814 -5.88363 -14.1831
1282 -14.118 -5.19394 -13.3841
487 -12.8165 -5.93254 -14.1402
488 -13.464 -5.15011 -14.0955
567 -12.7192 -4.44762 -14.1601
1285 -13.4106 -6.01376 -13.3556
1286 -12.6651 -5.20743 -13.4442
302 8.21227 -9.72426 -14.9208
492 -11.9905 -5.25053 -14.2005
571 -11.2515 -4.54339 -14.2041
1369 -11.9807 -4.38984 -13.412
496 -10.5012 -5.29819 -14.23
1373 -10.4131 -4.44466 -13.4537
1294 -9.76639 -5.21104 -13.3715
8394 12.7759 -8.24076 -0.047255
500 -8.94958 -5.25019 -14.1053
23215 -9.64946 0.000481314 -0.678203
349 -4.51071 -9.00395 -14.8916
1301 -7.37807 -5.94112 -13.4171
503 -6.75312 -5.96588 -14.18
504 -7.36302 -5.19609 -14.2027
583 -6.76549 -4.41516 -14.2075
1302 -6.73491 -5.17796 -13.416
241 -14.9057 -10.4815 -14.8929
507 -5.20401 -5.97921 -14.2199
508 -5.95996 -5.21049 -14.162
511 -3.77218 -5.98074 -14.1565
512 -4.53991 -5.18465 -14.1449
516 -3.05486 -5.22379 -14.1666
1313 -3.02085 -6.01222 -13.3749
1314 -2.38791 -5.22412 -13.3738
519 -0.79188 -6.0156 -14.053
520 -1.55176 -5.24028 -14.0986
599 -0.716369 -4.47572 -14.1798
1317 -1.6145 -5.96779 -13.3395
16845 1.49464 -0.0247541 -13.5085
524 0.043732 -5.258 -14.158
523 0.692047 -6.03823 -14.1554
528 1.47304 -5.24634 -14.1718
109 -4.47799 -13.3901 -14.8731
532 3.07663 -5.16328 -14.1319
607 2.26055 -4.49232 -14.0919
1326 2.20637 -5.20321 -13.4037
536 4.48264 -5.25887 -14.1951
611 3.82072 -4.50366 -14.1551
1330 3.77447 -5.12357 -13.3506
5617 -9.01042 -14.9235 -4.46939
3 -14.3069 -14.8857 -14.1386
540 6.01492 -5.23372 -14.2102
1417 6.00016 -4.50482 -13.4607
1334 5.2375 -5.17168 -13.5527
539 6.76802 -5.99946 -14.1694
1341 7.51486 -5.97414 -13.558
544 7.46922 -5.1822 -14.2489
1338 6.69771 -5.19314 -13.4754
22475 12.701 -0.0148972 -2.19063
1345 9.03878 -5.98117 -13.4624
543 8.23283 -6.0025 -14.2377
548 8.93472 -5.13542 -14.223
202 0.677069 -11.1026 -14.9196
1641 -0.0379933 -14.8517 -12.0293
547 9.75914 -6.00819 -14.1771
552 10.5771 -5.24253 -14.1935
1346 9.71037 -5.14932 -13.5137
158 14.1563 -12.6947 -14.8881
551 11.2643 -5.97809 -14.2269
556 11.8977 -5.21022 -14.1662
1350 11.2047 -5.2476 -13.4318
325 -13.461 -9.01694 -14.9389
16841 0.021376 -0.0166299 -13.4802
560 13.5153 -5.17778 -14.2506
484 14.9033 -5.16446 -14.291
317 13.4816 -10.5166 -14.9316
563 -14.1664 -4.44542 -14.1689
23257 6.03614 -0.0344057 -1.57564
1362 -14.0919 -3.63424 -13.4923
24065 9.07998 -0.0303547 -0.00071768
1365 -13.3835 -4.4738 -13.3626
568 -13.3766 -3.61778 -14.1591
1445 -13.4344 -2.88876 -13.4954
572 -11.9608 -3.77899 -14.1905
1370 -11.1272 -3.81314 -13.4405
1449 -11.8778 -3.02562 -13.5275
575 -9.71778 -4.58201 -14.0919
576 -10.4817 -3.77298 -14.2843
579 -8.235 -4.53761 -14.0904
580 -8.9697 -3.83326 -14.1494
1609 -12.1026 -14.9121 -11.9089
1377 -8.96648 -4.50223 -13.335
1378 -8.25295 -3.82016 -13.4117
584 -7.51677 -3.71913 -14.1345
1382 -6.68833 -3.77469 -13.4692
587 -5.23084 -4.44133 -14.2565
588 -5.97119 -3.69046 -14.1702
667 -5.13174 -2.98068 -14.1652
591 -3.78545 -4.5007 -14.0908
592 -4.4613 -3.7683 -14.1492
595 -2.25723 -4.46913 -14.1359
1393 -2.98036 -4.41284 -13.353
596 -3.05493 -3.75625 -14.1363
1394 -2.21664 -3.71219 -13.3096
675 -2.278 -2.98661 -14.105
1651 3.77661 -14.9362 -11.2896
600 -1.5633 -3.7362 -14.1414
1398 -0.684528 -3.69445 -13.4303
1477 -1.50055 -3.03102 -13.3762
603 0.768178 -4.54718 -14.306
604 0.054997 -3.75049 -14.2066
434 -2.35376 -6.66247 -14.7766
1405 1.42406 -4.52768 -13.5606
608 1.51634 -3.66248 -14.1665
1402 0.777174 -3.69453 -13.5021
19233 -3.01815 -0.0622149 -9.01023
612 2.93888 -3.74665 -14.1523
1406 2.28667 -3.74787 -13.3963
1489 3.03993 -3.07621 -13.4105
616 4.57592 -3.7662 -14.2058
1410 3.86952 -3.78274 -13.4454
421 -7.47601 -7.41841 -14.9054
615 5.42005 -4.49011 -14.2545
620 5.9986 -3.7058 -14.2694
619 6.68464 -4.46372 -14.2432
624 7.45489 -3.75096 -14.1463
699 6.70141 -2.98858 -14.2357
3237 -1.46061 -14.9237 -8.99912
21621 -7.45052 -0.0190544 -4.50068
623 8.13275 -4.44668 -14.2454
628 8.95561 -3.82301 -14.3421
21667 9.64585 -0.0361385 -3.80254
1505 9.02992 -2.97348 -13.4009
8385 8.96661 -9.01299 -0.141833
627 9.76229 -4.47214 -14.2363
632 10.4534 -3.79494 -14.1566
1426 9.75331 -3.72684 -13.4567
8022 -6.73427 -14.2248 -0.0649607
5609 -11.988 -14.8895 -4.53467
631 11.3029 -4.4826 -14.1155
636 11.9913 -3.7104 -14.1756
518 -0.747266 -5.21047 -14.8673
635 12.7247 -4.52734 -14.1661
640 13.418 -3.68101 -14.2429
20013 -10.4257 -0.0441255 -7.37988
715 12.7515 -2.91801 -14.2154
274 -2.3036 -9.78964 -14.8709
1434 12.728 -3.74738 -13.4108
753 -3.01646 -1.46401 -14.8862
1361 -14.9027 -4.41124 -13.5219
639 14.2031 -4.3829 -14.2008
564 -14.8461 -3.66508 -14.1523
18431 -3.77641 -0.0275355 -9.71239
405 -13.4531 -7.56386 -14.9307
643 -14.1649 -2.9374 -14.222
723 -14.247 -1.49579 -14.1713
22449 3.00635 -0.0376536 -2.95829
647 -12.6522 -2.9216 -14.1944
648 -13.4917 -2.18608 -14.2373
727 -12.725 -1.49886 -14.1573
1525 -13.4566 -1.46734 -13.4923
1446 -12.7102 -2.26793 -13.5051
651 -11.2156 -3.07808 -14.2061
652 -11.7953 -2.19998 -14.1547
731 -11.1683 -1.46362 -14.1981
1450 -11.1579 -2.26679 -13.3717
655 -9.62735 -3.03367 -14.2118
656 -10.4436 -2.31829 -14.135
1533 -10.3856 -1.4786 -13.4532
1453 -10.3399 -2.96869 -13.421
497 -8.90943 -5.97684 -14.9077
659 -8.2679 -3.07466 -14.1671
660 -8.98469 -2.25506 -14.2673
1457 -8.88327 -2.94966 -13.4337
1458 -8.22206 -2.23861 -13.5018
663 -6.84669 -3.01741 -14.2385
664 -7.45069 -2.24699 -14.1298
743 -6.66236 -1.62081 -14.205
18419 -8.1933 -0.1123 -9.61499
1461 -7.47077 -3.02498 -13.4058
20017 -9.04538 -0.0282236 -7.37019
668 -5.91961 -2.23606 -14.2586
747 -5.19094 -1.4385 -14.2546
2465 8.96624 -14.8484 -10.5144
4875 12.684 -14.9092 -5.21906
4015 -9.68783 -14.8836 -6.66447
671 -3.79621 -2.99497 -14.1203
1469 -4.47199 -3.01061 -13.3751
672 -4.47519 -2.20489 -14.2191
751 -3.77454 -1.43709 -14.1714
334 -9.72546 -8.17638 -14.9085
676 -3.02615 -2.27101 -14.1623
1474 -2.22418 -2.33308 -13.3848
362 0.83242 -8.19563 -14.9057
679 -0.797178 -2.91432 -14.1697
680 -1.53007 -2.31127 -14.1304
1478 -0.794694 -2.24495 -13.3912
759 -0.779625 -1.58751 -14.1423
684 -0.0611587 -2.31085 -14.1413
683 0.81838 -2.92746 -14.1572
688 1.57696 -2.18302 -14.1567
763 0.793889 -1.60877 -14.1649
1482 0.774244 -2.26304 -13.422
22429 -4.47855 0.00850521 -3.00485
687 2.2974 -2.91655 -14.1755
692 3.09209 -2.28608 -14.197
767 2.33699 -1.53089 -14.19
1486 2.28564 -2.25714 -13.3773
691 3.67819 -3.10101 -14.1766
696 4.50389 -2.30895 -14.1992
771 3.77521 -1.46698 -14.2319
1573 4.52747 -1.48945 -13.4983
695 5.27413 -2.9891 -14.27
700 6.03547 -2.25374 -14.2402
704 7.39929 -2.30105 -14.259
779 6.79722 -1.47867 -14.2651
8746 -5.23509 -0.695097 -0.0281835
1669 10.4495 -14.9216 -11.9921
703 8.2448 -2.9869 -14.2573
708 8.94506 -2.17219 -14.2255
253 -10.4013 -10.4705 -14.9267
346 -5.35673 -8.24652 -14.8838
707 9.7492 -3.01121 -14.213
712 10.4387 -2.27285 -14.2516
1506 9.80978 -2.20483 -13.4613
1589 10.4752 -1.39295 -13.4636
16875 12.7054 -0.0613132 -12.6792
711 11.1936 -2.98738 -14.2044
716 11.9021 -2.18708 -14.2038
791 11.1402 -1.44618 -14.2577
1593 12.002 -1.51767 -13.4458
449 2.99944 -7.4142 -14.8368
720 13.4897 -2.23599 -14.1826
795 12.7132 -1.5117 -14.2652
1517 13.4458 -2.92466 -13.4513
426 -5.24602 -6.76729 -14.9264
719 14.204 -2.99704 -14.0654
644 -14.9132 -2.21174 -14.2633
799 14.2413 -1.45303 -14.2313
6449 2.97145 -14.9109 -3.01597
16827 -5.23077 -0.0210697 -12.6767
21627 -5.18384 -0.00555954 -3.66438
101 -7.46671 -13.4159 -14.8755
409 -11.882 -7.45557 -14.9118
724 -14.9083 -0.810121 -14.1024
1522 -14.1231 -0.718036 -13.4532
16023 -6.65648 -0.0102515 -14.1855
728 -13.3727 -0.694101 -14.1973
1526 -12.6585 -0.726641 -13.4025
2455 5.15417 -14.934 -9.717
732 -11.8861 -0.734014 -14.1667
1530 -11.2136 -0.692246 -13.439
1529 -11.938 -1.49392 -13.4963
20031 -3.72455 -0.0421196 -6.7711
20059 6.79056 -0.0499343 -6.71065
735 -9.73592 -1.44372 -14.2497
736 -10.4362 -0.751384 -14.1753
5659 6.67409 -14.9118 -3.67877
7995 12.749 -1.47659 -0.552519
739 -8.2181 -1.43633 -14.2028
740 -9.0179 -0.73085 -14.154
1538 -8.16404 -0.768026 -13.4304
16051 3.75151 -0.0293045 -14.2314
807 -12.7837 -14.8713 -12.6228
744 -7.44396 -0.764567 -14.2023
1545 -5.81798 -1.54159 -13.421
748 -5.98038 -0.813029 -14.1917
433 -2.98462 -7.53892 -14.841
369 3.02777 -8.86455 -14.9029
177 -8.96728 -11.9928 -14.874
752 -4.55962 -0.725231 -14.2729
78 14.2052 -14.2187 -14.9273
755 -2.28373 -1.59969 -14.2226
756 -2.96117 -0.725808 -14.1643
1554 -2.27522 -0.799694 -13.4139
24005 -13.4066 0.0036587 0.00596673
8000 13.3164 -0.713449 -0.63248
6415 -9.68993 -14.837 -2.16564
760 -1.58437 -0.742879 -14.1484
273 -3.00431 -10.4801 -14.8522
764 0.0893373 -0.713413 -14.1961
366 2.23665 -8.15472 -14.852
725 -13.4363 -1.44676 -14.8881
839 -0.744774 -14.9144 -12.7453
1562 0.737004 -0.782688 -13.4094
768 1.46258 -0.808229 -14.0875
6471 11.1363 -14.9111 -2.23468
5657 5.93011 -14.9571 -4.46412
16847 2.16865 -0.0149578 -12.7046
772 3.02113 -0.731851 -14.2936
1569 3.05171 -1.49032 -13.375
1566 2.26888 -0.737329 -13.5085
21611 -11.2922 -0.0855088 -3.80474
776 4.4955 -0.656625 -14.2836
321 -14.8941 -9.02359 -14.8882
775 5.2306 -1.53482 -14.1952
780 6.04909 -0.745878 -14.1988
1577 5.99132 -1.49087 -13.4911
1574 5.09583 -0.736568 -13.5258
7993 11.9827 -1.41144 -1.42496
784 7.53492 -0.775973 -14.1236
1578 6.67839 -0.805786 -13.4055
783 8.23815 -1.54256 -14.2401
1585 8.98953 -1.49359 -13.4154
788 9.01537 -0.700693 -14.2053
17669 10.4487 -0.0298785 -11.9363
22 -6.78588 -14.1801 -14.8861
787 9.68512 -1.44923 -14.1781
792 10.4601 -0.729796 -14.2307
22401 -14.9176 -0.0396194 -2.9739
4859 6.67225 -14.8811 -5.26669
796 11.986 -0.720966 -14.1239
246 -12.6968 -9.7292 -14.8878
841 0.0643528 -14.9126 -13.4377
23221 -7.4417 -0.0523003 -1.5062
8729 -11.892 -1.4868 -0.0285341
800 13.3856 -0.629869 -14.3049
609 3.03862 -4.46867 -14.8656
4877 13.4514 -14.9182 -6.04071
1602 -14.1647 -14.2681 -11.9191
18465 8.97063 -0.0222175 -10.6068
808 -13.5016 -14.1251 -12.7098
887 -12.6705 -13.3799 -12.5837
1606 -12.7028 -14.1077 -11.9177
885 -13.3662 -13.3906 -13.3405
1685 -13.4449 -13.4227 -11.9015
810 -11.2208 -14.1828 -13.3606
812 -11.9688 -14.2452 -12.6219
1610 -11.2212 -14.2422 -11.9093
889 -11.978 -13.44 -13.333
891 -11.2364 -13.4944 -12.6069
242 -14.15 -9.7829 -14.9047
816 -10.5357 -14.2409 -12.6445
895 -9.66263 -13.4476 -12.5795
1614 -9.7398 -14.2534 -11.9142
818 -8.3015 -14.2043 -13.4349
820 -8.95222 -14.277 -12.5491
1618 -8.12288 -14.2188 -11.9295
899 -8.27492 -13.4755 -12.8169
824 -7.44268 -14.151 -12.7315
901 -7.45343 -13.4332 -13.4223
903 -6.72192 -13.3292 -12.7205
1701 -7.45241 -13.3888 -11.8963
826 -5.17408 -14.1301 -13.4502
828 -6.0136 -14.169 -12.7135
907 -5.20694 -13.4347 -12.6435
830 -3.79325 -14.2105 -13.4757
832 -4.45847 -14.1858 -12.6231
911 -3.72396 -13.4108 -12.7015
7996 11.9344 -0.722867 -0.56888
913 -3.00114 -13.525 -13.4731
174 -9.73131 -11.2825 -14.856
834 -2.27553 -14.2169 -13.5872
836 -3.00683 -14.2302 -12.7811
20821 -7.52619 -0.0185781 -5.96479
840 -1.50697 -14.2314 -12.6472
919 -0.780525 -13.5187 -12.6468
4841 -0.0476439 -14.9149 -5.99469
844 0.0226653 -14.1437 -12.7278
658 -8.24826 -2.29476 -14.9243
17675 12.5988 -0.0571207 -11.1929
848 1.51529 -14.2334 -12.7522
1642 0.793069 -14.153 -12.0178
923 0.757012 -13.4716 -12.7325
925 1.53795 -13.4407 -13.4857
1725 1.51077 -13.4127 -12.0328
852 2.98941 -14.2004 -12.7375
1646 2.14704 -14.2063 -11.9996
850 3.71451 -14.3446 -13.4533
856 4.46379 -14.2955 -12.6586
933 4.40393 -13.5603 -13.3731
7231 -3.78428 -14.8817 -0.739028
505 -6.033 -5.92698 -14.8565
937 5.89809 -13.5103 -13.3805
854 5.14574 -14.227 -13.4055
860 5.98881 -14.1968 -12.6635
1654 5.24271 -14.2284 -11.9939
1737 5.94585 -13.4077 -11.9499
7987 9.75844 -1.4565 -0.675023
4043 0.720614 -14.9132 -6.75836
858 6.63112 -14.2729 -13.4755
864 7.43236 -14.236 -12.7514
868 9.0239 -14.1864 -12.6956
1662 8.1719 -14.2315 -11.937
22405 -13.4534 -0.0105485 -2.97036
24041 -0.0451718 -0.0379122 -0.0540532
866 9.81832 -14.2588 -13.4931
872 10.5105 -14.234 -12.7528
1666 9.68099 -14.1342 -11.9067
949 10.5064 -13.468 -13.4682
1749 10.4257 -13.5032 -11.9967
585 -5.98103 -4.48501 -14.8841
318 14.2166 -9.75219 -14.8471
681 0.00122355 -2.95847 -14.8417
876 11.8727 -14.0939 -12.7381
951 11.1952 -13.3864 -12.6922
1670 11.2082 -14.2998 -12.0251
1753 11.8466 -13.4316 -11.859
880 13.4544 -14.1964 -12.6399
1674 12.6742 -14.1707 -11.896
804 14.9072 -14.2247 -12.6278
959 14.1798 -13.4346 -12.6246
1681 14.8777 -13.4229 -11.9441
1678 14.1263 -14.2111 -11.9672
883 -14.2511 -13.3969 -12.5978
1682 -14.2192 -12.6939 -11.9074
888 -13.4638 -12.6839 -12.585
886 -12.6759 -12.6639 -13.372
1686 -12.6824 -12.6819 -11.8965
969 -11.9307 -11.9617 -13.4119
892 -11.9025 -12.6854 -12.6564
1690 -11.1704 -12.7362 -11.883
1689 -11.952 -13.4323 -11.9364
971 -11.2883 -11.9449 -12.667
894 -9.64808 -12.6818 -13.3393
896 -10.4442 -12.7515 -12.6156
975 -9.63185 -11.9321 -12.6296
1773 -10.5111 -11.9919 -11.8464
900 -8.92345 -12.7096 -12.6805
1777 -8.91958 -11.8657 -11.9617
1697 -8.93259 -13.4807 -11.959
904 -7.55295 -12.7793 -12.706
983 -6.66923 -12.0335 -12.6197
1702 -6.64852 -12.6836 -11.8173
908 -5.97407 -12.7399 -12.6864
1705 -5.98691 -13.4531 -11.8532
1706 -5.26814 -12.7298 -11.88
987 -5.19158 -11.9587 -12.6321
1785 -5.89837 -11.9368 -11.8934
910 -3.75906 -12.8053 -13.5057
912 -4.52658 -12.7134 -12.6367
991 -3.61915 -12.0778 -12.7419
914 -2.2008 -12.7309 -13.4533
915 -2.2165 -13.4713 -12.7953
916 -2.94223 -12.7781 -12.7358
995 -2.17527 -11.9166 -12.5872
917 -1.48095 -13.5834 -13.4658
920 -1.56036 -12.697 -12.6399
921 0.00993715 -13.4489 -13.4489
1721 0.0316614 -13.452 -11.9877
924 -0.0797251 -12.7301 -12.6635
1003 0.779325 -12.0123 -12.7372
928 1.46818 -12.7088 -12.8447
1805 1.54679 -11.9861 -11.9302
926 2.39352 -12.7414 -13.6111
929 3.06113 -13.5556 -13.5245
927 2.28928 -13.429 -12.814
932 3.00516 -12.7299 -12.8099
1009 2.99516 -11.9368 -13.4716
1809 2.92358 -11.9828 -12.0599
931 3.7752 -13.4644 -12.7243
936 4.40643 -12.6868 -12.7366
1730 3.58453 -12.634 -11.9825
934 5.16296 -12.7353 -13.394
1017 5.99273 -11.9742 -13.4873
935 5.25469 -13.5057 -12.6566
940 5.98126 -12.7132 -12.691
1817 5.96879 -11.9806 -11.9918
938 6.7088 -12.7478 -13.3595
1741 7.48431 -13.4731 -11.9063
939 6.72774 -13.4936 -12.6563
944 7.48658 -12.7646 -12.7049
942 8.12793 -12.7814 -13.4952
945 8.92881 -13.4793 -13.4197
943 8.23566 -13.4269 -12.6424
948 8.9593 -12.7952 -12.7052
1023 8.21126 -11.9347 -12.6751
1745 8.89979 -13.4933 -11.9289
947 9.77037 -13.4798 -12.8009
952 10.4042 -12.7132 -12.7252
1027 9.67389 -12.0092 -12.6967
950 11.1556 -12.7269 -13.5012
956 11.9509 -12.7229 -12.6197
1031 11.1786 -12.0248 -12.7285
1033 11.9009 -11.9698 -13.4959
1750 11.1619 -12.7315 -11.933
955 12.713 -13.4473 -12.6925
954 12.6387 -12.6414 -13.5303
960 13.3261 -12.6326 -12.7172
1754 12.6762 -12.6458 -11.9223
1035 12.6331 -12.0023 -12.746
884 14.8459 -12.7172 -12.7006
962 -14.1379 -11.1968 -13.3831
963 -14.2327 -11.9784 -12.6194
1043 -14.2174 -10.4496 -12.6605
968 -13.4605 -11.1333 -12.6448
1045 -13.478 -10.4441 -13.3874
966 -12.6844 -11.2515 -13.4237
967 -12.6838 -11.9841 -12.614