ITEM: TIMESTEP
0
ITEM: NUMBER OF ATOMS
32000
ITEM: BOX BOUNDS pp pp pp
-1.4938015821857215e+01 1.4938015821857215e+01
-1.4938015821857215e+01 1.4938015821857215e+01
-1.4938015821857215e+01 1.4938015821857215e+01
ITEM: ATOMS id x y z
1 -14.938 -14.938 -14.938
2 -14.1911 -14.1911 -14.938
3 -14.1911 -14.938 -14.1911
4 -14.938 -14.1911 -14.1911
81 -14.938 -13.4442 -14.938
83 -14.1911 -13.4442 -14.1911
801 -14.938 -14.938 -13.4442
802 -14.1911 -14.1911 -13.4442
881 -14.938 -13.4442 -13.4442
5 -13.4442 -14.938 -14.938
6 -12.6973 -14.1911 -14.938
7 -12.6973 -14.938 -14.1911
8 -13.4442 -14.1911 -14.1911
85 -13.4442 -13.4442 -14.938
87 -12.6973 -13.4442 -14.1911
805 -13.4442 -14.938 -13.4442
806 -12.6973 -14.1911 -13.4442
885 -13.4442 -13.4442 -13.4442
9 -11.9504 -14.938 -14.938
10 -11.2035 -14.1911 -14.938
11 -11.2035 -14.938 -14.1911
12 -11.9504 -14.1911 -14.1911
89 -11.9504 -13.4442 -14.938
91 -11.2035 -13.4442 -14.1911
809 -11.9504 -14.938 -13.4442
810 -11.2035 -14.1911 -13.4442
889 -11.9504 -13.4442 -13.4442
13 -10.4566 -14.938 -14.938
14 -9.70971 -14.1911 -14.938
15 -9.70971 -14.938 -14.1911
16 -10.4566 -14.1911 -14.1911
93 -10.4566 -13.4442 -14.938
95 -9.70971 -13.4442 -14.1911
813 -10.4566 -14.938 -13.4442
814 -9.70971 -14.1911 -13.4442
893 -10.4566 -13.4442 -13.4442
17 -8.96281 -14.938 -14.938
18 -8.21591 -14.1911 -14.938
19 -8.21591 -14.938 -14.1911
20 -8.96281 -14.1911 -14.1911
97 -8.96281 -13.4442 -14.938
99 -8.21591 -13.4442 -14.1911
817 -8.96281 -14.938 -13.4442
818 -8.21591 -14.1911 -13.4442
897 -8.96281 -13.4442 -13.4442
21 -7.46901 -14.938 -14.938
22 -6.72211 -14.1911 -14.938
23 -6.72211 -14.938 -14.1911
24 -7.46901 -14.1911 -14.1911
101 -7.46901 -13.4442 -14.938
103 -6.72211 -13.4442 -14.1911
821 -7.46901 -14.938 -13.4442
822 -6.72211 -14.1911 -13.4442
901 -7.46901 -13.4442 -13.4442
25 -5.97521 -14.938 -14.938
26 -5.22831 -14.1911 -14.938
27 -5.22831 -14.938 -14.1911
28 -5.97521 -14.1911 -14.1911
105 -5.97521 -13.4442 -14.938
107 -5.22831 -13.4442 -14.1911
825 -5.97521 -14.938 -13.4442
826 -5.22831 -14.1911 -13.4442
905 -5.97521 -13.4442 -13.4442
29 -4.4814 -14.938 -14.938
30 -3.7345 -14.1911 -14.938
31 -3.7345 -14.938 -14.1911
32 -4.4814 -14.1911 -14.1911
109 -4.4814 -13.4442 -14.938
111 -3.7345 -13.4442 -14.1911
829 -4.4814 -14.938 -13.4442
830 -3.7345 -14.1911 -13.4442
909 -4.4814 -13.4442 -13.4442
33 -2.9876 -14.938 -14.938
34 -2.2407 -14.1911 -14.938
35 -2.2407 -14.938 -14.1911
36 -2.9876 -14.1911 -14.1911
113 -2.9876 -13.4442 -14.938
115 -2.2407 -13.4442 -14.1911
833 -2.9876 -14.938 -13.4442
834 -2.2407 -14.1911 -13.4442
913 -2.9876 -13.4442 -13.4442
37 -1.4938 -14.938 -14.938
38 -0.746901 -14.1911 -14.938
39 -0.746901 -14.938 -14.1911
40 -1.4938 -14.1911 -14.1911
117 -1.4938 -13.4442 -14.938
119 -0.746901 -13.4442 -14.1911
837 -1.4938 -14.938 -13.4442
838 -0.746901 -14.1911 -13.4442
917 -1.4938 -13.4442 -13.4442
41 0 -14.938 -14.938
44 0 -14.1911 -14.1911
121 0 -13.4442 -14.938
841 0 -14.938 -13.4442
921 0 -13.4442 -13.4442
42 0.746901 -14.1911 -14.938
43 0.746901 -14.938 -14.1911
45 1.4938 -14.938 -14.938
48 1.4938 -14.1911 -14.1911
123 0.746901 -13.4442 -14.1911
125 1.4938 -13.4442 -14.938
842 0.746901 -14.1911 -13.4442
845 1.4938 -14.938 -13.4442
925 1.4938 -13.4442 -13.4442
46 2.2407 -14.1911 -14.938
47 2.2407 -14.938 -14.1911
49 2.9876 -14.938 -14.938
52 2.9876 -14.1911 -14.1911
127 2.2407 -13.4442 -14.1911
129 2.9876 -13.4442 -14.938
846 2.2407 -14.1911 -13.4442
849 2.9876 -14.938 -13.4442
929 2.9876 -13.4442 -13.4442
50 3.7345 -14.1911 -14.938
51 3.7345 -14.938 -14.1911
53 4.4814 -14.938 -14.938
56 4.4814 -14.1911 -14.1911
131 3.7345 -13.4442 -14.1911
133 4.4814 -13.4442 -14.938
850 3.7345 -14.1911 -13.4442
853 4.4814 -14.938 -13.4442
933 4.4814 -13.4442 -13.4442
54 5.22831 -14.1911 -14.938
55 5.22831 -14.938 -14.1911
57 5.97521 -14.938 -14.938
60 5.97521 -14.1911 -14.1911
135 5.22831 -13.4442 -14.1911
137 5.97521 -13.4442 -14.938
854 5.22831 -14.1911 -13.4442
857 5.97521 -14.938 -13.4442
937 5.97521 -13.4442 -13.4442
58 6.72211 -14.1911 -14.938
59 6.72211 -14.938 -14.1911
61 7.46901 -14.938 -14.938
64 7.46901 -14.1911 -14.1911
139 6.72211 -13.4442 -14.1911
141 7.46901 -13.4442 -14.938
858 6.72211 -14.1911 -13.4442
861 7.46901 -14.938 -13.4442
941 7.46901 -13.4442 -13.4442
62 8.21591 -14.1911 -14.938
63 8.21591 -14.938 -14.1911
65 8.96281 -14.938 -14.938
68 8.96281 -14.1911 -14.1911
143 8.21591 -13.4442 -14.1911
145 8.96281 -13.4442 -14.938
862 8.21591 -14.1911 -13.4442
865 8.96281 -14.938 -13.4442
945 8.96281 -13.4442 -13.4442
66 9.70971 -14.1911 -14.938
67 9.70971 -14.938 -14.1911
69 10.4566 -14.938 -14.938
72 10.4566 -14.1911 -14.1911
147 9.70971 -13.4442 -14.1911
149 10.4566 -13.4442 -14.938
866 9.70971 -14.1911 -13.4442
869 10.4566 -14.938 -13.4442
949 10.4566 -13.4442 -13.4442
70 11.2035 -14.1911 -14.938
71 11.2035 -14.938 -14.1911
73 11.9504 -14.938 -14.938
76 11.9504 -14.1911 -14.1911
151 11.2035 -13.4442 -14.1911
153 11.9504 -13.4442 -14.938
870 11.2035 -14.1911 -13.4442
873 11.9504 -14.938 -13.4442
953 11.9504 -13.4442 -13.4442
74 12.6973 -14.1911 -14.938
75 12.6973 -14.938 -14.1911
77 13.4442 -14.938 -14.938
80 13.4442 -14.1911 -14.1911
155 12.6973 -13.4442 -14.1911
157 13.4442 -13.4442 -14.938
874 12.6973 -14.1911 -13.4442
877 13.4442 -14.938 -13.4442
957 13.4442 -13.4442 -13.4442
78 14.1911 -14.1911 -14.938
79 14.1911 -14.938 -14.1911
159 14.1911 -13.4442 -14.1911
878 14.1911 -14.1911 -13.4442
82 -14.1911 -12.6973 -14.938
84 -14.938 -12.6973 -14.1911
161 -14.938 -11.9504 -14.938
163 -14.1911 -11.9504 -14.1911
882 -14.1911 -12.6973 -13.4442
961 -14.938 -11.9504 -13.4442
86 -12.6973 -12.6973 -14.938
88 -13.4442 -12.6973 -14.1911
165 -13.4442 -11.9504 -14.938
167 -12.6973 -11.9504 -14.1911
886 -12.6973 -12.6973 -13.4442
965 -13.4442 -11.9504 -13.4442
90 -11.2035 -12.6973 -14.938
92 -11.9504 -12.6973 -14.1911
169 -11.9504 -11.9504 -14.938
171 -11.2035 -11.9504 -14.1911
890 -11.2035 -12.6973 -13.4442
969 -11.9504 -11.9504 -13.4442
94 -9.70971 -12.6973 -14.938
96 -10.4566 -12.6973 -14.1911
173 -10.4566 -11.9504 -14.938
175 -9.70971 -11.9504 -14.1911
894 -9.70971 -12.6973 -13.4442
973 -10.4566 -11.9504 -13.4442
98 -8.21591 -12.6973 -14.938
100 -8.96281 -12.6973 -14.1911
177 -8.96281 -11.9504 -14.938
179 -8.21591 -11.9504 -14.1911
898 -8.21591 -12.6973 -13.4442
977 -8.96281 -11.9504 -13.4442
102 -6.72211 -12.6973 -14.938
104 -7.46901 -12.6973 -14.1911
181 -7.46901 -11.9504 -14.938
183 -6.72211 -11.9504 -14.1911
902 -6.72211 -12.6973 -13.4442
981 -7.46901 -11.9504 -13.4442
106 -5.22831 -12.6973 -14.938
108 -5.97521 -12.6973 -14.1911
185 -5.97521 -11.9504 -14.938
187 -5.22831 -11.9504 -14.1911
906 -5.22831 -12.6973 -13.4442
985 -5.97521 -11.9504 -13.4442
110 -3.7345 -12.6973 -14.938
112 -4.4814 -12.6973 -14.1911
189 -4.4814 -11.9504 -14.938
191 -3.7345 -11.9504 -14.1911
910 -3.7345 -12.6973 -13.4442
989 -4.4814 -11.9504 -13.4442
114 -2.2407 -12.6973 -14.938
116 -2.9876 -12.6973 -14.1911
193 -2.9876 -11.9504 -14.938
195 -2.2407 -11.9504 -14.1911
914 -2.2407 -12.6973 -13.4442
993 -2.9876 -11.9504 -13.4442
118 -0.746901 -12.6973 -14.938
120 -1.4938 -12.6973 -14.1911
197 -1.4938 -11.9504 -14.938
199 -0.746901 -11.9504 -14.1911
918 -0.746901 -12.6973 -13.4442
997 -1.4938 -11.9504 -13.4442
124 0 -12.6973 -14.1911
201 0 -11.9504 -14.938
1001 0 -11.9504 -13.4442
122 0.746901 -12.6973 -14.938
128 1.4938 -12.6973 -14.1911
203 0.746901 -11.9504 -14.1911
205 1.4938 -11.9504 -14.938
922 0.746901 -12.6973 -13.4442
1005 1.4938 -11.9504 -13.4442
126 2.2407 -12.6973 -14.938
132 2.9876 -12.6973 -14.1911
207 2.2407 -11.9504 -14.1911
209 2.9876 -11.9504 -14.938
926 2.2407 -12.6973 -13.4442
1009 2.9876 -11.9504 -13.4442
130 3.7345 -12.6973 -14.938
136 4.4814 -12.6973 -14.1911
211 3.7345 -11.9504 -14.1911
213 4.4814 -11.9504 -14.938
930 3.7345 -12.6973 -13.4442
1013 4.4814 -11.9504 -13.4442
134 5.22831 -12.6973 -14.938
140 5.97521 -12.6973 -14.1911
215 5.22831 -11.9504 -14.1911
217 5.97521 -11.9504 -14.938
934 5.22831 -12.6973 -13.4442
1017 5.97521 -11.9504 -13.4442
138 6.72211 -12.6973 -14.938
144 7.46901 -12.6973 -14.1911
219 6.72211 -11.9504 -14.1911
221 7.46901 -11.9504 -14.938
938 6.72211 -12.6973 -13.4442
1021 7.46901 -11.9504 -13.4442
142 8.21591 -12.6973 -14.938
148 8.96281 -12.6973 -14.1911
223 8.21591 -11.9504 -14.1911
225 8.96281 -11.9504 -14.938
942 8.21591 -12.6973 -13.4442
1025 8.96281 -11.9504 -13.4442
146 9.70971 -12.6973 -14.938
152 10.4566 -12.6973 -14.1911
227 9.70971 -11.9504 -14.1911
229 10.4566 -11.9504 -14.938
946 9.70971 -12.6973 -13.4442
1029 10.4566 -11.9504 -13.4442
150 11.2035 -12.6973 -14.938
156 11.9504 -12.6973 -14.1911
231 11.2035 -11.9504 -14.1911
233 11.9504 -11.9504 -14.938
950 11.2035 -12.6973 -13.4442
1033 11.9504 -11.9504 -13.4442
154 12.6973 -12.6973 -14.938
160 13.4442 -12.6973 -14.1911
235 12.6973 -11.9504 -14.1911
237 13.4442 -11.9504 -14.938
954 12.6973 -12.6973 -13.4442
1037 13.4442 -11.9504 -13.4442
158 14.1911 -12.6973 -14.938
239 14.1911 -11.9504 -14.1911
958 14.1911 -12.6973 -13.4442
162 -14.1911 -11.2035 -14.938
164 -14.938 -11.2035 -14.1911
241 -14.938 -10.4566 -14.938
243 -14.1911 -10.4566 -14.1911
962 -14.1911 -11.2035 -13.4442
1041 -14.938 -10.4566 -13.4442
166 -12.6973 -11.2035 -14.938
168 -13.4442 -11.2035 -14.1911
245 -13.4442 -10.4566 -14.938
247 -12.6973 -10.4566 -14.1911
966 -12.6973 -11.2035 -13.4442
1045 -13.4442 -10.4566 -13.4442
170 -11.2035 -11.2035 -14.938
172 -11.9504 -11.2035 -14.1911
249 -11.9504 -10.4566 -14.938
251 -11.2035 -10.4566 -14.1911
970 -11.2035 -11.2035 -13.4442
1049 -11.9504 -10.4566 -13.4442
174 -9.70971 -11.2035 -14.938
176 -10.4566 -11.2035 -14.1911
253 -10.4566 -10.4566 -14.938
255 -9.70971 -10.4566 -14.1911
974 -9.70971 -11.2035 -13.4442
1053 -10.4566 -10.4566 -13.4442
178 -8.21591 -11.2035 -14.938
180 -8.96281 -11.2035 -14.1911
257 -8.96281 -10.4566 -14.938
259 -8.21591 -10.4566 -14.1911
978 -8.21591 -11.2035 -13.4442
1057 -8.96281 -10.4566 -13.4442
182 -6.72211 -11.2035 -14.938
184 -7.46901 -11.2035 -14.1911
261 -7.46901 -10.4566 -14.938
263 -6.72211 -10.4566 -14.1911
982 -6.72211 -11.2035 -13.4442
1061 -7.46901 -10.4566 -13.4442
186 -5.22831 -11.2035 -14.938
188 -5.97521 -11.2035 -14.1911
265 -5.97521 -10.4566 -14.938
267 -5.22831 -10.4566 -14.1911
986 -5.22831 -11.2035 -13.4442
1065 -5.97521 -10.4566 -13.4442
190 -3.7345 -11.2035 -14.938
192 -4.4814 -11.2035 -14.1911
269 -4.4814 -10.4566 -14.938
271 -3.7345 -10.4566 -14.1911
990 -3.7345 -11.2035 -13.4442
1069 -4.4814 -10.4566 -13.4442
194 -2.2407 -11.2035 -14.938
196 -2.9876 -11.2035 -14.1911
273 -2.9876 -10.4566 -14.938
275 -2.2407 -10.4566 -14.1911
994 -2.2407 -11.2035 -13.4442
1073 -2.9876 -10.4566 -13.4442
198 -0.746901 -11.2035 -14.938
200 -1.4938 -11.2035 -14.1911
277 -1.4938 -10.4566 -14.938
279 -0.746901 -10.4566 -14.1911
998 -0.746901 -11.2035 -13.4442
1077 -1.4938 -10.4566 -13.4442
204 0 -11.2035 -14.1911
281 0 -10.4566 -14.938
1081 0 -10.4566 -13.4442
202 0.746901 -11.2035 -14.938
208 1.4938 -11.2035 -14.1911
283 0.746901 -10.4566 -14.1911
285 1.4938 -10.4566 -14.938
1002 0.746901 -11.2035 -13.4442
1085 1.4938 -10.4566 -13.4442
206 2.2407 -11.2035 -14.938
212 2.9876 -11.2035 -14.1911
287 2.2407 -10.4566 -14.1911
289 2.9876 -10.4566 -14.938
1006 2.2407 -11.2035 -13.4442
1089 2.9876 -10.4566 -13.4442
210 3.7345 -11.2035 -14.938
216 4.4814 -11.2035 -14.1911
291 3.7345 -10.4566 -14.1911
293 4.4814 -10.4566 -14.938
1010 3.7345 -11.2035 -13.4442
1093 4.4814 -10.4566 -13.4442
214 5.22831 -11.2035 -14.938
220 5.97521 -11.2035 -14.1911
295 5.22831 -10.4566 -14.1911
297 5.97521 -10.4566 -14.938
1014 5.22831 -11.2035 -13.4442
1097 5.97521 -10.4566 -13.4442
218 6.72211 -11.2035 -14.938
224 7.46901 -11.2035 -14.1911
299 6.72211 -10.4566 -14.1911
301 7.46901 -10.4566 -14.938
1018 6.72211 -11.2035 -13.4442
1101 7.46901 -10.4566 -13.4442
222 8.21591 -11.2035 -14.938
228 8.96281 -11.2035 -14.1911
303 8.21591 -10.4566 -14.1911
305 8.96281 -10.4566 -14.938
1022 8.21591 -11.2035 -13.4442
1105 8.96281 -10.4566 -13.4442
226 9.70971 -11.2035 -14.938
232 10.4566 -11.2035 -14.1911
307 9.70971 -10.4566 -14.1911
309 10.4566 -10.4566 -14.938
1026 9.70971 -11.2035 -13.4442
1109 10.4566 -10.4566 -13.4442
230 11.2035 -11.2035 -14.938
236 11.9504 -11.2035 -14.1911
311 11.2035 -10.4566 -14.1911
313 11.9504 -10.4566 -14.938
1030 11.2035 -11.2035 -13.4442
1113 11.9504 -10.4566 -13.4442
234 12.6973 -11.2035 -14.938
240 13.4442 -11.2035 -14.1911
315 12.6973 -10.4566 -14.1911
317 13.4442 -10.4566 -14.938
1034 12.6973 -11.2035 -13.4442
1117 13.4442 -10.4566 -13.4442
238 14.1911 -11.2035 -14.938
319 14.1911 -10.4566 -14.1911
1038 14.1911 -11.2035 -13.4442
242 -14.1911 -9.70971 -14.938
244 -14.938 -9.70971 -14.1911
321 -14.938 -8.96281 -14.938
323 -14.1911 -8.96281 -14.1911
1042 -14.1911 -9.70971 -13.4442
1121 -14.938 -8.96281 -13.4442
246 -12.6973 -9.70971 -14.938
248 -13.4442 -9.70971 -14.1911
325 -13.4442 -8.96281 -14.938
327 -12.6973 -8.96281 -14.1911
1046 -12.6973 -9.70971 -13.4442
1125 -13.4442 -8.96281 -13.4442
250 -11.2035 -9.70971 -14.938
252 -11.9504 -9.70971 -14.1911
329 -11.9504 -8.96281 -14.938
331 -11.2035 -8.96281 -14.1911
1050 -11.2035 -9.70971 -13.4442
1129 -11.9504 -8.96281 -13.4442
254 -9.70971 -9.70971 -14.938
256 -10.4566 -9.70971 -14.1911
333 -10.4566 -8.96281 -14.938
335 -9.70971 -8.96281 -14.1911
1054 -9.70971 -9.70971 -13.4442
1133 -10.4566 -8.96281 -13.4442
258 -8.21591 -9.70971 -14.938
260 -8.96281 -9.70971 -14.1911
337 -8.96281 -8.96281 -14.938
339 -8.21591 -8.96281 -14.1911
1058 -8.21591 -9.70971 -13.4442
1137 -8.96281 -8.96281 -13.4442
262 -6.72211 -9.70971 -14.938
264 -7.46901 -9.70971 -14.1911
341 -7.46901 -8.96281 -14.938
343 -6.72211 -8.96281 -14.1911
1062 -6.72211 -9.70971 -13.4442
1141 -7.46901 -8.96281 -13.4442
266 -5.22831 -9.70971 -14.938
268 -5.97521 -9.70971 -14.1911
345 -5.97521 -8.96281 -14.938
347 -5.22831 -8.96281 -14.1911
1066 -5.22831 -9.70971 -13.4442
1145 -5.97521 -8.96281 -13.4442
270 -3.7345 -9.70971 -14.938
272 -4.4814 -9.70971 -14.1911
349 -4.4814 -8.96281 -14.938
351 -3.7345 -8.96281 -14.1911
1070 -3.7345 -9.70971 -13.4442
1149 -4.4814 -8.96281 -13.4442
274 -2.2407 -9.70971 -14.938
276 -2.9876 -9.70971 -14.1911
353 -2.9876 -8.96281 -14.938
355 -2.2407 -8.96281 -14.1911
1074 -2.2407 -9.70971 -13.4442
1153 -2.9876 -8.96281 -13.4442
278 -0.746901 -9.70971 -14.938
280 -1.4938 -9.70971 -14.1911
357 -1.4938 -8.96281 -14.938
359 -0.746901 -8.96281 -14.1911
1078 -0.746901 -9.70971 -13.4442
1157 -1.4938 -8.96281 -13.4442
284 0 -9.70971 -14.1911
361 0 -8.96281 -14.938
1161 0 -8.96281 -13.4442
282 0.746901 -9.70971 -14.938
288 1.4938 -9.70971 -14.1911
363 0.746901 -8.96281 -14.1911
365 1.4938 -8.96281 -14.938
1082 0.746901 -9.70971 -13.4442
1165 1.4938 -8.96281 -13.4442
286 2.2407 -9.70971 -14.938
292 2.9876 -9.70971 -14.1911
367 2.2407 -8.96281 -14.1911
369 2.9876 -8.96281 -14.938
1086 2.2407 -9.70971 -13.4442
1169 2.9876 -8.96281 -13.4442
290 3.7345 -9.70971 -14.938
296 4.4814 -9.70971 -14.1911
371 3.7345 -8.96281 -14.1911
373 4.4814 -8.96281 -14.938
1090 3.7345 -9.70971 -13.4442
1173 4.4814 -8.96281 -13.4442
294 5.22831 -9.70971 -14.938
300 5.97521 -9.70971 -14.1911
375 5.22831 -8.96281 -14.1911
377 5.97521 -8.96281 -14.938
1094 5.22831 -9.70971 -13.4442
1177 5.97521 -8.96281 -13.4442
298 6.72211 -9.70971 -14.938
304 7.46901 -9.70971 -14.1911
379 6.72211 -8.96281 -14.1911
381 7.46901 -8.96281 -14.938
1098 6.72211 -9.70971 -13.4442
1181 7.46901 -8.96281 -13.4442
302 8.21591 -9.70971 -14.938
308 8.96281 -9.70971 -14.1911
383 8.21591 -8.96281 -14.1911
385 8.96281 -8.96281 -14.938
1102 8.21591 -9.70971 -13.4442
1185 8.96281 -8.96281 -13.4442
306 9.70971 -9.70971 -14.938
312 10.4566 -9.70971 -14.1911
387 9.70971 -8.96281 -14.1911
389 10.4566 -8.96281 -14.938
1106 9.70971 -9.70971 -13.4442
1189 10.4566 -8.96281 -13.4442
310 11.2035 -9.70971 -14.938
316 11.9504 -9.70971 -14.1911
391 11.2035 -8.96281 -14.1911
393 11.9504 -8.96281 -14.938
1110 11.2035 -9.70971 -13.4442
1193 11.9504 -8.96281 -13.4442
314 12.6973 -9.70971 -14.938
320 13.4442 -9.70971 -14.1911
395 12.6973 -8.96281 -14.1911
397 13.4442 -8.96281 -14.938
1114 12.6973 -9.70971 -13.4442
1197 13.4442 -8.96281 -13.4442
318 14.1911 -9.70971 -14.938
399 14.1911 -8.96281 -14.1911
1118 14.1911 -9.70971 -13.4442
322 -14.1911 -8.21591 -14.938
324 -14.938 -8.21591 -14.1911
1122 -14.1911 -8.21591 -13.4442
326 -12.6973 -8.21591 -14.938
328 -13.4442 -8.21591 -14.1911
1126 -12.6973 -8.21591 -13.4442
330 -11.2035 -8.21591 -14.938
332 -11.9504 -8.21591 -14.1911
1130 -11.2035 -8.21591 -13.4442
334 -9.70971 -8.21591 -14.938
336 -10.4566 -8.21591 -14.1911
1134 -9.70971 -8.21591 -13.4442
338 -8.21591 -8.21591 -14.938
340 -8.96281 -8.21591 -14.1911
1138 -8.21591 -8.21591 -13.4442
342 -6.72211 -8.21591 -14.938
344 -7.46901 -8.21591 -14.1911
1142 -6.72211 -8.21591 -13.4442
346 -5.22831 -8.21591 -14.938
348 -5.97521 -8.21591 -14.1911
1146 -5.22831 -8.21591 -13.4442
350 -3.7345 -8.21591 -14.938
352 -4.4814 -8.21591 -14.1911
1150 -3.7345 -8.21591 -13.4442
354 -2.2407 -8.21591 -14.938
356 -2.9876 -8.21591 -14.1911
1154 -2.2407 -8.21591 -13.4442
358 -0.746901 -8.21591 -14.938
360 -1.4938 -8.21591 -14.1911
1158 -0.746901 -8.21591 -13.4442
364 0 -8.21591 -14.1911
362 0.746901 -8.21591 -14.938
368 1.4938 -8.21591 -14.1911
1162 0.746901 -8.21591 -13.4442
366 2.2407 -8.21591 -14.938
372 2.9876 -8.21591 -14.1911
1166 2.2407 -8.21591 -13.4442
370 3.7345 -8.21591 -14.938
376 4.4814 -8.21591 -14.1911
1170 3.7345 -8.21591 -13.4442
374 5.22831 -8.21591 -14.938
380 5.97521 -8.21591 -14.1911
1174 5.22831 -8.21591 -13.4442
378 6.72211 -8.21591 -14.938
384 7.46901 -8.21591 -14.1911
1178 6.72211 -8.21591 -13.4442
382 8.21591 -8.21591 -14.938
388 8.96281 -8.21591 -14.1911
1182 8.21591 -8.21591 -13.4442
386 9.70971 -8.21591 -14.938
392 10.4566 -8.21591 -14.1911
1186 9.70971 -8.21591 -13.4442
390 11.2035 -8.21591 -14.938
396 11.9504 -8.21591 -14.1911
1190 11.2035 -8.21591 -13.4442
394 12.6973 -8.21591 -14.938
400 13.4442 -8.21591 -14.1911
1194 12.6973 -8.21591 -13.4442
398 14.1911 -8.21591 -14.938
1198 14.1911 -8.21591 -13.4442
401 -14.938 -7.46901 -14.938
402 -14.1911 -6.72211 -14.938
403 -14.1911 -7.46901 -14.1911
404 -14.938 -6.72211 -14.1911
481 -14.938 -5.97521 -14.938
483 -14.1911 -5.97521 -14.1911
1201 -14.938 -7.46901 -13.4442
1202 -14.1911 -6.72211 -13.4442
1281 -14.938 -5.97521 -13.4442
405 -13.4442 -7.46901 -14.938
406 -12.6973 -6.72211 -14.938
407 -12.6973 -7.46901 -14.1911
408 -13.4442 -6.72211 -14.1911
485 -13.4442 -5.97521 -14.938
487 -12.6973 -5.97521 -14.1911
1205 -13.4442 -7.46901 -13.4442
1206 -12.6973 -6.72211 -13.4442
1285 -13.4442 -5.97521 -13.4442
409 -11.9504 -7.46901 -14.938
410 -11.2035 -6.72211 -14.938
411 -11.2035 -7.46901 -14.1911
412 -11.9504 -6.72211 -14.1911
489 -11.9504 -5.97521 -14.938
491 -11.2035 -5.97521 -14.1911
1209 -11.9504 -7.46901 -13.4442
1210 -11.2035 -6.72211 -13.4442
1289 -11.9504 -5.97521 -13.4442
413 -10.4566 -7.46901 -14.938
414 -9.70971 -6.72211 -14.938
415 -9.70971 -7.46901 -14.1911
416 -10.4566 -6.72211 -14.1911
493 -10.4566 -5.97521 -14.938
495 -9.70971 -5.97521 -14.1911
1213 -10.4566 -7.46901 -13.4442
1214 -9.70971 -6.72211 -13.4442
1293 -10.4566 -5.97521 -13.4442
417 -8.96281 -7.46901 -14.938
418 -8.21591 -6.72211 -14.938
419 -8.21591 -7.46901 -14.1911
420 -8.96281 -6.72211 -14.1911
497 -8.96281 -5.97521 -14.938
499 -8.21591 -5.97521 -14.1911
1217 -8.96281 -7.46901 -13.4442
1218 -8.21591 -6.72211 -13.4442
1297 -8.96281 -5.97521 -13.4442
421 -7.46901 -7.46901 -14.938
422 -6.72211 -6.72211 -14.938
423 -6.72211 -7.46901 -14.1911
424 -7.46901 -6.72211 -14.1911
501 -7.46901 -5.97521 -14.938
503 -6.72211 -5.97521 -14.1911
1221 -7.46901 -7.46901 -13.4442
1222 -6.72211 -6.72211 -13.4442
1301 -7.46901 -5.97521 -13.4442
425 -5.97521 -7.46901 -14.938
426 -5.22831 -6.72211 -14.938
427 -5.22831 -7.46901 -14.1911
428 -5.97521 -6.72211 -14.1911
505 -5.97521 -5.97521 -14.938
507 -5.22831 -5.97521 -14.1911
1225 -5.97521 -7.46901 -13.4442
1226 -5.22831 -6.72211 -13.4442
1305 -5.97521 -5.97521 -13.4442
429 -4.4814 -7.46901 -14.938
430 -3.7345 -6.72211 -14.938
431 -3.7345 -7.46901 -14.1911
432 -4.4814 -6.72211 -14.1911
509 -4.4814 -5.97521 -14.938
511 -3.7345 -5.97521 -14.1911
1229 -4.4814 -7.46901 -13.4442
1230 -3.7345 -6.72211 -13.4442
1309 -4.4814 -5.97521 -13.4442
433 -2.9876 -7.46901 -14.938
434 -2.2407 -6.72211 -14.938
435 -2.2407 -7.46901 -14.1911
436 -2.9876 -6.72211 -14.1911
513 -2.9876 -5.97521 -14.938
515 -2.2407 -5.97521 -14.1911
1233 -2.9876 -7.46901 -13.4442
1234 -2.2407 -6.72211 -13.4442
1313 -2.9876 -5.97521 -13.4442
437 -1.4938 -7.46901 -14.938
438 -0.746901 -6.72211 -14.938
439 -0.746901 -7.46901 -14.1911
440 -1.4938 -6.72211 -14.1911
517 -1.4938 -5.97521 -14.938
519 -0.746901 -5.97521 -14.1911
1237 -1.4938 -7.46901 -13.4442
1238 -0.746901 -6.72211 -13.4442
1317 -1.4938 -5.97521 -13.4442
441 0 -7.46901 -14.938
444 0 -6.72211 -14.1911
521 0 -5.97521 -14.938
1241 0 -7.46901 -13.4442
1321 0 -5.97521 -13.4442
442 0.746901 -6.72211 -14.938
443 0.746901 -7.46901 -14.1911
445 1.4938 -7.46901 -14.938
448 1.4938 -6.72211 -14.1911
523 0.746901 -5.97521 -14.1911
525 1.4938 -5.97521 -14.938
1242 0.746901 -6.72211 -13.4442
1245 1.4938 -7.46901 -13.4442
1325 1.4938 -5.97521 -13.4442
446 2.2407 -6.72211 -14.938
447 2.2407 -7.46901 -14.1911
449 2.9876 -7.46901 -14.938
452 2.9876 -6.72211 -14.1911
527 2.2407 -5.97521 -14.1911
529 2.9876 -5.97521 -14.938
1246 2.2407 -6.72211 -13.4442
1249 2.9876 -7.46901 -13.4442
1329 2.9876 -5.97521 -13.4442
450 3.7345 -6.72211 -14.938
451 3.7345 -7.46901 -14.1911
453 4.4814 -7.46901 -14.938
456 4.4814 -6.72211 -14.1911
531 3.7345 -5.97521 -14.1911
533 4.4814 -5.97521 -14.938
1250 3.7345 -6.72211 -13.4442
1253 4.4814 -7.46901 -13.4442
1333 4.4814 -5.97521 -13.4442
454 5.22831 -6.72211 -14.938
455 5.22831 -7.46901 -14.1911
457 5.97521 -7.46901 -14.938
460 5.97521 -6.72211 -14.1911
535 5.22831 -5.97521 -14.1911
537 5.97521 -5.97521 -14.938
1254 5.22831 -6.72211 -13.4442
1257 5.97521 -7.46901 -13.4442
1337 5.97521 -5.97521 -13.4442
458 6.72211 -6.72211 -14.938
459 6.72211 -7.46901 -14.1911
461 7.46901 -7.46901 -14.938
464 7.46901 -6.72211 -14.1911
539 6.72211 -5.97521 -14.1911
541 7.46901 -5.97521 -14.938
1258 6.72211 -6.72211 -13.4442
1261 7.46901 -7.46901 -13.4442
1341 7.46901 -5.97521 -13.4442
462 8.21591 -6.72211 -14.938
463 8.21591 -7.46901 -14.1911
465 8.96281 -7.46901 -14.938
468 8.96281 -6.72211 -14.1911
543 8.21591 -5.97521 -14.1911
545 8.96281 -5.97521 -14.938
1262 8.21591 -6.72211 -13.4442
1265 8.96281 -7.46901 -13.4442
1345 8.96281 -5.97521 -13.4442
466 9.70971 -6.72211 -14.938
467 9.70971 -7.46901 -14.1911
469 10.4566 -7.46901 -14.938
472 10.4566 -6.72211 -14.1911
547 9.70971 -5.97521 -14.1911
549 10.4566 -5.97521 -14.938
1266 9.70971 -6.72211 -13.4442
1269 10.4566 -7.46901 -13.4442
1349 10.4566 -5.97521 -13.4442
470 11.2035 -6.72211 -14.938
471 11.2035 -7.46901 -14.1911
473 11.9504 -7.46901 -14.938
476 11.9504 -6.72211 -14.1911
551 11.2035 -5.97521 -14.1911
553 11.9504 -5.97521 -14.938
1270 11.2035 -6.72211 -13.4442
1273 11.9504 -7.46901 -13.4442
1353 11.9504 -5.97521 -13.4442
474 12.6973 -6.72211 -14.938
475 12.6973 -7.46901 -14.1911
477 13.4442 -7.46901 -14.938
480 13.4442 -6.72211 -14.1911
555 12.6973 -5.97521 -14.1911
557 13.4442 -5.97521 -14.938
1274 12.6973 -6.72211 -13.4442
1277 13.4442 -7.46901 -13.4442
1357 13.4442 -5.97521 -13.4442
478 14.1911 -6.72211 -14.938
479 14.1911 -7.46901 -14.1911
559 14.1911 -5.97521 -14.1911
1278 14.1911 -6.72211 -13.4442
482 -14.1911 -5.22831 -14.938
484 -14.938 -5.22831 -14.1911
561 -14.938 -4.4814 -14.938
563 -14.1911 -4.4814 -14.1911
1282 -14.1911 -5.22831 -13.4442
1361 -14.938 -4.4814 -13.4442
486 -12.6973 -5.22831 -14.938
488 -13.4442 -5.22831 -14.1911
565 -13.4442 -4.4814 -14.938
567 -12.6973 -4.4814 -14.1911
1286 -12.6973 -5.22831 -13.4442
1365 -13.4442 -4.4814 -13.4442
490 -11.2035 -5.22831 -14.938
492 -11.9504 -5.22831 -14.1911
569 -11.9504 -4.4814 -14.938
571 -11.2035 -4.4814 -14.1911
1290 -11.2035 -5.22831 -13.4442
1369 -11.9504 -4.4814 -13.4442
494 -9.70971 -5.22831 -14.938
496 -10.4566 -5.22831 -14.1911
573 -10.4566 -4.4814 -14.938
575 -9.70971 -4.4814 -14.1911
1294 -9.70971 -5.22831 -13.4442
1373 -10.4566 -4.4814 -13.4442
498 -8.21591 -5.22831 -14.938
500 -8.96281 -5.22831 -14.1911
577 -8.96281 -4.4814 -14.938
579 -8.21591 -4.4814 -14.1911
1298 -8.21591 -5.22831 -13.4442
1377 -8.96281 -4.4814 -13.4442
502 -6.72211 -5.22831 -14.938
504 -7.46901 -5.22831 -14.1911
581 -7.46901 -4.4814 -14.938
583 -6.72211 -4.4814 -14.1911
1302 -6.72211 -5.22831 -13.4442
1381 -7.46901 -4.4814 -13.4442
506 -5.22831 -5.22831 -14.938
508 -5.97521 -5.22831 -14.1911
585 -5.97521 -4.4814 -14.938
587 -5.22831 -4.4814 -14.1911
1306 -5.22831 -5.22831 -13.4442
1385 -5.97521 -4.4814 -13.4442
510 -3.7345 -5.22831 -14.938
512 -4.4814 -5.22831 -14.1911
589 -4.4814 -4.4814 -14.938
591 -3.7345 -4.4814 -14.1911
1310 -3.7345 -5.22831 -13.4442
1389 -4.4814 -4.4814 -13.4442
514 -2.2407 -5.22831 -14.938
516 -2.9876 -5.22831 -14.1911
593 -2.9876 -4.4814 -14.938
595 -2.2407 -4.4814 -14.1911
1314 -2.2407 -5.22831 -13.4442
1393 -2.9876 -4.4814 -13.4442
518 -0.746901 -5.22831 -14.938
520 -1.4938 -5.22831 -14.1911
597 -1.4938 -4.4814 -14.938
599 -0.746901 -4.4814 -14.1911
1318 -0.746901 -5.22831 -13.4442
1397 -1.4938 -4.4814 -13.4442
524 0 -5.22831 -14.1911
601 0 -4.4814 -14.938
1401 0 -4.4814 -13.4442
522 0.746901 -5.22831 -14.938
528 1.4938 -5.22831 -14.1911
603 0.746901 -4.4814 -14.1911
605 1.4938 -4.4814 -14.938
1322 0.746901 -5.22831 -13.4442
1405 1.4938 -4.4814 -13.4442
526 2.2407 -5.22831 -14.938
532 2.9876 -5.22831 -14.1911
607 2.2407 -4.4814 -14.1911
609 2.9876 -4.4814 -14.938
1326 2.2407 -5.22831 -13.4442
1409 2.9876 -4.4814 -13.4442
530 3.7345 -5.22831 -14.938
536 4.4814 -5.22831 -14.1911
611 3.7345 -4.4814 -14.1911
613 4.4814 -4.4814 -14.938
1330 3.7345 -5.22831 -13.4442
1413 4.4814 -4.4814 -13.4442
534 5.22831 -5.22831 -14.938
540 5.97521 -5.22831 -14.1911
615 5.22831 -4.4814 -14.1911
617 5.97521 -4.4814 -14.938
1334 5.22831 -5.22831 -13.4442
1417 5.97521 -4.4814 -13.4442
538 6.72211 -5.22831 -14.938
544 7.46901 -5.22831 -14.1911
619 6.72211 -4.4814 -14.1911
621 7.46901 -4.4814 -14.938
1338 6.72211 -5.22831 -13.4442
1421 7.46901 -4.4814 -13.4442
542 8.21591 -5.22831 -14.938
548 8.96281 -5.22831 -14.1911
623 8.21591 -4.4814 -14.1911
625 8.96281 -4.4814 -14.938
1342 8.21591 -5.22831 -13.4442
1425 8.96281 -4.4814 -13.4442
546 9.70971 -5.22831 -14.938
552 10.4566 -5.22831 -14.1911
627 9.70971 -4.4814 -14.1911
629 10.4566 -4.4814 -14.938
1346 9.70971 -5.22831 -13.4442
1429 10.4566 -4.4814 -13.4442
550 11.2035 -5.22831 -14.938
556 11.9504 -5.22831 -14.1911
631 11.2035 -4.4814 -14.1911
633 11.9504 -4.4814 -14.938
1350 11.2035 -5.22831 -13.4442
1433 11.9504 -4.4814 -13.4442
554 12.6973 -5.22831 -14.938
560 13.4442 -5.22831 -14.1911
635 12.6973 -4.4814 -14.1911
637 13.4442 -4.4814 -14.938
1354 12.6973 -5.22831 -13.4442
1437 13.4442 -4.4814 -13.4442
558 14.1911 -5.22831 -14.938
639 14.1911 -4.4814 -14.1911
1358 14.1911 -5.22831 -13.4442
562 -14.1911 -3.7345 -14.938
564 -14.938 -3.7345 -14.1911
1362 -14.1911 -3.7345 -13.4442
566 -12.6973 -3.7345 -14.938
568 -13.4442 -3.7345 -14.1911
1366 -12.6973 -3.7345 -13.4442
570 -11.2035 -3.7345 -14.938
572 -11.9504 -3.7345 -14.1911
1370 -11.2035 -3.7345 -13.4442
574 -9.70971 -3.7345 -14.938
576 -10.4566 -3.7345 -14.1911
1374 -9.70971 -3.7345 -13.4442
578 -8.21591 -3.7345 -14.938
580 -8.96281 -3.7345 -14.1911
1378 -8.21591 -3.7345 -13.4442
582 -6.72211 -3.7345 -14.938
584 -7.46901 -3.7345 -14.1911
1382 -6.72211 -3.7345 -13.4442
586 -5.22831 -3.7345 -14.938
588 -5.97521 -3.7345 -14.1911
1386 -5.22831 -3.7345 -13.4442
590 -3.7345 -3.7345 -14.938
592 -4.4814 -3.7345 -14.1911
1390 -3.7345 -3.7345 -13.4442
594 -2.2407 -3.7345 -14.938
596 -2.9876 -3.7345 -14.1911
1394 -2.2407 -3.7345 -13.4442
598 -0.746901 -3.7345 -14.938
600 -1.4938 -3.7345 -14.1911
1398 -0.746901 -3.7345 -13.4442
604 0 -3.7345 -14.1911
602 0.746901 -3.7345 -14.938
608 1.4938 -3.7345 -14.1911
1402 0.746901 -3.7345 -13.4442
606 2.2407 -3.7345 -14.938
612 2.9876 -3.7345 -14.1911
1406 2.2407 -3.7345 -13.4442
610 3.7345 -3.7345 -14.938
616 4.4814 -3.7345 -14.1911
1410 3.7345 -3.7345 -13.4442
614 5.22831 -3.7345 -14.938
620 5.97521 -3.7345 -14.1911
1414 5.22831 -3.7345 -13.4442
618 6.72211 -3.7345 -14.938
624 7.46901 -3.7345 -14.1911
1418 6.72211 -3.7345 -13.4442
622 8.21591 -3.7345 -14.938
628 8.96281 -3.7345 -14.1911
1422 8.21591 -3.7345 -13.4442
626 9.70971 -3.7345 -14.938
632 10.4566 -3.7345 -14.1911
1426 9.70971 -3.7345 -13.4442
630 11.2035 -3.7345 -14.938
636 11.9504 -3.7345 -14.1911
1430 11.2035 -3.7345 -13.4442
634 12.6973 -3.7345 -14.938
640 13.4442 -3.7345 -14.1911
1434 12.6973 -3.7345 -13.4442
638 14.1911 -3.7345 -14.938
1438 14.1911 -3.7345 -13.4442
641 -14.938 -2.9876 -14.938
642 -14.1911 -2.2407 -14.938
643 -14.1911 -2.9876 -14.1911
644 -14.938 -2.2407 -14.1911
1441 -14.938 -2.9876 -13.4442
1442 -14.1911 -2.2407 -13.4442
645 -13.4442 -2.9876 -14.938
646 -12.6973 -2.2407 -14.938
647 -12.6973 -2.9876 -14.1911
648 -13.4442 -2.2407 -14.1911
1445 -13.4442 -2.9876 -13.4442
1446 -12.6973 -2.2407 -13.4442
649 -11.9504 -2.9876 -14.938
650 -11.2035 -2.2407 -14.938
651 -11.2035 -2.9876 -14.1911
652 -11.9504 -2.2407 -14.1911
1449 -11.9504 -2.9876 -13.4442
1450 -11.2035 -2.2407 -13.4442
653 -10.4566 -2.9876 -14.938
654 -9.70971 -2.2407 -14.938
655 -9.70971 -2.9876 -14.1911
656 -10.4566 -2.2407 -14.1911
1453 -10.4566 -2.9876 -13.4442
1454 -9.70971 -2.2407 -13.4442
657 -8.96281 -2.9876 -14.938
658 -8.21591 -2.2407 -14.938
659 -8.21591 -2.9876 -14.1911
660 -8.96281 -2.2407 -14.1911
1457 -8.96281 -2.9876 -13.4442
1458 -8.21591 -2.2407 -13.4442
661 -7.46901 -2.9876 -14.938
662 -6.72211 -2.2407 -14.938
663 -6.72211 -2.9876 -14.1911
664 -7.46901 -2.2407 -14.1911
1461 -7.46901 -2.9876 -13.4442
1462 -6.72211 -2.2407 -13.4442
665 -5.97521 -2.9876 -14.938
666 -5.22831 -2.2407 -14.938
667 -5.22831 -2.9876 -14.1911
668 -5.97521 -2.2407 -14.1911
1465 -5.97521 -2.9876 -13.4442