ITEM: TIMESTEP
10000
ITEM: NUMBER OF ATOMS
32000
ITEM: BOX BOUNDS pp pp pp
-1.4938015821857215e+01 1.4938015821857215e+01
-1.4938015821857215e+01 1.4938015821857215e+01
-1.4938015821857215e+01 1.4938015821857215e+01
ITEM: ATOMS id x y z
17651 3.64844 -0.0537246 -11.2109
22467 9.77109 -0.0650952 -2.21138
8 -13.4929 -14.1637 -14.1016
2403 -14.1457 -14.8852 -9.74722
3227 -5.16693 -14.8325 -8.09512
12 -11.9672 -14.161 -14.1088
91 -11.2124 -13.4637 -14.104
865 8.99812 -14.8382 -13.4646
16 -10.4216 -14.2754 -14.0954
893 -10.524 -13.485 -13.457
839 -0.688932 -14.9228 -12.7606
613 4.51342 -4.48854 -14.9012
686 2.2509 -2.29209 -14.9025
20 -8.96327 -14.2517 -14.1281
79 14.183 -14.8582 -14.1722
20879 14.2013 -0.0385715 -5.29727
59 6.78872 -14.8992 -14.1951
24 -7.44283 -14.2858 -14.2088
39 -0.775784 -14.8766 -14.1711
20831 -3.68696 -0.00565429 -5.29473
26 -5.18374 -14.1803 -14.8852
8077 13.4438 -14.8993 -0.0111323
28 -6.02064 -14.0988 -14.1547
790 11.2998 -0.771679 -14.8945
826 -5.24139 -14.1309 -13.2991
32 -4.4961 -14.2276 -14.0986
111 -3.76364 -13.583 -14.1162
830 -3.70524 -14.2092 -13.4087
5653 4.40514 -14.8622 -4.46424
361 -0.00350635 -9.03853 -14.9211
36 -2.9948 -14.237 -14.2562
115 -2.23147 -13.4852 -14.1537
834 -2.28162 -14.2192 -13.4343
913 -2.97968 -13.4758 -13.4164
46 2.26084 -14.2595 -14.9347
40 -1.46576 -14.1687 -14.2802
917 -1.48688 -13.4289 -13.4324
485 -13.4929 -5.99993 -14.8484
119 -0.765911 -13.4249 -14.2161
44 -0.0236224 -14.1988 -14.1974
921 -0.0229123 -13.4353 -13.4612
16059 6.55141 -0.0273328 -14.1666
838 -0.743406 -14.1591 -13.4636
842 0.713574 -14.1967 -13.3966
48 1.52853 -14.0898 -14.198
123 0.742201 -13.556 -14.2251
925 1.46366 -13.395 -13.3782
52 2.9951 -14.2551 -14.1765
127 2.28688 -13.5007 -14.2628
16031 -3.73862 -0.0322319 -14.1902
8085 -13.3072 -13.5363 -0.0296018
56 4.51536 -14.1764 -14.2632
850 3.7124 -14.1835 -13.4206
933 4.47914 -13.4618 -13.5022
4877 13.4427 -14.8521 -5.93059
1635 -2.18571 -14.8421 -11.2229
60 5.99926 -14.2586 -14.3148
135 5.20899 -13.4316 -14.2169
610 3.69323 -3.7573 -14.9099
64 7.47624 -14.1442 -14.2062
858 6.73108 -14.2142 -13.4688
139 6.66685 -13.4963 -14.1624
68 8.98552 -14.161 -14.2223
862 8.1596 -14.0989 -13.3872
1617 -9.01863 -14.9166 -11.9195
35 -2.25399 -14.9177 -14.1521
8000 13.5304 -0.814239 -0.694682
72 10.4617 -14.177 -14.2155
147 9.74966 -13.4406 -14.2591
23259 6.79954 -0.115016 -0.69297
2461 7.40892 -14.9237 -10.4617
21627 -5.17548 -0.0431949 -3.74512
76 11.9165 -14.1073 -14.1922
151 11.1261 -13.3594 -14.1923
18469 10.4243 -0.0109466 -10.3584
80 13.4375 -14.161 -14.1174
155 12.7342 -13.3894 -14.2064
6449 2.95859 -14.8973 -2.90641
3271 11.214 -14.9071 -8.25392
4 14.9349 -14.199 -14.1487
23227 -5.2175 -0.0329585 -0.789125
5607 -12.6801 -14.925 -3.80355
2 -14.3405 -14.1611 -14.9278
83 -14.3209 -13.3656 -14.2903
22429 -4.41735 -0.0607559 -3.03216
829 -4.5229 -14.9003 -13.2991
87 -12.7508 -13.4635 -14.1315
110 -3.72038 -12.6894 -14.8358
88 -13.3861 -12.7085 -14.1559
167 -12.7231 -11.9426 -14.2164
4003 -14.2223 -14.9307 -6.77176
92 -12.0006 -12.704 -14.273
171 -11.2582 -11.9994 -14.2537
2419 -8.19478 -14.909 -9.71155
95 -9.77929 -13.468 -14.1071
96 -10.3969 -12.6382 -14.1849
175 -9.63223 -11.9534 -14.2414
894 -9.61614 -12.6512 -13.47
23221 -7.36244 -0.046584 -1.44653
706 9.69602 -2.21033 -14.9269
99 -8.12886 -13.5428 -14.1582
100 -8.85737 -12.848 -14.2774
179 -8.23504 -12.0821 -14.1208
23217 -8.88736 -0.0120273 -1.4826
103 -6.80621 -13.4647 -14.1235
104 -7.48558 -12.7346 -14.1321
901 -7.45177 -13.5484 -13.3825
501 -7.44742 -5.90046 -14.9308
565 -13.4235 -4.44321 -14.9185
107 -5.18958 -13.4538 -14.2196
108 -6.02642 -12.7176 -14.0182
906 -5.25979 -12.6191 -13.3617
187 -5.25616 -11.9612 -14.1643
67 9.64044 -14.9289 -14.1763
112 -4.4968 -12.7728 -14.2067
191 -3.76785 -11.9923 -14.1188
909 -4.49537 -13.4053 -13.3232
910 -3.66422 -12.7824 -13.3833
116 -2.93885 -12.734 -14.1092
195 -2.2399 -11.9351 -14.1944
993 -2.92769 -11.9577 -13.3398
914 -2.19844 -12.7596 -13.3567
120 -1.50382 -12.7184 -14.1801
199 -0.750152 -12.1784 -14.1479
997 -1.53862 -12.0003 -13.4482
124 0.0756038 -12.7536 -14.1597
918 -0.751225 -12.723 -13.353
128 1.45854 -12.7354 -14.0946
922 0.749929 -12.6816 -13.4045
1005 1.48739 -11.918 -13.5258
929 3.05329 -13.3705 -13.5767
132 3.05473 -12.6027 -14.2275
926 2.28406 -12.613 -13.473
131 3.78894 -13.4033 -14.1653
136 4.54405 -12.619 -14.2871
211 3.74116 -11.924 -14.1954
1013 4.48935 -11.9417 -13.4351
930 3.79833 -12.7681 -13.3628
23201 14.9108 -0.0480218 -1.52182
140 6.03089 -12.6408 -14.2096
215 5.29872 -12.021 -14.1745
937 5.90119 -13.4002 -13.339
1017 5.98023 -11.917 -13.4708
6467 9.68502 -14.8846 -2.30962
144 7.40437 -12.6855 -14.2143
219 6.75211 -11.9322 -14.2532
20813 -10.536 -0.0627666 -5.93458
129 3.03717 -13.425 -14.8951
143 8.20385 -13.3301 -14.1501
148 9.03155 -12.7135 -14.2097
223 8.24694 -12.0325 -14.2146
3201 14.8743 -14.8716 -8.99881
3229 -4.52226 -14.9087 -8.90231
152 10.4769 -12.6353 -14.1755
946 9.73321 -12.6874 -13.3685
6 -12.7771 -14.2218 -14.8402
156 11.9473 -12.7717 -14.1611
8721 -14.8899 -1.42414 -0.0119854
953 11.9887 -13.4799 -13.4816
160 13.4474 -12.6565 -14.2007
1037 13.4686 -11.9017 -13.4903
17659 6.61877 -0.0460912 -11.1863
401 14.8702 -7.47843 -14.8951
84 -14.9233 -12.6041 -14.2656
159 14.2096 -13.4699 -14.1882
239 14.2098 -11.9349 -14.177
18459 6.72807 -0.00633588 -9.82373
163 -14.1791 -11.9254 -14.2253
962 -14.2216 -11.1874 -13.4258
18477 13.4032 -0.0104344 -10.4647
414 -9.58365 -6.68963 -14.8596
16815 -9.69454 -0.08814 -12.6627
189 -4.40734 -11.9531 -14.9358
168 -13.3869 -11.201 -14.1423
642 -14.1557 -2.28069 -14.9119
172 -11.8956 -11.1841 -14.1973
251 -11.1776 -10.4514 -14.1426
176 -10.4458 -11.1921 -14.2093
974 -9.71958 -11.2067 -13.472
1053 -10.4275 -10.5263 -13.4539
977 -8.97147 -11.9077 -13.4664
180 -8.89292 -11.2092 -14.2103
978 -8.17533 -11.1591 -13.4331
259 -8.21278 -10.416 -14.2047
742 -6.68324 -0.793053 -14.8921
413 -10.4195 -7.41637 -14.8786
183 -6.74141 -12.016 -14.1642
184 -7.5197 -11.2375 -14.2768
188 -6.07039 -11.124 -14.2329
16051 3.69932 -0.0388601 -14.2935
192 -4.5078 -11.2669 -14.2226
271 -3.69077 -10.4035 -14.1465
293 4.56861 -10.5418 -14.8354
990 -3.73942 -11.2218 -13.4029
186 -5.23626 -11.2007 -14.8684
196 -3.00407 -11.3037 -14.1279
275 -2.22055 -10.4693 -14.0834
20829 -4.47086 -0.039956 -5.93488
200 -1.53162 -11.294 -14.1743
994 -2.30547 -11.1894 -13.4161
998 -0.768155 -11.2846 -13.3824
1077 -1.53619 -10.5492 -13.4246
204 -0.0259102 -11.227 -14.2413
1001 0.0558574 -11.9866 -13.4452
203 0.795094 -11.968 -14.1777
208 1.45421 -11.1544 -14.1745
1002 0.651698 -11.1702 -13.3711
207 2.24773 -11.9112 -14.1769
212 2.97796 -11.1739 -14.2275
1009 3.03386 -11.9356 -13.4347
1006 2.27304 -11.1722 -13.4609
216 4.55539 -11.2143 -14.1477
291 3.73052 -10.5345 -14.1608
1010 3.78096 -11.2396 -13.4642
1093 4.50921 -10.4468 -13.5131
20015 -9.70957 -0.0678103 -6.68704
220 5.96554 -11.2373 -14.1774
1014 5.27708 -11.1499 -13.3848
1097 5.91728 -10.4931 -13.5181
8770 3.68065 -0.705656 -0.0423335
497 -8.91877 -5.95351 -14.9178
1021 7.42331 -11.9904 -13.539
224 7.46818 -11.2512 -14.1781
1018 6.74883 -11.1476 -13.433
299 6.75032 -10.463 -14.1777
23225 -5.89319 -0.0122905 -1.47584
228 8.93177 -11.2587 -14.1904
303 8.22702 -10.4304 -14.159
1022 8.13444 -11.1495 -13.5135
2473 11.9248 -14.8579 -10.5186
227 9.74846 -12.0109 -14.2202
232 10.4602 -11.2308 -14.3251
14 -9.62829 -14.176 -14.8693
231 11.1867 -12.0037 -14.2049
236 11.9455 -11.2173 -14.1909
1651 3.6403 -14.8578 -11.1292
235 12.697 -11.9321 -14.1623
240 13.471 -11.1809 -14.2428
164 14.8925 -11.2586 -14.1886
55 5.19305 -14.9199 -14.2175
1038 14.1159 -11.189 -13.4475
243 -14.1113 -10.4139 -14.1601
323 -14.208 -9.02713 -14.3069
248 -13.4284 -9.7368 -14.2236
247 -12.7338 -10.4422 -14.1953
1046 -12.6731 -9.74348 -13.5232
265 -6.02433 -10.4181 -14.9381
252 -11.9109 -9.79964 -14.2313
1049 -11.9507 -10.4473 -13.4285
1129 -11.8939 -9.00339 -13.5379
23279 14.2146 -0.0476159 -0.679811
255 -9.65461 -10.4347 -14.1261
256 -10.4366 -9.65864 -14.1432
335 -9.62338 -8.91353 -14.169
162 -14.1373 -11.2223 -14.8603
1057 -8.99192 -10.4938 -13.4067
260 -8.90924 -9.66146 -14.1525
1058 -8.28013 -9.71666 -13.4127
339 -8.17594 -8.9408 -14.2094
1137 -8.91671 -8.89234 -13.376
674 -2.21941 -2.29368 -14.8973
263 -6.77025 -10.4485 -14.1381
264 -7.46317 -9.70737 -14.1679
173 -10.406 -11.957 -14.9168
1062 -6.75229 -9.73268 -13.3681
762 0.67956 -0.788861 -14.8809
267 -5.19381 -10.4928 -14.1312
268 -5.91835 -9.63307 -14.28
347 -5.27469 -8.92781 -14.1834
20003 -14.2312 -0.052092 -6.7752
1065 -5.97234 -10.3899 -13.4425
1066 -5.25514 -9.7048 -13.5179
17605 -13.4654 -0.0233423 -11.8898
272 -4.531 -9.62103 -14.1885
351 -3.64356 -9.02077 -14.2761
1070 -3.75652 -9.6675 -13.4735
21661 7.5732 -0.112227 -4.51722
276 -2.95992 -9.73867 -14.1898
355 -2.23379 -8.92324 -14.2797
1153 -2.97253 -9.03273 -13.4848
280 -1.44392 -9.74399 -14.1706
1157 -1.47625 -8.94341 -13.4598
279 -0.705706 -10.5011 -14.2203
1081 -0.0649076 -10.4341 -13.4449
1078 -0.795614 -9.73824 -13.4473
284 0.0252576 -9.67045 -14.1035
283 0.778158 -10.4607 -14.11
288 1.46656 -9.69274 -14.1817
1085 1.53532 -10.3846 -13.4624
1082 0.743146 -9.74713 -13.3988
287 2.26645 -10.4118 -14.1904
292 2.98939 -9.64409 -14.1154
1086 2.32756 -9.77042 -13.4213
22453 4.53174 -0.0468253 -3.01412
296 4.4001 -9.78254 -14.2163
17675 12.6434 -0.0663103 -11.1696
1090 3.81031 -9.70322 -13.4137
295 5.21132 -10.4024 -14.176
300 5.97545 -9.68511 -14.1496
304 7.45924 -9.69004 -14.216
379 6.76736 -8.96688 -14.1388
16875 12.7204 -0.0159168 -12.6727
113 -2.94514 -13.454 -14.8852
1101 7.49752 -10.4061 -13.4415
6439 -0.843732 -14.8764 -2.13684
308 8.95574 -9.70657 -14.2392
383 8.18008 -8.94081 -14.1938
16801 -14.9133 -0.0133536 -13.4358
307 9.65618 -10.5133 -14.1575
1109 10.4957 -10.5169 -13.5903
312 10.4116 -9.75044 -14.3165
445 1.46816 -7.41088 -14.9223
16829 -4.41691 -0.0191786 -13.3898
549 10.4178 -6.02974 -14.8729
311 11.1319 -10.3935 -14.264
316 11.9206 -9.69485 -14.2755
1113 12.0011 -10.4181 -13.4573
1110 11.1982 -9.61813 -13.5417
315 12.6653 -10.4401 -14.2643
320 13.4674 -9.69371 -14.2441
395 12.6978 -8.99094 -14.2798
1114 12.6836 -9.72708 -13.5009
17619 -8.19257 -0.065047 -11.157
319 14.2415 -10.5064 -14.138
244 -14.8731 -9.76395 -14.2086
3203 -14.1958 -14.8781 -8.27347
93 -10.4433 -13.5575 -14.9256
193 -2.89289 -12.0082 -14.9245
1122 -14.1771 -8.22878 -13.5024
16819 -8.19475 -0.0573615 -12.7052
327 -12.6725 -9.01225 -14.1961
328 -13.457 -8.22814 -14.2143
21611 -11.2643 -0.0132466 -3.76705
331 -11.2066 -8.96068 -14.2534
332 -11.8428 -8.14724 -14.2377
411 -11.178 -7.45525 -14.2155
20837 -1.53959 -0.0211656 -5.93354
821 -7.46579 -14.8983 -13.3578
450 3.77255 -6.737 -14.9078
336 -10.4776 -8.20322 -14.2091
16039 -0.701261 -0.0889368 -14.0994
340 -8.92917 -8.19838 -14.2018
23271 11.2696 -0.0579971 -0.702197
343 -6.71535 -9.04502 -14.2277
344 -7.36457 -8.25588 -14.259
348 -5.93084 -8.18223 -14.2063
427 -5.13434 -7.48163 -14.1741
22477 13.4026 -0.00655979 -3.0188
1146 -5.19643 -8.24129 -13.4495
23265 8.95666 -0.0505255 -1.4773
352 -4.47817 -8.25082 -14.2264
1150 -3.74357 -8.23711 -13.4663
356 -3.03559 -8.29545 -14.2186
435 -2.3453 -7.56176 -14.2075
1154 -2.25753 -8.25607 -13.4777
360 -1.53628 -8.24459 -14.2633
1237 -1.54974 -7.52877 -13.4773
19237 -1.40768 -0.0492935 -9.04348
1161 -0.0378592 -8.92508 -13.4046
359 -0.744802 -8.99795 -14.1737
364 -0.0222159 -8.17365 -14.1871
439 -0.792564 -7.46811 -14.2497
363 0.713207 -8.91685 -14.122
368 1.47246 -8.25863 -14.2351
443 0.776851 -7.49752 -14.2128
20873 12.001 -0.0358265 -5.97872
367 2.24555 -8.95063 -14.2121
372 3.01294 -8.26921 -14.2495
317 13.4656 -10.4096 -14.9373
486 -12.6185 -5.24893 -14.8691
371 3.77826 -8.94835 -14.133
376 4.50532 -8.21925 -14.2283
1173 4.51898 -9.03853 -13.4863
4867 9.75862 -14.8968 -5.11289
375 5.18681 -9.09336 -14.2267
380 5.97579 -8.26838 -14.2464
16011 -11.1619 -0.00908069 -14.223
384 7.43258 -8.20895 -14.1785
1178 6.6906 -8.21314 -13.4746
1261 7.39679 -7.47327 -13.4142
16825 -5.98513 -0.00454793 -13.4074
718 14.1215 -2.19583 -14.8253
388 8.95668 -8.30074 -14.2382
1182 8.21119 -8.15694 -13.5606
387 9.73631 -9.00775 -14.2687
392 10.3964 -8.20945 -14.1187
467 9.64921 -7.50116 -14.1088
1189 10.4331 -8.99009 -13.4049
102 -6.79957 -12.8419 -14.8361
391 11.0699 -8.97573 -14.2474
396 11.8833 -8.24346 -14.2043
2459 6.73989 -14.8701 -9.70944
494 -9.60415 -5.25712 -14.893
400 13.4166 -8.21672 -14.257
1277 13.4256 -7.52175 -13.5204
16807 -12.7241 -0.0749667 -12.7319
626 9.71381 -3.76903 -14.9149
8598 -0.676444 -3.75011 -0.0814132
399 14.158 -8.95658 -14.222
324 -14.9361 -8.30131 -14.3035
479 14.0797 -7.53639 -14.2558
1198 14.1917 -8.23656 -13.5081
403 -14.1839 -7.47535 -14.1971
404 14.9177 -6.80711 -14.2135
483 -14.1861 -6.0358 -14.1851
16821 -7.47594 -0.0435588 -13.5279
408 -13.4356 -6.80431 -14.2364
407 -12.6344 -7.46101 -14.2183
487 -12.6538 -5.96591 -14.1863
19245 1.48511 -0.00831966 -8.91086
20843 0.811765 -0.0994976 -5.17919
2411 -11.1893 -14.9001 -9.79354
678 -0.670571 -2.2801 -14.8542
412 -11.8975 -6.70181 -14.223
138 6.67591 -12.7548 -14.9241
213 4.46649 -11.8696 -14.8927
415 -9.696 -7.46655 -14.176
416 -10.3995 -6.66256 -14.1497
3239 -0.749637 -14.9358 -8.14928
6427 -5.28585 -14.9248 -2.19127
27 -5.25621 -14.8774 -14.151
419 -8.10412 -7.43263 -14.2393
420 -8.90023 -6.78518 -14.1854
499 -8.19916 -6.00037 -14.1243
793 11.9564 -1.49616 -14.8583
423 -6.67134 -7.40475 -14.2211
424 -7.44665 -6.64625 -14.2125
503 -6.67525 -5.94822 -14.2674
5655 5.20762 -14.9425 -3.72784
1301 -7.36846 -5.96571 -13.5022
454 5.16155 -6.79909 -14.8943
85 -13.5208 -13.5537 -14.9165
428 -5.93378 -6.72886 -14.232
1226 -5.1866 -6.72543 -13.4635
507 -5.16694 -6.02914 -14.2511
431 -3.70722 -7.47238 -14.2347
432 -4.37996 -6.68268 -14.1643
511 -3.6583 -6.02002 -14.2419
1230 -3.71824 -6.74022 -13.417
329 -11.9425 -8.98964 -14.9184
436 -2.95716 -6.82325 -14.2205
515 -2.24173 -6.04252 -14.3305
1313 -2.89192 -6.06636 -13.4693
1234 -2.26732 -6.80544 -13.5466
1233 -3.02846 -7.50818 -13.4435
440 -1.50851 -6.7933 -14.2555
519 -0.815766 -6.0753 -14.2289
1238 -0.781773 -6.83977 -13.437
21617 -8.93036 -0.0255506 -4.46707
444 -0.0370459 -6.80842 -14.1824
461 7.527 -7.46832 -14.9082
1242 0.648903 -6.75041 -13.5047
126 2.09105 -12.7047 -14.8919
448 1.5415 -6.77398 -14.1787
1245 1.44938 -7.51139 -13.4798
23255 5.24881 -0.0106908 -0.785616
447 2.36113 -7.5207 -14.2126
452 3.007 -6.75787 -14.1273
1249 2.98872 -7.43267 -13.4285
20037 -1.42338 -0.0531443 -7.49391
17679 14.1307 0.00160895 -11.2571
451 3.69933 -7.56823 -14.222
456 4.43849 -6.72216 -14.0911
1250 3.74245 -6.68001 -13.35
4021 -7.5776 -14.8968 -7.49434
8281 -0.0131003 -10.4707 -0.0234693
455 5.20062 -7.50544 -14.2678
460 5.97744 -6.75554 -14.199
535 5.18727 -5.96043 -14.2221
225 8.93192 -12.0161 -14.9116
459 6.70428 -7.59387 -14.3325
464 7.42808 -6.78263 -14.2063
539 6.7269 -6.01273 -14.2198
2445 1.54977 -14.9181 -10.3577
10 -11.1451 -14.2441 -14.8082
463 8.198 -7.4593 -14.2025
468 9.03496 -6.80744 -14.237
1262 8.21213 -6.7438 -13.3977
1265 8.85966 -7.48522 -13.4057
3235 -2.28025 -14.8417 -8.20677
8725 -13.4588 -1.40575 -0.0384515
472 10.4744 -6.7801 -14.1841
547 9.69343 -5.97964 -14.1913
7223 -6.70741 -14.8982 -0.726641
471 11.2159 -7.48288 -14.2157
476 11.9159 -6.80932 -14.262
551 11.1887 -6.01245 -14.1824
475 12.6642 -7.52854 -14.3022
480 13.3836 -6.80065 -14.2861
346 -5.15265 -8.26829 -14.9462
2427 -5.2286 -14.9332 -9.66654
484 -14.923 -5.23872 -14.2124
563 -14.1803 -4.48666 -14.1988
488 -13.4173 -5.28616 -14.1989
567 -12.6983 -4.43781 -14.193
6425 -5.94867 -14.8352 -2.94856
50 3.76491 -14.1586 -14.8953
491 -11.152 -5.9175 -14.2751
492 -11.9591 -5.17807 -14.1743
571 -11.242 -4.42915 -14.1609
17613 -10.5339 -0.0810431 -11.9388
122 0.736133 -12.7678 -14.8621
258 -8.23973 -9.60798 -14.9256
495 -9.71262 -5.89717 -14.0973
496 -10.5278 -5.15608 -14.2844
575 -9.70668 -4.46104 -14.1387
690 3.62709 -2.27449 -14.9038
500 -8.92061 -5.2082 -14.1784
579 -8.25806 -4.39 -14.1686
1298 -8.17927 -5.21918 -13.4587
245 -13.3662 -10.5554 -14.9075
504 -7.45829 -5.21281 -14.2158
583 -6.66505 -4.41316 -14.2109
1302 -6.69103 -5.17953 -13.5211
65 9.01223 -14.932 -14.9291
1305 -5.96759 -5.96265 -13.4016
508 -5.93897 -5.26127 -14.2093
1385 -5.92034 -4.48978 -13.4967
587 -5.14698 -4.54379 -14.2199
1306 -5.15467 -5.26461 -13.4372
22479 14.1513 -0.121412 -2.25344
512 -4.43415 -5.22334 -14.1328
1310 -3.64918 -5.25132 -13.4067
374 5.19319 -8.3582 -14.9304
1309 -4.41683 -6.01812 -13.445
1389 -4.44403 -4.50015 -13.3939
516 -3.02046 -5.24798 -14.1731
595 -2.22476 -4.48873 -14.2758
19231 -3.6964 -0.0117694 -8.28636
520 -1.46327 -5.32871 -14.1273
5627 -5.30108 -14.8913 -3.73021
289 3.00356 -10.4802 -14.8929
602 0.705549 -3.91247 -14.9323
524 -0.0973142 -5.32891 -14.114
1325 1.43863 -6.01842 -13.3675
523 0.70342 -6.02547 -14.1768
528 1.46869 -5.24457 -14.1527
16813 -10.4303 -0.00937684 -13.4801
16827 -5.22647 -0.066026 -12.6809
527 2.25172 -6.08051 -14.2263
532 3.02415 -5.30377 -14.2248
1326 2.22695 -5.36261 -13.4867
326 -12.7312 -8.17747 -14.915
531 3.7442 -6.00993 -14.1168
536 4.48798 -5.20188 -14.1937
1413 4.51348 -4.40122 -13.3675
5647 2.34165 -14.8869 -3.74889
540 5.92744 -5.22287 -14.1494
713 11.9551 -2.89504 -14.8783
18407 -12.7155 -0.0442192 -9.61868
544 7.43763 -5.31514 -14.2971
6423 -6.71356 -14.8663 -2.24021
23223 -6.68168 -0.0244495 -0.729571
543 8.15166 -6.07971 -14.1916
548 8.88594 -5.32448 -14.1495
4827 -5.23561 -14.9314 -5.23182
552 10.3867 -5.24637 -14.2211
627 9.53791 -4.56056 -14.2085
23 -6.74544 -14.8829 -14.1946
218 6.76497 -11.2236 -14.9002
7245 1.38244 -14.8747 -1.38115
717 13.495 -2.94959 -14.9034
556 11.9362 -5.28884 -14.1478
555 12.618 -6.05039 -14.244
560 13.4058 -5.23673 -14.2586
8741 -7.4542 -1.44438 -0.0652618
8293 4.56604 -10.4842 -0.0225231
559 14.0621 -6.06068 -14.2685
537 6.01906 -6.01129 -14.8832
639 14.1361 -4.54199 -14.1662
1358 14.1945 -5.32141 -13.5498
643 -14.1751 -2.93455 -14.1915
564 14.8456 -3.76773 -14.1614
3233 -2.95368 -14.8935 -9.02332
568 -13.3963 -3.67778 -14.174
647 -12.7663 -2.98336 -14.1647
1365 -13.4675 -4.43381 -13.4169
505 -6.02764 -5.96303 -14.9407
23267 9.79731 -0.101441 -0.803324
572 -11.9696 -3.70202 -14.1113
651 -11.1606 -2.94092 -14.1731
1449 -12.0319 -2.94484 -13.3936
282 0.688127 -9.74256 -14.8613
576 -10.4618 -3.67953 -14.189
655 -9.78635 -2.96799 -14.1773
22459 6.79673 -0.0677398 -2.1666
286 2.3117 -9.70838 -14.8698
580 -8.93741 -3.72282 -14.2464
659 -8.17255 -2.95885 -14.2343
19211 -11.1978 -0.00221248 -8.13857
5613 -10.371 -14.9002 -4.43748
584 -7.46046 -3.67467 -14.1675
1381 -7.44515 -4.49611 -13.4734
1382 -6.69439 -3.77098 -13.497
663 -6.66927 -2.99404 -14.2009
1461 -7.44889 -3.04923 -13.4034
22473 11.9588 -0.0340164 -2.90597
588 -5.84524 -3.70482 -14.1503
1386 -5.18383 -3.81299 -13.4622
667 -5.14573 -2.98467 -14.2446
591 -3.72169 -4.42214 -14.1466
562 -14.2514 -3.65374 -14.8896
592 -4.48923 -3.79147 -14.2386
1469 -4.42798 -3.02948 -13.4693
671 -3.73675 -3.02856 -14.2916
873 11.9256 -14.9059 -13.454
596 -2.99098 -3.7478 -14.2183
1394 -2.25819 -3.82379 -13.4443
542 8.18504 -5.23405 -14.9346
518 -0.809307 -5.30642 -14.9245
23257 6.04616 -0.019404 -1.43529
599 -0.72663 -4.51382 -14.1501
600 -1.43591 -3.76013 -14.0913
603 0.721475 -4.64131 -14.1032
604 0.0553212 -3.89422 -14.1883
789 10.518 -1.58605 -14.8719
8758 -0.739122 -0.712537 -0.115747
608 1.53516 -3.73854 -14.118
1405 1.55014 -4.59501 -13.3729
18421 -7.45436 -0.0585564 -10.4835
607 2.25457 -4.56962 -14.1302
612 2.99286 -3.80518 -14.1654
1406 2.26826 -3.85929 -13.3497
687 2.18619 -3.01271 -14.1883
290 3.69471 -9.70364 -14.9232
611 3.76117 -4.51754 -14.2258
616 4.3708 -3.70691 -14.1963
615 5.16565 -4.49802 -14.1481
620 5.97631 -3.75935 -14.1863
214 5.28923 -11.2155 -14.8486
619 6.74817 -4.52707 -14.2748
624 7.46372 -3.66899 -14.2165
597 -1.48681 -4.4575 -14.8404
633 11.931 -4.42143 -14.9118
623 8.1415 -4.47943 -14.2275
628 8.89604 -3.78713 -14.276
24077 13.4527 -0.0465551 0.00254413
19229 -4.45294 -0.0326234 -8.97197
632 10.4456 -3.77232 -14.1535
17629 -4.46618 -0.114065 -12.0346
526 2.22661 -5.26002 -14.8368
631 11.1405 -4.5589 -14.26
636 11.9155 -3.71608 -14.1728
711 11.2126 -2.97227 -14.1809
4025 -6.0167 -14.9054 -7.50322
20049 2.97813 -0.0301072 -7.49167
1675 12.6838 -14.8658 -11.2185
19279 14.1764 -0.0136539 -8.23032
635 12.6928 -4.44217 -14.3088
640 13.4114 -3.71729 -14.1498
1434 12.6021 -3.79781 -13.4246
8546 9.74257 -5.30151 -0.021314
4807 -12.758 -14.9302 -5.27038
644 -14.9278 -2.25653 -14.0799
648 -13.426 -2.17482 -14.2099
723 -14.1731 -1.47287 -14.1638
1525 -13.4141 -1.49032 -13.4202
727 -12.7323 -1.49157 -14.2968
4847 2.22423 -14.9171 -5.22726
652 -11.8958 -2.14489 -14.2019
731 -11.2381 -1.38225 -14.2519
1450 -11.2746 -2.14812 -13.4925
1529 -12.0396 -1.38796 -13.5497
19259 6.74038 -0.00644916 -8.3199
285 1.53015 -10.438 -14.8928
656 -10.5232 -2.1747 -14.1965
89 -11.9659 -13.5447 -14.8948
660 -8.99297 -2.25791 -14.2338
739 -8.21387 -1.58207 -14.2488
21679 14.2513 -0.114403 -3.64746
664 -7.4443 -2.2954 -14.1871
1462 -6.69746 -2.30389 -13.5544
8745 -5.90677 -1.53926 -0.06995
807 -12.7134 -14.9349 -12.687
668 -5.88401 -2.31524 -14.1986
747 -5.17306 -1.56013 -14.2022
672 -4.42631 -2.26419 -14.126
16879 14.1819 -0.0427888 -12.7059
675 -2.22389 -3.00783 -14.1609
676 -3.02565 -2.32659 -14.2639
554 12.6403 -5.26245 -14.8922
16019 -8.16825 -0.0186257 -14.1838
679 -0.731193 -3.08997 -14.2007
680 -1.3865 -2.29842 -14.227
684 0.00581444 -2.30489 -14.1647
273 -2.98747 -10.5123 -14.8597
277 -1.4532 -10.5115 -14.8486
702 8.18047 -2.27293 -14.921
683 0.704278 -3.11441 -14.2546
688 1.43874 -2.24591 -14.1691
1565 1.46335 -1.57323 -13.4527
1485 1.50607 -3.08266 -13.3526
692 2.9268 -2.17785 -14.0775
767 2.152 -1.5066 -14.2542
3257 5.90819 -14.9072 -8.97236
16861 7.38498 -0.0811499 -13.4199
691 3.77144 -2.91872 -14.1845
696 4.50714 -2.26547 -14.218
1493 4.47113 -2.97779 -13.4628
771 3.70059 -1.53023 -14.2572
16833 -2.96522 -0.0217532 -13.4052
695 5.19325 -3.12257 -14.2061
700 5.9152 -2.32475 -14.2397
1494 5.30192 -2.35803 -13.4795
23261 7.52222 -0.12431 -1.47518
699 6.70276 -2.94407 -14.241
704 7.47635 -2.27645 -14.1054
779 6.54255 -1.54756 -14.1823
1501 7.45554 -2.93928 -13.4173
1498 6.64266 -2.30254 -13.4254
703 8.25997 -2.9713 -14.1886
708 8.95858 -2.24726 -14.1908
3219 -8.22147 -14.8939 -8.23685
19253 4.42046 -0.0595616 -8.93912
17669 10.3206 -0.0260618 -11.9953
707 9.69 -2.98624 -14.1478
712 10.446 -2.31511 -14.15
201 0.0654052 -11.945 -14.896
21643 0.764791 -0.0563134 -3.65137
716 11.9362 -2.21628 -14.1486
791 11.1954 -1.52183 -14.1389
1679 14.1964 -14.9373 -11.3366
715 12.6942 -2.96058 -14.1248
22439 -0.744912 0.000466591 -2.29105
720 13.4216 -2.18383 -14.1531
1597 13.3989 -1.43659 -13.3752
795 12.6857 -1.51687 -14.1052
1514 12.6185 -2.22255 -13.465
1603 -14.2138 -14.8993 -11.173
719 14.2142 -2.97691 -14.1976
799 14.1143 -1.49311 -14.1419
22465 9.05789 -0.0807607 -2.91246
724 14.8645 -0.751837 -14.1874
1522 -14.1874 -0.688209 -13.5102
20057 6.04284 -0.0711021 -7.57617
728 -13.4942 -0.684848 -14.3082
20077 13.4564 -0.045532 -7.55813
732 -11.9922 -0.726779 -14.2786
1530 -11.1766 -0.735291 -13.4998
735 -9.78086 -1.49075 -14.1896
736 -10.3902 -0.716615 -14.257
4809 -11.9068 -14.9008 -5.96002
7219 -8.25378 -14.9107 -0.813612
740 -8.98429 -0.763408 -14.1985
20005 -13.384 -0.0196644 -7.45863
18423 -6.73809 -0.015731 -9.6278
1538 -8.22271 -0.774846 -13.5352
7994 12.6821 -0.813949 -1.58769
2413 -10.4057 -14.9275 -10.475
22407 -12.6658 -0.0256964 -2.21151
3245 1.49609 -14.895 -8.93008
743 -6.6333 -1.56349 -14.1671
744 -7.39548 -0.845411 -14.1746
593 -2.98082 -4.50949 -14.9201
748 -5.95351 -0.819908 -14.2012
1545 -5.90454 -1.58709 -13.4539
1546 -5.24892 -0.800989 -13.505
7991 11.261 -1.48847 -0.67306
751 -3.691 -1.57038 -14.2284
752 -4.42577 -0.727981 -14.1454
1550 -3.67385 -0.77477 -13.4073
7996 11.8979 -0.735352 -0.746578
74 12.6686 -14.1684 -14.909
755 -2.28136 -1.55797 -14.2615
756 -2.97568 -0.784887 -14.1389
4819 -8.18986 -14.8833 -5.25639
21649 2.9788 -0.00926628 -4.45548
3259 6.67217 -14.8497 -8.23708
759 -0.690394 -1.50624 -14.1312
760 -1.41337 -0.825122 -14.1575
22449 2.99514 -0.0148901 -2.9779
4805 -13.4665 -14.865 -6.0434
764 0.000154742 -0.80323 -14.1295
1561 0.0861577 -1.48392 -13.3088
763 0.78168 -1.55561 -14.2268
768 1.44812 -0.758853 -14.1431
772 2.93955 -0.757061 -14.3045
1566 2.19078 -0.755466 -13.4775
21665 8.97963 -0.0589083 -4.56473
776 4.46434 -0.758421 -14.2517
1663 8.25071 -14.8527 -11.1474
1570 3.72855 -0.766778 -13.5472
605 1.51759 -4.47061 -14.8031
2417 -8.96643 -14.8968 -10.3935
775 5.15442 -1.4738 -14.2136
780 5.87555 -0.719768 -14.2592
1577 5.85101 -1.53517 -13.4526
1574 5.28009 -0.789185 -13.3801
682 0.724158 -2.26652 -14.9218
601 -0.085857 -4.53611 -14.9268
784 7.37066 -0.709024 -14.2024
1578 6.55967 -0.796579 -13.4651
16823 -6.6482 -0.0948057 -12.7353
5629 -4.5281 -14.8742 -4.50609
4039 -0.762877 -14.9118 -6.77184
783 8.15896 -1.5844 -14.1667
788 8.97074 -0.740902 -14.1924
3237 -1.58111 -14.9198 -8.99355
6479 14.1792 -14.8911 -2.22051
51 3.75913 -14.8747 -14.2424
787 9.76132 -1.50059 -14.1881
1589 10.45 -1.50662 -13.5042
792 10.3816 -0.76149 -14.1653
22437 -1.4606 -0.0311829 -3.03922
796 11.9335 -0.790404 -14.0656
1590 11.1595 -0.693098 -13.4184
1594 12.6707 -0.746189 -13.3038
737 -8.99836 -1.53505 -14.9122
22403 -14.1684 -0.0257068 -2.22605
800 13.4524 -0.73674 -14.2224
1598 14.212 -0.725027 -13.4553
4845 1.49008 -14.9389 -5.95377
802 -14.261 -14.1058 -13.5199
881 14.8968 -13.3874 -13.4589
20839 -0.760112 -0.0936449 -5.25416
808 -13.466 -14.1869 -12.7095
806 -12.7972 -14.2901 -13.4678
885 -13.4373 -13.4517 -13.4014
1601 -14.9023 -14.9039 -11.9327
810 -11.2091 -14.2918 -13.4728
889 -12.005 -13.4458 -13.4263
812 -11.9473 -14.2094 -12.6729
891 -11.1954 -13.4665 -12.7618
814 -9.68636 -14.1964 -13.4472
816 -10.5067 -14.2028 -12.7143
895 -9.73657 -13.4838 -12.8245
20023 -6.65926 -0.0396898 -6.76966
818 -8.22552 -14.2543 -13.3891
820 -8.9793 -14.2134 -12.6652
1697 -8.96014 -13.4003 -11.9212
822 -6.65137 -14.2648 -13.3487
824 -7.41657 -14.1651 -12.6806
903 -6.74845 -13.3817 -12.5762
1622 -6.7448 -14.2316 -11.9075
828 -5.96532 -14.239 -12.5409
1626 -5.23958 -14.1623 -11.8823
832 -4.47659 -14.1667 -12.5714
1709 -4.53005 -13.3909 -11.9585
911 -3.69059 -13.4758 -12.6714
1630 -3.76208 -14.2471 -11.8804
836 -2.984 -14.1472 -12.6569
1713 -3.04891 -13.468 -11.8301
1634 -2.19902 -14.2809 -12.0324
840 -1.4497 -14.2021 -12.7377
919 -0.733473 -13.4255 -12.7218
1717 -1.50194 -13.4533 -11.8852
2477 13.4657 -14.8656 -10.563
1647 2.28494 -14.9068 -11.2023
844 0.0305347 -14.2366 -12.6395
923 0.727542 -13.4676 -12.6773
848 1.45514 -14.1645 -12.6876
1642 0.701666 -14.143 -11.9261
1725 1.41323 -13.417 -11.9381
846 2.24852 -14.1553 -13.4094
852 3.03275 -14.1683 -12.7591
927 2.26698 -13.3668 -12.7122
1646 2.24836 -14.1184 -11.9264
1729 2.96042 -13.3822 -11.978
856 4.39872 -14.1923 -12.6271
931 3.70689 -13.4485 -12.7145
1650 3.67802 -14.1439 -11.9252
854 5.12244 -14.1668 -13.4645
860 5.9747 -14.105 -12.7071
1654 5.23397 -14.2288 -11.8396
935 5.24991 -13.4784 -12.6072
941 7.45089 -13.4074 -13.4772
864 7.43102 -14.1298 -12.7158
939 6.69518 -13.4479 -12.6863
945 8.98641 -13.2966 -13.4781
21613 -10.4085 -0.0199301 -4.45312
868 8.95763 -14.1061 -12.7006
943 8.16986 -13.4103 -12.6314
4007 -12.7174 -14.8912 -6.76545
866 9.6694 -14.1725 -13.4739
8726 -12.8039 -0.666275 -0.0519901
872 10.3497 -14.1828 -12.7416
1666 9.69195 -14.1551 -12.0225
1749 10.3625 -13.4506 -11.9107
442 0.621078 -6.74654 -14.8875
6417 -8.9177 -14.8575 -2.94699
870 11.157 -14.2084 -13.4741
876 11.797 -14.224 -12.659
1670 11.1477 -14.1612 -11.866
874 12.6178 -14.1639 -13.3916
880 13.3921 -14.1073 -12.5983
955 12.6879 -13.3738 -12.7258
878 14.161 -14.1235 -13.4243
804 14.9285 -14.0618 -12.6453
1678 14.259 -14.1371 -11.913
7992 10.4714 -0.79174 -0.667773
883 -14.2365 -13.4001 -12.6959
882 -14.1895 -12.6862 -13.5028
888 -13.4795 -12.6727 -12.6917
1682 -14.2436 -12.6216 -11.9414
887 -12.6366 -13.438 -12.7163
886 -12.7711 -12.6145 -13.3391
890 -11.1876 -12.6364 -13.4885
892 -11.8647 -12.7353 -12.6425
1690 -11.1475 -12.6396 -11.9862
971 -11.1974 -11.9541 -12.7374
1769 -11.9886 -11.9243 -11.9006
973 -10.3717 -11.9705 -13.4872
896 -10.3624 -12.7574 -12.6725
898 -8.16305 -12.8171 -13.3896
899 -8.14207 -13.4836 -12.7012
897 -8.98105 -13.4972 -13.4965
900 -8.90312 -12.7509 -12.6491
979 -8.23785 -11.9917 -12.7587
1698 -8.16697 -12.736 -11.8611
902 -6.78588 -12.729 -13.3687
904 -7.46987 -12.6642 -12.6237
981 -7.46428 -11.9682 -13.3556
983 -6.81638 -11.8909 -12.6905
907 -5.31624 -13.3798 -12.6079
905 -5.96298 -13.4295 -13.3217
908 -6.06616 -12.6367 -12.6729
987 -5.33362 -11.9502 -12.5676
912 -4.56566 -12.7426 -12.5993
991 -3.71154 -12.0732 -12.7039
989 -4.52662 -11.9724 -13.424
1789 -4.50125 -11.951 -11.9248
915 -2.14801 -13.4213 -12.6343
916 -2.94109 -12.7787 -12.6397
995 -2.2914 -11.9469 -12.6117
1714 -2.20211 -12.7679 -11.9584
920 -1.47737 -12.6536 -12.6979
1797 -1.56121 -12.0229 -11.9037
924 0.0437305 -12.7315 -12.6456
999 -0.758365 -11.9868 -12.6731
1801 -0.081251 -12.0054 -11.9214
1003 0.806952 -11.9193 -12.685
928 1.44522 -12.7013 -12.5418
932 2.99699 -12.6599 -12.7246
1809 2.94209 -11.895 -11.9459
1007 2.23662 -11.9665 -12.7233
1726 2.24484 -12.7069 -11.8784
936 4.55979 -12.717 -12.7299
1730 3.76125 -12.6527 -11.9291
1813 4.50573 -11.9334 -11.9203
934 5.19493 -12.6888 -13.4456
940 5.98251 -12.6978 -12.6651
1015 5.30539 -12.0194 -12.7019
1817 5.93326 -11.9136 -11.9202
938 6.62758 -12.6838 -13.4273
944 7.36826 -12.7517 -12.642
1025 9.0437 -11.9507 -13.5142
942 8.23468 -12.6402 -13.437
948 8.94296 -12.5661 -12.6831
1023 8.11379 -11.9196 -12.7605
949 10.429 -13.4375 -13.4295
947 9.63036 -13.4317 -12.7469
1029 10.4893 -11.9015 -13.4101
952 10.4643 -12.6728 -12.6169
1027 9.74106 -11.9938 -12.5621
951 11.1687 -13.4861 -12.622
950 11.2555 -12.6947 -13.4703
956 11.9939 -12.6802 -12.7
1750 11.2837 -12.63 -11.8125
957 13.4297 -13.4056 -13.4131
954 12.7144 -12.7124 -13.4504