ITEM: TIMESTEP
40000
ITEM: NUMBER OF ATOMS
32000
ITEM: BOX BOUNDS pp pp pp
-1.4938015821857215e+01 1.4938015821857215e+01
-1.4938015821857215e+01 1.4938015821857215e+01
-1.4938015821857215e+01 1.4938015821857215e+01
ITEM: ATOMS id x y z
802 -14.221 -14.2247 -13.4203
83 -14.2103 -13.4955 -14.153
5653 4.44938 -14.9017 -4.52651
513 -2.9873 -5.97897 -14.8995
8 -13.4167 -14.1467 -14.2979
330 -11.2113 -8.21994 -14.8868
593 -2.94276 -4.53125 -14.8893
12 -11.7817 -14.1856 -14.3044
810 -11.1723 -14.2499 -13.5022
369 2.93207 -8.97756 -14.8806
1605 -13.4285 -14.8482 -11.9509
745 -6.02423 -1.49158 -14.9386
16 -10.4411 -14.2348 -14.3342
95 -9.75385 -13.4639 -14.2381
893 -10.5296 -13.4612 -13.5405
20015 -9.63397 -0.0105902 -6.7813
422 -6.72658 -6.67633 -14.9084
20 -8.99571 -14.1993 -14.1941
99 -8.23244 -13.481 -14.1626
897 -8.9881 -13.4984 -13.4178
24 -7.54534 -14.1647 -14.2637
103 -6.73914 -13.5464 -14.2207
681 -0.093996 -3.06971 -14.8737
102 -6.78444 -12.7542 -14.9444
28 -5.9697 -14.2794 -14.2929
107 -5.17313 -13.3407 -14.2622
16807 -12.6364 -0.0620168 -12.6952
7203 -14.1739 -14.9209 -0.816653
32 -4.54919 -14.1618 -14.2869
111 -3.74091 -13.413 -14.249
31 -3.64408 -14.876 -14.1798
1673 11.981 -14.8886 -12.0126
36 -2.9626 -14.0819 -14.3271
261 -7.41069 -10.438 -14.8883
557 13.3377 -5.92485 -14.9093
4079 14.1476 -14.9166 -6.6935
189 -4.55236 -11.9234 -14.9199
40 -1.42523 -14.1993 -14.2499
1623 -6.74409 -14.8977 -11.2501
838 -0.740904 -14.1721 -13.499
44 0.0205961 -14.2082 -14.2807
119 -0.666434 -13.388 -14.1464
23271 11.2091 -0.0219692 -0.734177
349 -4.42353 -8.97572 -14.9197
6407 -12.6964 -14.8499 -2.19032
48 1.47976 -14.0946 -14.2335
123 0.745534 -13.3703 -14.2145
925 1.50787 -13.4107 -13.4459
52 3.02773 -14.2716 -14.3038
127 2.3049 -13.4148 -14.243
7998 14.2522 -0.700297 -1.47868
56 4.44458 -14.1847 -14.2384
131 3.71498 -13.4698 -14.2384
70 11.1074 -14.1943 -14.8917
2449 2.97585 -14.8922 -10.5247
60 5.90933 -14.127 -14.2793
135 5.21354 -13.4236 -14.2225
273 -3.00862 -10.4676 -14.8997
64 7.43743 -14.1908 -14.0935
139 6.69433 -13.3832 -14.2003
646 -12.6567 -2.2207 -14.8926
858 6.69969 -14.1532 -13.5034
68 8.90787 -14.2706 -14.2511
18479 14.0965 -0.00841499 -9.81321
862 8.22014 -14.2399 -13.4362
114 -2.2015 -12.5914 -14.9115
18447 2.2835 -0.0353389 -9.74778
72 10.4223 -14.1483 -14.1341
7217 -8.99669 -14.877 -1.49601
147 9.6633 -13.492 -14.3158
23267 9.7414 -0.0146722 -0.746296
76 11.9141 -14.1568 -14.2381
151 11.1562 -13.4238 -14.2172
870 11.254 -14.2081 -13.3842
953 11.9233 -13.4031 -13.485
4855 5.21322 -14.8752 -5.17813
409 -11.9876 -7.57614 -14.8868
80 13.3843 -14.1625 -14.2473
957 13.472 -13.3698 -13.4296
58 6.68553 -14.2316 -14.9318
4 14.8951 -14.238 -14.1861
159 14.183 -13.4173 -14.1071
878 14.1275 -14.1612 -13.4597
134 5.20544 -12.6403 -14.8606
518 -0.704384 -5.21722 -14.8708
87 -12.7345 -13.47 -14.2201
885 -13.4301 -13.4576 -13.4169
88 -13.4431 -12.768 -14.1691
91 -11.2252 -13.4301 -14.2727
92 -11.9397 -12.6737 -14.1918
889 -11.872 -13.4061 -13.4758
890 -11.1728 -12.6424 -13.4132
96 -10.4088 -12.6386 -14.2371
175 -9.6774 -11.8998 -14.1664
226 9.63317 -11.252 -14.9032
338 -8.14749 -8.24059 -14.9245
100 -8.9524 -12.7332 -14.1763
898 -8.23104 -12.7362 -13.4164
179 -8.22553 -11.9778 -14.2284
977 -8.94742 -11.9389 -13.467
104 -7.50529 -12.6573 -14.242
183 -6.7082 -11.9597 -14.2142
901 -7.50734 -13.4616 -13.4829
902 -6.73161 -12.7579 -13.4075
108 -5.97103 -12.7798 -14.2782
985 -6.03607 -11.9739 -13.5022
187 -5.26113 -11.9571 -14.1989
7211 -11.1396 -14.9366 -0.754212
112 -4.48722 -12.672 -14.201
989 -4.50346 -11.9424 -13.4722
191 -3.71903 -11.8504 -14.1845
910 -3.73451 -12.6408 -13.5577
741 -7.50739 -1.62705 -14.8901
115 -2.22157 -13.3725 -14.2813
116 -2.91995 -12.6146 -14.1773
993 -2.96884 -11.9479 -13.3781
446 2.28663 -6.6342 -14.9157
8578 -8.27196 -3.67551 -0.0329724
16817 -8.89889 -0.027296 -13.409
120 -1.40662 -12.6316 -14.1474
514 -2.26392 -5.25157 -14.9001
921 0.108975 -13.4575 -13.441
4069 10.4477 -14.929 -7.41982
124 0.0845635 -12.6387 -14.1311
918 -0.700367 -12.7045 -13.3596
128 1.56264 -12.6633 -14.1871
203 0.782341 -11.8725 -14.2087
1005 1.60402 -11.9343 -13.5219
132 2.96844 -12.6545 -14.3011
1009 2.94742 -11.9033 -13.4385
4023 -6.78292 -14.9132 -6.66575
23231 -3.67413 -0.0238966 -0.759818
136 4.43906 -12.6678 -14.2078
930 3.68674 -12.7011 -13.434
211 3.74705 -11.9651 -14.1566
1013 4.44938 -11.9504 -13.4386
694 5.28166 -2.25597 -14.8785
23245 1.43299 -0.00433827 -1.43064
140 5.94755 -12.7068 -14.1399
934 5.18019 -12.7436 -13.4639
17661 7.42712 -0.0334632 -11.9945
17669 10.3935 -0.0100551 -11.9908
144 7.48844 -12.6913 -14.1942
219 6.71828 -12.0038 -14.2388
22461 7.55025 -0.0969141 -2.94271
1631 -3.64199 -14.86 -11.2032
6401 14.8722 -14.8137 -2.99707
143 8.2216 -13.4807 -14.2195
21637 -1.51381 -0.0432593 -4.54021
148 8.97977 -12.7828 -14.2916
223 8.20536 -11.9384 -14.1882
1025 8.93505 -11.9545 -13.46
949 10.3526 -13.3861 -13.5722
152 10.4514 -12.6209 -14.2315
227 9.62573 -11.9465 -14.1894
23261 7.47545 -0.0446671 -1.5354
946 9.60872 -12.7056 -13.4005
156 11.8693 -12.6956 -14.2443
325 -13.3985 -9.00016 -14.8958
155 12.6875 -13.4545 -14.3202
160 13.516 -12.6619 -14.1618
429 -4.46803 -7.38902 -14.8639
22419 -8.25266 -0.071891 -2.2556
881 -14.892 -13.4804 -13.4584
84 -14.9223 -12.7251 -14.1388
239 14.2159 -11.9184 -14.2156
958 14.231 -12.7027 -13.4419
163 -14.1918 -11.9919 -14.213
961 14.9094 -11.9794 -13.4306
962 -14.322 -11.1795 -13.5044
167 -12.7589 -11.9852 -14.1386
168 -13.3881 -11.2355 -14.1934
965 -13.481 -11.8427 -13.4186
966 -12.6486 -11.2286 -13.4435
171 -11.2224 -11.9224 -14.2785
172 -12.0242 -11.1261 -14.1833
374 5.20786 -8.22509 -14.9011
1049 -11.9493 -10.4794 -13.3877
176 -10.5023 -11.266 -14.2545
180 -8.92888 -11.2384 -14.217
259 -8.21892 -10.4245 -14.248
184 -7.46417 -11.1565 -14.1629
23273 11.9124 -0.0263833 -1.38846
410 -11.2697 -6.616 -14.8866
188 -6.01636 -11.2532 -14.2251
5613 -10.4072 -14.8938 -4.48668
192 -4.55574 -11.2685 -14.2165
990 -3.72841 -11.121 -13.3757
749 -4.53879 -1.52791 -14.8971
195 -2.13501 -11.857 -14.1469
196 -2.95797 -11.1431 -14.1719
682 0.81256 -2.3292 -14.899
1073 -3.07704 -10.4292 -13.4942
200 -1.38794 -11.1 -14.0989
306 9.85858 -9.66952 -14.9351
590 -3.69055 -3.74539 -14.9266
199 -0.738869 -11.8669 -14.1652
97 -9.02614 -13.4542 -14.9141
204 -0.0656012 -11.1078 -14.1707
1081 -0.0136125 -10.3801 -13.4716
1001 -0.00556263 -11.9233 -13.3939
366 2.1987 -8.20001 -14.9126
208 1.50126 -11.1695 -14.2592
283 0.706989 -10.397 -14.1584
207 2.28784 -11.9431 -14.2438
212 2.98752 -11.1863 -14.1808
287 2.33011 -10.4422 -14.3122
1089 2.96886 -10.4053 -13.5161
216 4.56177 -11.21 -14.1401
291 3.79679 -10.4606 -14.151
1010 3.79339 -11.1714 -13.4159
47 2.27256 -14.897 -14.2187
215 5.27729 -11.9613 -14.1898
220 6.02428 -11.1753 -14.1725
295 5.26483 -10.4136 -14.2016
121 0.0324105 -13.3926 -14.9411
441 0.0258223 -7.49013 -14.9151
224 7.47807 -11.2065 -14.2249
299 6.71093 -10.4892 -14.2391
110 -3.75056 -12.5653 -14.8913
7219 -8.18737 -14.8321 -0.749333
228 8.90365 -11.1411 -14.2613
303 8.28538 -10.3462 -14.2012
1105 9.10376 -10.3338 -13.4437
1029 10.4909 -11.9837 -13.3654
232 10.4192 -11.2602 -14.1745
4859 6.68707 -14.8574 -5.24105
231 11.19 -11.9633 -14.2279
236 11.9657 -11.179 -14.2198
501 -7.48589 -6.022 -14.9002
235 12.7166 -11.9583 -14.2415
240 13.4827 -11.2148 -14.2294
1037 13.4578 -11.9234 -13.538
16063 8.24265 -0.0625682 -14.2653
164 14.8948 -11.1928 -14.2619
319 14.2212 -10.4879 -14.2183
1038 14.1867 -11.2345 -13.5065
243 -14.1919 -10.4834 -14.1919
248 -13.4962 -9.75693 -14.172
1042 -14.1773 -9.76812 -13.4125
8129 2.99758 -13.51 -0.0454426
247 -12.7033 -10.4501 -14.2174
17673 12.038 -0.0221875 -11.9257
1046 -12.6842 -9.7095 -13.4361
251 -11.2825 -10.5374 -14.2076
252 -11.9505 -9.67742 -14.1405
1129 -11.9509 -8.93309 -13.4251
1050 -11.1568 -9.71921 -13.3966
255 -9.77171 -10.4411 -14.3347
256 -10.5498 -9.74155 -14.1224
1054 -9.78377 -9.72316 -13.5405
335 -9.7294 -8.99571 -14.2313
23223 -6.68943 -0.0519748 -0.694412
260 -8.99608 -9.62438 -14.2773
339 -8.25284 -8.95569 -14.1814
1058 -8.19479 -9.71642 -13.5564
613 4.549 -4.44291 -14.9386
263 -6.67516 -10.481 -14.1414
264 -7.42951 -9.65261 -14.1817
343 -6.67837 -8.92722 -14.1658
22469 10.4145 -0.0222086 -2.98476
246 -12.6462 -9.71168 -14.8564
267 -5.26238 -10.4342 -14.1827
268 -5.95722 -9.72953 -14.1362
347 -5.195 -8.99354 -14.1611
250 -11.2155 -9.73304 -14.9419
75 12.6359 -14.8855 -14.277
271 -3.77366 -10.4546 -14.1743
272 -4.48704 -9.69112 -14.2289
16877 13.421 -0.0149874 -13.4505
8725 -13.4328 -1.45433 -0.0298466
8029 -4.47358 -14.8313 -0.0223498
17629 -4.57848 -0.000752738 -11.9157
275 -2.16609 -10.4739 -14.1497
276 -2.98818 -9.73536 -14.2182
355 -2.25123 -8.95679 -14.1188
1074 -2.22922 -9.80069 -13.4034
6457 5.95641 -14.9325 -3.07649
280 -1.48957 -9.71052 -14.2498
1157 -1.49912 -9.04137 -13.4235
279 -0.735422 -10.3488 -14.2325
284 0.0261153 -9.63135 -14.2455
1161 -0.060845 -8.99834 -13.43
288 1.47307 -9.66821 -14.2441
4877 13.4332 -14.8793 -6.01173
1082 0.803048 -9.78103 -13.3993
292 3.03559 -9.71043 -14.2482
367 2.25348 -8.9754 -14.1791
1086 2.2128 -9.69192 -13.4764
871 11.2321 -14.9292 -12.6947
296 4.4787 -9.7109 -14.193
371 3.78783 -8.98244 -14.2797
1090 3.79821 -9.64379 -13.3741
23259 6.70456 -0.0888776 -0.729159
4043 0.727951 -14.9145 -6.71552
300 6.0053 -9.68562 -14.1926
294 5.23529 -9.66921 -14.8475
304 7.45465 -9.71184 -14.2779
379 6.76771 -8.92232 -14.1814
1181 7.53521 -8.95893 -13.4816
449 2.96165 -7.43513 -14.8877
166 -12.7024 -11.2382 -14.9116
308 9.07417 -9.62667 -14.2136
383 8.27057 -9.00277 -14.191
1185 9.01139 -8.97946 -13.4464
307 9.76409 -10.4983 -14.1595
1109 10.4887 -10.4095 -13.3961
312 10.505 -9.66439 -14.0945
1189 10.4181 -8.89453 -13.4443
311 11.2053 -10.3915 -14.1631
316 11.9847 -9.78355 -14.175
391 11.2474 -8.96509 -14.3028
1110 11.3378 -9.61633 -13.4369
78 14.1485 -14.1933 -14.9016
315 12.6859 -10.4993 -14.1419
320 13.3987 -9.70005 -14.3007
594 -2.27424 -3.69866 -14.8845
395 12.7261 -9.00458 -14.2018
1117 13.3894 -10.4322 -13.4422
1114 12.6811 -9.68256 -13.4332
1041 14.9271 -10.3997 -13.5002
244 -14.919 -9.69656 -14.1988
399 14.2388 -9.0455 -14.2653
1118 14.1356 -9.77415 -13.5134
323 -14.1576 -8.97359 -14.1129
324 14.9284 -8.23366 -14.2386
498 -8.20029 -5.14711 -14.9277
327 -12.6937 -8.99647 -14.0864
328 -13.5223 -8.20374 -14.1812
1126 -12.6869 -8.22772 -13.3935
1125 -13.396 -8.95436 -13.4185
331 -11.2728 -8.93536 -14.1623
332 -11.9833 -8.22305 -14.1645
411 -11.2427 -7.46991 -14.186
1130 -11.1957 -8.21467 -13.4409
677 -1.41816 -2.88826 -14.791
336 -10.4831 -8.2671 -14.1859
415 -9.7382 -7.42812 -14.1571
1134 -9.73037 -8.28198 -13.4646
340 -8.97219 -8.25699 -14.2425
1138 -8.25368 -8.20363 -13.4757
1675 12.6595 -14.9249 -11.2198
1141 -7.51728 -8.94398 -13.3658
344 -7.44399 -8.16621 -14.1177
348 -5.93165 -8.2422 -14.2139
1146 -5.2793 -8.14479 -13.4619
427 -5.20395 -7.41709 -14.1529
351 -3.7717 -9.04863 -14.1684
352 -4.49231 -8.10358 -14.1439
431 -3.71238 -7.54143 -14.146
22403 -14.1352 -0.0773623 -2.30405
1149 -4.54447 -8.93762 -13.4698
20825 -5.90649 -0.0544811 -5.93379
356 -2.92622 -8.25895 -14.1957
435 -2.21902 -7.51983 -14.2338
22453 4.50062 -0.0258482 -2.87246
1233 -2.96378 -7.4981 -13.4456
359 -0.757977 -8.92505 -14.1885
360 -1.52216 -8.23546 -14.1975
1237 -1.59552 -7.54474 -13.403
364 -0.021643 -8.24508 -14.1788
194 -2.20073 -11.179 -14.8345
363 0.739983 -8.96486 -14.2519
368 1.4539 -8.23171 -14.207
372 3.06043 -8.18213 -14.2215
1166 2.29496 -8.2829 -13.5302
447 2.28845 -7.46407 -14.1315
1169 3.04025 -9.00013 -13.5365
1249 2.94765 -7.41944 -13.3749
376 4.47796 -8.24315 -14.2722
1170 3.70847 -8.12045 -13.4594
451 3.83159 -7.39676 -14.197
1173 4.42056 -8.8304 -13.408
375 5.1718 -8.93783 -14.1554
380 5.95659 -8.19696 -14.1592
1174 5.26511 -8.19377 -13.4394
455 5.19992 -7.39723 -14.2278
4811 -11.18 -14.8809 -5.19083
384 7.48817 -8.23345 -14.1423
1178 6.76209 -8.24662 -13.4802
18419 -8.20782 -0.01588 -9.75193
598 -0.826511 -3.75978 -14.8466
388 8.97961 -8.24811 -14.16
1265 8.93437 -7.50576 -13.474
1182 8.22686 -8.20762 -13.4448
23253 4.52034 -0.0350821 -1.61218
509 -4.43482 -5.94846 -14.9022
387 9.74839 -8.93269 -14.1295
392 10.4716 -8.10148 -14.197
467 9.70626 -7.47838 -14.1328
396 11.9268 -8.14049 -14.168
471 11.2577 -7.45139 -14.3112
1273 11.9693 -7.49104 -13.4967
23211 -11.1761 -0.0174389 -0.72547
400 13.5154 -8.3211 -14.1821
1121 14.9225 -8.97572 -13.4434
1198 14.223 -8.25459 -13.4843
761 0.000493023 -1.53694 -14.9014
403 -14.1953 -7.518 -14.1975
1202 -14.1314 -6.68105 -13.4332
404 -14.9217 -6.73265 -14.2517
1201 -14.8781 -7.39834 -13.4248
1205 -13.4775 -7.53155 -13.4737
407 -12.7203 -7.55654 -14.138
408 -13.3592 -6.7309 -14.2597
1206 -12.7132 -6.77069 -13.4028
1285 -13.3944 -5.94932 -13.412
412 -12.0222 -6.68496 -14.1581
1289 -12.001 -5.98481 -13.4889
1210 -11.1859 -6.59283 -13.4948
6405 -13.3943 -14.858 -2.95564
1213 -10.4092 -7.50087 -13.4381
416 -10.4238 -6.72104 -14.1315
1214 -9.68059 -6.68281 -13.4511
193 -2.96422 -11.8968 -14.8493
419 -8.20293 -7.47211 -14.1911
420 -8.96456 -6.63572 -14.2117
1218 -8.35052 -6.7001 -13.4482
1217 -9.01216 -7.51919 -13.5046
8110 -3.84091 -12.6631 -0.00717935
1221 -7.49859 -7.43899 -13.4326
423 -6.71689 -7.41667 -14.2186
424 -7.57194 -6.7381 -14.1904
1222 -6.74979 -6.68632 -13.4616
4001 14.893 -14.9044 -7.5056
1225 -5.99647 -7.4327 -13.5401
428 -5.92483 -6.67054 -14.2415
1226 -5.25052 -6.71826 -13.4747
16051 3.80869 0.00124026 -14.2599
1305 -5.94517 -5.9578 -13.4791
432 -4.46778 -6.69594 -14.128
511 -3.69173 -5.96083 -14.1228
1309 -4.49726 -5.95172 -13.4338
8786 9.75213 -0.82095 -0.024865
436 -2.9402 -6.76157 -14.1506
515 -2.21171 -5.98111 -14.1489
1234 -2.25779 -6.73313 -13.3496
440 -1.57644 -6.74907 -14.0979
439 -0.732894 -7.49701 -14.0988
444 0.0265249 -6.7741 -14.2237
853 4.52198 -14.9029 -13.493
443 0.713291 -7.56514 -14.2043
448 1.53388 -6.7399 -14.1444
452 3.05132 -6.77298 -14.2022
1246 2.18136 -6.74733 -13.4614
527 2.3139 -5.88904 -14.2066
1329 2.9195 -5.9819 -13.519
382 8.24135 -8.1836 -14.8888
686 2.25446 -2.22406 -14.8926
456 4.53356 -6.65384 -14.2327
531 3.79753 -5.97051 -14.1916
16803 -14.2886 -0.0169309 -12.6372
1250 3.68515 -6.78805 -13.4467
1253 4.46617 -7.44733 -13.4498
1333 4.45791 -6.03543 -13.4527
274 -2.24038 -9.61892 -14.9104
460 5.99806 -6.668 -14.1772
3247 2.266 -14.8975 -8.227
459 6.71205 -7.45632 -14.1697
464 7.52697 -6.66833 -14.2571
539 6.81206 -5.97116 -14.2357
8706 9.71977 -2.32547 -0.0584642
463 8.29528 -7.48756 -14.2486
468 8.92391 -6.76724 -14.2632
16873 11.9731 -0.0632721 -13.4324
5679 14.2078 -14.9054 -3.7813
472 10.4691 -6.75952 -14.2905
1269 10.4896 -7.42476 -13.4281
1349 10.4274 -6.01387 -13.4663
2403 -14.2848 -14.887 -9.80052
476 12.0119 -6.76592 -14.181
475 12.7263 -7.57024 -14.2248
480 13.3997 -6.6767 -14.1888
1277 13.4575 -7.48202 -13.5639
3223 -6.72034 -14.9341 -8.19828
322 -14.1635 -8.27233 -14.9009
479 14.1457 -7.49182 -14.1805
1278 14.2407 -6.7386 -13.4265
483 -14.1463 -5.98484 -14.1724
484 -14.9381 -5.25605 -14.1455
20019 -8.17153 -0.013688 -6.5996
487 -12.7315 -5.96367 -14.3114
488 -13.5094 -5.25212 -14.2263
3203 -14.2939 -14.9169 -8.24385
491 -11.2366 -5.90465 -14.1908
23269 10.4083 -0.0107083 -1.44659
492 -12.0285 -5.26376 -14.2249
1290 -11.2827 -5.20245 -13.4468
673 -2.95855 -2.96409 -14.8877
495 -9.71138 -5.98357 -14.2215
496 -10.4814 -5.20264 -14.2085
1294 -9.73744 -5.1895 -13.4465
774 5.29642 -0.768472 -14.8949
499 -8.24534 -5.87895 -14.2366
500 -8.9798 -5.18869 -14.2422
579 -8.28963 -4.4245 -14.309
6443 0.767935 -14.9179 -2.23177
19257 5.98673 -0.0785707 -8.83454
16861 7.48904 -0.0088416 -13.5089
503 -6.72595 -5.92316 -14.1242
504 -7.46769 -5.21901 -14.2293
583 -6.68478 -4.53232 -14.2738
35 -2.22897 -14.7967 -14.2491
766 2.28521 -0.73793 -14.9391
507 -5.18912 -5.97117 -14.1813
508 -5.98222 -5.28529 -14.193
587 -5.2025 -4.44598 -14.1743
22445 1.52933 -0.0377106 -2.93424
23209 -11.9836 -0.0935599 -1.42814
512 -4.46794 -5.16363 -14.2524
16079 14.2153 -0.077164 -14.2245
334 -9.72117 -8.16485 -14.8961
516 -3.05132 -5.21104 -14.2005
1313 -3.02785 -6.0002 -13.4237
519 -0.722632 -6.02143 -14.1698
1317 -1.39359 -5.96242 -13.4253
520 -1.44595 -5.21635 -14.1533
599 -0.740473 -4.52629 -14.1706
1318 -0.729199 -5.22526 -13.3665
3229 -4.3883 -14.9055 -8.98552
524 0.0639173 -5.17924 -14.1717
523 0.771825 -6.0115 -14.1874
603 0.732011 -4.42543 -14.1319
528 1.51049 -5.14998 -14.1461
1405 1.51143 -4.49937 -13.3414
532 3.05247 -5.21131 -14.164
1409 3.06688 -4.52215 -13.3591
1609 -11.8853 -14.9139 -11.9613
4827 -5.29453 -14.8862 -5.25295
536 4.56495 -5.15344 -14.1769
611 3.88024 -4.39767 -14.1207
17601 14.8346 -0.0307289 -11.9038
1413 4.51016 -4.46868 -13.3482
535 5.18746 -5.96476 -14.2278
540 5.99848 -5.14875 -14.2068
526 2.27025 -5.12266 -14.909
5633 -2.94309 -14.9529 -4.51732
544 7.43486 -5.18851 -14.1531
606 2.16671 -3.71987 -14.8736
1338 6.76356 -5.22429 -13.4476
543 8.23363 -5.94587 -14.1389
1345 8.9629 -6.06333 -13.4135
548 8.99017 -5.24115 -14.2231
623 8.29506 -4.36566 -14.2661
1342 8.22967 -5.25798 -13.4656
17655 5.24795 -0.0193927 -11.1563
746 -5.28656 -0.827775 -14.7981
547 9.68715 -6.0806 -14.2294
552 10.3436 -5.18926 -14.272
6421 -7.43737 -14.8777 -2.97961
551 11.2366 -6.05996 -14.3278
556 11.9137 -5.306 -14.1595
16851 3.79086 -0.0133001 -12.7936
7239 -0.798042 -14.924 -0.699305
2477 13.3422 -14.8957 -10.4479
555 12.6589 -6.01344 -14.1316
560 13.3066 -5.18751 -14.1997
1354 12.6572 -5.2616 -13.4114
19277 13.4686 -0.010705 -8.97891
559 14.0688 -6.00472 -14.1965
563 -14.2384 -4.49462 -14.1691
1361 14.8658 -4.50301 -13.4468
3241 -0.113202 -14.9008 -8.98472
567 -12.7474 -4.51664 -14.1532
568 -13.5348 -3.80727 -14.3418
1445 -13.4701 -2.97884 -13.4989
20033 -3.06876 -0.0264163 -7.47331
571 -11.3331 -4.54092 -14.1741
572 -11.9753 -3.73262 -14.2299
1370 -11.2129 -3.72238 -13.4165
18457 6.076 -0.105278 -10.4337
575 -9.79926 -4.47126 -14.2489
576 -10.5001 -3.72539 -14.1725
655 -9.71545 -3.00997 -14.224
1453 -10.5396 -2.99591 -13.4853
1373 -10.5985 -4.47952 -13.3859
1374 -9.74047 -3.71837 -13.4938
262 -6.7113 -9.71372 -14.8369
580 -9.03826 -3.71907 -14.2459
659 -8.26575 -2.92367 -14.2493
1378 -8.29082 -3.78402 -13.4625
584 -7.50005 -3.71315 -14.206
1382 -6.77297 -3.69017 -13.49
663 -6.72225 -2.92497 -14.1912
8477 13.4141 -7.49189 -0.0238026
1385 -6.03245 -4.49861 -13.5385
6455 5.25172 -14.9231 -2.30988
588 -5.98683 -3.75514 -14.2618
667 -5.18077 -2.98924 -14.2682
16055 5.29329 -0.0184522 -14.1536
591 -3.77479 -4.52355 -14.1353
592 -4.45403 -3.7163 -14.2387
1390 -3.70662 -3.67972 -13.4257
671 -3.65654 -2.95257 -14.2258
18475 12.6918 -0.0668821 -9.74494
595 -2.25012 -4.45061 -14.1723
596 -2.98908 -3.77504 -14.1521
600 -1.52894 -3.67196 -14.1921
1398 -0.836736 -3.58339 -13.4329
604 -0.0129679 -3.77343 -14.1763
1402 0.737351 -3.7058 -13.49
608 1.48996 -3.70774 -14.1008
805 -13.4188 -14.8801 -13.4864
445 1.54241 -7.41577 -14.9103
607 2.2429 -4.44629 -14.1622
612 3.00473 -3.70931 -14.115
1406 2.25259 -3.85971 -13.361
1489 2.94286 -2.99914 -13.3321
5625 -5.90355 -14.9392 -4.51059
616 4.56829 -3.74433 -14.2232
691 3.78318 -3.03547 -14.1395
1410 3.69623 -3.69309 -13.4334
23265 9.03684 -0.112112 -1.45396
210 3.75798 -11.1223 -14.9099
615 5.31355 -4.41981 -14.1723
620 6.00615 -3.68443 -14.1576
1414 5.25392 -3.68591 -13.4379
2405 -13.4826 -14.8583 -10.5263
619 6.74039 -4.44606 -14.1929
624 7.51468 -3.76987 -14.2861
699 6.79591 -3.04115 -14.1789
22429 -4.41329 -0.0384721 -2.95464
628 9.00068 -3.7193 -14.2258
16867 9.66773 -0.0490079 -12.6939
1422 8.24976 -3.73685 -13.5086
20021 -7.54421 -0.0252986 -7.47926
627 9.6394 -4.44462 -14.2858
632 10.4142 -3.69857 -14.2455
707 9.74216 -2.88771 -14.2233
631 11.164 -4.3727 -14.2838
636 11.9289 -3.76224 -14.1999
477 13.4774 -7.49633 -14.88
635 12.6544 -4.48205 -14.105
640 13.5543 -3.77082 -14.1404
715 12.6745 -2.94986 -14.1372
221 7.4294 -11.9993 -14.9068
530 3.80028 -5.12364 -14.8841
639 14.1976 -4.51815 -14.2538
564 14.8442 -3.7298 -14.1237
643 -14.1771 -2.96607 -14.262
1442 -14.1959 -2.19234 -13.5229
723 -14.1854 -1.49861 -14.1591
23217 -8.98256 -0.0555857 -1.41786
647 -12.7398 -2.98928 -14.2146
648 -13.4599 -2.26005 -14.2119
727 -12.8339 -1.47474 -14.2819
1525 -13.463 -1.49065 -13.3959
582 -6.71245 -3.66159 -14.9091
651 -11.2392 -3.01111 -14.3229
1449 -11.8899 -2.99005 -13.5658
652 -11.905 -2.19088 -14.1259
1450 -11.1495 -2.1893 -13.4299
1529 -11.9628 -1.50294 -13.4659
265 -5.96845 -10.4443 -14.9325
656 -10.4174 -2.29128 -14.1515
660 -9.07315 -2.26067 -14.1247
739 -8.23769 -1.6176 -14.1922
20811 -11.1525 -0.0948306 -5.26918
1665 8.9675 -14.9238 -11.9806
3219 -8.2473 -14.8729 -8.19456
664 -7.48977 -2.36303 -14.2307
1461 -7.53154 -2.98541 -13.4194
20831 -3.69769 -0.00784273 -5.2522
1465 -5.91751 -2.98472 -13.5039
668 -5.93582 -2.25632 -14.2642
1466 -5.25708 -2.25275 -13.4896
653 -10.516 -2.91082 -14.8942
672 -4.44972 -2.30251 -14.0935
751 -3.74841 -1.50365 -14.1198
23263 8.25771 -0.0982632 -0.699206
675 -2.29458 -2.97622 -14.1564
676 -2.96319 -2.19549 -14.1519
1474 -2.22571 -2.19313 -13.385
755 -2.20519 -1.50345 -14.2178
679 -0.685807 -2.93261 -14.1525
680 -1.40225 -2.22593 -13.981
759 -0.758714 -1.47726 -14.1055
1478 -0.652241 -2.24426 -13.3871
683 0.730294 -3.01557 -14.1673
684 0.0705166 -2.24611 -14.1944
1482 0.653981 -2.28106 -13.3713
688 1.55291 -2.31633 -14.0894
1565 1.50688 -1.51742 -13.4239
687 2.27072 -3.06335 -14.1498
692 3.08177 -2.33684 -14.1198
767 2.44924 -1.49776 -14.1291
696 4.51386 -2.24882 -14.237
1490 3.75252 -2.21256 -13.4233
16857 6.03256 -0.0541323 -13.3536
695 5.26486 -3.01896 -14.1652
700 6.034 -2.23157 -14.1716
775 5.24346 -1.48466 -14.1534
6479 14.2022 -14.935 -2.25078
704 7.51525 -2.251 -14.1937
1498 6.75148 -2.30957 -13.5117
8618 6.73457 -3.79301 -0.0223501
703 8.20901 -2.982 -14.296
708 8.97702 -2.21726 -14.137
1505 8.94599 -3.03444 -13.4563
1502 8.24374 -2.27728 -13.3857
783 8.16491 -1.49604 -14.2122
712 10.4996 -2.28323 -14.2391
1506 9.76476 -2.24698 -13.3991
787 9.7707 -1.54358 -14.0861
8394 12.7047 -8.1825 -0.0646032
711 11.117 -3.02885 -14.2758
716 11.855 -2.22986 -14.1992
3239 -0.701251 -14.8838 -8.18479
197 -1.37379 -11.9019 -14.8834
720 13.4343 -2.29164 -14.1582
153 11.8692 -13.4342 -14.9182
654 -9.73155 -2.1507 -14.9381
719 14.1398 -2.97635 -14.1495
644 -14.9236 -2.19076 -14.2823
799 14.1674 -1.42822 -14.1408
19243 0.806953 -0.000206878 -8.15637
8502 -6.66027 -5.20882 -0.00184147
20859 6.71813 -0.0313398 -5.14769
20827 -5.19727 -0.0580228 -5.1703
728 -13.5022 -0.758021 -14.1987
1526 -12.7833 -0.734155 -13.4804
3249 2.94052 -14.9127 -9.06697
19231 -3.75034 -0.0132334 -8.2611
20067 9.72282 0.00189758 -6.84112
637 13.3538 -4.50428 -14.8894
731 -11.1657 -1.53777 -14.1737
732 -11.9195 -0.760275 -14.2118
22459 6.69697 -0.0263093 -2.33573
18455 5.32661 -0.0937044 -9.65613
735 -9.82631 -1.41869 -14.2323
736 -10.5138 -0.645615 -14.2298
1534 -9.78979 -0.669414 -13.4768
19209 -12.0274 -0.062036 -9.02267
740 -8.96329 -0.77219 -14.1896
743 -6.7654 -1.56498 -14.2279
744 -7.44111 -0.778392 -14.2524
1669 10.5351 -14.9421 -12.0338
558 14.1531 -5.26242 -14.933
747 -5.22376 -1.62087 -14.2521
748 -5.95892 -0.773498 -14.0755
2417 -9.06009 -14.9045 -10.5125
8734 -9.72816 -0.747874 -0.0836329
1549 -4.47677 -1.58901 -13.3736
752 -4.52815 -0.800067 -14.1723
756 -2.96849 -0.721511 -14.1946
20819 -8.16559 -0.0263289 -5.19228
760 -1.43724 -0.796551 -14.1056
1557 -1.38558 -1.4724 -13.3313
1558 -0.699397 -0.699957 -13.377
1561 -0.00939839 -1.47532 -13.4485
764 -0.0487344 -0.6931 -14.1304
533 4.52757 -5.86944 -14.9342
17679 14.1036 -0.0364812 -11.1723
763 0.721509 -1.53348 -14.1696
8310 11.2391 -9.66342 -0.0619315
768 1.53327 -0.715006 -14.187
6453 4.47502 -14.8612 -2.9887
689 2.94097 -2.99763 -14.9218
772 3.04611 -0.759255 -14.2742
169 -12.0181 -11.8575 -14.9325
771 3.74665 -1.52764 -14.1663
776 4.5316 -0.713802 -14.1567
21633 -3.03847 -0.0200405 -4.48738
2407 -12.6934 -14.854 -9.84393
780 6.02469 -0.74677 -14.1962
1574 5.18435 -0.735074 -13.4126
2467 9.67326 -14.8929 -9.6708
674 -2.13878 -2.21563 -14.8607
8290 3.76383 -9.79396 -0.0569196
1581 7.51844 -1.50191 -13.4587
779 6.7686 -1.46183 -14.1775
784 7.49916 -0.742927 -14.2196
1578 6.75978 -0.750591 -13.412
855 5.26691 -14.8951 -12.813
788 8.96761 -0.757113 -14.1488
7 -12.6365 -14.9254 -14.2488
389 10.488 -8.92617 -14.9192
792 10.4239 -0.791314 -14.1713
1586 9.7113 -0.737351 -13.4689
16003 -14.2381 -0.0198276 -14.1758
157 13.5353 -13.3567 -14.9179
791 11.2378 -1.49699 -14.1287
796 11.964 -0.725827 -14.1816
1590 11.2333 -0.803529 -13.3475
20047 2.33662 -0.0225223 -6.68006
17653 4.50807 -0.0784062 -11.9718
8718 14.2405 -2.22243 -0.132377
795 12.601 -1.49433 -14.123
800 13.463 -0.745664 -14.1594
609 3.03118 -4.37658 -14.8064
724 -14.9037 -0.813344 -14.1293
7205 -13.5075 -14.9128 -1.52512
789 10.4624 -1.51211 -14.8951
8738 -8.2142 -0.680279 -0.0249635
804 14.8762 -14.1982 -12.6422
883 -14.2001 -13.4732 -12.6219
8197 -1.53119 -11.8734 -0.0503837
806 -12.6725 -14.1838 -13.5057
20075 12.7385 -0.0110104 -6.78181
808 -13.433 -14.1069 -12.648
1606 -12.666 -14.2171 -11.8946
3271 11.1639 -14.906 -8.08978
812 -11.9806 -14.1821 -12.6702
891 -11.1904 -13.5107 -12.7975
1610 -11.1848 -14.2557 -12.0528
22457 5.93136 -0.016521 -3.05273
814 -9.74001 -14.1394 -13.4712
816 -10.4406 -14.1927 -12.7526
895 -9.71889 -13.4463 -12.6577
818 -8.261 -14.2206 -13.4922
820 -9.02373 -14.2716 -12.6419
899 -8.22735 -13.4218 -12.704
7247 2.27228 -14.9048 -0.704577
822 -6.75012 -14.202 -13.4609
824 -7.52014 -14.1328 -12.7061
1622 -6.71121 -14.2583 -12.0546
826 -5.22598 -14.2059 -13.5863
905 -5.98372 -13.4782 -13.5163
828 -5.95007 -14.3359 -12.6915
907 -5.28281 -13.4005 -12.6506
1705 -6.06352 -13.5157 -12.0179
1626 -5.23004 -14.2229 -11.9447
830 -3.69952 -14.1782 -13.376
832 -4.51676 -14.1212 -12.695
1630 -3.74818 -14.1497 -11.9546
4053 4.48139 -14.8593 -7.45191
913 -3.0218 -13.3458 -13.5211
834 -2.23667 -14.1223 -13.4842
836 -2.98936 -14.0701 -12.7366
915 -2.26352 -13.4273 -12.784
840 -1.42803 -14.1913 -12.7299
1638 -0.667971 -14.1728 -11.9434
1717 -1.32405 -13.4174 -11.9949
839 -0.731386 -14.8978 -12.6789
844 0.0457206 -14.1963 -12.6688
1642 0.726114 -14.2336 -11.9158
919 -0.631854 -13.4861 -12.7226
842 0.796177 -14.2405 -13.3792
848 1.53422 -14.1997 -12.6893
846 2.2013 -14.1595 -13.4582
852 2.98438 -14.1787 -12.7869
927 2.10867 -13.4487 -12.6274
1729 2.91404 -13.4299 -12.0399
929 3.04218 -13.4432 -13.5726
8000 13.452 -0.786434 -0.793591
850 3.74784 -14.1676 -13.4917
856 4.52735 -14.206 -12.6955
931 3.69621 -13.5106 -12.6642
933 4.37995 -13.4386 -13.4324
1650 3.72747 -14.2142 -11.975
854 5.16437 -14.1322 -13.5104
860 5.97008 -14.2056 -12.7865
935 5.22731 -13.4252 -12.7804
937 5.96951 -13.4486 -13.4395
941 7.4804 -13.4266 -13.502
864 7.4652 -14.1698 -12.6928
939 6.79178 -13.3953 -12.7369
945 9.00669 -13.5294 -13.5464
7990 11.2767 -0.881185 -1.43975
868 8.94958 -14.2267 -12.7205
943 8.2163 -13.5069 -12.6786
1745 8.94491 -13.4977 -11.9359
866 9.66766 -14.2768 -13.4819
872 10.4889 -14.1399 -12.7453
947 9.71417 -13.4996 -12.7611
1666 9.65766 -14.1787 -11.9763
7996 11.9644 -0.870294 -0.724691
876 12.0387 -14.208 -12.6882
951 11.2273 -13.458 -12.6716
1670 11.1736 -14.1809 -11.9385
22413 -10.5216 -0.00133868 -3.01774
874 12.6977 -14.1191 -13.5178
880 13.4002 -14.2507 -12.7298
358 -0.766415 -8.21089 -14.919
959 14.2526 -13.4089 -12.6236
1678 14.221 -14.1901 -11.8722
882 -14.1957 -12.5866 -13.402
1682 -14.2208 -12.7195 -11.9819
1681 -14.8952 -13.4543 -11.8961
1685 -13.4942 -13.4358 -11.8919
887 -12.6358 -13.4125 -12.6786
886 -12.6059 -12.7414 -13.4394
888 -13.3905 -12.7134 -12.6443
892 -11.891 -12.6522 -12.6487
971 -11.2204 -11.9214 -12.6904
894 -9.76819 -12.6397 -13.4409
896 -10.4547 -12.6872 -12.693
975 -9.77265 -11.9577 -12.7115
1773 -10.4789 -11.8713 -11.9211
900 -9.01433 -12.6849 -12.6405
1698 -8.13994 -12.6737 -11.9637
979 -8.25864 -12.0233 -12.8082
1697 -8.87501 -13.3122 -11.9089
981 -7.46187 -11.9835 -13.4781
903 -6.74171 -13.4585 -12.7918
904 -7.4801 -12.7835 -12.7229
983 -6.76963 -11.9538 -12.7519
906 -5.24812 -12.5857 -13.5087
908 -6.00782 -12.728 -12.7132
987 -5.20626 -11.9405 -12.6642
909 -4.47287 -13.488 -13.4886
911 -3.74225 -13.3702 -12.6869
912 -4.49381 -12.7068 -12.7518
991 -3.7386 -11.9851 -12.7102
1710 -3.82048 -12.7284 -11.9544
1789 -4.49536 -11.9591 -11.8939
914 -2.20469 -12.6837 -13.3706
916 -2.9706 -12.7855 -12.7253
917 -1.5353 -13.4778 -13.4828
920 -1.40043 -12.5825 -12.7288
1718 -0.702555 -12.6002 -11.9885
924 0.0246748 -12.6143 -12.6668
1722 0.80998 -12.6942 -12.0419
1801 0.0783229 -11.8974 -12.0162
923 0.801868 -13.4491 -12.6794
922 0.756746 -12.6489 -13.4072
928 1.50137 -12.6617 -12.8027
1003 0.837059 -11.9006 -12.7231
926 2.28878 -12.7464 -13.4638
932 2.96361 -12.6356 -12.7356
1007 2.25434 -11.9353 -12.7182
1809 2.90076 -11.9129 -11.9254
1726 2.18072 -12.6538 -11.9867
936 4.41305 -12.7358 -12.7746
1017 5.90303 -11.9309 -13.426
940 5.99729 -12.6886 -12.7287
1015 5.14797 -11.9651 -12.727
1734 5.17589 -12.6865 -12.0038
938 6.73794 -12.6398 -13.4088
944 7.57175 -12.76 -12.736
1021 7.45851 -11.9557 -13.4287
1738 6.7238 -12.7629 -12.0288
942 8.26932 -12.6871 -13.5717
948 8.90887 -12.7563 -12.7111
1023 8.13796 -11.9668 -12.6744
952 10.4391 -12.7851 -12.7349
1746 9.66557 -12.7143 -11.9443
950 11.1251 -12.7004 -13.4293
956 11.9632 -12.7587 -12.6666
1031 11.2452 -11.966 -12.727
1750 11.2386 -12.7227 -11.9614
954 12.7151 -12.7388 -13.576
955 12.7328 -13.4218 -12.6879
1754 12.6772 -12.6744 -11.9602
884 -14.9273 -12.7115 -12.7724
960 13.5051 -12.6437 -12.7086
1757 13.4504 -13.4023 -11.9952
1758 14.2008 -12.6542 -11.9291
963 -14.2429 -11.9167 -12.7236
1762 -14.1871 -11.1766 -11.955
1841 -14.8967 -10.496 -11.9135
967 -12.6541 -11.8346 -12.6009
968 -13.4881 -11.2147 -12.6417
1766 -12.6746 -11.0828 -11.8757
969 -11.958 -11.9602 -13.4993
970 -11.3089 -11.1791 -13.4032
972 -11.9021 -11.0877 -12.6131
1770 -11.1485 -11.1189 -11.9166
1849 -11.9311 -10.3719 -11.9307
974 -9.64982 -11.2245 -13.425
973 -10.4787 -11.9125 -13.4097
976 -10.5024 -11.2099 -12.6415
1053 -10.5254 -10.5588 -13.5085