ITEM: TIMESTEP
50000
ITEM: NUMBER OF ATOMS
32000
ITEM: BOX BOUNDS pp pp pp
-1.4938015821857215e+01 1.4938015821857215e+01
-1.4938015821857215e+01 1.4938015821857215e+01
-1.4938015821857215e+01 1.4938015821857215e+01
ITEM: ATOMS id x y z
4 -14.9144 -14.2146 -14.2338
17603 -14.1889 -0.0811527 -11.205
6459 6.72765 -14.9211 -2.16855
8 -13.4821 -14.1686 -14.197
294 5.17484 -9.74979 -14.8841
1669 10.4281 -14.9276 -11.9755
593 -3.02799 -4.46334 -14.9024
1623 -6.73674 -14.8704 -11.1811
12 -12.0665 -14.201 -14.1622
810 -11.2479 -14.2379 -13.4283
16857 5.911 -0.0411851 -13.4336
16 -10.4881 -14.2715 -14.2379
814 -9.69156 -14.2369 -13.4543
7213 -10.5884 -14.9317 -1.49879
17653 4.40456 -0.00873711 -11.9579
20 -8.9473 -14.2743 -14.2179
99 -8.22062 -13.4263 -14.2298
253 -10.486 -10.3821 -14.9526
1625 -5.88898 -14.874 -11.9407
24 -7.50483 -14.0798 -14.1976
18475 12.7448 -0.0369894 -9.69564
306 9.78629 -9.7378 -14.9293
825 -5.93554 -14.8487 -13.3541
28 -5.89026 -14.1369 -14.1956
32 -4.543 -14.1668 -14.2366
161 14.9065 -11.9495 -14.9137
6445 1.50725 -14.9216 -2.98884
830 -3.67944 -14.0609 -13.457
405 -13.4983 -7.42224 -14.8899
36 -3.01259 -14.2794 -14.1916
1637 -1.43239 -14.9078 -11.8833
20837 -1.51491 -0.0441801 -6.01148
40 -1.47448 -14.1874 -14.1763
838 -0.715421 -14.1584 -13.448
1635 -2.22761 -14.9437 -11.1745
44 0.0996094 -14.2345 -14.2382
123 0.696989 -13.4594 -14.0768
921 -0.0163757 -13.4189 -13.4013
48 1.39651 -14.169 -14.1433
842 0.751673 -14.1942 -13.3845
265 -5.92372 -10.5174 -14.8995
7999 14.1488 -1.60047 -0.764247
52 3.06091 -14.1001 -14.2134
127 2.202 -13.3882 -14.2392
846 2.25574 -14.1303 -13.4388
778 6.78999 -0.806368 -14.8241
56 4.56668 -14.1164 -14.266
131 3.75288 -13.4199 -14.2392
4805 -13.4585 -14.8916 -5.96163
546 9.69776 -5.33653 -14.8334
60 5.96016 -14.0763 -14.1675
135 5.20133 -13.3591 -14.224
937 6.04505 -13.4073 -13.4764
64 7.45573 -14.2082 -14.1884
139 6.77523 -13.3945 -14.2292
858 6.73614 -14.1165 -13.5027
941 7.43915 -13.3983 -13.4706
770 3.71659 -0.741306 -14.9129
7924 14.8873 -0.723511 -0.66173
68 8.8789 -14.1359 -14.0471
6405 -13.5083 -14.9463 -2.96112
6437 -1.55416 -14.8436 -3.03355
72 10.3729 -14.1931 -14.1986
147 9.62036 -13.3555 -14.1314
277 -1.55187 -10.3935 -14.9209
861 7.44689 -14.9271 -13.4482
594 -2.21792 -3.8152 -14.8658
76 11.9409 -14.2552 -14.2339
870 11.1889 -14.206 -13.5375
151 11.1709 -13.4266 -14.2698
561 -14.92 -4.47921 -14.8544
953 11.8927 -13.4464 -13.4484
5613 -10.4814 -14.9557 -4.37925
155 12.6373 -13.4646 -14.291
80 13.4538 -14.2149 -14.2888
729 -11.9168 -1.54475 -14.918
874 12.7541 -14.1306 -13.557
414 -9.69381 -6.81098 -14.9426
30 -3.75493 -14.2119 -14.9104
878 14.1533 -14.2428 -13.5371
83 -14.2264 -13.4562 -14.157
84 14.9289 -12.7253 -14.2174
569 -11.9291 -4.49936 -14.8601
7221 -7.50955 -14.8711 -1.50136
1627 -5.20328 -14.9366 -11.1127
87 -12.6687 -13.4337 -14.1131
88 -13.4762 -12.7317 -14.0458
558 14.2698 -5.20705 -14.9076
886 -12.6679 -12.6426 -13.2996
91 -11.1401 -13.5277 -14.2079
92 -11.9057 -12.7983 -14.1087
20055 5.21533 -0.107718 -6.6725
889 -11.9906 -13.4806 -13.3662
21 -7.42571 -14.8986 -14.8995
95 -9.81441 -13.3997 -14.0938
96 -10.4697 -12.6514 -14.1501
894 -9.70918 -12.7306 -13.3771
17609 -11.9775 -0.0471651 -12.0532
18419 -8.20823 -0.0423956 -9.79413
100 -8.91439 -12.6055 -14.2016
898 -8.19087 -12.6612 -13.5401
897 -9.00189 -13.4857 -13.3753
103 -6.71612 -13.4457 -14.183
104 -7.5208 -12.7302 -14.2269
902 -6.68196 -12.6956 -13.428
981 -7.51219 -11.9432 -13.4904
183 -6.71773 -12.0588 -14.2366
518 -0.694039 -5.2231 -14.8538
16843 0.774412 -0.0639861 -12.7309
107 -5.21989 -13.3524 -14.2202
108 -5.95799 -12.6916 -14.2506
641 -14.8706 -3.012 -14.9281
111 -3.6175 -13.4372 -14.2211
112 -4.38046 -12.7362 -14.2447
554 12.7685 -5.19584 -14.8438
24017 -8.90926 -0.0662904 -0.0235845
115 -2.27121 -13.5063 -14.184
116 -2.86169 -12.7077 -14.1838
195 -2.24123 -11.8723 -14.1814
914 -2.21157 -12.6745 -13.3971
120 -1.50438 -12.6843 -14.1857
997 -1.49707 -11.8698 -13.4117
917 -1.56972 -13.3972 -13.5095
765 1.59246 -1.37053 -14.916
119 -0.689215 -13.465 -14.2788
124 -0.0516342 -12.7031 -14.1403
1001 0.0300126 -11.9404 -13.4875
918 -0.78616 -12.6798 -13.4399
128 1.47825 -12.6842 -14.1272
925 1.564 -13.4391 -13.4298
203 0.851404 -11.8642 -14.1832
922 0.81697 -12.7485 -13.4189
557 13.4489 -6.00643 -14.9123
132 3.04146 -12.7119 -14.1593
1009 3.01742 -11.9054 -13.4104
136 4.4703 -12.654 -14.2502
211 3.81438 -11.8946 -14.0658
930 3.73523 -12.6807 -13.3581
23229 -4.57436 -0.0100136 -1.56597
262 -6.71496 -9.72713 -14.8767
140 6.06754 -12.5977 -14.2792
215 5.23892 -11.8961 -14.1908
144 7.42009 -12.7174 -14.247
938 6.76202 -12.6635 -13.5197
4007 -12.776 -14.9189 -6.73943
206 2.29936 -11.1636 -14.8802
143 8.23102 -13.4207 -14.1223
148 8.98494 -12.6698 -14.179
223 8.22592 -11.9679 -14.1647
942 8.18899 -12.6336 -13.4617
152 10.4901 -12.6317 -14.2433
22457 5.99787 -0.0433796 -2.95158
156 11.889 -12.7714 -14.2854
231 11.2258 -11.9963 -14.1846
950 11.2176 -12.7031 -13.3744
17633 -2.95644 -0.0606027 -11.8822
3229 -4.46022 -14.8888 -8.90792
954 12.6969 -12.7377 -13.4753
160 13.3689 -12.7663 -14.2145
235 12.6412 -11.9614 -14.2224
16835 -2.21801 -0.0283632 -12.6361
346 -5.23817 -8.20506 -14.8635
159 14.1553 -13.414 -14.2286
957 13.4813 -13.4605 -13.5278
163 -14.2473 -11.9463 -14.1681
962 -14.2535 -11.2255 -13.3282
168 -13.4519 -11.3554 -14.119
167 -12.6685 -12.0008 -14.1952
247 -12.6868 -10.4522 -14.1371
965 -13.4518 -11.9701 -13.2879
171 -11.1653 -11.9223 -14.1809
172 -11.9408 -11.2527 -14.1475
969 -11.9349 -11.9715 -13.5004
201 -0.0331168 -11.9362 -14.8959
20001 14.8757 -0.045437 -7.41844
175 -9.72261 -11.9101 -14.2249
176 -10.4796 -11.1665 -14.2474
974 -9.6433 -11.1973 -13.4857
20053 4.50808 -0.0350578 -7.4047
358 -0.782554 -8.19555 -14.8695
179 -8.22413 -11.9467 -14.2672
977 -8.99638 -11.8875 -13.4425
180 -8.96378 -11.1786 -14.2504
978 -8.18243 -11.1578 -13.4483
23273 11.9384 -0.0478063 -1.47365
31 -3.7346 -14.9411 -14.1764
184 -7.47641 -11.2962 -14.2574
20013 -10.5035 -0.0486116 -7.43273
982 -6.81714 -11.1884 -13.464
1061 -7.44597 -10.4014 -13.388
638 14.162 -3.6539 -14.8905
187 -5.16694 -11.9176 -14.2109
188 -5.9462 -11.25 -14.1598
23233 -3.07989 -0.109678 -1.56744
985 -5.96761 -11.9605 -13.4782
191 -3.64379 -11.9995 -14.2015
192 -4.43061 -11.1828 -14.307
6407 -12.7319 -14.905 -2.37106
196 -3.02166 -11.1739 -14.2407
597 -1.48699 -4.52177 -14.8699
994 -2.29717 -11.1806 -13.4347
406 -12.7192 -6.79221 -14.916
199 -0.751388 -11.8721 -14.1288
200 -1.50101 -11.0984 -14.1668
618 6.71011 -3.7119 -14.9245
204 0.0229486 -11.1534 -14.1045
279 -0.707696 -10.4621 -14.1194
1002 0.71564 -11.1084 -13.3878
208 1.46988 -11.0665 -14.2463
1005 1.46549 -11.9099 -13.402
22421 -7.45181 -0.0129432 -2.8778
207 2.15964 -11.918 -14.1566
212 2.99129 -11.1274 -14.1025
287 2.22518 -10.3629 -14.1419
216 4.47327 -11.1563 -14.1387
21671 11.2054 -0.00124002 -3.70608
291 3.77792 -10.4288 -14.1735
1013 4.53343 -11.9808 -13.431
8033 -2.97376 -14.9207 -0.0863197
220 6.08976 -11.0968 -14.2648
1014 5.17955 -11.168 -13.4094
47 2.20542 -14.8992 -14.2569
23219 -8.26159 -0.0745478 -0.7572
305 8.99251 -10.4033 -14.8838
219 6.75376 -11.885 -14.2976
224 7.49187 -11.1121 -14.1559
299 6.76836 -10.2733 -14.2308
477 13.3988 -7.4942 -14.866
228 8.92524 -11.1611 -14.2269
598 -0.849536 -3.71125 -14.9213
59 6.68779 -14.8984 -14.1953
227 9.69229 -11.9129 -14.1881
232 10.4727 -11.2961 -14.2351
1026 9.72703 -11.1836 -13.4939
17641 -0.00560415 -0.0475122 -12.0013
236 11.8903 -11.2217 -14.2158
311 11.2009 -10.4048 -14.2378
433 -3.04649 -7.4775 -14.9379
1030 11.1974 -11.2088 -13.4869
1113 11.8847 -10.4229 -13.4794
315 12.7073 -10.4633 -14.2951
240 13.3968 -11.2215 -14.2145
21633 -2.97921 -0.0265339 -4.35519
239 14.041 -11.978 -14.1867
164 14.7979 -11.1768 -14.214
319 14.1653 -10.4144 -14.2111
961 14.8635 -11.948 -13.5212
1038 14.1695 -11.0926 -13.4915
1041 -14.9158 -10.4198 -13.4886
243 -14.1805 -10.5574 -14.1563
1042 -14.179 -9.70869 -13.4822
248 -13.4225 -9.7367 -14.2156
327 -12.6803 -8.97838 -14.1556
1046 -12.6575 -9.67766 -13.4219
1125 -13.4479 -8.92058 -13.3969
20825 -6.08454 -0.00734553 -6.03178
251 -11.1525 -10.3281 -14.259
252 -11.9466 -9.62029 -14.0976
1050 -11.1734 -9.7385 -13.4356
1129 -11.8751 -8.90534 -13.4649
255 -9.72721 -10.4461 -14.2193
256 -10.4284 -9.64521 -14.1666
335 -9.73494 -8.92939 -14.1932
62 8.30381 -14.2433 -14.9174
1057 -8.99067 -10.457 -13.4681
259 -8.19497 -10.5622 -14.2061
260 -9.00389 -9.74439 -14.185
1058 -8.20323 -9.73904 -13.4766
851 3.71955 -14.8962 -12.7586
263 -6.7628 -10.3707 -14.1609
264 -7.46994 -9.64029 -14.139
1062 -6.76705 -9.69227 -13.442
343 -6.72887 -8.9783 -14.1378
267 -5.2147 -10.5123 -14.1898
268 -5.98938 -9.70234 -14.1941
1066 -5.26725 -9.76238 -13.4093
17661 7.41947 -0.0362037 -12.0014
271 -3.76432 -10.3925 -14.2997
272 -4.51568 -9.71783 -14.1844
633 11.9819 -4.48669 -14.9075
4875 12.6075 -14.8813 -5.18204
275 -2.26591 -10.4308 -14.2227
276 -3.07878 -9.70704 -14.2769
23205 -13.4442 -0.00433742 -1.49487
1074 -2.26317 -9.69045 -13.4874
16015 -9.75395 -0.0610208 -14.1606
280 -1.45729 -9.65718 -14.109
1078 -0.765724 -9.64699 -13.4723
23 -6.66326 -14.9095 -14.1161
284 0.0333724 -9.63842 -14.2427
669 -4.45298 -2.96618 -14.8678
283 0.758144 -10.3373 -14.2089
288 1.45605 -9.62869 -14.1727
363 0.757032 -8.89295 -14.243
1165 1.50237 -8.89432 -13.4144
16003 -14.1822 -0.023182 -14.3453
292 3.05815 -9.5939 -14.1781
367 2.21014 -8.80538 -14.2286
1169 2.92468 -8.88478 -13.4026
296 4.48062 -9.66446 -14.1908
1090 3.71155 -9.65858 -13.435
1173 4.46087 -8.86045 -13.4784
295 5.24998 -10.5047 -14.1894
300 5.94652 -9.69116 -14.2167
375 5.17998 -8.92149 -14.1989
1177 6.01864 -8.97779 -13.4781
1094 5.21949 -9.66341 -13.4963
325 -13.4411 -8.91759 -14.9062
304 7.51663 -9.56056 -14.1863
1098 6.69701 -9.66934 -13.5136
379 6.74121 -8.93545 -14.1721
533 4.4657 -5.96118 -14.8539
369 2.97158 -8.94799 -14.9056
303 8.22525 -10.3235 -14.1763
308 9.02244 -9.66908 -14.1947
383 8.22355 -8.87553 -14.1987
685 1.55492 -2.99487 -14.9251
373 4.40293 -8.97328 -14.9124
307 9.79502 -10.4051 -14.1088
312 10.4466 -9.67766 -14.1572
4851 3.6734 -14.897 -5.26678
316 11.8707 -9.74635 -14.1647
391 11.2137 -8.97228 -14.2606
666 -5.21628 -2.18384 -14.8998
855 5.16963 -14.9219 -12.6766
320 13.4701 -9.64888 -14.2262
395 12.6441 -8.99889 -14.1749
4057 5.95124 -14.9064 -7.46116
244 -14.9151 -9.70804 -14.2517
399 14.2608 -8.87648 -14.3283
1118 14.1787 -9.61787 -13.5166
17663 8.17208 -0.0861491 -11.2526
323 -14.1795 -9.0313 -14.1751
403 -14.2003 -7.44702 -14.1331
1121 14.908 -8.94936 -13.4064
1122 -14.1673 -8.17202 -13.4289
1201 14.904 -7.54181 -13.4778
21653 4.50856 -0.0785728 -4.4314
1205 -13.3833 -7.40884 -13.3399
328 -13.4398 -8.18174 -14.1549
407 -12.7477 -7.45994 -14.1046
1126 -12.6801 -8.21981 -13.401
1615 -9.73426 -14.8956 -11.2289
331 -11.1285 -8.98471 -14.2229
332 -12.046 -8.17812 -14.2615
1209 -11.9042 -7.49184 -13.3582
1130 -11.1853 -8.22443 -13.4971
514 -2.28194 -5.23252 -14.9255
336 -10.5312 -8.18847 -14.2393
1134 -9.74702 -8.2625 -13.5035
1133 -10.456 -8.90162 -13.4525
702 8.31846 -2.27872 -14.9274
339 -8.20968 -9.00438 -14.1902
1137 -9.07281 -8.97339 -13.4541
340 -8.97563 -8.14555 -14.2247
17613 -10.4724 -0.0196026 -11.9618
1141 -7.42132 -8.88501 -13.3951
344 -7.46309 -8.20331 -14.1942
423 -6.69321 -7.50908 -14.2557
821 -7.49148 -14.9034 -13.4239
347 -5.25625 -9.06953 -14.2019
348 -5.98269 -8.29568 -14.2091
1145 -6.03508 -8.97384 -13.42
427 -5.28003 -7.44038 -14.2858
8782 8.18371 -0.713377 -0.0327732
402 -14.1589 -6.69619 -14.8917
351 -3.74534 -8.92849 -14.2902
352 -4.52164 -8.25397 -14.2038
431 -3.80002 -7.43597 -14.1609
58 6.75493 -14.1755 -14.8697
355 -2.35841 -8.95616 -14.1918
356 -2.98132 -8.17015 -14.2211
22453 4.4113 -0.116182 -3.00051
359 -0.744616 -8.92945 -14.2004
360 -1.56075 -8.20947 -14.2221
1157 -1.54108 -8.92763 -13.4493
1158 -0.775797 -8.25453 -13.4263
439 -0.756143 -7.37697 -14.1421
364 -0.0116646 -8.20765 -14.1327
5623 -6.73234 -14.9077 -3.82481
368 1.44008 -8.19483 -14.243
443 0.668506 -7.43167 -14.129
1649 2.95362 -14.8822 -11.9108
1245 1.46775 -7.49909 -13.4687
4015 -9.71588 -14.9308 -6.72981
372 2.92829 -8.15357 -14.1762
447 2.20513 -7.43619 -14.2175
371 3.66928 -8.89231 -14.0796
376 4.5029 -8.15675 -14.2769
1253 4.53101 -7.49536 -13.509
451 3.66906 -7.48165 -14.1545
1170 3.62808 -8.11289 -13.451
380 6.01276 -8.25142 -14.1323
1257 6.00368 -7.4545 -13.4362
1174 5.22193 -8.21817 -13.4779
16865 8.88448 -0.021478 -13.5733
384 7.41352 -8.2113 -14.1886
314 12.6732 -9.66353 -14.9007
5675 12.768 -14.8874 -3.71414
388 8.9664 -8.18031 -14.1869
463 8.27016 -7.46802 -14.237
1265 9.02207 -7.42303 -13.4706
19263 8.21249 -0.0549987 -8.19363
387 9.66036 -8.85183 -14.2119
1189 10.5279 -8.95188 -13.5647
392 10.4701 -8.19157 -14.2267
467 9.73923 -7.46822 -14.1419
396 12.0121 -8.22167 -14.258
1190 11.2554 -8.24838 -13.4496
1273 11.9409 -7.55242 -13.454
400 13.4945 -8.17447 -14.2082
1194 12.6805 -8.18021 -13.4205
449 2.93406 -7.36564 -14.9296
324 -14.8106 -8.21211 -14.2228
483 -14.2297 -5.97377 -14.2339
1202 -14.153 -6.73625 -13.4408
1281 -14.8877 -5.99285 -13.4037
408 -13.3852 -6.67925 -14.117
487 -12.6844 -5.95503 -14.1759
1206 -12.6766 -6.67743 -13.4243
1285 -13.4635 -5.93776 -13.3608
411 -11.2894 -7.53444 -14.2573
412 -11.9465 -6.73097 -14.284
1210 -11.2052 -6.78171 -13.3966
1289 -11.9885 -5.99315 -13.4646
415 -9.80269 -7.52238 -14.1952
416 -10.4898 -6.78287 -14.1117
1214 -9.73154 -6.77275 -13.4673
22423 -6.7374 -0.0267547 -2.23514
226 9.69931 -11.1564 -14.8765
419 -8.18097 -7.52893 -14.189
420 -8.92708 -6.667 -14.2335
8729 -11.9272 -1.52178 -0.0213193
670 -3.75924 -2.20428 -14.9451
829 -4.41234 -14.8635 -13.4899
424 -7.54759 -6.70017 -14.2856
1222 -6.76839 -6.69748 -13.5355
21669 10.5661 -0.0236564 -4.44156
1221 -7.46445 -7.5386 -13.5037
517 -1.4423 -6.00331 -14.9383
428 -6.0407 -6.72714 -14.2175
1225 -5.90948 -7.41641 -13.47
5649 2.95488 -14.8729 -4.52562
23221 -7.5226 -0.0289207 -1.47281
4831 -3.69321 -14.9065 -5.13436
432 -4.47918 -6.70143 -14.1834
1309 -4.51577 -5.99751 -13.3872
435 -2.24143 -7.41548 -14.2036
436 -3.15792 -6.70794 -14.1662
515 -2.23938 -5.87952 -14.1171
6443 0.818945 -14.8708 -2.25166
20875 12.7392 -0.0591775 -5.25133
440 -1.4982 -6.70128 -14.2463
1237 -1.5323 -7.45305 -13.4923
444 -0.0292215 -6.66972 -14.2446
519 -0.715918 -5.9957 -14.1976
448 1.41911 -6.69863 -14.2829
523 0.764317 -6.01171 -14.2021
452 2.94447 -6.69418 -14.099
1246 2.15574 -6.67654 -13.434
1329 2.80956 -5.89482 -13.5295
23203 -14.2049 0.00185338 -0.732435
456 4.4704 -6.68983 -14.1627
482 -14.1542 -5.20092 -14.8936
1250 3.74292 -6.70913 -13.4229
455 5.26691 -7.49402 -14.2043
460 5.9198 -6.67807 -14.1322
1337 5.92617 -5.85323 -13.3859
1254 5.16281 -6.71069 -13.4595
459 6.67477 -7.44822 -14.1867
464 7.46709 -6.88731 -14.193
539 6.6814 -5.93171 -14.043
468 9.02576 -6.63093 -14.1985
4847 2.18183 -14.9294 -5.28988
1269 10.5093 -7.51932 -13.3954
472 10.5112 -6.75337 -14.2056
22 -6.63069 -14.148 -14.8289
1266 9.78664 -6.7543 -13.4645
471 11.207 -7.45641 -14.2009
476 11.974 -6.72377 -14.1208
18 -8.12404 -14.1816 -14.8777
1270 11.3038 -6.76685 -13.4129
23247 2.24536 -0.00524081 -0.722478
475 12.685 -7.44008 -14.1947
1277 13.5195 -7.48914 -13.4966
480 13.4749 -6.68962 -14.1712
1274 12.7122 -6.89946 -13.4439
8062 8.27155 -14.1164 -0.112406
479 14.2312 -7.45534 -14.2305
404 -14.8966 -6.76918 -14.2111
1278 14.1956 -6.81019 -13.3424
2479 14.1145 -14.8773 -9.80672
484 -14.7854 -5.16808 -14.1322
19255 5.20507 -0.0421462 -8.17509
488 -13.4376 -5.32459 -14.1697
567 -12.7528 -4.42443 -14.1501
1286 -12.6753 -5.3237 -13.3421
491 -11.1858 -6.03819 -14.1992
3219 -8.29881 -14.8625 -8.18715
492 -11.9582 -5.19074 -14.2259
571 -11.2278 -4.46156 -14.1026
1290 -11.1913 -5.29279 -13.4643
495 -9.66918 -6.02772 -14.2004
496 -10.4485 -5.12881 -14.207
575 -9.71375 -4.43382 -14.1989
1293 -10.4344 -5.92803 -13.4117
8374 5.21742 -8.21309 -0.0461531
815 -9.71186 -14.9423 -12.6935
499 -8.33088 -5.88972 -14.1926
500 -9.0234 -5.14947 -14.213
579 -8.26057 -4.46681 -14.237
1298 -8.20845 -5.20058 -13.4329
503 -6.6627 -5.87958 -14.2237
504 -7.51744 -5.22444 -14.2484
583 -6.67571 -4.44479 -14.1784
89 -11.9399 -13.4795 -14.8859
507 -5.2642 -6.00483 -14.198
508 -5.96351 -5.1276 -14.178
1306 -5.30392 -5.14148 -13.4709
587 -5.23991 -4.45756 -14.2945
511 -3.7886 -5.97013 -14.2071
512 -4.62309 -5.25882 -14.1604
591 -3.79707 -4.49315 -14.2032
1310 -3.7836 -5.14419 -13.3767
516 -3.04703 -5.20299 -14.1677
1393 -3.02876 -4.46976 -13.464
1314 -2.30179 -5.17795 -13.3606
22455 5.23272 -0.0278542 -2.22918
520 -1.46023 -5.24213 -14.2342
599 -0.753229 -4.37602 -14.2012
1318 -0.786647 -5.19683 -13.4992
2441 -0.00628301 -14.9346 -10.3882
524 -0.0611326 -5.22301 -14.1009
1401 -0.0576932 -4.54557 -13.3617
603 0.696264 -4.45601 -14.1246
528 1.38037 -5.2193 -14.2748
527 2.12655 -5.97274 -14.2429
532 2.9399 -5.15032 -14.0727
607 2.20124 -4.50462 -14.2297
531 3.68677 -5.99261 -14.1509
536 4.39103 -5.08989 -14.2073
1333 4.38739 -5.89097 -13.3604
1330 3.69109 -5.17295 -13.4521
535 5.19098 -5.92787 -14.0527
540 6.00773 -5.17201 -14.1784
1334 5.20695 -5.14332 -13.4965
544 7.48429 -5.31957 -14.2197
1338 6.78838 -5.18888 -13.4023
619 6.68155 -4.52777 -14.227
1633 -2.89371 -14.915 -11.9527
543 8.19032 -6.0288 -14.163
548 8.9012 -5.35414 -14.1707
623 8.17755 -4.58253 -14.1619
547 9.76164 -6.03057 -14.1407
552 10.4588 -5.24041 -14.1422
551 11.2794 -5.95067 -14.2023
556 11.9906 -5.19545 -14.149
631 11.183 -4.47726 -14.1791
1357 13.5369 -5.98684 -13.4374
555 12.7942 -5.96989 -14.0725
560 13.5419 -5.312 -14.0983
635 12.6819 -4.40662 -14.1322
1354 12.7543 -5.2579 -13.4694
1437 13.4784 -4.49078 -13.4971
559 14.2808 -5.97666 -14.163
1358 14.2518 -5.24092 -13.4622
1361 -14.8745 -4.49144 -13.3993
563 -14.1268 -4.4615 -14.0896
1362 -14.14 -3.71266 -13.4098
568 -13.4109 -3.66357 -14.1942
647 -12.6719 -3.04314 -14.1692
1366 -12.6832 -3.75551 -13.3996
1445 -13.4414 -3.00796 -13.3979
572 -11.9166 -3.68679 -14.1269
1370 -11.1825 -3.77051 -13.4195
651 -11.2962 -2.94896 -14.1159
576 -10.4976 -3.75023 -14.2143
655 -9.66063 -3.04632 -14.288
1373 -10.4807 -4.46051 -13.4384
1453 -10.4371 -2.95231 -13.4505
2471 11.2349 -14.9114 -9.70984
1377 -8.91815 -4.44557 -13.5195
580 -8.92939 -3.75258 -14.2306
659 -8.20767 -2.9712 -14.2118
302 8.26845 -9.62919 -14.8794
584 -7.50901 -3.72364 -14.2237
1381 -7.52413 -4.35784 -13.4723
588 -5.94189 -3.65259 -14.2926
1385 -6.01299 -4.40053 -13.4925
1389 -4.50389 -4.48634 -13.397
592 -4.48722 -3.81665 -14.2791
671 -3.72313 -2.90704 -14.2092
1390 -3.70015 -3.69798 -13.4624
23215 -9.74192 -0.00847559 -0.712731
595 -2.31335 -4.53081 -14.0958
596 -3.01806 -3.7285 -14.2202
1473 -2.94102 -2.95529 -13.4373
600 -1.49582 -3.66545 -14.1742
1477 -1.40599 -2.98329 -13.4017
679 -0.742315 -2.98036 -14.2455
1397 -1.51734 -4.49355 -13.4677
1398 -0.714115 -3.74704 -13.4174
604 -0.0572111 -3.64316 -14.2573
867 9.71347 -14.8717 -12.7309
608 1.46304 -3.71084 -14.1676
1402 0.623618 -3.69197 -13.436
562 -14.1885 -3.70222 -14.8933
612 3.01252 -3.70825 -14.0264
687 2.26752 -3.0546 -14.208
1409 2.94916 -4.41769 -13.3056
1406 2.19311 -3.66936 -13.38
611 3.71586 -4.45943 -14.171
1413 4.45271 -4.49488 -13.3636
616 4.49938 -3.68121 -14.1863
691 3.70098 -2.97512 -14.1548
1493 4.45374 -3.05181 -13.3966
615 5.2547 -4.43028 -14.2418
1417 6.07049 -4.48154 -13.439
620 6.00809 -3.68538 -14.1959
1414 5.27153 -3.70858 -13.4372
16827 -5.24779 -0.0452628 -12.7091
624 7.46002 -3.72959 -14.1006
1421 7.53542 -4.52771 -13.465
698 6.7359 -2.16949 -14.9152
628 8.89697 -3.88586 -14.2071
6453 4.46344 -14.8634 -3.11851
1422 8.31077 -3.74295 -13.4205
627 9.70306 -4.48823 -14.1779
632 10.4522 -3.75561 -14.1813
17675 12.8096 -0.000129297 -11.1716
636 11.9428 -3.80362 -14.1414
8061 7.51654 -14.8755 -0.0715616
8134 5.26004 -12.7345 -0.028632
640 13.4219 -3.74079 -14.1942
1434 12.7175 -3.76687 -13.3938
564 -14.916 -3.75081 -14.1287
639 14.2517 -4.53054 -14.0951
719 14.2165 -2.98825 -14.1432
643 -14.1671 -2.95639 -14.1045
644 14.9155 -2.26211 -14.223
723 -14.1435 -1.54105 -14.24
478 14.2908 -6.71759 -14.919
648 -13.3886 -2.28301 -14.1118
1446 -12.6756 -2.24716 -13.3857
2407 -12.6496 -14.8457 -9.69852
652 -11.9463 -2.25883 -14.2089
1450 -11.1579 -2.20465 -13.4071
731 -11.1199 -1.50072 -14.2439
453 4.42947 -7.39234 -14.9054
6403 -14.221 -14.9265 -2.28367
8177 -8.9147 -11.9143 -0.0722344
656 -10.3486 -2.3055 -14.2468
1454 -9.61271 -2.17865 -13.3866
660 -9.01065 -2.26012 -14.1859
20859 6.65455 0.00588448 -5.20658
663 -6.78492 -2.87209 -14.2774
664 -7.46446 -2.15329 -14.1496
743 -6.73832 -1.4547 -14.2616
5671 11.2417 -14.8397 -3.7299
667 -5.20911 -2.90132 -14.1841
668 -6.0201 -2.18446 -14.1686
118 -0.742592 -12.7205 -14.8802
693 4.5341 -3.04537 -14.9149
672 -4.49534 -2.1722 -14.1378
751 -3.76726 -1.51738 -14.1133
566 -12.5944 -3.76436 -14.8955
675 -2.26689 -3.01935 -14.2287
676 -2.99368 -2.1578 -14.2912
755 -2.26569 -1.4203 -14.1765
680 -1.42102 -2.20614 -14.1483
1478 -0.703751 -2.16731 -13.4073
1557 -1.44463 -1.44527 -13.4649
759 -0.76577 -1.49875 -14.2044
1474 -2.19099 -2.23145 -13.5298
529 2.98663 -6.02775 -14.9061
1481 -0.122986 -2.96083 -13.4019
684 -0.0431093 -2.21193 -14.1552
683 0.787844 -2.92049 -14.1261
688 1.56279 -2.25971 -14.1705
692 2.99778 -2.27116 -14.1494
1489 2.97945 -2.95017 -13.4016
1486 2.28946 -2.21966 -13.4502
20801 -14.9509 -0.000704117 -5.99359
696 4.50934 -2.283 -14.1636
1490 3.74827 -2.2792 -13.4201
17667 9.63285 -0.0395419 -11.2006
695 5.25198 -3.03115 -14.1758
700 5.99568 -2.23874 -14.1878
1494 5.15226 -2.31013 -13.3774
699 6.78899 -2.94314 -14.1482
334 -9.79881 -8.18727 -14.9519
704 7.46039 -2.20444 -14.1972
779 6.73637 -1.5519 -14.1674
1581 7.45948 -1.49113 -13.4806
278 -0.739251 -9.73996 -14.8971
703 8.35087 -3.06838 -14.1748
708 9.04518 -2.24826 -14.2179
4871 11.2205 -14.8743 -5.18358
5647 2.24573 -14.9135 -3.66172
1505 9.02375 -3.04198 -13.4029
1502 8.33704 -2.13609 -13.5285
51 3.74532 -14.895 -14.2274
707 9.5916 -3.11244 -14.195
1509 10.4746 -3.05266 -13.4089
712 10.3509 -2.26304 -14.1927
865 8.9316 -14.8935 -13.4111
621 7.49321 -4.37398 -14.8935
711 11.2343 -3.05129 -14.1934
716 11.9588 -2.27078 -14.1459
1510 11.2041 -2.2203 -13.4302
1513 11.9615 -2.9782 -13.442
17607 -12.6927 -0.11493 -11.2972
715 12.7421 -3.01467 -14.1623
1514 12.7522 -2.2828 -13.4073
22417 -8.9797 -0.00697337 -2.93517
16817 -8.96073 -0.0333055 -13.4191
605 1.4091 -4.44133 -14.8143
1441 -14.9201 -3.00865 -13.3535
720 13.5082 -2.3333 -14.1862
799 14.1911 -1.48019 -14.1353
724 14.8556 -0.69249 -14.1072
22463 8.25305 -0.00884023 -2.17297
4813 -10.6034 -14.8908 -6.01198
727 -12.6619 -1.51114 -14.19
728 -13.3853 -0.771397 -14.3339
20871 11.3398 -0.021822 -5.23331
1525 -13.4905 -1.48294 -13.4471
847 2.25736 -14.8347 -12.6872
732 -11.9773 -0.72569 -14.3277
378 6.68274 -8.09744 -14.934
871 11.192 -14.8526 -12.7297
735 -9.70442 -1.47815 -14.2491
736 -10.4498 -0.817026 -14.1324
2451 3.74691 -14.9192 -9.6977
1537 -8.9629 -1.44331 -13.4804
739 -8.28678 -1.43679 -14.1939
740 -8.96694 -0.694944 -14.2209
1621 -7.4515 -14.9045 -11.9498
744 -7.52285 -0.711366 -14.2488
7205 -13.4735 -14.9343 -1.60763
20823 -6.72027 -0.0629453 -5.19311
23279 14.2244 -0.0794742 -0.72646
877 13.4433 -14.8941 -13.5459
747 -5.36904 -1.45392 -14.1999
748 -5.93985 -0.659895 -14.3581
510 -3.77469 -5.27185 -14.9254
752 -4.51543 -0.766446 -14.2384
1550 -3.74029 -0.764628 -13.4558
7997 13.4297 -1.48075 -1.52456
823 -6.65424 -14.9187 -12.6703
756 -2.97754 -0.752206 -14.162
18445 1.48638 -0.00994263 -10.4681
289 2.92366 -10.3745 -14.8509
760 -1.55074 -0.681943 -14.1501
149 10.4313 -13.4475 -14.8941
764 0.0116639 -0.757496 -14.0809
1558 -0.772917 -0.728402 -13.4376
7265 9.02138 -14.922 -1.48859
763 0.79466 -1.44322 -14.1065
768 1.56915 -0.709833 -14.2281
7994 12.686 -0.74461 -1.4674
767 2.24889 -1.47783 -14.191
772 2.95254 -0.763857 -14.114
1659 6.79673 -14.8537 -11.1938
8114 -2.15368 -12.7184 -0.00177706
771 3.64513 -1.55065 -14.2132
776 4.45871 -0.790377 -14.2311
1570 3.75659 -0.720301 -13.4175
2421 -7.46501 -14.9295 -10.455
93 -10.4164 -13.482 -14.8789
4825 -5.99957 -14.9056 -5.95829
8000 13.4193 -0.788259 -0.722275
20827 -5.22919 -0.0471507 -5.22139
775 5.13878 -1.45755 -14.1973
780 5.92298 -0.798221 -14.1794
61 7.43041 -14.9222 -14.8681
784 7.54539 -0.790237 -14.2023
1578 6.66502 -0.723415 -13.4902
7990 11.2166 -0.741574 -1.40539
783 8.25285 -1.47905 -14.2823
788 9.00499 -0.668619 -14.2863
8702 8.24601 -2.25646 -0.155214
787 9.80435 -1.47134 -14.1841
792 10.4895 -0.742186 -14.1681
610 3.69417 -3.6844 -14.88
457 5.95956 -7.4079 -14.9155
791 11.2511 -1.51994 -14.1996
796 11.9641 -0.70944 -14.2
1593 11.9796 -1.55806 -13.4514
20021 -7.48815 -0.0483519 -7.42992
458 6.69895 -6.66486 -14.8796
225 8.97224 -11.863 -14.9279
795 12.7585 -1.49729 -14.1994
800 13.494 -0.679812 -14.2694
24009 -11.9355 -0.0350851 -0.0669844
46 2.32748 -14.1765 -14.852
18465 8.9212 -0.00317038 -10.4708
5659 6.77199 -14.9055 -3.71045
8194 -2.2399 -11.2283 -0.0276674
802 -14.1736 -14.2392 -13.4947
881 -14.901 -13.4308 -13.4226
804 -14.9072 -14.1905 -12.7524
806 -12.6968 -14.2379 -13.3834
808 -13.4118 -14.2347 -12.7082
1606 -12.6649 -14.1739 -11.9278
812 -11.92 -14.2008 -12.6836
1610 -11.1529 -14.2071 -11.9679
816 -10.481 -14.1905 -12.6648
895 -9.6156 -13.4641 -12.5952
1614 -9.69033 -14.1924 -11.9066
6463 8.3141 -14.9465 -2.22423
22427 -5.29982 -0.0120204 -2.2452
818 -8.24513 -14.2473 -13.4667
820 -8.92861 -14.2342 -12.6401
899 -8.12844 -13.4741 -12.7316
1618 -8.15538 -14.1655 -11.9663
822 -6.75293 -14.1687 -13.5112
901 -7.41577 -13.3956 -13.4926
824 -7.45509 -14.1887 -12.7243
1622 -6.73838 -14.2137 -11.9498
21617 -8.9613 -0.0285313 -4.46181
602 0.786829 -3.63072 -14.9265
826 -5.19241 -14.1831 -13.4697
828 -6.01642 -14.2155 -12.6739
907 -5.19617 -13.3403 -12.6379
845 1.50287 -14.9363 -13.4326
442 0.698271 -6.87919 -14.9512
357 -1.61797 -9.01473 -14.8922
909 -4.55454 -13.4523 -13.414
832 -4.46004 -14.2075 -12.6727
1709 -4.49961 -13.4174 -11.964
913 -2.93032 -13.402 -13.4303
834 -2.29644 -14.2009 -13.4054
836 -2.96435 -14.1569 -12.6688
530 3.64871 -5.29529 -14.9238
840 -1.48286 -14.2548 -12.7578
1638 -0.65502 -14.1867 -11.9764
674 -2.22826 -2.22393 -14.8732
394 12.6856 -8.23486 -14.926
370 3.66656 -8.21027 -14.8982
919 -0.701613 -13.4975 -12.7231
844 0.0819329 -14.2065 -12.6912
1721 0.0384156 -13.4406 -11.9788
848 1.4886 -14.1447 -12.6
923 0.795733 -13.4379 -12.7174
929 2.95896 -13.3996 -13.5243
7996 11.9536 -0.688494 -0.724925
852 2.97921 -14.098 -12.7053
927 2.22709 -13.393 -12.6091
850 3.73006 -14.2005 -13.4533
933 4.4764 -13.4249 -13.5042
856 4.47434 -14.0743 -12.7243
931 3.72898 -13.4235 -12.6395
21657 5.94418 -0.0710372 -4.36674
854 5.18231 -14.1363 -13.4061
860 5.91527 -14.1184 -12.6817
5663 8.24686 -14.8999 -3.69741
16829 -4.5502 -0.0125772 -13.4594
864 7.36415 -14.1892 -12.7294
939 6.74233 -13.3747 -12.7118
862 8.16298 -14.1328 -13.4235
868 8.97581 -14.1299 -12.6944
945 8.96235 -13.365 -13.3939
1745 8.93767 -13.3798 -11.9367
629 10.3744 -4.47629 -14.92
4801 -14.9114 -14.9357 -5.95194
866 9.707 -14.2226 -13.4443
872 10.5036 -14.1625 -12.7154
947 9.73486 -13.4467 -12.6615
8673 -3.02773 -3.0435 -0.0659641
5611 -11.1698 -14.9373 -3.67595
857 5.97222 -14.8779 -13.44
7986 9.67996 -0.79256 -1.45015
876 11.9132 -14.1813 -12.6617
1670 11.1583 -14.1286 -11.8875
951 11.2295 -13.4864 -12.7651
955 12.7383 -13.4555 -12.7959
202 0.651613 -11.2343 -14.9398
880 13.462 -14.2385 -12.8363
882 -14.2315 -12.6643 -13.4903
883 -14.2221 -13.4693 -12.641
884 14.9201 -12.753 -12.7413
1681 14.9114 -13.5227 -11.9212
887 -12.7112 -13.4319 -12.6623
885 -13.4716 -13.4809 -13.3715
888 -13.4077 -12.7423 -12.6376
967 -12.6724 -11.8807 -12.6222
891 -11.1433 -13.4873 -12.6663
890 -11.1535 -12.7438 -13.3723
892 -11.9799 -12.6665 -12.6854
1689 -11.9021 -13.4056 -11.9911
1690 -11.167 -12.6817 -11.904
893 -10.4556 -13.4842 -13.3792
896 -10.4904 -12.6805 -12.6247
1693 -10.4772 -13.4944 -11.9653
1694 -9.68573 -12.6999 -11.9206
900 -8.81454 -12.6942 -12.6464
979 -8.22881 -11.8411 -12.6403
1698 -8.1419 -12.6514 -11.9335
1701 -7.4694 -13.4404 -11.9543
903 -6.74461 -13.4725 -12.6653
904 -7.51849 -12.6741 -12.7613
1702 -6.64291 -12.7089 -11.9825
905 -5.98896 -13.3776 -13.5343
906 -5.18694 -12.6481 -13.5028
908 -5.94343 -12.7063 -12.6997
987 -5.18445 -11.9183 -12.7481
1706 -5.21675 -12.6434 -11.9377
989 -4.40392 -11.9103 -13.5464
910 -3.75906 -12.6774 -13.5217
911 -3.78278 -13.4247 -12.7156
912 -4.44782 -12.6154 -12.7197
993 -2.94712 -11.9275 -13.4121
915 -2.22706 -13.4179 -12.6494
916 -2.97159 -12.7536 -12.7142
1714 -2.23651 -12.6994 -12.0066
920 -1.44952 -12.6892 -12.7584
924 -0.0182885 -12.7213 -12.6866
999 -0.802602 -11.9551 -12.7509
1801 -0.0261462 -11.9271 -12.0056
1003 0.724815 -11.9779 -12.7143
1722 0.767307 -12.6587 -11.957
928 1.53076 -12.6446 -12.7281
1805 1.52721 -11.8634 -11.931
926 2.23648 -12.6562 -13.4105
932 2.96746 -12.631 -12.6725
1007 2.24503 -11.8749 -12.6768
936 4.52092 -12.6253 -12.6777
1011 3.7852 -11.9452 -12.7451
1813 4.49889 -11.8683 -11.9581
935 5.17317 -13.3538 -12.759
934 5.33608 -12.6791 -13.5479
940 5.98761 -12.6288 -12.7593
1734 5.2641 -12.618 -11.9473
1021 7.41183 -11.8582 -13.4781
944 7.43771 -12.5623 -12.7744
1019 6.66761 -11.9243 -12.7582
1741 7.40794 -13.4583 -11.912
943 8.16243 -13.4424 -12.6766
948 9.01528 -12.6496 -12.6462
1023 8.21385 -11.9733 -12.7424
1742 8.17283 -12.7205 -11.9631
949 10.4837 -13.4728 -13.516
946 9.73787 -12.6387 -13.463
952 10.4909 -12.6504 -12.7427
1746 9.73745 -12.6558 -12.0016
956 11.9996 -12.6959 -12.7208
1033 11.9009 -11.9357 -13.4116
1750 11.2362 -12.75 -12.1012
1037 13.3996 -11.9935 -13.5301
960 13.4676 -12.7105 -12.752
1035 12.7652 -11.9842 -12.743
1757 13.4168 -13.4474 -12.0003
958 14.1681 -12.7446 -13.4611
959 14.2106 -13.4862 -12.7852
1758 14.2043 -12.715 -12.0653
963 -14.2461 -11.9773 -12.6771
964 14.8661 -11.2462 -12.7487
966 -12.6931 -11.194 -13.4165
968 -13.5008 -11.2171 -12.6563
1045 -13.385 -10.4723 -13.3906
1845 -13.4443 -10.4118 -12.0066
970 -11.1687 -11.1825 -13.472
971 -11.1797 -12.0128 -12.7418