ITEM: TIMESTEP
53000
ITEM: NUMBER OF ATOMS
4000
ITEM: BOX BOUNDS pp pp pp
0.0000000000000000e+00 7.3680629972807722e+01
0.0000000000000000e+00 7.3680629972807722e+01
0.0000000000000000e+00 7.3680629972807722e+01
ITEM: ATOMS id x y z vx vy vz
1446 3.2932 0.0726594 1.04924 1.05469 1.64558 0.800112
2647 27.4231 0.963744 1.05096 -0.881897 -0.415187 -0.227056
1465 41.9728 2.1539 0.875082 -0.700746 -0.0149294 0.0336789
842 72.758 1.7596 0.262837 0.742792 0.839345 -0.718854
3392 6.82818 2.93825 1.0009 -1.64711 -1.38084 0.40422
3942 61.3927 3.96852 1.05522 0.746879 0.319298 0.0876354
1138 59.2052 5.20818 0.326605 1.88518 -0.395686 0.236572
2137 23.7538 6.80428 1.39341 -1.05959 -0.627067 -0.527552
401 6.45593 7.78225 1.34653 -0.319927 1.39867 0.349034
2624 51.5646 8.21019 0.540975 0.331212 -0.487506 -1.8924
2999 55.5431 7.47382 0.655527 -1.5504 -0.60636 1.01122
2490 68.5519 8.33493 1.01884 -0.790729 -0.359412 1.44236
131 18.5036 12.4518 0.418544 -0.340307 1.91325 0.010851
1978 2.49029 13.0615 1.33398 2.52397 -1.69466 1.33538
543 23.4216 14.103 0.781641 -1.49554 -0.582305 -0.436054
12 67.843 13.5195 0.921281 -0.439496 0.841369 -0.974787
235 16.8336 14.4056 0.266044 -1.13393 -0.778161 -0.566296
650 21.4974 15.2911 0.946247 -0.558055 0.317467 -0.327375
188 20.1872 16.546 0.681675 -0.123605 -0.0481878 -1.21978
3732 60.4518 16.8568 0.984114 1.30948 0.440691 0.0621177
45 4.9546 17.0134 1.17484 -0.0141337 1.15895 -2.08394
1898 37.2642 17.9836 0.472897 0.495493 -1.26522 -0.847153
1630 59.7177 17.3983 0.417664 -1.25923 0.150131 0.171698
3944 4.86522 18.5643 0.414633 0.782581 0.971807 0.347742
1363 33.6665 19.2323 0.345265 -0.915214 1.60208 -0.0393452
3393 68.2031 21.1538 1.40136 0.00593376 1.2239 -0.357227
1525 33.7154 22.4301 1.26611 -0.0844797 -0.328351 -0.0615857
361 52.5091 21.8884 0.556573 -0.799792 -1.05369 0.889253
917 24.0901 23.3715 0.729478 -0.36425 -2.37017 1.01458
470 32.0202 22.804 0.736636 0.365746 -0.83302 1.58774
709 35.9486 24.5735 0.331591 -0.224722 0.455248 -0.0420887
69 59.5925 24.3231 0.406516 0.32376 -1.37925 -0.563152
1747 37.1505 27.1838 1.3457 2.23529 -2.07131 0.0460262
801 42.4634 31.3594 0.820859 0.531449 -0.685504 0.395634
515 10.8524 33.9905 1.24065 -0.389497 -0.647879 -1.30227
2928 54.5153 36.3735 1.03243 -1.79389 0.561076 -0.646916
1897 1.17346 1.18718 2.22368 1.24481 0.202004 -1.15158
1849 62.3674 0.821509 2.81971 1.1709 -0.583407 0.628111
1639 66.8202 2.76096 2.08525 0.356756 -0.980117 -1.1246
75 30.518 3.3404 1.91445 -0.133101 -0.940356 1.01343
3331 0.846104 4.69218 2.16355 -0.161542 -1.29427 -4.20954
3127 12.4492 5.37006 1.77642 -0.767802 -0.177125 -0.845524
1125 56.928 4.35272 1.83937 -0.264001 -1.24252 0.0276642
2709 27.1696 7.01481 2.26058 0.342525 -0.0826598 0.385293
1828 18.4126 7.0928 2.80578 1.60842 -0.398439 -0.100635
3075 23.1148 8.31695 1.86881 1.14821 0.410322 -0.723347
803 53.2523 7.75554 2.49341 -0.634976 1.06657 -0.108803
2188 18.3154 9.88145 2.43055 0.2524 0.95351 0.597399
942 38.2773 9.78102 2.79964 -2.2647 0.576911 0.784338
1177 14.3553 10.5715 2.72716 -1.4738 0.106321 -0.656912
1658 18.0925 11.3279 1.70245 -2.13999 0.927117 0.174343
1929 49.8565 14.5546 2.20172 0.781053 -0.981412 -0.208993
100 66.214 14.9559 2.61075 1.16968 -0.596363 0.369361
1993 44.4713 16.3269 1.61764 0.114382 -0.987019 0.765288
595 5.38129 18.2777 1.76047 1.55781 -1.75342 -0.0718799
112 31.9952 17.4869 2.09037 -1.57687 0.26191 0.981083
144 18.5354 19.0563 1.58521 0.874964 0.12818 -1.44693
2660 29.6991 19.8457 1.61311 -0.253316 0.725564 0.454783
1343 72.2992 19.9413 2.49409 -0.919797 -0.554465 -0.688996
1024 22.1214 22.4224 2.12862 -0.533206 1.211 -0.0157231
2881 32.4504 21.4233 2.26659 0.143881 -0.36618 -1.3098
3152 70.671 21.7529 2.78546 0.438879 0.67837 2.02231
2779 71.6763 21.489 2.25565 -0.097254 -1.70756 0.061586
1410 21.6865 25.0115 1.53473 -0.132666 -0.294315 -0.123586
354 42.1046 25.1466 1.76371 0.715924 0.0277025 -1.46421
1802 43.4157 25.1413 1.70725 0.021471 0.0289391 0.97565
3923 52.9693 26.8959 2.17198 0.996649 0.105151 -1.30689
3217 25.2965 27.7276 1.77472 -0.338071 1.7975 1.0954
1100 70.9008 27.0265 1.93983 1.20209 0.665804 0.75376
3752 10.7869 30.1895 1.99435 -0.445714 1.98481 -1.20239
1259 6.86534 31.1924 1.8145 -0.327436 0.346831 -1.13117
1169 41.1835 32.9677 1.63726 -1.23461 1.56063 -1.04398
3181 53.5024 33.6105 2.78321 -0.439344 -0.137595 -0.220463
1412 23.2281 34.8387 2.35279 -0.861691 0.373044 0.0654277
983 63.4407 35.0923 1.75162 0.719267 0.850716 1.18174
3684 15.2464 36.3435 2.30105 -0.737555 0.115257 0.359069
1268 35.896 35.92 2.33451 0.0169869 0.261855 0.944664
3153 55.2708 36.546 1.811 0.236462 1.56923 0.327975
2859 64.7064 0.389823 3.03925 -0.677895 -0.463621 1.25081
3249 65.4673 1.23538 3.42174 -1.35247 0.0659934 -1.42603
2923 49.8629 3.31793 4.14565 1.1581 1.53152 1.07911
3147 60.4713 2.90125 3.36447 0.872385 -1.03007 0.932114
3664 20.1434 5.81816 3.9013 1.16685 1.39766 0.0600921
1010 52.139 5.92651 3.26775 -0.86342 0.159733 0.696734
2466 3.23835 9.41763 4.11961 0.577822 0.205402 0.102062
1481 10.8749 9.48014 3.84331 -0.510559 -0.249934 -0.211947
2702 52.5039 10.3601 2.97792 -1.06405 -1.76143 1.17416
2285 3.85645 12.2505 3.90599 -0.371147 1.52636 -0.129904
2798 42.5203 13.0725 3.92413 0.359058 -1.70548 -0.799476
76 60.3453 13.3645 3.0872 1.96308 -1.07127 -0.773927
3885 33.5372 16.1867 3.99942 0.14845 -0.210605 -0.521502
1797 54.6128 16.9759 2.9909 -0.480844 1.17207 -0.0744703
997 3.82244 17.5902 3.47154 0.448055 0.15108 0.885095
245 5.87323 17.8794 3.1666 -0.205662 -0.789584 0.521792
1827 6.86121 19.3594 3.65306 0.368064 -0.424113 1.06487
3368 69.699 21.2315 4.0679 0.651721 -2.05136 0.751912
3165 8.35623 21.9272 4.0753 0.348369 -1.27191 -1.66223
276 12.7596 21.2971 3.0215 -0.437928 1.19317 1.88753
150 1.29267 24.1669 3.70956 -0.710695 0.179746 -0.507522
2361 11.2289 24.884 3.4106 -0.670463 0.552047 -0.809191
1254 28.0561 24.7884 3.78494 -0.540392 1.38732 -0.743214
3072 21.2484 25.6503 4.22385 -1.21595 -0.453822 -1.18021
2043 52.0697 26.405 2.90197 1.90463 -0.201603 0.0609726
969 20.0456 27.2504 3.63034 0.585079 1.98611 -0.511204
3485 61.5572 27.3323 3.5201 -0.769904 -0.18891 1.68055
1697 56.3094 28.6127 2.9333 1.22424 0.268496 -0.332691
2766 62.5406 28.3952 3.67357 -1.69236 0.536444 -1.5537
3776 22.5208 29.869 3.52893 -0.285519 -0.233416 -0.791568
532 61.0005 31.9706 4.12663 -0.938821 1.73858 0.559221
775 72.7186 32.0803 3.47758 -0.00236052 1.34716 0.062512
3 7.66177 35.2087 3.54213 0.292462 -0.392958 0.19744
3759 33.7391 34.1082 4.02249 0.66347 -0.113659 -1.43782
2221 57.7153 0.526382 5.24735 0.786803 -0.720422 -0.224944
706 6.96248 1.84386 4.74732 0.0739714 -1.18189 0.355633
1706 26.4464 1.72547 5.43374 0.375907 0.223562 0.292734
3367 32.768 1.78342 5.46795 0.622901 0.702944 0.244213
989 6.86842 3.43824 4.99269 -1.26195 0.459961 0.185041
542 16.7293 3.80388 4.54495 0.631303 1.37316 -0.552276
2817 57.8252 3.40936 5.18768 -1.25737 0.840604 1.63018
1563 1.01748 5.5824 5.57375 0.28137 -0.0487522 0.483923
2387 28.0939 7.05944 4.59401 0.315463 -0.671685 0.580079
1982 68.9119 6.2264 5.49676 0.981292 0.472822 -0.78044
1946 71.8586 7.66332 5.23518 0.480013 1.15482 -1.44195
3129 16.9568 9.16491 4.61678 0.729284 0.198373 -0.352288
198 25.7276 9.1669 5.27288 -1.9163 -1.05389 0.220469
3005 37.2615 10.2291 4.60338 -1.39314 1.62456 -0.351166
2725 5.44718 15.2665 5.56458 -0.632393 -1.0073 0.0470116
749 10.9253 15.3907 4.54584 -1.36047 0.444529 0.0193107
1179 22.2409 14.5963 5.06503 -1.38264 0.257281 1.95765
1250 59.2445 14.483 5.02189 0.281537 -0.108549 0.639258
2952 60.433 17.5376 4.31049 -0.98144 0.810439 0.975861
3743 29.7257 18.6412 4.60635 -0.465508 0.548973 -1.28522
3455 61.9497 19.2437 5.547 -0.371517 0.396835 0.21023
1333 60.9133 20.029 5.53447 1.38969 1.68081 0.428133
3271 65.4157 21.405 5.01176 0.58839 0.929297 -0.158925
3182 73.0443 21.6168 4.86818 0.360765 -0.0692905 -0.812524
2301 25.062 22.6813 5.52829 0.734086 1.45068 1.02566
705 32.0643 24.07 4.68863 -0.210614 -0.373059 0.968025
535 67.0863 23.8298 4.49746 -0.0776336 -0.525721 -0.834846
2453 69.1282 22.782 4.85563 0.346148 0.418405 -0.501917
3559 47.5782 24.9414 4.42991 -1.31196 -1.23493 -1.00168
3443 21.9329 26.7211 4.75523 -0.669463 0.608967 0.367775
1099 68.5354 26.076 5.20667 -1.14187 1.04593 0.0875747
402 33.5595 27.2916 5.21038 -0.339555 1.51907 0.672807
3931 38.5781 28.2665 5.33041 -0.256804 0.285851 -0.613646
2770 59.6524 27.6109 4.30272 -0.582104 -1.17484 -0.0550163
2871 68.5215 28.5283 5.35794 -0.0491784 -1.9657 0.195358
3020 1.81147 32.4793 5.46202 0.848875 0.353224 1.76049
1677 16.1657 32.0168 4.32541 0.399578 -0.149777 -0.993504
2449 73.3232 32.4619 4.40534 -1.05495 1.21245 0.389331
3551 22.0786 33.6795 4.268 0.236192 1.37165 0.220554
1370 42.9145 33.1607 5.65845 -0.431363 -0.507344 1.75693
3771 57.5009 33.9307 4.96067 1.9363 -0.14753 0.374064
1042 43.7391 34.6287 4.74165 -0.19957 1.19133 -1.06304
2407 66.663 35.186 4.35615 -0.159094 -1.07867 -1.16679
2676 16.0413 36.4815 5.25283 0.364935 0.941392 0.992634
1061 42.0901 2.29544 6.27039 0.193778 -0.0271911 0.9413
735 22.7771 5.0729 6.55226 0.281644 0.121588 -0.359797
2791 50.0185 6.2104 6.46726 2.81531 -0.175902 0.130422
3366 55.1805 6.71226 6.77074 -0.934325 -0.0811001 1.15848
2018 47.452 7.38828 6.01279 1.51513 -0.469642 1.40277
1791 32.5608 12.9196 6.22612 0.662877 -0.783059 -0.0092825
3635 56.4713 15.0133 6.99234 -1.94245 -1.55562 -1.99099
2375 43.1524 16.4484 6.41167 -2.03015 -0.139906 -0.786864
3073 28.0779 18.3083 7.00934 1.54892 -0.870459 1.46081
281 56.4411 19.593 5.72506 -0.851365 0.964543 -1.24717
769 50.1821 20.6513 5.84 -0.475377 1.50012 -1.2361
2047 19.5797 22.4685 6.33302 -0.533641 -0.733947 -0.389654
3989 43.6983 24.0867 6.09466 -0.119973 0.475081 -1.20232
1084 17.4661 24.7215 5.82039 -0.572584 0.843337 -2.1917
2049 36.1679 24.7458 6.36139 0.387295 0.387979 0.210856
2736 56.6783 25.0615 6.53266 -0.427471 1.20936 0.20601
2667 34.6364 28.134 5.75445 -0.903987 -0.250848 0.972339
3788 65.9701 28.1662 6.95261 1.19918 0.707492 -0.377745
3710 30.8806 28.6739 6.3724 -1.26783 1.17896 0.640214
147 69.2509 29.1546 6.04954 -0.915114 0.139831 1.19147
2248 22.3999 30.0868 6.91875 -2.01786 -1.20821 -0.949065
3320 31.0771 31.1384 5.96527 -0.715799 0.512827 -1.69813
1221 47.6326 30.9282 6.62343 -0.263438 0.961658 0.350884
1778 52.4377 30.0341 6.61833 -0.57121 -0.889439 -0.917611
61 11.0919 32.3299 6.05155 0.428753 0.0293604 0.0963672
1659 23.1316 31.5777 6.55509 0.866303 1.13195 0.193651
172 61.0356 32.4843 5.67932 0.786202 2.3364 0.530242
679 23.67 33.2016 6.43983 -1.73539 -1.69157 -0.0648957
118 53.8191 33.1217 6.66628 -0.299713 -0.754476 -1.59786
2040 55.8297 33.1181 6.85388 2.97846 -0.855243 0.867556
2464 22.1868 0.018193 8.31402 -0.759126 0.176348 -1.37488
1707 40.9088 0.175842 7.12863 -0.116472 -0.284313 0.887231
2243 71.2687 1.47583 7.81313 -0.160451 -0.972888 -0.547006
1217 8.5668 5.86195 8.10076 -0.715764 0.323919 -0.402109
672 1.90456 8.43822 7.21749 -0.208713 0.0818274 -0.312537
2384 23.843 9.31718 8.03827 0.412215 -0.335021 0.0693759
962 36.3324 8.8094 7.3779 0.380672 -0.778975 -0.294247
2548 53.92 9.31171 7.1631 -0.535743 0.907357 0.45788
629 59.1489 8.5247 7.74525 0.528082 1.17696 1.0141
1305 67.0062 9.2318 7.46968 0.530991 -0.0530594 -0.841888
42 1.75439 11.0988 7.56257 0.373002 0.264954 -0.390858
63 8.90552 10.827 7.90963 -0.127634 0.620051 -0.963194
1661 9.7529 10.1426 8.22725 0.630044 0.755801 -2.0175
1928 43.9017 10.5024 7.57689 -0.718322 -0.293911 -0.421134
280 14.8442 12.1746 7.69052 -0.382615 -0.516027 0.0190172
2904 18.8151 11.8469 7.30414 1.5989 -0.428279 0.751363
1973 56.4671 11.9626 7.63107 0.431517 0.0371953 0.0466866
386 10.0555 13.2876 7.45787 -1.35904 -0.410596 3.07735
1428 13.6972 14.1768 8.35961 -0.270873 0.387257 -0.390955
1622 18.9191 16.7129 7.45542 0.696734 1.27717 0.823925
2424 42.5577 16.3243 8.49744 -0.187503 0.502416 -1.62889
3947 2.67244 17.1341 8.16878 -1.15705 -0.0600597 0.615118
2127 49.4267 17.1004 7.18947 1.09937 -0.494386 -0.685033
1705 53.2258 20.3254 7.35217 -1.21347 1.35333 0.417175
3696 27.438 22.3 7.88362 0.863145 0.278277 -0.518221
1593 65.1307 21.9517 7.12629 1.64579 -0.102629 0.674781
1262 59.4516 22.8893 8.48348 0.0229215 0.714678 1.83486
3048 62.8497 22.9204 7.24055 -0.437671 -2.41108 1.99022
85 28.8573 25.3277 7.33535 0.830754 0.840366 0.345328
2650 9.21624 26.629 7.56483 -0.354042 -1.99144 1.67484
3652 3.38979 27.7756 7.58838 -0.856089 -1.00653 -1.8241
3884 24.3269 28.3603 8.37222 0.74334 0.949231 0.63701
1841 25.6239 29.5648 7.97332 1.40574 -0.402951 1.44615
1480 65.2457 28.6731 7.8244 -0.705192 0.672328 -1.60187
3372 14.4928 30.7973 7.77073 0.00870761 0.360508 0.773542
3688 30.8499 31.7089 7.69538 -1.38006 0.343091 -0.832315
1087 24.955 34.372 7.7374 -1.15231 -0.502125 -0.457523
3315 26.419 0.0875754 8.69069 0.332115 1.51663 -0.334401
187 37.6116 0.629183 9.15397 1.54899 1.96996 -0.0663188
2432 56.3273 0.22316 9.20365 -0.505421 0.950937 1.85054
2668 6.2804 1.50253 8.5663 0.641245 -0.133911 -0.358646
707 14.8781 1.5689 8.50983 0.630836 -0.739571 -0.483099
1291 32.5406 1.65148 9.58615 -0.441229 -0.382759 -0.735983
3208 59.6034 3.58776 9.57738 -0.458977 -0.62257 -0.0815795
2527 29.6523 5.51109 9.59644 -0.226497 0.116594 -1.41213
1756 42.0329 4.36689 8.97835 -1.1803 1.36923 -1.01474
2728 61.9384 7.04792 9.74607 0.809589 -1.13736 -1.31377
1738 65.1024 6.50007 9.88305 -0.521769 -1.35563 0.263901
2067 28.7805 9.38906 9.87301 -1.05148 -0.421536 -0.0530684
1631 52.5857 8.54625 8.72858 0.412239 -0.642339 0.606917
1134 11.43 10.3685 9.42416 1.70582 0.481922 0.581174
1248 73.1969 10.7527 9.17573 -1.07898 0.0997505 0.631757
3149 73.5773 11.6922 9.51528 0.937371 0.908331 -0.282696
1362 63.7861 13.0865 8.55816 1.77318 1.10495 0.842901
3870 47.5614 15.2312 9.60633 -0.558991 -0.458447 0.632825
2611 70.8711 15.1423 9.07536 0.401835 -1.14892 -1.02675
1569 50.9072 16.8318 9.19208 0.213231 0.616649 1.90022
2488 10.9117 17.5696 9.11122 -1.52397 0.818346 0.669306
2429 14.1836 20.2215 9.01523 0.384977 -1.31679 -0.961266
2516 17.1137 19.9588 8.54196 0.134304 -0.152971 -0.599824
3683 25.1377 20.1941 8.52501 -0.290535 -0.446554 0.886638
2244 7.73283 21.7068 9.50931 -0.169921 -0.553936 0.0175262
760 9.27934 23.4022 9.42015 1.16274 -0.120905 1.54414
322 15.8145 22.8168 9.4783 -0.97267 -0.00140504 -0.152639
3124 5.50798 25.4994 8.7787 1.58102 0.415006 -0.682784
2803 42.3286 25.0726 9.84666 -0.297321 -1.04307 0.200273
946 62.3969 25.2897 8.73205 1.43213 2.20801 1.17904
3730 73.2161 27.8943 8.74341 -0.896622 -0.53195 0.76019
1810 29.7216 29.0442 9.88086 -0.651987 -0.834721 -0.861933
3355 53.8597 28.935 8.51445 0.108532 -0.953949 1.44064
527 39.9588 30.5708 9.73119 -1.18647 -0.116885 0.922924
2916 70.1553 30.5044 9.23632 0.122566 1.20292 -0.344935
1152 22.7199 32.3893 9.10176 -0.18891 0.849639 0.228263
1164 16.547 32.7298 8.87296 -0.620989 -0.579832 0.0156086
119 62.4171 34.0439 9.54874 0.29727 0.550821 -0.521478
3204 15.4893 2.35899 11.2984 1.02341 0.490552 -0.506566
2072 41.8936 4.17703 10.1962 -0.857347 -0.0838877 0.932292
1840 35.7059 6.06422 10.1734 -1.21083 -0.926212 -0.282152
2850 37.708 6.10295 10.743 -0.294883 0.360075 1.1299
3286 13.9004 9.33421 10.237 -0.154249 1.00449 -1.30999
2833 39.1977 10.5129 10.9258 0.494596 0.920242 -0.289379
2254 19.4136 11.9724 10.268 -0.105889 -0.860074 2.27258
1346 4.02841 13.448 10.2091 1.27587 -1.18045 0.986594
851 8.20851 13.5296 10.8165 -0.398022 0.968061 0.803011
2628 42.1189 13.8578 10.223 0.212464 -0.156135 2.23263
2291 69.2166 13.2614 10.8715 1.00114 -0.831085 -1.9886
3310 36.3247 15.4262 11.0985 0.523749 2.35267 1.62628
3838 1.07301 19.6746 11.2775 -0.481381 -0.553479 0.959695
3222 37.124 20.4292 11.2255 0.2546 -0.695294 0.506031
463 49.623 21.5476 10.0219 -0.657103 -2.70597 -0.308488
2136 49.7251 21.9014 11.1877 0.376964 -0.783044 -0.100716
2180 31.918 24.8493 9.98512 0.608349 -0.626715 0.483059
3592 13.0134 25.7112 10.239 0.609408 0.935779 0.587672
3022 13.248 26.0614 11.276 0.679386 -0.389578 0.330095
3993 36.2102 26.8495 10.2895 0.427227 1.67527 0.12927
1201 4.42766 27.3389 9.92751 0.838571 0.122566 -1.60536
1091 12.4061 27.7434 9.99329 -0.094401 -1.21857 -0.958876
2022 5.15799 28.898 10.6287 1.11119 0.257206 -0.348768
3569 20.2726 29.5426 10.4164 -0.199903 0.3712 1.03477
1236 26.6219 28.5466 10.369 -0.686954 0.307723 -0.660507
3922 20.8938 30.105 11.0632 -0.56276 0.479556 -0.713
3404 31.2533 30.3293 10.5481 -1.34569 1.73923 -0.84664
2646 45.2347 31.1536 11.1332 -0.552938 -1.12058 1.0845
3533 1.28808 31.9089 10.0204 -0.132648 -0.118077 -0.282998
1184 31.0995 31.6895 10.0482 0.400513 -0.99636 -0.620738
2247 16.2296 33.1451 11.2874 0.229577 1.24395 0.140036
1235 28.6365 33.2902 10.2784 0.166024 -0.488929 -0.613191
507 24.8099 34.8614 10.9058 -0.936831 -0.653524 1.96553
3496 19.7292 36.4057 10.6341 -0.0414714 0.796083 0.285414
566 1.92779 2.21601 12.7218 -2.58183 1.35715 -1.83461
1176 4.55651 1.67387 12.5946 -0.260348 0.234248 1.00281
665 17.0719 1.92618 11.8024 -0.619625 0.862558 -0.422246
1560 5.40652 3.35994 11.8611 1.51844 -0.219892 1.78607
330 6.22383 5.48574 11.9232 -0.58018 1.61102 -0.146218
1360 18.4007 6.03107 12.722 0.468985 -1.71059 -0.290131
1618 23.5324 8.18456 12.2303 -1.56038 -0.040757 0.795089
2005 65.94 7.79648 12.383 0.493485 -0.465468 0.466968
2845 22.9066 12.2239 12.1567 0.45777 0.0208401 0.889434
3525 23.7605 12.6227 11.709 0.140229 2.07358 -1.46825
1562 52.5513 12.5544 11.838 -0.770966 -0.550458 -0.904983
2214 34.0074 13.2509 11.6731 1.16281 0.41265 0.190296
2032 70.3308 13.119 11.7789 1.37119 -0.117762 -0.966652
853 49.3617 14.6373 12.1725 -0.915947 0.792952 0.507535
1211 50.4244 14.6954 11.87 0.377244 0.20736 1.46139
1600 34.8909 17.0428 12.262 0.00917241 -1.21166 -0.905242
3117 36.1454 17.8462 12.1722 -0.218555 -1.59621 -0.108799
1826 38.1345 18.0663 12.0419 1.44538 -0.0382516 -1.94491
3156 5.88887 21.0873 11.6219 -0.858614 0.603753 0.00753205
3589 9.81363 21.2314 12.5275 0.673996 0.105927 0.443159
308 10.9174 20.7554 11.9744 -0.321435 0.233468 -0.725839
3491 21.9207 21.1422 11.6892 0.211196 -0.643133 -1.38726
3090 57.1033 19.8378 12.1337 -0.495386 1.08889 -0.418151
3447 45.822 21.5724 12.2381 -1.51251 2.28187 1.41866
956 10.7007 24.3262 11.3669 0.356365 0.958177 -0.23325
1878 60.9342 24.7101 12.0781 0.255738 0.563226 -0.362935
321 38.2431 26.359 11.768 0.246958 0.955306 -1.31531
3395 44.8064 26.1436 12.0801 1.44899 -1.67365 -0.936446
239 6.51577 27.669 11.5183 1.85711 0.00743156 0.625263
2343 57.8696 26.9505 12.5334 -0.450713 1.75207 1.59119
2190 24.7212 28.8364 11.8687 -0.72536 0.0525202 -0.264998
423 28.4737 29.1852 12.2993 -0.792387 -0.231743 1.24093
24 37.6167 28.6216 12.6935 2.02498 0.931172 -0.205059
2832 44.3814 29.9584 12.7183 -2.65604 -1.73234 3.17361
474 69.4689 29.7619 11.8166 2.62597 -0.669175 0.705019
3192 31.4479 31.2743 11.345 -0.994512 0.531265 0.0738122
520 34.8713 31.8942 12.7235 0.751825 -0.532638 0.166154
87 55.9796 31.6181 12.1415 0.697149 1.37411 -0.102869
3587 56.9359 32.2633 11.7789 -1.18745 1.36285 -0.261067
201 61.0661 31.9179 12.2058 1.47509 0.137248 0.711485
2160 69.2252 31.371 11.594 -1.16723 0.211042 0.677247
2517 64.7856 33.0639 12.6526 0.294573 0.488534 0.132626
3708 34.0277 35.0894 11.8218 0.431936 1.75922 -2.32452
1881 40.0922 34.9539 11.524 0.492095 -1.21029 -0.336724
1595 63.8433 34.316 11.6722 -0.834182 -0.701986 -0.270887
129 52.6619 0.687098 13.6268 1.5382 -0.475168 0.120659
3111 48.2511 2.67494 12.9939 1.43496 -0.284738 -0.754067
1801 5.61934 3.57871 12.8792 -1.48026 0.29594 -0.498759
3604 64.494 3.12098 13.774 0.405971 -1.70327 0.0337686
3190 16.4748 5.61331 13.8009 2.60507 0.561902 -0.317427
1550 29.9512 4.94417 14.0611 0.789752 -0.672263 -0.400634
326 18.0041 5.89061 13.7134 1.0326 -0.237002 -0.0925339
2238 69.2289 6.84941 13.1513 -0.60659 0.695466 0.28625
1056 40.2874 7.55844 13.4126 -0.642929 1.08387 0.0444916
1809 46.11 8.42562 14.0834 1.33306 1.03997 0.603288
2897 52.3526 8.04784 13.0377 -1.2199 0.599297 -0.780012
1195 71.7396 12.6593 13.3461 -1.39718 2.22346 -0.952715
1902 16.5734 14.2443 13.2419 0.603713 0.532587 0.915325
137 22.9769 16.2605 13.1629 0.728717 0.462729 1.5651
1427 29.0365 16.0054 13.8793 -0.711164 -0.321376 -0.105892
3276 37.8687 15.6127 13.5407 0.50756 -0.111161 1.23424
2478 53.0701 16.9877 13.2369 0.612376 1.27241 -1.00138
888 44.4468 17.6101 13.3985 -0.083493 -0.964239 0.430703
3396 43.9434 19.772 13.5385 0.101862 -0.612649 -1.29305
1561 4.04034 20.442 13.8855 -0.025873 0.655332 1.84074
924 43.6547 20.8401 14.1424 -0.264692 -0.22206 -0.695338
3744 42.9657 19.9762 13.9136 1.72639 -0.174585 -1.3075
3487 52.3466 19.9687 13.9599 1.23967 -0.0568835 -0.214094
1759 70.4422 20.6261 13.7928 1.65652 -0.625445 -0.497865
3966 12.4122 22.4689 13.1782 2.17801 -0.705415 -0.779374
673 40.8026 21.3202 14.0476 0.876446 0.279934 1.59111
435 61.4905 22.4948 13.4592 -0.271852 1.04051 1.00303
133 15.9416 23.8821 13.7847 -0.207208 1.82154 -0.344939
1899 58.4308 23.3679 13.3899 -1.43519 0.97019 0.137774
1691 60.9881 24.4184 14.0376 0.769071 0.90388 0.107766
3229 68.9375 26.5777 13.0581 -1.38181 -0.126105 -0.429018
667 48.9518 28.1998 13.5198 -0.560246 -0.621473 -0.730572
1554 15.4689 30.9299 13.1578 0.127841 -1.06724 0.200126
313 16.2124 30.8002 14.0068 -2.24934 -0.716783 0.842489
189 56.3597 30.4641 14.1643 -0.0711874 -0.283577 0.535813
1361 58.3511 30.566 13.6476 -1.46382 -0.00863595 0.243834
1327 30.5559 31.4444 13.4904 1.46438 0.332283 -0.902377
3565 48.1838 33.1518 13.0581 0.0339019 -0.605949 -1.23215
3953 60.2063 32.9458 14.1644 1.29239 0.208349 -0.0863267
1990 6.34262 34.6317 13.595 -0.743844 -1.76472 -0.432618
3586 25.8484 34.3275 14.0803 -1.55472 0.225056 -0.89151
3724 40.9296 34.1265 13.9728 -0.403693 -1.04735 -1.10554
572 45.8604 34.9755 13.7672 -0.413149 1.44622 -0.522395
671 54.8915 34.2172 13.1584 -0.658371 0.0538026 1.25704
2795 64.0205 34.2194 12.8795 0.158687 0.0908004 -0.66387
544 13.7075 35.5242 13.8478 0.316604 -0.976321 1.12549
3086 26.8212 35.6619 12.998 -0.183171 -1.04094 0.491294
2154 12.0915 0.434401 14.8031 0.873281 1.96845 0.321215
702 20.7326 0.701909 15.4662 0.698626 -1.3698 0.982175
2130 50.0002 0.624484 15.1996 -0.263578 0.169929 0.413319
1853 12.0944 2.82733 14.6318 2.77805 0.427703 1.27445
910 67.9859 3.77019 14.4303 0.792391 -0.906239 0.407859
482 27.3685 6.39425 14.8249 0.0693584 0.341685 0.233568
2860 31.3806 6.84988 14.8512 0.613022 1.21121 -0.688975
2290 47.3112 7.35463 14.6196 1.67737 -0.275462 -0.0812829
704 11.078 9.82038 15.2809 0.259566 -1.00813 0.717836
1941 19.4042 9.44053 14.9613 0.548356 -1.79069 -0.334994
2334 44.4296 9.48356 15.0956 -1.64897 0.304378 -0.264702
627 34.755 12.0465 14.1987 0.869391 0.660662 0.665223
2235 42.6348 11.4647 14.6227 -1.20902 1.06207 -2.50405
979 44.4514 11.4277 14.8462 -0.583546 0.493169 -1.41188
2632 9.19684 12.8342 15.4779 -0.180388 0.392883 0.0786014
1461 22.9113 13.892 15.2149 -0.307185 1.26282 -1.219
2272 3.34771 16.1612 14.7953 0.0707054 0.691186 -1.31362
690 5.58451 18.3266 15.3386 0.0793311 0.0479326 -0.91983
1788 11.4739 17.59 15.1632 -1.00181 -2.11093 -1.6057
2868 55.1241 18.0749 14.9277 -0.1293 0.062102 0.407147
2589 22.8214 19.4471 15.408 -0.0892419 0.575151 -0.343809
2687 0.783792 20.1196 14.6331 -1.00699 0.237831 -1.16039
329 22.6111 20.608 14.1954 0.447979 -0.103373 -0.278366
3060 24.512 20.2616 14.5181 0.540917 2.02987 0.303499
3971 21.309 22.8877 14.234 -0.451754 -0.875087 -0.0985029
1699 41.7357 22.944 14.6366 -0.440437 -1.18673 0.939337
1104 26.5311 25.4711 15.2589 -0.439171 0.030956 -0.109859
1018 28.7816 26.5813 14.7786 0.308106 0.0134837 -2.69053
1349 50.7201 28.0829 14.8338 0.767335 -0.0538189 0.715593
536 57.2458 27.0592 14.307 1.79741 -1.52731 0.528729
2489 12.911 28.9787 14.2083 -0.939526 -0.137049 -0.995561
216 54.759 29.6258 15.3479 -0.652362 -1.16393 -1.56098
2948 4.36018 32.7652 14.4483 -0.992957 -0.353366 2.73567
2754 24.6725 32.9864 15.5648 -0.738454 -1.81505 1.31153
1204 29.0633 33.0508 14.5616 0.195138 0.849924 1.05424
3540 72.3613 32.7501 15.5462 0.529064 1.21093 1.54126
2814 26.9848 34.5072 14.9217 -0.127937 -0.237515 -0.807008
1592 58.3411 34.461 14.3065 0.0352555 -1.00846 -0.361924
2396 68.6466 36.6223 14.413 1.66876 -0.996938 0.961649
2114 5.04738 3.81263 16.6112 -0.607954 1.91383 -0.287922
742 42.9173 2.90748 16.1592 0.125176 -0.1109 -0.642678
807 7.18015 6.83282 15.8166 0.830736 0.786364 -0.766466
703 47.1217 6.21251 16.811 0.34263 -0.0128283 0.793216
986 62.9051 6.56299 16.1077 0.0689949 -0.932836 -0.51479
3029 29.7277 9.58564 16.6623 0.443318 -0.159661 1.47136
3673 58.4894 10.0865 16.389 0.521286 -0.376969 1.19429
3681 57.3054 12.2303 16.7398 -0.312773 0.685574 -0.452724
2260 71.0777 12.7067 16.2826 0.543857 1.30188 0.131179
420 5.43118 13.6244 16.6215 -0.0543557 -0.795092 -0.351546
2554 42.9587 15.3916 16.0811 1.34479 2.10812 0.306747
3198 59.719 14.176 15.9344 0.725863 -0.54938 -0.485991
1163 61.5602 15.5343 16.9171 0.597797 1.04781 0.44476
2858 71.8569 15.3494 15.9555 -1.28768 -1.98635 0.0127075
2852 33.3277 16.117 15.722 0.0892069 0.784606 0.501751
820 41.0933 16.617 15.9766 0.788321 -0.0662735 1.67649
3314 54.3772 15.8261 15.7213 0.293736 -0.91479 -0.733006
1753 21.5229 18.7858 15.8867 1.36802 -0.522888 0.612693
3875 46.9189 20.784 16.4758 -0.583954 -0.606932 -0.7773
2222 61.7522 22.4599 16.3185 -1.8925 -0.0503497 -0.242959
2918 66.3086 24.0755 16.467 0.527051 -0.442815 -0.229559
3018 12.7087 26.8177 16.394 0.670254 -0.56921 1.41101
84 29.5395 26.018 16.6062 -1.469 -2.88111 1.39299
1776 4.90394 27.452 16.6373 -0.49058 -0.38896 -1.21253
1831 30.3159 29.5013 16.9037 -0.733622 0.573087 -0.573731
453 11.7713 29.8772 15.7795 0.550911 0.0953205 1.51692
758 3.69424 33.3493 15.5894 0.0667225 -1.32093 0.051694
3846 31.554 33.1569 16.2005 -1.8282 0.750475 -0.863138
3053 10.4546 34.5776 16.1737 0.0506673 -0.98155 -0.329526
2921 68.1483 0.520762 17.091 -0.448787 -0.665136 1.30633
243 2.22772 2.00675 17.3194 0.144664 0.0747991 1.57266
1228 19.3076 2.06604 17.6996 -0.237583 1.58041 -2.01484
688 67.2162 2.38789 17.7073 -0.285729 -0.186942 -1.70241
2764 49.0143 3.28351 17.7882 -0.54235 -0.413182 0.868295
3904 12.6991 5.64177 17.0792 0.614585 0.399638 0.563976
563 48.124 6.46834 17.9774 -1.00491 1.80298 0.134313
1825 53.218 5.92733 17.5509 -0.0575957 -0.514797 -0.398398
745 47.9521 7.65233 17.6974 -1.24524 0.378774 -1.34753
351 58.221 7.23542 17.7177 -0.69477 -1.01637 1.22385
185 30.4574 8.98843 17.3572 1.06503 -1.60977 -0.84989
639 25.638 11.26 17.9308 -0.0357805 -1.79909 1.45644
2063 43.3863 12.1746 18.3876 0.0416456 -1.56597 0.194601
589 51.9809 11.5989 17.509 -0.246727 1.42592 1.09521
3240 14.7772 13.8529 17.0787 -0.823665 0.631327 -1.00877
3184 14.5546 14.9346 17.3754 -0.950587 1.18311 -1.1751
340 43.5396 14.5344 17.6453 0.502946 0.585849 0.339492
2768 31.7375 17.9948 18.1262 0.542554 0.311225 -2.04283
2511 51.7991 19.7113 18.2059 -0.589476 -0.0104808 -0.842013
36 60.2162 19.038 17.9922 1.69037 0.164131 0.591013
2373 8.88491 21.069 17.1861 0.218616 0.941424 -0.796005
1782 10.8809 20.497 18.413 0.979925 -0.598827 -0.0916749
913 40.8107 21.098 17.128 1.05118 1.08485 -0.0820887
1587 39.3923 23.3718 17.0907 -0.264013 -0.26081 0.496762
2712 11.6951 25.3659 17.0791 -0.712941 -0.111182 0.591674
1832 27.4748 26.2628 17.1046 -0.449813 -1.41953 -0.246477
117 41.8971 26.0461 17.0134 1.79023 -0.734956 -1.36111
3725 47.2857 26.2716 18.4117 0.47251 -0.815636 -0.262118
1518 17.8483 29.2326 17.937 -1.48583 0.101858 0.463566
1384 66.2876 28.9019 17.0272 0.453932 -0.220499 -1.34624
930 33.1622 29.9118 18.2284 0.19794 0.0215781 0.815044
2976 43.6788 33.4391 17.1018 1.33831 0.988147 -0.0476296
3722 34.1555 35.1575 17.863 -0.545959 0.212719 -0.992721
2128 35.2432 35.9097 17.9452 1.95404 0.071136 1.03159
1498 64.0089 36.2804 17.9352 -0.356401 0.0491493 3.10305
3627 0.727196 0.260981 18.6362 0.869404 -0.386072 0.0531811
107 42.7013 0.438101 18.8211 -0.590285 0.330272 -1.62197
15 13.8035 1.47016 19.011 0.278172 0.919964 -0.282757
2813 54.6405 2.03599 19.6603 -1.30577 -1.26099 -0.440519
460 70.3973 2.20195 19.5237 1.22583 0.993571 0.273747
2428 26.4141 3.37271 18.6939 0.0251422 -0.694619 0.669441
1484 29.0543 4.02572 19.6084 -1.48345 0.262513 -0.734125
1118 48.2578 3.65004 19.0363 1.48062 -0.163074 1.00895
283 7.46228 4.54796 18.4369 -0.272755 -1.21576 -0.0511038
94 72.7243 5.71387 18.5451 0.726868 -1.79305 1.57675
3631 4.62615 11.0994 19.8211 -1.18853 -0.606369 -0.540138
3620 19.8459 11.0175 18.8064 -1.21807 -0.433778 0.617201
620 52.7035 12.1903 18.9837 -0.609157 -1.46797 -0.0649115
502 20.8604 16.8124 18.5349 2.09461 -0.0649705 -0.0169968
1774 4.1831 17.9226 19.3732 0.183979 -0.593213 -1.11736
2582 14.193 17.7629 18.4275 -0.146003 -1.58401 -0.966361
1556 44.0835 17.6522 18.7681 -0.340508 0.0788679 -1.18696
236 68.3136 17.7194 19.2136 -0.703045 -0.553063 -1.0929
1181 4.01618 18.9366 19.1409 0.304544 1.2782 1.36025
1651 6.05715 19.96 18.6067 0.751216 -0.61975 1.22402
3176 35.0092 20.7864 19.7715 -1.22459 1.30937 0.0171702
430 44.4599 21.3771 19.3825 0.873207 -0.645216 -0.636318
3666 31.4708 22.8652 19.0414 -1.16062 1.01681 -0.455614
2901 43.5121 25.11 19.5832 -0.964662 -1.30033 -1.12115
2376 3.09869 33.9306 19.6214 0.74304 0.351363 -0.590235
1686 23.4188 33.7117 19.5022 1.17153 1.14282 0.557336
993 26.2318 35.7604 19.5412 0.974806 0.422444 -0.390203
370 31.5021 36.8212 19.6747 0.281204 -0.57883 1.08507
1780 26.3918 1.10543 20.9903 0.432125 -1.1919 0.882609
2608 57.7978 3.89761 20.8116 0.0842641 -1.50956 0.114369
2036 63.6383 5.36274 21.1705 -0.445194 1.09054 -0.00306513
3296 66.9331 4.4864 20.2604 0.78085 0.227899 -0.203139
756 3.22315 6.30037 20.511 0.77322 0.0743943 -0.0107718
2336 34.6632 6.6804 21.1533 0.0856785 -1.20408 -0.183388
2030 58.5803 5.77262 20.7278 0.271744 -0.804559 -0.860599
1106 69.2699 6.603 20.4578 0.513197 -0.314667 -2.09264
2003 58.411 7.86076 19.8971 0.946531 0.336986 0.458979
3212 71.5868 7.56818 19.9903 0.0988791 0.237378 -0.271719
469 71.2772 8.24784 20.876 -0.804994 0.846838 0.137137
2961 13.6749 8.6893 20.239 -1.15798 -0.182248 -1.2716
1619 44.7317 8.89463 20.1666 1.02627 1.43312 0.516287