ITEM: TIMESTEP
69000
ITEM: NUMBER OF ATOMS
4000
ITEM: BOX BOUNDS pp pp pp
0.0000000000000000e+00 7.3680629972807722e+01
0.0000000000000000e+00 7.3680629972807722e+01
0.0000000000000000e+00 7.3680629972807722e+01
ITEM: ATOMS id x y z vx vy vz
2043 9.9995 2.42319 1.24815 0.423877 0.784156 2.26484
2682 9.44681 3.34189 1.02295 1.26194 0.381703 1.7025
43 54.8705 3.46512 0.992911 0.718078 -0.925789 -1.13123
2420 57.2284 4.2385 0.869018 -1.57841 0.717363 -0.960873
408 50.8039 4.40059 1.10563 0.193543 -0.152233 1.41164
2325 4.07993 6.16458 0.850222 -1.83595 -0.0804382 -0.200776
2217 28.1233 6.68324 1.18919 -0.476676 0.843098 0.426339
756 59.688 8.32108 1.12467 0.0510485 0.948563 0.116919
1152 31.4994 8.70796 0.744653 1.32723 0.841744 -0.418065
942 50.4301 10.7393 0.0748204 0.726545 -2.06634 -0.324431
1563 50.6205 10.7231 1.31336 -0.68452 0.822852 1.81402
1021 63.0585 10.846 1.36666 -1.06321 -2.63551 0.0324376
2858 70.1327 11.0295 0.69265 -1.84237 -0.207053 0.313018
3246 60.7999 11.7823 0.139054 1.63493 0.850212 -0.10699
1733 5.46429 15.6295 0.213616 -1.80299 0.82144 -1.30345
2188 38.6261 17.3257 0.747725 -0.289346 -0.29454 -1.01066
3113 39.8113 18.34 0.682056 0.830143 -0.537198 -0.40475
3025 67.2778 17.1363 1.29515 -1.14503 0.337882 1.40102
3094 65.1795 18.7928 0.293332 -0.0263215 -0.816135 -1.59093
1071 29.3479 23.8973 0.965258 -1.37993 -0.155986 0.906893
293 36.9139 23.2706 0.0325256 0.486384 -0.00522142 -1.64851
3270 49.7527 23.524 1.10092 -0.300617 -0.84606 0.292302
544 48.0793 25.2389 1.30361 2.04617 -0.222386 -0.945636
3345 20.5835 28.2948 0.291381 -1.43629 0.505019 -0.0468626
3153 4.62444 30.9084 0.81942 -0.590985 0.00678032 0.710532
2075 4.91578 29.8984 0.37978 2.16369 0.561193 1.08179
2743 58.9665 30.5203 0.981407 -2.37494 -1.2883 -0.286563
202 44.3323 31.3153 1.29251 0.257503 0.290277 -0.933451
2220 69.3551 35.8482 0.00687172 0.45602 -1.0792 -1.44887
7 8.47932 0.1507 1.71532 0.867185 0.262349 -0.199678
1231 28.0599 0.494687 2.5001 -0.0109303 -0.417256 1.75504
2724 27.1116 0.0479338 2.49962 0.812032 0.640867 -0.518155
120 36.437 2.19923 1.92602 -0.101424 0.789512 0.70108
420 53.2564 2.11365 2.29583 0.0490683 -0.257494 1.89044
3934 1.12502 4.12676 2.21653 0.437644 -1.11041 1.7843
2008 40.2127 3.61397 2.24929 -0.0800747 -1.21246 0.0194669
3162 71.1237 3.2176 2.49372 -0.801896 -1.27321 1.78292
1879 29.9595 4.33022 2.6748 0.79654 -0.357271 -0.432131
2138 56.7421 4.41361 2.04324 0.659617 1.90603 0.560591
2691 56.8283 5.5427 2.10368 0.251911 -0.902142 0.535641
2130 71.2089 6.35397 2.28635 -1.09602 -0.204023 1.18199
318 4.58986 8.38005 1.81115 -0.518827 0.257986 -2.44572
648 32.9678 7.91744 1.77366 0.301607 -0.560443 0.0263196
3573 41.5692 7.23688 2.32335 -1.75407 -0.544773 2.43011
1569 1.99813 9.30644 1.77328 1.23252 0.432279 -1.3432
3767 14.5897 8.75329 1.42497 0.391155 -1.22872 0.389281
831 13.176 10.0039 2.17103 -0.666923 0.173724 -0.819602
1055 14.0335 10.6817 1.57591 -0.691593 -1.14574 0.819391
2497 30.4491 11.1482 2.519 0.238365 0.324344 0.793058
1839 54.1769 10.7587 1.71131 -2.06215 0.647597 -0.474158
3397 23.2526 12.391 2.49728 0.439853 1.19492 2.14708
1572 29.4892 12.7921 2.35524 -0.315095 -1.00044 0.142037
2944 33.1211 13.2415 1.4848 1.2747 -0.399334 0.624715
1680 50.962 12.9327 1.61241 1.43816 -0.758953 -1.21494
2321 73.1962 14.2938 1.82804 0.243016 -0.0681814 0.218933
1171 24.2881 15.9563 1.86699 0.189055 0.18153 3.02644
3805 50.3757 15.948 2.4182 -0.227143 -0.130283 0.162359
2646 73.676 15.9714 2.40014 -0.468052 0.859384 -0.881465
3542 60.5293 17.3281 2.44121 1.55766 -0.432174 0.839557
3519 73.1679 17.6544 1.99816 -1.37781 -0.827325 -1.18402
3015 21.5021 19.2737 2.01979 0.103424 -0.670436 0.366717
2556 32.6047 19.2296 1.66091 0.326709 -1.52266 -1.51352
1126 60.2989 21.0568 2.40163 -0.643881 -1.35799 -0.229121
2496 58.0686 21.3445 1.50571 -0.985981 -0.542985 -0.127208
311 24.6136 23.6966 2.79964 -1.78313 0.796004 -0.176598
2026 28.2651 24.4167 2.67289 0.7868 -0.603662 0.0183242
642 5.55341 25.9138 1.96285 0.419299 0.990346 -0.662561
696 23.7479 28.6798 1.98442 1.37892 -0.0831881 0.750298
1801 8.34439 30.504 1.96756 0.0363014 0.321483 -0.563709
2421 20.9843 31.3965 2.49896 -0.834026 -0.595158 -0.106389
2678 70.2606 33.7809 2.62943 0.773811 0.577115 -1.69915
3504 16.9994 34.5707 2.76049 -1.68227 0.0889098 0.128519
438 54.7449 34.9097 1.99653 -1.79139 -1.59649 0.7967
395 67.9839 36.3189 2.1434 0.595228 0.0194999 1.92968
2124 5.65999 0.822702 3.84692 0.340114 -0.00125939 0.318741
2920 39.4252 0.578649 3.14102 -0.528793 0.921872 2.2931
2317 53.9923 0.334679 3.87863 -1.35744 0.114743 -2.08593
3819 16.6861 4.05967 3.82925 -0.814767 0.308856 -0.542513
2584 47.9809 4.60198 4.24586 0.589238 -0.604495 0.891356
3207 55.8188 5.68933 4.22115 -0.202849 -0.275316 -0.424353
3264 67.9859 5.89251 3.87216 -0.928967 -0.445398 2.53479
3281 45.4135 7.23543 3.78868 0.791235 0.148913 -1.36426
3553 8.12746 10.4622 3.25393 -0.12919 1.80252 0.079241
1301 12.3724 9.92002 3.4386 -0.380959 0.452521 -0.746231
2456 46.0289 11.8007 3.60619 -1.26502 -0.16973 1.39208
1233 13.069 13.5697 2.86 1.07019 -0.49546 0.634869
32 22.9468 13.5801 2.9599 -0.585313 0.278841 -0.806146
598 32.2992 13.3835 3.7055 -0.149146 0.767686 0.158572
299 33.638 13.6076 2.91349 -0.574368 -1.69712 -0.639884
252 5.66451 17.6618 3.11686 0.0230907 -1.81408 1.54666
1992 61.1582 17.8437 3.61547 -1.60419 -1.40075 -0.232294
1692 69.0296 18.8195 3.92952 -0.58894 0.100401 0.259186
3258 40.7409 21.3862 3.47519 0.579424 0.496291 0.690557
1054 46.9387 22.2245 3.55348 0.782512 1.59982 2.29277
721 55.3711 21.7892 3.9244 -0.124921 1.84539 0.903955
1082 35.4109 25.3075 3.76488 1.59154 -1.45103 0.418556
3927 70.5621 24.2495 2.95516 -0.552881 2.26429 0.675637
3899 51.1608 26.5167 3.58585 -0.304531 0.809302 -1.44118
3865 22.5479 28.0046 2.96973 1.59308 -1.70749 -1.31999
3082 31.299 28.3116 2.85626 0.355121 -0.34159 -0.633529
303 41.3344 28.9776 3.66656 0.0547488 0.192424 -1.48917
2036 72.1549 28.6994 3.76001 -0.271366 2.00131 0.021807
52 65.9775 30.9391 3.02844 -0.0120024 -0.267933 -0.710393
991 42.1957 31.5581 3.87752 -0.210193 1.20608 0.755037
1473 30.0945 33.7127 3.48038 -0.0197678 -0.955491 -2.65242
3325 61.0083 32.9664 3.88089 0.315694 -0.286511 -0.0180405
3276 44.6441 34.8388 2.865 -1.53551 0.779161 -0.116409
3286 53.6732 34.3641 3.26977 -0.574966 -0.475853 1.89805
1077 64.3518 34.3792 3.3609 -1.11567 0.562788 -1.08576
3676 23.801 36.033 3.07774 0.619502 -0.0487957 -1.33368
640 7.85168 2.35778 5.50534 0.925495 2.36809 -0.852373
3200 30.9585 1.69664 5.52974 0.205526 -0.550067 0.0705401
187 4.14968 4.24556 4.64993 0.228241 -0.470882 -0.0645764
2182 34.0206 2.95188 5.43025 0.595893 -1.7867 -0.249785
1581 12.615 4.89046 4.68402 -2.23248 -0.691729 -0.968574
2071 52.6844 4.37395 5.53136 0.305713 1.22506 -0.720768
2821 21.8976 7.25098 5.61844 -2.14834 -0.448895 -0.689857
1476 6.1471 11.0755 5.47655 -0.331491 0.240283 0.293685
3363 43.5994 12.6124 4.9309 0.201411 -1.72069 0.0589099
12 56.8566 12.9884 5.48162 -0.153024 -1.27867 -0.361423
972 60.2874 13.1188 5.05766 0.00116165 1.10577 -0.838771
2868 13.4144 16.3517 5.26824 0.155271 -0.849537 -0.526345
3890 13.9757 17.9536 5.57693 1.00757 -1.0145 -0.335689
1109 28.4388 18.3188 4.76954 0.295941 0.577803 -1.95647
688 45.6448 17.4865 5.50246 1.80651 0.887303 -0.700012
216 61.3908 17.0762 5.11753 -0.931364 -2.14238 -0.322868
1947 19.0411 20.5195 5.57281 -0.625379 0.137408 0.915494
986 56.4629 20.9599 5.45914 1.04068 -0.592341 -2.83278
2094 59.9292 20.3077 4.3925 -0.256298 -0.402061 -0.154647
135 3.27781 21.6152 4.6076 0.843366 0.53042 1.58181
1179 15.3707 22.0166 5.61515 -0.949396 -1.13485 0.586748
1017 37.0906 21.8449 5.50552 -1.2473 0.0637688 0.886113
2213 45.5743 21.8525 4.91487 1.32029 -1.25022 1.27648
3327 9.16431 22.8447 5.56631 1.55125 -0.507396 -0.02321
2719 19.5286 22.9947 4.71753 -0.800071 -2.35989 -1.94372
1225 27.8491 23.2943 5.21873 0.73983 0.827979 0.137122
1430 40.5853 23.1092 4.61615 -1.10029 0.464934 1.63529
2006 68.1863 23.3246 4.63049 -2.58898 1.03578 -1.07329
836 25.0294 26.84 4.54607 -0.113942 -0.571658 -2.11552
397 58.3313 26.8446 4.89093 -0.556336 -0.381114 1.68043
2077 40.4308 28.1008 5.22931 -0.492724 0.656321 -0.167326
2233 7.24437 28.851 4.55569 0.150132 -0.791798 -0.73031
945 8.22311 29.1386 5.54646 1.00138 1.11097 0.412588
2495 11.5127 28.5392 4.80996 0.0780524 -0.31091 -0.304741
1933 42.0433 29.6635 4.40037 -0.698593 1.14187 -0.181272
2527 47.6484 29.426 5.01293 -1.00784 -0.268485 0.460733
602 31.3619 30.882 5.51082 1.17079 -1.28225 -0.0656756
947 54.6174 31.3444 5.54778 -0.0621957 0.106704 -0.348497
1327 62.2806 31.3473 5.47008 -1.53943 -1.44609 -0.152403
3156 21.9106 33.611 5.45989 -0.170036 0.961704 0.653238
1266 43.976 35.212 4.72993 -1.86755 0.334758 0.0861708
1027 34.4491 0.200952 5.8625 0.96408 -1.80476 0.734133
2137 17.5019 2.90336 6.83058 -1.26444 -0.32398 -1.37208
1891 35.0661 6.10185 6.86817 -0.323593 0.248504 0.67908
1694 42.9132 8.08587 6.43264 0.412622 0.222627 0.633255
888 70.5021 8.94697 6.96563 0.0482929 -0.721679 1.55487
2509 23.0789 10.9885 6.55601 -0.187663 -0.787986 -0.876323
3104 49.6511 10.5563 5.68697 -0.717622 1.70118 0.0855661
606 45.4675 11.3864 6.89925 -0.609551 -0.237044 0.000157211
2373 65.8134 14.2642 5.83856 -1.01398 -0.481498 -0.111772
1886 32.0075 16.396 7.08347 -0.683954 1.02076 2.64116
1637 45.2217 16.4629 5.88224 1.26194 1.60747 -0.80078
826 5.31461 17.8306 6.84741 -1.5397 0.225384 -0.0666825
2960 62.339 17.2144 5.75413 -1.83199 0.0792119 -0.795225
1395 3.46111 18.9984 6.53488 -0.140779 0.339732 0.288313
1023 7.82251 20.3494 5.6929 -0.680209 -0.936597 -0.688629
1686 9.05963 19.9079 5.78567 -1.23257 -0.468762 1.56676
3738 44.6127 20.4311 6.34226 1.04742 -0.220832 -1.1432
3879 63.9263 21.1266 5.85601 -0.372191 -0.147129 0.325965
3434 44.5577 23.2747 6.02225 -0.0302187 1.57828 -0.0810582
2890 45.6167 23.8253 6.22234 -0.999988 -0.782995 0.784408
1417 30.0847 24.8482 6.18884 1.02933 0.447934 -1.45811
2154 61.3576 24.6495 6.52104 -0.0201588 -0.0546073 -1.06752
2190 5.80797 25.7839 6.03139 0.695928 0.726598 1.1457
3858 20.7599 28.2139 6.28485 0.786863 -0.021662 1.0403
2748 66.0417 27.0609 6.74057 0.49759 0.249006 0.797113
2162 1.29873 32.5728 5.73441 -0.20773 -0.453265 -1.37097
1882 41.2301 32.539 6.40216 0.506852 -0.409468 -0.226401
523 65.6727 32.2708 6.66498 0.19875 -0.117854 -1.00165
2437 18.596 34.4859 6.50245 -0.127439 1.58092 -0.657059
488 12.1225 35.971 6.84983 -1.69038 1.14927 1.63975
1649 17.9251 1.04534 8.21458 0.631758 -0.834961 -0.475914
1307 57.6266 0.34143 7.0879 0.491912 -1.45467 1.07667
1297 68.5279 1.17086 8.32991 -0.821724 -0.801778 -2.35748
3981 62.426 2.12903 7.97887 -1.44642 -1.38545 -0.0901862
3777 26.8354 3.2016 8.37848 -1.47544 0.490452 -0.610587
3185 10.3816 5.46668 7.94397 0.142935 1.0956 1.66226
1085 36.9625 4.66678 7.88939 -0.667474 1.41697 -0.53568
1852 21.3687 6.32731 7.98141 -0.773135 -0.999734 -0.679974
574 56.6677 6.80865 7.38908 -0.896879 0.229043 -1.40275
3968 61.2124 6.45794 8.42173 -1.77747 -1.44522 -0.436654
1137 20.7222 7.47829 8.25165 1.17197 -1.44408 -0.700338
1010 5.12292 9.26255 8.06155 1.39394 0.767904 -0.180435
3985 43.3179 9.85442 7.94876 0.80841 1.71153 0.93287
2353 62.8037 8.99987 8.29836 -0.0117589 0.226499 0.894892
1679 31.1404 10.6528 7.60452 -1.85083 1.58744 1.48645
1387 31.6845 12.3223 8.43265 -1.29453 -0.210628 -1.2081
628 53.0577 12.5449 7.37056 0.73625 -1.5364 -0.622277
2092 11.9494 12.8208 7.56489 -1.40034 -0.0823186 1.30553
1575 50.0254 13.2135 7.59362 0.133364 0.2825 -0.957777
3930 1.19602 16.1117 7.37981 -0.351695 0.935863 -1.40315
3836 42.0356 16.3886 7.16193 1.21198 0.0489101 1.23667
317 5.16897 17.5303 8.41322 -0.923262 1.04814 0.480763
2555 34.2151 17.9039 8.12675 -2.15418 -0.599257 -0.17951
1170 31.533 19.8379 8.21007 1.25966 -0.455971 -0.0577679
3455 37.2089 21.047 7.53277 -1.55432 -0.743941 -0.689662
1876 13.3205 22.52 7.31243 -0.28468 1.73039 -1.36315
2563 31.254 22.367 8.0421 -0.0291707 1.28477 0.268735
2371 8.26042 23.8831 8.40392 -0.445692 -1.42147 -1.57462
1264 23.8155 23.9253 7.61601 -0.955682 0.155627 -1.38385
30 37.4438 23.9317 7.25718 0.365765 -1.33024 1.56018
1456 58.1979 24.7426 7.93077 0.870011 0.44345 0.40492
1920 7.79747 25.9708 7.5088 1.37147 -0.0441291 -1.15067
2815 25.1065 26.7424 7.76882 0.410025 -0.579381 -0.638557
1655 32.7096 26.6463 7.53676 1.00557 -0.24263 1.17452
3168 38.4169 26.3206 8.19697 -0.497062 1.60246 1.21997
3238 65.7945 26.4958 7.70069 -0.00869692 1.60167 0.740532
441 65.3974 25.5459 7.90004 0.130154 0.689699 -0.0343291
1058 24.8825 28.792 7.17646 0.0194586 -1.42121 0.102584
970 71.6905 30.885 8.0762 -1.54138 -1.736 0.557584
2609 30.7151 32.5263 7.45368 0.669153 1.03684 0.526984
1600 61.5991 31.8506 8.1736 1.59631 -1.05978 -1.01592
3629 30.3677 33.9694 7.82583 0.207008 0.667647 0.710015
2241 55.1962 33.8387 8.11001 0.466074 -1.06006 -0.834398
214 53.4521 36.0478 8.26455 -0.849925 -0.306233 2.2031
1349 72.9245 35.612 7.6428 -1.62328 -0.312907 -2.1426
57 4.78957 1.28645 8.93773 -1.1885 -0.286528 0.519774
444 16.6056 0.719376 9.00677 1.57152 -1.42228 0.465479
1800 53.3845 0.396832 9.2376 0.48376 -0.186339 -1.05752
1194 8.56133 1.82563 8.98152 -0.590178 2.78411 -1.08539
1350 21.807 2.37867 9.86414 -1.26864 0.887925 1.84655
499 54.9343 3.4765 9.8576 -0.292013 -0.712806 0.632803
2554 27.7285 4.77806 9.0568 -0.234766 1.35689 0.174397
1063 56.3506 4.92084 9.0253 2.57792 1.19122 2.46759
529 37.0249 6.89969 9.54266 -0.53535 1.47805 0.901296
3719 55.0632 5.8395 9.56996 1.87545 1.35577 1.13083
2121 60.1938 6.82867 8.7061 1.70818 -0.283042 0.438286
2040 11.6159 11.7697 9.55383 -2.27398 1.07756 -0.651519
2208 8.67261 15.4484 8.68894 0.652164 0.184159 0.118062
1629 30.253 14.8236 9.13137 -0.0363084 0.236269 -1.5841
2761 50.6947 14.9554 8.93864 -2.28822 1.56628 -0.937832
143 67.5827 14.483 9.86192 -0.531702 1.34774 0.309831
3809 60.4895 18.1069 8.95119 0.706704 -0.0118676 0.0454051
3536 73.115 17.2681 9.16824 -0.894925 0.873026 0.77316
1756 54.1664 19.2086 8.59316 -1.84685 0.256783 -0.076359
2185 72.0162 19.1074 9.88128 0.222506 -0.2168 -0.973443
3589 31.1843 20.6684 9.20902 0.967058 0.15479 0.538876
840 37.1762 19.9875 9.07598 -0.155054 1.24016 0.254286
2842 48.9196 20.9711 9.28187 -0.180873 1.45925 -0.296383
1911 54.268 21.0678 9.84951 0.196814 -0.15752 0.0821683
3530 57.7049 21.6666 9.60001 1.45089 -0.82492 -0.527866
3964 57.6422 22.1702 8.65785 1.44758 -0.807346 0.603226
3697 66.2647 22.0005 8.95514 -1.07702 -1.17456 1.16967
1153 48.8458 22.9032 9.82241 -0.38862 -0.34762 -0.690854
3436 49.7119 23.0674 8.87544 -0.414045 -0.86174 -0.154846
3484 69.1377 24.0324 9.26971 -0.246978 -1.42159 -0.681166
2458 0.713334 25.0085 8.65985 0.773748 0.75184 -0.927416
3412 64.9181 25.1509 9.24015 0.206043 0.0728547 -0.0991345
1393 1.36358 26.7884 9.03327 2.30471 -1.60893 0.099296
1735 44.9773 25.745 9.04766 -0.952704 0.952296 0.72551
3635 53.098 26.6942 8.98412 0.813021 -0.517754 0.939611
482 28.9203 28.2491 9.64967 0.0419357 0.192279 -0.154724
2113 72.6605 29.4982 8.64066 -0.998693 -0.872917 -0.0429397
3108 18.8319 30.3067 9.78196 0.670646 0.770442 1.56049
1265 25.8944 30.7364 9.45726 -0.172382 -0.398896 -0.781283
1618 5.59464 32.6029 9.15379 -1.09898 -0.613682 0.201731
103 53.4545 33.318 9.1244 -0.894526 0.0583279 0.175629
875 71.4913 32.6006 9.28879 -0.108852 -0.184809 -0.953777
3313 13.1664 35.1272 9.60228 1.27702 -0.256791 -1.0233
939 17.7574 36.0325 8.83593 -1.41154 0.188738 -1.80673
1979 39.0017 36.4734 9.25561 0.479245 -0.19075 -0.742814
2730 24.1803 0.0367118 10.8578 -1.30503 -1.17273 0.763571
3701 58.6157 0.762101 11.2794 2.15399 0.214899 1.5882
205 18.7135 1.76763 10.6013 -1.17652 0.899428 0.900164
757 56.9625 1.74411 11.1148 -0.042083 0.745772 0.333868
4000 3.44608 3.73691 10.8051 0.480346 -0.847241 -2.65438
609 53.3313 3.11878 10.0505 0.826268 0.643775 0.0645436
1760 17.3747 4.87952 11.2794 -0.702508 0.625365 0.783069
2951 60.1347 5.13406 10.2617 -1.52398 0.432221 0.501762
775 72.9503 5.4065 10.7115 -0.472095 -2.38104 0.747386
2492 54.6345 6.45123 10.2561 -0.732292 -0.321137 -1.26598
675 69.1266 6.41764 10.3386 -0.177601 0.835143 -0.576311
2801 27.8422 7.37005 10.3294 -0.0562654 0.148655 0.796416
79 52.7015 8.25451 9.98242 -0.168921 -0.489659 -0.851508
1739 1.45693 10.6432 9.98649 -1.30823 -0.0357059 1.86728
1303 25.6811 10.3216 10.9687 -1.38661 -0.578813 0.0820191
3945 17.8892 11.761 11.2423 -1.02524 -1.28628 -1.24049
1223 56.1812 11.6417 10.5351 -0.570755 0.328918 0.561629
364 69.4758 12.1548 10.0061 -2.68621 0.475229 -0.775035
2298 16.0695 13.9236 11.0885 -0.62651 1.53759 1.18061
3658 42.2612 13.2347 10.4106 1.55463 1.15188 0.28621
2301 65.9356 14.2912 11.3264 1.50995 -1.29916 1.14255
943 29.2696 15.5993 10.9609 -0.0612523 -0.321019 -0.0759203
672 57.7512 18.553 10.4774 -0.186069 0.374474 0.762085
1628 32.4945 20.782 11.2553 -0.499921 -0.449334 -0.173147
3875 35.5215 20.8768 11.219 -1.1633 -1.73552 0.0744401
3816 30.0314 21.3085 10.5543 -0.630798 -0.923793 1.28017
42 55.5556 21.7601 9.94289 1.21008 1.34069 -0.352311
1646 58.3291 22.3757 10.6509 0.438059 0.783234 -0.533651
2598 1.06592 23.3295 11.2649 -0.322245 -0.780581 0.291552
3517 8.12643 25.3894 10.4704 -0.919288 -0.169233 -0.176052
3037 30.9122 24.8756 9.9278 -0.416335 1.50063 1.27522
3350 45.0362 24.7072 10.9335 1.79681 0.108686 -0.299894
1743 72.3522 25.2292 11.0749 -0.37393 0.688193 -0.102951
809 1.21151 26.5533 11.1098 -0.12529 -1.17308 0.298586
1035 17.0363 25.9256 10.4014 0.328383 0.821468 0.807571
2246 50.5398 25.586 10.4311 -1.04526 1.26249 0.542418
960 56.1932 26.94 10.6895 -1.45181 0.0427052 -0.576199
2516 21.5257 28.5333 11.2719 -0.316225 -0.0534274 0.222554
305 32.8232 29.7154 10.3002 -0.479632 -0.121104 0.632153
1815 43.7788 28.9906 10.682 0.0677273 0.130222 -0.53337
3905 31.4213 30.9964 10.4963 0.462267 -0.125148 1.90335
2962 23.5034 32.5543 11.2165 -0.863446 0.245017 1.37618
179 18.3563 33.0738 10.7377 -0.806914 -0.818561 -0.17794
706 24.3255 33.788 10.7872 0.543449 1.11493 -0.568223
2474 28.94 34.7104 10.2717 -1.08838 -0.155144 0.746602
3210 69.114 34.1968 10.9878 -1.20317 -0.86986 0.659867
1212 68.851 34.7165 10.129 0.288156 -1.56756 -1.6107
723 32.0798 35.7107 10.0275 1.25985 1.76796 1.71999
1184 58.73 36.2505 10.4349 0.666211 0.684935 0.599801
3908 72.2457 1.2997 11.8755 0.528111 0.81815 -0.72363
885 22.673 2.70135 11.8348 1.45571 0.753779 0.0799032
2011 46.0522 1.90823 12.6445 -0.858177 0.125455 -0.369033
335 12.3036 3.77858 12.74 -2.78909 -0.344688 0.469538
3495 31.418 3.57786 12.5973 0.371696 0.996863 -2.66116
1083 60.175 5.17604 12.326 -0.431383 0.348817 -0.00127115
1261 65.6361 4.37589 12.6338 -0.583891 1.67368 0.315932
3909 37.6272 6.52771 12.4657 -0.410417 -1.94656 -0.691302
2388 41.3531 6.03058 11.4246 0.219061 -0.585081 -0.642127
3365 16.5638 9.78216 11.6916 -1.38196 -0.105646 0.59608
2361 42.6622 10.4997 11.809 0.448649 -0.669538 0.46153
1029 49.9871 11.0368 12.3246 -0.375689 -0.0401636 0.60167
3795 35.3294 11.9588 12.5129 0.445085 -1.22032 -0.900303
1096 27.0171 14.7534 12.505 -0.443252 -0.00517765 0.917833
2572 61.8108 15.0398 12.4096 0.185619 -0.772301 0.108509
588 43.459 18.2642 11.9659 0.991861 -0.456141 -1.37593
225 51.0397 18.4946 12.4151 -0.921458 0.643 0.362019
2883 36.8978 21.9366 11.3825 -1.18994 -0.0742955 -0.415099
2429 51.1854 23.1704 11.5593 0.997446 -0.887089 -2.38158
3493 3.00935 26.576 11.4192 1.2099 1.13887 0.515234
162 65.5772 26.0338 12.0026 -0.113069 -0.150907 0.835351
2899 36.3682 26.9449 11.4836 0.605217 -0.322015 0.633266
559 69.845 28.286 12.0558 -0.828427 1.29853 -0.199832
518 66.0358 28.9151 11.7474 0.0321584 -0.664069 -0.28175
1471 6.82738 31.6581 12.5162 -0.584861 -1.13573 2.37039
3117 15.9769 33.9288 12.2539 -0.402022 1.12213 -1.65921
1230 42.7881 33.0526 12.2715 1.29745 1.77133 -1.49902
3569 53.2961 33.6752 11.4339 -0.907808 1.15077 -0.844495
1452 59.2891 35.0975 11.7201 0.619289 0.260895 -1.02372
2305 66.6254 34.8308 11.6675 0.198277 0.382026 0.47481
2955 14.1365 0.298178 13.6454 0.247444 -0.647249 2.08626
978 37.5718 0.349225 14.0871 -0.468054 -0.611612 -1.03672
1604 0.417689 2.5707 13.2783 1.56753 0.497469 2.45546
3952 48.8591 2.8311 13.4932 -0.375008 -0.629617 0.37922
1400 67.8065 2.20485 14.1549 -0.7125 0.588665 0.511534
2273 56.7722 3.80668 13.7767 -0.135046 2.19506 1.06861
1766 30.6781 4.34778 13.0773 1.04539 -0.187297 0.120029
656 34.4591 4.8211 12.8535 0.961478 -0.451667 -1.27607
3887 56.9683 5.25886 13.4273 0.142838 -0.62842 -0.157581
1315 0.116501 6.72959 13.1403 -1.66499 -0.40507 -1.45832
3483 23.8409 6.09425 13.0066 2.3431 1.66382 0.838816
2838 66.7473 5.96306 12.9243 -0.715755 0.725651 -0.00446627
2392 28.7006 7.35053 13.2686 -1.604 0.417597 -1.73831
1578 69.177 7.41085 14.0595 1.22775 2.44605 0.771854
3822 5.49382 10.2741 13.5066 -0.0532925 1.2288 -0.0926684
2775 43.6459 10.6392 13.6205 -0.544106 -0.768758 -0.0832471
1835 70.7533 10.7636 12.9705 -0.980975 0.0896252 -0.945055
3551 36.4793 11.7419 13.9951 0.251777 0.00333785 -0.457365
1883 37.9434 13.5258 13.0362 -0.563563 0.107346 -0.309614
3638 59.9804 13.8872 12.9582 -0.357466 0.423983 -1.06719
713 48.1361 17.4646 13.7529 0.909397 1.26828 0.231716
3746 15.8747 18.9432 13.5416 -2.51746 -0.54495 0.958455
1985 68.8378 18.7549 13.4198 0.988528 1.39762 -0.531405
199 38.0216 19.9576 13.595 0.845695 -0.653451 0.315329
1657 4.86887 21.6109 13.4199 0.708997 -0.0479169 -0.0728341
3917 57.9296 22.1302 13.6974 -0.490595 -0.5621 -0.53852
790 25.856 23.4882 13.6476 -1.23993 0.32444 -0.41633
1762 43.0094 23.9228 12.9801 -0.958545 -0.0693806 -1.5865
153 65.1111 24.0036 12.8688 -0.28345 1.94732 0.075769
2333 29.3825 24.4959 13.3133 -1.44846 -0.595304 0.207688
1832 11.9448 26.8919 13.0824 1.10013 0.11304 -1.07574
2339 40.5013 28.3183 13.7036 2.95775 -0.234595 0.391444
464 17.8635 31.0295 12.7824 -0.81018 1.00578 1.26109
1519 42.3381 30.1606 13.1911 3.04598 0.662873 1.90812
83 48.4817 30.2546 13.8498 -0.241306 -0.851847 0.0863739
2603 7.54127 32.6621 13.0322 -0.812111 -0.937738 -0.274649
715 23.2973 33.9288 13.6924 -1.48261 0.148836 1.89869
543 50.3109 33.8708 13.0116 -0.950638 0.345805 0.402683
161 37.926 34.6334 12.8359 0.202557 0.45176 -1.78847
383 40.404 34.6365 13.7675 -1.09406 1.03058 -0.513422
1608 11.6397 36.2665 13.7289 0.631269 0.914704 1.50548
2675 29.117 1.26425 15.0342 -0.28129 0.367923 0.306396
2553 8.42628 2.73176 15.3561 0.552581 0.220088 0.333671
3812 14.4487 2.6477 14.6191 0.103752 -0.579999 -1.00477
1337 51.8027 2.01276 15.5037 -1.16704 0.894348 -1.70145
243 71.7771 1.55704 14.7364 1.14861 1.14894 -0.371291
460 30.5279 3.15046 15.5466 -1.92857 0.528591 -1.53419
2585 55.9481 3.8981 14.455 1.4866 0.26086 0.373884
1119 4.08186 5.26507 14.1768 0.580832 -0.408828 2.25404
1455 62.8722 5.54567 14.2943 0.902767 -0.212081 -1.47304
2636 1.97634 6.42872 15.3724 0.819217 2.21809 0.33367
1566 17.638 5.67759 15.3745 1.15696 -1.39865 0.912888
2662 59.4685 5.98422 15.5048 0.320498 0.443261 1.25668
1780 0.803437 7.91087 14.6284 0.302676 0.604733 1.45842
56 4.75719 8.6486 14.8512 0.182811 0.118753 -0.0380806
3389 5.1235 10.9306 15.1658 1.15855 1.30773 -1.40637
2667 18.8771 14.1144 15.2696 0.567112 1.75348 -0.551446
3042 49.4099 13.9303 15.2139 -0.866135 -0.668451 -0.391441
869 63.0813 14.9739 14.8585 -1.0383 -0.464184 -0.445419
1481 28.8125 16.7489 15.0575 -3.17178 0.492442 1.13734
2765 39.7028 16.2019 14.7775 -0.288166 1.97995 -0.691726
3334 40.1531 17.5525 14.5184 -1.1224 2.6144 1.0355
1238 1.40008 18.6929 14.5354 -1.10841 1.81865 0.640767
2048 7.46455 19.8852 14.18 -0.321766 -0.274723 0.972594
2621 39.3074 20.0829 14.3372 -0.328019 0.184747 -0.0591313
3632 5.64368 22.4988 15.3578 -2.14828 -1.103 -0.680019
2785 42.5902 22.081 14.5581 1.26075 -0.8388 0.0794029
1202 22.5297 23.3581 14.499 -0.124414 0.815398 -0.53223
2758 40.9017 22.9843 14.4774 -0.171623 -0.45361 0.0221076
950 63.2073 22.6764 15.5808 -1.32439 -1.88956 1.3905
172 72.0908 23.979 14.2348 -0.336559 0.0282475 -1.02219
2772 42.5286 24.4088 14.937 0.326926 -0.724898 0.336258
2344 53.7054 24.8139 15.1556 -0.103585 -0.237526 1.08329
2811 24.0146 25.5568 14.317 0.143964 0.691027 1.13878
1369 37.7831 26.724 14.3741 1.66391 0.883851 0.241802
1771 69.7236 28.1653 14.6573 0.911567 -0.540754 1.0682
3861 66.889 28.8103 14.9588 -0.0668452 -0.277627 -1.19489
1597 13.167 30.6985 14.9998 0.2391 1.44417 0.507766
3776 42.0398 30.0678 14.1936 -1.65781 -1.71286 0.579393
3034 20.4285 31.4145 14.786 -0.251037 0.617015 -0.575873
3460 54.4294 31.5182 14.4986 0.5427 -1.88329 -0.724341
2841 8.49106 33.5136 14.8111 -0.237434 -0.242289 0.671103
789 10.6145 33.6352 14.5207 -0.976215 -0.510285 -0.38279
2171 66.0231 33.6635 14.8476 -1.1052 -1.0403 0.0230089
50 68.4363 33.7285 14.1857 1.25541 -0.332694 0.534715
958 39.4438 34.4175 15.4246 -0.250474 -0.0101905 1.38868
853 40.8219 35.1729 14.837 -1.67087 -0.351721 0.254269
1823 43.2178 34.2711 15.4413 0.218154 0.328797 2.05189
3807 14.9997 35.6752 15.2241 -0.401745 1.1908 1.08401
1621 16.1987 35.9967 15.5503 -0.653414 -0.755185 1.02072
660 64.03 36.0244 15.1684 -0.21896 -0.524748 1.49382
1168 7.26822 0.981533 16.8495 0.108763 2.07717 -1.74658
2644 8.59681 1.00432 15.7556 0.690251 0.742575 1.46596
631 10.6489 0.42603 15.86 0.475101 0.51765 -0.594638
3867 0.694917 5.89734 15.8061 -0.188751 -0.600078 -0.122097
248 17.4751 6.80337 16.9603 0.0698509 -1.87455 -0.881733
2740 42.0082 5.72976 16.2231 -0.748547 -0.369394 -0.481933
3182 13.3358 8.05377 16.4534 -0.835409 -0.185412 1.01161
3169 46.6467 7.76696 16.4823 -0.512323 1.31914 -0.0846498
1195 24.8725 11.9089 15.7376 -0.372957 -0.166946 1.32344
2003 47.5107 13.1783 15.9623 -0.495844 -0.766564 -0.792369
1405 64.9622 13.847 16.6569 0.796752 1.08669 0.216919
1084 13.696 14.3679 15.6801 1.22388 -0.401112 -0.802352
3450 63.6856 14.6648 15.8822 -1.09368 0.459861 -0.11305
3488 30.8396 17.0841 16.3769 -0.612397 -0.270371 0.273997
3041 31.7938 17.8183 16.9383 -0.589082 -0.158282 0.0896436
1338 72.037 19.2812 16.938 1.2715 -0.6504 -0.694838
1787 25.7456 21.1119 16.4718 1.4585 -0.433674 1.43933
576 54.4701 19.9918 16.2682 0.0961516 -0.474992 1.51957
1041 6.41174 21.4116 16.9012 0.206046 0.0460128 -1.65762
2865 34.5759 22.479 16.2708 0.145198 0.271407 2.72845
2266 49.943 22.4404 16.21 -0.20522 -0.321418 -2.48104
3903 57.6105 22.5364 16.8302 -0.833347 -0.908598 -0.186133
3893 71.0658 22.3004 16.7649 0.283308 -0.603169 -2.31645
3716 15.677 23.6672 16.1537 1.48785 -0.232725 -0.274346
1451 43.1651 23.3748 16.5817 0.699387 1.2395 -1.21201
289 0.0919076 25.474 16.9013 0.183517 0.216689 -0.644739
1026 15.0371 24.2259 16.8017 -0.820876 1.20343 -2.01823
513 58.6367 25.6847 16.9278 1.18639 -1.13833 -0.809089
1699 63.1859 25.8407 16.3987 -0.636965 0.191626 1.03891
2595 17.476 27.019 16.17 0.69815 -1.40814 0.775224
84 21.634 28.1398 16.4058 -2.14459 0.261083 0.965044
3995 19.3697 29.6354 16.337 -1.27591 0.165007 -0.476409
3415 66.5495 29.3113 16.544 0.101446 0.330034 1.42672
2741 5.52376 30.1136 16.4175 0.625544 -0.193626 0.0123424
953 38.4983 30.3661 16.0996 1.50956 1.88422 -0.491676
201 47.6548 32.0827 15.6357 0.571818 1.6755 0.344354
1399 67.7695 32.5217 15.679 -0.167816 -0.910528 0.589507
3199 29.6549 32.849 16.7133 -0.244086 0.207285 -0.722323
2543 69.3905 32.9183 16.3743 -0.990926 0.743573 -0.195103
168 40.7982 35.2887 16.0838 1.08187 0.821515 0.101075
3331 32.8236 35.7108 16.4364 -1.56063 -1.25465 -1.65419
799 42.3891 36.4033 15.9689 0.392738 -1.15196 -0.652669
1033 3.37847 0.794611 17.4511 -0.751418 1.42524 0.10067
2252 60.2162 0.436258 17.3066 0.810718 -0.844946 -0.61059
764 66.9988 0.309611 17.525 0.392116 0.354534 0.803302
87 14.2812 2.62952 17.0432 -0.262289 -0.246467 -0.178554
3765 52.6978 2.67371 17.2627 0.604727 -1.69337 -1.21631
1626 31.6285 3.27636 17.0622 0.3438 -0.0362972 0.442291
1636 38.2593 3.45299 17.296 -1.05252 0.858311 0.700126
2824 51.1146 2.99058 17.4906 1.75978 0.177735 0.28487
138 54.3735 5.23875 18.0142 0.713835 1.20313 0.111679
716 7.86146 5.93515 17.5231 -0.380764 -0.333836 1.17373
3064 18.2274 7.57458 17.363 -1.18508 0.0954313 0.315726
3666 46.3979 7.92982 18.3025 0.667237 -0.408337 -0.166966
3382 49.1586 9.37765 17.9972 0.133311 -0.903655 1.43116
3537 68.2769 9.49159 17.3914 -0.26809 0.25153 0.864335
1663 42.5151 11.3139 17.5257 -0.518195 0.897678 -0.229187
3902 29.7888 12.2431 17.1041 -0.55666 0.488924 0.499349
2634 36.5579 11.5788 17.1218 -0.901459 1.3601 -0.974355
548 38.6321 11.5175 17.6781 -0.566299 -1.33584 0.708788
1244 49.7069 12.5157 18.3186 0.282056 -0.0930115 -0.123933
562 12.3172 12.8655 17.8234 -0.373918 -1.04585 0.780599
1250 60.762 13.2445 17.8318 -0.217301 0.705288 -0.128022
1642 69.6577 13.8058 17.0443 0.571515 -0.832324 -0.955922
3079 15.7286 14.2584 17.0821 0.479823 -0.7037 -1.70961
2146 30.349 14.8125 17.7921 -0.095979 0.200851 1.39067
1207 5.1913 15.596 18.3549 0.268914 -1.38591 -0.669233
324 23.7228 16.5542 17.5728 -0.698991 0.995802 -2.35031
767 35.947 16.535 17.4924 -1.54831 0.678014 -1.62797
37 38.4976 15.6933 18.3354 0.982897 -0.931131 -0.306761
3361 71.3718 16.5246 17.8334 0.555613 -0.571445 1.08948
655 28.3555 17.0185 17.594 0.631104 -0.796436 0.379868
2997 31.8636 17.2575 18.2565 1.11834 -0.719309 0.569977
1966 7.40926 19.1245 18.0186 -0.843006 -1.12055 -0.0203351
1340 50.5327 19.3681 17.291 -0.34683 0.0168324 0.596478
125 55.1278 18.5409 17.8079 -1.32169 1.04282 1.14105
727 42.9488 21.077 17.343 0.651232 -2.00589 -2.42066
2749 56.4336 19.9343 17.1575 0.0183109 -0.0924206 -0.0787609
3592 12.5935 22.5717 18.0984 0.291708 -0.23283 -0.623195
575 34.6818 21.6339 18.082 0.404749 1.34867 0.702125
1734 13.6674 22.682 17.4225 -0.381478 0.81071 0.846979
822 17.0882 22.6828 17.5629 -3.74922 2.31097 -0.283795
823 22.8234 22.7404 17.8021 -1.28623 -1.87497 -1.09365
3781 14.8332 27.1477 17.4222 0.0219033 1.57146 -0.920899
2588 34.7909 27.1805 18.245 -1.47098 -0.125187 -0.149078
3274 47.1817 27.9431 17.6016 0.221264 1.25883 1.98252
1362 15.665 29.2729 18.0057 -0.90403 1.64112 0.840722
228 57.4951 29.665 18.1076 0.262144 -1.45979 -0.166056
432 1.58397 31.0501 18.213 0.895194 0.0461944 0.24101
2293 12.736 31.5888 17.1297 0.799934 -1.63661 -0.214894