ITEM: TIMESTEP
42000
ITEM: NUMBER OF ATOMS
4000
ITEM: BOX BOUNDS pp pp pp
0.0000000000000000e+00 7.3680629972807722e+01
0.0000000000000000e+00 7.3680629972807722e+01
0.0000000000000000e+00 7.3680629972807722e+01
ITEM: ATOMS id x y z vx vy vz
2700 7.89522 1.12302 0.176607 -0.497731 -1.49477 -0.0501619
171 32.8093 1.0748 0.264992 0.501629 0.052481 -0.767246
722 32.7156 0.714093 1.2434 -1.35636 -0.551996 0.196774
602 8.73755 2.23234 1.15936 1.34802 0.040017 -1.07212
2251 65.9222 2.10915 0.194528 0.16026 1.45698 1.10246
3059 5.89451 4.70101 0.481739 -0.0383448 0.832835 1.25968
1980 12.9526 5.37239 0.706237 0.252342 0.345736 -1.88605
1204 71.5849 8.09197 0.869301 0.75552 0.223376 0.442894
2499 31.0566 9.35628 0.0914082 1.20179 -1.08449 0.176321
1697 45.5059 8.524 1.02804 1.49609 -0.0409354 0.804278
596 66.5594 9.4402 1.36988 -0.471148 1.47834 2.38845
1744 3.30918 11.1716 0.263417 1.62201 1.64643 -0.144506
3902 4.45406 10.755 0.0801934 -0.287156 -0.396293 -0.911267
1293 54.9916 10.6785 1.30894 0.638566 -1.31903 0.603707
889 50.2224 11.9423 0.151381 1.28857 0.171216 0.880292
3474 56.0229 11.7386 0.421342 0.558941 0.374178 -1.2318
585 65.6356 12.6989 0.299446 1.39087 -0.415984 1.58201
425 6.75325 13.3066 0.310467 0.0991743 0.622938 -1.50578
1885 23.3577 17.6029 0.0527158 0.766598 -0.0809113 0.15872
2600 72.3554 17.5498 0.18392 -1.7433 0.0379075 0.55974
1919 24.8548 19.4794 0.940357 -0.822841 1.54228 -0.058272
2054 25.771 18.7576 1.06694 -0.192556 -1.28091 -0.999953
1755 52.7319 18.77 0.285036 0.0803931 -0.439025 0.621807
2716 73.2049 20.7193 1.31421 -0.401866 -2.97326 -0.170792
2968 11.1713 22.4657 0.0461081 0.264334 -0.216401 2.34487
3135 37.5599 22.5727 0.0273992 1.18123 0.389234 -0.227701
3666 65.3358 21.6259 0.952604 -0.204313 0.561299 0.494734
3346 68.2274 23.9503 0.131986 0.309101 -1.64301 -0.684023
1631 0.523674 26.2832 0.349648 0.549006 0.166364 0.31196
2490 21.824 26.3225 0.457288 -0.474859 0.2443 0.931983
2869 10.8773 27.5765 0.664303 -0.605633 -0.705236 0.138315
2534 67.0851 29.5034 1.15805 0.922241 1.35189 -1.79808
2244 1.17345 31.7445 0.434011 -0.307434 -1.08558 -1.07295
3667 2.14086 31.2009 0.420378 0.177799 -1.11512 -3.12294
1108 37.3215 32.0393 0.549617 0.705483 -1.23245 -0.327792
2299 40.339 31.1806 1.34323 -0.972008 0.818418 0.714191
2302 43.4701 31.3803 1.24925 1.07622 0.876601 1.43579
1408 22.1474 32.8031 0.911127 0.1755 0.380803 1.10482
336 25.8928 33.1403 0.149521 0.103593 -1.83348 -0.00643128
1508 46.0262 33.7382 0.651102 -0.329339 0.0920704 -0.991017
2522 52.1307 33.6564 0.790559 -0.560657 1.03558 1.11773
849 33.7008 34.7721 0.796842 0.1079 0.915852 -1.4786
2918 46.168 35.6444 0.49917 -0.306499 1.14137 -0.01845
2990 11.3592 0.111116 1.68022 -0.459713 -1.96455 1.31959
1601 58.9185 3.87362 1.53728 0.852638 -1.74528 -0.761137
3562 15.4077 5.20861 2.26778 -1.07812 -0.785346 1.43435
2560 34.45 6.88372 2.67784 -1.22821 1.6816 -0.890106
3382 12.1381 7.55713 2.62256 -0.233274 -1.56713 -0.325376
57 20.8614 8.07736 2.42391 1.00535 3.13341 -0.383277
3638 42.9177 8.03473 2.61316 -0.8575 -0.0983231 0.993723
882 58.6414 10.7011 1.58981 0.0492572 -1.68856 2.0531
1581 2.40292 13.8484 2.35543 -2.36213 1.01455 0.821131
2103 7.59381 14.0127 1.45558 0.0529436 0.143588 -0.970069
2330 28.9534 14.5043 2.18502 1.13098 -0.643521 1.13147
451 51.5794 14.9989 1.86339 0.634843 -0.971198 -2.2404
1373 11.7305 16.4124 2.45804 -0.469672 -0.018256 -0.906173
3214 19.6185 18.2261 2.29291 -0.232973 1.59435 -0.41654
2674 6.94421 18.5344 1.7663 -1.40067 -0.742633 0.290397
3741 52.9991 19.1127 2.15012 0.258276 1.18117 0.0127817
2951 14.0918 21.4658 1.61958 1.56302 -0.53938 0.985529
1105 5.63664 23.2618 1.75912 -0.0946352 -0.5713 -0.109366
3578 21.017 23.7254 1.83317 0.758302 1.43288 0.838445
1607 39.3768 22.6978 2.82074 -0.378395 -1.5366 0.00126495
207 69.7993 24.6437 1.6862 1.95108 0.770611 1.52193
2555 51.6398 26.2735 2.77691 -0.246471 0.492288 0.127456
2605 72.3598 26.2337 2.68125 -0.364137 -2.13052 1.59053
3835 40.6429 30.505 2.13175 1.36086 0.431585 -0.668921
1557 41.6584 29.8205 2.3483 1.095 -0.158685 -1.91309
3448 30.5111 32.3539 1.66959 1.95256 -0.0685326 -1.26842
3400 73.5831 32.3743 2.01484 1.86159 -1.34599 1.2483
1621 11.7191 32.7523 2.81954 0.514672 1.74278 -0.902242
2866 20.8969 33.5325 1.43504 1.4117 1.47677 0.330981
2277 5.47474 35.2321 2.07027 -1.91194 -0.343133 -2.06498
2650 36.4708 34.7212 2.25086 -0.271373 -2.5784 0.222196
1846 46.923 34.994 1.44685 -0.963551 0.0323285 1.82856
764 29.6834 35.9793 2.59406 -0.235601 1.68685 -0.171769
1667 71.041 36.7579 2.03017 -1.03672 1.20442 1.05209
3605 30.6768 0.336474 2.85845 -0.877385 -0.732301 -2.58208
2854 39.3997 0.431101 3.24413 -1.11895 0.667813 0.354356
1459 66.1844 0.0578173 4.06673 1.14099 -0.148724 0.945587
1766 68.4254 0.940341 3.25183 -0.418548 0.258627 0.33726
3086 63.8565 2.03584 2.98278 -0.759798 -1.28264 0.114344
471 24.7622 3.02635 3.35847 2.02837 0.178833 1.08622
2211 8.18615 6.05342 2.85813 -0.240074 1.14322 -1.03965
2068 12.2302 7.58001 3.87226 -1.88747 -0.755598 0.761474
467 33.3551 7.12166 3.4388 0.0401151 1.17266 0.168903
3274 39.6365 8.34952 3.15677 -0.206976 0.445178 -1.20092
1446 52.4368 9.39765 3.20147 -1.2325 -0.550492 0.735852
1759 14.7074 13.2222 3.09121 1.02152 1.47802 0.425312
3006 47.2027 14.4426 3.77111 -0.367937 -1.04321 -0.327409
3459 50.7635 15.3712 3.30425 1.09974 -1.16501 -1.73159
1148 51.7147 16.2544 3.16877 -1.49103 -0.472833 -0.191896
2924 57.9581 16.0434 3.00863 -0.959954 -0.556742 0.826862
3444 14.2492 17.4856 3.8682 1.41886 -0.277825 0.664015
3210 35.2582 17.8878 3.93168 0.060383 0.943468 -2.7387
3455 38.9942 17.9954 3.45148 1.99456 -1.76421 -0.264539
1456 14.5566 20.1137 4.23104 -0.741755 0.716894 -1.36809
1390 15.7989 20.4516 3.41327 0.227126 -0.0595487 1.16931
1860 11.5726 21.3923 3.34983 0.7042 -0.729418 1.02996
3622 48.7242 21.3314 4.13466 -1.57315 -0.0685497 -1.42995
79 36.194 23.7672 3.5813 -1.9824 0.796884 -0.546538
1562 51.9407 22.7583 3.54383 1.11341 -1.5013 -0.959536
3108 55.6315 23.5983 4.197 -0.0885951 0.59815 -0.979352
1431 68.8074 24.0031 3.38029 -0.646911 -0.987 0.971451
3637 0.789877 24.5679 3.55558 -1.68844 0.618427 -1.07452
3031 73.1854 27.4433 3.2803 0.737892 0.155152 -0.216338
924 34.0928 28.4361 3.67968 -0.202398 0.974303 0.658275
2540 48.3634 30.9659 3.5061 -0.291096 1.27849 -0.357836
750 68.4869 30.7905 3.43705 1.84536 -0.520987 -0.504329
3077 71.4168 30.46 3.63225 1.94989 1.05003 1.1122
1752 3.27629 1.41057 5.09977 0.26902 -1.00958 0.947332
338 11.4037 0.394999 5.64171 -0.906854 -2.15076 3.19203
110 32.0105 1.85113 5.48323 -1.56754 0.570469 1.76873
2425 66.701 1.73891 4.83397 -0.200442 0.252306 1.02537
1698 67.7188 3.41433 4.67903 -0.544031 0.0537493 -0.690646
3244 28.3104 6.82357 5.26254 0.789747 0.627176 -0.670015
1790 4.51631 12.0675 5.47345 -0.893405 -0.91141 0.737666
3493 30.0248 12.4812 4.36877 1.0878 -0.269245 -0.518896
3762 40.1466 12.109 4.32976 1.62303 -0.369041 -0.718114
16 43.0907 11.8477 5.59133 1.05468 -0.528541 0.278453
2856 58.4898 17.8458 5.16563 -0.434964 1.82327 -0.292541
3294 69.7551 17.4008 5.52359 -0.62594 -0.627089 0.874756
115 72.4332 17.0062 4.92371 -1.04283 0.545158 -1.85279
376 21.9317 19.5791 4.29031 -0.0820136 -0.468013 -1.13797
765 68.1731 18.7141 4.62762 0.83151 0.12847 -0.5225
1646 15.7561 20.9262 5.04724 -2.31741 0.59279 -0.910585
537 30.2667 20.5012 4.87816 -0.677699 -0.234396 1.35806
3061 0.981248 23.121 4.61827 1.09298 0.819963 0.121407
2668 59.2612 25.3597 5.2041 -1.02854 -0.291107 0.762137
761 31.4328 26.3102 4.99142 1.11135 0.508419 -0.5575
393 73.3621 26.2281 5.30651 -1.80145 -0.779547 -0.316271
3587 36.7493 27.0885 4.43302 -1.22386 1.28064 -0.607028
1896 67.3052 29.6693 5.61339 -1.23812 0.0171082 -0.719977
1530 61.9277 30.4716 5.57816 0.589321 1.90792 -0.171006
2139 62.0257 31.4948 5.36435 0.986134 -0.556305 -0.579779
2173 63.1017 31.495 4.49341 -2.00149 0.0658504 0.205161
344 47.6503 35.0128 4.28419 -0.249807 -0.369914 -1.50635
2749 57.4279 36.2215 4.96167 -0.418251 0.156028 -0.887076
3773 64.8712 35.4508 4.30014 -0.92798 -0.0167226 1.80958
2852 46.0328 0.326948 6.52572 -1.29239 -0.516851 0.370805
3331 15.4403 5.07752 5.69528 0.0750044 0.189817 -0.139585
1842 25.3009 7.06461 6.09098 1.00263 -0.0788339 -0.493894
1402 32.5026 6.40723 6.41594 0.280809 0.734921 -0.119722
980 63.8905 6.49359 6.58805 -0.532516 0.460798 1.39906
496 45.9414 7.80869 6.60915 0.34238 1.97179 -0.621563
3089 41.2277 9.71181 6.37668 1.15782 -1.24926 1.19474
3798 55.9577 8.52992 6.95353 0.121698 -1.61205 1.16645
2384 11.0119 13.7197 5.72335 0.161515 0.0295395 -0.742539
567 25.1086 12.7823 5.78663 -0.434474 0.909339 -1.11872
1088 48.3524 14.101 6.85537 -0.814149 1.14925 0.415987
1721 55.5741 16.1422 6.3569 1.11873 0.644599 0.337264
1852 64.9332 15.6149 5.96218 -1.07014 1.04579 2.07869
2243 26.3678 18.0987 6.17855 1.08201 -0.445054 0.413159
975 37.1611 17.5535 5.73227 -1.3162 1.53286 -0.321168
1375 12.1165 22.0287 6.63423 -1.39822 0.0408566 0.470006
3889 28.1791 22.466 6.67101 0.170898 -0.21608 1.72957
2598 54.3972 21.803 6.82631 -0.135838 -0.339985 -0.800712
3659 19.0158 22.8801 6.78988 0.478445 1.09973 -0.439295
7 60.768 26.0787 6.08143 -0.143206 0.325294 -0.116492
3440 59.5063 28.0407 6.06561 0.0464516 0.67342 -0.765385
117 1.12808 28.4891 5.80646 0.612797 1.06402 0.941661
1469 60.0078 29.1421 6.3636 -1.703 -1.91664 -0.312504
2508 4.72979 30.708 5.98046 -0.736588 0.556907 -0.619556
3634 50.8908 29.7966 6.93602 0.384865 1.10929 -0.978215
2520 65.6489 29.9865 6.61618 1.78312 0.615134 1.95025
2196 61.0682 32.3357 5.81689 0.135747 -0.0443181 -0.560115
2585 54.0614 35.3599 6.78691 2.12893 0.385585 -0.120917
3003 29.1237 35.8524 5.78991 0.123624 -0.799473 -0.412211
2067 47.0169 35.6492 5.8861 -0.000752591 -0.583152 0.497208
3156 8.48677 1.76549 7.87784 -0.458372 0.507793 -0.863259
1000 47.5543 4.15166 7.89848 0.0160054 -2.13565 1.45145
3339 68.8712 3.77588 7.74438 0.679495 -1.62701 -1.46048
114 43.4342 6.19263 7.45153 0.235784 -0.913028 -0.191186
1622 41.5408 8.05562 7.41698 -0.298727 0.662032 1.52482
2718 73.6347 8.06631 7.75913 0.678687 1.32387 1.20544
2527 52.3957 9.85348 7.26324 0.0206903 0.381601 -0.94035
2444 2.71295 10.1199 7.11416 1.89286 -0.803483 0.23768
515 24.6117 11.7776 8.49781 0.114679 -1.31514 -0.764449
1059 37.1999 11.9266 7.52425 -1.24777 -1.18054 -1.23271
2123 2.91663 13.6959 7.94371 -0.328835 0.762706 -0.335073
2091 25.9724 13.6156 8.32132 0.746252 1.27295 0.927507
3495 71.7887 13.579 7.41696 -0.525169 -1.14089 0.268154
916 34.7798 14.4338 8.30766 -0.354598 -0.330318 1.25093
1049 63.4044 15.4368 7.77992 -1.73594 0.753845 -0.593922
2178 27.3279 16.997 7.88831 0.34053 -1.99364 0.344453
3539 47.321 16.461 7.20794 -1.53457 -0.13188 -1.08371
2413 42.6517 17.7949 7.47027 -0.828333 1.56676 1.32387
256 43.4039 17.675 8.29074 -1.6784 -1.34821 -0.5643
742 55.9618 17.1507 8.20787 -1.30832 2.46948 -1.26981
3680 58.9469 17.3351 7.56936 0.0545584 0.756475 -0.423898
410 5.35132 19.2695 7.75171 2.59485 1.20504 -0.944789
379 16.3582 19.5597 8.36176 -0.656043 -0.388911 1.14008
1444 54.7867 19.5561 7.35323 -0.245098 -2.02636 0.604301
130 61.9101 19.5784 7.98542 -0.546559 0.00773963 -2.39329
29 23.3304 20.1613 8.02345 0.783583 -0.470048 1.02576
1265 60.3749 20.0451 8.372 0.27926 1.64448 1.73702
1120 42.8997 21.8846 7.30324 -0.823173 0.944267 1.01464
3145 57.0299 21.436 7.85744 0.510041 0.325328 1.08588
3299 69.5511 22.412 7.66809 0.443051 -0.0412029 -0.0958107
1617 37.2073 23.8504 7.89701 1.84496 0.356009 -0.681314
295 56.6343 22.7922 8.03945 -0.937643 1.6562 -0.87086
1385 44.2491 26.6051 7.88134 -0.135868 0.790874 0.655768
2483 65.8949 25.6538 7.34861 -1.24769 -1.04872 0.225519
711 3.27245 28.187 7.66959 0.248398 1.84908 -0.83286
3899 34.924 28.8986 7.78055 -1.13176 0.243467 -0.404747
2319 61.2155 30.1197 7.15586 0.942366 1.19512 -0.6525
570 31.8606 32.6452 8.34696 0.49335 -0.842681 -0.809988
1214 13.2337 35.0635 7.27393 1.06125 -0.798629 0.729438
2653 39.3171 34.2809 7.2734 -2.39276 0.336734 1.48086
2959 48.7755 34.0188 8.46761 1.45019 0.498211 1.52099
131 70.7433 34.9724 7.4373 -1.1133 1.483 -0.80005
334 52.32 35.5871 7.85344 -1.05561 -0.0240316 -0.381108
2936 73.3556 1.09577 9.75977 -0.522651 -0.259247 -1.55401
1872 20.5455 2.21935 8.66705 0.670461 -2.59989 1.21749
3383 70.0568 2.75752 8.66496 -2.30442 0.388659 -1.12929
2273 9.65695 3.94583 9.84187 -1.6454 0.298002 -1.00209
957 18.5313 4.11504 8.89952 -0.808233 0.389524 -0.256025
129 49.9311 3.17834 9.83893 1.28742 -0.066755 1.00145
2547 55.8078 5.30252 9.23377 -0.506643 -0.799199 0.776362
3076 27.3898 6.3356 9.35204 -0.894304 2.00581 -0.950024
3824 58.1424 7.68111 9.58211 -0.159928 -1.81696 1.9596
3240 31.7714 11.0435 9.44536 0.723369 -0.0586322 -0.813746
2594 44.7542 12.2821 9.91456 2.4645 0.0709225 -0.380628
3414 27.4536 13.2454 9.1024 -1.19141 -1.02276 -0.914837
2837 1.21348 15.4081 9.26327 0.642521 -1.52403 0.552154
852 4.45988 14.208 8.82151 -0.941849 -1.73201 0.503747
2823 48.5372 14.5062 9.78471 -0.552268 -0.672438 -0.389702
557 28.1503 17.1275 9.04975 -0.853977 -0.0730589 0.475027
1420 56.0166 19.8915 9.1044 -0.486568 0.493768 0.5322
3203 43.54 23.3483 9.0852 1.04973 -0.63694 -0.559324
2477 35.0324 24.7667 9.71497 1.2959 -1.41557 -0.755448
535 35.2671 27.7209 9.69093 2.02688 0.489499 -0.92958
2074 55.912 27.2371 9.06041 0.140409 -0.144586 1.05572
2356 46.7619 29.643 8.61027 -0.26204 -1.62092 0.42542
1587 12.5256 30.2163 9.09128 1.9441 1.71909 -0.0665923
430 25.7252 30.483 8.87397 0.126649 -0.412064 -1.6392
1231 51.6265 30.8256 9.88962 -0.62119 0.665862 2.1419
1751 57.2321 30.3294 9.29889 -0.706365 -1.74172 0.947634
556 15.8394 33.1 9.73708 -0.244511 0.670392 0.0835
3748 35.6003 34.5663 9.09716 -0.567361 0.44503 0.0856402
1372 53.9224 34.3186 9.58998 -1.07239 0.254725 0.0433559
3982 3.8142 0.857531 10.356 0.970856 -1.27713 0.417645
2056 3.71031 0.12021 10.9933 -1.11081 -0.532185 0.501092
1538 8.06645 1.19277 9.95277 -0.609061 -0.459166 -0.338997
140 14.9117 0.340345 11.1893 -0.524795 1.58897 1.60018
1500 9.73031 1.42138 11.3323 0.194748 -2.56098 0.806125
1710 9.26101 2.8958 9.99925 1.90454 0.198391 -0.359647
3279 35.9842 5.10091 10.418 0.767841 -0.267573 1.39214
2002 7.25055 6.57633 11.0946 0.131884 0.824816 0.460071
3189 2.19238 8.30715 10.6616 -1.70976 1.19429 -0.822455
1624 2.73871 7.38366 10.3233 0.527 1.21159 -0.535697
31 52.1355 7.27607 10.0583 -0.195132 0.51822 2.02897
1687 53.2511 7.81786 9.94383 0.116393 -0.576192 0.461501
903 31.8131 10.6129 11.0217 1.44173 -0.38711 -1.53799
2638 49.5343 11.2899 10.4724 -1.22531 -1.00906 -0.451345
1566 0.550138 15.0108 10.8167 0.0743085 -1.54891 -0.665758
1177 63.2385 14.9206 11.1504 -1.09977 0.707198 0.164266
1749 5.08504 15.8354 10.928 -0.81397 -0.652275 -0.792234
2142 9.64784 19.5054 10.0501 0.607107 0.229778 0.589337
192 27.5255 18.709 10.6539 1.41556 -0.124823 -0.49141
102 67.9643 20.2966 10.8068 -0.132867 0.84084 -0.418312
1221 21.0911 21.599 10.9555 0.706981 0.326027 0.101318
3146 46.17 21.965 10.6063 0.345143 0.368047 1.70295
2881 7.96259 23.1917 11.1343 0.896873 0.415399 0.605522
1186 43.1335 23.7075 10.5412 1.02421 0.733648 -0.48809
739 65.961 23.7911 10.4726 0.461283 -0.874914 -1.05688
3286 48.7733 25.0418 10.7335 0.261345 1.43901 0.834693
3091 2.05952 26.712 10.3269 -0.219253 1.2456 1.77714
1101 34.1461 26.7868 10.9952 -1.38809 -0.449092 -1.04653
3037 2.53917 28.7655 10.1838 -0.456652 -0.666463 0.399642
2697 10.4143 28.8704 10.1955 -0.3423 -0.00369619 0.788332
2240 16.5244 29.7448 10.6632 -0.563142 -0.842986 -1.7121
987 50.2691 28.6221 10.7554 -0.778683 1.33987 0.487103
497 73.3103 29.6357 11.1651 0.316994 1.21695 1.3023
289 17.9566 30.8217 10.2005 1.04944 1.39284 -1.25909
3314 58.4142 30.8988 10.119 -0.193516 1.74661 -0.658321
1634 67.313 30.2032 10.8782 0.144308 0.496662 0.36009
1889 69.2945 30.214 10.0211 -0.528789 -0.526133 0.573069
3945 69.8287 29.9959 11.2727 -0.279813 0.218844 -0.648822
67 6.56836 32.1335 10.5238 0.352105 0.447616 0.538405
482 68.2789 33.8138 10.1101 -0.484269 -1.32561 -2.08234
2025 54.482 35.0665 10.9373 -1.44202 1.4017 -1.10045
812 60.226 35.7358 11.2447 1.37365 0.697794 1.03802
2772 61.3409 35.543 10.3952 0.0973798 2.90746 2.05214
1092 25.7744 1.18929 12.7014 -0.0654746 -0.620256 -0.277221
2171 37.1143 0.989482 12.1058 -0.379578 -0.715777 -1.58038
1344 58.4621 0.771132 12.1528 2.39155 -0.0825582 0.0150084
816 13.2315 1.67327 12.4326 -0.521675 1.20883 0.386861
3729 14.2815 3.83639 12.2528 -0.998979 -0.113774 -0.822204
3576 30.743 4.80819 11.5933 0.216178 0.106134 -0.811268
1674 71.8878 4.46232 12.571 -0.266482 0.698328 -1.4559
1494 9.60651 7.65559 11.6293 -0.37008 -0.509683 -1.17867
2349 41.3377 7.48001 11.9382 0.179219 -1.56107 0.534381
2523 43.1946 7.79714 12.6248 -0.238152 0.500879 0.675069
2229 47.9656 9.64042 11.3997 -0.280759 -0.445529 -0.00645401
1636 52.1127 11.0814 11.4882 0.334259 -0.149691 0.716341
3328 22.3656 11.3559 12.7097 1.02007 0.384128 0.255038
3781 27.5858 12.5311 12.15 0.898063 1.29397 -1.25914
2422 16.1954 12.773 11.5588 0.983938 -0.574597 -1.03455
1253 11.4418 15.4868 11.6613 0.497878 -0.60432 -1.80663
781 39.1846 17.0017 11.4257 0.318883 -0.583323 -1.4428
913 31.9182 17.424 11.7926 0.525398 0.256836 -1.31352
208 34.8363 18.3194 11.7229 -0.275894 0.085034 -0.796205
1249 34.4671 17.0294 12.2934 -0.607567 0.999702 -0.123519
462 4.60542 19.5754 12.626 0.267161 0.702001 0.449961
1775 49.9528 18.7529 11.4933 -0.401914 -3.05712 1.05394
1510 53.0102 18.7136 12.5827 1.56443 1.07394 0.354573
3378 54.2859 19.3493 12.7287 0.484031 1.24778 2.54944
1684 66.8078 19.8297 11.6436 -1.02114 -0.675131 -0.75124
3743 34.1649 21.0671 12.4661 0.0538859 -0.492045 -0.365066
3110 19.0321 22.8497 12.4172 1.79416 -0.536243 0.946351
2131 37.9316 22.8027 11.7101 -0.0258776 0.00408132 -0.305475
3649 21.6117 25.8121 11.8909 1.74346 1.47942 -0.728247
2722 34.5136 26.8578 12.5745 0.677247 -1.41727 -0.8904
3487 67.4953 26.6195 11.5733 -0.0962191 -1.61247 1.69706
3633 47.1672 28.1945 12.3362 0.571149 0.720898 1.79065
2336 55.7541 30.5128 11.9432 0.506187 0.532163 0.57655
3811 69.4813 32.4701 12.5755 0.816414 -1.46462 0.0955414
3531 61.7645 33.0107 11.5889 -1.15613 1.4147 -1.12523
2528 34.4801 34.268 12.2282 -0.370921 -0.70651 0.29761
3071 73.3053 35.8417 12.428 0.0142295 0.938849 -0.457288
3002 6.67657 0.242099 14.053 2.06009 0.124745 1.07107
1962 64.3629 3.83019 13.7781 0.700866 1.05634 -0.469017
1018 0.525619 5.39898 13.0013 -0.990134 0.532401 0.0590702
1422 47.7633 5.21001 13.3063 0.0320037 2.05603 -0.263719
700 7.71384 5.71785 13.5522 1.22192 2.03062 0.840477
3315 54.6309 5.67997 13.3104 1.75723 0.211961 0.207184
1301 71.3416 7.00253 13.363 0.633312 -0.125645 0.664262
3380 10.849 7.16442 13.8174 -2.4319 -1.38387 -1.46903
3877 22.4541 9.00842 13.82 0.255821 -0.342201 1.93828
3060 27.5757 8.73049 14.1632 0.0961308 1.21125 1.49853
1434 19.7817 9.99971 13.7966 0.035508 -0.244598 -0.485725
264 49.9324 10.3068 13.7108 -0.406803 -0.325638 0.439389
1670 9.6734 11.67 12.8208 -0.985462 -0.310482 0.45631
95 47.7369 12.4727 13.335 -0.626995 0.337525 -1.43266
3687 38.5032 12.8668 14.0668 0.191787 0.971806 -0.543372
3372 42.2908 13.736 13.2452 -0.28397 0.970841 1.73799
346 27.9486 16.129 13.9732 0.273894 0.0627505 -0.425592
392 14.7123 17.7341 13.3765 -0.180756 0.216893 -1.91574
2186 69.07 18.388 14.1488 0.458995 -0.373762 1.69334
597 50.519 19.7928 13.071 1.05812 -0.150406 -1.45825
2539 53.4851 19.639 14.0132 0.0868192 0.509922 2.13604
573 48.4006 20.254 13.2935 -0.0993709 0.425058 1.21057
2554 11.082 21.8497 14.1257 -0.479333 2.31151 1.00287
446 12.0055 24.0256 14.0871 1.0518 0.356216 -0.070485
2208 30.8545 23.9767 13.905 -1.16084 0.498078 -0.325369
2799 33.8613 22.787 13.0654 1.03628 0.120306 -0.529688
797 4.02084 24.4065 12.9735 0.842465 -0.397483 0.845451
2285 19.2762 24.5053 14.0803 -1.63061 -0.894838 -1.22304
314 28.2768 25.2457 13.9653 -0.24717 1.10503 1.19329
795 18.4556 26.4234 13.561 0.0959858 1.37647 0.425749
1138 21.6265 27.7333 14.0542 0.2814 -0.0785793 0.100743
3337 21.3035 30.9283 14.066 -0.489542 -0.795937 -0.368114
228 28.1907 30.9502 13.1272 -0.461885 -0.560865 -0.557613
3350 34.6674 31.103 13.5494 -1.07213 -0.75595 -1.0954
3187 15.2151 31.7335 12.9821 -0.331583 -1.98269 -1.04083
914 31.1605 32.52 13.4392 -0.621321 0.962921 0.646366
3354 64.7203 31.6201 13.0093 0.200193 1.49921 0.806173
2294 66.171 31.2996 12.8116 1.21171 1.25096 -0.296889
1656 70.7976 32.1021 13.245 -0.59623 0.476006 -0.780514
862 73.1888 31.4881 13.3177 -0.516473 -2.06575 -0.380695
1914 21.7692 32.6628 13.5188 0.151743 -0.498086 0.823469
3936 27.2767 33.7181 13.9684 0.0126238 -0.931736 1.30641
251 39.8843 33.1561 13.5519 -0.0809323 -1.70812 -1.97486
905 42.6491 33.7151 14.0873 -0.0624703 -0.239536 0.162746
373 15.656 34.1078 13.5359 1.28683 0.428551 0.389436
808 44.5999 0.218469 14.5052 1.86294 -0.918454 -0.456752
3432 8.16448 4.86226 15.09 0.537325 0.550421 0.222592
891 52.0442 5.04075 14.7319 1.03713 0.847432 -0.178315
1297 4.48309 6.80993 14.3954 0.440264 0.417774 -0.0278503
3692 20.2721 6.63679 15.5453 1.00197 0.0344267 -0.299025
1873 23.9455 9.01717 14.1723 -1.11125 -2.07962 0.516991
1153 20.2483 10.558 14.9417 -0.649009 -0.484881 -0.0691014
1055 19.5123 12.2856 14.9455 1.36736 -0.843216 -0.579165
409 22.3925 21.2273 14.3096 3.46574 -0.0867414 0.784258
1657 11.9733 21.9796 15.5649 0.00304902 0.685788 -1.15618
3783 24.4628 22.3118 15.0935 0.591089 1.09001 0.782751
1077 32.0037 21.9013 14.3641 1.51213 -0.165567 -0.989041
1183 43.629 21.8402 14.7888 1.76624 -0.379618 -1.39796
3922 45.6587 23.1091 15.1848 -1.02257 -0.0777632 -1.82729
485 4.9261 25.8409 15.2532 -0.873735 1.07051 -1.88278
1346 35.2313 28.2462 14.5066 1.24704 0.189601 0.730132
1141 35.8216 27.8048 15.4601 -0.415473 -0.861809 0.329524
3513 46.6032 28.4967 15.2645 -2.10748 -1.7695 -0.121885
2072 42.2164 30.2082 15.2699 -0.0587017 -0.385308 -0.145802
158 31.4567 32.2709 15.3866 2.0278 -0.847633 0.786409
2427 71.5103 31.6385 14.7441 0.258345 0.413316 -0.25525
1009 12.7192 33.4189 14.7527 1.83902 0.404227 -1.16731
2268 42.8997 33.2285 14.9082 -2.18102 0.970464 -0.133771
2741 53.3337 33.3633 15.3412 -0.081643 -1.00682 -2.11567
66 56.9905 34.0884 14.7141 1.27955 0.925495 1.75478
642 31.9279 0.158321 15.7304 -0.843984 0.345316 -0.0380015
2191 56.5159 0.40249 15.7913 -1.2793 -1.40434 0.0348446
168 7.29662 2.29895 15.6557 -1.21346 -0.999141 0.997961
1124 61.149 2.48211 16.1393 0.284614 -0.226162 -1.03494
644 61.5018 1.50908 16.3365 1.34335 1.23532 -0.207204
3763 6.53047 2.93514 16.2621 0.979302 0.731006 -0.00510102
3261 6.70783 3.99466 16.1491 -2.11549 -0.585189 1.22028
2992 27.9567 3.07786 16.4564 -0.71718 -0.40157 -0.449823
1824 50.3445 5.19308 15.7415 -1.9004 -0.712238 0.14646
591 62.7296 4.6036 16.7668 0.139797 0.394669 1.30584
143 5.1905 6.34498 16.1453 -0.694224 0.348363 0.662174
3553 34.6345 5.9093 16.6971 1.25006 0.172005 -1.42709
238 37.9288 5.75187 16.7171 0.314563 -0.94758 -0.029588
2794 55.8195 6.76292 16.9635 -0.565851 -0.468215 0.4188
3465 60.3589 6.2704 16.9565 0.427209 -0.523744 0.165941
1085 8.54009 8.15181 16.6794 0.619274 0.231659 -0.64748
1658 43.7792 7.33863 16.9539 -0.0654656 -0.850171 -0.740692
1315 38.1754 10.3349 16.3212 0.653933 0.00832267 0.375343
98 56.4338 12.0622 16.7647 -0.516944 0.441753 -0.557931
3308 13.2617 13.64 16.8894 -0.127853 -1.40585 -1.91025
3415 32.3628 13.1114 16.9422 0.653031 0.237563 2.33777
870 40.8564 12.7929 15.9985 -2.36673 0.499324 -0.368638
3306 4.90065 15.7856 15.9211 0.0963622 -1.16689 -0.552393
2645 56.8296 17.3694 16.8485 0.103948 0.161376 0.316725
2447 0.279548 18.5839 16.4887 0.14482 -0.815865 0.275539
3514 69.4062 18.5279 16.4641 -0.982349 1.00608 1.22962
2916 29.5486 19.869 15.7842 0.733361 0.354409 1.78042
3192 38.0309 21.8617 16.2636 1.05673 1.15025 0.581849
963 38.5732 22.4324 16.938 1.5044 0.1427 1.40913
307 40.3492 21.7797 16.514 -0.765656 -0.665555 -0.149891
1878 64.7037 21.9875 16.5798 -0.394193 0.268562 -0.092306
201 38.688 23.5146 16.5861 -0.531279 -0.510738 0.514708
2833 12.9003 24.3922 16.4267 1.18028 0.0679861 0.301917
3464 51.0292 24.8596 16.6881 1.24249 -0.890344 -1.46489
3736 23.2264 26.8699 16.3303 0.539689 -0.645164 -0.2969
213 25.0823 26.1824 16.9464 1.18183 0.748539 0.317811
1955 31.5935 26.5638 16.0063 0.333329 1.11532 -0.985367
2864 36.1839 26.598 15.5907 -1.51751 -0.580594 -0.322134
1544 52.3374 29.4606 16.133 0.874748 0.494668 -1.38349
2457 15.2905 30.9546 16.8456 1.12041 1.48511 -0.85459
2601 36.0861 30.7873 16.5127 -0.888983 0.860741 -0.533775
2798 37.9805 30.1988 16.2332 -0.165839 -0.483456 -0.362306
36 49.473 29.932 15.7167 -0.500535 0.83296 1.11519
3403 50.1295 30.11 16.6477 -1.22905 -0.964676 -0.626668
910 7.57849 31.8666 16.7217 -1.2674 -0.545534 0.0236091
1441 59.1203 31.6489 15.6193 -3.10089 0.250799 -1.20157
1386 1.91848 33.6835 16.2214 -0.520526 -1.00898 0.134807
2347 36.5454 34.7375 16.0739 -0.66244 0.645873 0.214342
3636 38.653 35.0071 16.9609 0.860508 -0.416383 1.18472
435 40.123 34.0817 15.9666 -0.727792 0.488072 0.122421
1680 45.8121 34.2816 16.23 -0.659031 -1.55768 -0.965074
971 53.0302 34.7208 16.6942 0.119379 0.19417 1.0455
92 57.6157 34.1939 16.3423 -0.255613 0.453009 0.64112
3387 59.146 35.4036 16.9597 0.119623 0.19404 1.69643
1227 52.8615 35.713 16.9108 -0.635982 0.388063 -1.46515
554 60.4433 36.7707 16.9586 2.49368 0.110897 -0.0477909
1472 73.3483 35.4482 15.9981 0.154948 -0.154137 0.185735
479 27.5729 0.163511 17.7843 0.568841 0.355177 -0.113023
887 6.75943 1.9309 17.4003 -0.577885 -1.86612 -0.212328
3588 27.2645 2.6934 17.8921 -0.183722 0.966227 -1.53022
3854 17.3303 4.35441 17.2966 -1.02499 1.15758 -0.402916
718 47.5914 4.59833 18.1283 -0.227344 -1.94155 0.376242
1715 62.0198 5.48559 18.0127 -1.6919 0.270337 0.410164
333 1.04917 6.6545 17.28 0.46912 0.0273477 0.558908
3715 30.2989 6.39281 17.0411 -0.651039 -0.851939 -0.0489683
3567 73.3214 6.66662 18.1964 0.454549 -1.1898 1.24185
939 12.2462 7.88946 18.404 -0.212316 1.82398 -0.173246
2270 24.2291 8.07095 18.2337 -2.0403 1.39718 0.0363114
1026 51.1301 8.08107 17.8783 -0.798982 -0.529577 -0.886132
3940 8.39659 10.7561 17.9746 -0.45623 -0.585951 -0.042907
2222 40.7358 10.5777 17.1468 1.32087 0.519057 0.457787
2438 66.7713 10.9021 17.7525 1.22639 1.00283 0.452326
1078 14.0697 12.8143 18.1773 -1.16527 0.232798 1.48692
2205 22.2162 13.3336 17.9647 0.658955 0.162595 0.0456015
3027 42.4219 13.6867 17.4438 -0.59505 1.24309 0.508416
1245 43.2456 13.7305 18.1801 0.762753 0.414715 0.101049
1331 53.6958 13.5018 17.508 1.15096 -0.976668 1.05814
2747 37.4639 16.9002 18.2503 1.4424 -1.72963 -1.7255
552 39.3536 16.6576 17.5035 0.677884 1.50241 0.741167
3341 57.5655 15.866 17.6385 0.981333 -0.285743 -1.87893
3393 39.7877 18.1209 17.2882 -0.65261 -1.23864 -1.37073
949 70.3785 17.3707 17.7594 0.344682 -0.0891641 0.213574
704 26.6252 19.0561 18.1468 -0.666445 -0.675886 1.33528
1756 18.1824 19.8775 17.8203 -0.188845 -1.47939 0.101606
3073 36.9799 20.7899 17.719 0.489935 -0.979244 -0.157354
464 57.215 20.7852 17.0786 -1.57003 -0.674639 0.956533
2446 3.40621 21.9379 17.9773 1.66713 0.925056 0.472788
872 52.9258 21.4708 17.4059 1.91552 0.222147 2.00417
768 53.9831 21.6439 17.8903 -1.26979 0.163735 1.60432
3220 22.6959 23.2541 18.3977 -0.961902 0.269146 -1.18391
3767 73.5096 27.4781 18.265 0.246113 -0.451362 -0.63928
3983 2.11447 31.6414 17.6322 0.621852 -0.616287 1.39864
2009 29.5804 32.0747 18.2659 0.0742906 0.685846 -0.0431825
2114 42.4104 32.2217 17.5569 -0.821633 0.0964204 -0.116485
3130 71.305 31.4344 18.3963 0.0258135 0.12986 -0.799661
2063 16.5827 33.9355 18.0823 1.4815 1.40517 1.17489
2051 18.3993 33.4406 18.0158 0.817152 -1.15271 -1.46855
3740 46.6101 33.5373 18.2185 0.795847 -0.211869 -0.112471
1178 56.1196 34.7591 18.0781 -0.639843 0.950802 2.53451
2740 5.02683 36.7827 18.2518 -0.0809699 -0.180256 -1.30522
748 16.8102 0.893037 18.4426 0.516466 -0.334423 0.389066
3959 18.146 1.09055 19.307 2.13911 -1.60289 0.0853136
1627 40.5633 1.28615 18.8587 0.292033 0.783955 -1.07209
488 69.5869 2.64447 19.3036 0.436996 0.836778 -0.1322
2808 55.0866 3.11996 18.9704 -0.882051 -0.275255 1.33667
2838 31.2718 5.04036 18.5972 0.411518 0.167368 -0.516528
1295 17.9518 7.03818 19.1984 0.307712 -0.19414 -0.298296
755 44.8978 5.75746 18.4563 0.700104 1.43741 0.592164
569 45.2837 9.83584 19.1189 0.975507 0.507683 0.110469
2368 18.4514 11.278 18.5372 -0.303618 0.0588528 -1.0913
2584 50.7514 13.3816 19.5069 -1.43179 -0.683857 0.14481
2826 58.7523 12.9426 19.6343 -0.254367 -0.282501 0.51211
3416 14.682 14.7774 18.5282 -2.04122 -0.872621 0.241379
86 23.6957 14.8339 18.9496 -1.39225 2.07972 -1.57449
1821 37.2752 15.222 18.9793 -0.496198 0.774761 0.107965
3935 38.8417 15.9206 19.5155 -0.83198 -0.0307299 0.909355
1811 14.8763 17.4605 18.6123 -0.417 0.163518 -1.13349
2693 25.3685 19.6237 18.5389 -1.14562 -1.23311 1.94992
205 26.6572 18.7666 19.4292 -1.86378 -0.0614307 -1.11388
2661 3.03914 22.027 19.8245 0.703703 -0.0538124 -0.533331
424 8.58136 22.44 18.9764 -0.793362 -0.811486 -0.153917
3904 35.0611 21.5873 19.2904 -0.390498 0.9725 -2.69609
3442 17.0639 26.7219 18.5134 1.57674 -1.0658 2.40698
3176 55.5034 25.8839 19.1038 0.061276 -0.275848 -1.89722
3841 33.1569 29.5139 18.8021 0.249944 -0.227611 -2.04755
3161 67.3964 28.5709 18.8755 -0.234546 -0.870965 0.787529
1782 25.8141 32.5122 19.2768 -0.346093 -0.116084 -0.966161
792 31.5311 31.4718 19.3263 -1.79851 -0.534754 -2.2007
2771 28.1795 35.0326 19.7298 -0.0492995 0.319661 1.03994
3197 30.0568 34.4826 18.6005 -0.662535 0.603784 -1.32519
2004 5.75115 36.101 18.7383 -0.602885 0.768092 0.351289
3177 8.75523 35.4658 19.1879 -0.530257 -0.17257 -1.86755
3846 71.5886 0.956785 20.4249 0.995538 0.374866 -1.63784
1599 72.0557 0.095716 21.2075 -0.654724 0.541168 -1.30905
107 17.6933 2.81435 20.5848 -1.12491 1.19323 0.715625
762 48.7619 2.56374 20.8337 -0.923609 -0.0932658 1.6709
1970 59.5311 2.71295 21.1104 1.05002 2.28021 -0.190855
2971 9.02013 3.87105 20.5991 -0.201313 1.30112 0.499965
3106 34.844 6.96047 21.2132 1.0683 -0.787231 0.619486
636 44.1361 7.73127 20.8796 -0.885483 -0.460187 -0.779036
2066 69.0053 8.62804 20.5896 -1.127 -0.437987 -2.1481