ITEM: TIMESTEP
79000
ITEM: NUMBER OF ATOMS
4000
ITEM: BOX BOUNDS pp pp pp
0.0000000000000000e+00 7.3680629972807722e+01
0.0000000000000000e+00 7.3680629972807722e+01
0.0000000000000000e+00 7.3680629972807722e+01
ITEM: ATOMS id x y z vx vy vz
3503 17.2403 1.0547 0.00128747 -0.0106913 -0.126318 1.01476
421 25.2147 0.312977 0.761395 1.16306 -0.779498 1.91252
1197 27.1977 0.232664 1.13932 -0.141604 0.790971 -1.57514
460 27.3866 2.56572 0.432888 -0.674882 0.308436 -0.34126
1566 52.0484 2.73626 1.3873 -0.783555 -2.04792 0.828729
2235 2.17727 3.59857 0.628333 -0.505962 1.23632 -0.837405
1301 18.973 3.84067 1.3499 -0.113736 -1.42058 0.56786
411 21.3189 4.70197 0.672663 0.303983 -0.608473 -1.37531
3390 38.3969 4.71384 0.64193 -0.15726 -0.462277 -2.11715
1957 52.1639 6.0068 0.246022 -0.553776 0.823634 -0.159438
3646 54.2462 5.90764 1.06636 -1.20013 -0.367264 1.24214
2151 16.1979 7.5375 0.546942 -0.320249 -0.12615 1.48307
2422 37.2061 9.80194 1.15113 0.474574 2.04175 -0.0350113
1886 23.8851 10.8402 0.544091 -0.812749 1.83449 -1.33041
414 32.8774 10.5679 0.341887 -1.41189 0.534195 -0.460358
2420 21.9382 14.3058 0.80429 -1.712 1.10787 -0.800661
3701 22.6986 15.2271 1.41351 -0.746749 0.452283 -0.0357534
1419 31.2896 15.0091 0.999437 -0.476959 1.01783 -0.469801
24 52.4062 15.885 0.474708 -1.7128 -1.07789 -0.699245
2930 63.5365 15.643 1.23786 -1.62919 0.274479 1.04613
2186 38.6682 18.0066 0.393225 0.289929 -0.637972 -0.758942
3554 0.40539 18.5864 1.20033 -0.966236 0.676317 -0.492206
2382 63.7916 19.8376 0.597793 1.8364 1.17301 -0.656394
1414 3.50972 23.0014 0.946723 0.409968 -0.213924 0.714311
166 52.5596 22.8959 1.25413 0.321459 0.55517 -1.37191
1373 30.0283 25.1643 0.956156 0.164727 0.336753 1.43124
3855 28.8133 26.1883 1.39017 0.377124 -1.02196 0.122223
1533 12.425 28.7331 0.680698 -0.216623 2.15288 1.01564
1787 51.8896 29.2996 0.384035 0.416553 -1.82563 -1.75415
2442 55.195 30.0037 1.04105 0.983827 -0.798661 -1.21096
3223 5.67297 32.1269 0.804624 0.487765 0.826438 -2.33294
2466 23.9453 31.7573 0.521661 0.528546 1.62661 1.152
3810 59.7516 32.8087 0.356841 0.0578371 -1.35764 -0.641104
430 59.5145 35.8006 0.788824 -0.962117 1.02718 -0.531627
90 29.7111 0.470629 2.60855 -0.68656 0.226232 -0.511415
279 14.609 4.18542 2.56177 0.13918 0.342925 1.1632
2078 27.2952 3.58802 2.00664 -2.35692 0.247304 -0.370653
3784 20.6203 5.12474 2.01207 -1.749 -0.980817 0.815883
3144 46.3379 5.245 2.12202 0.463384 2.0512 0.236473
3584 55.1896 8.39581 1.71562 0.00355762 -0.304355 -1.74201
3959 30.2872 9.32893 1.54008 0.737955 1.31562 -0.0964152
1156 42.8022 10.5279 2.75906 -0.260533 0.961393 -1.03018
1436 44.3852 10.0363 2.81587 0.576734 0.978234 2.39325
2483 7.35965 12.4809 2.38257 -0.247563 -0.481803 0.0933075
2765 32.1657 11.3805 1.92759 2.44782 1.0634 -1.96755
2029 68.5207 12.6599 1.65239 -0.825493 0.330138 0.407622
3884 10.3097 12.9291 1.68774 -0.312429 0.151786 0.0713067
1868 47.8976 15.3182 2.82968 1.85282 0.475023 -0.0700794
983 63.3849 15.0006 2.19425 -1.33174 -0.177346 -1.02439
3440 7.5961 15.9448 1.91638 -0.36524 0.942715 -0.57514
2738 69.202 16.6003 2.57815 -0.458924 0.921044 0.943433
1011 20.6264 19.6188 2.17875 -0.00767707 -0.734913 -0.828383
2133 19.5012 21.1385 1.77106 -1.14891 -0.404918 -0.225516
2016 47.8528 21.0833 2.02697 1.0173 -0.586818 0.509748
1486 73.318 20.4232 2.03842 1.12379 -0.381052 -1.76918
3173 22.7035 22.2343 2.74612 2.20539 0.227951 0.950348
3207 40.3274 23.8403 1.82477 0.0943856 0.930922 0.204733
1795 2.32258 24.2037 1.69596 1.49284 0.542944 -0.718697
2850 39.4252 25.0058 1.58475 -0.769773 0.574722 -0.662079
2828 52.789 25.2071 1.95654 -0.150501 0.715256 -0.740139
1505 30.7279 26.4205 1.7174 0.274093 1.10243 0.168031
44 57.9116 26.0146 1.86419 -0.0697412 0.294171 0.942256
384 59.9963 26.4201 1.51455 1.56502 0.659332 0.59986
2107 26.4798 27.4339 1.43662 0.60518 -1.30623 -0.170247
1251 34.4372 26.956 2.53847 0.121312 0.278305 -0.502968
1594 66.8281 31.1815 2.43289 0.0344747 -0.199068 0.511943
1139 3.31428 33.2374 1.75874 -0.246574 0.2695 0.784875
1735 17.9657 33.6837 2.57484 -1.17285 1.79505 -1.22626
3851 33.6834 33.9938 2.60121 -0.997994 -0.687072 0.610136
1196 4.12424 34.5548 1.4959 1.2069 -1.77101 -0.704086
2437 21.4086 0.325969 3.5722 0.0484102 -0.527655 -0.456669
61 25.572 0.557555 3.12429 0.6702 0.581654 -0.0344232
594 40.0754 0.204299 4.10588 -0.499839 -0.100251 0.0980844
2338 13.0129 2.56759 3.07433 -1.20906 0.70112 -0.254453
1041 17.0061 2.00922 3.96058 -0.133667 0.207479 -1.1854
2039 20.7949 2.33985 3.53401 -0.29883 1.47687 -0.207735
127 21.2955 3.34931 3.98364 -0.106335 -0.0770013 -1.11358
2193 31.1341 3.67462 4.22196 -1.5274 0.257274 1.06308
355 66.1806 4.23611 2.83928 0.836369 1.80274 0.639073
3240 25.6958 5.07639 3.08278 -0.881798 -1.28795 -1.1071
3561 68.2965 5.28762 3.27718 1.13587 -0.245655 0.643546
3119 63.2346 7.93658 3.71334 -0.368719 -0.424192 -0.970788
1376 67.1744 8.07379 3.62043 -0.90617 -0.874975 0.256367
1125 45.317 8.7724 4.06334 1.02762 -0.523286 -0.529951
3365 13.7832 12.3731 3.44727 0.165622 -0.395967 0.733677
3260 51.4468 11.9093 3.97676 1.15528 -0.0301351 0.874575
2827 17.1392 13.9097 3.89838 1.31074 1.05723 0.12927
655 50.6643 13.3003 3.14738 0.357485 0.216516 -0.317108
2273 6.55932 14.2056 3.49183 -0.983473 -0.83109 -0.420343
135 33.2587 15.1151 3.28083 0.772597 -0.851668 0.933821
3475 4.29146 15.8216 2.93351 0.549453 0.33315 0.911518
296 7.82221 15.7802 4.1135 0.898567 0.330185 0.288017
120 54.084 17.8063 3.85355 0.223251 1.36151 0.0394595
2720 6.32432 19.2343 3.6393 -0.769931 -1.09913 -2.3327
1267 72.326 18.6343 3.69893 0.563596 -0.624362 -2.23951
978 39.7778 20.8719 3.27169 -2.6604 -0.640195 -0.804463
110 72.1204 21.0946 3.83651 1.78261 1.91963 0.335525
3435 17.1627 22.0189 2.88367 -0.326592 1.9808 0.0729817
538 52.5388 21.6572 2.99168 0.266105 -1.50642 -0.153514
1991 61.8806 22.3792 3.20664 0.937764 0.871731 0.112686
2853 13.2861 23.1111 4.07598 0.884155 0.697876 -0.415867
974 54.7626 22.7498 4.23542 0.902118 1.88511 0.848877
798 57.7086 23.1513 3.52452 0.726644 -0.779992 -0.694886
3868 52.0483 24.892 2.93964 0.149711 0.130871 0.557281
3174 58.3191 28.1489 3.62737 -1.21648 1.16173 0.133146
1748 71.7135 27.5492 3.06629 0.965508 1.93209 -0.306802
2554 17.821 29.5892 3.11328 -1.14318 1.64119 -0.0957857
504 27.7667 28.813 3.61792 0.0345733 -0.30722 -0.0373874
1254 17.8278 31.495 3.08364 1.90589 0.646629 0.204793
3309 51.5469 33.0997 3.98454 1.04189 0.10437 -0.285989
1266 64.9648 33.3425 3.73797 -1.67224 -1.7709 -0.781525
3472 11.7368 35.8983 3.45605 0.582143 1.30359 -0.00827658
1166 5.07894 0.955868 4.74321 0.425077 -0.465452 2.22221
1314 61.5184 1.23072 5.43009 1.6905 0.254696 -0.600505
2571 13.68 2.3896 4.97793 -0.617937 -1.15435 1.06199
2819 26.1416 1.48129 4.55853 0.316712 -1.47079 -0.874496
2997 28.0996 1.62667 4.38398 0.365302 -0.841984 -2.46256
3438 14.141 3.68568 4.42622 -1.38114 -1.08306 1.22525
3384 19.2716 3.50745 4.70722 0.335609 0.325704 -1.53348
3707 25.128 3.46816 4.59972 -0.77761 -0.487174 1.2806
80 51.947 3.78706 4.41194 1.21963 0.663955 0.693231
455 60.4565 3.49126 4.77776 0.835727 0.810145 -0.143483
850 8.31026 4.9599 4.63133 1.39513 -0.247546 -1.3783
2609 59.1587 5.00897 4.70942 0.368484 -2.09851 0.832743
947 13.3681 6.69627 5.56437 -0.782315 -0.284625 -0.505246
2463 21.3993 6.14545 4.7254 -0.351204 1.25344 -0.993311
3772 48.673 5.73866 5.4187 0.46617 -1.05412 -1.17945
3109 68.7368 6.99173 5.51748 -0.553808 -1.76959 -0.944666
1900 51.258 7.27191 5.38428 0.685132 0.198973 0.624535
1326 31.7839 9.19589 4.95522 -1.62635 0.00148875 -0.429114
861 33.6026 8.86675 4.49876 -0.677356 1.16637 -0.0263604
425 30.0722 11.1517 5.27751 0.370069 -0.462893 -1.47263
3787 45.9939 12.252 5.02837 -0.829607 -0.160678 -0.220995
2119 69.4592 13.1835 4.3803 0.755864 0.0298722 -0.335791
145 39.386 15.3728 4.77177 0.907513 0.139718 -1.22705
2824 40.5443 14.7591 5.16215 1.02497 -1.86294 1.25798
2512 70.918 14.8626 4.9448 -0.627782 0.994366 -0.764644
3228 20.6734 16.09 4.42671 0.598352 1.0344 -0.521384
486 28.4008 16.7534 5.12064 -0.706986 0.269612 0.570802
1706 52.8053 17.4527 4.83474 0.761502 0.643721 0.468645
3192 54.9524 17.4798 4.49033 -0.0268269 0.519434 -1.1671
3560 10.2063 22.0273 5.3311 1.44883 -1.53725 -1.33228
2043 18.7452 21.5816 4.84375 -1.21481 0.624569 0.656233
2004 64.8304 21.8639 5.09262 0.118798 -1.70021 0.483609
2568 2.78173 23.7332 5.35528 1.96368 0.597515 2.1699
1455 8.96453 23.2518 5.59491 3.02997 -1.89936 -0.172264
3227 39.4798 23.079 5.64053 0.0200753 0.62338 -0.232358
467 0.536052 24.416 5.391 -0.504927 1.70971 0.022952
265 0.694287 25.129 4.42312 -0.0129424 1.24347 0.00287534
549 0.226834 24.222 4.25527 -1.27301 1.61492 0.230588
3 7.6382 24.6106 4.33372 1.28561 1.534 -0.0809686
3276 23.664 25.3275 4.52667 0.147439 -1.54339 -0.56695
1598 31.8158 24.3248 5.38406 0.0219403 -1.65628 1.04434
1575 68.5452 24.153 4.50955 -0.548797 -1.03803 -0.741152
3886 70.8131 24.9961 4.3044 0.0281718 -0.848007 0.185644
1169 21.7917 28.0341 5.49619 -0.109196 1.03593 -0.367291
1858 37.2428 27.8287 5.26004 0.966792 0.527923 0.0567786
3893 15.8482 30.1811 5.4262 0.515519 -1.18807 0.757847
3830 17.6885 30.3934 5.58534 0.769939 -1.56445 -1.59542
730 48.3319 30.6509 5.38531 1.53975 0.836583 0.170509
599 0.587685 32.0753 5.23985 -0.798284 2.31895 -0.286505
1643 24.4094 31.7585 5.62263 0.436998 0.0512442 0.604939
3000 51.2459 31.7564 4.26733 0.41127 0.236803 -2.16414
475 70.9431 32.0628 4.80284 -1.03853 1.098 -1.04803
2730 11.5035 34.8065 5.65445 -1.19301 -0.386291 0.762535
875 33.0108 35.8896 5.38075 -0.840363 0.350949 0.19296
1824 5.87775 5.00363 6.7304 2.369 1.2608 0.867704
240 31.4572 4.87387 5.83919 0.824969 -0.219961 0.611707
2153 66.4992 4.77337 6.43944 -0.682033 0.280209 0.457768
1361 39.6506 5.96213 6.25505 -0.298224 -0.0561886 -0.753619
643 46.9096 6.44789 6.68588 0.215731 0.376672 0.876299
1247 73.3742 6.39208 5.79465 -0.818414 0.0349677 -1.29219
2326 21.205 8.48411 5.91826 0.888744 -0.646622 -0.568424
151 32.368 7.5836 6.15731 -1.73312 1.61871 1.55792
3731 47.644 7.57416 6.94118 -0.982673 0.350823 -0.342009
1670 61.379 8.01105 5.91318 0.924648 0.42009 -0.756727
107 65.7753 8.4924 6.40341 0.833847 0.96379 1.01396
3292 1.66037 10.2109 6.12839 1.65595 -0.926175 -2.17725
379 29.1161 10.3792 6.09803 0.0182848 0.99184 -0.588531
2224 51.7158 10.1549 5.97065 -0.55454 -1.38018 0.274151
2576 68.1669 12.0878 6.73769 -0.869845 -0.54515 -1.20008
470 17.8451 13.8769 6.03681 0.81808 -0.033519 1.17558
267 35.5238 13.6219 5.77948 -0.678569 0.0718261 -0.160369
1698 25.0287 16.504 5.98537 -0.0743873 -0.135778 0.9681
3026 32.2208 17.9405 6.03812 0.460641 0.116603 -0.107102
3917 35.5801 17.6234 6.242 -0.642302 2.47398 -1.43614
3943 11.6005 18.7372 5.83954 -0.125632 -0.595124 -0.560927
2375 26.463 19.51 6.52575 1.14415 -0.0719291 -0.391666
2182 50.8249 18.8705 6.54904 1.74156 -1.41461 -0.157864
882 52.0843 20.0515 6.74131 0.449968 -0.597987 1.26289
894 50.6443 21.7309 5.80165 -0.368593 -1.14986 -1.29538
3130 50.5841 21.9878 6.96286 0.457535 -2.17943 0.0730389
971 56.4161 21.4729 5.95774 0.492798 0.411875 1.90413
3050 12.4659 23.6562 7.04689 -0.586272 1.26485 1.13981
557 9.9014 25.3957 6.90666 -0.350426 0.126347 0.703919
1769 14.71 24.9104 6.83595 0.0437432 -0.251751 -0.709631
3606 19.7561 26.7906 6.50839 0.106269 1.81766 -0.757462
3548 19.6093 29.5033 6.21823 0.773322 0.165769 -0.73333
3803 3.71892 30.2458 5.85557 -1.17819 -1.19113 -0.383739
3613 60.6498 30.0413 6.26955 -0.251297 -0.789446 0.0785557
1283 62.4494 31.0464 6.57552 -0.233218 0.264131 1.36851
845 41.4195 31.7593 6.60211 -0.393058 -0.235096 1.4004
917 52.8935 31.3303 5.8333 -0.115338 -1.36814 -0.572636
3897 36.4966 34.0759 6.95196 -1.46718 1.89074 0.741051
1520 3.58116 36.1765 6.29046 -1.08966 -1.21463 -0.134417
3239 62.3522 1.28618 7.83025 -0.855682 -0.446218 -0.4835
1431 63.7803 0.798077 7.92585 -0.279575 -1.32933 0.446041
57 16.0719 1.75832 8.02524 0.12928 0.0344904 0.0829847
1581 40.3188 1.97949 7.15704 1.2412 1.16354 -1.73218
1617 58.1478 1.55398 7.38527 0.272634 0.451968 -1.28842
325 13.9394 3.18029 7.66639 1.04502 -0.0702698 -0.971431
3160 12.3827 4.76904 7.56867 0.0680674 -0.859236 -0.231863
3432 40.7199 5.16291 7.5529 0.127029 -0.986769 -0.164654
1971 72.5799 5.19971 7.49181 -0.855938 1.8027 -0.0784706
2064 68.6219 6.94128 7.54911 0.43946 -0.039653 1.5901
46 6.27638 7.50277 7.99082 0.0853149 0.402688 -1.35187
2167 42.4378 9.67043 7.74336 0.0019669 -0.361771 -0.932485
2368 12.236 10.0386 7.56238 -0.0156184 -0.398037 -1.54763
419 54.6677 10.6318 8.25236 1.33896 0.502731 1.95462
1193 57.2799 11.561 8.39114 0.481377 1.84271 -0.259862
1552 58.7117 12.015 7.53915 1.27015 -1.50863 0.88646
2509 60.618 11.6176 8.09438 -1.34279 0.0115463 0.127997
2665 58.4663 13.9571 8.28953 -1.19275 1.63966 -1.42863
2017 72.1057 13.1318 7.9397 1.41607 -0.798984 0.763992
41 26.3548 17.5837 7.75123 0.492533 0.191999 0.960547
1740 10.7716 19.1298 8.46059 0.806477 -0.0437446 -0.260833
3493 3.0197 19.9207 7.57763 0.970842 1.99375 0.366016
3557 37.8024 21.1605 8.43231 -0.554983 -1.66283 1.67877
2396 45.9485 21.0012 7.19549 -0.69311 -0.831226 -0.774589
3996 65.4762 23.8922 8.47699 1.45675 -2.27367 -0.0666331
3032 23.0565 25.246 8.05189 0.936481 0.498711 -0.0489621
445 45.6572 24.1927 7.85481 0.180401 -0.632381 -0.816213
2535 64.0721 24.7687 7.71633 -0.757329 0.581599 1.23227
788 23.4265 26.2613 7.8975 0.0384082 0.238195 -0.354932
2357 27.9217 27.5971 7.67185 0.703586 0.782355 -0.763304
373 19.2953 28.4709 7.67733 -1.48988 -1.81971 1.03067
3333 26.9895 32.0598 7.27505 -1.10272 -1.11365 -0.0579237
3376 54.6834 32.663 7.5483 -0.146668 -0.547448 -0.199291
2785 48.4946 34.3507 7.83776 2.04194 -0.696483 -1.32125
1425 5.91843 1.34423 9.49361 1.2892 0.0391505 0.395403
1003 36.8716 0.325825 9.54592 -0.291723 -0.440431 -0.498706
3108 55.4671 0.19627 8.99847 -0.825985 -0.840514 -0.295081
1257 9.44271 2.07148 8.98173 -1.33196 0.373529 0.271055
1460 53.7346 2.22863 9.21337 0.570187 0.096164 0.346711
1096 64.2687 3.02161 8.59386 0.237109 -2.02611 1.98202
2380 29.4472 4.59088 8.71379 0.560421 1.26025 0.839406
1506 33.5682 4.45448 8.60413 -0.0214214 -0.298341 0.58083
3536 53.0469 5.36671 8.61997 0.37638 -1.46452 -1.54255
388 57.6137 7.44214 9.69447 -0.194262 1.41734 -0.280489
103 42.8698 10.3353 9.045 0.611412 -0.373349 -0.535941
2117 27.3784 12.309 9.72975 1.7254 0.147519 -0.547322
1382 38.0699 12.1027 9.48381 -0.0405343 0.335271 -0.296466
287 71.6475 11.8689 9.37286 -0.540719 0.871698 -0.241492
78 37.1533 13.0413 9.25761 0.423334 1.08521 -0.121713
2814 2.3636 14.651 9.25605 -0.815812 0.342389 1.6386
2213 34.0883 16.6514 8.59212 -0.648183 -0.040675 -1.36676
188 62.7607 17.708 9.03113 1.9551 -0.700683 -0.018204
3321 21.2285 19.4223 9.46858 0.170932 -1.78183 -0.199043
2062 5.71715 19.8474 9.7914 -0.888621 0.769091 0.324809
731 19.3408 21.303 9.64282 -1.79603 0.264893 1.21064
1368 3.50924 22.8263 8.50875 -0.640488 -0.996383 0.485509
1876 22.3789 24.5425 9.00957 -1.47159 -0.780422 -0.191463
3235 61.5239 26.6388 9.70866 0.170259 0.702921 0.28135
111 10.2248 27.8307 9.45506 -1.08102 -0.857212 -0.518217
507 22.9892 29.0108 9.79549 -1.55385 -0.165063 -0.226494
31 50.9182 28.4303 9.31085 0.293422 -0.732712 -0.494743
2670 51.0319 29.7407 8.80368 -0.991862 0.179935 -1.524
1784 67.5943 29.3434 9.82548 0.376611 -0.441527 -2.06625
3564 3.56944 30.0982 8.55562 -1.17426 -2.21316 1.69177
2052 55.3554 30.3707 8.50532 -0.273854 -1.54856 -0.483784
3915 5.19581 31.2935 9.70897 -0.196231 -0.98064 1.01645
1585 6.08864 31.4712 8.65013 -0.673172 0.181689 0.520498
564 49.624 32.1866 9.24807 1.51718 -0.917649 -2.00254
3178 1.09709 33.1587 9.53214 -0.887294 -0.361535 -1.08613
270 5.28008 32.6974 8.96425 -0.121351 -0.341466 -0.928033
2104 18.3292 33.2497 8.75306 -0.186135 1.70477 0.278204
2560 52.8944 32.9214 9.5033 -0.81779 0.943279 -0.685941
391 64.9341 33.4883 8.80346 1.50733 -1.32165 0.650255
3388 22.6183 0.227673 10.5044 -0.8925 0.208009 0.121154
2858 63.4993 0.436609 11.3342 0.442866 0.040315 0.46525
1485 68.5812 0.0511384 10.8125 -0.43544 0.402869 -0.147503
250 63.5964 3.81607 10.0713 0.0446929 0.228173 -0.55815
1875 9.24849 6.76292 10.0654 -0.962005 -1.82461 0.124741
3817 27.648 6.55296 11.3203 0.508814 0.691128 1.81056
3611 58.6469 5.83924 10.3843 0.138637 -0.0661236 -0.927351
816 67.1705 7.93303 10.7546 0.101212 0.300234 0.606371
1556 17.0599 12.0848 11.2853 1.04027 0.16778 -0.474424
710 17.4481 16.6562 10.9698 -1.24563 0.867671 1.09075
2706 24.9317 16.6664 10.3173 1.08478 -1.71342 1.33522
2900 44.9529 16.6922 10.4516 -0.198191 0.343881 -0.879413
2935 60.2641 16.6079 10.1611 0.0185411 -0.868792 0.890924
891 13.1091 17.3622 10.888 2.06051 0.7787 0.377393
3512 31.3352 18.4851 10.4684 -0.591195 0.182912 0.319113
1163 71.3673 19.05 10.4088 0.73379 1.74311 0.224817
2208 43.9146 20.813 11.2407 0.921206 -0.255377 -0.742759
3972 59.0311 22.4189 10.2104 0.260938 -2.74629 1.25248
1874 20.2416 22.8797 10.5386 0.307158 0.0384681 0.718561
1976 25.6046 24.9225 11.2238 -2.49303 -0.970788 -0.355741
2411 38.1752 24.1182 10.779 0.853094 0.745017 0.49755
1357 53.2265 27.0462 10.7684 0.343848 0.51923 0.912057
2203 68.7928 28.3105 10.606 -0.338331 0.800774 0.929012
1650 26.0728 28.5517 10.0636 -1.75937 -0.557753 0.685906
147 55.8079 29.5345 10.5372 0.463832 0.0337056 -0.0335255
3881 0.201748 33.232 10.5771 -1.1455 0.902264 1.33641
3092 10.5855 32.8466 11.1184 0.206159 0.684814 0.423501
521 50.6724 34.7123 10.3154 -0.538831 -0.257959 -0.136363
3804 51.8862 34.978 11.037 0.224503 0.832828 -1.32319
377 8.45878 35.9077 10.9755 -0.920466 0.430441 -1.02792
1816 51.5463 36.1698 10.4835 -0.0309322 -0.145016 -1.78895
502 62.0615 36.3765 10.5026 -0.785343 -1.62221 1.28098
199 25.9599 3.66008 11.9492 0.678594 0.930391 -1.08691
2330 1.2955 5.48225 11.5304 -0.909958 1.56258 -0.879646
500 15.2155 4.53268 11.5628 0.495948 0.566272 -0.0560746
2791 48.0024 4.32131 11.4103 -1.94535 1.14356 -0.548847
2498 50.9517 6.26008 12.1716 -0.695872 -1.23408 -0.9727
3468 32.0551 8.30995 12.2293 -1.19141 0.725274 -0.0218107
473 39.855 9.91186 12.2005 -0.435016 0.0933664 -0.524211
2736 22.1062 10.504 11.3618 -0.53021 0.653983 -0.0158465
510 27.0148 11.5093 12.5593 0.914928 -0.383744 -0.525291
2890 29.0146 12.045 11.3898 -0.560245 0.618248 -0.352186
598 44.2746 12.2565 12.3063 0.410018 -1.60443 -0.455486
1843 14.2714 14.7283 11.4398 2.33315 -0.953217 -0.412872
1564 20.7275 16.8048 12.2994 -0.615689 0.39716 0.133528
3911 31.8048 16.7349 11.6235 -1.00907 1.18371 -1.03132
1825 64.9667 18.9665 12.4339 -2.10154 0.351132 0.85669
64 42.0059 20.0094 11.7034 -0.327247 0.263704 -0.589788
1056 50.1532 20.3572 12.3453 0.175272 0.553971 0.679236
3460 64.4632 20.5629 11.754 -0.251597 -1.446 0.155982
857 32.4035 22.0223 11.9525 -1.84146 -0.714416 -0.101224
3402 58.9227 22.3594 11.4205 1.68009 0.191036 -0.228727
1203 7.3492 25.537 11.6379 -0.499346 -1.28341 -0.879845
610 72.2924 26.4695 11.6425 -1.17462 1.62179 -0.651547
282 59.1166 27.6414 11.8247 0.225099 -0.0509458 -0.266493
1561 10.7606 29.0751 11.7412 0.698351 -1.64086 0.301588
2010 13.1733 30.9282 12.4293 -0.291088 -0.59818 0.414907
297 13.7233 29.7662 11.8781 0.566625 0.815772 0.4338
3369 35.911 31.7581 12.2491 -0.550892 1.27936 0.0255444
3363 65.1175 33.8987 11.5476 0.574248 0.990693 -0.243574
2629 3.78687 35.3529 11.5743 0.901665 1.50249 0.663915
3946 9.2712 34.1002 11.7238 1.50452 -1.78725 1.40433
292 10.554 34.6714 12.3368 0.478303 -0.588495 0.443929
762 57.4391 34.8992 12.0419 -0.386262 0.0997659 1.22885
3608 61.8909 36.5342 11.8505 -0.969212 -1.4236 -0.566976
3278 6.31431 0.994503 13.2834 -0.132607 1.70718 -0.943507
1071 13.1313 0.393739 14.1675 -1.22787 -1.43539 -1.89572
1077 2.18561 2.4903 13.9527 -0.771574 0.732671 1.21393
2927 47.4753 2.47494 13.5152 0.318336 0.446992 -0.335992
2033 62.0711 3.87182 13.544 -0.600142 -0.0943069 -1.16207
1234 18.376 4.46193 14.1178 -1.40708 -0.95924 0.478908
1478 53.4327 6.62813 13.5938 0.212366 -1.52114 -0.115289
1036 52.6119 7.83966 13.6451 0.495915 0.164465 0.13781
2834 47.1346 8.94105 13.2088 -0.977679 0.0300644 -1.57186
2431 50.6193 8.55836 14.1076 0.256114 1.71843 -1.21004
3498 62.5853 9.76524 13.4023 0.401873 -0.490703 -1.30628
74 36.0574 11.3299 13.742 2.04031 1.20706 -0.275456
1751 39.4045 9.94329 13.4772 -0.0901465 -0.0682359 0.158946
1888 56.2993 10.5227 13.9963 0.151251 0.419545 -0.720137
1199 59.8481 10.5959 13.5931 -1.13549 -0.0610292 -0.0686666
2725 12.596 12.7199 12.9353 0.133548 0.539501 0.887904
1579 20.5949 11.765 12.8612 -0.283077 0.168828 2.15693
3677 31.7277 15.2558 13.6702 -0.141068 0.09953 -1.62059
3654 34.3304 15.3658 13.0928 1.15962 -0.337911 -0.633103
1408 41.1061 15.5389 13.6976 0.0869338 1.50937 -1.82441
1195 1.22841 19.6911 13.0675 -0.648849 0.99268 0.156688
3872 6.10972 18.7492 12.9206 -0.410397 0.978792 0.941243
2768 22.5703 22.4683 13.9141 0.47959 1.14136 1.31985
636 56.568 22.0804 13.7402 -0.277832 0.228364 0.253039
2557 21.6403 23.5767 13.9656 -1.79715 -2.20423 -0.172058
2971 56.7696 24.2465 13.9962 0.695854 0.548325 0.487343
1353 64.8294 25.3248 13.0732 -0.468219 0.476994 -0.0974678
3964 49.837 26.159 13.7614 1.54993 0.83855 -0.643693
2613 35.3188 28.169 13.9908 -1.23229 -0.425609 -2.20157
210 3.20631 29.0612 13.6579 0.537386 -0.51099 -0.470592
2521 59.6214 28.8506 13.6647 0.800501 -1.29411 0.687061
582 6.36872 30.2572 13.3372 0.261044 0.486519 0.0360378
3743 51.6964 30.4176 14.1158 -0.965546 -2.18851 1.20957
571 45.0144 31.8771 13.2996 -1.32557 -1.66242 -1.24054
1790 47.3177 32.1101 13.6381 -0.732862 0.0169054 -1.16967
435 25.0358 33.2111 13.4414 -0.0846728 0.729842 -0.0775793
2015 48.4015 32.7361 13.1547 1.20306 -0.48141 0.515589
2355 8.12579 34.1431 13.6509 -1.05725 -1.45824 1.03198
2639 26.1194 34.4843 12.9456 -1.65338 -0.439031 -1.90711
1043 5.31231 35.5981 13.8371 1.33535 -0.504833 1.31774
2421 32.5328 35.8126 13.3416 -0.612789 1.72681 -0.761811
1640 37.6493 35.839 13.2727 -1.83648 0.0153676 0.768166
3025 43.3116 35.8045 13.8082 -0.705871 -0.878627 1.89736
533 69.7553 35.7911 13.4789 0.944874 -0.368631 -1.8035
1512 53.2758 0.0749219 14.764 0.128276 -0.423874 -0.295196
2225 68.5484 0.185856 14.8517 -1.74916 -0.401481 0.124068
1780 20.165 3.60731 14.918 0.544163 -0.527185 0.0231123
898 55.0192 3.91091 14.8455 -0.616077 -0.941049 -0.560642
2655 11.7909 6.68184 15.4511 -0.615802 1.08566 -0.360056
863 58.2188 6.42694 15.112 -0.850073 -0.562431 0.656024
2252 9.91438 7.70548 14.293 -0.242571 -0.0647683 0.565052
205 18.6705 7.93768 15.34 -1.71436 -1.31148 0.810905
3082 20.8557 7.89209 14.346 1.50803 -0.197371 0.799185
1159 22.7732 7.53536 14.6522 0.406942 -0.804675 -0.689551
2644 42.7526 12.1558 14.4748 0.431005 1.07092 -1.45799
544 21.4724 13.6827 15.3524 0.564594 -0.698776 0.190542
1946 49.6591 12.7674 15.0713 -0.157647 -1.63699 1.59814
2773 71.9956 13.0165 14.2298 1.76342 0.573628 0.297951
1162 6.1818 15.3365 14.9228 2.14473 -0.95826 -0.81407
2300 26.17 14.288 15.3647 2.65211 -0.110144 -0.0848041
2199 51.2182 16.7939 14.6565 1.31072 0.208168 -2.36185
2216 14.4737 17.5654 15.0686 -0.885956 -1.10038 -0.245872
439 23.2253 17.4709 14.2471 -1.06501 1.11195 -0.911849
1750 33.4163 18.0787 14.3868 -1.04352 1.20066 0.939628
764 12.1965 19.4 15.1938 -0.548306 0.133668 0.380893
1179 29.6892 18.9965 14.4306 0.794733 -0.221923 -1.24598
3449 48.4096 20.9528 14.5156 1.80521 -1.28982 1.43079
3182 57.0889 19.9605 14.8606 0.993769 1.35586 1.97207
1295 19.794 22.3108 14.9329 0.189095 0.0287526 -0.059907
3877 50.4275 21.362 15.2842 -1.05476 0.143992 -0.826052
1603 60.3558 21.9287 15.2299 -0.783228 0.674276 0.74953
3088 70.7695 22.4495 14.6667 0.667168 1.53894 0.557066
2363 21.8234 22.9974 15.3023 -0.787649 0.203224 -0.698693
3148 34.4328 23.0305 14.802 -0.329435 0.0437883 -1.33672
198 42.6112 23.8125 14.5809 0.811639 -0.020624 -1.03328
1069 43.8269 24.5143 15.5138 0.289183 -1.45784 -1.07219
2795 68.396 25.4682 15.2083 -0.312043 -0.861341 -0.880701
2674 36.0688 26.4532 15.2238 -0.0896182 0.482409 1.88757
1571 24.702 28.192 15.1764 1.26561 -0.914794 0.732949
2467 11.0837 29.712 15.2151 0.522987 0.0361069 0.0502592
1098 31.8734 29.2743 14.5125 0.747224 0.05426 1.08079
1661 72.7498 28.4609 14.6204 -0.111555 0.605782 -1.13168
1948 6.5771 31.6504 14.3969 -0.585077 -0.499404 0.423815
2685 61.2111 31.7421 14.5214 0.0994894 1.31284 -1.42931
2103 72.9314 31.8325 14.35 0.263945 -1.48104 0.0138407
1789 72.3172 31.1811 15.095 1.15714 -0.773138 0.658857
2826 43.3977 35.278 15.0792 -0.840783 -0.369497 -1.02207
1136 49.6873 34.5379 15.5795 -0.312882 -0.458449 0.594907
876 14.5802 35.8155 14.8421 -0.485348 0.649827 0.272222
584 41.7361 0.836576 15.8473 1.24651 -0.482673 0.567743
579 29.8168 2.7572 15.7979 -0.583615 1.14208 -0.469373
883 1.88539 5.09134 16.8678 0.0137554 0.934651 0.915336
2672 51.1013 4.73353 16.8236 0.211407 0.141158 1.0317
1157 62.3563 4.42103 16.9084 -1.10925 -1.10346 -1.15647
21 7.64195 5.91324 15.6162 -0.905332 0.70151 0.194459
3349 37.1588 6.13897 16.5072 1.27215 0.459987 0.00801153
1999 23.9285 7.75667 16.0443 -0.486375 -0.363482 -1.65607
3312 34.8461 8.25427 16.803 -1.52071 -0.497754 0.405889
1394 54.5625 7.14748 15.8635 -0.344958 -0.918084 -0.586824
3381 53.9339 8.22397 16.3703 -0.265629 -2.11138 -0.683387
3452 64.8943 7.18432 15.8581 0.45569 0.714756 2.4961
2831 23.1778 10.8651 16.523 0.599723 0.244175 0.570377
3128 66.4679 11.222 15.6099 -0.466873 0.390238 0.504736
3945 70.8626 10.5997 16.7725 -0.504167 1.93725 -0.809707
3908 4.33328 11.9639 16.4661 1.32306 -0.858588 -2.05508
1450 14.0642 14.6733 16.858 0.879902 -0.935102 0.0751269
3476 41.5551 15.0281 15.5934 -0.291362 -0.451634 0.748439
1730 28.1787 18.0873 16.6974 -1.80622 0.266773 -0.532375
3942 60.9171 17.6983 16.9514 0.650594 1.21391 -1.36279
347 65.6519 17.8298 15.9382 0.53428 0.0855297 1.37752
776 7.25182 22.566 15.6287 -0.507862 0.585182 0.0249575
401 18.4192 22.5045 15.7091 -1.52288 -0.0749309 -0.60943
2270 42.2796 23.2083 15.7153 0.898299 2.26042 -0.548699
911 39.6875 25.2489 16.7806 0.166753 1.12708 -0.340061
587 35.1917 26.2766 16.9597 -2.13651 -0.886228 -1.82494
680 60.7022 26.2992 16.825 0.263859 -0.903324 -1.55142
448 70.4078 25.8597 15.9103 2.10261 -0.1446 -2.01924
2491 22.6826 27.0519 16.8892 -1.27365 0.862711 -0.523299
54 64.9715 27.0347 16.8392 0.888949 0.331571 -0.167509
2739 20.1637 29.5643 16.7144 0.431955 -1.07933 -0.285905
1703 16.4303 30.8735 16.6325 -0.234513 -0.0914295 -0.57079
2611 30.4602 30.9296 15.8271 1.29016 -0.167494 -0.113534
1535 29.0234 31.9265 16.3654 -0.510671 0.159057 -1.2247
2616 53.5883 31.3003 16.2933 0.727611 1.43999 -0.090943
3419 70.4754 33.7375 15.6822 -1.05967 0.455306 -2.67623
1236 24.7149 36.552 15.9162 0.295585 -0.125213 0.539343
3389 21.2808 1.16879 18.2914 0.167509 0.29633 -1.54039
1528 39.6377 2.76309 18.1037 -0.346902 0.519056 -1.10781
2673 57.5323 3.85805 18.3573 0.955218 -1.25908 -0.202412
506 62.3533 2.94641 17.0137 0.60378 0.0669677 -1.04237
1321 20.518 4.36318 17.7675 -0.308857 0.800701 -0.0634703
2959 22.4282 5.21059 17.8933 0.170769 0.880959 0.446003
3021 24.0995 7.0294 18.0365 1.02253 -0.957087 1.34177
1064 23.9853 9.14487 18.0769 -0.545857 1.17809 0.372417
140 47.0926 9.90542 18.3496 1.01709 -1.19711 1.41829
2659 20.1947 11.1236 17.9243 -0.231788 0.84818 -0.195437
2124 24.7794 10.239 18.1465 0.825044 -0.493168 -0.265706
3539 70.4586 13.8111 17.2066 -1.78508 -0.760288 0.0848584
1746 54.5146 17.6711 17.7316 1.193 -1.13261 0.756269
446 51.1869 18.755 17.0089 0.17475 0.335761 0.852104
3832 52.7734 21.0345 17.0805 -0.502197 -0.301142 0.169108
3327 70.7322 19.9791 18.361 1.72593 -0.275239 0.198972
3413 22.4648 21.4833 17.8734 0.0552012 -0.00985983 -0.79625
3969 38.0881 22.2544 17.203 -1.24699 -1.12512 -0.519232
2533 58.1196 22.146 17.1922 1.08619 0.818636 -2.10186
2358 49.6285 23.6164 17.8638 0.221923 0.347579 0.451228
2988 62.5175 23.0818 17.2905 -2.13347 0.179641 1.17471
2863 28.6169 24.3504 17.9162 0.547354 0.32255 -0.373602
2837 50.1011 24.7742 18.2032 -1.41989 -0.229356 -0.673266
2277 51.7971 25.3264 17.2063 -1.44423 -0.284452 -0.0521207
1707 38.9579 26.3325 17.0425 0.583976 -0.632937 -0.181361
1543 8.92511 26.9577 17.1941 0.335519 -0.533429 -0.0990634
3553 16.2791 27.6683 17.9953 -0.468006 -0.285354 -0.274364
3391 59.5585 27.6262 17.0035 -1.57413 -0.546042 2.0495
3684 61.3804 27.8492 17.034 -0.59458 -0.65728 -0.841154
1747 40.1341 29.7273 17.9148 -0.0727558 0.336315 -0.563722
2750 51.7029 30.7366 17.4769 1.53297 0.170704 0.32202
2155 52.5894 31.8131 18.1531 -0.716265 0.108182 -1.63852
1350 31.8494 33.6947 17.09 -0.457448 0.220796 2.01153
2327 53.3314 32.6608 18.0018 -0.720819 -1.38142 -1.00132
450 21.9787 35.1917 17.7954 0.830618 0.293907 0.688837
2666 9.24122 35.549 17.6056 0.704532 1.00903 -0.900878
2592 28.0397 0.963631 18.5551 -0.754859 0.42165 -0.717348
1660 67.5826 3.01383 18.6983 0.44472 -1.00756 -1.21994
2660 71.6003 3.71167 19.7135 -1.33116 -0.200056 1.75903
3065 3.09413 4.38801 19.5086 -0.759146 0.178851 0.0357335
193 38.7988 5.61157 19.4812 0.712567 -0.297856 -0.9562
2476 19.0419 6.6441 19.3003 0.194532 -0.749081 0.898023
192 4.62447 10.8944 19.4802 0.00589562 0.494146 -1.2039
2711 22.3071 10.8457 19.6875 -0.243986 -0.0305564 0.649368
2439 33.891 10.6076 19.8044 -0.0321442 1.16037 1.06276
3075 55.0613 10.6918 19.3734 -0.33987 0.467498 -0.45104
3953 73.6659 11.0224 19.6763 -0.81037 -1.37661 -0.0406813
849 54.7155 12.9604 19.1226 -0.257327 0.510618 -0.460643
3926 64.6688 12.8646 18.6474 -0.682108 0.231059 0.305487
1920 66.6376 20.8157 19.8303 -0.174718 -2.55809 1.15258
744 14.1389 22.021 18.4446 0.359614 -0.928065 -0.0798405
1684 57.6491 21.3642 18.4592 1.41236 0.463058 0.0415164
1093 32.7571 22.7064 18.5742 0.0993477 -1.21934 1.46994
714 49.9574 24.0321 19.0531 -0.262774 -0.18748 1.22086
2817 32.9347 25.141 19.4808 0.643321 1.85935 0.314335
3530 6.69866 26.4593 19.4295 0.960406 1.87104 -0.17425
1980 2.9419 27.387 18.4695 -0.693081 -0.123701 -2.52458
1491 39.0923 29.1793 18.5345 1.76672 -0.0406464 0.233219
1822 67.8981 28.8501 18.5623 -0.777444 -1.08509 0.356622
3771 31.4023 29.9704 19.602 1.47312 -0.581272 0.531541
1574 60.6797 30.0966 18.4538 1.91541 0.535768 1.29017
592 13.1973 32.2228 18.8849 -0.557154 -0.272377 -1.01209