ITEM: TIMESTEP
64000
ITEM: NUMBER OF ATOMS
4000
ITEM: BOX BOUNDS pp pp pp
0.0000000000000000e+00 7.3680629972807722e+01
0.0000000000000000e+00 7.3680629972807722e+01
0.0000000000000000e+00 7.3680629972807722e+01
ITEM: ATOMS id x y z vx vy vz
2071 35.1544 2.65382 1.04089 1.24845 0.343652 0.342578
271 44.6474 1.84464 0.352027 0.402411 0.811572 0.477966
2086 38.2612 3.77298 1.05004 -1.02454 0.190609 0.223926
3760 52.2413 3.4047 0.64243 0.146796 -0.840018 -0.52642
3656 59.9908 4.45698 0.338273 -1.02252 0.481174 0.756569
2238 44.2688 6.53314 0.283237 -0.0583946 -0.547801 -0.318733
1275 45.4383 6.40883 1.27821 -0.101111 -0.175256 -1.02636
1636 56.601 6.8634 1.10517 -1.34454 -0.218824 0.312959
2282 16.4159 8.19474 1.3927 -0.739545 -0.202904 0.117155
3345 23.3055 7.22201 0.406819 -0.0750333 1.49078 0.169228
426 26.7893 7.7049 0.67058 -0.0828785 -0.671427 -0.106559
1310 12.3961 9.04723 0.277163 -0.674376 0.196515 0.514033
3886 26.5777 8.78306 1.01443 -1.2519 -0.182189 -0.289497
3806 46.164 9.56061 0.720377 0.247226 -0.0858238 1.47358
314 46.7514 8.82446 1.36982 1.53611 -0.389898 -0.308619
3477 66.3732 8.86647 1.27223 0.384686 -1.51004 0.57825
3921 42.8814 10.8915 1.32032 0.400606 -0.716367 -0.44101
18 52.171 9.95473 1.20014 0.165176 -2.07329 0.554501
1340 35.5528 11.9489 0.764035 0.783613 0.673155 0.0853042
3200 23.9959 14.4873 0.844053 0.78416 -0.568937 0.159889
3895 64.9223 15.5425 0.3241 0.924167 0.748305 1.3825
3645 6.61553 16.68 0.316368 0.10489 -0.58006 1.85761
1089 56.0781 15.7171 0.955482 -0.345129 0.581013 2.47328
1945 70.5632 16.339 0.673375 -0.656881 -0.257212 0.196811
3685 73.6451 16.2865 0.693175 0.188466 0.0106567 1.33948
846 7.28092 17.471 0.774119 0.869017 -0.134399 0.575199
2154 64.5558 19.7442 0.855307 -0.189267 0.242718 1.12207
89 66.621 20.2533 0.969372 -0.996092 0.420343 0.14535
2039 53.9337 22.5183 0.308683 1.19731 0.782879 -2.75158
3541 72.4907 22.5058 0.841009 1.26344 -1.91089 1.08308
2740 2.58857 24.2784 0.291867 -2.00808 0.119257 1.38104
2449 67.1269 25.3464 1.34698 0.147213 0.812112 -1.36089
2171 4.96884 26.159 1.30791 0.400575 0.627519 0.94396
1003 13.9171 26.3486 1.39458 1.33404 -2.85055 -0.590018
535 70.1243 26.2124 0.500876 0.247853 -0.356152 -0.172579
1237 67.4066 27.4027 0.592129 -1.53026 0.955702 0.053259
3876 61.1179 30.8537 0.415081 -0.959909 -0.381029 0.327161
2477 17.2101 32.9173 1.38831 0.732805 -0.227632 -1.09629
3030 18.5202 32.6011 1.14884 0.083035 0.734405 -1.1611
1129 18.7703 32.7286 0.113079 -0.758712 0.600699 1.65425
158 22.8713 33.8721 1.23015 0.293597 -0.261054 -0.121706
1471 0.163811 34.3134 0.391497 2.14535 -1.29084 -0.682329
3660 17.5569 35.2104 1.40614 0.521643 -0.459797 1.3144
3905 22.0038 34.2142 0.518081 0.104325 -0.0558365 1.31095
3113 36.5715 34.2003 1.24579 1.30178 0.207559 -0.587722
3492 51.3287 35.2556 0.56821 -0.645953 0.055021 0.281198
531 17.2628 0.240011 1.52211 -1.20576 0.366353 -1.50814
1029 69.5938 1.03315 1.80479 -1.15688 -0.15344 -0.23675
3591 58.6291 1.60714 1.61961 -0.740084 -0.0565733 -0.224414
3600 60.1454 1.8239 1.45094 0.143272 -1.00544 1.14477
1688 70.0664 1.86201 2.24205 1.57474 -0.0317363 -0.0239124
1154 40.8503 4.57604 2.31379 -1.20243 -0.453 1.88027
178 71.7222 5.21792 2.81131 0.366345 0.66726 1.74226
3820 26.485 6.20212 2.22784 0.0657619 0.0797318 0.394125
3091 31.1325 6.28297 2.37324 0.485157 0.150307 1.53076
3117 28.3434 8.40292 2.24548 -0.426481 0.705462 1.11135
2190 3.08805 11.09 2.82885 -0.400329 0.668297 0.165417
2585 53.3476 10.643 2.42889 -0.33907 -0.304836 0.770226
3317 55.8173 10.0154 2.02632 0.512872 0.530955 0.472902
1288 14.42 12.1707 2.6159 0.152659 -0.174752 0.677831
598 17.3936 12.5955 2.68086 1.98781 0.688176 -1.7892
1267 18.713 11.6164 1.83306 0.474346 -1.02892 0.420302
315 36.1414 11.5583 2.58966 -0.431436 -0.187368 0.737711
807 42.9449 15.1968 1.63766 -0.418693 -0.604832 -1.24176
273 63.1337 14.8503 1.85537 -0.689369 1.42736 -0.73842
553 56.3765 16.8076 2.80329 -0.740048 0.664295 -1.39358
2757 30.6032 18.2566 2.8114 -0.0692116 -1.00534 -2.52476
2432 39.2453 18.3189 1.59046 -0.110428 0.064063 0.280098
2497 39.7657 17.0864 2.11357 -0.137968 0.176073 1.06164
2717 69.6091 17.212 1.60946 0.0612798 1.2745 -0.851409
1233 5.69466 19.1855 2.58191 -0.512305 -0.0231988 -0.68739
2820 54.886 18.5469 1.5836 1.03514 -0.462531 -0.700512
1533 53.8563 18.901 2.2449 -0.391499 -0.0896951 0.486174
2638 5.07326 20.0884 2.36154 0.0436812 0.445762 -0.050095
2304 2.15932 22.5828 2.50884 -1.31269 0.841817 2.23527
2584 62.8097 22.4102 2.80556 -0.534583 0.164021 -0.578457
1039 64.6377 22.329 1.7413 -0.948335 1.74811 -1.87834
2421 72.9451 23.7136 1.48345 1.06761 -0.348879 -0.00795981
2258 32.7567 25.3102 1.64827 -0.462251 -0.672714 -0.144351
2371 9.24081 26.3341 2.25628 -0.398326 0.483972 0.647772
3953 14.9003 26.7697 2.57966 0.563471 0.134441 -1.13275
2090 2.82598 27.1473 2.17082 0.241353 0.742813 0.856072
2500 15.5621 27.7804 1.86548 1.5675 0.21986 -0.251561
1884 45.2055 29.2674 2.60524 1.15596 -0.0676794 0.157446
1386 48.7085 29.4122 1.63182 0.00126826 -0.688141 0.492766
2241 50.1508 29.5771 2.6434 -0.223887 0.264254 -1.12946
1648 57.8547 28.4127 1.45861 -0.0987053 -1.99286 0.800162
1313 3.92932 31.0413 2.64373 2.11398 -0.422865 -1.58861
1955 27.3431 30.4526 1.93311 -1.75822 0.181489 0.36293
3789 68.8619 29.9434 2.4427 -0.38365 -1.22609 0.946446
1825 59.7852 32.2188 2.00274 -1.63295 -0.165163 0.883962
99 60.7864 32.3425 1.5247 0.578015 0.0812034 -0.273429
2533 61.6661 32.1214 2.03343 0.328302 -0.69985 0.757357
3123 39.7368 32.8128 2.33442 -0.511829 -1.11198 -0.951198
2873 52.0399 32.715 1.9921 -1.40949 0.363317 -0.384074
139 59.6879 34.8286 2.31129 0.400047 1.07405 0.699314
2144 71.7094 34.6412 2.45582 1.03474 0.295209 0.496277
3769 32.2922 2.39193 3.19767 -0.695912 -0.828542 2.15117
3257 52.764 3.78169 3.52255 -0.131534 -0.2019 1.69197
3027 24.5592 6.7091 3.02892 1.23769 0.433888 -0.581275
1405 51.49 6.80856 3.51976 1.99755 -0.613493 -0.453546
673 68.0215 5.84952 3.93181 1.34228 -0.917104 -0.508829
1097 68.9747 6.5961 3.94097 1.5531 -0.917302 -1.60928
1814 21.1198 7.33063 3.10744 -0.100989 1.49739 0.710367
201 34.1694 10.0584 2.97751 0.731737 0.394153 -0.506734
576 56.7057 10.1128 2.94065 -1.02657 0.471115 0.774433
1597 72.0906 10.6796 3.40361 1.55474 0.276866 0.936035
3766 49.2228 14.0503 3.92503 -0.925552 -0.573923 1.40418
3428 16.1863 14.594 3.6373 0.791381 -0.761738 -0.00311898
1702 28.0572 14.8371 3.20426 -2.29899 0.812116 1.56868
3534 3.31889 15.718 3.7616 1.27786 2.001 0.191101
3690 10.8642 17.315 3.25463 0.245135 1.58717 1.62132
2136 64.8271 17.5815 3.11961 -1.94441 0.132771 -1.27276
1202 42.702 19.5742 4.03982 -0.355417 -0.257805 -1.0842
1554 49.1807 19.2364 3.75064 -0.453229 -0.587676 0.738237
1040 10.2375 19.9333 3.61467 0.66175 0.636114 -0.797994
66 45.5937 20.2424 3.57896 0.248665 -0.0860959 -2.53659
1916 70.8313 21.2192 3.1084 -0.16718 -1.98348 -0.751013
1522 21.5001 22.6154 3.07111 -0.601834 -0.211565 -1.62515
2188 31.3187 26.1245 2.99748 0.737252 0.527184 -0.462431
950 60.9178 26.4109 2.89315 0.253162 0.0610757 0.724452
1983 29.2323 28.2341 3.02292 0.230844 0.178526 0.943586
435 28.1327 28.7916 3.31933 0.965756 0.615586 -1.67369
3669 48.7952 29.4488 2.98053 -1.3472 0.110609 0.484132
3015 14.2683 30.7811 4.10523 0.653561 -0.615932 -1.69908
2320 28.5422 30.4093 3.86212 0.899282 -0.282422 1.26029
521 42.6025 30.2374 2.99506 -0.0278735 -0.122358 -0.210387
982 8.45288 34.2514 3.31619 0.600407 -1.0135 0.34079
2662 1.42261 7.95117 4.94127 -0.933295 0.0382269 0.439202
2932 8.43979 8.1538 4.56336 -0.896652 -0.909365 -0.182429
831 23.4892 7.77422 4.74057 -0.529584 0.0596824 -0.483973
2273 41.3019 8.40087 5.04206 0.646482 -1.08653 -0.680341
3464 57.04 7.79726 5.34186 0.380888 -0.131362 -0.841898
3902 43.8758 9.64519 4.63539 0.126343 1.11889 0.3566
3220 62.864 9.87328 5.51208 -1.81013 -0.213536 0.704136
444 14.0466 12.171 5.32436 1.15494 -0.00341211 1.39535
3936 18.5883 12.1102 5.2076 1.10927 -1.51335 -1.2662
101 27.6344 12.107 5.29302 -1.32125 0.876274 -1.31387
933 51.744 11.9567 4.28082 -0.347297 0.402211 0.634793
330 41.1726 13.0239 4.34133 -1.01448 -1.61945 -1.66483
2376 69.3381 12.8827 5.60645 0.459216 -0.556501 -1.88545
85 17.0045 15.2217 5.22965 -1.53849 -2.09142 -0.559204
3574 24.6729 14.2959 5.17299 1.72836 -0.0832971 -0.376646
1765 29.9699 15.0203 4.6425 -0.928467 -0.521708 0.0238248
3443 3.67348 16.7113 4.39282 -1.07512 -0.538496 0.213026
3919 9.83039 16.3639 4.33447 -0.607529 0.516443 1.28014
1598 16.2901 15.8948 5.35264 -0.923624 -0.144392 1.10761
1994 56.5558 16.3673 5.44998 -0.728096 2.02819 2.87004
543 61.9831 17.8115 5.15885 0.04021 1.0076 -0.551966
1558 64.1125 18.0315 4.67714 -0.723214 -0.0197115 -1.34987
2306 13.1537 18.4631 5.60449 -0.472327 0.673122 0.0759612
1642 13.7913 18.871 4.70295 -1.4788 -0.0053907 0.763862
1862 51.3572 19.7289 5.05028 0.465051 0.112827 0.617942
2420 64.9002 19.1896 5.05026 -0.444956 0.305443 0.328303
1921 13.6544 22.153 5.55961 -0.843723 0.856611 -0.48039
3551 42.4399 21.5861 4.46142 -0.572883 0.273473 0.437133
1650 43.6183 21.2613 5.0256 -1.0324 -2.35713 -0.300457
2272 44.0801 22.6087 5.2838 1.77847 -1.86136 -1.69922
3361 0.0359817 23.3008 4.69081 -0.670608 -0.523497 1.47118
1555 29.0036 24.7296 4.73361 2.13239 -0.118615 0.623562
2461 40.274 26.0814 4.53523 -0.11122 0.720907 -1.02823
635 57.3081 26.3243 5.05848 -1.02608 -0.829791 0.412573
3628 5.94054 27.4576 4.71427 -1.16731 -0.669169 -0.620695
1900 36.3537 27.2857 4.55224 0.192664 1.57771 1.10255
3589 23.412 28.7533 4.27049 0.048343 -0.0186422 0.0159268
1009 2.66457 32.0383 5.51249 1.01001 1.9656 1.7777
1345 39.1888 33.9381 4.87209 0.903837 1.49019 0.795245
602 57.7129 33.3417 5.64263 -0.114787 -0.899072 -1.42584
1906 38.2202 35.4737 4.26917 1.18416 -0.610175 0.286177
741 54.2294 36.3366 4.52893 -0.550314 -1.15289 -1.019
2450 41.9575 3.54137 6.72145 0.0712317 -0.568152 -0.869359
627 49.1972 5.05115 6.45609 0.436752 0.101087 0.170148
3311 25.9783 6.2102 6.00063 0.459776 1.62184 -0.408957
832 49.8201 6.73972 6.35273 -0.439802 0.220449 0.533825
2045 25.4045 7.41911 6.57791 -0.846817 -1.32795 0.50685
1891 43.3076 10.5162 5.99307 -0.551232 -0.33469 -0.335709
1572 25.7455 15.5033 6.31635 0.259147 0.538727 0.31297
3540 32.2258 14.8579 5.98686 0.874505 1.05813 0.111909
2621 53.5266 15.5305 6.41421 0.892609 1.26514 2.0341
108 37.2124 18.393 5.90177 0.0381564 -1.6614 0.139291
3605 4.98419 19.4177 5.83921 0.943143 0.704887 -0.631733
770 0.0506517 22.3174 5.97433 0.364816 0.657048 -0.376073
2714 56.5173 21.8769 6.84897 0.865615 -0.759161 -1.48999
1374 37.657 23.8107 6.91271 -0.462165 -0.13318 -0.987814
2659 73.2248 23.2234 5.75571 -0.620615 0.039461 -0.40296
2026 30.2691 24.5692 5.8168 0.74175 1.73111 -0.948192
2960 5.34685 26.4782 6.60878 -0.359597 -2.54378 0.098643
1077 7.103 28.3083 6.97954 -0.414671 0.519794 -0.464374
853 8.7101 29.75 6.00987 1.12329 1.04805 -0.334594
2235 27.9521 29.11 5.99877 -1.22505 0.217771 -0.567539
1660 33.4516 29.0665 6.59483 1.35147 0.784519 -0.0417455
3248 58.179 29.2996 7.01213 0.253351 0.771055 0.921104
1873 69.5163 28.9548 5.81946 -1.2506 -0.907885 -1.64574
3825 0.244711 30.473 6.00371 0.914666 0.699467 -0.605995
414 64.504 32.4259 6.27689 -0.0636148 1.50228 -0.719125
2872 66.7428 32.4175 5.76337 0.823962 0.311732 0.772253
2602 47.0397 33.5736 6.64072 0.0269911 1.68272 0.594065
309 20.5971 34.5475 5.90823 0.969771 -0.509356 1.42422
1023 35.0657 35.7784 6.51476 -0.539823 -1.11456 -0.00745547
485 17.212 0.0311959 8.08397 -0.735307 0.512262 -1.15129
2914 18.5497 1.89292 7.59536 -0.537359 -1.61438 0.997047
899 32.7635 3.51684 7.97797 -0.683841 0.242238 -1.00389
1236 14.6784 4.7061 7.4376 1.54226 0.562926 -0.676659
1586 8.53503 6.04445 8.32677 -0.848993 -1.77688 0.777319
3623 21.65 6.80738 7.24315 -0.557063 0.687041 0.212881
1657 2.95527 8.22857 7.60085 -0.224143 0.836505 0.389672
3966 25.1822 8.47053 7.99426 -0.724747 0.808956 -0.854091
2121 24.6302 7.47219 8.01572 0.986319 -1.76846 -0.861713
209 30.6543 8.18997 7.98477 -0.781266 -0.018011 1.17603
390 41.7591 7.34365 7.4033 0.793341 0.0863637 -0.235696
3202 66.0273 7.67205 7.90914 -0.925939 1.39126 -0.690766
42 72.1616 8.36938 8.36818 -0.579047 0.210657 0.471645
225 73.3448 8.13737 7.84888 -0.607975 -0.743178 -0.865332
2036 25.5827 9.74056 7.15051 -1.85721 -0.481617 -0.0667492
3839 36.9248 8.8454 8.19304 -0.0467624 -0.635208 -0.0581033
929 60.1486 9.80293 7.4406 -2.43959 -0.461074 -0.199119
583 65.3236 8.75353 8.37424 -0.397118 0.298076 1.39816
672 73.0196 9.3998 8.21827 -0.557474 -0.998907 -0.845097
563 23.5514 10.119 8.03853 -0.789958 -0.356967 0.268536
176 25.8698 16.0829 7.28124 -0.375802 0.199436 -0.807362
1133 60.0372 17.0207 7.74194 -0.647221 -0.1443 0.950528
1596 67.1662 19.3014 7.45164 0.705329 -0.245689 1.05451
3224 44.8203 20.0981 7.39492 -1.25062 -0.895257 0.637253
3278 47.6771 22.634 8.46839 -0.630196 0.644369 -0.613921
2052 17.7961 22.752 8.19243 1.31584 1.19707 -1.50456
1911 35.8575 26.5327 8.48724 0.378982 -1.60356 -1.43467
2249 41.3125 26.0683 7.22569 0.732536 -0.560621 0.543336
3624 43.8516 26.5194 8.31795 0.444173 -0.939897 -1.11704
2170 72.6477 28.2707 8.39208 0.909046 -1.32291 -1.61205
2808 20.6937 29.5297 8.29982 -0.76121 -0.730438 -0.988058
83 31.9871 31.0083 7.78804 0.76015 0.933754 0.725134
1303 51.5165 29.9547 8.20414 -0.95704 -0.634094 -0.0899821
2868 70.4556 32.0353 7.18446 0.315554 0.0783513 0.350511
2527 61.9897 33.965 8.08546 0.508903 -0.277336 -1.17996
1216 71.7586 33.6528 7.51712 -1.36694 -0.546859 0.541689
771 38.0373 34.9161 8.38636 0.313746 -1.78483 1.6654
1276 67.2733 0.4586 9.5251 -1.24932 0.414286 0.994777
2573 69.4933 1.14134 9.57877 0.110106 -0.0976256 0.906765
2108 21.5415 2.03633 8.89551 0.801167 0.283818 0.493122
2265 4.99213 3.2693 8.96513 1.29675 0.845416 0.357479
1736 23.7519 2.90609 9.69296 0.285477 -1.06448 0.715052
2296 27.9817 5.17028 9.03605 -0.99014 -1.55207 -0.136524
1617 19.2861 6.91369 9.39872 -0.600265 -0.886833 -0.921251
1301 40.4266 6.85145 9.80699 -0.519723 0.445076 0.49086
3793 50.9226 6.93166 8.76821 -0.906055 1.96043 0.32405
1645 13.4126 7.44206 9.72496 -0.650197 -1.22529 -0.367674
1395 9.76118 9.2319 8.844 0.084877 1.30328 -0.65941
1383 12.9453 9.0267 9.80789 -0.0387563 -2.70753 -1.51368
3445 22.6189 9.49799 9.86374 1.18999 0.158083 -0.668055
97 22.7087 11.6797 9.24004 -1.72064 -1.38264 -0.23608
248 37.9252 12.3509 8.91614 -0.716794 1.43498 0.897758
2070 43.0811 11.6402 9.23428 0.69842 1.04925 -0.4134
3301 28.1111 13.605 9.18617 -2.26509 0.512227 -0.947652
3978 18.3368 15.2058 8.75924 -0.032466 -0.912351 0.401051
238 51.2769 14.5313 9.52688 -1.02215 0.984086 0.327123
1188 12.7512 15.6745 8.6353 0.440101 1.82394 -0.233038
434 28.5077 15.6351 8.51272 0.0378673 -0.726424 0.378206
1193 30.308 16.4233 9.01051 -0.775235 0.498471 0.419701
2724 33.5375 15.8449 9.159 -0.217278 -0.410904 -0.23798
749 21.207 17.9906 8.99521 -0.519017 -0.993579 -0.413625
3350 17.5452 19.3962 9.08802 1.81109 0.566205 0.602383
3942 41.5245 19.2581 8.54533 0.394737 -0.142381 1.27843
797 66.671 19.6667 8.97323 -0.736632 -2.55996 -1.81198
732 28.1735 20.9041 9.81303 -1.20248 0.472258 -1.03347
688 35.8186 20.3689 9.68635 -1.45989 0.268288 0.0383845
1676 53.5819 20.7734 9.19312 1.20066 -0.739207 -0.661618
3890 4.47762 22.029 8.69592 0.601259 0.603512 0.677104
2754 60.4718 21.7651 9.87713 -0.243502 -0.465452 1.44838
3772 9.41837 23.6925 9.71157 1.15053 3.11719 -1.30626
3682 53.3227 23.6229 9.43874 0.131247 0.492801 -0.638703
334 13.1018 24.8128 8.5763 1.67067 0.230362 -0.622704
2745 22.1932 24.3143 9.4789 0.609828 -1.10839 -2.49074
613 65.9847 24.158 9.5862 -1.14414 0.351247 1.30991
942 26.2446 25.7129 8.94418 1.75462 -1.26405 0.161748
2373 17.9507 28.7412 9.46653 -0.948556 -0.669507 -0.335737
794 18.784 29.3103 9.44047 -1.29732 2.08921 1.40077
2299 25.037 29.242 9.18851 0.756369 0.107234 -0.794624
3074 59.531 28.7922 8.89532 0.710261 0.488153 -0.23777
202 23.391 30.5052 9.69448 2.10702 -0.966924 -0.774464
619 34.8139 31.3907 9.54166 0.888165 -1.81181 0.32967
3223 63.1215 32.2972 8.96798 1.45721 1.85075 0.788691
3879 70.4566 31.2109 9.15508 -0.358735 0.297213 -0.519764
1927 70.1133 32.0665 8.59659 -0.989345 0.2587 -1.57583
1982 48.9517 35.3061 9.59617 0.534092 0.251137 0.466785
2330 4.60117 36.7066 8.99538 -0.501285 1.12336 -2.44364
2300 59.8298 36.128 8.73087 0.287819 0.945452 1.89628
2345 29.9542 0.0828457 10.3027 -0.413509 1.25302 -0.325755
546 48.8343 1.7895 10.6974 -0.992241 0.243247 0.0768902
3622 63.9654 3.16109 9.97094 1.78533 1.15365 0.458711
3740 32.0178 6.65941 10.8331 -0.39681 0.0182654 0.049533
1125 46.6139 5.80109 10.9424 -1.14332 1.21845 0.216247
1508 49.1448 6.47029 11.2922 0.374538 -1.62776 0.145996
2530 2.2882 7.63436 10.3217 1.45704 -0.893822 -1.57938
1511 46.4892 8.37194 11.2077 0.328731 2.20695 -0.168471
1868 47.6386 7.37567 10.5455 0.675089 -1.11441 1.24615
2772 50.9762 7.87628 10.1041 0.103728 0.444583 1.37473
3614 60.8765 8.19116 10.6559 0.999899 -0.400517 2.13734
2384 1.30256 8.61729 10.8976 0.335672 0.802139 0.632673
949 2.96261 14.1143 10.1478 0.440309 -0.787508 -0.735658
34 33.7446 14.6268 10.1265 -0.323615 0.217243 1.90335
1292 34.5033 14.483 10.7749 -0.76179 -0.326664 -0.206995
2775 47.2945 16.6568 11.2287 -0.39177 0.901679 0.686034
1232 8.65898 17.6836 10.9202 -1.86164 -0.462897 1.929
3488 16.3861 18.4121 10.1946 1.45866 0.529818 -0.330395
2883 17.9446 17.7574 10.6809 0.599072 0.0119426 0.591895
2496 1.20285 21.1698 11.2443 0.417009 0.958447 -0.486285
3709 5.17459 20.4865 10.0399 -0.359747 0.525409 -0.39449
3717 57.4019 20.9422 10.3007 -1.52833 0.109517 -0.365385
1328 15.8033 21.4263 10.2146 -0.296257 -0.926597 0.589213
1849 39.3564 24.2974 10.7498 -0.358865 0.127395 1.18167
2074 51.1294 24.3333 10.0244 0.441479 0.288557 -1.86487
1266 72.1716 25.2282 10.6795 -0.696686 0.0797005 -0.671309
133 6.60637 26.897 11.2632 1.40523 -2.15628 0.545461
2338 54.4845 26.0503 10.2692 -0.201016 0.730393 -1.31285
3365 32.4822 26.9841 11.134 -1.15821 -0.346672 0.0888806
3436 60.4025 27.8542 10.6435 -0.955384 0.489537 -0.203876
3720 43.7923 29.2034 10.5978 -1.03531 -1.77045 -2.26741
1153 61.4518 28.8566 11.0294 -0.511517 0.561697 -1.5784
995 34.6685 30.3031 10.6857 0.828998 -1.14633 -0.656711
1258 20.8488 32.5819 10.0828 -0.310104 -0.492694 -1.3768
2549 32.9486 33.8558 10.344 -0.310768 0.490214 1.32957
3259 45.6387 32.9349 10.5378 -0.0214501 -1.57693 -1.92658
3713 53.288 32.6244 10.5947 -0.767328 1.66168 0.926187
151 63.667 33.2289 10.5042 0.513458 1.03715 0.558296
2428 71.611 32.9217 10.4655 -0.838371 0.177395 -0.296002
3795 23.4328 34.0952 11.2006 -0.0279084 -0.464964 -0.296263
3137 57.2064 34.8735 10.3674 -1.1238 -0.788066 -1.35729
3324 63.8381 36.1438 10.4932 -1.05747 0.817859 -1.0975
78 70.8033 35.4918 11.2876 0.411138 -0.22114 -0.775829
2995 12.612 0.697475 11.9703 -0.25829 0.471079 0.526577
359 31.5798 2.25143 11.6748 2.15083 -1.89584 -0.840443
2931 47.2355 5.21438 12.3687 -1.45463 0.550109 0.766537
3059 6.63068 5.67394 12.5136 -2.11203 -2.66974 -0.380749
3021 23.0057 6.18574 11.6406 -0.930413 -0.119616 -0.802341
1681 28.6754 6.58488 11.3386 0.28862 -0.184404 -1.2005
3121 8.62066 7.1164 11.98 0.487053 1.27732 0.971045
2723 44.364 7.37507 12.0713 0.507081 -0.120269 -0.259221
2437 8.05682 9.08849 12.3163 0.714579 0.795596 0.55264
2660 38.0389 9.40711 12.6685 0.377386 -0.614523 1.23666
464 54.1336 9.56313 12.2177 -1.53348 1.08321 -1.29865
764 60.5113 8.88955 11.6116 0.290859 0.557939 0.589769
1061 0.66887 10.093 12.5526 -1.01798 0.583123 -0.657102
1312 30.8588 10.7666 11.4297 -0.659976 0.0708674 -0.493233
1566 20.8078 11.9276 12.5747 -0.395734 -0.495241 -1.59712
3016 17.9475 14.1257 12.5369 0.456373 1.5521 0.0453826
1057 39.0625 13.4039 11.9047 0.139824 0.268808 0.668671
1157 58.0491 13.5196 12.4046 0.805781 -0.199729 0.639817
916 49.2707 14.5795 11.9373 -0.234294 -0.363426 1.80132
820 58.2792 14.8551 12.1955 -0.858811 -0.0586076 -1.01618
1692 61.5519 16.0135 12.524 2.08902 0.0325569 -0.770118
2172 64.4695 17.9537 12.629 -1.97063 0.158765 1.28179
2721 31.5317 19.6367 12.1077 -0.242857 -1.01188 0.147405
1838 68.8026 19.1956 11.8646 2.11569 1.02814 0.873308
2094 65.8647 20.9209 11.9644 1.28316 0.0647734 -0.461297
1716 67.3759 20.4153 12.493 0.992594 -2.07889 1.37122
1780 6.42509 22.8387 12.0915 -0.317508 -0.377584 -0.140634
2661 1.46474 24.8746 12.2313 -0.275417 -0.664739 -0.226167
297 10.1447 24.0925 11.9427 -0.146659 0.770847 0.908255
1229 30.4557 25.0528 11.6118 -0.262758 -0.483946 -0.290438
2791 51.662 26.5789 11.9785 -0.433362 -1.58877 -0.341384
2439 17.7701 29.6543 12.0646 0.127459 2.28797 0.351481
2303 71.8873 28.6943 12.1248 -0.341697 -1.00719 1.06255
1595 10.6833 31.0254 12.4048 0.809073 -1.09715 -0.892939
387 38.5436 30.5878 11.4273 2.03724 -0.485675 0.7147
3885 39.409 31.0786 11.5318 0.59856 0.405358 -0.146553
2911 48.0924 30.6572 11.5689 1.05642 -0.793541 0.449968
2268 49.9876 30.3504 12.7343 -1.05017 -1.23165 -0.479061
266 53.9904 29.8114 12.1883 1.6067 -0.176306 0.958944
104 24.8384 32.3805 11.8963 -1.19531 1.57291 -0.473661
2227 31.0491 35.0049 11.4195 -0.29852 1.32512 -1.08479
98 55.2742 36.7467 11.5922 -0.466978 1.8225 0.71432
37 65.2413 36.1566 11.6093 -1.2181 -0.548731 0.922636
768 1.07388 1.39857 13.7942 -0.327325 1.9197 -2.51048
2789 16.3162 2.28565 13.7109 1.34364 0.662382 0.191138
143 41.8969 2.50486 13.7726 -0.86206 0.519227 -0.255261
2392 42.8915 3.16836 14.0328 -2.535 -2.13199 -2.56049
1733 46.2425 5.63114 12.869 0.302017 -0.911392 -0.926143
2683 22.6006 6.04955 12.7579 0.642949 1.57724 0.52147
2050 29.7384 6.10697 12.964 1.17788 0.28186 0.369843
460 49.4129 5.86488 12.9614 -0.445431 -0.634067 -1.01068
905 51.6979 6.03893 13.7462 -1.74039 -0.163967 -0.782377
2664 14.0528 7.74822 14.0161 -0.254581 0.5242 0.677047
3716 1.38305 8.90013 13.142 1.21237 0.143587 -0.0661796
1970 32.6006 9.45796 12.9878 0.810483 0.0101147 0.912767
1933 54.0769 8.59842 12.8436 0.223481 0.641856 1.14826
1682 10.4007 11.3353 14.0422 0.376101 0.764397 0.526339
2261 15.1847 13.4292 12.7566 -0.221399 0.0305686 0.676894
837 0.326389 14.8807 13.5204 -0.702885 0.234846 -0.325773
3730 36.2657 15.0283 13.858 -1.13758 -0.135497 2.08156
2 59.037 16.1178 13.9617 0.0194855 0.0303228 -1.68538
706 9.02483 17.4819 13.8047 -1.15764 0.973352 -0.558346
1134 17.2445 17.3415 13.0772 -0.0315834 -1.49422 -0.310611
2885 48.6247 18.4746 13.3982 -0.251408 0.944018 -0.369533
1787 62.2956 20.0713 14.1219 1.24471 0.714143 -1.03957
980 13.275 21.6142 12.7934 -0.84453 -0.940582 0.634659
482 27.955 23.3674 13.3541 -0.0787117 0.218764 -0.0603667
2079 22.7043 24.6009 12.8266 -0.192732 -0.347976 0.789868
873 30.9159 26.3872 13.1532 -0.503181 1.56044 0.0219637
2281 42.7751 26.4938 13.0737 1.5096 -0.192545 -0.830806
2992 4.07945 27.5076 13.9668 0.538188 0.495563 0.082103
2892 3.12022 27.2849 13.4831 -0.426775 1.29017 -0.437344
398 31.7918 28.0865 13.9913 -2.12615 -0.318852 -0.656509
1038 39.197 28.2257 13.3871 -0.677599 0.580828 0.0187164
2333 64.0701 27.0045 13.8265 0.309662 0.891088 -1.0427
2863 40.1166 29.3248 13.6734 -0.685625 1.30868 0.86474
3746 66.0714 28.8446 13.509 -2.12381 0.371726 -0.232567
2935 5.38274 30.3564 12.9886 -0.908605 -1.83858 -1.69638
2793 10.2342 30.114 12.8874 0.15678 0.471284 0.374653
92 11.3767 30.6922 13.2895 -0.145434 0.146782 1.73984
270 27.738 29.807 13.6005 -1.79953 0.274126 -0.28754
937 19.058 32.5599 13.9681 -0.852394 -0.276011 -1.36912
1050 33.0456 32.835 13.1509 -0.235101 0.634134 0.388649
3180 40.2998 33.9286 13.183 0.377119 -0.102327 1.22269
196 30.5701 34.2698 13.7198 -0.166615 -0.364894 -0.825909
340 54.847 1.0092 14.606 0.895016 -1.96581 -2.12552
842 3.87827 2.08191 14.8827 0.780897 -0.279849 0.335741
1032 27.913 3.98803 15.4579 1.01845 1.13319 -2.51574
1317 63.6581 4.66859 15.1297 -0.108187 -0.202537 1.17355
3197 20.0662 7.35226 15.0933 -0.145702 0.413317 -0.483162
1124 69.1713 7.57403 14.8106 0.637702 0.787487 -2.0807
2129 2.41978 9.37147 14.3581 -0.252375 -1.23617 -0.133679
1482 30.8458 9.91525 15.4406 -0.164507 0.963269 -0.609054
1175 16.0921 11.117 14.9773 1.47513 1.25615 0.499812
2391 20.2871 12.5427 14.2806 0.742929 0.253949 -0.318213
392 56.7431 12.4882 14.914 0.399671 1.29634 -2.20444
1483 30.4118 13.1774 15.3312 0.801122 2.70972 0.461554
2114 7.47719 15.1447 14.3577 -0.81678 3.09827 1.32361
894 9.14655 14.4691 14.7657 -0.362627 -0.108237 -0.924257
2667 11.4557 14.3442 14.4829 -0.521365 -0.585403 0.859069
303 62.0193 15.0001 14.2838 -0.524813 1.48679 0.140123
1246 58.4137 15.6155 15.2588 -0.972054 1.2333 0.0465392
144 60.5398 16.5236 14.8333 -2.24416 -0.0793981 -0.663641
1785 12.6486 18.4872 14.8949 -1.4983 -0.154925 0.265589
901 13.7298 18.5295 15.0988 -0.822399 -2.17997 1.25532
2424 21.1842 19.008 14.1904 -2.27009 -0.677112 1.76994
1158 25.6669 19.472 14.2724 1.1396 0.477317 -0.258848
2247 40.9891 19.5748 15.4793 1.54495 -0.519809 -0.71715
2676 6.02392 19.9869 15.3449 -0.199782 -0.520583 1.19306
471 2.61575 21.631 14.8255 1.18984 1.07545 0.81338
1489 11.0199 22.3601 14.1855 0.98789 -0.492549 0.106063
3621 45.9591 22.2907 14.4996 -0.00850315 0.283293 -2.18476
1690 59.4705 21.8934 14.5049 -0.748268 -0.149218 1.39332
1653 65.3526 21.9533 15.4881 1.86474 -1.933 -0.524257
2446 42.509 23.6158 15.0119 0.417864 -0.656157 -0.509701
804 58.5169 26.3767 15.1128 -0.418183 -0.126697 -1.264
429 7.74354 27.7302 14.7778 0.638388 -0.544561 0.000773269
3567 13.7909 27.5853 14.408 1.00441 0.416169 1.21011
714 16.3864 27.4719 15.5035 0.502897 1.0598 2.09623
2803 27.6409 27.9202 15.4638 1.03538 -0.126027 -1.01035
2650 29.4288 27.1507 15.2387 -1.44833 -2.06255 -0.844625
2067 26.4825 28.7747 15.0262 0.500834 -1.6096 0.681396
3672 30.1811 28.9951 14.9466 -2.77435 0.556133 -0.74125
3414 49.3475 29.0886 15.5109 0.962582 -0.243949 -2.07159
3043 9.14044 29.7666 15.3825 1.1579 0.260886 0.504764
1584 43.7554 30.4873 15.1003 0.0985406 -1.35959 0.023599
530 7.67201 31.7158 14.6516 0.491726 -0.0257207 0.397518
1457 53.7204 1.11979 16.768 0.0837165 0.277129 -0.427747
2817 51.8614 3.37071 16.6228 -1.45204 0.637485 1.63665
4000 72.008 5.53776 16.4045 1.68334 0.390128 0.961834
2946 68.0366 9.96524 16.8616 -1.2587 1.40176 -0.0450463
1016 35.6951 11.3504 16.746 -0.0836884 -0.527816 0.579685
2991 9.34901 15.0395 16.8978 -0.394589 -0.00385732 1.26678
55 51.9722 14.7088 16.9207 -0.652897 -0.798902 1.59581
3509 51.3839 15.4159 15.8581 -1.25574 -0.39212 -1.58055
1426 68.2699 15.4406 15.6223 -1.7 -0.726994 -0.70823
1557 73.1622 14.5963 16.9279 1.0411 0.714456 -0.0628057
643 10.8921 15.6048 16.2832 1.12308 -2.33163 0.0740992
2839 15.7661 16.6142 15.885 -0.509555 0.272212 0.555319
3724 58.2247 16.6272 16.7163 -1.05883 1.97903 -0.0826048
2068 3.23325 17.7452 15.7321 0.0991859 -2.207 0.729277
2755 28.8861 19.2709 16.5617 -1.70766 1.45064 -0.747682
245 49.9345 18.9144 16.9084 -0.333678 1.24922 0.569824
3771 25.5731 21.0472 15.8979 0.23267 -0.686049 -0.389041
840 0.0862556 22.6617 15.9804 -0.706773 -0.827536 -0.817944
1128 46.0907 21.2876 15.5903 0.662549 1.78621 0.237951
1608 52.9922 21.3996 16.2636 -1.343 0.851343 -0.243031
763 10.1409 22.7664 16.9276 0.669441 -0.849266 0.979812
2785 43.1049 23.6873 16.2205 -0.619476 -0.32526 -0.468082
1801 5.33468 24.6798 16.3875 0.381216 0.22215 -0.614742
1138 30.2779 28.1729 15.8068 -0.215195 -0.697174 -1.19698
3749 0.159052 28.9687 16.0138 -0.852258 0.19036 -1.18065
14 46.0051 30.1618 16.7138 -0.688348 -0.0626872 -0.746008
3557 37.6736 32.2307 16.3413 -1.32459 -0.260704 1.70249
3587 45.1757 32.1023 16.0037 -0.187233 0.360861 2.42546
421 59.5561 31.3654 15.8918 -0.519799 0.55609 -0.50283
261 32.4871 33.9154 15.6111 -0.343662 -0.535815 1.00764
3451 4.95913 35.2839 15.9598 0.894541 0.369954 -0.0562058
2963 10.2941 34.6722 16.1714 -0.903143 0.265933 0.778903
1106 65.4214 35.2821 15.6049 -0.137763 0.048219 -0.305001
1382 6.06446 35.6757 16.6004 0.110467 1.39081 0.770268
351 15.6199 1.13987 18.0144 -0.890763 0.129851 1.4271
2307 59.3274 2.32805 17.6466 -1.5374 0.731788 -0.676762
2374 58.3889 1.78189 17.7593 -0.326399 -0.0398244 1.30576
1872 20.2601 3.32731 17.6755 -0.559227 0.191217 -0.324468
56 4.4816 5.60591 18.2848 0.192213 0.156108 -0.945183
847 41.5056 5.28711 17.8969 0.60267 -0.939939 -0.369411
1083 63.0759 5.43254 17.2314 0.256362 -0.533288 0.0947907
4 64.021 4.9142 17.3201 -0.905884 0.271634 0.570373
2325 16.4569 6.26557 18.0377 -0.0410161 -0.00909156 -0.711209
1505 7.12633 11.8644 17.764 -1.02019 -1.12082 0.732425
299 13.6032 15.4796 17.7146 1.50142 -0.269576 -0.614678
1629 21.6408 15.2318 18.1317 -0.599227 0.48197 0.431883
3034 46.3761 15.7208 17.6904 -1.28052 0.518202 0.605672
994 49.2241 16.5126 18.2523 0.513369 -0.892279 1.58877
3521 8.52968 17.9654 17.0143 0.63681 0.518463 0.936421
541 32.5393 18.2359 17.4107 -1.20816 -0.472067 -1.44371
3041 52.4137 18.1339 18.2984 -0.484765 0.240512 -0.424385
728 64.0813 18.1114 17.6665 1.88361 0.178465 -1.02243
1262 61.701 18.8607 17.3467 -0.863344 0.293463 -1.28689
2033 73.1752 19.3035 17.9383 0.204045 -1.83056 -0.688142
618 11.6325 20.8022 17.9534 -0.79562 -0.798452 -1.57637
2347 45.5276 22.173 17.4575 1.41273 -0.118636 0.196678
1319 53.3228 22.611 17.1179 0.51298 0.0663625 -0.754823
2195 66.7241 22.1473 17.7948 -0.366694 -1.40655 1.26403
3159 41.616 24.0652 18.1851 0.841195 -1.21924 1.06323
3947 15.7982 24.547 17.7318 1.57071 1.93422 -0.633882
354 68.2161 26.6294 17.8073 -0.365614 0.27209 -0.0915684
2319 8.27529 27.8788 18.367 -0.84654 -0.686955 -0.631088
2339 42.5551 27.55 17.2529 -0.38846 2.69485 -0.689509
2334 68.9615 27.6057 17.0122 -0.35499 -1.21058 -0.458309
1194 27.3338 28.6 17.219 -0.980327 0.377905 1.93661
2979 12.2923 30.9552 17.9914 1.50652 0.26959 0.158926
2546 42.1812 29.7854 17.2177 0.507342 0.57756 -0.944027
3167 22.0442 32.2003 17.7933 -0.806114 -0.155944 0.961413
1265 24.7742 32.8151 17.2239 0.0649352 0.0722093 -0.142104
1672 44.0363 33.0517 18.0882 -1.06698 -0.243929 0.223793
2733 60.5495 33.0575 17.9068 0.388205 0.494596 -0.21681
936 5.87302 35.268 18.0154 0.87549 -1.08515 0.31391
3593 19.6728 34.8297 17.0623 0.644956 0.895631 -1.38163
1666 32.3784 36.8203 17.6446 0.591261 -0.00176217 -0.936828
1730 55.3548 35.6119 18.2746 -0.931394 0.503395 0.957311