ITEM: TIMESTEP
65000
ITEM: NUMBER OF ATOMS
4000
ITEM: BOX BOUNDS pp pp pp
0.0000000000000000e+00 7.3680629972807722e+01
0.0000000000000000e+00 7.3680629972807722e+01
0.0000000000000000e+00 7.3680629972807722e+01
ITEM: ATOMS id x y z vx vy vz
1383 12.6272 0.0274062 0.666531 0.800423 -1.53681 -1.79907
2623 48.8267 0.130986 1.28716 0.641377 0.109278 0.762655
3591 56.5849 1.05096 0.60275 -0.38626 -0.161546 -0.211513
2748 1.87059 3.42686 0.158767 -1.50258 1.22033 0.726755
829 39.4151 4.22531 0.815998 1.85109 2.60028 -0.485624
2878 5.34779 4.26258 0.698572 1.36224 2.62353 -0.456053
3464 59.2296 6.24245 0.603886 1.26665 -1.00546 -1.21598
1405 60.3193 6.54559 1.23522 0.859308 0.817616 0.191418
1683 64.8361 6.5542 0.7329 -0.392425 1.46995 -0.700205
3936 20.4268 7.83583 0.0840401 -0.361541 -0.247784 -1.04521
1062 33.4176 8.0147 0.557737 -0.465899 -0.306463 1.5317
20 64.0652 8.64379 1.1838 -0.720023 1.5034 -0.287069
559 71.0227 10.6574 0.738633 -0.102511 0.896627 1.5631
2008 49.6474 12.3899 0.012535 -0.490588 -0.216906 0.278278
820 57.0558 11.555 1.00445 -0.246172 -0.683656 -2.65929
3345 23.0728 14.6126 1.25587 -0.0382968 1.47383 0.169985
1734 14.1054 17.0588 1.0462 0.835372 -1.59431 1.7143
2344 47.9349 17.155 0.0898792 0.891327 -0.161073 0.577695
3720 38.8217 18.5475 0.292628 -0.972017 -2.26151 -1.95766
2638 3.81166 19.9365 0.380009 -0.808192 0.554614 -0.43128
2170 3.55123 21.216 0.374732 1.1021 -1.72167 -1.73445
1233 4.33496 20.7838 0.877732 -0.0157925 -0.403336 -0.0793458
2588 43.3724 20.4957 1.16051 -0.203908 0.404369 0.58643
2572 68.2447 22.1959 1.02257 -2.10314 -0.789075 1.20183
2258 30.17 22.8025 1.27989 -0.516651 -0.401925 -0.0866076
2032 58.7586 23.1976 0.633684 -0.178589 0.212572 2.22015
3628 0.848328 24.1024 0.803258 -0.833572 -0.896077 -0.794187
3259 46.7817 26.7011 1.19905 0.824963 -0.0886753 -1.04397
2188 35.2944 28.1604 0.226405 0.799673 0.387724 -0.565726
2052 24.4375 28.7715 0.581402 1.31185 1.21071 -1.47282
2048 21.4146 29.7868 0.23287 -0.586313 0.469318 0.112951
3113 37.612 31.8241 0.515987 0.0495059 -0.57645 0.105312
1399 55.3395 33.6076 0.360737 -0.331403 0.825214 1.77643
3074 58.4343 32.9286 1.23211 -0.51326 0.754101 -1.97932
2135 35.7303 34.9354 0.207546 -0.0433747 -1.85644 0.63796
2366 55.9632 34.6408 0.377804 0.402704 1.50745 0.148246
2873 46.0316 35.6175 0.439867 -0.726456 0.702291 -0.0083517
1688 2.71516 0.600625 1.73919 1.23311 -0.279649 -0.0912508
2045 27.2533 1.25022 1.72216 0.612854 -1.20087 -0.761723
2450 42.1163 0.908297 2.58895 -0.0289603 -0.460341 -0.771299
485 14.9352 2.8221 2.69937 -0.0269775 0.730411 -1.23186
488 18.0197 1.76422 2.6748 0.579965 1.74266 -0.474505
729 70.3645 2.11388 1.49737 -0.528592 -0.934561 0.977382
2530 8.82334 3.72547 1.9804 1.15239 -0.755659 -1.84273
2273 44.5343 2.9682 1.64035 0.646482 -1.08653 -0.680341
3952 52.4874 3.63199 2.81644 -0.726726 0.832025 0.377169
271 46.6594 5.9025 2.74186 0.402411 0.811572 0.477966
3656 53.9297 7.04608 1.5823 -1.35662 0.547147 -0.416717
2282 12.686 7.21362 1.96339 -0.949787 0.0624721 -0.000604507
1225 12.0901 8.23952 1.51816 1.59397 -0.883553 0.502022
1288 8.83809 9.31575 2.64784 -1.68581 -0.32865 -0.187088
2086 35.3578 8.87476 1.61139 -0.452822 1.24126 0.0745124
1183 7.72836 9.95446 2.30757 -0.314656 -0.0116656 1.40403
3200 27.7954 11.8206 2.04862 0.741009 -0.507591 0.291781
201 37.09 11.6781 2.04989 0.0902836 -0.746052 0.897745
3493 38.9162 11.419 2.78077 2.08838 0.42419 0.406973
1814 17.6621 13.918 2.43634 -0.995768 1.11831 -0.568531
1340 39.9835 14.8378 1.93355 1.00149 0.459111 0.355591
3574 31.6242 19.1471 2.59024 1.18674 1.24355 -0.567639
2458 69.1143 18.6213 2.54403 0.0445165 0.192344 0.636511
3247 27.5636 21.4266 2.82913 2.73916 1.25849 0.517214
1893 42.1711 22.0505 2.16826 -0.274033 -1.44487 0.916199
89 59.9367 21.4553 2.43033 -1.40188 0.224932 0.0899336
3605 9.6999 22.9421 2.68054 0.943143 0.704887 -0.631733
222 65.8649 22.9706 1.83342 -0.333751 0.0426429 1.16746
535 71.9218 23.6145 1.75559 0.567669 -0.212536 1.59872
2421 4.20183 24.7927 2.34354 0.829809 0.615374 0.213985
2074 54.6321 25.4266 1.4612 0.799323 0.189515 -1.61689
3432 71.3718 25.0583 2.76306 0.277677 0.594328 0.703098
2299 33.5664 26.4857 2.04985 1.78378 -0.728124 -1.51684
1884 45.5698 26.097 2.7545 -0.712072 -1.82431 -0.860224
3416 22.4766 29.2048 2.76261 0.203116 0.924033 0.978696
521 42.4631 29.6256 1.94312 -0.0278735 -0.122358 -0.210387
3789 68.5692 28.7619 1.71807 -0.0510815 0.00961721 -0.409497
3360 9.04392 30.4019 1.75018 -0.156517 -2.43225 1.05628
951 47.6428 31.1745 2.05875 -1.22307 0.546768 1.77834
3492 47.0597 34.4448 1.60606 -1.32898 -0.283953 -0.0945242
523 50.9703 34.3008 2.37702 -0.17401 -0.806837 1.52683
629 56.795 34.443 1.86973 0.0855477 -0.741633 -0.286754
2527 62.3311 34.4506 2.38841 -0.532271 0.14296 -0.83054
3767 3.03763 35.5688 1.55137 0.515901 -1.31274 -0.0190095
2715 57.5273 35.5447 2.55887 -0.0508546 -1.08706 -0.4635
3833 9.46506 0.591251 3.98054 1.16647 1.20419 -1.32147
3883 12.9951 0.124446 3.86626 -0.286025 -1.75791 1.86416
2071 39.0699 0.200644 3.12844 0.584398 -0.718402 0.340612
3477 68.0477 1.13909 3.85847 0.31593 -1.55898 0.455523
1118 14.6203 1.69053 3.32695 -1.21083 0.440493 0.270187
2932 4.34123 3.55541 4.2019 -0.666756 -0.928103 0.109772
1617 16.1829 3.4138 3.17217 -0.852374 -0.703262 -1.5667
3886 23.1309 3.51137 4.05565 0.0683969 -1.8585 0.775163
94 27.4621 4.43999 3.18287 0.0466139 -0.00826627 -0.63835
899 29.0482 4.98889 2.94248 -1.01241 0.806958 -0.906871
1029 60.0817 4.7633 3.44279 -2.10515 1.2036 0.426417
831 22.0082 7.07086 3.283 -0.244292 -0.0222484 0.151579
3820 30.1608 6.05765 3.51525 1.77585 0.411647 -0.183051
314 50.8242 8.28002 3.46566 0.0503112 0.212885 1.15915
1828 67.3294 8.17891 3.55351 -1.19402 2.38771 0.14155
1891 41.4938 9.08677 3.62884 -0.310125 -0.228333 -0.470427
1310 6.78691 11.188 3.45816 -1.72611 0.673415 0.885245
3207 68.9535 11.451 3.59173 -0.384349 -0.800635 0.93203
3468 38.0612 12.8395 3.96243 -0.535912 -0.068003 0.650556
2190 1.0864 14.4315 3.65594 -0.400329 0.668297 0.165417
2251 44.9093 16.6669 3.19026 0.170031 0.106374 0.833651
2497 37.5082 18.0144 3.36501 -1.51802 -0.22543 -0.0837719
1202 38.9358 17.8737 3.15437 -0.635551 -0.550874 -0.0197314
1533 53.8359 17.8269 3.35106 0.0146245 -0.220262 0.20759
3981 3.5333 18.8847 3.22708 -0.724972 0.472541 1.60117
1873 61.6803 19.198 3.66709 -0.657254 -1.33886 -1.3496
3094 65.5785 19.4655 2.95529 -0.883905 1.34618 0.958407
528 20.7149 20.0871 3.35865 -0.865555 -0.04112 0.88571
2031 57.1999 20.524 3.69305 -0.0712454 0.614048 1.04172
2749 41.5295 22.553 4.04689 1.50374 -0.636329 1.51814
3624 46.3221 22.1604 3.78961 0.524664 -0.344569 -0.0775963
543 63.3138 22.8357 4.02162 -0.120676 1.04563 0.444324
1921 9.43579 26.436 3.15766 -0.843723 0.856611 -0.48039
2808 16.8954 25.6368 3.53523 -0.730155 -0.910735 -0.865349
3414 51.9607 27.2039 4.16477 0.471912 -0.527672 -2.2363
2088 64.0796 28.0172 3.48641 1.45273 -0.0910379 1.2518
3900 65.892 27.6511 3.02605 -0.65173 -0.908921 1.37661
2241 49.9792 29.4234 3.75829 1.14358 0.152127 0.886315
2338 53.7744 28.9662 3.64211 0.0497802 -0.0744883 -1.31939
3879 68.5318 28.9629 3.80145 -0.324082 -0.728378 -1.09203
2235 22.1187 30.8719 2.89177 -1.03406 0.34574 -0.668446
3137 51.8287 30.3464 3.79206 -0.911377 -1.54381 -0.545472
3876 56.9865 30.3318 3.26298 -0.697281 -0.0514405 0.586629
2134 63.1703 29.9907 3.82148 -0.5774 1.25202 1.68116
1955 19.2495 31.4636 2.84804 -0.836136 0.364235 -0.836712
3825 4.81804 33.9703 2.97374 0.914666 0.699467 -0.605995
3905 23.2721 33.2766 3.25874 -0.396716 0.113517 0.556383
2944 31.0081 32.6783 3.46994 1.41984 0.368401 0.828458
2026 35.5579 33.3919 3.66447 -0.574049 0.108297 -0.120471
2533 62.772 33.2139 3.30176 0.543658 1.18927 -0.850986
1447 29.8194 35.3487 3.25941 -0.480477 -0.458473 -0.446473
1393 38.9848 34.9194 4.20785 2.62421 1.11077 0.635366
230 43.4339 35.394 3.68647 1.68311 0.430663 0.53492
2532 67.2086 34.632 3.29643 -1.17988 0.36288 0.744821
1636 52.1538 4.2188 5.55314 -0.567136 -0.717329 1.13554
768 7.37051 6.08115 4.72562 2.8954 -0.0882571 -1.10019
1236 20.3568 6.86967 5.0191 -0.65267 0.586121 -0.83687
85 19.3371 7.50663 4.25352 1.10937 -1.20939 0.381747
3806 51.0267 7.74132 4.47368 1.79115 -0.624035 0.106096
3623 17.9431 8.63761 5.06393 -1.17478 -0.348063 -1.47874
1681 34.3612 8.6499 5.45381 1.74365 0.883117 -1.90503
2128 72.6933 9.70482 4.49857 0.602459 -0.455391 0.297316
1765 27.7737 10.9735 5.24172 -0.194302 -0.144947 -0.928874
315 33.3758 9.97632 5.12136 -0.483073 -0.437232 0.463088
1124 72.2825 11.232 4.35451 0.415271 -0.312041 -2.07532
3317 54.5668 12.6018 5.66769 -0.826044 0.460291 -0.0750305
576 55.6611 12.6284 5.52393 0.522038 0.60176 1.29588
1395 10.1475 15.6494 5.17026 0.017703 0.89271 -0.95478
1572 25.6754 17.1968 5.56693 0.329156 -0.256299 -0.61258
1648 57.3497 18.4425 5.3368 -0.114248 -1.97732 0.633619
2935 0.766781 21.0643 4.74539 -0.921147 -1.87542 -1.61215
1911 35.4199 21.0517 5.13509 -0.0886963 0.0346903 -0.0775033
1555 36.6282 21.485 5.47804 1.34729 -1.76966 -0.0488635
2154 64.8644 21.9441 5.26777 0.255582 0.485224 1.04562
3361 69.6003 22.555 5.53679 -0.943288 -0.178692 0.404825
732 22.1611 23.2654 4.6457 -1.20248 0.472258 -1.03347
3621 46.0842 23.0576 4.41318 0.0897194 -0.281523 -2.62832
334 21.2796 25.9447 5.22087 1.52467 0.196385 -0.788441
3485 30.8657 25.9642 4.64567 -0.155574 0.281917 1.95724
3278 44.0083 25.5988 4.5996 -0.838635 0.498387 -0.981089
3682 52.9368 26.149 5.37533 -0.17958 0.51722 -0.991112
2305 66.6283 26.7082 5.44991 0.116485 0.462123 0.998932
3589 23.4829 28.0189 4.48675 -0.124224 -0.295319 0.0165055
2371 7.13807 29.3 5.66603 -0.161595 0.67349 0.599398
982 12.1433 29.2705 5.57621 0.85775 -0.965751 0.540289
1077 4.42068 30.3929 4.8654 -0.873687 0.171492 0.156102
1258 17.971 31.1639 4.54531 -1.70571 0.129569 0.3588
602 51.4571 30.7114 5.07595 -1.99308 0.805628 -0.400855
99 62.5508 30.1673 5.01219 0.534608 -0.413965 1.28681
1906 43.7972 32.4775 5.28362 1.1057 -0.564075 0.205002
158 23.5926 33.2253 4.43569 0.794639 -0.430407 0.632857
2872 69.7189 33.0645 5.15037 0.617364 0.0938089 -0.568839
1927 70.6738 33.7508 4.51155 0.528209 0.00221679 -1.1885
853 14.3921 35.0511 4.51652 1.25253 1.19649 -0.223841
2144 3.22758 36.1077 4.95098 1.05702 0.286191 0.509074
3660 17.1327 36.8002 4.61539 -1.28964 1.03356 -1.12829
3714 70.767 1.45312 6.35666 0.203992 0.311964 1.40384
3966 23.1656 5.26586 6.21393 1.27525 -0.924962 0.141725
1267 24.6084 7.80865 6.44506 1.46168 -0.471787 1.14006
1032 32.3782 7.49824 5.77497 1.09313 0.125542 -0.540051
390 45.7262 7.77542 6.22485 0.801045 0.0853194 -0.235142
929 47.8385 7.44441 6.38971 -2.41455 -0.466545 -0.181983
2662 67.7578 7.65615 6.91647 -1.76467 -0.555496 0.15295
178 69.4924 8.46134 6.61157 -1.82031 -1.14005 -1.23862
225 70.5032 7.90628 6.2258 -0.171263 0.752081 0.661182
672 69.5095 7.64346 5.90871 -1.16097 0.841195 -0.330992
3428 18.9295 8.8616 6.49365 0.376917 -1.71252 0.498484
2585 51.3262 8.75272 5.98793 -0.476961 -0.471257 0.652128
148 73.0947 8.51383 5.88974 1.6074 2.76596 -0.329309
2036 16.0442 10.5161 6.36737 -1.42477 0.0697 -0.201606
563 18.2967 10.9928 6.66243 -0.897118 0.639387 -0.777976
3445 28.3744 10.567 6.12445 1.75054 -0.366905 0.471276
108 38.2172 11.0457 6.41977 0.434311 -1.13282 0.147717
3215 72.1155 10.4683 5.81801 0.973501 1.56009 3.2577
583 62.8752 12.0246 6.37197 -0.642377 0.926351 -0.625177
1597 4.95164 12.891 6.36678 0.664764 0.911197 -0.232753
749 19.1237 13.7529 6.1303 -0.301826 -0.652757 -0.990839
3027 24.5959 12.8327 5.88944 -1.38651 1.26208 0.65391
2960 4.18669 14.188 6.31234 0.967557 -1.83415 -0.504549
3645 9.20567 14.865 6.65432 0.780016 -0.12247 2.06323
846 9.59842 15.8127 6.97692 0.261065 -0.181416 0.664953
176 26.6253 16.9021 6.07588 -0.133276 0.715527 0.294371
2432 36.9869 18.593 5.91289 -0.35844 0.661918 1.14326
2420 60.426 18.7167 5.96672 -1.79423 -1.12564 1.12964
1642 8.106 20.125 6.61935 -1.11666 0.292853 0.511177
3540 36.6183 20.1512 6.47067 0.912727 1.04168 -0.123511
2740 66.6071 20.4212 6.76167 -1.73951 -0.986638 1.36228
2659 71.2211 22.3332 6.04918 -0.449901 -0.168648 -0.252183
950 62.0665 26.6434 6.61278 -0.611282 -0.180316 1.15187
48 63.3179 27.3122 6.18333 0.471097 1.42544 1.24868
1386 48.5698 28.3389 6.86526 -0.0949755 -0.14542 1.03059
2090 4.98275 30.7052 6.30129 0.915695 0.667112 0.305359
3030 19.8892 30.2482 6.68028 0.681256 -1.29955 0.602803
1023 32.5088 30.1984 6.48732 -0.469166 -1.12269 -0.0018955
1983 28.7042 32.279 6.32526 -0.0902574 0.881686 0.677139
3811 66.6551 31.2808 6.14257 -0.941875 -1.16247 -1.12122
2056 18.8526 33.5362 6.22652 -0.26657 -1.62707 1.93841
1660 35.4571 35.1838 6.96266 -0.0820931 1.44047 0.138898
199 31.2914 35.9223 5.83423 0.302757 -0.886203 0.363456
659 3.24579 1.05835 7.12119 0.114075 0.82114 -1.32037
448 30.4552 1.37406 8.45618 -1.34993 0.674554 0.771779
96 69.648 2.75142 8.16285 0.875478 1.82867 0.48874
97 15.5477 4.04659 8.4552 -1.41565 -1.46511 -0.0375419
43 57.8014 2.93603 8.03989 -0.930602 0.535615 1.20824
2345 26.9781 5.36144 7.95155 -1.50797 -0.390167 -1.24146
3839 36.691 5.66936 7.90252 -0.0467624 -0.635208 -0.0581033
832 49.0234 5.76381 8.27529 0.275234 -0.114442 0.21765
627 50.114 7.73974 8.03216 -0.290688 0.480589 0.413959
42 68.8145 7.8701 7.66379 -0.17671 0.882726 0.204679
949 6.34454 9.32884 8.20522 1.25466 -1.32012 0.4452
1566 20.3609 9.8593 7.63191 -0.105334 0.245629 0.284519
3117 26.1462 11.9799 7.57447 -0.180443 0.672462 1.21861
1868 47.6205 11.7938 7.48303 -0.28187 1.55684 -1.17696
3301 19.4035 13.9562 7.51473 -1.44255 -0.261719 0.330268
464 46.0581 13.3132 7.80761 -1.72004 0.719468 -0.810776
933 50.0008 13.9763 7.46486 -0.376273 0.430533 0.666982
3541 5.03909 14.7326 7.52712 0.10322 -2.26227 1.78884
3902 43.5652 14.9956 7.10408 -0.114764 1.01253 0.491319
144 48.1913 14.9165 8.41478 -2.3538 -0.451533 -0.705637
3685 0.906787 16.3398 7.39056 0.188466 0.0106567 1.33948
2070 45.6408 16.6587 7.4701 -0.985565 0.577771 0.167982
1554 47.8478 16.5242 7.14043 1.23786 -0.13197 0.170514
1702 12.8544 17.1043 7.94787 -3.46319 0.453878 0.618773
3551 43.0397 18.8901 7.51437 0.153831 -0.613503 0.610544
3895 69.4887 19.2648 7.26573 0.912871 0.744357 1.38852
1862 53.6619 20.2977 8.19803 0.448578 0.115847 0.660012
635 51.8921 22.5022 7.21676 -1.16119 -0.651375 0.459495
2373 12.5393 25.4372 8.09836 -1.05801 -0.662991 -0.278117
1188 14.7586 24.7871 7.34515 0.358738 1.83143 -0.266132
1761 38.5483 24.9655 8.34617 0.397604 1.60344 -2.9702
619 39.8213 25.4188 8.278 0.745329 -1.33508 -0.203855
3709 4.46332 25.9916 8.31409 -0.0648845 1.22756 -0.191521
1208 17.1335 25.7014 7.39461 -0.784076 0.655664 1.76402
1303 46.746 26.7988 7.73329 -0.93031 -0.608556 -0.121679
1266 68.6881 25.6267 7.32295 -0.696686 0.0797005 -0.671309
2320 32.1339 27.3294 8.49236 0.626923 -0.692454 0.806665
2171 5.8754 29.3283 7.22754 -0.326819 0.833904 1.37318
2313 61.9083 30.5368 7.13196 -0.117795 -1.3089 1.48494
2868 70.7922 30.9986 8.49558 -0.154861 -0.285574 0.230157
2185 3.68834 33.6972 7.51111 -0.306035 -1.1698 1.79852
3795 20.7861 33.9911 8.43678 0.6456 -0.538878 0.96172
78 72.697 34.0214 7.34277 0.358992 -0.276067 -0.802693
414 0.996452 36.7165 8.26462 3.11511 0.46361 0.978598
2121 29.8537 2.97129 9.54255 1.51451 -0.151436 0.656122
3934 30.6534 3.98904 9.69744 -2.56636 0.909936 -1.01937
3740 27.6654 6.32004 8.52336 -0.580752 0.764623 -0.412762
3091 32.4073 7.65323 9.78193 -0.295575 0.631699 1.24195
3797 47.7117 8.30025 9.06746 0.888239 0.841915 -2.89305
1125 48.5299 8.84298 9.73524 1.23555 0.900221 0.0407677
3220 53.8133 8.80559 9.03276 -1.81013 -0.213536 0.704136
3614 61.8979 9.63883 8.85292 -0.0186103 0.149706 -2.17312
1312 27.6223 11.3166 9.03924 -0.562121 0.287136 -0.374156
1657 1.90744 12.3008 9.67439 -0.195887 0.818811 0.413133
2683 25.2545 12.3044 9.91508 0.499237 1.20722 -0.642231
1061 70.0527 12.1037 9.38386 -0.83531 0.390831 -0.599714
3311 23.6163 13.7917 8.59575 -0.465703 1.42254 0.742619
3793 49.8167 15.6055 9.40837 0.590887 1.17564 -1.09211
1676 60.4752 15.6382 8.73517 1.42369 -1.12446 0.127215
1692 72.007 16.19 9.00941 2.09536 0.0596883 -0.6888
837 0.936581 18.0302 9.31443 1.26018 1.1626 -1.55252
2306 10.6387 19.7462 9.67433 -0.374129 0.222645 0.867078
3717 50.2305 19.7014 9.57482 -1.83177 -0.799075 0.390364
1511 47.4435 19.9362 8.54688 -0.0961698 2.58384 -0.847724
2201 7.30247 22.0692 8.91812 -0.564503 -1.67377 2.19937
1229 29.252 22.1543 9.89643 -0.359437 -0.438718 -0.508269
770 72.9038 22.206 8.57087 -0.254188 -0.2288 0.664222
3365 28.8354 23.482 9.1038 -0.247912 -1.37119 -0.907763
942 34.2707 23.6272 8.8641 1.375 0.728137 -0.307187
1787 68.5242 23.6029 8.9216 1.24583 0.705297 -1.04011
3159 43.2143 24.4438 9.29758 0.239672 0.0365976 -2.24256
2249 45.0139 25.1148 8.85323 0.673974 -0.066688 0.252219
2496 2.70481 26.2458 9.55336 0.269894 1.02692 -0.286227
2281 50.3231 25.531 8.9197 1.5096 -0.192545 -0.830806
804 56.426 25.7432 8.79285 -0.418183 -0.126697 -1.264
202 29.3204 29.0544 8.98315 1.05547 -0.193525 -0.0620793
2911 49.2512 30.4686 9.79426 0.12055 0.0498347 -0.457869
196 29.8928 32.5082 9.57112 -0.122517 -0.347086 -0.829838
1900 41.9181 33.0128 9.47597 1.55382 0.935168 0.915816
1263 51.7744 34.2978 8.93062 0.416791 -2.22173 1.94486
3703 0.757676 1.38856 10.3597 0.710007 1.5391 3.63909
2907 16.9297 0.440134 10.3355 -0.319107 1.03823 0.38432
3964 40.9192 2.83317 11.1687 0.145709 1.4649 -0.0187718
2265 7.34388 9.06324 11.3276 0.211138 1.24038 0.509148
1134 17.7505 9.75837 10.8159 0.311044 -1.65724 -0.720098
1063 36.7856 8.74245 10.7488 0.485201 -0.0552571 -0.955296
444 17.0002 10.8575 10.691 -0.286884 -0.436678 0.742689
3766 44.595 11.1807 10.9459 -0.925552 -0.573923 1.40418
434 28.8849 11.978 10.5733 -0.0146293 -0.893427 0.301998
2724 31.4177 12.3672 11.2025 -0.470698 -0.704777 0.494039
894 7.3468 14.0267 10.1905 -0.357924 -0.0882972 -0.914256
3805 49.4113 15.0302 10.8269 0.543165 1.23325 -2.10487
1149 56.339 15.5268 10.4892 -0.793959 0.266541 -1.65964
1598 10.1877 16.1536 10.8191 -1.22163 0.0477479 1.0875
2721 28.0805 15.8698 10.8627 -1.67994 0.10142 -0.830745
541 27.0475 16.1827 10.0084 -0.16074 -0.97746 -0.782555
3224 38.4732 15.6491 10.8007 -1.27608 -0.886942 0.700095
618 8.38689 17.6404 10.023 -0.611906 -0.444076 -1.62368
688 29.2862 17.6782 11.1067 -1.08543 -1.6667 0.621818
3919 7.18926 19.2633 10.4686 -0.428391 0.485002 1.26621
1193 25.1423 19.2657 9.99607 -1.51158 1.07373 -0.382395
238 46.2336 19.2264 11.0849 -0.920624 0.810583 0.248169
2791 49.6801 18.7141 10.1451 0.0749241 -1.15627 -0.720333
2661 0.317731 21.0144 9.99302 -0.646479 -1.48904 -0.405152
706 1.43941 20.4871 10.1687 -1.91863 0.740017 -0.770954
3488 22.7702 20.7107 11.2077 1.47915 0.894787 0.0639191
3443 73.2122 21.1104 10.9953 -0.66542 1.58039 1.07865
2094 72.9094 20.9778 9.9355 2.09125 -0.0398304 -0.437778
3890 6.47096 22.6363 10.7512 0.145876 0.115495 0.108631
995 38.38 21.5178 10.5138 0.873208 -1.63617 0.173872
1838 5.41065 23.9983 10.6154 2.14568 0.775479 -0.84142
2755 19.7196 23.8727 11.0804 -1.67939 0.675437 -1.19673
1262 57.8063 23.6138 10.0763 0.136364 1.85941 -1.61107
3690 10.3398 25.8414 9.94157 -0.233975 1.69852 1.173
1138 28.2228 25.8122 10.1633 -0.489649 0.0560191 -0.842485
3746 58.7278 26.6862 9.92437 -1.25529 -0.371493 -0.930292
873 25.5994 27.5336 11.1615 -1.16958 0.0419376 -0.164286
1341 6.89335 28.5869 10.9001 -0.0036239 -1.89766 0.635933
1153 58.7996 28.6578 10.1471 -0.495727 -0.466321 0.185981
3436 59.0811 29.8994 10.4319 -0.0672616 0.166638 0.222418
3749 69.6418 29.7885 10.1096 -0.683899 0.0686684 -1.12495
408 39.1653 33.654 11.2456 -0.0577061 -1.10165 -1.88375
2986 7.26293 34.2177 10.4009 -1.06305 -0.518097 -0.231602
2301 37.3514 34.5972 10.6228 0.442848 0.382821 -1.3144
3248 60.772 34.5571 10.2672 0.612954 1.36 0.406975
1751 11.9567 35.8876 9.95794 -0.00602903 -0.236038 1.0195
3024 63.9563 36.0484 10.9592 0.584374 1.39596 -0.194186
143 28.0911 0.423207 11.8725 -2.04277 0.532952 -0.192345
2392 42.4686 0.106791 12.6563 -0.117503 -0.442374 0.438739
1154 34.8381 2.31104 11.7152 -1.20243 -0.453 1.88027
2161 45.659 2.54058 11.9233 -1.82326 3.57116 1.21012
3257 52.1064 2.77219 11.9824 -0.131534 -0.2019 1.69197
2129 1.07417 3.67445 12.5871 -0.240328 -1.09181 -0.386288
2108 26.471 2.99834 11.9867 1.03755 0.144216 0.661257
546 44.5414 2.99915 12.385 -0.479342 0.0636447 0.606856
1733 38.3634 5.87373 11.3672 -1.58539 0.137103 -0.308034
847 41.1382 5.79015 11.8447 -0.883024 0.436131 -1.49169
3197 19.3701 9.16685 12.6154 -0.147687 0.0658983 -0.507235
1301 37.079 9.11928 12.1725 -1.70288 0.384124 -0.101266
3622 72.8917 8.9299 12.2643 1.78003 1.16061 0.455743
3716 4.27025 11.2987 12.7213 0.256956 0.725404 0.288967
1716 71.4106 10.4594 11.4155 0.126353 -2.22575 -0.742404
2167 36.6515 12.1997 11.4104 -0.769203 -1.09645 2.66607
1426 60.1325 11.6533 11.8522 -1.23176 -0.774543 -0.795177
2391 24.0481 13.7122 12.4291 0.7524 0.233181 -0.37216
3509 44.4035 14.0961 12.3988 -1.8668 0.129978 0.556469
1482 30.0232 14.7316 12.3954 -0.164507 0.963269 -0.609054
1328 14.1801 16.3209 12.4726 -0.437157 -1.34868 0.158265
2754 61.1815 16.1856 12.7334 0.017279 -1.88372 -1.17197
1133 57.7672 17.1613 11.6186 0.265044 0.778423 -0.99768
728 0.62187 18.7335 11.805 2.14628 0.0783204 -1.26814
2650 20.7001 19.5188 12.0136 -2.00168 -1.18738 -1.0639
3350 24.8023 19.6786 12.0863 0.745676 -0.306066 -0.235689
2247 49.2136 19.7455 11.9613 1.63942 0.869659 -0.720337
1780 4.60865 20.383 12.3631 -0.373084 -0.569098 0.198447
2883 23.8496 20.2143 11.5338 1.69849 0.150263 1.68741
2621 55.3186 20.6462 12.1648 -0.905568 0.324165 -0.394046
3016 19.7599 22.2976 12.5231 0.361093 1.66952 -0.0795054
305 37.9097 22.5492 12.1371 -0.281279 0.594305 -1.02204
2885 47.3138 23.1305 11.5425 -0.268465 0.923665 -0.37194
482 28.0816 24.4036 12.7442 0.0419357 0.192279 -0.154724
2319 3.04155 26.5399 12.6523 -1.27241 0.328539 -1.84393
1924 36.179 26.6536 12.2341 -0.620489 -1.42865 -1.67466
2541 61.3381 26.1486 11.5859 -0.826626 -0.79531 2.45591
14 41.6526 29.099 12.6325 -0.921538 -0.294868 -0.831181
1330 22.1337 30.0109 12.6007 -1.74678 1.00297 -1.20677
2304 70.8889 29.8436 12.3456 -1.03968 1.73499 1.74048
2992 3.46037 32.2421 12.5216 0.382228 1.18464 -0.0505129
1038 38.5427 32.5521 12.4172 0.0603228 0.491612 -0.750626
2333 61.0374 32.9311 11.5873 -1.67083 -0.353845 0.0627837
3885 46.9752 35.3924 11.4751 1.50361 0.849046 -0.00916918
1216 65.0985 34.9735 11.7097 -1.09359 0.606028 1.01385
111 16.7221 35.4945 11.8571 1.95694 -0.696332 0.00472948
83 35.8802 35.6389 11.4396 0.957418 0.843312 0.749453
1982 51.6222 36.5618 11.9301 0.534092 0.251137 0.466785
2573 70.0072 0.642932 14.1118 0.102663 -0.0997092 0.906612
364 38.2719 2.77239 12.8713 -1.60547 0.749427 -0.0482373
643 12.4105 5.38026 13.3573 0.125087 -1.91077 -0.597588
56 5.44267 6.38645 13.5588 0.192213 0.156108 -0.945183
3781 29.054 6.03792 14.0907 -0.254885 1.76274 -1.04501
1959 3.26031 8.36562 14.0343 1.48381 -2.43755 -0.721068
3021 18.882 7.47105 13.1411 -0.785036 0.597949 0.385078
209 26.8068 7.11226 13.7742 -0.742604 -0.318183 1.13814
1653 0.3254 11.4766 13.5035 1.36555 -2.59679 -0.59557
3978 20.8897 11.9185 12.8847 1.20824 -0.318105 1.42136
945 72.7648 11.4406 12.9044 -0.292313 0.135048 -1.197
3202 61.4978 13 13.6773 -1.14892 0.81053 1.41952
1917 34.9084 15.3171 12.9102 1.87386 1.13491 -1.54848
133 13.9299 16.1631 14.0568 1.74623 -2.10327 0.309732
392 55.1054 16.1846 12.9059 -1.26636 -0.0655572 0.434195
303 57.2665 16.5637 13.4736 -0.783642 -0.269174 0.52595
34 28.8922 17.0555 13.7972 -0.467386 -0.180934 1.08663
1089 54.3633 18.3988 13.3393 -0.320695 0.502176 2.46303
1157 59.6366 17.4953 13.5469 0.547746 1.17605 0.243807
2 60.6926 17.9978 13.8127 1.23889 0.113838 0.887608
1596 69.0418 17.3649 13.7334 0.525036 -0.159013 1.37268
248 34.3457 19.5263 13.4088 -0.699707 1.43544 0.911091
193 36.7298 18.702 14.1599 1.33058 -1.79328 -1.6066
1981 69.5461 19.2896 12.9092 -0.296232 1.55313 -2.13981
3771 30.0687 20.5995 13.3349 1.14482 0.505487 -0.302492
1319 48.6842 20.6948 14.1631 -0.609485 -1.68046 -0.839215
2785 42.7146 21.9588 13.1614 0.163674 -0.390853 0.410572
297 11.3211 25.4281 13.1116 0.586766 -0.162567 -0.324119
2268 51.8428 24.2906 13.3474 0.923478 0.0911029 -0.571063
1608 54.0248 24.1506 14.0606 0.390186 0.224544 -0.713717
1801 6.83511 25.807 14.0081 0.176235 0.263124 -0.304864
826 23.1936 26.0606 13.1369 0.13171 -1.98376 -0.343887
2637 60.5185 28.1998 14.1606 0.310807 1.44373 -2.02348
1595 14.1052 29.2151 13.4813 0.810546 -0.876294 0.638447
3672 18.3187 30.0298 13.3932 -2.10584 0.417257 -0.212624
2892 4.3826 31.5217 13.0189 -0.25017 0.611007 -0.336665
309 25.3047 32.1364 13.3139 0.906941 -0.457099 1.48868
1372 66.3378 32.1835 13.647 -1.09882 -1.55578 -0.524316
3180 36.5479 32.8851 13.5397 -1.4646 -0.0118179 -0.535425
2223 42.277 33.231 14.1236 0.440057 0.520428 -0.859242
2428 68.5802 33.188 13.612 -0.245207 -0.164404 2.10588
2979 14.432 35.2571 12.8524 -0.0860293 1.15363 -1.61571
421 56.9572 34.1459 13.3776 -0.519799 0.55609 -0.50283
3412 68.5082 35.162 13.8733 1.50003 -0.54772 -1.98568
2540 23.0362 36.5186 12.8142 0.124274 0.409726 -1.10721
1106 64.7446 35.6018 14.0024 -0.113643 0.107381 -0.32644
2027 69.3 35.7167 13.4169 0.475128 -0.289336 1.45888
2335 18.3626 0.338312 14.5065 -0.153515 1.12651 0.590135
1234 5.00213 1.52793 15.5639 -0.211512 0.804491 0.488472
2441 18.48 1.74874 14.4964 1.4641 0.641439 0.138415
596 48.1876 1.69623 14.2883 -0.973191 1.3125 0.769436
1457 54.1575 2.53317 14.6773 0.0915966 0.290777 -0.402606
1276 61.0015 2.28657 14.4578 -1.25492 0.36028 0.98517
187 3.69734 3.91817 14.2394 -0.377903 0.108848 -1.43123
2995 11.3627 2.92875 14.5862 -0.249457 0.445274 0.523084
2626 13.9031 4.01041 14.6678 -0.184606 0.973402 1.167
2692 20.0478 3.55596 14.3866 1.44713 0.926283 0.77009
2789 23.0344 5.59755 14.6666 1.34364 0.662382 0.191138
3761 55.9711 5.38951 15.093 1.0835 -1.0608 -1.39061
2325 16.2518 6.22011 14.4817 -0.0410161 -0.00909156 -0.711209
2050 35.4687 7.48465 14.69 1.14146 0.272888 0.343909
2723 40.3513 8.30843 14.9401 -1.09997 0.235669 0.753607
2646 70.1839 7.55224 15.1888 1.04634 0.27394 -0.71622
2384 5.7856 11.0066 14.9151 1.17661 0.193929 0.463813
2772 50.8634 10.3272 14.9402 -0.677205 1.97819 -0.13231
1292 36.3948 11.8185 14.5871 0.370909 -0.528831 0.761804
2357 54.0537 11.4822 14.4002 -0.46455 -0.676389 0.225492
2437 11.3292 14.639 14.822 0.623744 1.19909 0.633297
299 21.0448 15.4746 14.2386 1.47353 0.0779608 -0.711536
1057 39.7616 14.7479 15.248 0.139824 0.268808 0.668671
1933 55.2628 14.8274 14.3899 0.343498 1.47433 -0.84356
2025 58.8425 16.0638 14.8714 -1.3311 0.847654 -1.30299
1557 2.44808 17.452 15.144 0.0192708 -0.0148806 -0.792601
1489 15.2785 17.5982 14.1895 0.540813 -0.855266 0.511492
430 17.9572 17.6588 14.1731 0.0143279 -0.359411 -1.05031
2775 44.7268 18.4015 14.402 0.60389 -0.705305 0.0258793
3942 43.7291 18.5373 14.749 -0.679539 0.0330518 1.67049
2803 26.5573 21.9954 14.6791 -0.0568065 -1.54236 -0.141008
1158 29.3558 21.6109 15.2334 0.528735 0.0425203 0.0839567
2067 34.0481 21.9312 14.9912 1.47124 -1.28127 -0.106106
2446 42.2928 21.8994 14.2278 -0.210388 -0.0379327 -1.07283
387 43.6212 25.6749 15.4806 1.24339 -1.13682 0.980655
947 57.9799 25.9706 15.0007 -0.564143 0.278161 -0.658532
2439 12.1613 29.4804 14.9741 -1.11204 -1.14266 -0.22746
2793 13.0852 29.0963 14.2269 0.175493 0.944166 0.987618
3504 24.0652 30.0375 15.1472 0.213561 0.320033 -1.16518
270 20.0011 31.6271 14.2939 -1.35271 0.286008 0.667456
2255 31.0414 31.886 14.8642 -2.62898 -1.18524 0.0914825
37 59.3192 33.0777 15.161 -1.14995 -0.641407 0.649155
100 66.6119 32.9122 15.5658 -1.03067 -0.797653 -2.86773
2495 9.6964 34.0189 15.2868 -0.0930025 -0.279057 -1.21076
3947 23.5859 34.4224 14.5361 1.54425 1.95806 -0.690216
2571 0.728032 36.4081 14.4099 0.572806 -1.04295 1.40609
1452 40.1039 36.6966 15.4479 1.13442 -0.28408 0.385457
1365 31.7725 2.81268 15.915 0.69468 -2.16281 -1.0252
1872 17.9831 3.76165 15.8208 0.39548 -0.707103 -1.13816
548 48.8047 3.73895 17.0003 -0.539685 1.14472 -1.0521
905 50.9769 3.58342 15.6616 0.410789 -0.609942 0.798584
283 16.2039 4.38838 16.7859 -1.54702 -0.661295 -0.476943
3894 13.0496 8.93948 15.7257 0.127915 0.18695 -0.750922
776 51.2998 8.60483 15.7157 -0.427638 -0.323137 0.403142
2664 12.5466 12.142 16.251 0.416661 1.71673 -0.266631
2261 14.0767 13.581 16.1412 -0.233138 0.0188525 0.678326
32 28.0385 12.9298 15.613 0.232701 0.863164 -0.917379
3122 58.4505 13.1253 15.7729 1.10257 0.555984 -2.35477
3114 67.5569 13.9738 16.192 0.117962 -1.57318 -0.733929
555 11.0536 14.6742 16.5762 0.046227 -0.0830229 -0.221231
2182 28.6968 14.3646 16.8185 -0.124351 -0.853908 -1.56396
3160 71.9102 14.4819 16.9907 -0.722111 -0.396491 -0.367654
1369 4.80179 15.6971 15.6726 1.60825 -0.128896 -0.0990765
2946 61.7431 16.974 16.6364 -1.2587 1.40176 -0.0450463
870 12.3623 20.3683 15.6886 -0.0148676 2.28895 -0.847165
2361 40.4906 20.9564 16.9252 -0.591552 0.314773 -1.54668
1185 58.429 22.1974 16.8632 -0.445203 0.95661 0.896591
2334 66.46 22.1221 15.8248 -0.541481 -1.03888 -0.168965
2079 21.7933 22.8034 16.703 -0.167858 -0.3755 0.753459
1628 24.7443 23.0747 16.7213 0.52148 -0.166403 -0.474461
1849 37.5528 24.8889 16.6545 -0.363228 0.10579 1.17972
1584 44.7138 24.8338 15.8961 -0.0237711 -0.873395 0.069216
613 60.1907 26.053 16.1702 -1.25546 0.571794 1.33372
2339 38.583 29.2074 16.9988 -0.892068 -0.589935 0.283811
1994 51.0983 29.1169 16.0494 -1.24091 2.72989 1.77267
266 62.0126 28.8916 16.9696 1.58817 -0.230986 0.935028
2165 17.5024 29.824 16.72 0.0894861 -1.49189 0.981318
1128 49.1575 30.6704 16.7887 0.609518 1.86727 0.283093
63 58.159 30.6076 16.5581 0.369481 -1.21906 -0.271735
530 9.28675 32.2676 16.1904 0.148646 0.334302 0.250738
2863 35.7628 31.7418 16.5861 -0.703232 0.179777 0.58064
3406 68.9045 31.9961 16.8335 0.517177 1.1009 -0.637666
1265 25.0989 33.1761 16.5134 0.0649352 0.0722093 -0.142104
235 11.6717 35.3575 16.5964 2.26789 -1.28249 -1.20163
1050 32.5568 34.4023 16.877 0.00191524 0.100923 0.919654
104 25.464 35.7646 15.7582 1.34578 0.101135 1.18497
3359 65.9265 35.8451 15.911 0.24234 -1.79686 -0.25763
1033 36.3469 1.27695 17.3522 -1.95412 -0.51749 -0.0953512