ITEM: TIMESTEP
55000
ITEM: NUMBER OF ATOMS
4000
ITEM: BOX BOUNDS pp pp pp
0.0000000000000000e+00 7.3680629972807722e+01
0.0000000000000000e+00 7.3680629972807722e+01
0.0000000000000000e+00 7.3680629972807722e+01
ITEM: ATOMS id x y z vx vy vz
2319 7.74117 0.76327 0.760127 -0.998818 1.40274 0.211221
1600 37.3029 1.08995 0.925988 1.60134 -1.61667 -1.0082
3449 57.5019 1.45146 0.832261 0.607534 0.0871829 -0.615918
1288 47.5021 5.37107 0.877387 -0.535679 0.971947 -1.65757
1603 10.6461 7.10729 0.965022 0.763242 -0.2392 0.461803
543 8.00368 9.21878 0.637365 -1.28156 -0.779261 0.945082
1102 53.1677 9.57176 1.28587 -0.805411 -1.20301 0.301524
2397 66.025 9.40533 0.358913 0.421281 -0.544924 0.586625
3783 10.4424 12.0929 0.446758 -0.787557 -0.38502 0.740056
566 68.6674 11.8501 1.37901 0.301228 0.749367 -0.834224
2802 15.9114 13.1026 0.749917 0.125972 -1.48507 0.871632
3388 55.9055 13.2506 0.264624 2.0152 0.74983 -1.56837
2047 14.006 15.379 0.531302 -0.4787 -0.616382 -0.797398
1658 0.715146 15.9697 1.27098 -1.50132 0.261243 -0.200669
2375 34.5069 15.8959 1.39564 -0.422302 -0.134561 -0.705851
3005 23.7197 18.724 1.01963 -1.28108 0.811518 -0.609456
1083 69.9025 20.3503 0.350888 -0.249251 -0.156492 0.77814
1524 54.738 23.127 0.361112 -1.4314 1.82491 0.409181
2941 32.2984 26.0752 1.09046 -1.46562 -0.410158 0.26019
131 11.6764 28.7372 1.08841 -1.61715 0.112584 -1.07719
2533 56.7655 30.3128 1.18582 -1.23659 -1.02601 1.8582
1677 17.1744 32.449 0.912955 -0.860009 0.154717 -0.118167
3253 58.516 31.86 0.201547 -0.574962 1.51064 0.495429
1402 72.6414 31.2775 0.262155 0.876585 -1.6413 0.728891
1087 20.2981 34.1928 0.36965 0.943187 0.957284 -1.5723
2103 43.194 0.118317 2.3968 0.304793 -0.783697 -0.807788
1113 46.2319 2.04529 2.75882 -0.187533 0.785238 -0.456367
3267 68.9326 2.45105 2.13587 -1.04665 -0.83763 0.42963
1465 35.4899 3.21422 2.81837 -0.964432 0.0923583 -0.0386748
3204 9.4872 5.40618 1.85739 -1.49433 -0.266735 -0.532664
735 25.4669 6.77845 2.65078 0.2801 0.209052 -0.392948
3309 31.1992 8.15532 1.97607 0.0949373 2.07814 1.48084
77 31.8984 8.65426 2.7447 0.901506 0.359031 1.63848
2127 60.1518 9.21265 2.2214 1.01642 -1.13327 0.0713946
3015 69.6622 9.03344 2.63252 0.72168 0.779823 0.770502
844 20.7321 10.8841 2.24885 0.550218 -0.400772 0.821952
3138 26.5816 10.614 2.11937 0.0431393 -0.644428 0.855326
1960 56.3237 11.209 2.17476 0.47801 -1.56461 2.74423
749 11.0739 12.0524 2.69934 0.545925 -0.653161 -0.31621
3454 25.9214 13.0812 2.70912 1.01344 0.137224 -0.320976
30 63.3853 14.0246 2.45336 0.774768 -1.36191 0.285696
1891 44.2427 15.8491 2.70997 -0.0708225 -0.953727 1.00501
3396 48.9079 16.0317 2.72364 -0.0629265 -0.932099 -0.87421
3744 50.0159 16.062 2.33456 1.03169 -0.202552 -1.24443
3398 2.75469 18.0375 2.69578 -0.410764 -2.84296 -0.0829766
117 58.3435 17.7195 1.99727 1.5793 -1.34915 -1.47302
39 2.81475 19.6749 2.3037 -2.16173 0.360276 -0.133618
3129 22.7284 19.2745 2.16749 -0.769167 1.75917 0.233818
3491 30.7234 20.3176 1.77372 1.43744 0.320098 -0.699778
3732 68.9996 20.6465 2.74976 0.747954 0.330333 0.361937
979 36.4041 22.4377 1.57352 -0.782003 1.45649 -1.25579
2272 4.06093 23.0256 1.68052 0.0735719 0.668893 -1.3033
3885 40.3678 22.6835 1.62972 0.764165 0.745149 -0.087948
1333 67.9118 22.7706 1.59895 0.381428 0.0126317 -0.915558
3565 48.3205 28.1332 1.99006 -0.0443037 0.00135691 -0.415842
1797 50.4591 27.1732 1.60044 -0.370293 0.531706 -0.16397
222 2.72755 30.2368 2.26561 -1.08348 -1.11078 -0.469365
617 18.6692 29.8833 2.30833 -0.776397 0.357966 -2.75994
657 12.8056 33.489 2.32682 0.281938 -0.832279 0.211593
2766 44.5683 35.4772 1.9306 -1.61461 1.03237 0.308046
2288 22.8855 1.12592 3.39674 -0.604233 0.565189 -0.950842
1814 30.0172 2.25021 3.18544 0.889141 -1.66398 -1.03371
3328 7.37355 4.07061 3.97663 1.09943 1.98472 0.722958
468 28.2632 3.27623 3.1907 -1.9168 -0.0464678 -0.0547754
100 2.17825 4.75246 3.22998 -0.0744084 -1.74699 -0.708599
625 16.8638 6.88378 3.80709 1.07055 0.862583 2.02352
1828 33.7067 6.06031 3.61302 -0.588095 1.55251 -0.739211
1481 4.40977 7.4297 4.17957 -0.707856 0.111827 0.061607
1928 36.5122 7.9248 3.63414 -0.804978 -0.0559744 -0.235065
672 0.459886 9.66293 3.18337 -0.0113109 0.211647 -0.289841
3017 26.4306 8.54613 4.12356 0.509514 -0.67041 1.35557
2032 5.58292 10.493 3.40685 0.772465 0.0152148 -0.549623
3395 60.8039 10.5229 3.29092 2.02475 -1.06682 -1.04989
989 68.7604 12.2671 4.1174 -1.07749 1.16389 -0.17252
1293 26.7925 13.7012 3.80488 0.579174 0.584649 1.37896
377 48.605 14.0664 3.35812 -0.474398 0.584032 0.760054
924 47.8971 16.0243 3.22542 0.704383 -0.493995 -1.19858
2770 55.8943 16.9734 3.83654 -0.328461 -0.545823 -0.0892375
90 23.0175 17.9499 2.97261 0.406695 0.550062 0.932131
1091 3.05517 19.7851 3.58885 -0.888077 1.40855 0.826548
3566 23.2836 20.6848 3.58194 -1.55184 0.0633319 1.18112
3691 19.8026 23.5864 3.02128 -1.84496 -0.842927 -2.55745
342 22.86 23.9046 3.04274 1.57624 0.289291 1.89717
2757 32.9671 23.2326 3.37751 0.21555 2.35131 0.887694
997 69.4515 24.4298 3.90252 -1.40316 1.49519 -0.452051
2141 42.6264 25.5839 3.54936 1.48126 0.852532 1.02057
3156 0.177952 27.8813 3.64029 0.340091 0.818611 -1.52439
698 44.7757 27.1365 2.84682 0.65442 -0.053457 0.124421
1099 62.5013 27.3595 2.87296 -0.426725 -0.725874 -0.556868
535 70.7473 29.5032 3.2923 -0.105237 0.984713 -0.169345
1384 72.0844 29.4137 3.42955 1.31371 0.490895 -0.86444
432 14.22 30.0195 3.91663 0.401223 0.674439 0.884762
3839 16.6547 30.8146 3.70324 -0.126865 -0.324127 0.638732
436 56.3299 31.2296 3.64209 1.91257 0.736503 1.12562
25 60.0462 33.6624 2.9035 -1.39077 -0.37122 -1.00612
3688 19.9343 35.3662 2.88239 -0.0705919 1.12887 0.737823
3993 39.1463 35.1827 3.90132 0.29157 0.0856611 -1.03588
3423 54.3419 34.338 3.93154 -0.17095 -0.384837 0.136626
676 55.8398 34.6496 3.98759 -0.116566 -0.902079 -0.401043
3390 4.80521 0.65686 5.634 0.169945 0.312572 1.38571
2668 12.8136 0.152695 4.97849 0.765559 -0.146472 -0.374777
962 39.9054 1.41678 5.08214 -0.691382 -0.937867 -0.271988
490 61.8283 0.481523 5.09044 0.918591 0.656077 -0.0021676
1098 73.6757 1.1035 4.26992 -1.29208 0.381429 -1.14604
2927 70.9348 1.62467 4.81264 -1.86238 1.70404 1.05509
2570 2.84128 3.71534 4.27563 0.462478 0.511955 -0.465386
3942 8.25761 4.11341 4.79849 1.8454 -0.564874 -0.369385
107 34.0463 3.6319 4.85545 -0.901296 -1.0514 0.353829
3365 37.6214 5.51746 4.71804 0.158816 0.892656 0.0508344
1706 28.8455 6.98626 5.42466 -0.091779 0.162246 -0.115454
3315 29.8375 6.94268 4.90084 -0.0187075 1.58674 -0.74635
1153 30.8954 6.9744 5.08486 0.482543 -0.363818 0.183827
280 16.4156 8.48378 4.30234 0.261096 -0.392075 -0.431868
1217 4.99955 8.87253 5.62899 0.807855 0.228136 0.0624953
1791 37.8612 9.13298 5.57349 0.383658 -0.327777 0.223451
2632 7.69958 12.1565 4.48848 0.0685114 -0.857345 -2.71878
183 41.1157 12.0681 5.66537 -1.27436 1.04794 1.231
2201 66.3498 12.5747 5.11012 1.07688 0.337093 0.991341
2466 9.19621 13.3038 4.98113 0.357361 0.723125 0.263249
1941 17.693 14.0652 5.29998 -0.538182 1.76067 -1.20897
3170 41.1659 15.8565 5.59857 -1.41947 -0.702714 0.710048
1428 11.0222 17.9881 4.4312 -0.267479 0.38108 -0.392856
2516 18.8431 18.0339 4.59239 0.200206 -0.266178 -0.229037
733 46.6906 18.1276 5.30692 -0.729481 -1.37374 -0.812721
1630 52.0994 18.1629 4.62226 -0.80531 0.0514704 0.497296
2135 32.2434 19.5782 4.27482 1.10463 0.103142 1.53875
3935 40.9244 19.2558 5.17644 -1.31623 -0.0657326 -2.30989
3310 48.848 20.2405 4.52745 1.32767 0.529297 -0.167171
2897 53.6649 22.1977 5.25007 1.45575 2.25195 -0.799857
322 5.50412 23.0924 5.09549 -1.05452 -0.0284392 -0.583211
801 47.732 24.5622 4.80193 0.526828 -0.679693 0.39812
2587 1.53626 27.398 4.39502 -0.0861768 -0.832757 1.10593
2285 2.89047 27.2744 4.67194 -0.345275 1.60247 0.0903127
3443 5.61481 27.0562 4.83722 -1.69552 -0.493425 -0.150305
2475 47.5047 29.236 4.91474 -0.925304 -1.10614 0.11273
3970 7.60926 31.0417 4.3336 -0.030666 -1.59491 -0.328725
2478 58.8753 30.7632 5.50996 0.492665 1.43741 -0.580931
3533 2.62986 31.5436 5.08053 1.62758 0.432883 -1.63942
3 10.588 31.2822 5.51845 0.292926 -0.392041 0.198001
1236 15.7462 31.3823 5.39277 -0.313402 -0.666916 -0.460792
3586 29.8783 33.5133 4.92905 0.969956 -0.717891 -1.26374
2436 33.4733 34.338 5.33795 -1.34919 -1.98959 -0.143277
2866 29.8056 36.3954 4.85104 -0.917831 -0.266035 -0.44571
1840 27.1062 0.647587 6.41242 -0.217863 0.182307 -0.570331
2870 14.1738 1.90279 6.93196 0.647995 -1.7577 1.06368
235 15.664 3.36908 6.84432 0.427256 -0.85959 0.757959
1862 23.308 4.97735 5.75776 0.429199 0.739578 -0.371672
3111 59.4948 4.62821 6.30525 -0.0595698 1.81415 -0.524577
875 68.2038 7.00721 6.75845 0.0350708 1.38165 0.65524
1005 35.5525 10.6919 7.00958 -0.210781 1.06491 0.187095
1562 41.6125 10.2094 5.73519 -1.81294 0.371713 -0.18012
3149 2.80453 12.1323 6.3725 0.158834 -0.285618 -0.308467
1613 29.6187 13.1458 5.67862 -2.03646 -0.590243 2.02485
2963 57.7931 13.4859 6.48563 0.206142 -0.169195 0.938595
2244 13.1813 15.1749 6.88386 1.20828 -0.794852 -0.94015
405 28.2078 16.7962 6.76792 -0.909413 0.813564 -2.07658
3286 4.88952 17.922 7.08037 -0.787536 -0.0237325 0.451707
3605 59.7342 17.6739 6.28635 -0.11083 -0.0752091 0.681026
1776 69.4449 18.2081 5.8195 -1.13658 -0.702055 -2.14337
2055 39.8652 18.712 6.53351 0.490008 0.62742 -2.17526
1491 49.3264 19.5406 7.04754 -1.21902 -0.770243 1.96731
1228 12.5878 21.205 6.08093 -0.700627 1.98362 -0.95011
401 3.86065 22.485 6.66011 0.0276723 1.48284 0.707247
3184 4.53339 21.7414 6.89813 -1.71729 0.464709 -0.655667
667 44.1295 22.5626 5.69232 -1.22548 -1.11941 -2.12757
2923 56.0005 22.4187 6.79092 0.444436 2.03746 -0.106955
69 68.6438 21.6437 6.06433 1.2513 0.0203785 0.623191
3696 35.5816 24.0318 6.46482 0.402178 0.21832 -0.0882358
2049 42.2926 23.7741 6.27422 0.910214 -0.755787 -0.311174
2222 44.668 23.0664 6.61342 -0.676607 0.800588 -0.589557
1235 27.6882 28.0785 6.75233 0.274177 0.866776 -0.119388
1370 46.5095 27.0646 6.63315 0.986653 -0.404684 0.402129
454 72.7157 27.1498 5.98671 1.43212 -2.45832 0.464606
2687 4.61793 29.4612 6.67059 0.427141 1.03787 -0.437707
2554 52.717 28.9928 6.22734 1.03726 1.25616 -1.40997
2022 16.2698 30.9281 6.26537 0.692141 1.54823 -1.10489
3192 18.6535 31.4717 6.79963 -0.972866 0.29087 0.28195
2990 24.2506 33.7801 5.91702 0.0542421 -1.09998 2.23665
2717 44.6331 33.4965 6.87008 -1.63539 -0.491501 0.0321494
3651 65.6537 35.3869 6.76288 0.724593 1.13429 -0.874349
3086 18.5762 35.6812 6.35958 -0.842098 0.211347 -0.689999
3483 52.3692 36.3663 5.97585 2.03358 0.291732 -2.08695
1480 58.6196 35.8203 5.85868 -0.986839 0.841581 0.25162
1519 60.5776 1.86819 7.81669 0.336642 0.205201 0.759895
2067 18.3212 3.62983 7.11328 -0.738671 -1.64323 0.476516
1978 18.6403 3.8433 8.19144 -0.832957 -0.107055 -1.07767
1621 42.1665 4.2454 7.55368 0.152806 0.862427 1.3729
463 47.8197 4.41106 7.64801 -0.526303 -1.10214 -0.922426
3515 49.5203 4.99345 7.58474 -0.561379 1.31272 0.320526
1954 34.2609 7.02612 8.48182 1.20351 -1.66687 0.985608
2136 48.6373 6.2899 8.2348 0.371161 -0.043425 -1.29597
2709 32.8336 8.33133 7.64651 1.00583 0.796302 0.0785545
1993 46.7444 7.1487 7.95573 0.515507 -0.73075 0.283737
912 21.5319 8.62452 8.34045 -1.33057 -0.981539 1.8313
376 31.9611 8.64861 8.23119 -1.00437 -1.82335 1.75077
2145 40.6816 8.87564 8.24729 0.650104 2.50033 0.198334
254 60.806 10.8734 7.60533 0.0887291 0.261598 1.37908
3117 42.5343 11.3687 7.24835 1.06331 -0.959113 -0.573942
1973 60.826 12.1764 7.97405 0.531994 -0.498615 -0.233788
236 62.7668 11.5303 8.31533 0.0462828 -0.865349 -1.03138
2779 64.9672 12.535 7.93766 -0.595034 -0.875644 0.502931
2858 53.3084 15.5068 7.5411 -1.91656 0.0660943 -0.813744
2214 44.352 15.8038 8.46403 0.977588 -1.33189 -0.57244
2833 46.5618 16.5168 7.34335 0.422416 -0.233115 0.0443726
419 45.4673 16.4961 7.49899 0.810398 2.47196 -1.1657
2871 69.7886 17.9035 8.41273 -0.605537 -0.558825 -0.156651
1012 27.7009 19.2512 7.11926 -0.00652491 -1.84996 1.13215
256 35.7636 19.5452 7.30466 2.09023 -1.1835 1.45146
2188 19.5829 20.0383 7.99679 0.0810106 1.04197 0.495487
3240 4.8973 21.2625 7.82954 -0.743328 0.920112 -1.07108
1810 27.0012 22.5784 8.26801 0.292813 -0.430347 0.129756
2489 2.98081 23.3322 8.15304 -0.969975 -0.70336 -0.521872
1645 11.5542 23.1529 7.65767 -0.0684375 0.251558 1.38107
470 36.0395 23.2201 7.70227 0.649091 -0.260423 0.432086
1024 16.6248 26.8653 8.16091 -0.477761 0.351471 0.734868
2282 18.8456 26.7433 8.39961 0.718836 0.819471 -1.56428
385 44.9362 26.3459 8.2315 -0.701298 -1.28149 0.250065
3695 72.585 25.8604 7.22155 -0.596848 -1.72176 0.368299
3545 13.2743 26.9904 8.42655 1.95029 -0.985871 -0.834868
3090 52.0422 29.6411 7.55375 -0.588816 0.731105 -0.587552
194 23.7589 30.1867 8.01643 -1.26758 -0.40186 3.29192
3724 33.2201 30.1838 8.31453 -1.05249 0.937978 0.584713
2071 56.8997 29.8832 7.64854 1.13903 -1.53025 -1.10337
1878 62.8141 30.0156 7.81509 0.043362 0.464853 -0.643818
606 73.2745 30.2025 7.95395 0.128631 -0.289689 -0.148429
1100 7.89035 31.4084 7.39807 0.738972 -0.0560121 0.198252
61 15.3135 31.5597 7.33204 0.268888 -0.700535 0.332837
3404 19.176 32.3793 7.12206 -1.42263 -0.147773 -1.22455
1598 40.3996 32.1657 8.03095 -0.0896117 -0.0741767 0.909295
701 58.9825 32.1588 8.47304 -0.813073 -1.04149 0.546637
1195 57.8399 34.9182 8.3333 -0.730028 2.35605 -0.0842619
3684 13.7401 36.1085 8.31522 0.482311 -0.446844 0.520915
2124 66.2915 36.5101 7.96342 0.718113 -0.425659 -0.804119
1291 32.0913 0.0421913 8.88529 0.227122 0.0165018 0.34948
3627 68.7442 0.656289 9.59014 -0.726633 -0.772362 -1.63355
1061 42.9925 1.70997 8.79657 -0.0568291 -0.0910316 -0.607794
1182 71.2587 2.61818 8.74815 0.283849 0.626566 -0.774195
3368 5.08566 3.87302 9.88025 1.05939 -0.338698 -1.14398
3062 48.427 3.49617 9.46934 0.300214 -1.78259 0.758429
1063 68.2539 3.05501 8.74906 0.531117 0.415553 -1.03545
2582 12.6057 5.64146 8.96688 -0.1599 -1.11828 -0.911536
3190 32.84 4.41661 9.64858 1.54651 0.212984 -1.11654
2384 28.1959 5.92236 9.14117 0.405869 -0.343803 0.12541
3314 57.7371 6.77819 8.89239 0.34942 -0.900516 -0.666293
2527 34.2196 7.81332 9.241 0.508979 0.744421 0.224185
3248 6.24358 11.4353 8.6529 -0.284971 0.571782 1.48133
187 39.9903 12.5562 8.56566 -1.03268 0.586523 -0.39033
1294 69.179 12.5843 8.69577 0.62888 -0.819717 1.52372
1774 6.29568 15.6285 9.06656 0.25503 -0.195446 -1.03894
361 43.2363 15.8927 9.51887 -1.12696 0.712687 -0.701186
245 0.839005 17.1484 9.61469 -0.509028 0.0994029 0.655086
840 14.7419 17.8453 8.8873 -0.174329 0.926392 -1.3683
112 12.7306 19.4389 9.00153 -2.15429 0.00659708 0.442789
2860 37.8425 19.2563 8.66226 0.716504 1.27786 -0.542565
2511 46.9661 19.0624 9.65816 -0.432399 -0.0900778 -0.858481
2548 52.8899 18.6731 8.86629 0.303319 0.904129 -0.255897
330 71.256 19.4081 9.76043 -1.6438 0.807382 -0.417508
1594 48.9273 23.7802 8.60051 -0.740771 -0.928615 1.88412
3229 54.3528 22.8036 9.36452 -1.60529 -0.771672 -0.211985
3769 29.1408 25.0672 9.83955 -0.550011 -0.309854 1.6094
527 36.6171 26.598 9.77333 -0.208417 0.375483 -0.534295
2373 7.18932 27.5795 8.87412 -0.897536 0.132865 -0.835551
3124 14.4542 27.4307 9.12623 1.20007 -1.18871 0.32104
2726 38.0983 27.8288 8.60716 0.998414 -0.607624 0.17151
2153 47.6503 27.9853 9.34667 -0.70199 -1.0197 1.63484
147 56.4494 27.1251 8.89877 -1.04851 0.0574899 -0.57309
987 67.1294 28.3833 9.8466 -0.255238 1.79016 1.07885
1164 16.7465 29.8362 9.74986 -0.103221 -0.30617 0.380204
956 13.3409 32.0326 8.84087 0.285744 0.69374 -0.241304
101 51.817 32.9901 9.36531 -1.27511 -1.4895 0.568125
1595 69.0508 34.8666 9.17186 0.313891 0.315427 -0.7162
1942 6.01297 36.5327 9.3043 -0.464053 -0.989174 -0.395717
3386 60.7319 36.1965 8.75911 -0.1937 -1.55524 -0.417634
3953 69 35.9661 9.65221 1.03902 0.287647 -0.3373
3578 55.3394 1.52452 11.3296 1.05894 0.345497 0.0310128
1563 4.74001 5.03432 11.1258 1.08955 -1.19829 1.66002
1759 4.46781 7.48045 11.145 0.894679 -1.29753 -0.0683026
3664 26.383 9.11105 11.2133 0.429514 -0.240204 1.25677
3198 66.8127 8.90452 11.1659 0.699033 -0.513867 -0.471053
563 36.7514 11.14 11.2008 -0.990874 0.161619 -0.0118277
42 72.2687 11.3227 11.0057 -0.672919 -0.123973 0.705887
2065 57.3007 11.4698 10.7518 1.971 -1.27612 0.917543
807 11.0017 13.6939 10.3936 0.144708 0.618091 -0.408567
1134 30.9714 13.1433 10.4663 1.96262 0.263381 0.0418193
3927 42.7028 12.8309 11.1678 0.0454881 1.2518 0.77699
3355 63.7864 13.8415 11.09 1.18125 -1.61497 0.0646302
536 59.2934 15.9065 10.4227 0.139618 -1.08805 -0.887609
237 34.3611 18.1264 10.5002 0.202411 -0.0407107 1.90322
1461 35.8341 19.1899 9.97933 2.04818 -0.647333 -0.354617
1248 69.5646 18.9929 10.9004 0.245648 0.737532 -0.0862019
46 28.8024 21.7662 11.288 0.680519 -1.1252 2.66939
308 12.4676 23.3143 10.2269 -0.357849 0.372392 -0.637014
3589 11.5914 23.8021 11.0979 0.691406 0.159913 0.305495
2597 27.7794 23.1265 10.6425 0.0968401 -1.01565 0.342504
1387 30.4732 23.9892 10.0205 0.761254 1.29316 -1.2643
506 9.36087 25.8044 10.5829 0.627324 -0.523977 1.11323
822 62.7013 26.3491 10.9008 -0.225654 1.30083 -0.934733
3053 12.6879 27.8896 10.1475 -2.00282 0.342749 1.2691
3022 17.8159 27.5103 9.9408 0.939896 -0.653533 0.12722
1554 18.9697 27.8778 10.3595 1.0685 1.42508 -1.09119
914 57.8975 28.9699 11.1134 -1.09005 0.740995 -1.42743
3301 50.1662 30.966 11.2172 1.22096 0.500856 -0.985286
964 33.7408 33.2829 10.5299 0.512807 -0.725993 1.5417
1910 42.1408 33.2485 10.4611 1.22971 -1.59336 1.28591
2592 54.8699 33.3203 10.0985 0.27851 -1.84535 -0.493503
2517 61.7993 33.8305 10.1094 -1.56757 -0.281882 0.962439
1656 62.5768 33.919 11.3033 0.689256 -0.235196 0.225119
2060 15.7147 34.7325 10.705 -0.246035 -0.626187 -1.0193
2563 34.2962 34.5184 10.4185 0.144356 -0.653979 0.35078
2095 54.8961 34.3497 10.8156 0.530166 -1.27151 1.89551
2545 0.919317 36.1961 10.5378 -2.82259 0.473046 1.29758
1675 4.17873 2.4375 11.7321 0.262321 2.16043 -0.556115
803 41.6985 2.6748 12.7385 -1.93639 -1.31267 0.885774
2791 4.74858 3.49046 11.3469 2.13641 -0.652389 1.46468
185 32.8229 3.32359 12.2883 0.192328 -0.515637 -0.493556
620 43.6914 4.07087 12.7361 -0.119051 -0.127892 0.0378548
1484 13.2104 5.67944 12.1427 -1.53212 0.163343 -0.864993
2817 41.4161 8.55376 12.5074 -1.73843 0.204721 0.312927
3366 61.6847 9.8546 11.4396 1.27341 0.8583 -0.24155
1320 70.4995 9.29078 11.5979 0.0410141 1.57737 -0.706608
1825 58.8279 10.4003 12.0961 1.07586 1.58357 -1.10808
3296 70.938 10.3971 11.9597 -0.632214 0.179074 -1.59666
1427 21.4501 11.7516 12.0057 -0.976546 -0.965543 -0.609251
745 36.5767 12.3426 11.5431 -1.15452 0.19288 -1.16054
420 8.36146 13.0865 12.6539 0.827035 1.19562 -0.290949
3875 40.9827 14.6138 11.8045 -0.0887851 -0.505634 0.0701557
1824 52.8034 15.1374 12.7022 1.46341 0.725059 -0.884443
1250 60.2641 14.3283 11.4875 -0.596789 0.332833 0.586815
2803 39.2142 15.6801 12.2419 -0.120661 -0.710927 0.331537
1747 63.661 17.8786 11.6858 2.91702 -0.0257481 1.28992
690 2.74376 19.6614 11.7968 -0.00778099 0.666466 0.245066
248 17.7596 19.3633 12.1476 -2.7781 -0.899247 -0.598605
3681 53.7598 18.979 11.7098 -0.36799 0.670597 -0.519591
387 58.0518 18.4787 12.2155 0.536853 -2.05344 0.88475
3487 63.4471 19.7303 11.693 0.864707 -0.0952387 -0.120131
705 28.1013 19.9393 12.4006 -0.524179 -0.885927 0.461201
1659 40.9818 20.3637 11.9672 2.27332 -1.08751 0.55032
1458 14.6178 21.26 11.5605 1.11322 0.45256 1.56739
1927 29.361 23.5683 12.5829 -1.9526 -0.692153 0.136061
216 40.2042 23.0903 12.1856 -1.6303 -0.567933 0.0179356
2488 0.335799 25.7666 12.5681 -0.284764 -0.210791 0.378285
1990 71.3857 25.9507 11.4017 -1.45824 0.865172 -0.00931676
2190 18.017 27.8026 11.7942 -0.401788 -0.7575 0.181524
3592 19.1631 27.0298 11.6072 0.200784 -0.389693 -0.576914
3852 37.3442 27.6363 11.5289 0.652196 1.4599 -1.6028
3460 65.5935 29.51 11.4544 0.170097 1.39731 1.65455
3105 5.69327 30.8962 12.5881 0.380926 0.221948 2.01527
3455 59.9661 31.0739 11.7316 -1.72641 -0.62656 1.31318
2832 18.6709 31.8151 12.34 -2.45702 0.912294 -1.06163
3121 62.6719 32.2878 12.079 -1.03556 1.5399 -1.88878
3569 15.9948 33.785 12.4744 -0.948039 0.505667 0.312811
2301 31.9776 32.6533 11.6712 0.315093 1.35667 0.230245
85 33.0287 32.7957 11.6828 0.831681 0.224548 0.517601
1705 40.38 33.2253 12.0615 -1.33566 1.25101 0.493478
3922 17.024 34.8232 12.1575 -0.710972 0.839777 -0.399962
1831 21.6151 35.3967 11.6444 -1.02813 0.519904 -0.470042
177 33.6213 35.1394 11.7758 1.16107 0.0376612 2.01735
2376 9.37095 35.4878 12.3986 0.485833 -0.161952 -0.848018
1104 26.0309 35.7595 11.4765 -0.31066 1.45586 -0.833322
2091 43.5263 35.8594 12.5099 -0.663223 -1.68955 -1.52822
3294 64.5176 36.095 12.1714 0.994601 -1.71718 1.16713
2640 65.6592 36.499 12.3135 1.44187 -0.671177 -0.861646
3526 49.3184 0.19431 13.1288 -0.521993 0.426677 -0.053923
1610 37.9429 2.52319 13.3842 -0.607746 0.735682 0.656896
1912 61.5519 1.93024 13.3409 -0.704792 -0.0364173 0.396262
1106 69.8128 1.47299 13.4872 -0.17886 0.854564 0.932106
910 70.7792 2.50328 13.3478 -1.18408 1.20806 -1.37978
2847 25.669 5.38601 13.3324 -0.875788 0.531428 0.74575
3367 38.5195 5.54433 13.9294 0.496449 -0.107373 1.7421
1625 17.4161 6.14085 13.7015 -0.323085 0.929596 0.292503
665 22.5908 7.42507 13.207 0.690571 0.553926 0.0982841
2520 40.5541 12.3682 13.6158 0.636568 2.41357 -0.389542
3971 17.5888 13.8262 13.497 -0.348983 -0.91394 -0.066995
1832 22.75 13.2704 14.0599 -0.453169 -0.625764 0.138258
1068 5.18024 14.6909 13.0288 -0.377074 -0.945051 -2.49298
1193 70.2459 14.912 13.4941 -0.381756 -1.34452 0.744488
1827 10.7171 16.8748 13.0483 0.698424 0.466665 0.769602
1446 71.1005 15.9712 13.9875 -0.955751 1.58322 1.04448
329 23.2742 18.4112 13.7424 -0.563834 0.263329 -0.163763
2589 22.9595 19.4911 13.2633 0.536626 -0.410621 -0.481549
2918 71.6109 19.6613 14.1626 0.562597 -0.425009 -0.239741
1056 28.6535 20.981 12.9197 -1.36873 1.78693 0.0482641
2584 42.2321 21.2171 13.1923 0.359009 2.34157 1.34929
3872 55.8899 21.2155 13.9779 0.685185 -0.423715 -2.79191
666 0.41705 21.7228 13.9637 -0.796782 -1.92589 -0.978288
1362 9.4391 22.7207 14.0189 3.19187 0.460168 0.845715
2114 72.6256 22.6793 13.5743 -0.40581 1.87728 -0.144118
2621 35.4683 25.0882 13.46 -0.7313 1.00461 -1.75303
1592 59.0547 24.9879 13.1214 -0.173737 -0.637977 0.426843
1622 22.0128 25.8477 13.0943 -0.548773 0.238097 0.00866798
1525 38.3292 27.9584 13.1223 1.17217 0.357984 1.78546
78 70.0689 28.2656 13.2841 -1.33251 -1.3849 -1.55619
1160 71.6378 27.2771 13.505 -1.86854 -2.49157 2.58117
486 12.8418 31.5812 13.2511 1.15023 -1.27104 -0.0866865
969 22.7899 31.2352 13.3159 -0.155346 -1.55189 1.9297
2613 33.9981 31.4678 12.7877 1.23627 0.659064 -0.70269
1361 48.5665 31.554 13.4408 -0.789767 0.436745 0.445322
1242 67.5472 31.5953 14.1607 0.19828 -1.53303 -0.0631236
3710 20.5813 32.6144 13.4508 -1.603 -0.606381 0.161877
2768 25.5577 32.7429 13.434 0.352182 2.27002 -0.0381796
1368 58.809 33.0964 13.3771 -0.985114 0.699958 -2.54074
2500 15.778 34.3179 13.412 1.01601 -0.0176714 2.25473
1268 38.9734 34.2929 13.0185 1.30352 -1.65822 1.39975
2505 28.5701 36.8151 13.7346 0.10917 -1.36872 -0.444665
1650 70.2126 36.0405 12.957 -1.39791 -1.29841 0.254096
2299 11.2099 0.166853 15.3317 0.40984 1.76149 0.135048
155 36.4772 0.667641 14.7885 -1.2841 -1.20845 -1.9959
3230 24.2344 2.17937 15.0924 -1.87182 0.68085 -1.25822
2072 35.0819 3.51821 14.2604 -0.458482 -0.16013 0.332522
1853 14.4003 4.70006 14.3864 -1.31002 0.17035 -0.520222
2252 27.2355 5.42783 14.6078 -0.916795 1.08085 -0.44092
917 29.0327 5.51702 14.7763 2.70392 -0.489903 2.08988
310 70.6346 5.52957 14.6237 0.500288 -0.104873 2.69629
2904 34.8071 7.50585 14.807 1.59935 -0.437436 0.749673
2291 7.3412 9.36858 14.7617 0.524138 -0.715889 1.36297
2005 62.6351 9.6861 15.5048 -0.834855 0.172054 0.179715
15 11.4032 12.4508 14.5679 -0.962324 1.26437 -0.637545
2334 32.8522 12.1264 15.0875 -0.930263 0.257173 0.137328
1593 8.41434 18.3259 14.3974 1.66412 -0.507989 0.96497
2180 38.0547 18.5859 14.975 0.741456 -0.690265 1.09245
2040 9.91746 21.3021 14.334 1.53817 -1.28252 -0.23529
3968 35.7647 21.9114 14.2686 -0.677388 -0.5198 -0.971011
547 42.3325 23.2223 14.3738 1.66407 -0.345198 -1.42606
456 57.8943 22.7414 14.7666 -1.85591 -2.241 1.19411
2952 50.7642 26.4693 14.2875 0.820564 -1.70968 0.519462
577 56.8224 26.6085 14.7781 0.969049 -0.907115 0.307191
2327 50.0514 27.5617 14.3164 -1.13829 1.42379 -0.501168
2795 60.2831 27.4149 14.4056 -0.512073 -0.923552 0.428084
968 28.8717 29.6954 15.4571 1.69168 -1.83361 0.0316921
1692 20.026 32.3434 14.4885 -0.132327 -1.30056 0.759692
1899 44.0765 33.0372 14.6018 -1.42378 0.967288 0.138885
3041 68.217 33.3396 14.8289 0.194932 -0.729026 0.0482199
3884 39.1112 34.9001 14.9404 0.890888 0.379425 0.266654
2569 59.5659 1.21806 16.7383 1.54474 1.19061 -0.246666
3465 69.6437 0.373621 16.9131 -1.26572 -1.12041 -1.81286
283 19.6668 2.13377 16.9222 1.98674 0.223015 0.235113
14 38.2279 2.19269 16.4587 0.0449343 -0.633545 0.186159
742 45.0394 1.7384 16.7713 0.365889 -0.0658153 0.955435
2130 50.4007 1.56838 16.6028 0.475823 -0.584684 -0.933507
1445 57.3334 4.10599 16.6715 -1.27766 1.91159 0.74516
1032 12.9492 5.18627 15.9856 0.0891433 0.726416 -0.641499
3273 14.4992 4.45956 16.2353 0.194654 -0.230035 -1.27456
3264 21.7024 4.77763 15.8559 -0.918263 -1.24131 -1.15643
2580 22.791 5.25648 15.7677 1.60638 -0.253093 -1.93206
2961 0.990837 6.80447 16.5193 -0.817309 -0.53737 0.517479
1176 2.59191 8.63137 16.5555 -0.579627 1.03404 -0.595089
3870 41.8276 10.4567 15.696 -0.603037 -0.516484 0.556471
2992 46.9147 10.8538 16.7292 0.787764 2.76998 -1.74432
1769 53.2033 11.4841 15.7856 0.433178 -2.01278 -0.0205145
3222 38.6352 13.8394 15.957 -0.030297 -0.576686 0.427262
1118 51.0252 12.7807 15.8742 -0.275163 2.02438 -0.50902
2646 38.1327 18.2473 16.1993 -0.38513 -1.38007 -0.532997
3840 53.4535 17.4733 16.6437 0.867906 -0.937425 -0.770451
3245 66.6277 19.3534 16.317 -1.22446 -0.0496527 -0.715201
629 65.1982 20.6088 16.9074 0.74577 1.29666 0.851252
3730 64.2623 22.551 16.3762 -0.861819 -0.592784 0.850377
313 72.4139 22.556 15.591 -1.33837 -0.421074 -0.395966
942 20.4598 23.7366 16.7897 -0.76422 1.24435 1.53559
1141 11.3019 24.2744 16.1112 -0.104315 1.16847 -1.0854
796 8.46737 26.2499 16.9624 -0.46076 1.60559 -1.31257
2667 28.072 28.075 16.8988 -0.694606 0.0987204 1.0876
3485 51.6826 28.9952 15.9092 -1.65189 0.176259 0.162256
435 68.4992 29.4904 15.6377 0.611576 0.3994 0.0771129
6 18.4676 32.4363 16.4018 0.840248 -0.508003 -1.45707
2901 35.8019 31.235 16.7561 0.151823 1.85201 1.39981
3985 45.4749 33.0735 16.405 2.2415 -2.7549 0.553052
2160 59.0952 33.5075 15.6513 -1.16422 -0.435023 0.182789
2210 7.81866 34.7657 16.0318 0.481907 0.0361982 -0.425576
1841 37.9203 35.0568 15.7721 1.80764 1.00813 1.04845
2501 45.7935 34.2531 16.1652 -1.54678 -2.45803 -1.21674
215 48.4111 34.7403 16.1266 0.911074 0.486162 -0.967378
3242 32.3474 1.93564 17.1224 0.222955 0.74 0.643485
3921 48.1171 1.61013 18.0359 -0.170451 0.16133 0.421074
2636 46.002 4.17967 17.143 0.827141 0.712819 -0.442902
2290 58.6915 3.3472 17.7039 0.384538 -0.776924 0.572289
1631 59.5975 3.22207 17.0333 0.429644 -1.36891 0.604609
3631 71.905 3.30074 18.1275 0.18653 -0.943682 0.27332
2079 10.3468 5.06081 18.1471 0.564635 1.21863 -0.703394
1618 12.8512 5.93537 18.2679 -0.116519 -0.166603 0.268572
2702 46.9407 6.49179 17.3455 -0.478129 0.0402027 1.53409
756 9.33739 7.34293 17.852 0.252034 0.180106 -0.784895
888 43.9885 8.25379 17.1847 0.551698 -0.994898 -0.162389
2238 71.4228 7.25086 17.5443 0.728583 0.054911 0.567572
482 28.0621 9.8111 17.1606 0.0693584 0.341685 0.233568
1888 2.30034 14.8662 17.8184 -2.00131 -0.364456 -0.412576
1782 21.4787 14.5794 17.2602 1.33225 -0.550223 -0.185703
3683 22.9207 16.7945 18.0599 -0.0615592 -0.202591 1.00187
1753 36.7245 16.2211 17.2655 1.46762 -0.326317 0.141347
502 41.2457 16.5005 17.7726 2.01895 -0.0193787 -0.0948079
3725 54.3851 15.9469 17.6575 0.930422 -1.52614 0.491986
545 11.5238 18.8164 17.6162 0.663072 0.422304 -0.371233
2154 21.8727 20.5118 18.0881 0.765581 1.90165 0.362505
3270 39.8503 21.2268 18.0992 1.28236 0.0763841 -0.466964
1041 68.392 20.3886 17.5702 -0.863662 0.331566 -0.474652
3947 64.7667 22.1734 18.3418 -1.05315 1.06134 1.62556
3152 4.37636 23.8092 17.2684 0.511435 -0.130561 -0.680547
2447 30.2466 23.0197 18.3456 -0.346748 0.801684 -0.316429
3372 7.02312 25.6839 17.8494 -0.334772 -1.38862 1.30671
637 13.07 29.1917 17.7644 1.73531 -0.9769 -0.500058
1688 21.5502 33.2283 17.4804 0.266208 -0.836622 -1.32057
2249 0.137549 34.4959 17.8857 1.34753 -0.520277 -0.736699
239 22.5482 34.8498 18.2186 -1.22344 1.73829 -0.106124
3307 42.8207 2.39607 19.6852 0.816921 -0.724833 -1.7418
3254 45.3044 1.7918 18.8623 -0.0923814 0.870204 -2.00002
2999 56.2757 2.33396 18.8065 0.722737 -0.479442 2.13186
1346 21.4749 3.02102 19.1715 1.66236 -1.16462 0.914988
267 43.8492 5.47296 18.8446 0.58291 0.0256096 -2.04455
1181 12.5314 6.57111 19.1848 1.18724 -2.00802 -0.667869
3073 43.5758 8.20788 19.3411 1.46281 -1.21774 1.57597
1452 44.8575 8.31326 19.163 0.538975 1.67332 -0.676343
1334 14.1446 9.73287 19.1688 -2.23547 -0.106258 -0.967941
2650 1.1509 11.1621 18.4654 -1.93531 -1.29976 0.422279
3757 3.11773 10.0577 19.6282 -0.380476 -0.887652 0.70702
3541 54.479 10.5265 19.4881 -0.46596 0.108087 -0.692301
3215 27.3831 12.9494 19.2679 -0.327106 0.311309 -0.870999
2845 28.494 13.6738 19.6436 -0.154959 -0.789032 1.34252
3212 67.7469 12.8585 19.378 -0.0136967 0.619665 0.329346
3838 64.7025 14.7564 18.9836 -1.07586 -0.522578 0.690132
2868 52.3105 18.2098 18.6708 -0.600037 0.447421 -0.401521
3666 25.253 22.097 18.8897 -0.224365 -1.22641 0.282543
1090 46.4032 21.9387 18.5244 0.216708 0.196359 -0.241422
767 65.4337 22.378 19.4016 0.809036 0.446651 -0.75972
3060 19.3458 24.4905 19.1574 -1.25893 0.0367023 1.06279
1881 41.866 24.8243 19.7955 0.66898 -0.812013 -0.466101
2101 64.4056 24.836 19.58 -2.15593 0.965695 -1.91076
3205 0.969142 25.8197 18.6008 1.16844 1.16047 -1.89915
1518 7.44333 26.6171 19.1583 -0.917882 -0.484059 -0.187303
2814 26.0203 27.3426 18.7358 0.00686051 0.01473 0.295332
1311 38.6707 27.5036 19.7905 0.98025 -0.486299 -0.319557
1889 67.619 27.6316 19.6601 1.22169 0.607396 -0.417357
3464 37.257 29.927 19.7959 0.396549 0.626154 -0.30618
1619 56.2686 31.9533 18.4322 0.846725 2.82966 -0.0984432