ITEM: TIMESTEP
54000
ITEM: NUMBER OF ATOMS
4000
ITEM: BOX BOUNDS pp pp pp
0.0000000000000000e+00 7.3680629972807722e+01
0.0000000000000000e+00 7.3680629972807722e+01
0.0000000000000000e+00 7.3680629972807722e+01
ITEM: ATOMS id x y z vx vy vz
3503 12.6096 0.758809 0.411745 -2.87568 0.28108 0.0555381
1397 15.1308 3.42832 0.848062 -0.374474 1.1531 -0.613607
3390 2.8385 4.68386 0.43095 0.729351 -0.746471 0.738207
183 48.3907 5.50945 0.684618 -1.48599 1.34322 0.949311
310 68.1297 6.1675 1.18629 0.492963 -0.34053 2.56509
3061 68.6789 8.29965 0.2843 0.473034 1.88016 -1.31206
2201 60.9621 10.8922 0.159676 1.0883 0.325319 0.96804
595 9.45102 12.8546 1.33702 0.971919 0.980881 0.4727
1661 10.5678 13.2075 0.970954 -0.105539 0.00715981 -1.82006
63 10.1343 15.3533 0.481818 -0.615842 1.50114 -1.06888
1102 57.0112 16.3108 0.593395 -0.765468 -1.38035 0.049637
2881 27.7437 19.8066 0.423794 -1.01975 -0.367339 0.126475
376 34.2122 18.5136 1.40597 -0.507871 -1.97761 1.36269
3732 65.2598 18.9947 0.940101 0.747243 0.333649 0.361178
30 59.5114 20.8342 1.02488 0.774768 -1.36191 0.285696
3182 0.864155 21.3464 0.838977 0.287126 -0.0506151 -0.803088
1645 11.8964 21.8951 0.752325 -0.0684375 0.251558 1.38107
131 16.5347 21.8276 0.661322 -0.380448 1.87265 0.0437442
3271 67.4562 22.429 0.968012 -0.0287944 -0.53822 -0.830374
150 73.4761 23.8412 0.632735 0.451022 -1.12278 -0.330919
3743 27.7769 24.5645 0.0687411 -0.521913 1.49955 -0.481946
46 21.3259 25.5478 0.905669 1.81962 -0.049667 1.98943
709 34.631 26.8788 0.0637432 -0.368573 0.474502 -0.0687394
1594 53.2205 27.1393 0.396234 -1.01657 -0.335217 1.13492
1018 29.45 28.4241 0.615504 -0.161928 0.700582 -2.88427
769 48.6518 28.6443 0.27476 0.032796 1.74442 -0.841326
3776 19.0257 30.0881 0.651687 -0.843685 0.338054 -0.530147
2766 52.8046 30.5185 0.457695 -1.97777 0.970292 -0.0905831
312 19.3152 32.0766 0.690125 -0.400794 -0.52517 0.10002
3788 68.7322 31.2945 0.540474 1.08072 0.431473 -1.48361
3185 52.8592 33.3393 0.607716 -1.75339 -0.187163 1.16181
2619 66.4837 33.2654 1.2799 1.98756 -1.03303 -1.43067
3827 13.4055 0.638515 2.61066 -0.706639 1.79324 -1.91044
2464 18.3912 0.899932 1.43961 -0.759126 0.176348 -1.37488
3365 41.1423 1.3204 1.56256 -1.09059 0.798088 0.761329
1465 38.6534 2.19757 1.45541 -0.504867 0.263881 0.441293
2387 27.0956 3.46845 2.16736 -0.556705 -0.66661 -1.211
3942 70.4232 4.00369 2.79337 2.3279 0.0973936 0.428899
3248 7.11993 6.64644 1.6691 -0.0138129 1.47397 1.0238
1982 0.137701 8.59051 1.59456 0.981292 0.472822 -0.78044
235 13.322 8.71894 1.60801 -0.0288676 -1.75068 1.39019
2870 12.8023 10.4496 1.65514 0.0683923 -1.23753 1.00213
542 19.9517 10.3232 1.5486 0.857334 0.924685 -0.638046
3129 21.4171 11.4237 2.45698 1.10822 1.84494 -0.1904
2963 55.6372 12.707 1.60756 0.604897 -0.158329 1.19524
254 60.2594 12.0437 2.09704 0.103155 -0.253992 1.09741
90 23.4213 12.85 1.9224 -0.380901 1.21925 -0.559292
1658 8.23291 14.6662 2.29584 -1.53309 0.250663 -0.275133
3005 30.271 14.4333 2.51466 -1.28693 0.857929 -0.22695
1294 65.7611 16.7006 1.438 0.728081 -0.830303 1.37591
1630 56.126 17.9054 2.13567 -0.806768 0.0541892 0.499862
3885 36.4299 18.798 2.09136 0.995328 1.21967 -0.214098
3170 48.2633 19.37 2.04833 -1.41947 -0.702714 0.710048
2660 27.9581 19.869 2.05257 -0.368097 -0.318324 -0.642702
237 34.5237 21.376 2.38906 -0.0431386 -0.716202 1.57744
69 63.0649 22.0714 2.71988 0.844681 -0.256488 0.634912
2248 15.7884 23.7082 2.32786 -0.907115 -1.26705 -0.850409
1797 52.305 23.0946 2.53218 -0.435847 1.30049 -0.129808
1778 49.3001 25.3309 1.77869 -0.797951 -1.17169 -0.904501
2453 71.0963 24.5166 2.15035 0.403706 0.339121 -0.542787
3769 32.2245 26.2327 1.9683 -0.618537 -0.230516 1.57271
1802 41.9869 25.6895 1.80125 0.114301 0.45449 -0.490283
1201 9.03919 28.0884 2.06598 0.932734 0.146629 -1.57045
698 41.2713 27.4091 1.78904 0.698392 0.0331344 0.277713
801 45.0978 27.9606 2.81133 0.526828 -0.679693 0.39812
1012 27.7566 28.4487 1.43287 -0.0447543 -1.81736 1.16534
3931 37.294 29.6958 2.26218 -0.256804 0.285851 -0.613646
2306 53.481 30.5008 1.51881 -1.0308 -1.60356 0.766175
2500 14.2574 32.3601 2.10269 -1.21883 1.47963 2.94079
3839 18.3062 32.604 1.45756 -0.9417 -0.0821509 0.784155
3181 52.4651 34.8215 2.64422 -0.00895025 0.610799 0.562937
177 26.5638 35.7983 2.28613 1.41884 -0.197961 1.82118
2408 37.8475 36.7165 2.1021 -0.676517 0.685373 1.61106
3640 48.4346 36.7005 2.0441 -0.500818 0.479331 0.284216
2728 65.986 1.35819 3.17651 0.808023 -1.15926 -1.31793
875 68.0027 0.0991321 3.46286 0.104189 1.37131 0.697655
860 7.13582 3.55803 3.02781 -0.483526 0.780382 -0.605629
1828 27.8129 5.70977 3.61343 2.18466 -0.137395 0.347605
2709 28.825 6.4283 4.24449 0.0855419 -0.305686 0.305186
1005 36.9757 6.31614 4.15576 -0.37773 0.192736 1.82951
2588 68.8741 6.60754 3.52824 -1.06639 1.88116 -0.808999
230 3.22838 7.96253 2.96252 1.4297 -1.08287 -1.30248
1481 7.80698 8.01288 4.09209 -0.704096 -0.349876 0.338459
1305 69.6523 8.95734 3.25396 0.527599 -0.0567821 -0.844214
2725 3.99703 11.2099 3.60961 0.256221 -0.546874 -0.946215
2611 72.4457 10.2476 3.62687 0.219538 -0.638039 -1.11649
3454 21.0379 12.2633 3.08935 0.505549 -0.198031 0.589583
2429 16.1085 13.6376 4.2089 0.384977 -1.31679 -0.961266
401 4.98889 15.1141 3.83868 -0.279095 1.49184 0.563052
749 8.32357 15.3154 4.21466 0.575398 -0.637308 -0.230021
1826 42.2793 15.35 3.74103 -0.659889 -1.8042 -0.943311
2127 54.9235 14.6284 3.7643 1.09937 -0.494386 -0.685033
2235 36.8229 17.3455 3.0478 -1.88967 1.36105 -1.80159
3605 60.2883 18.0499 2.88122 -0.11083 -0.0752091 0.681026
1458 9.01484 18.9776 3.69242 1.1712 0.415967 1.53396
2047 16.7192 18.7567 3.95358 -0.55074 -0.674024 -0.67811
2285 2.83441 19.9335 3.65395 0.0253811 1.48396 0.189171
2770 57.7338 21.92 4.05844 -0.361234 -1.13082 -0.0443063
3460 64.7885 22.3973 3.19047 0.22598 1.56458 1.66507
733 49.0547 24.1438 3.88548 -0.341656 -1.09898 0.584913
535 67.8047 24.7801 3.76196 0.584396 0.932333 -0.123375
3105 4.75351 31.1194 3.20993 -0.082187 -0.499868 1.45976
1598 40.1251 32.5101 3.23814 0.766365 0.0289002 1.04862
385 46.9687 31.6527 3.22436 -0.279852 -0.92331 1.20309
3688 24.1236 32.6268 3.53862 -1.33929 0.130875 -0.787527
2115 37.9685 33.9433 3.30907 0.413432 1.18488 2.29056
2153 49.9263 33.8454 3.3038 0.985856 -0.964688 -1.18642
969 23.3302 35.1257 4.00211 -0.093842 1.18795 1.71688
679 14.1425 36.1209 4.0174 -1.41416 0.988128 -0.793029
1412 18.9426 36.6702 3.6041 -0.846734 0.372483 0.303989
3305 30.8941 2.60506 4.65085 -0.760224 0.894417 -1.0031
926 46.6824 3.23845 5.00338 -0.786726 -1.4125 1.33264
1621 47.3218 5.48618 4.41843 -1.69516 -1.22809 -0.175141
989 0.647785 6.53609 4.96764 -1.20927 1.08385 -0.168583
735 24.1205 5.85893 4.66954 0.268517 0.181963 -0.404367
803 47.6797 6.27724 5.01174 -0.974287 -0.452918 1.82962
1839 59.7379 7.33447 5.58641 -1.98129 -1.57528 -2.09552
566 67.1436 8.09764 5.33618 0.299082 0.765708 -0.665757
672 1.01933 9.16152 5.61078 0.368842 0.505288 -0.3222
1791 35.6752 9.89302 4.34044 0.695959 -0.424035 -0.199898
1928 40.3098 9.03236 5.47269 -0.719218 -0.295446 -0.416528
2466 6.13345 10.5128 4.59786 0.524278 0.258595 0.0847427
1723 19.7493 9.97112 5.22341 -0.783239 0.938211 3.22434
3664 24.2355 10.3121 4.92942 0.429514 -0.240204 1.25677
1954 33.3516 12.5803 4.76787 -0.126481 -0.97599 0.85101
1993 45.0432 11.3919 5.44407 0.114382 -0.987019 0.765288
100 72.1442 11.8433 4.47517 1.3052 -0.873763 0.348845
2188 19.0424 14.9572 5.28277 0.131912 0.989495 0.581133
2375 36.6184 16.5698 4.92268 -0.422895 -0.14452 -0.684583
361 48.4799 16.6667 5.02595 -0.891559 -0.817255 1.00171
2779 68.2041 16.8904 5.06436 -0.691172 -0.867309 0.651059
997 2.96859 18.3711 5.1088 -1.44481 0.511749 0.170599
3491 24.3373 18.5027 5.32944 1.24545 0.364569 -0.722204
987 68.2693 19.4726 4.38121 -0.164858 1.76312 1.12904
3525 22.4888 21.8455 4.93872 -0.781773 1.49818 -1.47859
2597 27.8126 24.0413 5.21316 0.304621 -0.101742 1.16323
1525 34.5111 23.532 5.63523 -0.154338 1.11504 0.506296
1024 19.3893 25.1053 4.7942 -0.557923 0.35258 0.668521
506 6.24773 28.167 4.73291 0.598916 -0.449029 1.15656
3124 13.2499 27.7959 5.46742 1.57554 0.50011 -0.660793
2726 32.7939 28.1384 5.12209 0.999169 0.384194 1.11712
3443 14.2975 29.1925 5.48921 -1.98253 0.444355 0.0705688
1099 64.5692 31.0625 5.61251 -0.0957025 -1.06269 -0.267407
1087 18.9395 31.7086 5.34434 -1.21088 -0.535957 -0.478683
321 39.0361 31.4002 5.14155 0.140096 1.02202 -1.32469
1480 63.8467 31.5523 4.71102 -1.41875 1.10018 -0.118467
3 9.12408 33.2439 4.52932 0.292462 -0.392958 0.19744
2475 51.7009 33.5195 4.37996 -0.663457 -0.589458 0.382114
3695 2.13406 34.5732 4.7183 -0.66202 -1.73845 0.482071
2545 13.3079 35.2957 4.72559 -1.03741 -1.30156 0.552461
222 8.14492 35.7907 4.61243 -1.08348 -1.11078 -0.469365
2563 32.6406 36.7679 5.66154 -0.153931 -0.860852 0.27826
1184 34.7381 35.7292 5.27861 0.706213 0.884189 -0.946139
2668 9.48663 0.832974 6.77307 0.641245 -0.133911 -0.358646
2570 0.359539 1.82604 6.10043 0.485896 0.35107 -0.341767
1706 27.6276 2.80936 5.80138 0.387006 0.480955 0.339584
198 16.1104 3.8315 6.19619 -1.96468 -1.1556 0.14991
3315 28.7111 3.98894 6.77404 -0.139703 1.01482 -0.997932
1978 15.6235 4.70694 6.29853 3.14399 -0.898253 0.615981
1153 29.108 4.67651 6.06942 0.883569 0.536265 0.0145404
3367 35.8825 5.29814 6.68901 0.622901 0.702944 0.244213
962 38.6781 5.16128 6.12837 0.615419 -0.661262 -0.175307
3204 15.3581 6.21117 5.7146 -0.511058 0.131777 -1.10703
3388 47.8228 6.94502 6.79802 1.16855 2.08944 -0.791522
1217 5.00008 7.48326 6.10104 -0.646795 0.322548 -0.344797
2490 60.6541 7.36379 6.881 0.176934 -0.456237 3.63119
1600 34.4195 9.30893 6.82794 -0.0603344 -1.5882 -1.11814
2291 2.61724 9.96491 6.52995 1.23633 0.204874 1.85117
2032 1.66373 10.3461 6.42863 0.286659 -0.748564 -1.29167
280 15.1708 10.152 6.33345 0.248754 -0.332261 -0.405498
1756 35.6405 10.4087 5.68824 -1.52751 1.05576 -1.05699
917 22.1419 11.5339 5.86917 -0.391421 -2.36713 1.02881
2923 53.7021 12.3646 6.77035 0.534975 1.90763 0.287343
245 3.38283 16.6551 6.33651 -0.502021 0.0774334 0.671194
1428 12.3595 16.0827 6.39548 -0.267479 0.38108 -0.392856
2065 47.4574 18.1099 6.56392 1.94061 -1.38854 0.829772
1747 48.8364 18.2425 5.68972 3.14992 0.0531133 1.14298
2516 17.9775 19.236 5.97402 0.151403 -0.212894 -0.311368
112 23.3256 19.4661 6.68962 -2.05167 -0.101711 0.504549
1091 10.3303 21.2521 6.68523 -1.4059 -0.757925 -0.357132
1333 65.4176 22.2641 6.46787 0.64535 0.145269 -0.993162
3696 32.4254 23.6641 5.76586 1.65649 0.424866 -0.19641
470 33.5674 24.0722 6.26665 0.24797 -0.501944 1.46563
1927 36.3216 24.2179 6.52522 -0.613365 0.613515 2.58666
1100 3.23063 30.3555 5.70863 1.20209 0.665804 0.75376
3565 48.3533 30.122 6.89738 0.0339019 -0.605949 -1.23215
61 13.2357 32.4767 6.53339 0.428753 0.0293604 0.0963672
1656 64.529 32.8623 6.17117 -0.376775 0.810876 0.427012
2025 11.726 36.2695 5.88258 0.854363 0.0402157 0.172557
964 32.3767 36.1635 6.63353 0.76586 0.0331894 1.33873
2717 52.81 35.954 6.70933 -1.63539 -0.491501 0.0321494
119 63.9034 36.798 6.94135 0.29727 0.550821 -0.521478
1862 21.162 1.27946 7.61612 0.429199 0.739578 -0.371672
1010 48.4002 0.0413256 8.13228 -0.535885 -1.90359 1.0567
3515 50.1131 0.0130369 7.54305 -0.0619656 0.379187 -1.77518
3772 24.707 2.31159 7.08775 0.15807 1.97919 2.6458
1563 2.50535 5.33197 7.77261 0.328772 -0.0338892 0.330156
2999 52.662 4.73117 8.14716 0.722737 -0.479442 2.13186
2791 64.3455 5.19953 8.35248 2.86694 -0.29668 0.54138
1788 6.42667 7.03511 7.12133 -1.07854 -2.10916 -1.66375
2527 31.0923 6.50567 7.79436 0.635048 0.2468 0.356695
3927 42.5425 6.1563 7.45653 -0.0165128 1.34032 0.695535
1446 1.97518 8.56879 7.96955 -0.675845 1.3518 1.6831
2584 40.2263 9.13061 8.1611 0.433614 2.43402 0.717668
1562 48.8082 9.82869 7.27862 -0.725662 -0.538724 -0.914432
42 1.74665 11.5873 7.86365 -0.446758 0.0869433 0.744411
1973 58.6247 12.1486 7.8645 0.431517 0.0371953 0.0466866
3368 73.4812 11.8417 7.17213 0.786319 -1.87278 0.614626
3149 1.926 13.3965 7.98478 0.270673 0.0226439 -0.389227
1250 60.6524 13.9401 8.21779 0.281581 -0.108594 0.63918
3286 9.62075 14.7749 7.18005 -1.05655 1.04418 -0.352609
979 40.3141 15.1553 7.85246 -0.782003 1.45649 -1.25579
3744 45.9469 17.6301 8.32746 0.584964 -0.293859 -1.09265
3395 52.0513 17.7753 7.39788 1.44899 -1.67365 -0.936446
2272 3.70124 19.6171 8.2272 0.0707054 0.691186 -1.31362
3396 46.8209 19.1805 8.05073 0.516974 -0.110109 -1.06145
3966 20.9304 20.4371 8.08147 -0.195691 0.708346 -1.92161
359 73.1625 20.0417 8.34224 0.795235 0.216624 -2.36385
322 10.7087 23.181 8.09002 -1.0394 -0.0117455 -0.595342
1195 64.4127 23.4038 8.01756 -1.45749 2.24716 0.0632925
1810 27.3475 25.1129 7.8624 -0.425321 -0.537313 0.189047
2049 38.1044 26.6857 7.41568 0.387431 0.388932 0.211479
3455 62.5686 27.2841 7.25281 0.378995 1.80372 0.509286
1235 28.5621 29.3463 8.20602 -0.571818 -1.03867 -0.464673
387 55.9143 29.07 7.35317 0.271731 -2.09784 1.15002
1370 43.1718 30.1211 8.37296 0.484504 -0.716995 -0.551752
2736 54.7681 31.2265 7.31728 -0.0118978 1.19964 -0.138464
72 4.26554 33.0615 7.25712 -0.60927 1.13442 1.55173
402 30.2225 33.9261 7.60485 -0.670263 1.2931 0.491339
3217 23.6051 36.7155 7.25191 -0.353134 1.80164 1.09826
1221 46.3154 35.7365 8.37785 -0.263438 0.961658 0.350884
2916 70.7265 36.5761 7.59933 0.0817066 1.25035 -0.263234
326 25.2333 0.94906 9.78219 1.22293 -1.09721 -0.752021
3111 55.4281 1.2505 9.22346 1.45603 -0.292445 -0.754915
3208 57.3105 0.458358 9.21253 -0.455561 -0.632494 -0.0178429
688 65.5109 0.418037 9.56841 -0.571596 -0.704906 -1.36347
2859 68.4117 0.267334 9.56428 1.14565 -0.0962014 1.36699
1840 29.7573 1.44225 8.79903 -1.18923 -0.924335 -0.274685
1541 63.5799 3.72241 9.03247 -1.2842 -0.449107 -2.6257
2702 49.1268 6.54218 9.56325 -0.457783 -0.185981 1.46796
2067 23.2601 7.2946 9.481 -1.04559 -0.403597 -0.107412
2384 26.1665 7.64138 8.51412 0.405869 -0.343803 0.12541
187 45.4195 10.5267 9.07039 1.47565 1.91985 0.021018
2897 46.2607 11.0482 9.09676 -1.11725 0.668761 -0.813393
463 48.7711 12.537 9.06488 -0.480455 -2.33957 0.305444
2548 51.2623 13.8318 9.65761 0.304338 1.14632 0.174139
3118 51.9985 13.4656 8.5534 -1.43778 -1.27179 -2.00952
2833 42.6635 15.1956 9.25671 0.676867 0.412107 -0.515496
1827 8.28695 16.6976 8.62402 0.259035 -0.565461 0.956196
942 27.7298 16.4989 9.13539 -1.95158 1.47344 1.39896
924 45.6561 18.5877 8.73572 0.486591 -0.656667 -1.19544
705 30.4454 22.2698 9.04772 -0.473134 -0.329117 0.702333
117 50.2489 22.2407 9.59986 1.61237 -0.761927 -1.52213
2952 55.5207 21.6951 9.23328 -0.993687 0.999802 1.0237
2871 69.958 21.8144 8.86568 0.2873 -1.27749 0.724644
2478 56.2153 23.7216 8.73884 0.640877 1.32639 -0.815565
2687 2.41091 24.2502 8.95166 0.67253 1.0443 -0.838523
667 46.2528 25.1266 9.8397 -0.429599 -0.520636 -0.820856
1659 30.0173 25.9439 9.4884 2.15954 -1.14922 0.476189
1705 47.0932 27.0562 9.49335 -1.33661 1.25216 0.513155
147 62.348 27.1397 9.04742 -1.48139 -0.444953 0.475692
2022 10.6401 29.7016 8.72224 1.09861 0.152633 -0.381071
2301 29.8038 29.5922 9.03835 1.07176 1.01087 0.498957
85 30.4415 28.5428 9.55841 -0.0322778 0.480278 0.513283
3724 38.3852 28.7244 8.7442 -0.515956 -1.08464 -0.980527
1164 16.4355 31.1183 8.73129 0.217346 -0.203249 -0.0275444
1236 20.5821 29.9971 8.66484 -1.16296 0.326993 -0.392565
3533 0.624839 31.3185 8.60543 -0.132648 -0.118077 -0.282998
3404 24.9288 31.7845 8.70023 -1.44002 -0.303717 -0.784177
1327 38.398 33.3852 8.69703 2.07738 1.00113 -0.377508
3086 22.8711 34.6574 9.8095 -0.896811 0.16092 -0.707368
3993 37.7006 34.2502 9.32708 -0.247874 0.764848 -0.917171
641 58.7319 0.399707 10.5545 -0.815342 -0.324843 -2.13273
107 39.7969 2.23117 10.6512 -0.899508 0.502808 -1.63364
1061 43.1314 2.13294 10.9895 0.224814 -0.0356811 0.97086
3366 55.2404 6.1939 11.1589 1.27214 0.28376 1.71084
2817 50.3127 7.27875 11.0546 -1.75877 0.430906 0.379056
2904 26.8103 9.69303 11.0587 1.59935 -0.437436 0.749673
1228 16.2485 11.2925 11.0042 -0.739799 1.98167 -0.992184
1134 21.1583 11.8264 10.2572 1.96262 0.263381 0.0418193
330 3.29492 13.4542 11.2169 -0.585864 1.59343 -0.141183
2136 49.1943 13.4643 10.0978 0.264041 -1.15329 -0.721875
3117 36.9313 15.5976 11.1486 1.05336 -0.801123 -0.84687
1248 70.529 15.9644 11.0802 -0.435558 0.248353 -0.212854
690 5.19692 18.4068 11.2956 -1.04089 -0.204716 -0.0675594
2244 7.33904 18.3827 10.5454 0.732334 -0.491464 -0.215848
3310 43.7775 18.2591 10.7979 0.823248 0.351035 -1.50685
1461 24.3573 19.416 10.3772 2.35072 0.106602 -0.0474726
1727 13.005 20.4184 10.3741 -0.260346 -1.04832 2.1765
2803 40.842 19.8572 10.848 -0.297321 -1.04307 0.200273
1593 73.4794 21.1406 10.3722 1.80237 -0.571442 0.584784
2488 3.6885 22.4093 10.9902 -1.28109 1.01276 0.0688308
308 11.6702 21.975 11.0928 -0.28383 0.343187 -0.715151
3355 57.7664 22.1103 11.0836 1.17604 -1.61036 -0.13744
1776 2.0541 24.9282 10.3826 -1.05677 -1.68718 -1.45771
3090 54.564 25.1865 9.9664 -0.466282 0.928901 -0.481141
2489 7.89607 26.7547 10.619 -0.983332 -0.683988 -0.492472
3229 61.8752 25.8102 10.9002 -1.35488 -0.277177 -0.42242
3485 57.9738 28.1083 11.0928 -0.724588 0.179913 1.51589
1878 62.3898 27.5702 10.8145 0.246124 0.686784 -0.349516
1384 68.6588 28.0287 10.2288 0.710049 0.194353 -1.41545
956 12.1764 28.3847 10.02 0.281643 0.699574 -0.257082
2190 20.9998 28.9484 11.1914 -0.824104 0.0375868 -0.0527863
2040 70.5635 28.6129 11.2509 2.71081 -1.27005 0.93514
3922 18.1564 31.3823 11.3077 -0.336615 0.34381 0.590153
3192 24.8603 31.3112 9.93286 -0.949085 0.460993 -0.157908
24 47.2851 33.6212 11.2835 1.84646 1.05089 -0.335703
456 67.8259 33.5817 10.1854 -1.86676 -2.30321 0.694942
3710 25.0287 34.9331 10.1873 -1.09958 1.09885 0.981983
1152 21.8687 36.5961 10.1976 -0.0913868 0.761818 0.22438
3490 20.9214 0.97741 12.7205 -0.19368 -1.18658 -0.243171
1550 33.883 1.2765 12.1874 0.642056 -0.837411 -0.287598
3609 60.0258 1.30293 12.6251 0.631654 1.28719 1.40051
1912 64.7687 0.744213 11.8934 -0.412398 0.781136 -0.18126
1625 18.8258 1.63994 12.3669 -0.26977 0.883979 0.242707
1360 26.7051 2.51516 12.2544 2.13471 -0.631472 -0.523244
2847 31.1041 2.50226 12.5574 -1.07139 0.941888 -0.47442
2520 38.5599 2.91232 11.4275 0.261386 1.04255 1.61941
665 19.1428 4.66056 12.7061 0.660627 0.530397 0.144716
1941 20.414 5.24408 11.3476 -0.535681 1.79343 -1.24988
3190 24.6494 4.95749 12.6546 1.66055 -0.464057 0.0427445
2072 37.6954 4.25821 12.5852 -0.866389 -0.00197597 0.427408
1631 55.0216 6.10481 12.1849 0.356538 -0.482575 0.210315
807 10.2782 10.6034 12.4364 0.144708 0.618091 -0.408567
3314 55.99 11.2808 12.2238 0.34942 -0.900516 -0.666293
2860 34.4487 12.9069 11.4087 0.633774 1.21855 -0.670922
1759 0.571023 14.1857 11.8653 0.548356 -1.39409 -0.249948
2858 62.9264 15.1004 11.5891 -1.89082 0.157738 -0.925816
2214 39.5794 15.737 12.2511 1.07657 0.555281 0.109487
3240 10.4534 17.745 12.0078 -1.27398 0.445656 -2.0614
3947 70.4614 17.1393 11.7578 -1.17073 1.2675 1.49625
3184 10.065 18.7246 11.5981 -0.486371 0.903051 -0.177302
3487 58.5001 19.4278 12.4371 1.22473 -0.124931 -0.34517
1362 72.8007 18.5511 12.4686 1.85964 0.875943 0.460646
3589 10.7231 22.4771 11.8893 0.602377 0.208566 0.387405
2180 34.9598 21.7157 12.4004 0.608349 -0.626715 0.483059
3152 0.833311 23.1771 11.5769 0.779301 -0.111513 1.93224
3156 1.3543 24.0548 11.3445 -0.788624 1.14362 -0.607429
1622 22.454 22.9443 11.5123 0.650726 1.15133 0.800185
3730 68.733 25.2345 12.5444 -0.896622 -0.53195 0.76019
1990 2.94207 26.5686 11.8352 -0.314268 -0.648399 -0.0325572
216 48.4057 25.8849 12.118 -1.69861 -0.491805 -0.0219416
3592 15.9237 27.1756 11.5852 0.205273 -0.397548 -0.617468
3022 15.9632 28.1845 12.342 1.03199 0.343881 0.638167
2667 31.5895 27.8454 11.4978 -0.702588 -0.00982016 1.06433
527 37.1263 28.4667 11.6312 -0.0164665 -0.682364 -0.238232
1592 58.5649 29.3847 12.4926 0.0391998 -1.03097 -0.380436
3372 11.5401 31.3154 11.8754 -0.841616 -0.0157503 0.842867
3569 19.1968 32.519 11.7808 -0.426047 0.506947 -0.26838
3884 31.8557 31.1926 11.361 0.722378 0.375265 0.368723
1841 31.6652 31.7993 12.5669 1.97987 1.01779 0.989729
2795 62.2405 31.4254 12.0324 -0.344319 -0.732684 0.494844
3953 65.9252 33.4325 11.8786 0.219771 0.261751 -0.629435
3771 57.3426 34.2298 12.4784 -0.488627 0.112013 1.76324
2517 63.7176 35.0734 11.3434 -0.13839 -0.194408 -0.284473
1595 65.3286 34.3148 12.0575 1.12111 0.478079 -0.204818
1692 23.8128 36.8305 12.0867 -0.330591 -1.16793 0.375705
1063 65.5919 0.869179 13.9453 0.619875 0.433862 -0.951831
742 43.4079 2.23765 12.9835 0.0722741 -0.153063 -0.655452
3062 47.5047 2.58656 12.7758 0.169523 0.571593 -0.844229
986 63.2459 1.8917 13.538 0.059209 -0.949412 -0.504381
1814 35.5599 4.62095 12.7685 -1.28753 -0.382068 -1.98091
2290 55.19 6.5225 14.0368 1.57846 -0.177763 -0.222348
2582 13.4052 11.2329 13.5246 -0.1599 -1.11828 -0.911536
745 42.0853 11.06 13.858 -1.24449 0.124165 -1.20826
3198 63.3175 11.4739 13.5212 0.699033 -0.513867 -0.471053
1056 35.7907 13.511 12.8833 -1.43487 1.50389 -0.0676987
3870 44.7665 12.9389 12.7705 -0.558991 -0.458447 0.632825
1427 25.4792 14.394 13.3552 -0.713526 -0.328828 -0.0971644
629 61.7983 14.4144 12.8115 0.58469 1.20895 0.977341
236 64.7924 14.9481 13.7279 -0.708966 -0.558574 -1.11307
3222 38.4021 16.9416 13.7473 0.27287 -0.727176 0.478726
3971 19.3337 18.3959 13.832 -0.348983 -0.91394 -0.066995
3683 23.5643 17.9564 12.943 -0.369331 -0.416949 0.888254
3875 43.6138 17.5644 12.7778 -0.905822 -0.696191 -0.895372
2511 49.1281 19.5128 13.9506 -0.432399 -0.0900778 -0.858481
536 59.3973 21.3047 13.8807 -0.233859 -0.93754 -0.322526
2554 47.9323 23.5584 13.7722 0.958902 0.979958 -1.46959
2373 9.98936 25.7726 13.2131 0.220903 0.940724 -0.794591
276 12.5487 26.7564 13.1506 0.360618 1.00315 2.11807
1554 15.0876 26.7091 12.9472 0.273729 -0.122974 -0.868993
3301 43.387 26.9784 14.0981 1.35824 0.845338 -0.489864
1899 51.2609 28.2311 14.0451 -1.43364 0.973761 0.123119
239 15.9461 29.6328 13.8552 1.6397 0.96076 0.988452
3545 10.6699 31.1249 13.5785 0.121712 -2.12478 -1.37023
1361 53.2073 30.9333 13.3396 -0.934289 0.0625133 -0.0797282
606 66.9401 29.8216 13.6061 1.75095 0.233033 -1.54924
1831 26.36 32.3657 14.1603 -0.899868 0.561566 -0.491901
2160 63.8012 32.3284 14.1582 -0.905712 0.352602 0.269693
1 12.1978 1.34548 14.5104 0.485734 -0.286291 -2.32835
3761 62.3419 0.0810956 15.1618 0.475271 -1.09612 0.537835
1106 70.2947 3.2278 14.4915 0.0853924 -0.733219 -1.03607
2018 50.9924 4.95416 14.9445 -0.201312 -0.498956 2.19765
185 31.7987 5.92384 14.6496 0.207824 -0.520956 -0.467521
2238 67.7912 6.97401 14.6938 0.738457 0.0323688 0.57553
1346 11.6212 7.86977 14.8261 2.01025 -0.960558 0.672545
419 41.2034 8.92525 15.4879 0.984291 0.505489 -1.53988
2005 66.8122 8.82188 14.6066 -0.851562 0.197629 0.177688
420 6.10939 10.4611 15.2431 0.369628 -0.457654 -0.114063
2334 37.5378 10.9069 14.4259 -0.961451 0.183269 0.112299
563 42.2754 10.1492 14.8332 -1.105 1.15389 -0.144698
2114 1.98585 13.2664 15.0837 -0.614126 1.88161 -0.31188
3073 35.8872 13.9462 14.2648 1.68428 -1.06582 1.14239
888 44.0085 12.9536 15.5312 -0.0877613 -0.929782 0.426229
1774 5.02054 16.6057 14.2613 0.254519 -0.195885 -1.03917
1179 15.3277 15.8827 14.8533 -1.38264 0.257281 1.95765
3681 55.5997 15.626 14.3078 -0.36799 0.670597 -0.519591
851 6.80028 18.1342 15.0415 0.51421 0.640348 1.48577
3838 70.1049 17.364 15.5329 -1.13833 -0.50436 0.681609
329 22.4846 19.7025 14.8829 0.203921 0.323 -0.671159
2589 23.5136 19.7964 14.1868 -0.115606 -0.52119 0.597772
1832 25.4687 18.8483 15.0792 -0.429526 -1.47529 -0.425145
822 63.8296 19.845 15.5744 -0.225654 1.30083 -0.934733
2222 52.3551 22.274 14.9515 -1.88832 -0.036926 -0.272472
2918 68.9439 21.8615 15.3192 0.527051 -0.442815 -0.229559
2768 27.0003 22.9632 14.4467 -1.90371 1.46772 0.0478661
3060 24.7448 24.37 15.1944 -0.233107 -0.0479829 0.0175642
2901 37.6397 24.5026 14.6103 -1.08027 0.65072 -0.890886
474 8.8359 26.6333 15.2962 2.51852 -0.541134 1.15345
435 65.3057 27.4918 15.3651 0.665789 0.400854 0.0295362
3053 10.7057 29.736 14.5116 0.0442583 -0.776628 -0.405121
1104 27.184 28.8594 15.252 0.532713 0.735079 -0.136161
133 13.291 32.2907 15.0547 -0.828232 1.41781 0.833174
163 0.65028 33.9844 15.195 1.41016 -1.35007 2.04452
201 69.1611 33.5787 14.6066 1.84875 0.819385 -0.0525125
3020 6.04843 34.2454 14.2608 0.847386 0.353223 1.75976
2499 40.5856 34.8452 14.7422 2.32467 0.407895 -1.26232
3483 47.3481 35.293 14.224 -0.149541 0.216893 -1.19543
3627 1.19053 0.0713578 16.71 -1.40672 0.535792 -1.21209
2030 59.3787 2.01985 16.281 0.126701 -0.727157 -0.89402
704 13.1129 3.40515 16.6538 0.484902 -1.44986 -0.0336607
1825 54.1872 3.50788 16.2325 0.998966 -0.184911 0.498081
1484 21.2344 4.8298 16.0765 -1.58838 0.126147 -0.670912
1320 71.5363 4.39223 16.3981 -0.226223 0.914899 -1.00919
1618 15.2795 7.58119 16.3307 -1.79459 -0.0730368 0.883047
482 27.7153 8.10267 15.9927 0.0693584 0.341685 0.233568
2850 36.1316 7.88264 16.3577 -0.313729 0.349021 1.1237
620 47.9585 7.62017 15.7784 -0.976029 -0.805042 -0.697304
2961 7.14444 9.15623 16.095 -1.4096 0.28887 -0.539137
2154 17.1174 10.8153 16.5069 1.1137 1.95287 0.272484
840 15.5432 13.3164 15.7029 -0.156486 0.893287 -1.36368
2845 25.7678 13.1309 15.6896 0.582447 0.19701 0.688582
2632 8.29417 14.8001 15.8707 -0.188687 0.407983 0.0764867
2650 7.12058 16.552 15.6831 -1.25348 -1.82103 1.00597
2055 36.3968 16.1779 16.5567 0.634096 0.517583 -1.88173
1193 71.8724 16.4427 16.6592 -0.302585 0.394642 -1.69659
1753 29.3864 17.8527 16.5587 1.46762 -0.326317 0.141347
1556 45.175 17.9362 16.5124 1.27007 0.176279 1.09212
1211 48.7962 17.4121 16.4066 0.197184 0.259641 1.3875
3935 47.2486 19.4457 16.9839 -1.22556 0.0116565 -2.39255
3725 49.918 22.6366 16.6318 1.05783 -0.473165 -1.14512
1769 50.5527 21.7013 15.9607 0.698684 -2.67574 -0.157041
248 28.6705 23.7777 16.3864 -1.7519 -0.84933 -0.937826
2646 41.8259 25.2412 15.8462 -1.15726 -1.32434 0.113869
313 7.0391 26.8755 16.2067 -1.69514 -0.933179 -0.17257
617 21.4895 28.2938 16.1911 -0.189556 0.25052 -2.76164
2613 27.9901 27.6702 16.5075 0.150115 1.81811 -1.1619
3691 28.9976 27.9276 15.9341 -1.49207 -1.20319 -3.09359
2814 25.9797 29.3825 16.8653 -0.0346476 -1.18015 0.546104
1881 40.9257 29.4383 15.7477 -0.224416 -1.0172 1.90669
2376 6.85504 35.6518 16.676 1.18213 0.315671 -0.280662
3501 14.6043 35.6678 15.7691 -1.26853 1.23419 -1.17005
946 68.7234 35.8145 16.2759 0.870094 1.58258 2.09735
283 9.01211 0.413515 17.4356 2.2924 0.483083 -0.795524
2130 48.6823 1.47413 17.2662 -0.263578 0.169929 0.413319
1176 3.5302 3.38332 17.6338 -0.149941 0.39621 1.09125
1853 20.5994 4.08356 18.1773 -1.26577 0.125535 -0.929661
2432 52.5393 4.7893 17.8072 -1.5729 0.584546 0.975931
15 15.1949 6.07222 17.5953 0.28208 0.941316 -0.301099
3296 71.6093 6.5242 18.1496 0.997982 0.481537 -0.506535
3631 72.3497 8.11958 17.1688 -1.20059 -0.609184 -0.495603
3048 60.6964 10.8198 17.1753 -0.409974 -2.4467 1.97536
405 32.7548 12.7283 17.1508 -0.909413 0.813564 -2.07658
1824 45.4832 11.5135 17.1226 1.47323 0.720495 -0.878577
1809 53.2539 12.9551 17.428 1.43625 0.87371 0.696114
627 39.158 15.3679 17.5764 0.932356 0.674048 0.732818
1902 19.592 16.9072 17.8185 0.603713 0.532587 0.915325
502 31.1509 16.5974 18.2467 2.01895 -0.0193787 -0.0948079
853 48.2964 16.9222 17.4805 -0.735888 0.740671 0.581422
1782 15.7691 17.5063 17.9476 0.977638 -0.598127 -0.0930887
2868 54.085 17.9335 17.2004 -0.2498 -0.0778828 0.474153
1387 25.9547 18.5373 17.0308 0.947638 1.03302 -1.34743
2852 33.0152 20.9827 17.7964 -0.123089 1.01312 0.414731
3968 37.6983 20.3926 18.0343 -0.0224122 0.552889 -0.691241
760 15.1703 22.6634 17.3453 1.1677 -0.189148 1.58392
2282 12.8473 23.7227 18.2391 1.33881 0.620052 -1.97075
2948 6.4122 24.9357 18.1896 0.455605 -1.60506 0.682181
914 64.1657 25.4067 18.211 -1.33008 0.693908 -1.40654
3666 26.3911 26.1144 17.8612 -0.223638 -0.0236091 0.0738306
1262 59.7402 26.0988 17.9964 0.0908488 0.539003 1.97566
2832 31.3763 28.0198 17.6559 -2.55931 0.700668 -0.764425
1349 53.6402 27.401 18.3297 -0.28644 -0.537969 0.671326
520 36.2395 31.0156 17.7608 -0.172267 0.149687 1.77517
577 53.9232 31.036 17.1094 0.196698 -0.82156 -0.997396
3359 2.27839 32.6559 17.9252 0.730868 -1.43981 0.346316
2416 60.6878 33.0776 18.2469 0.237846 -1.33239 0.996366
2210 7.65693 35.4768 17.5249 -1.46527 -0.330977 -0.420059
1204 19.6638 36.5478 17.3846 -2.49056 0.753299 0.303904
488 45.6498 36.3887 17.7694 -1.12584 -0.573048 0.504495
2976 51.4767 36.7937 17.3559 1.73498 0.166918 0.133469
1901 25.9629 0.318032 18.5014 0.313519 0.378845 0.998356
2636 41.585 0.298609 18.8163 0.95671 0.781851 -0.126932
1877 12.418 2.80641 19.4579 0.841793 -0.953581 -1.01983
2789 56.5968 2.55396 18.9692 -1.96552 0.0636941 -2.37379
1574 3.47695 2.90097 18.5245 -1.19241 -0.285179 -1.04416
14 37.1134 4.09522 19.0685 0.619048 0.311203 -1.71164
1118 52.089 3.09877 18.6031 0.536216 1.16628 -0.734993
2063 43.5751 4.36358 19.3649 0.0338768 -1.55892 0.19644
469 69.6665 10.227 19.6992 0.0346915 0.274141 -0.196863
3276 40.3593 15.04 19.6609 0.476093 -0.122001 1.16852
673 42.6894 14.8616 19.7781 0.314868 -1.45506 1.09024
3757 8.46744 16.1053 18.7174 -0.732153 -1.1567 -2.72924
545 8.35004 17.6467 19.1734 0.605474 -0.184569 -0.150836
340 45.5027 17.9749 19.2419 0.334157 0.71449 0.361214
1619 51.5555 18.0628 19.4675 1.2715 2.41483 -0.811823
430 50.518 18.5538 19.4721 1.51211 -0.489298 0.980637
3245 71.2063 19.5233 19.0691 -0.801329 0.0116851 -0.47267
3852 32.4275 19.9439 19.3991 1.09305 -0.542792 -1.01009
1569 51.6862 20.053 18.7458 0.0146595 0.652269 1.94715
1163 65.2471 20.0559 18.9353 0.898347 0.687494 0.277495
1699 39.5356 21.9784 19.8105 -0.230391 -1.13785 1.22732
1587 38.6045 22.329 19.5491 -0.510167 0.180125 0.250196
547 37.8444 25.0641 19.6574 -0.1439 0.401254 -0.255548
3176 29.065 27.4772 19.5034 -1.13296 1.37274 -0.176247
1691 66.2528 28.1851 18.9364 1.78041 1.25241 1.47661
3678 8.8133 28.4814 19.3395 1.33963 2.08435 -0.733443
1518 11.881 28.5135 19.1161 -0.863108 -0.391445 0.0247489
189 55.6311 28.4048 18.6507 0.729001 0.0208835 0.97688
544 15.3211 30.6639 19.4761 0.346785 -0.965264 1.12361
507 17.3852 30.2471 19.086 -1.61753 -0.973656 1.54744
423 24.1506 30.4829 19.7177 -0.951376 1.09616 1.83959