ITEM: TIMESTEP
56000
ITEM: NUMBER OF ATOMS
4000
ITEM: BOX BOUNDS pp pp pp
0.0000000000000000e+00 7.3680629972807722e+01
0.0000000000000000e+00 7.3680629972807722e+01
0.0000000000000000e+00 7.3680629972807722e+01
ITEM: ATOMS id x y z vx vy vz
531 37.9979 0.440007 0.659407 -0.43572 0.667595 1.25418
3563 33.1787 4.13193 0.0533392 0.338784 1.64906 -0.597866
1138 55.5676 4.23498 0.411706 -1.05183 -0.0619856 0.667562
366 67.9601 4.20122 0.0737665 0.417097 -1.75427 -0.616838
2602 37.5732 5.75756 0.0758149 0.558638 -0.762199 0.65828
1113 45.2942 5.97148 0.476987 -0.187533 0.785238 -0.456367
735 26.8684 7.82543 0.687495 0.28029 0.209398 -0.392656
996 35.5838 7.75585 1.30849 -0.38157 0.815159 1.68174
2032 8.11832 9.91433 0.35364 -0.606137 -0.911855 -0.809104
2913 9.26362 8.83951 1.13182 -0.631625 -0.907868 0.0941425
1068 5.92915 10.8279 1.35081 0.816618 -0.460365 -2.11217
3783 9.81757 12.4115 0.629884 0.0811238 0.684648 0.43263
1828 30.373 14.2243 0.227143 -0.655965 1.74828 -0.427882
375 46.2563 15.7511 0.214094 -0.587634 0.337158 1.10703
568 23.0291 18.3879 1.30736 0.878185 -0.357527 1.4047
1658 66.8892 17.2759 0.267631 -1.50132 0.261243 -0.200669
3872 59.3349 19.1118 0.0373036 0.689147 -0.420643 -2.78797
3660 52.3173 22.0259 0.00472319 1.68775 1.98319 2.76105
806 12.0608 22.9457 0.292529 0.678615 0.361717 0.570626
1099 60.3677 23.7301 0.0886239 -0.426725 -0.725874 -0.556868
3529 65.3648 23.5041 0.16199 0.700421 0.105212 1.16321
3924 72.5394 24.6828 0.991824 0.0606515 1.43986 1.41118
144 38.5281 25.5049 0.671645 1.61551 0.664056 0.670388
3885 44.2462 26.4587 1.22571 0.919161 0.893555 -0.0170442
841 0.515964 26.922 0.377692 0.665778 -1.88767 -0.30644
2820 56.4771 26.9383 0.885333 -0.459258 -1.26682 0.808093
2554 56.8235 27.9461 0.694439 1.56351 1.47711 -1.37646
709 30.8178 29.5695 1.35353 -0.489102 -0.255143 0.668962
436 55.405 28.9317 1.03766 -1.36765 -1.16702 -1.80686
1402 0.00234239 30.6531 0.941596 -0.164628 0.195344 0.826457
1228 9.08466 31.1231 1.33038 -0.700627 1.98362 -0.95011
2282 22.1001 30.9746 0.922285 0.603108 0.850844 -1.47517
3868 38.313 31.0268 0.598002 1.04821 0.252464 1.65518
2022 11.9144 33.2737 0.186666 -1.73374 -1.43406 -0.1406
2059 35.2278 34.0051 0.105541 0.520371 -1.136 -0.382196
2419 43.4893 32.8037 0.0350409 3.02179 -0.399163 1.08748
2705 55.6196 33.5229 1.01975 0.104199 0.150686 1.41448
2897 60.8867 33.4862 1.31175 1.4226 2.26403 -0.757339
826 7.30513 35.3369 1.31018 -2.52719 -1.84591 0.0220637
3525 15.2424 36.6701 0.0740527 0.428404 1.1423 1.28458
1368 55.5732 36.3751 0.748817 0.0288867 0.66549 -2.33319
3713 61.8572 0.156589 2.57468 0.638537 0.976007 -0.576984
3398 1.57322 4.10283 2.60586 0.567125 -2.3579 0.432535
1465 30.6678 3.67601 2.62499 -0.964432 0.0923583 -0.0386748
1102 49.1406 3.55673 2.79349 -0.805411 -1.20301 0.301524
1374 57.6687 3.4604 2.40569 -0.388309 -0.363948 0.140412
3720 57.095 4.40285 1.79068 -0.402633 -1.82538 1.23089
2127 67.001 5.22384 2.80771 1.51652 -0.6421 0.0862629
3942 12.6607 5.8359 1.61668 0.942922 0.496776 -0.569105
2397 67.9372 6.76299 2.42486 0.340365 -0.724317 0.471969
1063 69.2168 6.08216 1.78073 -0.161269 0.833465 -1.46839
1928 32.4873 7.64493 2.45882 -0.804978 -0.0559744 -0.235065
672 0.0592919 10.8642 1.7007 -0.170736 0.223658 -0.301209
749 14.6902 10.7063 2.80026 0.926581 0.198024 0.465526
2244 19.2227 11.2006 2.18312 1.20828 -0.794852 -0.94015
733 42.7849 10.9119 1.7328 -0.809547 -1.49011 -0.671227
54 8.33369 11.7007 1.94922 0.719328 1.16698 1.03442
3454 31.5017 14.1427 1.89952 1.08131 0.10764 -0.39704
1322 24.3259 16.2445 1.5635 0.0204644 -1.56207 0.124577
1428 9.68476 19.8935 2.46692 -0.267479 0.38108 -0.392856
840 13.9353 21.1835 2.13095 -0.145123 0.351979 -1.30344
2666 35.1575 19.8428 1.87928 0.347366 0.205208 0.94491
2454 36.0822 20.8903 2.58194 -0.276809 -0.674346 0.876025
2071 62.5948 22.2319 2.13169 1.13903 -1.53025 -1.10337
3970 6.92642 23.413 2.40357 -0.711724 -1.03434 -0.596243
2941 25.0355 23.8176 2.57681 -0.959925 -1.27258 1.08096
714 28.7524 23.471 1.80051 2.06138 0.512812 1.90763
3240 71.515 23.2006 1.60786 -1.32914 0.299629 -0.816098
1419 25.0191 24.9571 1.5731 0.704354 0.594458 -0.351992
3184 72.0201 24.2745 2.14028 -1.76155 0.659756 -1.61476
416 19.6046 25.7919 2.19236 0.817234 0.277248 0.461735
1834 20.7868 27.351 1.79568 0.991367 2.50556 -0.549755
2222 45.3054 27.7456 1.49807 0.180893 0.858909 -1.10128
269 72.1929 28.6593 2.73171 0.0929199 -1.11887 0.30818
2824 6.19433 30.0139 1.78232 -1.33865 0.515401 1.35128
3852 35.4671 31.7473 2.69062 -1.7136 0.0740598 -1.91769
997 62.4352 31.9062 1.64218 -1.41055 1.50163 -0.453353
1770 14.9765 33.7751 1.98595 -0.292081 1.77186 2.80847
2866 25.2164 35.0653 2.62249 -0.917831 -0.266035 -0.44571
3423 55.1509 34.7315 1.89611 0.0695128 0.976683 -1.16632
1840 26.0169 1.55912 3.56076 -0.217863 0.182307 -0.570331
2369 0.155382 3.10007 3.37518 1.24904 0.568726 0.178556
468 18.7311 3.01356 2.91529 -1.90631 -0.0526009 -0.0550885
3117 45.6071 5.48251 3.5767 0.112583 -1.39237 -0.886692
2319 1.02747 6.28549 3.19666 -2.27699 0.460423 0.526007
1603 14.2676 5.78851 3.26505 0.592214 -0.308932 0.404614
1599 59.867 7.75708 3.72134 0.435877 0.742914 0.856191
1287 60.7815 7.59471 4.08023 0.769739 1.89488 -0.0433585
30 67.3345 7.13791 3.76441 0.951194 -1.53605 -0.0491075
3149 1.23073 9.44448 4.16637 -0.989921 -1.15677 -0.629426
1862 25.5956 8.7097 3.97432 0.549774 0.758163 -0.295992
1706 30.2551 10.953 2.91857 0.259355 0.945642 -0.121616
3315 30.1718 10.2169 3.81095 0.0201631 0.470839 -0.60018
3111 59.1969 13.6989 3.68237 -0.0595698 1.81415 -0.524577
1774 7.57083 14.6513 3.87185 0.25503 -0.195446 -1.03894
2858 44.5303 14.6552 4.02311 -1.53045 -0.425671 -0.542497
2770 54.252 14.2443 3.39035 -0.328461 -0.545823 -0.0892375
2516 19.8442 16.703 3.44721 0.200206 -0.266178 -0.229037
1088 36.1249 17.1289 3.02102 0.511207 1.42964 2.16688
361 44.4003 18.2989 3.55133 -0.896633 0.227101 -1.32528
989 63.0976 18.0212 3.74662 -1.20987 1.15374 0.0399821
39 71.6306 18.7379 4.14128 -0.0246777 -0.799448 0.328522
3310 55.4864 22.887 3.69159 1.32767 0.529297 -0.167171
1091 1.00303 25.3849 3.32362 0.121673 0.278005 -1.33388
322 0.0307112 24.8784 3.27202 -1.002 1.32199 0.355213
1530 6.80598 25.4194 4.01878 0.611314 0.323214 2.05602
3732 67.4564 24.924 3.97408 -1.32595 1.39695 0.237735
419 51.7102 26.6824 4.17831 1.72427 1.93495 0.17443
2475 51.343 27.424 3.62875 1.39408 0.251339 -0.547425
2587 2.69346 29.061 3.14902 -0.547105 0.473727 -1.20148
657 14.2226 29.3366 3.40918 0.286158 -0.827042 0.22571
1387 32.7921 30.9074 3.91864 -0.731729 1.29649 -1.37361
1524 51.3526 30.8593 3.63906 0.849379 0.967522 1.27701
1147 32.0702 31.684 4.1788 0.104695 2.81055 -0.889616
3090 49.4981 33.0672 4.00579 -0.505049 0.683743 -0.714543
3364 15.8852 34.0811 2.87356 0.936894 1.28911 3.00013
676 53.9447 35.0745 3.64163 -0.519319 0.063017 0.249371
2124 69.4009 34.5679 2.98201 0.605189 -0.313663 -1.03322
535 72.1506 34.9282 4.04819 0.177346 1.21373 0.501425
3086 14.3657 36.738 2.90959 -0.842098 0.211347 -0.689999
2582 11.8061 0.050036 4.4092 -0.1599 -1.11828 -0.911536
3368 10.2004 2.21925 5.06148 1.02188 -0.330653 -0.958593
3133 33.5771 2.25378 4.53967 -0.480339 0.856327 -0.113833
3314 59.4842 2.27561 5.56092 0.34942 -0.900516 -0.666293
490 66.0427 3.48811 5.43959 -0.662776 -0.143408 -0.145929
543 1.4103 5.51009 5.28934 -1.41179 -0.635669 0.759429
2802 16.5455 5.67433 5.12009 0.182623 -1.5157 1.03939
3190 40.9561 6.15904 4.50605 1.59346 0.542568 -0.913524
1182 72.6779 5.75101 4.87718 0.285165 0.626447 -0.773985
1481 1.12876 8.00413 4.44551 -0.535336 0.252346 -0.0582593
1759 7.56651 10.3525 4.29675 0.571944 1.98638 -1.73852
3365 38.7702 10.3816 5.5439 0.323656 0.890718 0.287386
1562 32.5017 12.3841 5.02067 -1.82624 0.427783 -0.139051
2136 45.9736 12.8929 5.12916 -0.0943412 1.59869 -0.311222
2049 42.1241 17.8419 4.76104 -0.205013 -1.24123 -0.303937
1825 62.2375 18.1397 4.99325 0.529852 1.49398 -1.68535
377 49.0038 19.994 5.51843 2.18994 1.73787 0.681811
801 49.6318 20.9092 5.13171 0.0201539 -0.990062 -0.352722
1083 69.112 20.2183 5.20113 -0.0673203 0.0602371 1.0521
2436 26.4707 24.5285 4.28517 -1.41975 -1.95255 -0.230885
1687 56.14 25.3468 5.30193 0.479254 -1.02619 1.90556
2533 49.1924 26.4626 5.07465 -1.4346 -0.7755 -0.670318
3443 70.075 26.3287 5.57515 -1.88134 0.0319305 0.274615
3839 21.2856 27.9672 5.26028 0.68992 -0.6645 -0.0847966
2091 39.8145 27.4749 4.83742 -0.812847 -1.65143 -1.54697
698 48.4124 27.0196 4.86998 0.537023 0.331171 0.514931
2592 52.9565 26.9433 4.27278 -1.21776 -1.04506 -1.82076
3129 20.1558 28.7014 5.19325 0.294953 3.31592 2.47618
1096 51.2794 28.9004 4.62821 -0.671147 -0.906884 1.55773
799 12.7874 31.5892 4.34497 1.3655 -1.36632 1.46973
101 44.3496 31.399 5.04889 -1.52133 -0.127579 -1.09392
1878 62.9846 32.3278 4.67138 -0.0157919 0.458897 -0.554205
3931 34.9313 33.923 4.38661 -0.18522 0.495989 0.875608
2687 6.75363 34.6506 4.48206 0.427141 1.03787 -0.437707
2737 11.6956 36.3012 4.43205 0.642022 -0.905107 1.55544
3400 31.7064 36.3952 4.2649 -1.01287 -1.54657 0.440909
2487 65.7311 36.8025 4.62755 -0.707454 -1.7627 -0.571987
1061 42.7083 1.25481 5.7576 -0.0568291 -0.0910316 -0.607794
280 21.716 3.33515 6.67913 1.15835 -1.05644 0.628752
1940 30.2685 3.64918 6.49544 -0.297946 -1.4414 1.41325
3230 16.9312 5.55339 6.35289 -1.35133 0.678345 -2.0885
1203 63.9045 5.38555 6.22491 -0.866241 1.28193 -0.0373365
936 67.3576 5.18492 5.67181 0.328438 2.27871 -0.21637
1791 39.5028 7.08138 6.02631 0.28569 -0.489048 -0.127617
3138 26.6557 7.35741 6.32109 -0.0774355 -0.663013 0.779646
1153 31.0559 7.24636 5.70537 0.12939 0.288945 0.38034
1217 8.21712 9.30734 5.74991 -0.465917 -0.42246 -0.398638
844 23.4832 8.88023 6.35861 0.550218 -0.400772 0.821952
2214 48.8386 9.48106 5.68106 0.811581 -1.28529 -0.604308
1973 62.7562 9.0247 5.97607 0.267612 0.202969 0.592081
236 63.6633 8.65895 6.49572 0.339503 -1.48339 -1.09153
1320 68.566 13.6772 6.62622 -0.511825 1.0232 -0.746265
3015 73.2706 12.9326 6.48503 0.72168 0.779823 0.770502
1005 33.4683 15.1692 6.95113 -0.95335 0.477771 0.140026
2466 10.8946 16.8444 6.25618 0.345152 0.707914 0.270437
2833 46.9462 16.5745 6.6158 0.0897193 -0.188324 -0.293002
2511 47.4786 19.1052 6.06515 0.699826 0.462404 -1.19122
78 62.5874 21.007 5.72782 -1.54581 -1.43653 -1.48643
3124 24.4001 24.0162 6.8961 2.71195 -0.27226 -0.517578
2860 39.0839 24.5965 6.80348 -0.634777 0.775847 0.359021
3156 0.694341 27.1432 6.84883 0.324924 -1.02347 0.375646
3 12.6869 29.4471 6.97294 0.49582 -0.301726 0.44132
61 18.3923 29.6483 6.59881 0.662662 -0.161904 -0.276022
3022 22.3993 29.667 6.44319 0.776018 -0.26061 -0.550492
2621 31.9579 28.8457 6.21676 -0.241787 -0.83454 0.927676
1554 23.8503 29.8174 6.49885 1.07058 1.08258 -1.04257
1236 13.443 32.274 6.81823 -0.172782 1.01544 1.34066
3192 14.8929 32.3263 6.7194 -1.13563 -0.948891 -0.0646968
3404 14.574 31.4104 6.00958 -0.449522 0.409271 -0.0648662
1235 29.0832 32.399 6.1313 0.283889 0.8613 -0.129117
432 12.7684 33.209 7.07092 -0.603493 0.305471 -0.130256
2923 58.2227 32.606 6.25615 0.444436 2.03746 -0.106955
822 61.3677 33.0369 6.58188 -0.838029 1.36472 0.0428663
3181 49.8468 34.7152 6.07281 -1.84116 -0.510439 -0.10583
1480 52.7495 34.6015 6.73063 -0.121213 -0.522655 0.33317
3668 36.8897 35.5691 5.87823 -2.22516 -0.815939 0.0312896
3047 64.784 35.4487 7.06357 -0.675873 0.350275 0.301237
3778 66.6182 36.3016 6.956 0.322246 0.360346 1.766
3953 72.1323 36.8072 6.53821 0.574431 1.18215 -0.28568
3515 52.8099 3.63618 8.30071 1.03858 -0.530418 0.110671
1993 49.5805 5.40019 7.59701 0.314999 -0.127492 -0.137997
2527 36.1816 10.1807 8.32168 0.47174 0.795895 0.0512441
1891 44.1988 11.4483 7.50052 0.043551 -0.837946 0.909806
3170 36.338 13.0981 8.33035 1.15191 0.0421896 0.0182189
3366 68.2377 13.5751 8.39661 0.877324 0.605351 -1.29464
2871 66.7671 15.1105 7.6353 -0.592049 -0.576017 -0.145897
2201 71.8281 14.1963 8.49119 0.94004 0.371299 -0.781863
807 11.6905 16.8453 8.39474 0.12387 0.643598 -0.405045
563 32.4649 15.8681 8.47951 -0.35168 0.829248 0.129718
69 72.4999 16.1925 7.1758 0.236715 -1.86083 -0.193451
3229 46.4938 18.7246 8.10437 -1.41452 -0.919159 -0.610078
1630 47.7076 18.5284 7.13344 -1.28326 0.0531875 0.870511
2489 7.49715 20.4726 7.52231 1.55569 -0.642767 0.150291
90 24.8811 21.3398 7.18728 0.371187 0.682444 0.839933
2145 43.7298 21.7064 8.26503 0.456436 2.66881 -0.451714
470 39.5473 22.9305 7.60343 1.0059 0.210591 -0.439556
2548 54.0304 23.2705 8.09342 0.0457455 0.891854 -0.00699426
1248 70.304 23.8537 7.08911 0.105194 1.04497 -0.888819
3696 38.4359 24.1284 7.46329 1.12266 0.0117804 -0.10772
2992 50.7522 24.684 7.93402 0.410402 2.56258 -1.886
547 52.9183 25.033 7.10074 1.3284 0.982339 -0.991657
2373 6.07627 28.0333 7.75926 0.601329 0.0437057 0.516652
2285 69.8094 28.2462 7.80807 -1.37886 -0.0305315 0.932665
527 35.9123 28.7585 7.19142 -0.135453 0.436331 -0.515277
606 73.4107 29.6572 8.2258 -0.265547 0.50826 0.828539
1100 11.3506 30.9393 8.12277 0.613463 -0.189407 0.0269828
1942 3.69271 31.5869 7.32572 -0.464053 -0.989174 -0.395717
1183 21.0356 32.3041 8.02463 0.565216 -1.63804 0.126884
914 53.2755 32.0461 8.13432 -0.85246 0.387019 -0.0817645
3121 60.6817 32.2145 7.47077 -0.348662 -0.438638 -1.13007
2640 67.4598 31.7653 7.98122 0.297139 -0.54832 -1.36094
2717 41.7022 33.8595 7.76104 0.771303 0.802688 0.354287
3628 3.92104 34.4772 7.21326 1.21583 -2.07506 -0.524476
2376 11.7513 34.6613 8.02102 -0.31217 -0.68422 -1.63467
2757 34.0448 34.9891 7.81598 0.21555 2.35131 0.887694
538 65.1712 34.4905 7.36622 2.28211 -1.17124 -0.373434
185 33.651 0.527433 9.58399 0.192043 -0.585252 -0.528189
1484 12.3315 4.09804 9.00929 0.462013 -0.768804 -1.626
3017 27.8634 5.3558 9.29838 -0.177097 -0.564833 0.252497
2384 29.9282 5.50785 9.84257 0.28811 0.730539 0.0555313
2580 33.0427 5.16112 9.23361 2.67851 -0.719711 -0.334895
910 63.3061 5.14975 9.42068 -1.53496 0.287199 -0.63763
1457 63.942 4.35174 9.28926 -0.595717 2.29653 -1.83033
1427 16.5372 6.99566 8.91146 -1.01523 -0.824118 -0.688525
3198 70.3079 6.33519 8.81067 0.699033 -0.513867 -0.471053
2779 61.0718 8.25188 9.5112 -0.866006 -0.812872 0.148744
3328 17.8768 9.44625 9.00736 2.20288 0.84073 1.06406
536 59.0156 11.1384 9.23807 -0.166188 -0.467402 0.572377
2963 61.6915 11.6419 9.73554 1.32379 -0.662924 0.112544
248 3.91605 14.6916 9.66986 -2.7586 -0.950744 -0.337576
625 18.2217 14.385 9.38857 0.173303 1.52695 0.962901
3309 33.4656 14.7514 8.50409 0.303231 2.02473 0.153998
708 33.7794 15.0115 9.72225 -0.0774697 -0.970334 -2.84865
183 40.0647 14.3825 9.0046 0.343226 -0.427211 0.328016
1293 29.1804 16.1655 9.77185 0.48069 0.488821 1.18507
3605 60.3892 16.4327 9.20335 0.942193 -0.775555 0.230302
454 72.384 15.8363 9.52157 -0.542568 -2.11222 0.889864
3286 0.944812 17.8021 9.33862 -0.796828 -0.0261592 0.456309
3968 32.6696 19.5735 9.76223 -0.521695 -0.33269 -0.658654
2520 44.4551 18.5569 9.90933 0.911258 0.71389 -0.155296
1824 58.9113 19.6279 8.7681 0.410388 1.4254 -0.433718
3566 15.4393 20.74 8.80181 -1.65287 0.0400823 1.05586
1810 28.4652 20.4267 8.91679 0.292813 -0.430347 0.129756
385 41.5106 19.914 9.43412 -0.588297 -1.32124 0.192901
1695 14.0165 21.7277 9.58325 -0.0667169 1.26485 1.89088
3681 52.0989 22.4484 8.66355 -0.244368 0.822138 -0.763056
3695 72.4747 23.5923 9.71908 0.240604 0.303329 0.705029
2188 20.2472 24.4394 9.90559 0.49351 -0.0470261 -0.218614
2141 41.2102 25.4925 9.59576 -0.817839 -0.809075 1.65013
2726 42.8131 25.0486 9.28689 0.596202 -0.176966 -0.238627
1370 52.1534 24.3124 8.58474 2.40644 -1.01559 0.0621554
3485 47.0412 26.0073 9.72162 -0.602071 -0.939121 -1.84739
2101 56.1863 28.2977 9.40718 -0.278512 0.166447 -2.15196
3205 5.22603 32.0048 9.8097 -2.03739 2.12654 -0.353702
2060 13.8834 31.2515 9.40944 -0.303712 -0.717845 0.153324
907 51.4067 32.2288 9.4305 0.649856 -1.23358 0.0717286
3386 60.7029 33.6381 8.73612 0.488732 -0.309393 0.232413
1951 12.6571 35.1801 8.96025 0.550165 -0.430033 -0.0808317
1038 47.3363 35.2871 9.37836 0.336524 -1.12985 0.236355
235 16.3605 0.38804 11.3049 0.243239 -0.63294 1.13127
3307 47.1426 0.0766603 10.8303 1.05616 0.0617619 -1.83683
3490 17.3262 2.66495 10.535 -0.601889 0.591716 -0.23748
267 46.9954 7.55889 10.5201 0.644971 0.549337 -1.47878
2709 37.5861 10.6112 10.1678 1.64004 0.269584 0.564019
1134 38.7934 10.4587 10.4763 0.473872 -1.20062 -0.29664
77 32.0554 12.0437 10.5831 -1.73058 -0.449275 1.62559
666 71.1689 12.6531 10.5861 -0.155903 -1.73426 0.77089
1294 62.3821 12.7574 10.2697 -1.88928 0.170151 0.337966
745 32.5742 14.8719 10.1785 0.315422 0.928395 0.901181
875 69.3061 14.309 10.2812 0.801861 1.50144 0.67749
3813 18.9483 16.1351 11.1685 1.26251 0.403135 -1.81895
187 31.3606 16.2685 10.0672 -2.12997 1.52198 0.504495
256 36.9771 16.7147 9.931 -1.24815 0.329967 0.70839
112 1.9586 19.471 11.2157 -2.15965 -0.00315194 0.445559
15 6.61064 18.9813 10.4455 -0.867037 1.29443 -0.970601
2501 38.3883 19.0868 11.1984 -2.02761 -2.7896 -0.693466
3487 67.9458 18.8559 11.1352 0.904883 -0.162433 -0.11954
330 63.7273 22.2966 11.0253 -1.37833 0.522953 0.385529
1645 9.5088 22.8248 10.8373 -0.476872 -0.116137 0.479808
2190 18.9694 23.1975 11.2246 0.540825 -1.23535 -0.436771
3545 20.744 23.2343 10.0963 0.278805 -0.0358542 1.32258
3589 15.081 24.3462 10.0986 0.560476 0.209184 -0.242438
1024 12.3068 25.7693 10.6865 -0.875921 -0.411649 0.42097
147 52.5584 26.2921 11.3019 -0.444374 -0.443649 1.78638
1688 23.0535 29.0544 10.9165 0.35737 -0.850752 -1.30731
401 72.7866 28.5828 11.0726 -1.02241 1.09756 0.90656
1141 10.7545 29.7912 10.5065 -0.10811 1.0645 -1.1384
1990 65.0921 30.4797 11.2102 -1.20841 0.88999 -0.0626228
2197 8.2161 31.4486 10.4991 2.08168 0.651007 1.39091
3684 15.6413 32.2477 10.5823 0.136558 -0.941877 0.304203
3070 25.7874 32.3418 10.3271 0.216805 -0.972077 -1.0035
796 6.13882 32.6639 10.0698 -0.835517 0.0826065 -1.92552
3724 27.933 34.8334 11.3013 -1.0681 0.909586 0.626026
71 35.6707 35.5486 10.5952 0.720295 -0.316826 2.22702
1656 66.4985 36.3639 10.7803 0.616605 0.709523 -0.611978
3073 50.6955 0.764292 12.6846 1.53901 -1.40252 -2.6256
3390 5.65493 2.21972 12.5625 0.169945 0.312572 1.38571
1618 12.8993 1.80178 12.6361 -0.155466 -0.751602 -1.22066
3578 60.7116 3.24049 11.4764 1.3385 0.295184 0.0244867
1519 62.1918 2.90621 11.6218 0.0706694 0.256461 0.762103
1032 12.4201 4.54964 12.21 -0.0257228 -0.159871 1.13599
1853 11.8284 6.80947 11.635 -0.481194 0.745846 -0.933096
3355 69.1036 5.80541 11.3638 1.00437 -1.59748 0.0490101
3567 45.5076 8.23447 12.6967 2.21991 0.211084 -1.78818
1012 27.6928 9.819 12.6211 -0.00137083 -1.88867 1.09775
2927 63.2701 9.23112 11.8775 -1.37564 1.43472 1.52462
2918 1.09826 17.4186 11.6873 0.557073 -0.542394 -0.657028
420 12.4646 18.9706 11.5723 0.727141 1.19148 -0.238503
2589 22.511 18.689 12.2752 0.183057 0.489824 -0.673609
329 23.567 18.7443 11.6612 -0.224697 -0.51357 0.103912
216 31.761 19.9895 11.9266 -1.78599 -0.755044 -0.294421
2135 37.885 20.0673 11.9495 1.7134 -0.176951 1.33606
3592 18.87 24.8668 11.4244 0.595245 -0.711312 -0.51482
1692 21.1506 25.0555 11.4362 0.0564255 -1.57007 -0.700024
342 30.7412 25.351 12.5286 1.57624 0.289291 1.89717
701 58.3869 25.4308 11.5004 1.17968 -2.05352 0.311605
1164 16.2273 28.269 11.7195 -0.104175 -0.324877 0.414385
1927 28.1376 27.8593 12.6317 0.351622 1.036 0.230652
2505 29.0181 30.335 11.3804 0.0988755 -1.2724 -0.500154
1598 40.2347 31.7741 12.5779 0.0147367 -0.103151 0.935943
2327 44.8904 33.9665 11.9691 -1.03261 1.28539 -0.457624
2629 62.4086 33.0093 12.6902 -0.406774 -1.07795 -0.365821
2563 34.2012 34.5553 11.6122 -0.0291347 0.22831 0.48341
2696 43.2983 35.7682 12.1061 -1.98586 -0.414203 2.94527
3294 66.6243 35.7455 12.3336 0.0203176 0.185385 0.310843
1456 2.87165 0.986318 13.9623 0.624082 1.10913 -1.23145
2041 16.0829 1.04278 13.8382 1.14274 1.29513 -1.2963
2099 30.5937 0.399337 13.8915 -0.355192 0.393989 1.65078
2777 68.4381 0.35521 12.7584 0.369975 1.47489 -2.69904
3526 46.6353 2.17856 12.7721 -0.597386 0.291804 -0.0917937
620 43.0905 3.42745 12.9254 -0.120187 -0.128687 0.0378636
2847 21.8015 9.44872 13.5601 -0.277793 -0.280966 0.124224
2252 22.8309 9.36176 13.7086 0.273849 1.55538 -0.672917
2817 32.724 9.57737 14.0721 -1.73843 0.204721 0.312927
387 60.9989 9.01601 13.1944 0.657052 -1.67436 -0.215882
3296 3.36836 10.5273 13.2507 1.53302 -0.275663 0.699128
1625 15.8411 10.6189 14.004 -0.289798 -0.0930182 -1.17662
1613 20.5798 10.3871 13.7642 -1.36097 0.135703 0.172081
2803 40.5006 11.6718 13.8069 0.389853 -0.813361 0.317713
254 62.0949 11.439 13.2304 0.211452 0.100691 1.11123
3840 57.9871 12.7566 12.9324 0.957081 -0.90961 -0.719074
1176 73.367 13.793 13.58 -0.581106 1.03233 -0.595097
2040 17.1629 15.3451 13.4291 1.45016 -1.27003 -0.148873
369 5.7022 17.8758 13.0006 0.884417 -0.341458 -1.71636
2597 28.393 18.275 13.7881 0.0888555 -0.970168 0.704973
1491 45.4723 18.2472 13.9805 1.39771 0.82166 0.276939
245 70.4423 17.2104 13.7259 -1.08055 -0.0889151 0.972472
1056 17.6623 19.413 13.9745 -2.29569 -0.685427 0.218194
3245 60.3735 19.3635 12.9049 -1.25184 0.0043544 -0.680887
3927 39.2246 20.6626 13.357 -0.723471 1.78489 -0.00782623
313 65.7878 20.5458 13.3189 -1.32443 -0.400699 -0.457225
690 2.70486 22.9937 13.0222 -0.00778099 0.666466 0.245066
3152 6.93354 23.1564 13.8657 0.511435 -0.130561 -0.680547
1118 49.6494 22.9025 13.3291 -0.275163 2.02438 -0.50902
486 17.9487 25.4766 13.3873 0.33246 -0.710583 0.68938
2724 54.4093 24.4417 13.0177 0.624686 -0.760639 -1.54676
3710 13.917 26.3919 13.5542 -1.25901 -1.19584 -0.0451158
2114 0.834635 28.191 13.269 0.657555 0.508497 0.0241543
308 12.209 27.0783 13.4919 0.191003 0.723687 0.887965
1622 19.3041 27.3799 12.8637 -0.486278 0.285337 -0.216976
2613 43.627 29.9535 13.3766 2.06774 -0.487137 0.256883
435 68.5033 31.0862 14.1098 -0.580247 -0.0403746 -0.641329
1304 9.49639 33.2374 13.4486 0.6106 -2.49826 -0.169376
2210 10.6133 35.2733 14.1639 0.869059 0.125956 -0.14313
964 35.3203 35.3392 13.6586 0.612576 -0.668456 -0.0312632
85 34.1577 35.0695 13.8662 0.337783 1.67588 0.330001
3722 38.6614 35.8871 13.5872 -0.06548 -1.95558 1.0634
1954 39.3497 1.36279 14.2718 0.993101 -1.11521 1.14605
3511 48.9982 1.39189 14.7974 -0.249536 1.16452 1.12186
1912 58.0305 1.76222 15.3219 -0.684452 0.04201 0.403959
3273 13.2864 5.87855 14.7852 0.649445 0.0323701 0.312969
665 23.3482 6.71793 14.5166 -0.99956 -0.662598 0.387488
2636 50.1123 7.94478 15.0209 0.819344 0.756949 -0.422321
2569 66.9315 7.26333 15.5011 1.57047 0.870237 -0.632301
1334 2.90568 8.72444 14.3336 -2.25426 -0.278645 -0.966401
756 11.9379 8.64708 14.5914 0.770841 0.586402 -0.57705
2299 14.1097 8.9115 14.7278 0.559709 1.56834 -0.572302
3971 15.7993 9.42458 14.3237 -0.423475 0.0930645 1.41604
1621 43.2522 8.63835 14.7532 0.667288 0.94406 1.69251
1106 70.5044 9.01694 15.1944 0.146928 1.55778 0.273343
2079 11.2996 11.2416 14.1847 -0.0630727 0.957691 -0.831326
3254 45.2089 10.4064 15.2775 -0.0252447 1.71078 -1.01449
42 71.2573 11.0607 14.2144 -0.0826771 -0.0332588 0.55419
760 27.6676 14.2271 15.3134 -0.342271 0.663119 -1.02267
1753 40.5434 14.5327 14.3904 0.498952 -0.501215 -0.67348
1659 52.4134 15.0319 14.6113 2.282 -1.065 0.491231
705 25.9651 18.051 14.6156 -1.10158 0.263828 -0.651812
3687 27.0975 20.401 15.4434 0.37614 0.187582 -1.03437
1592 58.0349 22.0517 14.9225 -0.190333 -0.638063 0.308118
3769 22.1074 23.147 15.5734 -2.03335 -0.0228782 0.790237
637 21.7665 24.2801 15.2662 1.89627 -1.26448 -0.455199
1242 69.0172 24.2168 14.3399 0.362307 -1.43396 0.0499116
2488 68.6976 28.287 14.3829 -1.39529 1.05939 0.287663
3301 53.6982 29.5581 14.4129 -1.38721 0.652612 1.41658
2249 6.87519 31.8945 14.2022 1.34753 -0.520277 -0.736699
2013 17.6871 33.1863 15.1783 0.0980244 -2.24894 -1.66666
3642 19.6748 34.2832 14.6838 0.205778 -1.16999 -0.145357
2301 34.7872 34.6353 14.8072 0.0390111 0.272773 0.943182
3140 38.4263 35.8912 14.6767 0.650412 0.367052 1.1674
2072 32.7895 2.71756 15.923 -0.458482 -0.16013 0.332522
1769 55.3692 1.42025 15.6831 0.433178 -2.01278 -0.0205145
1960 58.7111 3.3719 15.8961 0.45767 -1.64304 2.73653
2231 62.1731 2.8345 16.2606 -0.974591 0.942272 -0.269695
1180 61.7142 5.12355 16.6254 0.112015 -0.750658 -1.556
2065 67.4749 5.24534 15.9078 1.91516 -0.908118 1.42937
1675 3.95681 6.91586 16.0797 -0.276777 0.494722 1.2161
1610 34.9042 6.2016 16.6687 -0.607746 0.735682 0.656896
3164 24.6798 7.14745 16.9774 0.971564 1.55873 -1.81754
1832 19.1524 10.099 16.8399 -1.76942 -0.666685 2.19249
3541 52.2462 10.8579 16.3524 -0.420174 0.00990468 -0.517566
2005 58.4608 10.5464 16.4033 -0.834855 0.172054 0.179715
3106 25.0923 12.1802 16.8005 1.16359 0.00635617 -1.86444
1782 28.2343 11.9476 16.3042 1.2421 -0.805785 0.0116962
2334 28.6764 12.7478 15.9296 0.997476 -1.26633 0.301615
1888 65.9763 13.0458 15.7654 -1.99821 -0.361327 -0.396999
3248 4.54326 14.6185 15.937 -0.358208 0.65728 1.44697
1461 42.7989 15.4762 15.6248 0.0764556 -0.850893 1.1876
2389 73.6539 16.6199 15.6005 -0.15 0.382542 -1.40148
1332 20.4465 18.0124 16.7976 -1.47054 0.456297 -0.929059
3188 27.6504 17.7459 15.8822 1.00571 0.516536 0.207663
2952 54.3903 18.6564 16.8636 0.723773 -1.56036 0.515061
545 14.7707 20.7566 15.7299 0.630688 0.339636 -0.382464
968 37.2969 20.4848 15.6636 1.68507 -1.84298 0.0421447
1881 45.1038 20.7271 16.7338 0.620566 -0.0543138 -0.973943
2868 49.3307 20.49 16.6965 -0.595882 0.456228 -0.394717
629 68.784 20.0976 16.554 0.0332896 -0.845697 -0.321321
3270 46.3396 21.7855 16.3527 1.05774 -0.161119 -0.0547853
506 12.6603 23.36 16.0632 0.681475 -0.462855 1.08113
1268 46.2234 26.8684 16.0918 1.44744 -1.45676 0.598913
2795 60.3045 25.5511 16.174 0.26924 -0.0750988 0.291848
2447 28.5128 27.0281 16.7635 -0.346748 0.801684 -0.316429
1650 72.3035 27.8691 16.1445 1.59296 -1.73823 0.318317
3053 2.42112 30.6994 16.6274 -2.11124 0.804791 1.31627
2160 53.3032 31.1824 16.4626 -1.14883 -0.500277 0.143377
2665 69.3783 31.9771 15.9703 -1.11514 -0.369327 -2.26124
1361 44.6255 33.7218 15.6505 -0.786185 0.429472 0.437559
2517 52.9373 34.171 16.3332 -1.82704 0.118159 1.23921
1033 38.1094 35.6513 15.9213 -1.43086 -0.0961679 1.91179
2791 15.9706 0.562901 17.4397 2.2707 -0.584366 1.14401
905 7.85474 2.16348 18.3361 -0.365213 1.82011 0.631465
888 46.7873 1.62801 17.6177 0.55949 -1.37529 0.363833
912 14.879 3.71683 17.497 -1.33057 -0.981539 1.8313
283 30.0246 5.05294 18.1732 2.15975 1.32264 0.271719
1330 23.642 5.75967 17.6685 -1.79135 1.5625 0.0757505
3664 28.5306 7.91004 17.4971 0.429514 -0.240204 1.25677
3870 38.7122 7.43874 18.1554 -0.642159 -0.714465 0.404198
1815 71.9174 8.32337 17.6121 -0.130762 -0.107758 -1.07596
2074 62.3324 8.85145 17.2076 -0.909485 0.584143 -1.27748
1193 68.7586 8.91598 17.4953 -0.295777 -1.19543 0.801505
3317 12.194 11.1796 18.4083 -0.96843 -0.866791 -0.790494
3222 38.3066 10.1026 17.4042 -0.0672209 -1.01661 0.143645
482 28.3901 11.5357 18.2932 0.0320923 0.377684 0.136059
3215 32.5777 15.1204 17.5373 1.43403 0.425834 -0.318577
3875 40.1343 14.8577 18.2653 -1.45457 -1.49031 2.10523
1452 44.6894 14.9411 17.0537 -0.0539828 1.30611 -0.409956
1250 56.796 15.4136 17.2925 -0.725288 0.0304469 1.47826
3394 67.452 14.4034 17.7547 -0.426078 1.04164 -0.994017
502 51.3404 16.4036 17.2986 2.01895 -0.0193787 -0.0948079
1593 15.4737 18.4518 17.1498 0.773618 0.560593 1.00594
3114 37.8467 18.7214 17.2882 1.35589 -0.415335 -1.31935
1594 45.0718 19.2423 18.0939 -0.577453 -1.27946 1.96367
577 59.3821 19.3257 17.1238 0.227408 -1.65331 0.573879
2153 44.1707 22.8216 17.5234 -0.639762 -1.13118 1.6284
2584 37.6816 25.4189 18.0638 -1.98298 -0.601202 0.357619
1910 48.1956 25.3473 17.2034 0.898272 -1.14243 2.04232
1041 64.923 24.5449 17.7651 -0.447698 1.08336 0.362909
1556 47.3921 26.6157 17.4571 -0.0478431 0.644846 -0.885137
2790 57.198 26.8951 17.3869 0.492758 1.6772 -0.730838
2990 24.3683 28.3068 17.095 -0.0355844 -1.08416 2.23002
1311 44.5381 27.4624 17.2461 1.63113 0.924886 -0.544759
1090 46.9242 28.1975 18.0078 0.699177 1.19544 -0.676747
3041 71.3934 28.1527 17.0893 0.755383 -0.855799 1.30377
2095 57.678 28.8056 18.325 0.551236 -0.721654 1.41745
767 63.3057 28.6055 17.9788 -0.578404 1.45584 -0.107195
1889 0.046817 30.6686 17.5734 1.22169 0.607396 -0.417357
177 35.2793 31.1178 17.1404 -0.76084 -1.75895 0.15768
3464 39.4171 33.0322 18.4022 0.836754 0.588966 -0.107945
427 41.028 33.0366 18.3651 0.663606 0.910197 -1.85024
6 19.103 34.0728 17.4166 -0.131459 0.542566 0.575235
987 65.1858 34.3233 18.3703 -0.47974 0.685116 2.22668
2690 44.0522 35.4469 18.0147 -0.398195 -0.0616804 -0.14675
1841 45.4579 36.738 18.0698 1.26221 -0.913539 0.209184
1224 64.5534 36.27 17.346 0.810478 -1.67922 -0.170879
3791 18.8806 0.767048 18.9037 0.242922 -0.348244 -1.63001
3849 34.4924 0.305396 19.0643 -0.502339 -1.14282 -2.03286
1505 72.5212 1.53666 19.4526 -1.13073 0.558529 0.351981
4 6.82363 2.92775 18.6116 -0.245975 -0.283018 -0.567629
839 19.6157 4.53165 18.8953 -0.63264 -1.48865 -0.767868
2904 42.9197 5.19103 19.0843 1.66442 -0.483432 0.925526
2238 1.15185 6.4989 19.7422 0.603132 -0.267115 0.367623
3757 4.91998 6.06511 18.6897 0.574822 -0.765914 -0.451454
3171 7.33009 6.98672 18.6987 -0.584072 1.10019 -1.64482
3607 23.8406 7.03545 18.442 0.34388 0.500115 -0.608784
3701 14.1653 10.4253 19.6569 -1.70721 0.00480685 -1.30382
1179 2.28464 14.1936 18.976 -1.34199 -0.732952 -2.99166
469 65.8325 15.467 19.0241 0.0373077 0.594292 0.324149
1747 4.40622 18.3126 18.4246 2.84995 0.152483 1.44146
1827 15.9095 17.2914 18.6214 1.74696 -0.33457 0.609931
237 35.7596 18.1927 19.7902 0.826593 0.182727 0.0948683
2180 41.6699 17.0832 18.4788 0.775368 0.664592 1.40175
1518 3.33394 19.5219 19.2686 -0.723351 -1.63756 0.144861
1921 10.3627 20.3482 19.3201 0.856403 -0.501658 -1.14417
1458 19.6273 22.0376 18.748 0.379717 -2.07174 0.456715
1446 67.1798 24.0088 18.5346 -0.208572 1.90269 0.771604
1644 19.3369 24.795 18.4918 -0.71538 1.83142 -0.796955
1362 25.7549 24.409 18.5655 3.24496 0.396979 0.962015
3455 51.0805 25.6811 18.8161 -1.78525 -1.45298 1.50351
372 47.0314 30.8005 19.4694 0.729137 -0.430695 -0.183574
182 27.9544 33.5756 18.5249 -0.431104 0.461526 -1.08871
2010 55.4011 33.2616 19.7953 1.83467 -0.719645 -0.0175016
1157 60.0476 32.7784 18.559 0.103086 -1.09213 0.808594