ITEM: TIMESTEP
77000
ITEM: NUMBER OF ATOMS
4000
ITEM: BOX BOUNDS pp pp pp
0.0000000000000000e+00 7.3680629972807722e+01
0.0000000000000000e+00 7.3680629972807722e+01
0.0000000000000000e+00 7.3680629972807722e+01
ITEM: ATOMS id x y z vx vy vz
2422 39.5486 0.5051 1.00898 -0.837886 0.876461 0.0628212
1900 48.8527 5.52923 0.46978 -0.793445 0.360815 0.838513
604 4.10375 5.97122 0.0185469 -0.375343 -2.41555 0.197944
710 30.0577 7.65694 0.287264 -1.30305 0.995865 0.941033
3598 70.8557 7.8284 0.502183 1.38155 1.54997 -1.01425
1104 18.8825 9.49742 0.166529 0.81415 -0.866388 -0.168418
1364 1.74188 10.6211 1.31133 -0.579921 -0.545344 0.164407
1825 9.77248 10.2804 0.121607 -1.27845 1.9109 1.84161
1914 23.8962 10.6713 0.987644 0.43537 -0.574312 -0.690303
1868 32.8855 9.94236 0.873682 1.03813 0.57349 0.430987
3849 61.2138 11.1336 0.324282 -0.916282 0.788847 -2.23216
271 65.5928 12.5312 0.412851 -0.540257 -2.10521 0.71731
3472 3.42512 21.7722 1.4041 1.25013 1.41462 0.587037
1251 32.5466 23.6047 1.28566 0.199457 0.353217 0.356369
3635 37.5753 23.0992 0.523064 2.09809 0.328104 0.00600758
2183 61.3892 24.7104 0.0107266 -0.919997 -1.09033 -2.09372
757 48.7256 31.5866 0.148499 0.563256 1.99955 -0.992295
2098 56.7647 31.869 1.31289 -0.203731 -1.10484 1.28669
343 60.8208 33.3139 1.28024 0.147424 1.43417 0.664476
3092 8.89312 34.5043 0.000814711 1.30036 -0.289881 1.71366
1571 11.2656 34.3195 1.29296 0.153345 0.0560729 0.744774
3449 30.6575 34.1237 0.169572 1.76377 -1.34797 1.40573
2746 9.05375 1.40572 1.53265 1.45729 0.609688 2.10587
2660 8.82257 0.313269 1.71469 -1.03968 -0.20421 1.71259
2063 58.1819 1.16211 1.83819 -0.0708037 0.110405 2.68832
2517 69.2321 0.987669 1.95021 1.6584 -0.808411 1.28648
1721 11.5044 1.68801 2.21337 -0.814308 -0.0707038 -1.1814
3435 20.4286 2.2109 2.15386 -0.326592 1.9808 0.0729817
1896 39.363 1.71152 1.52243 0.0931863 -0.192077 0.452222
1722 47.3898 2.59405 1.76087 1.02192 -0.589101 -1.6608
1987 70.2676 3.28441 1.96726 -0.316865 0.126519 0.326088
1138 17.571 4.68111 2.68872 -0.769627 -0.888026 -0.0722501
3433 34.0397 4.83725 1.49215 -0.442377 1.0256 0.749577
2374 44.5553 5.44219 1.66383 0.532853 0.756686 -0.797724
3772 48.3907 5.41736 1.50928 0.331168 -0.0537908 0.232035
3192 54.4234 4.32286 1.90154 0.0467579 1.09756 -0.866434
1566 58.303 4.6828 2.09758 -1.12373 1.53309 -0.059664
93 57.8084 5.77148 2.51588 0.468354 0.09358 -2.59712
3696 34.1208 7.96939 1.78651 -0.0997543 -0.986539 0.0528303
3049 70.0114 9.18741 1.82811 -0.165601 -2.35664 0.394775
495 73.1655 9.44864 2.36841 -1.3516 -0.781691 -1.56954
2311 13.4915 10.5465 1.93095 0.491481 0.51679 -0.193763
347 60.344 16.9787 2.18841 0.503685 0.0824236 1.35368
2930 4.59139 17.8493 1.93421 -1.48822 -0.775901 -0.23218
205 36.3327 17.5157 2.72508 -1.83146 -0.761481 1.21353
1775 41.9386 18.5599 2.75509 -1.13109 0.505185 -1.11482
76 43.8328 19.4454 2.36345 -1.2801 0.92756 -1.57875
3868 54.6362 19.8291 2.22358 -0.530435 0.128717 0.186926
2434 55.8854 21.4179 1.49541 1.34269 -2.31145 0.443493
2104 15.4672 24.0657 2.03288 1.02457 -0.411552 1.25496
1928 1.15901 25.1317 2.21255 1.07272 2.13962 2.45137
44 50.6722 24.7975 2.81097 1.28722 -0.284647 -0.353725
1697 51.9796 25.4886 1.50605 0.657705 1.67616 -1.77131
1414 65.4687 24.877 2.59658 1.40049 -0.580358 -0.125634
1030 52.4244 25.6389 2.59947 0.806728 1.05015 -0.103367
296 4.05058 27.1338 2.36966 0.310961 -1.21585 0.178356
1398 13.1278 27.3936 2.77717 0.750672 -0.289376 -1.45005
1350 26.2353 27.558 2.15369 0.592992 0.632382 1.45478
730 37.8708 27.3097 2.00207 0.673932 -0.146849 1.50642
1174 6.69084 29.0713 2.22656 -0.00286303 2.141 -1.66875
3146 63.6623 30.4267 2.80343 0.527894 0.961034 1.34923
430 72.0931 29.8709 1.45496 -1.28525 0.542917 0.0155983
1845 53.3403 32.0581 2.42921 -0.471165 1.62696 0.114323
3185 62.5934 31.6455 2.42326 -0.620646 -0.106908 2.07485
875 41.5439 33.9509 1.46859 -0.881736 -0.136908 0.755605
833 3.35586 35.3856 2.0175 2.22364 1.06665 1.3075
3806 8.75837 34.8059 2.79077 2.97951 -1.22463 0.612341
1585 10.5137 36.1437 2.31331 -0.514106 -0.487823 0.563617
1908 16.8633 36.7564 2.31437 0.625499 1.59023 1.14114
1357 47.2912 36.1606 1.76886 0.615557 -1.66707 0.830635
1959 67.3904 0.906248 3.67874 0.73909 -1.15238 0.148668
3057 39.7734 1.51519 2.84866 -1.01241 -0.588272 -0.919667
549 55.5788 4.20074 3.12871 2.09718 2.004 0.203347
1886 32.5128 5.10117 3.59285 -1.28572 -0.709034 0.403993
2827 7.48701 6.67637 3.31568 -0.714297 -0.375537 0.221025
558 32.6928 6.28543 2.95559 1.11579 -0.309329 1.23335
1460 44.6137 5.78695 3.35898 1.04205 -0.79194 0.80416
1897 5.97359 7.16131 3.44444 1.23409 -3.16956 -0.560525
2332 12.6011 7.93379 3.56211 -0.795429 -1.54358 0.71392
599 8.39379 9.30447 4.22856 -0.719907 1.97276 -0.551985
2210 13.0297 11.1742 3.08453 -0.965247 -2.81018 -0.0260148
3884 15.1242 10.917 3.23889 0.0291489 0.762238 -1.51131
264 57.6558 10.2272 4.22569 1.11572 1.38914 -1.96387
1780 18.0945 11.8767 3.20344 0.659435 0.343772 2.04923
2220 30.9669 11.8485 4.15231 -0.0666832 2.0186 -2.45119
3182 49.6334 14.6895 4.231 0.492598 0.0881727 0.698733
1244 54.9991 14.3269 3.65071 0.635314 0.452236 -0.0312627
471 7.84022 16.9138 2.89773 -0.209311 0.487001 1.63604
414 36.1662 16.2369 4.19178 0.243185 -1.43888 -0.540309
2850 43.2761 16.7986 4.02174 0.398229 -0.000903435 0.0688395
2935 54.1017 16.7857 3.75672 1.21889 -1.09358 0.189783
621 39.2338 18.1444 3.83935 0.357158 0.052713 -1.71881
3875 38.8314 17.1575 3.653 -0.392476 -0.689823 -0.429144
166 43.8481 18.8939 3.46332 2.46365 0.724783 0.273504
1841 65.2984 19.5075 3.15887 0.103263 1.37315 0.726375
2411 36.6504 20.1984 3.62381 -1.53619 -0.502681 1.2083
2340 64.8285 20.8466 3.47035 -1.32886 1.15695 -0.950027
140 36.9807 22.0423 4.22216 1.05028 -1.17481 1.42922
1098 35.9394 23.9934 4.04353 -0.64589 0.351778 1.40651
2828 46.5923 23.3313 3.70433 0.198581 -0.733867 0.217583
1552 47.4583 23.3113 2.96566 0.693055 -0.196356 -0.324681
2134 31.0526 27.4328 3.34327 -1.44912 -0.685489 -0.893622
335 5.61355 28.3997 3.72759 -1.29362 0.811579 -2.68594
1368 10.169 32.0554 4.09319 0.0741255 -0.522427 0.105182
504 27.421 31.8852 3.99179 0.0345733 -0.30722 -0.0373874
1693 17.5215 35.3841 3.39798 -0.317605 0.685707 0.786609
2186 40.9311 34.1282 3.64013 -0.117773 -2.06962 -0.562613
3172 33.5451 36.0531 2.87469 -1.3075 1.59205 0.73549
460 34.7245 0.275732 4.38667 -0.737182 0.225388 -0.395938
3493 71.5645 1.16885 4.95289 -0.483181 1.62713 -0.279518
1750 39.0183 2.57597 5.20622 -0.234946 1.70181 -0.176578
110 7.69292 6.63716 5.24864 -2.77684 -0.416663 0.907625
2483 7.02248 7.58021 4.36716 0.739003 1.02396 -1.39018
2273 6.00142 8.44446 4.40219 1.49701 0.191217 -0.357708
1632 7.75657 8.2519 5.41493 -0.865207 1.04794 -0.0231255
1041 19.7996 7.27746 5.60235 -0.693861 -0.726759 0.137216
2420 33.892 7.67961 5.27616 -0.286844 0.975964 -0.525093
1506 32.6609 7.20729 4.44894 -0.0501506 -0.468609 -0.759603
1740 6.89838 8.95951 4.5799 -1.55498 1.5443 1.05427
1431 66.4421 12.6177 4.40439 -0.18208 -1.09895 0.366305
3787 52.8261 15.4404 4.43738 -0.448549 -0.419561 0.144863
664 57.5699 15.0229 4.41992 -1.09623 -1.97321 1.08929
2899 11.7416 16.4532 5.34895 -0.596661 -0.141833 -0.674944
3920 37.8459 15.9845 4.45551 -0.575701 1.52239 -0.0176823
2568 60.9021 16.0701 5.38437 1.67129 1.06592 -0.210927
2988 6.85615 17.8309 5.01893 -1.62152 0.769471 1.11878
3207 43.1361 17.9141 4.34899 -1.13758 1.24871 -0.435289
3881 2.89142 18.5885 5.15057 -0.414051 1.61302 0.517194
978 47.3827 19.4537 5.64242 1.40292 1.07483 0.585103
1991 72.772 18.6019 5.10021 -2.20651 0.136492 -0.289761
588 72.4428 19.478 4.56304 0.422971 -1.10442 -2.41554
2535 1.29856 21.1724 4.49218 -1.09694 0.342865 0.284039
24 48.9614 22.2642 4.84561 1.30857 -0.397972 -0.262388
544 11.1966 25.3902 4.52297 0.881356 -1.46458 1.59491
3252 40.4178 24.6246 4.86547 -1.28807 1.58639 0.227144
3606 10.0671 26.6287 4.33106 1.02497 -0.463766 0.387473
529 54.6313 25.8195 4.81957 1.20516 1.65209 1.48453
1574 46.237 27.0081 5.00931 0.993591 0.425243 1.31549
1609 72.2948 27.6185 5.22111 -0.600654 -0.707464 -0.838248
3601 37.1344 30.8398 4.25136 -0.20071 0.18675 -1.35537
2829 32.8419 31.3094 4.57615 0.08801 1.94819 -0.738319
1650 43.0825 32.1048 5.66305 -1.30822 0.158173 -0.421241
3286 9.53408 33.1317 5.23828 -1.00281 -1.70668 -0.421447
1640 40.1516 34.0929 4.49388 -0.296377 -1.25994 1.78746
1561 7.59811 35.6462 4.62243 -0.0990405 -0.203892 1.16718
775 36.8967 36.6089 5.08636 -0.761371 0.0448436 -1.24717
3485 7.46296 0.298563 5.71692 -0.463103 -0.635264 0.480158
2858 58.9986 0.0813145 6.66574 0.479336 0.0159689 0.474474
1314 48.7083 1.85807 6.33853 0.531616 -0.806102 -0.159414
3420 67.842 2.8151 5.79189 -0.363087 -1.29066 -1.09937
1806 21.6142 3.09639 6.60905 -0.747196 -1.24442 -1.25941
3959 25.6963 3.59702 6.16646 0.288442 0.0211297 -0.597926
1642 31.218 3.15674 6.40626 0.226928 0.412597 1.17122
90 39.3313 3.78034 6.13318 -1.26512 -0.643484 0.821167
1419 36.2204 5.18423 6.00596 -0.44584 1.01763 -0.494362
883 4.49437 6.51307 6.9096 -0.0616707 -0.325799 0.0076357
1824 60.9941 6.37236 5.99835 1.15016 -0.754663 -0.255156
1983 62.0322 6.55855 6.78912 1.32793 -1.23881 1.72296
3701 33.6866 7.83893 6.69216 -0.549297 -0.804673 -1.1121
2456 43.9382 7.86843 6.5418 1.16848 -0.93909 -0.465163
3917 32.8372 8.82972 6.43041 -0.477302 -0.932324 2.16329
2202 40.9326 8.83293 6.38815 -0.184934 -0.449893 1.85952
1372 21.6438 10.1783 6.50054 -0.189756 0.320661 1.51114
793 26.799 10.1001 6.42434 0.784557 -1.6734 -1.24603
152 28.0404 10.6914 6.46926 -0.0111668 0.226788 -2.03299
2509 0.196225 11.7415 6.58779 -1.32184 -0.0295631 0.166066
3237 1.82392 15.2729 6.91071 0.225166 -0.330079 2.48459
3872 6.49309 19.5613 6.34923 -0.0300472 -1.14956 0.544396
3784 25.031 19.4946 6.50131 0.911375 -0.681249 -0.0359051
3235 59.8213 19.6096 6.89516 0.170259 0.702921 0.28135
3032 23.1235 22.6583 7.03542 -0.204878 0.325511 -0.0359449
636 53.2959 21.6115 6.40059 -0.434001 -0.636095 1.20424
1795 3.91812 23.5455 6.76704 -0.260899 0.0193044 -0.494204
2625 40.4314 22.8349 6.396 0.322338 -0.480203 1.14004
366 66.5069 23.7603 6.37746 -1.83802 0.169601 1.60374
2889 2.13274 24.6792 6.87466 -0.810099 2.01022 0.279587
1056 42.5994 24.7293 6.4648 1.00252 -0.870317 0.552611
1254 2.13952 26.836 6.20936 1.19177 0.495928 -0.73431
3548 8.72662 28.9167 5.83648 0.398178 0.992092 -0.718443
2010 17.1407 28.9292 6.88407 -0.439236 0.258147 0.532617
73 32.1758 28.3885 5.9116 -0.929082 -0.773283 -1.75633
1578 24.3614 31.6303 6.13727 -0.523734 1.113 -1.30283
3178 1.47296 33.6479 6.01418 0.524706 1.46482 -0.432298
1769 11.2902 33.0832 5.93406 0.740967 -1.56589 1.09929
3803 17.1602 33.5188 6.71347 -1.45327 -0.0569759 0.192915
2992 27.8055 33.8938 6.36136 -1.66836 0.668274 1.75226
1093 31.5766 35.6739 5.98683 0.119489 -1.29554 1.24618
2974 25.7019 0.34461 7.14246 0.652127 -0.0852708 0.560802
2738 1.05108 2.82829 7.28452 -0.742223 1.69356 -1.82667
2132 24.3737 2.03694 7.38036 0.299588 -1.92917 -0.00462027
2312 69.3165 2.60516 8.4669 0.819871 1.08093 -1.10481
961 21.6443 4.92508 7.72074 -0.151686 -0.343969 -0.621417
869 52.7121 4.78642 8.1324 0.228669 -0.162083 0.290019
1572 17.6365 5.90041 7.6886 0.132262 -0.480477 -1.25612
2399 19.5107 5.85654 8.12949 -1.82426 -1.27872 0.118744
3189 7.9126 7.22132 8.29679 1.98841 1.82048 -0.880483
2382 44.9478 7.70481 8.24545 1.97184 1.25606 -0.85191
3119 64.8154 7.84068 7.15862 0.257937 0.496497 1.22247
2368 13.0745 8.60422 7.87664 -0.206546 0.401805 0.524111
2680 12.8252 11.1032 7.17159 0.330702 -0.948252 1.36635
3128 59.0251 12.2645 7.57704 1.31882 -0.196968 0.874464
2784 21.71 12.9754 7.4591 0.219079 -2.13487 -0.498181
267 42.1622 13.6125 7.47091 -0.618664 0.0140448 -0.103488
2119 62.5197 13.4906 8.13833 0.675859 -0.0377695 -0.395049
1242 34.6022 14.9016 8.35154 -1.2779 -0.853553 1.69645
3512 37.9316 15.435 7.5341 -0.67796 0.56751 0.156389
1603 68.1881 15.186 7.73457 -0.783228 0.674276 0.74953
2402 36.7491 16.9018 7.97612 -1.14982 0.199381 0.628294
2937 34.887 17.1293 7.92782 1.58931 -0.661976 -0.917352
2375 23.4612 19.5797 7.81799 -1.38592 0.636725 -0.207845
2224 50.8207 18.8664 8.34874 0.56155 0.337664 0.479288
2706 32.6501 20.5565 7.85166 -1.64806 0.364216 -0.603461
2971 50.8232 19.9192 7.54878 1.47546 -0.101619 -0.66819
2043 22.1272 22.5564 7.9038 -0.417638 -0.265922 0.105386
788 23.9586 21.9026 7.83659 0.135444 0.833961 0.0553791
52 62.4676 28.1143 7.62106 -1.36675 0.377375 0.483321
3928 11.6047 29.1576 8.11052 0.906773 0.941992 0.944292
2304 60.5868 30.9062 8.45003 -0.778589 0.692907 -0.31622
2848 5.71902 35.4696 7.89606 0.27721 -1.70398 1.26837
292 20.6438 35.5224 8.00466 -1.52996 0.0249024 0.029022
3064 49.8821 35.8735 7.28336 -1.10181 1.73328 0.408409
816 70.9663 0.573789 9.24542 -0.691734 1.04504 -0.231562
2122 0.183314 1.68715 8.57446 -0.226299 -0.856783 0.965831
2608 2.08424 1.74695 8.96272 -0.96536 -1.91754 -0.798166
1058 17.0225 3.57331 8.95534 -2.54108 -0.505193 -0.316116
3390 33.4407 3.1503 9.87405 0.979009 0.382542 -1.01343
3678 34.4605 2.96356 8.96688 0.0148691 -0.535037 0.111377
3450 53.1953 5.60029 8.70493 -0.127417 -0.845875 -0.489967
1195 5.79077 7.35849 9.41189 -0.60631 1.63938 -0.0477629
2498 50.0578 7.70715 9.34696 0.155165 -0.0999975 0.390346
2389 8.55453 8.88224 9.54289 -0.715167 -1.23792 -1.6568
2039 25.5843 9.82198 9.85189 -0.856812 -1.14218 -0.738183
2476 16.4424 10.9224 9.07285 0.484559 -0.17698 1.23941
120 47.848 10.7804 9.11331 0.896718 -0.0345887 -0.333747
3160 12.6029 12.6456 9.45521 0.185979 -1.22445 -0.0969087
655 48.2551 12.3127 9.36182 -0.0395381 0.733316 -0.813499
863 71.7104 11.3385 8.59854 -1.49361 -0.404182 0.573335
2853 12.3754 14.2927 9.75426 -0.307486 0.99315 -0.371916
2326 13.6272 14.372 8.87878 0.871633 -0.556123 -0.175025
2014 23.2435 15.5668 8.96323 -0.265134 1.26515 -2.77302
446 49.4289 14.7599 8.56988 0.173239 0.402211 0.841236
1096 55.8961 14.8838 9.24005 0.921547 -1.16443 -0.780944
729 16.1517 16.0161 9.39951 -0.821777 -1.81017 -2.11997
3440 16.9554 16.8575 8.7568 -0.704857 0.246564 -0.840071
632 62.8962 16.8266 9.4351 -0.0825127 1.35054 -1.24159
1999 36.4405 18.1439 9.32982 -0.11661 -0.0215431 1.12834
3453 64.8705 17.652 9.42822 -0.516031 -0.562775 0.989151
2540 36.8395 19.355 8.81516 -0.606313 -1.34472 1.68647
849 65.1072 18.7062 9.60161 -1.9074 -0.205847 1.52513
3558 69.8416 19.1064 8.90248 0.566894 -1.28162 -1.48565
2062 13.5848 20.4971 8.77159 -0.696168 -0.351827 0.0254751
1858 28.9987 22.4755 9.89487 0.825181 0.665721 -0.550649
2617 66.4589 21.2717 9.07398 1.83073 2.6357 -0.557359
2712 13.2247 23.0708 8.66091 0.554792 0.966992 -0.862357
3645 15.8973 22.8948 8.92912 -1.01643 -0.109976 -1.84339
1843 62.2496 24.9771 9.3396 2.62118 -1.15609 0.449401
1875 21.6996 26.0874 9.90164 -1.70791 -2.00332 -0.360477
806 55.964 26.5735 8.72569 -0.550604 -0.892535 -1.40516
147 49.7688 27.5592 9.70587 0.0550712 0.0248227 0.0848855
2569 68.7017 28.2179 9.2198 1.5527 -1.01075 2.56482
1816 52.727 29.0032 9.82761 0.666 -0.0584415 0.53722
3892 38.6782 32.6998 8.94947 0.367885 0.959573 -0.31008
191 16.8239 35.6769 8.68763 0.420224 1.11534 -1.19533
3197 5.52404 0.473726 10.2165 0.214773 -0.320474 0.585232
1878 8.77204 0.024909 9.91898 -1.28322 -0.499811 -0.0230479
891 0.644777 4.28387 10.6545 0.141417 1.12233 0.868922
861 37.5579 4.97813 10.8419 -0.1769 -0.0990827 -0.828007
850 0.997417 5.66827 10.6075 0.352701 0.262434 -0.792046
584 33.219 6.58052 11.0606 -0.42612 -0.243551 -1.67775
1301 5.43907 7.65068 10.6419 1.93775 -0.434648 -0.383696
3088 64.5991 7.89333 11.1384 0.453569 0.809171 -0.933815
3248 73.5722 7.30439 10.9945 -0.364601 0.491648 -1.85346
947 21.0724 10.2781 10.4531 -0.85914 -0.546009 -0.42979
3456 60.724 11.3457 10.696 1.42591 2.47817 0.334542
610 4.3006 13.1178 10.3146 -0.166324 0.972811 1.07959
3082 5.09045 13.2716 11.0243 2.11037 -0.692382 0.404219
1564 26.8844 12.8332 10.9642 -0.615689 0.39716 0.133528
776 12.0007 18.8195 11.0673 -0.173782 0.200799 1.08239
282 60.9933 23.7656 10.6565 -0.331936 0.939648 0.82007
2763 22.9322 25.6241 10.65 -1.49243 0.113112 0.567043
2182 38.1448 25.6254 10.2486 -0.0382059 -0.626661 0.852536
84 1.4584 29.2112 10.5298 -0.809072 -2.42705 0.45562
474 5.23304 29.1757 10.7791 -0.296943 -0.153353 -1.16721
3771 26.8155 29.5596 10.9078 0.192453 0.276933 0.946819
538 50.12 28.5749 11.2444 0.988926 0.00831427 -0.631483
903 13.2661 32.4102 11.1669 0.429481 0.779972 -0.172516
333 22.2269 32.4433 10.0641 -1.03982 0.677515 1.26605
2747 26.1567 33.7257 10.3408 1.40369 0.824517 1.31045
1876 26.2384 35.3067 10.9591 -0.893261 -0.597727 -0.275618
2352 61.8831 36.5746 10.1576 -0.716489 0.766251 -1.19714
2135 43.7089 0.209343 12.0884 -0.432791 -0.682929 2.50606
2338 24.853 3.06167 12.1668 -0.888234 0.0879306 -1.08584
379 28.4673 5.14493 11.9776 -0.0438325 0.690019 -0.265176
3388 31.5579 4.77314 11.8033 -0.869229 -1.5646 -0.638544
2185 39.626 5.06774 11.4503 -1.02774 -0.424419 2.14367
3994 47.2794 4.50665 12.4521 -1.62484 -0.428589 -1.53622
3934 56.2212 4.45133 12.3851 -0.541861 -0.690315 1.19557
3239 71.1552 6.25667 11.5117 -1.03788 -0.388577 -0.37386
3108 60.0376 11.2145 12.249 -0.347069 -1.15696 -0.262927
3229 56.734 12.2037 12.1724 -0.793692 0.0933031 -1.56233
1874 24.0675 13.956 12.3891 -1.06097 -0.207495 -1.09263
3498 63.5209 13.6263 12.4897 -0.264164 -0.3506 0.368641
3926 66.7744 14.458 12.7243 -0.822208 0.171072 0.509624
2638 36.1332 16.3644 12.0913 -1.05092 -0.475447 1.65572
3269 38.0331 17.0554 11.5768 -1.16159 -0.226658 -1.45187
2725 13.039 18.9752 12.0711 -0.365523 -0.965033 -0.368633
2819 17.7945 19.7907 12.1755 1.16345 -1.78958 -0.918336
3026 29.6265 18.4965 12.3288 0.572645 -0.00710362 -1.5918
3369 41.6612 18.8149 12.0152 -0.592978 1.30493 0.021783
384 54.1419 21.2461 12.7103 0.58308 0.408559 -1.60505
2801 42.1314 22.0587 12.3652 1.653 2.62998 -0.910843
100 12.7105 22.8563 12.0419 -0.908889 0.491123 0.410386
911 37.6641 22.6931 12.3803 0.128588 2.11465 -0.97566
3129 11.379 25.4184 11.3591 -0.927922 2.06457 -0.805838
3227 35.9765 24.8593 12.6332 -0.118326 0.0722209 -1.98716
3309 43.3612 24.8092 12.3337 -0.256453 1.27553 -0.481431
1486 64.3836 25.1934 11.6581 0.497432 -0.621791 0.210239
1198 19.0024 26.4201 12.0584 -0.831584 0.395661 -1.6339
2837 52.7561 26.479 12.0241 0.477191 0.0641686 0.862943
3375 41.2598 28.36 12.4076 0.950242 0.628575 0.745028
385 52.2669 29.5747 12.4272 1.34559 -2.77211 0.0444027
2246 39.8575 31.0705 12.0834 0.238726 -1.28924 1.22288
798 53.4366 29.7637 12.5367 -0.146598 0.795326 -1.36413
92 10.5603 31.8665 11.9754 0.309151 1.80483 0.65886
3134 13.7436 31.2279 12.2153 0.528548 -0.688729 1.71714
876 19.7465 32.3625 12.019 1.30722 0.3499 -1.48096
3593 20.1349 31.2802 12.2608 -0.149249 0.857363 0.387269
3944 69.9432 33.4097 11.637 1.42335 -0.338403 0.965277
2266 19.3564 35.1688 12.3967 2.31735 1.63258 1.19823
745 62.3975 35.1849 11.3791 0.211208 1.83632 0.379622
3460 67.6261 34.7087 11.4108 -0.332181 -1.41496 -0.000475111
1203 4.91564 36.2454 11.8091 0.57937 -0.997492 0.358683
836 9.27354 1.37017 13.071 1.17985 2.3233 0.408274
1453 23.6281 0.314163 12.9436 -0.995003 -0.347742 0.301037
2313 60.5488 0.665631 13.4927 0.686599 -0.222553 1.18586
57 16.0041 2.04344 13.1432 -0.412518 -0.429953 0.0337499
1670 55.0728 2.12528 13.027 0.115897 0.55856 -0.78689
2555 54.5357 5.39953 14.0121 0.618376 -0.362756 -0.0439899
3228 12.265 6.93068 13.6433 1.3837 0.533558 -1.51287
2672 46.8159 7.59833 13.8043 0.474173 -0.362698 0.126738
1802 33.0155 9.51185 13.1952 1.05144 0.683272 -1.56283
1316 69.9788 11.0345 13.2184 -0.250216 -0.0711867 0.693561
2831 17.99 12.6812 13.38 0.350776 -1.00506 -0.00434953
3432 44.5223 11.4836 13.7537 -1.40402 0.558936 -0.053114
915 68.8746 12.4503 13.7181 -0.605321 -1.77193 -2.2084
1735 23.2851 13.6957 13.8301 0.0862456 2.05917 -0.57609
1125 41.5785 13.078 13.4971 0.745235 -0.0830492 0.400954
3530 73.314 14.7548 13.3213 0.613243 -0.00853129 1.54896
3109 0.218374 16.1799 13.9191 -0.86275 -0.529062 -0.703334
1774 24.3804 17.4589 13.0627 -1.59879 -0.806846 0.270242
3517 2.55881 18.8945 14.1619 0.843883 -0.880495 0.49807
3943 14.9608 21.5331 13.2524 -0.644818 0.210668 -0.889913
3840 2.46307 24.0017 13.156 -1.25556 -0.34304 0.567729
3886 0.174127 24.306 12.8955 0.706817 0.0758834 0.125223
582 2.62337 25.2598 13.9751 0.588049 0.866515 -0.0311734
631 34.4811 24.5698 13.4056 0.844445 0.0131325 -0.714726
3327 60.5537 24.4964 13.7856 -0.170083 0.211464 1.10974
2962 67.7875 25.1285 12.8572 -0.588055 -0.857308 1.79119
475 8.96093 25.8791 13.2641 -1.19756 0.33378 -0.69526
435 26.6271 26.7379 14.1588 -0.204973 0.591271 -0.0772489
2 8.0278 27.6021 13.3128 0.826443 2.19673 -0.658347
2396 53.3391 28.687 13.5346 -1.0345 -0.628624 0.635829
450 14.5235 30.4462 13.1942 2.19959 0.56784 -0.411088
1754 14.549 33.5359 12.8848 0.1411 0.511861 1.98079
1382 43.3035 0.929166 14.6974 -1.22501 0.552577 -0.145799
2252 8.08553 1.78791 15.229 0.32696 0.753622 -0.256444
3468 42.4263 2.41268 15.0042 -0.797547 1.03991 -0.932584
250 63.3579 1.44648 15.1108 0.0251203 0.24638 -0.513146
2479 10.1595 3.52317 14.4872 -1.19284 1.33698 -0.439396
977 66.1839 3.89183 15.4796 -0.559877 -2.20816 0.146201
2512 2.10184 5.39313 14.648 -0.591852 0.919143 -0.776807
3850 10.7606 4.57862 14.3782 0.139984 0.643212 1.50964
2736 27.0296 5.18481 14.284 -0.503721 0.50482 -0.45683
3611 55.2882 5.17629 15.0709 0.706979 0.984398 0.446695
3429 60.6546 4.68061 14.5337 1.95947 -0.0024018 -0.490371
898 66.3504 5.28753 15.5387 -1.35862 0.565643 0.468314
3301 29.4779 5.67889 15.5235 2.77499 -0.705443 0.163274
2890 34.3906 5.73963 15.163 -0.504489 0.667314 -0.430553
3911 42.1551 7.36901 14.424 0.000285713 0.171203 0.85445
3430 42.4863 9.69675 15.2343 -1.27442 -0.849914 -0.413807
2300 5.21519 10.389 15.0187 0.811355 0.874385 0.62873
2673 59.9329 9.95298 15.0669 -0.252981 -0.608792 -0.319315
1361 45.952 11.6951 15.4933 -1.10399 -1.09999 -0.411153
1529 59.8799 11.4853 14.6027 -0.225251 -0.150547 -0.262703
145 32.9784 14.1075 14.2936 0.682061 0.0215991 -0.916264
103 40.2244 12.808 14.8878 -0.531141 -0.0830968 0.361325
2808 4.60128 14.3545 14.8409 -1.75374 1.40762 1.9751
634 59.2963 14.1846 14.3302 0.197261 1.20429 1.50347
2357 28.8896 16.4875 14.7497 -0.329866 1.20096 -0.68561
3 71.8618 16.0479 14.9001 0.679014 0.569251 -1.27878
764 14.1982 17.7576 15.4418 0.137652 0.195514 -0.401019
3183 20.044 18.7574 15.0583 0.19676 -0.358634 0.51604
1169 24.7369 19.3269 14.7927 -0.469448 0.867083 -1.26475
2616 41.432 19.9998 14.8181 1.48407 0.940063 0.305605
3362 14.4174 22.9261 14.9276 1.86112 -2.61333 0.121434
2421 50.3388 23.3062 14.3755 -1.94788 1.09154 0.119162
2216 24.3518 26.8778 15.0711 -1.05844 -0.733005 0.243061
2208 36.2824 25.6998 14.4282 0.466602 -0.822944 0.115586
3832 60.1998 26.3695 14.7853 -0.981344 -1.20706 -0.788905
2019 61.0688 26.6621 15.3435 1.41933 0.558819 2.15976
3953 0.0320747 27.9498 14.6816 0.663827 -0.990934 0.628565
941 17.7716 27.452 15.2217 -0.177286 1.27037 -0.764752
445 43.9919 27.6678 14.9527 0.0586434 0.0642747 -0.577871
3165 64.4691 28.1656 14.6023 -0.276671 0.00165458 1.03652
3995 73.2088 26.972 14.5093 -0.949927 -1.57861 -0.014956
2277 66.3 29.8659 14.3445 -1.62124 -0.337428 0.00539803
598 35.8798 32.3372 14.6312 1.09572 -2.22767 -0.0366554
857 49.8962 32.2375 14.7538 -1.48209 -1.50643 -0.697223
3590 69.0262 32.125 15.1712 -1.10107 0.990605 -0.19784
1777 11.8738 32.8044 14.5342 1.27808 1.58997 -1.84311
1976 49.5762 34.5855 14.4541 -0.726444 -0.285521 0.448789
179 5.70982 0.180439 16.0562 0.621228 -1.65916 -0.446792
3021 12.9995 0.159784 16.4805 0.684273 1.04228 -1.42734
3347 26.8711 0.228239 15.814 2.31895 -1.08882 -0.819148
3541 27.6669 0.49754 16.7309 -0.304982 0.856722 0.73255
3524 31.9108 1.0039 15.9483 0.396027 -0.739518 -0.956126
2124 17.1191 2.58612 16.9228 2.00797 0.846351 -0.452749
356 39.59 1.78959 16.4271 -1.25749 -0.791136 1.66031
5 20.9614 3.13221 16.8042 -0.0915028 -1.28397 0.291694
3349 25.0804 3.74584 16.3685 1.83652 -0.67558 -0.594385
2947 32.9532 4.05622 16.2484 0.0440689 -0.528328 0.826731
2834 59.9293 5.46698 15.7162 -1.93643 0.837771 0.755875
74 19.8884 5.8845 16.4586 0.17927 -0.244445 0.155769
1556 6.2839 10.6928 15.6651 2.43174 -0.164066 -0.523788
1667 26.6517 10.6311 15.8669 0.724144 0.392302 1.98497
3570 34.932 10.4965 15.9624 2.57907 0.857692 1.43036
425 26.8505 12.3652 16.8863 0.399292 -0.00713738 -1.41611
2167 39.4533 12.4959 16.3124 0.456037 1.29594 -1.02226
1751 45.188 12.6074 16.0424 -0.543111 -0.231795 -1.2404
968 60.6594 11.3808 16.7732 -0.865459 -2.39472 -0.682339
3877 54.058 12.9972 16.7224 -0.26395 0.983212 0.0845913
229 19.1736 14.6213 16.209 0.10975 -1.68092 -0.0517601
799 39.3023 14.7663 16.5229 0.0490959 -0.560456 -0.13838
464 40.5263 16.8058 16.1304 0.876409 -1.43727 -0.500985
64 47.6552 19.6114 16.7712 0.294878 0.785153 -0.578601
1450 6.62528 20.6998 16.5416 0.791775 -0.699336 0.350019
1394 56.0179 20.8899 16.7263 -0.550184 -1.70634 -0.49238
3402 48.9352 22.1509 16.6204 -0.185794 -0.915416 -0.563948
1036 56.3541 22.4505 16.5559 -0.0295595 -1.29664 0.519645
363 42.0193 26.3654 16.6249 1.59239 1.15832 -0.212572
714 53.9381 26.6795 15.5993 -1.0029 -0.746562 0.238468
3363 59.2358 25.8656 16.0433 0.843329 -0.272354 -0.298062
609 7.07114 28.1162 16.5464 0.0388228 2.1262 0.323283
754 7.75759 27.3585 16.9867 1.14122 -1.56627 -1.30541
2560 54.573 27.9741 15.6226 0.799387 0.318067 -0.0233098
370 43.2435 30.8962 15.7855 -0.00192323 -0.353637 0.629793
461 48.3126 33.0489 15.657 -1.22716 0.792723 -0.111291
210 66.3508 33.039 15.8382 0.482499 0.0463736 -0.593372
418 67.3312 32.6093 16.9538 -0.807508 1.11058 -0.379538
759 23.1947 34.8679 16.6949 0.353101 -0.228146 0.442824
2750 40.3749 34.1053 16.4889 0.790334 -0.600293 0.0373529
2844 21.1525 35.89 16.4483 1.61149 -0.444351 0.365195
181 36.5124 36.4534 15.7169 0.497715 0.815319 0.86535
31 50.9127 35.5734 16.1498 -1.62336 -1.40833 -1.61735
3376 55.2444 36.0209 16.9682 0.141981 -0.164301 -0.170882
2501 57.747 35.6147 16.3568 0.970278 2.12828 -1.59118
3223 65.6171 36.1012 16.6692 2.07321 -0.915052 -1.16479
3860 0.299095 1.41325 17.7622 0.102258 3.157 0.706708
3384 12.5112 1.22652 17.0387 1.49387 -0.12696 0.386788
932 14.6047 1.18824 17.301 -0.844602 0.407943 1.25709
3666 1.1604 2.12991 17.0457 0.498476 0.358909 1.19445
325 2.91019 3.73564 17.0237 1.11587 -0.037981 -0.931138
51 24.8579 3.73763 17.6776 -0.621507 -0.598096 -1.73877
756 49.9376 5.21307 17.6048 -0.853091 -0.987621 0.796436
1512 52.1494 4.34986 18.0863 -0.233882 -0.600289 -0.738987
795 53.4734 5.53756 18.3549 -0.430505 -1.54603 0.857766
2773 68.6416 4.39958 17.1354 -0.801869 0.341572 -1.14215
834 9.30924 6.72691 17.6268 0.594199 -1.50289 -1.36852
2270 34.7197 6.87707 17.3152 0.781197 1.57018 -0.177016
2995 8.42614 8.36433 17.8399 1.27391 0.152625 -2.71448
2117 13.8822 8.37262 17.1191 0.801791 0.671024 -0.933036
1888 52.1342 7.21826 18.1824 0.943223 0.144627 0.384521
473 38.5389 8.6246 17.7239 0.606845 0.541476 -0.948888
510 18.6752 14.0955 17.1713 0.596426 0.491714 0.159902
2900 46.3274 14.0044 17.6324 -0.174132 -0.0393438 -0.1253
1683 61.7088 14.0247 17.7844 2.15582 -0.172993 -1.84169
969 70.2117 14.9124 17.5668 0.648359 -0.157224 0.431657
925 8.11402 16.3254 17.3576 -0.141084 -0.968133 0.544224
1618 55.9932 16.4613 17.5166 -0.281152 -0.302009 0.935754
1192 7.56636 17.1448 17.3448 0.820454 0.140525 -0.0293631
2711 17.9075 17.2292 17.5058 1.00334 -0.712895 0.562303
302 42.0227 18.2965 17.4939 -0.457915 0.132841 -1.8072
1089 5.42219 19.6773 17.0083 -1.24509 0.8411 1.40494
3969 42.6883 19.7206 17.4334 0.643578 0.374379 1.75564
1651 60.438 20.1254 17.663 -0.489501 0.69736 0.160448
2576 68.2472 20.2517 17.0407 0.340755 -0.899932 -0.971071
1295 18.7029 23.5346 17.0492 0.158725 -0.322986 -0.466078
2040 52.8579 23.6845 18.0997 -0.800708 -1.02749 0.430265
3476 49.7269 24.7814 17.1423 -0.798084 -1.05074 -0.21207
2358 53.4567 24.8261 17.1846 -0.460715 1.45463 -0.878965
1911 54.5528 25.0151 17.1631 -0.318636 -0.0191296 1.26578
1182 54.0792 24.1969 17.8694 -0.717271 0.342769 0.582703
1707 32.5618 27.5691 18.2152 0.944895 -0.275846 -0.266389
2685 55.0483 27.5153 18.0092 0.726073 0.367922 -0.726357
1575 70.6945 27.6411 18.3332 -0.37485 0.0734898 -1.56796
2214 1.69506 29.4485 17.4407 -0.580459 0.51359 0.311747
3742 2.90328 28.7364 17.7536 1.08119 0.84916 1.3303
1998 4.40073 29.4567 17.0124 -0.063456 1.14486 -1.02061
3008 8.17416 28.8259 18.1879 0.8615 -0.240018 0.710049
1860 22.0348 28.412 17.1594 -0.0681986 -0.804038 0.648728
1746 61.1143 29.5201 18.0136 -1.76963 -0.831537 0.0284911
3321 22.2922 30.4506 18.267 0.981885 -0.367319 0.181066
2533 58.0777 30.1439 18.2429 -0.262404 -0.982295 0.714196
938 6.23311 31.6407 17.2198 0.582962 -0.97258 0.932164
1543 7.97854 31.567 17.4831 -0.506627 0.926849 0.107474
1395 66.4218 32.4849 17.5098 -0.801879 0.371237 0.676695
818 67.907 31.4945 17.7954 -1.12386 1.72881 -0.41438
615 67.0727 33.8 17.7707 2.0123 0.149691 -0.081796
1948 11.1041 34.6146 17.2387 -0.404905 -0.268393 -0.564279
1241 68.7621 1.40289 19.6161 -0.0856504 -0.572611 1.57833
1113 68.1891 2.75713 19.5755 0.574139 -0.0292861 2.31692
3544 1.99114 5.86991 18.5925 0.453352 -0.902149 1.02643
3706 9.02506 6.39486 18.9534 -0.017209 1.20564 1.62968
3265 58.4937 7.46105 19.2775 0.2991 -0.870993 -0.909479
25 68.3399 7.64919 19.0685 0.582906 -0.0762586 -1.73348
1803 1.16614 9.1337 19.6712 0.162644 1.88424 0.598685
3287 8.54281 9.45525 18.6418 -1.02267 -0.477939 0.476266
2768 9.16657 11.6481 19.7826 1.72089 1.2906 -1.75758
3584 55.154 11.4392 19.1361 0.00394731 -0.300131 -1.75038
203 67.3937 14.9055 18.9026 -1.24297 -0.0720546 0.510185
1159 17.8103 16.4837 18.4909 0.154956 -0.940085 -0.43586
3240 32.8474 17.1753 18.4247 -0.630023 -1.00464 -1.75901
3191 13.202 18.8068 19.7446 -1.81186 -0.715323 -0.582587
2262 16.6045 20.15 19.6041 0.904885 0.349406 0.628034
1201 0.359822 22.2883 18.8681 0.370958 2.21737 0.466802
1353 68.5985 22.034 18.4358 -0.245539 0.0991208 -1.20277
2491 34.746 23.536 19.6161 -1.63634 -0.115589 -0.604204
2604 54.0798 22.9905 18.8901 3.12652 -1.60276 0.664963
3238 71.0669 24.015 19.0778 1.55516 -1.0602 0.845581
3962 28.7477 25.7632 19.4384 -0.960146 0.502708 -0.12429
297 11.1157 28.2717 18.8554 0.0868823 -0.152592 -1.15464