ITEM: TIMESTEP
74000
ITEM: NUMBER OF ATOMS
4000
ITEM: BOX BOUNDS pp pp pp
0.0000000000000000e+00 7.3680629972807722e+01
0.0000000000000000e+00 7.3680629972807722e+01
0.0000000000000000e+00 7.3680629972807722e+01
ITEM: ATOMS id x y z vx vy vz
977 70.7627 0.582999 0.785776 -0.116398 -0.754023 2.34137
3414 6.36054 2.12549 1.40181 0.113639 -1.49423 -0.964656
1049 14.8799 1.52421 0.225399 -0.654128 0.061531 -1.31268
2377 14.1331 4.67453 0.182022 0.741283 -1.90593 -0.729174
2974 16.6951 5.69404 0.0392556 0.597039 -0.383513 0.429557
3646 26.7079 5.92358 0.651394 1.99786 0.423776 -0.86485
3564 46.9854 10.3942 1.11458 -1.73353 0.22213 -0.416913
3193 55.1899 11.3271 0.618527 -1.40945 -0.218273 2.32082
1845 61.7841 10.9173 0.0892967 -0.532835 1.34267 0.603343
1841 66.6465 10.713 0.33918 -0.391459 -0.0528764 0.037131
2382 10.8401 11.3755 1.0005 2.60289 -0.559968 0.697356
1484 69.0607 13.3661 0.24626 0.234954 -0.75022 0.215324
3472 47.8321 14.4593 0.546915 1.91175 1.81047 -0.134044
1282 63.7812 14.3236 0.0537342 -0.53586 -1.41935 -1.27436
766 29.5964 16.7879 1.22937 -3.0387 -1.64424 -1.12403
2175 72.8645 16.423 1.01027 -0.0894694 -0.656966 0.9307
3183 23.4827 19.3166 0.175278 -1.14315 0.426674 0.973768
3530 66.6971 19.8136 0.608315 0.82371 -0.48909 -0.0125647
311 73.2875 20.3447 0.612607 -0.416486 -0.563588 0.0761125
2833 38.9224 21.5296 0.759364 1.743 0.829958 0.365587
2474 20.6006 23.0333 0.138586 -0.243996 -0.463411 -0.840571
1779 47.6852 24.2358 0.889367 -0.222675 -0.0633528 1.54105
2965 68.3535 24.6791 0.886231 -0.651022 -1.28349 -0.557482
3049 9.85375 25.8212 0.514872 -1.50875 -0.314179 0.318707
2457 36.7024 25.6133 0.831086 1.56143 0.0411373 1.02269
1431 71.6943 28.0864 1.02679 -0.681056 -0.901459 0.0268309
2440 22.8721 28.4303 1.29651 -0.134731 -1.10689 -1.33907
3595 10.8216 31.9665 0.816921 0.731975 0.462171 -0.544104
101 68.8487 34.6235 1.38598 -0.19105 0.498887 0.423182
3007 31.1704 36.0563 0.729893 -0.00133932 -0.614043 -0.00326236
3711 65.9822 36.4313 1.34412 -2.10335 1.33795 -0.854558
811 3.67831 0.0470608 1.57681 -0.158686 1.54393 -0.0494196
3975 5.41499 1.19267 1.477 1.26645 -0.646193 -1.0679
2335 14.3695 0.526553 1.51377 -1.66182 -0.73165 0.715647
1766 67.8846 0.90708 1.74257 1.32969 -0.149687 0.773745
1611 7.38483 3.84535 2.22623 0.0347899 1.35396 -2.56293
79 19.9596 3.71104 2.78698 0.0298194 0.341775 -0.476257
2602 61.5992 6.93551 1.92433 -0.785817 0.362941 -2.04783
273 69.0807 5.68922 2.65651 -0.585342 -0.482281 0.419475
92 14.3886 7.18709 1.74715 -1.28489 2.3601 0.378726
3867 23.9355 8.34742 2.63137 0.964909 -0.315895 -0.644568
1015 55.0228 7.50666 1.85261 0.4396 -0.633564 -2.07227
809 68.0357 9.2995 2.24505 -0.142199 -0.232537 -0.942415
2373 35.222 10.8146 2.31232 -0.0996102 1.79493 -1.10364
2775 55.9201 11.9214 1.84028 1.75065 0.27894 -1.44766
1187 55.001 13.6116 2.37584 -0.725059 -0.528723 -1.35692
3064 66.1239 13.8289 2.16182 -0.983168 0.964389 0.208644
3512 44.8516 16.3039 2.58368 -0.147425 0.965275 0.174139
2121 65.1512 18.2497 2.37051 0.235963 0.704165 -0.726905
3134 19.0445 22.6035 1.78033 -0.376475 0.584826 0.695842
52 9.32859 23.493 1.60084 -1.32826 0.447314 0.118257
3375 21.852 23.2304 2.49958 1.17895 0.200749 0.194199
366 63.4496 23.0496 2.28872 0.77172 -0.815563 0.616601
3787 65.3414 23.0797 2.53553 -0.721034 0.522232 -0.841853
2296 45.7806 24.6758 2.71445 -2.37518 -0.00162823 0.482946
182 39.6037 29.6261 2.54926 -0.892002 -0.503558 -2.14055
3192 54.3441 29.0147 2.03293 -0.126116 -2.23415 -0.0342708
3872 3.24025 32.2192 1.80686 0.851535 0.590838 -0.581122
618 12.1422 32.4459 2.06156 0.204781 0.949322 0.795228
3263 11.7681 33.7683 2.04293 0.962701 -0.0246483 -0.362339
3592 17.255 33.9419 2.24199 0.215299 0.578578 -0.416463
1085 35.1467 35.299 1.95707 0.86513 0.723672 -0.656243
1355 25.8309 36.5464 1.68726 -0.670617 -0.83651 0.0984741
3629 31.9125 36.605 1.99718 -0.263487 0.101476 -0.90599
528 57.6084 1.21439 3.43192 -0.997376 -0.744238 -1.90772
3871 18.1252 1.9516 3.74974 0.0727277 -0.508178 0.316613
168 49.2526 4.56856 4.0207 -1.19023 -0.47473 -0.265213
1393 14.3137 7.13218 3.68048 -0.911751 0.0798468 -0.891277
433 71.5417 7.40121 2.85869 0.251311 -0.893091 -0.350422
1628 7.5289 12.1929 3.79774 -1.26377 -1.16945 -0.837778
1041 25.2203 14.1645 4.16664 0.113883 -0.298407 -0.0883629
2947 36.6386 13.0376 4.15406 -0.309087 -0.529579 0.799288
2332 30.4931 14.7491 4.1104 -1.16879 -0.0897054 0.184711
2402 44.0275 17.4512 4.13958 -0.171947 -0.080912 0.285698
914 31.2102 18.6245 3.32349 0.226745 -0.655975 -1.25626
1325 31.7109 20.9268 3.41739 -1.43595 0.704062 -0.228168
1170 34.2977 20.3978 2.86262 -0.297595 -0.625501 -0.349352
44 43.8001 20.5359 3.27393 0.30341 -0.53442 0.170975
1023 66.1346 21.045 2.99601 0.0832005 -2.23985 -0.771421
2763 35.6381 21.9869 3.57787 -0.758471 0.264259 0.30372
2468 23.1152 23.5263 3.44802 -0.320318 1.48675 1.38111
2681 39.0276 23.3422 2.93947 -0.20391 -0.00591855 1.20247
2706 59.5443 23.4283 3.17565 -1.72055 0.0699407 0.972256
1991 31.1374 25.1256 3.07427 -1.44817 -1.69792 0.39187
788 29.4771 26.7859 3.52529 -0.173168 -0.904954 0.484369
197 34.9846 26.3316 3.55542 0.0727727 -0.26579 0.267802
3008 5.21002 27.9338 3.78727 -0.00317613 0.216646 1.00272
835 41.0126 28.0101 4.0926 0.332891 1.1128 2.72035
2685 61.9192 30.5838 2.94903 -0.643634 -0.11886 1.90135
3704 56.1829 31.6335 3.25907 -0.0871378 -1.2397 1.75105
833 57.5164 31.5554 4.1513 0.693288 1.33103 -0.297406
3165 61.2871 31.9861 2.93391 1.81276 -1.1908 0.728778
2358 44.7328 33.6806 3.30563 -1.94195 -0.263891 0.825526
2019 10.528 34.1 3.70387 -1.52363 -0.549912 0.881135
3771 40.4764 34.049 3.14989 -1.55584 -0.0391473 0.640051
2619 41.8913 34.434 3.67634 -0.379606 1.07935 0.744528
952 16.9938 36.5035 3.23084 1.44937 -0.237126 0.0798012
2000 36.5141 36.094 4.23086 2.04623 -0.0524957 -2.06282
891 18.8045 1.94214 4.61835 -1.92044 0.0227111 1.89757
750 20.3975 1.9399 4.99399 -0.392536 -0.144989 2.26392
932 10.8118 3.86968 5.42099 0.8251 0.294682 1.0521
2270 24.6207 4.23181 5.12586 0.544119 -0.666815 1.13401
3862 0.0361143 5.37989 4.91588 -0.0495413 0.0893902 0.428628
3887 57.1122 6.95824 5.51794 -0.0108424 -1.05916 0.650828
1856 67.0671 6.81198 5.40677 -0.128536 0.833986 -0.502063
3881 14.7082 8.30955 5.01393 -0.687326 -0.202297 -0.42543
199 25.3849 8.99513 4.81377 0.0372121 -1.0033 0.281746
1283 53.5779 11.5354 4.97458 0.584853 1.03873 -0.390631
2421 69.6583 12.5403 4.6386 -0.233757 -1.78508 0.470885
1537 65.5934 14.1027 4.57687 -1.18129 -1.06864 -0.440468
3890 72.5322 14.0338 4.57339 0.418942 1.32205 -0.0835345
609 69.9054 15.3211 4.85804 0.972241 -0.125209 -0.391266
3928 2.87446 16.9729 5.56882 0.482401 1.12012 0.045844
3481 11.2813 16.5109 4.76036 -0.819982 -0.827796 -0.220719
756 58.7622 16.6066 4.71123 -0.175158 -0.675148 0.0891434
1795 66.3649 15.843 5.07721 1.27876 -0.132363 0.277709
1241 64.772 17.0788 5.29463 0.102441 -1.80853 0.182652
1354 9.0707 18.8082 4.42323 0.241811 0.146506 -1.30844
2368 11.3173 18.6098 4.57633 0.427224 -1.11242 -0.629656
2778 3.14363 20.8484 4.38234 -0.186175 1.9182 -1.29576
763 7.80879 19.8713 5.36033 0.529048 0.276825 -0.358953
3179 30.9592 20.4731 5.11544 0.941443 -1.3091 -1.72975
3082 51.378 21.0365 4.62586 1.84406 -0.50026 0.451093
790 60.2296 20.1309 4.64981 0.0439245 -1.21246 0.590118
5 18.1826 21.8947 4.83904 -0.178084 -0.5621 2.10132
205 62.2535 21.8168 5.23513 -1.61082 0.227194 -1.68008
1299 12.4417 23.2365 5.25846 -0.0257603 1.56743 -1.60772
3321 12.6198 25.7862 5.29394 0.435826 0.172371 1.0917
3006 18.6132 26.5081 5.44394 -0.567825 -0.597966 1.03161
289 68.3091 27.678 5.05051 0.453993 1.12051 -0.986713
2921 10.8003 29.5287 5.06791 1.20589 0.0833229 0.732981
2266 64.7421 28.3771 4.89647 0.727733 0.334416 -0.0553368
3238 60.0194 30.0913 4.31536 -0.474897 0.334372 0.861281
3803 37.4601 33.8996 5.24262 -1.20274 -0.268332 -0.0876376
2838 49.0361 33.0001 4.89055 -0.822483 0.940328 1.21429
3750 56.4241 33.3683 4.2761 1.5475 -0.250427 0.413363
1573 0.639389 34.306 5.66619 1.91432 1.09674 0.0402582
3903 5.12959 36.3215 5.37947 0.822113 1.9623 -0.608685
3035 44.581 36.0943 5.30517 -0.433171 0.373547 0.123131
3544 61.9959 0.643459 5.84837 0.875922 0.673334 0.809648
2579 7.46145 5.34499 6.35957 -0.862002 -0.696651 0.679428
2094 2.56749 6.93054 5.67713 0.991417 -1.0647 0.131105
3542 11.8829 9.15895 6.48308 0.64038 0.829165 1.25135
2608 1.3425 10.4694 6.05559 -0.478656 0.734108 1.49999
3160 4.93361 9.9509 6.51351 0.785071 0.690966 -0.489956
450 57.5849 11.4762 7.08081 1.91759 1.74918 1.28811
1316 2.18211 15.3764 7.07108 -0.587304 -0.584151 0.355727
1642 49.7069 14.8746 5.76019 -1.08111 -1.57561 -0.360027
1055 62.6267 14.5072 6.82936 0.538324 0.926479 0.530225
3382 57.9635 18.2818 6.44554 0.31705 0.167164 -0.97625
2923 69.0405 17.8793 7.0626 1.15893 -0.348143 -0.999535
1552 40.8617 19.8354 6.60617 -0.0311942 0.382182 0.00426333
1444 21.7592 20.5359 6.67613 -1.75461 -0.464137 -0.523744
1824 42.3797 20.0097 6.34505 1.41587 -0.968184 -0.118924
2148 17.8808 21.7634 6.8494 -0.124465 0.992746 -0.300147
2132 27.3983 21.5002 6.60228 -0.177459 -1.27461 0.059104
3589 33.8274 22.6851 6.56055 -0.0384419 0.224991 0.099216
3834 49.8144 25.3661 7.00112 0.389256 -0.0176438 1.62792
3601 53.9958 25.2962 6.01918 -2.06546 0.662785 1.0405
2561 28.4823 26.8728 6.14935 1.36008 2.48905 -0.24564
1558 37.3537 28.0352 5.73551 -2.13701 -1.19029 -0.5122
281 16.5361 29.2674 6.07712 -0.161769 -2.14275 0.665195
3019 61.4191 28.5976 6.44299 0.997934 0.705231 -0.244985
3860 2.35768 30.5071 5.92087 -0.0352739 2.64994 0.596534
602 45.6735 29.9722 6.41573 1.23246 0.839415 0.641465
1934 33.1932 33.8885 6.90554 1.47429 0.0345991 0.0890044
2837 46.8147 32.6125 6.05525 0.104642 -0.682611 -0.751155
2244 3.59288 34.2101 6.90508 -1.41527 0.414721 0.921371
3455 5.51307 35.2331 6.29817 0.367952 1.10626 0.105389
3325 66.8259 34.3869 6.19715 0.126055 0.997483 0.820179
2214 73.2318 34.4164 5.88384 -0.212783 -0.704403 1.03141
3781 10.5569 36.1181 6.85408 -1.35484 -0.184645 -0.72208
3369 45.0087 1.1087 7.75389 -0.290846 1.64646 0.865195
1466 42.8136 1.98403 8.50104 0.34424 0.938338 1.43415
3917 36.1653 7.98235 7.37962 -0.406315 -0.740165 0.980301
3638 52.2022 7.39055 8.042 -1.04759 -1.19569 0.705153
2889 23.4451 9.2051 7.306 -1.40704 1.30449 0.286657
2420 33.9105 8.869 7.50854 -0.786088 -0.198237 0.413381
1532 37.1503 8.57269 7.90656 -0.377773 0.0556224 -1.20493
2884 44.649 9.04335 7.80017 0.149178 -0.585633 0.164558
1914 19.7205 11.056 7.82789 -0.223985 -0.4042 -0.0571073
2930 13.1951 12.7467 7.49394 -0.549428 0.52959 -0.669514
3635 33.8255 11.8463 8.05837 -1.21013 0.48184 -1.03683
1554 0.590788 13.6228 7.11685 -1.22599 -0.073737 1.87664
2185 59.5754 13.9863 8.20235 -1.6464 -0.0727662 -0.456284
2122 66.2494 12.9509 7.23369 0.597468 -0.433064 -1.3333
1903 13.2007 16.2481 8.22777 0.61773 -3.12745 -0.738063
757 44.6869 16.0958 8.26909 -0.10059 0.925938 0.199868
913 54.7944 16.1221 7.71581 0.171082 0.16621 -0.553132
906 4.8311 17.8128 8.35713 1.46008 0.679873 1.67935
2535 21.0812 18.7464 7.65561 -0.473656 -0.0967466 -0.518853
2850 31.6734 22.32 8.07912 1.67776 0.0721663 -1.01881
3377 42.7021 23.8904 7.91157 -1.11685 -1.58178 -1.10422
2732 48.2876 23.2591 8.0736 0.699614 0.335748 0.209727
3335 8.57197 25.4704 8.05844 -0.108705 -0.47925 1.73324
3517 67.8744 24.874 7.76074 0.349974 -0.165557 0.429318
495 2.68465 27.7761 8.35124 1.79796 -1.1252 1.21467
2873 38.8853 28.8321 7.59689 0.96758 1.05852 0.407226
1743 42.1162 29.2462 7.64358 -2.88263 -0.0902991 0.591049
2134 51.8455 29.3518 7.90171 -1.41013 0.070184 -0.107947
50 31.5022 29.7674 8.14484 1.60494 0.725337 -0.504007
598 38.866 34.151 7.97511 -0.159096 1.05645 0.690606
3538 1.18291 0.808668 9.13618 0.336536 0.472532 -1.08591
816 70.3292 2.61751 9.35533 0.137936 0.528496 -0.978513
3392 35.1433 4.07113 8.5207 0.364659 0.350123 -0.794441
3003 31.3626 4.66298 8.83907 -0.229532 -1.20074 -0.85884
1266 21.812 6.53592 9.14132 -0.396989 -2.20658 0.741598
76 46.6066 5.7062 9.53188 0.53929 0.580245 0.538853
1144 70.6643 8.29404 9.06194 -0.0116792 0.667169 1.64045
3933 58.4934 9.88349 9.70708 0.979253 1.84401 -1.35431
1572 20.4526 10.4606 8.6617 -0.0971269 0.914276 -0.0206115
3507 22.337 10.9368 9.12466 -1.27641 -1.07267 0.231763
2181 36.8817 11.0277 8.75548 0.953057 -0.514011 0.873811
1244 51.376 10.217 9.26153 -0.501802 -0.00546511 -0.649794
510 24.0553 13.237 9.17661 -0.454172 0.247824 0.516302
406 35.677 13.8117 8.65965 1.85493 -0.84876 1.75681
1036 70.8775 12.7751 9.23555 -1.40944 0.660274 0.0769114
1078 24.1055 15.4662 8.65148 -0.0386989 1.99663 -0.235566
1806 54.1919 14.3931 8.77722 -2.3852 -0.665655 0.0258016
2399 43.7651 15.8165 9.02475 -1.6229 0.435593 -1.18289
3057 26.2539 17.3191 9.82219 1.33234 -1.97894 0.984238
1029 32.1746 17.8947 9.43442 -1.15342 0.836615 -1.93336
827 14.4987 20.3265 8.94061 -1.111 0.98798 -1.07091
1828 34.0209 20.2269 8.95702 0.536106 0.644201 -0.916165
2040 50.8948 22.64 9.71436 -0.0841383 0.529031 -0.112625
3327 51.8971 24.7319 8.66788 1.31067 0.020949 0.0224978
1947 46.7924 26.3254 9.86707 -2.8192 0.156401 -0.342327
2560 63.372 26.2062 9.22725 -1.12556 -0.0995384 0.201893
2062 22.8954 27.0388 8.88993 -0.615884 -0.440192 -0.0101866
1083 46.6533 27.3023 8.50377 -0.541965 1.56699 -0.264237
3832 45.9895 29.6595 9.148 0.770179 0.0093715 0.660994
3015 34.3615 30.2028 8.62874 0.403329 1.16914 -0.199998
2472 12.4088 32.1291 9.40598 0.330915 1.23748 -1.87136
1666 47.2531 32.7924 9.8534 1.8058 -0.0496463 0.0470245
656 63.2692 0.671713 11.202 1.40197 0.0459822 -0.322339
1747 67.6888 1.04015 11.1452 -0.55942 1.26663 1.14935
1328 70.3397 2.42387 10.8065 -0.148291 -0.300571 -0.356761
2497 22.6537 3.19211 10.7988 0.727832 -0.772304 0.614546
1888 39.1169 3.6629 10.8225 1.02154 0.865104 0.961861
1883 40.6549 3.14659 11.0528 -0.364413 0.431397 1.59381
546 16.854 4.41415 11.1266 -0.770674 -1.58878 -1.40665
2068 30.1864 6.69317 11.0261 -2.10146 1.35349 1.43946
3301 71.2197 6.6514 10.9693 1.29583 1.2837 0.435034
77 22.0713 7.67836 11.1966 -0.611948 -0.511914 0.0379948
1058 27.3863 7.24165 10.8483 0.621914 -0.238165 -0.241858
2971 36.8194 8.79239 11.1076 0.350017 1.02911 0.272408
1723 42.4689 8.69391 9.94675 0.199363 0.606019 -1.33697
229 16.8065 10.8183 10.7697 -0.73982 0.720739 0.996624
1213 2.08179 11.5729 10.6951 -1.46198 -0.724033 -1.77061
121 39.9378 12.2371 10.6963 1.63592 -1.85197 -0.574661
3450 54.008 11.3884 10.0117 -0.0533946 -0.367665 0.172878
869 54.1863 11.6992 11.1948 -0.198714 -0.280321 -0.49762
1556 65.4029 12.0064 10.6648 -0.852014 -0.777627 0.189232
2161 65.5371 13.7245 10.7282 -0.484326 -2.99188 -0.259308
2060 71.1634 13.9506 10.4191 0.876468 -1.99255 -0.0528445
2722 30.8151 16.5679 9.99806 1.9318 0.610254 0.687652
2899 32.4048 15.6839 10.2484 -1.76518 -0.691836 -0.168922
426 10.2947 19.8133 10.5449 -0.206279 -1.64999 0.0526413
2801 23.8427 18.6343 10.4118 1.60357 -0.356824 0.331628
2656 52.1038 21.4878 10.3268 0.989435 0.305789 -1.9772
2407 7.48366 23.6075 10.9804 -0.876037 1.70493 -0.17871
2527 36.9179 25.1251 9.98356 -0.738701 -0.737486 0.482984
826 53.6707 26.4886 11.2946 -0.0747194 -0.546816 -0.877017
3361 13.0781 31.0926 10.3249 0.716658 0.473493 -0.661693
1189 56.6061 29.8638 10.6451 0.528726 -0.126519 -1.06609
1196 71.441 30.2072 10.7109 1.00956 -1.00286 -1.64157
3586 27.3209 31.2213 10.6655 -1.18394 0.484724 0.835992
682 34.4547 31.6754 10.5102 -0.326425 0.282597 -0.0760908
1331 48.2042 32.0608 10.0548 0.0983407 0.367176 0.158037
1071 61.5264 31.2883 10.9884 -2.43116 0.494216 -0.0199445
1654 28.1025 33.7031 10.3821 -0.936499 -0.363429 0.061853
1063 50.1194 33.6 10.1726 -0.838127 0.855018 -0.0526
498 61.9898 32.9462 11.3219 0.286316 2.64242 0.0622637
2852 68.6829 32.6187 10.0905 1.84715 -1.30776 0.588007
1976 64.1751 34.6859 10.7498 -0.102692 2.0595 -0.368551
361 15.3467 2.7331 11.3685 -1.12148 -0.271742 -1.1669
1740 12.821 3.41562 11.4736 -0.439332 0.0548444 -0.295021
3875 25.4783 4.12981 11.3558 0.710634 2.13358 0.136489
1890 29.1708 4.24936 11.8601 -1.90538 -0.323406 0.568273
1453 40.7061 3.74725 12.5276 -2.50854 -0.271295 1.01368
3252 46.9743 3.26403 11.4185 -0.541337 1.46844 -0.346318
3200 23.2336 4.38439 12.0408 -2.21359 -0.793547 0.468176
57 24.9191 5.12701 11.5231 -0.48113 -0.183581 0.622319
1905 25.5483 5.20171 12.5064 -0.118704 -0.148665 -1.27365
2818 43.3394 5.35541 12.5046 0.163166 -0.443273 -1.95751
3229 69.1742 5.45732 11.9774 1.2154 -0.226238 1.87385
749 48.0608 7.43922 11.9966 -0.779505 -1.05847 -0.848339
416 48.4459 8.34889 11.7921 -1.33635 -0.440813 -1.1418
2875 62.7914 7.2891 11.8497 -1.13888 -0.656069 -0.459575
3548 12.9761 9.71881 12.6058 -0.742548 1.26843 -0.0907913
2224 36.8917 9.16934 12.2072 0.209293 1.48079 -0.410862
974 61.9541 12.444 12.2449 -1.60573 -1.01223 -0.484222
1830 13.1727 12.7942 11.9386 -1.11962 0.392698 -0.974363
1360 16.5226 13.9924 12.3573 0.574487 -0.775968 -0.196207
3976 41.0799 13.8753 11.3483 -0.54319 -0.163296 1.28051
1543 12.0025 16.1706 11.6524 -0.71707 0.659539 0.462514
799 41.5154 16.5504 12.2486 -0.226813 -0.0462469 0.375444
3969 33.1974 18.0584 12.1752 0.656618 -0.202148 0.384473
2026 43.4207 17.4763 11.6823 0.3028 -0.641752 -0.0646527
2156 72.0386 18.0392 12.5921 1.5789 0.484565 0.856863
2456 34.1946 21.278 12.5759 1.40138 -0.927079 1.34572
2570 3.97318 23.4013 12.4033 -0.263176 -1.65415 1.26236
1030 38.292 26.1442 11.4942 -0.0731424 -1.66745 0.100166
2830 67.787 29.5066 11.8934 -0.909057 1.41491 0.586415
1625 68.1175 30.767 12.2776 1.78346 -0.652633 -0.698482
1414 60.5841 31.2813 12.5486 0.429497 -1.66012 -0.991435
225 30.2181 32.7488 11.4243 -0.520234 0.680852 -0.892196
840 51.0094 33.3448 11.6535 1.57303 1.06964 0.535374
2717 60.8541 33.0882 12.3008 1.31216 1.01881 -0.109453
363 37.7641 34.0602 12.574 -0.961688 -2.03166 0.860933
1262 42.0358 34.208 12.3341 -0.707687 0.0954309 -1.48029
2103 60.9571 34.1506 12.2873 -0.888909 0.225274 0.347654
513 11.7932 35.4896 12.2006 1.36446 0.00407323 0.804573
1009 6.10184 0.452371 13.3836 -1.86097 0.18793 0.888655
2046 30.831 4.07183 13.2641 0.48229 1.4912 0.187688
1995 31.2059 2.87515 12.8962 0.93227 -1.32778 -0.956388
300 61.462 3.69367 12.7843 -0.441978 -1.51074 -0.205009
272 27.4008 4.61839 13.551 -0.563093 2.40974 0.96954
1152 27.6001 7.17339 13.5629 1.05361 1.03803 0.342414
3347 19.8248 9.35298 13.1346 -0.730429 0.34227 -1.01008
56 13.6712 11.304 13.1727 0.538247 -0.874452 0.820829
2509 17.3725 10.4286 13.6584 -0.711856 0.342633 -0.129471
3249 8.03365 12.8105 12.9748 -2.1878 -0.944828 0.893304
2176 52.9516 12.9247 13.3175 0.451233 0.275376 0.737209
2673 56.8303 14.2679 14.1291 0.658474 -0.442024 0.441641
2441 31.8624 16.6206 13.4423 -0.13716 0.852239 -0.241745
2831 10.4475 19.6965 13.8446 0.269821 -0.178714 0.25267
645 34.6916 21.0911 13.8229 1.22973 1.04935 -1.16926
745 56.6254 20.4208 13.9114 0.776983 0.630554 -0.44959
3108 45.533 21.6844 13.9056 1.19281 -0.490241 -0.26958
907 63.5531 24.2754 13.7132 -0.0969792 1.01859 0.791657
19 28.5135 28.0492 12.8116 -1.88859 0.184922 -1.24547
414 42.738 27.9836 12.9913 -0.620597 -0.728049 -0.560679
3388 35.2344 29.2842 14.0874 0.0282532 -1.62426 0.192293
377 26.9005 30.5721 13.1735 0.724277 0.427859 0.19221
849 73.3591 30.4358 13.1162 0.0668906 -0.584965 -2.00536
3915 15.7346 32.5667 14.0803 0.265186 -0.841345 -0.823253
3129 21.7705 32.4811 13.1498 0.378509 -1.10738 0.644363
1236 5.1084 33.2227 12.884 1.01888 0.510577 0.338198
910 64.9548 34 13.9276 -0.165532 -0.0995921 0.616816
435 32.392 35.0669 12.8521 -1.54642 -0.73703 0.279194
507 9.63541 36.7613 13.6875 1.33668 0.145397 -0.343927
1146 30.5483 0.257222 14.187 0.794871 0.984197 1.78751
1721 6.30818 3.45942 14.7386 0.53123 -0.0113416 -1.01822
1564 22.7893 3.04571 15.4519 1.22085 0.603932 -0.848254
2168 73.4298 3.62461 14.913 -1.40198 0.680054 -0.42667
2791 21.6542 4.32352 14.7721 -1.78182 -0.646089 0.122002
2929 14.1263 7.54543 14.8862 -0.195348 0.834943 1.39134
120 40.7955 7.85317 15.2387 0.441443 -0.861776 0.0378414
249 39.6872 7.30895 15.2731 1.34237 0.166619 -0.460194
3877 67.0845 7.48805 14.9994 -1.21684 0.684517 -0.21094
973 10.9598 9.38491 14.9921 0.0329351 -0.275958 0.348855
1626 31.8713 8.82332 14.6246 -0.648922 1.91431 1.10838
103 45.9348 8.63984 14.2731 0.588688 0.00842787 -0.0383834
3432 68.2374 9.54349 15.2719 -1.43211 -0.416064 0.531177
2758 33.8064 10.0392 15.467 -0.272049 -0.429719 0.12644
178 67.5305 12.2383 15.4253 0.0601474 1.20376 0.148959
3495 52.0353 13.037 14.785 1.66614 -0.403987 0.287852
162 25.9153 15.091 14.4587 2.238 -0.221327 0.900279
2119 55.7195 14.9103 15.582 -0.813975 -0.574273 -0.850725
2743 13.2068 16.4801 14.5202 -2.0319 -0.0781179 0.13842
358 27.1559 15.8055 14.776 0.907835 -0.50903 0.656432
24 33.245 16.2802 14.6504 0.0317921 0.0104071 -1.85745
2424 51.721 15.9643 14.4366 1.25527 1.56917 -0.758836
3159 72.932 16.4927 15.0842 0.236934 -1.65415 -0.664814
1089 18.0154 18.3229 14.23 -0.429289 0.0742583 -0.676283
2429 21.0616 18.1273 15.4962 -0.750579 -1.31031 -0.101539
30 21.7337 18.5274 14.8093 1.96973 1.74164 -2.93445
3115 46.7195 19.3441 14.5239 -0.419124 -1.05698 -1.12046
3498 2.68345 20.8054 14.3208 -0.594163 -1.64198 -0.314031
3784 14.5637 20.4878 14.2524 0.644735 -0.562147 -1.65139
3032 20.4848 20.6566 15.1991 0.186167 0.291713 -0.565368
2043 21.5498 20.4396 15.3939 0.253679 -0.0985223 -0.605897
2853 6.59091 21.6172 15.5022 1.15328 0.034696 -0.943723
1618 59.402 24.0095 14.3628 -0.205024 -0.502936 0.136821
1578 19.2398 25.1705 14.7647 0.31885 0.371865 -0.178462
1192 61.575 26.7531 15.4272 1.40537 -0.684124 0.530574
2972 1.59184 27.2889 15.2446 -0.116569 1.60934 -0.452961
166 55.6355 28.1381 14.708 -0.591769 -1.09393 -0.650558
3261 5.36019 29.9692 15.3796 -0.830202 0.128079 0.827737
3982 3.9263 31.2855 15.0639 -0.390507 0.888854 2.01997
1388 55.5499 32.0317 15.2324 1.5469 1.48028 0.896736
418 3.93271 33.8169 14.447 -0.0794489 1.13132 2.82269
2523 49.2485 33.7018 15.4522 -0.520067 0.0967317 -1.63229
3953 8.54817 36.5783 14.6646 0.611717 -0.11815 1.33274
1685 44.7395 36.5233 15.5449 -1.99609 0.899517 0.538392
1615 4.42792 0.824908 15.862 1.13012 1.75885 0.261667
3541 22.3254 0.534711 15.6704 0.336211 0.166472 0.0400299
2439 23.1203 0.613764 16.2921 0.17155 -0.511387 -0.458938
599 4.28046 5.77255 16.849 0.605318 0.0825151 -0.854695
1697 50.2628 6.61002 16.2304 -1.38248 1.63855 -0.808002
3456 63.8318 6.04418 16.8167 -0.365909 -0.0112604 -0.477802
226 1.16321 7.75983 16.7161 -1.37356 0.415482 0.200952
2411 50.6356 7.82521 16.1351 -0.448473 0.103448 -1.20062
1651 69.1804 8.79288 16.8893 -0.479526 0.730794 0.128612
1962 9.16703 12.2824 16.0578 0.618427 -1.27932 1.12552
3678 31.7482 11.5089 15.7826 1.10533 -1.19732 -0.421873
573 55.7257 11.9161 16.2913 0.265451 0.506177 -1.43404
2333 29.3859 13.6019 16.4736 0.75127 -0.660942 0.353683
714 57.5281 12.9376 16.8068 0.800356 1.78779 0.382917
3701 33.838 14.8816 15.7171 0.466086 0.513335 -0.964829
915 67.9895 14.3798 16.5404 -0.108135 -0.571741 0.54477
2010 34.4554 15.6851 15.6579 -1.29531 1.55882 -0.252625
2304 67.5429 16.127 16.2501 -0.411189 0.973662 -0.9543
3065 13.1919 18.7483 15.7164 -1.04441 -1.26849 0.540045
2784 13.6379 22.3308 15.8877 0.75061 1.14876 -0.923989
3191 41.6372 24.699 16.1474 -0.993241 0.314988 2.01814
1373 17.488 25.8753 16.1268 0.731696 -0.675123 -1.31555
1575 23.0848 26.0687 16.5073 -2.00632 0.63278 0.229259
1616 30.6616 25.9647 16.2385 0.97061 -0.400264 0.665802
793 36.8632 25.6928 16.2899 -0.945419 -1.09796 -0.542229
527 15.7863 31.1941 15.6283 -0.0292537 0.0655062 -2.92375
2086 28.3894 31.5335 15.6303 -0.977624 -0.313689 1.57886
3886 64.5232 32.5217 15.9679 -0.25282 -1.45531 -0.108422
2691 25.4791 33.3149 16.2504 -2.37305 0.983612 0.0351471
1551 42.0057 32.857 16.2557 0.340377 -0.355172 -0.219735
3744 4.10919 34.8482 15.8323 0.637078 -0.767371 -0.0709943
3153 67.7569 34.4656 16.3201 -1.33386 0.0699507 0.125302
2127 10.4039 35.6021 16.4485 -0.71669 1.16918 -0.49888
3406 54.1335 35.9717 15.9396 0.439932 -0.826794 -1.41549
3810 56.0393 36.5368 16.6425 1.09928 1.20773 -0.742104
127 20.3416 0.42374 17.2386 -0.0401083 -0.134312 0.0467115
1231 53.2207 3.40219 18.1409 1.32138 0.142099 0.266015
3843 73.4026 2.99598 17.0181 -0.801844 -0.377279 -0.516775
1352 62.9899 5.32115 17.8211 -0.46429 1.73482 -0.804718
3287 22.88 6.41214 17.8347 -1.03187 -0.0358835 -0.375612
1327 38.1325 6.97505 17.0079 0.811286 -0.695179 -0.349928
360 47.1668 6.9451 17.1854 0.861012 -1.42561 0.899146
3443 66.6093 6.80776 18.4179 0.810899 1.11011 0.340944
842 69.4502 6.44948 17.594 -1.02934 -0.424784 0.10243
3340 32.3484 7.34628 18.4163 -0.384789 -0.848548 -0.0963542
2369 35.2507 7.48248 18.3633 -0.356668 -1.28666 1.60881
238 36.0774 8.20137 17.6444 0.423747 -0.320925 -0.152435
2555 56.6485 9.14568 18.0605 -1.76624 -0.534245 -0.366535
318 3.14327 9.94494 17.7064 -0.750984 -0.283917 1.10373
863 8.27115 12.0498 17.3245 0.400927 -0.298185 -1.55901
1858 16.6708 12.0713 17.4521 0.889037 0.68927 -0.265038
1907 21.7704 11.5035 17.2197 1.90904 0.152477 -0.189393
2676 58.0754 12.3898 17.3566 0.129492 -0.61128 0.305908
356 42.7722 13.1269 18.1366 0.418261 -0.470895 -0.955737
655 39.6484 14.3498 17.8898 0.0616711 -0.357476 0.150452
3420 44.3304 14.4634 17.2246 2.83826 -0.0476865 -0.549988
1960 50.3826 15.1574 18.2652 1.23893 -2.01058 1.16623
3349 2.45588 15.737 17.5859 1.21278 -0.892821 0.844371
1254 54.2276 16.0998 18.2911 1.48092 0.580277 -0.397276
947 33.6219 17.5725 17.954 -0.728567 -0.213963 -0.734483
978 47.3949 17.1577 17.2374 0.545333 -1.915 1.89668
961 10.161 20.2958 17.4182 -0.502664 -1.02448 0.582535
2326 72.5895 20.1974 17.3121 0.753226 -0.691673 -0.517221
3167 4.70665 22.3085 17.9 0.661569 -0.377124 0.0705646
3576 12.6137 23.9713 18.411 0.278511 0.142155 0.823304
818 64.1862 22.835 17.4522 0.975063 0.0677118 0.715023
3902 12.4217 25.0589 17.9894 -1.01603 -0.221171 -0.449007
810 26.8594 24.2574 17.8894 -0.526234 -0.84866 -0.412266
2410 69.758 24.7324 17.5917 -1.4858 0.689846 1.0884
1395 2.32393 26.4201 17.0835 -0.33073 0.210714 0.573198
3640 8.2412 27.2747 17.6782 0.826611 -0.23903 0.880543
2711 15.9042 28.1092 18.1178 0.651564 -0.291308 0.0871303
2983 34.8524 27.4627 17.1714 0.385183 0.162015 0.319364
429 42.6837 27.8775 18.2491 -1.20874 -0.792869 0.0339832
1911 64.6815 27.3841 17.3881 -0.687585 0.672381 -0.628367
1967 51.9532 28.5599 17.0468 -1.22344 0.0714469 0.807272
383 25.8026 30.1157 17.2778 -0.207251 -0.441225 -0.529617
3125 71.0644 30.411 17.7367 -0.450007 0.278343 -0.0206129
394 59.3565 31.5431 17.0689 0.428569 -0.0690151 1.48304
3624 59.358 36.4698 18.3276 -0.551701 1.29231 1.27941
1415 26.6628 1.28491 19.3195 -0.387875 -1.90966 -0.98704
2712 4.90269 1.97317 18.7887 0.706894 1.7273 -0.517246
1641 40.0082 2.06078 18.5198 -2.69651 0.465803 -1.02971
2048 24.3386 3.6623 19.2854 0.758033 1.16711 1.38518
2890 38.7117 4.18699 19.6715 -0.161145 -0.921775 0.324272
3309 47.3146 5.58066 19.366 -0.402375 1.37713 -0.164476
325 4.15994 8.02131 18.9239 -1.21277 0.688772 -0.0263559
1711 50.4002 7.16574 18.7861 -0.78515 -0.237069 -0.582464
1304 39.1226 11.1956 18.5116 0.202697 -0.315812 -1.15678
3239 5.95821 11.609 19.1582 0.266703 0.136376 -0.358051
2262 12.4803 11.4672 19.8161 1.32121 0.388764 -0.581851
1734 16.4799 12.9996 19.4962 -0.985156 -0.368825 0.404792
941 28.5046 13.567 18.4676 -1.01415 1.01236 -0.352599
106 38.5387 14.9419 19.12 2.06779 -0.164669 -0.579396
581 41.661 15.627 18.5057 0.611685 -0.837882 1.04655
2096 18.842 18.3945 19.0231 0.310599 -0.498049 1.57955
2997 35.9774 18.0538 19.4817 0.217807 -0.831954 0.717114
3338 62.1321 17.8046 19.6868 0.790819 -0.46894 2.13716
2841 70.935 17.023 18.4508 -0.641519 -0.396832 0.747358
2301 1.374 20.9911 19.0653 -0.467343 1.25689 0.309574
3106 13.7387 20.8345 19.383 0.00186579 -1.7432 0.370718
1965 61.9061 20.9925 19.5333 -0.0562292 1.5761 -0.648395
453 29.3471 21.7764 18.6604 -0.488219 -2.31119 -1.03992
3892 29.9107 21.2876 19.4955 1.49457 -0.40615 -1.70475
482 31.7213 22.1944 18.7774 0.10152 -0.540548 1.25167
384 51.8484 22.5098 18.8518 -0.0255698 0.073825 0.42953
3858 40.0359 24.7092 19.6517 0.57106 0.107897 -0.318409
3097 71.1196 25.0806 19.5383 0.166575 0.162516 1.13118
1840 34.4916 26.1502 19.544 0.112554 -2.10143 -0.751896
422 60.2862 26.6253 18.6051 -0.350883 -0.0882253 -0.015253
3840 7.21436 27.1573 18.4596 -0.92989 -0.588318 0.392907
3357 2.00839 29.2089 19.6293 -0.661241 -0.201384 -1.31224
821 19.2988 30.1834 18.5095 -1.02711 0.612008 -0.554862
1225 54.4742 31.0187 18.9594 2.05012 0.332281 -0.0769921
3605 8.78742 32.0754 18.8581 -0.421848 -1.16386 -2.75879
1481 51.0176 31.8524 19.4484 -0.756043 -1.78318 0.0139777
606 45.5217 33.666 19.4122 0.446249 1.50613 0.00524554
3625 27.2348 35.3935 18.7828 -0.449745 -0.241689 0.885514
3741 34.9638 34.1706 19.3784 2.5115 -0.482611 -0.84844
3362 71.2923 36.4938 18.7767 0.508296 0.771907 -0.103738
3384 11.2844 1.25626 19.9859 -0.0400123 -0.613979 1.60375
506 46.7592 0.542531 20.7899 0.671676 1.53503 1.43689
721 49.5802 1.31045 20.6247 -0.527927 2.54418 0.183166
1655 25.4429 1.61604 20.5499 -0.313412 -1.70869 -0.583373
850 1.71874 3.99312 19.862 -1.79193 -0.610237 -0.138169
632 51.5017 3.09717 21.0547 0.854733 0.875786 -0.664681
2733 63.6857 5.17292 20.6695 0.0526434 1.0051 0.784536
1250 4.10647 6.23867 21.169 1.32826 -1.23836 0.341135
3524 34.032 6.04131 21.1704 -0.651477 0.0663667 -0.0671562
501 17.7259 8.29442 20.5056 1.87691 -0.58753 0.476643
2319 55.871 8.62382 20.4139 2.444 -1.73301 -0.21482
1094 8.1829 10.6519 20.4417 -1.08247 -0.950147 -0.614878
3998 29.0348 11.3013 20.1822 -1.0286 -2.48368 0.260113
2829 36.9122 10.0122 21.0021 -0.763174 1.78583 -0.615326
2217 1.031 12.5201 20.1923 -1.05533 -0.00832462 -0.0496339
1785 53.7137 12.0204 19.8847 -0.484508 -2.41076 0.875214
179 73.2477 11.7096 20.1484 0.23795 0.207456 2.03909
2167 21.5787 13.347 20.0189 1.26415 -0.872855 -0.0164396
775 18.4523 15.3792 20.3884 2.29273 1.75972 -0.724898
2208 26.9904 16.939 20.3058 0.767742 0.572491 -0.501313
764 6.38134 18.0113 21.1113 1.58896 0.746087 -0.579275
1383 47.6098 17.6965 20.6602 -1.59606 0.156063 1.55021
267 69.6794 17.1582 20.9961 -2.60408 0.187697 -0.870751
3590 7.09259 18.7043 20.925 0.373572 -0.488588 -1.81828