ITEM: TIMESTEP
62000
ITEM: NUMBER OF ATOMS
4000
ITEM: BOX BOUNDS pp pp pp
0.0000000000000000e+00 7.3680629972807722e+01
0.0000000000000000e+00 7.3680629972807722e+01
0.0000000000000000e+00 7.3680629972807722e+01
ITEM: ATOMS id x y z vx vy vz
201 27.6729 1.20509 0.820448 0.566558 1.45713 0.567904
570 41.1416 1.61662 0.0100964 -0.441784 0.56926 -0.529287
3913 70.1697 2.0681 1.01938 -0.39417 -0.531494 0.0226391
1173 3.40832 3.86738 0.543846 1.41681 0.0274811 -0.513283
3902 47.6542 3.53605 0.436669 -0.619941 0.127319 0.648652
2420 65.5805 4.01803 1.353 0.00680826 1.72316 0.381099
991 2.16409 5.6528 0.163507 -1.43227 0.260752 -0.452755
1610 31.9363 5.30434 0.649026 0.608397 -0.267327 -0.612139
729 5.61125 6.81076 0.217039 -0.767996 0.316596 0.390092
1294 24.3902 6.31153 1.23831 -0.793875 -0.440482 -0.888815
424 47.7987 6.1361 1.05676 -0.214176 -1.5496 -1.63025
1702 49.4019 8.35202 0.155153 -1.58891 0.553453 -1.106
764 56.8699 7.12026 0.158597 -0.626349 0.475993 0.394289
2686 35.9974 9.52048 1.34953 -0.769047 1.60531 -0.496257
1402 53.8516 9.09656 0.389619 -1.00865 -0.661054 0.655821
2282 23.7482 10.3214 0.238064 -0.688243 -0.28813 0.0939528
3839 37.0564 12.0245 1.1498 0.428633 -0.131133 0.506319
3457 44.5197 11.5292 0.598349 1.75993 0.160334 -0.139474
3220 7.22442 13.2335 0.511491 -1.79433 -0.41501 0.35503
2847 25.3249 13.2699 0.519399 -0.92763 -0.897751 -0.594269
3223 49.0154 12.9163 0.847264 1.0824 1.94977 1.1886
1945 1.12114 15.267 0.502989 -0.922389 0.689087 0.0373209
657 17.034 15.2291 0.038512 0.722931 -0.257419 -0.629769
2602 46.608 16.6963 0.930995 0.133409 1.30322 -0.39
3760 50.4283 15.9389 1.39405 0.318438 -1.05926 -0.21014
3713 59.0589 18.0924 0.8294 -0.465233 1.31368 0.991617
3488 10.9801 20.3609 1.06426 0.708339 -0.569322 0.701061
2562 44.258 19.8696 0.141206 -0.461616 -2.46757 0.516986
1642 25.8261 22.3762 0.260354 -0.565952 0.381518 -0.739547
61 52.3869 21.5095 0.11176 -1.04989 -0.334826 -1.30505
1368 59.7959 21.7475 0.0699554 0.369901 -1.07308 -2.62648
1660 28.1842 23.036 0.113826 0.748897 0.367824 0.685883
242 11.1073 24.4962 0.234471 1.87137 0.938751 -0.28252
2315 2.42762 26.6124 0.170093 -0.40113 -1.67173 0.88554
3674 29.5734 25.8245 0.63718 0.563875 1.87025 1.04523
794 31.0187 25.6045 0.791291 0.52075 -0.248931 0.270625
2075 51.6749 26.8003 0.131851 -0.366998 0.756074 -0.657152
901 19.3072 26.9851 1.23111 -1.195 -0.0814541 1.65711
2934 33.6056 28.2414 0.875322 -0.37276 0.437771 -0.0280335
3224 57.1198 28.8517 0.762709 -1.22297 -0.870648 0.656003
3989 39.8703 30.3264 0.855617 -0.119926 -0.0609055 -2.63269
309 14.0987 31.2482 0.264169 0.541854 0.873459 0.27613
3476 50.2571 32.3532 0.110619 -0.946548 2.17212 -0.428306
2993 70.3912 32.4002 0.669608 -1.31336 0.0870953 0.918093
108 38.7771 33.743 0.6396 -0.26647 -1.41527 0.91455
3557 42.5984 32.7073 0.0640032 0.73968 0.845376 -0.374823
199 30.1551 34.2121 0.978208 -0.0435825 0.632554 0.196345
3180 36.6294 34.9485 0.865039 0.33729 -0.0982535 1.2541
3039 58.8641 34.2938 1.03987 0.688564 0.936811 -0.870441
2990 25.9699 1.59775 1.5141 0.110895 -0.47261 1.34754
576 56.6469 2.47283 1.4283 -0.0107929 0.554238 -0.697201
3317 57.8574 3.06546 1.91428 0.632391 0.124368 -0.666079
933 50.1788 5.07069 1.87303 0.630542 0.254265 0.684783
1289 37.1494 5.81216 2.53815 0.527511 1.35253 -1.25788
3818 47.2496 6.63929 1.92655 -0.662629 1.10219 -1.56346
3459 37.4583 7.91692 1.53286 -1.16139 -1.71505 -0.98616
1640 37.0174 8.83016 1.91885 0.987192 -0.340426 0.533872
2775 52.1046 10.3939 2.41718 -0.332097 0.251062 0.962291
1748 23.5778 12.0674 2.64231 -1.5027 -0.206196 -1.55955
89 71.3799 15.4663 2.65621 0.171924 0.0320356 -0.412778
469 4.15686 16.1748 1.79439 0.857284 0.436797 -1.02177
2281 33.9085 15.6929 1.51813 0.653028 0.571095 0.04027
2883 8.27394 18.217 2.66487 0.0519872 -0.152091 1.14513
838 44.5611 18.8866 2.19236 -0.354901 1.26682 -0.508548
297 10.045 20.0794 2.06612 -0.13339 -0.0912808 1.34529
2306 25.2237 20.4265 2.30039 -0.952485 -0.160415 0.161052
3687 54.7803 20.5964 1.87567 1.8324 0.328084 -0.274055
2820 55.7561 19.8785 1.7406 -0.289597 -1.04934 0.0199638
1304 6.61962 22.803 1.60017 0.328078 1.10639 -0.886168
3567 5.43484 24.404 1.48117 0.736345 0.286331 1.30559
2090 7.04726 26.8239 1.55196 -0.939627 -0.587906 -0.601425
822 34.7624 29.6974 2.30243 -0.215275 1.54983 -1.56137
2535 54.1563 29.5773 2.52761 -0.0306803 1.06244 2.79279
358 38.5872 30.4171 1.43518 0.41919 -0.790127 2.59123
1428 1.35406 35.2065 1.84803 -0.41505 0.246933 0.339609
971 51.9806 34.9507 2.15013 -0.778277 0.631716 -0.617596
2144 67.1346 34.0571 1.79899 0.35512 -0.150949 -0.0546806
3565 40.7015 35.9782 1.49409 1.20736 0.641395 -0.425285
3534 67.7994 0.428074 3.78877 -0.442276 -1.18018 1.14046
3429 5.28867 1.77878 4.10358 -1.03681 1.48894 -1.13955
2772 52.9908 3.14406 3.45683 -0.288882 0.396383 0.132149
2662 11.574 5.98277 2.87226 -1.03817 0.295178 0.0838399
1317 64.6723 6.7062 3.74776 0.113527 -0.160854 0.972872
2621 36.9568 10.3259 2.96398 1.21616 -0.526512 -0.649262
3117 37.4584 12.1508 2.90686 -0.83022 -0.077028 0.823333
1736 20.8605 13.9015 3.22223 0.280027 -1.08843 0.621603
3540 31.1814 14.0086 3.96221 -0.186679 -0.628237 0.116869
812 39.4442 14.5582 2.96968 0.406488 -2.0228 -1.61035
2644 1.56468 15.9308 3.06621 0.0300909 -0.785287 1.76451
2638 11.3329 15.6368 3.74285 -0.732765 0.947076 -0.223666
3906 29.7956 16.5412 2.86755 -0.189074 -1.21662 2.07562
2296 36.3914 16.109 4.20668 -1.38633 -0.95567 0.804783
1445 37.1857 16.7944 3.52504 0.693564 -1.53617 -1.98508
3520 27.8142 17.6484 3.58744 -0.151454 0.0272611 -0.490325
1868 42.2172 17.6443 3.14582 0.967856 -0.675212 -1.11299
1598 13.9438 18.9775 3.13262 -0.49085 -0.626876 -0.47652
3160 66.3302 18.7783 4.14912 1.0784 -1.03829 1.82249
98 60.2914 20.5299 3.8159 -0.458648 1.19355 0.722613
2809 11.7185 21.6202 3.39736 0.842472 2.77359 1.03684
34 37.7308 21.6721 2.87655 -1.20043 -0.736664 -0.22736
151 57.5309 21.3705 4.18306 0.622028 1.58313 0.690908
1765 36.6212 23.1035 3.39711 -0.251165 -0.877855 0.833063
156 70.499 22.8577 4.14675 -1.20773 1.10397 -0.806639
2968 4.71426 24.8217 2.95081 -0.839081 1.68329 -0.0255397
265 12.109 24.3376 4.23082 1.3387 1.85047 -1.94015
1281 20.5974 24.2453 2.95654 2.03372 -0.182982 -0.240424
560 38.7537 24.18 3.1772 -0.692182 -1.74812 0.0971035
2249 32.3554 26.0304 3.80604 1.056 -0.0484964 -0.00910756
1247 60.2212 26.8954 4.05793 0.101097 2.06487 1.05807
3589 22.9286 28.9397 4.11122 0.048343 -0.0186422 0.0159268
521 43.2372 30.1738 3.96658 0.0192949 0.00899695 -0.132082
1884 33.0252 31.7563 3.5038 1.1881 -0.437622 -0.562755
266 38.3719 31.5391 3.24629 1.26825 -1.21878 0.278065
1558 10.7269 33.0789 3.97381 -2.78633 -2.10388 0.309124
1584 40.2525 35.6662 3.21235 0.911941 0.0916815 1.59923
2573 66.9432 1.043 4.51577 0.225517 1.58074 -0.638272
3102 11.6294 2.32204 5.18079 -1.59626 -0.11871 -1.97919
2399 2.14848 3.95825 5.00107 1.37179 -0.411507 1.06605
451 49.9908 3.82587 4.34305 0.28166 1.1008 -1.08656
675 1.38314 5.15567 4.70009 0.835793 -0.735804 0.969276
692 34.5662 4.31653 5.201 -0.274535 -1.42581 -0.655965
2197 44.4822 6.70797 5.16658 -0.154637 -2.25182 2.51485
2129 11.3446 7.77222 5.0545 -1.27064 0.649567 1.89515
248 48.0956 7.72504 4.28999 -1.02378 -0.18101 -0.297334
3841 63.8309 7.19884 5.41683 -1.30687 -2.17941 -0.62657
1280 38.7269 9.44877 5.45841 0.576569 -0.568358 1.55047
1505 10.2617 11.1719 4.70146 -0.0705327 0.453907 1.37637
1112 67.2862 12.7251 4.44722 -0.541896 1.63654 0.365098
2261 18.2497 13.1727 5.397 -0.331951 -0.0126586 0.755413
1193 38.7025 12.8345 4.32741 -1.74637 -0.511097 -0.0641574
3428 11.7739 14.9825 4.90543 0.0528529 1.02394 -0.237111
2384 56.4591 15.1942 4.36407 1.853 -0.774881 0.72508
2932 17.0405 16.9204 5.51699 -0.593004 -0.996786 -0.251413
2603 31.7059 17.0134 4.38744 -1.14169 0.436717 -2.27445
2659 0.467215 19.5947 5.60003 0.588173 0.176705 -0.0487674
3443 8.36091 19.0813 4.96264 1.26534 -0.677321 -0.412929
770 0.796943 20.7321 5.17396 -0.360028 0.321281 0.139751
3253 55.7545 20.8204 5.06738 1.16698 -3.19735 1.15569
1202 52.8992 22.6026 5.08885 -1.16864 0.0554591 -0.051282
1586 18.6518 24.4865 4.46635 -1.04547 -1.82041 0.239858
1334 42.3279 25.8668 5.55758 2.60905 1.02241 0.687999
774 19.3625 27.814 5.48026 -1.56865 0.62526 -1.5383
2132 55.9209 29.1377 5.58414 0.0116319 1.30124 -1.45598
2162 0.266243 30.7663 5.41487 1.01398 1.18403 1.8955
1955 32.3292 30.9603 5.46083 0.808917 -0.774107 0.679094
345 55.0195 29.8902 5.50772 0.377877 0.620535 -1.87773
1825 57.3598 29.8571 4.8321 0.279018 0.209451 -0.0747598
3056 16.1108 32.4595 4.85475 -0.628591 -0.715132 0.303566
2258 37.0896 32.4838 5.47078 -0.724467 -0.760085 -1.09637
1982 44.5235 32.4601 4.60705 -0.94019 0.773803 0.901756
1327 58.4263 32.191 4.96427 0.104862 0.795643 0.521239
2120 14.0709 33.5866 4.56194 -0.174443 0.190214 -0.530108
1589 25.0263 33.0899 5.08672 1.06736 0.755123 0.223437
312 26.1002 33.3162 5.25339 -0.768205 0.222595 0.88646
387 16.5359 34.4212 5.61847 1.27493 -0.971991 0.560199
2793 7.64679 35.9803 5.57523 -0.0604105 -1.02757 0.924259
942 8.82868 36.067 5.59144 2.11111 -0.626116 0.438007
3296 57.2794 0.644116 6.41729 1.68298 -1.33938 -0.0392862
4000 54.4367 1.51556 6.73068 1.82337 0.449137 0.935138
3623 24.961 3.59509 6.12155 0.816887 -1.1934 -0.398241
3354 24.2168 3.68111 6.89661 -1.69033 -0.558092 1.34355
1726 60.4024 3.42349 5.85814 0.503636 -0.135019 -1.26418
238 61.2786 4.03661 6.52185 -0.723154 1.4699 0.692003
2381 67.9235 7.29924 7.00647 -0.426431 1.23402 1.70794
2496 69.3094 7.18678 5.82144 0.667535 1.72216 0.837249
1688 59.161 8.5527 5.92792 1.08663 -0.660246 -0.36451
1405 30.8509 11.0385 6.85675 2.19301 -0.19732 -0.102273
3921 44.1441 11.1492 6.07653 -0.66971 0.217658 -0.795551
3521 5.19728 13.7846 7.0798 0.29587 0.700806 1.05601
563 30.9925 13.5058 6.63874 -0.743307 -0.568433 0.0461927
1057 38.1737 14.7298 6.42292 0.183359 -0.443843 0.48157
449 24.2838 16.5449 6.72644 0.592944 0.494413 -1.56081
545 36.1747 15.8793 6.90799 0.232553 -1.0007 -0.723806
145 42.4714 16.8602 5.70105 0.0332577 -1.14077 -0.383976
1921 25.415 17.279 7.03448 -0.346349 0.164278 1.11693
1233 3.71107 19.9788 6.72066 0.653715 0.0471642 -0.612179
1533 51.6686 21.2412 6.64012 0.0281361 -0.319011 -0.391318
1520 45.178 21.4273 5.87447 1.10334 2.65891 0.731543
3676 1.30627 24.3149 6.13221 1.14947 -0.168614 2.24859
1717 15.1712 25.4101 5.94626 0.893894 1.36233 -1.20893
354 0.564526 27.6452 6.82098 -0.688744 0.137378 1.66413
122 58.1547 27.9088 6.87449 0.723168 2.20342 0.793284
3541 67.379 28.1284 6.24678 0.184024 0.872609 -0.171819
3544 30.5691 29.0935 6.63196 0.0254909 -0.962705 2.19825
434 36.1794 30.1064 6.64973 -1.44527 -2.15806 -0.356739
2079 13.9966 31.343 6.3959 1.28625 -0.106817 -0.37215
1550 35.7499 33.3879 5.87033 -0.0437326 -0.124152 -0.0785371
1806 43.0544 33.2833 6.47052 -0.133671 0.0252984 -1.52407
2826 48.4179 32.7981 6.61243 -0.987862 0.161052 0.742344
1498 55.3472 33.0575 6.62738 -0.882531 0.451387 0.136544
635 60.5297 32.6309 6.88373 -1.21838 -0.000813124 -1.09825
3377 17.682 34.4713 6.41369 1.70664 0.879228 -2.28291
2906 21.2184 36.2952 6.68343 -0.0590806 1.15991 -0.877287
2351 61.3365 36.4989 6.61707 -1.45015 2.96992 -0.576099
2589 60.1545 0.891725 8.06893 1.53614 -0.369109 0.0612794
2789 1.87201 2.0025 7.75944 1.33219 -0.50108 0.551032
1408 69.0356 1.67542 8.2292 0.127224 -0.772917 -1.1072
2664 16.4879 3.04642 8.35467 0.569702 0.47646 0.422564
1483 17.4649 3.07421 8.36751 0.76723 -0.697979 0.967018
3312 22.3738 3.40687 7.39494 1.35654 -1.18598 -1.71184
2717 68.509 3.39746 7.43575 0.590154 1.292 -0.786599
2724 39.5135 5.60109 8.12704 -0.163851 0.944262 -0.323007
1097 0.12266 7.50942 7.66556 -0.623152 0.0131284 -0.365263
2668 2.22027 7.5583 7.17537 -1.3298 0.00328372 -0.686497
820 62.1467 14.5825 8.2212 -1.23213 -0.687391 1.32743
1572 23.8261 16.1188 8.46887 0.778599 -0.780161 -0.0328819
2660 35.8855 17.5938 7.83125 0.0614159 -0.767897 0.24964
414 64.2779 17.2922 7.69377 0.229894 1.3806 0.408031
769 71.2233 18.6934 7.3895 -2.23078 0.0948843 1.04567
3978 14.5876 20.8222 7.31169 0.627173 -0.250123 -0.022618
873 25.6768 21.5138 7.61984 0.755321 0.264781 0.516476
2188 31.0885 21.4164 7.87778 -0.101383 -0.0600281 -0.270205
97 41.4237 23.9886 7.99813 -2.489 -0.550677 1.57446
1849 37.9413 27.3163 7.24561 -1.14081 0.706313 0.0211506
2500 66.4314 27.6885 7.1484 2.39861 -0.223395 -0.451994
3953 6.93882 29.0626 7.95618 0.810939 -0.25536 -0.521882
1293 34.4502 28.4415 7.86889 -0.383312 0.81157 -0.408633
763 3.24914 32.0363 7.54448 0.693532 -0.891512 0.910376
529 59.6016 32.3663 8.01104 -0.735692 -0.369684 -1.3572
3304 34.9514 33.2579 8.41891 -0.774375 0.830813 -1.17653
1876 13.0549 34.7469 8.07073 -0.196592 1.40456 1.59622
975 53.7088 34.1405 7.32214 -1.23668 0.849243 0.620743
3722 44.612 35.9773 7.98852 -0.238392 0.541701 -1.04777
2825 11.2825 1.22605 9.14528 0.399303 -0.619553 -0.728769
546 57.6362 0.446416 9.23138 -0.803455 0.0189447 0.224349
3564 66.2767 0.615819 9.88736 0.544701 -0.832041 -0.403548
273 69.996 0.356414 8.88525 -0.475598 1.46958 -0.219758
2437 71.6452 1.15459 9.41357 1.68821 0.380869 0.379487
3592 58.9559 1.56991 8.50595 1.1516 -1.84475 0.504459
2912 20.2994 3.81042 9.24586 -0.440351 -0.527147 1.60159
924 0.410993 5.72885 9.20957 -0.291727 -0.850368 0.903931
831 28.7861 6.32794 8.52779 -0.648308 0.150738 -0.423781
3027 8.79937 7.17092 8.62711 1.71514 -0.28324 -0.463008
2439 13.982 7.55426 8.579 0.468341 2.17672 0.324952
2669 18.8754 8.21072 9.04395 -0.379449 -0.477086 -1.88025
2125 30.379 7.15615 9.24876 -0.100103 -3.00155 -0.303211
461 2.97209 10.035 8.83949 0.654759 -1.96138 0.184092
1171 16.1866 11.2031 8.72152 -0.619324 3.44284 -2.09453
1040 4.86359 12.2938 8.72541 0.47133 0.579822 -0.140509
2045 26.9679 11.3865 9.7054 -0.567802 0.824563 -0.126707
2036 39.117 11.9979 9.12967 -1.13702 -0.188846 -0.278435
101 49.6588 12.0698 9.83567 -2.4001 -0.674804 0.0636799
3605 72.9941 12.68 9.47174 0.185674 0.730607 -0.0769238
2450 48.0572 12.7916 8.68246 -0.8667 -0.860843 -0.147103
3574 7.75604 15.5295 9.14018 1.70054 -0.124531 -0.384692
176 25.6555 16.4396 9.38361 -0.231808 -0.112715 -1.05292
3350 71.0235 17.7409 9.82266 2.03227 -1.22829 -1.16342
3245 33.8654 18.6672 9.22601 -0.130715 -0.869225 1.39404
2721 39.5273 19.8952 8.93382 -1.07283 0.540608 1.79699
1508 43.8093 19.9004 9.22453 1.40939 0.175465 -0.135074
329 9.80604 21.5598 9.48997 -0.754084 -0.351574 -1.54255
980 17.4874 21.3685 9.15351 -0.239865 0.238308 0.321682
3551 40.2665 21.8803 8.77248 1.50989 -0.414554 0.0956559
2584 70.3332 21.3764 8.92202 -1.17915 -0.0986156 -0.632513
2175 15.6649 27.2219 9.24789 -0.540388 0.242735 -0.889144
3791 27.5257 28.3484 9.39198 0.226746 1.30757 -0.284702
2272 50.9614 29.727 8.99166 -0.879852 0.17418 1.29141
2676 5.25239 30.9801 9.37169 0.139373 -1.56731 0.138534
1595 8.47107 30.049 9.19006 0.369794 0.31459 0.29739
2354 57.5062 30.0999 8.77622 -0.587451 0.5596 1.18036
2319 6.89133 31.4335 9.56945 -0.451529 0.817041 0.57911
1265 28.1719 31.3909 9.29978 -0.712 0.0627596 1.05529
2874 52.3079 32.1256 8.55787 0.297885 -0.77091 0.103721
1916 69.5589 35.0209 9.65269 0.672113 0.860731 -0.0479531
237 37.3491 35.6244 9.49344 0.968265 0.469674 -1.32316
1303 64.3308 36.5266 8.88696 -1.63168 -0.806431 0.492917
1069 66.0606 36.8108 9.56755 -1.31201 0.847462 0.252573
2070 36.3719 1.26544 11.303 0.949178 0.154112 0.151977
1127 25.7292 1.99178 10.6637 -0.237481 -0.112147 0.401601
3233 66.7937 1.94145 11.0322 -1.02274 1.19708 0.918844
2374 71.4992 3.09042 10.3368 -1.36739 -0.0949908 0.722921
1625 18.8266 5.36998 10.2239 -0.284397 0.18168 1.67986
589 55.7742 5.1725 10.2324 0.411068 -0.886798 1.24144
3740 35.9859 6.47676 10.3378 -0.39681 0.0182654 0.049533
2086 40.8467 6.41176 10.3891 -0.730503 -0.261715 -2.22031
2238 44.6278 9.04043 10.8294 0.147736 -0.139371 -1.27642
543 59.9089 9.14665 10.9328 0.305289 0.864638 -0.518613
929 10.3931 11.3196 10.7333 -2.30842 0.112565 -0.410113
1891 42.7809 11.2939 11.1568 0.366976 0.278949 -0.593091
2438 55.5327 14.3653 11.074 -2.08452 1.18437 0.284661
1016 36.2835 16.2351 10.7017 0.0897045 -0.207301 0.750745
3529 66.6362 19.6009 10.3277 0.570353 -0.972242 -1.17483
760 37.6469 20.5601 11.0938 0.882083 0.103844 0.500601
1596 66.8225 20.8547 10.3704 -0.492239 0.205623 -1.09978
848 6.63505 21.3047 11.0323 -1.08415 -0.526221 2.04961
130 50.774 22.4015 10.4468 -2.32049 -0.893496 -1.09227
3509 56.9539 23.3651 10.4406 -0.934101 -0.29602 1.02334
1960 68.9323 24.0872 10.551 1.53496 -0.0644878 -0.572977
1602 34.1172 24.4694 10.5289 0.155374 -0.208475 1.29886
1797 62.2234 24.7258 10.9344 0.989606 -0.513084 0.872972
3834 10.3773 26.3714 11.2649 0.652396 1.30441 -0.196112
1780 12.0478 25.7858 10.0431 -0.666581 -0.243962 0.295017
1785 19.6008 25.9684 10.5188 -0.551576 -0.768447 0.248108
3991 63.8929 25.7486 10.1533 1.00644 0.343564 -1.85315
3365 40.0563 28.0655 10.1958 0.115329 0.654227 0.690169
3885 41.1409 28.4664 10.1245 -1.13987 -0.126725 -0.176418
3455 49.5898 29.1404 10.515 0.102112 -2.7777 1.28358
530 9.32337 30.4444 10.5247 0.0242581 0.0853354 0.4342
2477 14.3943 30.27 10.5364 0.370696 0.848494 -0.697858
92 6.69459 31.8782 10.6153 1.14822 -0.914094 1.12174
2085 42.47 31.5586 11.2157 -0.224198 0.567783 -0.0422058
3502 27.1147 33.5003 11.0041 -0.0828072 -0.224071 -1.01028
2195 73.4247 33.851 10.5069 -0.896482 -1.04123 0.547643
1386 48.7295 35.1475 9.99631 0.0349484 -0.538253 -0.992068
643 1.08557 35.9438 10.9546 -0.0385412 -1.71936 1.38932
1150 15.4114 36.3238 10.5778 -0.195182 -1.73662 -0.920753
262 51.0199 36.3067 11.2344 0.183799 0.180598 -1.60948
921 59.5353 35.4617 10.5148 0.424251 -1.24743 1.16329
390 36.041 2.51782 11.4831 -0.387922 1.0589 -0.414913
1301 36.4555 2.7778 12.5072 1.29868 0.742533 -0.932809
1362 24.113 3.73198 12.275 0.89729 -0.0179927 -0.874117
1970 29.3985 2.86111 12.2737 -0.448428 0.748135 -0.12724
2957 68.7436 4.03812 11.9382 -0.828943 1.0684 0.220039
627 47.9987 9.70003 11.8792 0.206 -0.898279 -1.95007
55 68.9873 8.80581 12.1614 -1.70334 0.606715 0.502135
1942 37.4643 11.0117 11.858 -1.1987 -0.738954 0.933162
2839 16.78 12.5127 11.9352 0.774831 1.44848 -0.358346
672 5.18521 13.7886 12.5886 -0.521765 -0.786789 -0.58143
42 4.30353 13.6485 11.6779 -0.960874 -0.687566 -0.149572
85 38.0465 12.7818 12.678 -1.82255 1.3688 -1.26787
1389 38.578 14.337 12.0416 1.98179 1.50365 0.139188
334 73.4199 14.7736 11.483 1.10473 1.39842 -0.021701
3890 4.32381 15.6283 12.4321 -0.66837 0.752131 -1.59619
1645 25.9558 16.3864 12.5319 -2.07729 -0.236019 -0.0481033
1692 42.6754 16.0345 12.1993 1.49379 -0.495212 0.68937
3315 40.7456 18.1782 11.4932 -0.0362369 -0.615258 1.81279
1292 40.9483 17.1397 12.4932 -0.818767 0.80445 -1.65266
3720 43.7004 17.4046 11.9389 -0.730535 0.626638 0.28732
1038 43.4649 18.3812 11.3504 -1.13527 0.0552527 -0.324264
3110 50.2003 17.5742 11.3717 1.63448 -1.94877 1.27932
2516 1.24008 19.2332 12.7514 0.194272 0.0632836 1.73244
3746 7.51788 19.6767 11.5019 -0.462055 0.874419 -0.183197
2802 10.7238 19.4171 12.0517 -0.742282 0.0100651 0.78224
2111 44.5233 20.1835 11.9597 0.142518 -1.81423 2.38381
688 45.5845 20.6354 12.2621 0.183122 -0.0626043 -0.799741
2824 48.5717 22.2715 11.7468 -0.566698 -0.199316 -0.34075
3846 36.496 23.1544 11.3465 0.365748 0.115956 0.0733576
1741 43.4957 23.2539 11.4635 -2.1309 -0.850661 1.74957
3074 52.5048 23.8264 11.3916 0.703136 0.497281 -0.249488
877 9.06565 25.4194 11.5711 -2.60366 -0.832576 -0.296617
1330 16.4403 24.1953 12.6405 1.39771 -0.239425 1.51276
2461 31.5023 25.2912 11.5014 1.01237 0.154056 -0.502232
1489 0.858782 26.2279 11.3971 0.91955 -0.603175 0.700134
2068 9.06012 26.8376 12.0405 -1.58847 -0.476589 -1.84487
3891 23.9479 25.7536 11.4193 0.603159 1.10794 1.17038
3545 24.2254 26.7284 11.8839 1.60807 1.24309 0.791814
3749 7.8068 27.4003 12.2855 -0.847782 0.287174 3.10461
2241 56.3828 27.3218 11.6347 -0.619859 0.225542 -0.875272
3717 71.9947 28.4248 11.9746 -1.32822 -1.07923 -0.220784
3710 51.6788 29.8313 11.8076 -1.37644 0.756544 -1.27939
3043 1.86109 33.8729 11.341 0.258733 -0.258477 -0.402261
259 37.9006 33.2196 11.8095 -1.03807 2.24178 -0.225476
663 51.0701 35.2021 11.4183 0.431653 -0.873591 1.11501
3030 14.867 36.1354 11.8244 0.492628 -0.586682 -1.17581
2890 72.4852 35.6535 12.0053 0.0354872 1.46318 -1.24784
1188 9.782 0.0593186 13.4374 0.271011 1.46243 -0.519767
1424 38.9234 0.922652 13.6746 1.9653 -0.516282 0.599214
1111 22.411 4.17402 13.5117 -0.546383 -1.00934 0.135284
1025 31.9392 6.67603 12.9861 0.0821157 -0.733533 0.389101
1083 66.2757 6.65964 13.1453 0.0443027 -0.251419 -0.103052
4 66.8287 7.38463 14.0371 -0.395577 -0.172377 0.861713
2959 27.3151 8.79098 13.3288 -0.210802 0.76193 0.547002
3464 53.4217 9.67885 13.3958 0.344433 -0.233686 -0.773897
2414 58.7848 10.3289 13.204 -0.438412 0.00022101 0.954794
1061 10.3274 12.6321 12.8411 -1.10141 0.260728 1.19036
2052 17.1767 12.5081 13.0944 -0.0921825 -0.724267 0.137476
3390 58.1261 12.3825 13.1928 -1.42329 0.123066 0.932751
471 64.201 12.6772 13.9777 1.26617 0.818067 0.451287
225 4.41093 13.7088 13.3306 0.345126 0.123379 -0.558761
1128 40.9268 13.1617 13.1729 0.139564 0.776799 -0.0254543
3709 8.70638 14.7218 13.9505 -0.470119 0.645793 -0.474989
1842 13.9864 14.5415 13.9552 -0.679808 -0.160487 1.21382
689 16.2702 16.4419 12.908 -0.127399 -1.25223 1.82338
807 49.4346 16.3411 13.1853 -0.862832 0.398326 -1.21633
1374 43.4627 17.9142 13.3607 -0.543837 1.4093 0.297483
2338 55.3001 18.1903 13.7367 0.00699282 0.468646 1.3846
2449 65.2079 17.2511 14.147 0.224136 0.81869 -1.22619
1365 20.9523 20.2905 13.8403 0.599883 -0.406499 0.944192
482 28.7421 21.1798 13.9578 -0.0787117 0.218764 -0.0603667
994 49.4287 20.6916 13.8768 0.257331 -0.402984 -1.56041
2094 64.0119 21.1564 13.9011 -1.41107 0.194489 0.196067
3370 46.443 21.9911 12.8297 1.72389 -0.214821 0.776489
2973 48.8892 22.0785 12.9342 -1.6559 -1.23799 0.891626
3278 61.6396 21.7606 12.8711 -1.83041 -0.270402 -0.332331
749 22.8912 22.9902 13.9522 0.338552 0.234471 -0.595747
3912 44.3508 22.9501 13.1831 0.552119 -1.0543 1.46903
3415 56.5941 22.7748 13.1513 0.96424 -0.172648 0.507513
3825 64.6224 22.7859 13.466 1.18172 1.42432 -0.478159
3299 65.4173 23.8714 14.058 0.0868271 -0.366779 0.177407
2635 26.7473 25.2438 14.0322 1.013 1.34965 -1.63912
435 24.4504 25.9634 14.0348 -0.131181 -0.747315 -0.760246
270 50.4231 26.4286 14.1218 -2.43528 0.232006 -0.106206
840 5.86733 28.7085 13.7632 -0.418359 0.045977 0.776929
2373 18.1431 28.6758 13.6183 -0.0513084 0.0337612 -0.43159
1332 21.3518 28.3724 13.0731 -1.25089 -0.856898 0.667318
2489 31.9355 28.6435 13.797 0.891592 1.10638 -0.215326
3302 46.494 31.9846 12.9482 0.0875146 -0.233978 1.34018
2155 2.7509 34.2822 12.9783 0.805539 -1.29383 -1.20438
318 42.547 34.4748 14.1469 -0.664877 -0.977027 0.142633
747 38.4152 35.8659 14.1502 0.236372 0.726871 0.102424
2907 23.2948 0.16296 15.1537 -0.272723 -0.386031 -0.693738
3281 26.8315 1.3863 14.2113 0.723494 0.155368 -2.99826
1094 34.9311 0.522196 14.4925 -0.0712346 0.196596 0.493522
3388 47.0018 2.51877 15.4876 0.159441 -0.319617 -0.30354
3663 59.4058 1.42146 14.6249 0.674377 -0.91517 -0.814506
3034 55.8299 3.71579 14.6806 -0.868584 1.46931 0.189584
553 57.4239 3.19292 14.4187 1.24659 1.35086 -0.580876
2723 38.9633 8.26754 14.3549 0.607241 -0.0571766 -0.199283
1048 22.262 8.97908 14.3202 -0.0656739 0.072251 0.557259
1039 4.84844 11.2507 14.8347 -1.67494 0.434021 -1.38958
732 42.5484 10.4353 15.5366 -1.67564 1.97298 0.0906026
3213 45.8169 10.5478 14.3387 -0.972611 -1.44436 -0.492454
2273 28.5731 11.5667 14.314 1.67687 -0.0762991 -1.03066
3 33.2686 12.5088 15.2689 1.37432 -0.656299 0.14996
1872 19.3961 13.3393 14.3283 0.0517631 -1.09406 0.65819
1629 25.0209 13.4688 14.3045 0.424971 -0.685432 0.248654
1312 38.2873 14.0581 15.426 -0.913357 -0.923919 -0.134482
3864 10.1801 15.3609 14.6173 -0.211839 -2.52586 0.962859
2678 69.1569 15.5222 15.2507 0.229651 2.32679 1.55064
2376 71.4136 15.2694 14.5473 -0.853033 0.0971615 -0.226691
2797 51.3367 16.8552 15.0313 0.331046 1.69614 1.1413
2360 52.2129 21.0608 15.2132 2.06173 -1.05648 -0.513291
1628 18.7956 21.8667 14.6529 0.366122 0.238529 0.4056
1153 70.8201 21.3238 15.2779 -1.66071 0.857271 0.735346
3203 39.5361 23.9328 14.314 0.567051 1.71161 0.411529
1266 6.34665 25.7752 14.4258 -0.712023 0.0588869 -0.175776
2235 25.0077 26.2695 15.2413 0.528509 0.185789 0.559547
370 36.4 26.7566 15.1838 0.182123 0.54413 0.621614
3742 2.90947 27.9863 14.7513 -0.0259336 -0.614823 0.826977
3682 47.2149 28.7294 15.4354 0.595366 -0.982129 0.161845
2935 65.1079 28.8259 15.0472 1.93477 0.953797 0.423868
2991 14.3399 32.7512 14.982 -0.186021 -2.15172 0.00604154
3893 55.2548 33.4921 14.9731 -0.973537 0.593694 0.579887
2227 32.48 35.1256 15.2083 -0.0640004 -0.552755 -0.0516026
2992 69.7567 34.5343 15.3862 0.893437 -1.18749 -0.474027
1881 65.3796 35.9656 15.4146 0.556959 0.974014 -0.988513
869 20.0007 0.586843 16.1314 -0.609854 -0.22873 0.725105
3716 64.8072 2.48038 16.8757 0.894976 0.899239 -0.662059
1246 69.4388 6.89361 15.6055 -2.23226 -0.960332 -0.966007
3174 33.4581 7.29079 16.8954 -0.534604 -0.098214 1.09896
2026 22.446 9.0438 15.7227 0.873236 1.68706 -1.0114
185 40.6287 9.022 16.0002 1.2504 0.770783 0.894679
249 27.5835 11.1301 16.0973 0.737894 1.18026 -1.93828
1710 52.4398 10.7295 15.6352 -0.568812 0.494498 -2.02347
2652 10.4856 13.316 15.6266 0.280028 -0.173008 -0.447619
245 57.1687 13.9977 16.3281 -0.894841 -0.157303 -0.441142
710 17.3678 15.2391 16.921 0.465328 -1.43795 0.588729
1961 12.834 16.0851 15.6805 1.87524 1.26269 -0.233046
2667 11.1936 17.0399 16.2688 0.175433 -0.0706144 -0.639955
2121 15.9199 21.7627 16.3638 0.873741 -1.24254 -1.05051
3445 18.0144 21.9238 16.4317 0.336172 -1.73892 -0.350638
2050 24.6388 23.1178 15.968 -0.313419 -2.03678 -0.235036
2963 11.1558 24.9351 16.3788 0.408855 1.49142 -0.798513
2299 17.356 26.8725 16.2746 0.747352 0.613538 -0.460558
1130 28.3626 25.554 15.8136 1.26085 0.284537 1.44668
713 35.926 26.2372 16.1437 -0.0350067 -1.1528 2.59818
3334 54.3727 26.1992 16.4339 -0.0486251 1.19255 0.604203
2521 71.7878 25.7426 15.8874 0.918174 -0.162406 0.684252
853 70.1266 27.9076 16.9911 1.22806 0.0640467 -1.16603
3936 6.86777 28.4963 16.9665 1.40901 -1.78741 -0.986847
3771 23.146 28.7424 15.7898 0.811799 -1.01217 0.117489
3167 29.4173 30.4615 16.9591 -0.917349 0.537737 -0.0166536
3647 3.00852 31.8687 15.9125 -0.990972 -0.387827 1.35843
3559 13.0469 32.5707 16.6499 -1.16727 1.74717 -0.533294
276 62.3481 31.9542 16.7079 -2.40666 1.45223 0.241445
875 71.3325 32.0777 15.9707 -0.567376 0.401365 0.783653
3745 2.95589 32.9558 16.5198 1.46063 -0.353633 0.559147
104 31.8949 33.5983 16.6295 -0.265327 -1.79481 -0.31386
1370 63.2091 35.3907 16.0623 0.0503912 0.844802 0.541262
2460 14.018 36.8351 15.8357 -1.14313 0.193647 0.417981
740 52.5696 36.4063 15.9235 -0.348659 -0.214713 -0.285085
1480 64.4694 35.9749 16.1053 -0.785218 0.707233 -0.34171
899 39.1694 0.434222 17.0428 -0.247288 0.854427 0.0116152
598 72.0281 2.16233 17.1186 1.74875 1.50603 -0.918187
1617 17.114 4.03906 18.1351 0.664059 0.222615 -0.853012
777 39.9702 3.92002 17.5075 -0.681355 -2.0918 0.384369
2172 61.6595 3.67525 17.1379 0.323198 0.924539 -0.791845
3966 24.3663 5.60299 18.2531 0.94175 0.329932 -1.2871
1964 35.8963 4.81417 18.0779 -1.03397 -0.309091 0.302493
706 18.3497 7.67159 18.0593 -0.20483 1.21292 0.0481843
1557 62.7666 7.43779 17.572 1.03955 0.715858 -0.0644204
3301 49.0458 8.91894 17.774 0.0453849 -0.679854 1.2232
847 34.6415 10.8231 17.9144 0.985408 -0.147553 0.270588
2674 53.3925 10.1423 17.6133 0.473065 -0.569856 0.557276
129 12.8106 11.6122 18.2987 0.420623 -0.609212 1.08861
2442 73.6489 12.627 17.806 1.13948 -0.645283 -0.532755
3568 33.6857 13.9906 17.7937 0.665971 -2.63026 1.37776
3156 4.61372 14.6359 18.3429 0.0764742 0.701287 -0.0663711
299 2.54351 16.1001 18.3895 -0.159414 0.735616 2.03834
837 4.30494 16.9919 17.6435 -0.318989 -0.382184 -0.758146
1158 14.3393 16.4392 17.2043 -0.222868 0.647685 0.215696
502 65.0683 18.2082 17.2122 -0.811264 0.46263 0.128714
1690 59.2877 18.8987 17.1578 0.486063 0.204847 -1.4786
3041 61.5766 19.3051 17.0034 -0.62668 -0.351998 0.497142
2136 7.97743 19.8641 17.0393 -1.70989 -0.069228 0.157614
1077 8.16907 20.2144 17.9803 -0.0487618 0.57197 -2.45977
894 10.5177 21.1299 18.277 1.14446 -1.4864 -0.513568
1423 46.1915 20.6523 17.4012 -1.96405 -1.4626 1.18998
429 3.65462 22.2922 18.2262 -0.294313 1.76519 0.291756
949 72.1054 22.075 17.3839 0.460326 -0.800128 -0.717681
2803 5.31763 23.0281 17.6452 2.40598 -0.069785 -0.538897
3579 12.0051 23.5104 18.3924 0.000454254 -0.550195 0.997498
3212 62.174 23.1992 18.3449 0.126194 -0.294732 0.206848
2661 3.67944 24.1962 17.7183 0.319432 0.144069 -0.591646
330 45.4025 24.4308 17.3642 0.0183758 -0.186105 -0.143158
1104 35.0075 26.3759 18.3972 0.402937 0.968556 2.05859
3192 21.0563 27.6512 17.3958 -1.00653 0.233293 0.940995
3090 35.7772 27.5679 18.3375 -0.617611 -0.328929 0.293514
1492 2.37901 28.4558 18.0056 -0.124091 -0.639535 -1.16668
1050 25.9496 28.9728 18.1816 0.878136 0.0974826 -0.927072
2799 30.7123 31.403 18.1853 -1.10523 1.27131 -0.368797
3137 65.8623 32.1824 17.2655 0.106849 2.12953 0.306966
1328 11.6856 33.7054 17.5068 0.286738 -1.83949 -0.633629
3908 58.3142 32.8336 17.4603 -0.584738 0.592129 1.25803
2882 67.2037 32.6028 18.3695 -1.46908 -0.350926 -0.90271
1106 66.7396 33.7957 18.1573 -1.2115 -0.232019 -0.242441
302 6.51608 35.3511 17.9998 1.38998 1.14603 1.23654
1927 11.0859 35.3449 17.1958 -1.24835 -0.319775 -0.123399
2303 11.8035 34.8624 18.1785 -2.30278 -0.738393 -0.951393
1194 34.476 35.3979 18.0815 0.157561 -1.39583 -0.169715
1214 27.5163 36.466 17.6478 0.416588 0.404313 1.46762
1517 64.0963 36.7103 18.2178 -0.253979 0.102128 0.365645
531 27.0021 0.999283 18.6815 -0.935164 -2.21689 -1.63434
1457 53.7331 0.0698785 19.4896 -0.00582098 0.0919305 -0.263853
2339 47.4084 3.40296 19.1705 -0.577409 2.03002 -0.123707
3249 64.0175 3.02642 18.4887 1.63176 0.728555 0.236757
2039 40.46 5.53195 18.471 1.4346 2.07963 -1.38352
2592 52.0837 8.09596 19.1716 0.329807 -1.117 2.66304
1682 1.08388 9.28064 18.6943 0.910076 0.233496 -1.0046
717 46.9226 9.16642 18.5083 0.414849 1.50094 0.700293