ITEM: TIMESTEP
58000
ITEM: NUMBER OF ATOMS
4000
ITEM: BOX BOUNDS pp pp pp
0.0000000000000000e+00 7.3680629972807722e+01
0.0000000000000000e+00 7.3680629972807722e+01
0.0000000000000000e+00 7.3680629972807722e+01
ITEM: ATOMS id x y z vx vy vz
1465 20.8684 1.21493 1.34056 0.0893983 -1.26732 -0.494098
707 22.8784 2.58774 1.33722 -0.200308 0.958433 0.7321
3440 48.2879 5.31966 1.27834 0.827637 0.502814 -1.34328
1273 53.7915 5.27792 0.499949 1.80552 1.20301 1.10506
1928 24.4375 7.08518 0.108168 -0.804978 -0.0559744 -0.235065
1421 54.4674 8.84071 0.547272 0.230296 0.606019 0.43349
2865 61.3898 9.58303 0.379107 1.83571 0.826899 0.249658
852 37.4304 10.0795 1.27842 -0.882989 1.62647 -0.0201777
2858 31.1372 12.003 0.952787 -1.25863 -0.246668 -0.215394
1786 38.9039 11.9256 0.188988 -1.05002 -0.172219 1.14716
784 40.7833 13.6923 0.818698 -0.153662 -0.41365 1.36628
267 57.1693 13.7967 1.25134 1.10438 0.702521 -0.653076
1862 31.5182 16.8118 0.768833 0.869685 1.20783 -0.624027
2022 72.3207 16.5393 1.00466 -0.96173 -2.03866 0.430007
2889 72.7532 16.3379 0.114496 -0.02548 -0.67925 1.99019
1266 24.2036 17.1214 0.621929 -1.37796 0.412137 0.802297
3628 9.94966 18.7004 0.397646 -0.374885 -0.733487 -1.20515
3400 28.362 19.4256 0.747315 0.1779 -1.86686 -0.702353
160 71.941 22.1103 0.878541 -0.0460332 -1.00111 -1.61056
150 64.3501 23.3077 0.582725 -0.673405 0.261265 0.367589
670 5.4723 25.4375 0.251811 0.088689 1.12719 0.123726
538 11.9146 26.6513 1.34661 2.00322 -0.710846 -0.730864
3745 2.69816 27.728 0.824143 0.882063 -0.270691 0.334396
1942 66.1897 28.4729 1.1419 -2.282 0.403429 -0.617054
1135 2.80725 29.8729 1.36372 -0.303828 2.21831 1.77856
3931 28.5189 30.1828 0.243782 -0.622947 -0.170581 -0.327983
1529 49.1762 30.9847 0.8382 -0.0320293 -0.799807 1.55241
3404 16.6276 32.4012 1.06734 0.624899 0.237441 -1.08369
3509 9.58801 32.9678 0.997286 -1.09581 -0.913348 1.12176
432 17.2226 33.4542 0.737407 0.694095 -0.464879 -0.195435
495 19.1759 0.152567 2.53873 1.09869 -0.230485 -0.336434
2281 20.4602 0.968514 2.32343 0.938988 1.2623 0.500069
3021 31.3307 2.33964 2.02384 -1.35491 -0.0987495 0.59847
2668 21.1735 3.11399 1.90063 -1.1138 0.53506 0.348054
869 30.4057 3.51207 2.5519 -0.329543 -0.325143 0.546858
2779 52.8858 3.05913 2.48829 -0.739491 -0.457008 -0.413637
1217 3.47739 5.26442 1.53669 -0.474039 -0.404112 -0.421535
3840 58.227 5.05503 2.3109 0.894296 -0.0184506 -1.24345
2770 50.5871 8.45423 1.47293 -0.387595 -0.612492 -0.388025
236 57.2873 8.15212 1.95946 -0.959148 -0.617595 -0.790835
1456 8.43038 9.73283 2.0447 0.916116 0.346516 -0.324867
242 65.328 10.8603 2.02506 0.421485 0.182004 0.190634
3299 63.6046 13.2652 2.01677 -0.280799 1.1076 1.30625
1853 7.02339 14.2419 2.3113 -0.480503 0.743234 -0.932369
1973 71.939 15.5548 2.38256 0.515044 1.09395 -0.586904
3746 17.0701 16.1186 2.77643 -0.323691 0.788361 0.13986
1527 21.2266 16.5801 2.11414 -1.2871 0.282233 0.577952
3229 40.1748 15.5996 2.78974 -0.363713 -0.0608995 -0.491047
2074 56.3261 15.6029 1.83672 0.303798 0.596418 -2.21896
989 58.1654 16.5555 2.67559 -0.678265 -0.537421 1.12285
3164 36.4159 17.8056 1.59114 1.339 0.450031 -1.31714
1498 2.47089 18.957 2.73911 0.591745 0.381108 1.27232
1297 32.9026 18.8512 1.81048 -0.416818 1.30356 1.23978
1774 8.10681 21.6857 2.57985 -0.0799011 1.17916 0.258799
1203 55.2169 22.3484 1.58148 -0.829469 1.70356 -0.535834
1825 65.7635 22.3939 2.34488 -0.285458 0.598714 -0.585339
3968 25.5725 23.9088 2.70009 -1.00399 1.62699 -0.999295
1871 70.8189 23.6269 2.08949 -0.858153 0.337781 2.16996
3072 24.5503 25.3702 2.49961 -0.694044 -0.227186 -0.293661
2306 35.2098 25.7152 1.60663 -0.057084 -0.686956 0.278317
436 42.126 26.0233 1.78946 -1.53332 -0.195624 0.273398
1320 72.3608 25.8596 2.25158 1.09576 2.15909 -1.17597
747 34.8484 28.1148 2.76727 0.10825 0.403151 1.02579
3310 64.5362 27.7353 1.65436 1.59046 0.181408 -0.423124
504 70.4924 28.244 1.7941 -0.878653 1.40177 2.63591
2816 50.1613 28.8866 1.6602 0.976424 -0.853132 0.702201
3492 65.171 28.5764 1.84187 0.0221778 0.558306 -0.336894
2932 6.2369 32.4408 1.4241 0.0817205 -1.3414 0.445064
2144 56.5798 32.2136 2.76419 0.712827 0.417848 0.498514
527 34.5578 33.1218 2.03865 -0.135453 0.436331 -0.515277
1091 71.9551 34.2229 2.03931 0.347472 0.735457 -0.0541222
1423 9.95347 35.5197 2.25898 1.71314 -0.000501182 0.636138
3834 50.3258 36.6844 2.61382 -1.75145 0.3839 0.065304
2665 63.2701 35.9589 2.3448 -1.03574 0.145448 -1.1287
3832 30.1402 2.30283 3.04133 0.336657 0.353622 1.30541
1322 26.0242 3.14004 3.02981 0.482524 -0.724789 0.192487
3323 60.5543 4.12869 3.82549 1.78258 1.62094 1.94936
2611 71.2992 3.18108 3.4777 -0.0789453 0.569541 0.844182
3542 30.4221 6.13804 3.81838 0.562527 -1.61228 1.84877
1767 54.3488 8.41123 3.65784 -0.53668 1.57344 -0.649133
1815 67.7324 8.49565 2.95772 -0.590301 0.0283328 -1.64923
1086 8.18695 10.036 3.58771 -1.39331 0.934538 -0.0853858
3133 28.7737 10.8171 3.40134 -0.480339 0.856327 -0.113833
3939 53.8835 12.0467 3.10372 1.00573 -1.43574 0.268075
2918 4.89124 13.2428 3.60462 0.330341 -0.401455 -0.827569
3520 25.2304 16.7995 3.50346 0.993617 0.294079 1.78114
2833 46.4582 15.6655 2.91219 -0.0900068 -0.0712869 -0.399665
968 48.3996 19.64 3.99977 0.839077 0.459951 -1.17067
2853 32.6741 20.3683 3.62676 0.879982 0.136512 -2.19909
2567 67.2989 19.8605 3.38943 0.765746 0.208069 0.825252
2629 60.8429 23.3542 4.12224 -0.209601 -0.989596 -1.78103
15 3.99811 24.9357 3.3943 0.417308 -0.163413 -0.437133
3892 22.3457 24.9838 4.24234 0.773286 1.87077 1.4857
3687 31.7876 24.6688 3.15485 1.03814 0.404362 -1.02037
806 20.4018 26.6686 3.1564 0.976298 0.634789 0.0820648
3839 24.3936 26.7326 3.48544 -0.304422 -1.09477 0.48676
416 25.8393 26.0333 3.83432 0.479351 -0.272563 -0.719954
61 28.0701 28.2173 3.34845 1.42379 -0.282835 0.261919
1642 36.3353 28.7585 3.95577 0.200827 -0.267143 0.972796
2992 56.0249 30.6016 3.11099 0.485654 0.750595 -0.5707
859 9.25773 31.5195 3.49443 0.0679999 0.918689 -1.34468
3953 2.83912 36.5822 3.53475 0.705794 -0.307177 -0.408808
1785 30.4513 35.7729 3.69275 -0.67944 -0.231669 0.961496
3720 53.6968 1.12802 4.92575 0.195635 0.219567 0.419471
1791 42.2719 2.52027 4.39858 0.0878973 -0.127595 -0.386123
1374 55.7893 1.77921 5.14055 -0.3655 0.58786 0.237269
38 39.3393 3.21112 5.48742 -2.11609 -0.686201 1.546
3334 54.784 4.34085 4.27252 -0.174269 1.2714 0.0552786
2975 11.4256 7.86916 5.33837 -1.42352 -0.794097 1.27479
996 31.6981 8.5445 5.108 -0.49571 -0.0235414 -0.33595
953 13.772 11.0802 4.42628 0.911152 -0.25816 0.780316
847 16.9313 11.1342 5.24746 0.753418 0.00111776 0.884194
703 52.3574 12.1331 4.39829 -1.3373 -0.886574 -1.65261
1562 16.8618 14.8607 4.4659 -0.481516 -0.744914 1.46892
2516 17.4192 14.4445 5.50984 -1.74655 0.34328 0.693491
1921 19.4949 15.5428 5.51569 0.725306 -0.627597 -1.80213
2487 58.8689 16.9282 5.00314 -0.490867 -2.15852 0.638041
1183 23.2567 17.7975 5.53105 0.113515 -1.1199 -0.880623
224 31.6355 23.4606 4.58271 -0.795161 -0.989906 -0.10356
3070 24.5942 25.2286 4.33564 -0.495103 0.693112 -0.433295
2012 50.4911 24.2504 4.70583 0.762026 -1.19535 -1.3395
936 69.9556 24.7743 5.14706 0.431202 0.991002 0.511819
3254 46.7677 26.2709 4.79117 0.520486 0.402029 -0.694193
709 27.1176 28.4691 4.90476 0.151097 0.510855 -0.0298343
3181 31.6794 28.9937 5.3119 -1.7622 -0.701723 -0.0235102
2028 14.6942 31.8856 4.62515 -1.1017 -1.05103 0.988341
427 38.334 32.4923 5.25712 -0.467622 -1.47305 -0.228998
3681 60.4712 32.6191 4.31207 0.889414 0.79749 -0.954059
1941 21.9997 36.3483 4.5499 0.928904 1.28794 0.808812
2043 41.4771 35.6564 5.28079 -1.16231 1.43 0.749367
1603 20.3307 0.0973423 6.56419 0.567196 -0.631577 0.284509
648 36.3288 0.542726 6.88852 -0.882032 -0.644589 -0.547076
313 62.6775 1.02494 6.66293 0.0329601 -2.5252 -0.658523
1481 70.0718 0.184189 6.72451 -0.272293 -0.918339 0.273716
612 36.9441 2.17699 7.0064 0.17184 -0.152618 1.07749
2397 3.40559 4.01908 6.25923 1.04421 -0.0618259 0.91003
1993 54.3411 4.29592 6.51823 1.70907 0.762377 0.164287
2789 53.8898 5.36776 5.97021 -0.291241 0.266578 -0.647765
2387 52.809 6.99995 6.86852 1.54202 0.44943 0.794626
3246 25.9573 9.39022 6.43541 -0.0500888 1.78963 0.253752
3388 52.3171 9.55944 6.42357 -0.660037 -0.432496 0.781955
248 62.9178 11.5501 5.90131 -0.490906 -0.16921 -0.19571
2871 50.0833 13.9782 5.92057 -2.17998 0.662064 0.520703
2802 4.86073 14.3156 6.60001 -0.266358 2.6477 -0.394325
3170 41.5223 16.4082 6.967 0.481119 0.868711 -0.104162
1628 11.745 17.6564 6.89062 0.497893 0.268319 0.238994
563 31.9704 17.5986 6.55363 0.221223 -0.160179 -0.108222
3574 52.1985 17.0558 6.40397 -0.44608 -0.190123 0.727631
252 63.6569 18.3694 6.40075 -0.218713 -2.64881 -0.0572009
3975 5.14306 20.6087 5.71202 0.0217289 1.56659 1.328
54 23.9871 20.8903 6.19693 2.03416 0.369512 0.0580425
760 28.1344 19.929 7.00635 0.054093 0.515764 -0.633181
3245 48.8964 19.945 6.04531 -1.06496 0.108001 -0.803886
2079 10.4025 21.5054 6.35475 -0.583563 1.05895 0.584863
25 47.9449 22.103 6.54034 0.047441 0.620664 0.438175
2060 15.001 24.3644 6.87208 0.369093 -0.648795 -0.34942
2964 34.7343 25.4816 6.28115 0.465272 -0.795452 -0.130462
2520 53.475 24.9158 6.67207 0.897285 0.622968 -0.348889
101 23.1781 25.5062 6.8106 -2.10971 -0.693025 0.994972
3487 72.405 26.394 5.93218 0.0766338 1.74989 -1.28211
1163 73.4564 26.2405 6.51688 0.428772 -0.146747 -1.69386
3589 20.7031 27.2873 7.04681 0.254707 0.765465 -0.362447
3780 20.0237 28.2458 6.67974 1.54627 -0.882251 -2.32321
470 48.3279 27.4604 5.68412 0.588609 1.92179 -0.81105
1409 11.3198 29.1467 6.50215 0.255565 -0.524474 1.08983
680 57.1756 28.5031 6.08215 -0.70211 0.933584 1.31201
2398 0.178204 30.7063 6.28021 0.201092 0.126267 2.06826
435 49.9406 30.0726 6.5347 -2.06266 0.236958 0.0858021
1402 71.4558 30.9209 7.0568 -0.615873 -1.02197 -0.457123
2376 15.4861 31.9566 5.93458 0.0707747 0.0370622 -0.493113
822 50.7792 32.0856 6.25839 -1.08854 -0.303062 -0.0582706
2475 61.4706 33.8981 6.56681 1.34335 0.677579 1.66125
2860 38.802 34.3355 6.30964 0.467156 1.48888 -0.873072
2357 58.6607 34.6144 6.05648 0.303362 -0.739163 -1.93543
3032 61.9373 36.0246 6.0815 -0.406955 -1.20834 -0.100323
1042 55.552 0.416146 7.64358 1.78449 2.01454 2.03392
3317 71.5001 0.913242 7.79327 -1.52484 -1.04457 -1.11831
62 50.7017 1.46912 8.32889 1.98149 -1.06846 -1.90234
3549 58.1373 6.78804 7.83224 -0.208601 -1.12759 1.45256
3230 12.6134 8.49341 7.70264 0.424162 1.17799 0.368702
2585 56.4069 7.64607 7.78393 0.158733 1.1184 -2.602
2569 4.77744 8.52186 7.34408 -0.118779 -1.31844 -0.491762
2190 10.6166 8.81957 7.80053 -0.809345 -1.60755 -0.194174
1753 45.9948 9.4645 7.3759 0.557869 -0.635129 -0.628788
39 71.1726 10.8131 7.33097 -0.0983851 -0.73174 0.303967
2941 6.76372 13.3155 8.09522 -1.98917 -0.840393 0.489995
2641 63.709 13.0947 7.91707 -1.15332 2.36679 -1.22705
3888 10.4704 16.99 7.69062 2.17999 -0.484491 1.9627
1688 36.0163 18.2189 7.27862 1.94734 -1.18959 0.368123
3365 42.4643 17.4839 7.45232 0.242017 0.410102 -0.0157689
1711 14.8093 19.7983 7.13682 0.0678785 -0.315997 -0.34139
3124 49.1974 19.1907 7.58027 1.85369 -1.86808 1.12239
873 10.9169 20.2113 7.3079 0.21355 -0.490236 -0.989714
2489 11.7853 20.1076 7.91522 1.44324 -0.270508 1.10339
1287 1.06503 21.6621 7.26984 1.44874 1.06635 0.402876
2167 62.7847 22.2962 8.03069 -0.48399 -0.677233 -0.00422889
3696 46.9336 24.1198 7.5921 1.1502 -0.120537 0.263469
1176 0.556823 26.3935 7.32651 1.25378 1.36946 -0.649749
657 9.02681 25.9507 7.23254 -0.336038 -1.40801 0.48364
2801 33.575 25.8012 7.55421 -0.884182 1.3363 2.17757
2548 2.45322 28.6006 8.40693 2.04511 0.476115 0.60851
199 31.9474 29.3338 8.37914 -0.20989 -0.000189307 -1.84375
1556 56.3259 29.1064 8.36209 0.712972 -0.179554 -2.61205
1480 55.5713 29.8582 7.337 0.550922 -0.50155 0.00556141
3572 61.1411 32.5744 7.09852 -1.58731 -2.24587 -0.351598
3983 65.7754 32.1812 8.2561 0.340958 -0.630145 0.635227
1560 8.0987 33.5471 8.13433 -0.225543 -2.40664 0.0394684
372 58.1111 32.5914 8.15402 1.23062 -0.566994 -3.15494
3654 66.4093 33.6913 7.27176 1.45039 -0.752109 1.386
914 45.3002 36.577 7.32667 -0.711824 0.441013 -0.0436079
1912 52.6768 2.56178 9.75977 -0.39614 -0.0311727 -1.32324
334 6.46062 3.87766 8.74327 -1.3243 -0.227679 0.279871
1625 11.5358 3.98564 9.23445 -0.415629 -0.537353 -0.588906
824 58.7182 5.67377 9.50283 -0.257259 0.826556 -0.585262
1519 63.307 6.95234 9.37045 0.0369948 0.474044 -0.998988
3490 11.4047 8.0667 8.82372 -0.352396 0.709045 -0.599746
2252 29.6259 8.2881 9.51162 1.37182 -1.29723 0.0583121
1319 45.373 8.3446 8.56883 0.433201 1.43842 1.629
3607 12.2171 8.60764 9.84744 -1.51592 0.0178373 -1.13292
756 22.0979 11.2551 9.6066 1.04139 -1.01605 0.323185
2384 32.7445 13.0393 9.5762 0.352135 1.14678 -0.0830363
1508 19.4283 14.643 9.0636 -1.14112 1.0647 0.376412
3592 30.2801 14.2444 9.72437 1.16546 -0.411491 0.274021
377 48.3644 15.0946 8.84395 -1.13394 -0.213316 -1.54003
705 18.4125 16.1101 8.8601 -0.0382722 -1.59985 -0.321032
1599 59.3872 16.8702 9.46582 -0.024185 0.932622 0.543472
2666 35.1002 18.2229 8.56978 -0.0855929 -0.191036 0.852117
3545 23.1499 18.5201 8.50775 0.0675321 -0.49908 0.19571
2013 15.3032 21.075 8.83186 -1.29609 1.21199 0.1062
1332 16.7297 22.3399 8.97133 1.15142 1.08872 -0.953261
256 36.5439 24.7432 8.84792 1.55508 0.217505 0.737576
1038 48.6927 24.3517 9.05156 -0.474997 -0.647464 -0.118437
2820 55.6827 24.2074 9.0804 -0.116625 0.0334567 0.0651056
461 63.1123 25.0124 9.17974 0.544901 -0.336367 0.794364
3443 63.9092 24.1525 9.41123 0.932652 -0.00430099 -1.0518
2659 10.9888 26.4907 9.52012 0.0189732 -1.39922 -0.863843
2690 45.5078 26.794 9.60066 0.278901 -1.17332 -0.918517
1687 66.2563 25.5094 9.87808 1.17722 0.0532843 1.11787
1629 14.572 28.7076 9.54204 0.846111 -0.899242 0.253605
2249 20.4582 28.9124 9.12083 0.141069 -0.202548 -0.189067
3192 17.1071 30.9305 8.60996 0.587089 -0.114977 0.399878
1100 17.032 30.244 9.36013 0.552315 -0.0953436 0.160165
1980 39.1406 30.5941 9.28151 -0.0386861 -1.44382 1.09118
3009 56.6466 30.0547 8.62934 -0.0323775 0.4526 -0.45881
3058 56.961 30.3707 9.8583 2.0968 -0.554743 -1.29219
3984 64.6882 31.0155 8.63582 1.14468 0.859115 1.43658
3579 71.6371 32.4209 9.07646 -0.587419 -0.34775 0.545314
476 29.135 33.7504 9.03726 -1.21446 1.12554 -0.945959
676 50.5072 35.3696 8.61663 -0.190732 -0.25935 0.739291
1090 56.8183 35.5578 8.78971 1.0342 0.718858 -1.30836
1327 59.5593 36.511 9.40411 -0.217074 -0.685723 -0.731593
129 10.8106 0.472886 10.5898 -0.00200807 1.05857 -0.962172
2580 60.5786 1.70028 11.2993 3.37734 0.377093 0.143388
1679 15.7204 3.4462 10.9372 -0.596268 0.453956 -0.969459
543 66.1084 3.72837 10.5813 -0.660698 0.0765306 0.398355
1334 69.8773 3.90085 10.9917 -0.155074 -0.218995 0.210914
1134 44.0785 4.28715 10 0.46847 -0.569396 0.0613131
385 35.7476 6.44461 10.6466 -0.898781 -1.4282 0.563507
1180 68.3423 6.0924 10.8668 0.763853 0.287589 0.147882
2724 48.0086 7.93448 10.0991 -1.04649 -1.71286 0.027984
3482 56.8345 7.21457 11.2486 0.219022 -0.969404 0.0430448
2241 15.2375 9.7198 11.2377 -1.66359 1.69567 -0.518867
3701 1.17842 11.1881 10.9667 -2.56814 -1.36587 -0.17765
3946 14.7848 10.6685 10.7058 -1.24854 1.10636 0.724756
1153 31.4435 10.5614 11.2045 -0.440851 0.220218 1.20211
2049 50.2174 10.2315 11.3271 1.66784 -0.48128 1.55633
3051 53.0817 11.3245 11.2008 -0.508327 -0.391312 2.28595
1849 61.196 11.0914 10.881 -0.36905 1.47481 0.274924
2847 25.0478 13.5459 10.9938 0.620528 0.525016 -0.433397
2589 31.1072 13.8515 10.3011 1.42655 -1.46366 -0.34848
3721 53.3618 14.8036 10.2036 0.383311 1.48978 0.705616
3615 71.875 14.569 10.5935 1.0355 0.485956 2.36709
3156 3.84846 16.9312 10.8127 0.176599 -1.01108 0.542655
2527 47.2966 16.5634 10.4784 1.25107 0.0136725 -0.537346
2661 68.4171 15.7852 11.1765 0.236899 1.86612 0.512385
2621 26.0727 18.1795 11.2208 -0.738422 -1.27656 0.062082
2466 13.3043 18.7628 11.1557 0.386425 -0.699155 1.19071
458 46.7712 20.944 10.493 -1.01673 0.845424 1.40521
2299 16.6083 21.6919 10.4829 0.210842 0.118597 0.945452
2188 25.5082 23.5609 10.4764 0.42545 -0.405791 0.0148787
875 72.4082 24.3767 11.1963 0.0745563 0.439989 0.0206408
3978 1.97611 25.5949 10.8502 0.512129 -0.321931 2.51715
3301 48.7236 26.0179 10.4111 -0.0818308 -0.554522 1.04589
34 46.7143 27.0136 10.5493 -0.652067 0.470322 -0.557665
3286 63.5265 27.5388 10.9642 -0.911863 1.74454 -0.00153272
3386 65.2148 30.9252 10.2882 0.385717 -0.164266 0.177259
3354 25.5537 31.684 10.62 -0.254097 -1.87494 0.161171
3090 43.4338 32.1298 9.97248 -0.456669 -0.551006 1.25326
2997 12.0755 33.6007 10.2854 0.940484 -0.709403 -1.44517
3047 60.2524 36.4706 10.6941 -0.441902 0.200187 0.580258
3526 41.0849 5.42414 11.4737 -0.153904 -0.411996 0.2114
3740 42.0349 4.41535 11.5289 0.790252 0.618533 -1.64256
1610 35.1751 6.39599 11.565 0.0211771 -0.406902 -1.183
3376 24.3841 7.86395 12.1154 1.28857 -0.948392 1.2904
1439 34.4186 7.6981 11.4807 0.996669 -1.23833 1.98796
1337 38.9554 7.80102 12.3625 1.79325 -2.47267 0.742329
3605 69.4663 8.37177 12.3954 0.798507 -0.850822 0.576313
536 66.1221 8.54314 12.0263 0.961885 -0.175427 0.0905409
3171 71.7301 9.08972 11.4597 -0.879407 -1.07092 -0.0147566
183 42.4946 10.1108 11.771 0.203939 -0.428774 0.206342
3097 71.3775 10.9547 11.4821 -1.78559 0.836204 0.836477
3541 56.0654 13.5817 12.3761 0.0217442 2.3007 0.613334
1304 7.21715 15.0102 11.418 0.851127 0.646351 0.0661262
749 18.6953 14.4296 11.4027 -0.096008 0.411673 1.38126
3296 22.7972 16.9605 12.3481 1.88606 0.867471 -0.496432
3557 34.8321 16.3511 12.1332 -0.387276 0.190441 -1.32958
2450 62.3432 16.0959 12.6963 -0.549426 0.389592 -1.23461
42 2.44793 17.2294 12.2449 0.570854 0.683269 -0.29879
2695 9.10159 19.3976 11.6611 -0.700604 -1.76774 1.78009
2505 32.6905 18.9571 11.4031 0.463927 -1.07725 0.397764
329 18.5274 20.9343 11.941 -0.318191 0.459192 0.660579
1645 68.3169 20.8416 12.3689 -2.11209 -0.237974 0.0487017
3642 21.0976 22.4824 12.5177 -0.0767711 -0.582419 -1.08191
3015 3.38349 23.2079 11.8203 0.503808 1.02587 0.393774
3 12.025 24.0241 11.3921 -0.298335 -0.790012 0.273948
545 21.6977 23.8302 12.5579 0.93609 -0.298583 0.609447
1692 25.9397 23.1562 11.7435 0.523612 0.162857 0.0572756
3529 69.2937 23.8917 12.0176 -0.86674 -0.0570862 1.37975
3394 68.312 24.7842 12.6021 0.659516 0.777638 -0.0488771
2998 48.9783 26.4841 11.8324 -2.45374 -1.64155 -1.9576
1878 64.8722 26.4881 12.4303 -0.464832 0.469852 -1.82057
1598 34.1253 29.9907 11.726 -0.964764 -0.223934 -0.66321
849 2.82888 32.0521 11.4446 0.694271 -0.363539 1.24149
1572 10.2735 32.9619 11.7683 1.04579 -1.11127 -0.671098
2114 6.15601 35.243 12.6215 0.60401 1.0232 -0.25053
2705 50.0566 34.6528 11.6801 -0.816043 -0.322579 0.969207
126 7.45265 0.0339601 12.8666 -0.525505 1.16739 0.845821
1158 19.5565 1.20651 14.0159 -0.279028 0.825485 0.116006
2709 51.9587 2.56118 13.9323 1.1813 -1.36695 0.845693
3390 1.64637 3.54019 13.6247 -0.184841 -0.34214 -0.570373
3791 19.4644 3.47346 13.2171 0.62572 1.18015 -0.0660826
3252 33.0258 5.30135 12.9576 -0.505183 1.06946 1.81488
531 33.9192 7.27844 13.3673 -0.0649773 0.706247 1.20063
1294 46.4466 9.58475 13.3455 -2.08125 0.227073 -0.126927
637 36.9771 11.2355 13.21 0.588399 -0.201783 0.93191
910 45.1813 10.4349 13.1619 -1.31102 0.188669 0.816019
409 10.5773 12.1653 13.9113 1.22293 -1.33957 -0.901279
1630 33.0875 13.2567 12.9674 -1.04567 -1.19268 0.733564
2636 49.6846 15.0584 13.4048 -0.413666 0.587494 -0.161372
112 56.1414 14.9458 12.8164 -1.89303 -0.674403 0.0646275
2436 17.5661 16.2994 13.1881 -1.23811 0.338699 1.17623
375 37.8315 15.7871 12.9774 -1.04179 -0.27783 1.27389
2334 42.6868 18.1346 14.0212 1.38255 1.1722 -0.263607
1083 63.7892 17.5165 12.7843 -1.13524 -0.56618 0.394226
2748 66.6329 17.2379 12.95 -1.20036 -0.870573 1.82776
2739 7.96411 20.4628 13.7078 1.82788 1.94186 -0.982214
3188 37.5597 20.4806 13.4745 1.63422 0.962751 -0.0966245
2454 34.1516 21.3957 13.7759 -0.617043 0.481256 1.06431
3868 50.04 23.9379 13.4897 1.4336 -1.54414 0.523411
2868 53.3178 24.1885 13.826 0.765614 0.967158 0.1065
1881 54.4965 24.8352 13.2586 0.94492 0.727287 0.215546
2373 12.78 26.8785 13.3972 0.698855 -0.158076 0.55785
380 49.8937 26.151 13.868 -2.03668 -0.675614 -0.186243
1841 48.9995 32.077 13.6762 0.308489 -0.157094 -0.475781
2367 68.1497 32.6123 12.9748 0.295483 -0.997093 0.885938
1236 4.9973 35.2936 13.003 -0.806284 1.74299 -0.357242
2447 25.0633 35.3342 13.8013 -0.388117 0.867579 -0.116289
1640 47.3924 35.0562 13.7255 0.38507 -1.29784 -1.22651
3459 48.7124 34.5622 12.9297 -0.643213 -0.785916 -0.320055
2483 50.2586 34.4839 13.6046 2.14198 -0.886684 -1.22494
2824 65.9964 34.8175 12.9572 -0.66458 -0.664353 -0.219611
3039 61.0587 36.1214 13.6822 -0.786699 -0.133861 -0.772449
3778 67.9065 35.5472 13.6123 -0.105365 -0.415024 1.21108
2040 27.5757 0.437632 14.4407 0.653524 -1.58899 0.180331
3424 5.20535 2.52566 14.9557 -0.407104 1.0265 -1.80927
3138 25.434 1.7309 14.5634 -0.0324704 -0.480702 0.871498
3222 36.2465 2.1943 15.3816 -0.527747 0.189913 -1.14519
4 0.896432 3.35398 14.404 -1.00401 0.446307 -0.187004
3531 38.6937 4.02824 14.7122 -0.541812 0.714671 0.466239
2201 2.56077 4.7213 15.5751 0.0409497 -1.46088 0.60725
844 28.9853 4.87251 14.5781 0.550218 -0.400772 0.821952
3673 70.652 4.29533 15.0829 0.820357 0.334156 -0.693789
2391 51.2068 5.83115 15.5512 0.853983 1.82482 0.921606
629 64.3771 7.49749 14.4297 -0.584652 -1.35526 -0.0615528
2799 18.9106 9.44365 14.6651 1.54354 1.40215 0.315662
379 45.1514 8.73301 14.9267 1.83813 -0.0551613 -1.75621
1242 72.6869 9.63371 15.0255 0.434557 -1.45267 0.200931
1613 9.44185 10.043 14.7003 -1.12 -0.0298191 0.0733677
2231 51.7419 10.965 14.6422 -1.04087 0.792396 -0.162559
799 20.1929 12.224 14.5815 1.39976 -1.32389 1.44912
2963 73.5132 13.3036 14.2309 1.11881 0.20449 0.362274
1780 20.5803 14.6337 14.7342 -0.159547 1.08107 -0.666535
568 31.0897 14.9557 14.9303 0.690032 -0.340007 1.26798
3270 45.3539 15.4384 15.5801 0.289314 -0.72306 1.45152
502 66.6563 15.5209 14.4849 1.26368 -0.674723 -0.132718
1643 55.6525 16.4575 14.7257 0.210081 -1.00125 1.64642
807 24.8588 18.172 14.3041 1.6585 0.0485318 0.804854
2960 30.5755 17.8282 14.4287 0.0809169 -1.72041 -0.93518
336 36.422 17.4538 15.0808 1.30294 -1.20337 1.65386
3215 46.918 19.3788 14.3515 1.43403 0.425834 -0.318577
2285 61.9035 19.1413 14.319 -0.596225 -1.22146 0.571038
2136 40.4832 21.1747 14.6965 -1.11928 0.671584 0.89998
3684 17.2814 21.9491 14.35 0.178312 -0.984841 0.480647
330 48.8414 21.2812 14.4171 -1.12923 -1.17254 -5.60242e-05
1622 15.1636 23.2694 15.4911 -0.417575 -0.550141 0.294536
907 61.7558 23.8897 15.3731 1.67819 -0.419635 1.90709
3773 67.1456 23.3831 14.5622 -0.296382 -0.251308 -2.47429
3102 4.98341 25.1197 14.9012 -0.367806 -1.79583 0.136369
1370 55.1314 24.6915 14.5118 -0.180801 0.413274 0.226904
3458 67.34 25.2038 15.3852 -0.882773 -0.937866 -1.18557
1164 17.6747 26.2718 15.3992 0.198463 -0.140438 0.302102
743 65.6749 25.579 14.3487 1.25186 -0.791785 1.34309
1452 41.0552 27.5684 15.2996 -0.44513 1.24283 -0.0325367
713 44.6641 28.0217 14.5813 -0.960491 -0.893547 -0.306896
690 2.62705 29.6584 15.4728 -0.00778099 0.666466 0.245066
2037 32.3496 29.2146 14.5298 -0.0965369 -2.16683 -1.93496
3617 32.9604 32.3247 15.3368 -0.0202219 0.776396 -0.536052
2025 18.8197 32.9901 14.9023 0.101636 -0.470112 0.455239
2477 23.9361 32.9625 15.4684 -1.01804 -1.14971 0.186737
3304 47.4445 34.8034 15.2219 -0.603307 -0.453208 0.219336
606 72.8491 34.2572 15.2948 0.447353 0.308049 0.401069
2245 2.94058 36.7 15.3546 0.555841 -0.222104 0.55866
1927 31.2554 36.6756 14.9259 -0.0154473 0.288873 0.549931
3114 57.1462 1.43463 15.6276 2.14978 -1.60067 0.0173665
1246 15.6677 3.8472 15.7477 1.03634 1.61397 -0.434786
1457 56.3671 3.26992 16.5132 -1.35787 0.524099 1.9954
3243 22.318 6.1049 16.8557 0.682452 1.19121 0.350301
2001 33.0951 8.38711 16.1872 -0.883795 1.68841 -0.743326
2803 44.1648 7.39766 16.6257 0.244946 -0.476512 0.47415
1891 45.8698 7.61944 16.9807 0.330279 0.0382727 0.895359
1062 65.7954 8.64045 16.3088 1.20697 0.92617 -0.303653
275 26.41 13.2835 15.856 0.38171 2.20298 -0.198192
2605 2.25068 14.2319 15.8302 -1.64657 1.60328 0.837633
414 14.1353 14.3249 15.8811 -1.27319 -0.0895684 -0.564448
2036 60.304 17.3409 15.9175 -0.313104 -0.673817 -1.25543
833 28.9078 18.6372 15.7644 0.141622 -0.017927 -1.10407
2085 37.7625 21.0922 16.3313 0.666105 -0.259843 -1.26878
3838 53.2741 20.3648 16.2922 -0.0473366 1.37784 -1.09098
3710 1.88713 21.7631 16.2996 -0.678473 -0.0030457 -0.198865
1024 3.0515 22.1606 15.9362 -1.26915 -0.196232 1.34237
3152 7.30101 22.5653 16.5308 -0.0697948 -0.381037 0.436873
701 62.1009 22.9115 16.1793 -0.0432687 0.554133 0.312356
3750 7.95542 29.6146 15.8077 -1.75639 0.87582 -0.581246
3364 18.975 29.5176 16.7938 1.43948 -1.6555 -0.706743
187 25.4317 29.6543 15.7774 -0.225958 1.06753 0.483894
3410 68.3419 31.4921 16.5016 -0.741589 -0.718551 0.609148
1533 54.6958 32.6237 16.8172 -0.808979 -1.20145 -0.932622
2133 66.4462 33.7138 16.5012 -1.02951 -1.1664 -0.702242
3754 12.172 1.64911 18.125 -1.31458 0.162906 -0.276728
3374 46.1924 2.18788 17.4922 1.47147 -0.383234 0.270869
2657 57.0885 1.58292 17.3101 -0.901887 0.181421 -1.20189
2291 25.8361 2.94731 17.7287 1.3499 -0.239745 -0.441815
941 39.3412 3.56176 17.1335 -0.511238 -2.21366 -0.210085
620 45.8454 3.24839 17.4014 0.268674 1.3796 0.792436
3273 19.7608 6.50726 18.0381 0.442915 0.597109 0.570403
3856 42.7294 5.96992 17.2398 -0.334088 -1.84233 -1.19951
2723 16.2211 8.03418 17.8819 0.326453 0.352838 -1.18923
2389 8.14165 8.87296 18.0382 -0.0867007 -1.67959 1.00829
452 70.3742 10.4599 17.133 -0.62729 -0.105378 -1.20917
3018 34.0361 11.4991 18.1679 1.01663 -1.0355 -0.546205
708 36.1054 11.7431 17.9324 1.10758 -0.995012 0.519634
1056 69.0134 11.6588 17.6911 -1.98242 -1.15494 0.718546
482 29.6195 14.9625 18.1684 0.0262166 0.308151 -0.579646
683 59.8991 15.1484 17.2776 -0.965661 1.45761 -0.439293
1391 4.04844 18.0298 17.2552 0.113265 -0.503291 -2.3444
3328 35.5995 18.2416 18.002 0.987723 0.531379 -0.506527
1137 72.0834 17.2171 18.2376 -0.542805 0.50195 -0.5546
1330 36.7379 19.3933 17.5121 3.06073 0.751192 0.365754
1241 41.18 19.7783 17.5336 -0.610565 -0.354496 -0.659449
469 68.2674 19.6918 18.3532 0.0475685 -1.05077 -0.0314917
1224 73.2522 20.396 17.7793 0.590109 -1.89681 -1.07893
2574 33.0072 21.905 17.0058 0.188973 1.93091 0.0534057
1955 9.93804 25.6361 17.688 0.995995 0.589303 -0.728492
2737 14.27 25.636 17.5861 0.157979 -1.1039 1.2178
3893 66.0929 25.7103 17.1992 -0.850811 1.12319 -0.679422
3695 72.1946 25.9155 17.3389 -0.401683 0.128892 0.823544
90 28.1362 27.8918 17.5776 0.105321 0.68822 1.28821
2613 62.4516 27.4879 18.2126 1.77339 -0.117189 0.594646
692 37.7958 29.1161 17.337 -0.236419 -1.18836 -0.176908
1889 51.7799 30.2057 17.0471 -2.41981 -0.18467 -0.149823
2395 56.2223 33.6262 18.1495 -0.962506 -1.85285 0.080355
2220 34.8602 34.6685 17.6297 1.42731 0.120704 -0.917524
3290 44.1343 35.584 17.7131 -1.07008 -0.347667 0.622408
2072 27.8785 0.924794 19.3665 -0.499712 -0.184218 0.347785
577 59.3528 1.19536 19.3283 -0.588026 -1.83678 -0.211005
219 38.453 3.00181 19.6887 0.399276 -0.170716 0.953249
569 60.3431 5.33156 18.7614 2.41995 -0.540698 -1.03978
1703 3.93859 6.05652 19.0733 -1.48052 -0.70592 -0.536689
3921 51.8266 6.67544 19.03 0.584336 0.465478 -0.274517
2817 18.3827 7.28199 18.5801 -1.15364 -0.881736 0.261828
1251 71.2348 7.97783 19.7955 1.4279 0.653608 0.631985
1659 4.63037 9.62198 19.1954 2.7023 -0.237351 0.332123
2007 10.549 9.69877 19.4232 1.59432 -1.12484 2.71215
564 60.6238 9.14617 18.9362 -1.9721 -0.115537 0.355033
1111 38.0379 10.3444 19.4462 1.04867 0.111292 -1.46206
666 65.2557 11.5195 18.5888 0.533447 0.715514 -0.438126
1159 25.3665 12.8816 19.5413 -1.66167 1.93678 1.29396
177 29.6408 15.1558 19.5367 -2.05031 1.12199 1.38003
1592 56.0232 14.9165 18.4711 -0.172659 -1.08122 0.615806
1268 58.5811 14.5231 19.7599 1.56124 -0.0793548 0.596098
3971 11.7937 18.3152 19.6377 -0.394689 0.922231 0.467431
2612 45.1776 18.89 18.8509 -0.600503 0.449412 -1.07155
245 64.6858 18.7132 19.8105 -0.715997 -0.00571423 0.0825481
2907 18.143 20.9329 18.78 0.381551 -1.20261 -0.447262
2431 73.1242 20.3043 19.462 0.647138 -1.61014 -0.286441
1632 0.366831 21.2575 19.1729 -0.939123 -0.171155 -1.64435
1681 73.4397 23.6283 18.9938 0.603236 0.0685243 -0.207288
3041 1.02993 24.9743 18.4457 -0.705011 0.213175 -0.447721
2795 63.087 24.7267 19.0667 0.303496 -0.102511 0.281359
2610 25.4295 25.9807 19.5157 1.1307 -1.69895 -0.110822
3255 10.4817 28.5599 18.891 0.908876 -0.990267 0.153239
625 20.7466 28.9563 18.4787 0.291986 0.675044 0.812797
420 23.5882 29.4646 18.6957 1.13018 1.65542 0.939695
2394 23.4583 31.4112 19.8243 0.598544 0.341442 -0.676678
204 5.3305 33.4124 18.8167 -1.0193 -0.523462 2.55922
3464 50.6192 33.2957 19.5118 -0.31389 -0.797886 -0.235126
3668 19.6377 35.2484 19.3913 -0.915621 -1.2136 1.36695
3479 55.911 34.108 19.1785 -0.360356 -0.243607 -1.55758
2413 66.6407 36.3716 18.805 1.01857 0.0473815 -0.023385
1745 19.214 0.105451 20.1573 0.408636 2.55614 -0.294656
3920 47.2612 3.46161 20.1578 0.796066 -1.47337 -0.576805
1518 71.199 3.07583 20.8898 -0.931909 -1.23348 0.576942
1097 71.6077 5.20348 20.6065 0.525393 0.356415 -0.765262
3527 59.6683 9.19391 20.6267 1.05857 -1.27947 0.0322704
1651 15.4105 12.3338 20.7137 -0.69357 -1.08326 -1.5865
1408 59.2062 11.6499 20.9972 0.558829 -0.241878 -0.600895
2005 49.6211 13.7231 19.8644 -1.05781 0.619843 0.903112
774 58.0626 13.6836 20.083 -2.18703 1.19496 -0.0587933
486 18.7591 14.2478 21.1072 -1.26769 -1.65363 0.959134
2147 41.4853 14.9147 20.1427 1.1112 0.239944 -1.10196
905 3.1493 16.1986 19.9633 -0.602586 1.34486 0.05392
3564 8.82198 16.2192 20.6805 -0.330298 -1.17059 -0.376969
2906 24.4147 16.9118 20.0007 -0.156902 0.860059 -0.377362
3924 0.348333 18.2196 21.1084 0.142828 -0.918335 2.02181
1293 18.8946 18.4186 20.9923 -0.238918 0.734202 0.803181
3212 63.9515 18.7456 21.0618 0.404276 0.236914 0.714962
1860 57.9014 21.0953 20.5878 0.325007 -2.13789 -1.29739
2584 20.0067 21.8209 20.2022 -1.12334 0.271164 -0.274778
3991 59.6255 21.8955 20.8226 0.717105 -0.0591544 -0.504582
89 0.699877 23.6965 20.1591 -0.311508 -2.17398 -0.207306
3722 44.8155 23.7851 21.1714 0.913654 -1.14193 0.264554