ITEM: TIMESTEP
76000
ITEM: NUMBER OF ATOMS
4000
ITEM: BOX BOUNDS pp pp pp
0.0000000000000000e+00 7.3680629972807722e+01
0.0000000000000000e+00 7.3680629972807722e+01
0.0000000000000000e+00 7.3680629972807722e+01
ITEM: ATOMS id x y z vx vy vz
1987 71.8519 2.65182 0.33682 -0.316865 0.126519 0.326088
558 32.2686 5.15671 0.676075 -0.0708747 0.165773 0.439737
3119 63.7877 5.07329 1.10896 0.0579016 0.55285 1.03959
3659 10.4642 5.84803 0.287039 -0.714848 -1.44019 0.00280692
1868 27.5471 6.21606 0.734002 1.01716 0.797231 -0.102822
3549 36.3793 8.14243 0.154063 -0.368914 0.638141 0.52304
3392 38.5468 7.87341 0.649468 0.252868 0.396056 -0.838263
3201 4.51978 8.64144 1.33126 0.874773 -0.197429 -0.504419
215 45.247 11.6374 0.204236 -0.63531 0.832447 -1.66634
3207 48.5536 12.382 1.29909 -1.23465 0.844234 0.918212
2311 8.5409 13.7168 0.625901 1.08488 -0.864329 0.413566
3182 46.7283 13.9318 1.092 0.644706 0.520275 0.387774
311 72.5567 16.664 0.770149 0.290305 -0.177092 -0.0417015
1364 4.99912 17.2387 1.3319 -0.544757 -2.28609 -0.00459091
1242 41.1795 19.652 0.145672 -1.32499 -0.998462 1.58422
826 53.9455 19.1118 0.120264 0.0747169 -0.802699 -1.16757
1830 3.57982 20.8701 0.983549 -0.58026 1.39113 -1.3289
1283 58.3436 21.1773 1.09381 0.206008 1.1265 -0.315451
3049 71.4636 20.9187 0.839167 -0.324554 -2.22661 -0.0342524
2540 39.2559 24.2358 1.14401 -0.475943 -0.954145 1.52554
366 71.1157 24.1589 0.0496565 0.432409 -0.405605 0.62719
751 26.8916 26.205 1.26605 1.02313 0.209641 -1.76087
1908 20.0043 27.6654 0.384316 -1.18864 1.81673 0.0750952
1828 36.5806 27.08 0.507712 0.162985 0.683828 -0.767156
2523 46.5283 30.555 0.349036 0.871019 -1.29075 -1.1001
2165 13.3315 33.6418 0.121778 0.524656 0.168714 0.0251099
3406 55.6721 32.6932 0.814588 0.0806851 -0.192909 -1.53064
3589 45.1884 34.7472 0.689585 2.24172 1.15614 -1.0217
1934 47.0508 34.5107 0.326335 0.255656 0.921176 -1.35005
3781 70.9104 35.0282 0.397171 -1.25871 0.0070055 -0.619459
952 26.6353 35.9811 0.304046 1.06385 -0.140913 -0.503619
2884 55.7948 0.5027 2.82755 1.67323 -1.17194 -0.536935
1642 33.6708 2.71913 2.68155 -2.2334 -0.701245 -0.302339
90 43.7117 3.27509 1.80147 -0.604362 0.664121 0.763411
3485 11.0225 4.29216 1.45338 -1.10138 -1.186 1.12036
2923 3.53847 6.74262 1.50141 0.0631656 -2.00041 0.220782
3192 52.7866 6.50737 1.65007 -0.170276 -2.25843 -0.0400981
3901 49.0467 7.1496 1.97538 0.51308 0.873674 -1.07947
3917 35.7409 8.76278 2.20396 -0.100893 0.0921653 -0.715863
3115 42.0905 9.55591 1.92158 -0.846143 -0.675941 -1.26519
3881 4.73697 10.3914 2.44027 -0.376633 1.67529 0.526158
3481 0.37049 12.1119 1.8141 -0.587877 0.461169 -0.709564
2476 13.8913 11.3885 2.76706 0.548026 -0.00813474 1.25701
197 29.3335 12.2092 2.80761 -0.931784 -2.17097 -0.640747
1775 32.3793 11.4726 2.26594 1.58881 1.10043 1.13616
3128 52.8233 13.2257 2.63627 0.740028 -0.196547 0.996492
1841 65.0586 15.6853 1.65827 -0.000729791 0.722718 0.236442
913 56.6523 17.7903 1.78058 0.148629 0.323219 -0.615128
573 61.5581 17.879 1.56184 0.663071 0.57799 -1.47367
1431 67.3738 18.1792 2.63434 -0.174754 -1.126 0.349463
535 3.37596 18.9763 1.51909 -2.00708 2.24798 -0.373573
1029 18.5224 19.3956 2.10187 -1.43948 -0.122246 -0.233166
3635 31.2685 19.3895 1.57935 0.666246 1.00981 -0.266888
1999 38.0576 19.265 1.78736 -0.366443 -0.232902 1.57403
2935 47.9839 20.2447 2.2643 1.14788 -0.337402 0.705297
1189 54.6024 23.5603 2.12279 -0.937496 -1.01002 -0.776207
1845 55.7912 24.2102 2.26402 -0.369696 1.31457 -0.284523
1414 63.0121 25.0007 2.57098 0.125426 0.178691 0.0269737
3890 2.74778 26.8414 2.54857 0.409653 1.2798 -0.255461
3606 6.79407 30.1359 1.8244 0.627931 -1.06607 0.400313
1754 12.2047 30.2133 1.49386 0.634562 0.696313 2.41318
296 2.54235 33.1318 1.77743 0.173223 -1.21898 -0.121892
1196 4.6599 32.8909 2.08054 0.749478 1.7226 0.114639
3019 71.489 36.0095 2.68843 1.02358 0.743388 -0.448937
93 58.671 3.00628 3.6466 -0.639907 0.774549 1.77147
1959 64.1208 6.75052 2.89708 0.634829 -1.10455 0.314715
2122 72.1496 5.98022 3.92721 0.527286 -0.9251 0.967746
1138 21.4191 9.12124 3.04997 -0.769627 -0.888026 -0.0722501
3920 40.7416 8.95137 4.21339 -0.853765 1.32445 0.243233
610 5.58022 9.9688 4.1459 -0.882808 0.482831 1.1809
2332 18.9033 10.8763 3.39249 -1.3551 -0.364646 -0.124274
2374 41.4057 10.461 3.10507 0.850837 -1.68716 0.832443
811 72.6059 10.2004 4.02261 -0.239533 -2.21414 0.650884
1244 50.6418 12.0318 3.92752 1.51251 0.548373 -0.0177262
1603 72.0032 11.8962 4.07351 -0.639921 0.602424 0.572067
2535 7.09248 19.558 3.54027 -1.43459 0.0290966 -0.158268
2930 11.8682 19.278 3.28919 -1.31514 0.254496 -0.350476
1373 24.795 19.1725 3.19826 0.727513 -0.642351 -1.25716
3787 55.3384 18.9017 2.98473 -0.504582 -0.726159 0.306607
1680 12.194 21.9256 3.35223 -1.5508 2.13423 0.143254
3872 6.58266 25.3318 3.7821 -0.0133674 -1.16916 0.477358
44 48.1169 25.2088 3.88406 0.0507293 0.133952 -0.300809
2828 43.1046 26.1011 3.86324 1.13489 -0.830413 0.0287425
1355 18.6394 27.9144 3.10196 -2.01872 -0.0535278 -1.88493
2010 19.3264 27.6409 4.20444 -0.330314 0.225285 0.70609
333 27.7684 27.3342 3.52891 -1.10481 1.17102 1.3169
1056 37.4756 28.9629 3.56692 1.02754 -0.846941 0.57918
2962 70.6633 29.3885 3.87263 -0.362167 -0.752106 1.84007
1947 29.884 30.1639 3.6806 -0.776514 0.155799 -1.32907
663 3.61307 31.4193 3.70118 -0.315543 3.17592 -1.16964
2747 19.1817 31.6349 4.10077 1.35338 0.153858 1.25162
504 28.0543 32.7505 3.61578 -1.0392 0.784982 0.888003
667 23.4811 34.1545 2.98276 -0.479607 -1.0586 -0.659735
1455 41.7133 35.5251 2.85386 1.96762 0.545122 0.8779
3598 63.2298 0.353353 5.60036 1.69201 1.43105 -1.00785
2974 22.683 1.66154 4.55967 0.582073 -0.389411 0.433825
3306 31.7383 3.45799 4.9906 1.31168 -0.823104 0.893608
3618 4.01908 4.73364 5.14753 0.206432 0.10656 -1.89427
3507 11.7926 5.5622 4.59376 -0.889361 -1.20993 -0.493571
2808 13.6218 7.34236 5.02091 -2.53868 1.14406 1.60474
1360 12.9168 9.92929 4.57902 -0.191608 -0.663611 -1.27142
1041 23.5658 11.2519 4.5005 -0.781329 -0.824916 0.26943
1840 32.8333 12.6431 5.07677 0.0738896 -1.37687 -2.12931
446 48.5636 12.7486 4.3635 0.163142 0.405468 0.843569
1914 21.7194 13.5429 4.43916 0.43537 -0.574312 -0.690303
76 45.2298 14.8834 5.61415 -0.0655277 0.841502 -0.401822
3235 58.97 16.095 5.48841 0.170259 0.702921 0.28135
2375 29.9647 18.9718 5.15403 -1.24688 0.0279031 0.640638
2850 39.2226 18.5673 5.27921 0.594861 0.149302 -0.404541
849 69.5966 21.0777 4.31228 -0.878077 -1.1224 0.868789
1625 5.80552 21.289 4.98004 1.28408 -0.88433 -0.758759
3453 70.4036 22.009 4.31373 -1.05494 -0.277569 1.14034
1620 73.3913 22.0923 4.29512 0.202004 -0.769991 -2.26006
2148 16.2451 23.4937 4.60684 0.49375 0.38985 -1.15811
24 43.9164 23.9317 4.36623 -0.297799 0.765094 -0.0699041
1552 45.0808 23.4732 4.62416 0.576005 1.2913 -0.225236
757 44.4817 22.7421 5.36652 1.86616 0.117304 -1.08316
2210 20.1287 25.0973 5.58184 -2.03937 -3.07885 -1.64446
3928 7.96731 26.5599 5.37505 0.751893 -0.21009 -0.526039
88 22.1102 26.6667 4.48576 -0.590039 -0.772565 -2.7415
52 69.2793 26.2078 5.17681 -1.35326 0.376183 0.505258
3064 55.3804 27.1926 5.27294 -1.09434 1.7427 0.387331
3357 69.1972 28.4696 4.52817 -0.596818 -0.0381798 -1.57029
2424 61.2999 32.9355 4.69313 0.0137096 1.89957 -1.36598
292 26.9113 34.405 4.80128 -0.285008 -0.641067 -0.0141923
1368 9.76662 35.455 4.30857 0.0787154 -0.691017 -0.0522992
891 0.480887 0.993991 6.67654 0.0271756 0.629266 0.801858
974 45.7036 3.86301 6.8657 -1.16249 -0.232908 -1.22905
1632 8.32709 5.32543 6.92759 -1.01712 0.0978725 -1.06476
805 18.2184 5.04598 6.79643 -0.643031 0.475879 -1.99097
3057 40.1114 5.05561 6.617 1.33979 -0.795829 -0.947804
2185 46.8244 6.63815 6.10634 -1.66468 -0.692447 0.424406
2368 13.924 8.14016 5.9314 0.587855 -0.392551 0.330181
1667 23.1873 8.69648 5.87525 0.558779 0.429107 2.04511
2132 25.5458 8.99369 6.99298 -0.214293 -1.16778 -0.015653
1304 44.3156 9.51301 5.89181 0.571723 -0.180832 -1.36069
2617 63.6461 9.24396 6.76425 -1.02732 1.07151 1.53604
863 5.14997 10.358 5.99316 -0.908718 1.21671 -0.324219
2568 53.1869 10.9853 6.95089 1.37381 0.950751 -0.334381
1824 54.7888 10.4036 5.77649 1.23671 -0.865858 0.0584125
3160 12.3294 11.4439 6.52558 0.042465 0.31481 0.624501
2340 71.2853 11.8879 5.95718 -1.39701 1.91068 -0.285556
2402 41.7071 15.1228 5.69616 -0.00915908 -0.105486 -0.260022
3530 70.5376 15.1293 5.882 0.516067 -0.0583727 1.44632
3512 41.0371 15.8806 6.15697 -1.45639 -0.338418 0.928956
776 13.9185 17.8004 6.55365 -0.478405 0.333857 0.789095
3784 21.7328 17.3889 6.54101 0.549568 0.692328 0.109008
3252 40.4415 17.0887 6.03881 0.650018 1.89887 -0.172917
1030 47.6948 18.2217 6.83052 1.17248 1.20264 -1.5733
1991 9.16895 19.6794 6.53658 -2.28422 -0.0600156 -0.561297
2638 43.0145 18.5586 6.60535 -1.31899 -0.308219 0.745926
282 62.7158 19.2249 6.43681 -0.34484 0.906633 0.844934
1795 1.62942 20.1281 6.90577 0.528154 0.910626 0.0917281
621 39.3777 20.2274 5.94675 -0.35095 -1.73203 -0.364584
3771 29.2782 27.8874 6.61383 -1.27792 -0.265802 0.865998
3741 61.2122 27.0943 6.99583 2.77193 -0.793154 -1.46886
2182 38.3204 28.8491 5.95553 -0.0345853 -0.936211 0.916805
2134 38.7379 30.4016 5.98581 -1.54398 -0.260711 -0.438526
1843 49.4822 30.4669 6.88597 1.1382 0.552865 1.59868
210 68.5727 31.449 6.4768 -0.607079 0.361167 2.37392
3803 24.4518 33.3401 5.846 -1.44999 0.173555 0.142655
1957 62.6169 33.7442 6.08938 -0.580917 -1.99632 -1.32903
2921 21.5123 35.2422 5.99707 0.685664 1.09554 -0.980376
1078 23.797 35.3328 6.27413 0.0861378 1.87973 -0.300425
2296 29.1566 34.6833 5.94861 -0.306943 1.91252 0.31344
3944 62.7231 35.2429 6.83198 1.45389 -0.323502 0.986804
1419 36.6122 0.0899503 8.36768 0.68902 0.934636 -0.672746
1137 65.8771 0.0565718 8.00548 -0.514028 -0.583476 0.418883
1721 13.981 2.28176 7.29564 0.887934 -0.339462 -0.294896
2313 57.1158 1.7784 7.56341 0.686599 -0.222553 1.18586
2161 66.8331 1.66887 8.19515 -0.960823 -0.57219 -0.0806726
2483 9.35637 4.74392 7.40396 0.559222 0.711373 -0.826487
428 15.6764 4.57922 7.28767 -1.20671 1.26443 -1.37572
1314 46.1393 5.52629 7.17783 -0.865127 0.376878 2.02464
3798 47.9392 5.13833 7.76333 1.41609 1.28809 2.46379
2420 32.4565 6.38305 8.17925 0.296157 0.0363564 -0.641716
356 45.6708 5.77953 8.31881 0.120638 -1.14099 -1.11989
790 62.393 6.70421 8.20383 0.341811 -1.38985 0.267416
599 8.38851 7.22316 7.91804 -0.0481305 0.567315 -0.845054
2498 49.2819 8.20714 7.39523 0.155165 -0.0999975 0.390346
883 4.70686 10.5106 7.20869 -0.136618 -1.28067 0.63006
2399 28.8365 11.0865 7.75491 -1.8415 -0.994573 0.0285655
1907 33.0083 12.614 8.34363 -0.590732 -0.279006 -1.91552
2026 44.8682 12.616 7.86016 -0.0636909 0.450218 -1.36962
495 2.62812 13.9086 7.62783 -0.185846 -1.46294 -0.417062
267 45.3701 13.8481 8.07773 -1.50144 -2.40609 -0.898419
2889 9.50116 18.1553 7.40934 -1.26065 0.828661 0.129964
2971 45.5077 18.3413 8.04532 1.23949 0.48071 -0.126137
2160 52.4663 18.0393 7.49808 0.468691 0.628607 -1.72687
1149 55.7283 17.7036 7.12986 -0.553478 0.67658 -1.97916
1697 49.7823 19.438 7.23905 0.161936 1.21708 -0.726548
92 9.59163 23.9179 7.92915 -0.257764 0.818199 0.914172
788 24.0832 23.3381 7.68733 -0.734738 0.0152953 0.361734
414 36.206 22.7826 7.28097 -0.153383 -1.20126 -0.681056
3327 61.3878 23.5137 8.27576 -0.199357 0.205065 1.13749
1352 62.5249 23.1144 7.11447 1.49445 1.04768 -1.92515
2763 28.1542 25.877 7.38634 -0.70462 0.602401 0.48874
2837 50.0989 26.4419 7.85726 0.715511 -0.385328 0.457777
2266 9.11435 29.1351 7.38625 1.86914 1.10646 0.800617
1271 29.7341 29.1478 7.79461 1.61984 0.387377 -1.66657
1816 49.1456 28.8662 7.28323 1.09666 0.348436 0.431434
3178 0.256666 32.2089 7.20611 -0.00395352 -0.727851 -0.0765563
1650 49.3905 31.7709 8.03715 -0.213856 -1.86237 -1.54273
903 7.88125 35.1099 8.03639 1.09638 -0.619369 0.675401
3035 39.6027 36.6216 7.30828 -0.337001 -0.9218 1.421
2174 10.9462 1.47868 9.36783 0.929064 -1.97771 -1.85365
1641 16.6494 2.22664 8.50197 -0.922327 -0.432621 -1.06964
1241 66.9052 3.22812 9.38926 0.743343 0.588469 1.99869
1740 9.8118 5.18688 8.5273 -0.541351 0.457952 0.0651562
1058 25.5122 5.63267 9.78495 -0.728196 -0.240284 0.00393427
3678 32.7711 5.60602 9.89666 0.371405 -0.5665 -0.122377
1806 30.3803 7.66587 9.00389 -2.36363 -0.857061 0.0614007
3450 53.1811 7.51405 9.55964 0.0230921 -0.378744 0.391228
869 52.883 7.72002 8.51107 -0.218907 -0.529878 -0.70851
3570 25.579 9.87119 9.89549 1.6089 0.366409 1.10049
3701 35.0629 11.709 8.59174 -0.222332 -0.608754 -0.281001
2456 38.2331 12.4534 9.16544 1.13984 -0.915476 -0.527706
1316 71.1305 11.5538 9.81894 -0.215309 -0.173608 0.670245
2509 8.59715 13.0776 8.88069 -1.87253 -0.330212 -0.94964
2411 40.802 15.5701 9.46439 -1.47121 2.9635 -1.13161
978 47.7356 15.0239 9.88416 -0.539854 0.801675 -1.23088
3082 69.8186 16.0339 9.13679 1.84406 -0.50026 0.451093
2899 14.6122 17.5135 8.94825 -0.485014 -0.347208 -0.618836
3875 37.0926 17.0469 9.28424 0.890464 0.718198 -1.14878
2224 45.4459 17.823 9.01138 0.868963 1.12142 -0.514346
2706 41.1961 19.8259 9.46814 -1.84751 -0.495314 0.512585
166 47.7608 18.49 8.93947 -0.871716 -0.900854 -0.609182
582 4.54747 20.1694 9.55324 -0.573304 0.932734 0.975061
3032 23.6787 20.6523 9.10919 -0.00326823 0.0368474 -0.680061
2062 16.7365 22.6369 8.78807 -0.615884 -0.440192 -0.0101866
2043 23.0503 21.5954 9.19821 0.473698 0.0766521 -0.550249
3375 36.5086 25.2172 8.68242 0.950242 0.628575 0.745028
1967 44.7097 25.0648 9.09306 0.452036 -1.56236 -3.00689
1254 69.8644 24.3078 9.89347 1.19113 0.505798 -0.736858
745 62.4226 26.5623 9.60553 -0.975707 1.33931 -0.417568
147 49.9479 27.3131 8.81939 -0.264662 0.704148 1.57374
3165 65.7011 28.0333 9.68305 -0.165487 0.0455303 0.947847
3134 15.3795 28.4284 8.60627 -0.365131 0.581227 0.680362
1486 62.2063 28.6244 9.59647 -0.0444377 -0.31823 1.12042
2732 54.1652 32.7445 9.06518 1.09442 1.69851 0.678755
1063 41.8925 36.1811 8.85659 -0.779881 0.178241 -0.151463
1532 29.9147 0.734421 10.8697 -0.691317 -0.695343 0.624532
954 34.4941 1.30297 11.1908 -0.663073 0.366878 -0.624318
2519 47.5705 0.128149 10.8206 1.66609 -0.531553 -0.734058
1878 15.1506 2.43237 10.0308 -1.28334 -0.463063 -0.00625402
2382 33.7863 2.32533 10.1034 2.27177 -1.00868 0.991883
1711 38.5447 2.19848 10.1551 -1.68592 -0.581797 -0.97263
3706 9.88121 3.34428 10.9356 0.196981 1.00142 1.5243
2061 22.991 4.11201 10.2209 0.445311 -1.55122 -1.09834
2821 65.6506 3.00257 9.94941 0.669562 -0.768442 1.06507
1722 42.3487 5.48379 10.1361 0.672446 0.77454 -1.71906
634 58.486 4.93023 10.8477 1.43685 3.08732 -0.67535
1113 67.6119 4.61672 10.3947 0.38477 -1.18893 1.68064
3911 42.1663 6.51072 10.1135 0.246332 -1.18195 0.864942
3012 4.85838 7.85264 10.0526 -1.00821 -2.12547 1.14925
3884 14.5942 7.30073 10.7235 0.140589 0.722165 -1.48618
1506 35.8817 9.07027 10.2409 -0.704281 -0.334757 -1.25123
3420 69.1001 9.22765 11.1602 2.03933 -1.07035 -0.522393
1564 28.2581 10.9142 10.4247 0.242155 0.513133 -0.433682
2119 59.44 13.6087 10.1836 0.553225 -0.00459769 -0.423504
3926 70.8982 13.5889 10.1644 -0.845139 0.219205 0.53386
3516 26.9781 14.3622 10.1968 0.594168 0.499949 1.88433
2326 8.78281 15.961 11.1973 0.922686 -0.288398 -0.548984
3969 40.2611 16.2529 10.0814 1.11641 -0.408428 -0.103032
1174 6.50184 18.151 11.1203 0.0323414 2.22652 -1.7559
1089 12.7875 18.185 10.3294 -1.6849 0.0336131 0.932399
2801 37.3524 17.5993 10.6147 1.06916 0.810487 0.453006
1774 31.442 20.3657 10.6254 -0.882498 -0.0595662 0.948495
2829 31.9079 21.9517 10.1359 0.221105 1.8618 -1.25248
2784 20.6146 23.6497 9.95001 0.219079 -2.13487 -0.498181
1609 0.21016 25.2706 10.3819 -0.071988 1.48733 -1.19503
3548 10.1008 24.431 10.3348 -0.000945271 1.52225 -1.04349
97 58.7914 25.6452 10.8008 -1.25891 1.42179 1.57196
3892 36.8852 27.7791 10.6728 0.349676 0.995122 -0.447916
2304 63.0911 27.5144 10.592 0.873712 0.659389 -0.349842
1398 8.92458 28.5383 10.1179 0.886119 -0.193281 -1.45158
2358 48.1719 28.8456 10.3823 2.17029 -1.15456 0.557257
3912 59.9606 29.5933 10.791 -0.00632974 0.0656988 1.91001
3601 38.2898 30.1649 11.0651 -0.233929 0.11462 -1.271
1246 20.7814 32.1809 10.1459 0.700355 1.13934 0.342841
1654 21.7471 32.4372 10.6237 -0.213512 0.74853 -0.768616
1875 32.0872 33.6932 10.4176 -1.94419 -0.760363 1.62036
2183 61.5052 32.8997 11.2239 0.320666 -1.81953 -2.30596
390 21.3253 35.8364 10.0017 0.103017 0.963474 1.24231
2834 67.9039 1.02579 12.6634 -1.18945 1.13864 0.866403
426 8.98377 2.80246 11.378 0.311023 -1.9046 -0.533159
1453 28.889 2.11235 11.8975 -1.46415 -0.469284 -0.125084
3934 51.7575 2.17767 12.7211 1.21462 0.734205 -0.639157
3456 59.2785 6.55243 12.4167 -0.494136 0.00805884 -0.445158
961 20.7318 8.03667 11.6969 0.412941 -0.719614 -0.791173
2947 33.7843 7.21018 12.2593 -0.225848 -0.663841 0.782245
1541 38.449 7.37536 12.2619 1.64529 0.682672 2.4003
655 45.4315 8.37355 11.9238 0.911474 0.498688 -0.527621
3849 65.7952 7.18939 11.4851 -0.916282 0.788847 -2.23216
1556 71.9105 7.63991 12.6548 0.85336 0.568013 0.836128
756 54.2577 9.86319 11.8294 -0.786805 -0.682554 1.47873
1301 70.6861 9.1723 11.4387 -0.612196 -0.484177 -0.741408
2608 3.55809 10.9789 11.4595 0.779433 -2.01041 -0.484784
120 46.3274 11.2463 12.3599 0.084926 0.119002 -0.769013
747 1.2388 12.6169 11.6707 1.01104 -0.180983 2.13283
898 3.43782 12.0593 11.8217 -2.47145 -0.854909 1.44705
3369 44.4819 12.2723 11.9935 -0.371484 1.29257 -0.102524
947 25.3681 13.0082 12.6021 -0.85914 -0.546009 -0.42979
793 30.3869 12.9754 11.4899 -1.08588 -0.74115 0.0852816
1125 38.0964 13.2925 12.1529 -1.1596 0.0659408 1.87778
103 42.8832 13.3126 12.42 -0.65791 -0.0804644 0.644859
3498 68.2167 13.7859 12.217 -1.24268 0.130065 -0.104449
2725 13.5129 14.4263 11.9567 -0.0206964 1.85369 -0.647585
3108 56.7954 15.7753 12.3953 0.99738 -0.77844 0.0597856
2853 13.7686 18.1129 11.8813 -0.170954 -0.862785 0.658646
1858 24.9422 19.0679 12.7125 0.797283 0.696113 -0.575542
3183 19.103 19.9787 12.1744 -0.10221 -0.201625 1.42375
609 1.65877 22.4914 11.4885 0.290684 1.23945 0.961924
3742 0.163898 23.0898 11.3942 1.50724 0.721052 1.24965
3886 69.9639 24.0272 12.4135 1.80809 -0.644101 -0.149761
3517 71.4226 23.1933 12.0074 0.357946 -0.161927 0.392389
1578 23.4789 27.7787 12.3915 0.633683 0.549048 -1.18847
3832 52.1752 27.5324 12.3838 0.603795 -0.22528 0.289678
2019 69.0476 28.5845 12.4217 -1.51606 -0.551562 0.871718
370 43.2531 32.6644 12.6365 -0.00192323 -0.353637 0.629793
775 39.7959 34.4831 11.4957 2.26043 1.86658 -0.896117
2145 41.5982 34.825 11.9557 -1.12876 1.32187 -0.619164
938 3.67288 36.4409 12.6295 0.509896 -0.959466 0.91757
3390 30.3875 0.794688 13.5132 0.573582 0.597461 -0.695421
379 28.4173 1.50374 12.8755 0.269981 0.962189 0.186278
264 51.264 2.06823 14.1517 1.75085 2.82673 -1.51694
932 17.6173 2.8384 14.0623 0.202263 -1.14135 0.559497
57 18.0636 4.15966 13.0009 -0.391895 -0.316631 -0.0563047
3611 51.7466 4.0835 14.0421 1.78291 0.209661 -0.289243
3239 3.16629 8.47979 13.7547 -0.609318 -0.742288 -0.655661
2273 4.53295 7.27546 14.1207 -1.25436 0.549167 -1.87991
3959 21.9645 8.04772 13.2158 0.247468 -1.33835 -2.03151
2672 44.5001 9.39369 13.0979 0.356988 -0.295494 0.279179
3544 71.7836 9.16504 13.6493 1.57219 0.208568 1.66545
281 11.461 10.8617 13.7294 -0.0134969 -0.851376 1.35536
795 52.4051 11.1164 12.7887 0.970863 -0.625206 0.756842
3518 51.954 10.6259 13.7024 -0.176681 -1.0078 2.4655
632 60.0309 11.7197 14.0133 0.865131 0.855166 -0.765669
911 34.0816 13.7916 13.7562 1.07827 1.63543 0.143523
2441 37.0177 13.3726 13.1048 0.942813 -0.161789 0.23921
925 10.202 15.5102 13.003 0.423384 1.42086 2.31447
2712 10.888 17.4253 12.9945 0.546095 1.44675 -0.601111
3014 34.2816 18.997 13.8842 -0.63853 -0.188449 2.03614
100 14.3957 20.5151 13.84 -0.218269 0.473996 -0.812481
1096 51.2944 20.7227 13.1607 0.883552 -1.28431 -0.868266
1036 60.2979 20.5707 14.0014 -1.04445 0.779838 0.488516
2937 28.0557 21.5138 13.5748 0.835448 -1.45411 -1.56256
2457 51.6642 22.1356 13.7809 1.38252 -1.42335 1.87751
969 67.2232 22.3869 13.7256 0.524388 -1.90051 0.955134
3129 18.964 23.6585 13.647 -1.42724 -0.49509 0.0110609
729 23.1016 23.6909 13.5047 -0.550869 -0.880448 -0.685587
2200 24.027 24.2894 12.9808 -1.76047 -0.999198 2.47134
1055 67.6497 25.2316 12.9829 -0.126934 1.62265 1.15419
538 45.1752 28.1983 13.8092 0.987567 0.080895 -0.502068
3008 5.22152 30.0838 13.8361 0.0346937 0.201909 1.03319
2216 30.1964 30.0516 13.627 -1.18977 -0.606474 0.297597
2277 1.64588 31.8693 14.0195 -1.84271 -1.03419 0.576399
3953 0.426686 32.8841 13.8101 -0.575355 -0.928354 -0.394798
181 29.5399 33.7176 13.4825 1.56304 -0.28234 -1.27823
3995 0.081421 34.3993 12.9657 0.355475 -0.856694 0.303613
798 50.2232 34.1201 13.0314 0.671222 -0.943368 -0.0461922
1976 53.6444 35.2764 12.8439 -0.818796 -0.142866 0.28448
1666 61.4923 35.3913 13.2191 1.04867 0.460389 -0.337973
821 9.04185 36.3838 12.9476 -1.00593 0.67463 -0.573741
127 19.1115 0.420573 15.1594 -0.309034 0.443413 -0.473038
1094 72.0988 0.568573 14.6557 -0.614274 -1.30068 -0.500471
850 72.1221 2.84654 14.3945 0.525645 0.569673 -0.759363
861 38.5994 5.4838 14.9896 -0.20945 -0.101218 -0.829485
2555 50.8695 4.79919 14.1822 0.20671 -1.08744 -0.227146
74 20.4335 6.97969 15.2972 -0.4166 -0.536009 0.299622
3301 15.4865 7.54837 14.3854 2.35158 -0.792765 0.381937
1572 17.0517 8.09642 14.2865 0.524814 0.0166867 -1.85282
842 70.768 7.18247 14.861 1.09598 1.32604 -0.118485
5 20.309 9.52251 14.8405 0.335284 -0.970155 0.554616
3432 51.7087 8.82626 14.1774 -1.63076 0.22116 -0.180903
3388 34.7734 12.4511 14.4205 -0.555509 -1.56727 -0.496206
510 19.1214 15.5626 14.2073 -0.56174 0.191226 0.483059
2421 59.7933 14.3569 15.2982 -1.81396 2.1492 0.20739
2039 25.9124 15.8633 15.2148 0.0281783 -2.04871 -0.707804
3309 44.6434 18.4315 14.7409 -0.256453 1.27553 -0.481431
1618 57.2005 18.5526 14.3713 -0.223522 -0.557912 -0.047099
2086 19.3 21.1272 15.1855 -0.531296 -1.36697 -0.500426
1450 2.17023 21.6578 14.8746 0.821801 -0.14302 0.35035
2681 37.209 23.9202 14.7852 -0.161084 0.163594 1.15349
3943 19.8218 24.3495 14.8392 -1.51377 -1.11343 -0.543984
435 27.0996 24.2728 14.7738 -0.0736441 0.46474 -0.131785
3840 5.02609 25.509 14.9307 -0.533839 0.0540165 -0.39338
1911 54.5032 26.4451 15.563 0.50359 -0.308566 0.482832
191 14.251 27.6839 15.1067 0.58027 1.78846 -1.2799
2560 54.8806 27.5594 15.0885 -0.803064 1.58934 0.0883468
2214 2.41465 28.7815 15.303 -0.0141149 -0.363702 0.960512
450 1.42613 29.5548 15.0862 2.75426 0.0901861 -1.4556
474 6.59119 29.5026 15.3985 0.196481 -0.0749239 -0.29421
876 16.7503 28.693 15.4588 0.166989 1.55158 -0.759495
3593 17.4516 28.9431 14.331 0.736401 -0.392966 -0.409185
3321 19.2451 28.7822 14.4355 0.655906 0.530702 1.02786
50 31.9273 29.4315 15.4602 -1.00152 -1.70087 1.43092
3363 59.4578 28.9798 14.1866 -0.664232 -0.626013 0.897625
3238 63.5097 29.521 14.6764 1.43833 -1.15855 0.936723
272 19.0565 30.2634 15.3547 -1.23589 2.49479 -0.955624
678 7.63212 32.5248 15.4326 -0.574019 0.642461 1.29375
73 36.8126 32.3179 14.5335 -0.92692 -0.787817 -1.7184
1860 22.0727 32.7599 14.3569 0.0350954 -0.877327 0.521686
2533 59.8464 34.645 15.0242 -0.376891 -0.874289 0.631639
759 21.3902 36.0276 14.4764 0.361036 -0.232003 0.443718
2075 30.7118 0.0415698 16.493 -1.57412 0.917643 0.181697
413 55.3637 0.361051 15.7814 -1.34732 0.0607713 -1.06184
1195 3.04273 2.07936 16.8256 0.722027 0.999032 -1.61062
2220 31.2988 1.75175 16.4092 -0.0509152 2.05851 -2.45842
3607 67.0022 2.80308 16.6849 0.282384 0.419335 0.944604
1735 23.247 3.64255 16.0805 0.0197661 2.0231 -0.44197
3429 49.9188 2.88026 15.7062 2.17329 0.838195 -0.990483
3088 62.3313 3.84748 15.8075 0.453569 0.809171 -0.933815
2429 15.5277 4.28275 16.7753 -0.0778371 -1.51615 0.641507
977 68.2454 6.28411 15.6679 -0.93686 -0.700967 -0.222649
3287 12.88 7.15155 16.3904 -1.07927 0.426776 0.5313
3347 21.1989 7.64996 16.6332 0.444228 -2.02372 1.15904
3983 6.92617 8.74562 15.881 0.945825 0.826424 1.04261
9 43.2951 9.41413 16.281 -2.0751 -0.652697 1.3735
1201 72.1764 11.0805 16.5474 0.543961 2.34727 0.316033
1529 60.6072 12.0592 16.9341 -0.623948 0.515662 -1.12411
2673 61.2789 12.3282 15.9294 0.0883392 -0.80555 0.297506
915 68.8505 13.7642 15.9518 0.323539 0.244584 0.124311
2 4.26127 16.1741 16.5741 0.528102 2.37153 -0.482596
2852 10.019 16.4847 16.2522 0.876484 -1.99781 0.598764
152 26.9209 16.0611 15.6516 -0.369543 -0.697744 -2.56468
799 39.6971 16.2455 15.8491 -0.180213 -0.0300194 0.359469
3167 10.7733 18.0975 15.6575 0.265806 -0.467632 0.31041
3440 16.0975 18.2067 15.6654 0.547314 -1.28269 0.095322
2831 16.9531 18.8867 16.0175 0.371874 -1.12587 -2.2317
2711 15.0524 20.5072 16.6406 0.872646 -0.27586 0.37638
941 19.0424 21.7539 16.629 -0.81248 0.679556 0.100269
2208 33.9141 23.3142 15.609 0.543128 0.69565 -0.455764
1779 45.4262 23.6419 15.9772 -0.229142 -0.0533115 1.45544
2040 55.2071 23.4533 16.1297 0.420104 0.410994 0.45248
588 72.6096 23.3556 16.257 -0.470823 -0.757935 -2.0542
631 32.0224 24.8967 16.6997 0.364857 -0.0700504 -0.624884
1182 54.7817 24.9261 15.9235 -0.981766 -0.437705 0.337479
714 57.1605 25.189 15.7867 -0.430476 0.0164866 -0.586733
1543 7.00629 25.9093 15.7343 0.530137 1.21186 0.449189
3558 67.0086 25.5274 16.3181 0.564363 -1.30098 -1.46481
3590 0.37093 27.3517 15.8525 -0.940796 0.914498 -0.0786829
2396 60.9642 27.43 16.3499 -1.68671 -0.654862 -0.672909
1071 36.5383 28.7339 16.2708 -1.94486 -2.31708 1.3126
3311 36.2269 29.8567 15.7815 -1.67076 0.705759 0.76235
1394 56.7104 30.6655 16.9392 0.16677 -1.80353 0.170485
806 58.5862 30.6165 15.9358 -0.527148 -0.525367 -1.51019
2352 65.5636 31.8822 16.4213 -0.739782 0.946692 -1.25206
1001 8.57154 32.9122 16.6879 1.48363 -0.858501 2.04892
461 53.0821 33.4046 16.2111 -0.263212 -1.192 -0.229737
3181 71.3373 33.5543 16.8446 0.701765 -0.690152 1.62777
3362 6.05148 34.926 15.9933 1.33814 -1.99576 -0.979608
156 20.0561 34.0199 16.9086 -0.352737 0.336032 -0.340582
19 18.2509 36.5546 16.1288 -0.130981 1.42861 0.538385
2267 12.2505 0.894683 17.6571 -0.208452 3.05056 0.853074
56 15.4423 0.756741 17.9546 0.137405 -1.08399 0.353668
1375 24.7152 0.696411 17.7115 -0.121088 2.16432 1.64225
2497 26.4929 1.34117 18.0604 0.124157 -0.238212 0.792766
250 63.1259 0.372948 17.8667 0.554096 -0.412494 -1.10852
2890 35.6413 2.20696 18.0865 -0.179684 0.715254 -0.617457
549 54.6095 1.49186 17.1535 -0.0971659 -0.0223254 -3.30849
2736 29.6812 4.05808 17.0758 -0.278083 0.970955 -0.606844
2338 29.4361 2.95006 17.5923 -1.14991 -0.689957 -0.915842
1466 51.4433 5.3095 17.7386 0.542216 -0.234212 1.19512
1888 47.8749 6.78873 17.3757 0.7887 0.0363143 0.102039
2323 16.1717 8.39796 17.609 -0.19226 0.202396 1.06778
1512 51.7598 8.78987 18.4026 0.149662 -0.702671 0.179689
3877 57.2844 10.4765 17.8419 -1.06399 -0.0527317 -0.548038
1848 70.3834 10.5205 17.2927 0.692734 1.61409 1.25719
2357 31.4795 11.3399 18.359 -0.610657 0.68932 -0.792473
2300 71.1943 11.5978 17.4746 0.565416 -1.82883 -0.453117
1905 29.7383 13.983 17.4286 0.595998 1.40248 0.782565
3430 48.8582 13.9449 17.3029 -1.27438 -0.849634 -0.41371
2389 12.6601 14.3491 17.2895 -1.22467 -0.533186 -1.06192
1874 29.2526 15.2214 18.2828 -0.662513 -1.65405 -0.624277
764 13.4835 16.8812 17.4952 1.39664 -0.0967482 -0.352576
229 14.7203 16.6168 17.5565 -0.323806 0.705284 -0.189126
810 22.6864 16.3958 17.9449 -0.369549 -0.670787 0.384052
1651 63.1445 16.5348 17.1574 -0.601581 0.735744 0.0312255
2527 29.9835 18.031 17.4331 -0.932155 -0.56153 1.00836
3109 4.11675 18.829 17.5142 -0.471914 -0.707439 -0.947574
1159 15.8037 19.4727 17.1882 0.155832 -1.37925 0.415671
1192 1.042 20.5234 17.054 1.28069 -0.592689 0.107427
363 34.1566 21.6761 18.0649 1.06636 0.543692 -0.374447
384 51.8109 21.9911 17.6049 0.308094 -0.291774 -0.631957
335 7.19234 22.9725 17.3771 0.00417168 1.174 -2.75969
3645 19.3432 22.6891 18.2926 0.25274 0.611312 -1.66991
475 14.9107 24.9571 17.2163 -1.21395 0.224205 -0.938473
383 26.0253 24.6639 17.6046 0.521911 -0.28083 0.449753
464 35.0282 24.2665 18.1957 1.78353 -1.52211 -0.287703
2685 54.4265 26.4786 18.1619 -0.485448 0.0294012 0.67589
445 43.6987 27.3464 17.8421 0.0586434 0.0642747 -0.577871
1225 0.574069 30.2393 17.1329 1.1461 0.5422 1.2735
3476 53.7173 30.0351 18.2027 -0.798084 -1.05074 -0.21207
3586 15.5023 33.4223 17.8509 -1.17682 -0.606614 0.381588
3372 11.1051 34.5825 18.1585 0.271631 -0.96755 0.699222
513 20.6869 35.1572 17.4373 0.643176 -0.712697 1.17985
1551 35.2797 35.3051 18.052 -1.2947 0.339346 0.770182
3125 69.1846 34.5954 17.7119 0.490407 0.500598 0.310683
1746 70.3504 34.0524 18.1113 -2.03013 -1.30335 0.0340342
3006 16.4426 36.0744 17.7128 -0.398152 1.27679 2.26107
2512 6.21551 1.80795 19.3095 -1.13802 0.327663 -1.174
2284 19.1123 2.15211 19.035 -0.115049 0.45675 0.776369
3248 1.24576 4.09774 19.3788 -0.237078 0.655347 -1.63102
436 3.6306 5.50954 19.1655 0.186208 -0.668921 -0.907257
179 4.64287 5.26211 18.56 0.539303 -1.07623 0.00855905
780 36.0948 5.46293 18.7711 -0.0173534 0.669049 0.526847
325 71.8724 5.29104 19.666 0.693253 -0.716184 0.00714746
973 11.438 6.74819 19.7149 0.0516231 -0.288401 0.537616
2167 34.4743 6.1799 19.587 1.4322 0.680767 1.04392
1794 72.7476 5.94043 18.5832 -1.32048 2.03333 0.31986
584 34.3654 7.45613 19.2994 1.08067 0.581509 -1.45328
1497 10.5745 11.7737 19.5146 -0.369019 1.25354 1.9182
2176 51.9921 13.1363 18.751 0.345613 1.85471 0.722434
1747 60.4619 13.3807 19.1128 -1.94612 0.934525 0.458835
3229 61.2986 12.8856 19.3088 -1.06162 -0.315639 -1.33704
145 29.3153 14.2462 18.9846 -0.324067 0.0822854 -1.15869
3542 17.9562 16.7853 19.5045 0.514133 0.706398 1.35811
77 25.5564 16.2119 18.5805 1.55963 1.69033 0.855286
2046 34.4911 15.5894 18.4694 0.69576 0.745664 1.09013
64 45.4412 16.0275 19.6069 0.72589 0.500491 -0.538587
2900 48.2196 16.5665 18.6023 -0.721498 -1.24958 -0.728366
1361 48.1883 16.1016 19.545 -0.361803 0.0512354 -0.39028
2262 14.924 17.942 19.0848 -0.344011 0.559127 0.197004
2722 29.7225 17.1169 19.5502 -0.873392 -0.594355 1.21387
2743 68.7157 17.1459 18.5461 -1.17477 1.15593 0.393208
906 18.9128 19.3674 18.9619 1.35339 0.447694 0.488579
3834 52.3867 19.6076 18.9168 -0.72195 -2.16327 1.65708
3026 27.9121 20.4624 18.7027 -0.609326 -2.11219 0.154169
3191 22.9028 22.2231 19.4811 -2.02715 -0.51572 0.264757
358 39.4791 22.6029 19.637 1.18138 1.06477 0.312192