ITEM: TIMESTEP
40000
ITEM: NUMBER OF ATOMS
4000
ITEM: BOX BOUNDS pp pp pp
0.0000000000000000e+00 7.3680629972807722e+01
0.0000000000000000e+00 7.3680629972807722e+01
0.0000000000000000e+00 7.3680629972807722e+01
ITEM: ATOMS id x y z vx vy vz
3372 40.6971 0.332146 1.34537 0.325398 1.45218 0.812987
1662 17.3019 1.91431 1.07975 0.0883007 1.01501 -1.92873
2443 71.2633 3.00428 0.717452 -0.522542 -1.98577 -0.0742849
575 5.31699 5.27405 1.12018 0.2849 -1.6565 0.307349
1697 35.413 6.47266 0.869972 0.901081 0.235158 -0.0798726
1485 59.8497 8.16695 0.716661 -0.0445442 -1.15802 -1.29694
2767 45.5865 9.01135 0.76834 -2.57311 -0.338925 -1.14791
1497 61.551 9.06155 1.2263 1.10883 -1.18403 2.75052
2210 23.5131 10.1676 0.415256 1.41425 0.919857 -0.771786
2342 7.13762 11.6765 0.771538 0.21154 -0.615747 -0.114687
1404 49.1746 12.1521 1.29581 0.92214 0.505205 0.30509
3019 67.5444 12.4095 0.757772 -1.86855 0.155836 -0.0614957
1967 45.9096 13.6153 0.276317 0.375488 1.70305 -0.128827
14 10.5355 16.1639 1.40023 1.58719 -1.1662 0.0556829
3982 71.0547 16.8429 0.545919 0.093837 -0.923043 1.18821
2068 9.97715 17.7129 0.178249 0.826428 -0.850284 0.13512
301 26.7505 17.2445 1.07039 -1.48317 -2.08115 0.111305
557 32.0394 17.7444 0.875066 -0.661244 -0.683493 0.0365285
739 67.0831 18.3868 1.06799 -0.69096 1.16368 2.5412
1885 19.2137 20.7214 0.658394 0.703075 -1.08944 0.620472
2674 18.0123 21.8244 1.08491 -1.16608 0.552749 -0.704641
2762 0.401261 24.9527 1.3152 1.56855 0.406671 0.0330714
704 30.9287 26.9835 0.0262756 -0.244103 -0.729072 2.15703
761 20.7989 28.7904 0.816814 1.03277 -0.68117 0.967832
3137 67.8271 30.6115 1.17729 -0.718207 1.2119 -0.0873225
1511 15.6146 31.5193 0.00492082 1.10953 -1.37549 -0.217622
678 62.9682 31.2331 0.276108 -0.940749 -0.310406 0.0733056
25 59.8728 32.7783 0.362239 -0.540061 -0.00260227 -0.218618
1663 32.1508 34.5272 0.659688 0.535057 -0.621866 -1.10992
2781 26.7552 35.8483 0.0978168 0.922105 -0.665627 -0.884248
549 9.37467 2.19171 2.38831 1.72446 -0.966926 -1.90234
3084 21.2693 2.37411 2.11241 -0.522211 -0.732224 0.357307
171 30.2509 3.16839 1.54214 0.244415 -0.20501 -0.144506
1752 4.71587 5.47427 1.9659 -0.682818 0.238207 0.442517
1091 23.4194 4.36699 2.51329 -1.09651 1.03462 -0.945742
3279 28.1166 7.00279 1.84884 0.79113 -0.168025 0.442704
3268 47.5116 6.30639 2.65525 -0.430941 -0.155593 -1.25737
930 62.7627 7.5808 1.98425 1.12176 -0.0282809 0.820905
3166 64.9161 7.97885 2.64439 -0.019159 -1.33376 -1.58708
2972 8.32148 8.79566 2.43495 -0.392614 -0.130976 -1.78661
224 45.933 9.9835 1.49148 0.269707 -0.980305 -0.0214272
980 62.0008 9.93835 2.30821 1.48561 -0.29444 0.302558
1721 43.5868 12.3336 1.84137 1.23708 0.241893 0.578977
3741 50.1924 11.6017 2.34307 -0.128662 0.0944309 0.268809
31 56.9034 11.5137 2.56729 -0.572972 -0.766365 -0.0703461
16 35.1594 14.2068 1.79175 -0.500583 1.11972 1.49355
2717 15.7806 15.9612 2.42159 -0.132946 1.09011 -1.21841
3659 23.355 16.9141 1.75563 -0.875599 0.270693 0.531058
1601 55.7214 16.7932 1.90383 0.239482 -1.18291 0.611201
3061 64.8337 16.1534 1.75273 0.962115 0.727163 0.324958
3214 21.7114 17.2046 1.47255 -0.506775 -0.169188 -0.188994
2243 26.0661 17.6275 2.83319 -1.18906 1.23521 0.157836
961 57.9187 17.3586 2.09764 1.46288 -0.456505 0.975694
379 25.4566 19.2885 1.99629 0.184229 0.640484 -0.0473686
306 54.214 19.8135 2.6485 1.3964 -0.948419 -1.10436
2142 0.741211 20.0143 2.65861 1.15506 -0.294819 0.586134
2600 14.4593 20.356 2.02042 -1.42128 -0.549409 -0.785281
3877 20.3092 20.0889 1.52226 0.158701 -0.795 0.711242
1000 41.5364 21.2647 2.59177 1.27714 -1.09247 -0.305826
812 44.0795 21.7781 2.03691 1.73402 1.23969 1.67552
1790 6.23339 23.4163 2.38761 0.160556 -1.32103 0.123555
2918 50.1236 23.4562 2.69528 -0.611562 1.25769 -0.239504
2976 51.386 22.7343 2.46759 1.72219 0.409502 -0.369591
1407 1.22141 24.7004 2.03349 -1.10896 -1.07009 -0.823475
1755 53.3205 27.8627 1.5156 -0.0801489 -1.19269 -0.512097
1784 67.2311 28.6763 2.14261 -0.353609 -1.1815 0.144835
2962 55.3511 30.4932 2.301 0.296153 -0.312659 -1.48205
2179 71.7664 30.5491 2.43406 0.16907 0.354022 -1.08792
67 1.14332 31.9062 2.42637 1.32426 -0.934325 1.78999
2227 16.0459 34.612 2.31752 -0.539628 0.0296885 0.0647497
2869 21.5033 34.7396 2.52352 -1.24004 -0.741582 -0.392372
3554 6.75536 35.6083 1.6959 0.784972 -0.020514 -0.446419
2310 27.4825 36.485 1.61852 0.363583 -0.662376 -0.481662
2929 64.0389 36.1918 2.48318 0.494774 -0.0994772 1.5595
2461 26.6587 1.91544 4.1956 -0.215471 -0.433758 -0.885095
2691 43.659 1.46988 4.03225 0.966795 0.611284 -1.22579
3002 11.6589 4.50593 4.1689 -0.154459 0.302087 0.573791
896 14.8561 4.71016 4.16977 -0.935718 0.121082 -0.0868576
1088 53.4143 7.55476 3.154 -0.810335 0.117023 0.533202
330 6.70053 9.82659 3.97971 -1.20975 0.912702 -1.03876
845 65.1766 12.2239 3.43535 -0.543699 0.598529 3.75186
3481 2.34884 15.4715 3.96995 1.41621 -0.654997 -1.18839
2444 63.297 15.1343 3.26159 -0.168498 -0.0879024 1.18201
1266 11.0519 16.3557 4.02047 -0.392806 -2.63434 0.444366
3493 24.8143 16.5728 2.96206 -0.76187 -0.807593 1.61863
3899 41.4863 17.8512 3.95388 0.0806297 2.34144 1.4729
764 32.1171 20.9672 2.8394 -0.24487 0.170975 0.668953
2405 36.1767 22.0223 3.93065 -0.0738749 0.563708 -1.9679
768 64.8981 21.3462 3.14938 -1.32681 -0.290478 0.660358
1872 12.3955 23.0959 3.33177 0.411512 0.232683 -2.71017
1302 29.0312 23.9761 3.69222 -1.90165 -0.904248 -0.836707
1375 15.3417 27.7419 2.88045 1.34921 -1.50375 0.824794
29 16.1388 27.0328 3.77282 0.83768 0.596235 0.377073
3023 4.53729 29.5189 3.83326 -1.73139 0.34133 -0.377738
1105 6.58276 28.9748 2.85288 -0.089894 -0.572613 -0.111523
3051 23.8629 30.7877 3.35292 -0.807134 0.0269918 -0.813539
334 60.189 30.0306 3.95652 -0.65607 0.821139 0.408865
3090 4.90415 32.8271 3.89836 -1.99078 -0.216722 0.211981
3923 73.159 33.2182 3.02261 -1.0421 0.314774 -1.36586
2856 62.0927 1.32345 5.33319 -0.17204 1.14073 0.708195
2675 13.82 3.04498 4.90536 -0.848112 0.0687628 -0.732773
2523 44.8019 2.8881 5.61979 -0.15635 0.493017 0.70446
1204 0.705251 5.44314 4.70526 -0.866948 0.219745 -0.858565
168 11.8175 5.61129 4.99351 -0.082452 -0.910296 1.19799
762 60.8798 4.28255 5.03086 -1.50708 -0.238085 1.46769
3478 36.906 8.02437 4.73895 0.721401 -1.61499 0.409392
3499 61.0828 8.79714 5.44098 0.966675 -0.34294 -0.235213
3358 3.34693 10.0983 5.2978 0.194939 1.32365 -0.687371
3364 49.7311 12.9387 4.57403 0.792378 -1.26352 0.0656759
3474 54.2971 12.9457 4.33484 0.0322022 -0.661814 0.00621428
357 66.8767 13.5805 5.52731 2.11605 -0.116553 -0.910979
3444 4.08805 14.996 4.87407 0.873134 -1.51502 -0.809248
376 20.8757 15.4093 4.48735 -0.128496 0.417009 -0.319649
987 51.6091 14.7985 4.48663 0.0465108 1.57989 0.421721
2681 4.12063 16.484 4.60878 -0.234813 -1.04587 0.29102
3048 11.6669 17.0342 4.65126 0.909678 -1.14674 -1.34682
1530 62.3755 19.5486 4.68954 -0.224015 0.46802 0.779851
2881 73.2199 18.6553 5.0262 0.771297 0.483345 0.555384
3624 12.5984 20.5349 5.33879 0.878864 2.34884 0.155079
2693 36.2207 20.7295 5.01821 -0.87245 0.77552 1.09552
3622 58.535 21.0584 4.44321 -0.329078 -0.338998 0.841569
999 49.147 21.2929 4.55074 -0.840269 0.0445474 -0.615134
2648 58.0127 22.5361 5.46917 -0.255128 0.135493 -1.0923
1873 30.5617 23.9539 5.23949 0.102428 -1.12796 1.356
2555 52.7623 23.7279 5.61199 -0.0588361 -0.4967 -0.725941
3495 4.86321 26.8886 5.43387 -0.641251 -1.42847 0.101317
3265 18.2462 25.601 4.85542 1.40461 1.32081 1.2707
1373 14.3498 27.1373 5.43887 -0.22977 -1.19758 -0.750429
1823 48.7221 28.8994 5.05384 0.63376 0.424727 -1.33745
3037 7.49912 33.3569 5.07574 -0.664927 -0.141789 0.640201
3445 40.4055 33.3689 4.54258 0.7764 0.782727 0.846091
3144 19.7798 34.2943 5.17224 -0.169459 -0.778896 0.699576
2432 21.9106 35.075 4.29407 -0.255534 1.35558 -0.441079
2358 21.2531 35.8653 4.59228 2.06942 1.95041 0.654988
2084 23.8366 35.4558 4.5995 -0.00334204 0.528279 0.201338
3706 12.6573 1.15266 6.35839 1.51889 -0.832529 0.183034
986 17.1465 0.540488 6.32286 -0.0746411 -1.134 -1.08497
2140 29.4456 0.698432 7.03659 0.347015 0.245426 2.12389
1095 0.933343 1.98282 6.13884 1.53328 -0.73158 0.88963
2700 9.59551 2.11843 6.66205 -0.394877 -0.103734 -0.469729
2091 11.0688 3.70355 6.9002 1.53517 0.580146 0.832223
3156 13.6173 4.56719 6.31729 -1.36687 0.0389495 0.125427
2103 11.7 6.13128 6.08366 -0.725986 0.653515 0.620523
3514 6.03072 8.0885 6.19717 -1.07805 0.925457 1.01053
495 20.6758 9.58771 6.27506 -1.43136 -0.578385 -0.958455
2808 66.3785 8.71382 6.69936 -1.42216 -0.788715 0.995346
296 50.6915 10.9007 6.62195 0.97313 -1.14869 0.919234
2028 68.1958 10.0123 6.03055 -2.24915 2.01288 -1.99116
584 10.4784 11.3693 6.70243 0.332014 0.140568 -1.61982
887 13.7165 15.13 6.73641 -0.897813 -1.26983 0.928551
295 52.9651 14.7568 6.44997 1.0681 -1.16507 0.366326
3731 16.1751 16.6594 5.96359 0.482422 0.889407 -2.40527
2484 40.4762 16.9577 6.19803 0.90652 -1.60007 0.63981
1045 44.2459 15.894 6.1962 0.86601 2.45895 0.0707319
1636 48.0517 16.9823 6.39547 0.342995 0.420994 0.535134
79 57.7363 16.5942 6.76978 -2.32656 0.244335 0.0178644
2715 62.2035 16.8525 6.58414 -0.842316 1.16425 -1.69494
3135 31.6217 18.2184 6.52905 0.967838 1.01162 -1.5259
314 33.2132 18.4093 5.96819 -0.658694 -0.456553 -0.31652
37 53.8371 18.19 7.01615 3.46121 0.107408 0.120419
1736 1.32213 19.7439 6.04659 2.36148 1.00549 0.690423
256 48.1096 20.7047 5.85856 -0.195491 0.902524 1.15173
1148 43.8276 21.4015 5.95882 2.20374 -2.08358 -0.866396
2349 40.6237 23.7663 6.81863 -0.239422 -1.63289 0.5375
1331 42.18 23.3167 6.91452 1.27365 -1.04798 1.07993
3299 65.0818 23.1013 6.43422 -0.140086 -0.44199 1.25766
478 69.1071 22.9507 5.98052 -1.19193 0.138886 -1.08067
2336 50.3271 25.2417 6.2058 0.75391 0.505422 0.516483
270 13.8961 26.8829 6.94011 -0.102672 1.61229 -0.216446
257 24.2472 27.1302 5.71293 1.02684 -0.26071 -1.8035
2551 19.3616 30.845 5.67401 -0.133182 -1.60044 -0.593919
752 64.3831 30.4764 6.69126 1.69087 -1.34191 -1.24982
2455 9.64775 31.3751 6.70555 0.447359 0.960381 -0.581665
3647 12.7401 31.6972 6.92618 0.479019 1.82379 0.293928
1914 19.5405 31.8254 5.93606 0.257214 1.76588 0.395206
2710 27.2267 32.2276 6.98915 1.0657 0.719942 0.367798
3983 65.4138 32.4945 6.26628 1.19889 0.368317 0.832681
3636 31.9172 33.4351 6.00589 -0.749474 0.148398 0.913686
3563 40.4721 33.4688 6.64748 1.13743 1.18349 -1.0563
254 23.0373 35.1024 5.71768 -0.176002 1.0189 0.61326
3947 35.0618 35.1234 6.92655 -0.914713 1.14749 -1.71521
3455 19.5399 36.0224 5.84495 1.53453 -1.70337 0.0263979
3477 69.7129 35.5389 6.39872 -2.732 1.03679 0.446734
3071 72.5292 36.2456 6.66063 -0.00980586 -0.531359 0.995091
3132 11.5681 0.818052 8.11351 -0.953578 1.44424 -1.34735
3324 17.176 1.6409 7.36605 0.0340555 -1.61107 -1.14771
1134 63.146 1.74763 7.44917 -1.66136 -0.896548 -0.56167
1824 67.9549 3.24475 7.29278 -1.45848 0.457775 1.12242
480 20.617 4.85083 7.16361 -0.00310532 -1.00771 0.553846
2036 32.6047 6.54684 7.71293 0.809566 -0.18112 -1.45155
273 61.6219 6.08616 8.45309 -0.763911 -1.10574 -0.0859365
4 41.817 9.88596 8.11617 -1.79849 -1.44694 0.657386
3082 68.5324 9.4675 7.16801 0.693302 -2.24557 -0.677382
2152 41.3691 10.253 7.21088 0.215492 1.72698 0.265434
462 2.02843 12.7484 7.92549 0.20363 0.628925 0.525785
3567 73.641 11.4483 8.3729 -0.133825 -0.54699 0.77897
1646 19.7096 14.245 8.49123 0.354869 1.4506 0.2824
3935 49.0163 15.0596 8.05627 -1.07276 -0.134269 1.35205
552 34.6928 16.5348 7.63818 0.347772 -0.936132 1.3363
2823 47.7807 16.491 7.80273 0.186252 -0.364837 -0.0859059
2668 59.437 16.6446 8.18238 0.380015 1.94217 -0.536742
2935 71.621 16.3962 7.5356 -0.828355 -2.40305 0.361918
2686 39.2008 17.0595 7.82634 0.940605 -0.0227108 2.39735
1420 67.7329 17.4732 8.22368 -1.77341 -0.353429 -0.678364
2837 71.9421 17.5709 8.457 0.748105 0.909166 0.10798
3382 15.3717 18.5777 8.45749 0.696242 -0.48947 -1.68679
3466 61.0636 19.5043 7.30991 2.42828 1.50596 1.29051
2063 3.77315 20.627 7.65685 0.308237 0.535467 -0.252587
3031 66.1512 22.3114 7.48566 1.6687 1.45612 -0.475191
2508 15.2503 23.7107 7.97568 -1.50868 0.524189 0.583196
1975 52.0866 23.9539 7.80941 0.362508 0.411401 -1.34057
3110 2.86382 24.6094 7.59562 0.953052 0.996581 -0.169498
515 27.8265 24.7661 8.37478 -0.383021 -1.33667 0.170492
666 69.0563 24.3994 7.56964 0.740171 0.190045 -0.235194
409 62.9245 27.5312 7.52261 3.01151 -1.5652 0.557437
797 0.440362 29.5702 7.6194 -0.555868 -0.8759 -0.216311
507 57.3593 28.9858 8.28963 -0.142646 0.423654 -1.56007
1896 2.39132 29.9617 7.65039 -0.559652 -0.0418456 0.135617
3818 10.6065 30.4713 7.38693 2.18282 0.908328 1.12131
3748 41.274 30.116 8.24076 -0.567361 0.44503 0.0856402
1372 66.5433 30.1095 7.69039 -1.12396 0.680395 0.70511
263 59.7823 31.8664 7.8373 0.413583 -0.382135 -1.10445
2496 51.1974 33.7299 7.92204 0.511515 -0.487759 1.39062
1972 56.9307 33.9651 8.14586 -2.00325 -0.416066 1.3623
3451 23.5993 34.1986 7.62064 -1.72667 0.393356 -2.10365
234 49.1926 34.2584 7.1416 0.899691 1.11662 -0.384291
1344 37.0059 0.25954 9.25936 1.95992 0.132988 0.498777
3047 6.22969 2.62914 9.61195 0.102063 -1.06464 -0.999657
957 29.1394 2.05038 8.88888 -0.849843 -0.942574 -0.642578
583 3.28556 3.26176 9.31667 -2.6025 -1.30349 1.36787
1051 21.5021 3.92316 9.30895 -0.397498 1.1598 0.636397
2046 10.7083 5.01797 9.66376 0.945758 -1.25735 0.949672
3081 69.724 5.63555 9.66035 0.797874 0.279896 -1.29832
2366 25.5378 6.5488 9.24877 -0.0440722 -0.105965 1.37722
1177 1.11675 7.61617 9.51659 -0.585756 0.931475 -0.589244
742 71.6125 7.84068 8.96136 -1.77661 -0.301544 0.963857
1446 64.2486 9.07461 9.67593 -0.740807 2.2602 -1.72892
425 2.77415 11.1164 9.85568 0.667892 0.31306 -0.830384
418 58.412 11.1585 9.29158 -0.0744789 -1.07909 -0.971379
246 5.31736 11.9802 8.51342 0.948118 -0.503935 -1.17016
2702 5.9502 11.8598 9.61771 0.643753 -0.172568 -0.906653
85 25.0775 11.5986 8.99631 1.15431 0.915787 -1.20518
1206 53.2849 11.828 8.83176 1.52597 0.372795 -0.503784
1621 14.4808 13.342 9.03226 -0.503184 2.04113 -0.347802
264 54.3146 13.4543 9.30187 -0.531464 -0.0280111 0.627362
1301 71.8467 13.2359 8.51518 -0.959211 -0.997392 0.803742
1078 19.8237 14.7238 9.68576 0.416287 -1.04074 -0.822207
333 65.8099 15.2548 9.55296 0.854556 -1.00408 0.876934
1396 46.563 15.96 9.86499 -0.953441 -1.1899 -0.854042
1120 46.4558 17.9756 9.73065 -0.0488115 0.0517957 -1.15831
2540 50.4095 17.6611 8.56323 -0.091713 1.36142 -0.546209
765 60.3288 17.9304 9.19831 0.907633 0.0615037 0.114895
201 34.5341 19.8583 8.61204 0.40205 1.20517 0.569504
3440 53.1741 22.27 9.57423 1.21801 0.557038 -0.0965102
2826 66.793 21.4954 9.50543 -0.79295 -0.740843 0.995087
3286 47.3153 23.7186 9.71024 0.309911 0.10846 -1.51981
36 56.2551 23.7276 9.76521 -0.773992 0.758521 0.53418
2131 35.2427 24.1432 9.87715 -0.0955177 -0.0190374 -0.730781
556 18.2845 26.3961 8.90208 -0.244511 0.670392 0.0835
914 34.5422 25.8051 9.35237 0.290271 -0.470011 0.393446
2054 36.8928 25.5711 9.80708 -0.972345 -0.851262 0.749057
3559 55.3066 26.7476 9.67456 0.621329 1.97485 -0.643903
2435 32.0083 28.1563 9.65003 -0.10752 0.970749 0.00313681
2677 36.1884 27.8623 9.81931 -0.249914 -0.526997 -1.79726
2088 50.7138 27.8191 9.5231 -0.733791 -1.09739 -1.887
852 13.5387 29.0823 9.31417 -0.605647 -1.08288 -0.228159
849 32.0801 28.8596 8.72532 0.907756 0.336886 -1.20059
1346 30.8171 30.8072 9.5804 -0.0156018 -0.906151 0.329695
2771 31.291 31.5043 8.89202 -0.228525 1.26974 0.774217
373 73.3229 31.2794 9.69367 1.36337 0.63743 -0.865733
3160 22.1477 33.8138 9.48556 -0.525535 1.74734 -1.78505
902 60.166 32.8249 8.83756 -1.23633 0.469745 0.144564
1734 52.9006 34.1298 8.827 -0.20265 0.409368 1.88526
2749 64.5691 34.4778 8.74395 -1.08624 0.205002 0.133419
1455 2.43481 35.8868 9.06069 -0.15196 0.220562 0.459125
2864 38.0309 36.6134 9.85817 -0.368199 -0.22135 1.2439
3387 52.86 36.5864 8.50631 1.06235 -0.205495 0.429722
2182 70.3223 35.8901 8.85121 -1.76335 -0.288127 -1.14745
1710 2.72754 2.62757 11.0106 0.0199116 0.573317 -1.00965
1242 22.8502 1.70713 10.0758 0.463836 -1.25996 0.315321
1698 72.788 1.65444 11.1759 -0.584075 0.410993 -0.403802
3331 14.0917 3.00598 11.2407 0.507193 0.281195 -2.04378
1759 20.7895 3.50042 10.0312 -2.82358 -0.102103 -0.745987
3908 1.59416 4.90789 10.5112 -0.482958 0.53962 1.10663
3613 12.4525 4.60343 10.3756 1.81704 -1.55543 0.705076
486 8.1848 7.45863 11.2353 -1.41598 -0.286558 1.34452
1842 15.0527 7.86005 11.0941 1.05747 -0.0799753 -0.509128
1716 0.229083 8.83824 10.5785 -0.707258 -1.95209 -0.292183
3078 29.6675 9.40659 11.0373 -0.00299269 -2.00821 -0.306077
2480 23.6349 10.0065 10.4334 -0.235864 0.782068 -1.39171
3066 49.2581 10.9538 11.1442 0.223395 -2.03493 1.24965
2002 3.83375 12.1273 11.0686 0.231196 -1.16118 0.115178
2794 59.5327 12.1574 10.4582 -0.221158 -0.551906 0.793381
2229 50.9221 13.9485 11.2557 -0.349959 -0.238771 0.0415937
3902 2.49403 16.6004 9.93241 0.203965 -0.510018 -1.06723
1151 19.7201 16.6208 10.2333 0.44949 -0.93876 -0.906339
2472 31.2172 16.0321 10.1048 -0.799357 1.14868 -1.06394
1221 14.0238 18.3388 9.93896 0.687614 0.324099 0.125932
3354 66.7468 17.8169 10.9355 -1.28169 1.37569 -0.637999
795 9.10398 19.8102 10.6933 1.07424 0.548579 0.2644
963 29.6454 21.1294 10.1805 1.04469 0.0368118 1.08127
949 63.2569 20.286 9.92415 1.17853 -0.762888 1.62905
2772 62.4338 21.1288 10.1695 -0.699313 0.766508 -0.954623
242 72.1861 20.01 10.9852 -0.56234 -0.693504 -1.10472
2196 61.7676 21.9468 10.6432 0.212059 1.47847 0.0911369
393 15.6916 25.398 10.816 -0.97858 0.361667 -0.474578
844 45.6422 24.3526 10.3639 -1.33101 -0.198235 -2.59622
432 12.8774 26.2815 10.2662 0.0897425 0.0516161 -1.47773
2037 11.2212 27.7556 10.2208 0.193033 -0.0443026 -1.63326
464 68.7654 27.5212 11.0371 -0.650142 -0.645312 0.20811
3743 30.4136 29.5479 10.7424 0.59501 -1.51059 0.435004
3835 29.1231 29.8803 11.2275 0.449545 0.680501 -0.256391
1180 32.6374 30.217 10.5278 1.31551 -0.322574 1.30657
3945 0.681066 32.1696 10.1858 -0.647729 0.413534 0.6522
187 22.3281 33.3944 10.8656 1.52741 -0.190609 -0.0421002
92 66.7967 33.0048 10.0037 -1.11365 -0.104071 0.26035
2483 6.06158 35.9738 10.6016 -0.784314 -0.760095 -0.30951
2193 71.2703 36.1028 10.9788 0.655606 0.599775 -0.372787
3244 21.1756 0.645087 12.4316 0.553135 0.631145 -0.786075
2924 43.9184 0.0750099 11.7848 1.86224 2.00771 -1.10196
143 2.43757 2.0995 11.8498 0.78864 0.24528 -0.145752
3680 62.1548 2.13468 11.957 -0.510583 1.90054 -0.457107
2931 21.6927 3.45855 11.4038 -1.2845 -0.263802 -0.57771
1495 29.2562 4.06575 11.4702 -1.54426 1.03142 -1.46854
3027 54.4613 3.23705 12.3896 -1.62943 0.927461 0.607049
3583 20.355 4.4551 11.7714 -1.52762 -1.29452 0.00344038
410 54.6829 5.26549 12.1398 1.02058 2.34397 -1.2878
2123 4.85891 5.75297 12.4586 0.572267 0.722743 -0.693626
2549 13.1822 9.66842 11.8051 -0.800257 -1.54673 1.12353
2450 50.5151 12.8356 12.4301 0.638195 -0.511161 -1.74506
2638 63.718 13.9552 11.6722 -1.40532 -0.160475 -0.0544818
3762 24.6092 15.2386 11.3961 1.54382 -0.305599 -0.704039
444 21.5999 16.1942 11.4101 -0.067002 -1.16495 -1.70846
250 52.8978 17.3063 12.237 1.43822 -0.628566 1.07666
1555 72.156 21.2989 12.6909 1.02524 1.00832 1.51204
1046 2.99383 24.5803 12.1174 1.36837 -1.84475 0.877695
2025 63.5967 26.5306 11.6541 -0.6828 0.755368 0.0246724
1138 19.2618 28.2988 12.7398 0.501623 -0.255318 0.554747
1038 36.3275 28.0611 12.3394 -0.860491 -1.36243 1.6083
1587 9.14089 28.8395 12.3194 0.0407851 -0.492187 -1.43008
3448 18.3433 28.6241 12.2838 0.0505589 1.15265 -1.24618
1557 31.8337 30.4163 12.0297 0.0404844 -0.4349 -1.65607
2173 52.5372 30.0887 12.3635 1.43193 0.0923432 -0.795253
2347 41.8235 31.1998 12.3308 0.799224 0.690901 0.937105
2291 55.3632 31.5508 12.5884 1.00486 0.0289413 1.41448
1767 66.89 31.9134 12.6465 0.732953 0.958702 0.83568
1889 72.9337 31.278 11.5075 -0.305742 -0.216454 0.335812
2628 3.43621 32.9463 12.2142 0.0817259 -0.605978 0.930804
1020 40.7002 32.6361 11.996 0.179843 0.80219 0.749773
3565 32.8568 36.0994 12.0064 0.19419 1.01939 1.6872
1391 42.7174 0.559472 13.424 0.872702 -1.26807 -0.372037
945 55.8194 0.529116 13.4275 -1.08748 -1.30602 0.40271
279 45.9895 1.77385 13.1289 -1.22717 -0.232631 0.499933
3454 54.8946 2.7273 14.0058 0.108536 -0.523081 0.557348
183 63.9807 2.32505 13.6271 1.31608 -0.948209 -0.860064
1461 71.7221 2.51141 13.4596 0.00841194 0.810399 2.25899
1360 14.1388 3.10479 13.3614 1.42095 -0.458218 1.76855
1980 10.3739 4.79119 13.6316 0.471523 0.218953 -1.12589
1049 5.44484 5.9174 13.3415 -1.77137 1.35331 -0.401439
2988 66.7705 6.96987 14.0921 0.974883 -1.20956 -0.780598
2083 0.375952 8.06519 13.434 -0.0689967 -0.888695 0.634166
1092 22.1076 8.25965 13.4745 0.382328 -0.0778052 0.939757
3274 39.9409 7.50609 13.8762 0.555341 -0.858823 -0.726965
1658 44.6316 9.90051 13.5447 -0.0548351 -0.181377 0.528011
114 42.66 11.0507 13.583 -0.122477 -0.219749 -1.01962
499 43.1644 12.6906 12.9355 0.303719 0.895518 1.61479
2384 9.39679 13.4243 13.1487 0.161515 0.0295395 -0.742539
3587 39.1163 14.2536 13.1071 0.845655 0.871773 -1.29728
3539 52.3264 15.0488 12.8124 0.586523 0.472467 0.875604
748 11.9323 16.9179 13.3471 -0.0853867 -0.796104 1.41927
3637 17.9865 16.1495 14.0322 -1.80612 0.862822 -0.946337
1156 67.6851 16.2463 13.8523 -0.770012 0.946321 0.644755
3634 53.3242 17.7771 13.221 -0.959969 -0.0428705 -1.65986
1964 59.662 17.224 13.7144 -1.40447 -0.716249 1.38842
2970 29.5528 22.5952 12.9251 0.906296 0.954802 -1.72466
2833 1.18413 24.3618 13.2287 1.05875 0.0345292 0.365096
3203 35.1604 25.6572 14.1235 0.98486 -0.665487 -0.792223
1230 3.9349 29.627 13.1935 1.20483 0.36636 1.68894
3269 12.7884 29.4898 13.1072 1.21013 0.453558 -1.71072
853 39.2068 29.6807 13.8169 0.650313 -0.410904 -0.755229
2447 72.9794 28.7963 13.5112 -0.250258 -1.11231 0.825104
120 54.796 30.5924 13.222 0.594376 -0.0756658 1.65831
1566 73.556 29.9591 13.2911 0.266118 -1.39628 -0.66883
519 12.4543 32.5754 13.338 1.03531 0.686995 -1.27388
2477 27.6595 31.5752 13.4544 0.633079 -0.613367 -0.343076
509 36.0017 33.3628 13.8424 -0.229409 -1.1994 0.840506
66 40.1235 32.6499 13.1796 0.924729 -2.16123 -0.467745
1487 5.54237 35.2242 13.9734 -0.886733 0.322958 0.108247
2690 26.6002 35.0276 13.582 -1.87428 -0.507034 -1.64752
1438 40.0129 34.4335 13.2537 1.32784 1.40432 0.799354
3511 12.43 2.61824 14.4732 0.168583 -1.04823 0.798461
134 21.6136 1.82939 14.4844 0.730664 -0.819326 -0.650754
3642 33.0599 2.83277 15.3342 -1.26806 -0.930654 1.21387
2399 14.1686 3.91904 14.8421 1.88195 0.190909 -0.268582
397 19.514 3.89309 15.0452 0.144215 0.878098 0.657831
238 30.5694 3.60474 15.2738 1.088 0.993058 0.182254
1861 34.7948 3.71811 14.7607 -0.876915 0.372178 -1.54357
870 53.6537 3.92189 14.4201 -0.370444 1.32671 0.0469018
169 3.17755 6.51133 15.158 0.467766 -0.930423 0.459895
1315 30.5163 6.92318 15.5661 0.612741 0.349955 -0.27691
2222 30.9351 6.49737 14.3077 0.803394 0.868854 0.599639
907 20.3454 7.94546 15.2622 1.71551 -0.81757 0.121528
2283 73.5101 7.67288 14.6134 0.485404 0.118895 2.08339
3328 14.1116 8.89451 14.3506 0.574264 -0.249376 -0.618468
1907 59.5974 9.59677 14.8538 0.168783 0.541253 0.522937
3783 11.085 12.5197 14.8764 1.48875 0.94258 0.177864
1401 21.1533 11.6436 14.6131 0.10601 0.0168883 2.17685
531 30.967 12.2928 14.2304 0.869414 -0.585348 0.602802
3106 26.1698 13.8015 14.2989 0.676943 -0.463779 0.80218
3314 58.3453 14.0975 14.2728 -0.00440069 1.49294 -0.6377
2186 1.11944 15.0701 14.9729 -0.710878 0.426068 -0.321125
424 9.48422 16.6245 15.0148 0.587042 0.4102 1.2795
2645 54.4121 15.9629 15.0604 0.583381 -0.0664933 -0.0270448
2017 14.225 17.6295 15.197 -0.072287 -2.06212 -0.696068
446 1.41587 19.5881 14.5924 1.05017 0.486062 0.00693931
131 7.94641 19.8045 15.5844 -0.924276 1.63299 -0.798266
289 17.5011 19.4865 14.8316 0.00626641 1.11914 -0.436001
1102 59.1911 19.2548 14.2186 1.02702 0.993164 -1.45101
3040 29.3034 21.3906 14.9993 0.131887 -0.258289 2.89359
718 50.8081 24.6899 14.9605 -0.363689 -2.03584 0.288128
2240 12.9944 26.5221 14.2982 0.674961 1.16832 1.19773
2719 72.6626 26.6227 14.6831 -1.01829 -3.45117 2.13427
554 39.7331 30.8515 15.5572 1.15985 0.675006 0.172156
562 45.4451 30.977 14.3087 1.4889 -0.811057 0.448339
1833 46.5618 30.4962 14.6556 0.666005 0.283896 2.16064
3227 30.8352 32.4167 14.264 -0.489903 2.17617 -0.679687
1756 20.5997 34.2747 15.0886 -0.305774 -1.41096 0.319515
156 39.8243 34.3752 14.4529 -0.598396 1.32336 -0.689562
1472 1.33648 35.4869 15.4971 -0.573876 -0.2373 -0.281575
1715 7.98642 0.751559 15.719 -2.1855 0.327302 -0.310959
3383 10.2254 0.661081 16.8466 -0.271488 0.157079 -0.757055
1297 4.65356 1.65711 16.0563 -0.325896 0.605128 -0.407665
1168 54.0213 3.90993 16.0592 -0.765499 -2.20021 0.421201
1670 18.1654 4.54073 16.1823 -0.660354 0.224759 -1.4391
1467 41.2802 4.70622 16.4734 -1.24375 -0.613298 -0.383888
2827 47.1377 6.64666 15.7669 -0.758992 -2.15541 0.686865
897 25.4769 10.871 15.9276 -2.03304 -1.09508 1.78762
2448 24.2779 10.1297 16.2153 0.250332 0.0580158 -0.280681
208 38.1707 10.7921 15.9973 -0.524986 0.883198 0.28477
2594 22.599 12.2399 15.7924 2.11378 -0.0919114 -0.759915
1249 38.6722 12.1124 15.816 -0.145286 0.417873 -0.74931
3334 53.4673 13.9932 16.6949 0.275234 0.209471 1.22621
1153 23.3666 14.341 16.7965 -0.501764 -0.342194 0.503988
2312 61.124 16.9166 16.8916 0.267634 1.0972 0.070504
192 29.8734 19.9635 16.3906 -1.29391 0.812071 -0.977254
3416 34.6182 21.0711 15.8801 -1.72116 1.13473 0.36081
2268 63.7966 21.1251 16.4198 -1.30333 2.0157 1.64777
3414 34.6363 22.0433 15.9776 0.789666 2.25577 -0.96221
1611 54.5474 23.454 15.8599 0.0141203 1.34109 0.845753
2783 37.0929 25.0709 15.7644 -1.15292 0.55955 -0.557868
1486 55.4795 25.4251 16.1515 -1.27885 -2.12111 -2.5314
2487 5.54787 28.5887 15.8538 -0.00462866 0.710407 -0.0642055
213 10.8053 28.6598 16.3478 1.04888 -0.689555 -0.134684
2598 54.0787 28.6492 15.6794 0.152087 -0.742653 -0.763755
3125 36.9851 32.5996 16.9369 -1.44287 0.00951181 1.24561
1101 44.7407 34.1647 16.7295 -1.03128 -0.0439247 -0.65168
1538 18.5603 3.15542 18.0773 -2.26527 -0.193549 -0.666474
3726 45.5706 4.10873 17.4159 -0.202282 -1.92571 0.0272253
198 13.1711 5.51706 17.8798 -0.612221 -0.82132 1.47862
917 15.6926 4.37091 17.0861 -0.825359 1.08043 0.0840199
3509 37.291 6.67099 18.2488 -0.862588 -1.53054 -0.218755
3605 30.5339 8.40637 17.9873 0.329144 -0.912446 0.622377
380 10.9518 8.62592 17.5133 1.81294 0.259264 0.985456
1821 44.7357 9.82273 17.7426 -0.779646 0.525265 0.105395
3465 58.3966 10.8975 17.4861 -0.0214519 -0.473009 -0.0834195
3715 38.7918 12.35 17.9367 -0.972038 -0.253957 -0.288176
2446 63.53 11.6122 17.4075 1.0627 1.06241 -0.152385
2278 65.7937 12.6065 17.9698 0.214035 0.944864 1.17466
185 7.1376 13.5735 18.215 -0.114628 -2.56296 1.68212
1434 22.5266 13.9327 17.4557 -0.0499044 -0.326762 -1.09751
1060 38.1568 14.1425 17.7793 -2.15757 1.43625 1.22177
711 4.49966 15.5089 17.0365 -0.170139 1.1391 -0.958664
346 25.2096 15.5015 18.2292 0.273894 0.0627505 -0.425592
3531 65.6333 15.2221 18.1334 -0.0302668 1.66385 -0.543431
1082 7.47841 15.7295 17.6309 0.124743 -2.87642 1.04298
2082 29.7575 17.0102 18.0433 0.308543 -0.548138 0.419568
1838 63.1343 18.015 17.9433 -1.14229 0.467403 0.947311
721 2.09996 19.1027 17.1368 -1.06711 0.809641 0.0766678
1183 45.5869 19.517 17.2108 -0.510687 0.323323 -0.0888576
2098 55.2455 18.7387 18.3852 0.498739 -0.484376 0.836446
1878 67.9774 19.4354 17.1564 -0.171363 0.239657 0.0160485
2577 73.3143 19.2344 17.3458 -1.48964 -2.9182 1.46033
1274 27.169 20.4833 17.5756 0.661571 0.782863 0.581202
2584 64.4515 20.6121 18.0241 -0.981411 -0.81388 0.256297
1617 21.8554 22.5352 18.1024 1.26555 -0.0673021 -1.2797
2799 31.4595 22.4776 17.1498 -0.129535 -1.25609 -0.445997
1186 40.2795 22.1036 17.1136 -0.420963 0.341998 -0.780099
3145 55.3066 22.5865 18.2254 -0.0883142 -0.615225 -1.83998
2697 67.1901 21.8766 17.1261 2.02019 0.627729 -0.693249
1684 4.59425 23.739 17.8057 -1.0398 -0.536984 -0.667215
2178 27.1035 28.0801 17.597 0.0387185 -0.669835 -1.54143
1656 1.05217 28.7685 17.4296 -0.337954 0.347568 -0.520004
3073 32.5617 29.7361 17.7313 0.447137 -0.781101 0.0745669
202 4.07502 30.0042 17.7736 1.22115 -1.59612 1.95037
3736 18.6248 30.5151 18.3464 0.515365 -0.298674 -0.0658624
2390 23.8064 32.5264 18.0187 1.07018 -0.318023 0.453284
3920 50.517 32.3997 17.3394 -0.69338 1.32834 0.109498
2114 50.7398 31.6965 18.4069 -0.746855 -0.429763 0.510357
1943 5.1401 33.2925 17.3636 0.66794 -0.3144 1.27968
3041 22.1322 36.4687 18.284 -0.219856 0.875553 0.76017
1251 16.9563 2.76897 19.8035 -1.51748 1.44687 0.273718
3237 71.5089 1.49398 19.3721 2.96918 -0.870639 -0.3113
3576 28.5812 3.74685 19.706 0.216178 0.106134 -0.811268
311 39.2708 3.79391 19.4586 -0.497519 0.339276 0.682456
3692 9.73301 6.23613 18.7255 2.33958 0.105568 -0.7073
3649 11.5505 5.98446 18.4452 0.504811 0.701342 -0.643019
1456 17.019 6.89222 18.6772 1.57712 1.1343 -1.1497
2547 63.3367 7.41236 18.7636 -0.863805 0.0796437 -1.80106
2024 68.1729 9.0365 19.618 0.709123 -1.26196 -0.823701
1743 33.0204 10.7885 19.4987 -1.75577 0.792639 0.284252
3192 36.2835 10.2934 19.7799 -0.657428 1.31382 -1.06357
636 51.901 10.1843 19.5079 -1.62733 -0.334118 1.12431
2334 52.1943 14.1612 19.8049 0.33783 -1.94587 -1.01016
3007 8.21214 16.4098 18.9331 0.0518945 1.77718 1.32303
823 17.4067 16.8256 19.5669 -0.0713663 -0.302254 1.97541
2208 37.8226 16.1656 18.6823 -1.06902 0.158478 0.398342
1090 59.8081 17.898 18.8333 -0.487111 -0.1709 -0.467423
1510 59.1055 18.4832 19.4928 -1.39763 0.205013 -0.786234
447 71.1565 20.4118 18.6797 -0.755721 0.190431 0.876882
1749 13.2174 22.0297 19.423 -0.888814 -0.608798 -0.99198
1444 55.1166 21.7529 19.1831 -0.188933 0.427598 -1.57208
3366 14.4053 22.8449 19.6339 -0.0650558 3.47933 -0.334201
341 21.0567 25.8418 19.0673 0.0358873 0.580434 -2.30333
2623 26.492 25.561 19.6247 -0.309346 -0.379951 0.557257
526 48.3612 26.5373 19.5511 -0.456872 0.13874 0.875916
659 11.2235 28.2187 19.589 0.324057 0.661648 0.657616
1411 10.5244 27.2307 18.9684 -0.60655 -0.74007 1.64223
3130 0.433684 28.6328 19.1235 -0.500553 0.347131 0.499841
564 27.5194 28.4876 19.4913 0.201628 -0.543381 2.50682
934 40.6261 28.4848 19.5511 0.299254 -2.0348 0.499999
703 44.3948 29.6102 18.9456 -1.26678 -0.665123 -1.93487
1098 3.067 30.7584 19.7967 -1.49614 1.38673 -0.0643042