ITEM: TIMESTEP
46000
ITEM: NUMBER OF ATOMS
4000
ITEM: BOX BOUNDS pp pp pp
0.0000000000000000e+00 7.3680629972807722e+01
0.0000000000000000e+00 7.3680629972807722e+01
0.0000000000000000e+00 7.3680629972807722e+01
ITEM: ATOMS id x y z vx vy vz
3775 40.8388 1.22108 0.525161 0.345846 1.646 -0.138717
156 41.2429 2.34845 1.31823 0.682201 0.843123 0.289723
22 58.0666 3.84228 0.266586 0.618302 -0.449032 0.943458
2076 61.6703 3.14624 1.06423 0.530685 -0.252478 1.84574
2285 6.71029 6.27528 0.500354 -0.237417 0.193514 -1.15924
3836 68.292 10.9214 0.918648 1.09338 0.853065 1.5723
2764 19.8661 13.7773 1.13864 0.314515 -1.20998 0.570788
1108 60.5808 15.2509 0.543531 1.33319 -0.634948 -0.211847
630 67.3688 15.0569 0.895036 1.86155 1.37731 -0.00323851
283 71.901 14.5247 0.448966 -0.263137 0.670759 1.37775
672 72.3109 15.5835 0.396747 -0.0826118 -0.759674 1.44252
1498 10.2388 16.229 1.18172 -2.19067 -0.783625 -1.30937
3394 48.9787 15.6247 0.0554423 0.0167303 -0.615995 -1.89748
1503 65.2453 15.9045 1.16313 -0.250108 -0.678939 0.879069
286 23.423 17.9745 1.06489 -0.915242 0.337606 1.1825
566 38.3195 18.9863 0.530224 -0.78045 3.23799 1.13064
1675 61.5924 19.2576 0.108427 -1.17622 0.111334 0.53243
3259 30.5841 22.5197 0.193581 -0.976225 0.307852 1.83396
2051 50.4181 22.1899 0.224974 1.30971 -0.547369 0.310517
726 26.7579 22.9399 1.38486 -0.460876 1.22685 -0.783637
2178 27.3279 22.8272 0.477679 -0.601329 -0.227263 -1.04808
3426 46.8646 23.9714 1.01957 0.807403 0.622815 0.0531411
2976 15.8558 25.007 0.207631 0.755195 -0.992739 0.447624
889 55.4002 24.2307 1.30548 -0.10317 0.648933 -0.0427352
1462 57.3222 25.0121 1.31927 -0.717366 0.384152 -0.579591
3203 43.3638 26.046 1.00941 -0.532261 0.318751 -0.829606
2551 10.6993 28.95 0.143628 0.0954551 0.704226 0.133136
3611 14.3144 28.6777 0.74309 -1.3166 -0.5611 0.0997816
1433 70.3758 28.7959 1.36524 -0.123604 -0.176503 -0.129654
2588 34.3383 31.7623 0.237128 -0.27848 -1.03223 1.69503
2348 65.3398 32.2184 0.756465 -0.224739 -0.394049 2.07784
520 8.69992 33.5141 1.21079 0.994005 1.02224 0.410527
2180 21.22 33.1027 0.781523 -0.0996815 0.177371 0.406672
3554 64.5661 33.0936 0.743958 -1.27536 -0.983831 -0.572992
2101 27.1293 35.186 0.170589 0.193171 0.654991 -1.8914
2200 48.3797 1.28897 2.46789 0.114134 -1.28765 -2.48376
1418 6.95557 2.16427 2.6225 -1.17579 -1.98293 0.124778
2852 37.2219 2.61847 2.36027 -0.374886 -0.0390852 0.336061
1527 60.6547 3.48133 1.5127 0.888356 -0.83097 2.31211
3124 67.1414 2.8868 1.44689 0.825071 0.79226 0.657634
1711 28.9815 5.43907 2.44991 -1.29817 0.515468 0.80987
1211 46.4384 5.38294 2.50666 0.312392 0.159792 -0.209657
3827 29.3481 6.86655 2.54319 0.704529 -1.6017 0.343009
3331 14.468 8.43538 2.47012 -0.194757 0.163872 -0.0950723
2638 34.2019 8.2197 2.15649 -0.754132 0.526742 -1.22737
3170 2.7788 9.98574 1.81534 -0.77476 0.143158 -0.811643
3729 2.41096 12.0629 1.62422 -0.72385 0.873401 -0.626536
1135 21.2633 11.7854 2.21571 0.831381 -1.16155 -0.0521353
379 23.205 13.7445 2.00517 1.01545 0.340709 -2.25581
3119 36.2366 14.0729 2.68485 0.598271 1.53215 0.204831
20 45.8156 14.0807 2.29231 -0.948226 -0.554564 0.246718
2574 53.784 12.8004 2.42976 0.934921 -0.738891 0.785276
2345 48.9486 16.4734 1.66314 -0.473598 0.762654 -0.915725
2352 66.6336 16.3416 2.10157 -1.08269 -0.161742 0.52244
1962 69.6745 15.9859 1.51293 0.87759 -0.278356 -0.731722
2244 67.8272 17.6006 2.4295 -0.385513 1.08402 1.13336
3767 69.4072 17.3605 1.87548 -0.454738 -1.09725 -0.202826
656 25.0525 19.4236 2.50757 -0.147529 0.536927 -0.491343
742 73.4707 19.2698 1.82599 -0.476273 -0.486747 -1.93054
3025 37.4958 20.465 1.71723 0.948828 -1.29299 0.498834
1736 7.19267 29.4616 2.83382 -0.768344 -1.11555 0.435422
3532 16.3135 32.4633 2.38506 1.01317 0.423052 0.40708
127 9.3378 32.8032 1.49197 -0.170315 0.806786 -1.64547
1049 33.0103 34.8851 1.89826 -1.19891 1.4783 0.0148591
519 18.4437 35.996 2.36353 -0.733812 0.0249388 0.450998
1425 24.3151 0.72331 3.48041 -0.386323 0.956962 2.23422
268 37.1709 0.77112 3.91421 -0.662468 0.129219 0.122247
1451 8.77668 2.6799 3.64928 1.09362 2.14871 0.305373
3638 27.9726 1.86965 3.01365 -0.551525 -0.63072 -0.407374
774 49.4712 1.86967 3.20813 0.0805326 0.856605 0.134626
1129 63.4301 2.76399 4.213 0.0232196 -0.271994 0.639811
2359 61.6168 3.93665 3.20209 0.679984 1.22055 0.43874
3624 3.21641 4.95264 3.58997 -1.38629 0.685648 -1.12321
1853 14.1928 5.64297 4.00577 -1.81267 -2.78344 -0.27541
2483 57.0488 4.74386 4.14307 0.341321 -0.973799 -0.248054
3151 27.5723 7.03008 3.92302 0.363877 -0.563854 0.158807
3296 59.9487 8.36223 3.42336 0.456836 -0.0985752 0.592302
2951 46.6438 11.76 3.3607 1.08673 -0.726754 -0.261361
2211 54.7889 12.5067 3.66619 -1.66524 0.222219 0.474395
2622 18.4441 13.9806 3.15409 0.558204 0.23736 0.149972
3539 33.471 14.0753 3.56007 1.84336 0.631773 1.25771
1466 40.6535 14.2894 3.22009 -0.523576 0.905207 1.38378
1105 73.5683 16.77 3.53928 -0.481018 -0.00682472 0.334682
503 59.3617 18.2922 4.02816 -0.611535 0.285367 -0.205179
2564 48.4296 18.6657 3.73886 0.0304219 -0.226952 -1.883
2980 46.4797 22.382 3.33963 0.199923 1.81885 -0.388149
3976 68.1154 23.1827 2.84605 -2.26825 -0.120285 -0.306052
1988 45.5922 25.343 2.98022 -1.50269 0.265089 0.455132
676 59.8953 24.8811 3.41327 -0.972227 -0.287979 0.853038
1530 69.0572 24.4233 4.07126 0.188612 -0.905769 0.293609
246 25.398 26.586 4.172 1.01584 1.13456 0.521398
3282 48.9508 25.57 3.78637 -0.260718 -1.47712 -1.85357
1526 51.0817 27.8338 2.89034 -0.758865 -0.542964 0.214784
420 8.06554 28.9323 3.52129 -0.102496 1.244 1.01683
2415 13.8094 29.2385 3.4052 -0.976147 -1.45975 1.4745
1738 42.7472 28.9036 3.65322 0.641574 1.19072 0.637888
3666 52.8954 30.6846 3.65733 -0.982082 0.373732 0.547784
3901 63.8504 31.1131 3.39958 0.594568 -0.171885 0.702055
2848 63.6739 32.443 3.48291 -1.61483 -0.0666108 -1.65004
1272 7.19892 32.8984 3.38018 -2.00695 -1.10348 2.72773
1681 12.1147 32.7473 3.33892 -1.2921 -2.12425 0.0269869
1472 68.0263 32.8429 4.12805 -0.318139 -0.263462 -1.03159
1932 2.35374 2.6644 5.35168 0.703526 1.58924 0.126406
3357 28.442 1.63372 5.46553 0.907265 -0.24709 0.363657
3147 47.9898 2.56536 4.83819 0.799533 -1.47928 0.759306
709 33.7508 3.59089 4.75118 0.481322 1.07739 -0.0803162
3346 62.7641 2.84575 5.09126 0.224477 -0.568986 0.864892
2257 45.5978 4.49785 4.77901 -0.729396 1.01835 0.162085
734 35.2676 11.2353 5.07697 0.759703 -0.595123 0.0106721
2838 34.6118 10.553 4.53864 -1.51461 -0.307424 -2.20169
2439 33.7349 11.4338 4.28307 -0.572815 1.00246 1.51418
624 38.7467 12.0238 5.45532 0.45572 0.332749 -1.28985
1976 72.3759 12.4524 4.85519 0.750081 0.60166 0.286094
1399 9.55798 13.4936 4.41359 -0.377785 0.164711 -1.69226
3299 68.7779 15.8874 4.76556 0.399966 -0.670777 -0.471043
3443 43.0871 17.7059 4.31096 -2.55029 0.122571 0.61883
2109 55.4597 17.7588 4.25083 -1.56435 0.973753 0.563313
644 4.79868 21.0008 5.31479 0.951376 1.17502 -0.340162
3588 14.6435 21.6194 5.17126 -0.690148 0.839168 -0.50921
1634 0.889055 23.2975 4.75182 -1.84939 0.058913 0.776073
308 8.39844 23.8001 4.74241 -0.291594 -0.681557 0.586997
3361 61.1639 22.8074 5.24251 0.128143 0.918581 -0.849075
1670 1.75257 24.4291 4.43374 0.965294 0.242165 -2.10359
2457 18.4441 25.2988 4.59696 -0.241303 -1.34555 -0.614134
3520 69.1006 26.8794 5.33249 0.325408 -0.685486 1.20223
2123 72.7107 25.6025 4.63384 -0.25596 -0.0172964 -0.71812
2438 1.26421 27.5983 4.93208 -0.684944 1.04004 -0.732257
1186 53.5925 28.233 4.90912 -1.3495 -1.62887 0.622033
1960 54.032 29.7178 5.09924 -0.656365 0.33237 0.785495
3413 33.9858 29.814 4.61115 1.06031 -1.22269 0.228501
3113 39.4213 30.6173 5.45255 0.312916 -1.59298 -0.103581
2193 71.0614 30.7521 5.12832 0.668105 -0.658876 0.0917055
2208 9.95449 34.1031 5.60005 0.85212 0.739714 -1.31328
43 3.88642 1.7138 6.09038 -1.52738 -0.730118 0.802622
2952 15.938 2.67079 6.83446 -0.241557 0.0878719 -0.886561
1148 40.3487 2.40722 6.12919 0.693055 -0.347703 0.785434
2386 25.6148 4.36175 5.94628 0.608767 0.373184 0.158493
2730 65.2085 4.43452 6.23739 -1.58314 0.171008 -1.19638
1434 28.0077 6.974 6.69708 0.328168 -0.825503 -0.800684
3156 0.637918 7.15666 5.74226 -0.233329 0.194644 0.447329
339 36.0461 8.58287 6.67958 -0.973906 1.20468 0.553233
759 68.3914 8.71827 6.41725 1.87921 -0.685333 -1.14428
700 15.5181 10.2496 6.64047 -0.365615 -0.973055 -0.0812612
2265 21.5243 10.0293 6.63788 0.390683 0.649564 1.43713
98 54.7713 14.7014 6.9133 0.538495 -0.295657 -0.499361
3922 38.0023 16.4943 6.44768 -0.525424 0.537068 0.079058
3919 57.8318 18.2432 6.06829 0.744697 0.476933 -0.589754
1340 12.2354 18.7976 5.80147 1.73001 -0.940713 -0.606042
2999 35.8432 20.3086 6.07501 0.490421 0.242475 -0.241397
1770 12.8227 22.7911 5.95073 -1.09139 -0.670616 -0.607576
3587 14.1802 23.4977 6.06753 -0.700379 -0.660218 -1.9176
3385 58.4432 22.9526 6.31401 -0.457732 -0.994625 0.74942
161 44.4307 24.78 6.88552 -0.766741 0.32358 0.218829
3007 73.3919 24.5707 6.66614 -0.985458 0.32344 -0.234102
1840 0.479051 26.8956 6.31465 -0.828933 -0.934816 -0.498528
1596 7.85372 27.4318 6.56497 -0.185952 1.51132 1.27986
1345 27.062 27.3345 6.97814 -0.673457 2.3237 -0.311638
1209 44.2235 26.9872 6.8169 1.37606 -0.61826 0.972656
1557 47.9489 27.2925 5.96275 0.381385 -0.198933 0.642902
1214 73.2786 27.6896 6.42199 1.13211 0.59558 -0.0724256
1422 37.9545 29.4442 6.56251 -1.96729 -0.429174 -1.11779
2555 46.6391 31.0013 6.26256 -0.545094 1.35026 -0.0206896
1898 9.43778 32.1709 6.30248 0.671183 0.364716 0.828954
1973 50.141 31.3008 6.77394 -1.33713 -1.62346 0.69364
2995 55.9007 31.8357 6.92292 0.272163 -2.333 -0.600264
3781 20.3623 33.0606 6.37276 -0.416547 -0.301681 -0.537163
1730 49.945 32.6736 6.83016 -0.439603 -1.99422 -1.3031
2414 15.7981 35.2024 5.70919 -0.49556 0.958192 0.826167
761 39.9897 36.7872 6.43506 1.16793 0.471572 0.106715
3647 31.8396 0.770278 8.25839 0.794133 1.29504 0.235111
640 37.7344 0.0410993 8.10294 -1.10875 -0.714719 1.94439
2533 59.1265 0.484622 7.28863 -1.47457 -0.360098 0.878903
3143 68.7714 0.484407 7.84619 0.00740727 0.779613 0.633413
3256 32.8707 4.14601 8.4665 1.33428 0.849959 0.836449
114 41.1736 3.83795 7.51349 -0.519991 0.387009 -0.00885994
1754 61.0164 3.65922 7.84288 1.51084 -0.68735 0.671587
3129 70.6982 4.225 7.15992 0.79672 0.947867 -0.155377
2346 40.4455 9.65157 8.22069 0.594984 0.229381 1.44955
3965 8.2181 11.5785 7.33778 -1.62996 0.588509 -0.296375
3788 47.2545 11.9276 7.1743 1.29949 0.0986979 0.0792512
3988 66.6424 11.5468 8.45806 -0.265818 0.818315 0.405711
1867 72.3337 11.8379 8.21818 0.0409706 2.0349 1.58557
3778 46.0531 13.8074 7.90246 -0.121647 1.24425 -0.795791
372 10.9533 17.6775 7.44739 -2.43768 0.343338 1.54481
124 27.8841 17.0831 7.36272 -2.40623 -1.05984 -0.00158959
1193 29.9473 17.3124 8.15483 -0.85467 -0.786345 -1.87542
3601 0.298672 19.5873 7.86732 -0.298238 -0.061564 -1.02166
1815 4.70933 19.7693 8.30592 0.308271 -0.404398 0.778597
2012 33.1249 18.8444 7.55388 0.450073 -1.52399 1.73306
1020 29.4413 22.0744 8.18905 -0.795299 0.116803 0.0771215
1940 44.7178 23.3219 7.77249 -0.374342 -0.706234 1.03453
1221 51.9803 23.9958 7.347 1.69766 -1.12602 0.251502
1166 56.7494 22.9066 7.09942 1.19131 0.477405 -1.59912
3031 67.1597 24.4976 8.31728 -0.213925 -1.12797 1.20999
3039 69.8825 24.4046 7.708 2.17243 -0.954421 -1.02963
2709 1.98852 26.7735 8.27424 0.32093 0.661385 -1.92453
1639 11.678 26.6789 8.29251 -0.007741 0.467916 2.50798
1171 21.5992 25.8949 7.53398 -0.0564766 1.53981 -0.258676
2243 32.9417 26.3864 7.70762 -0.654567 -0.0502167 0.549943
1060 35.6329 27.5292 8.34066 0.776257 1.54667 0.0498754
1576 7.81769 31.0983 7.29416 -0.703277 0.533449 -2.24429
2070 25.3568 29.7883 8.30934 0.402832 -0.290749 0.939477
2918 4.56892 32.3549 7.41025 -1.96795 0.0492784 0.823787
3023 6.91383 31.9469 7.33146 -0.805061 -1.17749 0.14298
3644 20.3051 31.7937 8.38282 0.590945 -0.378115 1.4451
7 54.6195 32.9884 7.72688 0.0677693 0.654689 0.438474
3753 17.1125 35.1998 8.38043 0.363657 0.901656 1.45842
1613 19.8092 34.1959 7.26528 -1.62839 -0.0989258 0.918567
2396 14.936 35.9648 8.34339 0.663333 1.26113 -0.966382
560 20.8058 35.6623 7.41443 0.702851 0.47086 -0.814974
633 10.8674 0.757796 9.5991 -0.092055 -1.5991 0.774028
3737 39.3665 1.9649 9.17926 0.129354 0.0297526 1.90966
484 18.4796 5.5122 9.36533 0.526165 0.0621032 -0.117661
1783 36.911 5.79646 8.52903 -1.24317 0.678069 -0.843045
2674 49.6414 6.28323 9.06937 -1.61 -0.596457 0.425924
3137 60.3411 7.33718 8.74742 0.3075 -2.21776 -0.199386
2052 62.5054 7.69956 8.70321 1.64586 0.331574 1.80763
679 73.552 9.65822 9.78556 1.59197 -1.09651 -0.439546
2933 6.02548 11.4818 8.93147 1.08483 0.754578 -2.09341
100 17.8802 11.9607 9.12752 0.465669 0.374176 0.571692
636 29.5236 11.5877 9.57921 -0.869613 0.381921 0.0911277
797 17.1509 13.082 9.80009 1.03153 -0.537171 -0.993859
2409 30.647 13.3793 9.64295 0.232194 -1.86713 -1.53014
2130 31.5422 12.9082 8.95766 -1.3061 0.821343 1.87551
1825 70.0883 14.1147 9.86166 -0.807423 0.936368 0.389444
470 20.7973 15.1263 8.96208 0.855339 -2.20773 -0.995087
1644 20.4174 16.8557 9.20477 1.05497 1.3664 1.87894
3524 50.2152 16.8816 9.62457 -0.142253 -1.07113 0.396035
3127 16.2856 17.9547 9.18703 0.441936 -0.909995 0.219936
3994 58.7818 23.2638 9.26896 1.25711 0.0205791 -0.68602
2605 71.7985 23.9929 9.78315 -0.39406 -0.82217 0.826219
891 66.9474 25.1917 9.07436 0.0346801 1.98094 -0.0732891
1205 40.3524 29.5216 8.92511 -0.585499 1.55048 2.08935
3941 55.9003 29.8939 9.34693 0.0429945 -0.39408 0.95803
535 61.0864 30.8808 9.66875 1.29842 0.109162 0.381778
3487 13.9763 31.1763 9.20875 0.409335 -0.805994 -0.39844
3705 27.8332 31.59 9.08481 -0.326406 1.88564 0.0381786
2585 8.57978 32.7169 9.69072 0.873157 1.23158 0.665223
1999 46.5989 35.2256 9.03224 -2.63802 0.1389 0.123572
2809 46.0836 2.38255 10.0698 1.08612 -1.93515 0.0703698
3663 62.5581 2.82582 9.97643 1.20396 0.956923 0.810929
16 67.7411 2.74559 11.2757 1.08282 -0.481557 0.267982
2619 30.6411 2.97304 10.627 -1.57168 -1.14588 -0.5787
1622 38.1606 5.65116 10.5507 -0.793372 -0.715928 -0.312917
3087 48.6954 5.52218 10.7196 0.5135 -0.074642 -0.897254
3542 69.2574 4.62417 10.4787 -0.160942 -0.579819 1.55897
2917 51.2851 5.91936 10.7053 -0.202901 0.701905 -0.561283
34 33.4514 7.62435 10.6486 0.925294 0.165601 0.353971
1088 48.3392 7.18246 10.5891 0.583039 0.195394 -0.627121
402 67.6476 7.33618 11.2796 -0.00703866 0.828254 -1.69165
3110 24.51 8.7968 10.6583 -0.04606 -0.265834 0.158133
346 33.7733 9.16959 10.2814 0.0544787 -1.11897 0.0275412
570 42.7639 9.88862 10.6161 0.617747 -0.822978 1.29041
1375 58.091 9.06051 10.2024 -0.854435 -1.8264 1.30295
441 37.917 11.64 10.3046 -1.01138 -0.671968 -2.66108
1236 49.1643 12.1119 10.4648 0.437899 1.30752 -0.238341
1153 27.8114 14.1681 10.1958 0.379026 -0.288524 -1.97511
3811 52.5884 13.5585 10.9026 -1.58116 1.36663 -0.779925
1424 28.0063 14.5758 11.174 0.738005 1.20664 0.143273
2347 39.059 14.2649 10.9325 -0.0224385 -1.56467 -0.749444
559 53.6808 15.1781 11.0106 -1.70242 0.244931 -0.173744
704 10.486 16.3152 10.7595 -0.773839 -0.161578 -0.361219
2798 33.5353 16.9436 9.9759 -0.123401 -0.710141 -0.338609
536 35.9087 15.6221 10.8787 -1.09651 1.62226 -0.660266
1797 48.8577 19.6778 10.0155 -0.00432641 -2.83303 -0.000475921
3741 49.6693 18.8505 10.2566 0.364384 0.826798 -0.369095
2892 66.6975 18.6197 11.1589 0.582613 -1.48381 0.363267
3808 6.72082 21.3019 10.7453 0.60787 -1.34154 -0.118633
659 9.55816 22.3702 10.8116 0.110203 -0.644555 -0.246828
1152 47.3431 23.1403 11.2899 0.141678 -0.357208 -1.12825
2707 0.271135 25.6617 10.1406 -1.15856 1.58934 -1.76092
1251 68.4276 25.7074 10.3377 -0.0844678 1.22617 -0.763059
1939 6.93445 27.7047 10.8972 1.23482 0.258515 -0.71777
1079 17.6749 27.8093 10.8107 -0.28782 2.43865 -1.96456
1159 57.2589 27.6771 10.9708 1.43629 -0.080631 0.602135
3061 20.841 29.3962 10.0569 1.1807 -0.14708 0.304525
2509 68.4946 28.8979 11.0639 -1.11503 -0.555092 -1.15951
66 69.3305 28.9226 10.0751 0.980434 -2.16742 -0.0586965
1292 55.6866 30.3363 10.6597 0.592672 -0.0414865 1.21129
1427 49.9801 32.2219 10.3021 0.116929 -0.708715 1.21275
3408 45.4527 34.4881 10.5144 -1.46261 0.572935 -0.662222
2991 43.8212 36.1106 10.6077 -0.588368 -0.818141 1.35661
3246 44.2269 0.789785 11.7098 -0.353315 1.05462 -0.482186
846 37.0495 2.65384 11.5245 1.03506 -2.00339 0.19697
1242 52.3134 1.96934 12.0595 0.293025 -0.290753 0.257805
1630 52.6658 3.78029 11.384 0.71511 0.425198 -0.625449
1872 8.58735 4.38764 11.5192 -0.999349 0.496999 -0.0245181
3477 2.69656 6.998 12.2186 -1.02802 2.46554 0.789701
1444 47.671 6.22685 12.3603 0.331149 -1.50039 0.48754
224 56.29 6.30705 11.8773 0.953816 0.63531 0.655434
1150 68.2703 6.77674 12.3051 1.36224 -0.54068 0.593291
3669 11.4239 8.56542 12.1638 0.326842 -1.08592 0.666491
3368 55.3353 10.9705 11.3854 -0.828173 -2.31334 -0.118168
3022 60.7583 10.9004 12.2391 0.451369 0.993713 -0.554597
3955 52.9563 14.3087 11.8911 -0.846212 -0.410096 -0.148878
3743 36.2551 16.3775 12.5137 -0.254884 -0.163736 1.51004
465 63.9874 16.838 12.4938 -1.06362 -1.83066 -0.181753
164 3.25296 17.9951 12.0557 -1.18319 -0.17541 -0.974378
3885 5.16634 18.3179 11.7516 -0.363771 1.62266 2.72789
1015 57.9387 17.849 12.1869 -0.571419 0.995224 -0.307744
2042 72.4572 17.5679 12.5716 -0.466372 1.52826 0.929066
2550 54.0151 20.4981 11.3788 0.17215 0.577721 1.37038
683 23.6952 21.5368 12.6202 -1.26386 0.844548 -1.56581
2845 56.1956 22.876 12.6653 2.03403 -2.30354 -0.807411
2446 12.8657 24.9894 11.3884 -0.257526 0.287413 -0.712535
1072 22.1238 26.8774 12.1969 -1.22747 0.264847 0.896203
2575 57.3594 26.3892 11.4118 1.27078 0.741126 1.81551
2524 32.4437 31.0806 11.7113 -1.13768 -0.302635 -0.627661
412 11.1753 32.3602 12.0096 1.60374 0.922752 0.813739
924 32.0796 32.937 12.2371 0.198223 -0.215303 0.532397
3680 65.2204 33.0033 11.4366 1.30796 0.797459 0.29858
2601 16.9183 34.7602 12.4421 -0.553844 -0.659361 -1.16089
2009 17.3893 34.2869 11.4699 -0.862871 0.262002 0.459073
1415 47.1643 1.16046 13.6621 -1.41308 1.15767 1.46654
1925 50.2776 0.333862 13.8832 -0.181952 0.206069 -1.02761
885 12.4288 1.76948 13.8682 0.0131677 0.872987 1.29434
3012 46.9281 2.33322 13.0731 0.158079 -0.329014 -0.558388
2099 50.4008 1.46559 14.0187 -0.830177 0.116626 0.0341861
2858 53.6385 1.47885 13.0699 1.13781 -1.85492 -1.04499
851 68.674 2.4376 13.4341 0.452219 1.43738 -2.26729
1431 56.7107 3.87918 14.1521 0.646116 -0.430896 0.144101
2445 60.6922 3.734 13.3264 1.1821 0.483071 -0.0169732
807 59.5518 4.95816 13.408 1.84263 -0.15128 1.41155
3746 71.2663 7.75357 13.1018 -0.89929 -0.171781 2.51133
1690 71.9534 8.30153 14.1267 0.307303 -1.17041 1.28775
3216 17.1215 9.30884 13.4183 -1.12004 1.42816 -1.54023
1204 11.6571 14.0513 13.2155 0.861284 0.150293 1.04752
3444 40.8415 13.7676 12.8478 0.924505 0.00718272 0.841411
3763 19.6331 15.2729 14.1254 1.0806 1.13928 -0.813968
3502 36.6411 15.3943 12.8475 -1.42064 -1.10474 0.419316
1346 50.0803 15.4658 13.9428 0.965459 -0.437684 -0.465465
2523 30.5826 16.5786 12.8596 -0.984215 0.409857 -0.376512
3429 59.0796 15.8841 13.0887 -0.326935 -1.64831 0.959551
1891 60.6333 17.3501 14.1132 1.32645 -1.63351 2.0588
771 14.8971 19.052 13.6439 1.55346 0.17223 -1.3288
2369 21.6467 18.4581 13.8865 0.889602 0.9155 -0.1582
2381 11.1109 21.3544 13.9051 -0.475583 -1.32587 -0.433928
1945 11.473 22.1684 13.2215 0.166894 -1.06411 -1.18988
3198 46.5146 21.8961 12.9021 0.702358 0.576012 0.931885
2302 49.0214 21.8392 12.8233 -0.761673 0.0298877 0.0263581
2563 17.3784 23.7297 13.922 0.566605 2.05447 0.243499
33 37.7957 22.8016 12.7618 0.415353 -1.09615 -0.0429762
3690 42.1923 23.7988 13.5602 -2.44795 -1.37919 0.244005
2067 48.5317 22.7927 13.4073 0.0351269 -1.32123 0.513376
2288 12.2382 26.1059 12.9787 0.0346892 1.29055 -0.704045
2914 45.8843 26.8982 13.8237 -0.0922536 -0.612472 -0.122128
2321 23.3777 27.218 13.2792 -0.0410606 0.921846 -0.556748
3335 4.77913 28.8663 13.2709 -0.426603 0.713682 -2.38387
1759 18.9936 31.5904 13.1552 1.22448 2.07711 0.736379
3871 25.7491 33.4717 13.6667 -0.520769 0.0735871 1.22198
2413 33.293 34.0028 14.1139 -0.254771 -0.404711 -0.471049
1187 61.5707 33.1504 12.8439 -0.854437 0.110051 0.709786
3322 12.4988 34.5087 12.7735 1.09364 -0.948384 -1.13742
3003 26.7657 34.1339 13.2796 0.131564 -0.379201 1.5475
2797 49.5998 34.9999 12.7828 0.883929 0.924236 -0.185886
2490 18.4434 36.2555 13.4159 -1.11138 0.397709 2.34221
1901 24.7476 36.1007 13.9713 -1.15548 2.34735 -0.83407
1664 52.277 0.927147 15.089 0.62995 1.1795 1.19528
1295 16.9138 2.41024 14.691 -1.11205 -0.291179 -0.00349504
149 18.9356 3.27631 14.9952 -0.457452 -1.02221 -1.58398
1766 58.3734 2.94583 14.9798 -0.636745 0.251044 0.286477
1777 41.6241 5.64297 14.6443 -0.903306 0.548405 0.0805251
2505 63.4501 7.87963 14.4669 1.11677 -0.940942 -2.20254
1697 6.53917 9.57623 15.1605 2.20025 0.378062 0.165625
2893 24.8698 8.75847 15.2205 1.34979 0.995344 -0.726027
1002 67.9872 10.3923 15.4912 0.133755 -1.93221 0.923152
3186 67.5099 10.0121 14.6155 0.571924 -1.80743 -0.0394519
546 54.1936 11.769 14.9 -0.515837 -1.79104 0.406678
1405 23.4609 13.787 14.8718 0.24862 0.442738 -0.390563
3333 55.2513 16.5477 14.7713 0.0723043 0.214432 -1.20261
3138 9.88904 17.4864 15.1507 1.06443 1.61573 -1.84051
2621 5.92481 19.4303 15.314 0.0207588 0.0673033 0.231346
3307 6.74353 19.0133 14.4562 0.575532 -0.678106 -2.01179
1458 6.20009 20.147 14.3946 -0.513739 0.237201 -1.2338
2102 8.50182 20.4923 14.6504 0.282467 -1.67319 0.811657
2072 43.8435 20.5967 14.4223 0.0989553 -0.490136 0.0105763
725 3.25818 21.7287 14.2113 1.22872 -1.80381 -0.163545
2668 52.4139 24.0336 15.0849 -0.639426 -1.17755 0.934355
3576 21.595 26.8755 15.3381 -1.40978 2.01274 0.442575
446 26.5095 26.793 14.2899 0.525302 -0.012077 0.157103
3182 0.514753 27.1468 14.3897 -0.125243 0.368274 0.605885
2837 16.0166 27.9482 15.2237 0.44329 0.709514 1.11403
3078 21.4242 27.924 15.2873 -0.181016 -1.66793 -0.766454
1889 55.506 27.2835 14.5725 -1.21801 0.651438 0.879679
1878 55.837 28.3007 15.0645 -0.441672 -0.47641 -0.745945
79 0.618618 29.1785 14.7351 -1.86433 0.340293 0.394485
1130 61.9398 29.1756 15.3174 -1.6321 -0.742514 -2.27122
3533 5.36306 32.5058 14.9254 0.74685 -0.674196 0.24276
235 58.4126 31.3279 15.5806 0.163545 -0.54256 2.18427
609 6.23508 33.2885 15.4976 0.902241 -1.95303 -1.44048
2697 2.91022 35.0768 14.6116 -0.727356 -0.0789524 -0.745979
949 9.29046 0.413277 16.2169 0.538098 -1.05604 -0.100532
2902 51.6325 0.181141 16.3994 -0.694552 -1.43525 0.255208
1350 2.80856 4.0168 16.9622 1.39946 0.866506 2.14708
642 33.0982 5.03987 15.6488 0.193446 0.292604 -0.108024
1824 35.4645 5.32935 16.2046 0.0233245 -0.20431 1.11033
307 37.8072 8.04682 15.8112 -0.904087 -0.15467 -0.581448
2428 26.0035 8.65327 16.0272 -1.41301 0.79947 -0.725782
1680 37.5118 8.93777 16.1598 -0.261031 -0.847498 0.748956
375 72.0534 10.2456 16.3596 0.705333 0.360142 0.784656
3945 12.4808 11.7089 16.043 0.988401 -0.792082 0.224728
2237 25.5086 12.4556 16.9198 -0.107535 -0.714591 1.9633
1624 42.923 12.1532 16.3733 0.511515 1.84326 -0.730439
2121 44.7084 12.8639 16.6381 -0.486861 -2.37876 0.242443
3511 53.9714 14.3881 16.9559 1.61798 -2.43517 0.92658
2688 62.3131 14.4858 16.0158 -0.647694 -0.726353 -0.360106
409 16.7847 19.6206 15.8393 2.91613 -0.427671 -2.1794
1370 30.7298 18.7523 15.7347 0.597014 1.65019 1.44372
3650 33.2161 19.8934 16.8852 0.394518 -1.05897 -1.37603
1309 51.911 23.1093 15.7102 -1.66765 -1.15509 0.422575
626 41.7019 25.4803 16.7058 0.712107 1.07878 -0.00649032
2640 49.5444 24.5686 16.2022 0.212589 -0.67349 -0.12989
554 31.2518 25.993 16.8164 0.914437 -1.42953 -0.322088
3636 42.3871 26.1082 16.2447 0.282774 -0.719366 -0.153791
3564 67.8525 25.9585 15.6025 -0.957969 0.35178 -0.675586
3290 70.4956 27.9518 15.879 0.699286 1.70845 -0.49792
144 22.0287 28.9461 15.6236 -0.510635 -1.57906 1.24009
3072 36.6971 28.7605 15.6205 -0.267781 -0.624298 -0.218197
3812 57.507 30.8161 16.5281 -0.622622 -1.64045 -0.315
102 71.5496 30.7276 15.6423 0.340129 0.568719 0.776784
763 10.7275 31.7398 15.7275 -0.562595 -0.515114 0.446256
1715 45.0094 31.1831 16.3772 0.622203 1.76771 -0.674568
3791 67.3264 33.5461 15.973 0.856397 -2.47657 1.65678
262 68.945 33.1902 16.1077 -0.702377 1.69172 -0.136543
1671 22.7856 34.5354 16.0319 -0.458843 0.910843 0.00675347
1885 24.2287 34.3034 16.7052 -0.734719 -1.59938 0.666566
1562 68.113 35.1286 16.338 0.273574 -0.136006 1.24329
3887 69.97 34.4077 16.3848 -0.51168 -0.827156 0.447697
1412 24.803 36.277 16.6911 0.758704 0.8441 -0.431307
1446 20.9376 2.00491 17.2981 -2.07882 -0.57328 0.518799
21 30.6585 3.90864 17.4041 0.75031 -0.395876 2.77541
1457 65.6796 3.00323 17.142 0.418148 0.483822 -0.356491
1525 45.202 4.46798 17.4528 -0.64 1.01817 -0.462383
3463 49.602 5.81821 18.0737 1.14783 -0.91077 -0.494317
1281 56.7561 7.22588 17.4309 -1.28124 0.677753 2.10521
1781 29.4736 8.8796 18.2079 -0.658263 -0.29457 -1.99256
3772 6.45421 10.8642 18.0413 0.931114 0.508496 0.405192
3755 62.0952 10.5108 17.4602 -0.155294 -1.31058 1.1801
852 5.3256 12.3067 18.2801 -0.0250238 2.53717 -0.00794749
1841 8.54475 12.5377 17.5475 0.721064 1.09666 -0.60115
2536 1.79146 14.0596 17.9539 -0.854111 -0.942862 0.807285
2205 38.9298 13.4555 18.1829 0.995414 -0.232654 0.0112812
939 14.1332 16.7822 17.398 -0.742041 0.261473 0.118576
3337 22.5773 15.5967 18.351 0.528768 -1.75628 0.652065
1127 25.6365 16.0247 17.5093 0.848746 0.738457 -0.536912
3908 52.5192 16.8524 17.0401 -0.593761 0.153822 -2.5797
3028 12.2217 17.5182 17.8828 1.71544 0.5324 -0.823822
3692 13.1982 18.3027 17.7534 -0.223598 0.47656 0.111456
3854 11.1766 19.7406 17.6052 0.0162531 -1.54938 0.451109
3598 22.501 18.9486 17.1919 1.19815 -0.678024 0.782662
3059 5.42719 20.7063 17.5115 0.899008 0.0154334 -1.59137
3006 2.40725 21.6326 17.6572 1.81443 1.39041 0.87289
878 59.0276 21.8168 17.601 -0.0316124 0.467165 -1.25032
3389 60.7224 22.6195 17.7036 -0.557693 -0.372104 -0.51322
1743 42.3009 24.0813 17.4676 0.315943 0.877136 -0.50905
2391 17.5659 24.862 17.8756 -0.603952 0.550286 1.01725
1549 1.50116 25.8998 17.3081 1.0105 0.0962675 1.00594
816 4.53537 27.2507 17.1408 -0.513904 1.36027 0.077491
1469 40.2239 28.3362 17.8609 -1.08793 -0.666035 0.690484
978 13.011 29.7861 17.607 0.587705 2.96042 1.29774
1788 36.6378 30.7387 18.1491 -2.10568 -0.0866468 0.47328
1773 62.6846 31.0244 17.8925 -0.0944904 -0.916417 -0.840607
310 10.2255 31.279 18.3028 -0.541021 -0.741783 -0.426729
2357 50.0717 31.8769 17.1458 -0.51463 -2.47037 -0.0516451
1386 64.8578 31.4075 17.7697 -0.710558 1.09456 -0.042561
1076 15.1875 33.7666 18.1788 0.482858 -0.334743 -1.26794
3431 61.8781 33.1753 17.4584 -0.0274046 0.235277 0.088223
2512 9.52799 35.1638 17.1585 0.549407 -0.797334 -1.66494
2571 48.3429 0.73419 18.8283 1.30382 -0.442266 -0.5998
355 37.1445 5.36965 19.6066 -1.08355 -0.0574854 0.280462
2034 58.5638 7.18108 18.724 -0.691338 0.754268 0.229945
2078 64.1939 7.33082 18.5252 -0.302952 1.13569 -0.00769462
2028 73.0066 7.56537 18.8815 1.13108 -0.562341 0.914518
3432 21.5633 9.66476 18.9404 0.885231 -0.823568 0.24276
487 27.141 8.73639 19.0336 -0.0266022 0.797873 -0.270137
103 51.0797 9.29881 19.8085 0.895677 1.70317 -1.40004
548 27.5122 10.1606 19.1539 -0.427528 0.0755163 -0.997471
2593 31.7627 12.0479 18.7097 -0.410554 1.71823 -1.75317
1801 27.3788 13.183 19.4185 0.248772 -0.64565 -1.17917
3213 50.9064 17.1294 19.0758 -1.6814 -1.03456 -1.31727
3457 53.4507 19.6641 19.2267 0.652332 1.26179 1.32554
1997 64.2674 18.6008 18.6803 -1.02391 -1.0384 -1.28135
2246 19.2683 21.1912 19.533 2.06195 -0.344694 1.06322
2443 49.4874 21.1645 19.2868 -0.905742 -0.712871 1.49281
870 28.6548 21.6926 19.2097 0.146191 -1.001 0.415067
1245 50.5633 23.276 19.4091 0.493416 0.324267 -0.23091
55 33.8955 24.9211 18.6627 1.54336 -0.166039 0.147907
2613 13.5874 26.4231 19.374 0.906228 1.83367 -0.129004
2881 65.2773 26.8909 18.8688 -1.22754 0.194704 0.283823
2771 38.8693 28.2516 18.7157 0.715274 -0.68525 -1.11896
2311 15.3644 29.1966 19.0962 -1.36275 -0.0610941 -0.29543
2336 42.3595 29.4288 18.7747 -1.18339 -0.494464 0.888838
915 61.0488 28.672 18.8915 0.111276 -0.645495 -0.234149
721 1.05022 31.4554 18.4665 0.454672 -1.24115 -0.138302
510 33.957 31.3387 19.3604 0.0379642 -0.206764 0.539222
3223 38.2316 32.1251 18.8399 -0.73138 0.980954 -2.27236
1727 59.3456 31.4475 19.215 0.0832593 -0.331474 0.661956
2934 10.7418 32.6853 19.7266 1.29916 -2.42294 -0.286424
2611 12.7218 32.6766 19.1541 -1.70384 -0.82558 0.0522233
956 23.475 33.3878 19.3853 -0.626785 -2.28644 0.193094
780 39.3518 32.9681 19.2933 1.07472 0.778526 -0.00744198
3787 30.5135 34.3714 19.0873 0.576186 -0.258797 -0.494191
2124 50.8401 34.6217 18.7724 0.218502 0.173421 0.592885
3278 66.8148 34.3024 18.9166 -0.520037 0.448349 1.32611
784 52.597 36.8128 19.1944 0.547304 1.03054 -0.275802
1910 18.6879 0.998395 20.9249 -0.403467 -0.671221 -0.561314
2580 38.8004 1.92385 21.1205 -2.47245 -1.64505 0.673886
3921 49.3383 2.81649 19.9774 -1.70299 -0.364177 0.878134
3245 69.0162 5.30354 20.9445 0.429601 1.01576 -0.111749
3465 2.81612 5.84452 19.8691 1.10668 0.226154 0.468645
3546 57.1703 7.72643 20.042 1.13839 -0.15386 1.55671
2002 0.202676 8.88741 20.7386 -0.794307 -0.116094 1.10892
3671 12.7429 8.52037 20.5426 -1.26685 0.281453 -0.772624
1315 50.4043 9.45306 21.06 0.345665 0.0624477 0.524549
50 7.82693 10.4697 20.4086 -1.03522 -1.06951 -1.58628
3615 5.92499 11.3764 20.0053 0.56445 0.468966 0.612689
1821 28.9662 12.4788 20.1544 -0.565486 -0.250341 -0.216597
2007 1.11023 13.6391 20.8358 -0.796795 -0.566979 -0.924217
315 11.5247 13.4622 20.2705 1.29259 0.862228 1.15253
2833 20.4877 13.701 20.3477 0.258837 -1.12568 -0.171241
3806 6.92595 15.9819 20.1593 0.516922 2.30705 0.0416691
2447 1.85614 18.2259 20.732 -0.174622 0.553748 0.260419
2701 8.12862 18.5729 21.1465 1.29187 -0.346089 -0.833499
2401 31.1932 19.3272 20.8658 1.75707 0.155399 -0.60949
901 0.511245 19.9175 20.3328 1.1815 0.024972 1.87784
1334 1.4379 21.1609 20.2052 -1.30756 -0.405484 -0.607798
1177 45.6077 23.001 20.2887 -0.819208 0.239455 0.507177
1260 9.75558 25.4557 20.1187 0.0743178 -0.644426 -0.360778
2116 10.1601 24.3472 20.7074 -0.477593 -0.682434 -2.41619
3313 24.7136 25.1101 20.4215 -0.297436 -1.39693 -0.693167
909 72.3104 24.7165 20.3955 -0.697504 0.539526 -0.478218