ITEM: TIMESTEP
51000
ITEM: NUMBER OF ATOMS
4000
ITEM: BOX BOUNDS pp pp pp
0.0000000000000000e+00 7.3680629972807722e+01
0.0000000000000000e+00 7.3680629972807722e+01
0.0000000000000000e+00 7.3680629972807722e+01
ITEM: ATOMS id x y z vx vy vz
1293 7.21453 0.998452 1.18134 1.07154 0.82829 -0.306928
1538 33.245 1.35227 0.872243 0.83332 -0.810958 -0.00614491
3621 70.992 1.11039 0.967823 -0.655729 -0.836178 -1.00531
1465 48.9695 2.43177 0.39701 -0.670719 -0.0582109 0.049513
2887 0.645918 6.39865 0.919382 -0.452004 -0.887387 -0.512253
3331 6.02302 7.81627 1.12557 -0.45546 -0.499387 0.222352
3862 5.52693 9.82224 1.20257 0.59571 0.341076 -1.44491
2807 33.6797 9.9608 0.626461 -0.850477 -1.3101 2.51455
3554 72.2469 10.7473 0.752474 -0.508643 0.465548 -1.98799
1024 22.1236 14.5182 1.08022 0.629836 0.966348 -0.173685
2301 23.4286 15.1318 0.495746 1.21805 -0.149025 1.25684
75 40.3821 15.461 0.194814 -1.95123 -1.55889 -0.83921
1245 52.3737 14.2908 0.560802 -0.371925 -0.55155 -1.47938
3310 27.4115 16.4246 1.40716 -0.6851 -0.338958 0.215047
3299 72.2363 16.722 1.00995 1.35601 0.124226 -0.519865
3741 73.6418 16.1048 0.081442 -0.0950421 -0.732701 -0.130003
1458 5.04978 19.2021 0.664684 -0.198589 -0.0195018 -0.424278
3947 15.8976 21.1467 0.913237 -1.44123 -0.51637 0.573147
709 38.2284 19.9725 0.798721 -0.233179 0.467778 -0.0541052
2276 59.9627 21.2399 1.25872 -0.373867 -1.00703 -0.197019
1346 62.1668 22.3037 1.10737 1.92624 0.97807 -0.0718075
3745 62.9022 23.5646 0.555208 -0.86019 -0.28094 0.242448
2049 31.2127 24.5998 0.645947 0.817046 -0.43647 0.270046
1266 54.5841 26.8019 0.167268 -0.144825 -1.30655 -0.799225
3170 67.7988 25.8984 0.694757 -0.803705 -0.0461183 -0.730211
2421 5.34351 28.8414 1.21784 0.044228 -0.482186 -1.04538
104 51.9156 28.7472 1.01918 -0.344542 -1.55646 -0.419534
3181 55.7136 30.8776 0.0508413 0.193193 0.71018 0.697882
1466 35.9208 32.4811 0.6658 -2.25712 0.0465127 -1.05274
527 51.705 31.5516 0.387022 -1.16024 -0.108949 0.967177
189 56.5672 32.4323 0.415872 0.00168865 -0.511279 1.20613
3730 8.48204 33.4582 0.399729 -0.652963 -0.55648 1.41256
964 26.7534 33.3548 1.07416 0.552129 1.25902 -0.502694
1168 52.1836 33.9039 0.785271 -1.73441 -1.07765 -2.42924
243 0.817642 1.30541 1.66743 0.137205 0.0571928 1.55292
3075 15.9234 0.303114 1.87536 0.566115 0.870994 0.190517
3425 39.262 0.785197 1.70368 -0.499804 -0.190827 1.21312
2548 59.7737 1.65441 2.5375 -0.979833 0.019279 0.483802
749 16.8317 5.26672 2.48382 0.507996 1.75561 0.757803
2849 48.1868 5.62279 1.81322 0.359521 -0.811789 0.451715
273 54.1852 5.04141 1.73908 -0.413566 -0.612337 0.624521
3942 56.752 5.04575 2.20449 0.253313 -0.0436271 0.0882537
1945 11.0411 6.03723 1.46326 0.488999 -0.902765 -0.887097
1622 15.5118 5.90537 2.6423 -0.427275 -0.204848 0.186697
3010 40.7234 6.98456 2.6099 -0.383091 0.8796 1.12691
3366 59.0747 7.04712 2.14919 -0.18625 0.0489944 0.239428
1899 64.6052 9.87373 2.41108 0.0760439 1.44967 1.2538
3393 69.156 9.88967 2.45001 -0.224264 0.965469 0.102717
1902 17.4997 10.1009 1.9878 -0.522122 0.332155 1.15096
2850 34.8964 10.3479 1.65255 0.0888147 -0.789781 0.941299
1250 57.6724 11.006 1.4998 1.07814 1.62909 0.969936
3588 73.6461 10.2191 2.1891 0.395985 -0.899182 0.778958
3455 57.3375 11.5713 2.56911 -0.137778 0.779416 0.0796103
2137 32.4055 13.3103 2.31338 -0.772363 -0.229934 0.106268
1211 49.1681 13.7158 2.54617 0.328952 -0.928499 -0.316258
3988 6.65183 14.6305 1.53792 1.30361 -0.345685 -1.06274
3785 37.6573 14.604 2.19277 -0.276287 0.576608 -1.35248
530 57.0928 16.692 1.97264 0.591768 1.70468 1.61662
959 17.9866 17.5073 2.37691 2.79688 -0.0868538 -1.02789
820 31.9904 17.5575 2.41721 0.357581 1.10986 -0.64407
2381 13.7146 18.5114 1.80057 0.435835 -0.660231 -0.7874
1659 17.9038 18.5913 2.20734 0.337446 1.83695 0.36357
2403 31.2911 18.441 2.02232 0.95941 -1.38349 0.990311
1241 2.40236 21.8283 2.69879 -0.878483 0.84362 2.05744
1525 33.5134 22.4866 2.47072 -0.16013 0.494471 0.257319
1221 49.2637 23.5165 2.66385 -0.0590324 0.531814 0.33889
1440 67.6723 23.7383 2.50385 1.59717 -0.535378 0.0551696
3582 64.2854 25.4414 2.42248 0.342488 2.57927 -0.548845
1919 12.9397 25.8599 2.66092 -1.29852 -1.41474 -0.630554
2446 7.85325 28.2779 1.45956 -0.3005 1.1622 0.474761
1410 22.1624 27.6769 1.84072 0.424761 -0.129654 0.471726
1898 27.6309 27.4661 2.21913 0.930703 -0.954239 0.142754
328 47.6426 27.6659 1.43678 -1.2726 1.34134 -0.42445
61 7.06171 31.2165 2.54492 0.594847 0.259314 0.881566
1412 31.3942 31.2666 1.79509 -0.633372 0.2164 -0.121154
687 15.8926 32.6649 1.51121 -1.0919 -0.67155 -0.838252
2941 54.5271 32.9284 1.48239 -1.18101 0.11331 -1.76361
202 54.1966 34.7718 2.35165 -0.267767 -1.26632 -0.942906
725 63.4253 34.1308 2.13694 0.507113 -0.0649809 -1.47454
2779 62.6692 34.921 2.73434 0.677788 -1.0179 0.922541
3924 7.6334 1.00202 3.86688 -1.84101 0.339251 -1.05388
619 50.3869 0.80938 4.21705 1.4321 -1.6097 -0.623878
2914 61.2623 1.80021 3.60595 0.844541 -0.532179 -1.11614
3147 58.1567 3.70991 3.78482 -0.063198 1.11789 -1.05714
2844 63.1748 3.0732 4.1909 0.898473 0.093589 -0.986339
1134 15.8063 4.71743 3.14426 -1.52012 1.06014 0.424062
989 23.0304 4.91218 3.5474 -1.75643 -0.0284605 0.382692
1658 29.3037 4.94398 3.41368 -0.412105 0.419334 -1.11358
1132 60.6532 4.40951 3.10187 0.264606 0.131439 -1.04213
1705 65.417 5.11883 3.36491 -1.20942 1.63673 0.379395
3503 52.0011 8.06467 4.14458 -2.71262 -0.650036 -0.109029
1618 38.9401 8.63538 3.88014 -1.35082 -0.111787 1.00669
1138 40.9291 8.98145 3.20351 0.395036 -2.96739 -0.582132
3732 52.7832 9.1517 3.56158 0.991891 0.778096 -0.339605
2736 60.8603 12.26 3.20276 -1.02689 1.45691 0.0514256
3673 61.7208 12.3775 3.84987 -0.46123 -0.682293 1.78098
604 65.7621 12.1159 3.81873 1.05769 -1.10042 -2.95367
2387 33.4708 13.1629 2.95179 -0.839534 -1.03704 -0.0779568
532 66.8287 13.9219 3.82967 -0.778035 2.00126 -0.191996
1630 62.5702 16.167 3.13639 -0.351068 0.585515 -0.334476
3276 31.9295 19.7252 2.87008 -0.154635 -2.54966 -0.282594
198 44.6904 19.5932 3.70687 -1.87009 -1.04895 0.111919
1305 67.715 20.8447 3.8562 -0.443825 -1.37286 0.759503
1262 58.3242 23.5801 4.09343 0.692147 -0.922368 -1.35814
33 22.3612 24.7119 3.13265 -0.642195 0.325079 -1.15209
1929 41.7704 24.4924 4.14232 0.974123 -1.1087 -0.116575
639 23.3237 28.2303 3.95196 1.28069 -0.525949 0.656954
3018 4.4634 28.4372 3.41984 1.38876 1.15115 0.485298
85 23.9815 29.4959 3.35753 -0.396951 -1.82049 0.52832
3763 13.9889 30.5261 4.03103 -0.121261 0.94258 -0.265036
2047 25.7021 30.3173 3.68005 -0.486249 -0.76382 0.505881
1343 69.9329 30.4213 4.14468 0.608474 -1.14378 -0.0232693
1547 31.5174 32.6073 3.65805 -0.339773 1.74594 -0.743194
3361 57.2137 32.6463 3.32598 -0.630795 -0.267014 0.966001
3771 37.9599 35.5282 3.71368 2.00282 0.0205604 -0.0185175
671 59.6707 36.4844 3.35493 -0.572494 0.107124 0.000644655
1248 1.94746 1.27299 5.65382 -0.269357 0.998032 0.374437
3436 13.6792 0.432562 5.24973 -0.0265152 -0.462712 1.11649
3874 60.5125 0.303572 5.23178 0.189639 -0.315533 -1.4047
3397 33.098 1.99897 4.73501 0.429374 -1.34127 -0.436162
3433 28.5844 3.84864 5.34084 0.0455662 -0.339542 -1.3027
2817 58.1216 3.30407 4.7838 0.564735 -0.435774 -0.166941
851 9.56646 4.73999 4.68799 -0.0204809 1.18019 0.953161
3129 10.4923 5.46839 5.04616 0.96423 0.136792 -0.369903
1155 32.3367 5.15727 4.39063 -1.37564 0.532047 1.38252
2066 60.419 5.63586 5.19749 -0.0952881 -0.213065 -0.759654
727 32.6297 8.40883 5.41387 -1.12005 0.0232957 1.82
1516 73.5674 7.14595 4.58413 -0.60363 -1.27363 -0.268465
3917 5.91623 9.28107 4.58042 -2.13972 0.144167 0.0715666
650 27.0766 8.94838 4.87745 -0.666652 1.64233 -0.655268
90 35.5469 8.7274 5.14442 0.742847 0.176473 -2.12124
1631 51.6573 9.72463 4.65853 -0.258651 0.43063 0.376536
702 16.3998 11.1674 5.27599 -0.253972 -0.207724 1.08167
3737 59.3708 10.2523 5.28201 1.5454 -0.319928 -1.84194
1828 2.4845 11.6039 4.40582 1.60524 -0.359675 -0.213627
1181 0.965994 13.9877 5.35909 0.291392 0.48164 1.36119
3683 29.4676 13.6608 4.48749 -0.760949 1.11119 0.0858078
2234 34.1203 14.1571 5.10629 -0.417463 1.07301 -1.52927
2628 52.7342 13.8839 4.42781 -1.77101 0.0755441 -0.347892
842 67.579 13.4604 4.59107 0.588644 -2.30684 0.0588961
1530 4.16625 14.9301 4.35749 0.4164 0.0503157 -0.456777
280 23.694 15.5068 5.31393 -1.29454 -0.143162 0.106399
100 53.0283 15.6572 4.9372 1.41719 1.03145 -1.22965
381 17.8673 17.5318 5.34773 -1.2082 -0.798542 -2.18324
1791 27.5521 18.0127 4.88379 0.297871 -0.0363273 0.384393
3152 72.9781 18.3186 4.97809 -0.429643 1.10476 -0.834636
3322 2.99197 19.0982 5.46119 -1.4721 -0.592158 -0.910156
1885 3.84262 18.8049 4.35026 -0.711735 0.419294 -1.77143
3710 39.7604 18.9876 4.63082 0.16681 0.462364 -0.475232
2280 10.9193 19.9863 4.5661 -1.99435 1.46411 -0.623102
3542 13.6999 21.2135 4.61314 0.531858 -1.17331 -0.955788
2589 26.4766 21.8841 4.57968 -0.830452 -0.912348 2.11229
3426 58.8149 22.2722 4.54438 -0.303858 -0.128668 -0.331987
1152 26.9362 23.9603 5.51902 -1.17074 0.435238 0.587509
2397 61.4162 22.8221 4.45938 -0.847251 -0.606047 -0.394837
3592 9.28106 24.8257 5.07344 -0.0452904 0.847847 0.485707
2837 34.7155 25.2521 4.31102 -1.2168 0.4022 -0.139294
3316 40.9585 26.0685 4.38373 -0.914596 0.469939 -0.574794
775 3.05327 28.0544 5.60329 -0.206701 -0.80396 -0.930674
2449 4.15084 28.4459 4.5854 -0.0426928 -1.5283 0.0780936
2495 33.0401 32.9511 4.52878 -1.9467 -1.11882 -1.07029
3119 38.1339 33.9043 4.59217 -0.361441 0.145197 -0.319437
1699 46.2223 33.2514 5.34982 -0.463825 -0.871793 0.861927
3165 16.0375 35.0528 5.00146 -1.24152 -1.13587 -0.203044
1670 22.2557 34.459 4.29818 1.06423 0.37037 2.01824
433 35.3968 34.4184 5.02859 0.0726533 -0.323288 -1.676
172 60.6733 34.9046 5.14724 -0.656661 0.118743 0.23271
696 6.11547 36.4438 5.18642 -0.067777 -0.521036 -1.39156
2225 67.4196 1.2505 5.87724 1.5469 -0.391982 0.413271
1982 54.9388 1.4735 6.2906 1.69475 0.434648 0.468012
500 63.9958 1.82215 5.83848 -1.2065 1.76825 0.0286133
3955 51.1521 2.87903 6.13475 0.208256 -0.938394 0.735699
2130 50.0266 5.02837 6.01072 0.0747968 -0.687458 1.05242
2466 70.0285 6.54305 6.08328 1.14395 0.642836 -0.925947
3151 48.1431 7.41842 6.31596 1.66143 -0.087092 -0.58147
140 36.4964 9.14541 5.71038 -0.237641 0.565868 -0.90729
1083 60.9883 9.18574 6.14784 0.848918 1.9571 -0.959207
2384 20.1624 11.3249 6.17024 0.306659 -0.0486308 0.311607
2962 35.3799 10.2089 5.77591 0.121601 -2.13977 0.985118
340 34.4026 10.5514 6.19828 0.550292 0.778768 1.4275
3641 11.2677 16.107 5.74115 0.391364 -1.64903 2.04557
1853 66.0261 17.4347 7.06319 1.9491 -2.52946 0.691232
235 30.1571 21.1892 7.04549 -1.38214 -0.57078 -1.48041
112 42.3999 20.3488 6.54257 -1.50095 0.250522 -0.810806
3963 58.6319 20.4954 7.03917 -0.994104 -2.05342 -1.34067
3837 5.1784 21.3149 6.14019 -2.14802 -0.172947 -1.61002
859 59.0647 21.285 6.51933 0.503298 1.72079 0.836257
2352 67.8041 22.1579 6.41367 0.061793 0.420234 -0.510183
2160 3.50833 23.8511 6.43536 -0.70297 0.808384 0.451689
2725 13.8307 23.1322 5.99703 -1.76863 -1.02013 -0.0612348
94 60.8811 23.7952 6.45536 1.32749 -1.79063 1.11943
3022 8.44757 24.9897 5.83562 0.601855 -0.922143 0.579194
1697 43.2073 24.7604 5.8306 1.36457 0.549269 -0.182695
2180 27.2758 28.1697 5.93007 0.262456 0.0519836 0.282321
2078 48.8429 27.6196 6.54104 -0.664917 0.518115 -0.961174
2928 62.667 32.7898 6.84736 -1.0161 -0.426402 -2.32833
818 7.35606 34.7343 6.32524 -0.375719 -1.11149 0.271217
2064 36.2037 36.7238 6.13355 0.115387 -0.782944 -1.93225
3904 5.11311 0.0027984 8.38612 0.561265 0.876573 0.922296
213 10.7728 0.82987 8.30974 -1.57593 -0.181358 0.428065
2479 44.8869 0.529186 7.58818 1.06639 0.284727 -2.47091
1217 11.1731 2.56773 8.26172 0.0789256 0.409893 0.226134
2586 44.9731 2.63747 8.41752 -0.70698 0.654866 -1.33317
2221 50.64 4.77954 7.30823 0.0783576 1.06692 0.0354151
1801 22.3181 5.85261 7.8805 -1.56732 -0.336342 0.609108
627 28.0376 7.07214 8.36648 0.10422 -0.0228072 -0.277844
2845 11.5615 7.74519 7.70325 0.914185 0.398655 0.500288
1840 51.8204 9.70239 7.43029 -0.966426 -1.63557 0.143531
943 1.22435 12.4234 7.51671 -0.337078 -1.40452 -1.72416
1428 12.4239 11.635 7.21016 -0.0962496 0.328506 0.649738
1973 51.9706 11.6093 7.1095 0.47516 0.062917 0.0541457
2005 62.9609 11.5708 7.24959 -0.149989 -0.143455 0.277798
3271 59.1751 12.9694 7.08687 0.616271 0.819594 -0.205852
2772 11.2373 15.5607 7.55817 -1.11862 1.19829 -0.739197
242 72.5847 15.1041 8.34272 -0.849459 -0.0191786 -1.36747
1126 5.93522 16.463 8.38458 -0.198301 -0.313793 -1.11663
239 66.9348 19.3838 7.61979 1.28012 0.818561 0.248905
2575 13.1977 20.6629 8.42519 0.440279 1.18133 1.28307
1821 27.9287 20.5464 7.59077 0.223858 0.0133726 -0.382391
1236 32.5633 23.9593 8.22894 -0.566627 0.779451 0.779181
2123 41.4258 23.1439 8.15536 -1.70503 -0.163242 0.328019
2564 59.1638 22.766 8.27787 -1.70976 -1.49362 -1.37427
3153 71.1451 25.2778 7.10755 -1.71853 1.36052 -0.617922
3222 27.8271 25.986 8.10631 1.26146 -0.438476 0.00966481
2995 57.9218 31.0699 8.48976 0.12115 1.89012 1.14741
2946 3.65479 31.8726 8.20082 -1.82621 -0.725746 -0.889851
1841 5.33951 34.6297 7.54282 0.569717 2.20152 -1.2424
1961 12.4914 35.1247 8.27212 0.301627 0.0583565 1.50784
1176 6.633 0.637445 9.32486 0.219695 -0.555928 0.505441
252 67.6268 0.256808 9.17327 2.10642 -0.802265 0.00426427
1809 35.3701 1.57552 8.50618 1.00197 0.576648 0.587006
769 53.655 2.51505 8.98354 -0.385752 1.94327 0.20142
2622 29.2361 3.69671 8.6828 0.108142 -0.987374 0.314796
3671 59.0826 2.97049 8.92811 -1.18773 1.04384 1.214
2036 65.6247 3.06144 8.88033 0.0708879 0.0590557 1.63185
2463 3.28813 5.03283 8.5306 0.865924 0.266504 -1.25153
735 19.3201 5.17969 9.62899 1.01881 -0.732938 0.134889
1163 51.9536 6.39355 9.31809 1.06313 0.821017 0.958137
2524 28.0952 8.0293 9.73563 1.24502 -1.37887 -0.508177
2347 37.3944 7.86386 9.51554 -0.667764 0.0556415 1.22213
3208 63.8821 9.17465 8.72215 -0.200631 -0.470569 0.63799
1177 28.8829 10.6139 9.86266 -1.45396 -0.260409 -0.437742
3993 37.2671 11.077 8.51978 -0.29638 1.50382 0.199963
2544 61.5313 10.3222 8.89872 1.23639 -1.09732 -1.15486
1481 12.5402 12.7482 9.8758 0.858715 -0.302997 -1.35166
2761 23.9638 12.4666 9.40435 0.475512 -0.0364184 -2.149
42 4.84453 13.6569 8.98536 -0.395585 -0.313705 -0.105973
1780 23.0356 12.9226 9.59444 0.235021 -1.14388 1.45264
1330 64.893 13.1073 8.89189 0.630758 -1.39409 1.20237
1395 14.1363 16.2996 9.37196 0.673305 -0.197529 -0.872641
3124 66.6715 15.9785 9.20238 0.80385 1.61719 0.812911
3885 30.8537 17.6989 9.82751 0.414871 -0.163699 -0.329359
2534 58.2525 18.0688 9.87907 -1.34588 -1.07134 1.58506
1753 12.4658 20.7636 9.68261 0.188912 -0.694107 1.25178
150 8.45138 22.3035 8.56905 -0.73494 0.673122 0.0674196
3569 23.9613 24.466 8.89771 -0.587534 0.779545 0.026635
430 38.3545 25.1174 9.22873 -0.0107282 0.332424 1.40384
2244 4.21315 26.4828 9.64266 1.03095 -0.238247 -0.345185
3922 24.8568 26.4487 9.42856 -0.352246 0.594316 -0.339209
3721 64.8407 26.2168 9.51289 -0.723805 0.933496 -0.839072
936 25.5842 30.0322 8.87056 -1.48251 2.23482 0.0263941
3559 58.899 30.8967 9.59402 -0.667656 -0.60548 -0.744022
1201 64.0609 31.8033 9.57258 1.64727 0.81849 1.88986
879 64.4751 31.2132 8.64785 -0.492715 0.369125 -0.211455
3020 6.71697 33.3706 9.5008 -0.945793 -0.386459 -1.92529
1375 7.54522 34.0029 8.68711 0.652577 2.33748 0.353333
1386 38.7814 32.9415 9.57646 -1.42937 -2.82856 -1.36496
2257 49.692 33.6598 8.5072 0.449304 1.87322 0.463045
560 42.4766 35.6318 8.84402 -0.450217 0.305012 -1.00443
3111 29.7218 0.128587 11.2161 1.95759 0.412741 0.528749
2674 16.1237 2.0235 10.0143 -1.43938 -1.27018 0.170664
742 41.8946 2.72118 10.4372 -0.784901 -0.0916227 2.18208
969 19.1172 3.15343 10.1023 -1.23867 2.73021 -0.78476
12 72.238 5.10584 10.6692 -0.439496 0.841369 -0.974787
3127 19.926 5.87765 10.1325 -0.56649 0.75989 -0.905247
703 45.2345 6.71053 10.2779 0.191206 -0.0266959 0.648113
672 2.04423 7.92473 10.2612 0.0771918 -0.00921158 -0.326855
2214 22.3495 8.16657 10.5723 1.21866 0.64273 -0.284005
2852 32.4108 8.30346 10.5297 0.0944755 0.777365 0.539003
2934 65.9596 8.23766 10.7661 1.88331 -2.8179 -1.03658
236 2.94081 9.7901 10.6631 -0.444991 0.576279 1.51691
704 8.54362 9.79889 11.3181 0.88521 0.19855 0.545854
1254 34.2075 11.2277 10.442 -0.712598 1.07774 -1.09132
2243 2.6542 11.3585 10.8749 -1.21503 -0.672572 -0.244264
3184 13.2006 11.8956 10.8321 0.416117 -0.0416383 1.26356
2889 33.7219 12.0045 11.3346 2.48722 -0.736796 1.56353
3015 64.1846 11.8528 10.5212 -0.30459 -0.612566 -1.87933
1511 60.791 14.4871 10.3163 -1.21826 -0.480531 1.60619
956 12.0231 16.4836 10.9364 -0.278856 0.643062 0.082619
3696 17.6782 16.6249 10.9854 0.950152 0.750885 -0.63511
3604 61.3314 16.875 10.4155 0.269597 -1.14361 0.481438
543 30.7421 17.2361 11.1987 -0.533763 -0.297665 -1.66146
3884 18.2388 18.859 10.6501 0.429796 0.215691 -1.60329
2361 20.3269 18.4691 10.9322 -0.695782 0.765575 -0.0874936
3788 64.4458 19.2369 10.2084 0.0909848 1.22616 0.815614
1526 42.2259 20.1392 10.4027 -1.25012 -0.162415 2.27281
3808 8.24919 23.0961 9.95994 -0.257723 0.696009 -1.27498
3072 25.3335 23.9141 11.2103 -0.276237 0.0308909 -0.506942
3989 39.3683 23.8364 10.4773 0.709594 -0.807376 -1.29764
3587 59.8914 22.8302 11.2885 -0.952581 0.427315 0.721909
2712 19.2569 28.0199 10.2085 -0.778874 -0.261721 0.675414
1881 48.6344 27.466 11.1386 -0.846347 2.53144 0.0205254
1651 68.7572 28.1758 10.4135 1.43031 -1.11173 0.458304
2798 38.2604 28.8022 10.4676 0.40225 -1.20253 0.042783
3876 36.6779 32.4462 10.6313 0.603202 -0.769312 -0.969737
2081 37.6072 32.949 10.4295 -0.416875 2.38899 0.0494847
163 65.3796 32.7623 10.9832 -0.855315 0.702916 -1.61095
883 8.89141 35.0451 10.7331 0.83114 -2.36085 0.871247
718 65.8385 35.1852 11.2423 0.581872 1.40078 -0.304054
1934 29.225 35.5162 10.3506 -0.00294333 0.58092 0.288152
2439 34.6153 36.0003 10.4892 0.608893 0.051255 -0.326485
960 47.4267 35.4549 11.1476 -0.12948 -0.291877 -0.0570822
3463 69.3058 2.604 11.5352 1.04914 0.463202 -2.10189
2155 14.9457 3.70405 12.1276 0.702683 -0.764953 1.47477
913 34.253 5.10602 11.8678 0.297875 1.97447 0.608687
1897 66.4709 4.47318 11.9605 0.243395 -0.814922 -0.828929
3149 67.9072 5.57489 11.4416 0.711178 0.673556 -0.0294351
326 20.1002 7.72778 11.9033 -1.74221 0.886801 0.6408
2428 25.4509 9.47835 12.7228 0.109577 -0.444205 0.515728
1738 59.5238 9.81005 12.5029 1.13929 -0.340689 0.322164
2668 9.13723 12.2054 12.2462 -1.28306 -1.29711 -0.486795
1639 65.1116 11.5808 11.9285 -1.05602 -0.987868 -0.624648
3589 4.95383 13.7435 12.4629 0.546128 1.06306 0.0985175
2067 36.7008 13.3835 11.9912 -0.52691 -0.288273 -0.335717
1797 45.9364 13.5778 12.2391 0.299295 -0.272708 -0.956035
1928 50.9565 13.4952 11.5798 -0.675556 -0.311276 -0.355439
188 22.1788 15.4683 12.1283 -0.184862 0.129156 -1.12237
2016 64.0496 15.0751 11.6294 0.128005 -1.80636 -1.05127
420 5.20868 16.787 11.6181 0.0406098 0.273866 1.3651
2290 33.3493 15.974 12.2067 -0.330135 -1.7026 1.25751
2632 7.27896 18.3514 11.5591 0.535263 -0.938901 0.227468
36 43.0623 17.4165 12.3467 1.72598 0.16108 0.552823
1169 50.5961 18.1393 12.2718 -0.689825 1.31544 -1.36319
901 25.722 19.2202 12.2739 0.500121 -0.199315 -1.45136
2868 55.2607 19.4288 11.8078 0.885375 -1.53284 -0.0265201
2247 16.2359 21.1132 11.6449 -2.14164 0.689976 -1.01965
322 18.4175 19.8771 11.5155 -0.27461 0.78424 0.38134
1104 31.9217 20.4643 11.7446 -0.982808 1.23407 0.482084
1349 53.1336 22.9814 11.5812 -0.303608 0.543334 0.303887
3182 70.9414 23.1593 11.407 -0.0312498 -0.276969 -0.354838
196 18.9208 24.3155 12.3769 0.582146 1.58004 0.126856
3931 40.4241 24.5598 11.4854 0.309519 0.574383 -0.559295
120 25.3743 27.837 11.8296 -1.19358 -1.7088 -1.05101
3192 39.3617 27.588 12.4661 -0.544797 -0.364795 -0.583197
119 60.4536 28.6004 12.1809 0.200278 0.658259 -0.24945
535 68.4321 29.1007 12.317 -0.21183 -0.473093 -0.706122
3533 4.12188 30.6886 12.3873 -0.56321 0.620094 -0.137385
2190 31.5572 30.7207 12.5791 -0.909083 -0.581668 0.408776
288 49.3499 30.5789 12.1572 0.237926 0.984746 0.99151
968 69.4797 30.7138 11.6491 1.77383 0.932874 0.0813062
3443 28.3799 33.8874 12.4647 0.0303432 0.883181 -1.06113
3246 38.5616 32.613 11.5384 -0.156271 1.7408 -0.0331582
3647 39.0569 33.8133 12.5815 -0.980922 0.533838 0.161175
1424 29.2704 34.0118 11.7775 0.266011 1.56812 0.0995037
3389 56.1697 34.7759 12.1876 0.592709 1.78605 0.228118
441 18.3859 0.163137 13.0589 -1.10841 -1.23877 0.753675
2833 34.3176 0.714107 13.4962 0.49814 1.02897 -0.245738
790 20.6379 4.76057 13.7369 -1.32953 -0.833831 -0.819775
2921 1.84018 10.0413 13.7897 -1.09897 -1.14617 -0.146818
3752 12.8766 10.8865 13.8694 0.00966325 1.76134 -1.23173
2488 17.0162 10.7259 12.7625 -0.0430109 0.497251 -0.81085
2127 43.6119 10.2814 12.8435 0.985723 1.17797 -0.921064
379 62.4133 10.0559 13.5714 1.35335 -0.2434 0.489126
3029 29.2457 11.7158 13.8895 0.000794134 -0.361569 0.244266
1118 40.9989 14.5042 13.9597 0.511772 -1.97011 0.448264
3176 44.5546 14.4053 13.4591 -0.844572 0.315391 0.954551
1691 52.5648 14.8769 12.8435 0.743909 0.985668 0.178226
1291 25.2598 17.8654 13.9377 1.26508 -2.15312 -0.373906
3404 39.4053 18.0494 13.5307 0.187446 1.48165 -0.342049
2389 9.83426 20.1273 13.2349 -0.277048 -2.10731 0.592588
1686 11.8735 22.2749 13.9769 1.10807 1.14651 0.525577
2760 46.7537 22.3685 12.8215 -1.81249 -0.457953 0.57976
2516 14.8933 25.6311 13.7492 0.240671 -1.03313 -0.155929
2909 28.627 25.8373 13.8732 -1.05662 2.10712 1.41958
2881 32.8818 26.23 13.2082 -0.186869 -0.610582 -0.825379
154 60.1616 27.3986 13.0018 0.53318 -0.934144 2.10686
1234 45.6262 29.8796 12.9242 1.01934 0.413194 1.95037
1382 53.1862 32.1759 14.1242 -1.00926 1.28827 1.9049
2638 38.4519 33.5545 14.1122 -1.21905 0.152197 -0.0545329
2858 12.092 35.2722 12.7579 -1.50529 -1.64208 0.581258
84 17.6654 34.8303 14.0871 2.13215 -0.386195 0.63515
190 62.8408 34.4599 14.0406 -0.612497 0.160636 2.81622
2835 15.9046 36.1206 13.2553 0.465975 0.660262 -0.6879
3496 24.4767 36.5989 13.0759 -0.424404 -0.434175 -0.857072
370 27.9379 36.2744 12.7902 0.623739 -1.06015 -0.571922
3060 16.4951 1.0491 14.202 0.218322 1.85238 -0.140448
3357 52.5226 0.0271917 14.2784 0.917886 -0.130635 0.154414
1673 57.2708 0.592154 14.232 0.273209 -0.865674 -0.805147
770 67.0421 0.352256 15.3153 -1.26466 -1.35276 0.651268
482 31.1478 5.62738 15.2968 -0.456985 -0.0224572 -0.146722
268 34.8936 5.1318 14.9754 1.87787 1.03906 1.24842
2072 47.7752 4.49809 15.4278 -0.570278 -0.061103 -0.552817
3620 35.5493 7.73814 14.6443 -0.970061 1.4333 0.180243
3131 47.855 7.46539 14.9455 -1.96092 1.43526 -1.76121
3005 51.1388 8.3034 14.7698 -1.28086 -1.18581 -1.70491
3121 57.4024 7.48715 14.3646 0.176512 0.903632 0.0792526
2334 58.3911 8.48989 15.4238 -0.46295 -0.241245 0.930199
3090 63.9163 9.22745 15.3053 -1.3303 1.09433 0.171014
1408 50.8351 11.0899 14.8541 1.18304 0.353621 1.07008
2764 58.2377 9.93025 15.4736 -2.45433 -0.393706 0.418919
1278 31.8304 12.3652 15.3206 0.498485 0.972444 1.72582
3743 33.6501 12.9806 14.3955 0.604904 0.474141 -0.741819
1470 55.8485 13.9555 15.0356 1.30458 0.214993 1.6339
185 15.8273 17.4842 15.0356 1.35637 0.205051 0.193949
24 17.5937 19.566 14.9168 1.93572 0.911558 -0.284195
1427 36.1482 19.2192 14.9382 -0.711164 -0.321376 -0.105892
1878 58.3011 19.0299 15.4056 0.73929 -0.126886 0.0345073
3156 9.22161 20.409 15.2116 0.579492 -0.358164 -0.240872
308 10.4297 20.0293 14.8023 0.392493 -0.131861 -0.223565
3487 39.2493 20.7751 15.2217 1.56348 -0.134406 0.197159
1480 62.5272 19.9258 15.1741 0.093846 1.80321 0.70763
1632 9.72088 22.2329 14.9558 0.51359 0.292978 0.739382
357 46.5567 22.2894 15.5273 0.426973 -0.418836 1.19512
3836 67.9001 22.2189 15.4285 -0.945594 0.580635 -0.251402
3510 13.7218 24.229 14.6937 0.948996 2.1078 -0.448633
354 42.0218 25.465 14.9069 -0.397029 0.387974 -1.14851
3923 41.1147 24.1146 14.5881 1.08958 -0.116011 -1.94717
1587 38.1318 26.1744 14.2594 0.852621 -0.406875 0.220027
1099 73.2161 26.095 14.5298 -0.181888 -0.875127 -1.7618
1518 30.8507 28.0969 14.4427 -0.900457 0.433294 -0.113161
3653 42.7766 27.8678 15.0754 -0.275171 -1.00279 0.171883
3971 25.7427 30.8213 15.0235 -0.460795 -0.776298 -0.0898563
1361 71.6893 30.819 14.5149 -1.03975 0.0435628 -0.911403
3953 46.9627 32.116 14.4246 1.29795 -0.379937 0.301649
3229 2.45725 33.1497 14.7021 -0.197402 -0.987312 -0.049145
1677 11.7158 33.4194 14.2438 0.795037 -0.458921 -0.844098
3692 18.5489 34.0495 15.3895 0.0833285 0.61193 -0.117896
2215 31.8278 36.0079 14.2331 0.447407 -0.00661563 1.98518
2717 44.0207 36.4069 15.3539 1.47552 0.533974 -1.35796
2795 61.8736 35.526 14.2771 1.35631 -0.253543 -0.24712
2517 62.4594 35.6832 15.3087 0.0207923 0.920641 -0.20401
792 35.4119 0.134164 15.9052 0.312423 -1.37343 2.57633
2098 46.2725 2.64652 16.3098 -0.486909 -1.90553 0.245384
3544 49.7536 2.11384 16.9405 0.422781 -1.81895 1.70951
3447 52.1948 10.5475 16.9549 0.962387 0.243643 -1.48981
1815 6.24943 12.4766 16.1293 -0.396994 -0.518156 0.737949
3327 15.4368 15.3787 15.8939 1.11034 -1.66486 2.30815
3928 53.9314 15.0141 15.817 -0.920111 -0.0019844 1.91945
144 11.5059 15.8087 15.8555 0.0382274 1.12614 -1.20787
760 4.96187 18.906 15.8275 -0.346036 0.495996 -1.15032
2728 49.5321 18.7989 16.753 1.37346 -1.14538 -0.535669
87 56.1932 19.7159 16.5864 0.454025 1.24793 -0.633216
345 51.9007 20.08 16.2266 0.955905 0.925103 -0.0997718
695 21.921 22.7436 15.6375 0.153124 -1.44566 0.0803279
1204 25.701 23.2671 15.9562 0.975805 0.219076 -0.356287
1260 52.9953 23.8762 16.603 -1.45771 0.311373 0.965993
2976 32.3958 24.4819 16.2904 0.399824 0.433427 0.363133
1941 13.113 27.1158 15.6226 0.588857 -1.69436 0.346395
1042 50.4927 27.8573 16.9935 -0.704311 0.625867 -1.23085
3524 62.4755 27.5652 16.1216 -0.637001 0.509982 1.64261
3985 33.5737 29.6258 15.9454 -0.0922252 -3.73707 -1.33172
658 32.7434 30.1882 16.7926 0.0434555 0.139944 1.86485
1778 60.5749 30.0917 16.1987 -0.780791 0.350928 -1.01444
1259 8.79682 32.4017 16.8066 -0.382326 -0.378663 -1.82549
1942 55.5466 32.5376 16.9558 0.794807 2.3725 -0.618827
99 16.1782 33.291 16.7254 1.12922 -2.18817 0.822918
3759 31.7396 35.1894 16.4524 -1.00425 -0.505981 -0.667503
1235 25.3585 35.484 16.5705 0.862858 -0.0802879 -0.779057
2806 72.949 36.2487 16.6682 1.01566 0.683785 2.00332
1619 43.2873 0.240898 17.5785 -0.368854 0.406847 0.118991
2574 61.8072 0.180131 17.1072 -0.931463 0.0805651 0.632756
2134 1.06506 2.24747 18.3811 0.70714 0.881297 1.20118
390 52.8146 2.07803 17.939 1.28764 -0.29197 -1.14526
3122 67.7565 3.82562 17.7336 0.510949 0.479872 -0.0787853
2669 65.4586 5.43404 18.1586 2.21652 -0.292606 0.0988341
3627 66.7755 4.75064 17.1454 -0.388625 -0.707798 0.58386
2478 45.5491 7.12671 17.5371 1.0189 0.427226 0.680341
707 13.2656 9.33828 17.628 -0.535692 -1.4708 -1.63351
281 63.724 8.96197 17.8691 -0.393526 1.22985 -0.850502
3234 71.5041 9.17053 17.6865 -0.0645719 -1.39351 -0.53448
502 6.62587 11.3054 17.0905 0.810025 0.31034 0.615714
1777 14.7397 10.2488 17.1389 -1.79055 -0.856243 0.56149
1360 6.83263 12.687 17.9567 2.29735 0.50067 -0.728736
910 65.6116 11.5185 17.2603 -0.101094 -0.18399 -1.14928
3814 37.0661 14.6301 17.8268 0.00821044 1.2242 0.0568234
356 2.5879 15.7498 17.8299 -1.38515 0.228052 -1.85043
283 8.97969 17.5971 17.4915 0.190271 -1.46423 0.455461
329 18.347 20.7259 17.8627 0.434794 -0.0376561 -0.365841
351 68.9994 19.8513 18.4105 -1.15858 -1.50458 -0.70401
2222 5.11784 23.5336 17.1536 -0.657665 -0.319152 0.0823545
888 50.4534 23.9327 18.2839 -1.02031 -0.376904 -1.09401
2175 20.789 24.3532 17.4912 0.0425823 -0.0206044 1.48984
2918 59.7961 24.5859 17.997 0.664658 1.36664 -0.420611
2611 67.1277 24.6866 17.1476 0.102349 0.944057 1.34963
3117 44.0351 29.3654 18.2079 -1.16263 -1.44964 -0.0231063
2657 64.1982 28.5994 18.1347 0.236239 -1.55916 0.975291
3725 40.4571 31.6133 17.5324 0.896917 -0.152363 0.557596
930 33.4988 33.9089 17.5659 -0.122027 -0.531201 -0.179086
206 2.80166 34.8504 17.5508 -0.23802 -0.0381761 0.37465
609 6.34604 35.1615 17.9905 -0.502537 1.74012 0.34712
2248 44.0993 34.9455 17.7825 -2.16459 -0.4597 -1.08211
201 53.2829 36.519 18.3881 -0.284244 0.498422 -1.5287
689 53.0693 36.2189 17.1023 0.553765 -1.44723 -0.717396
1111 16.5844 0.184559 19.4903 -0.104665 0.647899 0.583535
1625 13.9942 2.32258 19.3986 0.340146 0.455352 -2.58901
1812 73.2108 2.26013 19.0336 0.210434 -0.128324 1.05678
739 18.6295 3.38332 18.5825 0.438842 -1.10527 2.66816
2003 51.5038 3.34493 19.5117 0.650822 0.434207 -0.0613875
3190 66.7478 3.0806 19.7316 2.43585 -1.11371 0.195601
133 18.8881 6.05825 19.6932 -0.348836 1.73683 -0.754617
289 37.9872 6.24921 19.5374 -0.19685 -2.06998 -0.0327603
1836 48.6412 6.55357 19.6791 -1.94694 0.22658 0.340978
3212 72.988 5.69561 18.5246 0.112714 -0.769673 0.665457
3607 0.125195 7.57251 18.8674 0.729947 -0.114437 0.419541
839 22.9783 8.36209 19.0163 -0.881968 0.537269 1.18968
2609 24.2683 8.11161 19.6371 -0.287733 0.66728 0.379718
2110 28.5219 7.34782 18.8155 -1.26436 -0.00235072 0.667463
3622 64.4788 7.67745 19.6645 -1.28623 -0.943067 -1.66001
2412 50.4579 10.19 19.4792 1.02895 -0.628841 0.505494
491 19.7581 14.1494 18.8004 -0.81439 2.07827 0.176482
2624 48.0376 12.9094 19.5624 0.35708 -0.469109 -1.88309
1503 50.6986 14.1645 18.7939 -0.429332 0.573953 0.523822
1041 17.8964 14.5505 19.2474 -1.21068 0.347582 0.644362
435 72.5535 15.3571 19.5867 -0.775715 1.63765 -2.2684
1290 51.9932 15.7334 19.7504 -2.03517 -0.264108 0.740088
2766 73.0124 15.9601 18.914 -1.22002 0.660581 -0.669849
303 15.097 17.4184 19.1315 -0.777629 -0.552548 2.00731
606 42.4641 18.6187 18.7398 1.53457 1.25176 0.968394
2063 41.5616 20.6173 19.0007 -0.0815905 -0.598569 -0.00411313
2528 38.9942 21.7194 19.483 1.04278 0.55786 0.589636
510 39.4206 21.4026 18.4904 1.13426 -0.276837 -0.587446
3747 58.7508 22.2565 18.4794 0.0978581 -0.941595 -0.362284
1333 60.3901 21.3883 18.926 -2.10776 -0.139845 -2.22954
2830 0.589573 23.7463 18.5307 -1.28446 1.16311 0.354476
446 37.6414 23.6645 19.0336 -0.0590775 -0.722017 -0.209474
2916 72.9982 23.6982 18.9452 -0.42355 0.386531 -1.64071
503 25.5499 24.1223 19.8222 -1.34788 0.910268 0.883716
3320 33.8403 24.5739 18.9781 0.169908 1.0587 -1.27891
1292 61.5333 24.8484 19.7582 0.677393 -0.791098 -1.23986
1759 54.5647 26.6967 19.5565 1.22416 -0.232087 -0.665691