ITEM: TIMESTEP
67000
ITEM: NUMBER OF ATOMS
4000
ITEM: BOX BOUNDS pp pp pp
0.0000000000000000e+00 7.3680629972807722e+01
0.0000000000000000e+00 7.3680629972807722e+01
0.0000000000000000e+00 7.3680629972807722e+01
ITEM: ATOMS id x y z vx vy vz
2955 4.31278 1.25166 0.539954 1.63036 0.465498 1.22332
1440 54.2003 0.57776 1.07209 -0.986236 0.389282 -0.563175
178 61.337 0.462671 1.0698 -1.03496 -1.36499 -0.302935
3246 45.3115 2.15705 0.942316 1.46902 1.05953 -0.0576781
1599 8.5618 2.93177 0.41019 -0.260572 0.450165 -0.269738
1688 12.0671 2.85697 0.691038 0.446451 0.870208 -0.121361
263 64.4015 3.44562 0.39426 0.48749 -1.87079 0.961457
3927 3.36402 5.42531 0.194211 -0.763167 -0.120723 0.144044
598 36.0439 6.87591 0.729474 -0.378007 0.676558 0.32487
659 72.6161 6.02767 0.449277 -0.940016 0.36573 -1.66426
283 23.1216 7.25598 0.755237 0.951246 -0.024732 -1.64175
2730 29.8484 9.5717 0.978017 -0.344719 -0.851632 1.01335
1555 46.0926 9.39284 0.244785 2.02008 -0.806212 -0.602606
3307 68.6841 8.5679 1.05367 0.850007 -0.488749 3.23841
2218 54.9463 12.6633 1.41663 0.60215 -0.765984 1.94054
894 3.30046 13.2205 0.777221 -0.415646 -0.0220899 -0.992765
648 28.2371 12.9756 0.0613748 0.557168 -0.382376 0.298126
2208 5.75098 15.1563 0.719518 0.15321 0.210313 1.35454
943 29.6325 15.9389 0.675939 0.466077 -0.760569 1.83782
713 43.0317 16.0834 0.765533 0.161881 -0.409779 1.99911
3805 52.2394 16.9914 0.5739 -0.18564 0.253569 -0.23309
2683 31.1652 18.5413 0.18846 1.26601 -0.159876 -1.26259
1554 50.0361 18.481 0.222716 -0.803479 -0.0755473 -0.539394
1133 55.1264 19.2526 1.10267 -0.364118 0.075722 -1.42629
3353 12.4634 20.9617 0.968929 -1.01307 -1.41508 -0.423356
2681 22.5722 20.7745 1.09407 -0.742695 0.390355 -0.909695
2661 0.070422 22.5358 1.34651 0.221543 0.213862 -0.926232
408 41.0067 21.3991 0.375404 1.65229 -1.66974 0.484931
2944 31.0977 23.1279 0.45915 -0.529493 -1.59083 -0.538977
3272 57.8695 22.8763 0.101257 0.977107 -2.04341 -0.200375
3238 65.3024 23.0604 0.170219 -0.55492 0.108272 0.966626
3879 65.7509 24.2811 0.416911 0.538957 -0.291924 0.171543
235 34.1133 26.4635 1.2006 2.26099 -0.894896 -1.45838
2188 41.2509 25.5468 1.26458 0.181034 -0.791037 0.745814
2281 66.8423 26.2943 0.479294 1.84085 0.431087 -1.00962
2247 55.1502 27.5852 1.38711 0.0961558 0.658392 -1.1429
196 28.3137 29.5709 0.841739 0.834467 -1.29053 -0.346302
3749 67.1666 28.7227 1.0567 -0.175373 -0.452395 -0.82338
3480 15.0153 29.814 1.28854 0.529277 -1.02038 -0.724549
2026 27.442 30.3503 0.521269 -1.56816 -0.203351 0.316616
634 7.26909 31.7195 0.973547 1.19532 -0.929406 -1.94476
3492 33.9555 32.5548 0.24815 -0.982519 0.195076 0.302202
2527 57.4615 33.1935 1.35634 -0.989573 -0.391909 0.231407
3432 66.8086 33.7453 1.0463 -1.08358 0.970681 -0.557082
422 71.8511 33.6102 0.860706 0.783597 -1.19726 2.32894
2595 10.9838 34.4539 1.24722 0.562625 -0.632739 1.6041
982 13.7533 36.6717 1.03696 -0.869729 1.48467 -0.794609
1196 20.2579 36.5673 0.44289 -2.05119 0.371935 -0.462818
115 46.4951 36.3445 0.877103 -1.05145 0.383724 0.979438
1454 53.0399 36.7553 1.20396 0.860628 0.349842 0.090357
3236 23.6381 2.74375 1.69225 1.52326 1.20049 -0.435095
1635 48.8352 2.04701 2.74837 -0.663434 -0.559786 -1.58843
1878 36.1477 5.53413 2.18452 0.0160716 -0.145999 2.34317
1288 69.1169 4.69944 2.60268 -1.33421 -0.458273 0.0255508
2298 19.7011 5.90025 2.10711 0.173163 0.033818 1.12436
1223 63.3634 6.31803 2.73314 -1.82455 0.808166 1.546
1739 13.6524 8.2098 1.57978 -0.973354 0.37789 0.1946
3693 61.4453 7.39713 2.71643 0.417494 0.523593 -3.10418
304 71.7897 9.45865 1.67888 1.87488 0.119797 0.0516835
2036 0.226642 10.1473 2.29543 -1.93492 -0.107812 -0.671209
2391 12.7589 10.9726 1.47534 -1.57796 -0.574843 -1.27585
1312 24.5074 10.9807 2.54932 -0.711131 -0.48879 -0.375635
2801 27.4813 10.9226 1.92659 0.61163 -0.717249 0.66763
2008 44.649 10.0633 2.4591 -0.576373 -0.277042 0.0143232
3816 37.6746 12.5355 1.70259 -1.90074 1.26648 0.373416
1195 28.6043 13.5854 2.51629 -0.382659 -0.20047 1.2631
217 68.0704 12.9827 1.99409 1.16513 -0.55234 -2.85153
1692 2.92654 16.9971 2.73022 0.224113 0.756362 0.279337
3382 48.3535 16.1686 2.75843 0.53761 0.368916 1.64079
1735 54.4404 16.3552 1.77027 -0.866168 0.897089 0.775103
1229 28.9885 18.1015 2.37464 0.388934 -0.701268 -0.374235
1062 30.1843 17.5108 2.63064 -0.198215 1.27163 -1.19522
1756 65.6839 17.223 2.5013 -0.280563 0.40753 1.22424
3125 15.1062 19.5888 2.74575 -0.127962 0.363813 0.581255
3589 23.8571 21.0248 2.61443 0.425579 -0.235264 1.08029
3767 8.6608 22.4236 1.57967 0.566195 -1.31433 0.00452441
2258 25.3978 22.4298 1.53883 -0.393132 0.751207 -0.036414
3113 37.2542 24.6605 2.01241 -0.00957896 -0.957134 0.177965
2070 44.5968 25.1744 2.80969 0.0547238 0.884606 -0.563046
1138 22.4689 26.7779 1.54046 -0.896867 0.415065 -0.834406
2421 16.2698 27.8751 2.76879 1.54784 0.137532 0.0897844
1945 53.6754 28.041 2.24131 -0.277432 0.576276 -0.112292
1471 15.3951 31.5475 1.46954 -0.592708 0.750831 0.879351
2962 20.7845 33.5291 2.44001 0.0971646 -1.32363 0.0520918
2474 43.8025 33.6512 1.4787 -1.5148 0.121312 0.846403
2637 54.7141 34.5445 2.66461 -0.755963 0.596243 -0.586715
3819 21.0157 0.470812 3.9013 -0.210681 0.50675 0.387644
3961 37.327 1.69184 4.0374 0.690654 -1.02895 0.737555
1426 47.7544 3.63625 3.46915 -2.18229 1.10756 -0.415798
3850 57.0638 3.47159 2.91244 0.699413 -0.372372 0.588263
1896 68.9729 3.07649 4.22601 0.439505 0.740846 -0.432372
2650 3.56546 5.21101 2.85651 -1.24257 -1.59581 -0.68034
3536 11.2584 5.57467 3.13406 -1.22231 1.1974 0.548963
2680 56.5393 5.91945 3.61773 1.31718 0.76791 1.55445
2353 64.5104 6.23996 3.30581 0.169561 0.0948942 0.580273
1032 41.0211 8.08145 3.45861 0.575902 -1.48666 1.16874
619 40.21 13.1964 3.824 0.0391664 -1.18682 -0.4377
995 44.4665 13.2346 3.13269 -0.845247 0.901989 -1.1982
3622 0.879315 14.6964 3.03835 0.0899567 -0.247406 -1.22728
430 17.1929 14.3039 3.15906 -0.157352 -0.326346 -1.1075
1225 20.606 15.2432 2.85353 0.720498 0.801361 0.252583
1499 28.8353 14.5428 4.13027 -0.0777988 0.0725322 2.29023
2748 64.5099 15.51 4.09511 -0.551022 1.18484 0.0208378
535 0.101273 16.7303 3.49051 0.094226 -0.528271 -0.978594
1061 61.5479 16.1775 3.17192 -0.862721 0.421263 -0.639579
1395 4.17046 17.5247 3.08865 -1.12889 -0.220227 -0.00943484
176 29.0524 17.8111 3.83008 -0.330043 0.871093 -0.534744
2563 21.7372 19.8215 3.15503 0.174369 0.915372 1.11982
1096 34.1668 18.825 3.52322 -0.889811 -0.927874 0.91574
2811 22.7004 20.2664 2.98366 1.16545 -0.421386 0.906495
2086 30.8404 23.7832 3.04821 -0.6058 2.43313 0.351814
544 24.0976 24.4202 3.54706 2.52423 0.124357 -0.0850127
14 33.1771 25.2785 2.90122 -0.722085 -0.437246 -1.19948
162 67.0933 25.3938 3.17954 -0.223534 0.139031 0.913144
2720 71.2801 24.2724 3.86785 -0.0662921 -1.46789 -1.68365
2659 61.5393 27.0023 3.87779 -1.06298 2.72574 -0.389905
775 3.9906 29.2169 3.23769 -0.472095 -2.38104 0.747386
3345 23.8298 29.062 3.64262 0.49724 1.19803 0.331248
305 36.5484 29.3579 4.18685 -0.306804 0.159056 0.575036
1266 60.9707 29.3153 2.84911 -0.738054 0.505048 -0.221761
1126 64.567 31.0704 2.86186 -0.329386 -0.876006 0.0790257
2899 31.2555 31.5906 3.27218 0.435223 -0.5474 0.91159
1179 20.79 33.9992 3.42898 2.05497 -1.24947 -0.267955
3838 41.195 33.0389 3.89816 0.145736 0.66981 0.731482
2603 12.2068 34.0874 3.60078 -0.402536 0.10146 1.9759
1882 32.6421 34.6911 3.75859 1.68293 0.229609 1.3876
3325 57.8513 35.8315 4.0613 0.315694 -0.286511 -0.0180405
52 61.6297 36.5354 2.8389 0.883257 -0.684032 0.60936
108 38.0419 1.13509 5.46995 -0.784727 0.422814 -1.44169
3820 44.6819 1.18721 4.25179 -0.0893969 1.16123 -0.978442
1879 19.2077 1.45929 4.8846 1.45004 0.766905 -0.634988
2631 9.32 4.04276 4.9551 -0.148457 -0.511849 -1.23757
2789 23.9602 5.1888 4.83687 -0.187166 -0.391349 -0.946658
3301 6.34628 6.45815 4.52697 -1.22138 -1.07296 -0.445167
3200 29.9702 6.78438 4.79551 -0.0237043 -0.431756 0.0964048
1890 36.9903 6.47684 4.77713 -1.06118 -1.54743 -0.619698
3445 42.4238 5.84422 5.52265 1.32257 -0.598122 -0.134851
666 52.0214 8.47397 4.45774 1.96848 0.448655 -1.44556
144 31.2033 9.70697 4.86843 -0.67622 0.0105972 -0.981234
3434 49.197 9.48868 4.97361 -0.463652 1.38396 0.109167
2118 24.6344 10.5254 4.76155 0.925754 0.268806 1.5831
1481 58.8632 11.3593 5.14902 -2.50422 -0.0515354 1.58301
1649 4.975 13.5618 5.11027 1.16047 -1.33272 0.57649
317 2.99881 15.7346 4.43631 2.3999 -0.258606 0.336427
2135 36.2435 16.6988 4.32064 -0.357315 -1.77963 -0.655618
1456 49.0497 19.5568 4.29458 0.923349 0.537284 0.366046
2190 71.249 20.9422 5.1164 -0.50347 0.78106 -0.0545053
3027 16.3429 22.5162 4.89232 -0.146614 0.567402 -1.02259
2048 11.7079 24.3574 5.03776 -0.568988 -0.769977 0.749355
1482 24.863 24.9201 5.53314 -0.55204 0.708155 -0.73299
942 43.8249 25.037 5.31315 0.870418 -0.178993 -0.982807
2094 62.6079 24.5779 5.47623 -0.271359 -0.435222 -0.107651
3534 14.0362 25.8103 5.57657 0.531567 0.927343 2.53488
3917 63.6047 26.8143 5.54004 -0.749922 -0.215618 2.03193
48 43.135 29.0055 5.29692 -0.644227 -0.904246 -0.0272043
3270 50.7609 28.5019 5.13489 0.441565 0.553049 -2.4668
3276 60.3751 29.7317 4.55241 -0.340678 -0.946985 -0.471185
2496 70.3182 29.1996 5.20609 -1.26842 -0.776323 -0.563947
3082 24.3491 31.1066 5.11338 -0.0350839 -0.290372 -0.514753
3905 24.6178 30.33 4.39844 0.651952 -0.365823 0.358514
2986 3.54763 32.4961 4.94856 0.261427 0.467354 -0.844803
809 7.15318 31.2505 5.27619 -0.570811 -0.312529 0.899184
723 14.2177 31.3404 4.86499 0.164956 1.90551 0.0319148
780 42.546 31.386 4.74897 -0.76187 2.44874 0.0211812
216 4.33556 33.7112 5.41339 -1.87637 -1.93526 1.49418
3807 20.5086 32.6121 4.59082 -0.83907 1.15704 1.08531
1621 22.9171 33.9112 5.50254 -1.46931 -0.219125 0.462494
3504 26.865 33.2374 4.78917 0.459069 0.298253 -0.831411
958 61.585 33.4495 5.34127 -2.42744 0.0664593 0.964295
681 64.5786 33.9546 4.81104 0.813544 0.602162 -0.96263
1729 12.6418 34.0921 4.66127 1.13588 -0.778321 -0.55494
206 3.79156 2.67913 6.09075 -0.410669 -0.648107 -1.26478
57 18.7996 1.68172 6.4919 -1.38101 1.08715 -0.583058
1587 6.72307 3.10436 6.73981 -0.256946 0.475506 -1.55236
1063 40.3284 4.06152 6.02343 0.338078 -0.818775 -0.323691
2662 57.2887 4.10447 6.48688 -0.656445 -0.51688 -0.330947
2646 2.13541 7.72004 6.0669 0.413809 -0.562125 -0.647943
3501 55.9427 7.67027 7.03939 0.933627 -0.0160547 0.937749
672 62.5093 9.44153 5.79958 -0.708961 0.383646 0.377595
716 5.71631 11.0928 6.77055 1.29369 -0.854234 0.88709
3894 9.52161 14.1656 6.59706 -1.5323 1.27045 -1.44291
36 27.6708 13.0308 6.48882 -0.0488796 0.157601 1.66474
1405 61.1589 13.4596 6.64602 -0.0884324 0.84368 1.25266
3552 33.0514 14.7357 6.89097 1.62028 2.57037 1.67618
311 41.671 14.4531 5.76656 -1.59105 1.10426 -0.355489
548 42.8619 14.7462 6.71487 1.17602 1.60496 0.884382
1125 52.0342 14.2409 6.03675 0.574791 1.58801 -0.82782
1535 70.6702 15.293 6.56865 -0.452546 0.248464 -2.27413
1557 2.36468 16.5076 6.45569 0.170326 -0.184013 -0.917707
271 47.9429 15.7165 5.92235 -0.495056 1.58267 0.0480013
3586 47.7231 16.4975 6.55754 -1.28934 -1.74724 -1.27812
945 4.06403 17.5874 6.98434 0.444889 1.15248 -0.145946
2361 37.8031 17.9593 6.96025 0.473448 -0.815301 0.498523
2373 2.27658 19.1257 6.95565 -1.01357 -0.631326 -0.0878424
2331 1.48809 20.6358 6.05453 1.04503 0.457149 2.09323
2446 38.7897 19.9238 6.86209 -0.406628 -0.204277 -0.570712
2960 71.8541 19.894 6.49363 -0.824997 0.142117 0.619987
1023 23.6394 22.5806 6.88774 -1.71557 0.133859 0.0912084
2344 52.776 22.4804 6.25429 0.477452 0.614473 0.614126
3771 40.1887 22.7301 6.1855 0.0392122 0.0390174 -1.40937
3094 67.8778 23.2481 5.76025 0.99637 -0.597063 -0.331256
3447 15.2439 24.3733 6.79735 0.211328 -0.939813 -1.25271
2997 29.9474 25.3675 6.98207 0.0775127 -2.12435 0.220208
2301 49.4333 26.7995 6.57769 1.68855 -1.1255 -0.025233
3809 58.467 26.5544 6.37091 -0.0701606 -1.15703 -0.399067
1828 54.1644 29.4666 6.04585 -1.53728 1.66139 0.421174
1561 63.3903 28.4255 5.91695 -0.240221 1.80355 -0.450829
3327 68.5426 28.421 6.94211 1.34084 -0.569978 -0.0679938
84 43.593 30.6396 5.891 -0.825394 -1.43712 1.33112
89 45.0355 29.9738 6.00778 -2.22107 1.0364 0.967423
158 21.2925 31.4538 5.70911 -0.871196 -0.269489 -0.568249
2233 0.0426262 36.3555 7.01277 0.666362 -0.11447 -0.44741
1327 10.7116 36.2682 6.54284 -2.29649 -0.0798184 -0.0687418
3506 19.5265 0.986013 7.56578 -2.0056 0.115165 -0.337395
1698 39.3412 2.1713 8.14826 0.100019 0.200097 2.20901
3116 55.8798 1.87831 7.15317 0.63332 0.639378 0.321316
315 30.5255 4.00204 7.92992 0.174211 -1.13559 -0.0681688
1236 32.1885 4.19253 7.95488 0.762958 0.280643 0.587066
3806 65.9191 3.98702 7.34499 1.87222 -0.584182 -0.469046
832 49.6311 4.34956 8.3346 -0.322821 -0.542928 0.0943453
187 2.10633 6.93692 7.32579 -0.404517 1.12707 0.0405806
831 20.464 6.24822 7.90439 -0.119385 0.117487 0.428889
1733 22.5217 6.90616 8.34147 -1.65174 0.042211 -0.285776
1310 64.2485 6.37909 8.0436 -1.62543 -0.669657 0.408832
3537 72.2311 6.59063 8.14218 -0.622569 0.394583 1.09989
1893 45.7355 8.29723 7.11509 0.76211 -1.3187 0.462515
2246 54.8816 7.77167 7.27437 -0.977352 2.23989 -0.414309
32 29.8062 9.37231 8.25725 -1.03712 -0.209463 0.0301041
3468 33.1311 9.81889 7.98877 -0.690728 -1.38802 -0.562607
688 33.6878 8.97571 7.5023 1.62656 -0.436846 0.637724
3952 48.4888 9.29124 7.63778 0.823488 -0.702327 0.816269
3207 59.7178 8.70077 7.18974 -1.3967 -0.454408 0.42269
2325 16.577 9.91983 8.44112 0.273167 0.807657 -0.486881
1566 17.6543 10.9395 8.44199 -2.37447 -0.417516 0.133512
826 17.9278 10.1867 7.74826 -1.06278 0.284294 -0.632147
1301 19.941 9.98356 7.14116 -0.348181 -1.13316 -1.22438
1029 50.5261 11.0854 7.54143 0.171518 0.300232 0.403287
3941 44.3725 12.6437 7.50386 -0.412623 -0.440231 1.31139
606 51.8774 13.0033 7.81226 -0.697916 0.25874 -0.404102
3981 70.7053 13.268 7.60479 -0.342498 -0.881256 0.143866
3493 58.9299 15.0003 7.28376 1.98338 0.325792 0.463205
1911 44.143 20.6438 7.16235 1.00189 0.0162349 0.271135
3412 64.3749 21.9735 7.21343 0.575424 -0.400298 0.711333
441 65.9031 22.2907 7.15418 -0.0848571 0.768393 0.0817605
3361 66.3404 21.2917 8.31135 -0.155864 -0.265295 0.47181
3746 40.9304 25.7265 7.3743 -2.48132 -0.788718 0.331024
12 58.6796 26.8272 7.7402 -0.152577 -1.5055 0.648242
1801 7.98113 27.6407 7.62955 0.0323859 0.315803 -0.633635
724 2.58702 29.6253 7.85765 0.801626 0.0361766 -2.68845
168 47.3516 29.7303 7.63775 -0.699331 0.486215 0.625248
1193 9.91535 30.7749 7.71735 -1.4708 1.69063 -0.158044
2609 23.9276 30.5127 7.33491 1.22641 0.053865 -1.07104
2598 2.29968 32.2021 8.40173 0.0142661 -0.920796 0.265519
2495 10.5415 31.6358 7.84624 0.251568 -0.616488 -0.330342
1077 70.4392 32.236 8.46585 -0.803188 0.0434216 0.336014
789 20.3416 32.7292 7.88749 1.2619 0.481828 0.904334
3180 22.0194 32.9475 8.06456 -1.48621 0.0327877 -0.574667
2885 45.8355 33.2549 7.21188 0.0906481 1.1776 -0.177093
3247 54.8807 34.2643 7.22531 2.71452 1.29483 0.448761
103 59.8249 35.3078 8.00344 1.08121 -0.739269 0.0309373
1058 26.0886 36.4994 7.93378 -0.0950459 -0.647023 0.379622
1771 58.4526 35.9648 7.47092 1.49943 0.256614 1.14132
1586 8.83782 1.22043 9.90134 -0.500906 1.02515 -2.05168
1676 0.544439 3.68621 9.84974 1.30202 -1.27634 0.10105
2813 12.0003 3.59968 9.68562 2.08326 0.620321 1.39737
2308 67.8386 4.90559 8.97503 0.6583 1.07436 2.67114
143 7.67059 5.82953 9.87533 -2.04197 0.541397 -0.199643
1152 21.1365 5.84439 8.51698 -0.420166 0.583481 -1.9319
1835 5.71668 7.54757 8.67445 -0.723423 0.160364 1.02343
2067 43.9096 7.4982 9.88246 0.68781 -1.49395 -0.889248
3689 21.23 9.41199 9.17982 -1.16927 0.341614 -2.01569
434 37.2772 8.82872 8.90291 0.846474 -0.6715 -0.941272
2842 54.0344 8.72487 9.52422 -0.43477 -0.671228 1.79152
1319 38.484 10.5796 8.5111 -0.242744 1.02346 1.6468
3365 25.1768 13.6008 8.53658 -0.276998 -0.623201 0.342351
225 60.2806 12.9194 9.09776 -0.953188 0.488923 0.335549
1597 13.8168 15.5002 9.61061 -0.559416 0.763616 0.516526
1170 22.5458 14.7035 9.15975 0.969057 1.04229 -0.556227
1202 29.1164 16.129 9.69038 -1.56393 0.470609 1.8773
2077 40.6561 16.3654 9.63586 0.0869002 1.28579 -0.501187
299 28.8186 20.0562 9.29979 0.392307 0.594011 -0.17729
542 37.4502 20.2935 9.73241 -1.02726 -0.88611 -1.36097
2458 69.5597 20.5448 8.90934 0.048663 0.193798 0.640006
3968 2.0216 23.42 9.18417 -1.46128 -1.70291 -0.0142682
3890 8.18764 24.5751 9.46706 0.134144 0.000704704 -0.180539
706 15.6298 24.4367 8.9765 0.975302 0.928 0.201993
2868 5.95391 26.2505 8.79162 0.869678 -0.659211 -0.0790796
1787 7.36178 26.2026 8.96552 2.35301 0.0899566 0.69879
199 34.5113 27.8529 9.85911 0.322291 -0.802386 0.404468
202 39.1476 27.3299 9.34562 0.862885 -0.105316 0.17579
947 54.8947 29.4842 9.11855 0.0514306 0.394108 -0.387181
3876 49.915 30.0651 9.67744 -0.818079 0.128327 1.38892
3530 51.118 30.4141 9.388 0.690171 -1.3016 -0.354215
543 59.8642 30.7402 8.62849 -0.922751 0.295788 0.432042
3786 5.1555 34.8245 9.79435 -0.19103 0.734884 1.49725
1666 28.8276 35.9826 9.3862 -1.84352 -0.598172 0.121495
2754 57.1112 0.812614 10.7312 -1.00404 -1.08834 0.920222
1984 41.6525 1.94017 10.9958 0.279212 0.412674 1.16329
2585 50.4127 3.68145 10.3666 0.320705 -0.109795 0.305687
3021 14.2084 4.3822 9.93738 -0.487276 -0.603327 -0.465833
2724 27.0178 4.46814 10.5446 -0.154768 -0.666469 -0.896454
1581 29.2196 7.38259 10.5968 -0.980851 0.510541 -0.884941
1457 54.0824 7.89583 10.2528 -0.0714617 0.956741 -0.69234
125 67.4726 8.08116 10.1088 -1.04929 1.27247 0.233458
444 13.1676 9.01926 10.4841 -0.531152 -0.363941 -0.204378
1362 22.3015 12.0233 10.8862 -0.672492 1.72668 0.673743
3929 13.1012 13.9137 10.6432 -0.189785 1.70807 -1.23641
2182 30.6828 13.7782 10.1818 -0.0261325 0.165811 -0.737386
822 28.814 16.6708 10.6274 -0.176941 -0.198732 0.621133
2127 32.5005 16.7399 10.1351 -1.34489 1.63137 -1.57313
201 42.6088 15.6508 11.2479 0.172065 1.04215 1.0934
3964 43.096 16.4745 10.5878 0.764978 1.63287 -0.747062
1303 37.7351 17.9333 10.1113 -1.03505 -0.929165 0.117823
1417 25.2091 19.1054 10.4134 -0.626885 1.03042 1.48783
2251 48.5407 20.2132 10.0231 0.835897 0.87957 0.82607
1099 61.6185 20.3422 10.4915 -0.536771 -0.0968748 2.00574
2705 71.3378 21.164 10.3354 -0.190128 0.0433213 -0.901939
3688 12.9866 21.7519 11.2666 -1.63672 -1.73636 -1.70915
1933 47.2324 23.6261 10.7174 -0.793372 0.929619 0.259183
2374 71.7706 23.0989 10.2913 1.14901 1.86893 -2.01139
303 46.9666 24.7907 10.3263 -0.431418 0.269358 -1.43773
1608 67.3609 25.3057 11.0733 2.25702 0.592387 0.48641
482 28.5009 26.3264 11.1969 0.0419357 0.192279 -0.154724
2772 41.7657 25.9963 11.2256 -0.276174 0.232208 -0.186337
3363 41.2266 26.4904 10.465 0.340302 0.916556 -2.73052
1646 51.2224 29.4438 10.0836 0.822707 -1.35422 -0.0444965
2371 8.07954 30.7832 10.2878 0.216759 0.0722799 0.20469
2305 69.2466 31.8038 11.1328 -0.206526 0.636828 -0.348275
3709 6.20914 34.4192 10.3972 1.18757 0.297081 0.106246
1163 66.8343 36.0986 10.575 -0.832932 0.657315 -2.39908
1073 5.0218 2.5811 12.5881 -1.02721 -0.955022 -0.822646
1637 30.1866 2.62563 12.7225 1.33375 1.86503 -0.769439
335 41.7562 2.79274 12.2772 -3.19119 0.318326 -0.673826
2420 48.0966 2.16146 11.9274 2.31137 -0.740579 -0.742334
3966 35.1007 4.03025 11.9127 1.13904 0.0285202 0.66471
3695 44.2325 4.25061 12.1054 0.807527 -0.374352 -1.01022
1083 63.0089 3.30925 12.542 1.0271 -0.501121 -0.756173
2121 44.2283 6.72605 12.6625 1.40605 -0.232499 -0.752093
3160 66.5476 7.48109 11.7164 0.448369 -1.11749 -0.583922
3551 37.3546 14.0867 12.3589 -0.69677 -0.413395 -0.374664
42 56.2613 12.8696 12.5427 -1.33074 0.496675 0.523726
1267 19.3464 15.3096 11.3894 -0.600699 0.719901 0.820291
1340 48.958 18.2763 12.2236 0.451238 -0.238122 1.28772
2437 19.6222 18.8832 12.6536 2.31156 0.613578 -0.0907767
1369 20.8364 19.1931 12.5505 0.645967 0.788264 -0.43036
576 52.894 18.4781 12.4129 -0.420436 0.303342 0.406586
2621 46.0824 21.1619 12.6899 -1.38566 -0.577462 0.519634
1628 29.5721 21.6837 12.5536 0.458007 -0.0179924 -0.11355
3350 32.4435 22.2723 12.5614 0.91994 0.277584 -0.0354981
2588 39.9842 22.6271 12.0213 0.60423 -0.0432486 1.4723
2572 59.8153 22.561 11.4479 0.164462 -0.695264 0.0577109
2640 8.64726 23.316 11.4329 -0.033516 -0.123979 -1.96495
2543 71.4092 23.4442 12.5626 0.135722 1.22337 0.150731
287 35.0438 24.8819 12.27 1.29145 0.686458 1.55622
3436 55.4153 26.7453 12.2294 -0.668087 -0.280893 0.213461
2249 45.59 27.7705 12.633 -1.3179 1.86787 0.98958
1153 54.4997 27.4715 11.5355 -0.483953 -0.196039 -0.104866
2333 44.3642 29.4077 11.9083 -1.65343 -0.388372 0.0121316
3156 18.4647 30.5667 12.3022 0.942217 0.220333 -1.74252
2241 52.39 31.1145 12.7382 0.0572559 0.170591 0.730882
836 8.70256 32.4616 12.1668 3.17976 0.726958 1.48803
2678 64.777 32.3887 12.6502 0.253669 -0.138711 -0.953251
1349 11.0276 32.7375 11.9012 -1.02641 -0.502899 -0.892715
853 33.6953 33.3522 12.3538 2.66071 -0.471793 0.285442
383 33.3718 33.9574 11.5629 1.45953 -0.322574 1.32482
3443 68.4245 33.6988 11.716 -0.444125 0.363745 1.04924
2088 68.9726 34.641 11.5779 0.90431 1.63712 0.283234
3672 70.2643 34.5628 11.4758 -2.46324 0.47491 -0.175804
2085 38.1341 36.3846 11.5135 0.293165 -1.38336 0.887657
76 30.6964 0.912645 13.7374 1.11782 -0.680377 -0.317581
1569 62.3345 1.18688 12.8734 0.177861 1.81656 -0.416369
1706 70.4133 0.422641 13.0978 -1.07703 0.94583 0.814058
3523 51.7018 2.3258 12.7774 -1.14064 0.112958 0.860229
972 60.0581 2.22708 13.3419 -0.238602 1.15922 0.346566
153 66.9826 5.46245 13.0389 0.660365 0.986036 -0.953527
56 5.04847 8.0519 12.8992 0.0104445 0.123151 0.286042
314 44.4424 8.41695 13.8944 -1.32566 -0.361328 1.38038
574 65.9114 9.58036 13.0112 -0.756276 -0.440142 -0.408146
1839 69.651 9.09749 13.7574 -1.18278 0.0552305 -1.79762
1183 0.529265 12.2314 13.659 -0.701265 0.256134 1.0215
3220 33.8135 12.3345 13.3821 -2.23392 0.99936 1.09244
627 45.708 11.8933 13.7612 -0.814776 -0.181389 0.635808
575 34.8455 13.5527 13.624 -0.323147 0.831963 0.592816
3902 37.5522 14.369 13.5095 -0.777141 -0.496825 1.29192
222 61.7709 14.5228 13.5748 -0.414678 -1.49455 0.967749
3317 53.334 16.8294 12.785 -1.16836 -0.178822 1.18581
2570 59.102 15.9132 13.5395 0.943722 -1.5777 -1.30417
3149 21.1096 18.1762 13.7391 -0.630933 0.319478 -1.85459
3030 27.3363 17.3944 13.0942 1.10701 -1.16626 0.852281
3231 48.7096 17.5156 13.4042 0.0554462 1.39153 -0.353838
635 60.9534 17.2011 12.8447 1.9686 -0.527408 0.670782
3359 68.9327 17.6578 13.1488 0.541585 -1.9042 -0.287206
1657 72.9064 19.3354 13.7771 0.128584 0.47612 0.0163631
249 26.497 20.9592 13.8193 -0.305287 -0.55502 0.446713
1680 36.7586 20.6187 13.8511 1.36696 -0.838837 -1.53564
522 27.3473 22.4032 12.7736 -0.0895427 1.99643 0.676909
238 41.5113 23.4458 14.1598 -0.0559603 -0.2531 -0.521673
1862 55.6575 23.7657 13.7463 -0.130469 0.454054 0.402296
3900 58.1653 22.9356 13.045 -0.76986 0.701985 0.944442
2785 41.5531 24.555 13.6935 -0.479826 1.11316 0.802705
402 44.2809 24.2476 13.2023 0.37843 -1.15795 1.32753
2031 66.102 25.3836 13.9638 1.41592 0.27209 0.937353
1035 14.6521 26.3437 13.4175 0.0299772 -1.05473 -1.66722
800 50.0481 26.4478 13.439 -0.882484 -0.549019 -1.92313
3540 34.7832 27.5497 12.9007 -0.621224 1.05341 0.621004
2000 60.3369 26.9542 13.801 -2.12608 0.703417 -1.97876
950 63.7063 27.2542 13.3695 0.34331 0.217389 -0.148423
873 13.4004 30.4353 13.1868 -1.20753 0.604377 0.369584
3356 30.212 29.9262 13.7277 -0.0751118 -2.05318 1.21418
3360 14.5885 32.2324 12.8798 0.613407 0.347115 1.15544
3592 5.83427 35.9297 13.1466 0.659431 -1.64656 0.381915
2758 35.9087 35.6815 13.9629 -0.01814 -0.848335 0.051933
2911 42.1413 35.4376 13.6312 -0.989045 0.649832 0.673832
1106 65.4958 36.5947 13.155 0.10116 0.0960364 -0.063486
3943 45.5933 0.35564 14.3888 -0.145988 -2.113 -2.58335
1135 62.9104 0.867618 14.4955 -0.885849 -0.648271 -1.12922
2040 33.8629 1.82537 14.517 -2.26424 0.520259 -0.571063
3118 59.7828 2.327 14.4247 0.354627 -0.991889 -1.38338
2307 36.548 2.85277 14.482 -1.40164 -0.0454461 0.761599
2821 37.2273 3.4074 15.4134 0.349835 1.7478 -0.459624
3717 41.7925 4.73475 14.1944 -0.298493 -1.2309 1.43755
3708 11.8237 6.67219 14.4482 -0.712099 -1.03821 0.901775
768 18.353 6.67789 15.432 1.06456 -0.258869 1.40431
2723 28.674 6.78514 15.0382 -1.6161 -0.298559 -1.54355
2907 12.4616 7.20104 15.1112 0.174718 1.05556 1.23385
1609 64.4575 8.07306 14.8106 0.80553 1.01797 0.483411
3714 69.2869 7.56371 15.5455 -0.62895 0.876518 0.338328
364 20.8142 8.97254 14.7922 -2.24387 0.328224 -0.114112
2803 24.8643 10.3456 14.8612 0.528115 0.27789 1.08533
3565 36.7834 10.5543 14.4198 -0.192975 2.63652 1.86249
2006 20.5111 13.1208 14.9664 -2.60702 1.01034 -1.0096
1883 46.6731 13.2868 14.6274 -0.822851 0.378834 -0.15758
1780 1.29189 15.4116 14.5459 -0.302076 -0.449062 0.194841
2791 46.2674 17.09 14.7411 -0.0284455 -0.16994 0.644402
559 69.8709 18.1242 15.1585 0.920955 1.06062 -0.569882
2509 26.1884 19.2486 14.5152 -0.710038 -1.00594 -0.766826
1192 56.3514 18.9397 14.554 0.55134 0.592819 2.62526
3899 59.7125 19.8006 14.7816 -1.31812 0.53401 -0.802292
63 65.545 18.9936 15.1375 0.796635 -1.14479 -0.126735
293 35.6678 20.7086 15.0322 0.0705814 -0.604493 -1.17182
2883 38.4503 20.494 14.7776 0.482216 -0.196981 -0.268575
1158 37.981 21.4448 15.1489 0.748244 0.0928156 0.0974183
933 48.0404 22.3603 15.1785 -0.119734 0.547218 1.40223
1642 72.5777 21.9429 15.5508 -0.850866 0.146541 1.01218
3519 15.1657 23.1557 14.3692 -1.73992 -0.496864 -1.19073
3795 28.8053 23.7199 15.0512 0.894497 -1.22067 0.522757
2347 48.9506 26.5812 15.4819 -1.18434 0.117357 0.475116
607 69.5518 26.4418 15.2385 1.3624 -1.12444 -0.64955
523 55.047 27.3783 15.0441 1.2446 1.48486 -0.282915
2516 17.5885 28.5621 15.2941 0.624804 0.0734916 -0.723962
2432 39.9749 30.1055 15.2345 0.486232 1.04406 0.890166
986 51.7609 31.666 15.2453 0.663751 -0.603566 -0.775776
1258 0.0139086 33.2405 14.458 -1.85818 0.0389687 1.38579
2162 3.25269 33.5478 14.5159 -0.256425 0.0284485 -0.638247
1265 25.8943 33.6771 15.2949 0.0933262 0.0199888 0.017227
3581 28.8233 33.4487 14.8158 -0.943842 -0.245712 -0.567696
111 35.67 33.3095 14.4669 1.85626 -0.0263234 0.371639
939 19.1314 35.7019 14.4848 1.81279 -0.612713 -1.27164
448 20.3119 0.385511 16.8086 -0.464847 -1.05144 0.972244
2011 54.6432 0.607479 16.1276 -0.859202 0.135482 -0.331663
860 1.437 1.83661 16.884 0.954227 0.565378 -0.250905
3303 10.5567 2.23177 15.71 0.0861172 1.41267 1.16098
2554 30.4733 3.04316 16.1849 1.68503 0.508032 -1.5373
43 49.7937 6.67523 16.1072 -0.0175415 0.195001 -1.63857
3064 22.4572 8.87367 15.9693 -0.348998 -0.138001 0.133791
133 32.9615 8.95996 16.9136 1.73152 0.483404 1.09088
2128 12.1151 11.1076 16.6921 1.30011 0.251649 1.42019
840 54.2948 11.307 16.8713 -0.696995 1.20491 -1.68525
3197 12.203 13.5748 16.498 -1.07053 0.782488 0.803172
2721 25.7489 12.8691 16.2261 -0.0116955 -0.616637 0.513827
3781 21.2501 16.3066 16.4708 -0.790001 0.912195 0.436341
1114 37.4823 17.0295 16.5935 -1.2784 0.254866 -0.520387
3041 38.734 17.5133 16.2324 -0.642194 -0.277047 0.191982
2313 58.0935 18.0563 16.7089 -0.498518 -1.23478 0.902196
3413 69.0471 17.5531 15.8339 -0.424468 -0.813998 1.14365
3716 6.83981 18.5527 15.611 0.256956 0.725404 0.288967
1734 14.3333 18.9904 16.7013 -0.933542 0.143037 0.30929
555 15.2569 18.9842 15.6582 1.12696 1.13123 0.949669
528 15.521 20.0311 15.9207 -0.34285 -0.64485 1.82308
2265 9.4538 21.4699 16.4223 0.200039 1.25817 0.529435
2555 35.0532 21.2574 16.5699 0.0867435 0.449941 -2.21762
2749 53.5568 21.6765 15.8147 0.992703 -0.640755 0.441036
297 17.7341 23.482 16.3094 1.36879 -0.537021 -0.481032
655 23.7904 23.5753 16.843 0.0919986 -0.525547 -0.446696
3488 33.6346 22.9668 16.5465 0.623289 0.241561 0.286506
2032 57.9522 25.4816 16.7114 0.18247 0.869987 1.23722
3861 69.5022 26.3452 16.6482 -0.365531 1.61548 0.449427
960 71.0146 26.4954 16.3401 -0.786691 0.594332 -0.544919
3253 27.0557 26.9609 15.647 0.0949237 -3.54533 -0.707524
2339 31.9513 28.0243 16.081 -0.356194 0.396873 -0.608823
2439 12.8238 29.5832 15.9215 -0.286094 -0.516205 0.492666
2154 59.8264 28.3952 16.9877 0.438939 -0.917202 -0.979479
2815 25.361 29.7919 15.6626 -0.274159 -0.274969 -0.748426
2946 50.566 30.6106 16.1473 -0.59011 1.2649 -0.0302163
2545 45.7317 31.5973 16.9926 0.816857 -1.4596 -2.16392
2741 72.8869 32.1498 16.2221 0.703557 -0.382607 0.174421
1813 12.9536 32.6664 15.8277 -0.283718 1.10476 -1.55902
1979 33.0062 33.5688 16.8441 0.0958427 0.221998 -0.236573
1498 42.5218 33.0828 16.9467 0.23274 -0.656682 0.95424
2172 54.6746 33.8772 16.4811 -0.31009 0.961903 -1.41307
270 10.9326 35.39 16.4031 1.3756 0.758424 -2.15045
3579 18.2305 35.0672 15.9814 0.120207 -0.810685 1.25536
3455 45.4068 35.0239 16.6209 -0.324365 -2.20492 -0.882351
518 66.776 34.829 16.1616 -0.745147 1.37948 -0.282229
875 70.3438 34.7292 16.8777 -0.0748346 -0.652853 -1.04857
2793 3.30096 36.4281 16.2181 -1.15665 0.876333 0.0047115
1966 11.4579 36.4943 16.9764 0.00532057 -1.7804 1.54711
2558 16.8363 35.8635 16.7624 0.705783 1.46986 0.854445
3676 17.536 36.3923 15.8193 0.407204 0.415198 -0.928519
2733 65.5946 36.8217 16.419 0.812805 -0.497569 -0.556191
1328 12.3963 1.40463 17.0946 0.0335922 -1.52675 0.418358
288 20.8111 0.70863 18.3042 0.441266 -0.297931 -0.842191
2845 0.829643 2.33735 17.9328 -0.379315 -3.32575 -0.000603903
3822 2.03967 1.7137 17.6971 1.13143 -0.668534 -0.210361
1578 4.46267 2.73821 17.318 -0.586406 0.582519 -0.283697
567 71.4402 1.81251 18.3714 -1.78512 1.13129 0.552549
2357 49.8262 3.93925 17.6043 -0.386291 -0.753039 0.680857
631 1.16976 4.5943 17.575 0.773096 -1.15963 -1.23373
1876 15.0338 5.09609 17.1948 0.0912583 1.66073 -0.108457
1985 64.586 6.56571 18.0359 -0.414758 0.826641 -0.0656462
2959 18.5981 8.15327 17.6584 0.585721 -0.452985 -1.28285
2146 30.8978 8.96609 17.4617 0.0106535 0.880464 -0.633972
1663 40.2032 9.0904 17.8367 0.304926 -1.25128 -0.206657
1575 50.2166 9.62119 17.6138 -0.195078 0.349077 -1.26034
3867 4.00191 10.2589 17.1826 -0.00874507 -1.19732 -0.0862572
2384 17.2568 11.0363 18.343 0.881023 -0.419407 0.117524
122 28.5632 10.3093 17.1207 -0.620268 0.250136 0.193526
2755 11.2572 12.1306 17.7694 -0.37677 -1.90131 1.16643
2388 41.9575 12.5489 18.1009 -0.233625 -0.701557 -0.679896
2775 46.1702 12.9052 18.2927 -0.130601 -1.09065 0.0489414
3509 25.7751 15.4898 17.9344 -1.85623 0.159966 0.554987