ITEM: TIMESTEP
57000
ITEM: NUMBER OF ATOMS
4000
ITEM: BOX BOUNDS pp pp pp
0.0000000000000000e+00 7.3680629972807722e+01
0.0000000000000000e+00 7.3680629972807722e+01
0.0000000000000000e+00 7.3680629972807722e+01
ITEM: ATOMS id x y z vx vy vz
1840 24.9276 2.47065 0.709111 -0.217863 0.182307 -0.570331
852 41.871 1.90882 1.38166 -1.01337 1.83808 -0.0676131
1319 43.6186 1.7238 0.166668 0.393072 1.37987 1.63318
1807 70.1745 1.5917 1.07491 1.02785 0.34761 -0.267716
920 70.9117 2.9512 1.00018 1.055 1.72105 0.377151
2158 72.6794 3.00431 1.26012 -0.320608 -0.761095 1.39972
2913 5.26048 5.1055 0.670984 -0.821712 -0.726215 -0.12216
1086 12.155 5.45258 0.0830354 -0.6917 0.902923 0.767024
3299 64.0292 6.97519 1.2005 0.213502 1.31471 -1.10095
1928 28.4624 7.36506 1.28349 -0.804978 -0.0559744 -0.235065
3669 67.4453 9.00486 0.831154 -0.00318915 1.37388 0.365003
242 62.9684 10.3013 0.352791 0.472678 0.125025 0.430219
953 9.19563 12.4141 0.4912 0.960742 -0.426046 0.911091
3563 33.6786 12.4887 0.238516 -0.0247305 1.65436 -0.157008
3549 59.9206 12.4491 0.245361 -0.583857 -1.10057 1.51776
98 71.201 11.6288 0.14169 -1.56327 0.880987 0.960212
672 73.0149 11.8725 0.0643936 -0.0350309 0.198005 -0.278843
2975 15.3869 12.7695 0.9357 0.328265 -0.944863 0.382417
3315 31.0321 14.7008 1.39079 0.262918 0.925048 0.0163202
3051 55.4771 15.5769 0.511177 -0.513012 -1.05127 2.09251
1774 8.69315 15.7682 1.27753 -0.130506 1.19085 0.266973
1005 27.0045 16.1264 1.41501 -1.3131 0.181532 -1.19996
2801 31.977 16.7964 1.02074 0.407471 1.82889 1.25276
1428 8.34737 21.7989 0.502643 -0.267479 0.38108 -0.392856
3485 43.8209 21.3377 0.523906 -0.658022 -0.931561 -1.83661
3111 58.8991 22.7697 1.05949 -0.0595698 1.81415 -0.524577
25 50.073 25.0137 0.844997 -0.486627 -0.92816 1.25496
1419 28.4938 27.4862 0.197057 0.694578 0.503905 -0.273571
436 49.7937 26.9968 0.423827 -1.53966 -0.164881 0.265108
2144 52.7489 29.0041 0.804321 0.768367 0.667604 0.375964
2640 68.6321 29.1398 1.20691 -0.634986 -0.474361 -1.26994
269 71.9575 28.7919 0.583291 -0.999596 0.284163 -0.692107
1941 17.278 29.9808 0.503904 0.96066 1.25707 0.809635
2934 40.6791 31.0651 0.0146893 -0.201836 -1.63632 -0.182019
2419 58.7996 30.5213 0.88986 2.55172 -0.466915 -0.966577
322 71.1626 29.7661 1.24871 0.602434 1.0881 -1.5189
1409 9.34091 31.8994 1.22038 0.450756 -0.557884 1.03821
796 71.3842 33.1542 0.837524 -1.69854 -0.0451743 -1.78378
1484 14.4465 0.319605 1.66271 0.421069 -0.763704 -1.01497
2668 20.4288 0.0371526 2.16816 0.400008 0.472018 -0.164259
1061 42.4829 0.688596 2.02918 -0.154761 0.114838 -1.99855
3307 52.4175 0.420008 1.66275 1.03351 0.142128 -1.78245
2369 9.28111 2.84181 1.63786 1.05576 -1.14349 -1.36056
1465 25.8456 4.1378 2.43162 -0.964432 0.0923583 -0.0386748
2397 71.3896 3.60538 1.67465 0.782022 -0.845765 -0.327481
2214 51.9397 6.14974 2.63911 0.00850019 1.12165 -0.893742
69 2.93511 8.20379 2.07951 0.955855 -1.55414 -1.09583
1322 24.4282 8.43413 2.18638 0.0204644 -1.56207 0.124577
3567 55.4022 9.13438 1.7998 1.82116 0.180036 -2.32742
3585 39.5939 11.1523 1.90554 -1.01461 -0.625541 -0.540749
1862 28.3445 12.5005 2.49436 0.549774 0.758163 -0.295992
3388 55.7346 11.7882 2.41997 -0.665481 -0.432189 0.783733
1706 30.7724 13.731 1.97571 0.0454749 0.607044 -0.719653
2858 37.4424 13.1359 2.08324 -1.26222 -0.213868 -0.23322
2516 20.8452 15.3721 2.30202 0.200206 -0.266178 -0.229037
1275 25.122 14.1894 2.58722 1.0066 -1.61439 -0.546501
1711 12.7057 15.6694 2.10804 0.556512 1.20985 1.43989
3813 22.9782 17.715 2.06739 0.00155962 0.41827 -1.70283
3939 48.2109 18.3595 1.97288 1.38522 0.305965 -0.12723
3574 54.4289 18.0064 2.76581 -0.44608 -0.190123 0.727631
2511 50.6147 21.0566 2.385 0.284354 0.461907 -0.610944
806 15.6211 23.7835 2.37782 0.729145 0.108703 0.373252
873 6.92252 24.1824 1.89604 0.606549 -0.740309 1.22412
3984 59.722 26.9355 1.9349 0.718798 0.874832 0.885381
2487 61.5946 27.9535 1.91306 -1.10527 -1.96911 -0.333672
3492 61.0505 27.1018 2.79276 1.04738 -0.221078 1.30651
224 33.4087 29.1419 2.69826 -0.479185 -1.24817 1.4236
101 35.0306 28.868 2.15338 -2.14143 -0.659369 -0.196429
2043 47.2887 28.5064 1.53395 -1.16231 1.43 0.749367
1248 70.9221 28.8366 2.76429 -0.171847 0.609454 -0.382183
2475 56.232 31.0344 1.54847 1.03535 -0.0954764 0.737442
1091 70.0095 29.7942 1.72832 -0.101393 1.34331 0.412527
3931 31.7932 31.8452 2.32663 -0.719878 -0.590884 -0.654503
2964 38.246 32.0454 2.5329 -0.780097 -1.38458 0.770885
3915 44.8712 35.2865 2.45364 -0.374794 -0.713881 -0.87916
3834 59.0831 34.7649 2.28729 -1.75221 0.382546 0.0655675
3252 35.6526 0.249117 3.97311 -0.527388 1.00355 1.79452
1138 51.4139 1.23479 3.5812 -0.390251 -1.95318 0.358371
2602 40.5128 1.837 3.28258 0.612253 -0.796296 0.623569
2802 8.62184 4.75791 3.50435 -1.10414 1.27668 0.984739
2387 45.1896 4.64556 2.85262 1.52319 0.471604 0.803415
3133 31.1754 6.53542 3.9705 -0.480339 0.856327 -0.113833
648 38.1285 5.97914 3.48363 -0.157963 -0.97315 0.980102
1217 5.84758 7.28498 3.64436 -0.474039 -0.404112 -0.421535
1427 13.95 7.47992 4.14747 -0.320855 0.544457 -0.948104
1179 69.1934 10.4948 4.08683 -1.43542 -0.736659 -2.93701
2049 41.9019 11.7315 3.78529 1.65951 -0.266499 1.47085
2770 52.6097 11.5152 2.94416 -0.328461 -0.545823 -0.0892375
1562 23.2768 14.3373 4.09314 -2.09644 0.0453296 0.0800856
1508 24.3734 15.0023 3.80155 -0.3906 -0.175016 1.33476
1337 33.8905 15.1745 3.72875 0.761163 -1.14883 2.03747
458 51.9468 16.7366 3.43061 -1.04761 0.838519 1.41657
936 69.0795 16.4578 3.93513 0.308487 2.25687 -0.333671
2533 48.8695 17.7708 2.9628 -0.131104 -1.76107 -1.02335
1810 28.3561 19.3797 3.41306 -0.17641 -0.0932291 -1.68561
2748 72.6559 21.4253 3.67967 -1.20872 -0.792897 1.89853
1736 16.648 25.1686 3.81683 0.0345923 -0.296683 -2.35855
3839 23.394 25.1039 4.07019 0.435079 -0.317404 -0.820041
3072 24.5654 25.6333 4.14315 -0.348077 0.711253 0.0103499
3310 62.1128 25.5512 2.8444 1.2851 0.598106 -0.187549
3309 32.3221 27.9483 4.16042 -0.0627548 2.66877 -1.22345
2012 49.1682 27.8054 3.99724 -2.13307 1.40443 0.998479
2695 12.6936 28.4034 2.96425 -0.821801 -1.93259 1.50207
3400 28.5373 28.6007 2.94798 -0.600818 -1.82226 -0.0601351
144 46.538 28.8008 4.12334 1.59823 0.657737 0.695499
418 4.18465 32.3239 2.95846 -0.825027 -2.41565 -0.99028
3022 27.3286 32.2217 2.88292 0.819821 -0.594674 -0.472971
1554 28.2706 31.4512 3.01996 1.17784 1.40232 -0.66306
3404 13.4571 33.7777 3.97306 0.96862 0.228299 -0.500125
3324 55.3861 33.551 4.24458 -2.31713 0.472873 1.46211
3090 46.6014 35.1046 2.87642 -0.731548 -0.651804 1.65673
3246 26.2078 0.442059 5.16665 -0.0500888 1.78963 0.253752
2127 72.5536 0.669994 5.0078 1.143 -1.83335 -0.157928
30 73.3497 0.518006 4.33345 1.08762 -0.36897 0.7296
1603 17.3282 3.17004 4.99478 0.603134 -0.612818 0.316611
2865 50.4289 4.24478 4.81526 2.19014 1.04066 -0.962685
490 61.2844 3.46667 5.0158 -1.87308 0.150877 0.325638
1791 40.9653 4.61804 5.35367 0.292633 -0.492731 -0.134654
1481 71.6611 4.66482 5.43253 -0.324936 -0.893934 0.261177
1182 73.6449 5.26675 4.28733 0.145121 0.0823377 -0.87186
3721 52.3672 6.32472 5.55623 0.132869 1.76089 1.01369
236 61.2307 9.76022 5.02905 -0.65266 0.690607 -0.0377053
267 51.4252 10.4611 5.08214 1.04372 0.580386 -0.939548
1973 67.8181 10.8192 5.15012 1.17461 0.820893 -0.423362
749 19.3059 11.7349 5.10566 0.813338 0.398607 0.375448
3097 7.00526 12.78 5.07082 -1.86211 -0.479929 1.3145
3376 18.4108 12.9148 4.82473 0.217918 -0.836096 2.33478
1203 59.3642 13.8306 4.26065 -0.829469 1.70356 -0.535834
1628 8.0791 15.6832 5.35828 1.10145 0.833864 1.4003
369 10.1163 16.1652 4.41865 0.85012 -0.353861 -1.71281
3229 41.9978 15.9099 5.254 -0.391115 -0.0943544 -0.536964
2833 46.9082 16.0219 4.91051 -0.0900068 -0.0712869 -0.399665
1287 67.4303 16.226 5.36959 1.38243 1.84187 0.284759
2941 16.5701 17.8954 5.56071 -1.83657 -1.19549 0.499895
1320 67.8687 17.7636 5.38262 -0.0253991 0.624574 -0.253173
2666 35.2021 19.0263 5.13725 0.00912478 -0.175592 0.680463
1825 65.783 19.8121 4.47607 0.823937 0.119298 -0.0552116
256 29.2501 23.3433 5.56166 -1.41351 1.73604 -1.37555
3628 9.73103 24.3324 5.63278 1.1448 -2.01461 -0.266093
1688 25.8329 24.596 5.146 1.96852 -1.29259 0.475095
3010 28.1724 24.5674 4.92129 0.792391 -3.1102 -0.459019
2726 47.3138 25.1875 5.1573 1.02339 0.1341 -1.02931
1942 1.38569 26.653 5.33164 -0.390012 -1.10373 -0.36874
657 13.6311 27.1646 5.14623 -1.20882 0.638223 0.57542
416 23.9691 27.2232 4.62754 0.924006 -0.0169859 0.429258
3070 26.7432 27.6546 5.45294 0.173589 -0.941764 -0.881108
2992 53.8982 28.0107 5.623 0.414303 0.483497 -0.525157
1824 60.1026 27.224 5.2978 -1.27974 1.59619 -1.62296
61 22.5809 29.0568 5.06371 0.867212 -0.131625 -0.314292
709 28.3826 28.5565 4.50573 -0.457729 0.134088 0.129751
2167 63.4658 29.2054 5.64954 0.129586 -1.95287 0.903857
538 1.89574 30.1776 4.94668 2.00545 -0.711632 -0.69798
527 35.2351 30.9402 4.61503 -0.135453 0.436331 -0.515277
3181 40.641 32.163 5.54366 -1.84116 -0.510439 -0.10583
3732 61.7586 32.4195 5.00828 -0.24939 1.83375 0.144122
1402 73.1966 32.048 5.05753 0.0660205 0.361664 0.944178
432 13.5738 33.2541 4.99217 0.338878 -0.423938 -1.0369
547 59.4931 33.1792 4.62308 1.32909 1.96611 -0.200473
1141 8.58068 35.3378 5.17101 -1.33485 1.21236 -0.692757
890 48.338 35.8056 4.91506 1.14483 2.06346 1.01529
676 51.7679 35.7572 5.55164 -0.320518 0.217886 0.556451
1284 56.8747 35.9359 5.61893 1.68112 0.480062 0.148609
3983 64.2857 35.8669 4.68307 0.123219 -0.865591 0.71216
826 69.7152 35.8844 5.45194 -2.09561 1.55617 1.44096
1767 52.137 1.0543 6.67511 1.03022 1.41526 -0.480046
1457 61.6445 1.21434 6.8134 -0.465073 -1.76397 1.20409
334 11.2987 2.07607 5.96773 -0.49193 1.12123 0.895621
531 35.8193 3.77798 6.93032 -0.43572 0.667595 1.25418
1993 51.1594 4.76496 6.89499 0.32354 -0.119804 -0.184501
2779 57.1394 5.05697 6.39756 -0.842035 -0.394487 -1.05951
2041 21.609 7.22257 6.8833 1.08941 1.23248 -1.41182
1853 9.4259 10.5257 6.97315 -0.480503 0.743234 -0.932369
1599 59.5081 12.2071 6.74846 -0.024185 0.932622 0.543472
2871 63.0855 12.0447 6.26511 -2.60556 -0.675526 -0.796922
248 65.3722 12.3961 6.87985 -0.488845 -0.16889 -0.195156
39 71.4736 14.7215 5.76428 -0.0386351 -0.807312 0.320296
2007 9.43749 18.086 6.17868 -0.448716 -2.2269 1.52514
375 43.0005 17.0163 6.4197 -0.983839 -0.141317 1.42627
2489 11.5001 19.4795 6.50434 -0.650104 1.39696 -0.0938687
54 14.1564 18.4827 5.9666 1.84357 0.738436 0.0732652
2466 11.4907 20.4539 6.15777 0.150995 0.0967268 0.092113
336 31.8069 19.9266 6.36194 -0.048168 0.110505 1.57976
3124 37.4689 22.3523 5.73009 2.41157 -0.382183 0.231906
2820 54.9292 22.3979 6.38551 0.756827 1.20775 1.44949
1643 54.5536 21.4343 6.46008 0.215728 -1.20988 1.64252
3696 43.528 23.8268 6.59382 0.541512 0.483953 -0.272346
3529 68.8669 24.0301 5.97803 0.700421 0.105212 1.16321
15 2.15459 25.46 5.67085 -1.01767 1.40926 -0.943625
2013 17.0131 24.5349 6.40642 0.33913 -1.505 0.979329
2548 65.2396 25.7542 6.13939 2.3665 0.613477 0.184464
2860 38.6665 28.9293 6.76725 -0.0850003 0.830528 0.0164635
3192 14.2947 31.2295 7.02208 0.592232 0.409044 -0.253891
2376 14.4509 32.3082 6.27513 0.235511 -0.586295 0.468055
1878 63.6383 31.9806 6.37996 0.280068 -1.05625 1.51067
698 44.9127 33.1584 5.83924 -0.699638 1.22321 0.192783
822 56.1255 33.1458 6.67473 -1.01918 -0.161715 -0.0928425
849 73.5894 35.0186 6.01451 0.232305 -1.0561 0.717421
612 38.6953 0.726609 7.75921 -0.552229 0.175942 -0.449688
3440 43.973 2.90079 7.94414 0.90049 0.463998 -1.31996
3482 59.1274 3.35582 7.98892 -0.83752 1.69746 0.95539
1456 5.99206 6.53197 7.80511 0.624082 1.10913 -1.23145
2661 67.6749 6.50316 7.76863 0.0438058 1.8058 0.860337
3840 58.449 7.49202 7.71332 -0.599549 -1.24736 -0.946688
1153 31.7028 8.69108 7.60708 0.12939 0.288945 0.38034
996 33.7909 10.1361 7.09244 -0.282346 -0.584722 -0.475187
3106 30.8654 11.6112 7.85079 1.07942 -0.104343 -1.70503
3170 40.1144 13.3163 7.88761 0.113339 -0.144936 0.188858
2918 3.23954 15.2501 7.74247 0.330341 -0.401455 -0.827569
2436 23.4039 15.5799 7.59595 -0.286504 -1.3264 1.84344
3164 29.7264 15.1254 8.41684 1.1555 1.56095 -1.73257
3365 40.2973 14.3409 7.32229 0.548362 1.28753 -0.487641
568 27.3142 16.7383 8.27243 0.827873 -0.295056 1.37984
3968 30.6611 16.8747 7.55792 -1.14284 -0.186164 -0.567383
563 30.6577 18.3674 7.12228 0.446791 0.158464 -0.195999
2136 44.8338 18.9379 8.41433 -0.386064 0.719607 1.76232
3566 9.99452 21.1291 7.94661 0.0569052 -0.284683 -1.26572
2520 48.9885 21.8009 8.41651 0.897285 0.622968 -0.348889
470 42.3415 23.8904 7.56785 1.03727 -0.316263 0.0676282
1687 59.6786 24.0052 8.06435 1.16475 0.269357 -0.331836
1183 22.3428 24.775 7.48138 0.200051 -1.47302 -0.152827
3443 61.9274 26.0099 7.19023 0.115742 -0.346456 0.762444
3681 55.3722 28.1091 7.72693 1.02727 0.850832 -0.0178359
3868 43.9346 29.4375 8.04735 1.04416 -0.751489 1.41134
435 60.6454 29.4546 8.03498 -2.12823 0.151962 -0.993818
252 65.8659 30.5418 7.22474 -0.497358 -2.06887 -0.165251
160 69.6841 30.1751 7.57475 0.340775 -1.69085 -1.06003
1480 53.4409 31.707 7.69519 0.419001 -0.358919 0.0602132
1629 10.3414 33.2038 8.27401 0.846111 -0.899242 0.253605
914 49.0281 34.3343 7.78111 -0.762608 0.453285 -0.110957
2705 53.845 36.2622 7.28458 -0.754773 -0.322076 0.875137
3515 58.0028 0.984086 8.85407 1.03858 -0.530418 0.110671
3198 69.0502 1.26781 8.53089 -1.48125 -2.47945 -0.0809482
2580 46.0072 1.54438 9.0801 2.01212 -0.576179 1.03841
1849 63.1259 3.79585 9.21883 -0.454082 1.43116 0.372454
543 69.4123 3.95827 8.85114 -0.769031 -0.19561 0.22963
3490 14.4699 5.54884 9.53767 -0.556826 0.570822 -0.183978
1334 70.561 4.94477 9.88341 -0.00744777 -0.122509 0.312192
2252 23.4388 13.6244 9.86881 0.336946 0.417957 -0.875006
2527 40.807 14.7147 9.10809 1.35057 0.631881 0.909264
2190 15.5554 15.8506 9.41255 -0.995292 -1.39546 -0.326348
3015 1.21589 18.0667 9.51451 0.321496 1.01117 0.566615
2589 24.6472 18.2661 9.91222 0.675969 -0.785281 -0.380291
1630 39.2095 18.1743 9.67788 -1.76572 -0.169498 0.460075
2724 53.0941 17.3327 9.85422 -1.05054 -1.87764 0.0312035
2454 36.4614 19.2445 8.60995 0.0818719 -0.325573 1.19252
3245 54.2288 19.5796 9.47312 -1.11358 0.0330389 -0.643498
799 15.4329 20.9616 8.62887 0.413222 -2.20423 0.796492
3545 22.8494 20.0568 9.91419 0.0496502 -0.217044 -0.540075
3156 2.43257 22.0328 8.64502 0.403758 -1.01407 0.31451
3687 29.0118 21.8091 9.67583 0.350077 0.557244 -1.25458
2505 30.2041 24.0278 9.44233 0.814705 -0.998395 0.0619337
3589 17.9035 25.5681 8.75498 0.571058 0.32864 -0.344148
907 55.2027 26.5187 9.16089 0.780064 -1.127 0.315629
3 13.4983 27.9853 9.7907 -0.566849 -0.978253 0.234875
2060 13.1464 27.6584 8.89902 0.569435 -0.563885 -0.367214
1100 14.4177 30.5482 8.90067 0.468848 0.0292221 0.145472
859 6.60568 32.4547 9.51492 0.866792 -0.929282 -1.10682
3386 63.056 31.9007 9.32895 0.463848 -0.349064 0.13704
2824 73.0293 32.7792 8.52494 -1.41485 0.583774 1.3266
2561 37.8176 34.7402 8.60456 -0.987541 1.63984 1.4573
2145 44.2996 34.0832 9.02728 0.00238576 2.36702 0.353772
2665 66.7995 34.094 8.73366 -0.408533 0.568738 -1.32622
1235 28.5053 36.5212 9.23817 -0.310359 0.788965 0.97305
3047 62.6101 35.8431 8.82621 -0.425806 0.0699943 0.353971
3946 22.5422 2.6609 10.7439 -1.31518 0.977504 -0.0771612
3578 64.5613 2.19418 10.1145 0.741358 -1.13711 -1.41058
2241 22.0408 3.71728 10.1702 -1.59695 1.82452 0.28305
3138 26.4475 3.74605 10.3838 -0.472466 -0.0142661 0.893594
3017 26.9826 2.86507 10.4388 0.256454 -1.20568 0.147419
1180 64.794 4.46587 10.1894 0.683365 0.316407 0.109452
3230 11.1428 6.05955 10.6878 -0.0467866 -0.377065 -1.30233
844 26.2342 6.87637 10.4684 0.550218 -0.400772 0.821952
1134 41.5554 7.04119 10.005 0.527351 -0.532197 -0.0493903
910 53.8565 8.44993 10.0594 -1.81271 0.409862 0.553305
1815 70.6152 8.37646 11.2088 -0.540895 0.0133884 -1.65117
2384 31.185 9.1234 10.0778 0.24959 0.722644 0.0466607
708 34.0675 11.9596 10.8637 -0.0270957 0.465842 1.92475
183 41.6267 12.2304 10.6995 -0.278565 -0.35377 0.265245
1753 42.9998 12.0247 10.7757 1.02211 -0.581846 -0.715273
2074 57.9529 12.2151 10.6094 -0.846078 0.691444 -1.36517
3605 65.1002 12.5549 10.3549 0.942193 -0.775555 0.230302
385 38.5878 13.2633 10.2768 -0.550874 -1.35871 0.0485887
313 62.4421 13.574 10.249 0.0624966 -2.48904 -0.782055
2079 10.9842 16.0301 10.0281 -0.0630727 0.957691 -0.831326
807 16.5334 18.3047 10.1863 1.72892 -0.169433 0.76359
760 27.6 17.195 10.5498 0.267726 0.511447 -0.811339
968 44.2165 18.055 10.2927 0.764229 -0.610326 -1.18698
329 21.3173 18.7212 11.0241 -0.942002 0.748703 0.00379493
3592 24.464 19.2205 10.3812 1.57807 -1.13569 0.391889
3254 45.1404 19.0887 10.1982 0.644508 2.14194 -1.12408
3286 68.3863 19.139 10.216 -1.68109 1.33177 0.030306
1083 68.7834 20.4314 10.4668 -0.0924235 -0.367832 1.0364
3487 71.4398 20.3771 10.8101 0.184248 1.04546 -0.291065
1176 72.4346 20.4877 10.4136 0.0544491 1.42907 -0.702542
1370 53.4952 22.4334 11.3255 0.431863 0.445302 0.547564
1692 23.0851 23.7835 10.3086 0.459199 -0.399713 0.0999396
3924 73.2583 22.8728 10.9935 0.270751 -0.874925 2.06632
2621 29.8877 24.4991 10.7776 -0.998477 -1.13451 0.484325
2373 9.28986 27.7472 10.4757 0.695594 -0.181604 0.600302
2629 61.3293 28.3108 10.1005 -0.0912322 -0.822585 -0.697817
2249 14.4001 29.1296 10.5599 1.62838 -0.028773 -0.280065
1038 49.0867 29.5408 9.9464 0.382341 -1.14205 -0.324098
3778 66.4896 35.6127 10.9456 -0.108544 -0.314393 0.41414
387 64.4862 0.220443 11.4342 0.729255 -1.49949 -0.633199
3531 41.7055 2.00998 12.1996 0.350873 0.650448 1.37523
824 60.0039 1.46323 12.3884 -0.26081 0.867698 -0.577102
3526 43.4911 3.83042 12.2376 -0.447663 0.481401 -0.245019
2605 10.523 6.23819 11.6987 -1.80537 1.6606 1.04743
1625 13.736 6.90613 11.7893 -0.491172 -0.634705 -0.34917
1891 44.3385 7.70181 12.1496 0.112147 -0.11993 0.987821
2501 36.1364 9.01612 11.9709 -0.201541 -1.90965 0.27037
2709 45.4532 8.92533 11.8525 1.51422 -1.11786 0.234
1294 54.6572 9.86926 12.5943 -1.31704 -0.554374 0.703757
536 61.3959 9.42833 11.4547 0.935881 -0.17746 0.126875
2569 0.849052 10.1691 11.8863 1.49133 0.343587 -0.802268
756 16.761 11.0803 11.5403 1.07517 0.363447 -0.600571
3541 52.5807 10.4037 12.5375 0.833648 0.220204 -0.806686
2201 1.75331 11.4401 12.0212 0.507482 -0.936723 0.979655
2963 67.6704 12.2356 12.0274 1.17277 0.163041 0.477224
703 53.2555 15.3327 12.4835 0.607107 -0.484851 -1.79774
2299 16.5426 16.6718 12.5393 0.451194 1.49168 -0.363036
112 65.494 17.7926 12.374 -1.86983 -0.567934 0.0885628
705 20.5818 19.5138 11.4269 -0.5692 -0.166495 -0.947116
1304 11.6405 21.2311 12.0626 0.334974 -2.43884 -0.304372
1332 13.0844 20.3137 12.1793 -1.51177 0.473764 -0.90623
875 71.6188 21.2215 11.7973 -0.0108779 1.08943 -0.272738
1645 5.21285 22.0313 12.0648 -2.12658 -0.233883 0.0744421
3710 7.37502 22.6539 12.6255 -0.602115 -0.128677 0.386221
2188 23.6176 24.1483 11.5506 0.489863 0.156779 -0.0277854
90 26.7588 24.7738 11.3966 0.411456 0.652691 0.906188
2285 64.8172 25.2804 11.583 -0.572852 -1.23155 0.530295
714 39.0593 26.035 11.3387 2.06138 0.512812 1.90763
3684 16.2231 27.3543 12.2066 0.115152 -1.18842 0.682477
3927 35.5349 28.5598 12.5875 -0.713233 1.54283 -0.132145
2737 13.4804 31.155 11.4967 0.15437 -1.09726 1.22149
1236 8.99536 31.7678 11.5321 -1.2646 -0.361752 1.09196
606 72.0829 32.1985 12.3685 -0.265547 0.50826 0.828539
1118 48.203 33.1704 11.5489 -0.323559 2.0727 0.131042
2025 18.3343 35.3722 12.6406 0.0350098 -0.551954 0.395374
1524 53.722 34.9679 11.6215 0.0945434 0.580703 1.7991
1990 58.1402 34.2663 11.4042 -1.47802 0.667229 0.0737512
1162 9.82564 36.3266 12.2972 -0.057521 -0.935084 1.84142
3668 27.9756 36.0472 12.4728 -1.69648 0.270471 1.56337
2641 69.2137 0.886823 13.9104 -1.05272 2.52025 -1.15208
2799 11.1929 2.43288 13.0868 1.54354 1.40215 0.315662
620 42.6248 2.57412 13.1649 -0.409092 -0.416132 0.0361104
1159 33.5986 3.20217 12.9687 -1.64131 1.93563 1.32087
454 70.0212 5.14107 13.639 -0.213252 -1.90561 1.08809
3317 5.31826 6.07661 13.287 -1.49916 -1.0324 -1.09825
3607 18.5985 7.75578 14.1146 -1.26111 0.1794 -0.837724
2040 23.6516 8.45173 13.2693 0.783836 -1.54725 0.285983
3171 2.6097 8.86488 13.8331 -1.1764 -0.118807 -0.509706
3701 7.71173 11.2873 13.9581 -1.12886 0.220752 -1.23175
2847 21.9452 10.9208 13.1607 0.620528 0.525016 -0.433397
3296 12.7333 12.6046 13.784 2.06714 0.872838 -0.190567
2636 51.7745 12.2331 14.1364 -0.422414 0.544057 -0.133476
42 73.4297 13.8151 13.5713 0.538512 0.682704 -0.263882
2389 2.0396 15.0431 13.4885 1.4784 -1.24759 0.848795
1921 14.6435 17.8434 13.5559 0.860902 -0.485366 -1.17722
637 30.1432 17.2161 13.4957 1.61547 -1.51612 -0.375152
377 52.7149 17.4034 13.8836 0.298785 -1.36699 1.67015
3270 45.4598 19.2382 13.9798 -0.490418 -0.447621 -0.763234
2853 24.0863 20.7821 13.3081 2.89334 -0.384011 -1.64453
701 61.8607 21.1518 13.5493 0.0416351 0.350163 0.54836
3394 66.6499 19.9225 13.6863 0.118645 1.09739 -0.678331
1024 7.58023 22.6705 14.1252 -1.55562 -0.788555 0.531635
545 17.8476 22.3277 13.5806 0.712132 0.202556 -0.450627
3152 7.3712 24.066 14.114 0.145923 0.338489 0.663975
625 20.0601 22.7894 14.1685 0.375671 1.70636 0.950888
187 27.4123 23.9935 13.0978 -0.532093 1.10305 0.865918
330 55.9838 23.8912 13.246 -1.62721 0.207611 0.473605
461 59.6059 23.7269 13.8691 0.915688 0.296016 -1.49278
1088 38.6098 24.3937 13.6741 0.490766 1.46167 2.11483
3695 73.6777 25.109 13.2442 0.240604 0.303329 0.705029
1164 16.2585 26.8161 13.6057 0.279443 -0.134609 0.0400323
1622 17.899 25.97 13.9894 -0.345873 -0.604955 0.472121
1530 9.6556 27.5401 14.1657 0.51705 0.548523 1.97237
3660 61.3907 26.944 12.8005 1.89117 0.385951 2.42655
3642 20.6286 28.3858 13.9665 0.19026 -1.17981 -0.143407
3301 49.1655 28.4257 13.0071 -0.347344 -0.551814 -1.34235
2114 4.12241 30.7335 13.3898 0.657555 0.508497 0.0241543
380 58.9717 31.9157 13.8503 -1.71473 -1.38666 0.0381085
2659 10.9324 33.3614 13.9286 0.00717905 -1.35931 -0.891289
1927 30.0653 33.1582 13.2998 0.392482 1.06196 0.111915
1311 48.0728 34.6837 12.992 0.369759 1.54775 -0.969571
2790 59.9527 35.37 13.9036 0.727149 1.5372 -0.817791
2210 14.9555 35.8971 13.4463 0.869952 0.121349 -0.141531
182 25.7992 35.8832 13.0812 -0.42512 0.46199 -1.09069
1679 17.7542 1.04157 15.5643 0.78644 0.315336 -0.598152
2904 48.1931 0.728314 15.3233 0.944358 -0.976366 -0.821266
1519 63.122 4.58213 14.3654 0.0367944 0.474018 -0.999454
2231 56.9463 7.00299 15.455 -1.04087 0.792396 -0.162559
2803 42.4499 7.60495 15.3955 0.389853 -0.813361 0.317713
1610 34.455 9.30067 15.0479 0.188671 -0.551631 -0.633091
1613 15.0126 10.2144 14.359 -1.11225 -0.0357508 0.0666206
2334 35.7741 12.2737 15.3392 1.38255 1.1722 -0.263607
3328 27.8539 15.2971 15.0672 1.84975 1.10148 0.978967
1888 55.469 14.6812 15.4641 -2.27605 0.585144 0.277468
629 67.3871 14.2423 15.1694 -0.60317 -1.34675 -0.159251
1056 6.19264 16.0028 15.0881 -2.29205 -0.678516 0.227408
1242 70.8244 17.0349 14.5655 0.360284 -1.43943 0.0390449
3188 32.3095 18.8987 14.8389 0.895822 0.127759 -0.296439
1452 43.2809 21.3542 15.4623 -0.44513 1.24283 -0.0325367
1881 49.7049 22.4491 14.4538 0.806946 0.641792 -0.0564507
2868 50.6006 21.5468 14.2438 0.788899 -0.35953 -0.415824
420 17.1279 23.7409 14.2047 0.914212 0.966717 0.802094
690 2.66595 26.326 14.2475 -0.00778099 0.666466 0.245066
476 35.0052 27.7203 14.3166 -0.819034 1.66641 -1.49741
34 47.6453 27.4096 14.9557 0.0131044 -0.455305 -1.18736
2613 53.5707 28.0891 15.2415 1.79237 -0.13805 0.5907
1096 42.4764 29.284 14.4106 -1.99799 0.334275 2.04035
2447 26.7791 31.0365 15.1813 -0.346748 0.801684 -0.316429
1598 38.9492 31.1103 15.042 -0.964764 -0.223934 -0.66321
1556 51.1065 29.8718 14.9488 0.602593 0.641321 -1.58053
2690 46.0107 32.1951 15.1831 -0.250906 -1.1319 -1.21285
1090 51.504 31.9938 15.339 1.87379 -0.322106 -0.97041
2488 61.8022 33.8864 15.5159 -1.37491 1.13269 0.209876
1644 15.7553 34.0303 14.55 -0.71771 1.9077 -0.754944
3617 37.5312 34.8184 15.5545 -1.11362 -1.05112 0.0547701
942 19.3048 36.1001 14.3056 0.394688 1.24534 -1.65744
1361 38.1441 36.2364 15.4517 -3.01744 0.3324 -0.386045
3410 70.5792 35.6033 14.3769 -0.0286891 -0.918762 0.181678
1854 41.7963 0.158478 16.321 -0.140895 0.2883 0.563217
2639 44.5934 0.704077 16.4712 -1.07238 -0.774836 -1.27586
2772 49.6566 0.759502 16.8 -1.19272 -0.62368 -2.6799
3390 4.22002 2.82246 16.2582 -1.01 0.0475648 -0.0117694
275 24.5777 2.26409 16.9498 0.361346 2.20413 -0.225101
1912 54.7017 2.61443 16.3053 -0.425234 0.00703955 -1.37798
4 4.36159 3.74533 15.7213 -0.199243 0.0133994 -0.781271
665 18.3747 3.45272 16.4821 -0.991031 -0.645703 0.39728
1251 64.0953 4.70979 16.6356 1.4281 0.653634 0.632451
3273 16.5336 6.0404 16.35 0.649445 0.0323701 0.312969
666 66.3375 8.41554 16.3506 -1.56947 -0.110589 1.46948
2817 25.1323 9.18119 16.0988 -1.35384 -0.318862 0.52093
3114 47.228 10.5389 16.0385 1.9576 -1.83181 -0.0781363
1293 24.8137 15.4399 16.1906 -1.43862 0.313591 1.5225
502 59.576 16.7146 15.7968 1.47433 0.0700724 -0.373715
3215 39.7479 17.2496 15.9444 1.43403 0.425834 -0.318577
1268 52.1118 18.2687 16.3074 1.17298 -1.68837 -0.408012
216 22.9681 18.4691 16.2313 -1.70318 -0.0508308 1.24883
1592 57.0832 18.8613 16.4631 -0.190333 -0.638063 0.308118
486 19.7263 21.4174 16.9489 0.402823 -1.02307 0.744116
1491 52.8081 23.4593 16.779 1.29196 1.21534 0.804513
1163 72.9652 25.5919 15.9564 -0.720228 -0.772785 -2.22748
3009 52.4376 30.9928 15.6278 -0.160885 0.439946 -1.24818
89 3.17528 32.1345 16.8471 -0.562629 -1.56369 0.775305
713 49.7522 32.4096 16.1296 -1.04102 -0.756501 -0.32771
1841 47.1487 32.9242 16.0214 0.490899 -0.207267 -0.355422
401 67.6745 34.0706 15.6054 -1.02241 1.09756 0.90656
3272 0.0585114 36.5783 16.8988 -1.20555 0.444629 -1.70796
2348 29.4054 36.1755 16.5786 -2.03832 -1.08924 1.00408
2563 35.5409 36.5031 15.8839 -0.304029 0.00969443 1.09249
2301 37.2886 36.4817 16.138 0.789817 0.12482 1.47305
1012 27.686 0.37565 18.1098 -0.00137083 -1.88867 1.09775
2072 30.3771 1.84589 17.6276 -0.499712 -0.184218 0.347785
3446 54.9291 2.57544 17.913 0.928519 -0.714552 0.74366
1032 12.1996 3.5271 17.7384 -0.0663284 -0.258934 1.06596
3740 36.2167 3.40729 17.7781 1.1094 0.266004 -1.30985
1062 59.6963 4.07243 17.4948 1.2082 0.893525 -0.272881
3222 38.0298 5.01175 18.192 0.0350397 -1.02356 0.238569
62 40.7287 5.61781 18.0334 1.98976 0.0358402 -2.02102
254 62.1658 7.66941 17.8518 -0.131457 -1.0947 0.846093
1780 21.1742 8.95412 17.8784 -0.109835 1.10047 -0.639133
1659 64.6945 11.1508 17.3808 2.65099 -0.38839 0.627892
2739 72.0705 10.8706 17.504 2.03918 1.86821 -0.390032
77 21.8075 11.4473 17.8523 -2.28374 0.150488 1.27403
2005 54.3311 11.5047 17.2404 -0.818244 0.206913 0.15777
3971 13.7671 13.7041 17.3006 -0.394689 0.922231 0.467431
482 28.6352 13.1866 18.1012 0.0686661 0.377451 -0.0326205
745 30.8684 12.8864 17.2442 -0.727958 -0.873996 1.75209
1330 23.2899 14.9395 18.3187 2.27547 0.860238 -0.703712
2450 65.9487 16.5149 18.1991 -0.703914 -0.548705 -1.01034
245 65.1522 18.0703 17.7897 -1.04026 0.177483 1.21121
2135 46.4689 18.4738 18.277 1.79297 -0.350199 0.981522
177 33.6743 21.2199 17.4757 0.132314 -2.16476 0.00275575
2141 37.2656 21.3777 17.7461 -0.822272 -0.819794 1.63114
2795 61.6507 25.1756 17.6332 0.26924 -0.0750988 0.291848
1224 68.9231 28.2128 17.4304 0.960452 -1.39646 0.324509
3102 6.04536 28.4624 18.1375 -0.0173088 0.77444 -1.64052
199 32.9906 29.4572 17.4342 -0.209409 -0.0526497 -1.76803
308 13.9127 29.8856 17.7795 0.349351 0.546403 0.854357
3884 41.0643 30.4179 18.2753 0.10975 -0.710907 0.974243
3058 52.2168 29.7971 17.3738 1.49846 -0.150008 -1.80477
1889 63.8014 31.1136 17.8225 -2.37518 -0.168003 -0.192751
3780 19.105 31.4066 17.8382 -0.117024 -0.646421 -2.11382
3255 5.97656 33.4415 18.1792 0.900796 -0.97575 0.142622
2197 18.6835 34.2757 17.9249 2.09632 0.492833 1.47037
2610 21.0708 34.5393 17.8601 0.688406 -1.76098 0.874815
692 38.9779 35.0579 18.2216 -0.236419 -1.18836 -0.176908
767 60.4137 35.884 17.4461 -0.578428 1.4542 -0.0998808
3039 64.9922 36.7907 17.5444 -0.786699 -0.133861 -0.772449
219 36.7407 0.307226 18.5666 0.00210568 1.05337 -1.22771
3673 66.5518 2.62533 18.5574 0.81171 0.328824 -0.720889
1782 32.1762 4.22637 19.0966 0.794753 -1.51811 0.567893
683 64.7418 7.27875 19.3544 -0.968988 1.88731 -0.309159
905 6.16223 9.47429 19.6937 -0.602586 1.34486 0.05392
1518 0.436126 11.2057 19.8232 -0.497888 -1.64564 0.128172
2952 60.346 10.3065 18.8453 1.84918 -1.59202 -0.126772
577 60.2192 10.828 19.7624 -0.282815 -1.81155 0.566475
2574 34.5021 13.2829 19.622 -0.766635 1.28872 -0.807279
414 20.5013 14.7728 18.7033 -1.27319 -0.0895684 -0.564448
2597 29.1539 14.8392 19.353 0.174289 -0.640999 1.17644
3557 36.737 15.437 18.7558 -0.378704 0.183152 -1.3217
941 41.9749 14.8857 18.5596 -0.536937 -2.30878 -0.35755
2927 56.6615 14.9767 18.7597 -1.22866 0.746779 1.09523
3212 65.0228 18.184 19.0251 0.910322 0.513069 -0.335136
409 4.47096 18.8314 18.4279 1.2139 -1.35825 -0.963711
469 66.0371 19.0808 19.4375 0.428469 0.541549 -0.369959
3769 12.6378 22.0585 18.735 -1.93082 -0.541705 0.601686
3750 16.7368 25.2399 18.7274 -1.75625 0.87472 -0.584604
2960 29.8637 26.4218 19.3616 0.149489 -1.71706 -0.992644
1695 14.0149 27.5529 18.6582 0.00281968 1.15792 1.80874
761 39.0965 30.9991 18.4856 -1.94844 0.715344 0.272869
3722 39.8432 30.2956 19.8202 1.01605 -1.71344 0.549888
1041 62.7689 30.0105 19.7542 -0.342224 1.14933 0.633742
85 38.2358 32.48 19.0882 0.528425 -1.11711 1.45282
372 51.9952 33.802 19.0878 1.15914 0.627282 0.190079
3464 47.3876 34.7572 18.7903 1.51928 0.179341 0.494178
2413 61.169 34.9014 19.7834 1.11897 0.488819 -0.307285
1039 36.7789 0.29693 20.0824 -1.7522 0.428617 1.36315
2783 72.283 1.01658 19.8785 1.23813 1.3667 1.15829
3757 9.55722 2.34037 20.3162 1.37969 -0.505492 1.30125
2585 55.8761 2.06277 20.9941 0.323329 1.52947 -2.46578
2291 19.0866 4.14603 19.9378 1.3499 -0.239745 -0.441815
3870 35.4969 3.7611 20.192 -0.678997 -0.876373 0.29276
3829 54.0982 3.71682 20.1813 1.72574 0.929326 1.20995
1193 67.384 3.31212 20.5086 0.10214 -0.988044 0.385056
3921 48.9049 4.34805 20.4025 0.584336 0.465478 -0.274517
3511 47.7273 7.08683 20.3461 -0.255178 1.13175 1.1064
564 69.6543 11.2264 20.3829 -1.54954 -0.532762 -0.944268
1106 68.7362 13.9392 19.8927 -0.446677 0.859777 1.06316
1137 1.1168 14.7074 21.0106 -0.542805 0.50195 -0.5546