ITEM: TIMESTEP
52000
ITEM: NUMBER OF ATOMS
4000
ITEM: BOX BOUNDS pp pp pp
0.0000000000000000e+00 7.3680629972807722e+01
0.0000000000000000e+00 7.3680629972807722e+01
0.0000000000000000e+00 7.3680629972807722e+01
ITEM: ATOMS id x y z vx vy vz
1061 41.0301 2.78647 1.14631 0.166094 -0.191696 1.06854
1465 45.4766 2.22855 0.706687 -0.700746 -0.0149294 0.0336789
224 53.5764 2.1076 0.39019 -1.99966 -1.1845 0.741647
629 59.704 3.09664 0.424953 -0.499595 0.991939 2.32201
3463 0.413586 4.61709 0.611775 0.827419 0.292328 -2.32678
2817 58.6506 4.50597 1.3864 -0.368623 0.417159 0.0464223
2066 61.1952 4.63345 1.05364 0.321817 -0.220379 -0.841618
2951 69.1474 5.34361 0.532083 0.833957 1.19729 -0.820484
2709 22.5544 8.26641 0.219554 1.17183 -0.145946 1.08299
1658 25.0576 7.36684 0.0153846 -1.08753 0.53243 -0.405603
2999 55.0589 10.2855 0.0823596 0.623119 -0.687062 0.0932587
1125 58.49 11.0083 0.0666908 -0.308672 -1.38229 0.418635
2564 52.1565 15.1467 0.305936 -1.31673 -1.52469 -1.62054
946 54.6869 14.8794 0.0171088 1.50954 1.92582 2.04683
1083 67.0273 15.9919 0.387377 1.3428 1.20421 -1.13668
1363 35.1116 17.4517 1.05672 -0.271991 0.191336 -0.302127
2276 57.1082 18.0395 0.237046 -1.36922 -0.764247 -0.802854
1630 61.4734 17.7354 0.954281 0.222917 -0.643091 -0.819353
112 37.6307 19.1317 1.29509 -0.836557 -0.954611 -0.534012
2397 57.9431 19.175 0.738025 0.222672 0.312389 -0.473539
1458 4.21629 20.5591 0.876876 -0.177506 0.383711 0.228303
709 37.0722 22.2973 0.542035 -0.224722 0.455248 -0.0420887
3783 7.86966 22.8013 0.238022 0.419298 -0.9734 0.00227053
3426 57.624 23.2895 0.279947 -0.0922152 0.922391 -0.285438
705 33.1587 25.0495 0.555669 -0.139188 -0.192418 0.768216
599 9.3414 28.4977 0.474795 -0.838546 -1.73705 -0.506534
2667 37.7732 28.547 0.359291 0.104647 -0.084192 1.08573
1430 24.5907 30.4299 0.672635 -1.66496 0.0362036 3.92151
1215 33.7663 29.823 0.694813 -0.290386 -2.07432 0.0296219
147 71.8468 30.1879 0.404638 -0.433807 -0.250831 1.13498
3020 0.338691 31.7883 0.224332 -1.42879 -0.362804 -1.77708
2676 14.2591 31.8382 0.139783 0.353103 0.923913 1.03278
3763 13.6652 34.8604 1.34179 -0.050046 0.785252 -0.701188
801 39.8574 35.3683 0.50583 0.32029 -0.847677 0.36222
3684 18.8917 35.7034 0.655577 -0.725723 0.132736 0.318921
1500 27.0366 0.207064 2.40645 0.9354 0.885328 -1.52652
517 20.2132 4.24117 1.80501 0.906424 -1.92297 1.44217
1289 48.2316 2.90128 1.68282 -1.0508 -0.936777 2.45026
3147 58.5415 2.97732 2.07102 -0.158112 -0.442014 -0.906381
706 5.35522 4.34677 1.95913 0.322134 -0.45448 0.550566
3942 57.2344 4.80858 1.88044 0.472758 -0.208428 -0.183351
3331 3.4024 6.03325 2.51072 -0.553534 -0.142718 0.436748
2463 7.61775 6.36534 2.27297 0.865924 0.266504 -1.25153
2586 41.195 6.73059 2.37294 -1.07473 1.23302 -0.706973
1138 49.8671 6.91863 1.54323 1.88272 -0.259869 -0.356335
803 55.6244 6.2268 1.53747 1.72642 -1.42759 0.481192
3917 67.8329 9.09049 2.62485 -2.42222 -0.31609 -0.80774
2387 28.5072 10.5153 2.54336 -0.650381 -0.265881 0.176155
90 32.9037 10.8924 1.65851 -1.13693 0.222416 -0.627148
2904 11.2818 13.4764 1.83403 1.2142 -0.0686324 1.7053
3732 56.8869 12.8737 2.48697 0.804009 0.762059 -0.229669
1126 4.57227 14.8999 2.81201 -0.486201 -0.159778 -0.939718
650 23.9101 14.1886 2.67908 -0.480858 0.212446 -0.353783
2628 43.9486 14.4647 2.73303 -1.7567 0.117103 -0.338784
242 68.0423 14.643 1.59831 -1.15846 -0.319581 -0.97697
1530 6.14323 15.597 1.74909 0.311845 0.297373 -0.831844
3870 48.6023 16.3552 1.89545 0.0133213 -0.00316646 2.17084
2301 23.9752 17.1475 2.70472 0.170291 1.13117 -0.338827
1024 24.2846 17.8816 1.67135 -0.452638 0.145628 0.628922
1821 29.6505 20.5002 2.02866 0.319683 -0.0348698 -1.33075
1593 56.5125 20.9252 2.73348 1.78648 0.648458 1.04872
1262 60.4506 19.8676 2.75839 -0.228112 0.377079 0.62778
2453 68.5889 20.5222 2.51484 0.0842041 0.420019 0.59153
1440 1.08646 23.7887 1.75394 -0.645078 -1.55703 -1.08997
1525 33.2918 24.0235 1.67028 0.0932611 -0.0947248 -0.454632
775 2.15267 25.545 2.32979 -0.213484 1.47556 0.708859
1410 22.3498 26.4831 2.15266 -0.132666 -0.294315 -0.123586
3316 36.515 28.2327 1.454 -0.800283 0.467952 -0.70883
3776 21.3849 29.6211 1.5398 0.0618251 1.04773 0.756427
3551 22.3209 29.1507 2.1211 0.11117 -0.293629 0.838218
2779 68.2662 28.3501 1.93597 1.13963 -1.3238 -0.274386
2078 45.5633 30.2851 1.76709 -0.631854 0.573671 -0.933305
69 58.0135 31.1291 2.76861 0.312876 -1.36081 -0.465379
1412 27.5366 32.9734 2.02566 -0.861691 0.373044 0.0654277
3181 55.3913 33.2722 2.39945 -0.113613 0.428457 0.480825
1498 66.1614 34.4967 2.49038 -0.463445 0.499255 3.07137
3 6.89951 36.0809 2.40448 -0.316139 0.705553 0.538123
2948 9.6819 35.7151 1.74088 -1.25049 -0.911612 2.38623
3119 35.9195 35.9269 1.91215 -0.505858 0.455412 -0.625699
2040 42.8461 35.9046 1.55545 2.58622 0.203097 0.401026
1590 47.516 36.6482 1.61137 -0.0338878 1.12898 0.337048
1706 24.5668 0.607656 3.97007 0.375907 0.223562 0.292734
1707 41.5823 1.24233 3.11006 -0.0887876 -0.119808 0.759989
1516 70.7737 1.19796 3.78613 -0.483833 -1.00658 -0.0133876
2849 49.9872 1.56434 4.07252 0.377447 -0.808312 0.456597
842 69.9085 2.74697 3.60724 0.704964 -2.18602 -0.308545
3075 18.6878 4.67313 2.85555 0.555198 0.887747 0.17868
3503 39.1157 4.72484 3.45372 -2.25102 -1.06944 -0.638878
2544 68.5619 4.92913 3.73881 1.4504 -1.0941 -1.00313
3151 55.3396 6.62964 2.86038 0.0200104 -0.373419 -0.871785
3366 58.1391 7.13814 3.38402 -0.187063 -0.00313766 0.252104
2466 0.80381 8.68583 3.62878 0.452452 0.130476 0.0960484
1828 10.4432 9.29962 3.46345 1.58616 -0.485393 -0.182126
2137 29.3247 9.64894 2.90504 -0.958441 -0.995781 -0.13931
1622 15.0339 10.663 3.80771 1.20227 0.333262 -0.47491
3015 66.1502 11.0982 2.91321 0.430765 -0.0946257 -1.44025
1395 17.0954 15.5785 4.02541 -0.0115263 0.274402 -2.01459
3393 68.1984 15.0358 3.16929 0.0257235 1.27077 -0.228937
235 22.689 18.2633 3.30101 -1.38543 -0.691986 -0.598599
1929 45.9512 19.4616 3.24668 0.781053 -0.981412 -0.208993
120 19.2246 20.8732 3.8727 -1.23751 -1.23162 -1.70632
2123 32.6939 20.7985 3.67603 -1.71221 -0.531568 -1.17019
402 36.6544 20.8229 3.10329 -0.84134 1.582 0.288023
3710 37.2096 22.6081 3.93635 -1.22612 0.725629 -0.130572
1898 32.6188 22.8427 2.86063 1.33411 -0.751316 -0.0415787
2049 34.4206 23.308 4.12431 0.164234 0.139552 0.929917
532 63.9521 23.075 3.87066 -0.553161 1.83225 0.0366573
2352 68.5474 24.4984 3.64435 0.322542 0.573143 -0.614062
1343 72.9786 24.7033 4.02654 0.628985 -1.13682 -0.034769
2449 0.982024 25.7166 2.9575 -0.620505 1.17867 -0.165655
1659 20.2499 25.736 3.97623 0.47469 1.41581 0.352555
2837 28.5944 27.1944 3.56239 -1.23354 0.369066 -0.163949
2946 68.2006 28.2453 3.74012 -1.84108 -0.718066 -0.965043
3372 14.5149 29.1343 3.87891 -0.0113793 0.317223 0.780261
3153 62.548 32.0775 4.02162 -1.73883 1.34583 -0.600116
3361 53.3707 32.7575 3.51234 -0.927255 0.383182 -1.06124
3771 47.6472 34.797 4.03093 1.92965 -0.158065 0.0689443
2871 70.7471 36.6218 4.06852 -0.53049 -1.57452 0.251884
2937 66.0995 1.34431 4.29373 -0.15404 -1.48541 1.47291
330 5.61995 2.51777 4.88238 0.456312 0.0648925 2.09035
2524 29.8879 2.66326 5.27825 -0.401465 -1.2557 -0.200741
273 52.1163 2.0323 4.70164 -0.430583 -0.597131 0.566942
2285 5.25909 4.31852 4.53141 -0.254939 1.63849 -0.1165
989 14.4148 4.54683 5.08316 -1.50804 -0.272299 -0.0264741
3821 17.5372 4.63994 5.41924 1.17203 0.638023 1.89741
2548 56.4106 4.74156 5.0495 -0.495381 0.914135 0.420391
1560 72.1519 4.32714 4.40793 1.38126 -0.188999 1.47858
2791 35.6201 5.84586 5.3498 2.95297 0.417845 0.3271
1362 54.9155 7.57093 4.33668 1.77171 1.11861 0.883296
1481 13.4601 10.6473 4.85063 -0.604065 -0.184491 -0.164903
749 15.7031 11.0763 4.72455 -0.902682 1.6278 0.59882
500 57.9406 10.7806 5.65105 -1.21075 1.79288 -0.0424803
1631 50.9729 11.4108 5.50568 0.0304984 0.442336 0.167582
137 19.3404 13.9577 5.33321 0.718238 0.446984 1.57064
3310 30.6741 13.4126 5.01632 1.46366 -0.741212 1.03201
1705 59.3699 13.3025 5.26189 -1.20962 1.63674 0.379629
543 28.0351 15.4653 4.57927 -0.472041 -0.168035 -1.28995
198 35.2916 14.3981 4.28693 -1.89716 -1.02295 0.129032
1561 4.1697 17.1654 4.68175 -0.025873 0.655332 1.84074
3947 9.12791 18.0937 4.43899 -1.31377 -0.650347 0.76539
3455 58.7639 17.1354 4.87329 0.276473 0.826021 -0.372995
1250 59.9141 17.1172 4.39358 0.300185 1.77747 1.48019
3683 26.2949 19.6162 5.64451 -0.118463 1.13712 0.475867
901 27.3074 18.7217 4.83172 -0.502041 0.384177 -1.44373
2736 58.5933 19.2181 5.47148 -0.246493 1.13126 0.389958
2343 60.4767 19.1389 4.85948 -0.955554 -1.08225 0.867335
1346 71.3297 19.3502 5.27615 1.27587 -1.18045 0.986594
2772 2.40281 20.6272 4.61092 -2.58905 0.568155 -0.588898
1386 30.0445 20.0869 5.01644 -1.78074 -2.53202 -0.834179
3838 0.192967 21.7105 5.66624 1.98917 -0.135377 1.36591
85 25.5027 24.7902 5.2859 0.441743 -0.878471 0.497285
1169 47.147 24.7165 5.45583 -0.689375 1.31591 -1.36344
2043 44.9376 26.7079 4.49146 1.04437 -0.2303 0.994471
1221 48.7617 26.3936 4.58103 -0.088674 0.735198 0.483412
1697 50.1535 27.2573 4.60187 1.37641 0.338836 -0.346187
3808 8.30912 29.0776 4.99583 0.486264 1.30634 -1.10455
3165 9.52646 29.7392 5.36239 -1.46227 -1.05512 0.236293
3876 41.6616 29.6803 4.70078 1.02473 -0.559789 -1.21905
3730 4.01857 30.554 4.94246 -0.896622 -0.53195 0.76019
527 45.8911 31.1552 5.11657 -1.18647 -0.116885 0.922924
3721 61.2261 30.8872 5.31385 -0.703509 0.948191 -0.856878
61 8.93214 32.1279 5.48988 0.459185 0.0142411 0.0951661
3368 65.6375 31.901 5.0174 0.825903 -2.10875 -0.343419
172 58.7577 33.9809 5.00237 0.209072 -1.08327 0.0843088
2832 52.9085 35.351 4.37869 -0.285998 -1.27647 0.44244
2692 58.2806 0.871449 6.83803 0.266143 2.09283 -1.25557
131 21.6696 2.68274 6.55608 -0.426045 1.50234 -1.79198
2300 46.2472 1.67808 5.78995 1.93996 -0.805314 -1.72117
1625 17.4522 4.25054 6.62672 0.877658 0.691246 -2.54094
3005 44.5977 3.3367 6.74656 -1.53518 1.01477 -0.562386
2221 53.7066 4.00719 6.48357 0.814923 -0.672128 -0.270629
3588 2.29261 4.3842 6.24376 0.521017 -1.30108 0.895742
1134 11.8529 6.97408 6.19654 -0.433218 0.68641 0.624215
3127 16.3053 6.29793 5.98801 -0.807658 -0.163556 -0.833435
3129 13.3148 8.39405 5.97559 0.772273 0.137014 -0.228182
2850 36.1585 7.73904 6.72145 0.515349 -0.292773 1.05975
851 10.1903 8.6372 6.79922 -0.404574 0.991441 0.806956
1177 21.699 9.78765 6.28837 -1.48589 0.122769 -0.803973
12 70.0405 9.31269 5.79522 -0.439496 0.841369 -0.974787
853 50.6831 12.452 6.64327 0.313215 0.686061 1.38341
1797 49.8709 12.8995 5.93212 1.78477 -0.44702 -1.38294
280 17.078 14.8836 6.51807 -1.32549 0.145138 0.976358
3131 38.0505 14.6417 6.13941 -1.96092 1.43526 -1.76121
188 21.2545 16.1141 6.51647 -0.184862 0.129156 -1.12237
1791 29.2512 16.8422 6.27678 0.639367 -0.811591 -0.0294276
3271 62.2614 16.9885 6.03118 0.626985 0.821237 -0.195301
969 17.5935 17.0997 6.40754 0.484213 2.03734 -0.55919
3885 32.7942 17.24 6.60722 0.157078 -0.213652 -0.525091
2725 7.68893 19.3519 5.75206 -0.401395 -0.320428 -0.0357401
1770 62.8175 18.5076 6.98755 -0.122542 0.0779508 -2.78933
673 36.5475 19.9863 6.14652 0.850162 0.266726 1.57988
1099 72.7017 22.6053 6.13951 0.0287638 -0.688967 -1.45738
150 4.84614 23.2681 6.24717 -0.710695 0.179746 -0.507522
3884 21.0566 22.9227 7.00971 0.506731 1.14221 -0.67311
2047 22.5255 26.4299 6.38451 -0.493483 -0.730455 0.6954
3923 46.2547 26.8058 6.56293 0.974636 0.631917 -1.54007
3443 27.4891 28.7689 5.77278 -0.545246 -0.877789 -1.47508
423 34.2734 30.7948 5.90322 -1.32063 -0.347429 1.21743
818 7.97713 33.4181 6.65445 0.0773163 0.892936 0.286847
671 58.2427 33.9739 7.07943 -0.740532 -0.00344009 0.887423
2962 38.0255 0.537061 7.94372 1.66638 -2.00749 0.562192
1897 69.1763 1.04645 7.67135 0.613818 -0.647534 -0.833953
962 37.9972 3.26376 7.73646 -0.851952 2.01051 -0.217724
2484 4.34907 4.98695 7.81607 0.546141 -1.34541 1.96355
735 21.3689 4.46496 8.35125 0.281644 0.121588 -0.359797
2016 63.953 5.34328 7.69785 -0.0988299 -1.71568 -0.224808
1248 0.659887 6.23434 7.38134 -0.182858 0.981125 0.226195
1618 31.3343 8.38834 8.25483 -1.56038 -0.040757 0.795089
1639 65.0085 7.62044 7.74159 0.362487 -0.971661 -1.13145
2384 21.7747 10.9816 7.67418 0.435556 -0.280643 0.146992
42 2.8666 12.0884 8.4555 -0.395585 -0.313705 -0.105973
1902 14.6886 11.7008 7.73694 -0.582248 0.340893 1.30241
1211 51.7959 12.1005 7.37925 -0.598718 0.208527 1.49455
1973 54.3095 11.7766 7.39764 0.431517 0.0371953 0.0466866
1333 57.7615 13.3696 7.14064 -0.27489 -1.90632 -2.22712
1305 66.0172 13.9151 7.15165 0.0465532 -1.32502 0.459011
3276 35.3852 16.256 7.38345 0.375587 -0.172476 1.20669
820 37.1466 16.8836 7.58576 0.910375 -0.0106386 1.70288
1254 30.754 17.8442 7.49645 -0.525509 1.4189 -0.71948
3752 12.3711 20.3367 8.00717 -0.117983 1.85277 -1.17702
2361 15.2255 22.0525 7.45567 -0.998194 0.684087 -0.834557
2798 40.7124 21.414 8.01361 0.362902 -1.64729 -0.827009
3592 10.2525 25.2037 7.92109 -0.459706 0.702348 0.900339
3072 23.5179 24.4531 8.45649 -0.390877 0.130262 -0.585289
354 41.3553 24.9976 7.91464 0.127743 0.0250642 -1.21278
3931 39.8624 26.8369 8.39855 -0.260802 0.290736 -0.612263
535 67.6434 26.5474 8.43672 -0.152665 -0.515437 -0.780996
3540 70.0744 26.6045 7.20952 0.348499 1.26435 1.80307
1152 24.0413 27.7446 7.65617 -0.238308 0.952716 0.273518
2180 28.8763 27.9829 7.56978 0.60958 -0.627395 0.484663
453 10.0179 28.8792 7.87542 0.339907 0.14495 1.55358
1259 8.08957 30.3506 8.03282 0.140241 -0.667671 -1.69835
189 57.336 31.2112 8.03354 0.101481 -0.174258 1.58922
1841 15.9981 33.9271 7.86501 2.46214 -0.647819 0.354349
313 23.6604 34.8305 8.15193 -1.49134 -0.730248 1.10847
790 14.0036 0.192809 9.87556 -1.25742 -1.05931 -0.752842
856 22.6961 1.2044 8.73472 -1.34578 -1.12732 1.68414
243 1.50934 1.63476 9.46382 0.13918 0.072488 1.56407
2668 4.36318 4.12122 9.71024 -0.880426 -1.66305 -0.517817
1217 11.3992 4.18017 9.41276 0.0434453 0.318845 0.230423
1982 63.4131 3.64827 8.63 1.70122 0.452273 0.459771
672 2.37251 8.14467 8.76512 0.053107 0.0593814 -0.287866
1840 44.2292 7.16452 9.00855 -1.74 -0.0365307 0.392415
2005 63.7258 10.0692 9.54036 0.37046 -0.427833 0.545104
1428 15.8941 12.2532 8.92429 0.0884685 -0.13734 0.292147
1928 47.4933 11.972 9.68256 -0.718322 -0.293911 -0.421134
2488 16.5355 13.0273 8.61956 0.160296 0.925309 -1.19517
2127 46.2973 15.3846 9.90725 0.245849 0.891109 -0.382974
356 69.3428 16.8901 8.57773 -1.38515 0.228052 -1.85043
144 14.1606 18.4154 8.81988 0.874964 0.12818 -1.44693
1899 64.3183 17.2247 8.85176 -0.497406 1.40201 1.44479
3993 35.7852 18.5961 9.5196 -0.29638 1.50382 0.199963
3696 22.6335 20.036 9.22117 0.98606 0.515268 -0.145629
3182 71.2405 21.9633 8.9308 0.360765 -0.0692905 -0.812524
2881 31.9671 23.4776 8.52858 0.0801538 -0.414686 -1.25223
3222 34.1384 23.7825 8.81854 0.992463 -0.521987 0.438229
239 73.4431 23.7072 9.20194 1.31982 0.95166 0.366077
3022 9.64253 24.4725 8.69286 -0.0243256 -0.383265 0.54183
2244 8.70665 25.0385 8.79244 1.56515 -0.599085 -0.274782
3922 22.0486 27.468 9.23709 -0.554901 0.0409669 0.377604
2160 73.6369 27.8423 8.69106 -0.716605 0.789803 0.450818
3018 9.03659 29.4038 9.78024 0.702441 -0.474433 1.36369
1699 43.8757 28.8155 9.86267 -0.425941 -1.29623 1.05521
2803 43.8149 30.246 8.88406 -0.299077 -0.912327 0.0922385
3559 54.1086 30.8959 8.8665 -0.731974 -0.223166 1.01215
1677 14.1022 32.6261 9.31704 0.419664 -0.106492 -1.00022
3496 19.4406 34.3178 9.77465 -0.607391 -0.93834 -0.515303
1164 20.582 34.4847 9.58569 -0.881176 0.0405594 -0.18627
474 56.5779 34.7129 8.77231 2.75235 -0.888932 0.683065
3466 21.0574 35.473 9.6242 -0.0855685 0.669742 -2.98404
1176 6.33282 0.198545 10.2749 -0.370503 0.357805 0.0260968
1946 68.9478 1.35596 10.9547 0.768901 1.65791 0.338655
2130 50.4586 2.15951 10.9403 0.101768 -0.521709 0.983774
3622 58.0481 3.04236 11.324 -1.25801 -0.87363 -1.64649
3208 61.8983 6.70061 9.98527 -0.458977 -0.62257 -0.0815795
2243 72.4418 6.36897 10.5302 -0.297729 -0.927384 -0.564234
702 17.2395 7.55089 10.5553 0.698626 -1.3698 0.982175
627 30.5751 8.77062 10.6783 0.597131 0.648542 0.835906
3149 70.7402 8.74024 10.6408 0.548012 0.628062 -0.186691
2845 16.5642 10.045 10.0436 1.25669 0.439224 0.41854
2214 28.2779 11.0047 10.592 1.12169 0.491564 0.246841
3985 32.47 11.1915 10.8368 -0.123725 -3.70901 -0.325621
2624 49.8257 10.5652 10.1461 0.369802 -0.461935 -1.88676
2067 33.9119 11.5932 10.4093 -0.82023 -0.338339 -0.240611
769 51.7235 12.2301 9.99153 -0.398474 1.9361 0.205088
3673 55.8001 12.3022 10.7884 0.509498 -0.452052 1.0786
3447 54.0789 13.2395 10.1164 -1.51356 1.1734 -1.00763
3743 32.0533 15.8964 11.0325 -0.465508 0.548973 -1.28522
639 25.7994 20.2531 10.6477 -0.0314522 -1.79851 1.45666
595 1.90025 22.2771 10.5656 0.214839 -0.734246 -2.1262
760 3.218 21.3973 10.0829 -0.432032 0.56146 -1.11153
322 17.7547 21.4511 10.6133 -0.192298 0.217927 -0.282512
3989 43.3964 22.3579 10.66 0.775761 -0.207694 0.275386
3404 35.7513 25.2426 11.2678 -1.0134 1.41197 -0.476721
530 59.3567 24.6864 11.0295 0.385991 1.56074 1.88043
2766 69.9364 24.2163 10.6582 -1.18205 1.63081 -0.598477
2247 15.0719 26.8833 10.8809 0.23188 1.25226 0.0645518
3569 22.7788 28.2396 10.4373 -0.147703 0.675309 0.0402931
1042 47.0012 31.0785 10.8516 -0.693744 0.657053 -1.22648
463 50.5647 30.672 11.0464 -0.586109 -2.57486 -0.331475
201 54.1838 31.515 10.1599 0.306589 -1.30243 -1.58253
1778 56.671 31.8463 11.1265 -0.780791 0.350928 -1.01444
119 61.358 31.3939 11.3159 0.178628 0.553181 -0.171016
3759 30.4218 34.6765 11.2116 0.66347 -0.113659 -1.43782
879 62.0407 34.657 10.5726 -0.478961 0.704429 0.413357
2439 38.7277 36.5146 10.0148 0.933981 0.149943 0.097057
1801 13.6982 3.27302 12.2168 -1.80357 -0.817279 0.79087
1155 26.9634 3.37771 11.9947 -0.821056 -1.03775 1.49821
2072 44.9317 4.23217 12.657 -0.561209 -0.0205038 -0.558255
2921 70.278 4.18631 12.7316 -0.677027 -1.20331 -0.577697
2238 72.1585 3.33245 11.7077 -0.457031 0.726802 0.273327
1853 1.64082 4.61672 11.578 1.44195 -2.64807 1.47194
707 12.4711 5.32712 11.6247 -0.133806 -0.722872 -1.12063
1809 40.331 4.36461 11.4822 0.991545 0.556617 0.595646
589 53.3139 4.58161 12.2408 -0.266986 1.40295 1.05283
1291 31.5688 7.00853 12.3222 1.22933 -2.2016 -0.250099
2833 36.7645 5.73491 12.2532 0.480731 0.975719 -0.25117
910 64.4622 8.69111 12.4504 -0.138375 -1.4277 -0.0275331
340 39.1049 12.4948 12.2257 0.95147 0.370855 1.19888
45 4.81328 13.5147 12.2015 0.0232136 0.634499 -2.22909
2632 9.87467 13.6525 12.7225 0.509802 -0.966687 0.256136
281 60.6979 14.7703 11.9609 -0.851365 0.964543 -1.24717
94 67.4426 14.7911 11.9785 1.31025 -1.80143 1.10422
1181 2.42446 16.3546 12.1898 0.291708 0.472871 1.36644
956 10.6119 19.8245 11.7694 0.0046871 1.05216 -0.109709
3156 10.4088 19.1228 12.4786 -1.22506 -0.257162 -0.869621
2516 16.169 20.6302 11.8316 0.193133 -0.158509 -0.916108
1753 16.6554 21.9112 12.4279 1.04058 -0.402572 0.927975
3124 71.5493 23.7717 12.16 1.47554 0.277234 -0.654618
3788 63.9865 25.2352 12.7188 -0.579829 0.610863 -1.67816
1480 64.7793 24.7103 11.8573 1.06679 0.767165 -0.268334
2916 69.8062 25.5738 11.6733 -0.244778 0.0818054 -1.33083
1236 29.775 27.5447 12.0142 -0.553821 0.662459 0.764054
3320 33.1294 28.165 12.7041 -0.24215 0.548163 -1.13278
3192 35.7616 27.7759 12.0177 -0.754777 0.264889 0.0774353
859 60.1726 29.294 11.5544 0.191536 1.58794 1.01611
2136 50.2224 30.2336 12.2775 0.286878 -0.919245 -0.11138
1361 65.4984 30.8757 12.2731 -1.42662 -0.071892 0.282555
3533 1.95132 32.4993 11.4354 -0.132648 -0.118077 -0.282998
2248 33.2763 32.647 12.372 -2.16459 -0.4597 -1.08211
84 27.6794 34.1103 12.4101 1.80671 -0.516716 -0.154913
536 48.5953 34.9092 11.341 1.71223 -1.57417 0.586817
968 3.89612 36.4783 12.6425 1.31303 1.62706 0.305055
2756 33.2596 0.89868 12.8183 0.675512 0.626047 -0.420234
1056 43.3102 1.05007 13.8478 -0.417864 1.53684 -0.276415
3111 39.5536 2.31633 13.8741 1.975 0.465992 0.53418
3904 9.19983 3.34065 13.1986 0.854234 0.525256 0.908316
2807 31.9424 4.37425 13.5564 -0.289119 -1.09327 2.57579
1330 58.7143 4.43401 13.4253 -1.79138 -1.63144 0.800252
703 46.1826 6.53746 13.5252 0.182137 -0.067295 0.653551
1738 65.3538 8.52517 13.5395 1.01646 0.40016 -0.679741
1360 14.1965 10.7496 13.6372 0.699656 -1.56836 -0.734912
3060 20.259 10.5938 14.1427 0.892645 1.90411 0.0281753
1163 57.2692 10.4986 14.1088 1.06313 0.821017 0.958137
3604 62.5315 11.206 13.1334 0.181349 -1.01838 0.70951
704 10.0042 12.0784 14.0541 -0.430624 0.351438 0.540301
2852 32.8817 12.194 13.2132 0.0892069 0.784606 0.501751
2728 56.3993 13.072 14.0746 1.37346 -1.14538 -0.535669
2868 55.7002 17.6257 12.9892 -0.113774 0.0923123 0.385574
3589 7.66413 19.4971 13.1594 0.644514 1.23208 0.145933
308 9.43262 19.5214 12.8605 0.415747 -0.141125 0.26974
435 64.8324 18.4931 13.8862 -1.53796 0.633413 -1.14444
2375 53.0002 19.9565 12.7564 -1.84508 -1.07963 -1.58968
1691 56.6335 19.903 13.4836 0.810603 0.889534 0.0488232
888 45.6355 22.1285 12.8521 -0.950211 -0.356563 -1.08321
1651 1.82666 23.0248 13.1966 0.969887 -0.655963 0.768093
24 27.4938 23.9873 13.7223 2.00803 0.875487 -0.209325
1241 70.6344 25.2549 13.1837 -1.70732 1.87068 2.10189
2429 12.2587 26.8055 13.8216 0.384977 -1.31679 -0.961266
2712 15.4535 26.6654 13.6547 -0.752348 -0.274695 0.695294
1204 29.0342 25.6928 12.8938 -0.413368 1.26456 -0.9152
1349 51.6155 25.6981 13.1007 -0.303608 0.543334 0.303887
87 57.3604 26.0083 13.4375 -0.568602 1.07464 -0.378811
2190 28.5502 29.0248 12.849 -0.416918 -0.190145 -0.170899
3688 37.9912 30.6363 13.3406 -1.39302 0.236503 -1.18628
1201 71.9363 30.1705 12.7949 1.73201 -0.318615 -0.146221
196 21.7406 32.2615 12.9421 0.55562 1.59301 0.106977
667 49.538 33.4754 13.5238 -0.545205 -1.00071 0.450361
1595 63.9334 33.9467 13.3377 -0.0305517 -0.164686 0.616381
3510 17.4538 35.0973 13.8439 0.763353 2.18781 -0.135351
2795 64.7998 34.5449 13.5543 0.58277 -0.547869 -0.808565
1554 18.9312 35.8578 13.6424 -0.238267 -1.25677 -0.197391
1235 27.8807 35.612 13.2982 0.0677 -0.215714 -0.494505
689 53.421 36.3938 14.079 -0.0622757 0.270267 -0.797047
129 45.8317 0.676323 15.2172 1.16221 0.233778 -0.457244
3357 58.532 0.219339 14.2387 1.7853 0.0222582 -0.947579
3234 71.1643 2.21051 14.9939 -0.0789634 -1.38663 -0.551645
482 28.8629 5.51509 14.5631 -0.456985 -0.0224572 -0.146722
1118 43.4134 6.18765 15.552 0.643783 -0.914531 0.112283
2260 69.9723 6.122 14.3894 -0.0322729 1.30234 0.586298
63 3.22479 7.22566 15.4333 1.37959 0.729859 -1.62684
727 26.8604 8.1886 14.175 -1.27151 -0.185239 1.78577
2428 26.0491 7.40645 15.1008 0.512092 -0.352068 0.254522
3671 53.1201 8.17857 15.0266 -1.27251 0.980975 1.31353
326 13.7976 10.6229 14.7461 1.01575 -0.292954 0.350221
3029 29.336 10.1489 14.9381 0.0715294 -0.135192 0.250176
2290 38.7216 10.1179 15.1244 1.69516 -0.567072 -0.0880187
351 63.2062 12.328 14.8898 -1.16211 -1.5099 -0.712541
3090 59.5803 14.3933 14.2245 -0.495386 1.08889 -0.418151
2589 22.3436 17.377 15.1764 -0.159029 0.525404 -0.195078
1427 32.5924 17.6123 14.4088 -0.711164 -0.321376 -0.105892
36 51.6922 18.2219 15.1108 1.72598 0.16108 0.552823
2575 3.02252 19.1507 14.7744 -2.501 -0.646691 1.12031
3487 46.1483 20.2531 15.0303 1.23967 -0.0568835 -0.214094
2611 68.8619 20.8869 14.2091 0.401835 -1.14892 -1.02675
1878 60.1159 21.401 14.2165 0.183697 0.713648 -0.389468
3635 65.5342 23.3798 15.0575 -1.57821 -1.72629 -1.07925
2858 5.04057 25.3325 15.3024 -1.47875 -2.04492 0.402812
1104 28.5555 25.3074 15.4385 0.423474 0.214882 1.0633
1587 40.72 24.6673 14.7456 -0.215922 -0.24305 0.0822637
3587 56.5771 25.317 14.5603 0.480842 1.25593 -0.515816
3836 63.2138 25.3962 15.5761 -0.957848 0.870765 0.928952
3229 1.46767 28.211 14.4597 -0.218904 -1.0027 -0.0234005
3971 23.5191 26.9275 14.629 -0.436969 -0.779719 -0.0734612
3953 53.6828 31.8546 14.5217 1.30512 0.22139 -0.0699553
1091 12.6148 33.4106 15.0035 0.00549128 -1.11467 -1.01751
1810 33.1404 33.9697 14.608 -0.23471 -1.23975 -0.981414
718 63.1375 33.6985 15.3794 0.158285 -1.76414 1.52226
1184 31.5208 34.2572 14.6672 -0.63405 -0.706227 -0.431982
2517 65.4636 35.2803 14.2552 -0.826691 0.140633 -0.599256
2995 60.9972 35.9526 15.4503 0.637245 0.884297 1.38364
3122 66.614 1.96776 15.6781 -0.440851 -0.622123 -0.298797
3190 4.63496 3.24253 16.3838 2.24699 0.46232 -0.703751
3286 14.8204 4.42992 16.8128 -0.212673 0.953184 -1.3204
3525 25.0411 4.60489 16.3122 0.303289 1.16848 -1.08163
2527 30.7004 4.88199 16.6364 -0.208178 0.196709 -1.36912
2554 37.4402 5.14967 16.1223 1.05514 2.0195 -0.0528829
2897 58.4494 5.05245 16.9404 -1.21445 0.597064 -0.785243
2334 52.1832 7.0628 16.0078 -1.14135 0.64459 -0.496826
2764 51.0761 7.03218 16.0237 -1.29671 -1.44735 0.417074
1661 3.98718 7.90764 15.9285 1.22901 0.388473 -1.39152
1780 24.6183 7.16082 16.0384 0.0454016 -1.13538 1.38062
2347 33.694 8.46288 15.9623 -0.785206 0.170187 1.33235
3184 15.2043 12.3935 15.9239 0.174443 0.336473 0.901554
3620 28.1546 11.7059 16.3488 -1.92666 0.116619 0.350579
3641 11.1958 13.4904 16.9423 -0.965638 1.77303 2.50719
2424 43.4713 13.6607 16.551 -0.181631 0.536375 -1.60961
133 17.1439 14.7424 15.9201 -0.348836 1.73683 -0.754617
913 36.2949 14.5852 15.6818 0.543215 1.77981 1.10913
1562 56.4061 15.3067 16.3629 -0.770966 -0.550458 -0.904983
236 72.7542 14.2307 16.3657 -0.824414 0.887045 1.05835
695 21.8673 16.8222 15.88 -1.0978 -0.932769 1.91341
185 23.2512 17.2893 15.9451 1.89059 -1.70577 0.609573
1941 16.4962 18.4259 16.2256 0.689984 -1.70598 0.0746837
2760 37.9143 19.6041 16.4801 -1.72798 -0.627064 0.889622
329 20.521 20.5376 16.0335 0.434794 -0.0376561 -0.365841
1084 23.5913 22.008 16.1777 -1.53894 0.388258 -1.99022
321 37.8044 22.2577 16.6575 -1.04266 -0.259599 3.81599
3653 42.5986 21.9144 16.6368 0.352178 -1.35246 0.460933
883 13.0324 23.6819 15.7208 0.814926 -2.17905 1.07537
3117 39.7976 22.7647 15.6955 -0.867157 -0.973999 -0.782122
345 56.5802 23.8262 16.7567 0.656582 0.0219858 1.16916
1759 62.1957 23.8234 16.5494 1.62284 -0.699508 -0.578414
1600 34.0621 24.1536 16.4824 0.323256 -1.35692 -0.886676
430 40.2194 24.7426 16.1465 0.804831 -0.515236 1.37721
3966 1.49242 25.8247 16.8095 2.15913 -0.577546 -0.684743
3666 29.3597 26.0832 16.8878 0.0398366 -1.27719 -0.372961
2022 0.196236 27.5159 15.7557 -0.490543 0.556671 -1.54522
1686 17.5996 28.0927 16.7351 1.16022 1.13081 0.558774
1518 24.8123 29.0478 15.6488 -1.37674 0.0212586 0.454101
1327 22.6928 32.0348 16.4039 1.55756 -0.192556 -0.47073
930 32.8792 31.2597 16.6645 -0.123937 -0.52983 -0.180293
216 66.4541 33.8072 15.8805 -3.22411 -0.640751 0.700259
1961 13.9068 35.2494 15.8901 0.15354 -0.123495 1.59541
3395 37.5614 34.5119 16.7623 1.44899 -1.67365 -0.936446
3408 11.4495 36.6706 16.1515 -0.0282239 0.422649 -1.19379
2860 27.2781 0.693741 17.6177 0.868533 1.22463 -0.521175
1777 3.80477 2.61429 17.6091 -2.37227 -1.58036 -0.686292
1195 4.92529 1.55513 18.3029 -1.02242 2.13435 -1.08078
1619 41.4921 2.17779 18.2618 -0.545269 0.439078 0.373395
563 52.4023 2.51197 17.6029 -0.762597 0.678285 0.0711399
2036 64.9451 2.94714 17.0655 -0.0548926 -0.10036 1.60211
1550 27.1068 6.59304 17.1752 0.331002 0.475972 -0.749235
2889 46.4695 6.07745 17.055 2.38859 -1.92451 1.32852
2534 56.1413 7.23077 17.375 -0.00514085 -2.33808 1.5928
2478 50.0101 10.6252 18.2451 0.610194 1.27301 -1.00294
1511 53.848 11.7379 17.7049 -1.59383 -0.700143 1.31863
502 12.0519 15.8894 18.3778 1.48331 0.356585 0.0827648
3176 40.3951 15.9446 18.1728 -0.831689 0.307744 0.94254
2032 63.2569 15.6739 18.2773 1.03814 -0.797977 -1.92276
420 5.52423 17.7971 18.2504 -0.0331732 -0.565095 0.115524
3814 37.1098 20.7496 18.1068 0.0244404 1.21593 0.0297092
505 38.4276 23.0027 17.9974 -1.80957 -0.445599 -1.04772
2222 71.2054 22.7829 17.2584 -1.88283 -0.0667791 -0.131869
2918 63.5311 26.1652 17.5129 0.715284 -0.391061 -0.0292966
2976 36.9678 28.5172 17.4051 1.35092 0.973821 -0.0971541
572 46.4426 28.55 18.1651 0.381468 1.12611 -1.25321
3586 28.8795 33.9994 17.7716 -0.749607 0.146046 -0.952767
1832 29.9722 33.2035 18.0306 -0.259746 -1.59707 -0.122795
2142 17.413 36.468 17.5482 0.235491 0.150451 -0.365596
2155 14.2811 1.01962 18.7679 -0.443763 -0.329415 1.28171
578 47.476 1.33066 19.1765 0.405741 0.332684 0.371265
1573 40.9137 1.9006 19.5572 1.4784 -0.329402 -0.855141
3627 70.123 2.09928 18.4471 0.848212 -0.356018 0.0243331
1264 1.87455 3.0389 18.6401 1.22093 0.100068 0.496205
720 30.4426 4.14759 19.7948 -0.0688138 1.79854 0.706082
742 40.6197 3.43121 19.0639 1.52349 0.795275 0.0348009
807 5.53605 4.45887 19.52 -1.85582 -0.917426 -0.517144
2003 54.7403 5.52361 19.2664 0.647198 0.435787 -0.0487962
1825 53.5059 8.50131 19.5429 -0.0575957 -0.514797 -0.398398
3681 58.9412 8.47283 18.7972 -0.29289 0.75059 -0.449918
283 8.74087 10.6346 18.5849 -0.250861 -1.21748 -0.02376
986 62.5602 11.2272 18.6817 0.0689949 -0.932836 -0.51479
379 68.5574 10.6739 18.8053 1.22195 0.335557 1.06312
2608 56.6261 12.6283 19.2264 0.958522 -1.88743 -0.210349
2291 64.4593 15.4393 19.18 1.32803 -0.148557 -1.03869
3198 57.2302 16.8319 18.4224 0.444018 -0.516489 -0.494202
1782 5.59738 18.3092 19.0758 -0.5517 -0.426304 1.02324
1377 37.1797 17.1402 19.2833 -0.210519 0.40295 -0.661796
2528 42.4514 19.5071 19.8005 -0.265383 0.727759 1.37511
2063 43.598 18.9676 19.6531 0.663772 -1.52006 -0.565315
620 55.6147 19.4563 19.0854 -0.556872 -1.4778 -0.0103591
1826 29.1403 20.2039 19.0937 1.76915 -0.534931 -1.29397
924 41.3292 20.9947 19.5143 1.13958 -0.364582 -1.41263
3314 53.0638 20.5483 19.2408 0.276563 -1.1452 -0.705621
3009 39.0123 21.4638 19.7004 -0.208968 0.026576 1.32558
3396 41.4986 22.0887 18.853 0.0573273 0.0434697 -0.768336
3747 52.9883 22.1261 19.1014 -1.53995 -0.578566 0.588009
1632 12.2443 23.0797 18.5995 0.50342 0.160924 0.727536
3491 21.2474 23.3813 19.4751 0.104996 -0.335725 -1.60224
3477 37.131 23.4488 18.7726 -0.998043 -1.38348 -0.259557
491 15.2215 24.5139 19.8204 -0.913529 2.07165 0.20603
2830 69.0535 29.3245 19.617 -1.03336 1.08698 0.177495
2489 17.0809 29.8041 19.4065 -0.824056 -0.165739 -1.04195
3725 44.9231 30.3507 19.7264 0.472111 -0.825547 -0.300146
514 52.2292 30.0522 18.9875 0.942796 0.56067 -0.0871915
3652 6.95498 32.0348 18.4513 -0.659478 -0.801743 -2.26354
288 49.9654 33.5132 18.575 0.139045 0.286522 1.37673
206 1.61157 34.6595 19.424 -0.23802 -0.0381761 0.37465
259 10.7729 35.0927 18.9353 1.21729 0.0822232 -0.0601127