ITEM: TIMESTEP
71000
ITEM: NUMBER OF ATOMS
4000
ITEM: BOX BOUNDS pp pp pp
0.0000000000000000e+00 7.3680629972807722e+01
0.0000000000000000e+00 7.3680629972807722e+01
0.0000000000000000e+00 7.3680629972807722e+01
ITEM: ATOMS id x y z vx vy vz
3732 22.0176 0.945241 0.941666 -0.0673742 1.62432 -1.42837
12 62.6075 2.09463 0.963895 0.863562 -0.996685 -0.478105
79 42.881 5.47171 1.2501 -1.84309 -0.63973 0.443115
3542 0.416038 8.90219 0.65586 0.665063 -1.17348 0.112329
1233 20.0579 9.00601 1.26971 1.03423 -0.782266 -0.457007
2858 59.2952 9.45096 1.08885 -1.05788 -0.150919 0.0352944
2753 3.61409 10.1593 0.638662 1.83635 -0.66082 0.386318
645 7.81903 10.6147 0.372272 -0.116068 1.5452 1.83832
1904 15.9562 11.2157 1.26447 -0.48725 1.24634 2.7271
972 54.0742 11.1108 0.538916 -1.05686 -1.62677 0.0445012
1010 16.6831 12.0152 1.21624 2.07541 -0.322203 -1.93915
1552 41.3833 12.4543 0.687399 -0.498083 0.6078 1.31831
1126 55.0305 11.4448 1.17428 -0.172877 -0.169981 -0.584462
836 23.0384 14.4903 0.926369 -1.96108 -1.1192 0.711353
3969 26.2645 14.9736 0.436643 0.599772 -0.0949389 0.76685
3484 66.7432 15.293 0.303197 -0.397229 -0.516132 -1.52489
1543 11.5623 16.9304 0.647484 1.76003 -0.800849 1.28214
3183 37.7891 16.7795 0.725826 -0.246035 0.347988 -1.86857
1575 46.7742 16.4661 0.649257 -0.523949 -0.238566 0.673517
2960 57.6518 15.7304 1.35233 -0.525727 -1.64829 0.536293
3868 57.9252 16.6491 0.56845 1.26488 0.480759 -0.684901
2815 30.9484 17.9848 0.777303 0.591124 -0.913523 -0.691133
53 61.5903 17.5335 0.763803 -0.951327 1.35348 -0.200105
517 0.834286 18.5615 1.30788 1.27188 -2.66903 -0.214821
2638 70.2844 19.1717 0.575122 -0.749207 0.144684 -0.197371
3562 16.263 20.6253 0.421984 0.909203 -2.42109 0.133444
3331 17.9538 20.3978 1.16125 0.905829 -2.32514 -1.28564
551 32.1466 21.1628 0.755457 -0.899889 0.955488 0.77783
1646 60.4129 20.4184 0.74568 0.191306 -0.234828 -0.966514
3982 8.96587 22.1093 0.132023 -0.669344 0.727532 0.178243
1061 56.3893 22.5887 1.09765 -0.667322 -0.0562675 -0.320559
3624 58.9819 22.6391 0.778483 -0.526172 -1.28927 2.1426
2241 61.1694 24.1313 0.117947 1.29368 -1.22554 -0.32019
1518 30.2753 30.9584 0.157869 0.0922308 2.0592 0.0222224
156 68.1741 31.0341 0.782932 1.75466 1.29791 -0.0224713
3674 62.8721 32.1006 1.04681 -1.22954 0.227221 -0.144474
2458 11.7709 32.9974 0.188939 1.25023 0.760083 -0.912366
159 11.5582 34.7215 1.34863 -0.483369 0.410561 1.15597
3160 68.4537 1.36549 2.55528 0.641396 0.620542 0.832278
962 42.7924 2.7911 2.53859 -1.14689 -0.313549 1.50594
2176 45.2513 2.55391 2.71114 0.624646 0.747829 0.406246
3871 27.5106 5.34861 2.74669 -1.71126 -0.125324 -1.42316
2228 28.7476 4.75415 2.30896 0.082204 -0.299709 -1.35874
3113 46.3989 6.21616 1.92304 1.63107 -1.16428 -0.594326
2868 20.1306 7.1953 1.66905 0.0923888 -1.10201 -0.743258
1338 6.52584 11.9923 2.29044 0.709996 -0.620493 -1.68605
318 14.981 11.4939 2.36804 0.257596 -0.348169 0.351606
3805 45.31 11.5532 2.15577 0.494278 -1.17848 -1.12591
1152 44.377 11.4604 2.54313 -0.0751569 -0.254786 1.27248
3893 11.4558 13.7224 2.67861 1.40208 -1.27854 -1.35225
630 13.8173 13.4174 2.69724 0.330589 -0.502795 0.350369
973 2.23656 15.5493 2.43137 0.107438 0.426429 -0.556536
2332 48.0082 16.5448 1.92146 -1.85693 0.709136 0.957976
3887 56.3441 17.9773 1.88142 0.0396705 1.24513 -1.31039
756 60.1083 17.7681 2.35627 -0.0215552 0.925927 0.128205
2185 0.115972 18.8907 2.60652 -0.0553269 -0.0385204 0.980626
3085 15.9377 21.1085 2.10344 -1.47071 -0.798478 0.623699
598 36.2026 20.5611 1.65291 0.662403 0.887036 -0.141698
2094 58.4077 21.0114 2.17517 0.923883 0.0499086 0.603111
3104 42.5858 21.6953 2.78361 -1.17073 0.46837 -0.709653
3389 16.3879 24.0817 2.49325 -0.819098 -1.4182 -1.90597
2296 4.28639 26.2799 2.42608 -1.17511 -0.448572 -0.36188
2421 12.8217 25.8913 2.62405 -2.29827 0.138988 0.0815169
2769 22.8381 28.2553 2.67479 -1.67538 0.161672 1.02609
1265 25.216 27.4472 1.56626 -0.125672 -0.136889 -0.946514
2526 0.174875 29.179 1.65334 0.929051 0.0943001 1.80006
3789 6.33158 28.3393 2.72051 -0.0238642 0.22775 -0.464913
983 68.4308 30.799 2.38033 -0.833335 -1.05921 -0.727027
649 33.7822 31.2625 1.98814 -0.036603 0.544024 0.0290593
2457 14.1777 33.9102 1.83532 1.31417 -1.26668 -0.912261
3006 15.2724 33.7547 1.72739 0.0709058 0.0677553 0.281509
358 17.0025 33.5968 2.61952 -0.296941 -2.1364 1.33296
2970 37.5399 35.072 1.54643 1.20646 1.109 1.3808
3569 39.4702 36.6789 1.92478 -1.27335 0.428275 -1.8404
3564 51.8528 0.44324 2.96939 0.697097 0.932598 0.0405867
1207 14.4977 3.23459 2.97269 0.948434 -0.746774 -1.993
3819 14.8428 4.42787 4.17091 0.889523 -0.67797 0.751309
1800 49.7111 4.64317 3.39336 -0.663963 0.65619 -0.396342
2944 46.5453 5.86947 3.57998 -0.00649973 -0.525836 0.798681
1055 0.0288667 8.41323 3.37491 -1.68795 0.0384887 0.0290447
1388 34.5271 8.50478 3.56789 1.15152 1.4985 0.354686
2420 46.13 9.42386 3.17659 -0.701569 0.00572521 0.321295
1761 48.0366 11.1029 3.17783 0.196004 -1.72823 -2.5231
1315 58.9917 10.0721 3.98441 -1.37456 0.587198 -0.603881
2830 7.5067 11.3487 4.00973 -0.858191 1.28355 0.682187
3632 59.432 12.6019 3.78913 -1.21635 -1.1382 -1.6679
1835 60.6283 12.0924 3.83834 -1.63148 0.632708 -0.800042
364 44.1229 12.7675 2.93166 -2.12733 -1.20985 -0.319878
2883 32.1333 15.469 3.99081 0.376161 -0.638285 -0.980076
2831 4.6892 16.914 3.23074 1.15196 1.05283 0.925198
2975 8.68028 17.0335 3.22795 -0.958079 1.32274 0.649053
1264 23.4503 17.8635 2.93197 0.598442 -0.565416 0.180831
37 41.0755 18.3722 3.90408 0.0448949 0.52497 -1.63471
3261 18.1017 21.1889 3.84639 -0.996397 0.950634 0.862087
2743 38.831 21.5075 4.23753 -1.41976 -0.275087 1.31783
204 35.6931 23.6846 3.14694 2.14226 -0.462959 1.86035
1331 31.981 25.0539 3.82959 1.3931 0.446516 0.493205
3263 13.4066 26.2994 4.2266 -1.488 -0.0791527 1.05019
2774 14.1632 25.6505 3.39318 -0.799996 0.963426 2.05756
172 72.6146 26.8035 2.94096 0.252773 0.368546 -1.14452
1840 13.3685 28.1837 3.6794 0.972174 0.281853 0.865774
767 17.3194 27.0968 3.11937 -0.147264 2.27584 -1.08205
3601 55.0624 28.8126 3.26616 0.302446 -0.448185 -0.43796
3325 64.0969 30.1252 3.6366 0.16577 -0.225369 -0.116724
1047 62.2157 31.1764 3.72124 -0.525331 0.628707 2.04503
944 30.1548 32.6305 3.71509 0.10073 1.97412 1.27747
1334 43.5297 33.0136 4.13212 1.77796 -0.590135 -1.48987
3978 64.9839 34.0009 2.92946 -0.0250476 2.53262 1.47036
1537 71.6451 33.2693 3.46437 -0.351791 -1.05647 0.579656
3035 50.9553 34.8794 3.50834 -0.411107 -0.689023 1.18183
3277 31.9439 35.6562 4.10501 1.10773 -1.09607 -1.82264
2077 34.3362 36.8384 3.32279 -0.484893 1.04293 -0.171893
893 37.2926 36.1174 3.86271 1.56955 -1.64407 0.635948
1316 0.97735 1.23417 5.00731 0.111736 1.09586 0.0425967
2124 5.54413 0.218588 4.56494 -0.228747 -0.194356 -0.11936
2682 22.4776 0.402771 4.82377 -1.49647 -1.73382 -0.246409
820 32.5344 0.558714 5.52129 -0.776802 -1.0987 -1.51506
2509 20.2175 2.56628 5.29254 0.744986 0.231464 1.20429
1969 21.4023 1.79189 4.45585 0.0851757 -1.6052 0.108499
2244 2.54347 8.27497 5.23223 0.02649 1.94549 -0.368229
590 15.3588 8.52412 4.95452 -0.923397 -0.114683 0.60091
1572 24.3398 8.86317 5.48374 -0.724111 -0.163257 0.243968
2373 55.6737 9.44924 4.72084 -1.01398 -0.481498 -0.111772
2497 25.4484 10.2809 4.60944 -0.593729 -0.270879 0.163038
1896 57.7964 12.2262 5.09383 -2.09666 -0.88051 -0.0617037
2598 67.4696 11.5451 5.17169 -0.595002 -1.22343 -1.31709
2392 7.5626 14.9603 5.49676 -2.1173 0.77523 -1.05885
675 70.8281 14.7642 4.79856 0.223027 0.836476 -0.531976
3436 50.9902 16.0143 4.85405 0.136997 -0.716478 -0.332239
2148 17.8065 17.6314 5.54699 0.0875125 -0.813575 0.599918
3327 24.8027 17.7644 5.24894 1.82158 -0.520411 -0.142117
1015 26.5371 17.6867 5.10319 1.6298 -0.499283 1.18065
2884 37.8749 17.3605 4.77358 0.702176 0.0137261 0.42796
1686 65.4578 17.086 4.96647 -1.73387 -0.206167 -0.232824
2026 36.9523 18.8231 5.33607 0.932268 -0.67754 0.240054
3270 45.9523 19.5432 4.37476 -0.964071 1.23487 0.219662
1532 30.2487 20.7468 5.1863 0.897406 -2.0899 -0.0309398
1556 72.6309 21.3746 4.45522 -0.520675 -0.113027 0.449026
3517 0.266412 23.9071 5.20058 -0.747019 0.118699 -0.910485
3286 58.7353 23.6281 5.1417 1.16676 -1.55203 -0.814757
3553 7.49182 28.107 4.78417 1.22666 0.638311 1.92128
1832 21.1283 29.3528 4.45416 1.49873 0.325098 -0.521251
1654 29.7424 29.3597 4.27109 0.353892 -0.244405 0.33199
3711 19.2596 30.221 4.35829 -1.00684 0.396842 -0.434703
1296 72.0036 29.7892 5.21655 -0.290225 0.591668 -2.59193
3953 58.0096 33.4722 4.96415 1.52536 0.537814 0.650636
3434 37.9073 35.4379 4.26667 -0.768135 1.26765 -0.135413
952 71.9227 35.8548 5.2414 1.22161 0.00826585 -0.366146
529 33.8144 1.7806 6.98087 -0.436496 0.299426 -1.1341
2388 43.8002 1.96168 5.68327 0.183785 -0.305005 -0.350324
375 3.3785 3.11625 6.21463 0.0253605 0.658208 -1.25422
2930 14.2915 3.35263 5.86032 0.253852 0.641861 1.04228
1914 16.842 4.04467 6.90806 -0.403113 -0.105221 -1.16905
3420 25.9037 3.80415 6.49526 0.947479 0.960793 1.20961
1828 32.2231 4.1937 6.15363 -1.06731 2.65709 0.604449
1326 70.3365 3.72621 7.05632 0.745713 1.21873 1.97513
745 46.8137 5.50174 6.03458 1.52344 -0.533513 1.99274
2801 28.1204 5.71226 5.90151 -0.914955 0.740279 0.452999
360 42.0194 6.03801 6.54707 -0.641416 1.90678 -0.592316
254 64.3943 6.60915 6.28193 0.786595 1.1946 -0.802847
3507 25.4025 7.48777 7.02271 0.224751 0.629964 -0.161303
2263 29.468 8.35907 6.37925 0.27472 0.575973 0.197118
3890 12.0415 8.54759 6.76976 -1.59324 -0.25392 0.288871
2369 23.2104 14.1638 7.06185 0.715443 -0.261347 0.892766
1320 23.9948 13.5831 6.1377 1.16439 0.0317269 -1.10936
1393 16.6726 14.8518 6.31285 -0.25634 -0.878342 -0.308664
2410 18.5922 14.7205 6.09762 -1.39505 0.728641 0.719392
1104 24.6139 15.083 5.89429 2.35203 0.0330557 -0.942237
3495 25.9214 14.8183 5.8068 -1.10275 0.969533 -0.0763373
2321 4.04926 19.7357 6.21551 0.885094 1.62499 0.855774
3589 33.9364 19.0264 6.02079 0.201935 0.0709722 -0.425952
1327 48.5198 19.2598 6.99004 -0.983947 -0.682482 0.809715
1692 63.4783 19.9441 6.81732 -0.486577 0.263396 0.375903
2748 64.9666 22.5055 6.79287 -0.229022 -0.372576 -1.12117
2634 30.4659 23.3244 6.50374 -0.0732598 0.723049 -1.20878
2266 53.4924 22.885 5.90708 0.844188 0.490113 -0.298707
377 15.9799 24.4381 6.4233 -2.01446 0.133954 0.672511
3153 9.26395 27.8691 6.21403 0.506816 0.202448 0.703563
961 17.9127 30.5858 6.90396 0.0546702 -0.191951 1.99454
1401 35.9556 32.5726 5.83016 -0.852244 -1.00787 0.479805
1225 35.677 31.8271 6.53965 1.19227 1.19899 -0.0232021
2418 41.3052 32.9451 6.80153 0.313395 -1.18849 -0.934923
1669 48.8686 33.8577 6.19632 -1.09746 0.502458 -0.764089
1934 11.4376 34.6737 6.35301 1.40644 -0.331012 -0.0546859
960 49.2359 35.1846 6.74734 -4.32117 0.642948 -0.596805
822 50.2439 35.052 6.86743 0.700864 -0.0418187 -0.695381
252 2.09538 0.983602 8.25859 -0.318826 -1.66253 -0.149238
3566 15.035 0.703751 7.36402 1.5671 0.0886906 -1.47517
3200 29.6983 0.950692 7.80692 -0.31373 0.303222 0.311105
876 19.1882 3.24622 8.44805 -0.211205 1.02772 -0.00536301
2254 19.0539 3.04509 7.46602 0.537908 0.627429 -1.05151
3549 58.5912 4.93712 7.82312 -0.826475 0.154373 -0.820955
3079 28.8719 6.00003 8.21132 1.9277 -0.527174 0.0721769
2920 41.2288 6.28393 7.72089 0.312253 -0.494832 -0.38138
1563 55.6132 8.12847 8.47484 0.351774 -1.31825 -0.0427459
943 21.4877 8.97403 7.89993 -0.0465896 -1.37241 -0.541985
1083 54.3848 9.94943 8.22153 0.493568 1.06516 0.673206
1084 19.2476 11.7696 8.19483 0.387963 -0.282358 -0.645819
833 45.4066 12.3675 7.08595 0.808304 1.27855 -0.194525
2121 62.9471 11.3386 8.44981 0.119684 0.332521 -0.239893
2217 18.8495 13.5112 7.68249 -1.2335 -0.104434 1.33241
2181 16.2616 14.9325 7.48491 1.6263 0.237682 0.980576
1967 65.5934 15.4557 7.25458 -1.5217 1.92021 -0.388277
564 45.3237 15.6467 7.94849 -0.380517 1.28911 -1.48414
3822 1.63255 19.3254 7.8684 -0.536055 0.929233 -0.58978
1041 18.1556 18.9561 8.1165 1.54771 -0.222464 -0.90057
3795 34.4308 19.5651 7.83701 -0.350113 1.03256 -0.629251
3638 56.4164 18.5108 7.63624 -0.463681 0.477921 0.145281
1085 27.3598 21.1933 8.12723 -1.09805 1.71667 0.409122
1573 64.2912 21.9296 7.46987 1.98863 1.87924 -1.82098
1376 12.7014 23.8588 8.04997 0.785959 0.696237 -1.38967
3524 34.3785 23.8594 7.22186 0.26698 -1.30485 1.13626
602 36.7425 24.6474 7.13313 -0.138102 0.0661227 0.394399
2495 6.40226 26.9135 7.47337 -0.413579 -0.535102 0.650074
1071 15.7247 26.6263 7.09033 -1.08762 0.715028 0.493677
2732 39.5271 25.5619 7.77161 -0.128896 -0.152024 0.592806
65 69.347 26.1007 7.66609 -1.27107 0.766863 0.280544
1815 38.4741 27.6948 7.41218 -0.988269 0.924801 0.288577
186 0.31314 28.5595 7.5593 -0.648109 -0.650041 -1.76297
2527 42.7226 29.1224 8.03577 0.00943042 0.160867 -0.192619
518 66.0179 29.5142 7.60244 -0.0646292 1.25537 0.000652257
3238 67.6561 29.0415 8.39407 -0.0535539 -1.06544 -0.544691
441 67.0567 29.9038 8.02437 -0.789164 0.813108 -0.306861
1985 66.5964 30.6114 7.19401 0.577315 1.18405 -0.407535
2377 7.82989 31.6775 8.11042 -0.137589 -1.42055 0.391882
2529 70.2036 32.5868 8.20235 1.19501 0.931408 1.22707
2394 28.5798 34.0281 7.80954 -0.368462 0.674229 -0.409336
57 60.3159 1.07705 9.5649 -2.3873 0.376281 0.08489
2096 18.9148 1.78003 9.46951 -0.438682 2.10497 0.692878
2011 37.3453 2.16949 8.97541 -0.882278 -0.161397 -0.357115
2003 44.5132 1.43709 9.19577 0.167206 -1.37759 -0.430096
842 70.8694 4.93607 8.84727 -0.0242351 -1.1386 -1.64161
1883 34.6659 8.41543 9.35545 0.038922 -0.281573 -0.746428
2234 73.2108 8.64277 8.91011 -1.52143 0.647041 1.04773
2555 8.45402 10.6071 9.6472 -2.61383 -0.747222 0.166691
120 35.2944 9.9658 9.16237 -0.354469 0.433564 1.04456
609 55.5063 10.2327 9.27853 0.0639284 0.402897 -0.975468
1642 63.8242 16.0075 9.72126 -0.824224 0.320489 -0.182536
2183 17.6247 18.2208 8.93318 -1.77256 0.896135 0.950187
1058 23.9424 18.2793 9.19498 -0.0150654 -0.902 0.248195
2456 34.0716 17.2171 8.9101 -0.7049 1.30139 -0.980711
1657 2.03888 19.8127 9.66135 -0.418351 -0.6575 -0.234463
3809 67.354 19.1584 9.47094 0.392031 1.06781 0.522719
1395 6.02001 20.5185 8.84594 -0.669222 0.844849 -0.350749
333 46.842 20.9025 9.17543 -0.571365 0.589526 -1.20255
1911 59.4789 21.0634 8.57319 0.836177 0.0493087 0.214782
3530 67.9689 21.3597 8.84079 0.193268 -0.136601 -0.273416
162 71.3586 21.8949 9.56148 1.77493 -0.679909 0.242959
255 68.6471 23.3944 9.84823 -0.747306 0.0834286 2.35698
513 71.8042 23.7084 9.65828 0.527702 1.15886 -0.525538
179 10.6442 24.4733 9.00834 -0.681179 -0.96882 -0.193138
790 14.3789 25.0523 8.5972 -1.11267 0.117348 -0.532764
3455 24.3814 24.4979 9.84395 -1.24024 0.450873 0.477741
83 41.9354 25.3075 9.7452 -0.811856 -0.397588 -1.20202
1496 55.202 24.2456 8.51219 -0.905502 -0.962339 -0.992583
384 46.6805 26.7443 8.93275 0.582427 -2.20809 -0.204505
1427 38.8743 27.3294 9.86419 -2.47486 0.333894 2.39204
947 49.2657 29.3316 9.73571 -0.983988 -0.720445 1.12688
1456 64.314 29.4613 9.26276 0.536448 0.5501 -0.0762884
3481 23.8401 30.1545 8.70454 -1.17275 -1.13991 -0.0308966
2474 23.8168 30.1347 9.7389 0.0413315 -0.267985 -0.884202
2205 37.3978 30.5123 8.74681 0.942382 -0.142485 1.30396
1743 68.7771 32.119 9.04594 0.741567 1.05618 -1.48815
42 70.0303 32.0944 9.50096 0.640825 0.105253 1.65008
432 2.94051 32.734 9.69534 -0.590413 0.814858 -0.777586
3168 21.6884 36.8381 9.81503 -1.92823 0.714272 -1.04404
2543 60.7395 36.0203 8.93929 -0.641838 0.565045 -0.75717
1074 70.9412 1.4872 10.7801 0.826821 0.818068 1.35299
1303 9.85998 3.51543 10.9843 -1.6624 -0.694492 -0.0292223
391 0.27811 6.35593 11.3205 0.898315 0.718686 -0.0847267
2492 44.9097 6.5175 10.7849 -1.11691 -0.363287 0.553683
1821 56.5761 6.18427 11.0498 0.818245 0.22302 1.5394
2361 44.9447 7.48976 10.023 0.217379 0.247283 -0.756155
776 30.4851 9.43365 10.5628 0.0247071 0.3091 -1.5868
2564 7.93554 11.0292 11.2683 0.902424 2.44231 -1.96771
1017 22.5863 10.5665 10.8421 -1.45511 -1.25021 0.479472
1024 25.8072 10.2954 10.969 0.224583 0.164128 -1.33726
1179 5.56024 11.9942 10.9048 -0.974979 -0.863458 0.479126
450 67.5509 11.3525 11.1029 -0.580257 0.054966 -0.854927
1413 34.8349 13.9516 10.4462 -0.533938 1.54902 -1.03626
199 31.7982 14.9436 10.5044 -0.718479 -0.458092 -0.367237
2691 50.0426 16.8204 10.0993 -0.854767 1.29588 0.849589
3917 51.0641 17.6999 9.94 -0.996167 -0.719679 -0.232606
2838 63.8454 17.0066 11.1299 -0.933886 0.918644 -1.41247
3125 9.0866 18.9965 11.282 0.886479 -0.12755 1.56891
501 67.2462 19.4265 10.6104 1.31725 -1.59694 1.80309
1628 27.5897 20.6346 10.884 -1.36843 0.30344 0.209878
627 45.9976 22.1195 10.7005 1.2162 1.12508 -0.480559
3025 58.999 21.5965 10.2453 -0.70039 0.145987 0.318386
2850 22.2301 23.0143 10.5161 0.648362 2.56763 0.376113
696 34.9336 23.9371 10.1043 1.12484 -0.491151 0.810378
1170 39.6483 22.995 10.1118 0.182906 0.562336 -1.04952
2040 62.2136 22.7638 10.093 -1.95816 0.624243 0.745397
103 44.0502 26.1129 10.2478 -0.755304 -1.07332 0.935037
2853 71.8618 26.5371 10.9584 0.152054 -0.517418 0.686614
482 29.391 27.4948 10.3505 -0.0131076 -0.759115 0.59023
3258 45.3238 27.7416 10.9226 -0.0400332 0.959679 0.163821
682 38.748 28.7126 10.4098 -0.682399 -2.05711 -0.0655987
3561 57.2225 28.8123 10.3033 -0.922627 0.292935 -1.56339
840 32.7354 30.4336 10.4963 0.232452 0.830726 -0.148809
2062 34.6656 30.0125 10.8478 -0.735463 -0.468094 0.262398
1371 36.2569 31.0449 10.6934 2.31054 -0.65904 1.50686
2249 46.2618 30.5939 10.9831 -0.385566 0.707271 -1.22705
1202 16.6729 32.3428 11.1885 -0.964366 0.764073 -0.112356
581 25.9507 31.4169 10.6013 1.63231 -1.21765 -0.140296
194 1.89103 33.5752 10.2153 -0.191415 -0.294405 -1.60525
1273 29.8027 33.8181 10.8522 -1.06743 0.617458 1.67853
1714 68.4965 35.4465 10.5078 -1.19276 -0.267775 3.10325
1458 4.78401 0.403989 11.7588 0.065534 -0.309738 1.93247
87 13.9839 1.41401 12.605 -0.37584 -0.254189 -0.00572079
3875 24.1898 4.52689 11.8621 -1.17644 -1.6113 0.0452063
1994 52.9877 4.95723 12.2145 -1.78832 0.621873 -1.71564
3064 6.71979 6.61707 11.7928 -0.864134 0.486101 -0.944209
2673 47.2669 6.36015 11.6909 0.452723 1.29893 0.104528
3867 8.25793 8.28797 11.6795 1.10527 0.181079 -0.519851
1891 37.7257 8.59576 12.2492 0.348536 0.108902 0.707613
3450 54.3795 15.1059 12.7308 -0.395016 -0.149594 -0.36402
2554 28.2927 17.8891 12.3414 0.15198 1.2703 0.323001
661 34.2111 18.0143 11.629 1.59721 -2.47195 -0.264077
1354 2.6218 19.0056 11.3956 -0.201671 0.422013 -1.51201
3964 64.9458 19.1215 12.4357 -0.0918368 -0.686805 -0.134841
2112 0.944957 22.4292 11.8277 -1.8683 -0.186972 -0.675713
84 6.5464 21.5315 12.0198 -0.322812 -2.22996 -1.28778
3483 42.7583 21.793 11.7003 2.01519 0.111513 0.255372
2765 53.7814 22.0528 11.8148 1.54215 0.208183 -0.305862
3836 55.2064 22.447 11.4205 2.07863 1.09058 -0.33556
3903 58.9985 21.5221 11.3407 1.73988 0.346999 -1.31889
818 42.9244 22.8706 12.5059 2.34705 0.781189 -1.43392
225 42.9435 25.5021 11.3867 -0.834233 0.828156 0.163237
3592 14.3778 25.9407 12.0275 0.169186 0.557479 -0.739618
799 41.7795 25.9361 11.8642 -0.00540322 -0.916858 -0.263295
1618 68.0015 26.2479 12.344 -1.11261 -0.733644 0.616199
289 73.3686 27.7235 11.7297 -0.43487 0.207023 -0.384917
2516 21.5665 28.8781 12.4031 0.280579 0.248733 -0.0537571
2692 38.6051 30.3088 11.3701 -0.184059 1.75963 0.863032
2560 68.9353 30.1961 12.148 0.42788 -0.445275 -1.05068
3314 30.1635 32.2943 11.3505 -1.95316 -1.35743 1.38841
3995 6.29175 33.6351 11.3564 -1.22353 0.780331 -0.868912
963 18.9966 32.9261 12.1311 0.0989743 -0.67682 0.729677
3415 68.8483 34.8595 12.2578 -0.229223 0.545942 -1.13472
3097 61.9711 36.0528 12.6494 1.84779 -0.468489 0.0869376
1740 28.6023 0.0791633 13.5925 -1.27581 0.329373 -0.0703693
2584 54.0743 1.10248 13.2428 0.356998 -0.0655737 1.19363
3934 12.4322 1.97232 12.9321 1.54549 0.176004 0.721535
325 15.9018 2.23232 13.4422 0.509752 0.206293 1.23182
2130 59.3855 2.47926 13.3786 -1.29518 -0.499846 1.01337
3042 43.6693 8.30326 13.1505 -0.49255 -0.527546 0.918705
757 54.6545 7.47354 13.4401 -0.263134 0.530592 0.215669
606 43.4272 9.4719 13.7887 0.78076 -0.0184927 1.54083
1223 51.1825 12.5416 14.0125 -0.184658 -0.940492 -0.558493
827 32.3016 12.799 13.6203 -1.26164 -0.338101 0.568161
3512 38.5013 14.0193 13.4643 0.426739 -0.0179076 -0.914095
869 54.3777 14.0116 12.8033 -0.293706 0.536087 0.39224
3361 72.4604 12.8829 13.6881 0.506058 1.75243 0.138253
809 0.509602 14.724 13.8296 -0.0719335 -1.18969 0.271909
2293 13.7832 14.4973 13.8682 -1.38384 -1.90802 -0.195278
3635 55.921 14.6791 13.3054 -0.456612 -1.39409 -0.67497
3015 25.8536 16.5499 13.4629 0.185415 -0.235433 2.04786
438 36.582 18.3227 12.8379 -1.72676 -1.52398 1.28176
2890 42.224 18.2554 13.9702 -0.263281 -0.900298 0.40398
2134 66.4178 18.4201 13.4486 -0.378521 0.997461 -0.387452
243 4.15324 18.5666 13.9208 0.484965 2.14679 -0.169239
1036 17.9622 18.6794 13.3473 -1.1218 2.34539 1.71069
1803 65.1367 18.9718 14.1228 -0.0107888 2.23691 -0.0604886
3879 55.1909 20.0244 13.5086 -1.85427 0.662762 1.16154
2978 58.8818 20.2628 13.496 -1.76794 1.22327 -1.11951
1947 11.0821 22.2548 13.3883 -2.37058 0.529955 -0.424341
3249 14.4571 21.3244 13.8804 0.342686 -0.245382 -0.527523
317 66.8346 23.2077 13.0133 -0.456311 1.05688 0.85263
826 67.6256 24.0912 13.0801 -1.73142 0.201637 0.366786
1383 72.3892 25.04 13.732 -0.966121 -1.80664 -1.97491
1381 34.8843 26.4394 12.9874 0.898433 0.425468 -1.48034
1890 51.3933 28.1625 13.0832 -0.268046 -3.10493 0.253513
2903 2.78559 28.426 13.5699 0.811138 0.532316 -0.72059
2563 30.1999 28.3753 14.1535 -0.552536 -0.289927 1.30398
3678 20.2531 30.1862 13.7121 0.00171179 -1.65652 -0.0899886
991 42.9098 30.7541 14.0716 0.152471 -0.314848 0.984736
2845 23.5867 31.8252 13.0612 0.400208 -1.25979 1.08133
914 29.818 33.4037 13.836 -0.384862 -0.790174 -0.130141
1451 57.6616 33.3747 12.786 1.65754 0.814487 -0.0646187
2246 43.5984 35.896 13.57 -0.0574802 0.284418 -0.447564
3602 25.7942 2.80515 15.0497 -0.151843 0.0225682 -1.46002
460 35.3666 2.49111 14.354 1.24463 -0.187073 0.297891
2565 46.8934 1.43967 14.671 0.447639 1.12364 0.113125
1626 37.1173 3.36087 14.9423 0.834972 0.938765 -0.162784
3666 53.0262 4.22575 14.3922 0.725578 -0.348441 -0.499258
2775 39.1116 4.69226 15.4515 -0.344593 0.0987842 -0.666446
2824 67.3578 7.01369 14.7447 0.563041 0.517738 -1.51729
892 43.8402 8.38857 14.4113 -0.181763 1.68386 -0.296959
1694 45.958 7.8148 14.3157 -0.301851 -0.594736 0.787606
3460 59.6306 7.19303 14.206 0.536559 -2.80507 0.348301
2572 61.922 7.22857 15.5699 -0.0599333 -0.792691 0.373311
56 6.71401 9.90095 14.2602 0.250814 -0.00170558 -0.165089
3289 37.2342 8.62182 14.8376 -0.256617 1.19884 1.49829
970 62.3955 10.4861 15.3821 -0.43687 -2.31349 1.05813
2041 34.0048 11.5573 15.3449 0.992232 -0.403446 -0.94416
2595 25.1877 16.1722 14.2293 1.13676 -0.700861 -1.05204
228 58.9514 16.0206 14.6788 -0.0740151 -0.568858 -1.3877
1578 8.19016 17.8555 15.3843 1.17154 0.619394 -0.570136
3294 8.58985 17.3683 14.278 0.904638 -0.193706 1.51168
2208 13.8416 17.677 15.4009 0.437227 0.289743 1.45376
2758 37.9135 17.0749 14.9594 -0.288612 -0.562901 -0.024091
498 46.7998 17.4683 15.2558 1.29122 -2.16725 0.633102
1830 14.9879 18.4492 14.9774 0.987899 0.485286 -0.401156
1655 35.9948 21.2228 15.0292 -0.779755 -0.607029 0.434539
3985 57.7448 20.4679 15.4094 1.66155 1.17986 0.764086
143 69.4815 20.5971 14.9337 1.00318 0.116536 0.942486
3844 27.9067 21.7179 14.4794 -0.481789 1.15393 -1.74849
2603 65.3662 22.4023 14.3848 -1.89332 -0.232475 -1.15856
3551 38.5729 23.5271 14.736 -0.488753 1.36349 0.223794
2536 58.8445 24.9656 15.0631 0.895443 0.961662 1.89748
2113 60.595 24.8696 14.6496 -0.809278 -0.998449 0.692303
397 54.631 26.8608 14.833 -0.289336 0.234628 0.597386
50 9.74529 27.5005 14.6072 1.2687 -0.0428529 -0.459246
1086 27.1635 29.5165 14.7507 1.22118 0.197861 -0.53188
3493 13.8086 31.0372 14.889 -1.162 -0.165705 0.510665
1516 18.0341 30.4689 14.8609 -0.286984 -0.508785 -0.0233294
705 15.4243 31.6286 14.9986 0.896247 1.34933 0.301559
3156 19.9694 32.2176 14.2822 0.01731 -0.991323 1.04559
1369 26.0273 31.3142 15.0166 -1.48589 0.158423 -0.00393997
2415 23.612 33.7061 14.5555 -0.458792 -1.76677 -1.08888
3102 47.6798 33.3247 15.0533 -0.718076 0.0186467 0.776819
3803 55.8648 33.9348 15.2798 -1.04247 -0.4074 -1.54685
1806 4.8077 34.5721 14.3393 -1.47988 -1.64093 -0.495782
1919 39.1335 35.5794 14.6319 -1.73358 0.696756 0.377167
1231 36.6482 0.58723 15.9568 1.09348 -0.432391 0.971138
1918 37.3899 0.232315 16.9279 -1.11675 -1.59667 -0.505306
2922 0.071043 5.08933 16.7183 -0.59991 -0.650242 -0.656133
1082 45.6788 4.59638 16.1661 0.699866 -2.45293 1.00977
77 25.8545 7.09349 16.9214 -0.521797 0.434003 -0.829707
2399 53.6115 7.27773 16.0916 -0.646783 0.424988 -0.586108
3264 69.3277 7.20918 15.6583 0.714519 0.486026 0.562137
1023 4.03695 11.4761 15.6987 -0.527383 -0.876775 1.16066
2092 5.2683 11.9008 16.8723 0.241037 -0.313833 1.01132
2043 12.9537 13.713 16.1033 -0.0412844 1.08954 0.433405
1199 58.6189 15.7076 16.5911 -0.9609 -0.143006 1.04
672 50.3034 18.2359 16.2371 -1.31157 -0.241803 1.02766
614 17.1621 19.0743 15.8661 0.794206 2.53223 0.380364
30 38.4475 18.8979 16.6192 -1.48813 0.20841 -0.685909
2333 20.6799 20.3392 15.9413 0.438294 0.102377 0.475059
1250 58.9625 20.0778 16.0662 -0.336193 0.717774 -0.476162
2171 60.9853 19.9984 16.8019 -0.0722526 -1.95809 -0.0101726
1078 20.0525 21.6834 16.524 0.235155 -0.41885 -0.807076
1261 55.7422 21.3754 15.8777 -0.799019 1.80776 -0.69188
2744 51.2291 23.5358 16.0369 -1.25906 -0.553814 2.07113
3910 72.4581 24.7265 16.9223 0.0193113 -1.15621 0.0188342
3595 3.37044 25.8696 16.7313 0.939459 -0.172841 -1.35034
2841 3.3424 28.2385 15.8004 -0.440871 -0.705779 0.13197
3858 28.7642 28.211 16.8388 0.584186 0.590027 1.36542
2667 22.0773 29.5875 16.2788 0.292721 1.41635 0.28154
3210 59.5845 28.8842 15.7279 -1.11344 0.488634 0.965623
789 6.57639 30.1708 16.1082 -0.0484868 -0.276099 -0.017948
974 7.48497 31.6188 16.4405 0.444578 -2.29082 0.544047
2190 14.497 35.0396 15.8429 1.05062 0.856209 0.747014
2431 25.4231 34.0869 15.901 0.82844 1.45387 -0.641592
3199 29.0092 35.0524 16.0433 0.31853 0.229446 1.10793
1100 50.4588 34.1494 16.0209 -0.902969 -1.34347 -1.63913
3412 68.604 34.8848 16.3767 1.48287 0.496319 -0.452565
1735 36.1052 36.3254 16.1496 -0.875096 1.07698 0.70696
1651 2.85568 0.819236 17.7748 -0.412863 0.445087 -0.2499
1224 31.353 1.30603 17.9661 0.186056 0.459181 0.662582
816 72.539 2.04126 18.0499 -0.00706144 -1.38656 -0.802602
2675 26.6902 5.63393 18.0868 -0.118036 0.125095 0.321267
1674 61.3427 6.82249 18.2854 0.577808 -1.97717 -0.682414
631 21.5195 7.57947 18.0321 0.960966 1.14354 -0.120374
3881 23.8829 7.95285 18.41 -0.546532 -0.0331252 -2.04257
92 24.6801 8.27543 17.7478 0.212537 -0.294329 -0.489874
2424 43.5501 7.38908 17.5719 -1.35707 -1.50501 2.14147
2307 31.1668 9.43739 17.9488 -0.0712991 0.673135 -0.00800529
1856 65.2749 9.46508 17.5122 0.19706 -1.60808 -1.10686
2791 35.9392 10.3404 17.5929 -0.863343 -0.396756 -0.2842
1029 45.1709 11.2723 18.1713 -0.536069 0.052789 0.571027
3488 23.8153 12.0785 18.2313 -0.863102 -0.364556 -0.544358
1244 52.5276 11.5975 17.0972 0.279621 -0.0679058 -0.0768368
245 66.1828 11.9825 17.0921 -0.196704 -0.94735 -1.27088
1435 69.3631 11.8838 17.728 -1.67209 -0.775056 -0.133008
763 7.78318 13.8356 17.9054 -0.0382753 0.388861 -0.994779
3975 68.0823 13.9396 17.9842 0.888441 -0.65883 -1.17258
2785 51.3764 14.6997 17.8817 0.032383 -0.348524 1.03056
3414 67.5357 14.7368 17.5625 1.26916 0.605712 -1.19369
2875 6.59678 16.3668 17.7449 -1.15517 -0.555406 -0.168682
138 53.753 16.1171 17.9484 -1.46437 1.01945 0.158932
44 26.6139 19.3994 17.4889 1.6698 0.237856 -1.21642
3169 40.978 20.9202 18.1314 -0.571316 1.12419 -0.262437
1063 59.3681 20.4495 18.0905 -1.12154 0.154461 -0.866316
1343 60.3679 20.7429 17.5533 0.614592 0.576586 0.819566
2213 44.4339 21.7037 17.4586 -0.314385 1.27468 1.45046
2899 42.5981 23.8655 18.1324 0.768882 -0.38463 0.733002
3222 5.93184 24.9969 18.1505 1.01569 -0.478492 0.0485784
2946 41.0967 24.1271 17.4573 -0.396887 -1.36079 0.0133411
3536 64.6648 24.1344 18.1646 -0.82176 0.665847 0.891753
3786 70.7099 24.7798 17.1481 -0.797423 -3.04075 -0.12003
1191 11.3861 26.0794 18.1799 -1.68626 0.88785 0.205361
3011 40.8658 26.0108 17.6362 -1.60308 -1.56048 1.13892
1734 20.3377 27.2712 17.3138 1.80675 -0.994566 0.882779
3884 38.6278 28.1872 17.2282 -0.588921 3.43338 0.540185
2044 58.0655 27.2868 17.5557 0.837381 0.675727 -0.474802
1450 64.1205 27.372 18.3066 1.40718 0.191025 -0.274243
3108 28.399 29.2092 17.2569 1.43091 -0.925961 0.174687
3851 45.6391 29.5463 17.3173 -0.811851 0.989479 -0.157831
300 67.2673 28.4941 17.3336 -0.714734 -1.76962 -0.999434
2914 67.6703 35.041 17.6225 -0.436112 0.380036 1.11717
540 50.1195 36.3673 18.0613 1.60292 0.998995 -0.181194
1045 6.24414 0.90763 19.3764 1.018 0.00638955 -1.13655
1102 14.1758 0.635723 19.6184 0.710737 0.850258 -0.282265
1984 25.3511 0.687951 18.4874 -1.36092 -1.11451 0.0523876
2301 5.79788 1.65838 19.0279 0.713908 -0.141234 0.364178
3701 7.25156 4.11923 19.2894 2.27753 0.661685 -0.0165423
2407 16.8116 5.22089 19.6099 -0.10814 -0.698583 -1.6011
2521 57.8328 5.25735 19.6232 -1.55358 -0.433961 -1.95271
3537 61.0148 4.62665 18.5441 -0.611949 -0.33879 -0.194418
915 6.65059 6.53757 18.6912 -0.974445 1.03056 -0.845141
1916 0.616336 7.10778 19.0772 -0.0393846 0.0852551 2.58315
205 5.19088 7.79282 18.4619 -2.08605 0.360123 1.16177
2087 22.0766 8.24435 19.3037 0.746417 1.16855 0.275354
1760 5.40282 9.00299 19.1287 -1.01082 0.0722109 0.250552
1663 46.0376 8.79356 19.813 0.579046 -0.535408 0.359484
3340 48.1167 10.7851 19.4616 -1.21057 0.138712 -0.434169
3776 52.0943 12.0783 19.3398 -0.544977 -1.58244 0.450581
913 59.0491 11.5553 19.7635 -0.449905 0.29121 -0.929186
2048 8.18354 13.1688 19.6659 1.40601 -1.00651 -0.369934
249 32.8763 14.2955 19.4133 1.19307 0.357523 1.06831
3658 52.6353 15.7053 19.0431 0.703226 -0.36126 1.1814
3100 10.4558 17.1427 19.1164 -0.291983 2.26221 -0.285626
3816 24.4348 17.3053 19.4623 -0.506492 -0.911597 0.707662
765 31.133 17.2071 18.5413 -0.429448 0.325876 -0.942979
2353 0.66262 22.1947 19.4034 1.49591 1.67602 1.17815
2741 13.552 21.6902 19.3167 1.00915 -1.11174 0.405643
1836 67.042 25.5879 19.7301 -1.03826 0.699654 -0.672979
2599 18.2899 27.8156 19.8363 -0.743188 -1.1227 0.993715