LAMMPS (29 Sep 2021 - Update 2)
#RDF

units		lj
boundary	p p p
atom_style	atomic

lattice		fcc ${rho}
lattice		fcc 0.7
Lattice spacing in x,y,z = 1.7878071 1.7878071 1.7878071
region		box block 0 6 0 6 0 6
create_box	1 box
Created orthogonal box = (0.0000000 0.0000000 0.0000000) to (10.726842 10.726842 10.726842)
  1 by 2 by 2 MPI processor grid
create_atoms	1 box
Created 864 atoms
  using lattice units in orthogonal box = (0.0000000 0.0000000 0.0000000) to (10.726842 10.726842 10.726842)
  create_atoms CPU = 0.000 seconds
mass		1 1.0

velocity	all create $T 87287 loop geom mom yes rot yes
velocity	all create 1 87287 loop geom mom yes rot yes
reset_timestep	0
timestep	0.001
pair_style	lj/cut 2.5
pair_coeff	1 1 1.0 1.0 2.5

neighbor	0.3 bin
neigh_modify	every 20 delay 0 check no
thermo		100

#Equilibration

fix		thermos all nvt temp $T $T 1.0
fix		thermos all nvt temp 1 $T 1.0
fix		thermos all nvt temp 1 1 1.0
run		50000
Neighbor list info ...
  update every 20 steps, delay 0 steps, check no
  max neighbors/atom: 2000, page size: 100000
  master list distance cutoff = 2.8
  ghost atom cutoff = 2.8
  binsize = 1.4, bins = 8 8 8
  1 neighbor lists, perpetual/occasional/extra = 1 0 0
  (1) pair lj/cut, perpetual
      attributes: half, newton on
      pair build: half/bin/atomonly/newton
      stencil: half/bin/3d
      bin: standard
Per MPI rank memory allocation (min/avg/max) = 2.626 | 2.626 | 2.626 Mbytes
Step Temp E_pair E_mol TotEng Press 
       0            1   -5.2272486            0   -3.7289847   -4.5808285 
     100   0.71513491   -4.8375807            0   -3.7661199   -1.9975966 
     200   0.66648696    -4.756809            0   -3.7582357  -0.93167675 
     300   0.67348482   -4.7528426            0   -3.7437847  -0.79211397 
     400   0.67977711   -4.7447968            0   -3.7263113  -0.73965211 
     500   0.71065023   -4.7714706            0    -3.706729  -0.78171617 
     600   0.68766062   -4.7203973            0   -3.6901003  -0.56457957 
     700   0.69746837   -4.7179865            0   -3.6729948  -0.54236663 
     800   0.72224577   -4.7387381            0   -3.6566234  -0.56684048 
     900   0.70754899   -4.7011015            0   -3.6410063  -0.36707372 
    1000   0.71963838   -4.7008027            0   -3.6225945  -0.34795576 
    1100   0.72843403   -4.6936958            0   -3.6023094   -0.3064612 
    1200   0.75869376    -4.716962            0   -3.5802386  -0.40814376 
    1300   0.74630627   -4.6766921            0   -3.5585283  -0.22968188 
    1400   0.77550711   -4.7002396            0   -3.5383253  -0.33355985 
    1500   0.77658253   -4.6783171            0   -3.5147915  -0.22257789 
    1600   0.76520462   -4.6390927            0   -3.4926142 -0.075431617 
    1700   0.78770235   -4.6484323            0   -3.4682463  -0.07183286 
    1800   0.81641585   -4.6677578            0   -3.4445514 -0.074541633 
    1900   0.82132687   -4.6529167            0   -3.4223523  -0.10854553 
    2000   0.84215253    -4.659949            0   -3.3981822   -0.1142185 
    2100   0.84044468   -4.6341985            0   -3.3749906 0.0020885169 
    2200   0.86892254   -4.6514498            0   -3.3495745  -0.06228683 
    2300   0.82875135   -4.5682191            0   -3.3265309   0.31072386 
    2400   0.85965398    -4.591369            0   -3.3033805   0.23565041 
    2500   0.88013898   -4.5984506            0   -3.2797701   0.15656853 
    2600   0.90209463   -4.6082116            0   -3.2566358   0.11306545 
    2700   0.87715868   -4.5487219            0   -3.2345067   0.34398504 
    2800   0.91319655   -4.5807086            0   -3.2124991   0.17584098 
    2900   0.94584278   -4.6064171            0    -3.189295   0.07517147 
    3000   0.91617194    -4.540444            0   -3.1677766   0.33603051 
    3100   0.94157364   -4.5556364            0   -3.1449106   0.34626313 
    3200    0.9628169   -4.5670362            0   -3.1244824   0.33805264 
    3300   0.92718075   -4.4935374            0   -3.1043759    0.6249748 
    3400   0.95450048   -4.5126768            0   -3.0825832   0.56645411 
    3500   0.96575693   -4.5098142            0   -3.0628555   0.56680914 
    3600   0.97334539   -4.5035487            0   -3.0452204   0.65702851 
    3700    1.0038033   -4.5304295            0   -3.0264672   0.62992222 
    3800    1.0177016   -4.5354973            0   -3.0107118   0.50299341 
    3900   0.99922554   -4.4904502            0   -2.9933466   0.58398892 
    4000    1.0250305   -4.5137601            0   -2.9779939   0.49941083 
    4100    1.0221382   -4.4948796            0   -2.9634468   0.58505813 
    4200    1.0288351   -4.4926357            0   -2.9511692   0.62198556 
    4300     1.022963   -4.4737273            0   -2.9410587   0.64885082 
    4400    1.0586188   -4.5165569            0   -2.9304667   0.49578643 
    4500    1.0527625   -4.5000229            0   -2.9227068   0.54413766 
    4600    1.0445761   -4.4789892            0   -2.9139386     0.636946 
    4700    1.0674705   -4.5078985            0    -2.908546   0.57830124 
    4800    1.0609549   -4.4935525            0   -2.9039622   0.66259414 
    4900    1.0616607   -4.4940663            0   -2.9034184    0.6391975 
    5000    1.0665794   -4.5029663            0   -2.9049488   0.58137902 
    5100    1.0362855   -4.4614279            0   -2.9087988   0.70278896 
    5200    1.0572578   -4.4972901            0    -2.913239   0.65188027 
    5300    1.0296463   -4.4597834            0   -2.9171015   0.81528228 
    5400    1.0665049   -4.5221353            0   -2.9242294    0.5381324 
    5500    1.0367618   -4.4866835            0   -2.9333407   0.70548517 
    5600    1.0197449   -4.4725604            0   -2.9447135   0.79153157 
    5700    1.0510499   -4.5308211            0   -2.9560711    0.5454128 
    5800    1.0200958   -4.4969126            0   -2.9685399   0.62621236 
    5900    1.0099832    -4.493963            0   -2.9807417   0.64475447 
    6000    1.0191561   -4.5218421            0   -2.9948772   0.57343942 
    6100    1.0084619   -4.5180583            0   -3.0071163   0.62845996 
    6200   0.99703112    -4.511796            0   -3.0179803   0.60389748 
    6300   0.97290271   -4.4892078            0   -3.0315428   0.65802117 
    6400    1.0129558   -4.5604917            0   -3.0428166    0.4027536 
    6500   0.97026656   -4.5060802            0   -3.0523649   0.53371291 
    6600    0.9786792     -4.52911            0   -3.0627903   0.39866812 
    6700   0.96426478   -4.5170214            0   -3.0722982   0.40143397 
    6800    0.9654657   -4.5258407            0   -3.0793183   0.39458917 
    6900   0.95605487   -4.5178577            0   -3.0854352   0.48340674 
    7000   0.97593351   -4.5550561            0   -3.0928502   0.34872466 
    7100   0.97065856   -4.5520051            0   -3.0977024   0.38886349 
    7200   0.94439933   -4.5151538            0   -3.1001944   0.50799384 
    7300   0.96366979   -4.5467171            0   -3.1028855    0.3183594 
    7400   0.95069839   -4.5286543            0   -3.1042572   0.38421809 
    7500   0.95656408   -4.5362235            0   -3.1030381    0.4304965 
    7600   0.94552367   -4.5170616            0   -3.1004176   0.52321866 
    7700   0.96094988   -4.5363733            0   -3.0966168   0.36485274 
    7800   0.96988803   -4.5448516            0   -3.0917034   0.28376943 
    7900   0.94589052   -4.5029561            0   -3.0857625   0.50527316 
    8000   0.98788833   -4.5596379            0   -3.0795205   0.39650923 
    8100   0.97271409   -4.5283462            0   -3.0709638   0.49826767 
    8200     1.004924   -4.5686404            0   -3.0629991     0.323171 
    8300   0.99659993   -4.5484448            0   -3.0552751   0.33469663 
    8400   0.97247301   -4.5016214            0   -3.0446002   0.48417439 
    8500    1.0005368   -4.5336415            0   -3.0345734   0.41421113 
    8600   0.97857386   -4.4900226            0   -3.0238607   0.59658854 
    8700   0.98367904   -4.4888755            0   -3.0150647   0.69798715 
    8800   0.99219003   -4.4915597            0   -3.0049972   0.71948694 
    8900    1.0118492   -4.5109612            0   -2.9949441   0.62791506 
    9000     1.027807   -4.5255562            0     -2.98563   0.65409873 
    9100    1.0138747   -4.4953836            0   -2.9763317   0.65920669 
    9200    1.0497773   -4.5391616            0   -2.9663182   0.50728328 
    9300    1.0366509   -4.5138058            0   -2.9606292   0.61032007 
    9400    1.0386022   -4.5103978            0   -2.9542976   0.59343092 
    9500    1.0204354   -4.4780991            0   -2.9492176   0.72970538 
    9600    1.0185103   -4.4713316            0   -2.9453344   0.77847632 
    9700    1.0221743   -4.4742539            0   -2.9427671    0.7852112 
    9800    1.0521834   -4.5171643            0   -2.9407159   0.54063696 
    9900    1.0194247   -4.4661836            0   -2.9388163   0.69366133 
   10000    1.0378694   -4.4924612            0    -2.937459    0.6219536 
   10100    1.0515677   -4.5143085            0   -2.9387826   0.56019712 
   10200    1.0248462   -4.4762273            0   -2.9407372   0.70455806 
   10300    1.0459515   -4.5118708            0   -2.9447594   0.54679417 
   10400    1.0197341   -4.4774677            0   -2.9496368   0.53478923 
   10500    1.0291874    -4.496371            0   -2.9543767   0.50422134 
   10600    1.0222885   -4.4922257            0   -2.9605678   0.56125509 
   10700     1.030448   -4.5118837            0   -2.9680006   0.49201375 
   10800    1.0048765    -4.483871            0   -2.9783009   0.63787176 
   10900    1.0084804   -4.4970508            0   -2.9860809   0.68039507 
   11000    1.0037241   -4.4981332            0   -2.9942897   0.68028163 
   11100   0.99052839   -4.4875459            0    -3.003473   0.73319423 
   11200   0.98937307   -4.4930295            0   -3.0106875   0.63383335 
   11300   0.96565581   -4.4655643            0    -3.018757   0.74634409 
   11400   0.99826459    -4.522706            0   -3.0270422   0.51921143 
   11500   0.98457952   -4.5105767            0   -3.0354167   0.53841515 
   11600   0.99561299    -4.532721            0     -3.04103   0.43839992 
   11700   0.98263433   -4.5196527            0   -3.0474072   0.46558807 
   11800   0.95689925   -4.4860324            0   -3.0523448   0.52975733 
   11900   0.97075562    -4.512256            0   -3.0578079   0.42563656 
   12000   0.95914956   -4.4986873            0   -3.0616281   0.50105341 
   12100   0.97532257   -4.5236934            0   -3.0624028     0.477974 
   12200   0.96591685   -4.5131678            0   -3.0659694    0.5808562 
   12300   0.93992295   -4.4764705            0   -3.0682179   0.67315093 
   12400   0.97652211   -4.5309319            0   -3.0678441   0.44973312 
   12500   0.98229362   -4.5388987            0   -3.0671636   0.37273745 
   12600   0.98228436   -4.5358877            0   -3.0641665   0.38787647 
   12700   0.98192005   -4.5343608            0   -3.0631855   0.39246511 
   12800   0.99461194    -4.550069            0   -3.0598778   0.31694877 
   12900   0.98355135   -4.5297542            0   -3.0561347   0.45938213 
   13000   0.98547474   -4.5272288            0   -3.0507275   0.44709594 
   13100   0.98308771   -4.5184792            0   -3.0455544    0.4725837 
   13200   0.99799282   -4.5359401            0   -3.0406835    0.4176124 
   13300   0.98404975   -4.5077829            0   -3.0334167   0.49431585 
   13400   0.99163702   -4.5145633            0   -3.0288293   0.52359376 
   13500   0.98565606   -4.4997289            0    -3.022956   0.60632848 
   13600     1.012084   -4.5322472            0   -3.0158783   0.47695925 
   13700    0.9807852   -4.4789901            0   -3.0095151   0.70396954 
   13800    1.0101205   -4.5164581            0    -3.003031    0.6309613 
   13900    1.0331383   -4.5470115            0   -2.9990977   0.58432978 
   14000    1.0155552   -4.5161083            0   -2.9945386   0.78780385 
   14100    1.0295984   -4.5328918            0   -2.9902817   0.62352034 
   14200    1.0094899   -4.4989555            0   -2.9864732   0.70545068 
   14300    1.0144292   -4.5044342            0   -2.9845515   0.63093292 
   14400    1.0229751   -4.5138377            0    -2.981151   0.57844434 
   14500    1.0151842   -4.5002924            0   -2.9792786   0.64470168 
   14600     1.019597   -4.5083302            0   -2.9807048   0.61575126 
   14700    1.0257013   -4.5181424            0   -2.9813712   0.55161555 
   14800    1.0290186   -4.5242398            0   -2.9824984   0.55738937 
   14900    1.0660101   -4.5812281            0   -2.9840637   0.36066566 
   15000    1.0369169   -4.5428186            0   -2.9892435   0.49176425 
   15100   0.99640121   -4.4874674            0   -2.9945955   0.76053183 
   15200    1.0124302   -4.5168257            0   -2.9999381   0.64592658 
   15300    1.0197573   -4.5327403            0   -3.0048748   0.54372633 
   15400    1.0191126   -4.5375317            0   -3.0106321   0.61853376 
   15500    1.0082442   -4.5282344            0   -3.0176185   0.58176845 
   15600    1.0073554     -4.53413            0   -3.0248457   0.50423682 
   15700   0.97891982   -4.4965011            0   -3.0298209   0.60921745 
   15800    1.0125256   -4.5542248            0   -3.0371944   0.41731459 
   15900   0.97963706   -4.5111837            0   -3.0434289   0.59855956 
   16000   0.98651422   -4.5269745            0   -3.0489159   0.52840571 
   16100    1.0019813   -4.5550455            0   -3.0538131   0.34566842 
   16200   0.97865677    -4.525386            0   -3.0590999    0.4465028 
   16300   0.98606471   -4.5409055            0   -3.0635204   0.33013406 
   16400    1.0019891   -4.5699829            0   -3.0687388   0.24433455 
   16500    1.0120176   -4.5892185            0   -3.0729491   0.24607389 
   16600   0.98358377    -4.551333            0    -3.077665   0.37236276 
   16700   0.97703979   -4.5431243            0   -3.0792609   0.45583556 
   16800     0.956826   -4.5154713            0   -3.0818935   0.53624941 
   16900   0.97896809   -4.5503364            0   -3.0835839   0.41782631 
   17000   0.96572585   -4.5317554            0   -3.0848432   0.42239186 
   17100   0.97928116   -4.5529245            0   -3.0857029   0.41437307 
   17200   0.96942547   -4.5371721            0   -3.0847169   0.50980795 
   17300   0.99301179   -4.5706675            0   -3.0828738   0.37404522 
   17400   0.96494879   -4.5255041            0   -3.0797561   0.50417276 
   17500   0.94992159   -4.4985774            0   -3.0753441   0.60531436 
   17600   0.97302453   -4.5271803            0   -3.0693328   0.42042182 
   17700   0.95114633   -4.4873755            0   -3.0623073   0.51912649 
   17800    0.9835385   -4.5282934            0   -3.0546932   0.37132665 
   17900   0.97490808   -4.5054077            0   -3.0447382   0.46503184 
   18000   0.98621432   -4.5111474            0   -3.0335381   0.51165198 
   18100   0.97851333   -4.4898204            0   -3.0237492   0.65225426 
   18200    1.0078953   -4.5223167            0   -3.0122236   0.54919203 
   18300    1.0374304    -4.554458            0   -3.0001134   0.43574706 
   18400    1.0086721   -4.5022919            0   -2.9910349    0.5890943 
   18500    1.0104862   -4.4954894            0   -2.9815145   0.56958856 
   18600     1.014859   -4.4940857            0   -2.9735591   0.57329966 
   18700    1.0471196   -4.5369682            0   -2.9681067    0.4772556 
   18800    1.0621964   -4.5551447            0   -2.9636942   0.38830999 
   18900   0.99988512   -4.4592395            0   -2.9611478   0.67903802 
   19000    1.0208884   -4.4883201            0   -2.9587599   0.55400892 
   19100    1.0467664   -4.5258354            0   -2.9575031   0.43207706 
   19200     1.007988   -4.4674023            0   -2.9571702   0.64512134 
   19300     1.013762   -4.4788466            0   -2.9599635   0.64045879 
   19400    1.0193068   -4.4879052            0   -2.9607147   0.60544346 
   19500    1.0262701   -4.4996938            0   -2.9620704   0.57647395 
   19600    1.0143345   -4.4847014            0   -2.9649606   0.61509554 
   19700    1.0407448   -4.5265501            0   -2.9672397   0.51663905 
   19800    1.0282454   -4.5122408            0   -2.9716579   0.68654705 
   19900    1.0251384   -4.5121278            0   -2.9761999   0.70678878 
   20000    1.0418221     -4.54213            0   -2.9812055   0.55863007 
   20100    1.0256711   -4.5235737            0   -2.9868478    0.5064883 
   20200    1.0233152   -4.5263723            0    -2.993176   0.46502916 
   20300   0.99783032   -4.4951305            0   -3.0001174   0.58816192 
   20400   0.99383624   -4.4951576            0   -3.0061287   0.55959356 
   20500    0.9811108   -4.4822556            0   -3.0122927   0.67570838 
   20600   0.98290486   -4.4876476            0   -3.0149968   0.64305022 
   20700    1.0044778   -4.5243512            0   -3.0193784   0.43154071 
   20800   0.99338262   -4.5101464            0   -3.0217971   0.51654589 
   20900    1.0125462   -4.5427127            0   -3.0256512    0.4354655 
   21000    1.0157638   -4.5509027            0   -3.0290206   0.48827637 
   21100    1.0127373   -4.5504692            0   -3.0331214    0.5056666 
   21200   0.99690706   -4.5281364            0   -3.0345065   0.56365294 
   21300    0.9610013   -4.4785497            0   -3.0387162   0.68094966 
   21400   0.99616285   -4.5320314            0   -3.0395166   0.48869559 
   21500   0.97895824   -4.5075027            0   -3.0407649   0.61971233 
   21600   0.97889805   -4.5082971            0   -3.0416495   0.63755849 
   21700   0.98608424   -4.5196232            0   -3.0422088   0.55539928 
   21800   0.99958441   -4.5386357            0   -3.0409945   0.40008375 
   21900   0.98915833   -4.5222099            0   -3.0401897   0.44676572 
   22000    0.9901658   -4.5226303            0   -3.0391006    0.5148465 
   22100   0.98224696   -4.5106982            0   -3.0390331   0.54786103 
   22200    1.0136127   -4.5560609            0   -3.0374015    0.4190972 
   22300   0.98886345   -4.5181035            0   -3.0365251   0.57560722 
   22400   0.99970711   -4.5345396            0   -3.0367145   0.46383195 
   22500   0.99250164   -4.5236944            0    -3.036665   0.47895754 
   22600   0.99577295   -4.5267124            0   -3.0347817   0.53769229 
   22700    0.9759257   -4.4966548            0   -3.0344606   0.65131972 
   22800   0.99163774   -4.5192081            0   -3.0334731   0.58174828 
   22900   0.96136871    -4.472004            0     -3.03162   0.82208075 
   23000    1.0005146   -4.5289067            0   -3.0298718    0.5377741 
   23100    1.0097409   -4.5430231            0   -3.0301648   0.45083786 
   23200   0.97062865    -4.482699            0   -3.0284412   0.67852583 
   23300   0.99647489   -4.5192608            0   -3.0262785    0.5088401 
   23400    1.0044454   -4.5297288            0   -3.0248046   0.41879019 
   23500    1.0178026   -4.5477431            0   -3.0228062    0.4013197 
   23600   0.99903663   -4.5183725            0    -3.021552   0.57172697 
   23700    1.0165781   -4.5442176            0   -3.0211153   0.48427317 
   23800    1.0011441   -4.5207292            0   -3.0207511   0.51604105 
   23900    1.0212468    -4.551829            0   -3.0217318   0.37094511 
   24000    1.0211034   -4.5495802            0   -3.0196978   0.37088318 
   24100   0.98368541   -4.4949978            0   -3.0211775   0.65290842 
   24200    1.0179396   -4.5466811            0    -3.021539   0.46683706 
   24300   0.99953846   -4.5192276            0   -3.0216552   0.44258012 
   24400   0.99072876   -4.5067554            0   -3.0223823    0.4759219 
   24500   0.98742244   -4.5010306            0   -3.0216112   0.56180716 
   24600   0.98111279   -4.4905876            0   -3.0206217   0.66901935 
   24700   0.95155037   -4.4462038            0   -3.0205302   0.75259355 
   24800    1.0294798   -4.5621739            0   -3.0197414   0.33340003 
   24900   0.99607276   -4.5112138            0   -3.0188339   0.53049203 
   25000    1.0028808   -4.5212779            0   -3.0186978   0.52257225 
   25100    1.0264145   -4.5571762            0   -3.0193363    0.4451003 
   25200   0.98685458   -4.4980101            0   -3.0194416   0.72906656 
   25300    0.9829159   -4.4913152            0   -3.0186478   0.76693093 
   25400    1.0128849   -4.5358636            0   -3.0182947     0.534932 
   25500    1.0260696   -4.5545557            0   -3.0172326   0.42653082 
   25600   0.99386353   -4.5070214            0   -3.0179516   0.64708098 
   25700    1.0150086   -4.5378759            0   -3.0171252   0.59259919 
   25800    1.0066655   -4.5249698            0   -3.0167192   0.60193924 
   25900    1.0034445   -4.5199725            0   -3.0165478   0.52367475 
   26000    1.0153943   -4.5375161            0   -3.0161875   0.45392035 
   26100    1.0194215   -4.5439318            0   -3.0165693   0.42847242 
   26200    1.0140459   -4.5374262            0   -3.0181178   0.43480252 
   26300    1.0113631   -4.5360627            0   -3.0207738   0.46062301 
   26400   0.99525679   -4.5133503            0    -3.022193   0.50389301 
   26500   0.99948399   -4.5208799            0   -3.0233892   0.45739096 
   26600    1.0041513   -4.5307271            0   -3.0262436   0.46089474 
   26700    0.9793525   -4.4962121            0   -3.0288836   0.60496386 
   26800   0.97711607   -4.4955561            0   -3.0315784   0.63670529 
   26900    1.0197806   -4.5627511            0   -3.0348507   0.40121351 
   27000   0.99188825   -4.5266683            0    -3.040558   0.52372294 
   27100   0.99790114   -4.5407168            0   -3.0455976   0.52096606 
   27200   0.98995572   -4.5346043            0   -3.0513894   0.59296764 
   27300   0.99965317   -4.5550883            0    -3.057344   0.47496785 
   27400   0.99670329   -4.5580774            0   -3.0647528   0.38451363 
   27500   0.98590762   -4.5490738            0    -3.071924   0.42245923 
   27600   0.98573662   -4.5568255            0   -3.0799319    0.4504233 
   27700   0.97270502   -4.5449827            0   -3.0876139   0.47590244 
   27800   0.96299544   -4.5387773            0    -3.095956   0.36504763 
   27900   0.96473976    -4.549629            0   -3.1041943   0.29360131 
   28000   0.97695181   -4.5725696            0    -3.108838   0.26226972 
   28100   0.95914808   -4.5511401            0   -3.1140832    0.3800654 
   28200    0.9447592   -4.5314165            0    -3.115918   0.46658384 
   28300   0.97191477   -4.5759226            0   -3.1197378   0.27496876 
   28400   0.96429204   -4.5649098            0   -3.1201458   0.32706089 
   28500   0.95664814     -4.55362            0   -3.1203086    0.3830577 
   28600   0.94779961   -4.5378282            0   -3.1177743   0.43841892 
   28700   0.95640319   -4.5483607            0   -3.1154163   0.36025686 
   28800   0.99429041   -4.6026731            0   -3.1129637  0.091437975 
   28900   0.98108496   -4.5789874            0   -3.1090632   0.17571532 
   29000   0.98600381   -4.5797846            0   -3.1024907    0.1901312 
   29100   0.97373675   -4.5545813            0   -3.0956667   0.29586142 
   29200    0.9698362   -4.5391496            0    -3.086079    0.4272533 
   29300   0.97314074   -4.5355733            0   -3.0775517    0.4781768 
   29400   0.96697651   -4.5177132            0   -3.0689272   0.59559077 
   29500   0.97907715   -4.5243125            0   -3.0573965   0.62350381 
   29600   0.95997678   -4.4868593            0   -3.0485608   0.63834601 
   29700   0.99014163   -4.5200805            0    -3.036587   0.50493961 
   29800    1.0026793   -4.5292267            0   -3.0269485    0.5229053 
   29900    1.0295341   -4.5599528            0   -3.0174391   0.36224704 
   30000    1.0090848   -4.5208164            0   -3.0089411   0.51197475 
   30100    1.0217493   -4.5334967            0   -3.0026466   0.47842079 
   30200    1.0169573   -4.5211573            0    -2.997487   0.55193001 
   30300    1.0008691   -4.4926292            0   -2.9930631    0.6736591 
   30400    1.0426155    -4.552343            0   -2.9902299   0.42285321 
   30500     1.025594   -4.5256755            0   -2.9890652   0.45194812 
   30600    1.0333995   -4.5340996            0   -2.9857945   0.37871798 
   30700    1.0346094   -4.5348366            0   -2.9847187   0.40383447 
   30800    1.0258564   -4.5226811            0   -2.9856775   0.48732887 
   30900    1.0221698   -4.5193358            0   -2.9878557   0.48470417 
   31000    0.9898677   -4.4714697            0   -2.9883866   0.64352382 
   31100   0.98834775    -4.471353            0   -2.9905472   0.65156741 
   31200   0.99560606   -4.4835559            0   -2.9918753     0.601527 
   31300    1.0281803   -4.5344684            0    -2.993983   0.50304987 
   31400    1.0033706    -4.500465            0   -2.9971511   0.63237459 
   31500     1.021826   -4.5331733            0   -3.0022083   0.49727204 
   31600    1.0085648    -4.515771            0   -3.0046747   0.52344844 
   31700    1.0126352   -4.5253113            0   -3.0081166   0.47349376 
   31800   0.99125789   -4.4987917            0   -3.0136258   0.57682575 
   31900    1.0136461   -4.5364937            0   -3.0177843   0.38690064 
   32000   0.97266011    -4.479869            0   -3.0225675   0.52280076 
   32100   0.98437477   -4.5013271            0   -3.0264739   0.49229346 
   32200   0.98770632   -4.5102444            0   -3.0303996   0.51180468 
   32300   0.99122682   -4.5216193            0   -3.0364999   0.44253122 
   32400   0.98989639   -4.5244458            0   -3.0413198   0.42485474 
   32500    1.0079991   -4.5546514            0   -3.0444027   0.33744171 
   32600   0.98541792   -4.5266106            0   -3.0501945   0.47035918 
   32700   0.99137884   -4.5400205            0   -3.0546734   0.41323243 
   32800   0.98192792   -4.5321617            0   -3.0609745    0.4625117 
   32900   0.96822135    -4.518704            0    -3.068053   0.46902765 
   33000   0.94830217   -4.4971207            0   -3.0763138   0.56021371 
   33100   0.98194789   -4.5538663            0   -3.0826493   0.29746518 
   33200   0.99376333   -4.5809597            0     -3.09204   0.24897293 
   33300   0.96289618   -4.5413835            0   -3.0987109   0.45696656 
   33400    0.9702413   -4.5612173            0   -3.1075398   0.42015046 
   33500   0.94232597   -4.5282862            0   -3.1164332   0.57578161 
   33600   0.95844358   -4.5616517            0   -3.1256503    0.4103088 
   33700   0.95700319   -4.5665201            0   -3.1326768   0.35242487 
   33800   0.94069641   -4.5481035            0   -3.1386921   0.44844448 
   33900   0.94816335   -4.5668809            0    -3.146282   0.32421995 
   34000   0.93684213   -4.5534307            0   -3.1497939   0.31263078 
   34100    0.9107013   -4.5166875            0   -3.1522166   0.43670159 
   34200   0.95979017   -4.5925696            0   -3.1545506   0.17069355 
   34300   0.93727899   -4.5602447            0   -3.1559534   0.24990487 
   34400    0.9240326   -4.5392578            0   -3.1548131   0.38531677 
   34500   0.93989864   -4.5595068            0   -3.1512907   0.37606614 
   34600   0.95057972   -4.5702111            0   -3.1459918   0.33622115 
   34700   0.97814435   -4.6046106            0   -3.1390923   0.25871688 
   34800   0.96482756   -4.5763969            0   -3.1308306   0.33473418 
   34900   0.94970667   -4.5419491            0   -3.1190379   0.50930372 
   35000   0.96040881   -4.5460211            0   -3.1070753   0.54395464 
   35100    0.9575094   -4.5280569            0   -3.0934552   0.60164686 
   35200   0.99173016   -4.5668984            0   -3.0810249   0.42768801 
   35300   0.96794321   -4.5174536            0   -3.0672192   0.60688027 
   35400    1.0122092   -4.5702381            0   -3.0536816    0.3690218 
   35500   0.98830791   -4.5255429            0   -3.0447969   0.48180466 
   35600      1.00016   -4.5328291            0   -3.0343255    0.5197181 
   35700    1.0183968   -4.5533809            0   -3.0275538   0.45980336 
   35800    1.0000191   -4.5186614            0   -3.0203689   0.60853165 
   35900    1.0121628   -4.5326156            0   -3.0161285   0.59292148 
   36000    1.0149106   -4.5340181            0   -3.0134141     0.567286 
   36100   0.97407663   -4.4696689            0   -3.0102451   0.71565952 
   36200    1.0245611   -4.5422479            0   -3.0071849   0.36869032 
   36300   0.96541128   -4.4512422            0   -3.0048013   0.68420131 
   36400    1.0217807    -4.533287            0   -3.0023899   0.42073776 
   36500   0.99761141   -4.4952207            0   -3.0005356   0.62896492 
   36600     1.032596   -4.5458176            0   -2.9987163   0.43268375 
   36700     1.013152   -4.5168316            0   -2.9988626   0.52122152 
   36800   0.98476358   -4.4742094            0   -2.9987737   0.66487876 
   36900    1.0204965   -4.5267013            0   -2.9977283   0.44114874 
   37000    1.0486458   -4.5684556            0   -2.9973074   0.28767947 
   37100   0.96817194   -4.4489383            0   -2.9983613   0.67852091 
   37200    1.0235502   -4.5332555            0   -2.9997072   0.41348707 
   37300    1.0063918   -4.5084065            0    -3.000566   0.54830448 
   37400    0.9988611   -4.4969904            0   -3.0004329   0.72039351 
   37500    1.0027827   -4.5047102            0   -3.0022771   0.79898891 
   37600   0.99371903   -4.4920521            0   -3.0031987   0.79166107 
   37700    1.0201728    -4.532622            0    -3.004134   0.57509137 
   37800   0.99454928   -4.4949458            0   -3.0048485   0.69574147 
   37900    1.0269815   -4.5465876            0   -3.0078983   0.53653764 
   38000    1.0036128   -4.5136804            0   -3.0100035   0.68726151 
   38100   0.99384675   -4.5023365            0   -3.0132918   0.64908184 
   38200   0.99356542   -4.5060812            0    -3.017458   0.58412095 
   38300    1.0019115   -4.5241474            0   -3.0230196   0.46870602 
   38400    1.0165631    -4.550862            0   -3.0277822   0.39970188 
   38500    1.0081309    -4.542516            0     -3.03207    0.3755889 
   38600   0.98645408   -4.5157676            0   -3.0377991   0.50044492 
   38700   0.98305062   -4.5166025            0   -3.0437333   0.52067361 
   38800   0.99487284   -4.5419333            0   -3.0513512   0.42083881 
   38900   0.98428554   -4.5340323            0   -3.0593128   0.45558145 
   39000   0.97620164    -4.529058            0   -3.0664504   0.47944039 
   39100   0.94296686   -4.4864534            0   -3.0736402   0.56438932 
   39200   0.97937355   -4.5473589            0   -3.0799989   0.31625111 
   39300   0.96515378   -4.5337244            0   -3.0876694   0.37307759 
   39400   0.96385105   -4.5383764            0   -3.0942732   0.34751583 
   39500   0.95240292   -4.5251745            0   -3.0982236   0.44941824 
   39600   0.92684473   -4.4907126            0   -3.1020546   0.57809224 
   39700   0.97260666   -4.5618809            0   -3.1046595   0.30146588 
   39800   0.94891179   -4.5285751            0   -3.1068548   0.42975069 
   39900   0.96477352   -4.5517777            0   -3.1062924    0.3114703 
   40000   0.95206627   -4.5333075            0    -3.106861   0.33382583 
   40100   0.97045111    -4.557586            0   -3.1035942   0.22672849 
   40200   0.95985411   -4.5386604            0   -3.1005456   0.34628064 
   40300   0.97248329   -4.5521375            0   -3.0951009   0.31052687 
   40400   0.96071552   -4.5269408            0   -3.0875354   0.33573896 
   40500   0.97668332   -4.5416925            0   -3.0783631   0.29406318 
   40600   0.98768862   -4.5462973            0   -3.0664791   0.30920269 
   40700   0.97867072   -4.5199114            0   -3.0536044   0.43198144 
   40800   0.97459905   -4.5001901            0   -3.0399835   0.51897265 
   40900    1.0152982   -4.5482895            0   -3.0271048   0.34166731 
   41000   0.98536571   -4.4906742            0   -3.0143363   0.55417032 
   41100    1.0062032   -4.5083628            0   -3.0008048    0.5277223 
   41200    1.0147291   -4.5111006            0   -2.9907686   0.59559909 
   41300    1.0175933   -4.5071667            0   -2.9825434   0.61759486 
   41400    1.0094409    -4.486834            0   -2.9744252    0.6678091 
   41500    1.0283723   -4.5106274            0   -2.9698543   0.58327073 
   41600    1.0347812   -4.5156517            0   -2.9652763   0.52382706 
   41700    1.0230473   -4.4957374            0   -2.9629426   0.54977414 
   41800    1.0378004   -4.5156167            0   -2.9607178   0.45384397 
   41900    1.0450879   -4.5265072            0   -2.9606898   0.45196132 
   42000    1.0307979   -4.5052822            0   -2.9608749   0.55530786 
   42100    1.0151058   -4.4814932            0   -2.9605969   0.63357214 
   42200    1.0456489   -4.5309195            0   -2.9642615   0.52164666 
   42300     1.039001   -4.5241862            0   -2.9674885   0.55113526 
   42400    1.0436331   -4.5338382            0   -2.9702004   0.52597093 
   42500    1.0449369   -4.5410378            0   -2.9754465   0.39161112 
   42600    1.0286508   -4.5240892            0   -2.9828989   0.48586007 
   42700    1.0130988   -4.5060706            0   -2.9881813   0.64810119 
   42800    1.0328974   -4.5424882            0   -2.9949354   0.55901892 
   42900   0.99879131   -4.4978359            0   -3.0013829   0.67401706 
   43000   0.99871054   -4.5040177            0   -3.0076857   0.58600602 
   43100   0.99549642   -4.5061606            0   -3.0146443   0.53883578 
   43200    1.0105821   -4.5350804            0   -3.0209617   0.49567158 
   43300   0.97962461   -4.4947657            0   -3.0270295   0.69727426 
   43400    1.0054156   -4.5393496            0   -3.0329717    0.5030818 
   43500   0.97458902    -4.497397            0   -3.0372055   0.62292005 
   43600   0.99830238   -4.5385954            0    -3.042875   0.46932911 
   43700   0.99016266   -4.5306999            0    -3.047175   0.50558108 
   43800   0.98326899   -4.5242087            0   -3.0510123   0.52484337 
   43900   0.97607652   -4.5160523            0   -3.0536321   0.50225047 
   44000    1.0070638   -4.5661849            0   -3.0573376   0.23516548 
   44100   0.97389414   -4.5179913            0   -3.0588409    0.4345675 
   44200   0.97276651   -4.5191661            0   -3.0617052   0.49636718 
   44300   0.94982925   -4.4877336            0   -3.0646387   0.54571365 
   44400   0.98525279    -4.541674            0   -3.0655054     0.300278 
   44500   0.98431494   -4.5365728            0   -3.0618093   0.38651399 
   44600   0.97246723   -4.5178507            0   -3.0608381   0.50792577 
   44700   0.98406597   -4.5337271            0   -3.0593366   0.44866023 
   44800   0.96469673   -4.5020576            0   -3.0566873   0.56291793 
   44900   0.98169465   -4.5238889            0   -3.0530513   0.48402876 
   45000     1.012278   -4.5659949            0   -3.0493352   0.34159099 
   45100    1.0105345    -4.558514            0   -3.0444666    0.3674886 
   45200    1.0087402   -4.5508487            0   -3.0394896   0.32742102 
   45300    1.0093502    -4.546734            0    -3.034461   0.31037446 
   45400   0.97505484   -4.4900233            0   -3.0291338   0.56508672 
   45500    1.0266259   -4.5611022            0   -3.0229456   0.36148452 
   45600    1.0084585   -4.5248079            0    -3.013871   0.48996704 
   45700    1.0051443   -4.5112634            0    -3.005292   0.54150343 
   45800    1.0192706   -4.5203367            0   -2.9932003   0.55153739 
   45900    1.0111486   -4.4949699            0   -2.9800025   0.66289853 
   46000    1.0246954   -4.4994991            0   -2.9642349   0.57961407 
   46100    1.0322737   -4.4938056            0   -2.9471872   0.53351404 
   46200    1.0305765    -4.474897            0   -2.9308214   0.62007463 
   46300    1.0712777   -4.5207713            0   -2.9157146   0.49384989 
   46400     1.052906   -4.4809385            0   -2.9034074   0.64649358 
   46500    1.0328166   -4.4421296            0   -2.8946978    0.7670975 
   46600    1.0784265   -4.5039195            0    -2.888152   0.57456381 
   46700    1.0863783   -4.5118205            0   -2.8841392   0.62512197 
   46800    1.0638109    -4.476099            0   -2.8822295   0.80854702 
   46900    1.0500091   -4.4569675            0   -2.8837767   0.81045834 
   47000    1.0695249   -4.4883018            0   -2.8858713   0.73768909 
   47100    1.0404198   -4.4485234            0      -2.8897   0.86112263 
   47200    1.0541378   -4.4725834            0   -2.8932068   0.74092568 
   47300    1.0316403   -4.4453048            0   -2.8996353   0.80368447 
   47400    1.0572179   -4.4909692            0   -2.9069779   0.62381261 
   47500    1.0403255   -4.4745956            0   -2.9159135   0.72554621 
   47600     1.023801   -4.4570844            0   -2.9231604   0.90581671 
   47700    1.0348748   -4.4808254            0   -2.9303099   0.79696288 
   47800    1.0573643   -4.5249097            0    -2.940699   0.59602738 
   47900    1.0434475   -4.5123629            0   -2.9490031   0.62865473 
   48000    1.0581007   -4.5441672            0   -2.9588531   0.51174388 
   48100    1.0308355   -4.5115509            0   -2.9670873   0.59802622 
   48200    1.0136997   -4.4948834            0   -2.9760937   0.67610812 
   48300     1.015068   -4.5049781            0   -2.9841383   0.63519742 
   48400    1.0211366    -4.521644            0    -2.991712   0.52391383 
   48500     1.011483   -4.5125041            0   -2.9970357   0.55261668 
   48600     1.031729   -4.5492368            0   -3.0034345   0.53689242 
   48700   0.99170183   -4.4946364            0   -3.0088053   0.68435579 
   48800   0.99261768    -4.500186            0   -3.0129828   0.63497696 
   48900    1.0068338   -4.5255094            0   -3.0170067   0.60340934 
   49000   0.99070622   -4.5053967            0   -3.0210573   0.67106951 
   49100   0.99500641   -4.5165492            0    -3.025767   0.60481128 
   49200    0.9741409   -4.4883572            0   -3.0288371   0.65301615 
   49300    1.0079362   -4.5410023            0   -3.0308478   0.36011683 
   49400   0.99150918   -4.5192649            0   -3.0337225   0.44121301 
   49500   0.98140562    -4.505833            0   -3.0354284   0.51483027 
   49600    1.0264169    -4.574436            0   -3.0365927   0.19102361 
   49700   0.98915521   -4.5204266            0   -3.0384111   0.38747535 
   49800    0.9906935   -4.5236024            0   -3.0392821    0.4177167 
   49900    1.0079898   -4.5497349            0   -3.0395002   0.36322812 
   50000   0.98748524   -4.5212735            0     -3.04176   0.46536243 
Loop time of 11.7144 on 4 procs for 50000 steps with 864 atoms

Performance: 368777.964 tau/day, 4268.263 timesteps/s
99.5% CPU use with 4 MPI tasks x no OpenMP threads

MPI task timing breakdown:
Section |  min time  |  avg time  |  max time  |%varavg| %total
---------------------------------------------------------------
Pair    | 4.8196     | 5.0046     | 5.1828     |   6.6 | 42.72
Neigh   | 0.79116    | 0.8008     | 0.81184    |   0.8 |  6.84
Comm    | 5.1624     | 5.3027     | 5.4309     |   4.8 | 45.27
Output  | 0.0065065  | 0.015256   | 0.041446   |  12.2 |  0.13
Modify  | 0.47736    | 0.51864    | 0.55932    |   5.0 |  4.43
Other   |            | 0.07233    |            |       |  0.62

Nlocal:        216.000 ave         223 max         212 min
Histogram: 2 0 0 0 1 0 0 0 0 1
Nghost:        1168.75 ave        1174 max        1157 min
Histogram: 1 0 0 0 0 0 0 1 0 2
Neighs:        6808.25 ave        7237 max        6559 min
Histogram: 2 0 0 0 1 0 0 0 0 1

Total # of neighbors = 27233
Ave neighs/atom = 31.519676
Neighbor list builds = 2500
Dangerous builds not checked
unfix 	thermos

fix 	1 all nve

run 	20000
Per MPI rank memory allocation (min/avg/max) = 2.626 | 2.626 | 2.626 Mbytes
Step Temp E_pair E_mol TotEng Press 
   50000   0.98748524   -4.5212735            0     -3.04176   0.46536243 
   50100   0.95594474   -4.4743911            0   -3.0421336   0.63670507 
   50200   0.99444135    -4.533094            0   -3.0431584   0.37092888 
   50300    0.9957083    -4.533201            0   -3.0413673   0.42340498 
   50400   0.98644218   -4.5197674            0   -3.0418167   0.46267584 
   50500   0.97231999    -4.498185            0    -3.041393   0.45724196 
   50600   0.98091413   -4.5122914            0   -3.0426232   0.41920521 
   50700   0.98767377   -4.5217833            0   -3.0419874   0.45216129 
   50800   0.98094395   -4.5105489            0    -3.040836   0.47835492 
   50900   0.99147427   -4.5257988            0   -3.0403087   0.41462925 
   51000   0.97651373     -4.50333            0   -3.0402548   0.51604533 
   51100   0.98454688   -4.5146771            0   -3.0395661   0.47527823 
   51200   0.98720781   -4.5204078            0   -3.0413099   0.46133033 
   51300    1.0200761   -4.5696181            0   -3.0412749   0.29558947 
   51400   0.99058389   -4.5259138            0   -3.0417577   0.51161182 
   51500   0.99901037    -4.538788            0   -3.0420068   0.46099577 
   51600    1.0027817   -4.5435857            0   -3.0411541   0.40913085 
   51700    1.0025994   -4.5429036            0   -3.0407451   0.41834454 
   51800    1.0161509   -4.5641928            0   -3.0417307   0.35974535 
   51900   0.98644233    -4.520551            0      -3.0426   0.52875222 
   52000    1.0027185   -4.5434648            0   -3.0411278   0.47433825 
   52100    1.0086177   -4.5526622            0   -3.0414867   0.42269417 
   52200   0.97324384   -4.4992868            0   -3.0411107   0.59242754 
   52300   0.98705342    -4.519562            0   -3.0406955   0.52071703 
   52400    1.0172012   -4.5649038            0    -3.040868   0.38408478 
   52500   0.98899837    -4.523005            0   -3.0412244   0.51230257 
   52600   0.98994343   -4.5251969            0   -3.0420004   0.46356959 
   52700   0.98120138   -4.5102656            0   -3.0401671   0.53636479 
   52800   0.98058607   -4.5097001            0   -3.0405234   0.51704651 
   52900   0.94692238    -4.459206            0   -3.0404664   0.67191387 
   53000   0.99899503   -4.5385139            0   -3.0417557   0.33641005 
   53100    0.9846848   -4.5174637            0    -3.042146   0.38092123 
   53200   0.99501318   -4.5328084            0   -3.0420161   0.39152364 
   53300   0.98198391    -4.513607            0    -3.042336   0.49277199 
   53400    1.0017556   -4.5410248            0   -3.0401305   0.37216371 
   53500   0.96550044     -4.48776            0   -3.0411856   0.55206756 
   53600    1.0093566   -4.5524301            0   -3.0401476   0.33228389 
   53700    1.0033074    -4.544241            0   -3.0410217   0.38456609 
   53800   0.97488483   -4.5021079            0   -3.0414732   0.53059997 
   53900   0.98657528   -4.5192439            0   -3.0410937   0.46883784 
   54000   0.97335257   -4.5001861            0    -3.041847   0.56019735 
   54100   0.96878263   -4.4936399            0   -3.0421478   0.62858053 
   54200   0.98588396   -4.5201457            0   -3.0430313   0.51080152 
   54300    1.0002967   -4.5395537            0   -3.0408453      0.38361 
   54400   0.98854422   -4.5228348            0   -3.0417347   0.50464826 
   54500   0.96884344    -4.492898            0   -3.0413149   0.64428949 
   54600   0.98347349   -4.5148992            0   -3.0413964   0.60916085 
   54700   0.98208198   -4.5123183            0   -3.0409004   0.63343433 
   54800    1.0067129   -4.5497376            0   -3.0414159   0.37422052 
   54900    1.0135456    -4.560864            0   -3.0423053   0.29695583 
   55000   0.97454095   -4.5025491            0   -3.0424296   0.55939265 
   55100   0.98970088    -4.524457            0    -3.041624   0.52243237 
   55200    0.9831153   -4.5155722            0   -3.0426061   0.51441348 
   55300   0.96413334   -4.4864282            0    -3.041902   0.62846073 
   55400   0.97905444   -4.5085558            0   -3.0416739   0.58833353 
   55500   0.96739974   -4.4914188            0   -3.0419987   0.61774459 
   55600    1.0000232   -4.5386422            0   -3.0403436   0.39241272 
   55700   0.97644659   -4.5032797            0   -3.0403051   0.53622514 
   55800   0.98878246   -4.5228372            0   -3.0413802   0.44992737 
   55900    1.0069974   -4.5506249            0    -3.041877   0.36603308 
   56000    1.0002264   -4.5406899            0   -3.0420868   0.42815049 
   56100    0.9908731   -4.5266717            0   -3.0420823   0.47285778 
   56200    0.9722538   -4.4982459            0   -3.0415532   0.61092344 
   56300    0.9840563   -4.5160994            0   -3.0417234   0.51204372 
   56400    1.0083275   -4.5535262            0   -3.0427856   0.32777884 
   56500   0.99810902   -4.5382412            0   -3.0428105   0.40698246 
   56600   0.98354206   -4.5158217            0   -3.0422162   0.46921991 
   56700   0.99384894   -4.5306986            0   -3.0416507   0.41200444 
   56800    1.0234243   -4.5757361            0   -3.0423765   0.24508976 
   56900   0.98226265   -4.5136268            0   -3.0419381   0.52045491 
   57000   0.99670133   -4.5354681            0   -3.0421465   0.40640639 
   57100   0.97867247   -4.5069878            0   -3.0406782   0.60311484 
   57200   0.98726022   -4.5207206            0   -3.0415442   0.55046212 
   57300   0.97887249   -4.5081125            0   -3.0415032   0.54755583 
   57400   0.96988078   -4.4952841            0   -3.0421468   0.58220743 
   57500   0.97311962   -4.5001986            0   -3.0422087   0.63538348 
   57600    1.0164568   -4.5666354            0   -3.0437149   0.39162017 
   57700   0.99917351   -4.5397725            0   -3.0427469   0.44459424 
   57800    1.0064151   -4.5495457            0   -3.0416703   0.40513459 
   57900   0.98007649   -4.5112186            0   -3.0428054   0.57935956 
   58000    1.0191162   -4.5688054            0   -3.0419005   0.38288919 
   58100   0.97727427   -4.5056623            0   -3.0414476   0.60195089 
   58200   0.99226101   -4.5284992            0   -3.0418304   0.56019924 
   58300    1.0082505   -4.5520596            0   -3.0414343    0.5290348 
   58400    1.0190083   -4.5680628            0   -3.0413195   0.44751975 
   58500   0.99923011   -4.5379115            0   -3.0408011   0.47197443 
   58600   0.97772492   -4.5062986            0   -3.0414086   0.58865081 
   58700    1.0039593   -4.5446508            0   -3.0404548   0.37225103 
   58800   0.97575281   -4.5030436            0   -3.0411084   0.52036112 
   58900   0.95449099   -4.4704483            0   -3.0403689   0.62570272 
   59000   0.95651492   -4.4746727            0   -3.0415609   0.56546442 
   59100    1.0105818   -4.5552103            0    -3.041092   0.28380128 
   59200   0.98806975    -4.522026            0   -3.0416368   0.45806387 
   59300   0.99563581   -4.5327585            0   -3.0410333   0.42651831 
   59400   0.99040113   -4.5239684            0   -3.0400861   0.50951313 
   59500   0.99595698   -4.5339161            0   -3.0417097   0.49345518 
   59600   0.99846905   -4.5365866            0   -3.0406165   0.48145114 
   59700   0.98441466   -4.5165459            0    -3.041633   0.58721588 
   59800   0.98869042   -4.5212681            0    -3.039949   0.49801541 
   59900   0.95645263   -4.4734958            0   -3.0404774   0.64439371 
   60000   0.97717232    -4.505517            0    -3.041455   0.52262821 
   60100   0.98290754   -4.5146809            0    -3.042026   0.48653841 
   60200   0.98121559   -4.5127327            0   -3.0426129   0.44745477 
   60300    0.9960527   -4.5355498            0      -3.0432   0.40291702 
   60400   0.99585977   -4.5348837            0   -3.0428229   0.51385189 
   60500    1.0036109   -4.5455889            0   -3.0419149   0.43279667 
   60600   0.99159749   -4.5269445            0   -3.0412698   0.47932211 
   60700    0.9824427   -4.5140836            0   -3.0421252   0.60421374 
   60800   0.95907039   -4.4791572            0   -3.0422167    0.7071167 
   60900   0.98805301   -4.5217154            0   -3.0413513    0.5259138 
   61000    1.0036939   -4.5470019            0   -3.0432036   0.43512149 
   61100   0.97432572   -4.5036527            0   -3.0438557   0.57789687 
   61200     1.001924   -4.5432924            0   -3.0421458   0.38552668 
   61300    1.0165287   -4.5669511            0   -3.0439229    0.2241625 
   61400   0.98045076   -4.5114803            0   -3.0425064   0.46277259 
   61500   0.98408905   -4.5156625            0   -3.0412374   0.50999021 
   61600    1.0106402   -4.5552366            0   -3.0410309   0.42489692 
   61700   0.99519801   -4.5311008            0   -3.0400316   0.58326732 
   61800   0.97558366   -4.5019924            0   -3.0403106   0.66991112 
   61900   0.99916867   -4.5384871            0   -3.0414688   0.48470905 
   62000   0.97401781   -4.4999116            0   -3.0405758   0.49335007 
   62100   0.97551627    -4.501795            0   -3.0402142    0.5034377 
   62200   0.99183272    -4.526748            0   -3.0407208   0.41863576 
   62300   0.99498076   -4.5323748            0    -3.041631     0.447584 
   62400   0.98942831   -4.5247755            0   -3.0423508   0.51054722 
   62500   0.97889811   -4.5081277            0     -3.04148   0.51508049 
   62600   0.99256051   -4.5279005            0   -3.0407829   0.47724023 
   62700    1.0018176    -4.542168            0   -3.0411809   0.50325813 
   62800    1.0214355   -4.5727101            0   -3.0423303   0.38808851 
   62900   0.98692696   -4.5200609            0   -3.0413839   0.53150111 
   63000   0.98097174   -4.5102153            0   -3.0404607   0.57478377 
   63100   0.97020038   -4.4939701            0   -3.0403539   0.70017649 
   63200   0.98630591   -4.5189569            0   -3.0412103   0.53885344 
   63300   0.97270173   -4.4991258            0    -3.041762   0.58952007 
   63400   0.97782064   -4.5072661            0   -3.0422328   0.59896803 
   63500    0.9931082   -4.5299091            0    -3.041971   0.54378991 
   63600   0.97971498   -4.5100885            0   -3.0422169    0.6117132 
   63700   0.97584819   -4.5041348            0   -3.0420567   0.63777065 
   63800     1.001633   -4.5432394            0   -3.0425289   0.44285756 
   63900   0.95187838   -4.4690377            0   -3.0428727   0.68357538 
   64000    0.9927184   -4.5289236            0   -3.0415695   0.47248329 
   64100   0.99626558   -4.5355587            0   -3.0428899   0.45824856 
   64200     1.001118   -4.5420989            0   -3.0421599   0.42830916 
   64300    1.0020108   -4.5425791            0   -3.0413026   0.38254356 
   64400   0.98715858   -4.5213298            0   -3.0423057   0.46832789 
   64500   0.97783941   -4.5080244            0   -3.0429629   0.48846713 
   64600    1.0000504    -4.541231            0   -3.0428917   0.37032568 
   64700   0.97582962    -4.503557            0   -3.0415068   0.46641587 
   64800   0.98491667   -4.5155322            0   -3.0398671   0.45142788 
   64900   0.95223297   -4.4671482            0   -3.0404519   0.67529219 
   65000   0.99626886   -4.5335071            0   -3.0408335   0.49176273 
   65100   0.99904664    -4.538417            0   -3.0415815   0.50282452 
   65200   0.98467979   -4.5170853            0   -3.0417751   0.60937329 
   65300   0.99483349   -4.5325673            0   -3.0420442   0.53822531 
   65400     1.005521   -4.5482592            0   -3.0417234   0.46100651 
   65500   0.97797038   -4.5074159            0   -3.0421582   0.51764524 
   65600    1.0152723   -4.5631401            0   -3.0419944   0.29312892 
   65700   0.96565683   -4.4883268            0   -3.0415181   0.58204801 
   65800   0.99696591   -4.5344857            0   -3.0407677   0.44663414 
   65900   0.99634649   -4.5333488            0   -3.0405588   0.44104152 
   66000   0.98411375   -4.5148672            0   -3.0404052   0.48988534 
   66100   0.97960378   -4.5090002            0   -3.0412952   0.52913355 
   66200   0.99549233   -4.5333711            0   -3.0418609   0.36290463 
   66300   0.98005295   -4.5108589            0    -3.042481   0.45322316 
   66400   0.97608024   -4.5034753            0   -3.0410495    0.5777858 
   66500    1.0210131   -4.5714798            0   -3.0417328   0.38395727 
   66600   0.97841267   -4.5058698            0   -3.0399494   0.69834165 
   66700   0.99718082   -4.5351832            0   -3.0411432   0.53186811 
   66800    0.9759706   -4.5028357            0   -3.0405742   0.60962907 
   66900   0.96994139   -4.4947072            0    -3.041479   0.67566792 
   67000   0.97830677   -4.5072568            0   -3.0414951   0.61557928 
   67100   0.97733936   -4.5052052            0   -3.0408929   0.58781787 
   67200   0.99359244   -4.5278589            0   -3.0391952   0.53217275 
   67300    1.0049171   -4.5458623            0   -3.0402313   0.46790324 
   67400    1.0146514    -4.560882            0   -3.0406665   0.40966992 
   67500   0.98001127    -4.509451            0   -3.0411355     0.560907 
   67600    1.0044551   -4.5459071            0   -3.0409682   0.43642148 
   67700   0.99028067   -4.5252853            0   -3.0415835   0.53437272 
   67800   0.98205535   -4.5141855            0   -3.0428074   0.64206068 
   67900   0.98046958   -4.5107161            0    -3.041714   0.67881773 
   68000    1.0049118   -4.5477193            0   -3.0420962   0.48694599 
   68100    0.9722063   -4.4993158            0   -3.0426942   0.61505522 
   68200    0.9800205   -4.5117052            0   -3.0433758   0.56502478 
   68300    1.0000297   -4.5397279            0   -3.0414196      0.51807 
   68400    1.0039922   -4.5472509            0   -3.0430056    0.5310366 
   68500   0.98634387   -4.5211279            0   -3.0433245   0.63679019 
   68600    1.0050089   -4.5474304            0   -3.0416619   0.52597242 
   68700   0.95862129   -4.4792721            0   -3.0430044    0.7078285 
   68800   0.99753542   -4.5358944            0   -3.0413231    0.5509712 
   68900   0.99491386   -4.5323425            0    -3.041699   0.57472055 
   69000    1.0027404   -4.5433271            0   -3.0409573   0.46908447 
   69100   0.98250571   -4.5151852            0   -3.0431323   0.58593401 
   69200    1.0055274   -4.5498109            0   -3.0432656   0.45605283 
   69300    1.0158731   -4.5654288            0   -3.0433829   0.38650803 
   69400   0.99956019   -4.5415369            0   -3.0439319   0.49402334 
   69500    1.0116185   -4.5598437            0   -3.0441723   0.45938121 
   69600   0.98247765   -4.5141676            0   -3.0421568   0.64448493 
   69700    1.0118137    -4.558247            0   -3.0422831   0.43457659 
   69800   0.98737237   -4.5208677            0   -3.0415233   0.51611549 
   69900   0.99074472   -4.5253338            0   -3.0409368   0.53295184 
   70000   0.98570781   -4.5183959            0   -3.0415455   0.57355391 
Loop time of 4.62867 on 4 procs for 20000 steps with 864 atoms

Performance: 373325.398 tau/day, 4320.896 timesteps/s
99.6% CPU use with 4 MPI tasks x no OpenMP threads

MPI task timing breakdown:
Section |  min time  |  avg time  |  max time  |%varavg| %total
---------------------------------------------------------------
Pair    | 1.9242     | 1.9986     | 2.0548     |   3.9 | 43.18
Neigh   | 0.31595    | 0.31996    | 0.32245    |   0.4 |  6.91
Comm    | 2.1705     | 2.2258     | 2.2941     |   3.6 | 48.09
Output  | 0.0041719  | 0.007727   | 0.018252   |   6.9 |  0.17
Modify  | 0.049864   | 0.049983   | 0.050089   |   0.0 |  1.08
Other   |            | 0.02663    |            |       |  0.58

Nlocal:        216.000 ave         224 max         202 min
Histogram: 1 0 0 0 0 0 1 0 1 1
Nghost:        1151.00 ave        1161 max        1139 min
Histogram: 1 0 0 1 0 0 0 0 1 1
Neighs:        6811.50 ave        7243 max        6240 min
Histogram: 1 0 0 1 0 0 0 0 0 2

Total # of neighbors = 27246
Ave neighs/atom = 31.534722
Neighbor list builds = 1000
Dangerous builds not checked

compute 1 all msd
compute 2 all vacf

thermo_style custom c_1[4] c_2[4]
thermo 100

run 10000
Per MPI rank memory allocation (min/avg/max) = 3.376 | 3.376 | 3.376 Mbytes
c_1[4] c_2[4] 
           0    2.9537008 
 0.024968954    1.1213319 
 0.077582795   0.20816487 
  0.13887651    0.1221228 
  0.19953538   0.16996998 
  0.25716399 -0.016676422 
  0.31760207 -0.083059774 
  0.38010026  -0.01652348 
  0.44717971  0.077496369 
  0.50899799 0.0062488081 
  0.57021282  -0.02508902 
  0.63348593   0.03380025 
  0.69543577  0.059424897 
  0.75452631  0.070375452 
   0.8092751 -0.070755894 
  0.86003056 -0.080730945 
  0.91395992 0.0095281771 
  0.97460464 -0.011147748 
    1.033001 -0.056582028 
     1.10078  0.039084195 
   1.1739525  0.096443664 
   1.2256996  0.031006257 
   1.2805565  0.076189862 
   1.3527929    0.1431602 
    1.419403  0.053108586 
   1.4688817 -0.050677836 
   1.5209408  0.015494673 
   1.5702301 -0.046897891 
   1.6271263 -0.070485331 
   1.6900487   0.11323788 
   1.7428716  0.001758352 
    1.792847  0.074110076 
   1.8573163 -0.018497784 
   1.9248474  -0.11660753 
   1.9798702 -0.088783998 
   2.0319594 -0.045540108 
   2.0938103 -0.013205705 
   2.1516449  0.060806733 
   2.2242918   0.09852436 
   2.2860486  0.055726383 
   2.3381953 -0.029441588 
   2.3918393  0.028308996 
   2.4408964 -0.0083697918 
   2.4894999 -0.052406367 
   2.5462105 -0.085926172 
   2.6086675  -0.11229942 
    2.685951 -0.023942438 
   2.7534148 -0.0048177938 
   2.8199573 0.0023419334 
   2.8925267 -0.0018376591 
   2.9622825 -0.047278781 
   3.0392994 -0.0025307224 
   3.1258573  -0.11216502 
   3.1966905  0.012650748 
   3.2676327   0.10597848 
   3.3508254   0.12214192 
   3.4318516 -0.0068434645 
   3.5030204 -0.039401198 
   3.5798503  0.077000836 
   3.6700383  0.087510422 
   3.7625123  -0.10702614 
   3.8493411  -0.01889156 
   3.9371482 0.0017487781 
   4.0126164 -0.020068873 
   4.0731746 -0.015782469 
   4.1190618  0.043206776 
   4.1788009  0.079090212 
   4.2386789  0.056125644 
   4.3142775  0.071181821 
   4.3832092  0.049396913 
   4.4554929  0.013775972 
   4.5315773 -0.024843777 
   4.6041019  0.067688244 
   4.6574431  0.079550101 
   4.7168068 -0.0092871289 
   4.7891076 -0.0028645133 
   4.8687987  0.083689769 
   4.9710289  0.035243944 
   5.0382584 -0.017287635 
   5.0910796 0.0073965444 
   5.1541796 -0.0065585975 
   5.2167286 -0.012187312 
   5.2713314 -0.031779294 
   5.3184961 -0.047533664 
   5.3962724 -0.061406752 
   5.4918205  0.013081069 
   5.5678214   0.03039354 
   5.6473381  -0.02851149 
   5.7346675 -0.044281937 
    5.808313 -0.052880976 
   5.8690931 -0.052412463 
   5.9291077 -0.073259577 
   5.9795722 -0.013372829 
   6.0326201  0.061050132 
   6.0977724  0.086721834 
   6.1541502  0.035178408 
   6.2091138  0.016627067 
    6.288898 -0.088190805 
   6.3683154  -0.14060139 
   6.4337969 0.0057918637 
    6.521593  0.016207337 
Loop time of 2.3148 on 4 procs for 10000 steps with 864 atoms

Performance: 373250.252 tau/day, 4320.026 timesteps/s
99.6% CPU use with 4 MPI tasks x no OpenMP threads

MPI task timing breakdown:
Section |  min time  |  avg time  |  max time  |%varavg| %total
---------------------------------------------------------------
Pair    | 0.95918    | 0.99161    | 1.0352     |   2.8 | 42.84
Neigh   | 0.15789    | 0.15991    | 0.16231    |   0.4 |  6.91
Comm    | 1.0771     | 1.1213     | 1.1493     |   2.5 | 48.44
Output  | 0.0017513  | 0.0036531  | 0.0089373  |   5.1 |  0.16
Modify  | 0.024706   | 0.025039   | 0.025178   |   0.1 |  1.08
Other   |            | 0.01327    |            |       |  0.57

Nlocal:        216.000 ave         221 max         213 min
Histogram: 1 0 2 0 0 0 0 0 0 1
Nghost:        1155.25 ave        1161 max        1151 min
Histogram: 2 0 0 0 0 0 0 1 0 1
Neighs:        6804.25 ave        6981 max        6553 min
Histogram: 1 0 0 1 0 0 0 0 0 2

Total # of neighbors = 27217
Ave neighs/atom = 31.501157
Neighbor list builds = 500
Dangerous builds not checked

compute 3 all msd
compute 4 all vacf

thermo_style custom c_3[4] c_4[4]
thermo 100

run 10000
Per MPI rank memory allocation (min/avg/max) = 4.126 | 4.126 | 4.126 Mbytes
c_3[4] c_4[4] 
           0    2.9391789 
 0.024704883    1.0479754 
 0.074347646   0.03423238 
  0.12905337  0.033630233 
  0.18502737 -0.0077887119 
  0.24466977  0.041734842 
  0.30868932 -0.082615914 
  0.36875859 -0.030408762 
  0.42830223 0.0047837562 
  0.49196506 -0.073472796 
  0.55722891 -0.054179799 
  0.61468927 0.0067892275 
  0.66746087 -0.073907152 
  0.72457643 -0.065775304 
  0.78646794  0.011600714 
  0.84941158   0.12661274 
   0.9183023  0.061004887 
  0.97656486 -0.029012343 
   1.0319003 -0.032860802 
    1.098682 -0.073672889 
   1.1612432  0.035383076 
   1.2207534  0.052176541 
   1.2864557 0.0084303035 
   1.3520201  0.029289284 
   1.4168706  0.084347415 
   1.5020002  0.050883205 
   1.5849695 -0.00048409036 
   1.6592306 -0.052671392 
   1.7336723 -0.016643065 
   1.7976249  0.069645155 
   1.8647181 -0.019727354 
   1.9429051 -0.095465463 
   2.0137293 -0.042382306 
    2.065436 -0.014626321 
   2.1266755   0.02533328 
   2.1925872  0.032123722 
   2.2597959 -0.0064583737 
   2.3316001  0.056080076 
   2.3931165  0.058297979 
   2.4642414   0.05891344 
     2.54503   0.10899545 
   2.6212212  0.037631984 
   2.6854477 -0.021241079 
   2.7555585 -0.057864224 
   2.8204996 -0.023546499 
   2.8741249 -0.061362811 
   2.9274164 -0.011692246 
   2.9733738 -0.067538811 
   3.0220391  -0.13184821 
   3.0911851 -0.087659461 
   3.1473283  0.096397327 
   3.2022689  0.063928089 
    3.270537  0.053141558 
   3.3272607  0.043521322 
   3.4022883  0.074009012 
   3.4643557 -0.0037076206 
   3.5308767    0.0710837 
   3.6000383  0.079981952 
   3.6608418 -0.015981634 
   3.7013738 -0.014383725 
   3.7404756  0.015835768 
   3.7934746  0.035199723 
   3.8615129   0.05517189 
   3.9232151  0.045354809 
   3.9786352 -0.043699336 
   4.0411353 -0.0062196408 
   4.1072597 -0.032215486 
   4.1867255  -0.01473173 
   4.2698554  0.025455187 
   4.3611261  0.033117192 
    4.435278  0.068509142 
   4.5013898 -0.017027364 
   4.5731525 -0.099214604 
   4.6308668 -0.0046254514 
   4.6929955  -0.01367739 
    4.760736 -0.055570032 
    4.839331  0.037283206 
   4.8823785  0.026692369 
   4.9313596  -0.03143609 
   4.9843591 -0.037051267 
   5.0390061  0.038066031 
   5.1254045 0.00012960746 
    5.212537 -0.021621937 
   5.2916462   0.06467587 
   5.3785928 -0.022676371 
   5.4785621 0.0060125218 
   5.5709046  0.019584389 
   5.6416368 0.00087564001 
    5.703982 -0.018976387 
   5.7680198  -0.05019729 
   5.8256398  -0.02377225 
   5.8933357  0.063103356 
   5.9626505 -0.014176784 
   6.0244216 -0.0063401411 
   6.1158635  0.039281031 
   6.2067276  0.039730769 
   6.2635973 -0.079013796 
   6.3245378  0.017900761 
   6.3987991  0.082720173 
   6.4864371 -0.020658829 
   6.5638596   -0.0249024 
Loop time of 2.30028 on 4 procs for 10000 steps with 864 atoms

Performance: 375606.276 tau/day, 4347.295 timesteps/s
99.6% CPU use with 4 MPI tasks x no OpenMP threads

MPI task timing breakdown:
Section |  min time  |  avg time  |  max time  |%varavg| %total
---------------------------------------------------------------
Pair    | 0.96797    | 0.99244    | 1.0145     |   1.8 | 43.14
Neigh   | 0.15893    | 0.16006    | 0.16079    |   0.2 |  6.96
Comm    | 1.0848     | 1.1058     | 1.1254     |   1.5 | 48.07
Output  | 0.0019068  | 0.0036834  | 0.0088438  |   4.9 |  0.16
Modify  | 0.024638   | 0.025008   | 0.025247   |   0.2 |  1.09
Other   |            | 0.01325    |            |       |  0.58

Nlocal:        216.000 ave         221 max         211 min
Histogram: 1 0 0 1 0 0 0 1 0 1
Nghost:        1168.50 ave        1176 max        1161 min
Histogram: 1 0 0 0 1 0 1 0 0 1
Neighs:        6777.25 ave        6896 max        6699 min
Histogram: 1 1 0 0 1 0 0 0 0 1

Total # of neighbors = 27109
Ave neighs/atom = 31.376157
Neighbor list builds = 500
Dangerous builds not checked

compute 5 all msd
compute 6 all vacf

thermo_style custom c_5[4] c_6[4]
thermo 100

run 10000
Per MPI rank memory allocation (min/avg/max) = 4.876 | 4.876 | 4.876 Mbytes
c_5[4] c_6[4] 
           0     2.919686 
 0.025108024    1.1783936 
  0.07739321   0.14017817 
  0.13296651 0.0091992559 
   0.1883312  0.077200132 
  0.24185742 -0.058144179 
  0.29739189  0.008812946 
  0.35816305   0.07539872 
  0.41970095   0.10043118 
  0.47832932  0.046583328 
  0.53057766  0.051730573 
  0.58803593   0.12436185 
  0.64327561  0.072373507 
  0.69133229 0.0039109536 
  0.74786261 -0.070118289 
  0.81241932 -0.005813533 
   0.8808881  0.020609791 
  0.95322587   0.10880435 
   1.0243785 -0.064418766 
   1.0932973 -0.023226671 
    1.164963  0.050327846 
   1.2314676 -0.073954997 
   1.2910342  -0.11042188 
   1.3550334 -0.053996767 
    1.422495  0.035940784 
   1.4870047  0.046050673 
   1.5598269 -0.011820273 
    1.629028   0.04350854 
   1.6964174  0.016964875 
   1.7596563 -0.029134603 
   1.8080151 -0.071881014 
   1.8576086 -0.032080883 
   1.9293074 0.0021140104 
   2.0019477  -0.10518177 
   2.0708769  -0.11439895 
    2.141027 -0.023247087 
   2.2083279  0.054954309 
   2.2793909  0.044531526 
   2.3413993 -0.063296507 
    2.398976    0.0157415 
   2.4669191 -0.0039395004 
    2.526297 -0.035736743 
   2.5894601 -0.048926712 
   2.6515345  0.053481648 
   2.7038084 -0.045852787 
   2.7486543   0.08508588 
   2.8068522 0.0082383355 
   2.8561263 -0.057336991 
   2.9098612  0.003913564 
   2.9766497  0.088829211 
    3.045493  0.054525666 
   3.1142529 0.0023750628 
   3.1845549  0.045489159 
   3.2399415  0.022061795 
   3.2917294 -0.0021213333 
   3.3405754  0.016251356 
   3.3802261 -0.021436238 
   3.4250829 -0.030243194 
   3.4791516  -0.00492411 
   3.5263845 0.0035536113 
    3.570597  0.061029742 
     3.62626  0.036892443 
   3.6870073  -0.08078564 
   3.7365567 -0.081107445 
   3.7993958 -0.0061101558 
   3.8714239  0.076298383 
   3.9310073  0.014480991 
   4.0039054 -0.0038886884 
   4.0782096  0.029569221 
   4.1420164  0.077903718 
   4.2203786  0.066448289 
   4.2930854 -0.0087391104 
   4.3602844 -0.096670493 
   4.4184374  -0.10579223 
   4.4558405  -0.03127851 
   4.4960073 -0.069200306 
   4.5506375  0.022882742 
   4.6106014  0.060905938 
   4.6744517  0.013386124 
   4.7287355  0.036132941 
   4.7875628 -0.024923264 
   4.8570226  0.054998288 
   4.9164691  0.030422903 
   4.9695821 -0.081755159 
   5.0223218 -0.017027504 
   5.0985969 -0.026341777 
   5.1620453 -0.089256604 
   5.2202526 -0.032984528 
   5.2903439 -0.019572345 
   5.3684694 -7.9531541e-06 
   5.4324553 -0.075339155 
   5.4923537 -0.066592193 
   5.5625973 -0.036143987 
    5.640697  0.070024184 
   5.7112091  0.049745263 
    5.785199 -0.0075587915 
   5.8665477  -0.10517216 
   5.9403769 -0.087263658 
   5.9851718 -0.0081837054 
   6.0493616 -0.034430298 
   6.1154571 -0.0023006119 
Loop time of 2.30524 on 4 procs for 10000 steps with 864 atoms

Performance: 374798.680 tau/day, 4337.948 timesteps/s
99.6% CPU use with 4 MPI tasks x no OpenMP threads

MPI task timing breakdown:
Section |  min time  |  avg time  |  max time  |%varavg| %total
---------------------------------------------------------------
Pair    | 0.96078    | 0.99238    | 1.0238     |   2.9 | 43.05
Neigh   | 0.1586     | 0.15967    | 0.16114    |   0.3 |  6.93
Comm    | 1.0803     | 1.1112     | 1.1395     |   2.7 | 48.20
Output  | 0.0018683  | 0.0037258  | 0.0089541  |   4.9 |  0.16
Modify  | 0.024915   | 0.025006   | 0.025202   |   0.1 |  1.08
Other   |            | 0.01324    |            |       |  0.57

Nlocal:        216.000 ave         223 max         211 min
Histogram: 2 0 0 0 0 0 1 0 0 1
Nghost:        1151.00 ave        1161 max        1140 min
Histogram: 1 1 0 0 0 0 0 0 0 2
Neighs:        6806.25 ave        7040 max        6593 min
Histogram: 1 0 1 0 0 0 1 0 0 1

Total # of neighbors = 27225
Ave neighs/atom = 31.510417
Neighbor list builds = 500
Dangerous builds not checked

compute 7 all msd
compute 8 all vacf

thermo_style custom c_7[4] c_8[4]
thermo 100

run 10000
Per MPI rank memory allocation (min/avg/max) = 5.626 | 5.626 | 5.626 Mbytes
c_7[4] c_8[4] 
           0    2.9638005 
 0.025984031    1.2669738 
  0.08091231   0.24993157 
   0.1386236  0.036486084 
  0.19207495  0.050362697 
  0.24940621  0.089278225 
  0.30546588  -0.01822474 
  0.36267201 -0.078291532 
  0.41745497 -0.054736696 
  0.46987508 -0.040334709 
  0.52433605  0.028027517 
  0.58255254  0.026977652 
  0.64302255 -0.0027832156 
  0.70177991 -0.056256893 
  0.76133245  0.059063188 
  0.83282157   0.11237455 
  0.90338597  0.067484189 
  0.96468259 -0.0038146405 
   1.0290686 -0.056141195 
   1.0923511 -0.0024348711 
   1.1547633 -0.0098993436 
   1.2105419 0.00074723116 
   1.2772946   0.03173043 
   1.3450452  0.076423479 
   1.4107979   0.15171382 
   1.4740316  0.011549744 
   1.5382285  -0.11740056 
    1.613827 -0.060479723 
   1.6772741 0.0081801103 
   1.7333936  0.047481303 
   1.8038635  0.016103068 
   1.8871299 -0.0040393474 
   1.9645278    0.0107394 
   2.0365944 -0.014954261 
   2.1055706 -0.069243129 
   2.1670349   0.11353626 
   2.2203388  0.021546346 
   2.2791073  0.028956434 
   2.3400861  0.028405889 
    2.412089 -0.040785693 
   2.4863714 -0.025633906 
   2.5544724  0.056478348 
   2.6229927  0.026286446 
   2.6797062  0.016267774 
   2.7416829 -0.048568842 
   2.8108979    0.1081584 
   2.8946504  0.070021038 
   2.9719503  0.013694896 
   3.0377586  0.030071735 
   3.1071638 -0.028904942 
   3.1875796 -0.051983905 
   3.2476047  0.011614211 
   3.3061679  0.025533578 
   3.3514276  0.010273764 
    3.406134  0.081973322 
   3.4624682   0.07622899 
   3.5129363   0.11211631 
   3.5774271  0.025174921 
   3.6403597 -0.011421114 
   3.6988772  0.039447139 
   3.7689379  0.034674737 
   3.8490683  0.033032722 
   3.9252204  0.023033431 
   4.0126737    0.0269963 
   4.0942136  -0.05443959 
   4.1600272 -0.036753713 
    4.198801 -0.059295748 
   4.2411384 -0.030292139 
   4.2957873  0.038995694 
   4.3620245 -0.031245761 
   4.4368079  -0.10598284 
   4.5068037 -0.092496771 
   4.5680669  0.012182375 
   4.6243879  0.088262981 
   4.6681802 -0.033495422 
   4.7236906  0.032809804 
   4.7791734 0.0025853863 
   4.8397422  -0.05629447 
   4.9094648  -0.11873563 
   4.9790247 -0.029695146 
   5.0573981  0.025719152 
   5.1449758  0.031666725 
   5.2155078  0.093563881 
   5.2933275  0.053029343 
   5.3610569  0.025625362 
   5.4391203   0.04210076 
   5.5171977  0.074031963 
   5.5709045  0.053484245 
   5.6242573   0.12205049 
   5.7116944   0.16186808 
   5.8065715  0.099589504 
   5.8900097  0.035004622 
   5.9655748 -0.077493756 
   6.0317683 -0.034237816 
   6.1005987  0.060139183 
   6.1857702    0.1498805 
   6.2535427  0.090982561 
   6.3075723  0.027836944 
   6.3735828 -0.099999177 
   6.4537852 -0.045905019 
   6.5367403 -0.023740682 
Loop time of 2.28509 on 4 procs for 10000 steps with 864 atoms

Performance: 378104.094 tau/day, 4376.205 timesteps/s
99.6% CPU use with 4 MPI tasks x no OpenMP threads

MPI task timing breakdown:
Section |  min time  |  avg time  |  max time  |%varavg| %total
---------------------------------------------------------------
Pair    | 0.96549    | 0.99223    | 1.0057     |   1.6 | 43.42
Neigh   | 0.15815    | 0.15979    | 0.1625     |   0.4 |  6.99
Comm    | 1.0795     | 1.0912     | 1.1138     |   1.3 | 47.75
Output  | 0.0018312  | 0.0036536  | 0.0084568  |   4.6 |  0.16
Modify  | 0.024388   | 0.024997   | 0.02558    |   0.3 |  1.09
Other   |            | 0.01323    |            |       |  0.58

Nlocal:        216.000 ave         219 max         212 min
Histogram: 1 0 0 0 0 1 0 1 0 1
Nghost:        1149.00 ave        1151 max        1145 min
Histogram: 1 0 0 0 0 0 1 0 0 2
Neighs:        6811.75 ave        7109 max        6643 min
Histogram: 1 1 0 1 0 0 0 0 0 1

Total # of neighbors = 27247
Ave neighs/atom = 31.535880
Neighbor list builds = 500
Dangerous builds not checked

compute 9 all msd
compute 10 all vacf

thermo_style custom c_9[4] c_10[4]
thermo 100

run 10000
Per MPI rank memory allocation (min/avg/max) = 6.376 | 6.376 | 6.376 Mbytes
c_9[4] c_10[4] 
           0    2.9646908 
 0.025254222    1.1560653 
 0.077043287  0.055772705 
  0.13340711   0.03037211 
  0.19112063  0.090551432 
  0.25002988  0.045028463 
  0.30800152   0.11160837 
  0.37187095 -0.013125757 
  0.43917834 -0.013405295 
   0.5038148 -0.065777562 
  0.56410046 -0.072815757 
  0.62667488 -0.045208358 
  0.69258582 -0.020117271 
  0.75519729  0.023744408 
  0.81892827 0.0083761103 
  0.87823535  0.039291375 
  0.93708064 -0.090716883 
  0.99050159 -0.059983679 
   1.0405796 -0.045612912 
   1.1021786 -0.013060118 
   1.1594103 -0.040549046 
   1.2249567 -0.082188419 
   1.2910326  0.011240324 
   1.3594792  0.080044672 
   1.4342142   0.11418735 
   1.5154284  0.081331752 
   1.5898967  0.049660433 
   1.6589896 -0.012450016 
   1.7222962  0.084664366 
   1.7938425  0.056022925 
   1.8665637 -0.0077866188 
   1.9331561 -0.050522814 
   1.9866922 -0.0002525861 
   2.0478578 0.0083960054 
   2.1233965  0.063779467 
     2.20114  0.047707087 
   2.2683171 0.0054908837 
   2.3215222  0.018899396 
   2.3958137 -0.0010631483 
     2.46537 -0.034587312 
   2.5314892 -0.014853703 
   2.5896781 -0.075503193 
   2.6439805 -0.023517104 
   2.6938932  -0.10093878 
   2.7370051 -0.074083077 
   2.7965737 -0.030620825 
   2.8686472 -0.063733874 
   2.9254286  0.028477978 
   2.9709631  0.071613294 
   3.0311374  -0.04122272 
   3.0890224 -0.014103586 
   3.1383697  0.070905135 
   3.1947864  0.080638794 
   3.2444443  0.011231255 
   3.2908387  0.016043294 
   3.3497532  0.039173999 
   3.4145258   0.03679857 
   3.4852486   0.11103172 
   3.5426345 -0.00082959232 
    3.585223   0.06654347 
    3.649876  0.025974635 
   3.7249678  0.059249716 
   3.8207773  0.007909898 
   3.9140758    -0.066968 
   3.9893661  0.012498536 
   4.0471052  0.099474462 
   4.1067547 -0.00056228125 
   4.1744248 -0.027312658 
    4.233896 -0.034861864 
   4.2910658  -0.11259376 
   4.3606707 0.0094121018 
   4.4380778  0.011505757 
   4.5190171 -0.056904151 
    4.596539  0.073226105 
   4.6623615  0.029812795 
   4.7270801  0.033732002 
    4.781038 0.0090363314 
   4.8349257 -0.078224615 
   4.8945101 0.0030176179 
   4.9678778 -0.079019987 
   5.0405159 -0.041583905 
   5.1011121 0.0050020668 
   5.1658326 -0.0049781103 
   5.2253548   0.11767869 
   5.2763437  -0.02554737 
   5.3225154 0.0053309894 
    5.404038  0.018855814 
   5.4873657 -0.00059741272 
   5.5651613 -0.048751393 
   5.6599634 -0.022019389 
   5.7490183  0.045328531 
    5.797052  0.018298615 
   5.8314631 0.0043146408 
   5.8703745 0.0050975398 
   5.9243783  0.026678075 
   5.9790913 -0.078238056 
   6.0487003  0.047863433 
   6.1422298  0.052814972 
   6.2256451 -0.052351319 
   6.3157115 -0.016434967 
   6.3918282 -0.065991691 
Loop time of 2.3169 on 4 procs for 10000 steps with 864 atoms

Performance: 372911.308 tau/day, 4316.103 timesteps/s
99.7% CPU use with 4 MPI tasks x no OpenMP threads

MPI task timing breakdown:
Section |  min time  |  avg time  |  max time  |%varavg| %total
---------------------------------------------------------------
Pair    | 0.94649    | 0.9927     | 1.0306     |   3.0 | 42.85
Neigh   | 0.15655    | 0.16009    | 0.16253    |   0.6 |  6.91
Comm    | 1.0834     | 1.1221     | 1.1672     |   2.8 | 48.43
Output  | 0.0019362  | 0.0036745  | 0.0087298  |   4.8 |  0.16
Modify  | 0.024745   | 0.02501    | 0.025419   |   0.2 |  1.08
Other   |            | 0.01333    |            |       |  0.58

Nlocal:        216.000 ave         223 max         210 min
Histogram: 1 0 1 0 0 0 1 0 0 1
Nghost:        1170.50 ave        1184 max        1159 min
Histogram: 2 0 0 0 0 0 0 1 0 1
Neighs:        6788.00 ave        7157 max        6475 min
Histogram: 2 0 0 0 0 0 0 0 1 1

Total # of neighbors = 27152
Ave neighs/atom = 31.425926
Neighbor list builds = 500
Dangerous builds not checked




Total wall time: 0:00:27
