ITEM: TIMESTEP
52000
ITEM: NUMBER OF ATOMS
4000
ITEM: BOX BOUNDS pp pp pp
0.0000000000000000e+00 1.7099759466766969e+01
0.0000000000000000e+00 1.7099759466766969e+01
0.0000000000000000e+00 1.7099759466766969e+01
ITEM: ATOMS id x y z vx vy vz
3795 0.945133 0.742844 1.14159 -1.45279 -0.574576 1.37498
2055 1.92676 0.7816 1.12563 -0.534307 0.735246 0.700954
1608 2.43521 0.955015 0.185729 -0.419877 -0.366413 0.00237769
3368 2.89277 0.52225 1.30136 2.14347 -0.844001 -0.87711
3119 4.01308 0.93546 0.435753 -0.552808 -0.494737 0.629199
1760 3.23829 0.311765 0.33066 0.954491 0.472035 1.03202
2225 4.96655 0.204585 0.681424 0.616894 0.614872 1.96585
4 5.10621 1.26649 0.415187 0.98937 0.156498 1.33216
2081 7.12276 1.10837 0.715464 1.49997 -0.927149 -0.0654312
2541 6.01962 0.528208 0.400072 -0.769869 0.417393 -0.659211
3779 8.33224 0.381854 0.911398 -1.71069 0.191999 1.03357
100 9.03131 1.01318 0.306284 -0.196012 -0.00701075 -0.778706
1404 9.10818 0.0269449 0.329443 1.00463 -0.695434 -0.451048
3003 9.79047 1.12545 1.01802 -0.78721 0.808516 -1.05731
429 11.0196 0.91124 0.861464 0.779978 -1.03824 -0.273882
1762 10.0819 0.485056 0.0791992 -0.161578 -0.556755 -2.01751
3159 11.9992 1.14768 0.530715 1.36905 -0.0807989 -1.31214
2818 11.9004 0.0206657 0.991772 1.23029 -0.248935 -0.797834
187 13.6818 0.883812 0.680399 -1.76884 -0.977449 0.989785
2145 13.4727 0.120892 1.40133 -0.643612 -0.549658 0.455453
2742 12.9604 1.08853 0.0819154 -0.522377 0.643367 -0.665587
3761 15.549 0.849979 0.708402 -0.341176 1.20878 -0.532617
3891 14.7051 0.61772 1.25795 1.75019 1.23434 -0.635515
327 14.8343 0.685471 0.0940511 -0.12814 -1.63272 0.88072
2393 17.0906 0.0308894 1.07852 0.790864 0.601668 0.322395
1966 16.914 1.0193 1.25551 0.30423 -0.183272 0.310272
3174 16.7269 0.725474 0.287599 0.732388 0.103868 0.239598
1731 1.36202 2.64564 0.717868 -1.08834 2.48202 -1.30361
1512 0.329734 1.52117 0.495935 -1.73952 -0.696469 -0.0625869
456 1.23833 1.73546 1.20547 0.881038 -0.480156 -1.83209
1805 2.52523 2.29754 0.923971 0.11566 1.71211 -0.366867
1524 1.92227 1.93822 0.164624 0.622272 0.433095 -0.164041
3410 4.21225 1.4879 1.38481 0.713232 0.540763 0.883616
2206 3.55019 2.72887 0.80459 -0.544737 -0.599677 -1.14187
1612 3.15536 1.47641 0.851265 -1.09437 0.165724 -0.222174
2735 4.21866 1.88704 0.402278 0.280798 0.154244 0.450897
3636 5.18718 1.95708 1.18942 -0.573853 -0.685082 0.497846
416 7.0129 2.34069 1.19904 -0.277776 -0.357009 -1.54322
3445 6.13902 1.51948 1.04881 2.40049 1.25718 -0.474838
3970 6.63891 1.95569 0.0451476 1.91552 -0.768942 -0.269412
2498 5.99486 2.66433 0.744498 -1.1302 -0.505926 0.158121
239 8.09194 1.53438 0.146551 0.469453 -0.0462062 0.227353
3336 7.93432 2.57881 1.0284 -0.21548 0.396673 -0.591311
3009 8.98699 2.06233 1.23519 0.422888 1.12126 -0.435837
1870 9.29326 1.98493 0.0477556 1.5332 -0.549376 -1.05564
2067 10.3301 1.49 0.0664285 -0.380966 -1.49259 0.248556
260 11.3237 2.2063 0.256822 -0.38121 -0.469813 -1.20156
593 10.1014 2.17124 1.37181 0.405844 -0.884266 -0.712367
191 12.3448 2.44732 0.702353 -0.662887 0.747397 -0.0947232
917 11.4682 1.77735 1.20956 -0.573885 -0.110797 0.920499
80 13.2765 2.72544 0.329238 0.214431 -1.00619 0.729629
1791 14.0343 1.94865 1.17538 1.16027 0.0268345 -2.06107
2787 13.7359 1.79371 0.253073 -0.97819 2.50255 1.10828
2077 13.0614 1.94504 1.28023 2.47631 -0.344302 1.33093
3360 15.0918 1.99195 1.39954 0.293878 0.637071 -1.87752
1539 16.0505 1.6279 0.792558 0.128561 -1.56487 -0.957856
1151 16.9326 2.22224 1.04996 -1.29909 -0.0333075 -0.219584
805 15.7221 2.69996 0.785441 0.787347 -0.433978 0.183906
713 16.7542 2.73917 0.106042 1.0312 0.291507 1.17909
2417 0.41483 3.49661 0.492046 0.048165 0.624465 -0.14685
1170 2.14347 3.33439 0.879241 -0.917452 1.97209 -0.706162
1003 3.28879 3.74766 0.51545 0.835309 -1.04019 0.543645
897 3.9085 3.36801 1.36495 2.45583 0.36645 -0.362159
992 5.01735 2.9981 0.945236 -0.0208894 0.0614404 -1.07553
829 5.68623 3.92936 1.11872 0.438416 -0.401044 -0.393749
3821 4.41829 3.57567 0.420526 0.913351 -3.33298 0.492684
3691 7.02051 2.90188 0.204568 0.886139 -0.452827 1.20632
1471 6.56925 4.14517 0.580562 0.58318 0.500629 1.35875
2357 6.80302 3.37562 1.36582 -0.307698 -1.44243 0.508889
3843 5.93161 3.43609 0.0843495 0.936514 0.191783 -1.59196
3090 7.82195 3.67017 0.364006 0.48246 -0.406896 0.388407
588 8.45694 3.38267 1.4153 1.36663 -0.862897 0.511992
3057 8.85348 4.16245 0.132509 0.270461 0.764159 -0.558956
1076 9.26985 3.94222 1.00158 0.478116 -1.04672 1.00547
1120 8.71056 3.20052 0.463242 -0.950415 0.861804 0.759372
2142 10.2522 3.76723 1.32329 -1.33189 -1.01439 0.658723
157 11.0768 3.29809 0.404512 0.242289 0.84168 -0.159067
2387 12.7823 3.30859 1.10979 -0.572243 -1.47114 0.503377
3919 12.0395 3.85623 0.533334 0.586258 0.396394 -0.024667
41 11.7744 3.17913 1.30949 1.8644 -1.57423 1.0305
2431 12.9095 4.14529 0.188839 -1.37649 0.129621 0.211811
424 14.057 3.77654 0.367127 -2.39036 1.45624 0.753559
2901 14.6188 3.0956 0.97463 -0.117378 0.910181 1.0077
3161 15.0954 3.7794 0.205704 -0.877819 -0.331857 0.431442
2044 14.824 4.11983 1.3045 -1.10498 -0.850217 0.311876
3868 16.5682 3.40215 0.855785 -0.416402 -0.237513 -0.493864
1059 0.648122 5.35889 0.172787 2.96428 1.51765 0.169168
3910 1.41993 4.73508 1.2438 0.722255 1.30249 -2.11787
2909 1.26671 4.2922 0.368908 1.00162 0.0303175 0.476198
1341 0.709359 5.50992 1.17161 -0.713627 -0.552845 0.215331
2294 0.274698 4.51126 0.918829 0.806522 0.641777 -0.880858
1710 2.35168 4.54905 0.707616 0.636149 2.50201 -0.610934
3498 3.05869 5.05873 0.106407 0.419218 -2.12719 -1.11571
3257 3.14251 4.7274 1.25252 -0.0991821 -1.82883 -0.331994
465 3.9191 4.62122 0.393815 1.42676 -0.00723838 0.231026
1667 5.11119 4.32638 0.333051 1.58043 0.535896 0.37166
733 4.56217 5.43108 0.552938 -0.503914 -0.822508 1.90735
2172 4.68697 4.40434 1.2747 -1.09461 -1.24071 -0.0640343
2079 5.791 5.2462 0.571341 1.76415 -0.220369 -0.148643
1365 8.44044 5.68182 1.1318 1.03569 -0.689386 -0.24679
3736 7.39076 5.10598 0.918512 0.369609 1.6136 -1.39258
1069 8.32152 4.71745 1.01987 1.10676 1.74231 0.347419
769 8.00989 5.19466 0.14457 -0.47874 1.87118 -0.961039
1010 9.92631 4.60396 0.0923026 1.91903 0.0626521 0.38956
2846 9.15964 5.22093 0.496945 0.384318 0.322087 0.404485
3552 11.0152 4.35618 0.413795 1.52629 -0.195483 0.270637
273 10.3059 4.77813 0.963878 -1.58195 -0.279404 -1.12543
2261 10.2236 5.69572 0.190823 1.0282 0.737725 0.55125
1835 11.8115 5.06723 0.41133 -1.69107 0.368848 1.04527
99 12.1496 5.34556 1.36596 -0.864648 -1.20553 -0.184239
2611 13.7251 5.04437 0.833277 -0.170769 1.35163 -1.37654
920 12.8828 4.61507 1.37811 0.0743862 -1.13812 1.13035
27 13.0155 5.57221 0.254496 -0.202495 0.563286 0.573778
3723 14.9345 5.34205 1.22869 0.298302 2.8838 0.151024
2679 15.6294 4.69723 0.615831 -0.259723 1.55867 -1.55455
3890 14.5899 4.72528 0.456047 1.03223 1.11547 -0.161129
76 16.3962 5.24836 1.1497 0.146564 1.61227 -0.506087
1521 16.3102 5.56725 0.234232 -0.0539628 0.694509 0.269826
2059 1.04139 6.56419 1.00899 0.214303 1.46803 0.29358
2107 0.0248866 6.94844 1.38566 -2.25771 -2.12091 -0.453903
549 1.85618 5.95233 1.35053 -0.440646 1.07173 0.133808
891 1.68442 6.09451 0.296029 -0.00983451 0.791789 -0.235703
2529 3.99584 6.70162 0.650901 1.3959 1.04942 -0.575263
562 4.21542 6.04589 1.30901 0.418818 -0.38576 1.49736
1332 3.53647 5.77079 0.645735 0.158636 1.69282 0.498339
119 2.96717 6.45305 1.31649 -0.232218 -1.33777 -0.220843
3124 6.87597 6.0838 0.383543 -0.0873468 -0.465678 1.20716
331 6.57427 7.01594 1.06888 -0.681264 -1.83674 -0.558945
591 5.72044 6.48306 0.904061 0.255782 0.414458 0.111016
1806 8.29332 6.80427 1.19401 0.230216 0.447921 -0.117443
2849 7.48051 6.99459 0.52343 0.105477 -3.16116 1.50128
2614 9.43045 6.41872 1.05852 -0.0638979 -0.224603 1.14137
1488 9.486 6.66087 0.0397462 1.14753 -0.533876 0.0967548
136 10.8989 6.18323 1.12778 -0.90983 -0.0253057 0.302049
3252 10.1973 7.08862 0.685128 -0.615429 1.08153 -1.3725
3356 11.3664 7.11576 0.0724568 0.577784 1.18045 1.4059
3221 12.1679 6.20318 0.638501 0.854736 0.279136 -0.353725
711 12.9542 7.00513 0.521391 1.66232 -1.17345 -1.31717
687 14.1032 6.83257 0.540444 0.131327 -1.04887 -0.522477
1246 12.9859 6.35244 1.36017 1.11275 -0.352628 1.58058
2050 15.3551 6.23593 0.113354 0.344557 -0.508018 -0.280417
978 15.6341 6.26683 1.15956 -0.863948 1.12899 -1.70464
3488 17.0483 6.12372 0.745166 -0.814038 1.58789 -0.0994932
832 0.744455 7.78607 0.596144 0.132886 -0.0412628 -0.752446
984 2.83549 7.50858 0.930279 -0.72659 -2.61449 0.9713
3474 1.63623 7.70445 0.21707 -0.610128 -0.327329 -0.886261
1566 2.02345 8.0694 1.17382 -0.156286 -1.26314 0.545122
3957 3.182 8.44307 0.367975 1.26774 -0.257901 -0.555983
1646 4.22627 8.49486 0.0591624 0.638333 -0.603248 -0.247765
479 3.85005 7.81731 1.12506 -0.0689753 -0.449116 -0.692758
1136 5.5904 7.54984 0.934876 0.324037 -0.64913 1.50008
3760 5.07258 7.9193 0.195119 -0.491085 0.64087 -0.806321
1487 6.44858 8.00912 0.301762 -0.674493 0.61012 -3.58594
1591 6.18048 8.45909 1.21226 0.482397 0.107121 -0.352714
3107 7.20544 7.87707 0.931672 1.42026 0.450297 0.376603
174 8.33319 7.82898 0.594849 -1.44363 -0.867436 -1.45964
3131 9.34718 7.94357 0.275089 0.467005 -0.308617 -0.746539
94 9.0795 8.43398 1.21163 -1.2813 -0.688419 -0.185924
1583 11.1047 7.30211 1.05393 2.03187 -0.697067 -0.859289
1626 10.4263 8.19587 0.814465 0.815114 -1.17928 1.34335
2625 12.1328 7.80873 0.973164 -1.56383 0.584881 0.111399
1784 11.5739 8.23729 0.173333 0.67419 -2.21292 -2.13899
3440 13.4655 7.9408 0.891239 0.266281 -1.61686 -0.966628
1081 15.1394 8.22269 1.37386 -0.602086 0.20994 0.341502
595 14.8626 7.19781 1.34339 -0.453584 -1.41134 -0.212803
3774 14.6721 7.96365 0.409909 1.65798 1.78009 0.344515
2078 17.0419 7.13564 0.234262 1.8497 0.973081 -0.0871256
3979 16.8357 8.2286 0.329158 0.118787 0.799646 1.15225
3226 15.9015 7.44411 0.195219 1.32437 1.13361 1.38197
52 16.9826 8.21331 1.30415 -2.00988 0.163625 1.31259
2826 0.779103 0.252914 2.23458 0.247851 -0.000637965 2.09092
3777 0.734556 1.40963 2.07714 -0.683792 0.543891 -1.39629
2247 1.77395 0.0061501 1.83452 -0.186304 0.0884378 0.789731
3966 2.02301 0.759994 2.51548 0.289112 0.575452 -1.00189
3641 3.75085 0.146596 1.76208 -0.759723 -0.810676 -0.790134
72 3.41846 1.18708 2.06745 -2.16727 0.328476 -0.385732
1921 2.9451 0.000546656 2.43213 -2.33708 -0.855829 -1.33314
1139 4.59871 0.788383 2.10889 -0.893972 1.44334 1.45332
1268 5.50534 0.927728 1.54484 2.28059 1.3124 -0.783553
3363 5.51557 0.84887 2.73224 1.19239 1.79108 0.75714
1712 6.75166 0.681527 1.62841 -2.11332 0.202741 -0.843273
3786 7.75373 0.637287 1.79087 0.786133 1.16866 -0.0828551
1041 7.49748 1.15846 2.73374 0.143618 -0.41446 0.149847
2593 8.16845 0.293734 2.79048 1.55411 -0.656241 -0.509796
743 8.78073 0.876031 1.84884 0.303784 0.704079 -0.76287
113 9.55161 0.272493 1.6555 -0.772489 -0.141047 -1.15221
3630 10.7816 0.0878308 1.48784 -0.869658 1.17178 -0.80553
3231 10.4404 1.02862 1.85478 -1.67236 0.417121 -0.875996
535 11.3315 0.866855 2.15575 -0.754732 -0.586289 0.206203
889 10.58 0.309308 2.60079 -0.49588 -2.65937 0.151958
2485 12.4418 1.25096 1.6072 -1.12542 -3.06751 0.54366
2959 12.1457 1.13824 2.64302 -0.50463 1.25063 1.40519
1175 13.6998 1.27283 1.86335 0.815862 -0.0776411 -0.548833
2451 13.1219 0.725107 2.57911 1.0477 -1.19824 -0.12937
3317 14.1615 1.21091 2.8435 1.01985 0.514244 -0.583781
3020 14.1851 0.412779 2.21042 0.414764 -0.211195 1.00467
390 15.3508 0.202303 2.57931 1.81956 1.18852 2.31023
2354 15.7813 1.41202 1.85164 -1.18742 1.34975 1.4109
319 15.7658 0.13657 1.45161 1.09436 0.832893 0.530801
3510 16.8839 1.14946 2.59935 -0.312361 0.867201 -2.12539
2599 16.7016 0.226019 2.04551 -1.10897 1.11126 -0.616267
2945 0.628633 2.40639 1.50951 0.221689 -0.253543 -0.28496
735 2.46841 1.52621 1.72224 0.288118 1.46579 -0.374136
101 1.93578 1.97016 2.35811 -0.183494 -1.76661 0.276854
688 3.33086 2.15079 1.6524 0.850868 1.10733 -0.864037
1045 4.08149 1.7433 2.66504 -0.515644 -0.608899 0.479807
354 5.22383 1.8822 2.33065 -0.744119 -0.694621 0.567418
2154 4.44645 2.50729 1.84871 -0.0108324 -0.812218 -1.32209
1152 6.40477 2.55154 2.04863 0.84596 1.46717 1.68294
3767 6.36109 1.48546 2.26921 -0.695067 -0.70413 -0.268122
1984 7.65531 1.60364 1.67799 0.804802 0.484028 0.691266
1891 7.50605 2.57001 2.10449 0.649085 -0.223575 -0.439352
282 8.41752 2.0656 2.27049 -1.36685 2.73454 -0.179661
231 9.19165 2.67691 2.11865 -0.458427 -0.00923285 0.0521127
523 9.58494 1.58506 2.12257 -0.572643 -0.709099 0.00955649
675 11.1893 2.56568 1.73592 0.437171 0.682791 -0.107593
3338 10.7525 1.79525 2.58192 0.0303183 1.12623 1.29736
2854 12.2416 2.24056 1.96542 -0.0767864 0.762954 -0.783845
1718 14.1822 2.24831 2.52126 -1.314 -0.662089 1.42926
2999 13.2999 2.75158 1.89885 0.367023 -1.48691 -0.0943638
2515 13.055 1.80457 2.41221 -1.70162 -0.469764 0.193582
2002 14.7476 1.43144 2.1287 0.568471 0.574837 0.640287
477 15.3382 2.16017 2.71383 0.0385172 0.526735 2.04335
3142 16.5947 2.00691 2.04343 -0.506609 -0.0109086 -0.0356956
164 0.973692 3.73077 1.50622 0.405089 -0.228103 -0.362704
1178 0.065306 3.18343 2.37816 -1.45901 -0.464103 -0.405298
1815 1.58009 2.86283 2.00612 -0.701565 -0.181414 -0.474084
3841 2.69383 3.85932 1.61538 1.31144 -0.0598946 0.470578
2588 2.61212 2.92697 1.81837 0.699279 -2.07727 -0.265509
2480 2.08876 3.03328 2.84101 0.888057 1.09966 1.16644
342 2.58314 4.03903 2.80974 0.182836 1.17595 1.29799
2867 3.51333 3.34888 2.38379 0.187808 1.29999 -0.797788
1643 4.6064 3.67785 2.34201 -0.0325972 -0.421125 1.50324
299 5.60843 3.2287 1.92522 0.449276 -0.966853 0.0909167
35 6.96112 3.50499 2.76605 -1.17427 -1.85738 0.0119222
2410 5.95297 3.51446 2.84497 0.555513 0.478494 -0.449911
2774 6.36453 4.1751 2.25 -0.148349 0.248732 0.16839
2303 8.0715 3.61156 2.38186 -0.596085 -1.84005 -0.484544
3637 9.72008 3.99213 2.13191 0.0213394 1.53569 -0.826686
3835 10.2526 2.86672 2.2093 1.01396 -0.349344 -0.421465
2994 11.0828 3.57372 2.1299 -0.649937 -1.47005 0.441805
677 12.0941 4.16196 1.60817 -0.623714 0.854703 0.386328
2603 12.2745 4.01855 2.69752 -1.73765 0.108565 -0.517439
3960 13.7323 4.0314 1.46551 -1.89826 0.366473 1.10709
753 14.1747 3.3512 2.11226 0.672749 -0.866477 -0.861994
1344 12.993 3.70997 2.0486 0.665257 -0.775316 -0.575124
2351 15.1982 3.11227 1.92047 1.07091 -0.226116 -0.252927
3008 14.9835 4.10736 2.48273 1.01338 -0.316664 -0.167506
270 16.9915 4.01475 1.73935 0.789043 -1.61202 -1.54
339 16.2793 2.96025 1.77639 -1.25657 -0.267415 0.204764
3470 0.0595006 5.19621 1.97059 0.311157 0.651661 -0.813863
2010 0.395992 4.31227 2.67701 0.213414 -0.0510045 -1.37862
2762 1.32812 4.50352 2.20228 0.310625 1.86424 0.121006
3200 2.2606 5.04073 1.76652 -1.53023 -1.35543 -1.69171
969 1.6692 5.61444 2.33831 -1.1402 0.598369 -0.0064939
1436 3.81068 4.30826 2.03823 -1.15459 -0.560968 -1.17215
11 3.03949 5.26514 2.61617 -0.690791 -0.855581 1.55768
2883 5.17188 5.32094 2.68964 -0.166132 0.243017 0.518751
1321 5.48951 4.78179 1.92401 -1.75171 -0.917667 -0.372099
779 4.39496 5.17043 1.99672 -0.318272 1.82294 -0.413641
2488 6.21849 5.14471 2.61361 0.638974 1.11141 -2.06521
271 7.48036 4.28245 1.80936 0.239446 -0.188555 0.315677
1747 7.68057 5.39669 2.23354 -0.0438838 -0.0243187 0.368437
1854 7.14631 4.64014 2.77103 0.674323 -0.135449 0.630258
2525 8.75607 5.63417 2.15921 0.892125 1.54981 -1.92972
445 9.29331 4.8528 1.71255 0.550056 -0.961961 0.401078
913 8.65577 4.60045 2.49683 0.167578 -0.201746 0.035672
398 11.1819 4.55304 1.56071 0.713866 -0.584772 0.0481081
3660 10.6003 4.90984 2.42595 -0.192801 -0.456295 0.629256
4000 10.0298 5.57193 1.4877 0.906533 1.06454 -0.332229
127 11.8483 4.98452 2.32236 -0.594619 -0.224925 0.00571108
2379 12.9469 4.84618 2.38582 -0.278238 0.309347 -0.850382
2839 13.3643 5.49608 1.6492 -0.995002 0.223414 0.251911
1690 14.0176 4.80892 2.57894 -0.00300348 1.81161 0.970456
2903 15.6659 5.63141 2.13363 0.800967 0.142237 -0.437555
1545 15.6728 4.45606 1.78648 -2.44122 1.24785 0.184615
3749 14.8821 5.18473 2.49312 -0.199234 1.01322 0.313595
1087 16.4002 4.73984 2.49048 0.251058 0.872978 0.7368
1400 0.533032 6.34595 2.373 0.403185 -0.312758 0.952748
158 2.61056 6.17555 2.41454 1.62621 1.50283 -0.620095
842 1.62967 6.9277 1.71059 -1.65919 -1.35254 0.606422
3581 3.56672 7.04838 1.96508 -0.66253 0.0456923 1.60113
1692 3.67122 6.08973 2.18734 0.332983 1.41296 0.0538564
1408 5.18136 5.78524 1.53063 0.415483 -1.56353 1.36219
2403 4.6121 7.05148 1.49583 -1.29265 1.22945 -0.351378
498 4.6344 6.2066 2.30519 -0.358064 -0.685479 0.328161
3267 5.54275 6.85471 1.90924 1.97375 0.604587 -0.167663
1426 6.45883 5.88266 1.54402 -0.30558 0.527923 -0.820886
1286 7.01495 6.1961 2.41186 0.380279 -1.06044 -0.756197
2162 5.71966 6.01279 2.44724 -0.158854 -0.351118 0.325316
2302 6.27906 6.9038 2.55097 0.731354 -0.346164 -0.25514
3260 7.41671 6.24092 1.44345 -1.09355 -1.43465 0.483105
1983 9.83048 6.09883 2.37292 -0.461301 1.6689 -0.677482
481 10.3287 6.85824 1.71142 0.900405 1.33156 0.0604719
2664 11.5114 5.93604 1.96987 -0.0898523 -0.850651 0.604292
1683 12.0058 6.83456 1.48413 1.37842 2.12366 -0.209702
2250 12.5048 5.87287 2.1453 1.01179 -0.708508 -0.57204
3011 12.5629 6.91208 2.4789 -0.389115 0.752281 0.617891
2605 13.478 6.10684 2.7162 -2.15879 0.0721237 -0.36473
3664 14.3019 6.33852 1.44127 0.581354 1.17304 0.885338
3802 14.9939 6.2469 2.63255 -2.1516 0.0595996 0.0873536
2789 15.7957 6.7729 2.12311 0.69625 0.754311 -0.947443
433 16.6222 6.05545 1.78731 -0.341349 -2.13083 -1.47248
754 16.6233 7.02397 2.63342 -1.90531 -0.127879 0.541132
1813 16.1559 6.16087 2.81523 -0.156739 0.429671 -1.40985
92 1.01951 8.4882 1.58791 -0.134335 0.540546 1.71865
2388 0.826085 8.40808 2.65577 2.03304 -0.882824 -2.54258
1331 0.837578 7.44275 2.24927 0.805466 0.413345 0.238909
818 2.26656 8.30509 2.12849 -1.1251 0.863159 0.375342
3250 2.24067 7.33524 2.79348 -0.655736 1.74799 -0.655203
3887 3.49064 8.30091 2.10002 -0.348476 0.243335 -1.53356
637 4.43627 7.70764 2.42166 1.41778 0.124307 -1.55137
1214 4.8408 8.24823 1.50637 0.545052 -0.473439 0.448402
2561 5.43861 7.97565 2.35104 -0.461891 1.07532 0.322207
1259 6.41842 7.97738 2.13541 0.75315 -0.141138 1.98419
1590 7.1406 7.15406 1.93747 -1.65848 -0.259607 0.477134
2070 7.48028 7.90513 2.51118 -1.31687 -1.92187 -0.471995
1577 8.17488 7.99604 1.83752 -0.00358079 0.203493 0.350533
229 8.76706 7.17652 2.12749 -1.60374 -0.425118 0.269106
2003 9.56404 7.80288 1.75928 -1.65876 -1.32762 0.97051
3580 9.44223 8.04366 2.82867 -0.786432 0.273998 -1.29468
189 10.8964 8.49772 2.34461 -0.552227 -1.35492 0.224467
3408 10.3985 7.61618 2.57333 -0.514391 -1.32169 0.947438
1774 11.2673 7.24269 2.0444 0.960463 -0.600663 0.809107
3918 12.3933 8.0572 2.32822 0.453473 0.39358 0.677821
1168 11.411 8.22424 1.49398 -0.960955 0.327276 -0.845588
998 13.9474 7.19518 1.99079 0.6844 0.0947792 -0.250006
337 12.9844 7.45791 1.65618 -2.21787 0.602301 -1.01157
3359 13.5011 8.32986 2.3577 -1.23109 -1.23775 0.561262
1099 15.6598 7.85112 2.45855 0.476591 1.59222 -3.29726
980 16.8151 8.02707 2.27792 -1.22169 0.743109 0.442423
1896 16.1237 7.65133 1.46556 -0.0344191 0.0756223 -0.249883
651 0.995213 1.08409 2.97324 1.10967 -1.81347 -2.98401
212 0.200536 1.08331 3.63514 -2.38063 0.381351 -0.779501
3145 2.52215 0.668867 3.6843 -1.53825 2.09845 -0.0764769
1325 1.48054 0.719068 4.09631 1.32778 0.785267 -0.138981
3820 4.27219 0.79898 3.25687 1.71574 -0.701864 -1.22835
1278 3.8225 0.739609 4.07356 -1.51692 1.13737 -0.843754
2263 4.85685 0.0436627 3.85206 0.668107 -1.03202 -1.52968
3228 5.83267 0.0657924 3.51779 1.53728 -0.553711 1.50581
1638 6.00763 0.974352 3.91452 -0.161228 -0.529383 0.44956
836 6.78448 0.601446 3.06327 -0.323486 0.830187 1.51469
1470 8.00634 0.611521 3.83684 -1.26831 0.751382 -0.653837
1209 9.28859 0.142172 2.86971 0.297776 -0.0378686 0.0537
1842 9.95109 1.18843 2.93988 0.77736 0.013463 -0.0648631
3403 8.76996 1.26617 2.89374 -0.639726 -0.25873 -1.57066
3627 9.01192 0.583898 4.11387 -0.755595 0.885053 0.254552
2235 11.3788 1.25291 3.33674 -0.454707 1.20384 -0.197245
888 11.2465 0.501503 4.2398 1.48523 -0.0126175 -0.256477
2092 10.3201 0.491146 3.68498 -1.35572 0.133917 -0.406369
418 12.0657 0.0529154 3.41863 1.00683 1.04127 0.208277
3290 12.29 1.11379 3.87268 -0.643001 1.7174 0.461715
262 14.2164 1.09961 4.14826 1.70092 1.51277 0.959474
1677 13.3021 1.16469 3.54138 0.650862 0.165532 -0.0250743
3472 14.2693 0.0826395 3.1182 0.462802 -0.228499 -0.256187
1621 15.1331 0.931431 3.29861 0.471281 0.605895 0.437416
1688 15.5577 0.573177 4.20249 0.85006 -0.811279 -1.28847
893 16.637 0.380648 4.09544 1.39871 -1.00235 1.26416
3741 16.291 1.40555 3.58068 0.400385 -1.06362 -0.324776
1200 16.2079 0.450927 3.20814 0.352572 -0.624738 -0.63281
3706 1.21444 2.45684 2.85316 -0.839346 -0.0738429 0.590291
2446 0.202767 2.07344 2.99052 -0.200459 -1.51791 1.21017
2646 0.930419 1.91149 3.93233 -0.904383 0.534081 1.46509
904 2.0364 1.648 3.50463 1.08653 -0.29113 -0.0416565
2734 1.68754 2.61454 3.83353 -2.18378 0.285214 0.221035
2976 2.75853 2.81241 4.02866 1.02715 -1.40111 -0.469968
1043 2.98987 1.75512 3.94154 -0.0422088 0.505444 -0.797638
618 2.97451 1.42516 2.95737 0.0285294 -3.42024 -0.259741
941 3.28394 2.48077 3.13097 -0.00315259 0.353264 0.0129012
71 4.02032 1.94915 3.72929 1.77704 0.494813 -0.543478
686 4.34322 2.73013 2.92984 -0.943298 -0.414244 -0.854855
1765 4.91884 1.63527 3.34825 0.9962 0.187148 -0.509842
237 5.7233 2.50763 2.98059 0.101724 0.0144479 -0.145986
635 6.80258 1.67192 4.19822 0.152293 0.200762 0.57638
943 6.95783 2.11684 2.89342 0.330592 -0.505808 -0.643397
1113 5.80671 2.13291 4.0406 1.28352 -0.127504 0.54658
478 6.6653 2.68614 3.72325 -1.28273 1.5246 -0.250102
2369 7.88609 1.67401 3.57789 -1.75581 -0.00551849 -0.364813
2363 9.37303 1.68045 3.81785 -1.64226 -0.0595426 1.28255
726 9.812 2.42076 3.05846 0.71688 1.77514 0.0286585
3659 8.68486 2.29696 3.28422 -1.15517 -1.26293 -2.0845
724 10.4769 1.86302 3.58879 -0.064794 0.349374 -0.943174
680 11.7629 2.66104 3.88107 1.58975 -0.915312 0.407273
3924 12.3884 2.05737 3.47801 -1.23748 0.424756 -1.45036
1547 11.5649 2.20669 2.92671 -0.615176 -0.219903 -0.261369
3765 13.7443 2.15404 3.6266 0.519356 0.029184 -1.17208
2724 15.3881 2.68868 3.68349 0.60597 1.5419 1.22234
3390 14.6958 1.84694 3.50304 0.754772 -0.656591 -0.945452
2756 16.3468 2.34251 2.99538 0.159192 0.304258 0.631993
3462 16.973 2.0307 3.97178 0.625455 0.681448 0.208453
664 0.93725 3.5327 2.89414 -0.326803 -1.29241 -1.68155
1682 1.04871 3.43435 4.03705 -2.53231 -0.363124 -0.230423
2567 2.24046 3.76642 3.75672 -0.107435 -1.19097 -0.021795
1841 3.70787 3.36514 3.73511 0.095682 0.647889 0.704349
2331 4.9428 3.38883 3.38618 -0.305294 -1.12939 -0.566642
2751 5.88794 3.45968 3.89206 0.940199 -1.84551 0.836583
3452 7.08875 3.61051 4.19506 -1.42816 -0.602854 -0.828463
491 6.44271 4.27387 3.34181 0.570099 -0.0819409 0.999365
1847 7.78704 2.91056 3.2285 -1.22714 -0.414978 -0.668295
1989 8.23835 3.39146 4.05149 -0.14565 1.90991 1.66621
1195 9.03036 3.35691 2.9262 -0.711386 -1.19214 2.10518
316 9.48428 2.85818 3.97764 1.03596 -0.898004 0.616952
1541 9.92895 4.26662 3.19914 0.613768 -0.799687 0.347767
2590 10.2636 3.45816 3.61438 -0.0471848 0.612192 1.19901
3911 11.2086 3.25856 3.18135 -1.046 0.297496 -1.77575
2540 12.2569 2.98842 2.94873 0.868362 1.28651 0.088048
3236 12.0435 3.86236 3.69161 -0.439109 -0.498284 -0.524731
2449 13.2601 4.12178 3.02655 0.219117 0.154432 -0.479238
230 12.8483 2.9805 3.87523 -0.39516 -1.1105 0.298453
3427 13.4157 2.88545 2.89006 -1.03359 0.688886 1.23718
3529 13.7853 3.60481 3.80528 0.856351 -0.974315 -0.0662789
421 14.5471 2.93464 3.13349 -0.623992 0.849786 -0.654671
3712 15.1121 3.79698 3.67054 -1.00687 1.35968 1.08765
2132 16.2003 3.93098 2.95151 -1.12039 -0.524027 -1.92618
1648 16.1069 3.72658 4.24703 0.221947 -0.312898 -0.466406
1976 16.8274 3.12681 3.45985 0.720688 0.215241 1.5584
3166 17.049 4.24776 3.68511 1.9779 -0.359294 -0.296286
2722 0.667994 5.52321 2.94728 0.528134 -0.657412 -0.130549
3923 0.990767 4.61919 3.86253 -0.75215 -0.758283 0.974966
1644 1.87224 5.1207 4.21096 0.974695 -2.18976 2.04853
488 1.73386 4.82152 3.20185 -0.406036 -0.792744 1.15302
2442 4.04411 5.47808 3.10192 -1.16609 -1.04014 -1.08647
1527 3.65656 4.35113 2.9822 -1.03464 0.940158 0.552919
2165 3.05915 4.77906 3.93074 0.612788 0.593215 0.868194
2035 5.46161 4.32907 3.06423 -0.561582 0.187477 -0.977211
460 4.75336 5.32594 3.79882 -0.984797 0.768533 0.028918
958 4.58435 4.28765 4.11813 0.621492 1.01773 -0.252961
1622 5.50636 4.74206 3.95515 0.255378 -0.891374 -0.148974
691 6.57821 5.22917 3.84856 -0.355122 1.50624 -0.767215
3316 8.54374 4.34658 3.56517 -0.189481 -0.366696 -0.803836
2902 8.34692 5.31847 3.24855 -0.720475 0.887516 1.06918
1201 7.60053 4.52218 3.93408 0.631537 0.40917 -1.75234
1864 9.40447 5.23507 2.91242 -0.414775 -1.50142 -1.27608
3551 9.04333 5.1793 4.00854 -0.870688 -1.12272 -0.500193
2640 11.1184 4.37322 3.41834 0.861577 -0.55296 0.0325502
811 10.1659 5.16975 3.95581 -0.516942 0.0537018 -0.0214905
1034 12.5317 4.92532 3.28097 -0.12465 -0.691532 0.957733
2385 11.5398 5.33872 3.496 -1.18932 0.664843 -0.415958
1548 13.4331 5.27626 3.5364 -1.62378 0.475522 -0.698183
3450 13.3127 4.39406 4.26163 0.592041 -0.237166 1.91727
3523 14.5287 5.62246 3.38783 -0.98792 0.930261 -1.74849
2817 14.346 4.47558 3.70828 -2.43773 -2.15121 1.32878
1597 15.5515 5.68331 3.47164 -0.244848 -0.244731 0.729309
2237 15.4805 4.67352 3.24045 2.27728 -0.0924551 0.0858797
2537 16.9066 5.42741 3.74799 -0.578275 -0.116378 1.43693
3254 1.36742 6.54104 3.12094 -0.409052 -0.684839 -0.48532
3157 0.0211532 6.45452 3.32969 2.19505 -0.258344 0.361
2843 0.836037 7.08448 4.04084 0.130078 -0.664381 0.761897
401 0.798106 5.82882 3.95194 1.78774 0.940911 0.41404
2333 2.27284 6.03654 3.60493 -1.49121 0.647925 0.297589
532 2.03342 7.08352 3.86702 0.644686 1.00804 -0.11673
1833 3.86691 6.97327 2.93361 -0.316185 0.338832 0.520091
2127 3.20486 5.82698 3.79511 0.503735 -0.0109388 -0.217356
531 2.9819 6.71707 3.27526 0.467914 0.0270327 0.780954
3388 4.21614 6.18641 4.26703 -0.135121 0.511351 0.181777
2977 5.68753 7.0667 3.912 0.488219 -0.000665427 1.84234
1640 5.26392 7.10991 2.97224 0.801099 -0.276527 -1.59643
602 4.59893 6.99428 3.7243 0.477911 1.40567 -0.881687
1265 5.04694 6.22354 3.32073 -0.67628 0.238256 2.2203
1442 6.14457 6.21652 3.35259 -0.333729 -0.787155 0.335346
3144 7.34027 6.09313 3.47336 1.23925 -0.372914 0.257324
496 8.15159 5.94846 4.13899 -0.231036 -0.109731 0.340932
118 7.67174 7.00738 2.99061 -2.24608 0.74026 -0.154327
3796 8.35386 6.30839 2.93976 1.89708 -0.763512 -1.42366
1732 9.4622 6.07541 3.43233 -1.8882 -1.69712 0.12523
3204 9.59545 7.10392 3.17636 0.612059 -1.08251 0.764151
264 10.8621 6.73285 3.69761 -0.422513 -0.864392 -0.616198
1786 10.6493 5.8456 2.9529 -0.62761 0.731669 0.275806
3419 11.7029 6.74319 3.03298 1.23383 -0.208841 0.924014
894 12.1555 6.68186 4.1568 -0.199608 0.806525 1.56255
2958 13.8997 6.51145 4.11429 0.0357108 0.541616 0.33796
3318 12.9332 6.41969 3.54118 -0.310897 0.595768 0.734714
3672 14.7651 7.0195 4.17382 0.267223 -0.142951 -0.372738
2727 16.2534 6.89265 3.67291 -1.5027 0.449991 0.466558
524 0.480469 8.51898 3.73286 -2.39005 -0.315635 0.390077
2375 1.39874 7.82282 3.26677 -0.497058 -1.22433 -0.0263967
3954 0.160525 7.69958 3.26167 0.110682 0.890255 0.693509
178 2.61562 8.11156 3.74815 0.528478 -0.498588 -1.86833
2208 4.0695 8.46716 3.4739 0.442868 0.790553 -0.214545
3823 3.17264 7.71281 2.95706 -0.505112 2.338 -0.588198
536 3.47447 7.43772 3.99914 -0.711809 0.066808 1.25458
2257 4.43908 7.89487 4.23013 1.45854 0.531477 2.63702
2550 5.15922 8.13042 3.46448 0.456741 0.608233 -0.122603
1715 6.63945 7.34293 3.50028 0.479145 0.48272 -0.4375
2813 6.64996 8.51392 3.2912 0.0362966 0.288759 1.75129
3087 7.59392 8.00413 3.71205 -0.356261 -0.586015 0.0655229
656 8.203 7.13146 4.0626 0.129297 -1.0066 0.382135
3493 8.45449 7.96312 3.12305 -0.939865 0.752359 1.01474
362 9.22855 8.37512 3.86374 0.894432 0.458184 1.44736
3837 10.3684 7.81683 3.76045 1.38521 0.201417 0.291133
1303 12.4519 7.48347 3.40391 -1.2488 0.350932 0.365726
506 12.2718 8.3691 3.93298 -0.390537 -0.680384 -0.545461
3974 11.4741 7.78284 3.96969 1.02311 0.506368 -0.779919
44 11.556 7.8359 2.91008 0.0433607 -0.399513 -1.18466
932 13.4463 7.5184 3.09016 1.48189 0.428017 0.0954589
3505 13.263 7.59095 4.18831 0.302178 0.180808 -0.564843
3871 14.1472 8.18064 3.68296 -0.469502 0.2461 0.0920296
365 14.4668 7.54544 2.87977 1.60789 0.657558 0.910204
2875 15.1241 8.07966 3.50462 0.0544317 2.15699 1.46319
415 15.3793 7.12785 3.22862 -1.13296 0.411997 0.761447
3259 16.2842 7.88051 3.33565 0.0322558 0.186085 0.40819
1374 0.509614 0.818408 4.59857 1.49598 -1.20237 2.69702
3583 1.27108 1.08503 5.07346 -2.12489 -0.22048 0.0678572
1843 1.04127 0.137777 5.32438 0.0733574 0.703249 0.057378
2389 2.30692 0.676437 4.86293 1.08882 -1.17607 1.73429
2362 3.33265 0.49007 5.10376 0.292967 1.07179 0.590298
3693 5.1349 0.211188 4.9419 1.30279 -1.36421 0.651143
2834 4.98682 1.0719 4.32234 0.413213 -0.447797 0.06667
376 4.57212 0.903206 5.60836 0.925217 -0.822584 0.564739
1119 5.85873 1.40933 4.95756 0.225476 0.600027 -0.664953
2775 6.77996 1.37743 5.34074 0.199036 2.61775 0.174863
3944 6.48073 0.55903 4.76789 0.0629111 -0.361175 -1.5749
2436 7.4774 0.302616 4.73314 -0.284866 -0.0457994 0.612052
1188 7.89866 1.26595 5.05806 -1.42504 -1.13473 -0.0789661
300 9.91852 0.326823 4.73431 -0.270144 1.18824 -0.714864
737 8.55683 0.253147 5.02759 0.728012 0.0341827 0.351365
321 8.9679 1.33854 5.02378 -0.739413 2.36336 -1.21376
2769 9.34518 0.410433 5.60262 0.468478 -2.32256 -0.923988
1413 10.3975 1.22885 5.05877 -0.430195 -0.0961863 -0.901231
454 12.2871 0.288483 4.68319 0.411838 -0.41725 0.311283
2856 12.7615 0.780991 5.64991 -0.150992 -0.573918 0.675964
3865 11.5899 1.07804 5.24805 -1.21779 0.630597 0.422559
951 13.263 0.424678 4.27803 1.63754 -1.15931 0.0128759
19 13.8674 0.515914 5.10759 -0.0265247 0.259348 0.377539
166 14.8534 0.444881 4.97657 -0.791519 0.891396 -0.228252
1947 15.7931 0.775537 5.64421 2.01654 0.576295 1.12446
283 16.6419 1.38177 4.69537 -0.197751 -0.557185 -1.04279
3952 16.952 0.459286 5.66338 0.617656 -1.13653 -1.06193