ITEM: TIMESTEP
80000
ITEM: NUMBER OF ATOMS
4000
ITEM: BOX BOUNDS pp pp pp
0.0000000000000000e+00 1.7099759466766969e+01
0.0000000000000000e+00 1.7099759466766969e+01
0.0000000000000000e+00 1.7099759466766969e+01
ITEM: ATOMS id x y z vx vy vz
1713 0.593099 0.283832 0.873356 0.245409 0.135788 0.617517
2426 1.5651 0.506581 0.84466 0.510635 0.725287 -0.456283
1133 2.65188 0.153701 1.22359 -0.204936 -0.906647 -1.14284
2217 3.50548 1.08849 1.25159 2.12102 0.209196 0.940539
1880 3.62059 0.13519 0.165906 0.369173 -0.118719 -0.360148
1774 5.27942 1.24927 0.664426 -0.388864 0.690287 0.69847
3819 4.43744 0.448585 0.969452 1.61266 0.939044 0.46585
857 6.7748 0.743898 1.23389 -0.451843 -0.40381 0.758612
348 5.7119 0.448797 1.17861 -2.55696 -0.0636066 1.02067
3236 6.98015 0.335427 0.207574 0.542604 0.502441 0.178371
1760 9.08291 0.570768 0.556427 0.154202 2.33586 -2.53399
3506 9.43243 1.03333 1.42068 -0.0979507 0.809004 0.618191
3627 11.0414 0.345732 0.609772 0.126178 0.0894728 -1.498
3366 10.0227 1.42066 0.670294 0.61663 -1.30919 0.797705
1045 10.0506 0.336698 0.811851 0.500463 -0.608854 -0.0375709
1077 12.2789 1.1706 0.520885 3.52433 -0.145244 1.43704
1090 12.7474 0.217262 1.26006 -0.0630722 0.767301 0.357416
2898 12.1292 0.0709805 0.429531 1.19234 -0.476592 -0.737146
3920 13.4108 0.702199 0.63813 2.13414 -0.163872 -0.188194
3438 13.9601 0.015165 1.24026 -2.43771 -2.25001 0.0336034
511 14.0927 1.30994 1.38974 0.692516 2.11375 0.662434
1428 15.0027 0.666599 0.519516 1.2227 -0.747705 0.196065
1841 16.0197 0.983693 0.360838 -1.09865 -1.52191 -1.18368
2930 16.8693 1.32417 0.961188 -1.39869 0.599984 -0.651446
1889 16.6176 0.127873 0.191873 0.387416 -0.329405 -1.57567
3413 0.799992 1.91371 1.04334 0.0852634 0.999665 -0.850218
2679 2.21325 1.45918 0.824709 0.458623 -0.220174 -0.00336507
3061 1.53634 2.27109 0.309563 0.361365 -1.08269 0.473023
3059 2.79781 2.55141 0.0889692 0.998112 0.107723 1.98775
482 3.00158 2.34504 1.17814 -0.231585 -0.233141 0.49916
3677 3.35325 1.60955 0.243238 2.86097 0.480384 -0.0815872
1325 3.86601 2.47644 0.454303 -0.78276 -0.850584 0.846172
1369 5.15439 2.30602 1.22236 0.304612 0.177922 0.0429356
1489 4.91167 2.25542 0.20884 -0.397226 -0.34933 -1.48787
769 5.89416 2.34667 0.43601 -1.12323 0.656465 -2.36144
270 6.23754 2.75757 1.32913 0.873952 0.0135039 -0.637318
1384 7.01044 1.97722 0.930973 2.00783 -2.17495 -0.545838
3517 6.0567 1.64172 1.37923 -0.0809674 -1.00572 0.227452
1365 8.09387 1.63526 1.20067 -1.33611 2.80864 1.01753
2119 8.42438 2.7648 1.229 -0.182309 1.07483 -0.688038
1686 7.84899 2.29714 0.312601 -1.10418 -0.272792 1.14477
3087 8.90951 1.82103 0.0923322 -0.808297 -0.610325 0.597373
2410 9.17598 1.91512 1.06065 -1.62276 0.0977196 1.34177
3954 9.17706 2.83695 0.426349 0.275492 -1.03986 0.949555
3944 10.9824 1.77304 0.906227 0.943701 -1.97936 0.165495
2586 10.6277 2.62269 0.465338 -1.06772 -1.07774 0.203733
15 11.8986 2.22433 1.03498 0.999577 -1.6268 1.49982
1539 13.0787 2.52919 0.346038 -0.181464 -0.469345 0.971284
928 12.9367 1.84989 1.30571 0.418223 -0.984402 0.233785
1909 13.8512 2.63858 1.36459 0.589921 -0.921778 -0.843268
2664 14.3409 1.96527 0.655926 -0.354372 0.187807 0.551108
1608 15.2514 1.75931 1.03102 -1.1078 2.00784 0.0562739
677 15.33 2.57482 0.104747 1.30022 -1.35566 0.40004
595 16.2974 2.78267 1.38561 0.221113 -0.283866 0.350284
3724 16.1905 2.0876 0.501503 -1.14096 1.64166 -0.000146842
2160 0.0371856 3.10676 1.19521 0.450044 0.504627 -0.748305
2567 1.25443 3.12048 1.03783 -0.385669 0.656483 1.23254
2965 1.36972 4.19483 0.532746 -0.140604 -0.136749 1.10845
194 0.661977 3.22127 0.182136 -0.0779942 -0.407105 -0.820908
1903 2.35731 3.23701 0.683327 0.27649 1.21234 1.36094
912 2.70349 3.87277 1.30509 0.090348 -1.95107 0.182422
2817 3.69104 3.44865 0.836571 0.436812 -0.277448 -0.43445
129 4.02333 4.12117 0.0568156 1.03213 -1.00356 1.58712
3551 4.67944 4.24994 1.19646 -0.828957 -0.999791 -0.450758
3257 5.59454 3.75569 0.88317 -1.65141 1.36306 -0.544809
2808 4.61269 3.12525 1.19476 -0.355377 0.514052 -1.5478
668 4.91111 3.3123 0.204285 1.13964 -0.676775 0.551251
1188 7.07266 3.22565 0.603682 0.5565 -0.64232 -1.24794
2111 8.27699 3.36134 0.200701 -1.95964 1.79814 -1.0104
2315 7.65386 3.99955 1.32379 1.0033 0.0175423 -0.832073
1040 9.05743 4.23688 0.283788 0.615364 1.98016 -0.323292
3078 8.88532 3.78138 1.33902 -1.18241 0.741882 -0.109084
1534 10.0281 3.72308 1.36263 -0.0711125 0.516112 0.636693
938 11.1624 3.19055 1.07972 -1.33052 0.530384 -1.07403
90 10.4408 3.75259 0.35537 0.102529 -0.291167 1.27727
459 11.508 3.95048 0.132299 0.891282 0.136905 0.56567
2997 12.1106 3.14415 0.735116 1.23918 -0.489397 -0.597118
3200 13.0888 3.8999 0.695387 0.50007 0.775491 1.02531
61 14.1676 2.92833 0.335408 1.10597 -1.01571 0.614898
1671 14.8965 2.88797 1.20789 -0.975092 0.97551 -1.03988
2688 14.7246 3.78554 0.868603 -1.63437 0.888802 0.281233
2789 16.697 3.00987 0.124094 -0.0529287 -1.06193 -1.20858
2529 15.7178 3.31784 0.693554 -1.66611 0.698463 -0.149561
2342 16.6449 4.05945 0.532705 -1.11247 0.0735769 0.427978
3318 0.254861 5.06937 1.13474 1.55406 0.345588 0.0710932
3403 1.38582 4.95992 1.2529 0.617568 0.758196 -0.0960553
1600 1.0789 5.29174 0.296648 0.659545 0.367797 0.189399
2320 2.27916 4.86335 0.713203 -1.35167 0.184136 -1.24696
202 3.55074 4.48564 1.08428 0.0306943 -0.520835 -0.0120626
3675 3.23324 5.56831 0.865726 -0.211234 1.25521 0.449461
38 3.28154 4.82238 0.0891888 -0.431323 0.491936 1.09001
2883 4.37349 5.17339 0.377762 -0.150066 -0.821876 -0.949175
3962 5.50574 5.19569 0.577864 -0.0184403 0.361049 -1.35261
871 4.74081 5.18902 1.26952 -0.36865 -0.14252 0.343046
2288 6.59546 4.29318 0.830386 -1.06264 -0.0984824 -0.995559
486 8.12126 4.49488 0.640883 -1.11048 0.482746 -0.42155
1950 7.70492 5.42476 1.10768 0.617334 1.02427 1.64189
271 9.10334 4.99998 0.972795 0.196572 0.203682 -1.33009
3671 10.0803 4.88453 0.76616 -0.441263 -0.129591 2.33827
3586 11.1107 5.41291 0.592456 -0.445065 -1.55542 2.18461
189 11.0507 4.33837 1.10951 -1.39006 1.15009 -0.155839
238 12.0334 4.88919 0.718405 0.613898 1.16601 0.00150509
3741 14.2084 4.74417 0.882871 0.221127 1.18471 -0.790477
1966 12.9877 5.00432 0.718835 -1.39703 1.21236 0.328268
3503 14.1042 5.6011 0.135148 -1.00754 0.0132583 -1.4027
701 15.6105 4.56216 0.805113 0.826302 2.61683 0.506826
1919 14.9996 5.40563 0.601594 0.746288 -0.436583 1.86002
3132 14.7388 4.6769 0.00574707 -0.263479 -1.52583 0.79908
2013 16.4377 4.62529 1.40287 0.925771 1.13047 0.0525373
3450 16.1984 5.49952 0.714158 0.641371 -0.307182 0.156625
2291 0.610647 6.23957 0.702424 -1.89193 -0.44194 -0.192857
2736 1.2495 6.97354 1.12905 0.324614 -2.67322 -0.100533
2389 2.21807 5.75229 0.0302335 -0.515351 0.488545 -1.05214
2050 2.28076 6.4648 0.859234 0.975014 -0.627849 0.836879
3661 4.20259 6.08149 1.03445 1.09681 0.0360898 -0.78991
1129 3.37127 6.57787 0.556491 -0.730191 0.833569 -0.509861
2353 5.10908 6.15019 0.398342 0.603274 -0.221333 -0.492152
3678 4.47567 7.10232 0.693104 0.504704 -1.52675 1.26679
3826 5.67093 6.98976 1.41815 -0.593231 0.86186 0.905118
145 5.61803 5.96403 1.3647 0.301149 0.482379 -0.0309961
3957 5.44182 7.08531 0.00467622 -0.336241 0.576053 -0.0734009
3443 7.03116 6.17558 0.662271 -0.0452803 -1.66705 0.746974
2060 6.1595 6.55374 0.549845 -0.44191 0.360033 0.0488192
722 7.98754 7.06279 0.189694 0.732659 -0.172968 0.637153
410 8.09627 6.43672 1.26883 -0.13391 -0.885619 -0.0681061
1575 8.61037 5.77985 0.557382 1.44 -0.298185 0.0668004
830 9.81738 6.00881 0.417641 0.477931 -1.01571 -1.02498
204 9.04504 6.66078 0.788386 1.35143 0.526602 -0.737334
1452 10.7116 6.10035 1.3056 -0.747066 -1.80306 -0.0111508
475 10.9861 6.71845 0.487044 1.08878 0.193065 -0.512422
941 9.99906 7.06882 0.994299 -0.0171774 -0.728921 -0.751541
1769 11.9119 5.91687 1.31099 1.84777 0.284114 0.296265
1970 12.5553 6.64301 0.238435 -0.120037 2.07568 -0.181349
89 11.8425 7.02623 1.08967 0.372656 -0.106263 0.657173
2827 11.7143 6.02469 0.0934511 -0.597866 0.758019 -0.924136
832 13.3061 6.0802 0.630955 -1.18894 -0.0848578 0.314222
1387 13.5611 6.99501 1.35418 0.561565 0.136738 0.415202
3018 14.2847 6.68848 0.27702 -0.135595 0.644325 0.416972
947 14.4664 6.10855 1.06924 0.264448 -0.485208 -0.923402
3001 15.4778 6.35633 0.950797 1.39734 1.10736 1.51162
3646 1.10926 8.48394 0.722973 -0.977765 0.371614 0.749891
296 0.393802 7.46907 0.660757 1.42599 1.79053 2.81622
707 2.68255 7.45757 0.715149 1.35119 0.732546 -0.501453
1182 1.6496 7.65336 0.401295 -1.39337 -0.112437 1.09585
1703 2.73569 8.29781 1.212 -0.99084 2.48722 1.49162
1622 3.59209 7.49277 1.22852 -0.140267 0.93895 0.546398
2791 3.55367 8.16636 0.337845 -0.368097 -0.157394 0.252723
44 4.99705 8.30414 0.642755 -0.437614 -0.697027 0.515532
1419 6.156 7.90644 1.23031 0.719061 0.642446 1.64024
2494 6.80863 7.20865 1.05031 0.294015 1.73764 -2.20223
566 8.22372 7.43297 1.09401 0.220479 -0.238335 1.15339
3821 7.6291 8.19991 0.577337 1.14872 0.0677466 0.129984
2358 8.54909 8.54978 1.05683 0.198518 -0.0485311 1.6989
549 8.82353 7.86135 0.222186 0.0314827 -2.75408 0.186846
3580 9.8089 7.99598 0.461885 -0.793752 1.81978 -0.423442
1943 10.8836 7.75882 0.302135 0.394227 -1.29399 -1.01785
689 11.6298 8.17376 1.07093 1.79115 1.58998 0.19892
483 12.1265 7.61713 0.241906 -0.618867 -1.41781 2.00009
1015 14.0854 7.75701 0.707607 -0.261731 -1.89028 -0.726099
2646 13.0146 8.0377 0.409481 -0.328595 0.234308 0.37
339 14.8027 7.17155 1.05475 0.162443 0.456168 -1.24816
1238 15.0533 8.38482 0.765396 -0.714251 1.37404 -1.87431
2253 15.8578 7.87816 0.00424915 -0.838355 1.25736 -0.970696
3515 16.3836 7.32518 0.840232 -1.87802 2.0602 0.207519
1425 16.7396 8.38098 0.483426 -1.91673 -1.80805 1.32579
1599 0.722162 0.790474 1.89991 0.140672 -1.06136 0.878688
2247 2.81733 1.42081 1.93806 0.133779 -0.534619 1.44622
300 1.6148 1.28271 1.64523 0.480851 -1.75782 0.270604
1206 2.65877 0.351842 2.39661 0.107965 -0.242922 0.697089
2055 1.49949 0.564912 2.52992 1.27928 0.282838 -1.17465
2564 1.66445 0.00540909 1.63443 -0.0986623 1.10954 -0.519765
355 3.66894 0.95018 2.56408 0.130573 -0.743461 1.36883
3088 3.65002 0.327557 1.75007 0.16767 -0.5421 0.481719
3704 5.58353 1.05077 2.28052 0.929494 -2.15304 0.379596
1855 4.80941 0.555938 1.95485 -0.903715 1.13644 -1.0761
356 6.51265 0.826127 2.39727 0.49443 -0.0935108 1.23035
3924 8.39453 1.02528 2.16345 -0.0980945 0.278562 -1.08574
266 7.51981 0.10661 1.83686 -0.0287022 -0.282574 -1.37376
1830 8.63369 0.14016 1.65069 0.431382 1.02474 -0.230116
860 11.3169 0.564785 2.52333 0.627777 -0.413396 -1.01726
1605 10.5401 1.11241 1.95268 -0.431964 -0.9055 0.54989
2874 10.7698 0.0184452 1.65004 0.679748 2.31152 1.03009
3664 11.8752 1.302 1.56108 -1.17059 0.0648482 -0.1123
593 12.3135 0.571056 2.3555 -1.66427 0.359068 0.478452
3672 13.5769 0.441404 2.11529 0.660918 -0.0601097 -0.16772
2475 14.8744 0.550188 1.56687 0.482287 -0.0227857 -0.0581318
439 15.5315 0.958954 2.36673 -0.375581 -0.545921 0.312234
2116 16.8008 0.347937 1.50364 0.734398 -0.229657 1.16534
1863 16.0588 0.0217119 2.27153 0.0938267 -0.31468 1.40592
982 15.8321 0.781464 1.43831 -1.20034 -0.73812 0.331999
867 16.7855 1.02311 2.19954 0.303679 -0.343123 0.687476
474 0.915322 2.49661 1.97018 2.07651 0.104404 -1.74609
1718 0.78668 1.67279 2.68729 -0.106172 1.31091 -0.673295
3376 1.90647 2.8407 2.4781 -1.09676 0.782243 0.233223
864 2.01666 2.30564 1.48169 -0.0750919 -0.00521842 0.065271
424 2.01296 1.55378 2.63102 -0.499953 0.973542 -0.19342
774 3.83365 2.07864 2.2426 0.513374 0.390614 -1.72851
3615 4.74141 1.70757 2.64571 2.11873 0.443104 1.53013
3446 4.44243 1.60175 1.46211 -0.953042 0.0583753 -0.22059
741 4.61195 2.6856 2.14105 -1.01255 0.194931 -0.550777
3737 5.74691 2.24071 2.29927 -0.371564 -0.0486099 -1.06412
2556 6.75301 1.88417 2.13857 0.418771 0.693659 -2.09957
613 8.349 2.1127 2.25692 -0.613275 -0.218734 -0.23075
3101 7.42972 2.72972 1.68788 0.219612 -0.412138 2.25383
1957 9.50774 1.60754 2.25518 -0.212165 1.23234 -1.15689
473 9.44935 2.74412 1.80106 -0.180272 1.16229 0.445205
1798 10.256 2.09424 1.61821 -1.53504 -0.263599 0.889257
336 11.3169 2.04772 2.09318 1.12388 0.447301 -0.196862
2054 10.3728 2.04992 2.70682 1.11019 -1.07903 -0.524829
2066 13.1184 1.49346 2.2659 -0.963848 1.35707 0.340977
2064 13.9978 1.93046 2.14952 -0.985193 1.9354 -1.0063
1349 12.8521 2.4704 2.16923 0.412516 -0.363594 -0.127703
2800 15.2202 2.05215 2.13567 0.15594 -1.03958 -0.856233
132 14.5463 2.79223 2.55913 -0.574655 0.992252 -1.4133
2608 16.1361 1.74685 1.68777 -0.287463 0.470001 -1.09686
660 17.038 2.01425 2.20804 -2.66181 -0.122405 2.39105
1043 16.1764 1.94642 2.61222 0.167127 0.028226 -0.176019
921 0.577408 4.01431 1.43086 0.199255 -0.522894 -0.573479
618 1.20476 3.80042 2.7983 -0.340349 -1.07485 -0.133558
2857 0.418043 3.33495 2.35909 -1.63725 -0.831609 0.39576
1099 2.84377 3.08611 1.91331 0.25889 -0.308348 -0.932039
3812 1.72598 3.80941 1.59339 1.65902 1.3049 -0.982171
325 2.50809 3.74815 2.81136 0.347367 1.17687 -0.540195
2350 3.53921 3.10101 2.74081 0.888276 -1.25143 1.17748
3880 3.78366 3.64735 1.81743 -1.07751 0.0795196 1.41176
390 3.63092 4.23673 2.66389 -0.386154 -1.95211 -2.72639
2246 5.38924 3.44771 2.60047 0.631623 -0.160469 0.150551
733 6.41613 3.85201 1.93621 -0.324657 0.951893 -0.516005
239 6.77506 2.99707 2.49612 -0.396504 -0.334338 -1.14191
1476 8.30385 3.2882 2.18207 -0.0419368 -0.203287 -0.375806
2349 7.28703 3.9867 2.51907 -0.773105 1.35966 2.46535
301 9.36492 3.64391 2.34622 -1.09223 0.278956 -0.725621
936 10.9756 3.58701 1.99151 -1.50438 -0.84727 -0.739131
1166 10.2222 3.06552 2.37496 -1.72008 2.04474 0.0944168
3009 11.8515 3.05506 1.92164 0.146199 0.358541 -0.733329
664 12.815 3.2608 1.51217 -1.44691 -0.19187 0.0795609
2670 11.9837 3.71362 2.80551 -1.25292 0.271025 1.37979
3008 13.6733 3.20924 2.18041 -0.995212 0.348868 -0.617485
2314 12.9932 3.97982 2.52359 0.0908017 -0.618292 0.34115
3253 15.4574 3.84729 1.61781 1.4796 -1.34503 -0.850025
3222 14.5244 3.66649 2.04616 1.03175 0.665033 -1.64363
2842 15.4929 3.10426 2.36085 1.11224 1.1918 -1.0897
3468 15.3127 4.05114 2.70229 -0.116785 0.0637158 -0.956434
1400 16.5077 3.68533 1.84011 0.17346 -1.23722 0.514246
909 16.5148 2.93254 2.55132 2.03604 0.301766 -1.36003
3900 0.655223 4.45279 2.2558 0.295771 1.15703 0.0327215
1290 1.25574 5.4503 2.46979 0.00442597 -0.0992088 1.44286
14 2.06743 4.77315 2.79172 -0.788843 0.500041 0.830035
3670 2.54649 4.7631 1.78079 1.17948 -0.0612498 0.362154
2035 3.46815 5.43954 1.96272 -1.37076 -0.116754 -0.309918
2784 4.08098 5.14066 2.80808 0.0584479 -0.652026 -0.0362901
2331 4.87691 4.46291 2.50012 -0.142745 0.034492 -0.367979
3696 5.57059 4.41899 1.6099 0.564601 0.448316 -0.365028
2165 4.82492 5.52522 2.17615 0.439281 0.049244 -0.369055
2863 6.54977 5.1585 1.4482 0.185968 0.338857 -0.0664778
2346 5.95086 4.48582 2.50904 -0.0568074 0.524079 -1.2637
2882 5.88447 5.6206 2.22286 -1.49433 0.894013 0.421772
1995 6.84942 4.82334 2.77577 -0.191439 0.290923 0.453185
168 8.40561 4.43747 2.13267 0.350985 2.63665 -1.27478
346 7.4106 4.90935 1.94832 -0.243529 -1.06035 0.588342
19 8.70529 5.34528 1.86818 0.490495 0.114656 1.62388
81 9.50964 4.65359 1.87128 0.40577 -1.09497 -1.69753
2691 11.1615 4.51588 2.62037 -0.491592 -0.313589 0.401524
1690 10.6742 5.03152 1.84574 -0.135774 -0.352174 -0.704509
3415 10.0659 4.58761 2.76457 -1.07446 0.14931 -0.474353
223 12.5297 5.15838 1.58136 -1.20976 0.501425 -0.445846
1125 11.8142 5.65248 2.44528 0.769988 -0.115145 -2.44823
1200 11.9729 4.31728 1.74541 1.22054 -0.824119 0.274403
976 12.2134 4.68165 2.73292 -2.22821 0.553165 0.467375
2853 13.639 4.33963 1.59782 -0.387838 1.57206 -1.06868
453 13.4611 5.11576 2.42356 0.0875679 -1.16964 1.22758
1845 13.6024 5.36789 1.43025 -0.629338 -0.54753 -0.592285
3149 15.3172 5.41689 1.51089 0.455892 -0.0729702 0.478745
2924 14.5202 4.9113 2.10854 0.401398 0.736735 0.264703
151 15.166 5.69892 2.61664 -0.0894193 1.58157 0.405675
3673 15.7328 4.78169 2.21492 0.229134 -0.538833 1.02232
1087 16.8157 4.33397 2.72338 -2.13169 -0.14476 -0.112413
2416 16.9021 5.24153 2.2183 -0.292909 -0.971075 -0.33472
1298 0.112287 7.10061 1.70721 0.352944 -1.32355 0.949196
1410 1.10788 5.97575 1.59776 -0.371309 0.12813 0.246161
370 0.580528 6.48326 2.27924 0.324146 -0.267979 -0.645971
3966 1.76484 6.64912 2.00335 0.637967 0.71319 -1.38312
1135 2.35691 5.80979 1.84693 0.359998 0.557199 -1.16623
2648 2.51124 6.29039 2.65816 1.18163 0.975538 -0.641121
2032 3.08595 6.45652 1.53 -0.542957 1.09787 -0.473502
1104 5.54529 6.6583 2.4337 -0.100108 -0.557272 1.42606
1780 4.42674 6.6435 1.8617 0.26653 0.814899 -0.832055
612 4.47194 6.32265 2.78627 1.95785 -0.273758 0.738584
1562 6.78661 6.11143 1.71543 -1.60738 1.22681 0.844096
5 7.66118 6.04533 2.32417 -1.83253 0.87022 -0.168928
1488 8.96227 6.35347 1.81131 0.133426 -0.102234 1.21756
1831 8.80141 5.92455 2.76547 0.343598 -1.56442 0.84997
434 9.86475 5.74593 2.10223 0.458012 -1.17702 0.226151
2183 11.3649 6.68554 2.24928 0.557867 1.25882 -1.21254
3844 10.1092 6.71733 2.05185 0.979805 2.33618 0.859503
2198 10.6387 6.1839 2.80946 1.43813 0.892286 -0.290383
650 12.7854 6.40592 1.81527 -0.717524 1.16131 1.3596
1630 12.2553 6.74164 2.73693 -0.794034 -0.0764053 0.500687
2033 13.5378 6.79657 2.37111 0.416456 0.0932378 -1.19672
3451 14.1802 6.08535 1.97691 -2.10622 -1.07561 0.309216
1558 15.0914 6.52319 1.8617 0.985523 1.14966 -0.66375
2611 15.6452 6.7394 2.82561 -0.688123 -0.452754 0.433795
3987 16.0717 5.93419 1.92858 -0.586844 0.487734 -0.494374
3079 17.0872 6.02713 1.50203 -0.976853 -1.41952 1.8539
2481 16.1433 6.94406 1.84926 -0.441039 -0.616087 1.11864
1930 1.01298 7.45604 2.36192 0.921332 -1.69434 0.0510372
1435 0.457724 8.04612 1.45004 1.18645 0.00157285 -1.42238
375 0.132757 8.11978 2.62731 0.550083 0.180677 -1.65631
983 2.58687 7.33868 1.73834 0.0494461 0.313598 0.0376569
2940 1.96763 7.58318 2.70485 0.742964 0.750954 0.45278
101 2.83419 7.14442 2.83328 0.78125 1.83665 0.180008
1356 2.69607 8.37598 2.27847 0.301056 -0.281645 0.586388
2409 1.64395 7.8568 1.67711 1.96434 0.446985 1.20651
2604 3.65369 7.21673 2.24887 -0.973572 -0.661707 -1.41372
2735 3.96874 8.27356 1.90034 -0.430669 2.57434 -0.599614
2734 4.80703 7.70657 1.57356 -0.785842 -0.00449689 -0.294638
2191 5.4362 7.94728 2.61769 1.22582 -0.66493 0.305558
1503 6.60353 7.2324 2.09554 0.146223 -0.25598 -1.08504
3249 7.62307 7.22378 2.12618 0.862905 -0.326561 0.558644
3062 7.22065 7.97451 1.58565 -1.95799 0.704064 -1.35701
2984 9.18835 7.58066 1.48522 -1.3826 -1.32001 -0.571938
1081 8.66359 7.66028 2.5115 0.649671 0.61438 -1.28961
152 9.59448 8.54546 1.50615 -0.752757 1.51077 0.721019
2873 11.0304 7.46052 1.46747 -0.225022 -0.811168 0.261227
1142 10.1667 7.96971 2.20551 0.27457 -0.380311 -0.0813177
3146 10.979 7.52966 2.68543 -1.47551 -0.303218 -0.614738
738 11.1483 8.40272 1.89276 -2.2364 -0.683214 1.09443
1251 11.935 7.94522 2.35209 0.987523 -0.471687 0.339269
1644 12.4647 7.58334 1.56883 0.877745 -1.19031 -0.570895
3021 13.8477 7.86577 1.8411 0.234056 -0.013112 -0.198484
1225 15.3374 7.66236 1.88382 0.368972 1.10207 -0.368861
816 14.4504 7.1703 2.51649 0.651061 -1.44579 0.510958
2289 14.5227 8.49623 2.30939 0.161641 0.0116972 -0.365096
948 16.2076 8.17542 1.55788 -0.548377 -0.938412 0.0654367
2022 16.5585 7.27364 2.75806 0.855283 -0.938817 -0.553313
3155 15.8567 8.52805 2.59955 1.34605 -0.190879 1.00615
3990 1.35419 1.16487 3.62866 0.716612 0.681151 -2.16011
685 0.505714 0.755492 3.07866 -0.135456 -1.57647 0.584176
829 2.37419 0.573853 3.39676 0.313425 1.52007 -0.86732
2337 3.12234 1.22592 3.70411 0.0319458 1.15751 1.16513
3363 3.87788 0.608168 3.91208 0.165604 -1.16432 -1.01036
1958 5.01681 0.717947 3.11585 -0.133862 0.535524 -2.4681
1523 4.95923 0.808352 4.15445 -1.69486 -1.48993 -0.329446
958 6.04113 0.52675 3.37178 -0.933636 1.73629 -0.249444
3452 6.33776 1.21827 4.01318 -0.954151 0.744952 -0.441276
971 7.109 0.527627 3.76918 0.197373 0.0553142 1.00023
730 7.58349 0.874437 2.88485 1.08452 -0.39664 -0.0628229
634 8.22499 0.145619 3.36721 0.279281 0.30195 0.221401
2530 9.16646 0.419631 2.86554 -0.132432 -1.52041 0.761615
320 9.76702 0.0232524 3.50822 0.726237 -0.477024 0.477588
136 8.80114 0.903033 3.7873 0.0448239 -1.44462 0.596993
1060 10.2395 0.944331 3.07605 -0.422025 0.258524 1.77788
1594 10.5316 0.475549 3.9966 0.704747 1.08195 -0.352682
3076 11.786 0.046923 4.12757 0.535484 2.28458 0.773435
322 12.0672 1.02519 3.79831 0.629771 1.93952 0.570275
2778 13.058 1.33743 3.65439 0.526152 0.323539 0.891024
3147 13.9255 1.12593 4.16432 -0.790055 -0.195055 0.533482
1972 13.3582 0.122612 3.22228 -0.97618 2.28704 0.845281
3802 13.9495 1.03506 2.92941 -2.93503 0.572577 -0.427979
547 15.58 0.759842 3.58701 -0.17848 0.953474 -0.787479
3601 14.4226 0.135277 3.49565 2.87651 -0.515937 0.139811
242 16.6955 1.18952 3.27766 -0.35944 1.30235 0.00246608
2427 0.829423 2.65729 3.15238 1.68529 -0.211769 0.668213
2692 0.265146 1.5695 4.11417 1.90404 0.377642 1.36281
3467 1.73365 2.11538 3.41494 -1.07355 1.30245 -1.93344
3361 2.99672 2.23587 2.87301 -2.6611 -0.00484394 1.69349
2081 3.34969 2.50644 3.9639 -0.354447 1.77383 1.92625
779 4.28416 1.98567 3.63301 0.550434 -0.390662 1.15488
3116 5.08008 2.70971 3.50877 0.373811 0.89929 0.0510991
3115 6.78111 1.83645 3.27493 0.128298 0.806757 -0.313917
726 5.70355 1.57546 3.20637 -0.835204 -0.562695 -0.219144
3374 7.67046 2.55364 3.0075 -0.362127 -2.05967 0.999484
96 7.54782 1.57566 4.09359 -1.84705 0.183126 1.07382
58 8.41479 1.90336 3.56708 0.373515 -0.338673 0.0944449
3525 7.21815 2.54681 4.20063 -0.714521 0.133958 -0.261419
1720 9.41105 1.54186 3.38953 0.583516 0.404048 0.762177
2068 9.39012 2.71255 2.90567 0.222834 -0.718118 -0.0314951
201 9.92786 2.82874 3.7694 0.108808 0.235612 -0.97955
847 10.9261 2.41048 3.98529 1.10399 -0.685862 -1.99967
3543 10.3279 1.60442 3.99655 -0.239668 0.657071 -0.257161
2988 11.3246 1.45743 3.11204 0.126848 0.10209 -2.02443
2228 11.449 2.7951 3.02908 0.564565 -0.794602 -0.506137
3837 12.7063 2.69565 3.37735 0.150236 -0.426757 -0.674995
2431 12.3134 1.51959 2.98465 -0.592355 0.203691 0.186216
3052 11.8553 2.07375 4.06986 0.0201815 0.484568 1.15796
3638 13.7735 2.11956 3.19453 -0.694453 0.837343 -0.72961
2077 13.2689 2.26391 4.07459 -0.860177 -0.673277 1.16855
1535 14.8598 1.47362 3.08127 1.3636 -0.750172 -0.0102736
1462 14.462 2.34759 3.86315 -1.00298 1.22946 0.380418
1974 15.3863 2.39978 3.26485 1.54191 0.293642 -1.48462
188 16.8811 2.49131 3.47872 0.221564 2.2027 0.0646655
2480 15.808 2.82147 4.1475 1.18714 -0.217517 0.398353
1612 0.129232 3.55159 3.37926 2.1869 -0.000835129 1.03024
2425 1.04665 3.42465 3.84798 -0.205745 0.146438 0.666672
2672 1.91048 3.94045 3.77895 -0.432496 -1.0573 -0.283116
2782 2.47649 3.00924 3.48666 -0.119161 0.0303822 -0.394519
2580 3.73113 3.70353 3.92917 -0.558282 -0.252293 0.504226
3919 4.52428 3.49754 3.06625 1.06116 0.377771 -0.767677
3198 5.50499 4.22061 3.3434 -0.604185 0.47696 2.64835
1496 4.92951 3.69955 4.13891 -0.227239 -1.46892 2.00587
2697 6.50513 3.93452 3.28569 0.133773 -0.488575 0.0937305
2652 6.11194 2.89559 3.29118 1.52452 0.544275 -0.379062
3017 7.50185 3.64236 3.7878 0.804393 0.563292 0.114452
3231 8.21063 2.91007 3.94616 0.469814 -0.275077 0.11377
1828 8.56831 3.68769 3.09539 -1.8884 -0.764605 -0.439886
1408 8.62466 4.02217 4.20697 -0.372247 -0.619811 -0.684561
1548 9.51403 3.75143 3.54005 -0.222064 1.48175 0.904146
501 10.599 3.57705 3.09517 -0.559546 0.654173 0.246179
1922 10.3429 3.75696 4.19556 0.144659 0.550576 -1.32164
1152 11.5498 3.61539 3.82713 -1.90848 -1.33912 -0.759883
1688 12.4678 4.08555 3.54033 -1.79518 -0.863274 1.54412
2080 13.837 3.45079 3.20547 -0.0244386 -0.675075 0.0477498
2551 13.5479 3.96808 4.16391 -0.0159272 -1.51888 0.19295
2764 15.0454 3.32444 3.6605 -1.07239 -0.946759 0.510921
2707 14.5613 4.18662 4.11544 0.527319 0.567981 -0.992364
1214 16.1829 3.49488 3.31243 0.269989 -0.899632 0.100904
2267 0.883314 4.57557 3.2996 -0.711053 -0.741742 0.808221
1178 1.88971 5.64115 3.38726 0.328378 -0.799094 -1.17936
3620 1.95599 4.90661 4.21597 -0.0988702 0.774366 1.13492
1992 2.73441 5.65928 3.98329 0.704412 0.169721 1.22499
1779 3.06375 5.31166 3.04322 1.06995 -0.255377 0.665397
3333 2.86435 4.40033 3.72278 -1.49717 -0.383177 -1.07183
3081 4.03011 5.35904 3.8414 0.106411 -0.423455 -1.58066
2820 5.3444 4.96256 4.09466 -0.568447 -0.802957 0.558751
891 4.9528 5.58477 3.32648 0.855972 0.898524 -0.227867
1413 4.56397 4.59235 3.55809 -1.23039 -1.36605 0.808196
1124 6.40821 4.43914 4.20777 0.289959 -0.199643 0.247408
3790 6.39396 5.53104 4.27145 -0.502031 -0.760573 -0.635859
892 5.93932 5.24425 3.30446 -1.35304 -0.759519 0.454352
3225 7.42228 4.65307 3.76657 0.501493 -0.358912 -0.715733
809 7.28466 5.59876 3.38679 -0.416807 1.05234 -1.19874
754 8.08389 5.22335 2.86872 -1.32118 -1.9608 0.425692
785 8.35317 5.1584 4.12881 -1.1243 0.0604349 -1.26594
3121 9.00503 4.69524 3.02235 1.02767 -0.991611 0.557588
2893 9.47184 4.75479 4.06427 0.074672 -0.237616 1.93504
3803 9.71289 5.62083 3.15256 -0.376584 0.571026 -0.58229
51 10.6024 4.82369 3.79954 -0.663929 -1.01097 -0.0734479
2903 11.5128 5.22836 3.35516 0.389568 0.514072 -1.6094
2384 11.6888 4.54639 4.16125 0.0637685 -0.374943 -0.913587
2748 14.0407 4.42565 2.97876 -0.491558 0.340246 1.3341
2075 13.0606 4.97783 3.3753 -1.84855 0.468176 -0.333121
3007 14.0897 5.18317 4.0626 -0.588002 -1.23975 -0.542823
1359 14.8732 5.05683 3.29073 -0.0561989 0.622825 0.527684
3688 16.1476 5.25426 2.95745 -1.40534 0.0163729 0.124441
1864 17.098 5.2805 3.34162 -0.674052 -0.226551 -0.0229425
3441 16.787 4.46516 3.96868 -0.820667 1.31887 -1.06383
2592 15.7506 4.41387 3.5846 -0.229418 0.712613 0.0384552
2417 16.2144 5.28723 4.1127 1.26961 0.319932 0.270061
185 0.33807 6.83527 3.26971 -0.712017 -0.626681 0.0401041
3420 0.83756 5.84694 3.71668 0.0986484 -1.03702 -0.592201
3865 1.28538 6.57039 2.98222 -0.423803 2.06503 -0.892016
588 2.81556 6.59756 3.70213 0.975805 -0.647758 1.25377
772 1.73672 6.44149 3.94064 -0.488393 0.513751 0.0981548
3636 3.63645 6.17388 3.2136 0.430938 -1.21265 -0.123817
648 5.41103 6.62364 3.47938 0.345626 -1.94404 0.112556
2686 4.51255 6.53379 3.89058 0.653043 -0.781662 1.51387
2838 6.43133 6.09297 2.95924 -0.787488 -0.128687 -1.33486
1716 6.30344 6.63777 3.93485 -2.61003 -0.378655 -0.733685
1019 7.13377 6.59583 3.44075 0.711669 -0.750838 2.63709
1801 8.20415 6.32554 3.60612 0.236974 -0.498124 0.245548
2492 9.29502 5.82428 4.01525 -0.663039 0.258403 -0.356468
2810 9.39514 6.75306 3.00735 1.08404 0.565799 -1.68105
2950 11.3234 6.23954 3.51902 -1.31261 -1.31051 1.56616
2449 10.3727 6.84787 3.61882 -0.0927516 -1.33875 -0.400695
3777 12.2849 5.9554 3.60353 -1.11548 -0.694737 -0.581912
3791 12.5649 6.87902 3.93765 0.540418 -0.811447 -0.447588
1381 13.0268 6.06923 2.88439 0.641187 0.660459 -1.27781
2403 13.3764 5.9199 3.89301 -2.32972 1.54516 -0.123071
3622 14.1838 5.72428 2.97196 0.0262978 0.00149039 0.339366
3684 13.75 6.93676 3.35586 0.988976 0.156881 2.17094
1715 15.611 6.01315 3.49725 0.0388319 -1.11673 0.466109
1227 14.6601 6.56975 4.02479 0.267082 -0.43215 -1.15639
1652 16.6155 6.23183 2.95645 -0.683475 1.53386 0.271257
639 17.0565 6.1507 4.03111 -0.095775 -0.341747 -1.21561
2989 16.3217 6.93615 3.79421 -0.144907 -0.98393 0.836593
314 1.22668 8.49592 2.89746 0.0953278 0.449522 0.480786
3454 0.945354 8.25404 3.83836 -1.90505 1.16256 -0.269681
1423 0.0593576 7.82108 3.81284 2.14246 0.720853 -2.46262
1976 2.58936 7.73594 3.58662 1.29434 -0.0462705 -0.364658
3869 1.61942 7.62439 3.65949 1.32453 -0.458376 -1.80719
752 3.63283 7.27238 3.71909 0.201452 0.709351 -0.430452
589 3.61097 7.98637 2.94787 -1.71889 0.24256 0.118636
1184 4.52802 7.46164 2.98531 0.584355 -1.525 -0.900229
3710 5.41133 7.79487 3.59562 0.482265 1.74546 0.237857
2876 4.457 8.20964 3.96784 -0.7724 -2.03495 1.5132
409 6.43621 7.40665 3.1872 0.107664 -1.02229 -1.96055
1509 6.20906 8.38257 3.30179 -0.547795 -0.0470565 0.104672
996 7.26909 8.17818 3.27715 -2.46253 -0.943927 0.654827
2926 8.03357 8.36399 3.8761 1.92314 -0.168965 1.27687
3512 7.86719 7.27113 3.30829 -0.746646 0.762621 1.81301
2266 9.00131 7.16402 3.81987 0.585867 0.112387 -1.37937
1431 9.84637 7.75844 3.15429 -0.273882 -0.96651 0.735232
1493 11.3959 7.2542 3.83691 1.29714 1.02811 0.757165
838 10.4867 8.11417 3.83974 -0.162532 0.0606824 -0.91971
3559 10.9646 8.51495 3.06379 -0.647816 -2.50994 1.12573
3166 11.8937 8.15424 3.36737 -0.457999 0.0348395 0.955304
1487 12.9178 7.62679 3.13054 -0.57018 0.345672 1.09892
3230 14.0252 7.90174 3.12165 1.2417 -0.565878 -0.6445
287 13.6254 7.79839 4.11203 0.768656 -0.833842 -0.00200986
2727 15.3956 7.36423 3.6339 1.69717 0.249245 0.695126
2108 15.0126 8.2217 3.28684 -0.129012 1.53317 0.723265
1046 0.636948 0.602495 4.3587 -0.474255 1.71325 -0.308798
3457 1.04387 0.864246 5.32765 1.75414 -0.570357 -1.87604
1358 1.56186 0.0971881 4.63714 1.04426 0.351225 -0.668486
426 2.30254 0.882321 4.4161 -0.573342 -0.894018 0.0471923
708 2.52451 0.485912 5.40503 0.591417 -0.281478 -0.213792
1986 5.44423 0.511689 5.21767 -0.39672 0.118284 0.36094
917 4.29471 0.884426 5.15451 -0.551698 0.874093 0.406752
1815 6.44409 0.639761 4.77052 2.16385 -0.693853 0.0921408
3190 8.35077 0.258444 4.39794 0.610523 0.685213 0.207714
3260 7.4222 0.520027 4.81903 -0.697931 0.851666 -0.582169
2594 7.95241 0.126673 5.65848 -1.58706 0.579822 -0.0125511
2283 8.11341 1.32953 4.86372 0.928159 -0.13133 1.20534
209 9.60235 0.974763 4.4317 0.075507 1.60585 0.262619
2588 8.91399 0.755037 5.17959 -1.69077 -0.784478 1.07622
3963 10.0006 0.143596 5.2446 1.22073 -0.313659 1.12392
2714 11.1338 0.951743 4.59898 1.24054 -0.809878 -1.45726
2147 10.2726 1.23631 5.48019 1.04102 1.45358 -1.92681
3643 11.0342 0.124364 5.16987 0.481197 0.991624 0.618931
4 12.1169 0.645987 5.03819 -0.709997 -0.848294 -0.200186
2272 13.2779 0.893264 5.23893 0.701384 -0.706703 0.193971
477 14.1595 0.286597 5.01045 0.387193 0.133311 -0.620881
3783 12.8399 0.238477 4.28366 -0.911358 1.71454 0.34329
3174 15.0171 0.588729 4.44286 0.525901 -0.83367 -0.768533
956 14.5006 1.36509 5.22989 1.25207 0.302791 -0.177544
2361 15.1788 0.604236 5.51207 0.0705219 1.04376 -1.82921
3014 16.6732 0.819965 4.40839 0.258425 -1.59814 1.56458