ITEM: TIMESTEP
44000
ITEM: NUMBER OF ATOMS
4000
ITEM: BOX BOUNDS pp pp pp
0.0000000000000000e+00 1.7099759466766969e+01
0.0000000000000000e+00 1.7099759466766969e+01
0.0000000000000000e+00 1.7099759466766969e+01
ITEM: ATOMS id x y z vx vy vz
1610 0.857283 0.827608 1.12999 1.17229 -0.77495 -0.322102
1611 0.716586 0.724028 0.0570577 -1.72462 0.340603 0.674247
2152 1.9309 0.703964 0.870901 0.256841 -1.04945 0.713911
3820 2.72285 0.0519822 1.20024 0.195594 1.30566 -0.0263441
648 2.47539 0.198032 0.0825734 0.403468 -0.515335 -1.1162
3641 3.26521 0.88341 0.411096 -1.83034 -0.461551 1.78566
1436 3.5583 0.881669 1.40556 0.50911 1.12908 -0.0298294
735 5.01878 0.566166 1.36912 -0.00671229 -0.309053 -1.34027
717 4.46445 1.39948 0.556104 -0.308093 1.56325 -1.32619
835 4.37113 0.283476 0.688749 0.763385 0.402973 -1.63946
252 5.5132 0.883181 0.511046 0.162687 1.36713 -0.601528
3767 6.88011 0.141657 0.125426 1.61291 0.747385 -0.571484
165 6.24239 1.01537 1.24061 -0.346214 0.63496 0.623513
446 6.24889 0.0109534 1.02165 0.690384 0.728668 0.599692
3100 7.92537 0.0632869 0.0862528 1.6914 -0.900281 -0.25433
1404 7.92376 1.03198 0.653809 0.872921 0.263771 -0.504984
3445 7.20764 0.361028 1.0653 0.385086 -0.316685 0.0389428
588 9.89723 1.17502 1.01222 0.431357 -0.893527 -0.286214
3228 9.01376 0.300965 0.805482 -1.36716 0.366175 -1.43137
1984 11.0017 1.27792 0.0245256 -0.234236 -0.582861 -1.02458
222 10.1837 0.0179929 0.649708 -0.761357 0.778153 -0.0480212
2227 11.1204 0.168165 0.208903 0.2769 -0.0341339 0.871642
1480 11.5209 0.335649 1.16543 -0.129715 -0.0437534 1.73426
1001 12.5442 0.0985482 1.07161 0.0298495 -0.564002 0.547875
442 14.0591 1.33459 0.942846 0.608122 -1.01695 0.128253
3187 13.1103 1.07835 0.758579 1.56075 1.56725 0.432698
1363 13.7658 0.350404 0.0980082 0.39915 -0.838375 -1.89995
660 13.7518 0.251591 1.09553 0.431501 1.09155 1.34755
3714 14.8016 0.594035 0.835111 -2.5104 0.433642 -0.0413691
1628 15.6207 0.290758 0.227571 1.10596 0.575206 1.98741
2440 16.7923 0.0642878 0.52838 0.634485 0.140399 0.4049
3891 16.9939 1.02321 1.16169 0.92748 -0.499458 -0.0511164
3777 15.7966 0.0563883 1.24017 1.21726 1.1402 -1.14461
2451 15.9895 1.19187 0.969088 -0.660527 0.928011 -0.261982
1920 1.00545 1.91238 0.70708 -0.147466 0.98933 0.470879
2724 0.115198 1.75558 0.144491 -1.2601 -0.511566 -0.207225
3392 0.270377 2.74327 0.637388 -0.552782 -0.833808 0.673995
2689 2.02475 2.14659 1.23719 -0.560678 -0.620071 0.249746
5 1.7933 2.54907 0.17557 0.637895 -1.25586 0.309464
2576 2.67647 1.84215 0.249392 -1.08711 -0.190757 0.565468
2247 3.02785 2.83895 0.715712 -0.835085 -1.28757 1.07477
465 4.03725 2.40773 0.207372 1.60801 1.78851 -1.14766
1677 3.40658 1.83646 1.04111 -1.41679 -0.225833 -0.290858
354 5.28636 2.3779 0.20384 0.0769031 0.863901 -0.39587
2333 4.35107 2.68531 1.29152 -1.01495 1.71468 -0.179158
1139 5.42692 1.87807 1.31603 -0.318633 -0.226681 -1.64236
613 7.01166 1.51838 0.514034 -0.191682 0.583402 0.380934
1765 6.26106 2.14647 0.694784 -2.2102 1.55423 -0.847625
2074 7.92382 2.12411 0.606473 -0.518743 0.534749 -0.400636
3691 9.21951 1.89862 0.378823 -1.52784 -0.386708 1.3326
1369 9.92443 2.66001 0.343297 0.122208 -1.30493 1.00114
1195 9.16768 2.30653 1.307 -1.549 -2.00712 -1.46045
260 10.6239 1.92029 0.904784 0.140556 0.923915 0.403515
1209 11.3927 2.19469 0.200237 -1.24398 -1.43319 0.0384581
1687 12.1798 1.53913 0.600611 0.587796 0.178262 0.361049
711 12.3337 2.57324 0.711476 -0.0419995 -0.594723 0.353577
3447 13.3094 2.26212 0.352623 1.31492 0.25664 -0.688156
718 14.1449 2.27173 1.35902 1.4532 -0.465717 0.755933
273 12.8731 1.76017 1.37687 -0.704935 1.50704 -0.773407
363 15.0031 1.44792 1.42174 0.304641 -1.36524 0.774512
3113 15.0872 2.46616 0.975756 -2.09347 -0.249931 -1.06435
2315 15.3426 1.61721 0.2699 1.54837 -2.09083 -0.628524
3472 14.3248 1.92824 0.166142 -1.7012 0.998993 1.86226
281 16.1501 2.23548 0.743606 -1.48291 0.185817 3.19889
339 0.679917 3.92961 1.19837 -2.08921 0.63054 0.258529
2702 0.246346 4.18523 0.0631387 -0.181846 -0.581307 -0.573185
3462 1.27757 2.96143 1.07101 -0.838729 -0.101075 0.928084
319 2.39106 3.59336 0.996434 0.885931 -0.175582 1.31604
1487 4.20879 3.69728 1.13571 -1.78129 -0.503028 0.779037
602 3.69237 3.77102 0.268618 0.472838 -0.625125 -0.280093
500 5.42679 3.83573 1.2106 0.895108 -0.191248 -0.5636
2125 4.79148 3.32721 0.405508 -0.141188 -0.420054 -0.0398955
1966 5.0747 4.27033 0.057358 -0.499256 -0.481581 1.92694
871 6.58819 3.28083 0.81286 -1.80763 1.71049 -0.242143
127 5.88756 3.85786 0.289612 0.678059 1.9217 -0.0767813
2525 7.50736 3.56018 1.20669 -1.67892 0.108181 -0.301245
1442 8.14058 3.99304 0.199751 1.46669 -0.860165 0.451588
271 8.42509 2.91684 0.709871 0.313977 -0.894746 1.32474
482 8.53204 4.00694 1.15173 -0.119335 0.417707 -2.80116
2266 9.21564 4.14789 0.162666 1.20759 -1.98692 -0.765626
1201 9.38551 3.36174 1.25946 -1.80404 0.921721 1.38546
3736 10.4512 3.8919 1.41239 0.952863 -1.17665 -0.138041
229 10.2885 4.00067 0.245324 0.670797 -1.10696 1.15055
3552 10.7328 3.10806 0.625826 -1.82869 -1.94455 0.673757
1545 12.5828 3.50178 1.14119 -0.0915744 1.76534 -0.521064
1870 11.5689 3.59608 1.40065 0.459121 0.907243 0.00737545
3842 11.5024 4.24422 0.598424 0.232792 -1.26959 -0.984132
3836 11.5891 3.11227 0.0467583 2.03337 0.723599 0.828965
3878 14.0695 3.09742 0.824586 0.685917 -0.569207 0.460837
1026 16.5809 3.215 0.25661 0.0253909 1.06587 -1.17869
917 16.5577 4.08826 0.783899 -0.528001 0.0241794 -0.0498125
1981 15.7753 3.19857 1.06518 -0.503403 -0.940798 -2.54912
1170 0.928271 4.72866 0.695817 -2.0126 0.994023 0.471392
904 1.88798 4.28845 0.393515 1.88257 -0.308331 -1.14371
956 2.62769 5.35284 0.301571 1.54818 -0.730231 0.41304
1685 3.9965 4.96404 0.344087 -1.23671 -2.04193 -0.474285
3868 3.10364 4.28594 1.01475 0.630603 -0.712504 -0.194054
2529 5.68689 5.58488 0.292523 -1.01823 -0.11191 1.30499
2127 4.75475 4.55703 1.05625 0.964995 1.49986 -1.14162
1311 6.91947 4.53305 1.19864 0.599768 0.116542 1.4417
1009 5.89713 4.7702 1.05169 1.05064 0.878793 -0.460108
3637 6.45064 4.9502 0.161028 -0.371586 -1.11422 0.416099
970 7.2242 5.39807 0.881001 -0.676809 -2.4225 0.152086
114 8.21309 5.59337 0.069782 0.545721 0.702397 -0.568939
1744 9.03574 5.27578 0.527402 1.14029 0.0840109 -0.318445
2410 9.58822 4.52132 1.12921 0.959318 0.250873 0.862663
445 10.6236 4.95631 0.920997 -0.139973 1.3483 -1.17417
2678 11.3958 5.53042 1.21701 -0.221965 1.05558 -0.648474
658 11.9258 5.28562 0.323769 0.302706 -0.207779 0.939487
2443 12.16 4.68866 1.30761 0.236444 0.775056 0.579284
3960 12.4417 4.30075 0.0242587 0.675378 -0.461451 -2.24805
2672 13.9276 5.32362 0.0390596 0.115354 0.1878 -1.35972
2289 13.014 5.38486 0.766135 0.271748 0.0629429 -0.566438
2991 14.1018 4.39794 0.761418 -0.298938 -0.510306 0.676168
2727 15.5834 4.92038 0.666197 -1.39148 0.022296 0.399842
2013 14.7286 5.45623 0.951702 0.220032 -0.119117 -0.833664
2875 17.0372 4.99886 0.627543 1.26715 1.38698 -1.25181
2175 0.355863 6.8128 0.821714 -0.557004 1.69334 -0.804976
1970 1.3253 6.74352 0.578475 -0.525226 -1.7224 -0.357301
2107 0.428241 5.77818 1.21747 -1.10876 0.88095 0.274341
1890 1.62372 5.82309 0.813797 -0.382466 1.73421 -1.90469
1646 2.69996 7.07205 0.834367 -0.635901 -0.469662 -0.261493
865 3.25817 5.95017 0.81884 -0.608817 -0.126877 -0.656861
3869 4.05372 6.90803 0.617251 -1.45828 -0.0933098 -1.52097
3889 4.84775 6.11632 0.49664 2.52789 -0.4701 -0.00308955
1591 6.50185 5.9421 1.38806 -0.285855 1.30051 -0.628993
148 5.8308 6.75484 0.825274 1.77919 0.337691 -0.193686
3322 8.51118 6.09376 1.24053 1.11466 0.741467 0.00307144
1239 7.58575 6.28555 0.615791 -0.304218 -1.09257 -0.407893
1160 8.71135 6.49565 0.00143637 -0.053639 1.05487 -0.0284321
3636 9.66803 6.51879 1.41348 0.98863 -0.922402 -0.709735
440 11.0538 6.66491 0.888124 0.245682 -2.218 1.08661
565 10.0652 6.13034 0.569041 0.637562 0.105478 -1.34849
1233 12.0976 6.62901 0.567392 0.222647 0.0990857 1.10974
3157 13.1636 6.87156 0.52439 -0.995835 -0.157899 0.177252
2839 13.881 5.95225 0.779667 1.06067 1.35359 -0.203209
2019 15.0846 6.38537 0.66195 -0.916656 -0.597439 0.131708
2049 16.5343 6.70682 0.0116982 -0.706936 1.9682 -0.737078
1597 16.3178 5.95314 0.834431 1.32486 -0.152135 0.132609
2129 16.2685 6.72235 1.36234 2.25426 0.917197 1.16946
2279 0.113814 8.49926 0.10727 0.0414372 -0.45074 1.06173
3881 0.760224 7.68359 0.470304 0.117808 1.33698 0.800015
238 1.1874 8.32264 1.26703 0.612447 1.03836 1.08996
795 1.86855 7.73164 0.626086 -0.446876 -1.8317 1.19906
2323 2.73231 8.35282 1.28948 0.810291 -1.04646 -1.05004
2726 3.92929 7.83514 1.08068 -0.36746 0.595582 -0.0515233
3125 4.86597 7.38749 1.22069 -0.766769 1.12076 0.284815
2325 4.98269 7.31965 0.111364 0.784217 -0.00148811 -0.245999
2072 4.78058 8.34158 0.528306 0.654419 -1.49455 0.128493
1365 6.41025 7.72865 0.735457 0.617276 1.78269 0.879251
1834 7.28455 7.28671 0.382453 -0.515551 0.107283 0.139597
3580 8.13271 7.15304 1.15979 0.473311 -0.838898 0.469427
2827 8.32138 7.52219 0.174224 -0.895932 2.64576 1.80118
3668 7.53231 8.14522 1.11115 -0.943412 -0.69902 -0.504325
1216 9.38735 7.69209 0.627777 0.370233 -0.625956 -0.154278
2855 9.96568 8.47833 0.981849 0.205863 -1.56738 -0.16413
2351 11.0206 8.4636 0.298165 0.48036 1.3184 0.955191
1185 11.4668 7.70126 0.830783 1.3182 -0.884045 -0.415835
392 12.6431 7.14365 1.40129 1.07272 0.735955 -0.52387
3226 13.9556 7.35956 1.31789 2.72513 0.319004 0.226819
1832 13.5592 7.83491 0.0693924 0.124898 0.0269119 -0.712425
2083 12.9503 8.23745 1.32193 -0.635164 0.306987 1.18045
3879 14.5151 7.23003 0.203239 1.73024 -0.57226 0.70635
3831 15.0185 7.77199 1.10262 -0.326106 -2.03312 1.12815
2766 15.7405 7.16491 0.496025 0.316724 0.257197 0.674115
1868 16.9095 7.64458 1.15677 0.27436 -0.16516 0.491122
3664 16.07 8.32547 0.0248516 -0.879081 0.192787 0.537466
2734 0.539915 0.625962 2.29986 -0.184768 1.44723 -0.471262
1039 1.49434 1.42216 1.75302 -0.76434 0.589297 0.846192
2362 2.60727 1.29695 1.71207 1.95968 -0.588432 1.72362
1325 1.68047 1.38092 2.82685 -1.31036 1.20482 -0.419986
3142 1.72581 0.45679 2.38188 -1.27804 1.93931 0.395479
237 4.01058 1.12125 2.34601 -0.566239 1.06599 0.529275
2154 4.04441 0.0755712 1.78723 -2.28102 -0.474478 -1.02435
282 3.17588 0.21949 2.33246 -0.820647 -1.26055 -2.44013
299 5.64605 1.21723 2.08892 -0.190127 -0.0736882 -0.532055
1089 4.95822 0.560838 2.46983 0.576867 -0.115337 -0.567384
2126 5.88242 0.254667 1.87377 -0.191507 -1.03553 -0.324037
2178 8.12199 1.22499 2.38884 1.71643 -0.303635 -0.970001
3910 7.12966 0.241957 2.08962 -0.764101 0.755256 0.26376
1805 7.22891 1.28405 1.9772 -0.239695 -0.183746 -0.0204629
304 8.17379 0.416302 1.77327 0.740764 0.160266 0.257298
1711 9.77426 0.113437 1.53949 1.59976 0.458102 -0.705558
2357 9.14686 1.15654 1.7127 -0.217953 0.373539 -0.176014
3108 10.6402 0.603951 1.67728 -0.0239105 -0.732386 0.713057
1989 10.0258 0.476821 2.55389 -0.349456 1.99408 1.43215
889 11.532 0.645132 2.33762 0.813782 -1.42699 0.195884
1842 11.5689 1.38751 1.57664 -1.45094 -0.0279281 0.11018
1085 13.1039 0.758488 1.87159 -1.63047 0.584407 0.317222
262 14.2259 0.694195 1.84036 1.17235 -0.2853 -0.195745
3853 14.1454 0.137049 2.69599 -0.388516 -0.549353 0.536231
3277 15.0699 0.124791 2.46626 -0.0148381 -0.128516 0.470411
1151 16.7872 0.0648776 1.63837 -1.5932 -1.11622 1.93425
1644 16.6617 1.08606 2.51509 -1.04895 -0.543552 0.706118
2758 15.6884 0.881859 2.07046 0.577603 -1.17396 0.668766
2115 0.479849 1.60506 1.84873 -1.4636 -0.663866 -2.0934
688 1.22011 2.46505 2.17192 -0.581867 -0.633435 0.288823
531 2.37657 2.42568 2.19326 1.15081 -0.892528 -0.0343729
2132 3.72111 2.0814 2.08972 0.762877 0.423538 0.388783
2293 3.0401 1.59583 2.78964 0.275806 1.5261 -0.0841803
3368 4.53441 1.5413 1.53682 2.02756 1.80028 0.472186
1496 4.84165 1.7497 2.57465 -0.46645 -0.241049 0.940673
335 6.00201 2.12763 2.67831 0.189125 0.676772 -1.65038
913 6.53894 2.14675 1.75155 0.0462311 -1.37371 -0.330254
562 5.77506 2.75217 1.56474 -0.753953 0.911095 0.327662
265 8.23672 1.74515 1.48587 -0.124179 0.18328 -0.400996
1667 7.41675 2.53452 1.55003 -1.55781 -1.88727 0.332755
2369 7.37305 2.13691 2.73341 -0.428184 1.32874 -1.06379
2774 8.74927 2.27342 2.23588 0.0421909 -1.20456 -0.637596
2092 9.6119 1.73138 2.84085 1.67277 1.48314 1.01632
231 11.2287 2.64769 1.61935 -1.23199 1.98624 0.0528446
1861 10.4058 1.67013 1.95338 -0.594868 -1.23853 0.646139
136 10.2303 2.76414 1.53214 0.327225 0.694389 -1.83996
2067 10.9505 2.3789 2.70531 -2.70245 -0.118638 -1.51396
234 11.6432 1.5881 2.61377 0.387561 -2.12664 0.453375
630 12.3122 2.61458 2.16979 -0.128854 1.08545 -2.13245
2142 13.1468 2.7658 1.4993 0.600848 -1.74242 -0.317067
1595 12.8987 1.75257 2.70922 -0.687097 -0.763178 -1.13686
475 13.7918 1.61297 2.21547 -1.44222 -0.926495 0.998587
2335 15.0059 2.41453 2.0298 0.239807 1.59401 -0.716184
3343 14.741 1.43396 2.79773 -0.454636 0.103298 0.082239
1075 16.4858 2.04224 1.63498 0.281841 -1.5192 0.289465
1482 16.0279 2.7829 2.31288 0.244646 0.0745673 0.41998
1050 15.6937 1.68605 2.76658 1.30971 -0.563691 0.113192
3317 16.934 2.31515 2.63716 0.381546 0.586836 1.44267
954 0.0870361 2.90107 1.63126 -1.91495 -0.86118 1.14136
3624 0.770835 3.71081 2.12631 -1.35645 -0.342021 -0.310901
2567 2.08686 3.33151 1.91778 -1.1518 0.170332 -1.10923
3976 2.76628 4.15486 2.19739 -0.655487 -0.0471361 -0.469129
72 3.33038 3.31644 1.76735 0.81736 0.430496 0.778192
347 3.8249 3.53788 2.60066 -0.055859 -0.782799 -1.11228
779 4.74054 4.06238 2.05404 -0.413733 -0.639596 0.591184
2081 4.86382 3.07504 2.42514 0.299382 -1.73632 0.125347
2561 5.94847 3.87949 2.23948 1.26079 0.544477 -0.306341
2162 6.80651 3.23333 1.95944 1.86287 -0.9349 -0.776828
2056 7.40959 4.04922 2.14237 -0.568946 -1.0806 -1.50667
668 8.43243 3.50566 2.15245 -1.04971 0.955835 -0.082217
3316 9.50382 4.04572 2.10736 0.456915 0.757842 1.54717
2603 9.57931 3.04429 2.34333 0.107424 -0.60403 0.459132
683 11.2882 3.39391 2.55497 1.01293 0.144514 0.473184
424 12.3196 3.94143 2.1258 -0.161842 0.328143 -0.339085
2044 13.3518 3.94614 1.71846 0.261204 -1.08838 0.166954
2656 13.1548 3.06534 2.46061 1.13073 0.912057 -0.820243
2601 14.1316 3.66233 2.64992 0.950733 -0.0217993 0.969488
2485 14.3901 3.33176 1.74261 0.132519 -1.69724 0.244333
2388 15.1547 3.80897 2.44292 1.78944 0.285772 -0.941074
3711 16.8659 3.9159 1.77014 -0.0286618 0.193482 -1.52143
270 0.20225 4.85795 1.64263 -0.924727 2.48456 -0.94194
158 1.30597 5.36758 1.84501 -0.37964 0.588793 -0.229106
557 0.480917 4.98674 2.63811 0.353746 0.609899 -0.240741
3222 2.49412 5.09957 2.72356 -1.94123 0.866552 -1.97311
1807 2.34412 5.31502 1.57611 -0.272844 1.05982 1.26364
1332 1.55393 4.35799 1.70263 0.406385 1.86857 -0.268308
1087 3.85877 4.47958 1.82283 -1.18112 1.20481 -1.34986
2417 5.3341 5.00166 1.82006 0.391711 -0.432033 0.842583
3973 4.56556 5.2685 2.44841 -0.111965 -1.13638 -0.0114587
1495 6.39466 5.38009 2.24086 0.807887 -0.279053 1.26604
2414 8.12471 5.0411 1.51524 -0.24419 0.194641 -0.370312
2614 8.49658 5.68872 2.48425 -1.07959 0.287319 -0.0043105
3047 8.48027 4.48833 2.28732 1.02251 -0.20749 -1.44007
1715 7.4456 5.20883 2.37675 0.484962 0.0402523 -0.0743096
99 9.41234 5.04023 2.62165 -0.714477 0.953681 0.672752
1656 9.1747 5.45552 1.69179 -0.675249 0.775078 0.445118
2402 11.2811 4.43426 2.08971 -0.138603 -0.469011 -0.943176
3450 10.4585 5.04141 2.0564 -0.789674 -0.182143 -0.0465695
157 11.3622 5.66037 2.21971 -0.708494 0.248903 -0.875072
3924 12.37 5.01918 2.44273 -0.124044 0.428157 1.70869
3950 12.326 5.67349 1.5914 0.668703 0.526081 -1.26558
1963 13.6805 5.11873 1.44875 -0.382626 -0.257267 -1.34781
2543 13.2363 4.32419 2.69598 0.715177 -0.296322 -0.865684
1791 14.1882 4.51246 2.07665 1.28263 -0.752981 -1.23486
401 15.1454 4.43727 1.51916 -0.20137 -0.353224 -0.492494
425 14.7444 5.4623 1.92229 -0.589535 -0.917861 -0.607351
3922 15.3885 4.74733 2.84146 -0.738865 -0.73552 1.48922
2238 16.4531 4.53025 2.57041 1.1899 -0.208352 0.48194
2843 16.2225 4.86756 1.50852 0.71723 -0.0176633 -0.601652
1400 16.0764 5.50572 2.59506 -1.0499 0.923919 -1.98536
3823 0.165254 6.87902 1.92782 0.648333 0.0488232 -1.0116
2187 2.06009 6.11691 2.47993 2.11717 1.68296 1.20523
3760 1.94083 6.47799 1.51563 -0.610863 0.0817467 0.105325
1692 4.06521 5.75649 1.66523 -1.31609 1.05734 -0.890819
3495 3.04017 5.99684 1.99287 -0.951883 -2.11866 0.897283
3107 4.03643 6.97801 1.75653 0.808969 0.582047 1.19587
591 5.28568 6.06127 1.43845 0.356602 1.04586 -1.55818
495 5.59424 6.02549 2.48639 -0.478382 -1.0143 0.0803936
1643 4.4711 6.24683 2.62109 -0.0297861 -0.158854 -0.136465
1756 6.6757 6.48294 2.22378 0.255485 -0.94134 0.517712
1864 5.90208 7.03148 1.79814 -1.14266 0.923955 0.98081
1286 8.41745 6.7422 2.10505 1.2085 1.17543 0.179397
545 7.59766 6.07113 1.9093 0.265604 1.84838 1.04434
2261 7.12499 7.06589 1.49392 -0.579454 -0.975378 1.10029
1321 9.7923 5.958 2.23532 -0.429022 0.592504 2.36636
2316 10.6735 6.3724 1.76622 0.250099 -0.859143 0.75078
1683 11.3871 6.76485 2.671 0.140255 -0.0277688 -0.256776
1605 11.7488 6.49583 1.64956 -1.76594 -1.97944 -0.406816
751 12.5698 6.48774 2.28245 -0.405836 0.717099 0.671527
3712 13.1086 6.23786 1.48056 -1.15964 -1.93097 -1.51267
355 13.3566 5.79843 2.46039 -0.206472 0.0331577 -0.00958998
166 13.4713 7.02577 2.37046 1.34182 1.15078 1.25695
1331 14.3266 6.42224 1.64631 0.477611 0.0431119 1.42699
2431 15.5057 6.69532 2.2034 -2.20444 0.562272 0.323747
178 15.695 5.71616 1.57071 0.404886 -0.612785 1.22036
536 16.7487 5.8346 1.89648 -0.352141 -1.11053 1.65276
1081 16.5267 6.52946 2.59484 -2.24666 -1.85062 -0.26775
119 1.18983 7.16986 1.57773 -0.142663 -1.10601 -1.53985
3887 1.31339 7.80937 2.53884 0.970445 0.39043 -0.253955
3498 0.249319 7.95459 2.05741 -1.87559 0.020662 -0.475975
2009 2.20826 7.51545 1.90142 0.449315 -0.589654 -0.235674
3675 3.20351 7.3765 2.58015 1.36766 -0.897671 -0.0490593
679 3.93719 7.9677 2.1814 0.31548 -1.91142 0.604242
1833 4.99175 7.36036 2.28806 -1.20583 0.564056 -0.0520473
2173 4.89029 8.45731 1.56782 1.6626 0.0881343 0.961507
3633 6.6756 8.33578 1.61277 1.86299 -0.720735 -1.35127
564 5.79724 8.28527 2.09582 0.590801 0.959484 0.584992
1625 6.81478 7.55479 2.41721 -1.23317 -1.20982 0.906033
340 5.93468 7.57078 2.79332 1.40998 1.52051 0.639605
1818 7.83259 7.73399 2.17605 1.36339 0.281927 -1.48651
894 9.5311 7.5216 1.85738 0.773393 0.112913 0.334102
3837 10.4815 7.5488 1.50856 1.83917 -0.169742 -0.262844
385 10.4444 7.1307 2.63558 0.564833 -0.11171 -1.45682
3221 11.0119 8.47418 2.13253 -0.951256 -1.36625 -2.00854
2903 11.5764 7.48831 1.8876 -0.687067 0.103614 -1.48941
2449 12.2305 8.00239 2.29813 0.58515 0.368586 -0.611392
364 13.1901 8.12402 2.50237 0.874454 0.990455 0.678574
967 14.6505 7.53024 2.01787 0.0766945 0.0955422 -1.28173
132 16.5826 7.65576 2.8363 1.43322 -1.31363 0.0691931
1671 16.1401 7.85417 1.855 -0.381113 -0.965289 -0.947129
1825 0.858177 1.27577 4.03512 0.363566 -0.613851 -1.21656
1621 0.164638 0.474024 3.84374 -0.123376 -0.91126 -0.189502
505 1.1214 0.492228 3.19289 -0.574183 1.07488 1.90912
480 1.89829 0.840586 3.91658 -0.920629 -0.36982 -1.14626
1375 2.5485 0.580767 3.12174 -0.214172 -0.918343 -0.432273
2697 3.11806 0.0731062 4.09688 -0.613172 -0.46952 -0.0552575
2153 3.73976 0.633615 3.1292 -0.157718 -1.60932 0.520657
2788 5.53946 1.3399 3.41425 -1.39991 -0.70917 1.18764
1760 4.67466 0.476504 3.78864 -0.225308 0.588276 0.320156
316 6.45079 0.312754 3.1956 -0.830597 -0.00918749 -0.175585
3790 7.03427 0.664039 4.07838 -0.000982017 -0.372284 0.66869
549 5.73355 0.34933 3.93722 -0.22209 -0.398421 -0.364889
2278 7.30228 0.924361 2.89437 -0.649802 -0.75495 0.984904
930 8.4251 0.29828 3.50064 0.133657 -0.661093 -1.1603
1844 9.72644 0.0116816 4.2482 -1.73353 -0.965938 0.449791
596 9.42279 0.774099 3.59138 0.986673 -0.104006 -0.760677
1676 11.1796 0.361137 3.34864 -0.967294 0.159974 -0.902675
3786 12.2681 0.748134 3.10956 0.222826 -1.17294 1.15974
2818 11.634 0.979402 4.06058 0.9159 -0.526269 -2.19588
3159 12.9228 0.825035 3.85239 0.864644 0.91026 0.00913733
2911 13.8323 0.956821 3.26816 0.657645 0.958123 -0.00574084
497 13.107 0.294009 2.95298 0.230597 0.912488 -0.166083
3017 15.3616 0.822823 3.41657 -0.475212 -0.319774 0.524921
762 16.4381 1.40428 3.56981 -1.19048 -0.927469 1.0522
2898 16.4072 0.363355 3.23869 0.325275 -0.491247 0.184715
1813 0.566114 1.55832 2.92337 1.50233 -1.65691 0.867984
1947 0.293698 1.96544 3.74481 0.49319 0.927665 1.17039
1816 1.29161 2.25855 3.49867 -1.06911 1.39548 -0.334054
597 2.30226 2.12492 3.23324 1.43885 -0.600991 0.776987
2165 3.27871 2.07381 4.03677 1.82512 0.498998 0.462768
1731 4.17848 1.63021 3.49187 -2.04864 0.0223839 -0.404089
2229 3.32619 2.55045 2.92938 1.60934 -1.72827 0.464735
1945 4.29651 2.77346 3.42317 0.0674391 -0.974416 -0.883288
1841 4.85943 2.20835 4.26149 1.23393 -0.531841 -1.0626
2588 6.67829 1.55286 3.46112 0.48297 0.173444 0.398535
2079 6.59529 2.81751 3.14575 0.667598 -1.00451 0.829433
640 5.81046 2.50904 3.82587 -0.746963 0.708478 -0.308442
478 7.58986 1.5575 4.19786 -0.850687 0.476125 0.12038
3338 8.05073 2.46921 3.67346 1.49128 0.685625 -0.752141
3090 9.46645 2.63025 3.44265 -0.345625 -0.482171 -1.71867
3735 8.72167 1.69883 3.31135 -0.13741 0.0596156 1.22536
2376 10.5948 1.4319 2.99553 -0.0590952 0.376279 0.549614
389 10.5362 2.68453 3.83664 1.24716 1.00068 -0.112251
2888 10.1304 1.74678 3.95367 0.0885582 1.04924 1.32041
4000 11.5754 1.87163 3.65251 -0.670672 1.22299 -0.170237
2667 12.3768 2.48459 3.42295 -1.1423 -1.48573 1.13434
675 13.8105 2.40801 3.04931 0.0918239 -0.960927 0.489242
357 13.236 1.73376 3.66458 0.955886 0.645041 0.0509739
477 15.2859 2.70442 3.09348 0.414894 0.293203 1.13727
3583 14.5279 1.83513 3.68106 -0.305952 -0.654137 -0.443575
2235 15.5986 2.01433 3.78644 0.594321 0.245807 -0.929452
457 16.4414 2.70494 3.55266 -1.40776 -0.861064 -0.0994137
492 0.588511 2.9608 2.87411 1.79376 -1.13251 -0.1643
76 0.412245 4.08515 3.29842 0.143043 1.73357 0.706898
415 1.53506 3.54652 3.80786 -1.21399 1.92825 -0.882695
2945 1.44386 4.12997 2.91581 0.476779 1.47326 -1.41559
2722 2.40637 3.21918 3.08069 0.116945 -0.503028 2.60495
845 2.97289 3.56986 4.14505 -0.287972 -0.380969 0.842112
1046 2.94578 4.08353 3.24949 -0.249228 1.08775 0.113782
2532 4.03161 3.74059 3.77858 -0.0935558 0.407474 0.150285
342 4.83124 4.11621 3.35057 0.612552 0.135654 0.130925
1265 5.65127 3.40851 3.26104 -0.233909 -0.972144 -0.313443
1264 6.72472 3.51414 3.93987 1.88157 -0.907322 -1.5451
498 6.81182 4.22464 3.03088 2.0415 0.865981 0.338084
2976 5.88962 4.21575 3.92039 -0.284774 -0.206325 2.54499
2784 8.36011 4.02701 4.07803 0.258549 1.41487 0.294347
14 7.67968 3.51384 3.1683 -0.329083 -1.5168 0.900351
481 9.32323 4.18749 3.18734 -0.629322 -1.62479 0.232271
3144 8.7755 3.37932 3.07607 1.14887 0.61435 1.07753
3570 9.22468 3.50587 4.11655 0.322671 -0.203823 0.627334
2640 10.2616 3.39186 3.21368 -0.848937 -0.326103 0.894169
2987 10.8106 3.97042 3.91465 0.799418 0.613629 -1.37088
2994 11.4665 2.94942 3.57059 0.880567 0.446139 1.62314
535 12.2806 3.51347 3.13001 1.14663 0.0685136 0.0870753
429 13.3581 3.37627 3.58531 -0.913371 -0.843315 -0.707571
523 14.5521 3.2687 3.58224 -0.0231986 0.358182 0.907537
891 15.6149 3.85938 3.26932 -0.110845 -1.94962 0.226123
3470 16.7717 3.45795 2.87543 -0.229418 0.80102 1.44237
1976 17.0155 3.47592 4.04769 -0.879803 -2.56387 0.0282295
713 0.997479 4.76907 3.77223 -1.26022 0.17578 0.644754
3227 2.25823 4.45293 4.05144 -0.529485 1.22994 0.234507
3696 2.8062 5.43023 3.68308 -2.52717 1.30687 0.892731
3135 1.48521 5.2758 3.04599 0.319873 -0.133081 -0.173457
190 3.91781 4.54354 2.98383 0.142955 -0.219887 -0.636668
594 3.50087 5.46637 2.88004 0.950605 -0.372632 -1.22158
1177 3.40537 4.62995 4.12671 -1.39431 1.39172 0.243642
3533 4.36634 5.31371 3.51842 0.579958 0.76215 -1.60607
422 5.68708 4.77047 3.06604 0.284732 0.413328 -0.62277
686 6.51598 5.16832 3.47282 -0.225748 0.489486 1.20073
3423 7.63572 5.61983 3.52683 -0.714437 0.826697 -0.16876
2751 7.74974 4.58475 3.09576 -0.891709 -0.150914 0.468541
589 8.45671 5.06011 3.66392 -1.00659 -0.158555 -1.39111
3835 9.97059 4.57638 3.9896 -0.874286 0.707753 0.300952
656 11.02 5.59299 3.69475 0.20267 -1.04126 0.495297
3974 10.3559 5.00875 3.15122 0.34245 -0.595375 0.904159
657 10.1065 5.67608 4.11015 0.0660723 -0.842431 -0.149968
2596 11.4369 4.61151 3.11883 1.7351 0.248982 -1.35071
1909 12.6912 4.41132 3.52181 0.286678 1.06605 -0.5759
41 14.1309 4.28093 3.58034 -0.560873 -1.08598 0.869051
106 12.998 5.49177 3.38263 -0.492838 0.725746 1.50112
3523 14.0863 5.16972 2.95088 -0.647576 0.382124 1.5819
191 14.8129 5.14584 3.7548 1.19924 1.28649 0.273906
2386 16.0724 4.85307 3.54738 1.40068 -1.93516 -1.0854
2052 16.7244 4.64411 4.23554 0.3611 0.751703 1.5835
771 16.7648 5.54994 3.66937 0.0537804 -2.45014 -1.95756
479 0.582375 6.06447 3.4973 0.30275 1.59892 0.596391
842 1.42558 6.75626 3.4842 1.07304 1.97611 0.166991
1054 1.58334 5.87141 4.03182 -2.405 0.237393 0.638073
3581 2.33585 6.55735 4.05692 0.00890223 -0.677611 1.4872
2442 3.03586 6.30707 3.19595 -1.40919 0.178766 -2.40036
2035 5.13341 6.79909 3.2319 0.369181 -0.692883 1.58516
177 5.48306 6.03537 3.83343 0.704687 -0.00720689 0.0594651
456 4.2819 6.37849 3.63158 0.033759 -1.39048 -0.0722136
2695 6.88182 6.11857 3.14191 -0.565728 -0.455123 0.219181
1333 6.22415 6.96104 3.56997 0.803711 -0.555581 -0.576603
2570 7.2079 6.85049 3.77836 0.584226 -1.01081 -0.316455
573 7.76921 6.99449 2.95982 0.628496 0.59512 -0.599554
677 9.36688 7.08979 2.85758 0.235095 0.385454 1.01068
2109 8.58197 6.57282 3.45887 0.904126 -0.164183 0.468359
2434 9.44114 5.99784 3.27815 1.39161 0.988884 0.616532
2958 11.0296 6.63446 3.8135 0.35378 0.458445 1.60481
2606 10.5275 6.14339 2.89207 -1.79037 0.442069 -0.0972615
2660 12.0753 5.93606 2.90304 -0.285521 -0.988974 2.88097
2539 13.6998 6.18877 3.46284 0.796552 -0.81432 -0.491178
3529 12.8927 6.34452 4.17135 0.00122112 0.349741 0.470832
1065 13.764 7.05967 4.09337 -0.664518 -2.25654 -0.0223725
398 12.9626 6.94672 3.37011 -0.435286 -1.58528 -0.984723
2193 14.4867 6.95609 3.12413 -0.521762 -0.706749 -0.774874
2646 15.0927 5.90418 2.85267 -0.0287953 -0.342852 -0.44123
50 14.8058 6.27251 3.99377 0.75376 0.658612 0.467711
1419 16.9548 6.79853 3.57862 1.90363 2.12947 0.486304
2470 15.7813 6.21358 3.57715 -1.4649 -0.118569 0.686113
980 0.68379 7.46554 3.37738 -0.680046 0.435624 -1.21371
1289 2.64017 8.30026 3.4247 1.03118 0.853088 0.00299652
2537 2.31467 7.35171 2.91085 -0.22611 1.54944 0.477139
2723 2.1591 7.70566 4.1499 -0.951284 2.68031 0.334777
254 4.1326 7.23404 2.99748 0.539374 -1.47278 -0.110297
1077 3.08974 7.42826 3.63734 0.185355 -0.578092 -0.89534
2401 3.7239 8.49361 3.21268 -0.0813705 0.708446 -1.56719
3331 3.57146 8.1847 4.22031 1.56704 -0.130725 -1.74166
744 4.72173 8.51526 3.97699 0.588701 0.369 -0.0519434
1428 4.79452 8.16883 2.98983 -1.11707 0.25757 -1.28114
3267 5.34465 7.62829 3.96263 0.704395 1.34314 0.39208
3464 4.32869 7.37128 4.1469 0.368045 0.149594 0.654633
2069 5.71423 8.53086 3.56226 -0.733651 -0.107111 0.415106
3826 6.68076 7.93079 3.69268 1.31977 -0.140353 1.87434
118 8.07443 7.6078 4.08302 0.0966224 0.233359 0.41091
74 7.73633 8.35474 3.09798 -0.110241 1.24778 0.785197
3984 8.67417 7.8085 3.11742 1.1533 0.797836 0.205151
3493 9.33319 7.25193 3.97092 -1.11691 0.733876 1.58396
3946 9.75571 8.12937 3.30697 -0.388362 0.995908 1.29564
1732 10.2274 7.21103 3.58411 1.49642 -0.0589411 0.521927
3359 11.2829 7.70586 3.10955 -0.412222 0.0428204 -0.446412
3796 10.9527 7.66012 4.18869 -0.274587 -1.27425 -1.01109
1548 11.8749 7.25742 3.85121 0.29727 0.628764 -0.180353
575 12.424 7.93989 3.299 0.977177 -1.31534 0.379729
3749 13.6765 7.77856 3.27199 -0.898181 1.26929 0.485555
3398 15.0417 8.47026 3.10544 -1.22212 -0.0929873 0.414364
1703 15.079 7.34256 3.8429 -0.96671 0.53218 0.627302
3247 14.4948 8.16016 4.00899 1.07869 -0.00121824 -0.236526
604 15.4234 7.45191 2.86809 -0.302712 -0.572907 -0.277717
832 16.0769 7.26106 3.7725 0.0969407 0.710011 1.1478
3005 16.8736 7.89208 3.87217 1.358 -1.56313 -1.25009
1819 15.7444 8.15005 3.82988 -0.0202153 -0.148577 1.25024
2856 0.492107 0.519983 5.65652 -1.92637 0.457158 0.415527
578 1.01915 0.204116 4.31809 0.433949 1.10656 -0.903343
3166 1.61961 0.811806 4.96141 -1.1147 1.1217 -1.23199
449 4.04448 1.32136 5.47787 1.48929 0.385455 -0.516207
3200 2.89665 0.651448 5.15736 0.318505 0.49986 0.0430877
800 3.58651 1.01567 4.44722 1.177 -0.495069 -0.657774
2988 3.99674 0.356622 5.16399 -0.684638 -0.416617 -0.583409
3388 4.60983 1.15857 4.61311 0.284911 0.113062 0.606696
2493 5.57761 0.732726 4.85763 0.616305 0.527269 1.40306
7 5.07839 0.00212969 5.31626 1.2788 -0.418169 -1.3006
3363 6.0845 0.312493 5.68018 -1.62243 -0.774607 1.49523
1055 7.35123 1.39205 5.6573 0.497276 -1.11223 0.599694
1847 7.88826 0.785477 4.89617 -2.53653 -0.669519 0.507338
3975 7.34449 0.00930045 5.17743 -1.52213 -0.652841 -1.08373
286 8.82874 1.20465 4.52605 -1.00985 0.499869 -0.612138
662 8.84684 0.994978 5.6052 -2.01138 -1.09048 0.863798
2091 9.25128 0.312081 4.9796 -2.79677 -0.890471 1.53851
2594 10.3719 0.675728 4.55288 -1.4675 -0.560242 -0.293088
2476 11.3675 0.902232 5.29009 -0.41279 -0.923721 -0.564485
320 10.0658 1.08582 5.42841 -0.236154 -0.549074 -2.16146
919 12.4037 0.589235 4.65757 1.36621 -0.589605 0.89293
285 11.4268 0.0540621 4.36299 0.314074 -0.885311 0.479337
2598 14.1139 0.859832 4.41493 0.626342 -0.242531 2.01451
40 13.4767 0.244156 4.90948 -2.18415 -1.09575 -0.0675453
3194 13.1251 1.42032 5.12797 0.454987 1.64294 -1.04061
1269 15.0212 0.42625 4.99678 -0.0503066 -0.928662 0.494607
462 15.9901 0.708252 4.32967 -1.16425 0.604259 1.44546
1717 16.7512 0.825901 5.03947 -0.62312 2.38481 -0.971645
423 15.7624 1.07706 5.37785 -2.94586 -0.720889 -1.11105
460 0.767528 2.84644 4.36644 -0.260405 3.28884 1.3201
356 0.483938 1.66728 5.12228 -0.498142 -0.121319 0.18012
1242 1.37644 2.46636 5.50114 0.790886 -0.0136618 -0.985352
1435 2.40423 2.7313 4.3537 1.19651 -0.0782994 -0.948828
3765 1.55206 1.99604 4.60689 -0.446415 0.951176 -0.750827
2779 3.91087 2.06957 4.87456 0.343697 -0.179129 0.261023
3414 3.45436 2.82797 5.34536 0.41914 0.147604 -0.43675
2331 5.08214 1.83908 5.28775 -1.13983 -0.372263 1.86684