ITEM: TIMESTEP
45000
ITEM: NUMBER OF ATOMS
4000
ITEM: BOX BOUNDS pp pp pp
0.0000000000000000e+00 1.7099759466766969e+01
0.0000000000000000e+00 1.7099759466766969e+01
0.0000000000000000e+00 1.7099759466766969e+01
ITEM: ATOMS id x y z vx vy vz
3891 0.852605 0.446193 0.692225 -0.53394 -1.81495 -0.162896
1920 1.75543 1.26389 0.60459 0.674853 -0.592644 -1.72635
648 2.54461 0.313126 1.03894 -0.136247 0.132318 1.10617
68 2.77813 1.16613 0.472515 -0.202464 0.473497 0.991134
1610 1.91295 0.479831 0.0117701 -1.38975 -1.73054 1.04779
717 4.17572 1.13397 0.636867 0.795898 1.29394 -0.885448
835 3.54341 0.320986 0.502588 0.047964 0.0582315 1.84392
2075 4.60541 0.31963 0.227734 0.254449 1.30526 -0.545069
252 5.29916 0.895958 0.581634 0.766435 0.438888 -1.13636
3767 6.36186 0.610086 0.722199 1.85892 1.98704 1.27215
3445 7.31473 1.35079 0.768322 0.92111 -0.808549 -0.470986
100 7.41401 0.402716 0.561038 -1.47487 1.16764 2.67544
464 9.24682 0.497587 0.335874 -0.20609 0.639041 -1.00471
210 8.55204 1.20252 0.641021 -0.384047 -0.249519 -2.02057
1209 10.589 1.27986 1.04681 -0.694146 0.674353 -0.0784385
1984 10.2094 0.5215 0.557292 0.71014 0.360751 -0.989455
1687 11.764 0.55996 0.942081 -1.41086 -1.47757 -1.37921
3400 11.5756 1.38589 0.358791 0.51111 0.123518 1.34511
3447 13.2876 1.00327 0.705127 -0.15818 0.343281 -0.608344
207 14.1177 0.0502649 0.126198 0.149915 -0.37256 -0.863558
2440 15.5103 0.550561 0.976541 -1.5004 -1.11611 0.228636
442 14.6148 1.06373 0.760465 -1.57771 0.542203 -0.269557
187 16.441 1.0537 1.17124 -0.837715 -0.0418674 2.55006
2946 15.8268 1.29789 0.243384 0.000573553 -0.0822831 -0.894498
3761 16.4553 0.338889 0.227745 -0.145007 1.60283 -0.212029
319 1.08439 2.43253 0.81825 0.136077 -0.500008 0.175652
2951 0.729328 1.54426 0.591984 -0.792097 -0.227543 -0.276269
2689 2.61316 1.72839 1.29675 -0.490704 0.871737 0.00338363
2247 2.17942 2.65191 0.482646 -1.10769 0.509939 0.0437361
1436 3.77491 1.8752 1.19998 1.14054 -1.32395 -0.988482
3119 3.08795 2.30782 0.0899658 0.566495 0.621655 0.759407
1139 5.1018 1.79979 1.04517 1.0133 -1.16068 -0.594131
465 4.33328 2.57694 0.440788 -0.763235 0.833072 0.11676
613 6.17159 1.688 0.473034 1.48765 -1.07793 0.401921
1003 6.40234 2.75108 1.23435 -0.156417 -0.0683676 -1.32662
416 6.8067 2.27635 0.0358284 -0.304648 1.11807 0.575889
2074 7.55031 2.33735 0.760631 2.05439 -0.142746 0.459383
136 8.79944 2.67216 1.19103 -1.01999 -0.206333 0.0841701
3275 9.772 1.71311 0.461295 0.230831 -1.00112 0.535335
1404 8.60439 2.63141 0.207969 1.19113 0.368232 -0.328103
1369 10.1325 2.51141 1.34547 -0.365252 -0.237995 1.58325
231 11.2054 2.34622 1.00552 -0.0206797 0.548372 1.14242
273 12.2161 2.53289 0.851859 -1.31604 -0.0552395 -0.850131
3113 14.0185 2.16425 0.601761 -2.6039 -0.904397 -0.151501
2335 13.3601 2.05392 1.40168 -0.172 -1.25331 -0.147597
2485 12.9079 2.34644 0.0485595 0.521522 -0.125018 2.57184
2991 14.7243 2.48505 1.29257 1.12974 -1.99616 -0.137362
3711 15.6911 2.4072 0.521184 1.09538 0.767338 -0.2599
281 16.6225 1.74098 0.487688 -1.03794 0.301243 -2.24238
904 1.32432 3.53642 1.09679 -0.868176 1.33768 -0.228546
2756 0.617559 3.20899 0.265523 -0.799199 1.02381 0.680638
1219 0.29052 3.45898 1.25135 -0.310648 -0.323123 -1.24615
3868 2.7537 3.66025 1.41811 -0.0555336 -0.206706 -0.0857861
1807 2.0791 4.26358 0.956397 1.04916 -0.633595 -0.744729
602 3.96812 3.82796 0.782825 -0.279581 -0.720033 1.25381
3368 3.23129 2.94103 0.829251 -0.974126 -0.73838 -0.613403
354 5.22242 2.86964 1.07709 0.7121 1.46745 -1.67204
2125 4.90307 3.58927 0.195071 -0.125467 0.240465 1.7655
127 5.9177 4.00556 0.885197 0.616823 -1.36492 -0.619045
1667 6.98259 3.30123 0.521517 1.25527 1.62491 -0.385478
89 5.90951 3.07304 0.337991 -1.45832 -0.182276 -1.38412
3706 7.61985 4.18154 1.10022 -1.9031 -0.575843 -0.913898
1471 8.33583 3.55027 0.553995 -1.01433 -0.106014 0.112536
2410 9.39146 3.70102 1.40046 -0.325766 0.105627 1.35861
253 9.81876 2.97212 0.560353 -0.052739 -0.480376 0.367243
1870 11.1253 3.52849 0.604973 0.910586 0.00697933 0.265812
3336 10.1695 4.00738 0.648871 0.607107 -0.142977 -0.295853
711 12.1751 3.55911 0.970291 0.585932 1.52117 0.378785
3552 11.9873 3.0307 0.0112478 0.098835 0.228118 -0.0677984
1545 12.9911 3.64159 0.104166 0.992556 -2.62323 0.117771
1981 14.0716 3.99527 0.568285 -1.27551 1.45778 0.913912
2656 13.1453 3.19694 1.02855 2.72731 -0.38518 -0.694179
2702 15.8958 3.47534 0.808219 1.27093 -1.64655 -0.385146
3360 16.7149 2.89561 0.629981 -0.00613618 0.68734 0.199623
1414 16.9344 3.83996 0.291076 1.40377 -1.25118 -0.363182
969 0.194654 4.84438 1.37509 0.00272542 0.91073 0.0907919
1170 1.31287 4.89173 1.01488 0.123326 -0.769423 0.0305856
15 1.70888 4.62427 0.00275675 -0.251181 1.40869 -0.186181
1685 3.86117 5.08557 0.831195 1.46268 0.77188 -0.365933
956 2.96054 4.40602 0.328714 -0.0146247 -0.20586 0.991696
1311 4.82277 4.45989 0.959515 -0.140548 -2.58635 0.825202
148 4.76425 5.45007 0.763189 0.489711 0.370306 0.453921
482 6.56153 5.57074 1.17259 1.92956 -0.852377 0.991841
970 5.83333 5.06683 0.678794 -0.586882 -0.442952 0.851646
871 6.85497 4.36789 0.427921 -1.52101 -0.114326 -0.0745919
2525 7.59703 5.09453 0.808603 -1.2756 1.64598 -0.682636
637 8.49958 4.59805 0.679298 0.153879 0.456551 0.860281
2266 9.86368 4.97361 0.802136 0.111894 -0.24083 0.938254
1744 8.57955 5.64947 1.34589 -0.130032 0.614232 -2.37707
445 11.1256 5.35181 0.635977 -1.0061 1.59073 -0.493766
3837 10.3606 5.66073 1.35319 -1.53393 -0.463561 0.68365
2443 11.8915 4.49489 0.737574 -0.112327 2.1578 0.896046
3950 12.1511 5.66 0.853264 0.257222 0.0832175 0.111344
27 12.6296 5.05564 0.19141 0.861868 0.768266 0.245704
3802 13.0853 4.31484 0.874272 -0.263844 -1.52796 0.542508
2789 14.1898 4.72263 1.34196 -0.95462 -0.399741 -0.20028
2289 13.4902 5.55724 0.218133 0.00997986 -0.19656 -0.771768
3712 13.3127 5.42943 1.263 -0.686126 0.949914 -0.711193
2877 15.1774 4.33311 0.7107 0.997238 0.391019 1.55365
1597 15.2685 5.28824 1.04101 0.421786 -0.97687 -0.433748
1477 14.6631 5.30549 0.133424 -0.722876 0.121585 -0.684414
2050 15.6603 5.66233 0.0158934 1.82585 -0.911411 0.105001
1883 16.182 4.77811 0.718008 1.36882 0.738256 1.25326
595 16.6684 5.49423 0.0628448 -0.760058 0.865839 2.23062
733 0.331882 6.31185 0.0168147 2.01075 -0.257604 -0.199669
2175 1.21416 6.94135 0.813182 0.828426 -0.73096 1.44764
2107 0.0224431 6.03304 1.06717 0.65003 0.542172 -0.849182
52 1.40267 5.85947 0.690233 0.277826 -1.02515 0.0494404
3823 2.41381 6.37013 0.973807 -0.421659 0.515434 1.18478
500 4.04316 6.27062 1.01723 1.09882 0.532543 1.22075
1646 3.30266 7.02049 1.11139 1.06206 1.60112 -1.04212
865 3.18262 5.7904 0.488171 2.33428 -0.107069 -1.90692
3760 3.01881 6.76344 0.0420021 -1.19759 0.153129 -0.548472
1591 5.50277 5.98071 1.41926 1.60672 -0.486006 0.375752
1365 5.23412 6.84871 0.883003 -0.375211 -1.36848 0.341972
1239 6.36287 6.65285 1.15639 -0.167482 1.16082 2.01057
1442 6.78792 6.15998 0.166014 0.75538 0.300455 -0.810027
3322 7.52799 6.06394 1.09808 0.39133 0.395928 -0.644127
1160 7.55367 6.90028 0.138009 -0.780948 -1.64892 -2.32259
565 8.4471 6.67941 0.664008 0.0164062 -0.081258 0.181852
2302 9.48955 6.85403 0.433326 1.46739 -0.309118 -0.0885585
3758 9.09257 5.73937 0.49687 -0.774478 -2.12804 -0.399074
2580 10.7814 6.6375 0.798089 0.535745 -1.19749 -0.294067
658 10.2034 6.00959 0.274934 -1.40386 0.594306 -0.626022
1185 12.6715 6.74574 1.24449 1.5528 0.511252 0.356088
3157 13.1651 6.37488 0.473051 1.65952 2.76759 0.0382143
2727 15.3012 6.33551 0.818918 0.529947 -1.67921 0.999849
425 14.3029 5.75629 1.01453 0.796957 -0.0968502 -1.13155
3954 14.3264 6.7917 0.491648 0.352675 -1.24246 0.637013
1917 16.2459 6.44911 0.395213 -1.4319 0.915005 -0.740645
2199 0.627495 7.78144 0.318743 0.801875 0.581158 0.750298
236 1.6454 7.77499 0.00304076 -2.01368 -0.629329 0.0869599
795 1.72321 7.82596 1.04637 -0.160544 0.835428 1.48393
3474 2.72711 7.76044 0.645366 -0.592838 -1.32184 2.05136
3762 3.75469 8.02919 1.18606 0.920981 0.159732 -1.32249
3125 5.04094 8.10797 1.03351 0.502255 -1.32589 -0.671347
3107 4.37479 7.32544 0.704439 0.233381 -0.304894 0.630196
3260 4.48783 8.47272 0.00653218 -0.45512 -1.31225 -0.510548
3668 7.03878 8.34731 0.219417 -0.370063 1.09065 -1.46551
2072 5.97479 7.81937 0.454697 1.52708 -2.42097 0.412288
3682 6.47729 8.26891 1.34575 1.1418 0.725259 -1.07801
2245 6.98567 7.44795 0.887 1.4996 -1.9878 0.670156
1826 8.18175 7.83574 0.763014 -0.236021 1.3568 0.0230339
1303 9.72356 7.8815 0.486651 -0.942961 -0.639243 -0.613308
2827 9.18114 8.27624 1.23286 -1.12589 -0.79088 0.268896
367 10.6595 7.92212 1.14332 -0.0138284 -0.723773 0.547436
3654 11.8944 8.35062 0.759385 0.120661 0.665462 0.39322
3401 11.6112 7.28128 0.476513 0.849263 -1.48175 0.359138
2078 13.0696 8.40664 0.867907 0.0381608 -0.323713 0.751236
1832 13.9159 7.79857 0.318379 -1.09448 -0.446298 -0.140725
2933 13.722 7.71562 1.36425 -3.22582 1.43293 -0.403261
3238 12.9006 7.40253 0.493631 2.05417 -0.977902 0.282046
2766 15.0371 8.41842 0.47739 -2.27374 0.229847 -0.636637
2431 14.864 7.54715 1.15618 0.875509 0.989992 0.721516
3879 14.9601 7.47424 0.0174326 0.6368 0.626162 -1.5354
2019 15.7573 7.59299 0.787593 0.927023 -0.457233 -0.843929
1868 16.7833 7.92329 0.698561 0.141133 0.533269 1.58747
2898 0.993736 0.327755 2.70711 1.1696 -0.58497 1.16344
3920 0.385553 0.901214 1.79053 0.871405 0.151312 -2.363
3142 1.53729 0.564957 1.436 -0.268576 -0.256081 0.308947
2154 3.38528 0.940223 1.53109 1.15908 -2.69497 -1.80714
2153 3.88574 0.386627 2.27939 1.44191 1.08357 1.02142
2362 2.92727 0.860234 2.59341 0.219106 0.658481 0.60434
735 4.40933 0.979674 1.63619 0.691461 -0.39928 -0.41059
446 5.63716 0.665184 1.53158 0.358231 0.0267166 0.724087
299 5.25035 1.34265 2.62475 0.728354 -0.587441 -0.170681
165 6.31593 1.02768 2.5984 -0.10824 0.0324415 2.18064
1805 6.74545 0.971916 1.54987 -1.17924 -3.77015 0.462145
265 8.09159 0.765762 1.45041 -0.837592 -1.213 -0.656312
930 8.03918 0.638469 2.56916 -0.270288 1.18249 -0.275129
1989 9.21437 0.650694 2.67614 -0.955703 -0.589121 1.19937
1452 10.6001 0.0771797 2.80266 0.0740207 0.0597116 1.69351
3108 10.0429 1.09145 2.03194 0.420128 -1.77664 -0.774658
1595 11.3372 1.40181 1.74356 -1.55684 -1.40032 -0.773998
889 10.8994 0.272528 1.73199 -0.191458 1.91811 -1.6446
1363 12.4833 0.0514314 1.76715 0.964181 0.0354991 0.269168
1085 12.4251 1.21259 1.47705 0.451892 0.289227 -0.414877
234 11.5254 0.711172 2.61912 -1.62355 -0.427063 -0.417084
475 13.4985 1.05418 1.65422 -1.15433 0.69912 -0.135712
497 13.044 0.67943 2.52252 -0.0164737 -1.52319 0.79254
675 13.6919 1.4067 2.71227 0.134802 0.400004 0.86188
1951 13.902 0.204339 1.43633 0.972727 -0.433827 -0.79831
262 15.5037 0.566595 2.06462 -0.165694 -0.545425 -1.78701
2911 14.4409 0.745996 2.19819 1.92314 1.16903 -0.038386
2758 16.2206 1.37422 2.33351 1.15168 2.03882 -1.71728
3277 17.0202 0.40088 2.72304 -0.797677 -0.0106076 0.718024
1151 0.821686 1.62342 2.61186 1.56745 -1.83451 -0.880029
3976 1.07306 2.78055 1.88537 0.425844 -1.62519 0.160556
2515 0.277493 1.98625 1.63741 0.6127 -0.471195 -0.243998
1677 2.0889 2.61433 1.62019 -1.02044 1.09243 -1.42786
1039 1.95605 2.55097 2.60528 -0.29597 0.844842 0.76417
2115 1.47446 1.70002 1.6509 1.86027 -0.804692 -0.50342
688 2.83117 1.93188 2.7552 0.359099 -0.847457 0.247169
237 3.83088 1.5057 2.43476 -0.923797 -0.909104 0.634537
1731 3.2965 2.35067 1.9569 1.67688 -0.344738 -0.601327
2788 4.66017 1.98321 2.0921 -0.115655 -0.189223 -1.02517
1765 5.72406 2.78849 2.04288 -0.926525 -0.609267 0.42558
271 7.00595 2.15239 1.78558 1.32491 1.49962 0.54123
335 6.30158 2.22791 2.70308 -2.46786 1.54988 -2.00495
913 5.97781 1.81162 1.66197 -0.695851 -0.979336 -0.787468
3691 7.99592 1.81271 1.58518 1.60682 -1.94071 0.284902
1195 8.02033 2.5599 2.33644 0.802571 -1.17894 -0.154363
2369 7.62925 1.56255 2.53278 -1.16924 -1.23606 -0.612112
588 9.36695 1.68275 1.46997 0.00982974 -0.0386399 0.532024
2357 8.77764 1.54703 2.3726 -0.0718918 -0.102921 0.14048
1861 9.22005 2.59493 2.14781 1.15043 -0.508063 -0.463657
260 10.7923 2.34635 2.09183 0.372691 0.372569 1.04341
2376 10.8095 1.60014 2.75738 0.0751529 -0.00290406 -0.916674
2142 12.3031 2.08307 1.92602 0.113553 -0.941145 0.679585
4000 11.5866 2.67729 2.65087 -2.22161 0.91238 0.420465
718 13.272 2.39597 2.41272 -0.223908 -0.209312 -0.0722967
1075 14.2029 1.85197 1.93827 0.463752 2.03502 1.03539
2451 15.4698 1.54091 1.4729 1.49235 -0.374346 0.181345
363 15.0814 1.77005 2.41703 1.94905 -0.288103 -1.1274
3462 15.8419 2.45665 2.48917 -0.29467 0.409477 1.15697
3317 16.2885 2.1916 1.59198 -1.01123 -1.61573 0.255158
954 16.9132 2.22067 2.64224 -0.372445 0.470913 -0.265123
3624 0.00143106 2.99984 2.02282 -0.345548 1.29957 -0.780242
1332 0.56111 4.11022 2.02949 0.142278 -0.761685 -0.850795
2722 1.78881 3.53927 2.1318 -1.11091 -1.1011 -0.624247
2333 4.12733 3.05089 1.45553 0.185909 2.33585 -1.9793
72 3.48241 3.33864 2.14284 -1.65639 0.298489 0.272127
562 4.6996 3.07704 2.33401 1.6641 0.883728 0.685638
2561 5.01714 3.72111 1.63895 -1.39676 0.665871 2.20466
342 4.69742 4.05246 2.61436 -0.531986 -1.44881 1.34478
1265 5.69312 3.71657 2.57461 -0.198431 0.880313 -0.254863
2081 7.07705 3.10125 2.51667 0.741293 -0.0310763 -2.75708
2162 6.60557 3.63945 1.62472 -0.217986 -1.19967 -0.241767
1201 8.54718 3.35112 2.0996 -0.223468 -0.279889 -0.075365
1712 7.64161 3.15113 1.51877 -0.884966 0.681682 0.630328
2079 7.71267 3.99524 2.20952 -0.634838 1.9336 0.383208
2603 9.88821 3.379 2.24562 1.52721 0.48328 -0.435659
3736 10.751 3.2819 1.49014 -0.807209 -1.53407 0.613562
3974 10.7742 4.06571 2.52189 1.46186 -0.147788 0.978869
630 11.6553 3.01582 1.65993 -1.43758 2.60725 -1.27167
683 11.4751 4.19168 1.7359 0.0173619 -0.186508 0.462945
535 12.6904 3.16119 1.90748 -2.22947 -0.0331651 -0.564652
2596 11.9532 3.70585 2.57563 -0.211611 0.602039 0.0944277
3343 14.2209 3.05024 2.74003 -0.723831 0.79201 0.383684
2044 13.7136 3.96738 1.84696 -0.0526878 -0.782516 -0.363982
1791 13.8787 2.8909 1.61449 -1.60362 0.525525 0.564737
3392 15.2307 3.27685 2.78239 -1.21136 -0.310823 -1.84728
2875 15.5952 4.24673 1.72877 2.3937 -1.47901 -0.679257
891 15.5518 3.08249 1.61218 -0.459325 -0.537659 -0.149279
191 14.7765 3.67181 1.87115 1.27176 -0.182514 0.188145
3470 16.1723 3.46895 2.43552 1.35751 0.529268 -1.74523
270 0.873562 5.63222 1.76239 -1.1853 0.681118 0.65655
557 0.749979 4.95944 2.79169 -0.279176 -0.1947 0.465278
347 2.47364 4.42325 2.28204 -1.55717 -1.72912 2.22289
158 2.34208 5.45818 1.6059 1.40534 0.12371 0.31237
3222 1.50801 4.7701 2.05461 -2.39961 -1.12958 -0.552678
713 1.84504 5.55852 2.75703 0.345432 0.697177 1.57985
1487 4.16088 4.5012 1.87806 0.481393 -0.332829 -0.0498638
779 4.23672 5.20439 2.535 1.00399 -1.38867 0.776225
1087 3.16503 4.60273 1.49481 2.48505 -0.52133 -1.38343
3973 3.59294 5.54469 1.76714 -0.620747 -0.611357 1.02801
190 2.92661 5.31345 2.6098 0.921061 -0.577465 0.115781
1495 5.31444 5.59436 2.55273 0.157348 -2.66404 0.737669
422 5.16579 4.84056 1.84023 1.09641 -1.61769 -0.750851
2056 6.29384 4.68205 1.66578 0.939545 0.857946 -0.520417
498 6.71675 4.52035 2.74778 -0.996229 -0.489581 0.792539
114 8.49323 4.67292 1.77636 0.0200302 -0.547227 -0.332306
2414 7.57566 5.35249 2.0487 0.678915 -1.10147 -0.700561
2614 8.51057 5.38191 2.43512 0.65688 1.80974 -0.10575
3047 8.45239 4.36484 2.76512 -0.155779 0.744283 1.23794
3316 9.37244 4.46227 2.2979 0.202757 0.989336 -0.203503
1656 9.45785 5.3299 1.77229 -1.79904 -0.21008 0.65098
440 10.9748 5.67782 2.08721 -0.323945 1.06199 0.544544
99 10.195 4.97601 2.66328 -0.560721 -0.160263 0.847196
3450 10.5393 4.50538 1.51785 0.0124784 1.23751 -0.122876
424 11.983 5.04338 1.73405 -0.0646602 0.717732 1.08023
2402 11.6126 4.64765 2.84107 0.787869 0.912422 -1.13393
2543 12.7067 4.32117 2.04596 0.289184 2.10745 0.955661
2388 13.8235 5.60308 2.33686 -1.5609 -2.31945 0.21679
2959 13.5662 4.63512 2.70271 0.521089 1.3155 0.516455
3523 14.8143 4.66269 2.43978 -1.93562 1.40058 0.294713
401 16.1615 5.1642 1.64595 -1.23122 -0.608609 -1.98734
2238 16.5032 4.62772 2.41052 -0.151484 -0.294809 1.09128
3881 0.651973 6.80783 2.01351 -1.51239 -1.71598 -2.1773
2843 0.80803 6.05905 2.73204 -0.605213 0.653432 0.446555
3135 1.67019 6.24557 1.96981 0.610797 0.682966 1.56427
3581 2.36374 6.61929 2.77042 -1.48351 1.14484 2.13505
1643 3.66406 6.19297 2.75563 1.07273 -0.62307 0.600614
3696 2.91776 6.30368 1.83929 -0.0249143 -1.18671 -0.641788
2417 4.5779 5.97895 1.98969 0.884435 0.28099 0.259993
2035 5.37735 6.8161 2.21986 0.106576 -0.795482 1.62582
1715 6.41457 5.93528 2.21352 -1.60383 -0.245685 1.19254
2261 6.48711 7.03031 2.17574 -0.80589 0.260205 2.43784
3636 8.23721 6.29008 1.9305 -0.924215 0.13835 -0.853072
3580 7.43076 6.90859 1.65754 -1.30288 0.418338 0.372572
1286 7.4692 6.21306 2.66244 -0.147122 -0.677257 1.0247
1784 9.36571 6.36853 1.49594 2.17605 -0.140388 1.14874
545 9.39569 6.7414 2.7103 -1.60574 1.47871 -1.77688
385 10.5533 6.68612 1.86015 0.966849 0.959394 -0.131927
392 12.6755 5.99953 2.08592 -0.248636 -1.86199 0.82666
1605 11.7581 6.2065 1.58725 -1.23632 -0.764133 0.918957
751 11.6988 5.89242 2.69444 0.738501 0.543093 0.685383
2903 12.0641 6.90197 2.41454 -1.528 0.731901 -1.4132
2839 13.641 6.32819 1.63777 0.630322 -1.51038 0.101424
3226 13.9465 6.63442 2.60727 -0.541128 1.32199 0.526588
2013 14.6678 6.66621 1.65314 -0.409605 -0.328241 1.40932
3922 14.8009 5.70701 2.17143 -0.039708 0.410926 -0.569101
339 16.835 6.2499 2.01353 -0.621174 1.50359 0.154354
1331 15.7446 6.78732 1.74923 -0.648264 -0.222256 0.310582
178 15.8482 5.86312 2.45167 0.775596 -0.0694039 -0.811679
536 0.127587 7.53634 2.46339 -0.605115 0.59457 0.327793
3498 0.664467 7.7761 1.43984 0.696403 0.93695 -1.15652
2187 1.50323 7.63704 2.35646 -2.06258 2.18449 -0.669309
119 2.32982 7.41106 1.7249 -0.206943 -0.371588 2.19662
3495 4.0178 7.1884 2.82804 0.727196 1.73714 -2.29961
2537 3.30784 7.48253 2.09276 -1.32589 0.776814 0.33921
254 3.74577 8.45051 2.41991 -1.40593 0.735993 -0.17177
331 4.60935 8.50685 1.93523 0.162869 -0.316706 -1.64332
1833 4.42579 7.297 1.72443 -0.814793 -0.883344 -0.578954
1864 5.82517 7.43907 1.55889 -0.808492 1.26628 1.04365
3826 5.7886 8.03319 2.84988 0.295083 -1.01928 -1.45218
1818 7.45725 8.24554 1.64344 -2.03369 1.04619 1.25762
573 8.08514 7.14618 2.49451 -1.35758 0.317662 1.66201
2381 8.34253 8.11659 1.90465 0.248226 0.930603 -1.45816
1216 8.82719 7.22783 1.43634 -0.00335592 -0.446317 0.377149
3984 9.16045 7.69813 2.62739 -0.114893 0.936033 1.33329
1577 9.75157 7.39223 1.7592 0.954192 -0.636491 0.413219
2855 10.2952 7.47706 2.80465 0.378393 2.58537 -0.0581565
3221 11.4491 7.18656 1.60134 -1.56399 -1.47448 -0.861398
1558 11.5057 8.3419 1.75823 0.798133 -0.8929 1.91756
811 12.4265 8.32593 2.7127 0.859905 -1.40043 1.00789
2248 12.4305 7.83309 1.81744 -0.403074 -0.735534 -0.102978
291 13.0524 7.1716 2.09498 0.517683 1.68455 -0.307849
1172 13.9357 7.69193 2.71348 -0.0576331 -0.70413 1.08025
967 15.1897 7.17056 2.63342 -2.28463 -1.06785 -1.12272
705 14.8001 8.03849 1.94742 -0.0787486 0.136362 1.09756
2129 16.763 7.19928 1.57262 0.0427802 -0.245276 1.88666
132 15.8786 7.98742 1.8146 1.08531 0.6164 -0.287368
19 0.00343871 0.220511 3.72804 0.28229 0.97254 -0.0257924
1621 0.79405 0.971173 3.68967 -1.12685 -0.821124 0.134299
2697 2.73263 0.463867 3.78053 -0.563307 0.760548 -0.592567
2734 1.67498 1.17332 2.91337 1.09518 -0.0487076 0.996395
1375 1.65963 0.368587 3.50964 0.147202 -0.912094 -0.790889
1760 3.87163 0.959856 3.34922 -0.142831 1.39677 -0.838875
1089 4.89838 0.590779 3.21857 0.549005 -0.0189542 -0.360804
2278 7.10338 1.2139 3.3236 -0.4826 0.19286 1.12474
2588 5.75873 1.23127 3.70661 -0.878927 -1.56666 -0.0781545
2834 5.80654 0.235639 3.3677 -0.982573 -0.435523 -0.34409
1608 6.45852 0.40755 4.11533 -0.65058 -0.783834 -0.288827
596 8.35257 0.700299 3.65734 0.383772 -0.327239 -0.766474
2348 9.41878 0.373542 3.91755 -0.996772 0.848924 0.610651
1676 10.1441 0.908793 3.29263 0.756487 -1.5116 2.08394
2590 11.2525 0.937727 3.72134 0.0744035 0.0414835 -0.536277
357 12.2813 0.686907 3.7482 -0.849699 0.503411 0.950584
3159 14.188 1.36169 4.20777 0.747495 -1.10823 -0.879223
40 13.0753 0.340643 4.27103 -0.00170166 0.951858 -0.0705355
2380 14.9477 0.0164959 3.64054 0.271905 -0.867374 0.813331
423 15.4429 0.884685 3.99336 -1.5796 0.640644 0.0311507
434 14.3357 0.866131 3.26928 1.19591 0.259055 0.10841
3017 16.8124 1.27991 3.35867 -2.13615 -1.82587 1.16884
2598 15.8784 0.526176 3.11634 2.3922 0.688523 -1.31472
462 16.148 0.0204835 3.97462 -0.149052 0.210373 -0.540499
1644 1.40272 2.13525 3.72727 0.729006 -0.338959 1.21643
1050 0.3274 1.85089 3.89861 -0.486561 -0.220825 0.774188
2567 0.911224 2.62272 2.94982 -0.335465 -1.01056 1.44209
492 0.734597 2.76147 4.19268 1.26369 -0.651067 0.132576
1325 2.32432 1.75116 3.60966 0.73411 0.897978 1.33458
1816 2.58036 2.83 3.8025 1.2151 0.5169 1.57923
2293 3.72206 2.72222 4.18993 0.298818 0.113353 0.950016
597 3.32997 1.57552 4.07379 0.0873356 -0.742693 -0.853832
1841 4.08022 2.4122 2.85828 -2.62973 0.906066 1.75055
1496 5.41602 2.56526 3.17907 -1.91913 0.183545 -0.4312
549 4.47378 1.72321 3.62736 -0.0642933 -0.22537 -1.47565
3841 4.64827 2.75481 3.86367 -0.313531 0.395813 -1.96355
3735 6.55443 1.89266 3.9964 0.432512 0.80017 0.391315
1264 6.05632 2.84116 3.95173 2.54985 0.219713 1.76143
668 7.30319 2.36709 3.45281 -0.136097 0.884104 -0.661219
3338 8.26316 2.16375 3.70403 -0.535248 -0.425347 0.640396
1842 9.62192 1.71127 2.88301 -0.936443 1.31158 -0.0206581
2092 9.16239 1.45626 3.69693 -0.236288 -0.0840371 0.745102
3144 9.2904 2.53051 3.43582 -1.28328 0.548878 0.833234
2067 10.2705 2.6555 2.93537 0.567649 1.17511 -0.487175
2987 10.2886 1.82315 3.72261 1.63932 -0.092113 -0.800555
3786 11.4776 2.08001 3.59233 -0.591262 -1.01365 0.261049
2667 12.2477 1.50183 3.0199 -0.183962 -1.39578 -0.0108156
1120 12.2921 2.2188 4.21236 1.61798 0.487503 0.0745624
41 13.0056 2.19427 3.37501 -0.0321005 -1.25105 1.09044
3583 15.575 1.78677 3.39818 0.00322613 0.503623 -0.965947
2235 14.9294 2.0073 4.18005 0.697587 0.332349 -0.67685
1462 14.4344 1.94231 3.19399 1.38955 0.726799 -0.436177
3018 14.8312 2.8422 3.73187 -0.318655 -2.17517 0.625822
762 16.3188 1.91966 4.0794 1.10922 -0.0502913 0.0751257
2945 0.787933 3.7979 2.98917 -0.591232 -0.200651 -0.47571
1976 0.876004 3.94794 4.08548 -0.580205 1.94047 2.23128
2132 2.80667 3.53691 2.9296 -1.09425 0.378376 0.386097
460 1.59306 3.44667 3.46578 -0.305899 -1.17753 -0.723671
1435 1.93702 4.25173 4.20272 -0.650913 0.485947 1.53391
531 3.0578 4.0353 4.21166 -0.574043 0.456494 1.60279
1945 3.82709 3.38683 3.40106 -0.386107 0.940504 -1.76488
2532 5.06456 3.53747 3.50983 -0.85572 1.28437 0.153415
14 6.38131 3.61519 3.27602 -1.22352 1.46932 -1.69077
2774 7.99747 3.27049 3.04076 0.581254 1.00293 2.03571
2751 7.52693 4.16506 3.26173 -2.54883 -1.18048 0.01569
1136 7.301 3.55045 4.10536 -1.26967 -0.206693 0.857016
3090 9.12224 3.49139 2.91054 -0.436967 1.24168 0.147314
2784 8.56021 3.97811 3.74395 -0.113912 0.428906 -0.632946
2902 9.01404 3.25873 4.27106 0.762281 0.199773 -0.483226
2640 10.0442 2.8789 4.2002 -0.660026 0.313008 -0.852369
2994 11.0344 2.97343 3.81083 -0.176988 0.701253 0.500242
3835 10.1941 3.64043 3.35148 0.535125 0.198998 1.82669
3924 11.4874 3.97027 3.66746 0.777879 -1.82218 -0.603023
429 12.3968 3.16599 3.70757 0.234446 1.15365 -0.128099
3911 12.6376 4.27112 3.29724 0.586209 -0.670286 -0.289959
2601 13.4745 3.3089 3.46791 -0.0667574 1.2387 0.423252
523 14.6957 3.82142 3.67555 -0.755039 -0.254656 -0.303867
2386 15.6474 4.18993 2.96232 1.15161 0.0203522 0.322016
1482 16.9372 3.56358 4.19727 -0.686463 -0.544466 0.163274
477 16.7913 3.16808 3.28443 0.480176 2.39885 -0.227729
76 16.9495 4.2635 3.19249 0.789623 0.575795 -1.72074
91 1.29663 5.50625 3.56532 -1.31522 0.300605 -1.01587
415 1.57692 4.54227 3.29548 -0.210556 0.945186 -1.36173
1046 2.66667 4.55799 3.38855 3.93083 -0.203862 -0.717356
3254 2.12908 5.29529 3.93648 0.51343 0.33445 0.108739
3533 3.73867 4.73395 3.42393 -1.40872 0.49707 -0.982498
2319 4.90916 5.01853 3.43966 -0.0154993 0.403555 -0.959989
686 6.75302 4.65777 3.86586 -0.346527 -1.27317 0.273531
177 5.74055 4.4352 3.4514 -0.569212 2.8264 -0.560254
2695 6.18599 5.39621 3.23502 0.303625 0.271695 0.55165
3423 7.79318 5.31973 3.29372 0.0868026 0.685886 -0.922927
1321 9.36929 5.60831 2.97603 -2.02391 1.07582 0.303677
481 9.43092 4.42234 3.26681 -0.220101 0.412038 0.0338262
657 9.95913 4.98716 3.97553 -1.44455 -1.45613 -0.517903
2606 10.7448 4.46372 3.38632 -0.531426 -0.988584 -0.218232
920 11.0979 5.47243 3.41172 -0.566465 1.07287 1.05739
355 12.6583 5.2421 2.98048 0.954325 -0.449504 -1.48468
1548 12.0754 5.38863 3.78308 -0.88581 0.18025 -0.575832
157 13.048 5.07105 4.10676 -0.166326 -0.787889 1.239
1963 13.9944 4.63584 3.89049 -2.82193 -1.03128 -0.667446
2539 14.0388 5.68305 4.17567 -0.694383 -0.592669 0.50423
398 13.5211 5.6294 3.28954 -0.728783 0.440959 1.09037
166 14.5692 5.66354 3.16715 0.882911 -0.259886 0.736636
2646 15.0022 4.86576 3.73815 0.167156 -0.0199561 0.846971
1400 15.9641 5.23942 3.42866 1.45635 -1.52334 0.457694
1688 16.0122 4.30987 3.93582 0.40699 -0.475516 -2.08657
1341 16.9427 5.36619 3.35819 -1.83738 -0.632586 -0.138926
479 1.11556 7.01462 3.37856 0.254541 0.319557 0.982808
832 0.162539 6.79766 4.02219 1.43455 -0.388565 -0.375829
3227 1.91776 6.28934 3.84499 -1.0096 0.770827 -1.77125
594 2.97006 5.86759 3.5629 1.87804 0.445788 0.109505
456 4.11579 5.77147 3.69575 -0.184367 -1.71668 0.205448
507 3.51625 6.75214 3.68873 -0.568338 -0.869101 0.472125
495 4.66397 6.42119 3.00586 -0.868912 -1.44356 1.78206
1333 5.41292 5.93171 3.77946 0.258383 0.635799 -0.435813
3464 4.66831 6.47527 4.20249 0.115529 0.829207 0.731344
1756 6.79544 6.26736 3.4603 0.290435 0.583548 -1.70068
340 5.91044 6.79941 3.11793 1.97618 0.421923 1.0919
2570 7.14465 7.10828 3.98998 -0.81056 -1.75978 1.42524
2109 8.50257 6.31712 3.07085 0.513931 -1.83691 0.698159
894 9.69151 6.35675 3.78413 -0.759775 -0.334842 -1.11058
589 8.60421 6.01632 4.11201 -1.24895 -0.0117751 0.812926
2316 10.261 6.01953 3.01293 1.31636 -0.895209 1.12042
677 10.5969 6.95759 4.01505 1.74112 1.04936 -1.5561
2434 10.438 5.87571 4.23824 -1.47104 -0.456277 -1.41823
3359 11.0599 6.8367 3.08095 -0.0742629 -0.951762 0.902641
2958 12.4691 6.28886 3.4455 1.31803 -0.174055 -0.714578
3796 11.5555 6.29478 4.09855 0.705971 -1.07385 -0.318668
1355 12.669 7.06935 4.16565 0.133561 -0.612229 -0.170589
2449 14.4421 7.02359 3.4415 -0.6134 -0.295015 -0.867283
2193 15.049 6.21869 3.98895 -0.795769 1.05516 -0.0650426
1419 16.7519 6.674 3.08205 0.0810951 -0.745314 -0.0114359
2470 16.2121 6.18142 3.81712 0.154549 0.400633 -0.900257
980 0.828615 8.03358 3.26781 -0.83993 0.650466 0.222813
2009 2.00089 8.38646 3.00303 -1.73078 -0.483981 -0.279221
2894 1.71616 7.83945 3.87156 -0.726725 0.932718 -0.782124
2442 2.91963 7.82189 3.04517 1.01491 0.6117 -0.460618
2723 2.87002 7.51356 4.08741 -1.18166 0.121053 -0.0809989
1428 4.02306 7.8056 3.73409 -0.252158 -0.666846 2.29588
2069 5.27853 8.30347 3.72683 -1.60338 -0.969567 -2.07119
679 4.77974 7.86433 2.90078 -1.17447 -0.529335 -0.531054
3267 5.20486 7.2699 3.71584 0.33148 0.415071 1.78055
2633 6.19281 7.81258 4.02437 -1.02678 -2.556 -1.69047
1625 7.09387 7.24964 2.96964 0.970706 0.714315 0.536339
1373 7.36642 8.30101 3.33859 1.18108 0.919091 0.280828
232 8.37267 7.80398 3.26637 0.414974 -1.29212 0.178729
2753 9.31438 8.44686 3.38518 -0.47872 -0.423109 -0.205553
2924 9.16654 7.3879 3.77718 0.843333 -2.38508 -1.70123
1541 11.2405 7.88135 2.94413 -0.231858 1.06287 0.395626
1732 9.99681 7.87262 3.79331 1.64568 1.62929 -1.65319
2625 11.8109 8.4928 3.5816 1.0728 -0.580152 -1.10532
575 11.6458 7.32398 3.86306 -1.36463 0.360381 -0.525101
3871 12.75 8.29882 4.10351 0.125146 0.461563 1.4877
2250 13.703 7.76351 3.93706 0.376404 -0.272993 -0.498897
1683 13.0961 7.16359 3.08172 0.882023 0.775486 0.057969
359 15.2087 8.26027 2.89745 -0.853185 0.357158 -1.28064
1081 15.5 7.51929 3.5103 0.841125 0.885938 0.58426
2638 15.9188 8.49434 3.68621 0.017746 -0.26813 0.0488339
1819 16.9361 7.66057 3.63319 0.152809 0.43141 1.47918
604 16.2953 8.00418 2.85911 -0.755828 -0.160713 1.50598
2465 1.15297 0.237649 4.67315 0.261529 -0.298695 0.664499
480 1.87784 0.971429 4.32872 0.130104 0.226922 0.817271
2165 2.70396 0.784968 4.97156 0.0560671 -0.698686 -1.7293
3200 3.62785 0.535532 4.65023 -0.0648614 0.314222 -1.3436
527 3.67006 1.23945 5.36508 -0.648085 -0.604237 -0.480169
3739 4.69993 0.92041 4.38678 -0.23891 0.342239 0.869165
71 5.56035 0.103583 4.35081 0.204235 -0.303629 0.324151
7 5.2685 0.351377 5.43845 -1.15839 -2.16183 1.04951
2493 5.84176 0.954912 4.85186 -0.327303 0.957811 -0.242493
1847 6.91714 1.04462 5.05116 -0.278848 0.527991 -0.207741
2374 7.86925 1.07137 5.67438 -1.42851 0.280145 1.15175
3975 7.49104 0.141186 5.12041 1.67508 1.23108 -1.3839
1844 8.59677 0.450112 4.92637 2.38346 0.863371 -1.52548
389 10.0989 1.16561 4.55087 -1.66324 -0.330921 0.699721
1572 10.2241 0.366432 5.22858 -0.327799 -0.32738 0.578078
3630 10.8283 1.34344 5.36868 -1.22339 0.764043 1.74575
2587 11.4338 0.371766 5.14551 0.532155 1.00467 -0.715873
847 11.7692 1.21028 4.61467 -0.0166409 -0.203276 0.938642
412 12.1371 0.0607811 4.45446 0.704991 -0.120532 -0.0498256
360 14.1239 0.365972 5.5433 0.0416587 0.823309 0.604421
1269 14.1563 0.338894 4.36495 0.563612 -1.0402 -0.388392
957 12.9857 0.75613 5.3267 -0.420829 0.601836 0.146933
3148 14.8615 0.935819 4.9976 0.618874 -0.702061 0.137227
419 16.1329 0.599354 4.8351 0.0514892 -1.136 0.589846
3008 17.0693 0.986232 4.41052 -0.579141 -0.19619 -0.101179
3444 0.982025 1.52086 4.61779 0.541588 -0.134633 -1.37776
1825 0.868803 2.47333 5.36583 -0.710476 -0.283424 0.347194
3765 1.80083 1.80721 5.46491 0.0419035 1.70168 0.359741
2229 3.00011 2.03226 4.98565 0.885374 0.862097 -0.159065
800 4.18555 1.92034 4.72685 -0.0320313 0.237171 -0.593688
3388 5.01412 1.45823 5.35205 0.591234 0.9303 -1.47231
2779 4.61369 2.78223 5.08415 1.64861 -0.666504 2.36004
1815 5.36321 1.98457 4.42807 -1.20259 -1.81081 0.128665
640 6.76303 2.78881 4.56597 0.424817 1.17138 0.779013
3179 6.23161 1.87125 4.92414 0.916819 -0.861555 0.811878
478 7.66453 1.47664 4.33641 -0.299209 0.318472 0.0671185