ITEM: TIMESTEP
59000
ITEM: NUMBER OF ATOMS
4000
ITEM: BOX BOUNDS pp pp pp
0.0000000000000000e+00 1.7099759466766969e+01
0.0000000000000000e+00 1.7099759466766969e+01
0.0000000000000000e+00 1.7099759466766969e+01
ITEM: ATOMS id x y z vx vy vz
3174 0.063786 1.06463 1.06308 0.689954 0.361281 0.680298
597 0.0151259 0.161222 0.469846 0.501689 -0.94416 -0.718266
1856 1.23484 0.999094 1.35555 0.900303 1.17168 0.0681219
1965 1.19529 0.27656 0.514737 2.56246 0.524883 0.419953
72 2.24845 0.649581 1.05582 -0.0455435 -1.50617 1.07261
1222 1.80371 1.328 0.42455 0.401149 -0.201426 -0.742511
3373 3.25864 0.693155 1.12102 0.215111 0.574855 0.663274
2652 3.98819 0.0908957 0.727079 -1.17367 0.374278 -0.263126
835 3.36302 0.756784 0.0158163 -0.737917 0.318024 0.940044
1815 5.6126 1.20138 1.42315 -1.54247 0.950368 0.786904
743 6.61255 1.09479 0.993127 -0.898363 -0.743908 0.0250881
3352 5.93131 0.341585 0.890043 0.0622037 -0.307566 1.36385
357 8.32307 1.15194 0.426832 -0.238189 0.639287 -0.327743
3003 7.40484 0.413118 0.2338 -0.172689 -0.175692 0.215666
3370 7.55258 0.831605 1.21015 -0.757739 -1.50691 0.0449563
3818 8.46083 0.255514 1.1235 0.632047 0.438801 -0.147617
2485 9.55925 1.42103 0.511131 0.256212 -0.783139 0.660509
2 9.30113 0.0749336 0.508866 0.559616 0.886416 -0.803624
2387 11.3496 0.764457 0.626032 -1.39292 -0.229029 2.70855
81 12.2356 0.510285 0.784698 -0.0362321 -0.922836 0.572019
535 13.0574 1.07094 1.25897 -1.37131 0.376298 1.02305
3419 13.1564 1.11035 0.133056 2.55134 -2.12826 -1.69691
2598 13.1993 0.112409 0.859895 1.5602 -0.712284 -0.578522
3925 14.1787 0.0726584 0.263757 1.08063 1.3291 -0.00109181
757 14.2749 0.86203 0.924745 -0.131577 0.626852 0.107115
3317 15.0343 0.0774492 0.921787 -1.75257 -0.362396 -0.713553
963 15.4008 1.25044 0.00192143 1.04314 -0.163738 1.99858
505 15.7005 0.297032 0.0582623 0.850414 -0.469896 0.29869
1972 16.4015 0.455465 1.39683 0.256153 0.0584716 -0.741135
2145 16.0003 1.3781 1.11601 -0.942256 -1.67512 -0.292991
1200 0.714884 1.78445 0.38647 0.0226068 0.538043 -0.0290617
1976 1.39511 2.33811 0.990603 -0.00607012 -1.79839 -1.11904
482 2.16612 2.30158 0.104389 -1.35483 -0.479276 -0.369317
1182 3.48643 1.74636 0.473296 0.0483076 0.740401 0.271188
1879 2.99345 2.53345 1.05562 0.40346 0.148321 0.0220232
3821 5.28639 2.42389 1.15982 2.60394 0.138175 1.16597
1611 4.56243 2.32724 0.139685 2.19105 1.38884 0.064358
2780 4.65752 1.57157 0.794589 -1.34706 0.150904 -0.237894
1862 5.70293 2.79575 0.155137 0.373244 -1.19348 -1.56046
120 5.7183 1.69943 0.191937 0.462152 1.26097 0.152581
463 6.67079 2.14834 0.227472 -1.46749 0.436514 0.394415
3090 7.22893 2.66173 1.10671 -0.957919 0.199655 -0.857888
726 7.40987 1.68411 0.740807 -0.509004 0.331512 1.49598
3575 9.2179 1.76593 1.32793 -0.21612 0.449082 -2.46265
906 9.80996 2.6077 0.81276 1.71579 1.26986 0.491313
2971 8.82287 2.29991 0.491099 0.633733 -0.992822 0.540822
2515 10.6983 1.77276 0.565868 1.11913 -0.378682 -0.48559
1891 11.1401 2.56788 0.141012 -0.139012 -0.526133 -0.33092
3460 12.1793 2.76559 0.559989 1.17518 -1.44426 0.702679
3630 12.0394 1.61144 0.763787 -0.265292 0.0364304 1.69231
687 13.2304 2.52525 0.499889 -0.00445006 0.551261 0.728237
3020 13.8266 1.7742 0.797544 0.939686 1.89447 1.30948
1708 14.0935 2.82307 1.10573 -0.183701 1.83971 -0.00705629
3920 14.9479 1.74757 0.975366 -1.11429 0.848244 0.598705
1170 15.6335 2.5846 0.562895 -0.296687 -1.30204 -1.26428
547 14.6876 2.32295 0.0815883 -0.522845 -2.02101 -0.371144
2216 16.6712 2.02956 0.67727 -0.740576 1.85068 -2.12444
3558 0.120227 2.89186 0.959486 -0.57062 -0.765079 -1.41801
2247 1.06657 3.45594 1.08062 -1.5865 0.0984851 -0.813046
1805 0.127804 4.24314 0.520559 1.05241 -0.884613 0.646879
1151 1.05231 3.73022 0.0471454 -1.51659 0.540621 -1.17397
1913 2.28493 3.64045 0.393909 0.476112 0.353396 0.0282888
1779 4.0032 3.29399 0.064246 -0.490184 0.0859878 0.101527
1667 3.95614 2.86426 1.31468 -0.64 0.356494 1.55011
271 3.01928 3.02344 0.013927 -0.186429 -0.917091 1.35769
1524 4.82037 3.53352 0.970741 0.0197512 -0.22763 0.792778
2007 4.45965 4.27125 0.174411 -2.31247 2.1546 -0.20416
1383 6.17001 3.04248 1.11936 1.60658 -0.41658 1.104
1452 6.42342 4.21693 0.808347 0.559713 -1.01068 0.541726
3843 6.61258 3.22123 0.113823 -0.145056 -1.29022 -1.87702
16 7.1893 3.70575 1.24824 -2.32041 -0.75281 -0.0137303
2335 7.22818 4.11177 0.209838 -0.796975 -0.103346 0.316517
2067 8.48902 4.1947 1.2802 -1.91807 -0.788849 -0.323554
1076 7.85215 3.1832 0.244565 2.27605 1.80842 -0.684659
3660 9.11488 3.31395 1.38719 -0.908065 -0.107736 0.825785
1152 9.45415 3.8591 0.608206 -0.618742 -0.850739 -0.728932
3551 10.3175 3.43311 0.49925 -1.7539 -0.0869274 -0.297285
2431 11.2736 3.59686 1.16195 0.404895 1.58817 -0.243272
3704 10.343 4.2611 1.26097 0.273782 0.601085 0.499682
1687 11.6983 3.53449 0.0628496 -0.386553 -0.771973 -0.416391
442 12.465 4.23965 0.678238 0.0643493 -1.19201 -1.55744
2354 13.1208 3.59591 1.05753 -1.60377 -0.0578685 -0.426915
2289 14.21 3.72623 0.395449 0.199798 0.0357276 -0.359612
80 14.142 3.95115 1.41818 0.16958 1.4338 0.709595
3555 15.1825 2.93348 1.35483 -0.0732379 -0.0662018 1.24057
3706 15.8469 3.55641 0.695754 0.431673 -0.780606 -0.867581
2685 1.2924 4.90327 0.595563 -0.648251 -0.273381 0.260067
76 0.1451 5.23244 0.324803 0.739735 1.1082 0.393492
2160 2.13241 5.66726 0.587176 0.433425 1.13739 0.475828
3795 2.36268 4.77127 0.670488 0.172893 -1.92571 -1.05199
891 4.21401 5.62979 1.39523 -1.63444 -0.876927 0.402606
912 3.63609 4.87593 0.681165 -0.0442062 -0.950483 0.556134
989 4.61804 4.61467 1.0888 -0.559884 1.20733 -0.559159
562 5.37789 5.58308 1.16529 -0.813422 0.207263 -0.148605
3875 5.57425 4.27625 0.219138 -1.12163 -0.957035 1.39956
1606 4.53543 5.54227 0.23134 0.259728 0.84622 -1.21017
3919 6.51961 5.45916 1.3409 0.253775 -0.858788 0.719876
1120 6.27307 4.99868 0.242652 -1.14594 0.772107 -2.37731
1286 8.28927 5.6634 0.578649 -0.770318 -1.26881 -0.654573
1195 8.30782 4.53002 0.169919 0.622742 0.0151104 0.115148
3009 7.30865 4.99228 0.803816 -1.77191 -1.39025 1.00905
3316 9.08486 5.01347 0.837818 -1.74877 -0.0523002 -0.818757
2266 10.1765 4.8734 0.500628 1.08183 -0.574197 -0.741281
3057 10.4905 5.62497 1.30712 -1.65711 2.39051 -0.357967
106 11.3018 5.50114 0.525764 0.540684 0.0875867 -0.148661
3204 11.2757 4.82301 1.33082 -2.14238 0.188745 0.462895
2204 11.1018 4.45654 0.10213 0.189987 1.53825 0.259241
1605 13.9615 4.95008 0.598004 -0.563541 1.21495 -0.9946
1246 12.9224 5.15908 0.509259 -0.570371 1.52603 -0.654413
3890 15.3473 5.6184 0.535358 0.44718 0.193727 0.0174508
3637 14.967 4.41446 0.617833 0.28118 0.0295832 -1.72426
415 14.4324 5.27485 1.40297 0.480624 0.00123712 -0.753609
3161 16.0359 4.57333 0.72462 0.293981 -0.432067 0.554006
2789 1.40247 6.45928 0.320634 -1.93622 0.486249 -0.156365
2720 0.521689 6.25291 1.1118 0.280591 -1.36273 -1.90337
3910 2.4285 6.40706 1.27081 -0.723582 0.552622 -0.543276
2991 2.34278 6.99798 0.318798 -0.200562 -1.62811 0.734085
2405 3.26267 6.31968 0.764078 0.561074 -1.2073 -0.765349
498 4.29538 6.48699 0.599449 -0.775971 0.038248 0.115866
3260 5.99586 6.05192 0.395938 1.33177 0.187918 1.5334
3580 5.89235 6.68453 1.28507 -0.950185 -0.257104 0.188115
3403 7.03494 6.14669 0.468794 0.0907301 1.08209 -0.860609
409 7.96321 6.7288 0.822891 -0.0263512 -0.429228 -0.0282737
2079 7.62306 5.88253 1.30878 -0.691002 0.336389 -0.769653
2410 9.2491 5.78614 1.31992 0.359776 1.71002 -2.18557
464 8.97388 6.77299 1.40392 0.850851 -0.146231 -0.405457
1507 8.99817 6.88936 0.23941 0.164849 0.253294 -0.370162
3068 10.0934 6.15405 0.385556 -1.42831 -0.679985 -0.635663
2385 11.1945 6.61329 0.340225 0.783052 -1.51945 0.321868
3011 11.1169 6.87039 1.41713 -0.794682 -0.185377 -0.00218621
811 11.9398 6.37855 1.12549 -0.111847 -0.436257 0.261202
3223 12.7667 6.21344 0.573016 -1.50797 0.78832 -1.6775
3440 13.4728 5.71684 1.33456 1.00401 1.4987 0.320509
1784 14.4074 5.93156 0.10542 -0.294654 0.231782 -0.480822
1021 14.6153 6.50767 1.03977 1.36357 0.0688139 -0.223678
920 16.5303 5.72901 1.11102 0.146162 0.0676365 0.589182
212 16.3688 6.53322 0.457519 1.59255 0.0940628 -1.72393
1235 0.540807 7.69704 0.917674 1.53787 0.150475 0.134181
3869 1.80655 8.13598 1.0744 0.166631 -0.133808 -0.117404
1005 1.61376 7.14146 1.23779 0.106954 1.07645 0.0180252
2375 1.50363 7.50998 0.293405 3.26012 2.28642 -1.50723
3923 2.63967 7.56192 1.36797 -0.795369 -0.44394 0.399272
657 2.71241 8.05551 0.362525 -1.30445 0.561356 0.909947
3710 3.73285 8.25854 0.394344 0.265604 1.01705 0.85923
2032 3.40914 7.33883 0.647858 -1.31443 -1.97687 -1.03334
3957 4.72617 7.68098 0.42762 0.334566 1.2853 -1.20271
1495 4.33976 8.16315 1.24019 0.288399 0.241127 -1.79324
2550 5.56057 8.05008 1.00925 0.254848 -0.400662 -0.00379864
1487 5.75357 7.43136 0.181972 0.0762502 0.801391 -1.9956
162 6.77748 7.30997 0.463492 0.012232 -1.69791 -1.06856
190 6.51244 7.82183 1.38617 1.64324 1.18018 0.718377
1591 6.42527 8.27543 0.247983 0.34652 -2.23371 0.607717
3736 7.44879 8.40611 0.194887 0.404888 1.58524 -1.16885
2570 7.79693 7.87013 1.06928 -1.63176 -1.03101 0.318363
1983 9.71685 7.61273 1.23754 0.0140547 -0.594418 0.0728138
3107 8.74387 7.73379 0.762052 0.871686 -2.20558 0.728935
2003 10.036 7.14447 0.0414216 -0.718328 0.0993867 -0.280188
496 10.9848 7.83861 0.831318 0.876259 -2.81317 -0.40225
2664 10.1486 8.47164 0.856045 -0.703202 -0.538471 -0.557178
2102 12.608 8.05159 0.317573 -1.22315 0.399573 0.983946
3603 12.0635 7.29581 0.66652 -1.07081 2.44997 -0.985928
2958 13.2356 8.06977 1.35418 0.528617 0.43085 -0.830362
3065 13.272 7.1832 0.645749 -1.1264 0.918376 1.10657
1024 15.6376 7.205 1.14943 0.896778 -0.63556 -1.1447
3642 15.3155 8.45431 1.35501 -0.527671 1.13797 1.39034
2255 14.706 7.28102 0.0973839 -0.702801 -0.772475 0.0688218
754 15.3698 8.32495 0.293003 -1.86697 -0.00867773 1.86325
655 14.3806 7.99194 1.04864 -0.840158 -1.52106 -0.087876
3723 16.6897 7.52465 0.433744 -0.359656 0.729258 0.21122
2078 15.7494 7.31971 0.0820118 -0.121424 2.67763 -1.18236
3036 0.548417 0.272758 1.61686 1.78222 -1.195 -1.53633
1987 1.84856 0.583998 2.20429 -0.0223817 1.28101 -0.585371
2425 2.59361 1.25836 2.57171 -0.145618 0.0820521 0.347645
775 2.76792 0.313716 1.86908 -0.802154 1.41835 1.12602
2472 3.59144 0.877125 2.12881 -1.2941 -0.945831 -2.00507
992 5.0116 1.35034 2.27366 -0.833201 -1.5458 1.7903
504 4.51925 0.717158 1.42909 -0.320444 -0.174476 -0.310131
3445 5.36244 0.33678 2.17904 -1.93294 0.629534 0.132335
2693 4.40554 0.299686 2.66628 -0.0924207 -0.578098 -1.0312
588 6.88919 0.199862 2.00321 1.86762 0.451637 1.15385
239 6.91642 1.33659 1.97712 -0.0934527 0.295671 0.362882
829 6.03281 1.147 2.41846 0.76731 -1.26897 -0.79511
3336 7.93207 1.03355 2.2935 -0.443898 0.235659 0.721673
898 9.86222 0.356435 2.65157 0.0402055 2.13224 -0.701358
593 8.98224 0.850233 2.5021 -0.613464 -2.02406 1.74591
209 9.41195 0.742276 1.47517 0.291253 0.110765 -1.81726
274 10.6704 1.2079 1.64662 -1.58144 0.701393 0.477609
313 11.113 0.195462 1.66208 1.7801 -1.92925 0.289335
1874 12.4096 0.596391 2.10449 1.07698 0.370456 -1.81034
2959 11.4695 0.960984 2.25694 0.320434 1.0159 0.351976
1375 14.047 1.39638 1.77095 0.0856996 -1.81378 -0.314842
2649 13.5715 0.283788 1.91133 -2.13316 -0.331448 -0.275226
3924 14.6269 1.40742 2.79128 1.06178 -0.511616 -0.769922
1417 14.7307 0.534055 1.89626 1.51488 0.730197 -1.01727
1437 15.5736 1.40662 2.33187 0.0316685 -0.633908 -0.944128
1633 16.8804 0.275211 2.44107 0.799353 0.0447959 -0.577195
917 15.7175 0.35509 2.20424 0.66837 0.772845 -1.46343
4 0.586698 2.09679 1.61293 0.307186 1.4651 -0.972155
2826 0.110447 2.70437 2.37213 0.992026 -0.775823 -1.21587
1043 0.576234 1.57018 2.71011 -0.912937 0.371143 -0.00287168
2734 2.13444 1.67777 1.43798 -0.153285 -0.519251 -0.29776
3200 1.6398 1.89161 2.43041 -0.968982 -0.480077 0.446807
2480 2.41518 2.48845 1.99711 -0.57191 -0.0231345 0.229239
3119 3.47079 2.75011 2.49317 -0.229083 -1.37185 -0.121102
3407 3.32288 1.8889 1.75093 0.812868 -1.08795 0.845377
3225 4.396 2.07557 1.85569 -0.433179 -0.71537 -0.0250196
1041 5.67875 2.23666 2.35593 0.13681 0.858377 -1.15217
733 6.29027 2.06033 1.49747 -0.248547 -1.27908 -0.164178
2081 6.79246 2.11182 2.72326 1.15368 -0.686774 -0.270999
1980 7.77846 1.96671 2.7241 -0.174037 0.142202 -1.93681
335 8.02534 1.93932 1.74241 -1.08224 -0.982889 0.015082
2703 9.51111 2.48072 1.95516 1.46025 1.71346 -0.185205
300 9.11822 1.92547 2.7944 -1.85598 -0.396414 0.231629
860 9.83324 1.47072 2.30585 0.399816 1.0772 0.990298
675 11.1286 2.41892 1.47205 1.21174 0.123448 -0.762222
753 10.7655 1.97714 2.35911 -0.737509 -0.958373 0.383039
844 12.544 2.01369 1.42843 -2.16343 -0.175548 1.1307
3954 11.9048 2.33634 2.35679 0.578986 -2.76014 -0.0227275
2434 13.3458 2.37471 1.8527 0.210764 2.26352 0.166934
1648 14.0633 2.28449 2.72765 -0.644498 0.692225 -0.0201532
2451 13.0311 1.46284 2.21175 2.89418 0.179812 1.11427
3960 14.8806 2.21055 2.14113 0.0293202 0.306977 -0.680494
1258 16.8347 1.69716 2.15085 -0.047854 -0.261391 -1.19322
359 16.2138 2.60739 1.67583 0.17503 -1.28683 1.54352
3615 15.9963 2.45388 2.63436 1.22859 -1.48333 -1.21272
797 0.946154 3.31532 2.21428 -0.564121 0.528933 1.22327
424 0.24147 3.7661 1.63405 -0.285206 0.0113521 0.542697
47 1.93938 3.97978 1.7679 -2.07812 0.888216 -1.16777
1414 2.81967 3.30298 1.62673 -0.0118352 0.967021 0.275744
3777 2.13174 3.29686 2.84594 -0.782941 1.50545 0.595999
2129 3.75161 3.92597 1.67814 1.2046 0.737614 -1.53909
2867 3.2144 3.80869 2.58496 0.777854 0.254433 -0.197763
199 4.22304 3.46743 2.80012 0.0927209 1.91529 0.274354
2331 4.99617 3.02113 1.97196 -0.746387 0.159994 1.26957
3363 5.14881 4.04526 2.65878 -0.121331 0.750753 1.92739
2488 5.61808 4.1748 1.55177 0.267956 0.749304 1.72712
1580 6.10421 3.30331 2.11411 0.343643 -1.27754 0.377029
1841 6.91323 4.01811 2.4729 -2.12757 -0.397592 0.186266
478 7.1449 2.88786 2.16506 0.385204 0.849225 -1.62652
3636 7.97761 3.33142 1.65281 0.569419 -0.61219 1.69276
2775 7.82225 3.50946 2.72365 0.535825 1.8817 -0.365884
321 8.58602 4.00313 2.35218 -0.116175 0.266838 0.238145
1090 9.64184 3.63667 2.46009 0.209785 -2.02228 0.00823106
3579 8.82475 2.98458 2.76403 -0.166571 -0.637046 1.39044
429 10.2618 3.28348 1.5489 -2.43956 -2.779 0.856464
3627 11.0434 3.06056 2.34669 -0.135517 0.251898 -0.149602
231 12.4398 4.03569 1.85617 -0.130101 -1.35522 0.376408
2946 12.7521 3.41293 2.62093 -0.240703 -0.225107 -1.11074
888 11.5401 4.19151 2.33227 0.871158 1.31131 1.20659
587 12.0625 3.062 1.65852 -0.480859 0.629826 0.414392
1015 13.3697 4.24051 2.53641 0.0269606 -1.4995 0.438051
2237 13.9907 3.24286 2.11455 0.47107 0.592017 0.583733
2537 14.6296 4.18734 2.57797 0.846903 0.92668 0.916737
1883 15.0909 3.11212 2.50506 -0.124356 -1.6597 0.587008
339 15.9279 3.64904 1.66884 1.43905 0.666794 0.999145
956 16.5274 3.65866 2.55266 1.05804 0.796559 -0.87387
1710 0.596158 5.11031 1.56548 0.805074 -0.818795 -0.222138
2722 2.7835 4.44223 1.71168 -0.136099 -0.536895 -1.06814
2045 1.76426 4.81313 2.19457 -0.24657 -1.97712 0.105632
2503 3.08657 5.45842 1.43772 -1.24272 -0.0194002 1.5672
460 3.6737 5.13124 2.38314 0.0312203 0.332681 1.4679
237 5.08306 5.0118 2.10418 0.425558 -2.25132 -0.0988483
1760 6.07083 4.77436 2.54775 0.267622 -1.09125 0.753311
3007 8.52367 5.04396 2.75035 -2.7406 2.29559 0.27695
3087 7.1271 5.54557 2.12325 1.78859 -1.87534 0.310551
1408 8.44612 5.19281 1.62305 1.50173 0.367478 -0.0106799
1188 9.52178 4.56339 1.78218 -1.05745 0.962009 0.0525894
2183 9.29243 5.61978 2.34933 -1.27541 -2.65527 1.62773
2853 10.4422 4.9316 2.07201 -0.6095 0.167595 0.545408
2846 12.3146 5.38794 1.51638 -1.67933 -0.24975 0.347745
3802 12.3022 4.50065 2.82882 -0.624115 -0.164957 -0.20782
2902 12.0494 5.5238 2.56319 0.0579652 0.833371 0.210434
677 13.3393 4.68371 1.4282 -0.655537 -0.117784 -0.88166
1690 14.0487 4.90651 2.18416 1.36527 0.109136 0.591469
3672 15.6393 4.33112 2.50849 -0.454631 1.00195 0.81777
1909 15.1758 4.46948 1.56261 -0.183994 -0.186888 -1.34743
2800 14.9766 5.36954 2.56193 0.534922 0.160269 0.384222
1718 16.3738 4.87757 1.81956 0.83371 0.164465 -0.592028
2412 16.8657 4.6862 2.75941 1.39791 0.101511 0.0885784
401 16.8525 5.6441 2.22973 -1.90083 -0.432777 -0.0617749
904 0.5937 6.21285 2.63418 -0.170048 0.372586 1.31159
1214 0.923466 6.86029 1.90774 0.0748635 0.711532 0.234522
688 1.5493 5.83638 1.50924 -0.386636 -1.14329 -0.234532
1436 1.62798 6.41794 2.59445 -0.118771 0.195399 -0.879738
2323 3.36481 6.92748 1.61284 1.92723 -0.308164 -0.596784
3801 3.60019 6.45671 2.52368 0.73621 0.15326 1.81757
3267 4.56774 7.11143 2.55406 0.232494 -0.418452 -0.108483
204 4.52362 6.63743 1.57742 1.35073 1.66011 -0.00453651
119 4.46372 5.84573 2.49865 0.973657 -0.606126 -0.44693
1265 5.47498 6.7156 2.50401 0.886928 0.465766 1.21502
2774 6.88752 6.87826 1.46633 -0.849113 -0.990237 0.834902
2302 7.08856 6.5874 2.66649 1.57392 2.10875 1.0376
969 6.30373 6.1297 2.09441 -0.21127 0.855605 1.13853
1747 8.32159 6.28255 1.96981 -0.446244 -2.65394 -0.399765
3144 8.29665 7.11928 2.81963 0.552059 -0.117472 -1.62817
265 9.26454 6.66429 2.38894 1.17531 -0.124468 -0.951157
174 10.0312 6.67661 1.53765 0.103615 0.583947 1.64897
575 10.8126 6.93204 2.46161 -0.72699 -0.837411 0.117638
3837 10.4124 5.99708 2.37362 -0.815246 1.04628 0.31256
2633 11.3111 5.81201 1.75497 1.64789 -0.994433 -1.02811
1212 11.9905 6.74327 2.22294 0.545089 -0.0908691 -0.580822
1290 13.1981 5.71574 2.33344 -0.459515 0.51635 0.409995
631 12.8862 6.51802 1.61251 1.65458 0.948615 -1.84191
832 14.2462 6.12612 1.97105 -1.08564 0.760891 1.60483
1050 13.3817 6.90455 2.60471 -1.22754 -1.00785 0.446797
639 13.7582 7.06246 1.51703 -0.0855541 -0.107621 2.08782
664 15.424 6.20921 1.69056 -0.393295 -0.708151 -0.351237
337 14.531 6.71285 2.83377 2.18415 -0.638845 -0.608052
2293 15.9287 6.54473 2.6746 0.480443 0.598431 0.718278
132 16.7 6.59492 1.77849 1.32094 1.37916 0.0885508
545 0.299691 7.2402 2.63065 -1.86647 -2.1279 -0.376998
1400 1.094 7.95312 1.97998 -0.31738 1.11779 0.423825
552 2.28867 8.23286 2.16676 -2.0393 -0.72997 -1.25525
3250 2.41041 7.13607 2.26077 -0.500064 1.4368 1.04614
3760 3.40176 8.05661 1.92974 -0.190098 -1.1474 -2.18762
900 5.10209 7.64121 1.82582 -0.386735 1.09254 1.13356
2056 4.33728 8.37168 2.27556 0.629121 1.0972 -0.538928
1827 6.9096 8.51456 2.63994 1.36223 0.0784274 1.68116
2108 6.06171 7.8425 2.48219 0.00926579 -2.03111 -1.1815
1943 8.52801 7.6086 1.90194 0.0893411 -1.64426 0.762911
765 7.27707 7.60197 2.35341 -1.27667 -0.520998 0.656954
1641 7.77227 8.43794 1.83592 -1.69479 0.0753992 -0.0681433
3796 9.2876 8.39077 2.19522 0.156617 -2.54225 -1.53024
473 9.93342 7.55364 2.68541 0.449468 0.591758 0.272801
3433 10.4685 7.96636 1.87578 1.1161 0.389688 1.35751
413 11.3587 7.81371 2.48131 -0.85845 -0.740731 1.32493
2899 12.0458 7.62059 1.6254 0.977651 -1.15822 0.551964
136 12.3535 7.56978 2.82603 -0.317165 -0.0975185 -0.311145
1774 13.0061 8.48622 2.24688 -2.21921 -0.808415 -0.559413
2933 13.8482 7.94303 2.51318 1.40555 1.08974 0.125931
1845 14.7592 7.37289 1.91594 -3.04194 -0.880965 0.575952
843 14.9601 8.36201 2.46891 0.944688 -0.817068 1.0026
2050 16.8146 7.81491 1.57994 0.403594 0.300026 0.847813
1937 15.7922 7.59129 2.06558 1.98102 1.39245 -1.05685
735 0.203866 0.71666 3.23499 0.651772 0.339907 -0.808701
3145 1.00176 0.856139 3.9941 0.233644 0.353841 1.07202
2417 1.2958 0.829046 3.06165 -0.301393 -0.226144 -0.622678
773 2.51097 0.817407 3.90618 0.497374 -0.734221 -2.00987
1089 2.54069 0.220466 2.96001 0.225822 -1.3923 -0.855324
75 3.48348 1.23862 3.1435 0.533305 -1.49893 0.18157
1113 3.7382 0.324709 3.53043 1.17228 -2.09072 1.34391
2834 4.80213 0.0481342 3.69109 0.00877749 0.609335 0.455056
871 4.53751 1.12815 3.18377 -1.53531 -0.268807 -0.180218
2585 5.57616 1.08911 4.16707 0.945485 1.12193 -0.31985
2593 5.63825 0.412797 3.17693 -1.21135 0.857738 -0.904442
3691 6.93722 0.91554 2.88578 -1.40208 0.0721722 0.281665
2987 5.81126 0.0990533 4.21942 -0.274088 0.252299 -0.572988
3115 6.61497 0.700299 3.81515 -0.153071 0.774687 -0.0943326
1638 7.71716 0.217429 3.1332 -0.329397 -0.111876 -0.807743
1765 7.5342 0.617541 4.02195 -0.28769 -0.112 1.60379
2804 8.34087 1.15677 3.40261 0.381073 -0.0759708 0.695024
1842 9.77393 1.37182 3.38588 -0.845404 -0.00211629 -0.0181239
3088 9.29919 0.449819 3.57063 -1.3548 0.653521 -0.50786
281 10.7826 0.84319 2.92205 0.0478401 0.000867806 -1.36212
741 10.4332 0.268631 3.73943 0.363302 2.04806 -0.0739829
144 12.3874 0.824669 3.87172 -1.21208 -1.04225 0.343016
847 11.7739 0.13366 3.00754 -0.948119 0.625021 -1.20197
3853 13.8349 0.655914 2.90002 -1.32498 -0.953334 2.26685
1465 13.3835 0.328017 4.00076 -2.40349 -0.449374 -0.246909
345 12.8974 0.0581548 2.88812 -0.90448 0.846295 -1.02653
157 15.4323 0.863073 3.14014 2.09228 -0.180351 -2.06593
951 14.9481 1.41117 4.23215 -0.310004 -0.504778 0.618828
975 14.4461 0.349087 3.75616 -0.61518 0.547634 -1.9977
1242 16.1075 0.62801 3.80139 -1.89349 -0.837318 -0.379776
3841 1.21162 2.66075 3.16482 1.10985 1.42308 1.48884
895 0.4179 1.69216 3.6454 1.59199 0.674808 -0.286592
1178 1.04088 2.3674 4.18865 -0.424555 0.124139 1.34717
60 2.54072 2.19923 3.06493 0.515002 0.17304 -0.729935
2154 1.61737 1.73128 3.56154 -2.10031 -0.659406 -1.68137
1426 4.15539 2.12893 2.89849 -0.578352 1.22952 1.29447
71 3.25509 2.087 3.78833 1.3848 -0.921775 0.559218
717 4.46281 2.66572 3.81861 0.033959 -0.485887 0.139586
476 5.10186 1.98161 3.36935 1.00557 1.18031 -1.60762
2195 6.17892 1.59628 3.37669 0.701487 -1.01246 0.485467
2172 6.12569 2.65511 3.79844 0.983721 0.0627257 0.0369429
2374 7.06328 2.06886 3.68325 -0.128503 -1.119 1.64853
2888 8.04571 1.71279 4.20208 -0.0984734 0.814736 0.129808
3790 8.04301 2.61226 3.50457 0.608732 1.31579 -1.89198
3659 9.91298 2.65333 2.97216 2.35763 -0.00568819 -0.362605
2363 9.90874 2.16539 4.03001 -1.80775 -0.153791 0.78093
19 10.7859 1.57902 3.9455 -0.31546 -0.284357 -2.13371
1318 11.6615 1.43917 3.1751 -0.662029 0.443087 -0.06877
270 11.872 2.41172 3.67731 -0.656348 -1.45502 0.944677
1621 12.8259 2.37139 2.88301 0.146956 -1.23562 -0.0797804
434 14.1237 1.74364 3.6421 2.38798 0.426314 -1.86124
3392 13.7404 2.48042 4.26778 1.98468 0.408832 0.0501635
3664 12.9763 1.76211 3.67077 0.135045 -1.40758 2.29167
1829 15.0166 2.37331 3.25684 -1.51892 0.779739 -1.1275
2492 15.0082 2.50805 4.19447 -0.453197 -1.85169 -0.390095
2351 15.8098 1.77271 3.84853 -0.52513 -1.0011 0.0111707
3121 16.5246 1.45561 3.16463 -1.36467 -0.442371 -1.94561
2886 16.6669 1.71653 4.26578 -0.291119 0.324151 0.408654
2847 16.8634 2.4561 3.31408 0.0495847 -1.51917 1.59027
805 1.10742 4.21228 2.89658 -1.0605 -0.180918 0.806939
3082 1.02237 3.55761 3.65387 0.553875 -0.785106 -0.224032
2945 1.92995 2.95491 3.89103 0.509551 0.479648 -2.14612
2756 2.2197 4.03958 3.63392 0.59727 1.30025 0.438138
686 3.32859 4.25887 3.63004 -1.16147 0.867263 -0.765521
1816 2.87479 3.1715 3.61705 0.682456 0.444917 0.038694
1864 4.64603 4.18037 4.02149 1.4548 0.48949 0.30237
2588 5.1874 3.02081 3.25557 0.363786 1.90406 -0.483684
191 6.97462 3.18485 3.40236 -0.116015 -1.34793 -1.71737
2769 6.09162 3.81266 3.17402 -0.756777 0.66172 -0.719284
3767 6.38057 3.58936 4.15234 0.866707 0.0832253 0.373026
35 8.45943 3.90283 3.40616 -1.38786 0.487729 0.309608
89 7.78574 3.41346 4.04223 0.445974 -1.33229 0.217306
3374 9.06959 3.16295 3.79308 1.33342 -0.555215 -0.368192
1233 11.3362 4.27021 3.41322 -0.605792 0.692379 0.0555572
1413 10.8153 2.90376 3.41602 0.628293 -0.0863489 0.359603
1035 10.0453 3.70303 3.73427 -0.954182 1.17773 -1.37257
1064 10.689 3.86845 2.86954 -0.909183 -0.4971 -1.39426
2077 11.7408 3.39688 3.04511 -0.771152 -1.97121 1.21747
3462 11.7153 3.27783 4.22919 -0.351215 -1.29797 -0.42192
2854 12.2969 4.10021 3.76714 -0.460817 0.114785 2.23623
2551 14.2225 3.20195 3.28537 0.27286 1.84193 0.655961
1548 13.5597 4.09056 3.6809 0.724811 -0.666029 -0.480749
3529 13.0035 3.16866 3.74317 -0.104713 0.163572 2.04088
3247 15.0107 3.67354 3.46438 0.251443 1.49598 0.110744
262 17.0898 3.50743 3.76249 0.404242 -0.0329683 -0.0241584
421 16.0205 3.06913 3.51839 0.0516552 -0.855011 0.669582
941 0.632619 5.169 2.85284 -1.20129 1.75583 0.952659
1770 0.32363 4.76328 3.90944 -1.08627 0.925986 0.700703
1527 1.3677 4.77442 4.00991 0.27511 0.377787 -0.58902
2976 2.75412 4.82201 2.98937 0.434215 0.363328 -1.05041
1003 1.74523 5.40839 3.08177 -1.15827 0.474733 -0.484574
2951 2.62311 5.23229 3.90954 0.436833 -1.76412 0.677471
1989 3.50835 5.5964 3.37928 -0.293854 -1.9935 0.844496
3300 3.94124 4.99013 4.13841 -0.382744 1.58052 0.723902
342 4.3388 4.64949 2.86671 -2.93421 -0.594039 -0.0940574
1992 5.21019 4.98764 3.71752 1.87926 0.743043 -0.211195
273 6.52767 5.65845 2.98959 1.74981 0.297169 0.202678
2788 6.26885 4.89411 3.63203 -1.61415 -0.318953 0.0325222
1643 8.31029 4.90989 3.94932 1.06378 0.132736 0.756348
2369 7.22561 5.49017 3.9527 -0.736269 0.118554 1.52438
1438 7.4393 4.48425 3.30117 -0.0927597 0.499341 -0.0885049
501 9.295 4.8261 3.42961 -1.51156 1.99259 2.95097
889 10.3026 4.71257 3.43733 -0.359879 0.33008 2.74341
3911 11.1237 5.18039 2.85499 0.133418 -0.248498 -1.13757
2512 11.0165 4.96779 4.03935 -0.732788 1.24421 0.467943
506 11.9949 5.13493 3.5726 -0.691704 -1.87185 0.141134
222 13.0168 4.84238 4.2264 0.860576 -0.3114 -0.218563
1269 13.0944 5.09626 3.20764 -0.756959 0.250522 -0.0139754
978 14.0251 5.56798 4.25226 0.0939544 -0.557911 0.0247423
3749 15.1583 4.7184 3.40534 -1.41922 0.78935 -0.867857
3076 14.4266 4.55657 4.20241 1.03285 0.321654 1.20761
355 16.4056 4.36186 3.60533 -1.75454 0.528605 -0.501761
2724 15.9377 5.4765 2.91309 0.420227 0.935952 -1.54096
3450 16.9051 5.55545 3.51606 0.295957 -0.344809 0.735082
1956 0.888426 5.86991 3.57037 1.12784 -1.71159 -0.975976
2883 1.27793 6.81701 3.4382 -0.891272 0.792461 1.37005
2817 0.354635 6.55139 4.11495 0.646528 0.280741 -1.12109
1332 1.7457 5.89212 4.03037 -0.140948 -0.900939 1.4382
390 2.63716 6.20776 2.86572 -0.457475 0.754431 -1.20635
549 2.72855 6.28006 3.97412 1.35977 -1.09692 -1.30535
779 3.75656 6.7892 4.11865 -0.727726 0.670968 -1.45835
316 4.33466 6.28346 3.36443 0.063676 1.11259 2.86356
3737 5.42156 5.80459 2.90698 0.826494 -1.07853 2.08572
1142 5.38878 6.61918 3.54886 0.126681 -0.509302 -0.375671
913 6.12226 6.04018 4.00473 -0.240725 -0.0143354 0.447233
1847 6.88739 6.5473 3.64991 -1.5688 1.10578 1.0503
2868 8.06499 6.73051 3.97875 1.45853 -0.596675 1.49735
3101 8.02133 5.83178 3.05726 0.490473 -0.228544 -0.369432
2798 9.04478 6.07889 3.16406 0.451624 0.654307 -1.80398
745 9.85251 5.8567 3.81254 -0.598221 -2.00422 -1.31868
1464 10.044 6.65733 3.1642 1.30076 1.84641 -1.34717
3318 10.8329 6.13076 4.084 -0.512908 -1.54872 -0.180512
1626 11.1305 6.34021 3.10358 -0.965142 1.71271 0.729027
2303 12.397 6.39402 3.05303 1.4977 0.330845 0.969737
626 11.7788 6.84638 3.84824 1.20907 1.58826 -0.942445
3369 12.8385 7.10185 3.61364 1.50099 -2.27642 -0.0283268
1099 13.0266 5.87915 3.86416 -1.0944 1.08141 1.13615
2748 14.129 5.77654 3.14079 0.598951 -1.15992 0.446075
1979 13.7394 6.62561 4.14862 -0.65793 -0.860319 -0.123448
932 15.1977 6.21598 3.70082 -1.0989 -1.75622 0.966446
2567 16.8531 6.62156 3.18407 0.56251 1.68296 0.246151
2646 16.0304 7.02094 3.67591 1.1285 0.604555 -1.18777
771 0.810634 8.20312 3.07371 -0.555088 -1.05133 -0.398633
1136 0.546934 7.64234 3.90941 0.407238 -0.179584 2.18626
2010 1.57974 7.63339 2.87203 0.810638 1.84708 -0.715829
11 2.83925 8.25465 3.12178 -0.848038 -1.3715 0.572692
491 2.28607 7.18475 3.56883 -0.796159 0.755168 -1.50858
1442 2.45288 8.37909 4.19835 -0.614856 1.22571 0.106883
594 1.56273 7.65712 4.17963 -1.98063 2.10479 0.653842
602 3.89391 8.07755 3.12974 -0.317222 0.375506 0.56345
1640 3.24735 7.61032 3.99849 -0.808315 -0.184477 -1.06962
2035 3.18822 7.24659 2.97937 -1.23867 0.15152 -0.119605
3651 4.39988 7.34279 3.58872 -1.06942 -0.711859 0.67692
2213 5.21743 7.78927 4.10407 0.550954 -0.960994 -1.56737
2198 6.17544 8.18935 3.48492 0.103331 0.439944 -0.765648
1786 7.12983 7.61546 3.50076 0.622825 0.400077 -0.446001
3773 9.11414 8.137 4.0848 -0.454309 -0.00588262 0.882941
2966 8.69964 8.14715 2.96226 0.270177 0.137708 0.931015
3431 9.1324 7.212 3.46833 -0.0713639 1.11878 0.591505
3622 10.796 7.21711 3.67083 -0.423743 0.329963 0.0932963
2924 11.4776 8.24656 3.64724 -1.34837 -0.729034 -1.35324
3417 12.3521 7.96589 3.92145 2.3407 -2.7443 0.0473286
1503 13.2631 8.26012 3.36193 -0.421408 0.659625 -0.150869
3499 14.087 7.37827 3.50795 -1.90509 1.03615 -0.725072
188 14.3406 8.45182 3.32209 -0.0968772 -0.219482 1.81167
2903 14.874 7.16555 4.2501 -1.06394 -0.456904 -0.631505
1303 15.3306 7.58341 3.00501 0.759542 0.072942 -1.16998
998 16.6491 7.66985 3.13236 1.38217 0.931944 0.451327
3791 16.7781 8.25795 4.17035 -1.80251 0.102636 -0.506501
49 15.7692 8.08196 3.88705 -1.74606 0.0305531 1.10606
2433 0.655999 0.539476 4.97264 -1.10515 0.0820435 -0.0573827
1612 1.65145 1.35834 4.80378 -0.283832 0.632996 -0.175635
2784 3.50472 0.876636 4.27673 0.369119 1.37897 -0.604425
1662 2.88001 0.46788 5.32448 -1.70534 1.27263 -1.59889
958 3.83 0.401658 5.69076 1.18229 -1.06119 0.223812
2487 3.41293 1.35468 5.12446 -0.123487 -0.799326 -0.482643
1651 4.46997 1.30064 4.3822 -1.59174 -1.32172 0.629288
2165 4.99812 0.563244 4.91066 -0.0509242 -0.0119728 0.0647315
3641 6.69411 0.655097 4.98785 -1.51249 1.27232 0.106949
1209 5.86767 0.320319 5.58086 1.53338 -0.41797 -0.308673
662 8.34107 0.33414 4.75727 -1.20376 0.296508 1.10015
3117 7.76717 0.887219 5.40749 1.92193 -0.762429 0.176373
2758 9.37823 0.707933 5.40394 -1.30694 0.114873 0.831729
3236 9.86133 1.02673 4.33957 0.46215 0.702751 -1.02001
2449 8.83758 1.28583 4.55287 -1.06126 -0.991794 -0.0780184
3347 11.1752 1.33874 5.03085 -0.597238 0.9693 0.840493
3643 10.3595 0.438776 5.07329 -1.27639 1.75777 0.111643
418 12.2118 0.78867 5.12668 -0.501081 -1.2285 -0.215056
947 11.5602 0.00768083 5.64143 0.186561 -0.560759 1.60061
2497 11.4763 0.442273 4.42946 -1.65475 -0.258422 0.166245
1547 13.9388 0.288145 5.00388 -0.343883 0.600319 -0.125285
2001 13.3117 1.03788 5.53964 0.179685 -1.78652 0.967801
1844 12.9125 0.0265816 4.95635 -2.35774 -2.34146 -0.837657
3390 14.9446 1.10451 5.17997 -0.597928 -0.358396 0.505656
3334 15.3048 0.314143 4.46125 0.419034 0.0385197 0.866592