ITEM: TIMESTEP
63000
ITEM: NUMBER OF ATOMS
4000
ITEM: BOX BOUNDS pp pp pp
0.0000000000000000e+00 1.7099759466766969e+01
0.0000000000000000e+00 1.7099759466766969e+01
0.0000000000000000e+00 1.7099759466766969e+01
ITEM: ATOMS id x y z vx vy vz
597 0.486386 0.879507 0.641331 0.561386 0.791821 0.30995
963 1.50247 1.42496 0.928848 1.54159 -0.607465 0.443088
2707 1.62634 0.272266 1.02003 -0.137625 -0.691692 1.83085
2305 2.77092 0.027899 0.159852 0.483644 -0.437927 0.542865
158 2.32856 1.38748 0.375574 0.0830909 0.755443 0.344545
1884 1.52941 0.64876 0.030476 -2.01142 1.37033 -1.16845
295 4.04599 0.731064 0.0430604 -0.297647 0.304357 0.30769
1222 4.07969 0.952562 1.16423 -1.32674 0.113182 -1.41181
3514 2.90569 1.31499 1.22944 -0.573045 0.3499 -0.505894
1635 4.9669 0.878187 0.737794 0.850303 -0.0987158 0.796759
829 6.04118 0.133667 1.17644 1.34954 -0.0291676 0.409172
743 6.2201 1.39675 0.905758 -3.51248 -0.46553 -2.70153
2780 6.44994 0.458416 0.345883 -0.617779 0.404892 0.760438
3327 7.9906 0.38339 1.2119 0.805121 -0.201068 -0.32775
2515 7.23584 1.01212 1.00714 1.87514 -0.506523 1.0943
1611 7.8919 0.712296 0.0395075 0.195929 -0.836516 1.12044
1762 9.63563 0.258627 0.470668 0.422896 1.2344 -0.469282
270 8.68417 1.05314 0.821959 -0.13851 -0.338427 0.629094
3954 9.90729 1.33282 0.901154 1.09974 0.126106 -0.23554
2324 11.092 0.987343 0.791002 0.899075 -0.714753 -1.51313
2387 10.5829 0.102873 1.24451 0.339865 -0.159116 -0.25702
2649 12.3912 1.14513 0.649344 -0.152238 -0.909497 1.07178
2227 11.5936 0.131499 0.484793 -1.41537 -0.971022 0.47108
677 13.4974 0.690922 1.16492 0.630572 1.58558 -0.471852
327 14.5752 0.804736 1.36938 0.0549426 0.182708 -0.821724
2418 15.1515 1.37119 0.667437 0.279154 0.923032 -0.676831
2066 14.5192 0.491354 0.270489 -1.71741 1.6606 0.74991
2145 16.5646 1.02796 0.99624 1.11629 -0.175106 -0.766281
1512 16.8328 0.251867 0.260555 0.251141 -0.818351 -0.976707
3855 15.7177 0.438665 0.0895173 -0.288417 0.212325 -0.103086
2176 1.07115 2.66783 1.0719 -0.425123 -0.859372 1.35385
1539 0.619578 1.88964 0.440479 -0.789265 -0.592115 -0.759793
1608 2.38628 2.23699 1.13716 0.193292 0.363083 0.668766
3846 3.65583 2.07092 0.899666 0.0649154 0.569522 -0.531861
1580 4.62677 2.04904 1.11064 -0.279098 -0.834089 -0.0343648
463 7.00183 2.15615 0.568352 -1.62691 -0.248638 -0.739865
2703 8.34337 1.84638 0.32524 -1.03181 0.144015 -0.298151
588 7.95688 1.69579 1.26751 0.258092 0.850012 -0.573385
1610 9.32337 2.33454 0.254799 0.736201 0.746016 0.153227
3374 8.98716 2.08762 1.20867 0.794353 -0.374199 0.695334
2846 10.5268 1.95029 0.180326 -0.478676 -0.325652 -0.993587
3555 12.4581 2.34269 0.438866 -0.668966 0.0271957 -0.424951
301 11.5818 1.92759 0.359528 -0.710831 0.894809 -1.15961
1521 13.6064 2.67636 0.434765 0.0233893 -0.223949 1.31596
1437 13.4388 1.79311 1.25032 0.065516 0.36901 0.0691359
935 14.1429 1.78175 0.372339 1.15215 0.520071 -1.35707
3637 14.8202 2.45574 0.596923 1.47741 0.196923 -1.21776
1170 16.7635 2.30279 0.860911 0.666895 -2.01437 -0.875498
1913 0.842721 3.39552 0.14971 -0.816396 -1.6186 1.37305
3795 2.74134 3.20996 1.27443 -0.514293 0.022363 -0.890808
1840 1.84699 3.09322 0.420997 0.993485 -0.718271 -1.30244
1628 1.89108 4.05416 0.699515 1.79671 -0.178207 -0.48916
1856 3.74889 3.04846 0.688861 1.41342 1.07157 0.166675
1182 3.11101 4.00332 0.634153 0.159376 1.74679 -0.170554
1452 4.1483 4.05451 0.21788 1.19415 0.036438 -0.655285
3175 2.86621 3.18967 0.0174249 -0.807943 0.0273163 2.17396
1879 4.92995 3.06953 0.489458 0.156527 0.567406 -0.66499
3254 5.76804 3.74707 1.07352 0.122814 -1.47781 -1.02807
1383 6.64385 3.27511 0.671691 -0.648554 0.311425 -0.00588626
1760 7.00709 4.05061 1.22122 -1.03013 -0.371013 0.0868517
300 8.31875 2.86133 0.279117 -0.296188 1.32045 -1.24246
1980 8.06954 3.41479 1.04462 -1.24371 -0.583308 0.0270292
1862 7.5712 3.80088 0.193573 0.765768 0.212366 0.44273
274 9.79888 3.24593 0.195894 -1.19852 0.731376 -1.01658
3704 9.22918 3.77528 0.916786 0.403124 -0.807352 -1.77113
3551 10.2547 3.58946 1.15413 -0.167636 -0.158204 1.23781
1557 10.9086 3.59913 0.343823 -0.321375 0.856123 -2.11211
3706 12.6136 3.38467 0.230348 0.869505 0.197739 0.411025
3161 12.4543 4.18927 1.07463 0.169466 0.0749964 1.17368
1909 11.6672 3.35777 1.17396 0.53331 1.47109 -2.85166
2384 11.8196 4.05977 0.158918 -1.22359 0.0596392 0.149304
832 13.4596 3.70829 0.825598 -0.538832 1.05768 -0.389549
1545 14.3772 3.5681 0.199844 -0.795724 -0.129336 -0.728798
3890 15.0081 3.56474 1.05163 1.28734 0.39787 -0.0561968
3711 15.5475 3.17988 0.147441 0.616768 0.585498 -0.544019
2480 17.0699 3.35746 1.14026 -0.255598 -0.826466 -0.458996
262 15.8622 2.92818 1.09076 -1.33059 -1.9157 -0.330586
2045 16.812 3.11293 0.132795 -1.10548 0.537428 -0.1064
3324 16.2273 3.86889 0.822157 -1.81977 0.784648 0.786772
2160 0.422971 4.53555 1.0795 -0.255283 -1.13287 -0.794621
2685 0.833912 5.45237 0.71983 0.715377 -0.472015 -0.316817
465 1.89552 5.19181 0.352432 0.562466 -0.165849 -0.283153
1446 2.85078 5.57966 0.58007 0.181785 -0.341451 0.491608
1779 4.18769 5.47204 1.0884 -1.84173 -0.818448 -1.85687
3090 3.93297 5.339 0.139298 -0.0773905 0.127211 1.70594
72 4.59162 4.4392 1.3219 -0.833781 -1.85658 -0.621627
779 5.34512 5.11277 0.798006 0.285211 -0.678313 -0.642317
2335 6.76523 5.52684 0.721326 -0.640719 0.811473 1.0548
3087 6.14904 4.52055 0.526595 0.321963 0.220664 -1.39942
1408 8.48696 4.52282 0.602531 0.947063 1.29758 -0.311313
1919 8.01159 5.58603 0.996737 -0.861264 -1.45629 -0.521847
3260 7.59554 4.85358 0.522665 0.863554 1.0337 0.556563
2775 9.65629 4.85995 1.16616 1.57157 -0.484823 -0.624518
16 9.16111 5.41819 0.127294 -0.122821 0.699642 0.822343
888 10.2672 4.56313 0.207378 -0.549312 -1.50446 0.394739
2576 11.1238 4.58748 0.991133 0.0160688 0.468089 0.175861
737 10.3106 5.68216 0.468394 -0.142806 0.698649 1.09492
2248 12.5483 5.4118 0.912101 0.616423 -0.47525 1.10788
2204 11.4825 5.56483 0.477362 0.0113671 1.93734 -0.758151
932 13.0213 4.73064 0.323582 0.12707 0.446161 -0.0908673
459 14.1697 4.67305 0.686908 -0.86955 0.801543 1.15457
1805 15.2598 4.40864 0.444414 0.561185 -0.263468 -0.107606
421 14.8455 5.42973 1.16761 -1.01261 0.254182 -0.244768
2308 16.301 5.07429 0.161356 -0.635952 -0.517472 0.550434
920 15.74 4.97419 1.08189 -1.69935 -1.01671 0.179901
2611 17.0497 4.44438 0.0326517 -0.882845 -0.555368 -0.164306
2247 16.7424 5.38054 1.25937 0.0976356 0.32398 1.17915
667 0.705548 6.50014 0.851668 0.908888 -0.0578718 1.32362
178 2.47031 6.6112 0.942622 0.472872 1.53053 -0.689855
3135 1.61836 5.98271 1.2051 0.819402 -0.157024 -1.49582
1989 1.52626 6.69873 0.0313092 0.0702837 -0.0262198 1.22484
549 3.39653 6.24155 1.33842 0.636487 0.73844 -0.28899
8 4.91723 6.81011 1.26682 0.37489 -0.547907 0.48808
1419 4.55382 6.3758 0.350679 0.48561 0.707135 0.00658107
989 5.56118 6.14883 0.502501 0.394487 -0.114038 0.302956
213 6.3925 6.62299 0.415246 -0.378516 0.860199 1.08456
1495 5.97498 7.09213 1.39143 -0.899775 -0.607539 -0.216191
2529 7.92144 6.52139 1.37336 1.08783 -0.486947 -0.973782
1950 7.64132 6.48129 0.0672811 0.795988 -0.115664 0.113342
3443 9.22888 6.99038 1.36454 0.0281362 0.182933 -0.33084
3068 9.90823 6.58574 0.724955 0.338201 0.498068 -0.26166
1152 8.69661 6.3176 0.603975 -0.240489 -0.145958 1.68814
3509 10.8822 6.21421 1.1921 -0.52391 0.718748 0.199442
4000 11.5102 6.79965 0.615579 -0.627512 0.745832 0.219925
3474 12.4217 6.41279 1.35734 0.29222 -0.989713 -0.989491
940 13.1116 6.12837 0.448984 1.07095 0.248218 1.00373
2664 12.8986 7.0055 0.0861394 0.533947 0.740379 -0.458008
3603 13.7614 6.13912 1.29581 1.54441 -0.212229 0.294814
432 14.1016 6.82982 0.68441 0.587492 -1.20731 0.69398
337 14.0951 5.71716 0.442954 1.56566 2.48442 -0.622303
3223 14.9731 6.44184 1.05213 -0.461285 -1.07016 -0.813756
132 15.6072 5.92911 0.406383 -3.02517 -0.386632 -1.65533
1602 16.7676 6.23042 0.411725 -1.82393 0.496083 -0.29276
2577 16.0332 6.87563 0.660015 -0.348368 0.225178 -2.05569
1710 16.8337 6.46507 1.41711 0.37542 -0.602766 -0.615806
664 0.0146533 7.20031 0.29112 -0.680888 1.59583 -0.0186954
954 0.892162 7.74631 0.930587 0.472575 1.70403 0.536604
91 0.391464 8.50239 0.245741 0.301409 1.00764 -1.06918
1161 2.00441 7.45947 0.613958 1.41046 -0.264424 -0.386139
1520 1.78445 8.15637 1.40359 -0.873262 1.80037 0.891757
479 3.8138 8.41498 0.52074 -0.932255 0.616739 1.45789
212 2.91066 7.84119 1.00026 -0.0493207 -0.508879 0.250913
3250 3.97591 7.1909 0.882176 -0.59056 0.354026 0.541616
2125 5.29963 7.26362 0.43288 -0.0542704 0.583269 1.51436
1769 4.56648 8.08991 1.35096 -0.256606 -0.18977 1.02103
2288 4.92098 8.32694 0.11808 1.65834 -1.28245 1.38525
3267 6.21379 7.87136 0.621309 -0.885361 -2.27675 0.758999
2007 8.06655 7.22424 0.680652 0.472989 0.691023 -0.951319
498 7.20442 7.57609 0.346981 0.614552 1.03389 -0.988916
162 7.78307 8.3943 0.154625 -0.194806 1.82424 0.127209
2887 7.29122 8.18386 1.09582 -1.75944 2.03869 -1.0402
140 9.75588 7.90878 1.20653 -0.960921 1.00482 0.970793
1010 9.15903 7.34558 0.281187 -0.421891 2.00162 -0.987542
2774 9.08421 8.50882 0.328982 -0.995735 -0.491238 -1.06606
1747 8.73546 7.94001 1.08337 -0.102958 -0.962049 0.915776
2899 10.5823 7.2501 1.19341 2.6446 3.06727 1.71155
1590 10.8559 8.4599 1.07122 1.09771 -0.811928 0.597106
332 10.3584 7.71728 0.257744 1.55298 -0.549113 0.0786607
464 11.4521 7.92767 0.488428 0.0295873 0.198205 -0.0501573
3911 12.3399 7.47741 1.00332 0.441968 0.201666 2.11044
754 13.31 7.96741 0.602193 0.990587 0.312896 0.522248
2773 13.9404 8.1666 1.33071 1.62674 -0.0688576 -0.314577
1212 14.9693 8.4754 0.676261 0.841946 -0.286981 -1.97926
1845 14.9549 7.32705 0.349005 -1.27105 0.608132 1.01643
3103 16.9747 8.22237 1.23075 1.73129 2.36549 -1.50875
2013 15.7588 7.84301 0.987549 0.602961 0.263802 1.37956
361 16.3282 8.48082 0.275382 0.196653 -0.0212613 -0.883158
2206 0.673302 0.857945 2.05648 -0.60407 1.75984 -0.431331
3467 1.97703 0.435648 2.11266 -1.77236 -0.383319 -0.456521
977 3.05506 0.840074 2.11932 -1.00847 -0.518797 -1.00517
1976 4.8273 1.26493 1.82101 -0.715043 -0.333113 0.160231
3119 5.04809 1.32171 2.75186 1.40179 -0.71097 0.234971
1041 5.20522 0.187576 1.90571 -1.48202 0.878409 0.851741
3457 6.22374 0.0667218 2.42042 1.24032 -0.944213 -0.915293
2747 6.0544 0.983595 1.94513 -0.379614 -0.529613 0.20686
525 7.07092 1.13962 2.46571 -0.409137 -0.0190058 -0.363966
120 7.16041 0.208158 1.87037 -0.0613507 0.292073 0.740038
3659 7.96006 0.404531 2.79378 1.31156 0.117186 1.25244
3819 9.67844 0.454828 1.7152 -0.763456 0.0943148 -0.118616
3669 9.38652 0.891168 2.73424 -2.31706 -0.182984 0.762874
34 8.80445 0.0449683 2.2894 0.527414 -1.2531 0.63239
1547 10.0385 0.0382179 2.67291 -0.698104 -0.141008 -0.198313
3853 11.051 0.341877 2.10825 1.19071 0.069922 0.709512
2434 12.1036 0.160251 2.8059 -0.408335 -1.41741 0.110026
1463 11.867 0.657641 1.46817 0.980334 0.155742 1.14984
1349 12.7373 1.16711 1.84659 0.808351 -1.02779 0.073031
1621 12.8191 0.0795716 2.07656 -1.07632 -0.0145472 -0.0432598
851 13.0312 0.892232 2.84366 1.65112 0.419453 0.450265
3121 13.8089 0.862924 2.12693 -0.974539 0.723134 -0.704541
1454 15.5991 0.852479 1.56442 -1.16795 1.97104 -0.0561507
1708 14.8882 0.728425 2.38568 -0.0651802 -0.39691 -1.74647
893 16.8126 0.335237 2.10202 -1.81085 0.927159 -1.1634
3036 16.1077 1.07525 2.52227 0.406863 -1.02752 -0.622761
1965 1.08693 1.84765 2.38613 -0.449171 0.0255532 0.86945
4 0.387637 2.38271 1.88819 -1.19331 0.211879 -0.578834
2548 2.00255 1.57099 1.93235 -0.958522 0.729286 0.888265
1043 1.66264 2.60833 1.93689 0.458162 -0.771322 -0.292814
3670 2.92933 1.87088 2.25677 -0.566391 0.43175 0.303723
3407 3.88221 1.89976 1.89077 1.5572 0.109792 1.13562
3336 5.62168 2.12804 1.54671 -0.0801349 -0.490096 -0.371101
2693 4.74006 2.2167 2.247 -1.35276 1.53451 0.973636
478 6.36809 2.71498 1.48014 -0.685911 1.12778 0.0194281
2588 7.08201 1.95114 1.79227 -1.0477 -0.392434 -0.0211599
191 8.13109 2.58531 1.94449 -1.59746 -0.709042 0.860434
2654 7.41952 2.16232 2.79313 0.317112 0.814092 1.12257
3363 8.69047 1.56396 2.05942 0.0115746 -0.585276 -1.63829
2410 9.10731 2.37802 2.69415 0.644262 -0.956674 1.1776
2692 9.83958 1.7413 2.08422 0.108163 -0.445356 -1.21238
1090 10.0715 2.68828 1.57976 0.110378 -0.221162 0.846245
1605 10.7357 1.52051 1.6663 1.56101 -0.602107 0.36054
2077 11.0975 2.10976 2.64597 0.0265807 -0.750831 -0.468404
3672 12.1214 1.4405 2.8279 -1.0725 -0.394572 0.180314
1648 11.9063 1.84717 1.4734 -0.897747 -0.166081 0.0395639
3204 12.7604 2.18786 1.91747 1.08434 -0.252159 0.583975
3484 11.9911 2.65094 2.71277 -1.41902 -0.764016 0.828911
2853 13.2681 1.99106 2.764 -0.612274 1.02739 -0.58123
687 14.2716 2.15057 1.82087 0.264717 0.0830471 -0.449852
3924 14.2825 1.71439 2.72245 -2.53251 -1.10568 0.30806
1258 15.3407 1.81032 2.33354 -0.528993 -0.694929 -0.673644
3020 16.3868 2.50071 1.85021 -0.16395 0.435755 0.00675709
3200 17.0492 1.66555 2.32206 -1.70043 0.837259 -0.454472
2075 0.835119 3.6008 1.6257 -2.3103 -0.755455 1.89818
3688 2.77681 2.86919 2.33508 0.336627 0.307226 0.0377866
1414 1.77815 3.7403 1.74767 0.369791 1.4683 -0.489908
992 2.79865 3.91279 2.08461 0.688227 -0.266677 0.582144
891 4.04512 4.17983 2.67647 0.915151 -0.447702 -0.214664
2735 3.61473 3.37169 1.92739 -0.713822 0.816614 -0.149261
1524 5.31503 4.21952 1.93727 1.93884 -1.29557 1.62313
476 5.06822 3.10823 1.74507 0.629936 2.15698 0.400077
3821 5.89942 3.50458 2.38211 0.636912 1.4743 1.18518
618 7.51205 4.12115 2.13649 -0.206066 -0.0623413 2.03016
2374 7.19666 3.13031 2.06684 -1.06138 -0.403892 0.185782
1958 8.14299 3.5735 2.60092 0.582516 0.546035 -0.304695
2640 9.17184 3.24061 1.89616 -1.15566 -1.6861 0.0279383
3392 11.3313 2.87664 1.96088 -1.75694 1.39871 0.851168
2354 10.1926 3.50653 2.2966 0.398747 -0.627504 -1.08943
1831 11.573 4.22278 1.89719 -0.840256 0.252965 1.02946
3440 12.1461 3.39454 2.02774 0.3533 0.190487 -1.05469
547 13.0054 3.08256 1.45158 -0.973243 -0.834953 -0.470561
1687 13.3309 3.82731 2.01311 1.07025 0.684888 0.662902
1290 14.0143 3.0963 1.51294 -0.333219 -0.249642 0.121667
3433 12.9526 2.98527 2.47868 -0.0763875 -1.57081 0.111533
434 13.9914 2.85217 2.58904 1.80429 0.0877232 -1.72206
2826 15.6477 3.17944 2.21004 -0.51503 0.264397 1.26423
2564 14.855 3.81811 2.48977 -0.293679 0.175751 1.5379
1375 16.6806 3.91057 1.77591 -0.0974895 -0.0923351 0.441381
3664 16.798 3.20161 2.47835 2.64979 2.55295 -0.00681534
2756 0.481924 4.61651 2.14229 -1.7088 1.16289 0.157652
2976 1.38717 4.76718 1.46786 -2.12691 -0.0735484 -0.478039
1005 0.59368 5.48888 1.73132 -0.608614 0.180601 -0.433198
978 0.0980279 5.62171 2.54024 1.10599 0.222625 1.66983
424 2.56299 5.26181 1.53903 0.874115 0.577987 -0.365517
271 2.04046 4.65949 2.32824 -0.80555 0.79364 0.72533
3039 1.96926 5.65542 2.57307 2.14291 -0.0566016 1.13699
3801 3.37239 4.49272 1.56882 -0.154018 -0.206512 0.572235
1864 4.12717 5.24618 2.24725 1.50854 0.115695 1.76213
1325 3.07698 4.813 2.78073 0.883674 0.817577 -1.0419
3919 5.30661 5.41475 2.22037 -0.942924 0.8737 -1.96715
237 5.9806 4.64599 2.78114 -1.33884 1.51194 0.0521192
3009 6.35058 4.88311 1.46003 -1.15228 0.991942 -0.112501
640 6.64272 5.31487 2.4716 1.10328 -0.299101 0.518104
97 7.89838 4.88176 1.67304 0.992489 0.746786 -0.763272
2067 8.88082 5.17983 2.40358 0.457455 -0.259795 -1.33472
1438 8.73339 4.32649 1.79848 1.00256 0.293856 1.95359
321 9.62884 4.43377 2.43847 -0.164521 0.14448 0.625434
3057 10.4077 4.66302 1.84815 0.311633 -0.146286 1.27182
2431 12.4034 4.8614 1.77786 -1.84158 -0.187447 0.277119
2303 12.2553 4.2932 2.76314 -1.45419 0.260318 0.163762
1661 11.6319 5.10206 2.52662 -0.029844 1.20717 -1.43202
2476 11.5998 5.52958 1.45896 1.12334 -0.0419645 -0.408426
106 13.4154 5.06673 1.52189 -1.87868 0.0668474 -0.462085
805 14.2249 4.53219 2.75023 0.638008 1.18253 1.01396
2412 14.2308 5.36661 2.09866 -0.680917 0.0169088 -1.62525
1344 12.9485 5.02503 2.79634 -0.554302 0.0690929 -0.980656
3841 15.3565 4.53001 2.09985 0.777895 -0.983338 -0.578185
2800 14.4705 4.37293 1.60663 1.23904 -0.483966 -1.14159
3844 15.2999 5.52534 2.49858 0.171378 -0.0305118 -1.9983
3082 16.2621 4.99068 2.09686 0.73918 1.56414 -2.70679
524 0.478632 7.09642 2.82735 0.214393 0.917827 -0.312493
2817 1.13722 6.21392 2.25279 2.28734 0.81202 0.253047
688 1.47275 7.06409 1.43265 0.0682578 1.92624 -0.613176
3910 2.12085 6.55757 2.06876 0.0764615 -0.23283 -0.273952
2782 3.15683 5.98041 2.20372 -1.39771 0.103552 1.08415
3710 3.14858 7.09842 1.75518 -0.88971 -1.09284 0.210188
3651 3.55398 6.73942 2.66661 1.27252 1.29604 -0.825142
552 4.40156 6.1905 2.00299 -0.86804 1.285 -0.420333
2722 5.45411 6.72033 2.45351 -0.711395 2.41951 -0.451614
1264 5.72601 6.13219 1.57373 0.593997 -0.391036 0.650769
1265 6.41325 6.33667 2.59912 0.71013 0.91622 -0.93424
190 6.97971 6.1393 1.55556 0.256286 -0.470697 2.30311
2302 8.09861 5.96283 2.26343 -0.707778 0.579695 -0.548282
2079 7.45157 6.75108 2.6415 -0.0330264 -1.84986 1.09797
3660 8.97112 6.06317 1.61095 0.450605 0.657852 -0.0761167
1249 9.9403 5.77679 1.54226 0.868773 0.89039 -1.50057
765 8.89014 6.60552 2.44706 1.00442 -0.555387 -0.202132
3316 10.0536 6.86905 2.19833 0.780166 -0.00903637 0.639965
174 10.7675 6.04725 2.16318 -0.706641 -0.933166 0.467025
2215 12.3234 7.04571 2.45717 0.568491 1.51819 1.07586
2266 11.5377 6.94378 1.74243 -0.809465 -0.147905 0.570704
189 13.778 6.43456 2.48973 -0.598171 -1.04663 0.120949
2903 13.3186 7.11565 1.52255 -0.37388 -0.97978 2.20673
626 12.8353 5.89355 2.29637 0.716311 1.69841 0.328652
843 14.6938 6.89349 2.08103 -0.623286 -0.909348 2.27984
707 16.2402 6.37523 2.67639 1.40185 0.902737 0.099432
2551 15.7473 5.91653 1.55109 -1.27686 0.458247 0.0708855
401 15.866 6.93432 1.78906 0.884355 -0.280022 -0.833313
491 0.393877 7.16501 1.58501 -0.597154 0.57492 -0.460202
842 0.446277 8.12531 2.72818 -0.282083 -0.253154 -1.17527
2291 1.2897 7.65601 2.36773 -1.05581 0.843876 -0.029149
1591 2.35023 7.70814 2.26219 0.806647 -0.239459 -2.00149
2032 3.58235 7.97474 1.77211 1.33169 0.0187096 -1.13695
2074 4.41743 7.37288 1.97057 2.85574 -0.065278 0.623217
1585 5.34659 7.89666 1.95178 0.0705668 -0.900563 2.52929
3760 4.54931 8.51571 2.51894 -2.05681 -1.18384 0.241375
2550 7.01448 7.18749 1.51787 -1.25974 -0.449651 -0.442234
1833 6.27098 7.50999 2.49098 -0.129634 0.613782 0.168566
2561 6.44633 8.15416 1.81473 -1.31918 0.191675 -1.20709
3580 8.1536 7.32754 1.95875 -0.0264787 -1.15141 1.16913
1854 7.27844 8.0793 2.53686 -0.111933 -2.67888 0.0974642
1286 7.991 8.48756 1.74242 -1.18166 0.237391 -1.47301
3144 8.84397 8.49612 2.38033 0.400598 -0.946555 -1.2162
562 9.35224 7.64052 2.23545 -1.47829 0.199161 -0.0138837
3695 10.6802 7.75784 2.18483 -1.82012 -0.88712 -0.945841
368 12.7058 8.104 1.86805 1.38982 0.0233152 1.42986
1217 11.7267 8.06133 1.65936 -0.0771382 -1.73521 -1.42895
575 11.5648 7.90417 2.70718 2.39782 0.857596 -0.034702
413 14.017 7.50248 2.49766 1.47732 -1.07303 0.255061
3259 13.6067 8.42477 2.63947 0.29344 0.60983 1.37264
639 14.7798 7.68375 1.49173 -0.0417236 -1.42134 -1.63061
1008 14.6144 8.54137 2.335 0.284579 -1.15273 0.612494
2724 15.5685 8.19597 1.98687 -0.631205 1.06213 0.0368597
36 15.5332 7.3176 2.74109 1.9655 0.439372 -0.612529
1400 16.6217 7.65624 2.19355 0.253035 0.982055 -0.300287
2425 0.169575 0.744737 3.07598 -1.2618 2.06619 -1.51724
250 1.40948 0.177442 3.84578 -0.466668 -0.499504 -0.548064
2472 1.53055 0.901623 2.85039 -0.985018 -2.34021 1.09703
982 2.51387 1.16209 3.45372 0.277829 -0.513642 -1.84116
1534 4.20936 0.231115 3.45378 -0.702543 1.25056 -1.1716
3373 3.80954 1.38123 2.8512 -1.00226 0.712782 -0.288504
2665 2.91173 0.163533 4.08795 -0.258673 1.62871 -0.782484
2523 3.27918 0.467256 3.01398 -0.382776 -1.90292 0.831849
785 3.60812 1.02432 3.83028 -1.83608 1.42415 2.3945
2195 5.31611 0.289883 3.04051 -0.896918 -0.386345 -0.11601
958 5.06285 0.0608084 4.15358 0.0462263 1.25359 -0.921206
2652 4.75074 1.23154 3.79966 1.38656 -1.28462 -1.64734
1765 6.12686 0.864609 3.38018 0.0840678 -0.834765 -1.15422
2400 6.93186 0.106672 3.39212 -0.318277 -1.09644 -0.916257
3713 7.44523 1.17924 3.86107 -1.04389 -0.477342 0.0775789
2363 9.64622 0.313402 3.62421 0.0440114 -0.248475 1.59412
3579 8.71331 0.527179 3.48666 -0.277681 -0.054673 0.229949
2451 11.1429 0.16808 3.20533 -0.500854 -0.621832 0.997409
2959 10.3351 1.13133 2.9646 -0.466405 -0.882909 0.792404
240 10.0087 1.22284 3.9789 -1.25286 1.81203 0.0681732
2537 11.2297 1.25351 3.32958 0.0611814 0.8351 1.71342
3269 10.5736 0.239437 4.20872 -0.0638602 -0.889815 0.476169
860 12.6791 0.179389 3.79053 0.0337137 -1.06022 -0.713387
3960 12.0315 1.37088 4.04722 -0.123554 0.0234369 1.21383
1535 13.2598 1.33323 4.00788 -0.617676 -1.11562 -0.980552
3615 14.0917 0.87632 3.33785 -0.21627 -0.0880051 -0.958613
2898 15.0631 0.0756239 3.24783 -0.282592 -1.03975 0.686332
2519 14.8745 0.833371 4.12712 -2.01683 -0.582074 1.07869
71 16.7172 1.39198 3.65446 0.419115 2.23119 -0.922916
735 15.9344 0.709211 3.38967 -0.27684 0.17677 0.767008
2154 16.8936 0.303379 3.95471 -1.3616 -1.17161 -0.357862
201 0.883024 2.77675 3.01538 0.0882237 -0.858597 0.0384232
3638 0.672969 1.82885 3.40097 -1.10508 1.60896 -1.04134
482 2.06586 2.07216 3.01763 -0.141611 -0.749967 -0.0562128
495 2.5655 2.82543 3.81068 0.00401923 -0.642563 -0.301877
60 3.19532 2.18852 3.29538 0.230714 0.624457 -0.367401
2734 4.13944 2.04546 3.69038 1.36092 -0.302592 1.10317
2804 5.30249 2.17796 3.68384 -1.48064 1.66738 -0.450032
2331 6.23497 2.71906 3.10706 0.0936353 1.03505 -3.07147
2751 6.75439 2.0371 3.6306 -1.58227 -0.145386 2.50037
2585 5.85295 1.51582 4.24281 -2.73876 -0.793449 -1.38269
3627 8.27811 1.52393 3.37341 0.240583 0.682541 -0.255527
2808 8.38086 2.81092 3.26868 0.567541 0.597124 0.00100367
468 7.91647 2.22138 4.20329 0.988979 1.41126 -0.030524
1413 9.25336 2.38523 3.98832 0.409088 -0.731052 0.724789
844 10.1435 2.27311 2.94596 -1.11008 1.81132 0.0746875
2999 11.4536 2.37918 3.69241 1.23793 0.471153 -1.45438
2237 12.7358 2.3177 3.59193 -0.187465 0.14923 0.488349
359 14.0774 2.2292 3.57268 0.636991 -1.33602 -1.57497
956 14.9219 1.65202 3.44858 0.446636 -0.274569 -0.187949
3802 14.9957 2.63819 3.07781 1.52236 0.757766 1.69897
3768 17.0319 2.59983 3.31003 -1.60472 0.24164 0.12765
3247 15.9724 2.28958 3.35232 0.15394 0.077289 1.16626
791 15.8536 1.64258 4.1383 -0.756177 1.60603 0.555199
1987 0.514819 3.82922 3.09009 0.508913 1.44272 0.981108
773 0.49763 4.08831 4.17856 0.435633 2.05686 0.313336
797 0.512533 3.04244 4.05403 -0.220907 0.199904 0.75162
2867 1.94561 3.0416 2.97103 -0.324473 -0.680802 -0.626659
1693 1.65161 3.98027 2.98623 -0.812288 0.75682 -0.847595
1816 1.55914 3.24813 3.85917 1.23666 -0.0119753 1.6916
686 2.53405 4.06812 3.5748 -0.907972 1.33868 1.12888
342 3.78838 2.9188 2.96173 -2.71139 0.429595 -0.0409024
871 3.55114 2.91246 4.1185 0.329546 -1.43579 0.454836
2784 3.51809 3.81574 3.80228 1.43901 1.21126 -0.0538174
651 4.80218 3.94258 3.90191 1.33533 -2.92644 1.64352
199 4.60008 2.98269 3.70261 1.08146 -0.0575747 -1.7219
2940 4.87299 3.58366 2.86194 0.996448 -1.02643 -0.424796
1992 5.86131 3.57637 3.38383 -1.09436 2.16698 0.241635
35 6.69221 3.87906 3.99662 1.05786 1.02344 -2.12434
2449 7.02542 3.98307 3.02652 -0.104266 -0.631567 -0.485749
3115 7.401 3.08376 3.10556 -1.31471 0.240647 -0.685453
3837 8.46258 3.64202 3.88127 -0.212311 -0.901195 -1.40078
3011 9.37563 3.28669 3.22424 -1.45305 -0.651251 -0.387001
745 11.3027 4.11459 2.99304 0.568861 0.80823 -0.323565
2798 10.4266 4.08609 3.23041 1.31516 -0.518675 1.93741
2946 10.9258 3.1025 2.87892 -0.20015 1.00182 0.296849
3101 10.0442 4.16259 4.2365 0.61474 1.14852 0.643762
3018 11.0244 3.4605 3.90844 0.493639 0.398222 0.358544
80 12.1527 3.23806 3.7006 -0.707501 2.58469 0.51616
2902 13.3208 3.98301 3.11356 -1.48437 -2.49352 -0.891283
339 13.869 4.22209 4.23985 -1.15718 -0.256068 -0.127349
1690 13.4363 3.1951 3.93525 0.531945 0.643637 -1.83373
3145 14.5398 3.70098 3.48334 -2.00149 1.79763 0.287701
1015 15.1762 4.16001 4.18951 -1.98367 1.36357 -0.0763729
1200 16.7711 3.57902 3.67334 0.000896959 1.18195 -1.04859
3008 16.2354 4.11743 2.87832 2.25755 0.281712 0.406818
2951 15.7944 3.26519 3.39925 -0.917048 -0.870939 -0.928669
2883 0.0354431 4.77081 3.11594 -0.75979 -0.0416784 0.877177
1214 0.234774 5.13086 4.24002 0.114857 0.835405 -0.563097
2050 1.11172 5.08689 3.13622 -0.982707 -0.76928 0.359636
1003 1.44434 4.43752 3.94112 0.489102 -0.950877 -0.467364
1527 2.14132 5.00769 3.40736 -1.75208 -2.21238 0.248308
895 3.06932 4.92278 3.77474 0.191098 -0.54506 -0.655991
460 5.60026 4.67478 3.85252 -0.727328 0.420481 2.87915
1262 4.78192 5.36824 4.11699 0.563453 -0.760575 -0.0778587
119 4.77365 4.82747 3.13821 0.546812 -0.118023 0.364315
2788 6.04494 5.67315 3.25928 1.16432 -1.00954 0.573929
316 6.74 4.93585 3.672 -1.66064 1.61319 -0.416181
273 7.98992 4.77252 3.93873 -0.100376 -0.0590739 0.510396
3007 7.56215 5.20113 2.88259 -0.986293 0.262403 1.25842
19 8.77521 4.55176 3.27371 -0.500723 -0.515457 -1.37264
889 9.68013 5.02588 3.72667 -0.0512463 -0.634109 -0.303995
2385 10.7446 5.0388 2.93867 0.554719 -0.949419 0.735931
506 10.8305 4.85635 4.101 -0.948652 0.2598 -1.46055
2916 12.7965 4.64226 3.804 0.853337 -1.54277 1.3737
3829 11.7216 4.30865 4.07086 -1.15543 1.05137 -1.76391
3505 11.8022 5.48224 4.02603 -1.40551 -0.81538 -0.122923
188 13.8246 5.58128 2.99229 -0.976507 0.0957886 -0.332525
1718 15.1438 4.53375 3.26344 -0.585997 1.64434 0.576807
3136 14.3268 5.20386 3.91779 -0.024307 -0.540893 -0.480026
2540 15.603 5.37514 4.01209 0.050629 -0.0976368 0.354173
3777 16.2201 4.51809 4.02405 -0.876998 -0.330028 -0.426451
2789 16.1661 5.31491 3.1389 -1.31246 -0.35457 1.17231
3499 0.88031 6.1678 3.25825 -0.442288 -1.21565 -0.284721
998 0.164438 7.09498 4.19263 1.20543 -1.50522 0.619694
672 1.20259 7.10209 3.78563 0.719902 -0.989133 -0.696347
3966 1.90108 6.93061 3.09007 -0.899111 2.13951 -1.69206
2035 2.65353 6.13107 3.29739 1.41148 -1.6493 0.568125
864 1.76858 5.94753 3.81403 1.85051 -0.14082 -0.448233
390 3.98353 5.77896 3.14074 -0.0588819 1.58829 -1.5912
1682 3.52863 6.50242 3.81004 0.790143 -0.315021 0.209529
882 4.40799 6.82418 3.08762 -1.52364 0.59352 2.25897
2556 5.30702 6.36724 4.24115 0.93514 0.245625 0.480403
346 5.13872 6.01871 3.31833 -0.105222 -0.125897 -1.08679
1396 5.88539 6.84289 3.564 0.83735 0.827595 -0.351996
1509 6.86989 6.25696 3.55345 -0.174139 1.44605 1.34129
1847 8.1708 5.74071 4.2561 0.36783 1.43947 -0.655047
453 8.40728 5.85432 3.2727 -0.940206 -2.13834 0.395386
969 7.85162 6.72487 3.68416 -1.80745 0.823436 0.2774
3773 8.98855 6.92034 3.39935 0.175964 -2.10595 1.04156
3800 9.57518 6.04576 2.93481 -0.355488 -1.40085 -1.63973
2893 9.35028 5.95029 3.98742 -0.561381 1.64598 -0.142409
2183 10.3664 5.82204 3.61143 -0.29753 0.265874 -0.398151
3206 10.793 6.77973 2.88667 2.00066 0.211325 -0.923732
89 11.2376 6.31147 3.84537 -0.26559 -0.623352 0.861566
501 10.2655 6.87204 3.90993 0.447558 2.12231 -1.24276
2919 12.4365 5.86379 3.31219 1.17714 -0.385929 2.15285
473 11.4992 6.08016 2.8884 0.74666 -0.696814 -0.364076
3369 12.9923 6.71959 3.21014 -0.340259 0.138647 -0.261613
44 13.7731 6.13775 3.85724 0.67158 2.54325 0.198245
1381 15.1048 6.53102 3.18763 -0.0757804 1.68971 0.21719
545 16.7787 5.86941 3.61955 0.142212 0.611974 -1.25682
2567 15.8363 6.35165 3.85876 0.965073 -0.427679 -0.493097
2965 16.6093 7.07233 3.32288 1.34766 -0.102828 -0.294315
3227 2.8204 7.59296 3.1287 -0.95315 0.282203 1.43926
167 2.49718 8.34129 3.99626 0.259056 1.49973 0.314061
1317 1.44179 8.39314 3.87896 0.552704 1.21022 0.231992
594 1.98737 8.39952 2.92822 -0.849954 -2.94286 0.0440618
1453 2.309 7.23358 4.04165 0.414649 -0.73706 -0.308393
3675 3.41401 7.52681 4.03695 0.832103 0.639752 2.59013
3983 4.03257 8.34573 3.79194 0.206156 1.27054 -0.0136505
814 5.92398 7.86017 3.69101 -1.14626 -1.62216 -0.501152
2108 6.91707 7.44983 3.31333 0.723904 0.31901 -0.536619
2223 8.28582 7.63512 3.0405 0.786453 -1.26603 -0.912496
2323 9.23047 8.07744 3.23082 0.170034 1.43442 0.753829
2198 8.61751 7.61489 4.06555 0.940183 0.568741 -1.71798
265 10.0567 7.58626 3.04431 -0.234539 -0.102189 1.25175
3125 10.946 7.519 3.56157 -0.0534356 -1.01065 -1.00989
2949 10.1572 8.11709 4.20582 -1.52836 0.687875 -1.0316
2924 12.7925 7.86157 3.07488 0.926633 -0.926396 0.346776
3622 12.0225 7.15139 3.4197 1.24872 -0.0490251 -0.323363
2633 11.6229 8.11395 3.99789 -1.06221 0.116926 3.12819
1503 13.6967 7.44261 3.57208 0.474527 -1.8984 0.655305
938 15.6376 7.53397 3.73588 0.537219 -0.931501 -1.23457
3473 14.8604 8.30389 3.25805 0.720893 -1.28473 0.168416
2646 16.0123 8.35677 2.98938 -1.42399 0.259249 1.02013
3749 17.063 8.25384 3.55221 -1.54331 -0.656124 0.524409
3470 16.2955 8.34194 4.19171 2.22183 2.14819 0.0810152
1662 1.34641 1.13602 4.28527 0.111867 -0.17081 -0.58574
3682 0.450742 0.727468 4.52975 0.191881 -1.43734 0.317928
2357 1.07071 0.300302 5.39121 -0.00363429 -0.212994 -0.635558
3679 2.36844 0.683014 4.73453 0.425972 1.17255 -0.504609
1278 2.20217 0.40627 5.6636 -0.0720211 1.25329 1.48378
2052 3.49456 0.97813 4.98545 1.01261 0.460629 -0.513025
2610 4.15111 0.251216 4.53715 0.696473 1.99334 0.196358
299 4.52143 1.31846 4.75914 0.0129023 1.2453 0.994206
3641 5.48619 0.720232 4.88328 -0.362834 -1.26674 1.75518
3445 6.21298 0.178932 4.32797 -1.32568 0.109218 1.72489
741 6.70101 0.942078 4.64831 -0.658726 -1.2391 1.59139
3483 6.22929 1.42323 5.49902 -1.86019 0.172905 -2.12039
3261 7.32638 0.108999 4.59941 0.103861 -0.852216 0.138341
731 8.36137 0.154547 4.40093 -0.767272 -1.1243 -1.47554
3194 7.88701 1.22535 4.82463 0.815169 1.21638 1.41682
41 8.9378 0.444812 5.60399 1.44622 0.550359 0.568431
3347 9.69455 1.11684 5.30791 0.409511 2.0474 -1.2875
1270 8.96219 1.07799 4.33062 -1.49123 -0.149135 -0.223502
2530 8.67425 1.40754 5.49326 1.52813 -0.470196 0.500333
3239 10.9882 1.26647 4.7607 0.011552 0.895889 -0.394462
1465 11.6822 0.462145 4.43386 0.174435 0.216855 -0.0273562
3836 12.7324 0.981416 4.82986 0.255322 -1.35223 1.28424
157 14.0469 0.180455 4.39626 -0.0500322 -0.384825 1.94015
951 14.3731 1.11823 5.49925 0.392472 -1.33327 -1.17921
1829 15.3372 1.31351 4.9842 -1.00531 0.736704 -1.44188
1007 15.1119 0.182084 5.18917 1.26714 -1.05928 0.394743
1029 17.041 0.376743 5.40283 0.447997 0.0240427 2.01991