ITEM: TIMESTEP
56000
ITEM: NUMBER OF ATOMS
4000
ITEM: BOX BOUNDS pp pp pp
0.0000000000000000e+00 1.7099759466766969e+01
0.0000000000000000e+00 1.7099759466766969e+01
0.0000000000000000e+00 1.7099759466766969e+01
ITEM: ATOMS id x y z vx vy vz
3510 1.0954 1.3763 0.66528 0.812491 1.19762 -0.502282
2898 0.230386 0.625875 0.456705 0.503359 0.846899 -0.208435
3558 1.31793 0.182123 1.05057 0.961241 -2.3633 1.6647
1921 2.62055 0.361666 0.383457 1.14541 2.5993 -0.2986
75 1.94028 1.12776 1.30192 -0.376838 0.129838 -0.683235
1512 1.62874 0.7457 0.0324951 -0.329221 2.15383 1.5988
3410 3.70391 0.455742 0.640272 -0.356959 -0.990807 0.536954
3373 3.00991 1.37631 0.527152 1.08315 0.963798 -1.19668
2081 4.86523 1.32166 1.40145 0.0112391 0.922298 -0.413837
3327 4.94658 0.575829 0.761459 0.708213 1.12927 0.254969
3445 6.42482 0.433471 0.227887 -1.19036 -1.01039 0.991816
3880 6.18254 0.0364367 1.38926 0.431262 -1.64498 -1.06477
3691 5.97702 1.06962 1.0785 -0.327442 0.0217263 2.33193
3575 8.5337 0.879831 0.246133 0.16459 1.40119 0.0258472
3009 7.52811 1.16786 0.60676 -1.4871 -0.289652 -1.5211
2593 7.30559 0.270297 0.98759 -0.173266 0.203211 -0.291269
3370 9.83029 1.12983 0.419352 -0.145067 0.427358 -0.342829
2485 11.238 0.586209 0.972209 0.362953 -0.461367 0.480481
81 12.6464 1.37852 1.12683 -0.556296 -0.955558 1.37078
757 12.7394 0.137913 1.2201 -0.561061 -0.805781 -0.266972
1463 12.1811 0.645564 0.211981 -0.457534 -1.43844 -0.193948
3853 13.341 0.607356 0.416065 -0.965357 -0.756442 2.2154
2820 14.9656 0.749781 0.09734 -0.190952 -1.17129 0.137465
1417 16.279 0.161404 0.131521 1.48739 0.0263582 0.560706
187 15.8447 0.907403 0.962819 0.719298 1.93518 -0.0483055
3920 16.7039 1.34125 0.0925458 1.14283 -0.584635 -0.809101
3795 0.914174 2.52796 0.60776 0.375812 -0.366386 -0.365197
201 0.0500173 2.4129 0.050195 0.282106 0.232104 0.368039
47 2.12783 2.12683 0.755776 -0.767051 -1.16153 0.00618205
1467 2.72729 2.73424 0.133272 1.51294 0.204942 0.6608
1879 3.32438 2.29214 0.862557 1.24677 0.230385 0.177959
871 4.03283 1.71014 0.619262 -0.0917431 -0.148768 1.12814
3257 4.07472 2.55623 0.0252782 0.177206 0.869801 0.473243
1426 4.82734 2.47924 1.01558 0.152339 1.60286 -0.0946701
3821 5.02109 2.03185 0.135212 -0.320552 -0.51109 -0.812167
992 5.79342 2.09653 1.01598 -0.112972 -2.78715 1.21784
1041 6.79199 2.00001 0.928654 -0.221423 0.0897159 -0.388405
3970 6.75906 2.78102 0.210174 -1.01493 -0.456614 0.0823515
1076 8.43521 1.97213 0.626562 -0.535212 1.38876 0.964621
3767 7.56814 2.83224 0.914394 0.111084 0.373558 -1.1433
265 7.7073 1.84344 1.39125 -0.952627 -0.301173 -1.82032
3252 9.37756 2.0796 0.205146 -0.773562 -2.86138 1.6784
743 9.26825 2.05703 1.32567 -0.672917 -1.23172 -1.23421
429 10.4125 1.85963 1.11918 0.756162 1.03001 0.280188
3552 10.8773 2.56554 0.313952 1.18579 1.13064 -0.629969
2077 11.9951 2.19038 1.35701 0.720756 -1.2832 -0.669788
274 12.7166 1.64359 0.260612 0.520952 0.57097 -1.32836
2946 11.4679 1.60221 0.675738 -0.373559 0.572996 0.866428
2053 13.4892 2.84365 0.428932 -0.887076 0.366061 -0.600506
3289 13.2183 2.48099 1.37194 -1.73347 1.99161 -2.35826
3020 13.6999 1.7642 0.741495 0.798091 -0.737728 -0.0394706
3317 14.9825 1.72732 0.931717 -0.177601 1.23567 -0.065572
1829 16.0631 1.95028 1.26368 1.23775 -0.701087 1.61692
2417 17.0783 1.87925 0.915624 0.352428 0.520557 0.578025
2002 16.1322 2.51831 0.378447 -0.481387 0.427779 -0.018487
2075 0.138149 3.55962 0.959426 -0.505062 0.0984324 -1.4846
1005 1.34423 4.17282 0.396748 1.3977 0.579876 -0.922833
164 1.20935 3.27619 1.34154 -0.858255 0.122042 -0.521828
2796 1.56837 3.09551 0.110911 -0.908634 0.138215 -0.212657
2503 2.32255 3.58814 0.775987 -0.0816745 -0.0869346 0.379294
3407 3.77907 3.55662 0.603642 0.823928 -1.20007 0.732611
1667 4.97585 3.84133 0.985752 1.51579 -2.10321 -1.58418
1580 5.64681 3.07556 0.533059 0.185198 -0.161431 0.14007
900 6.04443 4.08816 1.02249 -0.361631 -0.997913 0.304161
1383 6.81672 3.75019 0.370462 -2.38695 -0.0634351 -0.0910574
1992 6.38004 3.02928 1.26158 2.00594 -1.99547 -1.78271
1120 7.7921 3.79477 0.89973 -0.150234 0.25162 0.503391
321 9.03995 3.53399 0.904965 1.28891 1.13357 0.0313212
1891 9.98045 2.93451 1.13437 0.604759 1.74054 -0.518214
3919 10.4321 3.73835 0.840376 1.22817 1.20529 0.767397
3704 11.8572 2.89431 0.499573 -1.27984 0.536444 0.748634
677 11.6132 4.04788 0.752151 0.412739 0.918254 1.27343
2387 12.5664 3.48634 1.02461 -0.885298 1.14142 1.64103
2289 13.4186 3.97936 0.539333 0.0401596 -0.713707 1.68333
1521 14.1327 3.52844 0.00171736 -0.814501 1.78082 -1.48959
2484 14.5641 2.96112 0.753126 -0.363055 -0.0485817 -0.0553771
1883 14.4519 3.96065 0.96518 0.319896 1.06496 0.488525
1708 15.5547 2.88668 1.15329 -0.376473 1.87548 -1.25545
1710 15.398 3.62163 0.185128 0.561842 -0.447008 1.48121
2901 15.9858 4.01991 1.05208 -0.65998 -0.616925 0.770985
1151 16.5511 3.48535 0.0686474 -0.304937 1.42423 -0.0524175
3910 0.562061 4.94354 0.559232 -0.245128 -1.04129 -0.0108719
2951 1.96878 4.81975 0.866496 -1.46207 -0.22024 -0.454435
1332 3.18581 5.44913 1.39875 0.1953 -0.297539 -0.750582
717 2.89526 4.40088 0.996132 0.516772 2.13641 -0.379667
2405 3.81039 5.02008 0.513606 0.432865 -1.14063 0.738945
1003 3.86595 4.34754 1.20688 -0.0766573 -0.12934 2.58341
3267 4.75472 5.69172 0.896937 -1.19216 -0.402332 -0.0351107
271 5.72925 5.1205 0.525392 1.6815 1.81983 1.34026
1286 6.71279 5.22619 0.329299 -0.803062 0.533083 0.281899
2410 8.42965 5.39921 0.597481 0.491674 0.369118 0.0635751
2266 9.31376 4.56221 0.51433 2.37558 -0.6493 0.731477
2250 10.3931 4.80038 0.524856 -1.1657 0.727641 0.69423
459 10.9607 4.38405 1.40717 -0.66785 0.0876737 0.585417
811 10.1227 5.32783 1.35158 -0.440049 -0.464128 -1.1489
3637 11.5105 5.27221 0.458662 0.374004 -0.107945 0.158016
1545 12.6388 4.70787 0.458667 0.27956 -0.127361 -1.26415
106 12.6057 5.63445 1.04575 -0.778145 -0.588556 0.759315
1099 13.4411 4.86079 1.18978 0.736558 0.0244547 0.989824
1146 13.4118 5.43415 0.328579 0.586551 0.86366 0.280079
3555 15.3821 4.94378 0.440513 0.0232646 -1.56564 -0.709473
76 14.2745 4.83315 0.488252 -0.530246 -0.784088 0.436389
688 16.8341 4.67277 1.17416 -2.28588 1.80315 -0.122834
2294 15.9164 5.45183 1.39398 0.880156 -0.81391 0.649786
754 16.585 5.46071 0.315242 -0.0867859 -0.63943 -0.653707
2050 0.0984557 5.94807 1.00416 0.552543 0.735431 -0.494928
891 1.20169 7.0685 0.0159446 0.0545373 -0.386869 -0.117409
1341 0.00258443 6.5267 0.213649 -0.357316 -1.04157 0.82256
1298 0.587779 7.07705 0.944118 0.810189 1.34954 1.42195
2323 2.82518 5.70825 0.339648 1.23716 -0.266044 -0.425657
204 2.64386 6.35227 1.18569 -1.36495 0.0433354 0.47972
2059 1.74901 6.91079 0.883068 1.12065 -1.06332 -1.58371
2129 3.92306 6.15111 0.561636 -0.180328 -0.115165 0.0731597
213 3.15959 6.82377 0.406786 -0.961985 0.0222167 -0.030121
2529 5.45951 7.01102 0.146015 -0.550072 2.32896 -0.306516
3801 4.78909 6.71663 1.08844 -0.907664 -0.0210199 -1.00289
2032 4.29016 6.96015 0.0363026 -1.95051 -1.76985 -0.708855
2558 5.7016 6.13655 0.826739 -0.706626 -2.13069 0.884978
3107 6.46029 6.59127 0.212944 -0.513103 0.203374 0.0364366
1685 7.36919 7.03428 0.808312 -1.64853 0.920472 0.985284
3796 8.28358 6.43027 0.694618 1.14679 -0.674125 0.637101
656 7.54759 6.05802 0.100983 -0.00126797 0.282938 -0.1491
2561 7.16869 6.09414 1.15607 -0.813814 0.866712 0.307881
2525 9.40118 5.93411 0.662728 0.547889 -0.321447 -1.96656
464 9.83113 6.8536 0.77478 1.21818 0.809413 -0.36401
3408 8.70782 7.01232 1.40301 -0.67075 0.286832 -1.16219
3440 10.5941 6.00758 0.663225 1.13023 1.1746 -1.55866
1784 12.4734 6.78203 0.30712 0.726403 0.222971 0.117202
3011 11.9542 6.68515 1.32402 -1.34566 0.287471 -0.311342
832 13.899 6.63562 0.592756 -1.01085 -0.362042 -0.381103
2933 12.9022 6.59536 1.1561 -0.419533 1.26945 0.956225
3890 15.148 6.18421 1.2543 0.648216 0.672881 1.08085
595 14.9614 6.03461 0.223716 -0.484384 0.176183 0.548977
2789 16.101 6.34271 0.597667 0.0859487 0.1075 0.0115363
3979 1.10146 8.12383 0.489138 -0.280272 0.349964 0.537122
91 0.252038 7.65241 0.0864409 1.52902 -0.383459 0.102018
818 0.000377752 8.45615 0.757397 -0.818161 0.933768 0.809636
2328 2.59614 7.69128 0.605198 0.49018 -2.53383 0.240732
2089 1.99814 8.11952 1.39217 -0.570373 -0.296382 -0.337182
498 3.58814 7.55406 1.01023 -0.655194 1.16763 0.932424
3887 3.08931 8.53549 1.29488 -0.388686 0.374337 -0.0744595
553 3.11282 8.41524 0.207272 1.67225 -0.172242 0.229453
79 4.13335 8.53301 0.618129 -0.49673 -1.80954 -0.0364622
1495 4.75307 7.70779 0.612884 1.57137 0.231878 1.57346
1487 5.6953 8.31215 0.522561 0.0467203 0.761386 0.197005
140 7.1032 8.35535 0.685224 1.13785 0.0596085 -0.271209
2977 6.28395 7.54933 0.836019 -2.37654 0.614943 -0.638865
332 8.04907 7.9595 0.373436 -0.0618209 0.108053 0.471626
1983 8.89431 7.22369 0.379683 -1.29763 -0.215889 1.50655
2397 8.73272 8.50197 1.42008 0.135084 -0.649139 -0.515003
2455 9.57873 7.92764 0.899439 -0.375724 -0.595484 0.54709
2385 11.1854 7.4486 0.679149 -2.32858 -1.36504 1.07163
3559 12.1931 7.87403 0.620288 0.492565 0.526412 1.42096
3918 13.2399 8.11182 0.333229 -0.650145 0.354469 -0.644384
2625 15.1841 7.22489 0.824562 0.402404 -0.821413 -1.24664
3642 14.3737 7.8003 0.740501 0.248328 -0.63008 1.74433
1514 16.4907 7.51335 0.766501 2.77181 -1.25912 -0.380011
1021 15.7334 8.34962 0.756088 -0.145377 0.224489 -0.309101
597 0.685977 0.898802 1.44008 1.11692 0.322888 0.21185
3036 1.29929 0.0546687 2.1649 0.562676 -0.362099 -0.606288
1972 0.276894 0.65047 2.68963 -0.011445 0.67505 0.0498994
3059 2.11224 1.32943 2.35347 1.232 -0.310163 0.135244
735 3.08008 1.01964 2.60477 -1.23202 0.0375134 1.53175
1987 3.02307 0.605366 1.54746 -0.0369613 1.29474 0.826031
2357 3.95022 0.625968 2.46827 -0.353331 1.59101 0.519174
1980 5.22923 0.473705 1.80045 0.00357725 1.5056 0.122007
3115 5.28459 0.787963 2.7864 -0.6785 0.948787 2.39019
3363 6.04418 1.41129 2.17536 -0.135524 0.316302 -1.24875
3944 6.27522 0.141512 2.39405 0.126941 -0.381192 0.360305
1712 6.87193 1.13796 1.80175 -0.255287 -0.476084 1.95662
191 8.1377 0.912281 1.43101 0.453964 -1.84926 0.799354
906 7.21545 0.282453 2.03758 0.439256 -0.369208 0.508921
1822 8.2507 0.314634 2.25119 0.246188 1.37925 -0.192774
593 9.51305 0.970313 1.69435 0.494664 -1.38699 0.119306
2228 8.96039 0.0230364 1.60171 1.01805 -0.210361 -1.36367
501 9.09618 1.13661 2.66552 0.233072 -0.144293 -1.5502
726 10.0609 1.41026 2.80399 -0.704947 0.278238 0.446859
675 10.7169 1.14588 1.93175 -0.325966 -0.540221 -0.663924
2142 11.6841 1.40656 1.85009 1.60278 -0.107464 -0.849135
3924 11.5858 0.0185698 1.8781 -0.146072 0.142819 -0.858268
2959 12.6426 1.19887 2.2632 -1.02155 0.814727 -0.132335
535 13.8585 1.04021 1.76497 1.58701 -2.9282 0.0508133
3198 12.9109 0.104836 2.3481 -0.115902 0.855746 -0.414659
477 14.8959 0.966256 1.59524 -0.446978 -0.436323 -0.900717
1465 14.4953 1.25944 2.55729 -0.224585 0.42429 1.3983
963 14.5235 0.0875817 2.30675 1.17666 -0.944727 0.190975
2145 15.9857 1.20478 2.37871 0.393368 -0.727044 1.04504
2599 16.9303 0.211293 1.45853 -1.05312 1.11013 0.362282
547 15.9133 0.131637 1.89132 -0.7552 -0.828349 0.345231
2216 0.482297 2.54618 1.67065 -1.8314 1.21737 -0.045256
1539 0.732535 1.8286 2.51477 -1.80489 -0.0348308 1.81744
1200 1.44018 2.03711 1.68327 1.04088 -1.00936 0.783649
2154 2.83553 2.13906 1.70567 0.712635 0.010968 -0.105324
2734 2.74124 2.76543 2.6945 -0.145547 -0.201936 -1.13335
2826 1.49001 2.74763 2.54948 0.375831 0.811402 -0.889099
4 3.77917 1.43897 1.58818 -0.359963 0.533236 -1.33056
773 3.44123 2.00919 2.53124 -0.656043 -0.412297 0.142487
1815 3.96562 2.38608 1.72326 -1.57325 -0.025199 0.734834
733 5.24287 2.25911 1.91757 1.12091 -1.14955 -1.4354
1765 4.48093 1.71437 2.36188 0.657716 1.17131 -0.434839
1452 7.17906 1.47041 2.70129 -1.93334 -1.52982 2.048
3636 8.39752 2.51094 1.66032 0.875748 -0.836422 -0.7852
2369 7.14021 2.63678 2.11936 0.725592 -2.02674 1.74781
478 8.00313 2.51695 2.74032 1.14383 -0.35204 0.589292
3659 8.12576 1.48051 2.29588 -0.335483 -1.35742 1.41049
2363 9.36943 2.19276 2.46393 0.690148 1.91241 -0.972388
2515 10.6151 2.19733 2.11599 0.74204 0.0713793 0.392163
753 12.0158 2.28395 2.5846 -0.117168 0.747857 -0.680204
1175 13.5027 1.93693 2.42185 0.470656 1.142 -0.18101
157 15.4686 2.47659 2.02848 0.370738 -0.412537 -0.0717298
2354 14.2765 1.96028 1.80859 0.863605 0.445171 -0.232657
421 14.7935 2.24228 2.77411 -1.15228 0.709059 1.54975
2945 16.4468 2.61773 2.3027 -0.532135 -0.660263 -0.809507
2418 16.8681 1.50218 1.926 -0.353665 0.212525 -0.209549
1170 0.601098 3.56711 2.07421 0.804939 -0.289941 0.705095
2247 2.04799 2.87835 1.6473 -1.01111 1.27898 1.17073
1612 2.43937 3.63857 2.14111 1.67969 0.280895 0.999595
476 3.48696 3.41421 1.67458 -0.0821144 0.293881 -0.569298
3119 3.68734 3.15863 2.81789 -0.680558 -1.45414 -0.592118
549 3.35737 4.2383 2.20378 -0.508898 0.905878 -0.0910995
686 4.80267 4.14059 2.11596 -1.39597 -0.150641 -0.481996
2588 4.45159 3.20775 1.60134 -0.414973 -0.281617 -1.2462
2172 5.59593 3.27248 1.81673 0.672695 -0.0847863 0.112328
342 6.01575 3.45792 2.74496 0.0496888 -0.552031 0.123267
35 7.28591 4.26394 1.65835 -1.86343 0.441053 -0.0391226
1188 8.00036 3.43387 1.92842 -1.54164 -0.134767 0.306544
2079 7.22222 3.67469 2.53726 1.20267 -0.232542 -0.266386
3551 9.17958 3.12104 1.89116 2.1623 -0.449956 1.09149
281 11.2404 3.17733 1.54537 0.968946 -0.253605 0.775997
1090 10.3786 3.58749 1.90389 0.789219 0.065627 0.109698
282 10.9853 3.09279 2.60732 0.358684 -1.34492 0.428193
80 11.922 3.85592 2.47556 -0.276785 0.590338 0.867192
1621 12.7617 3.11004 2.06189 0.508124 -1.01621 0.0265641
3664 13.3508 3.83816 1.63046 0.0962936 0.579663 -0.738528
3419 13.8238 3.02275 2.12485 2.5417 -0.868985 0.845696
956 14.6003 3.53683 2.01547 -1.04657 -1.16656 -0.595853
1718 15.615 3.74982 2.12866 -0.278446 0.225334 -0.107943
1909 14.9294 4.17751 2.75915 1.79286 -0.430305 1.05356
3723 16.5368 3.0835 1.4414 -1.61659 -2.18854 0.290011
904 16.6503 3.79303 2.26075 -0.371034 0.312279 -1.38984
805 1.12677 4.31332 1.53995 -1.02174 0.439051 0.501101
552 0.781432 5.34291 1.64416 0.745304 -3.44347 1.79167
941 0.126613 4.75964 2.57462 0.345494 -0.0359844 1.83763
3841 1.42312 4.43295 2.59659 0.400459 1.78685 -0.198642
2867 2.18869 5.39267 1.64917 -0.903227 1.42017 1.05317
2722 1.47723 5.67695 2.54209 -1.09617 0.273542 0.695576
1414 4.13807 5.25399 1.80126 0.726221 0.227427 0.356135
3760 3.0951 5.27462 2.71496 -0.711555 -0.243571 0.0715614
3200 4.10777 4.61757 2.79536 1.18384 0.096007 0.689511
2162 4.93718 5.19882 2.458 -0.587556 -0.72715 -0.686057
2488 5.32004 4.89835 1.45 -0.930322 2.48248 0.924148
562 6.20006 4.42438 2.48946 0.193935 1.08028 -2.42634
3736 6.48325 5.06931 1.47738 1.13446 -1.19589 0.371549
2331 5.84679 5.49061 2.25989 -0.964667 -1.97505 -0.712597
1152 8.26892 4.34234 2.5222 0.608332 0.67131 -0.870545
1847 7.81605 5.33079 1.43742 1.38477 1.97844 -1.42429
913 8.4433 4.46951 1.45057 2.06719 1.45474 0.606126
473 7.42157 4.8966 2.71014 1.67518 -0.391201 -1.11068
523 9.112 5.61291 1.69158 -1.04421 0.212352 1.87147
231 9.6603 4.34581 1.47013 -0.563511 0.758993 1.17421
2902 9.43095 4.84932 2.38981 2.42594 -0.894334 1.09864
3057 10.3301 4.56857 2.20574 -0.892549 2.11734 -0.524198
3204 11.3568 5.30675 1.80357 1.26411 0.154012 -0.764856
2237 11.2463 4.69512 2.68387 -0.164274 -0.042081 -1.50992
1212 10.0786 5.63758 2.50468 2.1022 -0.0748612 0.187246
2854 12.376 4.45187 1.54038 -0.0241146 0.0238433 1.71314
920 13.2924 5.66995 1.86924 1.12912 0.0154546 1.46337
3954 12.9489 4.88402 2.39155 0.825953 -0.812449 -0.283746
2434 14.0047 4.71774 2.31304 0.788166 -0.726399 0.747317
1597 14.6829 5.35504 2.64842 -1.16411 -1.6603 -0.178369
3868 15.1426 4.78902 1.89515 -2.18659 0.764485 -1.55851
2611 14.2901 5.54896 1.6539 0.933885 -0.636124 -0.300533
1312 16.2941 4.80741 2.10173 1.14749 -0.317941 0.912033
2762 15.6918 5.65749 2.47088 -0.0477862 0.608915 0.540709
101 0.580244 6.30309 1.8063 -0.968574 0.097938 0.425832
2442 2.84029 6.42137 2.29759 -2.37788 -0.079177 0.832346
3250 1.57183 6.63404 2.01712 1.00363 0.381924 2.00652
1214 3.69148 6.41316 1.60138 0.53746 -0.00618711 -0.595357
460 3.9492 5.82172 2.56311 -0.922348 1.1921 0.59668
491 3.93328 6.78256 2.72717 0.38463 -1.82599 -0.174721
1640 4.78501 6.40123 2.03338 0.309595 0.865908 0.129554
3260 7.00295 5.79633 2.16801 -0.220449 -0.523252 0.285498
1732 6.8205 6.90778 1.97365 0.61822 1.75158 0.0500049
2108 5.87783 6.44312 1.80936 -1.21953 -0.0321905 -1.00052
2774 7.81806 6.58254 1.80939 -0.556408 0.128559 1.65346
1747 8.09078 5.70251 2.42202 -1.93879 1.19204 0.531602
3580 9.13049 5.87274 2.66558 0.0390306 -0.115185 -1.53926
3837 9.55617 7.01182 2.30443 0.856293 1.52431 -1.42537
506 11.3397 6.62898 2.65661 -2.35953 -1.32201 0.444014
2303 10.0614 6.31486 1.72272 0.745057 -1.23134 0.829479
3318 12.7844 6.84577 2.09831 -1.68687 -1.20582 1.48772
1548 12.3064 5.93573 2.15451 -0.402903 -0.530288 0.673347
2958 13.9628 6.64962 1.99818 1.19749 0.350458 0.712639
711 14.9482 6.68122 2.38527 -0.479089 -1.67477 -0.83497
664 16.8248 5.7009 2.08056 -2.11278 0.0401151 0.438585
2909 16.4838 6.5896 2.62435 0.966025 -1.09838 0.784186
545 16.5417 6.55945 1.48659 0.390746 -0.50584 1.89423
3869 1.3639 7.64081 2.05874 -1.65691 1.32689 0.621338
2375 0.523349 8.23086 1.54095 0.299569 -1.21781 -2.27151
2388 0.215541 7.28741 1.99877 0.134577 -0.892025 1.6153
2403 2.72589 7.32817 1.60967 -0.0714202 0.726535 0.817812
3259 1.93457 8.14194 2.80084 -0.020554 -0.533489 -1.00924
637 2.91611 8.19694 2.18248 1.50459 0.0834175 -0.940222
602 3.63181 7.50643 2.06709 0.890706 1.34474 0.935011
2302 5.33329 7.51722 1.63342 -0.987413 1.62282 0.21208
2550 4.80436 7.63745 2.61706 -0.365594 -1.65648 0.585339
348 4.40993 8.05855 1.6396 2.31057 -1.18845 -1.53765
2849 5.76368 8.35612 2.10573 -2.83604 1.40575 0.738228
3697 5.79274 7.16268 2.49449 1.388 0.551586 -1.06856
2570 6.80126 7.97878 1.70623 -1.22725 0.155908 0.468199
2003 7.75 7.70336 1.8065 -1.43985 -0.534605 9.97485e-05
1265 7.50991 7.93132 2.7116 1.10752 -1.70459 -0.117991
496 9.68157 8.04618 2.05728 0.631367 -0.0279345 0.546151
1943 8.56151 8.02083 2.49046 -0.0866714 -0.714306 -1.42058
189 10.6192 7.94403 1.51951 1.23981 1.51757 1.12058
174 10.5836 7.21867 2.41955 -0.944842 -0.968501 -0.515826
2914 11.9352 8.0871 2.70155 2.32716 0.614837 -1.29307
655 11.7174 7.85618 1.6007 0.336597 -0.11715 1.3576
631 13.8646 7.75374 2.60244 -0.435908 1.77685 -0.430507
2899 12.9202 8.42004 1.67345 -2.69038 -0.322078 -0.591772
1015 12.9053 7.77085 2.59166 0.786025 1.48021 -0.00692558
1440 13.4821 7.50557 1.5261 -0.0723575 -0.0761597 0.264319
2155 15.2068 8.36835 2.29841 0.34738 -0.839019 -0.571862
337 14.5383 7.51944 1.7691 -1.68719 -1.21897 0.0149479
1845 16.7319 8.46507 2.07683 -1.09639 1.03194 -0.407437
1024 15.8095 7.68696 1.81356 0.189811 0.128004 0.00409171
2519 1.31984 0.908732 3.09839 0.673248 0.04236 -1.41335
60 0.13951 1.15268 4.06499 -0.498894 2.20292 0.00271991
714 2.66975 0.505103 4.25939 1.42402 0.455941 2.09212
3539 1.90939 0.0610306 3.17813 0.237895 -0.712014 -1.14868
2127 2.39799 0.925749 3.37739 -0.76636 -0.401657 -0.663401
2389 1.65453 0.718473 4.07877 2.75814 -0.351871 -0.524555
1113 3.64698 0.664433 3.61649 1.9091 0.729508 -0.319384
3808 4.69656 0.235538 3.38983 0.555956 -0.640459 -0.39525
3820 5.73178 0.0732081 3.96366 1.00003 -0.754113 0.525652
3190 6.5592 0.899568 3.45648 1.26553 -0.155285 1.23716
1040 7.45934 0.479247 3.08794 -0.283197 -0.162831 0.460818
2769 7.57185 0.854078 4.04809 0.870783 0.161477 -2.35264
300 8.48773 0.583958 3.39416 0.298111 -1.5216 -0.782416
3980 9.94418 0.819161 3.58293 -1.19182 -0.695265 -0.0495707
3891 10.7638 0.15941 3.12628 -0.405073 1.7145 -0.270968
2587 11.4408 0.401743 3.99623 0.397099 -1.00863 0.97871
1570 12.5378 0.818854 3.85483 0.617052 -0.636441 -1.70981
2451 11.7801 1.23912 3.0079 -1.71328 -0.309911 1.51248
1547 12.0398 0.151122 3.15803 1.44723 0.339852 -0.562729
2132 13.3966 0.843268 3.03656 1.89953 -0.14659 0.631505
262 14.2207 1.1592 3.56865 -0.668662 -0.0845284 -0.661191
1254 15.1953 0.224173 3.75818 -0.747806 0.649068 0.310987
2351 15.4917 1.02592 3.33015 1.79271 0.364991 -0.416264
1887 16.4762 0.792332 3.53224 -1.00691 1.00123 0.137833
423 15.8819 0.123515 3.04295 -0.231753 0.465198 0.574419
456 0.358354 2.61694 2.86651 -0.933718 -2.13946 1.50125
1535 1.85275 1.8571 4.23191 0.305812 -1.91891 0.806076
1219 2.18704 1.9733 3.15652 -0.974408 0.547335 0.60368
1242 3.23635 2.57356 3.65169 -0.992415 -0.673285 -1.2913
2944 3.13284 1.50909 3.87587 0.0773327 1.27435 -1.36491
2472 4.21841 1.45839 3.30452 0.992819 0.497919 -0.424518
897 5.45363 2.24345 2.95994 -1.13819 0.914339 0.846724
1638 5.16396 1.58996 3.74428 1.3499 2.71825 -1.47336
2585 4.34287 2.47747 3.89379 0.51818 -0.407826 -0.746303
299 6.24883 1.80421 3.79474 -0.101189 -0.747599 -2.11979
1760 6.11312 2.81745 4.1546 0.406018 0.218076 1.5087
2751 6.49145 2.31579 2.9188 -1.20805 -0.594536 0.0465801
829 7.90203 1.8066 3.79186 0.294714 -0.327705 0.183806
3627 8.82724 2.06405 3.28085 -0.424093 1.05681 0.389934
3579 9.64231 1.83186 3.74746 0.909576 0.0233749 -0.70687
3338 10.7398 1.58397 4.00322 -0.562351 1.87801 -1.10313
41 11.1225 2.28011 3.1962 0.153019 1.46078 0.465066
847 12.5939 1.80243 3.32166 0.927383 -1.53661 -0.0957447
3960 13.948 2.18312 3.44247 0.73462 -0.226554 -1.73599
3472 13.0812 1.88957 4.16167 -1.46947 -0.484436 -0.153544
1648 15.3479 1.96996 3.67742 0.173611 -1.83466 -1.15584
2724 14.7543 2.83685 3.94807 0.590662 0.362454 -1.15721
1375 16.2696 2.29528 3.73795 0.78927 -2.14593 -0.310381
3706 16.9365 1.65025 2.96379 -1.69313 2.50441 0.0632137
797 1.26925 3.2212 3.54054 -0.813457 1.04928 1.12112
2886 0.124564 2.92441 4.2257 -2.14341 -0.173737 0.779201
2756 0.492809 3.98216 3.06585 0.273605 1.4034 0.787108
2646 0.685228 4.24327 4.14319 0.152583 -0.899414 2.09342
1770 2.50161 3.20983 4.26628 -0.812924 1.2059 1.21398
1976 2.1882 3.57033 3.17931 -1.21993 0.562841 1.05537
2976 3.20493 3.6415 3.47605 1.32032 1.00499 0.647855
618 5.2688 3.1689 3.62006 -0.677896 -1.04959 0.306938
969 4.36211 3.65863 3.35015 1.07048 0.18596 0.687225
1201 5.23431 4.26852 3.28276 1.21688 0.510963 0.433505
1841 6.98373 3.09741 3.51292 -0.51342 1.19116 0.456804
1408 8.07227 3.75468 3.28543 -0.982664 0.552268 -0.438834
1035 8.92357 3.05007 2.96966 1.22351 -0.958798 -1.06711
1413 9.3745 3.16417 4.0296 0.222565 -0.0354847 0.264421
467 9.19013 4.05918 3.42493 1.05154 -1.49366 0.27629
889 9.91338 3.01988 2.99144 -0.785258 -0.519696 1.00782
2640 10.7506 3.0403 3.72476 0.298851 0.357937 1.26754
587 10.2835 3.96058 3.06513 -0.616847 -0.589234 -0.549965
418 10.3851 3.93834 4.09081 -1.44516 0.094789 0.847228
3911 11.3166 3.95324 3.37169 1.90167 2.00757 -1.5697
144 12.4837 3.01488 3.36439 -0.127713 0.180784 1.23433
3669 12.2109 3.78047 4.09736 0.659139 -0.176876 0.5052
3450 13.4508 3.61354 3.79178 -0.199662 -0.936977 0.0821365
270 14.1463 3.20058 3.13482 -0.852252 -1.07809 0.406077
3247 13.0744 3.85659 2.91748 1.03736 -0.537628 -0.89801
931 15.2796 3.86583 3.69602 0.465467 1.18919 -0.0562393
3008 15.3769 3.04466 2.96835 0.529742 -0.397403 -0.600829
424 16.1067 4.25043 2.9705 1.97329 -0.244069 0.829511
3777 16.574 3.25093 3.4644 1.80296 -0.800605 -0.301852
2293 16.6959 4.14119 4.08908 -0.97351 0.710674 -1.05015
1682 0.871308 5.16808 3.23578 0.111152 -0.359629 0.932355
401 0.331302 5.34227 4.05039 -1.09156 1.12383 -0.877435
651 2.80204 4.66877 3.60596 0.414573 0.21271 -1.24831
2480 1.95147 5.4303 3.6375 0.994654 0.801206 0.698678
212 1.64431 4.36777 3.61993 -1.26156 1.67537 -2.32877
1436 3.62806 5.22254 3.55781 -3.06639 0.747767 -0.860923
3766 3.67825 4.29175 4.19702 1.2458 -0.146275 0.0670337
286 4.68622 5.17286 3.51136 -0.264958 1.80387 0.232393
3300 5.66669 5.22561 3.14422 1.95108 -0.0779723 0.031241
1325 4.7142 4.43109 4.246 -0.0258402 -0.984947 0.340659
2035 6.51797 4.28206 3.47158 -0.868579 -0.220219 1.40315
1989 6.72745 5.34216 3.46534 -1.71219 0.503282 1.00059
2784 5.80003 4.65323 4.2219 -0.31423 0.667635 -0.967457
2798 7.65974 4.88731 3.99871 0.515038 -0.0249453 -0.350245
2868 8.54008 5.47964 4.15655 -1.47644 -0.167912 -0.157166
316 8.59726 5.05064 3.15548 -0.945828 0.671768 0.910708
2590 9.60052 5.25608 3.85344 -1.84532 1.15899 0.0915189
2853 10.5858 5.01987 3.39275 -0.821417 -0.0451718 0.359336
1344 12.1868 4.93768 3.01733 0.204544 -0.0908916 0.371901
127 11.6033 5.10489 3.89483 -0.239255 1.68377 -0.72578
339 14.0723 4.36858 3.41975 0.931974 -0.504048 -1.43284
3672 13.6339 5.61544 2.86008 -1.13082 1.11352 -1.28926
1050 13.9151 5.62653 3.83457 -0.81406 -0.783478 -0.614661
672 12.9266 4.59586 3.63936 2.68738 -0.071414 -0.471286
2412 14.9363 5.06089 3.77377 -0.649099 -0.590548 -1.55557
2010 16.7377 5.58181 3.3523 0.849998 0.749311 1.19599
1813 15.9486 4.87623 4.13684 -0.013674 1.78719 1.1817
3966 0.347351 6.1907 2.9049 -0.16556 -1.4451 0.216977
1937 0.138348 6.45736 3.96388 -0.324786 -0.148057 -0.556913
1527 2.73877 6.02886 3.37879 -0.729063 0.0978386 0.0825319
1136 1.69911 6.5359 3.08241 -2.55727 -1.06256 -1.28427
536 1.76714 6.27664 4.24757 0.856609 2.45219 -0.290604
1692 3.32547 7.07759 3.63995 -1.02397 -0.88628 -1.27168
3388 4.05781 6.13522 3.79953 0.2139 0.764143 -1.5707
1622 4.26186 7.02703 4.17379 -1.52248 0.390273 0.340541
1321 4.88596 6.42885 3.23614 0.70611 1.15916 -0.0433324
3452 6.89717 6.56562 2.92872 0.231232 -0.157719 -0.954322
1854 5.83139 6.24908 3.13951 -0.479954 0.943896 -0.542534
1402 6.75495 6.47258 3.86266 0.177443 -0.390671 1.39254
3087 8.10554 6.98418 3.09479 1.54329 0.814127 1.56534
1676 7.79294 5.82272 3.43195 0.401434 -0.264392 0.209876
2966 7.91582 6.78937 4.16394 0.587504 -0.215471 -1.20409
264 9.8775 6.53684 3.42364 0.706647 0.964265 0.181571
1786 8.82054 6.31193 3.71267 0.522676 -1.69561 1.10382
222 10.7387 6.19352 3.73764 -0.478691 0.982701 -1.59645
3802 12.497 6.02379 3.30978 -0.405426 1.30751 0.256429
3505 11.9921 6.07889 4.16049 1.14432 1.09086 -0.203361
639 12.1725 7.09228 3.1441 0.380532 1.19512 -1.93327
3529 11.5291 5.73592 3.06379 -0.925071 -0.857838 -0.327595
1774 13.2294 6.71887 3.04495 0.56037 -0.74479 -0.831117
415 15.6604 6.1511 3.44914 -1.01344 -0.248553 -1.35561
2903 15.0472 7.08889 3.75075 -0.505222 1.87823 -0.66208
978 14.7833 6.00826 4.25699 0.397891 -0.657662 0.124715
2537 14.5925 6.28805 3.25149 2.25151 -0.522885 0.925511
998 16.2847 6.88238 3.82122 0.344791 0.313568 0.263419
1400 0.846829 7.33483 2.94099 1.57827 0.356467 0.561313
984 1.10446 8.42166 3.39107 -0.64495 -1.71708 0.38943
2107 1.28962 7.37699 4.22682 1.09954 0.12218 0.207669
1087 0.366601 7.85411 3.76562 0.0782882 1.07732 -0.83138
11 2.60563 7.27875 2.9142 -1.6511 1.85272 -0.498621
3923 2.22962 7.7209 3.7808 0.224193 -1.56669 -0.790481
1833 3.06361 8.16873 3.50252 0.396484 0.0884074 0.615835
2695 4.11813 8.17148 3.36331 -1.64054 -0.431418 1.19955
3617 5.2727 7.23207 3.93192 0.933262 -0.469591 -1.28688
2938 5.60198 8.39733 4.24946 -0.088653 0.616523 -0.594004
3481 6.00897 7.74938 3.37005 0.615502 1.73188 0.714714
2056 7.06038 8.3379 3.56626 0.584709 -0.573184 1.73462
2233 8.21419 8.00889 3.71964 0.185635 -0.570621 -0.445325
3144 7.19977 7.35029 3.4762 -0.757645 -0.650625 -0.641297
2316 9.20804 8.42103 3.86579 -0.958807 -0.261055 -0.0775799
575 9.11646 7.20262 3.18678 -0.546788 0.366402 -1.2845
2183 9.18599 7.15078 4.19944 -0.989074 -0.660431 -0.936156
3101 10.2459 8.49244 3.9764 0.608011 -0.382318 -1.23299
136 11.2008 7.16874 3.82239 0.605372 0.741145 -0.608407
3619 11.206 8.14424 3.35993 -1.99228 -0.980175 0.856353
2633 10.2523 7.55855 3.33308 0.288525 0.157776 -0.364396
3695 10.1911 8.44581 2.85019 0.648539 0.602771 0.761351
1626 12.3107 8.30925 4.18 0.527771 0.992698 -0.16792
3369 12.8961 7.23117 4.18352 -0.565525 -0.252556 -0.543897
2409 13.1615 8.03251 3.62323 -0.224855 -0.996769 0.194978
3499 13.9967 7.24136 3.61488 -0.68059 0.585102 1.37471
188 14.3201 8.21922 4.05035 0.253228 0.651593 0.852859
843 14.8107 7.82676 3.08337 -0.373013 0.037863 -1.00752
430 15.3187 8.00364 4.23324 -0.351079 0.0645977 -0.312758
132 16.5544 7.71916 2.85393 -2.3116 -0.152772 0.723135
1303 16.0978 8.01182 3.72742 0.622022 -1.24165 1.84368
3884 0.254201 0.102025 4.37788 -0.25817 0.186732 -1.39436
1374 1.47974 0.335231 5.00797 1.19569 -0.219588 1.25696
1089 2.80628 1.12235 5.04335 -0.755275 -0.403518 -0.305258
2834 3.76776 0.414477 4.77099 -1.68986 -0.777636 -1.68954
2318 4.73474 0.643123 4.32889 -0.222683 0.23354 0.703145
2665 4.84057 0.0761044 5.37709 1.50186 -0.228861 -0.768592
354 5.78564 0.927111 4.58425 -0.762925 -0.960645 0.022364
3228 6.61608 0.211589 4.61229 -0.772277 -0.8358 -1.08212
494 5.87135 0.288446 5.45237 -2.23942 0.705244 1.27667
635 6.51245 1.25371 5.68693 -1.46604 -0.14513 -0.15578
2262 8.3394 0.265682 4.67076 -1.72893 0.340252 0.239944
1060 7.96726 0.171892 5.61208 -0.388433 -0.514642 -0.950077
724 8.9849 1.32246 5.23485 -0.0798123 1.08723 2.19459
1209 9.17276 0.676166 4.32844 -1.71227 0.793635 -0.584279
3290 10.1872 0.503738 4.57775 -0.399184 -0.930567 1.33946
3239 11.1356 0.504735 5.27442 -0.00466929 -0.332419 -1.9524
742 12.6718 0.281216 5.41844 0.0489813 -0.49224 0.43408
454 11.9395 0.961368 4.86961 0.0971677 0.888575 -1.06539
892 12.8954 1.35472 5.00147 0.956552 -0.455095 -0.443558
3836 13.5341 0.647878 4.41347 0.255783 0.699578 -0.30908
1677 13.8786 0.153999 5.33082 -0.358215 0.108809 0.300604
3142 14.9646 1.27918 4.45373 -0.663756 0.502591 -1.03975
1270 14.6968 0.799796 5.60802 0.0709187 -1.29679 0.547621
2492 15.6672 0.193705 5.47719 -1.909 -0.066819 -0.542907
319 14.6708 0.229997 4.67019 0.929048 -0.0829366 0.199263
3390 16.0579 0.933175 4.52509 -0.104377 1.01478 0.782747
1843 16.8944 0.888646 5.05302 -0.726188 -0.365861 -1.52027
1688 1.09897 1.59203 5.04317 0.122227 -0.579263 1.3131
1258 0.450924 2.12401 5.589 0.495049 -0.190103 -1.88919
983 2.09755 2.11924 5.33752 -1.14995 0.00870889 2.044
2165 4.18884 1.58679 4.39845 -0.0530287 -1.0326 -0.512151
2532 3.01983 2.54016 4.81707 0.616764 0.540989 0.306952
199 4.19543 2.43862 5.07167 0.260764 0.586602 -0.790826
1651 3.51391 1.74498 5.37477 0.624218 1.47114 -1.19859
1091 5.17322 2.26178 4.69721 2.49672 1.01603 -1.18498
958 5.35764 1.44098 5.38201 1.58117 0.351335 -2.20696
2775 6.18617 1.8865 4.86721 0.266811 1.39478 0.680045