ITEM: TIMESTEP
71000
ITEM: NUMBER OF ATOMS
4000
ITEM: BOX BOUNDS pp pp pp
0.0000000000000000e+00 1.7099759466766969e+01
0.0000000000000000e+00 1.7099759466766969e+01
0.0000000000000000e+00 1.7099759466766969e+01
ITEM: ATOMS id x y z vx vy vz
38 0.430839 0.848783 1.40728 0.642173 -1.99059 -0.851261
2466 0.835753 1.00613 0.278204 0.0977333 -0.0940301 1.86014
3902 2.16769 0.157751 1.34067 0.39094 0.129946 -0.271462
2050 1.46096 1.07978 1.22045 -0.33483 0.297879 0.832608
3986 2.05293 1.07846 0.302763 1.60226 0.774397 0.54261
2337 3.75375 1.09864 1.00821 0.723701 -0.54253 0.073755
1695 3.16037 1.41414 0.0091496 -0.273522 1.71409 0.472126
3377 5.2733 0.804035 1.01174 1.29218 0.152327 0.329982
3670 4.48496 0.60523 0.529129 -1.1924 -1.7641 -1.88497
241 6.03168 0.670407 0.159357 1.25317 -0.190916 0.0450834
684 6.98569 0.716948 0.737285 -1.31504 0.514282 -0.553549
1704 8.04383 0.0792755 0.847325 -0.680011 0.0922012 -0.959107
3506 7.77847 0.96547 0.0902005 -0.193803 1.78748 0.896084
3122 8.86065 0.844046 0.700242 1.29669 -0.19016 0.501005
113 11.3686 1.08027 0.871121 0.197243 0.579708 -0.50163
1822 11.1449 0.0912807 1.40194 -1.04017 -0.147568 1.77978
682 10.3277 0.554143 0.735427 -1.15917 -0.892422 1.88519
1463 12.2799 0.167055 1.30725 -1.00182 0.0971805 -1.00698
1789 12.8523 0.251029 0.262266 -1.1804 -0.396082 -1.32133
1605 13.4521 0.898377 1.0775 0.561754 1.27908 1.1736
90 14.203 0.220417 0.633059 -0.279251 0.898309 -0.418109
664 15.5665 0.736264 0.434177 -1.69115 -0.331566 -0.565809
2599 14.7544 1.38538 0.546187 0.533999 -0.816687 -1.45654
1925 15.1577 0.0953677 1.16021 -1.35146 0.218406 0.758134
909 16.7601 0.132755 0.589189 0.741426 0.894173 -1.46629
474 16.7324 1.17001 0.584917 0.236282 -0.312975 1.09828
1539 16.0525 1.00523 1.40902 -0.152789 1.01567 -0.389577
775 0.38265 1.87857 0.0406979 -0.915604 1.14146 0.658778
2756 0.682756 1.89763 1.18188 2.04424 0.238799 -0.0213766
2346 2.36891 1.78907 1.02228 0.52828 0.414244 -0.323441
912 1.45957 2.02073 0.336933 -0.349391 1.4396 1.34898
1591 1.83649 2.71642 1.32288 0.203611 0.444333 0.476718
2448 3.77103 2.07494 0.924966 -0.756236 -0.705315 0.0302405
3677 2.94648 2.67209 0.574049 -1.29123 -0.487109 -0.944175
3688 4.77867 1.66367 0.801165 -0.985565 1.15772 -0.167348
2217 5.6777 2.27287 0.894995 -0.778133 0.0322132 -0.135648
1188 4.80773 2.58217 0.331701 -0.581185 0.856272 -0.291766
426 4.2788 2.83636 1.36835 -1.4879 -0.782987 0.437097
2350 6.46907 1.70888 0.501675 -0.774783 0.315248 -1.1269
1524 8.25324 1.78993 0.491865 0.469874 -0.353838 -0.837003
1076 7.43276 2.2609 0.29632 2.45449 -0.388625 0.849866
2751 7.33065 1.53499 1.32414 0.20511 -0.144809 -0.0719697
2324 8.85369 1.66832 1.38207 -0.117367 0.648232 0.213927
3087 8.65675 2.74481 0.23078 -1.12965 -0.137981 0.0026937
1369 9.40917 1.66044 0.388925 0.408498 0.908951 1.53639
3031 10.5069 2.3608 0.203863 1.053 0.224658 1.19452
3260 10.0104 2.26011 1.20053 -2.63374 -0.454888 0.257994
475 11.3073 2.00328 1.36609 1.06796 -1.41034 0.387999
223 12.2635 2.48917 0.89551 -1.85703 0.0517943 -0.791953
1090 11.4632 2.05904 0.183096 -2.01321 0.307102 -1.50568
1166 12.4932 1.50616 0.78618 0.291018 -0.567945 0.823326
844 13.4347 1.56289 0.344937 -0.0141091 -0.708295 1.3078
1535 13.0779 2.125 1.36354 1.16739 0.78795 0.733074
867 14.0671 2.21916 1.2425 -0.38315 0.0854897 -0.117872
2668 13.2415 2.6286 0.437802 -0.014451 -0.555523 -0.0656705
3594 15.1954 2.31661 1.22288 -0.566816 0.0998542 -0.867823
935 15.3947 2.54123 0.0731713 0.647475 1.2137 -1.82039
595 16.5585 1.87127 1.24147 -0.520621 -0.600848 -0.777471
2075 16.5531 2.48813 0.363286 0.019598 0.402864 0.659755
1437 15.8055 1.67914 0.512699 -0.868034 -1.56803 1.83851
2160 0.718931 2.87713 0.271275 -0.16043 0.99678 0.699773
2951 0.658893 3.84105 0.696918 -0.166715 -0.688869 -1.1448
1841 0.832636 3.18143 1.38512 0.685796 -0.328718 1.01091
3014 2.53814 3.75894 0.754233 1.09506 -0.0925491 0.346175
3403 5.43762 3.1891 0.895751 0.098407 0.792464 -0.981504
1976 5.60111 4.14013 1.2938 0.279179 -0.798454 -2.15377
415 4.65071 3.88234 0.445246 -0.640011 -0.642506 -0.588586
2468 5.81745 3.91281 0.231672 -0.975163 1.47327 0.0902228
2035 6.32483 2.95123 0.570304 -0.335778 -0.238002 1.47913
618 6.70368 4.14126 1.21791 -0.678899 -0.381599 1.91859
1716 7.66575 3.19527 0.930726 -1.58518 1.63241 0.597604
1383 7.52259 4.07943 0.51517 1.68745 0.297704 -0.99735
730 8.56754 3.92506 1.10799 0.236848 -0.0508265 -0.5316
1879 9.57707 3.01444 0.744634 0.593765 -0.409644 -0.802009
3944 9.35319 4.05802 0.517568 0.360079 0.751138 -0.546823
2054 11.1082 3.34869 0.06962 0.174983 -0.820474 -0.556081
5 10.6671 2.9721 0.942446 -2.10579 -0.161851 -0.529508
3443 10.4912 4.11351 0.448852 -0.486963 0.967306 0.755819
1476 11.7973 4.2645 1.21302 0.477825 0.806567 -1.20609
3392 12.71 3.4187 0.887525 -0.151233 0.613896 0.991656
3121 11.6758 3.21365 1.32369 -0.250988 0.390317 -0.642665
3085 13.5769 3.78155 0.609385 0.136739 -1.41675 0.0346398
2800 14.3509 3.14695 0.794027 0.059817 0.731856 -0.602439
3145 14.5771 4.13511 1.07536 0.635664 -1.7529 -0.256776
2564 15.4826 3.35566 0.830428 0.380559 -0.259227 -1.02188
571 16.4737 3.67079 0.669696 0.499302 1.72896 -1.58108
1845 0.548186 4.90589 1.09584 1.67849 -0.0254057 -1.2862
649 0.296504 4.61793 0.147796 -0.0978139 0.144485 -0.724164
1169 0.863018 5.64775 0.422962 -0.49415 0.445818 0.314188
1056 2.59224 4.96161 1.13085 -0.558309 1.29136 1.6309
1393 1.61928 4.6496 0.218688 -0.127092 0.419828 -0.312684
1769 1.56568 4.3833 1.23276 0.524087 1.13157 0.261102
3997 2.67457 5.62036 0.228505 0.083062 -0.138505 -0.306417
2724 3.5443 5.40253 0.823963 -0.300953 0.757191 0.890353
1880 3.5936 4.3107 0.629391 0.997296 1.02473 -0.159803
2761 4.50133 4.74226 1.24018 -0.273911 0.0832204 -0.222239
1264 6.57484 4.69847 0.178464 0.483296 -1.75768 -1.61248
1129 5.72904 4.96889 0.571124 -0.553794 1.03859 1.88965
989 6.92416 5.32822 1.08168 -0.6786 0.156846 0.941183
3009 7.9216 5.0723 0.55158 0.404689 0.420062 0.232743
1891 8.51708 4.39671 0.0442846 2.04307 0.602486 -1.59693
2670 9.07486 5.01594 0.79129 -0.897865 -1.38394 -0.316205
1831 10.0993 5.38037 0.846622 -2.09185 0.168564 -0.689867
1347 12.5987 4.69614 0.531992 -1.70378 -1.71272 1.76252
1919 11.4122 5.1845 0.0819359 0.0590667 1.25657 0.25407
2412 13.8536 4.9771 0.820937 -0.893368 0.58971 -0.453842
189 12.9878 5.44047 1.35235 -0.379913 -1.08983 1.66752
2930 14.6792 5.57235 1.03421 -1.39558 -0.648992 0.808179
3844 15.3083 4.73817 0.859756 -1.15069 1.91475 1.26809
745 14.2577 4.33942 0.0803951 -0.521031 -0.956888 -1.60022
421 16.4615 4.88244 1.22768 0.00110253 -1.71904 -1.11065
1238 16.8595 5.48533 0.413773 0.644982 -1.75588 -1.86337
1909 16.2202 4.68926 0.00445102 -0.27826 -0.305764 1.32548
2817 1.26519 6.97119 0.800013 -0.23859 -0.838171 2.7927
2929 2.20855 6.73441 0.388522 0.824783 -0.935706 -1.01238
707 2.57577 6.25868 1.16579 1.09687 0.999819 -0.927316
433 1.77144 5.72803 0.82038 1.63347 -0.62657 1.68702
331 3.24149 6.839 0.608057 -1.10068 1.43164 -0.900006
3001 4.1859 5.74258 0.0241061 -0.978329 0.0645509 -1.24123
2374 4.8533 5.73897 0.816686 -0.533236 -0.078114 -0.432674
1495 5.57688 6.61277 0.660393 1.82717 1.03575 -0.498961
2349 6.394 5.79795 0.205362 0.244035 -0.97656 -0.604627
686 5.96176 5.89716 1.27262 -1.6021 2.61005 -0.190519
190 6.7742 6.81002 0.424011 -0.604176 0.483958 -1.80203
2774 8.51103 5.85837 0.607407 -0.231847 -1.65986 -0.362607
3636 7.40771 6.34644 1.25733 -0.199061 -1.11144 0.066169
3790 7.43811 6.02195 0.188321 0.838028 1.239 -0.225602
1622 8.31914 7.08546 1.16802 1.50031 2.07013 -0.244747
1687 9.53834 6.31521 0.326859 0.663847 0.494112 0.530851
587 9.2056 6.31088 1.22437 -0.64959 1.09323 0.815974
2891 8.7043 6.92613 0.183143 -0.557072 -0.61638 0.317784
2836 10.6319 6.96749 0.234801 0.13453 -1.8573 -0.299267
2973 11.0643 5.88112 0.772751 0.0802008 0.377568 -1.30511
2293 10.4325 6.60554 1.16278 -0.0561185 -0.0315039 0.720107
1081 12.2637 6.07129 0.994733 1.79116 -1.81405 -0.660005
2108 11.4752 6.86009 1.04535 -0.456657 -0.641974 -0.331506
464 11.6587 6.66299 0.0636264 -0.777803 0.309544 -0.545423
832 13.8603 6.52799 0.585592 0.948171 -0.102559 1.4131
3503 12.8573 6.55525 0.203539 0.225449 -0.437753 1.47425
224 13.0877 6.63379 1.33189 0.587655 -0.554622 -1.67264
1381 16.9318 6.31359 1.19411 -1.54221 0.848722 -0.594101
401 16.0111 6.21957 0.66036 -0.0224338 -1.18212 0.204443
2965 16.1344 6.98242 1.40922 1.43679 -1.41325 0.85871
2688 0.26417 8.35511 1.37183 1.36999 -0.524906 -0.63996
1400 0.977934 8.45559 0.294537 0.160058 0.192701 1.46596
3887 2.27147 8.27026 0.502126 -0.309139 -0.0127418 -0.447757
978 2.2059 7.55761 1.1518 0.525485 0.411518 0.669396
3724 4.25541 7.19024 1.12673 -0.715846 0.619592 -0.294251
1419 4.16822 8.37939 0.637639 -0.168065 1.44588 0.68947
1182 3.39026 7.75147 0.909941 -0.545839 -1.18459 1.23043
2353 5.09679 7.73955 0.451878 1.10719 -1.08912 -1.79869
3826 6.32464 7.79556 0.515419 0.0176211 0.67665 0.559063
2550 7.02818 7.44705 1.37466 0.780258 -0.449732 -0.126546
2191 7.49442 7.51895 0.347628 0.176499 0.25925 1.1159
2148 7.51514 8.369 0.870133 -2.30571 -1.14319 -0.548803
1983 9.32285 8.30376 0.0213739 2.13916 -0.871066 -0.468949
1912 8.60081 8.00006 0.794308 0.967927 0.0408505 0.275269
2882 9.58114 7.3567 0.799103 -1.50454 0.865673 -0.886591
1019 10.6079 7.72868 0.885395 -0.425103 0.335608 -0.507661
3062 10.5238 8.39185 0.0654245 -0.933441 0.289031 -0.879752
2691 12.3406 7.43038 0.671234 -1.58195 -0.807186 0.769179
1125 12.9599 8.22932 0.762076 0.700084 -0.312916 -1.06098
861 13.4916 7.43635 0.352553 -0.603985 -0.825148 -1.15755
3136 15.5559 7.25493 0.551839 -0.824159 0.560118 -0.21283
3515 14.5912 7.46655 0.980975 0.105167 1.10607 0.986947
1107 15.2337 8.53815 0.528575 0.524862 1.6051 0.204756
1151 16.837 7.51032 0.615672 0.170646 -0.137363 1.70215
12 16.126 8.43512 0.98299 -0.536156 0.766556 0.563759
2842 0.965369 1.12059 2.39466 -1.07131 -0.328968 0.247119
1974 1.11369 0.0500752 2.13412 -0.891936 1.32162 1.13752
2166 0.276381 0.365912 2.77048 -0.367943 0.293468 -0.266915
2202 2.31837 1.08381 1.99093 0.304609 -0.325629 0.453844
465 2.38851 0.0680218 2.34671 0.611864 0.0239592 0.927693
3679 3.32726 0.730479 2.05335 -0.807685 0.195155 -0.0600168
295 5.19009 0.895235 2.17244 -0.116232 -1.15359 -2.04849
3818 4.48383 0.099508 1.47115 0.596645 -0.731786 0.581998
2692 6.43006 0.608986 1.87568 -0.846162 0.184584 -0.825673
3669 7.3301 0.238497 1.58096 -0.55937 0.241936 -0.361762
3505 8.07946 0.268326 2.63332 -0.672709 -0.960508 -0.231555
2808 8.1538 1.01022 1.79132 -0.54188 0.601731 -1.28987
1486 9.58774 0.666001 1.51865 -0.840018 0.403355 -0.120898
2971 8.94128 1.09197 2.51033 -1.03351 -0.570446 -0.138924
2068 9.58254 0.164597 2.7791 -1.61502 0.167183 1.17517
2246 10.7367 1.29207 1.8211 0.133789 -1.3768 -0.269889
3204 10.7218 0.20485 2.38967 0.338385 1.32387 -0.568304
3198 10.0216 1.07294 2.65187 -0.0858145 0.195447 -0.454249
2315 11.7901 0.354917 2.29357 -0.647572 1.0279 -0.338764
634 12.0769 1.27689 1.78581 0.78679 0.816445 1.20266
359 14.006 0.569572 2.08758 -0.642322 0.238514 -0.757144
626 13.0125 1.06807 2.18307 0.642609 -1.50943 0.491587
3020 14.6388 0.97364 2.80633 -1.55466 -0.0698953 0.0376432
3460 14.8228 1.30802 1.50555 0.334335 1.22154 -2.36477
2986 15.2104 0.337132 2.18276 -0.507043 0.324684 0.541619
881 16.3949 0.286597 2.45873 2.45428 0.196145 -0.0844861
2427 0.764115 2.32104 2.7664 -0.516097 0.233898 0.830126
2867 0.104923 2.36002 1.97454 1.3584 -0.995623 -2.21492
2820 2.82994 2.6602 1.86293 -0.480736 -0.377991 -0.296671
779 2.32347 2.24406 2.76236 2.30991 -0.490301 0.218161
424 1.67994 1.95534 1.99113 1.0487 -1.93075 -2.07122
3888 3.09587 1.7078 2.39193 0.141334 -0.682093 2.63733
3990 4.05664 1.92619 2.76883 0.796248 1.2012 0.697776
1927 5.04882 2.12993 2.57121 -0.394435 -0.251188 -0.316506
342 4.32449 1.53424 1.78456 -0.208017 0.587844 -0.675144
588 6.81043 2.64905 1.4779 -0.785543 0.0970134 1.79397
1365 6.91871 1.58177 2.3624 1.0879 -0.390155 1.96403
273 6.02235 1.69487 1.70798 -0.150567 -1.53538 0.449306
2747 6.35941 2.45632 2.4611 1.57092 -0.413073 -0.220164
741 8.01829 2.37049 1.65982 -0.192546 -0.432046 0.3578
1438 9.10464 2.78079 1.62202 -0.861403 0.583971 1.76258
847 8.65621 2.21965 2.45107 0.880768 0.187567 -0.618166
2988 9.63057 2.03906 2.80565 -0.335613 -1.48691 -0.823554
689 10.6775 2.38243 2.10338 -0.291624 0.160547 1.25877
1349 11.1205 1.45376 2.79641 0.764912 -0.394755 -0.503157
1947 12.1604 2.2094 2.06962 0.732867 -0.375798 -1.70273
860 14.1501 1.78519 2.20263 -0.485165 -1.39334 -0.489787
3777 13.1377 2.3553 2.51378 -0.694927 1.30489 0.845179
1972 15.2568 1.73864 2.38303 -2.23654 0.200947 1.07578
3603 14.6196 2.56158 2.54286 0.93364 -0.380172 -1.06305
1462 15.747 2.67525 2.50296 0.84635 -1.28911 1.80183
1903 16.4778 1.66465 2.25927 1.60363 0.00403537 -0.00167806
3420 16.316 2.79472 1.61265 -1.29058 -0.703063 1.40344
1290 0.977494 4.16979 2.09363 -0.399466 -1.62477 0.387981
2611 0.45804 3.31773 2.67668 -0.483312 -0.553084 -0.87611
3966 2.44554 3.60201 1.69892 1.03945 1.31549 0.848384
1414 2.00085 3.84981 2.78829 -1.41537 -1.02352 -0.443868
3591 1.51569 3.21595 2.15982 1.34302 0.489768 0.396357
1639 3.43738 3.67533 1.49229 0.558484 1.40083 -0.0478177
237 3.14378 3.69107 2.77019 -0.994548 1.48548 1.17153
859 4.14203 4.10399 2.64459 -2.07895 -0.977952 1.44049
239 5.46456 2.94249 2.09984 -1.00059 -2.46578 -1.77576
733 4.7992 3.68513 1.91696 -0.339647 1.1018 1.43128
2693 6.13361 3.90112 2.40386 -0.60308 0.479013 -0.578764
199 7.49616 3.23679 2.16662 -0.458321 -0.118584 -0.738654
2888 8.49976 3.28179 2.49167 -0.487552 -0.383967 -0.525746
19 9.15119 3.78145 1.88547 1.71324 0.853739 -0.514062
3057 10.1568 3.36935 1.88043 0.021475 1.24893 0.914093
2237 11.1189 4.007 1.9788 -0.133821 -1.5764 -0.627758
888 10.0769 4.00597 2.73516 0.572687 -1.66426 -1.42278
3268 12.0105 3.93193 2.44027 -0.425001 -0.314643 1.05469
339 12.7445 3.2566 1.95028 1.35862 -1.86647 1.53863
3837 11.5449 3.05954 2.53507 -0.434259 0.45722 0.970854
3440 14.0653 3.45907 1.98603 0.156657 -1.3767 0.34526
2145 13.3229 3.92954 2.65427 -2.29501 0.0192392 1.58764
61 15.1468 3.31421 1.82425 1.04019 1.13922 0.695836
36 16.9576 4.08625 1.55696 -0.176771 0.0527232 -0.109727
1087 16.1869 3.72373 2.34662 -0.822818 0.72924 0.402516
1242 15.7952 4.13598 1.48907 0.47014 1.26436 -0.94289
361 1.12853 5.15568 1.89516 -1.01416 -0.323528 -1.21009
2032 1.06515 5.6535 2.84586 -1.26507 1.48045 0.0506377
3884 2.16658 4.87628 2.09428 0.225797 -1.5997 -0.723447
2442 3.5286 4.8617 1.82655 1.38698 -0.420782 -0.647625
2883 5.24908 4.52549 2.48594 0.0945641 0.480568 -0.239677
2529 4.39182 5.21338 2.23643 0.965038 0.731629 -0.681731
346 6.12513 5.07589 1.84722 1.27544 0.880072 -0.808662
1980 7.12948 4.72441 2.26074 -1.20429 0.0628646 -0.00943805
3919 7.72668 4.48538 1.44273 1.07662 -0.62584 1.29763
1035 8.1584 4.31122 2.43953 0.0659526 1.63281 -0.735165
97 8.19454 5.51629 1.45892 0.684275 -0.22423 -0.243347
321 8.74124 4.74098 1.69747 -0.1265 -1.29991 -1.33248
1099 9.36901 5.49369 2.11584 2.17405 -0.0376971 0.701813
2388 10.7836 5.21634 1.50601 -0.399246 -0.351709 -0.719993
3007 9.99866 4.41786 1.5479 0.736376 -0.669071 0.912326
1487 10.3155 4.94499 2.37847 0.451151 0.484898 0.937688
938 11.7629 5.47066 1.69626 1.45228 -0.326928 1.48005
3622 12.7112 4.87814 2.47336 0.360699 0.179883 0.604102
453 11.5977 4.72684 2.6784 0.152724 -0.409893 1.44746
1152 12.9732 4.30177 1.55905 0.580413 -0.196624 -0.477544
2551 13.7061 4.76831 2.12867 0.911681 -1.72 0.72188
3318 13.9613 5.45534 2.75377 0.288673 -0.694157 0.44193
1609 14.9394 4.47782 2.10342 0.68082 0.872609 0.895266
2176 17.0047 5.07407 2.06843 0.0791743 2.29998 1.47072
2567 15.9797 4.7414 2.31606 -0.315007 -0.979687 0.385962
3499 0.27574 6.3103 2.34281 1.09258 -0.452946 -0.370053
2789 1.03674 6.17443 1.50258 -1.67795 -1.91531 -1.00072
370 1.2734 6.9729 2.06438 -0.914757 -0.453157 0.219981
2876 2.4754 6.91021 2.08471 0.0563864 1.07864 0.255972
1600 1.92457 5.87091 1.74463 0.350353 0.768447 -0.340092
954 4.07406 6.07458 1.45727 -0.570812 1.30209 -1.63792
3469 3.20156 5.9133 2.20518 -2.74986 -0.196711 -0.121686
3081 4.18777 6.34596 2.73328 -0.0094482 0.0599958 -0.372058
2056 3.43857 6.89201 1.68494 1.61123 0.270126 0.353952
2267 5.13671 6.51983 1.6372 1.37634 1.96342 0.478551
2734 5.27331 5.76683 2.38763 -1.65652 -1.14094 -0.731818
895 6.11579 6.42817 2.22842 -1.25037 0.499989 -0.554315
1950 7.00641 5.80498 2.15125 -0.857774 -0.602342 0.147236
1265 7.47199 6.93067 2.23692 1.22924 0.362874 1.38619
3581 9.80763 6.54138 2.13948 2.1216 -0.023416 0.591408
805 11.3151 5.97736 2.54582 -0.338159 -0.421309 0.109255
1928 11.2152 6.85132 2.08887 1.95204 -1.30223 1.34268
3335 12.1828 6.3805 1.95267 -0.633043 1.87376 0.889553
2540 12.4657 7.04862 2.83428 -0.768783 -0.551987 -0.285159
2950 13.8828 5.86352 1.79679 1.37377 0.132158 1.97871
2215 13.1239 6.16289 2.4579 0.264149 0.486041 0.877366
3149 14.07 6.86434 1.83848 0.458622 -1.26397 -0.310993
269 15.1096 5.72875 2.256 -0.795224 -0.715944 -0.862473
3369 15.1207 6.68875 1.57685 1.20404 -0.0163564 -1.36395
3749 15.6409 6.66038 2.41624 -1.29088 -0.105092 0.75396
2903 14.5785 7.00161 2.73348 -0.627223 0.042596 0.41274
1269 16.2982 5.88152 1.8246 -0.163053 -1.26262 -1.11666
3166 0.518593 8.11391 2.38358 -0.561094 -0.111732 1.98407
3755 1.25118 8.21813 1.58124 1.50988 -0.489807 0.366468
3923 0.548446 7.30247 1.46048 0.174583 -0.252046 -0.439175
1227 2.74691 8.35902 2.6998 1.33591 -0.9754 0.860852
3423 2.30236 8.47471 1.56095 0.261277 0.775993 0.114853
3620 1.83128 7.72683 2.41085 0.99209 -0.904975 1.77383
3498 3.04231 7.8676 1.8712 0.297504 -0.937885 0.362953
2060 4.07909 8.16149 2.01078 -0.900898 -0.640478 -1.67502
1703 4.91332 7.74024 1.72029 -1.16301 -0.399911 0.0814092
3817 4.73089 7.29626 2.68194 0.594295 -0.921604 0.439604
2940 5.6759 7.90583 2.64601 0.100571 -0.86152 -1.72044
271 5.99111 7.24164 1.59312 2.77289 -1.0729 -0.079873
3344 6.6544 7.45579 2.53557 -0.766874 0.484179 -0.173471
2223 8.21521 7.74364 2.39538 0.276479 1.21972 -0.196762
2838 7.46027 8.08761 1.90345 -0.369693 -1.024 -1.25066
2896 9.09413 7.41019 2.80255 0.474185 -1.15525 -0.800086
854 9.10644 7.49037 1.68787 -0.500894 -1.29252 -0.0145216
2949 10.0533 7.52773 1.95817 0.671741 -0.014351 -1.86212
2919 11.4654 7.736 1.60856 1.19365 0.781176 -0.812997
949 12.2421 8.30171 1.75818 -0.736896 -0.283958 1.37924
2385 12.5199 7.31994 1.80487 0.16596 0.651813 0.212492
2013 13.5406 7.59127 1.49661 0.987582 0.0452602 0.423922
3540 14.1655 8.39828 2.09578 0.180754 2.76684 0.648473
1930 13.0761 8.16152 2.4898 -0.080795 1.03889 -0.194092
2291 14.921 7.70865 2.09073 0.834675 0.0730767 1.20528
3427 16.1258 8.23957 2.04562 1.34431 -1.10618 0.897344
771 15.7202 7.64089 2.84139 1.24118 -0.920721 0.364727
639 16.6893 7.24834 2.15853 0.476275 1.47605 2.17797
3672 0.629858 1.20712 3.44392 0.110573 -0.98487 -0.141806
1043 0.55854 0.209885 3.79824 1.87203 0.449963 1.39257
3390 2.83862 0.873973 2.95754 0.801283 -0.669129 0.830146
822 1.77902 1.04296 3.13017 0.592897 -0.513222 0.890224
3786 1.70754 0.390151 3.87478 -0.49833 -1.49855 -0.134222
2900 4.08537 0.234579 3.85619 -2.03698 0.654275 1.05861
3333 3.89169 1.14606 3.50254 0.103075 -0.0453344 -0.0815956
1061 2.86578 0.292423 4.06277 0.775697 -2.58245 1.14142
2515 4.96182 0.6324 4.11441 0.794584 -1.99804 -0.464539
726 5.38383 0.166173 2.91552 1.25629 0.574043 0.764127
3363 7.12219 0.705901 3.43038 -0.759579 0.54748 -1.03069
3891 8.0311 0.355309 3.86628 0.254133 0.835108 -0.960132
3575 8.8082 1.03629 3.70349 -2.61998 0.1742 -0.533228
3366 9.76995 0.510368 3.74231 -0.255169 0.161478 -2.04055
2278 10.8282 0.493146 3.36325 -0.285934 0.323215 0.230093
2807 10.6797 0.965187 4.19499 0.0580976 -0.10951 -0.742168
2147 12.5381 1.31885 4.24335 -0.319682 1.50715 0.829386
2492 12.2525 1.17364 2.85973 -1.3629 -0.515395 0.671873
2077 11.677 0.74946 3.77856 0.19057 0.22996 -0.300308
1922 12.8551 0.340944 2.96461 -0.136056 -1.11803 0.0980996
2568 13.1117 0.24029 4.14401 -0.838342 0.0759589 0.0115224
2002 14.0754 0.933069 3.74461 -1.58134 0.604478 -2.72712
765 13.251 1.29257 3.38172 -0.636005 0.676574 1.24809
201 15.0401 1.16389 3.67145 -0.0791874 -1.18185 0.666804
3200 16.8309 0.621446 3.59587 -1.15378 0.732639 -0.630722
1557 15.7209 0.843892 2.91582 -1.34783 -0.654039 -1.42594
3768 16.0257 0.015812 3.78618 -0.669947 -1.19406 0.248876
3247 16.2276 1.26148 4.21503 0.882617 -0.999576 0.827867
2480 0.441401 2.51523 3.97795 -0.613795 -0.682101 -0.220078
3175 2.50263 2.47537 3.97935 -1.4868 -0.670395 1.32402
3222 1.4954 1.89367 3.52282 0.412452 0.953527 -1.35384
2472 2.83029 1.58893 3.63854 1.50356 -0.0562929 1.13219
2016 3.49372 2.7419 3.51782 0.291344 0.420938 -0.943264
864 3.73553 1.89639 4.2405 0.088335 1.58841 1.40478
2081 4.93534 1.43918 3.35999 1.44243 0.864035 1.03455
300 5.67889 1.51343 4.19484 2.12447 1.00662 1.64768
983 5.64346 2.59042 3.33427 0.415207 2.18653 -0.212942
2834 4.67836 2.48865 3.67594 -0.219265 1.06668 0.978534
463 6.04622 1.45235 3.165 -0.789392 0.172914 -0.938724
316 6.6029 2.58768 3.96268 0.92608 0.726244 -1.69673
3078 6.75303 1.57314 4.14265 -0.233896 0.399009 -1.21726
1958 7.98382 1.45465 2.96948 0.544584 -0.581799 -1.20798
100 7.80592 1.48351 4.04352 -0.724543 -1.23857 0.38828
2722 7.15947 1.92848 3.26959 0.728706 -0.783624 -0.175061
3261 7.92927 2.84989 3.41009 -0.477599 0.072398 0.358549
1408 8.73818 2.21307 3.43859 0.963194 -1.69073 0.163758
2854 9.70948 2.55174 3.8517 0.11345 1.13726 0.142487
3695 11.0101 2.53982 3.93772 -0.773528 -0.12959 -1.00287
3018 10.3018 1.70153 3.51858 0.769702 -1.0291 -0.310212
2431 10.5777 2.73712 3.04776 -0.105983 -0.676132 1.7829
2037 11.7484 1.81083 3.84106 1.9335 -0.724255 0.365137
1050 12.5076 2.5904 4.18398 -0.53045 0.45384 -1.62036
1170 13.4511 2.52056 3.40713 -0.139433 0.104625 -1.83116
2826 14.1777 1.83651 3.21661 0.915662 3.2732 0.433664
3664 15.0603 2.61723 3.56411 -1.06141 -0.0299914 0.476721
677 16.7238 1.55703 3.22107 1.14599 0.367896 1.15787
1583 15.7432 1.82076 3.27184 -0.262674 -1.22662 1.27964
3741 16.7881 2.59156 3.09334 -1.64205 1.17012 0.305553
355 0.467219 3.56973 3.73409 0.999062 -0.704664 0.891108
2782 2.0983 3.51317 3.96388 0.671499 0.0601649 0.670213
2069 1.67765 2.96684 3.2329 0.406057 -1.34828 0.507354
635 3.84385 3.5404 4.26645 1.64802 -0.237657 0.607337
921 2.89196 4.14437 3.65916 0.303961 0.668149 1.98458
3324 4.29121 3.3305 3.32915 -1.84 -0.345063 -2.16274
1527 5.25832 3.61084 3.03909 -2.01736 0.868825 0.629417
612 6.06667 3.49181 3.61966 0.821197 0.41537 -1.27449
2195 6.95609 3.316 3.00594 0.529405 -1.04454 -0.045498
3225 7.094 3.4932 4.03958 0.792233 -1.17264 -1.37258
891 8.43378 3.72862 3.70766 -0.250513 -0.0703983 0.946546
2277 9.04633 4.17863 2.95425 -0.379807 -0.119104 2.62952
3773 9.51257 3.09674 2.86925 -1.32012 0.530621 -1.09256
2449 11.3693 3.61771 3.37565 1.6924 0.396072 -1.23953
2193 10.345 3.51561 3.72067 0.17405 1.03321 0.86682
2576 12.6279 3.2582 3.37797 -0.373701 -0.76201 0.0513991
2289 12.2162 4.25516 3.53794 1.81334 0.724745 -0.916544
1200 13.9829 3.24858 3.06918 1.16018 0.614376 0.725904
3269 13.3399 3.93193 3.91174 -0.241976 0.445686 1.00625
3468 15.2149 3.63424 2.89357 -0.425523 0.0358676 -0.292716
2748 14.4251 3.63462 4.23372 -0.39044 -0.441147 -0.117906
1410 16.7994 3.95666 3.09571 1.09834 0.531002 1.01043
1718 15.9174 3.04613 3.6079 -0.689608 1.63279 0.909159
1864 0.539688 4.73861 3.01351 0.5467 0.193948 1.2198
2687 0.693381 4.80833 4.13188 0.171848 0.705088 0.511272
1375 2.23147 5.07257 3.18688 2.32872 0.896256 3.04375
2389 1.57897 4.40569 3.67442 1.13914 0.201981 0.317485
2648 2.20361 5.13739 4.20231 1.69927 -1.84249 -0.711707
1780 3.21455 5.02779 2.94637 -1.12861 -0.612159 0.695713
3697 4.1567 5.43523 3.23451 0.611932 1.33842 -0.295966
3373 3.26139 5.12697 4.05869 0.794143 0.338833 -0.0925174
2652 5.581 4.56543 3.89873 1.16816 -0.224414 -0.650644
3090 5.21305 5.26611 3.25488 1.77185 -0.573502 -1.73846
2788 4.55285 4.29146 3.88477 -1.05768 -1.21746 -0.0405909
2784 6.45304 4.55604 3.19728 -0.755843 1.51589 -1.64595
2091 6.77852 4.545 4.13965 -2.3358 -0.624394 0.385363
2331 7.21556 5.41613 3.31915 -0.265095 -0.875418 2.32237
793 8.25441 5.25019 2.93072 -0.965196 0.898027 1.14532
2858 8.42317 4.76361 3.94328 1.50319 -0.753677 -1.75369
3737 7.63803 4.31647 3.38035 0.357657 -1.06106 -0.75885
2354 9.2733 5.17572 3.18824 -0.355175 -0.64805 2.66621
3068 11.1728 4.44916 3.97273 -0.939246 0.227944 0.664205
2314 10.2722 4.82433 3.57218 -0.117938 -0.808513 -1.18196
3484 11.2264 5.59534 3.68367 0.457298 -0.592945 -0.00873597
3132 12.2349 5.57147 3.57804 1.62191 0.459106 0.153529
1708 14.1339 4.45249 3.20198 1.24554 -0.554048 -0.529448
1271 13.3935 5.6863 3.59923 0.427149 1.09535 -0.47456
188 14.9044 4.51984 3.97138 0.331647 0.969586 -0.620744
3415 15.0727 4.98951 3.03882 -0.0945654 0.23609 0.429282
2417 16.1474 4.9056 3.22928 -0.33604 3.38406 -1.37669
14 16.9507 5.59699 2.86589 -1.40359 2.10513 -0.680667
2727 16.7085 5.54954 4.02935 -1.11902 -0.87369 -0.552186
3116 1.40791 5.84923 3.88425 -0.0282626 -1.37876 -0.577951
1964 0.534536 6.35721 3.55174 0.502027 0.816176 -0.311874
1325 1.88651 6.35879 2.8867 0.558392 0.465706 0.0977305
2043 1.71532 6.99413 3.70505 1.33584 -0.0536996 -1.03706
2580 2.32218 6.13773 4.07883 -0.634579 0.165962 1.10931
1689 2.8668 6.07173 3.23209 -3.06417 -0.710532 0.269059
589 3.69216 6.18926 3.7659 0.197861 1.23659 0.988292
2409 3.037 7.10626 4.14244 -1.45693 -0.2543 0.902083
2735 5.61855 5.80734 4.0894 0.94981 1.32584 0.0780931
717 4.48092 6.90603 4.20932 1.69546 0.433296 -0.239972
390 4.99002 6.23198 3.39042 0.355961 1.39988 0.641664
640 6.21199 5.73361 3.05404 -0.639121 0.854454 1.21146
552 5.70528 6.89196 3.01346 0.904473 0.940392 -0.88852
900 6.91429 6.58606 3.13895 -1.4833 -0.00157315 -0.926323
525 6.74265 5.96695 4.07791 -0.620358 -0.637994 0.291474
119 6.03936 6.97357 4.00107 0.677864 -0.55951 0.556349
2604 7.98388 6.32079 3.34089 -0.0427165 -0.128739 2.1967
2007 8.96684 6.27261 2.90589 -0.460098 -1.42862 -0.202178
410 9.24434 6.61091 3.85275 -1.57749 0.0364464 -0.244766
1847 8.62525 5.71707 3.94975 -1.1609 1.52384 0.131589
2348 10.1686 5.71139 2.96391 0.953959 -0.329241 -1.14036
1828 10.0002 6.92911 3.16427 0.849425 0.45023 -2.63347
249 11.0976 6.56182 3.36987 0.910695 -0.81595 -0.660383
3101 10.1104 5.98193 3.97129 -1.3068 -1.06004 -0.385353
2765 12.1564 6.82754 3.86325 -0.40509 -0.0334316 -0.430854
3161 13.1517 6.6669 4.26991 0.247303 -0.617028 -0.298544
1015 13.6544 6.84536 3.28405 -1.08976 -1.62557 0.768734
1840 14.4338 5.73708 3.97398 -0.68054 0.863474 1.37504
2991 14.7966 6.02502 3.09244 -1.92171 -0.218963 -0.384321
3673 15.6114 6.97486 3.74828 -0.684278 0.739704 0.293222
1733 15.4742 6.04237 4.11847 -1.3923 -0.106449 -0.81188
2260 14.6901 6.80642 4.11989 2.10719 1.75614 -0.963839
2933 16.7299 7.08628 3.22754 -0.120503 0.336584 -0.297903
1214 15.9346 5.85722 2.98258 1.84282 1.48772 -0.853411
1359 16.7802 6.66637 4.18306 -0.907217 1.08096 0.778972
3869 1.35834 8.54836 2.92607 -0.367105 -0.306459 1.82638
314 0.737008 8.09654 3.48708 -1.04403 -1.13936 -0.377583
524 0.721769 7.14249 2.95028 -0.301674 -0.859044 0.324069
1135 0.630084 7.19497 4.15307 0.437104 0.853991 0.333594
1541 2.66831 7.31783 3.10797 -0.050946 -1.65816 -0.656436
604 1.93924 7.96172 3.47905 0.245571 1.21607 0.0582995
549 3.76463 7.23673 3.31947 -0.129543 1.52086 0.0806679
3914 3.10961 8.07761 3.64289 -0.390869 -1.74638 -1.86914
814 5.59538 7.95007 3.70497 -0.512604 0.148283 0.143921
2165 4.79726 8.41428 3.11668 -1.18066 -0.718127 -1.00983
1252 4.27564 7.93124 3.86161 0.19227 -1.02687 -0.492021
2686 6.5541 8.04285 4.09391 0.67226 1.47891 -2.12691
969 7.57636 8.53451 2.91213 -1.52817 0.93999 1.87643
362 8.40865 7.24127 3.68964 0.00542115 1.03851 -1.78945
2079 7.48056 7.46961 3.30978 1.60465 0.044637 -0.395831
2676 8.35336 8.24564 3.49688 -0.244975 1.17009 0.538564
1509 9.33691 8.05642 3.76284 -0.915778 1.70723 -0.710647
2699 11.1902 8.35435 3.76124 0.548564 2.11296 -1.58728
2902 10.395 7.90544 3.18202 0.12619 -0.547903 0.136416
2579 11.1745 7.40925 4.10893 0.62955 -1.85432 0.182559
3731 12.1322 8.25463 4.22962 -0.93028 0.272911 0.284688
74 11.7055 7.80759 2.99232 0.454784 1.48723 0.287164
1249 13.0981 7.61874 3.63922 -0.241815 -0.280289 -0.387207
1770 14.187 7.73319 3.9954 0.86231 -0.217971 -0.00850295
2616 13.8945 8.1127 3.113 0.434354 1.25583 0.239296
428 13.3562 8.47318 4.20384 -1.37751 -0.958093 -0.707023
806 15.1745 8.10414 3.74164 0.221918 -0.746449 -0.656049
1584 16.327 7.86331 3.94972 -2.07407 2.71783 2.72453
1225 16.6672 8.07918 3.04654 0.462675 0.0201148 -0.710317
3855 1.03773 1.40719 5.52705 0.928582 0.892989 -1.55836
2754 0.990873 1.34997 4.37952 -0.443071 3.18419 0.0349384
2055 2.01432 1.21361 4.62634 -0.576694 -0.18961 -0.294966
3418 2.66419 0.470862 5.26885 0.75908 -0.671784 0.52607
1651 1.58071 0.569433 5.58503 1.01865 0.672816 1.70766
423 3.34347 1.0223 4.55243 -1.04552 -1.18065 -1.01545
66 5.50858 0.677364 5.06632 -1.32137 0.262986 1.26051
3880 4.37332 0.293224 5.03888 -0.585174 0.724144 -0.281955
1547 6.16067 0.49559 4.3049 1.14317 0.187005 1.19349
2556 6.41085 1.38731 5.12413 -0.104672 0.461291 0.687373
281 6.60442 0.126469 5.24682 -0.377008 1.34141 -0.275982
2441 7.59787 0.123036 5.56645 1.71415 0.34407 0.434189
1270 8.4319 0.8031 4.70117 0.775629 -0.0491154 1.0583
958 7.31984 0.939699 4.9032 0.707814 2.06592 0.241933
1523 9.95904 1.39723 5.48949 0.469421 -0.175201 -0.345419
1060 9.47912 0.716677 4.90093 0.811552 0.5156 -0.363067
2530 10.8317 0.783862 5.36815 0.298609 0.933534 0.623327
2172 10.2658 0.108428 4.64639 0.993841 -0.947105 1.27067
477 11.7318 0.912846 4.85343 0.00980478 -0.460037 0.53973
3836 12.5398 0.433041 5.40983 -0.660201 -0.207679 0.510124
1829 13.4026 1.14403 5.0138 -2.28756 0.482887 1.39911
3566 13.9208 0.255131 5.02771 1.01565 0.662353 0.118483
797 15.4292 0.875758 5.6103 -0.559323 -1.30841 -1.39948
2672 14.6944 0.805069 4.62257 -0.00972166 -0.734232 -0.488504
1326 15.8086 0.440786 4.77453 -1.04867 1.41693 -0.784794
1003 17.0312 1.25219 5.05842 -1.68481 1.14112 -0.0845221
3767 16.824 0.304923 4.5124 -0.966873 0.295766 -0.357694