ITEM: TIMESTEP
69000
ITEM: NUMBER OF ATOMS
4000
ITEM: BOX BOUNDS pp pp pp
0.0000000000000000e+00 1.7099759466766969e+01
0.0000000000000000e+00 1.7099759466766969e+01
0.0000000000000000e+00 1.7099759466766969e+01
ITEM: ATOMS id x y z vx vy vz
909 1.0209 0.305028 0.368696 0.211804 -0.513207 0.843453
775 1.78015 0.679675 1.04217 0.970398 -1.60112 0.933174
2466 1.93606 0.84379 0.0165887 1.48331 -1.37331 0.61839
1350 4.01174 0.613143 0.665571 0.228923 -0.561472 0.504165
2016 3.54774 1.2775 1.32626 -0.410821 -0.033803 0.686506
2427 2.85053 0.514271 0.468962 0.230284 0.877924 -0.663308
3713 4.94001 0.734692 0.682659 0.0152158 1.64179 -1.14778
3115 5.60638 1.13212 1.29622 -0.756572 0.608933 2.36372
3403 5.87801 0.836496 0.347302 -1.63843 -0.133858 1.96549
2751 6.90526 1.00531 0.204836 0.34615 -1.10579 0.585007
1102 6.54713 0.425538 1.18607 -0.938557 -0.175574 -0.117958
588 7.69237 1.18562 1.02008 0.812873 -1.31535 1.28602
2228 8.485 0.165212 0.740048 -1.24612 -1.96075 1.46063
2640 7.48529 0.132513 0.58412 -1.56899 1.4751 0.243241
210 8.75354 1.24268 0.59789 0.256433 -1.0222 2.33812
2324 9.78818 0.587072 0.332624 0.116013 1.25697 -0.447453
2246 10.56 0.757651 0.89847 0.748487 2.48167 0.378437
682 11.0693 1.37633 0.318743 0.415503 1.43276 1.3914
1463 11.5999 0.583221 0.952715 0.132792 1.13692 -0.302697
3419 12.2682 0.901213 0.141378 0.20183 -1.50706 0.301196
844 12.9524 1.0582 0.847633 -0.404857 1.11305 1.13483
3890 14.3866 1.31843 0.721873 0.621063 0.477621 -0.362674
1925 14.3645 0.389105 0.26147 -1.21986 -2.46996 -0.101028
865 15.8747 0.636235 1.257 1.58082 1.00353 -0.277408
3368 16.763 0.110535 0.729153 0.345499 -2.41413 0.66439
3900 16.8062 1.18686 0.065168 -1.98983 0.0259853 -0.0395619
2075 0.816416 2.02102 0.933134 -1.99738 -1.67635 0.674025
474 1.58726 1.8089 0.283969 -0.660515 -0.398661 -0.867919
2050 2.13826 2.16379 1.23085 0.109184 -1.829 1.03169
2448 4.15586 1.66098 0.58268 -0.0499034 0.788571 1.15154
465 2.96334 1.58052 0.584788 0.768167 0.072972 0.97689
3254 4.41217 2.70362 0.694636 -0.382574 1.84075 -0.649652
3231 5.10157 1.64122 0.0250018 -0.408362 0.625084 -0.891507
3688 4.98759 1.90416 1.21731 0.548689 0.961114 -2.19942
1383 5.88513 1.93896 0.67983 -0.610425 -1.42877 -0.214796
2217 6.64564 1.58788 1.19242 -0.0504945 -1.95836 0.400145
3087 7.65014 2.41118 0.670714 0.388509 0.344734 -0.894139
2315 9.62202 1.67935 0.898393 1.85342 -0.58324 0.581063
2808 8.61103 2.1735 1.13142 -0.375701 -0.31665 -0.961952
1090 11.2986 2.65279 0.93814 -1.51699 -0.740038 -0.536097
3057 10.2163 2.48496 0.610154 -1.59902 -0.258658 1.00551
1524 10.6161 1.71725 1.30574 -0.0624645 1.56457 0.768916
3020 12.7445 2.15529 0.807046 1.6996 -1.53287 -0.371247
2818 11.6784 1.62656 1.16402 0.0889166 -0.231169 -1.98692
3460 12.0751 1.92556 0.0847019 0.555464 0.341691 1.5183
1437 13.95 2.1982 0.118774 -0.738785 0.203311 0.116147
860 13.7116 1.92197 1.39128 -0.649765 -0.682833 0.717053
3061 15.0333 2.22441 0.153771 0.629197 -0.3125 -0.727421
1539 14.7742 2.24194 1.22994 -0.0577069 -0.872952 0.933476
1903 16.6245 1.7 0.878824 1.99538 0.892376 1.12556
677 15.6891 1.50691 0.67766 -0.265724 0.5269 0.172606
1462 15.8024 2.39673 1.13554 -1.1437 0.458244 0.0186489
1608 0.610875 3.35245 0.578377 -1.27308 0.00557519 0.854908
1467 2.25397 3.63438 0.329201 0.252484 0.645348 -0.875682
1769 1.66885 4.23757 0.842913 -0.684963 0.454621 -0.697483
424 1.56877 2.92957 0.720195 -1.21856 0.286704 -0.635323
415 2.94593 2.8586 0.476854 2.0431 -0.128598 1.08318
3875 3.29599 3.4274 1.33452 -0.243875 -1.16223 -1.0538
2049 5.42434 2.948 0.667532 -0.0962519 -1.37258 -0.659936
2374 5.61425 3.9564 0.835483 0.443612 -0.42671 -0.0816122
779 4.37605 3.94823 0.948261 -2.37444 0.220597 -0.445567
2035 6.46304 3.07345 0.863999 0.852684 -0.65548 0.493835
1856 6.22822 3.63378 0.0154045 -0.587991 -0.892017 -0.874282
3953 7.33645 3.35814 0.0179097 -0.806401 0.0690391 -0.268667
2468 8.42825 3.85623 0.594834 -0.63477 -1.71807 -0.635411
1716 9.11034 2.90657 0.575393 1.09301 -0.917707 0.335242
3018 9.745 3.68935 1.16588 0.383503 -0.100424 2.68908
3198 10.7369 3.54144 0.829396 1.42568 -2.00255 1.2154
1438 9.99721 3.89277 0.00213393 -1.24985 -0.0576287 -2.03542
745 12.4615 3.14104 0.372592 0.981861 -0.731116 -0.71971
626 11.8483 3.5115 1.21651 1.31866 -0.376064 -0.509163
2248 12.6889 4.15964 0.0854964 0.204613 0.406735 0.0881808
3085 12.8635 4.0979 1.19998 -0.485335 0.396342 -1.41769
3268 13.3907 3.16949 1.29453 -0.403138 -1.54611 -0.474327
2247 13.5296 3.48624 0.244565 1.44872 0.791222 1.10492
2800 14.5158 4.07493 0.864674 -0.325352 0.947942 -1.08751
3008 14.2878 2.95091 0.718179 -0.583655 -1.3682 -0.0303038
61 15.6546 3.93988 0.43501 -0.262745 0.138937 0.163297
3420 16.3274 2.86392 0.32849 1.05964 0.801124 -0.565642
2756 16.4831 3.50145 1.31165 1.12717 -1.45427 1.77569
1612 0.372717 4.55452 0.397854 0.76685 -0.483324 0.599643
1601 1.13895 5.27617 0.661098 0.0109687 0.672495 -0.953098
3966 2.09744 5.31678 1.2315 0.19122 -0.264127 -1.22275
1005 1.96647 5.551 0.196544 -0.476055 -0.297418 -0.27373
1880 2.97567 4.40278 0.774831 0.265544 -0.969578 -0.326306
1639 3.67113 4.84287 0.0668029 -0.52553 1.23598 -0.83765
954 2.96868 5.58116 0.623976 2.60162 -1.79128 0.651585
3736 4.56679 5.14311 0.0357623 -1.47595 0.382015 -1.48612
72 5.60908 5.10427 0.831548 -0.380601 -0.632037 0.514275
3919 7.80175 5.4227 1.3665 -0.639097 3.45374 -0.595657
1879 8.25922 4.85826 0.565376 1.83854 0.244952 -0.925558
191 7.17921 4.77181 0.80871 0.72671 -1.50904 1.13052
1831 9.81661 5.16159 0.83499 -1.07781 -1.60024 0.00388874
587 8.75226 5.43008 1.26499 -0.409921 0.453811 -0.204395
19 9.14027 4.42318 1.33213 0.193896 0.545444 -0.383315
3031 9.07862 5.60368 0.00201305 0.99754 -1.7095 -0.66046
1919 10.8286 5.4857 0.645031 0.333521 1.01476 1.40904
113 10.9704 4.48313 0.283687 0.611928 0.213664 0.661833
3440 11.8001 4.69761 0.828072 -0.748704 -1.01342 -0.150606
3802 13.6078 4.58689 0.570286 0.999439 2.95822 0.0781359
3145 14.862 5.18328 0.826761 2.41294 0.0194035 0.56369
667 16.6783 5.2588 0.601028 1.20235 -0.315216 0.289164
3844 15.8176 4.8258 1.41318 -0.502597 -0.803243 0.204844
978 1.08212 6.35376 0.629875 2.40193 0.639353 0.192278
36 0.368654 5.80296 1.29392 0.142246 -0.0393225 -0.602462
2269 0.159742 6.72056 0.181307 -1.76807 -1.10322 -0.286066
1056 0.588505 6.8808 1.36804 0.823075 -0.350179 -1.38818
707 2.04879 6.70629 0.903632 -0.00177955 -0.112927 -0.160694
2608 2.94867 6.76395 0.334601 -2.71266 -0.768608 0.58896
1419 3.76819 6.93785 1.11565 1.27293 -1.05025 -1.07704
2040 4.21669 6.01896 0.529734 -1.77128 1.07435 1.82625
2074 5.45347 6.83748 0.961086 0.196581 -0.393597 -0.737681
2349 5.47091 6.0306 0.152583 -0.173916 0.435025 -0.0312188
3724 4.67198 6.9748 0.108948 1.02545 0.025574 -2.86589
1495 6.36865 6.76946 0.469779 -0.0516832 0.279851 0.902801
1264 6.98141 5.72665 0.147958 0.303958 0.302323 0.518974
3710 5.81615 6.07366 1.40798 1.85457 0.936979 -0.721684
3009 8.07467 6.01705 0.539321 -0.378859 0.372971 -1.10732
2827 7.17008 6.31291 1.34678 0.434413 0.67075 1.11957
3452 8.16107 6.92071 1.02774 -0.553364 -0.549266 -1.38179
661 7.37732 6.95698 0.447006 0.566631 -1.07609 0.445367
2774 9.04484 6.26494 0.863717 0.620437 -0.898664 0.214733
1806 9.80407 7.06728 0.88694 -0.445482 2.65099 -0.4768
2467 10.6085 7.00445 0.0554701 0.123119 -0.878511 -1.04229
3443 10.0143 6.21048 0.0375386 2.14572 0.226875 0.737489
321 10.1889 6.11312 1.25179 1.09736 0.288864 -0.178529
938 11.5995 6.29952 0.756154 1.74262 0.225086 -0.118899
2576 12.7251 6.14782 0.917776 -0.316777 -0.890663 0.67565
2919 12.2267 7.0352 0.390234 -1.58682 1.42128 -0.934471
2853 13.9648 5.95557 0.625646 0.0272054 1.08236 -0.488737
832 13.2047 6.82081 0.115086 -1.09788 0.115495 -0.40353
1909 15.5474 6.21048 0.837674 -0.83745 0.91897 -0.847171
2384 14.6462 6.57032 1.36452 0.360419 0.500045 1.06483
1444 14.9767 6.89367 0.4195 0.222078 -0.803122 0.676641
2930 16.4989 6.46667 0.9276 -0.0648072 0.910402 0.113633
818 1.34594 7.73729 0.919205 -0.551067 -0.480952 -1.30558
433 0.3024 8.08514 1.0066 0.964885 -0.70126 0.0636466
2375 0.537822 7.9504 0.0663293 -0.583595 -0.985147 0.662179
594 1.95279 7.37156 0.0275786 0.460543 0.642398 0.556715
1600 3.36143 7.9628 0.659206 -0.599966 -0.610218 -0.525948
3821 5.22339 8.19412 0.730136 0.690132 -0.0829711 -1.19921
2089 4.5756 7.57203 0.935967 0.170653 0.276994 2.50879
3801 6.3511 7.82529 0.317679 0.212865 -0.253208 1.94898
1622 6.18668 7.48967 1.35924 -0.100021 0.446945 -0.904559
190 7.23637 7.30393 1.41965 -0.11903 0.43674 0.482257
1912 8.0345 8.02746 0.49851 -1.53277 -0.680297 -0.591139
2882 8.71513 8.14958 1.26634 1.31112 0.0370121 0.491167
1683 9.20744 7.89649 0.460458 -0.292037 1.50881 0.121344
2348 10.98 7.12542 1.03645 -0.314064 0.0713863 -1.04928
2388 10.8291 8.16556 1.41539 -0.662015 -0.888366 -0.784577
1019 10.27 8.07957 0.488217 0.533298 -1.90409 -2.10654
464 12.5568 8.22406 0.24247 0.36823 -0.211304 -0.505957
1687 11.6661 8.03094 0.614485 0.194797 0.513592 -0.795108
2540 12.3993 8.26098 1.35754 1.347 0.520636 -2.31189
1723 13.9602 7.23799 0.805626 -0.563819 -0.787461 -0.793524
1081 12.9273 7.48066 0.968621 1.08573 0.0896426 -0.446875
1212 13.5317 8.23407 0.780141 1.52365 -0.14532 -0.934299
984 15.1766 7.58006 1.19045 1.777 -0.389979 -1.13456
754 14.5257 8.06282 0.381038 1.38185 -0.328836 0.517655
1169 16.5266 8.37228 0.768144 -0.316994 -1.25796 0.219212
2817 16.3567 7.44846 0.492474 0.911302 0.514152 -1.05298
2842 0.230398 0.728738 1.50683 0.397096 -0.0396473 -1.54755
822 2.7052 0.896246 1.67935 1.12948 2.02748 -0.535615
158 1.45494 0.402521 2.59153 -0.200881 1.31064 0.33854
2472 2.35155 0.926432 2.66518 -0.231245 -0.830173 -0.0335829
2867 1.59964 1.31827 1.77109 -0.92983 0.266708 0.54452
3679 3.69715 0.51772 2.51636 0.0440857 0.765549 -0.490662
2081 5.42365 0.349983 2.22373 -1.182 1.75862 -0.0677923
2184 4.42827 0.970061 1.53694 -0.220996 0.346137 0.534441
300 7.10843 0.812536 1.8549 -0.544437 -0.799614 -1.16377
3812 6.7449 0.50201 2.78807 -1.08534 -0.761706 1.5632
2692 7.73885 0.819022 2.73176 -0.339889 2.46357 1.24818
1595 9.66081 0.71983 1.43881 0.445135 -0.442351 0.85367
3575 8.59261 0.937649 1.6734 0.176658 0.258979 -0.60981
3003 9.31422 0.607274 2.44445 -0.65442 0.109242 -1.48617
962 10.9221 0.345608 1.91889 1.01398 -0.972956 0.619151
2077 11.2118 1.33457 2.49829 0.0178092 0.918084 0.547599
2410 10.1634 1.09283 2.45696 -0.515815 1.34501 -0.019994
851 12.3871 1.11174 1.85912 -2.23605 -0.851051 0.0278138
477 12.185 0.676835 2.75241 -1.97099 0.802318 1.40678
2519 13.9711 0.215028 2.56794 0.70591 0.255982 -1.94392
313 13.4219 1.05685 2.36186 -0.18268 -1.73502 -0.319672
90 13.0917 0.160443 1.63615 -0.730935 -1.65901 2.07286
1049 13.8777 0.645636 1.50073 -1.5777 1.97025 1.53908
2055 14.784 0.974979 2.81263 1.02947 -1.31113 -1.5188
1583 15.4735 1.24688 2.06002 1.79794 -0.20529 -1.96583
951 14.9697 0.428093 1.77505 1.0533 1.75826 0.341025
1367 17.0623 0.40292 2.51434 -1.16441 0.808794 -1.41143
187 15.8562 0.237464 2.59814 1.82181 -0.811035 0.372433
2611 0.678444 1.7314 2.05177 2.43751 0.988 1.76496
2160 0.110091 2.68088 1.5035 -1.19142 0.847904 -0.998869
3664 0.125374 2.32042 2.61472 -1.07677 0.170823 0.125105
3333 2.71436 2.25221 2.83305 -0.264102 -1.23255 0.405075
2480 1.57122 2.75213 2.0355 2.02346 0.461864 -0.447802
3990 3.18491 2.21903 1.51586 -1.16521 -0.680977 1.90176
197 3.24192 1.49119 2.29858 1.11902 0.579084 0.245968
3670 4.11967 2.40934 1.6215 0.714053 -0.112929 0.192494
342 4.43081 1.51247 2.54114 -0.270441 0.565674 -0.0630927
1927 5.09847 2.20389 2.17745 -0.863481 0.933531 -1.86228
463 6.06051 2.31769 1.64277 -0.230424 -0.631129 -0.417625
273 6.03525 2.27376 2.83168 0.72804 1.01327 0.981429
3377 6.28053 1.43839 2.22058 0.989716 2.12144 2.22408
2747 7.18981 2.09874 2.27671 0.0513235 -0.448217 -0.740031
1547 8.31733 1.90752 2.20045 0.498392 -0.855449 -0.563779
847 9.299 1.72189 1.85093 -0.904034 0.174804 -0.166982
2988 10.2951 2.78331 1.74983 0.258243 -0.525881 -1.22771
1922 12.7096 2.4568 1.89981 -1.20558 1.51777 1.15044
1535 11.7013 2.20652 1.98028 1.45765 0.22296 1.71588
1349 12.2972 1.7663 2.82555 -0.178871 -0.0692812 -1.48077
359 13.7032 2.10288 2.61075 0.764919 -0.0551325 0.0638651
2002 14.8406 2.62319 2.26415 0.278393 1.1942 -0.106562
1557 14.3958 1.52336 2.08819 0.943043 0.517965 -0.526793
2826 16.0202 2.80847 2.3871 0.577153 0.0725919 2.1487
2305 16.5646 1.76583 1.93694 0.477434 -0.123701 -0.288214
2951 0.49542 3.78322 1.45011 0.37436 0.114595 0.120518
3175 2.31081 3.21437 1.43976 0.71721 -0.190619 0.587233
1841 2.17222 3.68971 2.37611 1.00306 -1.3987 0.637757
733 3.3325 2.98503 2.37728 -1.4558 -2.06502 0.552548
237 3.05012 4.10356 2.45091 0.920925 -0.0377475 -0.228495
426 4.42247 2.95401 2.44681 1.12382 -1.30431 0.344548
1976 5.29792 3.23121 1.7625 0.277495 -1.51715 -0.239005
2784 4.66748 4.17703 1.96517 -0.874694 0.762993 -1.83711
891 6.04098 4.11626 1.71758 -0.249909 -1.89403 0.0201261
199 6.45262 3.16281 2.1692 -1.44859 -1.48351 0.181204
2331 7.13232 4.25863 1.96576 -0.350305 -0.0924011 0.802789
1958 7.85306 3.7521 2.33193 -0.377626 1.96276 0.858411
741 7.31226 3.24482 1.49917 0.63511 1.8131 1.40237
2888 8.36621 3.15199 1.66228 0.00166598 -0.122033 -1.26819
3669 8.13335 2.89279 2.76993 -1.799 0.649825 0.302533
34 9.41106 3.23536 2.14069 0.378784 0.698715 0.215975
453 10.0048 4.1239 2.80698 0.817539 0.959579 -0.516759
3392 10.9319 3.55327 2.1324 0.204128 0.479427 0.534989
3433 11.8884 3.07889 2.42792 0.107022 0.693936 0.898094
2412 14.1235 3.96433 2.01375 1.14087 -0.200176 1.65497
3121 12.9418 3.5673 2.22566 1.14067 1.23794 -0.108573
3777 13.7487 3.00723 2.24461 -1.13617 0.00383021 -0.274743
1972 14.7969 3.30193 1.55801 -0.776199 -1.16974 0.323229
339 15.2632 3.53927 2.58846 0.30946 1.21568 -2.48823
1718 17.0195 3.39318 2.29934 1.02406 0.691575 0.153937
1200 16.0395 4.07729 2.374 0.329126 -0.446416 -0.754203
1290 1.11062 4.85333 1.61778 -1.06352 -2.2818 0.840026
2176 1.07407 4.43075 2.63432 -0.256506 0.606045 -1.35054
2032 0.413919 5.23551 2.3367 0.803651 -1.70649 1.0541
2442 2.26075 4.37024 1.65999 0.460433 1.07275 1.24887
1689 2.83613 5.332 2.22891 0.881115 0.66965 0.458118
1591 1.82386 5.11339 2.4142 1.54248 -0.189189 -1.16341
2761 3.97115 4.61991 2.63109 -0.500704 -1.22668 0.322942
3697 3.63508 4.54925 1.48173 -1.12239 -0.464428 -0.336781
2976 3.69476 5.65406 2.80643 0.958505 0.69703 0.0791524
2883 4.50269 5.12329 1.55457 0.183357 0.428565 0.909884
1129 5.37467 4.92244 1.99489 0.0440083 -0.217062 1.47194
1980 6.54977 5.18314 1.58008 -0.00884989 -1.43478 0.999453
97 8.04883 4.49207 1.55504 0.279259 -1.26738 0.27458
989 8.22511 5.32723 2.45761 -1.61107 -0.683528 -0.0100168
3944 7.20846 5.68507 2.22824 -0.687145 0.773553 0.646838
362 9.29709 5.37644 2.80913 0.435715 1.10443 -0.0605872
2431 9.87491 5.0781 2.00826 0.695365 2.37759 1.79509
1035 8.91422 4.38729 2.39048 0.603443 0.331573 0.420731
2237 10.5686 4.44953 1.54588 -0.856568 -1.86898 1.00922
888 11.0065 4.87385 2.54414 -0.231176 0.306715 -0.388843
1476 11.0807 5.63255 1.70129 -0.909706 -0.229817 -1.0373
2289 12.0716 4.49184 1.80463 0.636143 -1.03635 0.828661
3622 12.3321 5.51913 2.75186 0.118138 -0.937381 -0.17956
1152 12.2649 5.44616 1.53356 1.46355 -1.0594 0.662404
3603 13.3133 4.6663 2.81008 0.137962 -0.444205 -0.737243
2950 13.2117 5.23962 1.7535 1.55238 -1.31854 1.61428
932 14.1124 4.98298 1.57561 -0.124562 -0.0947884 0.609414
2551 15.1071 4.38806 2.00499 -0.796092 0.242387 0.483714
269 15.0738 5.66142 1.72704 0.10987 0.299158 0.73492
2145 14.552 5.03059 2.5022 -1.33402 0.495664 1.00584
1269 16.8739 4.57595 1.62876 0.331959 0.807364 0.856529
3468 15.8164 5.16073 2.55581 -0.603187 -1.29667 0.181322
1393 16.3524 5.69123 1.74149 -0.037632 0.0575685 0.402597
2724 1.08645 5.93609 1.99892 0.67557 -0.340511 -2.54888
1780 2.81046 6.17602 1.55022 1.15642 -0.254957 -0.427045
859 2.19479 6.13292 2.33939 -0.503075 0.0821205 2.25729
3469 3.83315 6.09482 1.82059 0.0287371 -1.32831 0.53319
1182 3.34616 6.89905 2.23818 0.479236 -0.267231 0.135794
2529 5.40732 6.75241 2.52997 -0.819797 -0.613836 0.449506
686 4.67302 5.82986 2.3455 1.78351 -0.947134 -0.598706
1703 4.8788 6.63574 1.65605 -0.158672 0.288623 -1.29836
552 6.34523 6.83356 2.22575 -0.49422 -0.109934 -0.795003
525 6.02922 5.82484 2.31449 0.303466 -0.627794 0.170261
3636 7.51912 6.83387 2.40664 1.11288 2.94792 0.647139
2007 9.16717 6.05299 2.03758 1.51756 -1.54417 0.29319
1828 8.78294 6.91707 2.68692 -0.624878 -1.54196 0.360977
3068 11.293 6.59001 2.06237 0.925584 -0.202663 0.121297
1487 10.1869 7.01943 1.89377 0.144523 0.156529 -1.57902
3007 10.1224 6.06153 2.53542 0.873765 -1.25419 -0.454295
3161 12.52 6.41503 1.90358 1.65219 0.420087 -1.28261
3132 11.923 6.63799 2.83562 0.0898574 -0.0761922 -0.780874
3136 14.0527 5.89753 2.22775 0.688292 0.115801 1.55616
189 13.5172 6.18353 1.47571 0.0681902 1.13618 -0.870486
729 12.9604 6.91597 2.64407 -0.388561 -0.343445 1.12438
3369 14.8018 6.77399 2.34891 0.400407 0.255923 1.32433
1381 15.8399 6.69357 1.74843 0.113767 -0.411532 2.09407
524 15.8872 6.81635 2.80841 -0.563653 -1.49664 -0.41327
1087 16.8548 6.54006 2.14598 0.529357 0.867857 0.204888
3923 0.851994 8.1352 1.83032 -0.29954 0.938445 0.373054
639 0.584748 7.23517 2.37619 -1.539 0.114869 0.64401
604 0.407255 8.30471 2.70805 -0.347539 0.0936576 -0.0704879
1541 1.36935 7.7492 2.78781 -1.06255 1.72264 0.854356
2789 1.53741 7.19015 1.91902 -0.795098 0.467978 1.0195
2929 2.35694 7.20339 2.70696 0.146592 -0.693966 0.980259
1227 2.0928 8.20706 1.94145 -0.659653 0.16535 -0.90604
1136 2.5653 7.30212 1.60325 0.815196 -0.335182 -0.260003
2267 4.19995 7.45479 2.6693 1.35658 0.896797 1.72878
491 3.42037 7.92466 2.15271 0.0622692 0.389727 -2.51333
2288 4.2332 8.20011 1.67021 1.60195 -0.00687526 0.991973
271 5.16554 7.72334 1.77854 0.409901 -1.87535 2.38012
2550 6.98725 7.70742 2.42844 -0.0412416 1.79431 -0.0342851
8 6.11211 8.2635 2.15805 -0.404151 0.428054 1.55409
2891 8.05671 7.62795 1.86596 -0.813062 -0.558985 0.484109
265 9.60033 7.46784 2.66227 -1.06107 0.254999 0.659041
969 8.78883 8.31807 2.32327 -0.207557 1.70873 -0.741234
1099 9.72005 7.95619 1.68999 -0.962352 0.0992961 -2.84219
332 9.12068 7.12899 1.78552 -0.113385 -0.0172807 -0.276309
2902 10.6631 8.43803 2.73793 1.05727 1.35722 -0.811603
3335 10.7969 7.19004 2.73014 0.897006 0.787958 0.542858
805 12.0442 7.19434 1.42796 1.33495 0.691974 -1.62868
2293 11.9564 7.97899 2.34604 0.400117 -0.969031 2.55524
3694 13.9146 7.29407 1.93731 1.18134 -2.29583 0.335528
3408 13.012 8.06181 2.225 -0.137627 -1.38346 -1.23914
421 14.2715 8.15951 1.44777 -0.770255 0.115147 -2.09471
3149 14.5171 8.11626 2.48437 -0.692668 -1.33191 -1.03024
361 16.7336 7.40247 1.56988 0.693637 -2.13214 0.326626
2291 15.7759 7.70654 2.14074 -1.42226 0.0408223 -0.796348
3749 16.7357 7.39641 2.70381 -0.477525 -0.805843 0.227557
423 0.734343 0.474606 3.41519 0.653937 -0.51699 -0.636429
3200 0.237376 1.4161 3.03465 -0.412212 0.702962 -0.945627
1003 0.214622 1.19867 4.0698 0.113094 0.997245 0.649484
2593 2.3426 0.854067 3.81105 -0.362755 -0.563549 0.392793
1815 4.22336 0.182385 4.2635 1.76973 -0.206437 -1.861
3324 3.28489 1.16198 3.38058 -0.188267 -1.97591 -0.581635
2900 4.5093 0.376816 3.17341 -0.79373 0.0728104 1.88472
100 5.42221 1.26297 2.99972 -0.300826 -1.1374 -0.00789082
3659 5.24877 0.670133 4.00543 -0.0701623 -0.372935 0.100422
2665 4.42297 1.31098 3.9355 0.135003 0.891065 -0.838705
2780 5.96413 0.101591 3.36597 -2.70983 -0.82025 0.303482
222 8.50293 0.794254 3.42665 -0.850139 -1.72351 0.0316616
1992 7.19055 1.26819 4.12356 0.96228 -1.40405 -2.27175
1270 7.91354 0.576731 4.20491 0.0860322 -0.509076 1.49477
356 7.48542 0.0512279 3.36957 1.15113 -0.592167 0.920947
731 9.5626 0.104498 3.68122 -0.319898 -1.02244 -0.663261
3924 11.3364 0.147181 3.17709 1.00155 0.1585 2.25506
3627 10.3302 1.00915 3.4879 0.821333 0.271613 0.479825
2068 10.3161 0.0931508 2.99685 0.995594 0.625697 -0.916272
2568 11.5286 1.17535 3.52281 -1.88939 0.754359 -1.33655
2147 12.6527 0.953869 3.66013 1.66019 1.03275 -0.825892
3952 11.869 0.241909 4.15056 1.17359 -0.895338 -0.551695
956 13.8593 0.119762 3.53888 -1.09485 0.163981 2.20403
554 13.6825 1.08358 3.35894 -0.89632 -0.0136194 0.116418
2154 12.9415 0.101799 2.85864 -0.783666 -1.14295 -1.0025
1326 14.9462 0.00647747 3.58511 -0.369093 -0.354307 0.688617
3247 14.4608 0.792227 4.20234 0.0308276 1.48488 1.11945
1825 15.2989 1.03897 3.75723 1.17539 -0.631505 0.745484
2672 16.3077 0.850685 3.31874 0.0580298 -0.854161 0.576853
4 16.241 1.40035 4.13229 1.05796 1.52823 0.109913
797 16.0259 0.281354 4.16491 0.26986 -0.554238 -0.641996
3390 0.796049 2.01777 3.81535 -0.901865 -0.869919 0.1256
1410 1.77083 2.36334 3.13285 0.223522 -0.843847 2.38754
3222 2.19938 1.89441 3.93787 0.10186 0.0263121 1.30741
1884 1.57631 1.42588 3.32708 0.608075 0.421624 -0.512425
635 3.74589 2.01877 3.24181 -0.527247 2.13728 0.10295
3572 3.11043 2.65652 3.72287 -1.5051 -0.550445 0.216767
2834 5.03221 2.12083 3.2755 -0.0561751 1.4782 1.90237
612 4.62013 2.83717 3.88806 -0.470692 0.0734427 -0.222588
316 6.33009 1.74534 3.63145 -0.128103 -0.35748 -1.99213
3579 7.89163 1.706 3.32542 -0.161824 -1.4619 0.637979
1408 7.59129 2.62057 3.62897 -0.480482 -0.548459 -1.02945
3505 9.17845 2.44337 2.87699 -0.0930172 -0.139202 0.0641588
3891 8.71729 1.7021 3.89065 1.82596 0.532708 -1.93123
1548 9.63333 2.47799 3.84294 0.0910763 -2.13704 -0.773088
2854 8.55171 2.71489 3.66799 1.57838 0.174541 -1.33941
689 11.2151 2.32061 2.85937 -0.570643 -1.32717 1.2837
2278 10.0066 1.87632 3.0074 0.36713 -2.5796 -0.450501
3366 10.6684 2.18617 3.86448 -0.289466 -0.174863 -0.728325
2778 11.7275 2.15402 3.86229 -0.108088 1.28657 -0.427375
3113 13.1034 1.89074 3.60284 0.663277 -0.666299 -0.280768
765 14.2221 2.80287 3.36581 0.57537 0.0973371 0.682451
3711 14.5501 2.31766 4.19707 -0.688163 0.613891 0.808572
201 15.3187 2.71396 3.26212 0.148696 1.15684 -1.27807
881 14.6774 1.93867 3.13969 -0.496113 -1.20057 1.45403
3855 15.6786 1.65868 2.98739 -0.270158 0.899679 -0.0997549
3438 16.4669 2.23263 3.36029 0.108869 -0.0884855 0.0188994
2782 1.37862 3.5972 3.00442 0.242233 -1.24325 0.503127
3591 0.994045 3.04529 3.87789 -0.704733 1.21261 -0.68624
3499 0.548354 4.06595 3.47017 -0.555266 -0.114647 -2.55992
1332 2.48227 3.39206 3.34221 0.727687 -1.81698 -0.798836
2069 1.97059 3.34032 4.18721 -0.318669 -0.187009 -0.360877
1055 3.30619 3.64751 4.24622 1.72843 -0.689259 -1.00504
1527 4.01678 3.34113 3.33523 -0.453352 -0.772134 -1.25199
3225 5.11534 3.83262 2.90006 0.973632 0.477003 -1.74969
2588 5.26237 3.70893 4.15473 -0.138798 1.08231 0.142818
239 5.86138 3.30349 3.40837 1.53878 -0.308435 -1.1224
2693 6.68253 2.98517 3.95755 -0.0747733 -1.05048 -0.762432
618 8.17853 3.67393 3.40843 -1.56157 -0.745011 1.71568
2722 7.17249 3.732 3.17958 0.558038 -0.11737 0.924756
3803 7.43317 3.60202 4.20515 -0.884455 -1.996 -0.602248
2449 9.09411 3.51531 3.0861 1.19836 0.915218 -0.845962
2037 10.1652 2.98369 2.8615 0.300661 -1.18194 -1.08131
3837 11.0002 3.28047 3.56626 0.0576293 1.09777 -0.823
231 12.4669 4.10292 2.94409 -1.13001 -0.756164 0.809294
1050 12.4695 3.06697 3.3183 -2.47266 0.165963 0.85984
1643 11.5591 4.06279 4.05416 -0.585429 -0.316874 1.71182
1947 13.3553 3.55474 3.21281 -0.344156 -0.316615 -0.825985
2748 14.046 4.00344 4.16139 -0.158897 1.43199 -1.35216
1170 14.3307 4.08256 3.21563 -0.263776 1.09842 -0.162118
2434 15.3487 3.7521 4.03329 1.78213 -0.285984 -0.607972
1840 16.2106 3.70035 3.32577 1.14588 0.798042 -1.51131
2417 17.0477 3.21081 3.277 -0.258858 -0.503124 0.621821
773 16.2632 2.98619 4.21857 -0.910499 0.0672116 -0.0446373
3884 1.30857 5.53867 3.14829 1.22324 -0.6006 -1.03574
2687 0.301165 4.95951 3.78231 -1.07914 0.721044 0.421653
1414 2.35917 4.5404 3.12098 -1.40684 -0.429496 -1.07949
1325 1.44015 4.56333 3.62366 -0.777205 -0.140822 0.252268
1864 2.23971 5.62284 3.49286 -0.129467 0.938833 1.78625
850 2.55226 4.77546 4.27125 -0.441823 0.790192 0.907079
504 3.35703 4.60101 3.34408 0.12322 -0.197873 2.16282
2600 3.3261 5.51233 3.75894 -1.65459 0.697489 -0.455855
3090 5.02277 4.96332 2.96634 0.28048 -0.872902 1.09746
657 4.32314 5.33565 3.53884 0.12085 -0.741609 0.556676
2788 4.4989 4.31561 3.6567 -0.567564 -0.72745 1.46493
2652 5.97941 4.43196 3.41666 0.631252 -1.34207 -1.07717
346 5.80674 5.01358 4.05849 -0.403682 0.794363 1.5518
3737 6.95173 4.99146 3.98473 0.0083756 0.601248 -1.5597
3790 6.76297 4.96204 2.95041 -0.215877 -1.18934 -0.855812
1950 8.01147 4.57137 3.12139 -1.29221 0.559681 -0.975841
2091 8.98611 4.46671 3.89445 -0.4553 0.627566 -1.28942
793 10.2153 5.49073 3.80815 0.825845 1.40611 -0.276124
3695 10.6512 4.4817 3.45745 -0.0654956 -2.20897 -1.89258
434 11.4371 5.03492 3.58841 0.163689 -0.958504 -0.378716
188 13.861 5.27951 3.7225 0.601061 0.990318 1.56918
1609 12.8434 5.02891 3.8443 1.01691 0.0250688 -0.333714
1242 15.2923 4.50031 3.28935 0.685188 -0.419163 -0.447493
2567 16.8197 4.54358 2.89801 1.43282 -0.448171 -1.50132
2727 0.58633 6.19719 3.45473 -1.74525 -0.907998 -0.862879
1359 1.30304 6.012 4.09764 0.612819 -1.6652 0.75495
1584 1.5177 6.55563 2.94451 0.323859 0.0450283 1.7853
2876 2.04642 6.83754 4.13849 -0.731415 -1.46142 -2.43971
3373 2.99747 6.3812 3.02938 -0.284372 -0.246252 0.780129
3081 4.22018 6.42668 3.27906 0.396722 1.57688 0.553379
390 4.93552 6.10121 3.93502 0.488255 0.638116 -0.770532
895 6.8569 6.01423 3.23173 1.30104 -1.36904 1.48116
814 6.4221 6.29065 4.12155 -0.490739 -0.851214 -0.290056
2940 6.23636 6.97442 3.27595 -0.961039 -0.065653 -0.168413
1847 8.33242 5.99843 3.36287 -0.621528 1.0935 1.35921
900 7.4434 6.83214 3.45299 -1.79143 -0.765197 -0.238876
2223 8.32591 7.1131 3.8517 1.07686 0.741172 -0.921729
1509 9.34497 6.16971 3.43817 0.157325 0.780012 1.13538
2277 10.3983 6.73138 3.66952 -0.189822 0.16841 -0.805144
2314 11.032 5.82664 2.92441 -1.51715 0.633055 0.60006
249 11.3011 6.21338 3.83828 -0.0630908 -0.527572 -2.54177
2699 12.2403 6.88893 3.87949 -0.702793 0.390074 -1.37261
3484 12.3769 5.90594 3.80001 0.72314 -0.409023 0.826389
2215 14.0088 6.66812 3.0095 0.239011 1.73296 1.66604
3318 13.2789 5.98989 3.22603 2.01145 0.494353 0.720776
1690 13.9866 6.61984 4.07658 -0.889362 -0.217298 0.345358
401 15.0191 5.92335 2.95706 -1.22301 1.05675 -0.375565
843 15.1089 6.48653 3.99265 0.493281 -0.594125 1.43027
1214 15.8757 5.77201 3.45848 0.0522368 -1.37635 -0.336528
3415 16.6979 6.28948 3.66498 0.163387 -2.73362 -1.08473
3723 1.06674 8.39399 3.72691 -0.129863 -0.0361709 0.184981
2580 1.04328 7.2503 3.70079 0.943178 1.22126 1.11827
370 0.156003 7.50318 3.99004 0.150092 0.569489 0.0133559
2791 2.72311 8.27786 3.0624 -1.27585 -0.597371 -0.12917
3861 2.66735 8.21018 4.20779 1.0443 0.406802 0.488429
545 1.90375 7.73053 3.62236 -0.810023 0.24995 1.7824
2060 3.05334 7.43478 3.70854 -1.01023 1.69954 0.506573
3302 3.78072 8.20913 3.27938 -0.0379313 0.0251321 -0.643974
2686 4.88827 8.41442 3.61274 -0.494846 0.886684 -0.0830255
2056 4.5829 7.42328 3.6368 0.805612 -0.540108 0.314527
2353 5.39782 7.77117 2.89801 0.63154 0.231423 0.140414
2079 5.70996 7.83475 3.98165 -0.89349 -0.359927 -1.15278
1265 6.57138 8.41755 3.19187 -0.0888019 0.870825 1.04977
882 6.72789 7.50148 4.08754 -1.14807 0.162421 1.55257
2335 7.63308 7.81375 3.43721 -0.449213 -0.539861 1.2862
2949 9.67341 8.41095 3.25709 -0.602266 1.97317 0.593945
2670 9.40657 7.32156 3.61165 0.0601133 0.601283 -1.74478
631 10.4054 7.80495 3.78876 0.993862 -1.40772 -0.274704
2765 11.4537 7.5889 3.57318 -0.730934 -1.80012 0.251124
1322 12.8525 7.74602 3.21728 -0.969845 -1.05554 1.02895
3540 13.7326 7.66105 2.97085 0.667316 0.346132 0.201013
806 13.5428 8.48283 4.113 1.3246 1.00477 -1.38099
2933 15.0666 7.39102 3.15551 1.97745 0.242311 0.264703
3427 15.6129 8.31713 3.44121 -1.16662 0.455512 0.403175
3473 14.5209 8.09375 3.74796 -0.657368 -1.66705 0.360789
2991 16.1743 7.2283 3.72568 0.531297 -0.398006 -0.9627
3166 16.8086 8.29613 3.49501 -1.42357 -2.31723 -0.281202
2279 0.944985 0.353856 4.65588 -0.615433 -0.155393 -0.652097
3361 1.2769 1.30292 4.55292 -0.986385 -2.53111 -0.365181
735 0.182509 0.796396 5.17695 -0.173279 -0.0107597 -0.262688
3682 0.913937 0.228225 5.63015 0.666564 -0.458697 -0.593168
2001 2.13149 0.205875 4.52024 1.27186 -1.9887 -0.452925
1651 2.56261 1.33779 4.74808 0.256956 1.3161 -0.725478
1662 2.12461 0.574178 5.56047 0.386691 -0.739762 2.07992
1882 3.23584 0.460653 4.47241 -1.09336 -0.816729 1.72742
2821 3.10448 0.906095 5.55238 0.010129 -0.356064 -0.828107
785 4.74511 0.312588 5.09622 0.914644 0.337487 0.0952179
3641 4.56815 1.3735 4.9916 0.60578 0.0779968 0.488124
3119 5.45206 0.985575 5.15359 0.550005 1.87558 -1.49031
59 6.2103 1.05281 4.43222 -0.211641 -0.260396 0.189524
66 6.90278 0.321461 4.40839 -0.0793872 -0.815366 1.81541
282 6.65941 0.602979 5.57195 -0.0485435 -1.1263 0.0376615
892 7.58905 0.413967 5.17834 -2.04082 2.17129 -0.862024
1523 9.30356 0.945141 4.35475 0.65519 -0.345502 -1.11918
2172 8.66349 0.345586 5.03213 1.17599 1.26394 1.38531
2530 9.46128 0.770867 5.59382 -1.16041 0.851562 0.434755
35 8.66891 1.42134 4.96961 0.224829 2.24822 0.127957
3384 9.9728 0.176563 4.67758 1.75025 0.33915 0.797568
2594 10.877 0.884124 4.52618 0.165936 -0.698121 0.133494
3960 12.7119 0.25368 5.01332 -1.35918 1.51044 1.66708
3083 11.5725 0.290249 5.40001 0.712548 -1.01036 -0.516347
2351 11.9136 1.19565 4.77006 0.862668 -0.983522 -0.997438
1526 13.2961 0.77018 4.41228 -1.1697 0.0626799 1.35358
628 13.0271 1.1885 5.31121 0.966642 -2.79554 -0.182724
3768 15.6354 0.812642 5.06741 -0.986069 0.453973 0.0437975
710 14.3191 1.19427 5.28102 -0.767351 -0.0152048 0.768744
2814 14.3246 0.212075 5.00441 0.519314 1.35476 -0.27258
557 0.744444 1.85697 5.1953 -1.69806 -0.0676559 -0.144291
3741 0.686825 2.82217 5.26586 0.131813 -1.3702 -0.67783
355 2.52073 2.64798 4.79026 0.742701 -1.4856 -0.249882
3766 1.83345 1.94961 5.46575 0.229463 -0.469582 0.334476
2389 1.52356 2.39524 4.59626 1.52166 -0.979546 -1.22231
2488 3.6753 2.77021 4.994 -0.935351 -0.567438 1.82858
866 3.70928 1.72492 4.57898 0.530454 -0.781286 -0.644313
1931 3.02957 2.09597 5.5681 1.92668 0.407255 -1.03298
120 4.71844 2.83864 4.99912 -0.374884 -1.44653 0.197321