ITEM: TIMESTEP
46000
ITEM: NUMBER OF ATOMS
4000
ITEM: BOX BOUNDS pp pp pp
0.0000000000000000e+00 1.7099759466766969e+01
0.0000000000000000e+00 1.7099759466766969e+01
0.0000000000000000e+00 1.7099759466766969e+01
ITEM: ATOMS id x y z vx vy vz
3761 0.0489996 0.938238 0.907916 2.03754 -0.164648 -0.95596
1611 0.533711 0.392858 0.112491 0.231904 0.05899 -1.51259
1539 1.1333 0.618992 0.875822 0.300885 -0.343584 -1.19276
3142 2.12445 1.02064 1.19328 0.126024 0.962452 -0.0974181
2152 2.71186 0.439267 0.0502096 0.0996694 -0.531548 1.21468
68 2.93188 1.37096 0.581286 -0.00104857 0.990903 -0.0210931
2153 3.81748 0.791125 0.945335 -0.615313 0.202886 -0.382044
3145 3.09656 0.0530169 1.1991 -1.53994 1.37062 -0.123894
613 5.10822 1.25013 0.481867 -0.522319 1.23918 0.322308
2136 4.82079 0.0902044 0.506989 -2.87115 -0.23591 1.3512
265 6.32228 0.956011 0.155756 0.677857 1.48839 1.10791
242 6.97244 0.143394 1.28489 -1.08317 0.930181 0.907295
836 7.61662 0.663756 0.595927 -2.06735 0.329131 -0.733453
3228 8.57451 0.829378 0.432956 -0.123623 0.352262 1.50748
1984 9.35796 0.180156 0.249066 -1.12554 0.97038 -0.196229
1113 9.24361 0.225501 1.33102 1.44999 2.42384 0.0614652
1209 11.0518 0.818995 0.891572 -1.02813 -0.459672 1.21044
3400 9.97635 0.999063 0.811516 -1.25794 -0.164917 -0.914396
1480 12.0645 1.00039 0.470552 -1.14062 1.28621 0.371218
207 12.5922 0.090169 0.753667 -1.58872 0.141802 -0.704942
3113 13.4429 1.23995 0.647972 -1.65985 -0.521886 -0.290482
1086 13.6944 0.28773 0.463445 -1.14561 -0.911253 0.820795
442 15.1143 1.40058 1.15421 0.682054 0.855962 1.15618
3472 15.169 0.528366 0.114001 0.939441 0.338569 -1.17418
2911 15.0608 0.39223 1.17867 1.06613 -0.541159 0.831496
2724 16.472 0.149038 0.738058 0.136592 -0.119032 -0.328083
187 16.1329 1.19358 0.707817 -0.336595 0.561973 -0.561288
281 0.0185264 1.95044 0.676184 0.0728193 -1.31773 0.0163581
2951 1.07267 1.45891 0.457327 0.482129 -1.32988 -0.704032
3317 1.04482 2.21188 1.30612 -1.21022 -0.918796 0.0523409
2247 2.44567 2.06691 1.23845 -0.365956 -0.606511 -0.569577
2756 2.114 1.99365 0.0289999 -2.65063 1.04622 0.882465
1219 1.64379 2.64954 0.693002 -1.07015 -0.893372 1.00282
717 4.22835 1.79933 0.663457 0.41106 0.562823 0.635079
465 3.11466 2.50469 0.137628 0.36204 -2.20979 0.250403
2154 3.51776 2.8035 1.22306 -1.28106 0.431872 -0.614253
897 4.53699 2.59611 0.00881087 0.50185 -0.971781 -0.0971642
416 5.69881 2.35485 0.491193 -0.19072 0.654639 -0.14429
3445 6.88931 1.73638 0.561149 -0.456237 0.112064 -0.593775
3009 6.92324 2.81488 0.432501 0.7861 0.72788 -0.109743
405 7.97414 2.61279 0.222448 2.26106 1.70896 -0.63724
2410 7.76105 2.59655 1.2714 1.06565 0.212514 -1.5002
1404 9.5487 2.58292 0.979158 -0.747695 -0.718701 -0.773858
3691 8.66685 1.92081 0.862661 0.866422 -0.133154 -0.877699
231 10.4988 1.58354 0.194034 -0.963814 0.637188 1.05478
273 11.3764 2.56971 0.113508 1.82161 -0.837211 -0.920098
260 10.8821 2.42496 1.13721 0.230644 0.194195 0.712306
630 10.2936 2.80639 0.134398 -0.413128 -0.665374 0.279733
2335 11.7978 1.8955 0.969899 -0.879871 -0.519723 -0.223621
2485 12.7679 2.22813 0.681377 0.319636 -0.0323189 -0.111055
917 14.0776 2.12976 1.36756 0.715645 -0.936704 0.142569
711 13.4507 2.82036 1.18629 -0.455091 0.455442 1.91124
3919 13.404 2.83087 0.113733 -0.50625 -0.288151 -0.703696
2946 14.5258 1.4869 0.297194 -0.906044 0.585281 -0.451702
1981 14.4027 2.63428 0.479269 1.0414 1.22935 0.533637
2991 16.1397 2.35006 0.713973 -0.713764 0.640466 0.707218
1414 1.3772 3.83368 0.671939 1.12728 0.959824 0.702646
891 0.421492 3.18405 0.70185 -0.579713 1.59968 0.955107
1171 0.583224 4.15655 0.0483704 -0.87287 -2.15145 0.737794
1332 2.46722 3.34585 0.954807 1.43395 -2.57262 0.243085
15 2.54899 4.12822 0.194124 2.00488 1.03795 2.02506
1436 4.13413 3.6582 0.657926 1.00243 0.0207068 0.730269
1139 4.7406 3.00862 1.05013 -0.316968 -0.870707 0.105328
3706 6.93462 3.24843 1.4138 -0.742412 -1.52666 -0.255533
871 6.62125 3.8334 0.515649 0.609777 -1.52653 -1.85212
1667 5.80876 3.36344 1.11976 -0.484505 -0.0553089 1.27689
3986 8.20972 3.76744 0.774781 -0.25086 1.3075 -1.37523
1369 9.13527 3.32483 0.241277 -0.816929 0.721223 -1.53805
3736 9.23309 3.63054 1.38719 -0.519072 0.175461 -1.89398
2603 10.2161 3.62685 1.10946 0.472392 -1.23304 1.53245
1690 12.7656 3.89068 0.973342 0.460966 0.233482 -0.145648
3552 12.1873 3.15197 0.595865 -0.265455 -0.341374 0.409762
1304 13.4077 3.96605 0.199672 2.15844 0.464023 2.28575
2656 14.4822 3.30463 1.34224 0.509468 0.928494 1.44164
1791 15.5311 3.01096 0.00286069 0.28971 -0.603649 -0.0379606
191 15.3607 3.52996 0.895475 -0.781471 -1.21899 -1.6563
2877 16.9476 4.04455 0.871907 0.400602 -0.031757 0.0327104
2375 16.524 3.23916 0.221807 1.7738 -1.93152 0.535869
2875 16.4513 3.12265 1.28275 -0.0158292 1.96897 1.05651
969 1.05756 4.66552 0.913977 -1.90014 -0.335307 -0.033404
595 0.158553 5.11243 0.17721 -1.53075 -0.171399 1.0499
415 0.0917052 5.05712 1.34561 -0.324121 0.144566 -0.560311
1170 2.05938 4.40458 1.13866 0.963285 -0.542537 -0.00514588
52 2.32127 5.17822 0.0715691 -0.741222 0.48913 -0.539262
713 2.2102 5.65402 1.02634 -1.31989 -0.0267895 -0.366388
1807 3.55263 4.57612 0.757665 -0.411856 3.03112 -1.03377
1087 3.1923 5.45642 0.397761 0.566924 0.592636 -0.362827
1311 5.3443 4.3081 0.600731 -2.04417 -0.576507 0.562059
1966 4.41592 5.36246 0.929143 0.601624 0.694893 0.62901
970 6.79312 4.94268 0.65143 -1.95836 -0.0227766 0.240592
1495 5.79508 5.31229 0.947735 -0.934998 0.520779 -0.568421
422 6.22396 4.36677 1.33532 0.32259 1.30944 0.00172158
114 7.84874 4.82747 0.601589 0.475509 0.92264 1.54657
637 8.69049 5.41753 0.742802 -0.120915 1.58403 0.0730159
229 9.43969 4.42836 0.732495 1.32151 0.172923 -0.367629
3336 10.5884 4.69692 0.41721 -1.16225 -1.34849 1.30601
445 10.03 5.33288 1.10841 0.407644 -1.0559 0.705963
3450 11.1798 5.10763 1.08208 -0.328191 0.0510941 0.189979
3660 11.737 4.28009 0.666753 -0.719983 0.847398 -0.228713
3802 12.6946 4.96478 0.630653 -0.889456 0.812636 -0.991767
1605 12.1319 5.29587 1.37959 1.21959 -0.977113 -1.35981
2443 11.9431 5.25173 0.00157081 -0.12756 -0.269193 0.0224396
2388 14.1715 5.62865 0.959611 -0.488724 0.913522 0.743843
3523 13.3256 5.21629 1.41089 -0.585391 -1.29064 -0.681002
2727 15.1365 5.24303 1.2638 -0.63816 0.896884 1.80998
2044 14.2886 4.53622 0.465098 -1.1612 -0.50586 -0.455541
2169 15.8809 4.55105 0.802876 -0.428757 1.2989 -0.661876
2175 1.37275 6.69438 1.16786 0.551173 -1.26803 -3.17533
2107 1.04377 6.17556 0.313054 0.900236 0.28837 -0.0629887
339 0.83331 5.86225 1.40898 -0.0590732 0.311759 1.52535
1685 2.9276 6.50021 0.162413 -1.88242 1.387 -2.30291
2127 4.08107 6.50462 0.937835 -0.088105 0.96371 -0.814416
989 4.78701 6.07407 0.150963 -1.17162 -0.159112 -1.01658
679 5.3401 6.92562 0.894686 0.451665 -0.407399 0.362837
1591 6.31242 6.30562 0.984943 0.112964 0.373545 0.734491
2529 5.8313 5.70907 0.074495 -0.647072 0.352165 0.426884
482 7.39351 6.74141 1.02256 2.16478 -0.259062 0.677364
1239 8.12097 6.98516 0.339946 0.498388 0.109906 -0.227235
2302 7.89503 5.97014 0.682847 -1.84863 -1.5024 -0.303451
658 9.87334 6.65372 0.885178 1.3977 -0.867822 -0.596023
2678 9.74755 5.84882 0.266387 0.193708 0.802022 -0.350384
3950 10.7559 6.04066 0.529155 0.718418 0.876178 -0.640931
1185 12.7744 5.9907 0.866962 -2.48392 -0.613667 -0.955197
3401 11.7344 5.95888 0.778153 -0.535021 0.668537 0.390637
291 11.7066 6.91913 1.09603 0.29758 -0.318338 0.34062
483 12.823 6.63852 0.0216551 -1.53014 -0.251251 0.0282109
3157 13.8648 6.46333 0.466971 -0.351053 0.667602 -1.2325
2839 13.8049 6.92422 1.41013 -0.721506 2.26833 0.0765874
82 14.9126 6.58698 0.634124 -1.00003 0.0840391 -2.8211
1883 16.5918 5.72089 0.602385 1.4391 -0.53756 -0.375273
401 15.8389 6.23891 1.20146 2.03035 -0.825095 0.996828
3881 16.8359 6.73821 0.831674 -0.148323 -0.401016 -0.677884
2049 15.7039 6.94684 0.0993858 1.24719 -2.02398 0.105781
795 0.0095371 7.74579 1.25842 1.73159 -0.704076 -0.712488
2199 1.00992 8.44347 0.246703 0.245718 -0.0403741 -0.158166
2977 1.22392 7.69793 0.965349 0.646699 0.513119 1.34141
236 0.477361 7.43062 0.254793 1.56571 -0.244667 -1.12674
2173 2.54738 7.45863 0.477853 0.926854 -1.3753 -0.374638
1028 2.35377 8.47177 1.2225 0.166873 0.896737 -0.281229
3107 3.31208 8.35655 0.779582 -0.734011 -0.0817268 -1.04135
1692 3.52771 7.29836 0.514862 -0.139577 -0.999653 2.49779
3885 4.70818 7.5129 0.150315 -0.0730556 0.172674 1.39331
1646 4.35877 8.05568 1.13487 -1.94062 -0.591482 1.22136
1833 5.46646 8.15831 0.760534 -0.212953 -0.0490745 -0.144796
1864 6.94959 7.89007 1.11969 0.868803 0.209908 1.45789
1769 6.31065 7.19984 0.488163 -1.55598 0.56727 0.213915
344 6.48142 8.37554 0.387767 -0.799584 -0.540668 -0.79781
2381 7.94138 8.05492 0.567334 0.0849993 0.637446 -1.71382
1303 9.53432 8.24053 1.13114 0.183497 1.04915 -1.72775
214 9.0507 7.22646 0.721483 -0.0831276 -0.183385 1.58959
367 9.99879 7.7482 0.336956 0.817065 1.06673 1.28584
3356 10.7598 7.15297 0.293861 0.200885 1.26493 -0.665582
1246 10.7404 8.42409 1.06885 -0.957405 0.988797 0.42443
2078 12.6012 7.45087 0.572802 0.907803 -1.5122 0.214159
2467 11.7959 7.32203 0.0258639 0.361152 -0.773878 0.76504
967 13.5327 8.39965 0.779317 -0.259621 -1.57057 0.31547
2933 14.0963 7.53209 0.378198 0.526518 -0.22541 0.210861
3954 14.8552 7.51385 1.07331 -1.83857 -0.936558 -0.888447
2431 15.1571 8.05358 0.181898 -1.88755 0.331846 -0.114804
705 14.964 8.51127 1.24408 -0.915439 -1.80633 -1.68448
2019 16.2374 8.08176 0.0412659 1.51205 0.242364 -1.10255
3664 15.8139 7.54749 0.946645 -1.00661 -1.65191 -0.759763
1151 1.20473 0.972195 1.96586 -1.48906 -0.35903 -2.03174
532 2.27182 0.911101 2.23639 1.69091 1.04402 2.60455
943 3.93818 1.04489 2.2227 -1.60052 -0.322399 0.57836
735 4.89626 0.958448 1.50435 -0.743313 -1.01693 0.934201
35 5.69809 0.146332 1.91033 -0.0537139 -2.36904 -0.693424
2475 4.7023 0.0590684 2.01734 1.32829 0.244746 -0.0965034
3767 6.94075 0.931072 2.01141 0.87455 -0.67928 0.870731
100 6.03842 1.25076 1.71291 0.923952 -0.423367 0.559742
316 7.94406 0.936423 2.63789 0.142826 1.15282 -0.266306
222 8.25968 0.244628 1.72824 1.31683 -0.834643 0.717051
101 7.1972 0.10511 2.79671 -0.0886234 -0.952622 0.490152
588 8.95217 1.35993 1.65118 1.34042 -0.0649939 -0.572647
596 9.30496 0.386691 2.39753 -0.894297 1.09709 -2.40926
3108 11.2964 0.274533 2.17816 -0.159977 -1.02722 -0.357332
1989 10.2544 0.884829 2.11899 -0.550174 -0.659339 0.576847
1595 12.2109 0.716109 1.45917 1.37972 0.202043 0.470435
2376 11.6355 1.16245 2.53291 0.398383 1.67492 0.247872
660 13.1944 0.276275 1.57057 -1.32566 -0.588348 -1.79607
475 12.8248 0.753755 2.53566 0.718072 0.964957 -0.993029
718 13.7188 1.28284 2.8191 1.00786 -1.56264 -0.0178912
3853 13.8352 0.243844 2.69431 0.0220455 -0.510651 -0.210011
1269 14.9629 0.677932 2.23682 -0.677037 -0.577408 -0.212506
262 16.0136 0.867046 1.67675 1.77647 -0.823632 0.336672
2758 16.3344 1.38949 2.61169 -1.22563 0.804744 -0.964143
2515 17.0047 0.562693 2.17724 1.11467 0.020319 -0.0788242
319 0.592283 1.72298 2.49656 0.980777 0.510472 0.476071
954 0.0993706 2.45977 1.66904 -0.597572 0.902103 0.0356837
3624 0.90276 2.67747 2.32799 1.12553 -0.427253 -0.388605
648 2.64415 1.82116 2.71116 1.09836 -0.348264 0.445848
904 1.85754 2.23224 2.18341 -0.227696 -1.3629 -0.726768
2689 3.29867 1.74285 1.75813 0.0228691 -0.733414 1.37151
1731 3.18187 2.60312 2.48645 -0.74098 -1.24794 1.19879
1760 4.25793 2.02753 1.76777 0.625199 0.403034 0.548293
1003 5.36016 2.07003 1.46192 0.598308 -2.07375 -0.869442
237 4.79264 2.66213 2.69654 1.46577 -0.270765 0.0120283
2074 6.41941 2.2767 1.75081 1.06908 0.659194 0.402673
913 6.31737 1.66588 2.77326 -1.3317 -0.871594 0.0628428
1805 7.25343 2.09014 2.58681 -0.543279 1.00943 -0.780593
930 8.01895 1.69217 1.80787 0.162117 1.53554 0.520293
1201 8.41771 2.12084 2.75802 0.41523 0.0350815 0.473451
136 8.84964 2.61078 1.62433 1.12969 0.697437 -0.688785
3144 9.9172 1.90992 1.62218 -0.656063 -1.48222 0.18534
3090 9.28049 2.60883 2.6916 0.927919 -1.52481 -0.688782
1842 11.0176 1.48518 1.80124 -2.33855 -1.43208 -1.29666
2067 10.435 2.34992 2.4832 0.0068262 0.20664 -0.0550226
2142 11.5041 2.42887 2.03816 0.391263 -1.09551 0.13481
535 12.4696 2.79615 1.59621 -1.81572 1.22759 0.220494
2667 12.3961 1.77224 1.92017 0.35253 0.81284 -1.31521
1075 13.3379 1.43449 1.71697 0.215562 -0.373801 0.0672199
2596 13.0307 2.10519 2.7111 -0.708978 0.766964 -1.09064
3343 13.813 2.58996 2.18519 0.205659 -0.107736 -0.202684
1462 14.4973 1.68928 2.25726 -1.10469 1.14451 0.274179
3018 15.0117 2.53751 2.54793 0.688905 0.211832 -0.228987
1545 15.131 2.43826 1.49174 0.555327 -0.480914 -0.873212
2451 16.7879 1.5003 1.65065 -0.16001 0.818992 -0.205173
3462 16.2143 2.27968 2.17665 -0.878537 -0.220078 -1.71266
3470 0.511749 3.54025 1.74126 0.915959 1.54133 0.78466
3222 1.33626 4.25282 1.98532 2.12569 0.633838 1.12971
1054 0.729535 3.88017 2.79942 0.124405 2.73984 0.360566
2702 1.52522 3.14468 1.70959 0.41833 -0.529335 -0.0234561
2722 2.40725 3.7538 2.13548 1.18745 -0.0776641 -0.818587
3868 3.26415 3.8866 1.43688 -1.66625 0.00283615 1.40999
3368 3.88883 3.32934 2.13272 1.47366 -0.756683 -0.898016
354 4.3909 4.11628 1.59645 0.136634 1.67738 0.820212
89 5.15426 3.54765 1.93005 -0.770724 1.27162 0.334664
2561 5.20045 4.08435 2.78751 -0.952407 -0.879129 1.42212
271 6.11183 3.23001 2.28685 0.0827621 0.125959 0.198565
2162 6.69507 4.05982 2.61342 0.149954 1.47907 -0.173671
127 7.86092 4.1946 2.59942 0.517264 1.34785 1.5253
1471 8.00467 3.40706 1.78843 0.221486 -0.661947 -0.532137
1712 7.28313 3.12439 2.4199 0.142249 -1.23659 0.225736
2079 8.35931 3.16079 2.78557 -0.0580408 0.842254 -1.33841
1861 9.82275 3.03476 2.00033 -0.715075 0.701102 1.16991
3316 8.80698 4.0895 2.36918 0.175116 0.910001 -0.801605
3570 9.92989 3.71166 2.84166 -0.247629 0.13052 0.366848
3835 10.7626 3.67634 2.14884 -2.40463 -3.04849 0.694768
4000 11.5311 3.31833 1.44658 -1.05208 1.13678 -1.21773
3911 11.6262 3.32525 2.78856 0.0341473 0.138322 -0.24618
683 12.8251 3.36841 2.3928 -0.309905 0.472236 -0.524194
2543 13.7055 3.69819 1.9098 1.11769 -0.288587 -0.0405528
3392 14.4893 3.69215 2.63177 -1.6987 -1.20792 0.315188
1688 15.4198 3.31153 1.9957 -1.88621 -1.23213 0.963341
2238 16.1802 4.03629 1.71986 0.683925 1.93383 -0.126384
1644 16.6902 3.38125 2.39927 0.238984 -0.164797 0.0672698
536 0.0218208 5.46974 2.72504 1.14268 1.11762 -0.510374
2945 0.171251 4.4173 2.23634 0.0745742 1.8538 -0.488205
602 2.78431 4.6816 1.90128 -0.409651 1.40602 1.1095
270 1.57504 5.29997 1.73973 -0.754176 -0.981327 2.41138
158 2.04708 4.85089 2.54984 0.205581 -0.563615 -0.595356
72 3.56989 4.38992 2.52629 1.15759 2.74684 -0.0985084
1487 4.62459 5.20303 2.41416 0.639184 -1.03735 1.01598
779 5.32825 4.61521 1.87868 -1.43519 0.477986 -0.960266
686 6.17259 5.08671 2.3244 1.698 1.39066 0.386331
2525 7.46664 4.27998 1.57572 0.116175 0.453901 -0.0970745
2414 8.46268 4.47727 1.44184 -0.74041 -0.385676 -0.0597555
3047 7.21623 5.12356 2.44357 0.133093 -0.455638 -0.579138
3636 7.88159 5.31651 1.51741 -0.589159 -1.61034 1.31692
2266 9.30515 5.18412 1.7125 -1.099 -1.10873 1.15411
99 9.95825 5.49132 2.36424 1.07679 1.76793 -1.61109
3837 10.3829 4.58138 1.75444 -0.588164 1.12946 0.0127814
2606 10.5973 4.51421 2.68673 -0.985429 0.521829 -0.169552
3974 11.4463 4.28647 1.69835 -0.311687 -0.104611 -0.536098
440 12.6651 5.32689 2.29645 0.0115052 -0.372603 0.395215
424 12.3532 4.36009 2.16328 -0.600103 -1.23471 -1.33215
920 11.4023 5.3196 2.18367 -1.61465 -0.754797 -0.152865
392 13.5987 5.61606 2.78167 1.25346 -0.848141 -0.324452
355 13.5409 4.6895 2.34734 0.0880778 0.841902 0.733428
2386 15.3738 5.41152 2.44411 0.510818 0.832984 -1.09512
398 14.2832 5.52263 1.9888 0.421558 0.248107 -0.918438
2646 14.9552 4.29047 1.56416 -0.717333 -0.938013 0.459403
1682 15.3147 4.27604 2.622 -0.518746 -1.2744 0.368969
1597 16.171 5.12923 1.72894 -0.573248 -1.15447 0.38878
557 16.343 4.64033 2.62362 1.20311 -0.375802 2.82392
2129 0.494136 6.71194 1.8333 -1.95802 1.43944 -0.668008
3823 2.58052 6.71015 1.53719 1.13343 0.135339 0.914429
347 2.72156 5.92672 2.2428 0.601921 -0.721008 -0.268825
3135 1.71321 6.52286 2.0743 0.506476 0.0754482 0.869736
2417 4.10845 5.96869 2.03745 1.05257 -0.620173 0.197923
456 3.32155 6.71072 2.46827 -0.349231 -1.4724 -0.961525
148 5.02552 5.81865 1.51552 0.271393 0.846786 -0.590808
190 4.81719 6.89967 1.99129 -2.0529 2.37492 -0.977466
3826 5.67569 7.11492 2.69102 -0.39847 0.744686 0.418527
1365 6.65778 6.84709 1.89434 -0.207902 -1.65118 0.844199
2056 6.79576 5.84755 1.72893 0.56475 -0.673928 1.61656
498 6.8044 6.18614 2.75135 0.550023 2.20412 -0.163389
1286 5.85342 6.28176 1.90895 -1.06602 0.31715 -1.13343
2614 7.71478 6.27907 2.29079 0.379117 -0.827334 -0.696224
2261 8.38361 6.43417 1.49951 1.2395 1.36274 -0.838859
1744 9.35003 6.20564 1.76927 2.20627 0.752477 0.619624
1656 8.88163 5.70318 2.57079 0.561541 -1.24291 0.714675
545 8.83043 7.03786 2.53824 -0.387916 -0.427218 1.02965
1541 9.80614 6.76966 2.83405 0.76978 1.52989 -1.77259
385 11.2854 6.5864 2.08904 1.79612 -0.546961 -1.59664
2664 10.4907 6.25159 1.54305 -1.73131 0.926246 -0.48254
3221 12.2657 6.29358 1.75106 0.57307 1.45008 -0.423692
677 11.8647 5.96818 2.79928 -0.0104056 2.06211 2.22742
2903 13.2437 6.12037 1.83921 -1.3896 -0.875071 0.814345
3359 13.0571 6.69703 2.76322 1.42139 0.686348 -0.83833
425 14.8016 6.26648 1.57464 -0.0394015 0.706212 0.126563
2013 15.3246 6.98835 2.20054 -0.842222 -0.238547 0.147476
2958 14.2691 6.47394 2.69582 0.601528 -0.549206 0.117255
1868 16.267 7.12456 1.74644 -0.195146 -1.32233 -0.575047
3922 16.2229 6.39563 2.50282 0.390741 -1.00845 -0.580938
1419 16.7193 5.97444 1.65854 1.38061 0.500561 -0.690706
2843 1.02078 7.68291 1.95475 0.0244543 -0.519828 0.559812
3498 0.213987 7.54419 2.63473 -0.656517 1.40339 0.81429
2187 0.263808 8.43786 2.11178 0.701584 1.03251 -0.82011
119 2.03006 7.67411 1.70063 0.127627 0.696009 1.52889
2894 1.80147 7.47222 2.76081 0.0242838 -1.13374 -0.758684
2198 1.87066 8.43211 2.25519 1.51918 0.269886 0.804818
3762 3.63735 8.4271 1.78724 -0.736492 -0.0706014 0.404354
3696 3.1187 7.56518 1.60585 0.883698 2.38924 1.52799
2537 2.8831 7.70362 2.83018 -0.767015 0.0810032 -0.830345
2403 3.55273 8.48974 2.83607 -0.878257 -0.773655 0.328871
331 5.14713 8.49978 1.81517 -0.437455 -0.382828 -2.65475
2309 4.463 7.69684 2.2703 -0.340858 -0.949915 0.481541
3495 5.76786 7.58854 1.62931 1.13629 -0.0925327 -0.26498
1818 6.82984 7.96246 2.4066 -2.31469 -1.31068 0.376457
3580 8.54877 7.97889 1.759 1.02995 1.80191 0.413679
2109 7.60458 7.26378 2.03193 -0.982003 -0.784998 0.128075
1784 9.18162 7.99393 2.59655 -0.648439 -0.948288 2.41153
1583 9.60028 7.41693 1.89288 0.967481 0.0437741 0.718183
3238 10.8445 7.36271 1.44515 0.163746 0.575511 1.26583
2580 10.3809 8.03208 2.35108 1.79189 1.68589 1.01258
811 11.3866 7.51621 2.72107 -0.578102 -0.655993 -1.1268
3673 11.8749 8.06865 1.43987 1.11256 0.364837 -0.753419
1172 12.809 7.22346 1.76092 -1.95242 0.692051 -2.59611
2540 12.0927 8.31222 2.60385 -0.860194 0.749511 1.19991
3226 13.7506 7.44678 2.30773 0.981559 -0.450653 -0.18709
364 13.2728 8.14721 2.69637 0.573279 -1.09859 -0.572416
1081 13.8897 8.29082 1.71302 0.650675 -1.00398 -0.228333
3672 14.1856 8.52399 2.75123 0.545442 -1.00605 -0.333232
604 14.7187 7.81983 2.2024 -0.253833 -1.90036 1.26089
132 15.8895 8.17239 2.17584 -0.538663 -1.60811 -0.479419
2898 0.556202 0.0192823 3.10502 0.251136 -0.237031 2.35137
1677 0.130776 1.05685 3.14027 -3.00878 -0.216758 -0.762012
2115 1.21839 0.857189 3.11452 -1.19792 -0.0346688 0.80466
1375 2.6623 0.176713 3.78255 0.193932 -1.97484 -0.94445
2165 2.22456 1.2393 3.73397 0.332336 -0.92311 -2.53969
212 1.50756 0.169752 3.7258 1.7043 -0.0950408 -0.0384042
2106 3.10331 1.10547 4.26661 0.189487 0.34727 -2.16477
2362 3.10699 0.755778 2.90158 0.112981 -0.0206346 0.105751
3200 3.87606 0.945636 3.6145 0.442241 1.90338 0.490362
3092 4.18653 0.138436 3.17663 0.0935088 0.649873 -0.15357
1089 5.37009 0.245329 3.26358 0.418975 -1.17314 -0.646193
2588 4.99019 1.17194 3.81783 2.02299 0.612321 0.641103
3790 7.1168 0.341366 3.80973 -2.17884 1.07642 0.0674807
446 6.03624 1.20828 3.6153 -0.697011 0.496938 0.367791
2369 8.55225 0.555349 4.09075 1.25741 -1.08732 0.086987
2357 8.96069 1.19118 2.965 0.960217 0.14989 1.11873
1452 11.174 0.0218403 3.92452 -0.543883 -0.589108 -2.13759
2092 10.7162 0.335598 2.99353 2.68436 1.22717 0.374368
2987 10.1434 1.37175 3.07532 0.504855 -1.12708 -1.39702
847 11.0308 1.05404 3.90266 2.1004 -1.75096 0.860749
320 10.0259 0.64012 3.87842 1.07915 0.0350473 0.84091
234 11.719 0.312236 3.13334 -0.962412 -1.03927 0.391188
357 12.0687 1.16324 3.49947 -0.872109 0.418048 0.0724017
2817 14.0411 0.142621 3.74431 -0.50429 -0.993016 0.0444137
675 13.1455 0.617654 3.49733 -0.377956 -0.594858 -2.35377
3159 14.0543 1.20578 3.79571 -0.241914 -2.32491 0.84352
434 14.9661 0.557782 3.36283 -0.93696 -1.20714 0.618645
1621 16.4089 0.458176 3.06388 -1.29109 1.56821 1.91062
3583 16.1503 1.21287 3.79651 -1.17462 -0.0125459 1.50004
3017 16.211 0.0312486 4.04453 -0.385378 0.282146 0.773657
3976 0.933082 2.56243 3.34589 0.0613776 -0.456944 0.699794
2734 0.0115385 2.50139 2.92541 1.43478 1.10985 -1.50445
1325 1.32825 1.69155 4.05294 -1.14215 -0.284479 -0.988486
597 1.57215 1.82826 3.07516 0.234446 -0.626459 -1.13802
2132 2.02911 2.79045 3.03758 -0.387911 -0.711102 -0.706134
2229 2.418 2.36782 3.97049 0.514006 -0.287041 -0.300742
688 3.80721 1.96928 3.01552 -0.0775137 1.53007 0.708932
1841 3.4188 2.84637 3.54545 1.66295 0.682825 -1.91558
549 3.68373 1.92862 4.16482 -1.48954 -0.0753358 0.0212616
299 5.34106 1.87428 3.11654 0.907945 -0.858425 -0.329924
1765 6.59617 2.65972 3.08703 -1.30856 0.605972 0.890746
335 7.10138 1.62252 3.59866 1.084 1.73205 1.54715
1815 6.14336 2.11931 3.95143 -0.454732 1.00944 0.235773
1195 8.23492 1.73902 3.66903 -0.184822 -1.24651 -1.49418
2081 7.64874 2.54685 3.37194 0.531584 0.361483 -0.157853
3338 9.36615 1.53006 3.7496 1.01554 -0.691609 -0.436317
2774 9.26537 2.68322 3.82484 0.760672 0.658092 -0.451889
3786 11.1664 2.19644 3.07767 0.754459 1.87133 -0.0373908
2853 10.3086 2.6376 3.67007 -0.38551 0.229826 0.22567
41 12.5596 2.05803 4.12326 -0.0780382 1.48378 -0.25031
2994 11.4971 2.22806 4.20225 1.08067 -0.486851 0.646381
429 12.1373 2.47625 3.22174 3.27031 -0.90565 0.84603
2077 13.888 2.61474 3.15883 -0.987863 -0.615402 0.349783
593 13.4628 2.38432 4.07271 -0.398088 -0.826099 -0.781134
363 15.1948 1.53725 3.06786 -0.247549 0.113599 1.03537
477 15.8913 2.40663 3.21926 -1.32145 -1.61032 -0.0807638
480 16.8705 2.6519 3.97837 -0.0720372 -2.63862 -2.29338
2481 0.745008 3.85911 3.94128 1.24197 -1.28124 1.49087
2567 1.7716 3.24227 3.8946 0.378318 0.255344 0.982322
2333 4.20452 3.65154 3.16991 -0.390574 -0.772657 -0.66803
460 3.20782 3.97392 3.39252 0.681281 -1.44622 -0.168055
2788 5.63513 2.97984 3.34694 0.0124711 0.412618 0.568273
562 5.0392 3.87166 3.95202 -0.521346 -0.351802 0.561555
3841 4.47297 2.9383 3.97174 -1.34066 -0.289047 0.724318
1264 6.487 3.23371 4.06447 -0.413202 -2.3827 -0.796506
2751 7.42024 3.40135 3.9506 -0.529404 -0.80304 0.16157
2640 9.04204 3.69815 3.56285 0.380091 -0.268504 0.572414
3924 10.996 3.9178 3.61301 0.832321 1.10483 1.43674
2938 10.1275 4.16191 4.14131 -0.200973 0.656637 -0.395149
157 12.0027 3.68548 3.82567 0.518081 0.0358273 -0.201258
1963 12.7831 4.26762 3.16538 -1.89449 -0.351419 -0.155735
2959 12.9803 3.24925 3.5731 -0.719341 0.459972 -0.0965236
523 13.8382 3.95381 3.40468 -0.983946 -0.172348 -0.228472
2235 15.0078 2.93516 3.53354 -1.21077 0.0980454 -0.60688
1543 14.9839 3.98523 3.77109 -0.301131 -1.6228 0.122311
492 16.1356 3.51982 4.13448 0.146859 0.294287 0.898268
1976 17.0068 3.54656 3.41958 0.328655 -0.657121 -1.50124
76 15.9763 3.48363 3.1386 -0.302087 0.0601103 1.07648
91 1.01594 5.00332 2.93678 1.52718 -0.809237 0.985773
1341 0.012876 4.63422 3.4879 0.416068 0.0432837 0.407368
1046 1.66554 4.36971 3.32141 0.677922 -0.349115 1.24519
3533 1.66955 5.55092 3.70363 -1.21115 0.229198 0.59397
2319 3.01142 5.28806 3.02543 0.834972 0.369219 2.06513
594 3.51094 5.53673 3.91174 1.24935 0.190041 0.535323
495 3.89453 4.70715 3.54404 -0.539096 0.468204 -0.569886
1643 5.06927 4.91913 3.29453 0.73205 -0.558132 1.18372
342 6.03306 4.4628 3.70698 -1.12141 1.1639 0.996578
2867 6.45054 5.31385 3.42288 0.314191 -0.759749 -1.35865
3423 7.42876 5.64024 3.67105 1.0152 -0.145026 0.353237
481 8.3469 4.95768 3.24888 1.15964 3.55896 1.24406
3551 7.77707 4.52769 4.09866 2.15007 -1.94974 -0.24856
2784 9.37329 4.84633 2.93918 0.548455 0.929966 1.1006
397 9.08672 4.52384 4.25125 0.579905 1.87297 0.349021
656 10.0139 5.04696 3.73322 0.179808 0.127007 0.300347
2846 11.1076 5.0856 3.92078 -0.518173 -0.502431 -0.122563
2402 11.6552 4.38991 2.9847 -0.0868225 -1.03122 0.774115
751 12.734 5.55494 3.41807 -0.523698 1.19771 -2.4081
1548 12.4638 4.60976 4.02143 -0.787678 -0.219722 0.22878
3529 13.7134 5.08453 3.68688 1.18083 0.445133 -0.758997
166 14.3349 4.73805 2.98127 0.623046 0.562645 1.48395
2193 14.6322 5.69456 3.22621 -0.051097 1.33769 1.7665
2748 15.0744 5.13158 4.06522 -0.837139 2.11642 -0.00740599
1482 15.9574 4.52769 3.76812 0.303789 -0.870924 -0.0830166
1400 16.2395 5.49331 3.30524 -0.99621 0.0297996 0.609447
3254 0.639893 5.81957 3.60146 1.66284 0.344561 -1.01512
832 0.890549 6.78543 2.92139 0.398392 -1.1407 -0.884705
3581 2.43843 6.41875 3.08619 0.941034 -0.224239 -0.782808
842 1.61768 6.52803 3.83983 -1.64905 -1.0557 1.26569
3973 3.66739 5.9608 3.00718 0.190148 0.120393 -1.31844
2442 3.23049 6.66983 3.61123 1.15759 0.293555 -0.100161
2035 5.67 5.91036 2.969 0.637404 0.15069 -0.709277
1333 4.61102 5.78074 3.55535 -1.24408 2.0559 0.12614
1428 4.3929 6.8394 3.05374 -0.00903624 0.246231 1.11442
3267 5.30247 6.74044 3.60467 -1.40788 -0.21541 1.68121
1715 6.48005 6.39541 3.67887 -0.508146 -1.08895 -0.611513
1321 8.37401 5.90241 3.99867 -1.4849 0.297883 0.949108
2316 9.75792 6.00887 3.41121 -0.0103283 0.130024 -0.189837
657 10.7356 5.86158 3.31009 -0.188171 -0.159283 -1.70337
2625 11.086 6.95924 3.50452 -0.757018 -2.33583 0.0110418
362 9.99073 6.87063 3.95007 -0.386819 0.458118 0.537196
575 12.1904 6.53359 3.72399 -1.91616 0.0920548 1.09858
2449 13.6342 6.41987 3.59952 1.42302 0.334391 0.202172
178 15.3612 6.60807 3.15871 0.820708 -0.845086 -0.00224261
1331 16.5272 6.58284 3.39172 0.789385 0.765726 -0.347858
771 16.7703 5.83199 4.13959 -1.0908 -1.01314 1.07976
1703 15.8947 6.29036 4.10131 0.536908 0.0903843 1.86149
2027 0.219335 8.49924 3.40104 -2.28118 -0.772012 -1.17739
479 1.09666 8.17275 2.86405 0.479452 -0.21731 0.225804
980 0.280868 7.31736 3.59203 -0.785082 0.829837 -0.770068
3959 0.808863 8.03752 4.1005 -1.10541 -1.4806 0.53599
3887 1.95758 7.59976 3.77047 0.371521 0.918226 0.976084
254 4.03455 7.697 3.40454 -1.66285 -1.40284 -0.926733
2069 5.47121 8.02487 3.07809 -1.33153 0.110975 -0.692272
3969 4.85649 8.00667 3.92572 0.143923 0.235747 -0.697148
2633 6.12706 7.38562 3.83664 -0.0203087 0.928543 1.24307
564 6.65595 8.12262 3.40143 -0.473253 -0.0685102 0.48203
1756 7.25212 7.35587 3.13733 1.43204 2.01849 0.982293
589 8.17408 7.19803 3.79601 0.758858 0.280692 -0.814635
232 7.50421 8.13237 3.88779 -0.670752 0.639717 -0.885968
2924 8.19089 7.9365 3.11261 -1.52769 -1.42865 0.54373
118 7.13853 7.32832 4.2187 -0.393916 0.261821 0.37126
2855 9.36218 7.86359 3.6717 0.509054 1.40407 -0.32287
1983 10.4175 7.78137 3.33831 -0.229208 0.762044 -0.279455
1683 12.4208 7.56826 3.25559 1.41132 -0.796151 -1.40951
2542 11.7659 7.87873 3.91868 0.859963 -0.350807 -0.498977
179 14.0769 7.49345 3.24489 -1.35045 -0.65325 -1.97079
818 13.4593 8.30441 3.69494 -0.294551 -2.48557 -2.00298
1355 13.0607 7.37314 4.0564 0.0378097 0.166871 -1.02868
3084 14.4479 8.5155 4.0989 -1.21366 -1.0747 -2.21692
359 15.2667 7.98301 3.12541 0.193097 -0.545787 -1.58992
1819 16.1978 7.44455 2.96134 -1.82369 -0.223315 0.346888
2638 15.6907 8.17194 4.12438 0.530303 0.701148 -1.40641
2697 1.20623 0.0658345 4.88758 -0.811532 -0.407647 0.738833
3765 1.01392 1.18271 5.26863 0.47792 0.558357 -0.463966
823 0.00595504 1.19142 5.4887 -0.23351 1.78535 0.18236
19 0.175398 0.583861 4.43952 1.91452 -1.20134 2.0483
1374 1.83459 0.614004 5.52424 -1.17094 -0.536936 -0.0340711
892 2.17887 1.23425 4.70409 0.347727 0.234739 0.0929734
1040 3.98362 1.134 4.90727 1.13908 1.1193 0.917927
773 3.61769 0.159834 4.32403 -0.651846 -0.388963 0.0441737
1091 3.04157 0.830138 5.394 0.457152 -1.8647 -0.627192
165 5.65935 0.217429 4.34981 0.19464 -0.507574 0.993724
2263 4.57272 0.410462 4.28277 -0.108353 0.201747 1.6016
71 5.28564 1.08336 4.96787 1.13537 0.47351 -1.40346
2493 6.06276 0.521141 5.32842 0.168759 0.126008 1.42037
3363 6.88363 0.138861 4.75159 -1.30937 0.619296 1.32619
2888 8.455 0.795628 5.10286 -0.773904 -1.99927 -1.04771
1324 9.28285 0.0581753 4.98093 0.10419 1.49325 -0.413905
1676 10.2475 0.709387 4.87693 -0.83379 -0.855153 0.597763
428 11.1477 0.482668 5.3143 -0.430546 0.818175 -2.21812
412 12.1915 0.428007 4.9964 0.0972826 -0.222126 -0.590193
1120 11.7928 1.35226 4.84564 -1.71719 1.33079 -0.593417
957 12.8081 1.18576 4.44179 -1.56762 -1.18478 0.257721
1547 13.0339 1.17393 5.51166 -0.590923 0.679931 1.19997
40 13.4599 0.510294 4.85062 -0.208688 2.00573 -0.991758
3269 14.1679 0.142371 5.61269 -0.616694 0.387026 0.812285
582 13.0255 0.133077 5.69724 0.210576 -0.606766 0.102686
360 14.4809 0.655977 4.52374 0.130654 0.570417 -0.199554
3148 14.352 1.34608 5.34331 -0.354951 1.28106 -0.174433
3290 15.1501 0.18932 5.27956 -0.118274 0.145316 0.759551
462 16.2287 0.239735 5.05484 -1.28405 -0.395068 0.382234
3008 0.422405 1.80841 4.52771 1.45164 0.451878 -0.118082
1947 0.48349 2.12913 5.59381 0.388765 1.45011 0.64225
1242 1.33447 2.18416 4.94584 1.10128 -1.02347 0.492242
1843 2.29911 2.4909 5.006 1.27006 -0.371024 -0.210713
527 3.10551 1.87194 4.96258 1.66568 0.363222 -0.830109
1651 3.04106 2.8227 5.53405 0.427596 1.42881 1.68489
1496 4.89062 2.06067 4.49814 -0.691581 0.0423917 0.045768
800 5.08019 2.7417 5.31858 -1.89142 -0.49725 1.9359
617 5.11866 1.8117 5.63711 -1.19469 -0.303018 0.136719
3735 6.60681 1.6134 4.67962 -0.753396 -1.65367 0.215669
1622 6.35858 2.66766 4.98753 -1.0528 1.82683 -0.779899