ITEM: TIMESTEP
55000
ITEM: NUMBER OF ATOMS
4000
ITEM: BOX BOUNDS pp pp pp
0.0000000000000000e+00 1.7099759466766969e+01
0.0000000000000000e+00 1.7099759466766969e+01
0.0000000000000000e+00 1.7099759466766969e+01
ITEM: ATOMS id x y z vx vy vz
2796 0.984284 1.1664 1.36909 -0.894007 0.285238 0.717131
1805 1.37318 1.14074 0.190513 -2.66217 0.273506 1.31121
3846 1.2352 0.215986 0.848919 1.1856 1.3945 0.214734
47 2.19409 0.424396 0.510931 -0.571043 2.6921 -0.511722
2503 2.46569 1.23109 1.06502 0.974583 0.519179 -0.222961
3410 3.24489 0.643975 0.705527 2.31357 1.58981 -0.159287
3327 4.43788 0.638851 0.841586 1.25309 -0.680858 -0.246964
1900 5.89848 0.465734 0.755704 1.17478 0.0681465 -0.16468
2081 6.74477 1.05827 0.869223 -0.288227 0.453866 -0.572674
3009 7.39126 0.308832 1.33939 1.32447 -1.1329 -0.666063
3575 8.38485 0.636986 0.677274 -1.0081 0.142512 0.821069
1045 7.29921 0.365832 0.219046 0.111086 0.398652 -0.558834
191 9.26687 1.15099 1.18037 -1.01867 0.874948 -1.16499
2142 10.1419 0.778601 0.808084 -0.193855 1.02266 0.546688
3003 11.3293 0.901647 0.639591 0.313943 -1.36493 0.0335982
593 10.7782 0.0412897 1.17568 -0.610234 -0.521842 -1.06071
209 11.5565 0.0479776 0.212131 -0.669894 0.613821 -0.720436
81 12.5309 0.42225 0.382811 -0.835222 -1.09381 -0.288742
757 11.8518 0.0968976 1.1719 1.05461 1.27669 -0.0679648
3317 13.5678 0.70516 0.778298 0.822984 0.684832 0.294042
480 14.7932 0.555174 0.307223 -0.69434 -0.234065 -1.22973
2484 14.342 1.09564 1.24246 -0.347805 0.160627 -0.502829
1829 15.4382 1.355 0.944931 0.368077 -0.0314686 1.37794
3920 15.608 0.186445 0.749416 0.397769 1.41765 0.174246
3510 16.5863 1.05905 1.1946 -1.63266 -1.01779 -1.19434
2898 16.8934 0.11554 0.90042 -1.43223 0.034245 -2.12175
3174 16.3001 0.711643 0.244617 0.424723 0.549952 -0.540786
2417 0.359034 1.45739 0.420298 0.644765 0.752958 0.520249
2075 1.06881 2.17056 0.956533 -0.441343 -1.82212 -1.56755
1005 2.77468 2.31248 0.222404 -0.309755 -0.303142 1.51494
164 2.09553 2.22103 1.00363 -1.66174 0.371566 1.58123
3407 3.11987 2.75003 1.25739 0.754726 -1.32906 0.145527
2206 3.61333 1.65837 0.475588 -0.135286 0.535533 -0.254226
4 4.57459 1.68399 1.07956 -1.23776 -1.08999 0.916213
1879 4.42393 2.79313 0.590367 0.993365 -0.535882 -0.462146
1336 5.66064 1.5676 1.41535 1.11426 1.65509 -1.02358
1873 5.64478 1.52232 0.334329 1.61604 0.530072 1.72524
992 5.41577 2.62145 0.816944 0.669731 2.6018 0.841862
3445 6.55576 2.27389 1.01389 -0.214884 1.33338 0.240957
3336 7.67928 1.49151 0.211755 -0.0190214 0.752696 0.447079
210 7.14404 2.79768 0.128591 -0.659799 -0.222392 -0.143947
1076 8.46615 1.81348 0.677304 3.85975 0.634512 0.176212
1891 9.51486 2.28908 0.862786 -0.156677 -0.327686 0.421477
281 11.2938 1.78449 1.3757 -0.613109 -0.59077 -2.31775
1195 10.4087 2.843 1.22218 1.24327 -0.0975127 0.326174
429 10.4486 1.83434 0.581566 1.25368 -0.740029 0.21994
80 12.6408 1.54741 0.600376 -0.928025 0.37177 1.48073
2077 12.2244 2.33955 1.12092 -1.99782 -0.482481 -0.181504
3704 11.5669 2.21324 0.235352 0.745841 1.36379 0.683657
1098 13.5758 1.95679 0.819398 0.743631 0.683359 -0.10201
956 14.3507 2.5789 0.993597 0.567506 0.595289 0.341216
2002 14.6011 1.65173 0.315686 -0.125749 0.153125 -0.641601
157 15.3767 2.30078 0.63585 0.395371 -2.18654 0.978221
2216 17.0912 2.22173 0.889036 -0.929686 -1.30228 -0.912296
201 16.4467 1.9619 0.0629089 -1.26595 0.341329 -2.1192
2945 16.0428 2.13351 1.37444 0.187567 0.272513 0.63879
1151 0.668891 3.13317 0.570167 -1.2496 -2.17658 -0.979644
664 0.558612 4.07546 1.01861 -0.0739029 0.796446 0.0620082
2867 2.34472 3.43337 1.04102 -0.310273 -1.79231 0.123947
3910 1.57086 4.03995 0.603123 -0.382682 1.72719 -0.189039
2951 2.45199 3.62909 0.0776058 1.58692 -0.581269 -0.379989
2735 4.22398 3.99518 0.369689 -2.29473 0.40262 -1.31281
3821 3.76694 3.73922 1.38801 1.01805 -0.251803 -0.413351
3257 3.44801 3.24452 0.311618 0.768446 -0.609525 -0.24199
89 5.248 3.74522 0.283078 0.511997 1.40021 0.329916
1667 6.02067 3.53831 1.16927 -1.27219 -1.40058 -2.34777
416 7.01282 3.46785 0.763333 -1.48453 -1.85025 -0.236503
3767 8.19109 2.88264 0.782461 0.35912 -0.342808 0.0914779
3403 8.54694 4.06563 0.548101 0.445918 -0.350351 0.326392
1120 9.8979 3.78908 0.834207 0.465115 1.06758 0.00433537
321 9.01779 3.29758 1.11904 0.814327 1.12862 0.0700491
677 11.2943 3.20966 0.819233 -1.32713 0.429819 1.04359
1605 10.6057 4.13344 0.22233 -0.54866 -0.235909 0.312227
260 11.81 4.09171 0.0567654 0.687194 -1.66507 0.54355
2603 12.6785 4.06812 0.600706 0.420292 -0.343089 -0.603469
1233 12.2216 3.07139 0.301345 0.451178 0.907839 1.9793
2854 12.1831 3.58661 1.35406 0.189716 0.235056 -0.152211
2387 13.3137 2.95271 0.888823 -0.405157 -0.883723 -0.687614
3664 13.5901 3.8543 1.07849 0.715392 -0.679357 0.635013
3555 14.719 4.08023 0.281378 -0.944284 0.17521 -1.91851
2901 14.9839 3.4549 1.15609 1.20947 0.95545 -1.09356
1883 14.9008 2.96702 0.00169685 0.912044 1.6847 0.0602765
805 16.5375 3.08132 1.12454 0.874185 0.852807 0.0848836
1710 16.9731 3.62067 0.128196 -1.30613 -0.149616 -2.55536
3890 15.9809 4.00689 0.657563 0.302211 0.744022 -2.30593
3161 15.8949 3.13399 0.238233 0.545098 -0.104067 -1.54698
3869 0.631805 5.56338 0.77278 0.0104801 0.873919 -0.918765
688 0.564654 4.43728 0.122721 -1.61275 -0.709363 0.0376757
891 1.53505 5.28803 0.379136 -0.425454 0.876571 0.353827
204 2.58007 5.21538 0.827261 1.21613 -0.998941 -1.40222
2129 3.32415 5.33599 0.187678 0.9425 0.186337 -0.340977
1332 3.2168 4.31936 0.456858 0.827168 3.06335 0.409771
717 4.03046 5.02772 0.92351 -1.70964 0.382037 1.16967
3225 4.81368 5.0203 0.0879846 -0.441642 0.349785 1.28466
1414 4.87129 4.34637 1.17606 -0.465358 -0.0693239 -1.57551
3267 5.02714 5.50143 1.02186 -1.2338 0.339047 -0.875723
2346 6.35205 4.3198 0.692568 0.391461 0.0968702 -1.66458
900 6.85628 5.05811 1.31979 -0.979397 -1.53506 -1.01138
271 5.78069 5.27823 0.434296 -1.66358 0.27416 1.49482
1383 7.93391 5.2059 1.15635 -0.630628 0.922529 0.383502
409 8.18784 5.20215 0.154644 -0.427926 -0.0250617 1.66375
2558 7.23612 5.60688 0.454867 0.0593765 -0.974819 -0.708082
3875 7.46773 4.30064 0.351072 1.78634 -0.725389 -0.358593
523 9.03521 4.95404 0.714982 -1.30357 0.194149 -0.209133
3660 10.1746 5.27276 0.682251 -0.649002 0.301498 0.741641
2994 11.3817 4.37219 1.18972 -0.0820303 -0.826585 0.957485
481 10.9678 5.53467 0.0446787 -1.25712 -0.748904 0.751
398 12.0459 5.23761 0.926051 1.33713 1.98245 0.893467
920 13.0125 5.03147 0.906977 -0.515124 0.891824 -2.2913
1099 14.1293 4.82126 1.11238 -0.0354963 -0.90552 -0.113752
2289 13.5831 4.3711 0.00504755 1.27232 0.0625778 1.09855
687 15.4452 4.93373 0.141388 0.147359 0.358634 0.598694
101 16.9179 5.2929 1.39239 -0.672067 -1.31861 0.810168
1597 15.8711 5.08955 1.3797 -0.745475 0.932338 -0.491003
2294 16.5784 4.82072 0.396527 0.493292 -0.650187 -0.878277
3979 0.340967 6.96326 0.194985 1.41999 0.586082 1.82797
2059 1.63728 6.29667 1.14728 2.62234 -0.514495 -0.292813
2403 2.68526 6.3711 0.85023 1.25329 -0.106198 0.724925
1214 4.03875 5.98109 0.719503 -1.58559 -0.441293 -0.832885
2529 5.51775 6.53869 1.1372 1.53047 -0.576323 -1.9601
1495 4.58567 6.86418 0.453231 1.48362 0.159879 0.02265
591 6.44177 6.50445 0.53883 1.50248 0.756412 -2.17015
1864 7.60194 6.52301 1.05605 1.06608 -0.112787 0.763971
2072 8.04036 6.14981 0.183116 1.91869 0.0132704 0.385649
1685 8.29556 7.08782 0.378629 -1.09984 0.156158 -0.160437
1286 7.31148 7.04744 0.213737 1.0607 0.12772 -0.310094
1983 9.42887 6.66428 0.913789 -1.77114 0.499904 0.232991
3796 8.71313 5.94527 1.01096 -0.708066 1.22148 0.655194
99 9.2905 7.09883 0.0217011 0.194977 -2.47379 1.16042
344 11.1582 6.86212 0.700457 1.79558 1.28752 1.48504
3440 11.9688 6.21762 1.11572 -0.250394 0.297371 1.43315
3559 12.2133 7.05372 0.406362 -0.516835 -1.16285 0.832548
1784 12.1821 5.87064 0.131062 -0.232774 -0.332538 0.395041
2933 13.362 7.06616 0.431876 1.04817 -1.62062 -0.893923
3318 12.9744 6.60117 1.33664 -1.21362 -0.317447 0.0932905
2958 13.77 5.94998 1.24218 -2.16862 -2.07078 0.078212
595 14.8522 5.71221 0.976854 -0.252726 -0.455621 -0.185202
631 14.6405 6.83107 1.1301 -0.685911 -0.215012 0.403611
832 15.6112 6.83727 0.435049 -0.321974 2.09496 -1.28252
1146 14.4608 6.40599 0.248538 0.406127 -1.10008 0.810627
754 16.0303 5.81347 0.551348 -1.23529 -0.110605 -0.0985472
433 0.606578 8.05157 0.0130511 1.42672 -0.941168 -0.17468
3581 1.28232 7.24934 0.467866 -0.253756 0.844601 -0.492297
2388 0.756796 7.97669 1.10457 -0.66383 0.861695 0.0798169
3887 2.4418 7.37936 0.590194 -0.417763 2.11436 -1.73428
1435 2.00678 8.54406 0.919981 0.678878 -1.20982 -0.0979867
119 3.52796 7.25419 0.387707 1.5433 0.171042 0.16735
1397 3.28138 8.343 0.117036 0.722235 0.259131 -1.41526
2328 3.08148 8.06912 1.27087 0.132253 -0.458933 0.236728
1180 5.34391 8.43815 0.241279 -0.0441159 -1.00518 -1.95305
3292 5.20575 7.66146 1.06471 1.06644 -0.372458 0.898647
692 4.29659 7.87029 0.766181 1.22793 0.118578 -1.22629
1487 6.50867 8.1693 0.631779 0.751541 -0.130365 0.231917
3107 7.22315 7.54592 1.27736 -0.138012 -0.338467 -1.70095
3932 8.31973 7.69882 1.2429 -0.847448 2.02238 0.0203797
140 7.79597 7.93212 0.331795 -0.0331011 0.023442 -0.326622
332 9.28131 8.26433 0.797488 -0.101714 -2.23687 -0.450917
3031 10.3333 8.11867 0.518261 -0.975375 0.887765 0.32732
189 10.36 7.26642 1.12308 -0.0484186 0.164641 1.18825
1168 11.3378 8.2031 0.993807 -1.36415 0.748793 0.711954
3223 12.3207 8.33954 0.288932 -1.09333 -0.773781 -0.397531
3918 12.7016 7.88692 1.08722 1.51696 1.11369 -0.34729
3642 13.3301 8.20437 0.135759 -0.683438 0.756694 0.58586
3065 14.2653 7.60082 0.336128 -1.05646 -1.05498 0.121127
337 14.4495 7.8492 1.30939 -2.21406 1.25323 0.407175
2625 15.4233 7.83654 0.710913 1.2807 -0.740787 -0.702796
91 16.7303 7.19253 1.11002 -0.51737 -0.520193 -0.413714
92 16.8531 8.22399 0.568376 0.985498 1.15775 -0.561596
1539 0.239949 1.41252 2.16316 -1.28551 1.4855 -0.812413
2393 1.76162 0.704183 1.7541 1.36184 -0.234636 0.724881
75 2.84621 0.634406 1.72094 0.324803 0.567015 0.306471
3539 2.04562 0.0508487 2.50369 -0.0149738 -0.622023 -1.08908
2247 1.80998 1.15897 2.64644 -0.491083 -0.496164 0.45632
1987 3.84422 0.672555 1.78256 1.78737 0.335682 1.1446
3036 3.25651 0.139731 2.56695 0.884788 1.50516 0.210073
2057 5.12589 0.669111 1.68967 -2.17606 -1.30862 -0.927681
3363 5.57872 1.02712 2.64857 0.266484 -0.527214 -1.18161
2541 6.52153 0.589718 1.99623 1.54424 -0.316684 0.107325
265 8.1386 1.24636 1.50581 -1.12046 0.795547 -0.712176
3880 7.53126 0.72736 2.26547 1.22994 0.499346 0.0324688
2692 9.44325 0.355702 2.47962 -0.209833 1.59633 0.687317
906 8.68708 0.330771 1.60159 0.871266 -0.0081279 -0.937467
1452 8.56055 1.01282 2.72903 1.09317 -0.109481 -1.16136
3338 10.3758 1.17197 2.20516 -1.0605 2.43642 0.480647
3980 11.236 0.83829 1.68853 -0.606536 0.16971 -0.3243
675 10.4629 0.123623 2.18861 -0.233413 2.29244 -1.22377
2485 12.2628 1.2182 1.56881 0.395748 -0.228166 0.65769
3924 11.6353 0.832763 2.62039 0.559337 -0.557209 -0.247831
535 12.7194 0.33705 2.5733 -0.553846 -0.22904 0.283274
3630 13.456 1.2034 1.72582 -0.288941 1.24779 -1.78234
3289 12.9722 0.218701 1.5122 -0.328776 0.166027 1.07264
477 14.4999 0.470095 2.35589 0.545373 -1.19215 1.89368
2418 15.439 0.111192 2.4519 -0.50675 0.089609 0.429161
2351 16.2222 1.0526 2.23626 0.582315 0.440896 -0.106287
1417 16.1301 0.129428 1.54894 1.19654 -0.422327 0.490561
1200 17.0909 0.279418 1.87289 -0.0927466 -0.0849904 -0.279161
797 0.999567 1.97712 2.7369 -1.3243 1.25896 0.498462
1170 0.124974 2.43808 2.30698 -0.411639 -0.591163 -0.243343
476 2.43743 2.11382 1.89645 -0.556774 2.29623 1.48664
3795 1.44666 2.4434 1.91238 0.0860377 -2.98307 -0.967695
3119 4.00158 1.69544 2.68188 -0.706601 0.167303 -0.641856
1815 4.06507 2.74853 1.69758 0.16755 0.336973 0.90451
2154 3.03666 1.46803 2.38588 -0.600027 0.18253 0.0276267
1003 3.32819 2.61928 2.5548 -1.25645 -1.12933 -0.0826752
3373 3.4425 1.65537 1.52705 -0.0693161 -0.34636 -0.308732
2357 5.08295 2.16466 1.98216 1.7901 -1.88009 1.76334
1712 6.50666 1.68918 1.91857 -0.416172 -0.848834 -1.56055
299 5.89473 2.10126 2.77209 2.19807 0.163867 0.986216
3636 8.19626 1.88605 2.44145 -0.408056 -0.237732 -0.558896
1041 7.52088 2.17753 1.42569 1.78708 -0.432183 -0.904297
2369 7.159 2.5535 2.27515 1.10436 -0.63435 1.12393
743 9.13674 1.59286 2.12364 -0.0927324 -0.619088 -0.782602
1035 8.93174 2.67316 2.12356 0.578501 0.724265 0.824149
2363 10.0253 2.24636 1.97046 -0.562229 -0.0656353 -0.825206
2515 11.3023 2.74267 1.71662 -0.493774 0.586387 -0.979217
41 11.3993 1.97957 2.38406 0.788093 1.82131 0.120463
1175 12.2956 2.63864 2.41323 -1.45932 0.0981041 0.197264
2959 12.4331 1.50583 2.47992 -1.08834 -1.69422 0.34057
1621 13.1917 2.35441 1.71197 0.0252568 1.127 -0.761953
3020 14.2844 1.85708 2.26725 -1.8868 -0.189185 0.459585
2145 15.1623 1.48838 1.93414 -0.238363 -1.06286 0.80861
2354 15.0334 2.51233 1.90034 0.615027 -1.41266 1.33831
1648 15.449 2.70528 2.80598 -1.62922 0.147876 0.72343
941 1.04349 3.03219 2.63711 0.00837088 0.910435 -0.161405
3841 0.324432 3.23022 1.56741 1.59591 1.10474 -1.05493
2010 0.188368 4.00985 2.27223 -0.610421 1.5497 1.54986
1612 1.84172 3.45509 2.08918 1.61677 -0.847963 0.409815
1527 2.04429 4.24022 1.49332 -0.940071 0.427143 -0.139914
549 2.86676 3.59387 2.07156 0.549617 -0.210416 0.281429
686 3.84436 3.5818 2.35892 -1.69078 -0.166663 1.12483
733 4.78725 2.95127 2.78347 -0.930338 0.655983 0.531789
1408 4.96194 3.64953 2.00513 0.0504231 -0.386727 1.13957
3691 6.87845 3.71632 1.78117 -0.351759 -1.55739 1.84692
897 5.96535 2.93878 2.01119 0.236898 -1.54863 0.336909
35 6.49791 4.24501 2.65953 0.436272 1.73331 1.79839
478 7.56367 3.71021 2.5963 1.46869 -1.02159 0.0660797
1188 7.97459 3.15138 1.81549 -1.01914 -0.0358013 -1.49297
1090 9.82202 3.31463 2.04217 -0.871949 0.610796 0.52751
1152 9.12856 3.99334 2.52628 1.09215 -1.73181 0.213772
726 10.7003 3.03119 2.54526 -0.11397 0.386583 0.131117
3919 10.6351 3.97256 1.88199 0.27626 1.73079 0.688975
144 11.7527 3.56929 2.28477 -0.49173 0.940492 -0.979677
1344 12.71 3.76977 2.84726 -1.07138 -0.0664922 -0.447053
3960 13.307 2.85527 2.80331 -0.0140941 0.895677 -0.988287
339 14.1765 3.8524 2.23702 0.198882 0.967914 -0.290777
1718 14.0826 2.89292 1.95685 0.306991 0.714418 1.11357
3419 13.2312 3.48001 1.94302 -1.2835 1.19084 0.225244
424 15.2434 3.81902 2.26906 0.166426 0.142108 -0.0937015
1312 16.5885 4.08473 1.54561 1.39004 -0.283896 -1.56713
3723 16.1561 3.0778 2.13126 -2.25565 -1.48138 -1.13615
2762 1.21134 4.32032 2.27212 0.211838 0.32578 -0.786379
2567 0.530541 5.07787 2.61418 -2.60323 -2.19418 0.908549
1436 2.83546 4.7992 1.89549 -0.829447 1.26053 -1.09989
2722 1.65002 5.29439 1.5688 -0.875371 -0.0387967 -1.28882
2333 1.99612 4.85698 2.46519 1.59919 -0.119502 -0.00310389
460 4.01164 5.33118 2.65647 -0.399563 -0.086902 1.72936
1426 4.1887 4.48305 1.98462 -1.18588 0.282599 -0.00927351
2883 2.94644 5.42571 2.69052 -1.82776 0.126676 0.899882
2162 5.01796 5.22582 2.25927 0.326799 -1.38379 -0.477236
562 5.75953 4.6117 1.56224 -1.2576 0.717261 0.806235
1847 6.71295 5.19814 2.35287 1.06413 -0.186528 -0.783228
2488 5.90831 5.60728 1.643 -0.704397 0.220289 0.248272
3551 8.50542 4.29319 1.76635 -0.121111 -0.688546 0.448955
2079 7.59482 4.90045 2.09907 1.36396 -0.466991 -0.977965
913 8.91021 5.37757 1.95199 -0.480365 -0.545546 -0.153336
231 9.58705 4.45163 1.60993 1.72216 -0.891807 -0.0535642
3057 9.90561 5.19909 2.49833 0.811732 0.314391 -1.42329
2250 10.8916 4.86191 2.22674 -0.698187 -0.680966 1.36358
3637 11.9961 4.4934 2.73007 1.86344 -1.68759 0.50034
1545 12.2947 4.5263 1.69115 -0.112976 0.736965 -1.82618
3011 11.7476 5.62472 2.44574 -2.42801 -1.93045 -1.03208
2385 12.7544 5.52736 1.73823 -0.048127 -0.00565577 0.893259
3954 13.3837 4.57699 1.9245 0.878531 -0.868363 -0.282967
415 15.5354 4.81247 2.42076 -1.19147 0.845329 -0.949004
3868 15.0674 4.54764 1.45327 -0.84731 1.70695 0.265466
3672 14.446 5.23842 1.95286 0.783374 2.37883 -1.36942
998 16.8155 5.63869 2.4189 0.583164 -0.0513324 0.667805
1400 0.690751 5.88331 1.83006 -0.285864 0.534449 0.414645
984 0.845988 6.94595 1.45446 -0.877829 0.0801534 0.417245
2107 0.459929 6.41566 2.83026 1.64311 -0.687316 -0.208296
2442 2.3191 5.942 1.9019 -0.71351 0.252066 -1.41152
3250 1.53324 6.61097 2.2192 -0.78094 -1.94215 -0.693717
11 2.39007 7.06847 2.75834 1.46766 -0.184228 -0.601215
498 3.3255 6.86692 1.43566 0.0891649 0.565683 1.10346
3760 3.21488 5.73554 1.43389 1.20194 -2.18362 -0.6491
1833 3.57479 6.66367 2.52694 0.223692 0.214862 0.516703
1640 5.20781 6.33672 2.09569 1.24824 2.15108 -0.137953
637 4.3184 5.90296 1.71583 0.612939 -1.27723 -1.39385
2302 4.33964 6.98795 1.47112 -1.78882 -0.702249 -0.200684
602 4.57332 7.01945 2.65532 -1.76166 -0.970114 -0.377736
3736 6.79228 6.22206 1.69029 0.767057 -1.21379 0.748507
3260 5.94467 5.95493 2.68022 0.799141 1.16902 -0.458582
1732 6.88645 6.90925 2.58385 -1.05045 -0.231532 -0.397798
2774 7.39291 5.91035 2.82577 2.07706 -0.939894 -0.103952
2410 7.81596 5.86897 1.91149 0.533313 -0.748292 -1.12016
3580 8.29848 6.59045 2.84729 -1.37766 1.65374 0.139793
656 8.11267 7.01279 1.89459 -2.18871 -0.694397 -1.03694
2003 9.09361 6.44201 2.12301 -0.0326344 -1.5944 -1.14903
464 9.90156 5.83153 1.64382 0.365011 -0.105801 0.675748
3408 9.89102 7.09448 2.60002 -0.775469 -1.71923 0.131219
1683 11.0749 5.81123 1.6493 0.100767 0.441442 0.795746
2303 10.6989 5.99433 2.71173 -0.367085 -2.42743 -0.393592
2839 10.7352 6.70947 1.99075 -0.116907 1.30461 0.691983
136 12.1418 6.63702 2.05417 0.659609 -0.107296 0.356733
1548 13.5419 5.87603 2.33391 1.62595 -1.01374 1.73374
2611 15.1599 6.07466 1.91555 -0.755231 -0.680028 -0.625954
2155 14.3014 6.49372 2.2361 -0.439176 1.1214 1.54093
1298 16.2868 6.10957 1.60443 -1.39281 -1.40343 -1.24221
2903 16.3623 6.78517 2.49046 -1.63109 0.920071 0.649563
2909 0.134649 7.31135 1.96653 -1.38307 0.14673 1.15676
842 1.06124 7.46853 2.44956 0.819176 -0.379976 0.157237
980 0.139278 8.53764 2.32053 -0.388179 -0.0352 0.853167
2375 1.15203 8.45014 1.92988 0.013781 1.40252 -1.25069
1136 2.56933 7.74063 2.0671 -1.17224 -0.143099 -0.69236
3254 1.67569 7.58326 1.43257 -0.78679 -0.0713745 0.274644
2550 3.44827 7.97904 2.4253 -0.912473 -0.295522 -0.123984
3124 5.38839 7.5687 2.08814 0.380712 0.59584 -1.15878
1577 4.40553 8.17353 1.80668 -0.341004 0.676151 1.67472
2108 6.27674 7.19354 1.43369 0.674023 0.153007 -0.191185
2849 6.5029 7.91245 2.12292 0.603355 -0.0998894 -0.72966
1590 7.57006 7.83071 2.59627 1.09619 1.22655 -1.79351
765 9.2434 8.5134 2.32057 0.978715 -0.0847271 1.46889
174 9.35602 7.61454 1.71201 0.172723 0.70893 -1.38834
496 8.78189 7.49325 2.65259 -1.00755 -1.1431 0.145999
3619 11.3552 7.17932 2.62489 1.15633 -0.417304 -0.956855
2552 11.366 8.25167 2.05233 -1.73837 1.39446 -1.97218
3849 10.3609 7.87103 2.06866 0.16962 0.545448 -1.16688
506 12.3479 8.16797 2.01753 0.658462 -0.094201 -0.360893
573 11.7647 7.37294 1.52738 0.373216 -1.71238 -0.312192
2899 12.9078 7.1497 2.33005 -1.47759 -0.124997 1.60035
711 13.5741 7.46723 1.58809 0.0946104 -0.744471 -1.10455
843 13.9445 8.1869 2.7011 -0.740307 -0.582425 0.871181
414 15.0614 8.48614 2.82786 -0.651096 -1.33514 -0.351385
545 15.5037 7.15192 1.59863 -0.112522 -2.70125 -0.906183
1024 15.3634 8.25619 1.70547 1.62534 1.19368 0.601097
3417 14.6788 7.45359 2.42603 0.738 -0.771459 -0.666793
2894 15.9289 7.69209 2.73004 -0.0518317 -0.151278 1.23978
2013 16.3537 8.0456 1.667 0.280029 1.39097 -0.208365
456 1.02435 0.742536 3.23895 -0.471035 -0.0875785 -0.137281
1375 0.63666 0.834511 4.23176 -0.915017 -1.17018 -0.449279
2127 1.94665 0.753095 3.71313 1.50868 -0.990656 -0.258075
2834 3.65677 0.555648 4.14778 -1.19051 -0.431754 1.48785
1765 3.03572 0.886418 3.259 0.0805069 -1.19996 0.943107
1113 4.15189 1.37562 3.71732 0.244588 -1.09838 -0.163386
735 4.30707 0.703557 2.93192 -0.3576 -1.00988 -1.11523
1638 5.08216 0.922245 3.54392 -0.578742 -0.739296 1.99598
3190 6.8287 0.961103 2.94581 -2.5077 -0.0156631 0.43491
3786 6.65968 0.41976 4.07238 0.444472 -0.261762 -0.0452713
3115 6.05618 0.238704 3.22108 2.0715 -2.06027 -0.919882
1842 7.82312 0.968578 3.6093 0.182939 -1.11759 0.866349
1040 7.46973 0.104709 3.1927 0.712525 1.53658 -0.351239
501 8.87203 0.572608 3.65257 -1.38724 0.448983 -1.10743
2235 9.70967 1.13075 3.15836 -0.22317 0.982693 0.620473
2587 10.7008 0.488722 3.15276 0.543583 -0.91137 -1.9333
847 12.549 0.902353 3.37283 1.22389 0.581362 -0.748735
3836 11.7529 0.654987 3.77023 0.430748 -1.1139 -0.449699
1465 13.4906 1.03745 2.8584 -0.549344 1.90129 0.256462
1666 13.8818 0.0221827 3.12624 1.27764 -1.23744 0.676379
1254 14.6971 0.465949 3.76358 0.26306 -0.846814 -0.162844
421 14.8955 1.22495 2.88883 -2.07897 -0.799599 -0.288792
2880 16.6312 0.0498742 4.07471 1.19504 -0.302137 0.63732
3142 15.8582 0.437346 3.52057 0.63072 -0.832784 -0.488277
3884 17.0653 0.692826 3.27086 0.849815 -0.636367 -0.61352
3761 16.5434 1.23196 4.12218 1.07269 -0.890864 0.363262
2734 1.35101 2.18978 3.74436 -0.875403 -0.036833 0.39585
651 1.93355 2.55523 2.95246 -1.15393 2.60633 -0.412445
618 2.36108 1.69532 3.28492 0.925593 1.988 0.904214
1770 2.42695 2.64997 4.01275 1.28843 -0.558801 0.413994
1242 2.72578 1.47535 4.26253 0.214612 1.0732 1.31644
2585 3.35735 2.00373 3.61906 0.275655 1.96058 2.26464
1091 4.2307 2.34314 3.95194 2.31843 0.265106 -1.3047
354 4.85289 2.06753 3.18648 -1.23562 -1.5354 -1.707
2035 5.37786 1.77421 3.97064 -0.0786824 0.30272 -0.962488
3228 6.31561 1.46056 3.81882 -0.0158862 0.355245 -1.40081
3627 6.89919 2.13686 3.14184 0.17033 0.271626 0.453424
829 6.15326 2.76787 3.81659 0.356018 -0.481326 0.957856
3659 8.00548 2.70977 2.94444 0.84542 0.143407 0.398316
724 7.70242 1.98005 3.85529 0.433712 -0.16463 -0.693747
3579 9.78164 2.18057 3.01299 0.0497628 -0.91086 0.779005
1209 8.8298 1.62571 3.74102 1.07629 1.79839 -0.455617
1413 9.1108 2.57209 3.64552 0.360026 -0.24937 -0.273719
860 9.98012 1.69743 4.04791 -0.818992 -0.061012 -0.0037796
3290 10.8188 1.71172 3.2182 0.967244 -0.411731 -0.635195
3462 11.1877 2.43511 4.03087 1.35137 -0.0997946 -0.986008
2640 11.5391 2.83729 3.10217 -0.831004 1.39089 0.455362
434 11.8585 1.81202 3.28316 -1.69349 1.16962 -0.59531
753 12.9236 2.00483 3.3031 0.971472 -0.159848 1.09868
2132 14.0184 1.89594 3.21085 0.981651 -0.416648 0.720553
1178 15.3284 1.43588 4.04469 -0.509536 1.11297 -0.367176
931 15.6339 2.6338 3.97936 0.288002 1.21799 0.584236
3706 16.6369 2.6297 3.25186 -0.288705 0.979043 -1.27598
390 16.589 2.28023 4.20348 -0.645503 0.547844 1.40804
2826 16.9411 1.68311 3.2823 0.693001 -0.870418 -0.65021
3390 15.9288 1.6061 3.13731 0.301581 -0.163823 1.49945
3966 0.920852 4.11953 3.32081 0.224633 0.133931 0.891395
904 0.407953 3.02384 3.66479 1.41415 1.4941 -1.12269
969 2.1192 3.97089 3.11223 -0.406782 0.155288 0.510697
2480 2.56031 3.97722 4.04696 -2.07216 3.46476 0.137755
1976 1.59865 3.29666 3.69553 0.0985059 1.91763 -1.05352
1760 3.90182 3.02573 3.28719 -0.281392 1.75999 0.660766
2588 2.93258 3.27177 3.42843 -0.258901 0.50661 0.236509
286 3.9636 3.83262 3.88881 1.68289 0.682135 2.30511
237 4.96105 2.93721 3.83318 0.343657 -0.808996 -0.144782
2172 5.57082 3.72121 2.85636 -1.58087 -1.90892 0.964226
1643 5.07283 4.16071 3.86515 0.452338 0.622259 -0.169005
1841 6.39839 3.96187 3.61605 0.957352 0.245032 -0.248736
2751 6.43506 3.16632 2.91377 -1.2822 -1.44291 -0.713627
2888 7.2285 3.25559 3.56493 -0.0397181 -0.4562 0.703796
335 8.36892 3.68306 3.37485 0.452754 -0.342924 0.262669
587 9.43573 3.82121 3.82565 -0.824073 -0.521325 0.477384
467 9.90728 3.40715 3.06869 -2.32983 -0.63082 -0.986027
282 10.6836 4.04543 2.89788 0.967408 0.903987 2.13158
889 10.0915 2.86217 3.836 -0.794264 0.134768 -0.0935651
459 11.4752 3.92884 3.58944 -0.0708437 1.30966 0.164028
418 12.2729 3.14016 3.84354 -0.666734 1.47139 1.05772
3450 13.3931 2.86646 3.99283 -1.05193 1.05508 -0.54337
3669 13.1921 4.04856 4.10754 0.877057 -1.22565 0.855002
3523 13.7163 3.76404 3.18508 0.261564 1.5431 2.81929
270 14.3402 3.004 3.06188 0.791692 -1.96899 0.944986
2999 14.4993 3.04108 4.11612 -0.600638 0.946424 -0.659632
3008 15.199 3.78753 3.38741 -0.328389 0.479867 0.867155
1909 14.4349 4.19079 3.9896 -0.378286 0.542036 0.141995
3777 16.2039 3.87113 3.66231 -0.462687 -1.66974 0.637218
1682 0.0362583 4.61638 3.82729 -0.232513 -0.188033 0.65151
3766 1.3489 5.02349 3.53636 -0.506082 -0.0728252 -0.48935
2446 2.36 5.03382 4.01632 -1.19499 1.59091 -0.796645
3200 3.4474 4.29796 3.20003 -0.407576 1.88594 -1.65063
3300 4.49479 4.27927 2.97853 1.61491 1.17175 -0.853036
779 4.86135 5.30219 3.93926 -0.40928 -1.6785 0.443327
2331 5.46629 4.73469 3.0448 -0.454739 0.696119 -1.70224
3374 6.15099 4.90498 4.03806 -0.138907 -0.281996 -1.3786
1747 8.44123 4.97849 2.85053 -0.18152 -0.12044 2.69563
2798 7.78029 5.06772 4.07697 -0.900627 0.717267 -1.14265
473 7.17427 4.69742 3.40366 -0.448301 1.5226 -0.416518
316 9.36699 4.75447 3.34306 -1.63637 -0.505795 0.213123
3204 11.1961 5.02453 3.24955 -0.219556 -0.322675 0.286495
2853 10.5213 4.46621 3.86855 1.01212 0.486958 -0.869152
811 10.1453 5.43213 3.48699 -0.00345062 0.325149 -0.267255
3802 12.2663 4.73942 3.70625 -0.129098 -0.064431 -0.0398489
106 11.944 5.66312 3.51747 2.52078 -0.459798 0.297807
2237 12.889 5.27393 2.92662 0.237433 1.1666 0.427764
3247 13.7772 5.29668 3.47327 -0.551896 0.515174 -1.73474
2412 12.9309 5.41442 4.03873 -0.529296 0.501836 -0.461107
1813 15.3988 4.80575 3.50567 0.600217 -0.599926 0.127012
2434 14.4369 4.64492 2.98889 2.01509 1.10457 -0.781437
2800 14.7067 5.33726 3.99225 -0.234522 0.524368 -1.86965
3470 16.5482 4.56669 2.88885 -0.528451 1.22082 -0.194358
2727 16.9761 5.66299 3.49865 -1.34716 0.50084 -0.473664
1087 0.160994 6.88987 4.08872 -0.671351 0.173419 0.313608
401 1.04317 5.93316 3.76692 -0.0933967 -1.6187 0.762076
3923 1.6184 5.85285 2.88412 0.357831 -1.18893 -0.321437
3259 1.55163 7.03958 3.30865 -0.738484 -0.168902 0.287476
594 2.03864 6.068 3.96474 0.0290964 0.75739 0.936283
1692 2.87433 6.2617 3.46973 1.55295 -0.976276 1.46097
491 4.00896 5.94709 3.77875 -1.44393 0.420724 0.0568253
1321 4.93558 6.11157 3.02932 0.248433 -0.0338364 0.294812
1265 5.62248 7.06274 2.98186 -0.107999 0.870079 -0.462052
3617 4.80585 6.64992 4.00761 -0.373108 -0.572962 -0.77245
1989 6.33554 6.38295 3.57856 -0.249028 1.10521 1.15504
3452 7.69128 6.14407 3.85865 -0.292771 0.34884 0.177801
3087 8.42531 6.88783 4.14561 1.10439 -0.839373 1.7642
3481 7.13329 7.0316 4.23104 0.933383 -1.33627 0.868231
2902 9.29909 5.98307 2.91915 -1.53211 1.11231 0.725954
3837 9.20255 6.92211 3.37102 2.35362 -0.060699 0.0962526
1676 8.55586 5.7294 3.77472 1.11451 0.628272 -1.04207
264 11.2202 6.46325 3.45676 -0.712495 -0.101636 -0.405081
3505 10.2077 6.36295 3.977 0.90803 -0.898005 1.91239
1774 12.2769 6.48886 2.96888 0.379265 0.286838 -0.666813
621 12.2482 6.99554 4.11059 -1.96076 -0.32727 1.33493
1050 13.5497 6.26987 3.34567 -0.0210953 1.64622 -2.18297
978 15.6427 5.79557 2.8935 -0.196158 0.474146 -1.5018
1482 15.4366 6.8063 2.8682 0.095097 1.23199 1.60715
2537 14.4586 6.00456 3.09613 0.606356 1.54648 -1.09881
3499 14.3038 7.07634 3.29077 -0.464908 1.17531 -0.0136696
2313 15.1042 6.3441 3.83377 0.793076 0.0253424 1.32976
3010 16.0825 6.69697 3.62216 0.976943 -0.2419 -0.450135
430 0.909996 7.79167 3.69736 0.324336 -1.02581 0.691046
132 0.0217934 7.51554 2.95257 1.25577 0.830739 -0.417951
348 2.75773 8.06625 3.1184 0.348804 -1.00455 0.710299
532 2.24265 7.53374 4.19872 -0.655366 -1.01608 0.33243
3157 1.77033 8.28882 3.02475 0.0567242 -0.583224 -0.226073
3651 3.32401 7.53633 3.7885 -0.358267 -0.828468 -0.299159
3823 3.75885 8.44579 3.46983 -1.34868 -0.455996 -1.21007
1715 4.82977 8.02579 2.89105 0.61267 0.970351 -0.682982
2695 4.43281 7.9179 3.98363 -2.09302 -0.617731 0.67417
3697 5.44509 8.37074 3.86593 0.537062 -0.0230488 0.43992
2977 6.44628 7.5519 3.31691 1.31269 -0.691942 0.178672
118 8.38555 8.37526 2.93177 2.52229 0.454886 0.402655
1943 7.86359 7.46189 3.47793 -0.406044 -0.313633 0.486821
2233 7.18771 8.04496 4.09013 1.52598 -0.064725 -0.430567
2633 9.65064 8.01751 3.32356 0.127472 -0.670973 -1.09151
575 9.72718 7.47046 4.16994 -2.68333 -0.636458 -0.396458
413 11.3261 7.98197 3.79703 -0.987069 0.329216 1.99483
655 10.3868 7.37829 3.47421 0.214396 -0.134755 -0.558641
1626 12.02 7.79009 3.05056 -0.803668 -1.01918 -0.687919
639 12.4141 8.19897 4.19746 -0.379459 -0.517553 1.00874
188 12.9877 8.00209 2.86358 -1.31756 -1.45261 -0.599814
1015 13.4379 7.63607 3.75506 0.545512 -0.253316 0.325064
1303 15.2767 7.51403 3.56991 0.610813 -0.888792 -1.24524
707 14.5 8.07413 3.93134 1.88019 -0.6868 -1.33935
592 17.0283 8.25835 3.85695 0.131323 -0.445288 0.504263
1780 15.9139 8.35079 3.77466 -1.17755 0.675114 0.835022
1688 1.00404 1.03453 5.22484 -0.331264 -0.62196 -2.30249
2389 1.87728 0.556818 4.89691 -0.737781 0.73481 -1.46008
2944 2.34585 1.22932 5.44715 -1.48379 0.341445 2.01695
1374 2.19927 0.0122935 5.67487 -0.572476 0.30791 0.495471
3641 2.94468 0.550406 4.95527 2.5177 1.12003 1.36937
494 5.1934 1.02832 5.54292 1.18822 0.223981 -0.289136
2329 5.61807 0.798095 4.48819 0.509545 -2.15974 -1.11563
3820 4.32527 0.533483 4.89053 0.78135 -1.16626 1.02127
943 6.21768 0.140024 5.15648 0.643068 -0.777165 0.0811896
635 6.56825 0.996917 5.4737 -0.774027 0.523652 -0.751952
2769 7.52613 0.513146 4.55775 -2.14177 2.69719 -0.902728
3898 9.21231 0.119642 5.66086 -2.60646 -0.346901 -0.686394
1861 9.16304 1.15172 5.03712 -0.0389232 0.10859 1.42745
3117 9.53426 0.0321713 4.61876 -0.00289937 0.8133 0.630456
17 8.56117 0.132645 4.68073 -0.516582 1.96247 0.75415
1318 10.0926 0.766457 4.9805 0.15079 0.230166 0.291865
1270 12.6518 0.778032 5.34204 0.0508613 -0.316439 1.82724
2014 12.2698 0.0927315 4.55158 -1.25308 0.754141 1.41729
1570 12.4055 1.2203 4.42623 0.637101 0.0484397 -0.552248
166 11.6683 0.88346 5.00455 0.882623 -2.21542 -1.22505
963 13.744 0.788148 4.51896 0.850318 -0.322622 -0.123254
1677 14.4628 0.0913761 5.04417 2.41534 -1.05503 0.392994
3392 14.7115 1.22866 4.73854 0.795001 1.20571 -2.0286
363 15.1688 0.0364485 5.68612 1.3186 2.52131 0.676959
319 15.7602 0.686465 4.55867 -0.675834 1.3 0.56713
2492 17.0228 0.614576 4.97074 0.498982 -1.39535 6.35162e-05
2886 0.748863 2.56404 4.6174 0.665527 0.414566 -0.00728459