ITEM: TIMESTEP
48000
ITEM: NUMBER OF ATOMS
4000
ITEM: BOX BOUNDS pp pp pp
0.0000000000000000e+00 1.7099759466766969e+01
0.0000000000000000e+00 1.7099759466766969e+01
0.0000000000000000e+00 1.7099759466766969e+01
ITEM: ATOMS id x y z vx vy vz
597 0.820481 1.25268 0.880513 1.25605 -0.349928 -0.194841
2440 0.46837 0.00806763 0.51852 -0.634902 0.783426 0.144108
1200 1.35453 0.467303 0.19034 0.78879 0.946061 0.297165
3521 0.480654 0.417512 1.37039 -1.38633 -1.89681 0.0547036
1524 2.62708 0.386149 0.0955932 0.779123 0.176621 0.460553
651 2.47141 0.745163 1.26855 1.34897 0.427159 -0.994597
1312 2.39593 1.36999 0.210839 0.574487 1.14683 -0.787956
3410 3.618 0.914031 0.740979 2.19233 0.735491 -0.843804
3175 3.6149 0.0416466 1.23925 0.496424 1.47144 -0.218078
1760 5.22477 0.829928 0.464144 -0.850288 0.534645 0.987343
1005 4.56947 0.998178 1.20298 -0.0488747 -0.835537 -2.16587
210 7.02933 1.27927 1.4128 1.26968 -0.0563572 -0.021017
1712 6.19469 1.3083 0.526803 -2.03517 -0.60696 -1.13793
3009 6.41564 0.30659 0.598911 -0.661093 0.00672053 0.476504
1959 7.89321 0.751901 1.18715 0.449733 -0.29022 1.35123
3400 7.50045 1.36111 0.381489 -0.327257 1.29251 -0.103801
1984 8.29156 0.691426 0.0957075 0.0707379 -0.237787 0.621058
1891 9.05463 0.862567 0.869765 -0.085679 1.82328 0.753482
1263 9.70114 0.0979845 1.17457 -0.499003 -1.38292 2.27887
83 11.0221 0.122861 0.410716 -0.803647 0.240982 0.581205
1762 10.4711 0.966512 0.677413 0.446057 0.41865 -1.50578
660 11.8925 0.471313 1.17362 -0.653784 -1.32785 -0.360758
2485 13.1451 0.577971 1.08322 0.465402 -0.0262675 0.304218
3878 14.0972 0.886894 0.522578 1.29676 0.199951 3.97725
2145 15.0985 1.261 1.04192 0.825026 0.139597 1.31453
2826 15.5075 0.245687 1.30261 0.662683 0.292523 -0.675781
1437 14.4466 0.244436 1.29547 -0.154362 0.90852 0.962356
2002 16.2182 0.294183 0.465342 0.517873 0.00260938 0.510796
757 16.7544 1.01995 1.19859 -1.78313 0.465788 0.298491
1254 16.4983 1.27859 0.145874 -0.826584 -1.55903 -0.816945
2756 0.876684 2.33566 0.292419 1.06473 0.999441 0.649775
3761 1.68735 1.85941 0.873661 -0.369896 -0.90233 -0.960531
465 2.71199 1.75052 1.11412 -2.25046 -1.13324 -0.149087
1003 4.12339 2.25456 1.18995 -0.610794 -0.18911 -1.95602
1436 3.39874 2.18356 0.187496 0.433581 -0.00816911 0.135895
1408 4.92411 2.62387 0.427755 0.0576861 -0.264382 -0.752228
717 4.399 1.64415 0.080303 -0.361219 0.529475 0.288432
2074 5.1715 1.76506 0.969744 0.530822 -1.45173 -0.420501
3445 6.13571 2.43561 1.02891 -0.0710149 -1.67018 -2.11258
3691 7.06607 2.5041 0.419886 1.14519 0.329139 -0.802006
2498 8.07581 2.29564 0.735063 -0.283939 0.444716 -1.42578
3144 8.95908 2.82319 1.05383 -0.886605 1.82739 -0.488972
3590 9.45184 1.89794 0.849683 0.0725884 -0.113824 -0.140158
1076 8.84904 1.60972 0.00562391 -0.482901 0.445311 1.0564
475 11.1336 2.33899 1.19343 -1.127 -0.227354 0.203861
1085 10.9095 1.82697 0.341418 -0.47953 0.467863 -0.411343
1595 12.1676 1.57101 0.604764 0.882741 0.778236 0.0128398
1175 11.5919 2.57538 0.362813 1.66981 -1.30532 2.77963
3919 13.1316 1.62269 0.900545 -1.20001 0.405789 0.0959374
2946 13.3799 2.80519 0.618305 -2.68354 -2.07546 0.341196
3678 14.0281 1.85583 0.253073 -0.0824104 -0.27616 0.82155
2999 14.2113 2.27171 1.31179 -1.04066 -0.100822 0.381307
1718 15.2148 1.9926 0.229651 -0.611182 -0.249063 -0.984593
3317 17.0617 2.12144 0.712213 1.55551 1.13462 0.0939764
281 16.0282 2.01334 1.03731 0.278665 -0.818514 0.676605
3868 1.4037 2.98949 0.827048 -1.09798 -0.930555 -0.0300311
2724 0.435117 3.31902 0.495439 0.139341 0.876322 0.169162
2010 0.894337 4.21397 1.16731 0.258203 -0.857682 -0.189135
1710 1.86641 3.91491 0.951318 2.12642 1.34611 0.175589
956 2.55478 3.82272 0.230885 -1.49596 0.245899 -0.0265492
1170 2.79761 2.92663 0.768515 -1.44417 0.288771 -0.712847
1332 4.08798 3.22639 0.586893 -0.497755 -2.15778 0.999399
871 3.65556 4.00298 0.155725 0.823746 0.307834 0.443442
1807 3.16706 3.82702 1.16981 1.09905 -0.935192 0.174753
3706 4.84239 3.85842 1.02031 -0.0194472 -0.240246 1.38145
114 5.59615 4.15561 0.422024 -2.84898 0.673706 2.32882
1286 7.08267 4.18468 0.506501 1.0602 1.06395 0.176936
992 6.41809 3.40132 1.18601 -0.0196743 0.647127 -0.385761
2410 7.74662 3.33226 0.956905 -0.0152502 -0.00941821 0.402354
1747 8.03119 3.58261 0.0127251 1.37052 -1.04926 -1.12473
273 9.89349 3.67274 0.0726711 -0.0447288 -0.0122049 -1.90186
615 9.22744 2.8723 0.0317574 -0.324696 -0.176488 -0.0293221
3552 10.1687 3.04523 0.8891 -0.511009 0.0425398 0.0798145
59 11.1132 3.60989 0.540363 -0.42873 0.644935 -0.440249
630 12.3559 3.03344 0.864565 -1.26557 0.27429 0.380483
424 12.5995 4.01104 1.31833 -0.572614 -0.695051 1.30848
2099 12.4572 4.09017 0.126822 -0.117163 -1.16611 1.30789
2596 14.0506 3.46432 1.21421 -0.621391 -0.0922107 0.606171
3890 15.1326 2.93681 0.914257 -1.00944 -0.823806 0.756739
191 14.5587 3.89124 0.489423 1.04861 -1.17822 0.305825
3723 15.7993 3.94593 0.366091 1.1933 -0.873838 0.943106
3624 15.8356 4.01249 1.42424 1.75712 -0.0171159 -0.638413
1648 16.9781 4.17123 0.318245 -1.52438 -0.170968 0.130384
319 16.3152 3.07407 0.976559 0.308068 1.87504 -0.999988
76 16.7499 4.14849 1.39441 0.842786 -0.802964 1.0246
1026 15.8088 2.85003 0.0226281 0.674682 -0.225524 -0.533974
954 0.937647 5.08722 0.603965 0.381548 -0.518342 0.322871
969 1.78913 5.62384 0.250835 1.09148 -0.542214 -0.147052
1966 2.38762 4.78748 1.05241 -0.318191 -0.945816 0.665655
1414 1.72597 4.55852 0.152184 -0.12999 0.110892 0.594115
1637 2.73003 5.21363 0.0247169 0.32787 0.126762 -0.185475
779 3.52679 4.89887 0.813295 0.195007 0.0168375 0.690842
1692 3.92227 5.64813 0.189208 -0.056263 -0.392905 -1.13985
2529 4.60515 4.7556 0.51119 0.0548204 0.199986 -1.1385
2561 5.88075 5.43326 0.840989 1.21547 1.98088 -0.900326
989 6.8224 5.04853 0.125275 0.586611 -0.540328 0.722237
686 6.25234 4.44813 1.36624 0.630466 1.40036 -1.00245
2525 6.91876 5.43018 1.34118 -0.79018 0.269055 -0.381742
3636 8.15967 4.58251 0.760775 -0.254884 -0.0833449 1.05041
2603 9.90454 5.29442 0.794778 0.508021 0.0176046 -1.74875
2261 8.81067 5.43742 1.10367 -0.789098 -1.3499 0.453067
3570 9.32665 4.44378 0.770937 -0.199052 -0.379451 1.28301
2266 8.70758 5.07347 0.0284228 0.0334186 -0.912317 0.110158
3660 10.5434 4.47777 0.980012 -0.371573 1.96648 0.107173
2443 10.9801 5.45765 0.596471 -1.72574 -1.72099 -1.1051
4000 11.6935 4.39021 0.813086 -0.428593 2.39542 1.19774
1605 12.5703 5.00866 1.09258 0.600385 -0.186925 -0.232021
711 13.3176 4.51341 0.573122 -1.06132 0.333089 -0.271871
27 15.1109 4.64116 0.0759133 -0.443337 -1.14282 -0.669682
2044 14.6485 4.7131 1.0389 0.0997012 0.430484 1.05753
1597 16.9762 4.99426 0.862315 -1.23566 0.927754 0.361586
2237 15.6926 4.88756 0.918745 0.551196 -1.7878 0.319337
2789 16.2989 5.65035 0.365399 -2.05544 0.00207407 1.72143
2107 1.01633 6.91531 0.395332 -0.494761 0.550197 -1.70632
433 0.416763 6.04147 0.599039 -0.93812 0.414953 0.196909
1527 2.67783 5.77118 1.21512 -0.198686 -1.53345 -0.21438
3135 2.22861 6.69035 0.152355 1.37059 0.667151 0.62697
91 1.61541 6.30179 0.968057 0.156745 -0.651202 -0.101721
3760 2.8623 6.7655 1.16281 0.350935 -2.12517 -0.473833
456 3.88848 5.7906 1.37447 1.00642 1.23611 0.157036
984 3.88068 6.59146 0.717231 -0.289985 -0.876237 1.50081
3495 5.62588 6.15615 0.197175 1.2217 -1.07768 -0.60189
1833 4.87357 7.10451 0.393369 1.83845 -0.183328 -0.4123
1715 5.86146 6.48945 1.27237 1.19691 0.390451 1.84901
3998 6.10142 7.10636 0.304302 0.852004 -1.02667 -1.58242
2558 6.65885 6.06402 0.37979 -0.33915 0.450018 -0.884749
1864 7.90579 5.70526 0.689398 -0.513489 0.584854 -0.153681
2302 8.34678 6.32712 1.32951 -0.216599 -2.48722 -0.424655
1365 7.27347 6.44183 1.24476 0.975017 0.0413119 -0.226748
3748 8.07496 6.83482 0.113838 0.847491 -0.579704 -1.2247
3408 8.94468 6.08624 0.239267 0.291534 0.0770276 -0.08058
353 9.08263 6.9947 1.0429 1.54804 -0.90362 -0.662591
2664 10.2201 6.39295 1.18933 0.131102 1.58261 1.17296
214 11.3881 6.83806 1.38208 1.84638 -1.53774 -0.79552
3419 11.1036 6.68043 0.319305 -0.352861 -1.94521 1.22465
1034 11.9437 5.99772 0.924482 -1.88162 1.18849 1.41286
1304 13.8259 6.65351 1.27313 -0.131375 0.641177 -0.515454
3401 12.9349 6.33887 0.385622 0.366976 -0.534824 0.846397
2543 13.4658 5.71858 1.0592 -1.25716 -0.317346 0.297888
3802 14.1602 6.15184 0.369088 -2.12401 -1.728 1.07939
415 15.0632 6.06354 1.34573 -0.835707 -2.40233 1.66093
2078 15.4451 6.72681 0.637783 0.272573 0.576703 1.53415
3712 15.0433 5.70613 0.337166 0.3633 -0.356384 -1.56599
2894 16.763 6.81831 1.02347 0.632921 -1.08754 0.866271
3498 0.2939 7.57902 0.885858 -0.723036 1.82805 -1.16186
2187 1.24196 8.16214 0.998938 0.777921 0.148914 -0.943499
52 1.89728 7.30617 1.01692 -0.490258 -0.975005 -1.8557
3474 2.80979 7.62855 0.53897 -1.14713 0.140752 -1.60584
2173 3.53995 7.82735 1.32034 -1.53697 0.633558 -1.68925
1685 3.80266 7.92736 0.223177 -0.909688 -0.234952 -1.89698
331 4.63152 7.85907 0.95208 -0.0852493 -0.765091 1.5049
3885 6.52905 7.28282 1.17223 -0.576837 -0.594966 0.298598
1591 6.66581 8.34475 0.219643 0.543085 1.27762 -2.76188
1769 5.71314 7.74279 0.906171 0.893949 1.22617 0.740064
637 7.09074 7.30888 0.0972993 0.486107 -1.54036 2.06439
1239 8.54811 8.15868 1.35805 -0.140333 0.815486 0.055505
2070 7.93694 7.57988 0.686284 -1.20946 -0.225115 -1.07709
959 9.87446 7.24192 0.372139 0.370084 -0.166652 1.29431
658 9.79969 8.10725 0.895925 -1.46137 -0.514942 0.539682
1583 10.7477 7.59794 1.01106 -0.447047 0.592267 -2.09958
932 11.611 8.03299 1.08524 0.687296 -0.364616 1.67753
3221 12.5504 7.49257 0.976671 0.297001 0.657499 -0.24659
3954 13.5696 7.72436 1.40912 -0.475244 -0.838315 -0.425781
998 13.217 7.38662 0.203446 -1.1415 -1.5418 0.0664435
1884 13.2682 8.4661 0.686738 0.345576 0.279446 -0.0257816
2903 14.4963 7.20589 0.49293 0.440421 -0.228227 1.28715
1081 14.4348 8.17095 0.808516 -0.123923 1.17217 -0.331315
2405 15.2835 7.83533 0.280384 -1.27009 -0.0440751 0.169893
2169 14.9023 7.13204 1.32755 0.14516 1.03704 -2.25448
2129 16.1176 7.8832 1.13495 2.26122 0.214255 0.0499659
3664 16.4233 7.2755 0.0773557 0.605887 -0.123817 0.773555
2019 16.6303 8.27396 0.234154 0.0789895 1.18632 1.03596
3777 0.637496 0.711849 2.39213 1.19819 2.49851 -1.00274
2247 2.47288 1.34415 2.13817 -1.18298 0.450953 0.320928
1151 1.5354 0.275394 1.8146 -1.35845 1.05093 0.216313
3923 2.50831 0.303317 2.28837 0.820995 -1.16747 -0.017576
2136 3.55857 1.07311 2.11752 -0.0486425 -0.0674498 -2.40821
242 4.32502 0.128677 2.01603 -1.65214 0.470132 -1.19021
1805 5.32149 0.629411 1.95383 0.601914 -0.677242 -0.738845
1113 6.49648 0.571889 2.10281 1.25964 1.74591 0.0378583
1608 5.80282 1.34348 2.72163 0.841428 -0.780001 0.34032
2357 7.73459 0.945119 2.17478 0.879865 -0.304809 1.30901
2987 8.87983 0.944645 2.10338 -0.320021 0.465983 -0.0421158
2348 9.74925 0.370461 2.30858 0.29728 -0.364021 -0.76862
3370 11.2078 0.153482 2.33729 1.99901 2.28157 1.28627
2376 10.7619 0.447493 1.46295 -0.220455 -0.531683 0.715758
2092 10.5289 1.11415 2.70771 0.228689 1.40428 1.27716
2667 11.5669 1.27034 1.6963 0.399751 1.97937 -0.616408
3159 12.119 0.430566 2.6057 0.171775 0.705961 -0.391038
3472 14.0765 0.70127 2.28611 0.0497455 0.862542 0.550101
917 13.8908 1.31185 1.54984 -1.6191 1.63982 0.387689
1363 13.0836 0.3374 2.12683 -0.479667 -0.713502 -2.06569
262 15.0943 0.621382 2.17318 0.531247 -0.725564 -0.0912665
3891 16.3817 1.05608 2.36161 0.0862553 -0.367055 -0.163256
892 16.3153 0.139457 2.04248 -0.249236 -1.26084 1.53394
3920 0.0804037 1.52271 1.988 -0.186395 -0.067675 1.72262
2702 1.393 2.23191 2.56871 -2.69153 -1.05094 -1.22649
2001 0.818614 2.20888 1.43603 1.47985 0.200261 -0.277665
3142 2.17704 2.41309 1.72161 0.452516 -1.23039 0.782474
2762 2.36211 2.05765 2.80224 0.961589 0.288842 -0.318438
2354 1.42866 1.51641 1.87148 -0.992419 0.68804 1.6155
2154 3.35568 2.02771 2.09408 0.374259 0.603744 -0.944849
3368 4.51758 1.65061 1.96094 -1.60548 -0.621459 -1.27205
3910 5.50104 2.45895 2.02482 -0.520167 1.12091 -2.1693
3767 7.10397 1.67166 2.33857 -0.732917 -0.240605 -0.0920356
1765 6.07852 1.51627 1.48306 -0.411823 -0.315708 -0.640073
35 6.54458 2.44903 1.99585 0.413971 -0.183442 1.99661
271 7.64192 2.50744 1.8236 -0.935475 0.933454 -1.05567
1404 8.38826 1.72623 1.593 0.453583 -0.0691853 0.0745426
1195 8.20731 2.21086 2.84028 -0.931372 1.17652 1.49104
3088 7.31293 2.78336 2.77788 1.05553 -0.672384 0.0324609
588 8.72418 2.81917 2.04776 -1.47952 -2.86516 0.369464
2067 9.85901 2.71978 2.14784 -0.437477 0.56305 0.162918
1989 9.45075 1.79455 1.88751 -0.751212 -0.37347 1.93307
1842 10.3775 1.51421 1.65109 -0.0513938 0.707144 -0.0340121
357 10.9829 2.02132 2.21403 0.971911 -0.432686 -0.802983
683 12.4764 2.33495 1.7974 1.54203 -0.238244 0.0792483
2959 12.6929 2.13907 2.80214 -0.57207 -0.447325 -0.441488
535 12.9732 1.47132 2.07739 0.870161 -0.395456 0.667054
2451 13.6896 2.08818 2.77234 -0.164427 0.827665 0.153528
1791 15.4009 2.36118 1.82642 0.937149 0.290165 -1.40488
442 14.4388 2.74475 2.33806 1.61488 0.768197 -0.50069
1981 14.6771 1.58894 2.17426 0.821596 -0.474738 -0.808317
480 15.629 1.77813 2.75522 -0.621664 -0.12574 -0.121399
187 16.5865 2.33424 1.87618 0.358612 -0.0386672 1.30336
3222 0.0422592 3.24762 1.60251 0.191404 0.554017 1.34094
2945 0.939872 3.40356 1.93558 -0.251542 -1.96416 -1.08698
1644 0.458279 4.17629 2.75733 -0.376474 -0.603161 -1.10403
2417 2.39445 3.74723 1.97882 -0.96236 0.357325 0.84404
339 1.47167 4.22139 2.21039 -0.64881 -1.60939 -0.86441
1731 2.87504 3.08818 2.74604 -0.533054 -1.29297 -0.260234
3841 3.60534 3.06121 1.84405 1.83468 0.963524 0.473933
2588 4.18918 3.56354 2.66339 2.32111 0.96668 -2.33748
688 4.71486 3.04838 1.64048 0.740838 0.784754 -0.206574
299 5.10107 3.13491 2.76062 0.890816 0.188581 -2.44932
237 5.63362 3.5337 1.99933 0.505267 0.382073 0.68133
2162 5.90811 4.20437 2.66961 0.658308 -0.655926 -0.252399
1152 6.91415 3.66344 2.23327 1.49721 0.864025 -0.410324
3090 8.00908 3.49475 1.87918 0.152067 -0.267847 -0.0164553
2081 7.40914 4.25229 1.50132 -0.0414404 0.0362091 0.572796
2994 8.89883 3.99351 2.53087 0.0400978 -0.992149 0.494002
1861 9.84471 3.63741 2.68449 0.355931 0.493894 1.3804
3336 9.37986 3.59627 1.68614 0.0549998 -0.26918 0.619291
231 10.4119 3.59953 1.62342 1.0915 0.363574 1.07313
675 11.0371 3.48239 2.45309 0.782246 -0.261844 -1.66187
260 11.5444 3.3647 1.42737 0.185016 -0.082326 -0.137635
2402 11.8274 4.22578 2.18415 -0.138852 -1.40089 0.549379
41 12.2204 3.18782 2.43846 1.3802 -0.95178 0.783412
2238 14.1018 4.00293 2.44255 -2.02353 -0.308018 0.76545
1462 13.1936 3.00126 2.78375 2.06608 0.83912 0.520815
1690 13.0759 3.86151 2.26871 1.04903 -0.470474 2.53761
2077 13.1126 3.11124 1.55447 0.542326 -1.13676 -0.443887
1545 14.8364 3.7802 1.74446 -0.00770369 -1.24191 0.472003
1688 15.3423 3.10837 2.49873 -1.18078 0.47891 0.0396613
3462 16.1269 3.22042 1.95519 0.631406 -0.740856 1.10487
2567 16.7861 3.53999 2.62419 -0.566939 1.00577 1.8079
3470 0.301906 4.74269 1.85532 -1.58532 -0.796225 0.207234
1341 1.40561 5.40757 2.79412 -1.45678 -0.0804509 -0.891216
891 1.75561 5.47867 1.78448 -0.402084 1.20687 -0.635528
158 2.4085 5.15907 2.54492 0.151875 -0.794542 1.17122
1087 3.3011 5.02554 1.8528 0.975568 -0.200519 -0.283258
72 3.51549 4.4089 2.63458 0.943355 0.55661 0.407972
354 4.31488 4.59129 1.64597 -0.826884 0.00552565 0.744966
679 5.03369 5.56783 1.53384 -0.351581 -0.801456 0.500059
2127 4.45146 5.21805 2.51658 -0.275432 0.843576 -0.626461
562 5.26882 4.53481 1.81668 0.612418 1.39394 0.548347
2035 6.01578 5.52541 1.9913 0.283514 0.861616 -0.847489
2079 6.82493 4.76171 2.0878 -0.158714 -0.310486 -1.69559
136 8.49182 4.98762 2.5423 0.597312 2.67077 -0.569244
1136 7.78839 5.51648 1.90011 0.63217 -0.473261 -0.619112
2774 7.69208 4.31297 2.5095 1.26405 0.0259409 -0.440693
3736 8.63128 4.44016 1.60595 -1.64887 1.26847 0.572231
3316 9.59659 4.84126 1.83626 -0.100945 0.14883 0.0627287
3974 10.3766 5.32892 2.66441 0.622635 -1.35879 -1.34968
677 11.1876 4.9774 1.65311 -1.49734 0.0112373 1.42513
445 10.4082 5.54353 1.68515 0.584015 0.679525 0.454502
3835 10.5347 4.38586 2.27432 0.814973 -2.15559 -0.00465023
920 11.5707 5.22518 2.73626 -0.726444 -0.776504 1.43887
3450 12.2029 5.5872 1.92994 0.822841 -1.6788 -0.357912
2656 14.1521 5.05543 2.52335 0.661674 -1.62905 0.454508
398 13.6263 4.82657 1.62483 -0.312945 -0.584182 -0.224877
3343 13.2176 5.6667 2.23908 1.43036 -1.08776 -1.15229
2875 15.0952 5.13644 1.86062 1.20723 0.739084 0.894811
166 15.3355 4.3616 2.59154 0.154006 -0.422128 -0.29826
178 15.5636 5.56426 2.72025 -0.302186 1.13581 -0.0393997
2646 16.368 4.5362 2.30916 0.0224185 -1.09905 0.752358
1400 16.8336 5.51536 2.46202 0.99676 0.0723223 0.136836
3823 0.969029 6.86725 1.64213 -3.36618 1.34882 0.331902
832 1.18702 6.47858 2.6169 -1.21672 -0.249554 0.616851
842 0.598808 5.82407 1.76534 0.808595 0.776192 -0.128342
1566 0.409848 7.03395 2.84288 -1.22759 -0.773411 0.54918
536 2.05532 6.62366 1.78571 -0.222527 1.84614 -0.644124
3581 2.96594 6.04104 2.14959 1.44252 -0.190882 -1.25329
1487 3.67919 6.99084 1.80038 0.272872 0.150751 -0.814137
2442 3.22631 7.00036 2.7795 2.04658 -1.72361 -0.42376
3826 4.06289 6.28958 2.67707 -1.63897 1.57607 0.529852
2056 5.36209 6.30563 2.35295 -0.838977 0.903408 0.160996
498 4.69679 6.52065 1.50043 -0.837228 1.39962 0.404111
1442 5.95629 7.11726 2.33067 -1.14472 -0.284623 0.492696
118 6.70322 6.35774 2.14496 0.665544 0.491108 0.654863
3047 7.95484 6.5148 2.41569 0.492901 0.475335 0.340126
229 8.77055 5.93257 2.23459 -0.622959 -1.93665 -1.50625
1656 9.72984 6.12881 2.17551 -0.230997 1.22887 -0.222054
3580 8.68897 7.08134 2.09677 -0.142061 0.545423 -1.77585
99 10.7348 6.91367 2.80995 0.679051 -2.10451 -0.284894
385 11.1076 6.16564 2.19577 0.57936 -0.416968 -1.23602
2625 12.069 6.71774 2.28832 -0.338687 2.39902 1.32769
440 12.8801 6.54511 1.55201 1.3678 -1.9582 1.71717
2958 13.7589 6.92876 2.307 1.093 -2.0462 1.29614
2727 14.3474 5.92258 2.04097 0.42588 -0.0109494 0.768234
3157 15.131 6.74594 2.29179 1.09587 0.516709 -2.16959
2375 16.3907 5.91447 1.50768 0.870783 0.509808 0.81086
401 15.9586 7.04942 1.95974 -1.92576 0.0952725 0.553211
1331 16.9812 6.48963 2.10288 0.665991 0.864913 0.135155
3005 0.506884 7.72445 1.98513 0.0133334 0.550835 -1.5003
119 2.56816 7.50224 1.92149 -2.31942 2.45381 0.0969048
2208 1.53721 8.00579 2.09519 0.930971 0.866492 1.24179
2403 4.16812 7.84449 2.25735 -0.91846 -1.75777 -0.359236
3292 3.14951 8.15668 2.30825 1.30961 -2.1462 0.858721
1818 5.13383 7.59371 1.93625 -0.644693 -1.67843 0.380668
3125 7.07591 8.2208 1.63888 1.35019 -0.153386 0.0380643
3622 6.76071 7.78027 2.67609 -0.920061 -0.618335 -1.20254
2633 6.11055 8.07985 1.90063 1.61859 -0.744314 -0.442719
2109 7.65362 7.42317 1.96401 1.764 -1.54193 -0.303247
2614 8.16137 8.31399 2.25231 0.830231 0.499627 -0.827065
1784 9.96275 7.26733 1.72478 0.986277 -1.90918 -0.28973
2468 9.4364 8.24439 2.00974 0.636005 -0.360686 1.14753
1983 10.6056 8.35935 1.88757 0.169382 -0.812356 0.741967
362 10.0802 7.85669 2.70057 0.481212 0.606923 -0.973565
1896 11.6259 7.70668 2.11472 0.79118 1.14964 -2.00557
1246 12.7195 8.29556 1.6128 1.87508 -1.6667 0.698375
3673 13.5052 8.21467 2.5409 -0.0641317 0.986695 1.38576
3523 12.8667 7.38763 2.19729 -1.69515 0.354174 0.00992729
2388 15.5511 7.85835 2.32208 0.951356 0.263743 -0.197469
3259 14.4036 7.83675 2.10813 -0.955554 -0.416712 0.693663
980 16.58 7.92814 2.25938 -2.63319 0.541447 1.30045
2898 0.85498 0.148492 3.55726 0.720771 1.47866 -0.890632
3166 0.267079 1.10096 3.37799 -1.06205 0.56864 0.480928
1375 1.70509 0.776961 4.13224 1.8727 0.092693 0.223932
2115 2.5031 1.04896 3.13152 0.212914 -0.18441 -0.794012
904 1.45622 1.23398 2.90918 0.556145 0.475522 -0.928082
3820 3.61307 0.581952 3.03167 1.26408 1.49033 0.346616
3092 3.18434 1.02121 3.89213 0.0994934 0.482411 0.578476
3539 4.64775 0.0216966 3.65768 1.00526 -0.537255 0.335951
2689 4.34821 1.02244 3.87154 0.282227 -1.37544 1.94168
101 4.75238 1.05194 2.88325 0.101221 0.372522 -1.01929
2493 5.47449 0.201618 2.96376 1.18503 -0.642425 -0.602391
2834 6.82351 0.785179 3.15979 -0.38782 -1.08994 -0.0375802
2263 5.87869 0.648591 3.85028 -0.119357 -1.87651 -0.374222
1201 6.92624 1.0778 4.26809 -0.151136 1.54391 0.0977119
2436 7.00871 0.0428382 4.00665 1.31778 -0.982765 -0.141497
2369 8.17021 0.540389 3.14422 -0.207277 0.479568 -0.305444
3403 8.86684 1.37268 3.01659 0.259139 -0.873583 0.0268873
3630 9.93972 1.04927 3.99991 -1.43764 -1.3999 1.17429
156 8.7794 0.879419 3.92278 0.45241 -0.362243 -0.0589158
2818 10.8813 0.399993 4.13716 -0.250432 1.07974 -1.08543
2317 10.2086 0.154387 3.23397 2.4074 -0.0865931 -1.40477
429 12.7918 1.12401 2.99936 0.881884 0.20058 -0.698888
1912 11.4435 0.0699429 3.40007 -0.331192 -0.963139 -0.797247
2854 12.0105 0.926431 3.82906 -0.66041 0.372635 0.56711
434 13.8693 1.15109 3.3567 1.194 -0.87311 -0.387255
957 12.9404 0.868154 4.22033 -0.48401 -1.14489 0.543213
1594 13.9103 0.107024 3.9895 1.8745 -0.204782 -1.15646
1452 12.9138 0.109828 3.32507 -1.25187 -1.744 0.508441
3546 14.6478 0.431906 3.17981 -0.230996 -0.582336 2.01827
963 14.7658 0.874074 4.22031 -0.0848811 1.25158 2.18183
19 15.907 0.270251 4.25023 0.94468 -0.375105 1.21214
3059 15.8214 0.689859 3.18429 -0.0697232 1.15758 1.34595
2515 16.9537 0.172201 2.91431 -1.18693 1.08734 -1.75358
212 16.9243 0.426264 4.06071 0.527856 1.08124 1.06483
1219 1.09132 1.98037 3.4554 -0.42912 2.2693 -0.0903105
805 0.721232 1.47324 4.22772 -3.09306 0.285353 0.276599
2165 1.78978 2.41203 4.00777 0.0441718 1.04295 -0.833927
3145 3.77993 1.58007 3.11323 -1.84442 -1.48176 0.973447
1815 3.76162 2.6253 3.11369 0.487396 -2.00141 0.802538
2331 2.94968 2.1802 3.88598 -2.21474 -0.246223 -0.33946
943 5.28874 1.51179 3.83566 -1.22672 0.233946 6.17726e-05
735 4.72197 2.12794 3.09672 1.30338 -0.702185 0.359788
1841 5.38203 2.82802 3.74584 -0.643043 -0.00644226 -0.897322
282 6.25707 2.2395 3.11302 1.15523 -0.781534 -0.486157
478 6.73969 2.77723 3.83227 -0.5641 -0.706934 0.737476
222 7.79534 2.47172 3.78385 0.699559 -1.10962 0.461217
1847 7.33059 1.63098 3.51545 -0.0517227 -1.43153 0.272548
316 9.21172 2.75172 2.90403 0.601063 1.0746 0.893376
3786 9.83107 1.72952 3.20627 -0.424771 0.381813 -0.173486
726 8.69971 2.13032 3.75224 -1.09271 0.332554 -0.485716
1120 11.0226 2.63484 3.18109 0.011296 0.783579 -0.768745
2587 10.8143 1.5733 3.71659 0.419078 -0.168856 -2.50361
418 11.1452 2.60748 4.15867 2.6284 -0.270995 -0.556935
593 11.7107 1.67332 3.09361 0.47851 0.97228 -0.542303
753 11.9496 2.10184 4.03673 0.257381 -1.2441 1.06597
2601 13.8481 2.55975 3.87819 1.26115 1.42645 -0.408523
951 13.018 1.91117 3.8698 -1.26489 1.91272 -0.439304
477 14.8458 1.49325 3.3872 -0.207373 0.164037 1.5004
1325 17.0908 2.14871 2.93601 0.249763 0.6181 -0.712395
3976 16.3473 1.44992 3.57166 0.930046 -0.826683 0.803301
3008 15.801 2.55162 3.4105 1.0978 -0.910221 0.356864
1976 16.7291 2.74733 3.70912 -0.53832 -1.23418 -0.228571
648 0.732255 3.82656 3.93096 -1.30705 0.159801 0.975482
2132 0.573295 3.01038 3.11765 1.1803 -0.603043 -0.0647399
270 1.53642 4.15657 3.26242 -0.236167 -1.34536 0.317342
2722 1.80697 3.22266 2.90758 -0.704452 0.546609 0.126103
2333 2.57512 4.16582 3.04272 -0.847274 -1.43749 0.498951
549 2.32291 3.3507 3.79963 0.00993823 -0.449575 -0.0477382
3200 3.27335 3.71515 3.55633 0.870077 0.912458 0.364799
2867 5.06435 3.85484 3.49101 0.311269 -1.31811 0.45194
2532 4.37869 3.25146 4.01039 0.113797 -1.02204 -0.68363
3363 6.25903 3.23931 3.01621 0.719575 -0.960522 0.945015
2788 5.97618 3.85674 3.93911 -1.88625 -0.309392 -1.03062
1854 6.98785 3.88206 3.53176 2.23364 1.72568 0.783495
2751 8.22088 3.29795 3.28428 1.74452 2.0576 -2.32734
2278 8.19308 4.23342 3.72959 -0.227969 -0.512134 -1.67788
2853 9.16667 3.62664 3.59719 -0.400344 0.167886 1.00819
1676 9.90989 2.89499 3.71538 0.910613 1.55001 -0.281455
2434 9.96418 4.21509 4.23008 -1.34186 -1.65196 0.228897
2142 10.7184 3.74819 3.5824 0.576509 0.514893 -1.00868
230 11.7499 3.26678 3.61843 0.864391 -0.973622 -0.643225
3911 13.4765 4.03237 3.30348 0.122953 0.398276 -0.859198
2817 12.8418 2.94981 3.76647 1.13861 1.75918 -1.02905
3392 14.5773 3.22328 3.21903 0.255132 -1.38073 -2.12772
1682 14.721 4.23193 3.5933 -1.48027 -1.01224 0.834401
492 14.9637 3.04755 4.20256 0.230875 -0.160658 1.24749
2734 15.7065 3.7198 3.25765 0.21714 -1.32469 -0.941334
1813 16.4993 3.76703 3.98455 1.9713 0.0518813 1.19775
2293 0.645247 4.90857 3.58784 -1.77715 -0.0623147 0.109984
602 2.04121 5.08521 3.61498 0.594466 -0.92863 0.0112685
347 3.11204 5.13685 3.41041 0.0840033 -0.478758 0.267373
460 4.11269 4.37712 3.57502 2.18777 0.262514 0.134944
1265 4.22278 5.57277 3.6114 -0.0234404 1.89085 0.794681
1643 5.50088 5.31559 2.96271 0.413156 0.712517 -0.294492
1928 5.15353 5.05455 3.88249 -0.660508 0.231563 0.156282
668 6.54011 4.8132 3.34142 -2.53561 -0.530967 -1.39436
2883 6.26616 5.24291 4.21787 -1.18494 -0.93651 0.90075
1321 7.67461 5.09253 3.38396 -0.658176 1.29821 0.39448
2902 9.2517 5.49264 3.03314 0.248542 0.9324 0.117755
2606 9.10525 4.67662 3.47874 -2.6725 0.790976 0.561743
3837 10.9558 5.5087 3.52986 -0.0143006 -0.364676 0.663508
1541 10.8505 4.68907 4.21622 0.811241 -0.489904 -0.385649
2640 10.0927 4.50936 3.2035 0.277274 0.440091 -1.02725
3018 12.7366 4.4098 4.08963 0.356714 1.1742 -0.974403
2846 11.6508 4.35504 3.37651 0.248121 -0.460645 0.551164
106 11.96 5.35445 3.65829 0.676304 0.240527 0.502761
157 12.6858 4.89756 2.99708 0.848164 1.77158 -0.503885
1963 13.5247 5.40078 3.42945 0.113543 -1.55779 0.123319
3615 13.9587 4.56066 4.12632 0.754436 -0.600388 -0.420331
3529 14.745 5.32371 3.61864 -0.364563 0.0426486 1.31166
2748 15.6196 5.58129 4.00078 0.446963 1.6631 0.983863
2877 16.1091 4.94231 3.46882 -1.80389 1.55462 -0.372824
771 16.8562 5.42805 3.97783 0.402653 0.850318 -0.672457
1054 0.163026 6.05996 3.14484 -1.62997 0.135237 0.765301
531 1.18226 5.84029 3.85488 -1.33925 -0.00477785 0.674164
2537 1.08393 6.86194 3.97288 -1.7553 0.499439 1.63738
3533 2.22973 6.07632 3.19476 1.40975 -0.917759 1.25075
3973 2.49899 7.08315 3.52783 -0.327033 3.00545 -0.0668628
2319 3.18501 6.14806 3.44464 0.197595 -0.249043 0.346037
1641 4.11448 6.55011 3.70212 0.627102 1.39266 -0.353738
3267 5.16024 6.0579 3.40797 0.624187 -0.973835 1.46407
2695 6.40116 5.87125 3.42648 -2.00783 0.819973 -0.251653
3423 7.3402 6.04085 3.06027 1.1421 0.387471 0.504118
3551 8.4497 5.84124 3.44927 1.29972 2.61416 2.84276
1582 8.26509 6.91058 3.46749 -0.353935 0.397955 -0.21011
481 9.09987 6.66659 3.00489 -0.637977 1.18254 0.109663
3493 9.13932 6.45617 4.19144 0.189772 -0.250386 0.336001
127 10.0522 6.10088 3.27883 1.02956 0.166623 0.20143
575 10.5904 7.09743 4.0091 -0.977019 1.10393 -0.481838
1548 12.5304 5.95594 2.86646 0.552542 0.634117 0.0158203
811 11.6116 6.30558 3.25939 -0.910678 -1.51139 -0.519038
751 12.7343 6.09792 3.84864 -0.343658 -0.537802 -1.04787
355 13.8074 6.15875 4.14514 -0.0253364 0.426088 -0.283468
2449 13.4065 6.47699 3.20385 -0.843931 1.80444 0.686774
2386 14.5182 6.28706 3.09583 -1.00299 0.996816 -0.0875147
147 14.8311 6.41268 4.14326 -0.234517 0.00669456 2.37762
2013 16.4341 6.73707 2.95901 1.80006 1.53467 1.78713
1482 15.945 6.72088 3.91727 0.221059 1.33571 1.33251
3254 16.9898 6.63779 4.02062 0.331393 -1.2952 -0.351708
949 0.205477 7.61279 3.66196 0.916046 0.426821 1.3477
2723 1.28837 7.55045 3.05476 1.33573 -0.173233 -1.0286
167 1.24548 7.87781 4.14901 -0.49703 -0.0429495 1.86702
2922 1.99686 8.20849 3.59724 0.000542875 -0.566767 -0.52045
744 3.47641 8.05099 3.23637 -0.86539 -2.25915 -1.38113
1274 5.67625 8.14792 3.00869 -1.58723 1.13241 -2.30989
3737 5.64334 7.33962 3.78267 -1.99267 0.324565 -1.29268
2813 4.88293 7.21163 3.06109 0.900481 0.563046 -0.456561
1216 6.67346 7.234 3.66307 0.459369 1.91759 0.701132
1590 7.70946 7.49305 2.94767 -1.26121 0.898468 0.213272
2213 7.39922 8.15534 3.73151 -1.61657 -0.421742 0.558256
1744 9.6302 7.72217 3.88681 -1.00037 0.825388 0.329682
985 8.91154 7.70216 3.15415 0.788041 -0.974493 -0.773885
2670 11.2188 8.51838 3.75692 0.265205 2.14996 -0.0550578
1732 11.0164 7.89052 2.96426 1.1026 -1.29066 0.0316422
2580 12.4642 7.12848 3.47666 1.38852 -2.15199 -0.385434
291 11.559 7.55992 3.77883 0.362671 -0.0542853 -0.414041
1172 12.5807 8.21515 3.10427 -1.26609 -0.769673 0.988394
337 12.1861 8.42391 4.15041 -0.72394 0.495054 -0.3065
3359 13.8354 7.38891 3.3604 0.131787 0.849634 -1.63811
3672 13.2134 7.64554 4.00819 -1.36617 1.08758 -0.61863
425 15.0847 8.19334 3.51626 1.19578 -0.611222 1.47429
1435 14.8211 7.19014 3.29715 1.23606 0.190079 1.13695
92 16.9148 8.41873 3.2354 0.653327 -0.870826 -0.533008
1703 15.877 8.40822 4.25642 1.01197 0.208067 -0.546622
1971 16.0878 7.57977 3.39566 -0.54789 1.1832 -0.12414
2910 0.396195 1.20279 5.27164 -1.1776 -1.55031 -1.96657
3444 1.34274 0.731983 5.55012 0.763037 -1.29991 -0.794484
893 0.716065 0.412484 4.66887 0.418635 1.81492 0.117413
2446 2.03271 0.140125 5.01707 -0.216619 0.23132 1.99728
1043 2.02412 1.36053 5.20252 -0.738627 0.232534 -0.566552
1089 3.92019 0.591013 4.77832 0.207036 -1.70694 2.28956
2106 2.9725 0.822177 5.10857 0.18596 -1.2658 0.816521
3298 4.70115 0.264756 5.44643 -0.63028 -0.137223 0.0638252
2988 5.14646 0.306022 4.5333 -0.307431 -1.63512 1.1497
3379 6.96081 0.584704 5.47099 -0.945136 1.22206 1.03331
3078 5.84909 1.12036 4.88541 0.213645 -0.431596 -0.279104
682 7.80185 0.504826 4.42442 -0.00646381 -0.796855 -1.39183
335 7.39939 1.38001 5.17668 -1.02861 1.41582 -0.451836
635 8.15116 0.416682 5.43807 -0.00760163 -0.0395984 -0.48767
334 9.54193 0.837927 4.86641 0.37547 -1.0342 -0.178069
2476 11.0003 0.0770433 5.33836 -1.60078 1.24446 -0.174455
1547 10.8555 1.32122 4.85802 0.872296 1.10465 0.478735
3117 12.1731 0.109753 5.41002 0.445814 -0.979644 -0.680272
2660 11.8896 1.14549 5.21757 -0.215586 0.375454 -0.617924
2235 12.9412 0.956966 5.21947 0.571077 1.91105 0.470218
1801 13.8603 0.576222 4.87215 -0.0107417 0.0565004 0.368488
2758 15.2485 1.15056 5.22728 0.75658 -0.247537 0.766404
823 16.4268 1.13028 4.87494 1.44694 -0.911001 1.76683
2697 16.8789 0.128005 5.06708 0.148091 2.39527 0.701315
850 1.18547 1.80636 5.03424 -0.00220986 0.0822274 0.635967
1843 0.786742 2.60843 4.3515 0.136648 -0.322829 -1.60765
1348 0.489723 2.53107 5.35757 -0.393179 -0.184182 0.120593