ITEM: TIMESTEP
65000
ITEM: NUMBER OF ATOMS
4000
ITEM: BOX BOUNDS pp pp pp
0.0000000000000000e+00 1.7099759466766969e+01
0.0000000000000000e+00 1.7099759466766969e+01
0.0000000000000000e+00 1.7099759466766969e+01
ITEM: ATOMS id x y z vx vy vz
2342 1.0011 0.62598 0.795881 -1.63013 -0.124786 -0.0162495
2016 1.73615 1.33514 1.05354 -0.148241 -0.0986998 -0.299864
3990 2.58322 1.39365 0.375313 -0.808758 0.0376209 0.182292
2448 2.22299 0.37558 0.937717 1.01147 2.08049 1.29509
295 3.22552 0.63676 0.669807 1.5671 -0.156565 -0.369595
2209 3.84742 1.24058 0.103428 1.35781 -1.13696 1.18639
3225 4.29378 0.538496 0.781212 1.44566 -0.0401813 0.602696
476 5.45828 1.38731 0.745676 -0.611797 -0.907251 -0.336919
1580 6.11557 0.764017 1.32423 0.198806 -1.32102 -0.567661
743 6.21422 0.0629482 0.576767 0.0287631 -0.21 0.832435
1716 7.97234 0.240911 1.38149 1.14995 -0.165909 -1.57161
588 8.03583 1.40555 0.896002 0.0576512 -0.325919 1.35225
1991 7.40573 0.688823 0.460917 0.609658 0.429865 -0.568046
113 9.87769 0.0609959 0.966049 -0.550984 -0.528836 0.216583
3626 9.94239 1.02789 1.00843 0.389187 0.661022 0.243789
3575 8.89879 0.534924 0.798918 1.07605 2.52886 0.35039
2387 10.6763 0.623884 0.269111 -0.501569 0.109604 0.642005
1966 12.5722 1.10374 0.0917152 -2.53624 -0.561218 0.00690823
2246 11.8246 0.640856 0.785836 -0.724338 -1.07987 1.43308
1789 13.5601 0.681599 0.763153 -0.10341 0.0211782 -0.0752532
2002 14.6251 1.21649 0.94773 -0.49209 -0.215261 0.502297
677 14.8347 0.255919 0.685813 -0.906833 0.0983937 -0.349082
1367 16.1482 1.12197 1.12626 -1.07736 0.562282 0.880947
1539 16.861 0.489275 0.533501 -0.551346 -1.15699 0.128929
2842 15.8528 0.331093 0.285922 1.13324 0.0398106 0.427707
2930 0.175297 2.61079 0.223904 0.0788783 -0.210642 -0.275055
2672 1.09437 2.7545 1.04714 -0.721506 0.465799 0.911644
3420 0.721852 1.54939 0.645975 1.08198 -0.72127 -0.989826
2305 2.25388 2.32856 0.800491 -0.468898 0.787362 -1.30556
474 1.43744 1.8611 0.0339158 -3.01054 -0.787054 0.582244
426 3.60727 1.59302 1.11567 -0.736195 1.24774 -1.21864
1880 3.3169 2.19363 0.345326 -0.0404873 1.32962 0.362268
3970 4.29109 2.83581 0.637708 0.306648 -1.08237 0.113711
1120 4.54988 1.85485 0.704551 0.64244 -0.950662 1.27487
2236 5.27873 2.42556 0.291509 2.60857 -0.809021 -1.16018
2747 6.19317 2.83767 0.887001 0.570237 -0.110772 1.60372
1760 7.09225 1.79502 0.981863 0.331047 1.20737 0.275747
1188 6.23462 1.68256 0.133776 0.35998 0.482709 -0.945708
2049 6.60165 2.61525 0.0165317 0.21718 0.67929 -0.735161
2703 8.51768 2.65608 0.607962 1.13884 0.0297964 1.22573
3819 8.93797 1.62467 0.366529 0.112471 -1.40003 -1.51145
3954 9.88641 2.06451 1.25693 0.0806312 1.36637 -0.0785574
300 8.89592 1.65865 1.42052 0.410325 -0.935424 0.258976
270 9.79198 2.50724 0.260843 0.160416 -0.379642 -0.480179
1610 10.7351 1.99825 0.646937 -1.06747 0.535798 1.24656
1258 11.6195 2.72196 1.01542 2.8491 -0.078727 -0.0855177
2324 11.9582 2.50414 0.0562241 0.591748 0.31207 0.117516
1463 11.9113 1.67241 0.771572 1.23367 -0.855633 0.915455
1349 12.9547 2.15587 0.212838 0.370434 1.10875 -0.405691
3890 14.0697 2.09853 0.95091 0.709362 -3.34189 -0.87158
3711 14.88 2.4698 0.369393 1.46577 1.66113 -0.504694
2145 15.2561 1.96861 1.24206 -0.293822 1.0441 -0.287846
1462 16.2619 2.5021 0.31606 -0.96789 -0.540222 -0.727886
1840 16.9733 2.00862 1.14827 0.259827 -0.769265 -0.235759
3637 15.699 1.5352 0.322134 0.182304 -0.0401653 -0.0949832
2160 0.0170096 3.02333 1.14641 1.036 1.04996 0.133383
2976 0.878374 3.76177 0.505071 0.858935 -1.16342 0.551062
2826 0.11634 4.17222 1.12888 0.174041 -1.2767 0.152362
2050 2.27207 3.42663 1.29614 0.115441 0.343069 -0.389923
465 1.74655 3.22901 0.219872 -0.0845445 -1.501 -0.532618
424 3.08205 3.29613 0.257571 -0.729155 -0.625161 -0.786362
1693 3.04145 4.24224 1.34614 -0.197938 -1.37198 0.00717979
3254 3.93245 4.06466 0.658646 1.48458 -0.410501 -0.701958
733 4.85368 3.48666 1.24337 -0.888348 0.953766 1.21501
3661 5.00787 4.07681 0.459917 -1.81022 -0.0792623 -0.410808
478 6.22527 3.89993 0.773954 0.242434 -1.39968 -0.37636
658 7.02744 4.07498 0.152741 0.282381 0.034023 1.81227
3009 7.42442 3.87889 1.20436 1.91361 -0.933117 -0.207263
3260 7.39184 2.85594 0.751468 0.701418 0.247519 0.663828
3636 7.96984 3.58448 0.119142 0.0133911 -0.698804 -0.106742
1648 9.26208 2.9972 1.25191 -1.4586 -0.823079 0.191239
587 9.00959 3.4759 0.260635 0.829756 1.61036 -0.899393
2775 9.76286 3.91911 0.78544 0.275494 -0.965202 -0.0868165
496 10.8745 3.98134 0.263549 1.33926 1.95999 -0.133345
429 10.4132 3.18328 0.884445 -0.0696092 0.565818 0.0252162
3704 11.4905 3.8662 1.23352 -0.679697 2.19849 -0.328793
2564 12.5538 3.03882 1.34926 -1.66116 -0.616388 -2.04634
223 11.9188 3.52842 0.310968 -0.322622 -0.696508 0.647411
2248 13.5431 4.04798 0.554178 -0.136012 0.0667172 -1.12547
1521 13.6767 3.01802 0.218824 0.100405 0.346278 1.33656
935 14.6004 3.47716 0.669215 -0.359021 -1.26699 -0.201305
2800 15.5311 2.98956 1.08967 -0.571933 -1.06393 -0.384542
3020 15.1524 4.03703 1.35523 -0.193314 0.955673 -2.14576
2045 15.542 4.17158 0.329352 -1.31899 0.248344 -0.189487
3777 16.3642 3.62198 0.963417 -1.03247 -0.374357 0.00417267
3664 1.07295 4.60681 1.04592 -0.11033 -1.49241 1.68822
2308 0.39969 4.70015 0.113736 -0.372 0.0416671 0.034316
3875 2.55203 5.44211 0.565719 -0.289428 0.552615 0.168433
491 1.90124 5.54183 1.42081 -1.35722 -0.402436 1.03907
271 2.08813 4.33689 0.602336 -0.552068 -1.1235 -0.90605
2761 1.47605 5.26747 0.326242 -0.643623 -0.578492 -0.311456
779 3.57367 5.20027 1.05029 -1.03449 0.0612749 -0.372122
1452 4.22237 4.9601 0.200096 -0.341443 0.141208 1.50699
2035 3.03621 4.3118 0.31666 1.8482 0.933349 -1.23488
1495 5.68227 5.11087 0.76653 -1.4415 0.21524 0.66531
1779 4.53618 4.75026 1.32734 -0.828859 4.11529 1.04658
2335 6.71762 5.31163 0.853308 -1.15194 -1.95256 0.323438
3957 7.58466 4.76499 0.664756 -0.226833 0.174679 -0.149673
1369 8.48447 5.40732 0.0953668 0.988288 0.547511 -0.563907
1891 8.77502 4.45071 0.793636 0.506034 -0.41217 -0.928035
274 9.02633 5.60559 1.04737 1.82312 -0.167328 0.485071
2468 9.46188 5.05134 0.298606 -0.0940543 0.162478 1.1608
888 10.6773 4.37749 1.30061 0.0541208 0.880321 -1.34635
1019 10.4869 5.24807 0.0493256 -1.60986 0.0290518 -0.856432
3057 10.0236 5.38526 1.29473 1.20461 -0.352421 1.42965
3433 12.5425 4.29787 0.942153 0.213384 1.7972 -1.89119
301 11.4837 4.98027 0.755895 0.749164 0.913958 -1.37248
805 12.7974 5.10656 0.5409 0.291656 1.11977 -1.10527
359 14.2118 4.86569 0.886312 -0.767504 -1.18144 -0.340847
2551 15.431 5.11182 0.685373 -0.792511 0.256853 -0.0665242
2247 16.2918 4.80894 0.150415 -0.530654 0.0994456 -0.438415
3802 16.4044 4.80447 1.24359 0.276328 0.462495 -0.506609
3008 17.0117 5.49673 0.632307 0.717812 -1.30611 1.56569
2951 0.848808 5.82659 1.22742 -0.138461 -0.602575 0.724808
978 0.233997 6.51969 0.450305 0.307441 -0.964041 0.204737
667 1.60313 6.43769 0.545237 0.22755 0.243663 0.378
1841 2.65569 6.34482 1.19253 0.873038 -0.476211 1.13161
3887 2.55514 6.99588 0.218062 -1.91049 -0.894162 -0.419573
657 3.59716 6.78179 0.955733 -0.32469 -1.25101 0.369166
1129 3.46395 6.06179 0.263863 1.09748 0.0921515 1.25709
2125 4.42583 5.75829 0.951028 -1.64704 0.820212 -0.453278
2074 5.32755 6.54237 0.887671 -1.5093 -0.548981 -1.21946
1264 6.70395 6.36868 0.452695 1.19099 -1.37275 -1.29736
1919 8.0677 6.4879 0.327846 0.776724 1.33288 0.202371
2007 7.90828 5.73896 1.0276 1.22247 0.755258 0.427985
498 7.28832 6.88784 1.19692 -0.738117 0.212959 0.991021
3509 9.19986 6.32045 0.330597 0.431064 -2.04974 1.35712
1152 8.70897 6.81974 1.14644 0.928448 -0.123549 1.05401
2385 9.64264 6.37614 1.29548 0.72751 -0.014213 0.365569
2576 10.9172 5.83906 1.07738 -0.19694 -1.4332 0.768829
1476 10.4617 6.29307 0.22409 -0.395983 0.419739 -0.0658685
94 11.7205 6.69429 0.758564 0.020687 0.873117 -0.273157
2853 12.0273 5.79484 1.13655 0.408362 1.70487 -0.488116
1687 12.607 6.7685 1.29447 -0.526201 -0.404011 -0.0628013
1637 14.0577 6.8645 0.271037 -0.0301526 0.486489 -0.29388
3603 13.2118 6.23342 0.570093 0.630386 1.61408 -1.25319
3161 14.1309 5.80057 0.613772 -0.670857 1.64653 -0.973638
432 15.1643 6.21541 0.735137 1.73313 -0.746557 -1.33964
189 14.3378 6.86629 1.33364 -0.247448 -0.0270042 -1.87893
664 16.1129 6.28084 0.504255 0.881742 -1.05404 -1.37519
707 0.827071 7.21471 1.20169 -1.67036 -0.224736 -0.337803
1436 1.35098 8.27035 0.744591 0.0402211 -0.769805 0.260183
954 0.637218 7.57426 0.184675 0.0775282 1.07673 0.226173
594 2.03324 7.30128 1.16628 0.704368 0.012904 -0.514038
2375 1.76898 7.82295 0.0100232 -2.09186 -0.248478 -0.0690942
2353 4.02857 7.77898 1.03144 2.26585 0.332782 -1.68519
479 2.99001 7.6978 1.01091 1.26744 -0.476406 -0.214758
3581 4.9343 7.41895 0.613807 -0.96451 -0.16385 -0.639126
2328 4.9965 8.3996 0.148868 2.15959 1.11013 1.05393
2056 5.25902 8.51745 1.1063 -0.876485 -1.38604 -0.787837
2977 5.95031 8.18798 0.33266 -0.539789 2.06686 0.382085
854 6.44738 7.33577 0.764361 -0.21173 -1.07889 2.27011
1343 6.61526 8.36795 1.14658 0.735426 -1.30034 -0.662524
114 7.26943 7.13433 0.0485697 0.262237 -0.0189179 -1.33322
3267 7.9131 7.67242 0.741904 0.111899 -0.282823 1.11458
2774 7.19773 8.18103 0.307049 0.745171 -1.10671 -1.3904
174 9.9001 7.18445 0.619626 -0.295642 0.494317 0.541908
332 9.69499 8.14616 0.0539915 1.55171 0.339384 -0.173553
2899 9.90075 8.44947 1.14124 0.263066 0.175334 0.364458
2614 8.95545 7.76044 0.563253 0.782085 -0.213959 -0.430193
2476 10.5344 7.59737 1.38222 1.10183 2.31557 -0.0733392
4000 11.406 7.80112 0.469314 0.717951 0.640983 -1.2631
2467 12.5469 7.44532 0.40397 0.452081 -0.508895 -0.483147
2348 12.3163 8.0267 1.3279 0.182277 -0.114254 -0.284344
2215 13.4966 7.49197 0.913939 -0.0396561 0.637244 0.298994
705 14.3377 7.88858 0.0800133 1.02969 0.689796 -0.468125
2577 15.3269 8.44544 0.361419 -0.815172 -1.25466 1.36878
2013 15.0977 7.64193 0.968383 1.82628 -0.723699 -1.01722
401 16.0787 8.11661 1.14285 -2.6314 0.592901 -0.615999
2291 16.7985 7.32737 0.683711 1.27368 -1.16834 -0.00786517
1043 1.24426 0.704389 1.84517 -1.04874 1.45485 -0.520413
1608 0.0628024 0.991565 1.5462 -0.0726308 0.151067 -0.155152
1467 2.63013 1.21548 1.59804 -0.124689 -1.22483 0.291718
60 2.06896 1.02411 2.5134 -1.37072 -1.71885 -2.10182
3514 2.24229 0.0252609 2.66052 0.111156 0.986684 -0.0186352
3846 3.22131 0.964265 2.52902 0.313741 0.581846 -0.709427
1927 3.19707 0.249073 1.77069 0.694433 -1.46547 -0.758121
2217 4.06468 1.04191 1.79836 -1.28666 0.079046 1.22015
3407 5.02463 0.789448 1.4634 0.0106957 -0.281108 -1.32554
1041 5.556 0.772128 2.36178 0.464962 -0.641025 -0.828982
3363 7.06935 0.874807 1.82858 -0.0200101 -1.60821 0.00102402
1635 6.36471 1.33676 2.63678 -0.24993 1.07587 -2.34315
2640 8.02699 1.27122 2.04258 -0.908813 -0.429947 0.581213
2770 8.119 0.315384 2.40063 0.24335 -0.284235 0.171839
335 9.40547 1.21234 2.37078 0.140043 -0.381528 2.47018
1595 8.94092 0.514361 1.7764 -3.18944 -0.805929 -0.0355332
844 10.4849 1.41915 2.72808 -0.844298 0.268428 -0.732937
1922 10.5575 0.44281 1.863 0.231362 1.76142 -0.761502
535 11.5034 0.983226 1.63912 0.777415 1.24931 0.393145
2227 12.3153 0.709185 2.5426 -1.33135 -0.338161 -1.26722
90 12.461 0.774541 1.5754 0.404482 -0.0400202 0.377046
3672 13.4846 0.89762 2.42832 1.55786 0.0490593 0.494127
3615 14.1205 0.371967 1.74752 1.89238 -0.699271 -0.650833
327 13.7591 1.40129 1.59215 0.149863 -0.0710551 0.902065
3855 15.4256 0.372539 1.79101 0.41385 -0.75045 -0.252527
1708 14.7216 1.40377 1.97337 0.265553 0.0814677 1.19922
3247 14.6631 0.70065 2.79309 -0.154168 0.330662 0.143311
893 16.4528 0.117159 2.0239 -0.255018 0.691967 0.25186
2206 17.0585 0.686236 2.72145 0.223216 -1.16083 1.05111
1454 15.9029 0.656617 2.79303 0.278984 0.00272104 0.409477
187 0.832782 1.75975 1.80955 -1.44923 1.12046 0.799208
3795 1.83311 2.21974 1.87903 -0.727991 -2.45655 0.0372654
342 1.54974 1.88171 2.79563 0.126423 -0.0694368 0.382458
1651 2.74208 1.93764 2.60768 -0.2487 0.642444 -0.191113
1856 2.97482 2.364 1.57758 -0.966101 0.19787 0.136452
3333 3.7726 1.84895 2.46405 0.201885 -0.41021 1.20189
1976 4.12835 2.3556 1.64858 -0.275722 -0.289874 -0.228021
1879 5.17469 2.46256 1.49533 0.600687 -0.39464 -0.537554
3336 4.78672 1.61311 2.22986 0.379592 -1.11506 -0.224364
1383 6.07828 1.95502 1.50614 -0.389731 0.719513 -0.0571421
2654 6.19531 2.5468 2.68799 -1.26123 -0.822066 -0.943815
3659 7.32628 1.98831 2.347 -0.347144 1.33191 -1.11033
2808 8.11737 2.29032 1.49206 -0.538688 1.43968 -0.256087
2692 8.70309 2.1122 2.48363 -0.172098 0.66517 0.974158
1605 10.6685 1.64575 1.61512 -1.37416 -0.163149 -0.658518
3837 10.5064 2.8022 1.86069 1.08886 0.547531 0.160374
3392 11.0985 2.4192 2.57932 -2.39468 -1.07085 1.48234
2959 11.7355 2.0093 1.7612 -0.375004 2.41691 -1.06701
851 14.113 2.50872 2.16455 0.769836 -0.800077 1.27219
3204 13.0085 2.12841 1.74342 -0.305799 0.0808163 -1.95381
3924 13.077 2.06065 2.7877 -0.764788 1.03224 0.522515
3438 15.0928 2.45181 2.50893 0.663485 2.01927 0.00247415
4 16.8582 1.83964 2.36821 -0.523206 -0.0173815 1.40458
2176 15.992 2.26482 2.01722 -0.368002 1.90643 -0.171329
1414 1.15623 3.80266 1.73581 1.27696 1.28254 -0.954565
2480 0.146332 4.13695 2.39669 -0.252602 -0.65439 -0.700403
3324 0.414323 2.88586 2.01013 0.72725 0.295787 0.680486
2075 1.38133 2.96015 2.47191 1.78357 0.755219 0.962638
686 2.65004 3.44571 2.27555 0.261324 -0.13678 1.75652
3300 1.45359 4.18679 2.76301 0.200298 0.903567 0.0443309
3175 3.73733 3.33231 1.55996 -0.496146 1.85552 -0.0201128
2784 3.84009 3.3883 2.64807 0.225374 0.913012 -2.04306
463 5.22946 3.08811 2.2105 -0.792157 0.0191552 -1.6668
199 4.61384 3.98358 2.1762 0.710512 -0.569672 0.0471946
2374 6.15987 3.37679 2.11619 0.844495 -0.544161 -0.587735
1524 7.05735 2.98171 2.21019 1.75626 0.503109 0.543473
191 8.24601 3.23362 1.56694 -1.17557 0.42522 1.22025
1958 7.80477 3.94166 2.31468 0.646562 0.934367 -1.0574
2449 8.09345 3.05772 2.64351 -0.932562 2.14076 0.692868
19 9.08516 3.53693 2.23851 -1.25618 -0.314921 0.236795
1557 11.0003 3.66445 2.42682 -0.563665 1.09149 -0.185686
3018 9.98605 3.9529 2.45837 1.13094 -1.1672 -0.841853
547 11.7885 3.05643 2.15305 1.89526 2.80685 -0.505258
3440 12.3111 3.92313 1.81847 -0.796509 2.40466 -0.658722
2999 12.0304 3.67981 2.82793 1.59082 0.15023 -1.21458
3121 13.5904 3.27094 1.75412 0.019861 1.01079 0.913623
434 13.0485 3.15239 2.63243 0.615109 0.119094 1.04434
2412 14.2104 4.09784 1.96157 1.03402 0.484966 0.959358
687 14.7151 3.22872 1.78674 0.994615 0.504701 0.11766
1269 15.4436 3.38305 2.68056 -1.29372 0.0678847 0.554781
2916 14.4003 3.30407 2.78152 -2.75663 0.113264 0.861761
1290 16.205 3.30501 1.96024 0.0511213 0.632254 0.244859
3884 16.8264 3.08802 2.75134 0.393199 0.359267 -0.377229
3082 0.247325 5.09509 1.67196 -0.40797 -0.751199 -0.752983
1325 1.1573 5.24151 2.21523 -0.63903 -3.41365 1.59898
1710 2.80804 5.17562 1.8542 0.0404983 0.967109 1.85681
1375 2.3569 4.76662 2.68485 1.52117 0.793011 -0.709319
2883 1.95225 4.54619 1.75187 -0.773497 0.720548 -1.09066
72 3.70979 4.56227 2.03974 0.108079 -0.433367 0.241408
3919 5.45146 4.36558 1.72824 -0.308563 -0.435809 -0.38203
1419 4.48696 5.36505 2.40288 1.06339 -2.14983 1.06233
552 5.40802 5.54656 2.81399 1.03657 1.01368 -0.780746
8 5.27951 5.52784 1.54997 -1.24707 2.33598 0.797148
989 6.4231 4.29553 1.86813 -1.25377 0.193225 -1.43744
190 6.26913 5.32055 1.83304 0.136731 0.713223 0.494249
1408 8.3606 4.74932 1.79671 -1.40555 -0.40439 -0.0135121
97 7.252 4.89211 1.86434 -1.11695 1.17797 -0.362986
2750 8.50421 5.52458 2.74448 0.130204 0.0192141 0.722363
3551 9.42413 4.43163 1.74806 0.844106 -1.02664 0.00366157
473 9.28356 5.50159 2.12112 -0.997217 0.839093 0.398677
2237 10.645 5.23711 2.14169 -1.55164 -1.84583 -0.270452
3800 11.5922 4.68321 2.08062 0.673957 1.77754 0.678321
2431 12.536 5.65203 2.02398 -1.47797 1.38145 -0.223559
410 13.0719 4.81354 1.66944 0.771697 0.564801 0.936947
745 13.418 4.56214 2.69209 0.0549208 -0.8061 -0.41139
188 14.3101 5.07135 2.44339 0.478553 0.331682 -0.934321
3468 15.15 4.88249 1.81839 0.665455 -0.265095 -0.366461
1170 15.9593 4.40759 2.28709 -0.560186 0.419212 -0.427136
2756 16.6204 5.13419 2.45958 -0.689056 -1.39096 -0.0343533
2567 0.0707566 6.0747 1.8554 -0.770336 -1.02483 0.235695
2817 1.11247 6.19976 2.64109 -0.332175 1.09265 -0.323567
3910 1.63133 6.56951 1.7228 0.292306 -0.186231 -0.427641
1864 2.15469 5.76013 2.55446 -0.203797 -0.559368 0.472036
2032 1.86423 7.10283 2.66903 -0.00436276 -0.415953 0.583464
3090 3.74402 5.96814 1.97336 0.556658 -1.21458 -0.850348
549 2.88857 6.58733 2.34718 0.732667 1.42725 0.63756
1769 4.50491 6.83587 1.62506 1.43907 -1.5447 -0.0117778
3821 5.5772 6.73026 2.02004 0.138115 -0.133579 -0.149548
1950 6.34973 6.25695 1.48608 0.189789 -1.9829 0.884165
1265 6.55248 6.18271 2.64109 0.366909 -0.453295 -0.852424
3660 7.46095 6.91108 2.47549 0.379807 -0.336103 0.174047
2067 7.31132 5.94412 1.81358 1.31724 -0.390812 -1.17081
1438 8.38803 6.23443 1.98786 -0.917951 -0.992001 -0.0221202
1643 9.45672 6.82307 2.81414 1.38268 1.24825 -0.757414
2902 10.2266 6.0578 2.35451 -1.22136 0.865321 -0.912911
3622 11.0125 6.7134 2.63629 -0.0445477 -1.26298 0.721109
1831 11.5145 6.30349 1.8402 -0.503167 -0.969251 0.757687
626 12.0708 6.71861 2.72349 -1.76759 1.78958 0.227857
3369 13.9067 6.8424 2.49899 0.153945 0.308452 1.2001
1077 13.56 5.86736 2.70879 -1.19286 -0.397028 0.0207949
2919 13.6136 5.94011 1.65763 0.906424 0.0747993 -0.0642337
1381 14.8151 5.89798 1.71758 -1.1736 1.95405 -2.6516
3085 14.7664 5.8901 2.80209 0.921866 -0.435942 0.296811
843 15.8322 5.83099 1.50348 -0.311334 1.00856 1.80678
2580 16.0268 6.18006 2.65988 0.354339 1.064 -0.300832
2965 0.704592 8.2666 1.64808 -1.71775 0.945243 -0.53925
1087 1.11244 8.33042 2.71285 -1.12626 0.258942 -0.963842
688 0.905438 7.37444 2.29167 -0.135034 -0.0175535 -0.825159
3723 2.54787 7.77782 1.96276 0.243691 -0.567633 1.42717
1520 1.75557 8.54008 1.88539 -0.485763 0.42784 -0.38736
1182 3.50479 7.31414 2.15283 1.20714 0.528942 1.84352
11 3.83907 8.25155 2.06128 0.887029 -1.52566 0.228241
3651 5.61941 7.83415 2.64107 -0.132973 0.52272 -1.57678
3227 4.50499 7.63057 2.41129 -1.259 -0.182515 1.554
2288 5.40138 7.66192 1.62477 -0.827375 0.21949 -0.515195
213 6.39313 7.25479 1.79773 0.971663 0.848577 0.67119
3580 6.69059 7.88263 2.63089 0.183807 -0.814644 -0.351763
2550 8.14429 8.15646 2.44752 2.14193 -1.08075 1.29081
1747 8.45713 7.94437 1.52111 -0.437699 -0.193286 1.0694
2302 7.31734 7.88555 1.79666 1.1251 0.0244974 1.70238
2529 8.53866 7.18665 2.13829 -0.229025 -1.08021 -1.31247
3443 9.44218 7.49791 1.77795 -0.961566 0.388181 -0.938043
3068 9.17144 8.33294 2.50763 -1.57643 0.164675 -1.34406
562 10.3227 8.51313 2.12951 -1.37778 -1.95098 -0.133565
3316 11.3151 8.17879 2.36659 1.98473 -0.336338 2.3479
2266 10.432 7.60449 2.52598 -0.0999844 1.00708 -0.314005
1249 11.572 7.32585 1.70903 -0.468749 0.0215173 -0.769422
44 12.8881 7.62813 2.15405 -1.07225 0.693466 -0.882187
763 14.1914 7.9221 1.55132 -1.14145 1.11991 0.0640613
754 13.6949 8.22141 2.39105 -1.27551 -0.818329 0.189995
2277 14.9954 7.92831 2.24652 -1.33924 -0.312362 0.0163177
421 16.8893 7.18923 1.76097 1.38223 1.26598 -0.575567
2724 17.02 7.56127 2.75126 2.20666 0.27638 -0.828331
1845 15.7884 7.19791 1.48496 -1.14224 -1.66787 -1.4249
639 16.1392 8.07955 2.27723 -0.474025 1.63604 -0.219534
482 1.27426 0.347894 2.96104 1.44485 0.34701 0.0788548
1965 0.714294 1.2923 3.02091 -0.354087 -0.352077 0.757161
3200 0.584405 0.46371 4.12882 -0.200216 1.48147 0.454692
2593 2.59975 1.01543 3.45963 -1.86144 -1.13336 0.526588
2472 1.6263 0.919615 3.7352 0.0956302 -0.28064 0.838226
75 3.59483 0.576161 3.41296 0.870751 1.1098 0.146673
3679 4.56733 1.22184 3.37127 -0.623518 -0.0702889 1.13365
3457 5.05762 0.42511 3.5498 0.375846 -0.692744 -1.46795
2834 6.15115 0.512142 3.21073 0.278257 0.991786 0.498806
2751 5.84409 1.32426 4.09624 -1.45692 -1.9178 0.36995
3843 5.96908 0.308797 4.1735 -1.12942 -0.637156 1.98487
3445 7.01278 0.222877 4.27398 -1.22078 -0.672827 1.04911
120 7.2233 0.908612 2.90322 -0.628039 0.811974 -0.905771
1523 7.95358 0.442297 3.7054 -0.186675 -0.823698 -0.355724
1413 8.20086 1.3751 4.06133 0.206418 -2.18968 -0.8424
239 7.20586 1.15653 3.8856 0.139874 -0.158916 -0.314756
2410 8.88344 1.16034 3.28917 -0.273366 -1.03133 1.13821
1547 9.07088 0.235504 2.88931 1.33484 1.41676 1.84241
3669 9.22542 0.184358 3.88403 1.17902 0.934982 0.319199
3269 10.8634 1.09747 3.67256 0.282845 1.74428 1.21323
3853 11.2733 0.499487 2.89491 0.80572 0.854863 -0.713922
2228 10.0647 0.381149 3.31959 -0.548889 1.26785 -0.505665
2077 12.5403 1.37523 3.31237 -0.467159 0.587338 1.5592
1140 12.4487 0.0749306 3.46057 -1.13117 -1.05813 0.0578147
3960 11.7755 0.757764 3.76712 0.991337 0.855423 -1.31207
1465 13.5401 0.541912 3.4183 -0.67646 -0.20671 1.07668
477 14.5997 0.65598 3.81013 0.333128 0.844181 0.476465
2898 15.4488 0.0937474 3.55564 0.857896 0.681729 -0.861392
3535 15.4686 1.24845 3.94636 -0.092623 1.66325 -2.96
791 16.4644 0.774518 3.7587 0.173765 -1.84565 1.03544
3688 0.757371 1.90049 3.97451 0.521458 -0.92051 -1.93306
1987 0.544425 2.32086 3.00493 0.0848198 -1.12598 1.629
504 1.77881 2.14859 3.7615 0.394767 0.778641 0.594821
785 3.64254 2.02231 3.46309 -0.236949 -1.45556 0.27916
651 4.18114 2.67822 4.15469 0.240599 0.860613 0.509602
525 5.53102 1.71778 3.09752 -0.438345 -1.8934 0.819519
3119 4.90296 1.82384 4.22641 -0.226441 -1.90913 -0.625004
2195 4.9055 2.46784 3.34603 1.06816 1.37564 -0.605835
2652 5.59818 2.47513 4.05272 1.93534 0.343511 0.519343
316 6.64871 2.02322 3.46492 -0.236435 -0.118146 0.18313
3627 7.84318 1.85021 3.27123 -0.901086 -0.0466108 1.04632
3115 7.54618 2.33733 4.23354 -0.350785 0.276407 0.0242702
618 8.43807 2.70347 3.53649 -1.23969 0.687117 -0.451672
34 9.7556 2.27397 2.90218 0.776357 0.79773 0.301659
2888 9.28869 2.38736 4.17559 1.87978 -1.19878 -0.106374
2946 10.0656 1.78508 3.89527 1.25551 -0.906197 0.631226
136 10.459 2.817 4.07513 -1.11652 -0.787739 1.14869
3630 11.5169 1.58939 2.86013 0.727695 -1.09376 0.0699848
231 11.6456 1.81506 3.87717 -0.200533 0.595766 1.55104
57 12.7187 1.9101 4.24543 1.89667 0.515495 -1.16799
313 12.0237 2.61479 3.14143 0.684155 0.934334 1.48439
860 13.6936 1.51651 3.83551 -0.164294 -1.23402 0.217132
2519 14.3836 1.69226 3.07603 1.83328 0.314945 -1.46551
1883 15.3283 1.56412 2.8742 -1.52238 0.166477 0.643007
1526 14.3347 2.32223 4.01806 0.995755 1.06792 0.41956
3242 15.3611 2.21511 4.14718 0.202888 -0.129886 0.509525
3768 16.3832 1.85195 3.30035 -1.9125 -0.69958 0.79505
3253 16.5157 2.74592 3.75572 -0.488428 -0.967631 0.329025
201 0.165787 3.58923 4.25683 0.0234192 0.111282 -1.58723
2867 1.20141 2.96651 3.72855 -0.695989 -1.66473 1.77026
864 0.61971 3.50186 3.10372 2.55501 -0.76298 -1.57381
1527 2.196 2.97603 3.42507 -0.455687 -1.41397 -0.446588
1003 1.78129 3.88906 3.71881 1.23615 0.45897 -0.136415
3670 3.18786 2.90475 3.25876 0.319299 -0.361623 0.826858
895 3.218 4.02521 3.03754 0.555279 -0.991757 0.14554
2693 4.03052 3.77002 3.85399 1.14728 -0.19363 -0.774661
871 2.99879 3.74023 4.17601 0.195365 0.21352 0.350171
237 5.06668 3.52631 3.61271 0.0721039 -0.933392 -1.18925
2331 5.38627 4.18146 2.94414 -0.880138 1.4678 -0.555051
1980 6.53916 3.7654 3.05793 -2.16208 0.064831 -0.318815
2588 5.94188 4.22721 3.90655 0.120399 -0.844977 -1.4891
1992 6.36273 3.14736 3.81594 -0.142725 -2.54889 0.541925
741 7.22209 2.93376 3.24742 1.79645 -0.616318 -0.258778
273 8.00511 3.5903 3.6313 0.418426 -0.187413 -0.706973
3374 8.7305 4.23897 2.94252 1.16925 0.112024 -1.66752
80 9.22524 3.3428 3.25575 -0.412736 2.28938 0.175772
1847 9.08571 4.17658 4.0216 -1.30701 -1.10847 -0.61331
689 10.711 3.67394 3.43436 -2.42978 -0.813295 0.689524
2193 10.1706 4.26222 4.22647 0.354834 -1.09042 -1.33096
1690 12.7469 3.8072 3.58685 0.0363833 -0.231891 1.48848
1050 11.8758 3.68391 4.17004 0.930743 -0.511734 -0.434846
2434 13.5413 3.04686 3.50938 -1.0203 -0.399859 0.457265
339 14.1875 3.56771 4.19186 0.118797 1.07453 -0.499037
1344 14.1761 4.26774 3.38877 0.159091 -0.377097 -0.834305
1242 15.0334 3.01245 3.58257 0.213325 0.383131 -0.196277
3450 15.2546 4.02364 3.97844 0.509317 0.0801538 0.316967
1612 16.2211 3.95051 3.29058 -0.182337 -1.30355 0.52864
773 0.670438 4.42717 3.79791 -1.10459 2.50725 0.434738
1601 0.480675 5.25572 2.96276 1.41824 -0.281904 -1.0119
1584 0.552954 5.42279 4.05505 -0.678652 -0.124331 2.13039
1689 2.58804 4.64257 3.75629 0.050894 -1.82721 2.27837
1410 1.63044 5.53354 4.18683 -0.887731 -0.633445 0.309279
1332 1.64911 5.07628 3.28603 0.587536 -0.152453 1.23286
2735 3.65121 4.71727 3.98094 2.02975 -0.678512 -0.713605
3801 3.36763 5.49848 3.22018 0.305957 -2.24188 -0.691021
2940 4.2332 4.56302 2.99175 0.477292 -0.276828 0.587583
119 4.85054 4.54791 3.86964 -0.239677 -0.701795 -0.25465
2788 6.26999 5.1615 3.99005 0.866645 -0.299029 0.937119
3007 6.58429 4.9437 2.97875 -0.0894819 -0.357567 -1.38177
1592 7.04626 4.30338 3.86813 -0.212346 2.34835 1.14737
453 7.6263 4.56533 3.19548 2.2376 0.400407 -1.59019
2354 8.36097 5.26287 3.94539 0.295827 0.48955 -0.936525
1828 7.4574 5.54591 4.18612 -0.429777 -0.0266717 3.03837
1090 9.60124 4.88817 3.21002 1.2062 2.23516 -1.37124
321 10.5541 4.94453 3.20557 0.0326217 1.0546 1.3491
501 10.5822 5.42297 4.2499 -0.632961 0.818191 0.419954
1271 11.209 4.48554 4.10175 -0.250104 -0.602538 1.32314
1661 12.2271 4.73492 2.89295 0.185753 0.704971 -2.28977
3505 11.5595 5.52932 4.06011 1.48504 0.279211 0.794827
793 13.0587 4.94967 3.8404 0.315673 1.35777 -1.05123
1015 15.1746 4.31191 2.98586 -0.566011 -1.0775 0.720104
1947 14.8476 5.10975 3.62573 0.339406 0.123277 -1.82299
1200 16.7751 4.81518 3.68539 -0.565334 -0.726987 0.930506
3136 15.7729 5.22568 3.07564 -2.40179 -0.19084 1.07444
545 0.45874 6.45078 4.01663 0.881751 0.920172 -0.390947
1591 1.79108 6.4479 3.48347 -0.477782 -0.972355 0.924902
3710 3.82072 6.78476 3.04939 -0.311744 0.690959 -0.866041
390 2.8505 6.65465 3.40037 -0.321932 -0.00545269 -0.509335
1639 3.52587 6.23964 4.08937 -0.732755 0.554252 -0.522845
891 4.67332 5.84543 3.60517 0.407159 0.457367 -1.23141
2782 4.8712 6.62237 4.18503 -0.0261822 -0.690804 0.714266
531 5.04989 6.83011 3.01166 0.873789 -0.292704 0.861077
2722 6.23604 7.08387 3.15297 -0.301388 -0.113771 -0.704016
346 5.99973 6.08996 3.61341 -0.429551 1.50971 -1.04299
882 5.92044 6.87617 4.26282 -0.308245 1.73797 0.546021
2079 7.35323 6.49509 3.63886 1.48971 1.4753 -0.868989
1509 8.402 6.5703 3.12573 -1.57928 -0.664341 1.82936
3737 7.50631 5.78571 2.98022 -1.42716 -0.498211 -0.501015
969 8.25024 7.0464 4.06401 1.0958 -0.157539 0.103487
3011 9.0526 5.89673 3.6289 0.731313 -0.646865 -1.42905
3474 10.1805 6.34712 3.37361 -0.000491526 0.293228 -0.0164747
765 11.3319 5.79353 2.9347 -0.151402 -1.44386 0.337887
3484 12.5397 5.82799 2.99162 0.90196 1.26861 0.176545
2183 11.4401 6.67052 3.86239 0.602554 -0.25214 -2.29979
1217 12.4313 7.06101 4.02515 0.110108 0.740624 0.0620795
575 13.0981 6.02266 3.9881 0.366907 -1.58957 -0.91021
3318 13.0421 7.05146 3.11938 1.37395 0.421169 -1.94563
3268 14.0911 5.80271 3.81007 0.521763 0.0489266 -0.0352669
2269 15.5468 6.04832 3.72895 2.23182 2.16749 2.55835
1214 16.6647 5.9189 3.95737 -1.94106 0.541943 -0.778486
36 16.9988 6.14855 2.89227 1.7952 0.187144 -1.1925
2789 16.5389 6.81569 3.46909 -0.583297 0.69059 -0.409412
2991 0.17084 8.46888 3.03341 1.23265 1.14524 -0.991415
524 0.899043 7.52858 3.36871 0.522541 0.124145 -1.31525
3470 0.125961 7.94311 4.00152 1.07877 1.12833 -2.14752
3966 2.6811 7.556 2.89357 -0.144747 -1.95797 0.152451
3697 2.73685 7.46387 3.93315 -0.500765 0.423906 -1.56871
3166 2.10747 8.23459 3.3953 1.46428 -1.21449 -0.269945
2359 1.73788 7.63863 4.05755 -2.58569 1.12162 1.00715
3157 3.60286 7.71033 3.46241 0.420926 0.510647 0.556069
1396 4.5155 7.63293 4.20029 0.046498 -0.520969 -0.532868
1142 5.38682 7.72009 3.67168 -1.04041 -0.213839 -0.747478
2561 6.4667 8.29093 3.7347 -1.20635 -0.625191 0.460333
858 7.66499 7.67354 3.18806 -0.504476 0.662573 1.2294
2512 8.49059 8.08397 4.22002 -0.0573161 -1.36166 0.125771
265 9.92946 8.02565 3.39722 1.26213 2.49788 -0.357918
2223 8.93238 7.64743 3.32635 0.596494 0.164538 -1.15693
3206 10.9412 7.46262 3.40434 1.4697 0.823176 0.631113
2924 12.0211 7.66029 3.07002 -0.138106 0.167725 -0.971511
2765 11.9096 8.36605 3.76058 0.0970851 -1.36369 -0.767414
3259 12.8933 8.31481 3.32508 0.372307 -1.7901 0.768763
938 13.7109 7.91908 3.80514 -2.43295 -1.12543 -0.0891437
2903 15.3916 7.28214 2.92381 0.367716 1.01244 -1.03567
2773 15.1678 8.27627 4.10044 -0.612791 0.39857 -0.236793
2540 14.5047 8.04313 3.28633 0.253358 1.54179 -1.2985
1387 14.6937 7.19334 3.84177 -0.162675 -0.580746 0.367293
1770 16.199 7.87178 3.47441 -0.450388 0.206901 0.729084
792 15.7888 7.20016 4.0897 -0.453597 0.606675 0.372401
1662 1.05936 1.07406 4.79426 -0.508607 -0.166665 0.392146
1278 2.12558 1.12858 5.29902 -2.0946 -0.248384 1.15049
2318 2.25265 0.411471 4.29073 1.03562 0.528975 0.00413405
354 2.71162 0.192867 5.65785 -0.642252 0.0623634 -2.08166
1564 4.03262 0.747614 5.02584 1.58896 -0.250307 -0.186048
635 3.43651 1.27004 4.33537 -1.35094 1.17082 -0.263734
2665 4.36792 0.241654 4.28819 -0.149178 -0.360565 0.953366
299 5.0783 0.932195 4.85396 -0.847357 0.697927 1.602
2585 6.3597 1.1043 4.98274 0.21565 1.07206 -1.15032
3812 6.32267 0.247345 5.60999 0.678841 -1.25816 -0.173853
2400 7.42192 0.536784 5.62031 -0.939251 -0.78599 -0.375499
3579 8.06001 0.501348 4.80652 -0.054472 0.141158 -0.670393
1270 8.81479 1.07422 5.63348 0.0901465 -0.131186 -0.326608
1842 9.29918 1.25203 4.77859 0.249838 1.5228 -0.157516
3179 9.70881 0.502479 5.50612 -1.28201 -1.43418 0.237403
3891 10.067 0.788899 4.34013 0.408647 -0.0363363 0.646502
222 11.0377 0.40661 4.39438 -0.913707 -1.95048 0.39863
1535 12.7426 0.696232 4.28905 0.476082 0.00983467 -0.331836
951 14.086 0.164782 4.52859 -1.29755 2.41842 0.424633
2351 13.5903 1.40571 4.86569 0.794593 0.629444 0.743243
881 14.0304 0.43824 5.61814 -0.0173103 0.868132 0.482916
911 12.9483 0.366245 5.185 -1.97391 1.1348 1.25541
735 15.6211 0.809371 4.8277 -1.89126 0.342432 -1.28212
1799 14.528 1.40052 4.62994 1.40368 0.0577689 0.042304
2001 16.1072 0.0537902 5.34921 0.592957 -0.0310149 -0.314001