ITEM: TIMESTEP
47000
ITEM: NUMBER OF ATOMS
4000
ITEM: BOX BOUNDS pp pp pp
0.0000000000000000e+00 1.7099759466766969e+01
0.0000000000000000e+00 1.7099759466766969e+01
0.0000000000000000e+00 1.7099759466766969e+01
ITEM: ATOMS id x y z vx vy vz
597 1.13535 0.736796 0.22966 0.244937 0.504012 -0.663524
3777 0.162924 0.0602164 0.608187 -0.928142 -1.11507 0.865779
2247 2.6782 1.02081 1.27305 -0.256875 -0.51255 1.95759
3410 2.57251 1.05478 0.128291 -0.365846 0.75705 0.803146
3761 1.7234 0.455487 1.25134 0.834722 0.828936 2.4894
2153 3.9136 0.585424 0.515524 -1.89263 0.211657 0.413082
2152 3.35099 0.12888 1.33317 0.6602 0.219016 0.196402
416 5.44372 1.34536 0.281056 -1.52844 -0.724093 -1.48904
613 4.92571 0.241884 0.774115 -1.0942 1.46423 -0.60886
3445 6.52836 1.16944 0.181756 -0.187592 -0.281597 0.0021462
100 6.42994 0.648463 1.07099 -0.534555 0.558859 -0.975608
210 7.09684 0.350104 0.369613 -0.418506 -1.03191 -1.09037
1522 5.94302 0.356561 0.159229 0.625178 0.364007 -1.30499
1113 7.28585 0.261189 1.42304 1.07667 -1.07079 -1.13572
3400 8.53838 1.36676 1.28131 0.135827 1.27872 -0.338344
1959 8.23893 0.48399 0.572604 -1.24365 -2.04034 0.75282
1209 9.20951 0.405975 0.975655 0.84651 1.84931 -0.581941
3108 10.9203 0.364692 0.990024 -1.16685 -0.386884 0.517699
3590 10.1499 0.883468 0.64102 -0.678207 -0.107067 -0.144227
475 12.118 1.02467 1.41213 -0.516552 -0.117835 -1.69914
1437 13.6969 0.27086 1.29266 -1.2733 1.66841 0.158301
660 12.9361 0.794757 0.72264 -0.371939 -0.484371 -0.566605
1086 14.0712 0.298713 0.34399 0.766299 -1.27874 -1.10432
1985 12.8271 0.0670852 0.0922947 -1.66066 0.0083616 -1.81473
3472 14.8434 0.274425 1.39488 -1.26506 -0.922004 -0.935821
2826 15.6362 0.942023 1.04451 0.0521508 0.365316 1.1251
1417 14.8462 1.04733 0.35335 0.750659 -0.510094 0.98474
187 16.8042 0.967616 1.02764 -1.16795 -1.14343 1.64767
2145 15.8625 1.33061 0.0631065 0.411998 0.373031 -0.171163
2002 16.1829 0.429531 0.234635 -0.445285 -0.0208419 -0.260602
3920 0.72369 1.60537 1.04187 -0.644612 1.38812 0.179146
3317 1.14233 2.59762 0.958751 0.158202 0.868163 -0.624669
3142 1.92538 1.51543 0.837025 -0.75542 -0.366858 -0.970939
2951 2.36982 2.40721 0.347753 0.192815 -0.678355 0.674219
1219 2.81676 2.23563 1.27278 0.59323 0.795731 1.26075
717 3.39791 1.55243 0.431502 -1.68518 0.933676 -0.35608
2154 4.0565 2.59429 1.34316 -0.746397 1.16547 2.23529
465 3.36339 2.58647 0.133802 0.522823 1.01416 0.174491
3706 5.22804 2.83793 1.35448 -1.38145 -0.296586 -0.501198
1003 4.59074 1.42697 0.953793 -0.544954 0.575251 1.25799
89 4.87275 2.35004 0.593841 -0.0690161 1.93273 -0.686598
1667 6.51444 2.80369 0.309681 -0.249219 1.46302 1.11519
1408 5.88805 2.03149 0.770535 -1.43125 1.38892 0.519348
3691 7.34185 1.58063 0.903704 0.773669 -0.313468 0.637357
2498 8.19826 2.31355 0.491298 0.328414 -0.0904291 0.198139
1891 9.19964 1.55051 0.300387 0.616636 0.877865 0.509095
231 9.48295 2.51864 0.12744 -2.66116 0.474952 0.399735
3144 9.08562 2.37574 1.09323 0.75219 0.291264 1.36873
260 11.0149 2.74194 1.108 1.11333 -1.11786 -0.158041
3552 10.3712 1.97634 1.23326 -1.89113 -0.332454 0.685475
1595 11.1355 1.8641 0.602424 -0.208972 0.553873 -2.02429
2485 12.7256 1.95873 0.751141 0.0805809 0.324085 0.976548
2667 11.7884 2.00031 1.32256 -0.762208 0.285044 -1.19458
3919 11.8846 2.34909 0.31816 -2.25442 0.321017 -2.1433
2946 13.5715 2.68847 0.328662 -0.335507 0.993476 1.0972
535 13.1009 2.77538 1.26004 -0.222399 -1.16988 -0.420337
1075 13.8664 1.59353 0.838179 -0.98612 -2.1497 0.641767
917 14.4915 2.25292 0.419826 -1.83876 -1.1106 -0.0413522
3878 15.4023 2.34762 0.12215 0.0898622 0.848032 2.46499
1791 16.5934 2.70481 0.768496 0.307371 -1.02225 -0.0495198
281 16.7938 1.79212 0.172422 0.806612 -0.805272 1.57425
3546 16.0901 1.94518 1.26113 0.0988933 0.798454 1.27915
1710 0.860487 3.81192 0.189219 -1.45346 0.536648 0.0123275
3624 0.331904 3.39572 1.07289 -0.0743033 1.26553 1.63252
2991 0.347737 2.97173 0.134539 0.904937 -0.602017 -0.591169
2010 1.41742 2.85721 0.0442375 -0.215524 -0.0702013 0.221306
1170 1.97293 3.60466 0.432967 -0.124891 2.21209 0.353303
1332 2.86736 3.39974 0.809667 -0.220028 -2.23116 0.988287
354 3.8135 3.86109 1.25691 -0.0652412 0.126838 -1.53696
1807 3.556 3.83658 0.0374297 -0.0303611 -1.32807 0.8341
1436 4.36946 3.22111 0.314171 1.81127 0.101338 -0.148585
422 5.43264 3.54834 0.0514411 0.201252 -0.642787 -0.405053
2561 4.90991 3.89678 1.0953 0.951559 0.837587 1.05998
871 5.92132 4.0793 0.969297 -1.32531 0.639831 0.974828
1471 7.02035 3.93855 0.876733 -0.482515 0.816691 -1.70302
2410 7.30221 2.941 0.926826 -1.03625 0.31515 0.0682837
630 9.85925 3.19565 0.894188 1.85122 -0.18302 0.880868
2603 9.80587 4.22451 1.091 -0.0372312 0.858738 0.0241634
2414 8.87928 3.66944 0.74082 -2.21348 -1.43029 -0.70532
3660 10.8956 3.78092 0.960037 0.283392 0.149147 -0.69863
4000 11.3956 3.36791 0.0985544 -0.0385279 0.000293907 0.464028
683 12.1699 3.13933 1.02852 -0.550168 0.577631 -1.38017
424 11.7932 4.0238 0.739047 0.863275 -1.52047 -1.91885
191 14.1588 4.07198 0.826071 -0.986602 -1.11797 0.353922
2596 13.1173 3.69355 0.645237 1.98178 -1.66501 1.34146
3890 14.786 3.32308 0.181088 -0.400209 0.460268 0.673835
1545 15.4306 3.09485 0.918569 1.03701 -0.958979 -1.75129
2238 15.1403 4.02045 1.27169 -0.693635 0.232216 0.419985
954 16.5125 3.68332 0.678941 -0.444404 0.895423 -1.81524
969 0.881877 5.17624 1.2151 2.06039 0.0199961 -1.71916
713 0.727868 4.84893 0.0166128 -0.840675 -1.47684 -0.469429
891 1.52774 4.36798 0.935325 1.12538 -0.250632 -0.930001
1087 2.26396 5.07473 1.15788 1.29493 0.151012 -0.665557
1966 3.28796 5.46757 0.718534 0.19778 -1.06859 -2.29283
2417 2.96267 4.55421 0.519669 -0.34003 0.13406 1.06668
679 4.89704 5.55009 1.10604 -0.514778 -1.57165 0.949748
779 4.35414 4.74134 0.478883 0.301856 -1.78792 -1.6744
148 5.37095 4.63067 0.099316 -0.756109 -0.2065 0.307557
1286 6.43435 4.92063 0.528319 -0.419511 0.841932 0.990948
1715 5.9615 5.64428 1.1994 0.486526 0.911822 -0.920689
482 7.12594 5.617 1.08902 0.193663 -0.457925 -0.712321
3636 7.44717 4.80437 0.437045 0.914159 -0.117524 0.743166
2266 8.51016 4.65765 1.02926 -0.716415 0.210182 1.02826
3748 8.00158 5.69033 0.0124746 -0.386617 0.212458 -0.185357
229 9.31791 5.50069 0.880932 -0.207038 1.22788 -0.702312
3138 8.8694 4.5934 0.00836761 -0.195789 1.09316 -1.55923
3974 10.4169 5.11798 1.23048 -0.112837 2.20706 0.0918048
2146 11.0997 4.81353 0.133772 -0.202975 0.154026 1.08779
1605 12.0732 5.50754 0.0477689 -0.359839 1.42887 -1.57803
677 11.4325 5.01268 1.04203 -0.603035 0.0803739 -1.75813
2099 12.5345 4.50749 0.157769 1.13161 0.804112 -2.1728
711 13.2932 4.63423 0.97525 -1.67114 -1.51823 -0.202589
1304 13.7304 4.80358 0.0921136 1.29813 1.15322 -0.153534
3802 12.9086 5.62759 0.889651 1.42021 2.21137 0.915105
2727 15.0229 4.80134 0.588085 -0.742183 0.326051 -0.171804
3157 14.3653 5.68744 0.200183 0.60127 0.199255 -0.567668
2375 16.9648 4.6486 0.865476 -0.156146 0.603421 1.14297
2875 16.0631 4.87408 1.30505 -0.81453 -0.159186 -0.891666
2169 15.9119 5.65746 0.243398 -0.537482 -0.801882 0.333433
1648 15.9091 4.52704 0.288897 -0.532589 1.28047 -0.348083
433 17.095 5.55487 0.136632 0.180198 0.218551 -1.93437
1883 0.0793514 6.60256 0.36027 -1.48323 -1.30767 -0.553756
1419 1.11264 5.81512 0.373896 -0.0192833 0.869419 -0.293612
52 2.40589 6.65245 1.40567 0.64997 -1.09204 1.71214
3135 1.62426 6.91042 0.744617 0.797964 0.659561 -1.27689
3474 2.61638 6.57134 0.213066 0.473818 1.68562 -0.823125
2346 2.06812 5.91653 0.709573 0.00692816 0.596295 -2.01678
1692 4.06025 6.80863 0.545765 0.688044 1.37856 -1.966
2529 4.1974 5.81094 0.206526 -1.03315 0.364247 -0.455916
3885 5.22188 6.84643 0.246121 0.184334 0.753648 2.78376
3495 5.13238 6.65564 1.24079 -0.0493814 -0.608406 -0.903053
989 5.57998 5.88795 0.230453 -0.778363 -1.82699 -4.5487
1591 6.51592 6.30045 0.692798 -0.763619 -1.52584 2.39045
1864 7.32169 6.99886 1.00302 0.0955972 -0.0169109 0.17162
2261 8.42373 5.89281 1.26232 -0.713321 -0.0538991 -1.45221
214 9.15331 6.55475 0.275858 0.319464 -1.07804 -0.514848
99 9.46062 6.70197 1.31627 1.04178 -0.858481 -0.520493
445 10.1082 6.10424 0.750915 0.324355 1.07347 0.333994
3356 10.6941 7.08195 0.968886 0.623105 0.252056 -0.379147
3401 11.9447 6.07791 1.11482 -0.678427 -1.0649 1.20529
483 12.4999 6.43236 0.197612 1.5186 -0.170622 0.252469
2388 14.0121 5.79645 1.28243 -0.563279 0.420658 -0.360777
1185 13.4371 6.61797 0.649809 0.904526 0.170889 -1.90384
82 15.2359 6.3006 0.0484677 -0.427014 1.08715 -1.42304
401 15.3209 5.99356 1.08667 1.47344 1.32484 -0.768244
2903 14.4679 6.81995 0.970028 0.398848 2.07961 -0.579232
415 16.7013 5.79147 1.0407 0.660801 1.01738 -0.273998
1868 16.2109 6.61999 0.829294 -1.19283 0.611872 1.15703
2187 0.552737 8.41765 0.880278 -0.0529703 -0.768464 0.0524704
3881 0.529852 7.47581 0.611038 -0.24406 0.107843 -0.315877
2175 2.23168 7.54914 0.234876 -0.56616 0.835919 0.237528
3823 1.60028 7.91515 1.15677 -1.36796 2.69136 -0.174234
2831 1.45952 8.3223 0.0554585 0.368341 -0.199568 -0.515051
3648 2.8645 8.35817 0.598603 0.273316 1.07198 -0.656535
2173 3.21259 7.51455 1.22178 0.51743 -0.965143 0.991711
3696 3.78317 8.54443 1.11145 -2.03339 -1.61569 1.39535
3788 3.36099 7.4767 0.149246 1.05007 -0.419369 -0.35143
1880 3.86337 8.46514 0.00595983 1.74268 0.184536 1.20941
1833 4.79598 8.46657 0.932515 0.510552 -1.96382 -0.448563
1769 5.69894 7.83429 0.398077 1.44539 -0.463496 0.266371
190 4.40458 7.49564 1.30959 0.220237 1.16245 0.904355
1685 4.45832 7.6296 0.115342 -0.152446 0.840411 0.717004
3260 5.77681 8.47668 1.38308 -1.56514 -0.332936 0.154081
2245 6.75375 7.86946 0.330006 0.702711 1.17037 0.326039
344 6.84188 8.49645 1.19253 1.52046 0.19582 1.40476
1442 6.26362 7.33553 1.27883 0.516847 -1.51809 0.139718
2302 8.45741 7.38226 0.289172 0.982909 -0.581924 -1.98263
2109 8.40703 7.22458 1.24521 0.0274687 0.80024 1.06015
2488 7.68495 8.225 0.408648 0.248603 -1.92808 0.407016
1239 8.34418 8.39636 1.41093 -1.23636 0.968529 -1.54517
658 9.44761 7.69146 0.92681 1.40151 -1.09818 1.2994
1488 8.98099 8.23912 0.0147096 0.125221 -0.735557 -0.2419
353 10.1929 7.36152 0.0181633 0.326212 0.987183 -0.0638492
1376 10.7578 8.10091 0.615564 1.34923 -0.379212 0.335225
3221 12.6826 7.1639 0.967862 0.911308 -0.541374 0.377807
1034 11.5891 7.27768 0.288808 0.325067 0.490396 0.309106
1368 12.1346 8.22685 0.931353 1.74048 1.02522 -0.314063
3954 13.6851 7.37625 1.36284 -0.15949 -0.968013 -0.827526
1884 13.0221 8.43756 1.33381 -0.47154 0.23797 -3.06597
998 13.341 7.83596 0.496302 1.87841 -0.876254 0.785724
705 14.3834 8.15348 0.45734 0.80321 -0.0126791 -1.58243
3664 15.4559 7.34347 0.434836 -0.321004 -1.22477 -0.730398
795 16.6402 7.72534 0.997947 0.803381 -0.719032 -0.545161
144 15.991 8.37445 0.098272 2.04703 -2.23256 -1.53957
238 15.6974 8.36794 1.24167 0.073761 -0.322499 1.9495
2702 0.71191 1.10912 2.2406 0.414041 0.81578 0.269865
2001 0.727348 0.461497 1.43296 0.916968 0.527901 -1.30916
2115 1.85931 0.851901 2.41899 -0.189529 0.631831 0.763826
3145 3.72571 1.22616 1.4611 -0.280251 -0.164592 -0.728871
3820 3.00225 0.62541 2.2168 2.25071 -1.17318 -0.784388
1760 5.02556 1.1582 2.00591 1.20114 -1.32129 0.258234
2136 4.59485 0.00763506 2.05651 1.07364 0.806595 -1.34559
242 6.13214 0.976953 2.22727 0.519755 -0.134987 1.04446
47 5.74288 0.0511269 2.39376 0.476992 1.56071 -0.881449
3767 7.50299 1.27749 2.01564 0.478301 -0.670378 0.387005
316 7.39131 0.621969 2.81653 -0.136701 0.343877 -0.333238
2357 8.58988 1.01953 2.23883 -2.40617 -0.652419 -1.68102
320 9.45472 1.05005 2.7479 -1.26095 -3.13458 0.490137
1263 9.96824 0.552464 1.80198 0.177533 -2.46867 0.154061
2376 11.2366 1.35165 1.92967 -0.307845 0.906205 0.871886
234 12.7378 0.16125 1.78856 -1.38924 -0.785399 -0.767359
1363 12.1226 0.800657 2.48388 -0.460224 0.133063 0.284631
3003 11.4744 0.224115 1.86189 -1.17053 0.405973 0.139798
3853 13.6529 0.278773 2.56912 -0.59819 -1.52881 0.296375
718 13.6801 1.41116 1.9271 -0.208574 0.198193 0.6081
3159 13.1094 1.11822 2.72409 0.572721 -1.09022 -0.296933
434 15.3261 0.465472 2.74784 -0.0928263 1.53236 0.875334
262 16.2003 0.586993 1.8145 0.221414 0.162355 0.42372
319 0.12884 2.33091 1.49477 0.984926 -0.637678 -0.200425
3222 0.842911 2.57097 2.19312 -0.521987 0.0223916 -0.260934
904 1.46489 1.83257 1.89131 0.345611 -0.980347 -0.45978
1731 2.32285 2.59536 2.24883 -1.54101 0.401852 -0.571078
2689 2.89619 1.70156 2.14585 -0.169779 -0.319486 0.281646
3368 4.15401 1.81137 2.31058 -0.478023 -1.97681 -0.0149158
1815 3.57175 2.59451 2.60646 -2.29135 0.828378 0.572645
2074 5.52616 2.21257 2.22588 -1.54188 0.951526 0.355188
1805 6.62238 1.87754 1.65661 1.12395 0.178096 -1.0137
1765 6.55783 1.93322 2.77434 -0.0486441 -1.60386 0.909655
992 6.26258 2.84195 1.53216 0.560531 -1.46894 0.316349
1712 7.3746 2.29948 2.186 0.0823262 -0.495613 0.582184
588 8.60535 2.10485 1.98059 -2.73543 1.07181 1.02867
1842 9.47259 1.59012 1.68816 -1.74721 -1.64054 -1.32443
2067 9.90376 2.64907 1.85643 -0.236026 -1.48783 1.56754
2994 9.24833 2.46094 2.84652 -1.26499 -1.02359 1.64028
1989 10.2412 1.70189 2.37067 -1.75063 -0.533505 0.780408
3786 11.0201 2.33544 2.08083 0.880263 0.856283 0.319352
675 11.9414 1.72387 2.80318 0.567531 1.43196 -0.534569
429 12.2401 2.54448 2.06453 0.0609887 1.92765 -0.467169
2959 13.0703 2.14663 2.49411 -0.161614 0.651072 -1.22405
442 15.2439 2.7089 1.96982 -0.283078 -0.637062 1.84691
3059 14.893 1.65766 1.47474 0.101812 0.302323 -0.215654
1462 14.2557 2.22917 1.90441 0.257496 0.989662 1.42987
2451 15.622 1.47737 2.16384 -0.389111 -0.0661594 0.532298
2734 16.7827 1.522 2.05506 0.54415 -2.06524 1.33362
3470 0.599134 4.18666 1.75432 0.537797 3.03181 -0.277898
270 1.41795 3.61202 2.76349 -0.478573 0.0571918 -0.881707
76 0.114512 3.4103 2.55611 0.837234 -1.76726 -0.594582
2722 1.9177 4.21769 1.94221 -1.94474 -0.558622 0.537715
3868 1.85607 3.16276 1.48777 0.309082 -0.728293 0.726343
602 2.83101 3.71766 2.48236 0.825962 1.82862 -0.780518
2333 3.18752 3.07611 1.78988 -1.92069 -0.902919 -0.316914
3841 3.83974 3.74345 2.26959 -0.794338 0.219081 -0.50428
686 5.46237 3.64403 2.07518 -0.543609 1.5788 0.545156
688 4.57587 2.85686 2.24557 -1.27936 -0.487273 0.106312
271 6.45764 2.8828 2.5399 0.381163 0.112213 -1.93866
2162 6.41394 3.83545 1.83328 -0.084404 1.23638 -0.678639
1404 8.05122 2.86216 1.51132 -0.0508857 -0.706854 0.739003
3736 8.15441 3.92297 1.73053 -0.0211684 0.540489 -0.120102
136 8.14258 4.11816 2.83742 -2.20451 -1.00782 0.748002
3090 8.37813 3.05733 2.48813 0.598269 -0.258587 -0.10765
2081 7.35853 3.38063 2.36055 -1.22196 -0.594758 -0.332679
1861 9.08229 3.4059 1.77713 -0.295949 0.653149 -0.704917
3570 9.68414 3.58658 2.6775 -0.563336 0.425453 0.68006
3835 10.4379 3.49768 1.92638 -0.127475 0.0179623 0.181665
1690 12.528 4.11893 1.6945 -0.170113 0.0456847 -0.499841
2142 11.5781 3.21048 1.90203 0.288243 0.582769 -0.123912
3911 12.1826 3.81706 2.56134 0.67296 -1.2585 0.0564729
1981 14.18 3.2799 1.67903 1.69474 -0.487126 -0.318431
2656 13.7038 4.15873 2.71647 -0.440127 -0.392081 -0.40454
3392 13.822 2.92146 2.76106 -0.411063 -0.887332 -0.023885
2077 12.9882 3.18587 2.15667 -0.399798 -0.294691 0.835295
1688 14.743 3.55038 2.57922 0.656044 -0.275741 1.428
2877 16.5774 4.06517 1.94119 -0.74764 -2.43205 -0.079084
3462 16.3302 3.026 1.80388 0.414488 2.36389 1.08735
1682 15.8623 3.37546 2.73249 0.830951 0.0495094 -1.37229
536 0.487035 5.62359 2.79606 -0.777722 1.48834 -2.28841
158 1.4803 5.09088 2.08251 4.11956 -0.102344 1.57008
347 2.72734 5.22331 2.65762 -0.252802 0.697164 -1.2461
72 3.21261 4.80081 1.75534 0.482395 -2.47933 -0.137486
1428 3.74393 5.46547 2.36606 1.04222 -0.358184 0.525276
2127 4.39091 4.80307 1.5705 0.451608 0.399927 -0.954628
562 4.71118 4.5138 2.4973 -0.0166657 -0.360004 -1.31455
1643 4.86125 5.46535 2.22497 -0.835054 -0.36517 -0.39844
2035 5.47197 4.74253 1.60844 0.0121279 -0.161662 0.627184
2056 6.59153 4.81927 1.52035 0.458755 -0.46044 1.3053
2867 5.95787 4.75527 2.52664 1.5902 0.829431 -1.889
3423 6.47664 5.60141 2.46074 0.433572 -0.37402 2.38403
2079 7.22277 4.55354 2.58721 -1.25206 -1.82665 -0.170664
2525 7.65456 4.81807 1.58334 0.243885 1.62749 -1.10718
3047 7.49365 5.65205 2.50279 -0.357084 -0.94725 0.48105
3316 9.66679 4.55334 2.05171 0.283717 0.471188 -0.0399763
481 8.73239 4.92594 2.09025 -0.289633 1.29337 -1.98616
920 10.507 4.94888 2.32549 -0.605769 0.798012 0.487956
2402 11.2035 4.34143 1.8232 0.786163 0.250702 1.39986
2625 11.3419 5.65944 2.13396 1.00699 1.08626 0.921825
440 12.2107 5.08133 1.79572 0.337894 -1.52946 -0.375645
1548 11.5629 4.73831 2.64901 1.37456 -0.526582 -0.987304
2543 13.2414 5.20087 1.99832 -0.430997 -2.05251 -0.509723
355 13.948 5.17637 2.82051 -0.444291 -0.033645 -0.3447
398 13.9925 4.48641 1.81526 -0.901497 -0.142 1.04234
2386 14.9271 5.21488 1.73206 0.176804 1.62446 1.39741
166 14.7018 4.54696 2.70495 -1.28388 -0.667112 -1.13306
2646 16.0707 4.9606 2.6044 0.460592 -1.4153 -1.15295
1400 17.008 4.95976 2.08609 -0.321312 -0.0226959 -1.71038
1597 0.183865 5.92363 1.83639 2.05097 -0.0783064 -1.69092
91 1.30438 6.1024 1.44375 0.298389 -0.390739 -0.497298
832 0.821138 7.11467 1.4906 1.41419 -0.724654 -0.629874
842 0.84469 6.4686 2.3227 0.777942 0.738092 -0.373881
3581 1.82044 6.08795 2.49749 0.468833 -0.416807 1.09991
1487 4.23494 6.24407 1.8639 -0.103122 -1.461 -1.31249
456 3.1138 5.93362 1.71729 1.81274 0.443919 -0.0204594
2442 3.19206 7.12014 2.21359 -0.887098 0.717905 0.273247
1818 5.68904 6.38379 2.32768 -1.8845 1.50885 -0.790848
498 6.49182 6.32596 1.73063 -0.370982 -0.317408 1.03309
1365 7.53846 6.57715 1.85356 -0.738343 -0.81497 -0.815935
1656 8.50033 6.52681 2.28305 0.422045 -0.866458 -3.00061
1784 9.52246 6.52871 2.56891 -0.170193 0.944949 3.59056
3837 10.0991 5.92721 1.82423 -0.0920436 0.00842395 -0.868787
385 11.024 6.33331 1.43151 1.07134 -0.854838 -1.20999
2580 10.7405 5.98987 2.82034 -1.16247 -1.22255 -0.464523
811 12.1231 6.24105 2.30698 0.106357 1.76217 -0.685942
3523 13.167 6.50584 1.83199 -0.717059 -0.0432699 1.05977
2958 14.0719 6.03584 2.26472 0.119731 0.605505 0.183335
604 14.2454 7.03979 2.16776 -0.333536 -0.978744 1.14844
2449 12.9099 5.93372 2.71566 0.0469839 -0.519 -0.632173
2129 15.3409 6.96994 1.53444 -0.523426 -1.07548 -0.0366867
425 15.0967 6.20993 2.15106 0.54287 -0.269796 0.0827756
2013 16.1482 5.8897 1.87701 -0.641146 -0.00551336 0.678904
3498 16.1476 6.88971 2.14012 0.453326 -1.15992 -1.90802
2894 16.9552 6.92641 1.49733 2.12694 1.50395 0.595851
3005 0.828141 7.41139 2.69573 -0.274055 0.913992 -0.41943
2691 0.175172 7.8678 1.83862 0.581173 0.844155 -0.419832
119 2.14662 7.30081 2.35393 1.22605 -0.372949 0.742329
2208 2.79374 8.48582 1.61514 0.46086 -1.18641 0.0335154
2922 2.75835 8.40532 2.65417 -1.61965 -0.696602 0.0669145
2403 3.76216 8.02735 2.06878 -0.0964095 -0.39557 -0.276961
331 4.58594 7.19698 2.56007 0.179485 -0.0691926 0.480141
984 4.72773 8.41724 2.10104 1.51648 1.51105 0.502095
3125 5.34458 7.62898 1.67217 0.748527 0.371654 0.468164
1274 6.28233 7.23372 2.2503 1.40631 0.783943 2.00553
3622 6.72814 8.34637 2.14415 -1.36543 -0.214128 -1.617
1590 7.87149 7.70125 1.90277 0.396536 -0.533913 -1.01604
2381 8.54118 8.47685 2.53393 0.835556 -0.0614475 0.318404
3580 9.49499 7.62581 2.05189 -1.57197 1.02513 -0.653111
1744 10.5357 7.28092 2.13802 -0.984832 -0.902765 0.440869
1583 10.4756 8.24784 1.64609 0.894309 0.748027 0.762582
291 12.6378 7.34298 2.16634 -0.303246 0.875722 -0.099999
3238 11.5033 7.34684 1.55951 1.11104 -0.335312 -1.36347
3673 11.7913 7.96512 2.38191 0.642246 -0.745702 0.557252
1172 12.7603 8.42995 2.41478 0.51276 0.918631 -0.156754
967 13.7247 7.99487 2.41634 0.666704 -2.42784 2.09846
1081 14.4535 7.96703 1.62166 -1.08565 -0.52482 -0.463228
12 14.7989 8.35057 2.58536 1.02548 -0.32916 -1.0536
132 15.7421 7.94102 2.17368 0.405308 -1.1511 -1.6333
980 16.7006 7.5862 2.77656 -0.802679 -0.816448 -0.973904
1325 0.858494 1.087 3.68666 -0.907424 -1.19806 -0.378775
3891 0.0847322 0.54426 2.94167 1.05757 -0.141508 -0.166804
2898 1.89517 0.141774 3.50522 0.165437 0.151186 -0.136692
2165 2.30396 0.954525 4.15376 -2.06879 1.48325 0.786973
2762 2.79391 1.13977 3.18612 0.197354 0.843878 1.02155
2362 3.33724 0.853378 4.15947 0.733106 1.27875 1.13302
1005 4.14784 0.398582 3.13768 -0.734252 0.347313 -0.930696
1375 3.18241 0.0218261 3.42812 0.718544 -0.128564 -2.26826
3910 5.14834 0.655959 2.99254 3.16461 1.61674 -0.839541
282 5.5175 0.923127 3.95735 0.411147 -3.25939 -0.798637
1089 4.44386 0.999378 3.8884 0.434693 -0.640455 1.87037
1608 6.62111 0.57608 3.44719 -0.0876125 0.38637 0.102948
1201 8.03327 1.38489 4.18708 -0.431105 0.215889 1.21148
1195 8.34319 0.72667 3.18771 1.78272 -0.734378 -1.14975
682 9.26559 0.33116 3.76557 0.924924 0.330084 -0.802266
726 9.89245 1.31604 4.25328 -0.652029 1.9081 0.541262
2092 11.0718 0.919011 3.04424 0.324055 -3.07588 1.52035
847 10.3164 0.636166 3.6808 0.0402578 0.619938 -3.28612
1912 11.2644 0.12734 4.16493 1.73663 1.18454 -0.752036
357 11.9082 0.870305 3.66231 -0.927267 -0.978887 0.286646
957 12.711 0.222532 3.75726 0.953931 1.29133 -0.913967
2817 12.8581 1.40651 3.7002 0.050582 0.0635068 0.0848179
963 14.0774 0.335097 3.63606 -0.52077 -0.886694 1.19808
1269 14.4904 1.06061 2.8808 0.603544 -1.0782 -0.321998
2758 15.3484 1.41859 3.31572 -1.03485 0.948323 1.29056
363 15.3735 0.457399 3.98045 0.928177 0.885959 0.883537
2235 14.6398 1.27725 4.08875 0.470511 -0.797808 0.219562
3976 16.1501 0.782457 3.06586 -2.40468 -0.0402925 1.31725
2945 0.364701 1.84855 2.98571 -0.871341 1.39024 -0.629928
2567 1.11803 2.52935 3.22521 2.40306 -0.36347 -0.848316
3765 0.781639 1.98323 4.25409 -0.487491 1.27897 0.0236827
532 2.68522 2.0469 3.62558 -2.58748 1.26603 0.370724
648 1.74916 2.30495 4.26279 0.866581 1.01776 -0.898394
2132 1.84716 1.61154 2.97834 -0.660274 -1.26024 0.632438
943 3.91016 2.02076 3.41776 0.931993 -1.23098 -1.06363
35 5.27405 2.7873 3.2013 0.14793 1.18526 1.07011
735 4.90353 1.64604 2.93233 -1.07353 -0.517756 -0.372127
299 4.6258 2.63955 4.06401 -0.836979 -1.60751 1.58072
3363 5.69631 2.03155 4.23761 0.186896 1.04122 -0.486462
2751 6.43134 2.73572 3.67836 -0.77439 -1.55919 -0.183779
3088 6.66739 1.64541 3.80187 -0.330455 -0.461031 -0.620015
222 7.549 1.62921 3.03847 0.704003 0.610274 0.470978
1152 7.33085 2.76328 3.23249 0.0359943 -0.63671 -2.89991
2987 8.68734 1.9634 3.57139 1.33733 0.259731 -0.194527
496 9.56155 2.45887 3.92499 -2.26045 -0.0109226 0.841537
2853 10.3158 2.65038 3.06063 -0.306697 -1.54006 0.0990369
1676 10.661 1.82921 3.63001 -0.590692 -1.35933 -0.371152
1120 11.7461 1.93366 4.04504 -1.74257 0.47677 -0.017185
230 11.6485 2.71259 3.21962 -0.312592 -0.156408 0.767539
41 12.8365 2.44989 3.76751 -0.782938 1.90859 -0.513287
593 13.9449 1.75951 3.37688 -0.189347 0.920807 1.03204
3018 14.7221 2.44671 3.01517 0.243891 0.319005 0.528002
477 15.4838 2.4325 4.26882 -0.1509 1.55213 1.03053
2601 14.5258 2.41416 4.0251 -0.393123 -1.11942 -2.75791
1677 15.9555 1.59858 4.02649 -1.75132 -0.182396 1.42639
480 16.2177 2.09155 2.93289 0.0436422 0.525763 1.31949
3008 16.9708 1.53759 3.8403 0.337475 1.17696 0.432132
762 16.638 2.47185 4.19699 1.07352 0.39883 -0.506269
1813 16.9459 2.72259 3.19582 -1.19724 -0.635899 -0.650942
557 0.280859 4.16496 4.02314 -0.359349 -1.07801 1.35143
1976 0.898584 3.31436 3.67996 -0.922962 0.0607477 -1.53607
2293 2.05841 3.56179 3.59102 -0.47119 -0.597281 0.207037
3200 3.1409 3.11127 3.41803 0.551992 0.97977 2.27934
1841 3.87257 3.57336 4.23204 -0.30386 0.712081 0.237591
237 5.35657 3.84763 3.14153 -0.190299 0.90726 -0.303468
2588 4.32167 3.29806 3.14599 -0.569478 -0.0491116 0.186329
2532 5.62756 3.04688 4.18892 -1.10824 1.89716 1.23387
2779 4.95935 3.75778 4.11887 2.47607 -1.46761 1.83377
2788 6.65024 3.81049 3.01636 -0.275951 0.537328 -0.735285
668 6.65739 3.6909 4.06381 0.524764 -0.983959 -0.297408
1136 7.65827 3.78973 3.64858 0.194017 1.05753 -0.442873
2774 8.76279 3.2055 3.67341 -1.11184 -1.32311 0.942188
3924 10.7842 2.89379 4.04554 -0.99846 1.43031 1.38593
2846 10.9504 3.6351 2.88739 -1.64629 -0.645643 0.510378
106 10.7313 3.92027 4.19906 -0.212174 -0.431379 -0.139493
1344 12.0362 3.20559 4.08026 -1.50689 0.933978 0.547784
3343 13.0111 3.39009 3.17515 1.11703 0.862507 1.16288
523 13.7555 3.35899 4.0934 1.41921 0.00987598 -1.10037
492 14.7796 3.33065 3.57133 1.01294 1.32434 -0.259901
1644 16.6545 4.01636 3.18132 -1.30627 -0.122149 0.265387
3390 15.7945 3.47365 3.93513 -1.4106 -1.8473 -0.0537998
339 0.563829 4.33101 3.06269 1.88702 -0.698135 -1.70507
1054 1.25036 4.34495 3.83961 -0.778197 1.86071 -1.07474
3533 1.41651 5.19936 3.26931 -0.00119846 -1.65024 1.40741
949 1.3945 5.54427 4.1974 0.548634 1.8237 0.214603
1435 0.477762 5.12283 3.73211 0.26947 -0.314353 0.602889
1341 1.99685 4.43092 2.91238 0.426057 0.330501 0.78484
531 2.24972 4.86076 4.1711 0.075274 -0.358517 -0.576929
460 3.99842 4.3054 3.24447 -0.175181 0.542831 0.526114
2319 3.06284 4.29395 3.8021 1.89166 -0.901526 0.267907
1333 3.51992 5.26475 3.53318 -0.415489 0.265492 0.528609
594 4.33865 5.64594 4.22567 0.826821 -0.881465 -0.282167
1265 4.98085 4.93737 3.61675 1.79873 -0.155581 -0.999638
2695 5.65924 5.65178 3.15754 -0.171453 -0.842035 -0.355995
495 5.89113 4.35475 3.9973 -0.927059 0.79539 -1.23604
14 6.70761 4.99622 3.37821 -0.044248 -0.675576 -0.809184
2902 7.80236 4.94464 3.37871 -1.8137 0.567539 -2.05506
1541 9.87745 5.48434 2.9746 -0.274242 -0.760741 2.20669
2640 8.94498 4.85911 3.34857 0.404352 1.08003 1.12294
2938 9.18075 4.49902 4.23856 0.666334 -0.379721 -0.747067
2606 10.1255 4.42795 3.44421 -1.09546 -1.86271 0.438028
657 10.8693 5.11403 3.40357 -1.02649 -0.126261 0.473619
157 12.1284 4.30261 3.45144 0.852812 0.475898 -0.304934
792 11.7821 5.15865 4.08362 0.0382455 2.79502 0.276009
1963 12.9945 5.05371 3.40367 -0.656758 -2.47276 0.480406
3529 13.7189 4.34043 3.74614 -0.123851 -1.48506 -0.84249
2748 15.6115 4.34288 3.30019 1.2325 0.170628 0.308803
178 15.2762 5.43725 2.97757 -0.324284 -0.502094 -0.114142
1909 14.3986 5.20326 3.86058 -1.28611 0.766721 -2.1594
1482 16.304 4.39041 4.15947 0.989403 -1.28306 -0.853407
771 16.6456 5.47865 3.23816 -0.318047 0.571094 -0.2692
3254 0.897682 6.18465 3.6469 -2.02794 1.4076 0.323497
3973 2.82322 6.34449 2.87165 -0.148382 -0.0244961 0.949135
2723 1.55998 6.85214 3.2521 1.91164 0.601726 -0.593842
3464 2.29826 5.70456 3.4934 -0.813572 1.26907 -0.771558
2309 3.83211 6.53678 2.9624 1.29354 1.75113 1.19394
254 2.92698 6.64596 3.83372 -1.99217 -0.443738 1.01511
3826 4.54735 5.91155 3.18975 0.0659584 -0.104498 -0.344429
3267 4.46637 6.94493 3.68873 0.878845 0.210788 -0.903856
1928 5.39312 5.77777 4.17384 0.198674 -0.389363 0.0360789
118 6.61209 6.24475 3.34927 1.58894 2.44587 -0.432816
3737 5.87898 6.91906 3.17339 -0.113962 -0.0886932 2.58547
3012 6.6808 6.90956 4.16776 0.152225 0.690516 -0.159577
127 8.53058 5.83308 3.16509 0.549743 0.0904962 -1.16663
2614 7.63948 6.5367 2.9569 -0.73356 -0.634092 -1.4712
1321 7.58318 5.82783 3.8744 1.34974 0.931112 0.367492
2784 9.22627 5.80752 4.1569 1.73955 -0.359528 -0.114253
3493 8.67518 6.74848 3.50166 -0.434481 -0.963266 -1.30073
656 10.0606 6.37842 3.8093 1.40622 2.21264 -0.617838
575 11.1685 6.59536 3.52172 0.668521 0.0171647 0.145141
751 11.7102 5.74305 3.08935 -0.124258 0.520056 0.481912
2250 12.5865 6.26931 3.89288 1.0447 0.916917 -1.21954
3359 13.2355 6.94789 2.97154 0.0735863 -0.58123 0.235941
3749 14.5754 6.31411 3.22895 -1.43968 0.840241 0.201413
2682 15.5774 6.22289 4.14651 0.412617 1.23206 -0.0975454
3922 16.9974 6.07609 4.04804 -0.663004 -1.49576 -1.05147
1331 17.0541 6.59276 3.1807 0.497176 -2.73611 1.23428
1703 16.079 6.70563 3.17037 0.478462 -0.776187 -0.519197
479 0.943886 8.42987 2.95043 0.326138 -0.793588 1.09514
3914 0.829329 8.43982 4.15879 -1.58178 -1.50686 -0.440101
3887 0.942719 7.23767 4.14598 0.0727939 -1.20895 -0.0355496
2537 2.59853 7.32793 3.24971 -1.49808 -1.74019 0.0430729
167 1.90277 7.63849 4.08082 -1.66935 0.0961439 0.212509
2198 1.74616 7.85218 3.10736 1.31744 -1.26177 -0.80944
3969 3.69002 7.65089 3.13082 -0.716089 -0.37549 -0.360809
2413 3.06947 7.86315 4.08066 1.11072 -0.561371 -0.911567
2633 5.09469 8.03028 2.9792 0.136086 1.26215 1.16189
3766 4.59161 8.0154 3.94616 -0.481235 1.01062 -2.27847
1142 5.6043 7.1598 4.09442 -0.353144 1.72608 -2.58199
1756 6.11951 7.9465 3.08511 1.19343 1.13889 0.939547
589 6.70833 8.00836 3.96654 0.159715 1.15517 0.358549
1216 7.27123 7.9572 3.03866 -0.211616 -0.936961 0.387664
2316 7.75837 7.23006 3.67059 1.79642 -0.194904 -0.106686
2212 8.0915 8.37266 3.88857 0.638743 -1.49935 0.477386
545 8.83511 7.55217 2.91882 -1.93543 -0.333137 -0.0817576
985 9.64207 8.44491 2.94171 0.723216 1.01841 1.48871
362 9.9337 7.22904 3.24063 0.884906 0.181368 0.667202
2924 9.08119 8.09638 3.83079 0.663 1.61786 0.389924
1983 11.0615 7.42526 2.96073 -1.24747 1.53905 0.325611
3796 10.7286 7.55896 3.96306 0.656348 -1.2488 -1.13916
1683 12.1986 7.21435 3.36658 1.07702 -1.54995 -0.303952
73 11.7294 8.08883 3.35613 -0.651615 -2.12386 0.83312
512 13.7918 8.34525 4.171 -1.70156 -1.96765 -0.883133
3672 14.1522 7.53117 3.59196 0.129471 -0.36855 2.72686
179 13.0025 7.81457 3.75311 -0.286941 -0.223201 0.501974
1819 15.1151 7.2156 2.87747 0.504497 0.796944 1.24194
359 15.0578 8.23484 3.83683 -0.417039 -0.0801031 1.02272
2027 16.0327 7.72494 3.9646 -0.372667 0.47354 0.913207
1566 17.002 7.43017 3.90152 0.424824 -0.395447 0.475718
3959 16.9243 8.42797 3.42822 0.266687 -1.62216 -0.166739
1374 0.711922 0.343227 5.55163 -0.209181 0.72512 -0.0572953
3166 0.287685 1.11879 4.74137 -0.206061 0.523396 1.75752
3321 1.46577 1.1655 4.77127 -1.04556 0.661964 0.353817
892 1.74139 0.0456831 4.70409 0.919026 -0.982221 -1.98071
1043 2.33913 0.235008 5.55265 -1.26035 -0.0405723 -1.58547
2106 2.85595 0.942874 5.05154 0.944926 1.49391 1.13141
1040 4.0545 0.661058 4.85601 0.0822192 -0.378327 -2.12517
3571 5.37285 1.35306 5.01579 0.617878 -1.86337 -0.746491
2263 5.18974 0.178152 4.76314 2.24218 0.869606 -0.0402546
1041 6.43458 0.222519 5.39956 0.653868 -0.365524 0.296236
2493 6.20171 0.246132 4.42482 0.551068 -0.6317 -1.27897
101 7.28995 0.479137 4.55387 -1.84209 -0.741188 0.647412
913 7.47103 1.34849 5.13373 -0.8625 -0.583575 -0.29532