ITEM: TIMESTEP
49000
ITEM: NUMBER OF ATOMS
4000
ITEM: BOX BOUNDS pp pp pp
0.0000000000000000e+00 1.7099759466766969e+01
0.0000000000000000e+00 1.7099759466766969e+01
0.0000000000000000e+00 1.7099759466766969e+01
ITEM: ATOMS id x y z vx vy vz
1512 1.30923 0.915346 0.102633 1.10095 1.85933 -0.504211
3741 0.322934 0.617667 0.692044 1.00198 -0.0976939 0.529314
3510 1.138 1.02584 1.23156 -1.37508 1.45198 1.11996
1524 2.66223 0.847634 0.291674 -1.26478 0.851792 1.42637
1005 3.54488 0.480639 0.600738 0.706623 0.0463929 -0.050997
1805 3.35285 1.24295 1.33169 -0.633913 -1.07669 0.0795682
930 4.36682 0.388004 1.41808 0.104537 -2.52546 0.855236
3119 4.57162 0.180403 0.00282061 0.0837628 0.783545 -0.665469
1712 5.29578 0.926689 0.689637 0.651175 0.212859 -0.239198
836 7.10782 0.692275 1.014 -0.128613 1.35514 1.90487
416 6.22499 0.511537 0.314919 0.0820461 1.68679 -1.26863
3631 8.0026 0.433044 0.667904 -0.51388 -1.07922 1.28682
1404 8.94378 0.725298 1.20798 0.0403286 0.19669 1.37079
743 8.99935 0.0449591 0.460236 -0.475174 0.0796477 0.234309
1762 8.74876 1.11695 0.0929778 -0.604664 0.281599 0.971555
660 9.89649 1.03384 0.887296 0.948736 0.771384 -1.52127
2667 10.9412 1.02558 0.552264 0.603485 -0.239249 0.161432
535 11.6971 1.16069 1.32388 0.753399 0.277291 -1.1668
2451 12.8018 1.22472 1.28498 -0.428061 -0.949561 1.19583
3836 11.9201 0.328909 0.688105 -0.355265 -1.94412 1.2989
3878 13.4357 0.447993 0.379287 -0.374733 0.664811 1.49595
597 15.3349 0.681585 1.13288 -1.80384 0.13188 1.74037
3678 14.4246 0.231627 0.32947 -0.307055 -1.4677 0.550533
2999 14.3046 0.896746 1.07433 -0.0621001 -0.140927 0.939398
2991 14.7932 1.26372 0.311519 0.0611879 0.866245 -1.06765
2354 16.5162 1.22792 1.03053 -0.421912 -0.942167 0.561236
3521 16.5131 0.106657 0.453289 0.23028 -1.55775 0.0712051
651 0.405565 1.9809 1.26902 -1.26969 0.586394 -1.36562
2679 0.38445 1.60869 0.370673 -0.572605 0.392321 -0.166667
3761 1.49549 2.21594 0.389236 1.26253 1.23895 0.256941
2136 2.06181 1.43242 0.993377 0.623172 -0.263326 0.226545
1003 2.65887 2.3339 1.0613 0.974273 -0.0516744 -0.157177
465 2.49118 1.90286 0.0410172 -0.324823 0.114577 0.836373
1311 3.40438 2.81022 0.269848 1.84963 0.176748 0.172282
3706 3.72583 2.30246 1.10686 0.323444 -0.389601 1.15142
897 4.46425 2.53604 0.386934 1.23304 -1.11524 0.684754
3368 4.38056 1.46346 1.05346 -0.319143 1.09909 -1.08528
688 5.17025 2.14845 0.941143 -0.889918 -1.29719 -1.30712
210 6.93786 1.51237 0.316828 -0.72267 0.524941 0.623777
3691 6.25993 2.47356 0.954101 -0.172001 -0.911728 0.483083
3400 7.2457 2.65998 0.443145 0.184355 -0.44606 -1.46325
1984 7.87235 1.6393 0.961522 0.279824 1.22642 1.78941
3027 9.77626 1.71121 0.209938 -1.28946 1.81885 1.72371
615 9.58929 2.50541 1.17253 1.34379 -0.602868 -0.00333544
588 8.76398 1.93957 1.00104 0.124791 -0.978554 -2.46222
1076 8.7618 2.25949 0.0382406 -0.166321 0.916406 1.58657
683 11.3849 2.3771 0.795238 -0.749648 1.01616 0.176457
3231 10.5633 1.94805 0.957725 -0.22454 0.304364 -0.244814
1642 9.9876 2.70682 0.00378208 -0.384422 -1.01378 1.41451
3919 12.742 2.4064 1.09074 0.107832 -1.48674 -0.425637
1175 12.2989 1.73533 0.393736 1.35225 -1.30244 0.516634
1026 13.5522 1.51402 0.426525 1.39674 0.474227 -0.178776
281 15.5558 1.80697 1.28142 -0.971389 0.678183 -1.36935
3890 14.8468 2.3408 0.646435 1.08164 -0.579141 0.7149
3317 16.1334 1.65862 0.225147 -0.447316 0.24445 -1.15777
3868 0.044541 3.96203 0.242945 -1.0856 0.580465 1.03668
2010 0.483646 3.92752 1.29151 -0.489109 -0.304735 -0.422042
2756 0.431476 2.87465 0.691516 -0.206345 0.96215 -0.263492
956 1.52076 3.49459 0.612284 -1.24626 -0.718701 -0.141032
1414 2.83714 4.00353 0.283423 0.0554969 0.675496 0.259226
3257 4.26983 3.55761 0.563553 0.797205 1.55929 1.08273
1408 3.18041 3.36736 1.04687 -0.769296 0.1049 0.0033739
992 5.56263 3.08324 0.0531604 -1.14981 0.331214 -0.524295
237 5.04057 3.23986 1.23302 -0.712626 -1.25699 0.265318
562 5.46143 4.01268 0.320834 -0.242826 -1.07951 -0.272614
829 6.46965 3.67869 0.77079 1.54696 0.261568 -0.593496
2498 8.53714 2.942 0.852289 -0.495964 -0.502375 -0.232113
3636 7.79189 3.6959 0.799345 -1.58753 -0.564402 1.0472
59 9.30956 3.679 1.03977 -1.36665 1.84082 0.382717
2414 9.17214 3.31851 0.121499 0.817806 -0.112255 0.762049
3552 10.6669 2.98031 0.843463 1.50722 -1.0135 0.674054
3138 10.274 3.78341 0.385975 0.960575 0.692175 -0.17366
2099 12.6235 3.46439 0.856325 0.351555 0.837329 -0.233878
273 11.4042 3.72669 0.287201 1.85534 2.05466 1.14775
260 11.7764 3.28886 1.36786 -0.134793 -0.830524 -1.26104
2387 12.3265 2.86388 0.0322382 -0.208671 -0.124442 1.65681
2596 13.5669 3.10808 0.773708 -1.70379 0.286864 0.0525515
711 13.5895 4.1576 0.501131 0.313202 -0.0542694 1.41964
3723 14.5181 3.15905 1.2976 0.561863 0.0514295 -1.77256
2351 14.6766 4.23126 0.91941 1.34944 1.14592 -0.987056
3642 14.3752 3.15878 0.013906 -0.656369 0.193145 -0.0783784
3360 15.7803 3.12473 0.440746 0.703417 0.581387 -0.120074
1966 0.685298 4.79883 0.40882 -0.236849 0.809772 -0.551647
1332 1.90389 4.44076 1.004 -1.41096 -0.628604 1.40484
1087 1.4335 5.39218 0.800829 -0.231711 0.877587 0.22984
1807 2.88831 4.965 0.760814 -0.379024 2.39351 0.905223
354 3.91727 4.55168 0.886633 0.71338 2.10545 -0.334842
2529 4.50265 5.51714 0.692208 -0.89196 -2.0532 0.350468
591 5.25129 5.29637 0.0352125 0.774232 -1.23725 -0.214059
871 4.45692 4.53652 0.0200951 3.45033 0.215798 1.28604
114 6.29044 5.04807 0.46996 0.873396 -1.49538 0.552528
2162 6.11557 4.46622 1.42263 -1.53812 0.754241 0.163337
3570 8.39185 4.54249 1.06065 -0.196283 -1.37139 -0.870082
2079 7.30909 4.67239 0.682276 -1.34179 0.0830829 0.114531
1747 9.40509 4.35538 0.290609 0.961871 0.184607 0.432968
445 9.45824 4.72402 1.4176 -0.598607 -2.42781 -1.91277
2266 8.73765 5.37748 0.409319 0.438861 1.47964 -1.57992
2603 10.2518 5.49607 0.949796 0.140107 -1.38944 -0.674413
4000 11.1538 4.76776 1.39938 -0.7824 1.6974 -0.124894
2443 11.086 4.82395 0.352358 1.85355 0.579684 0.0451172
2379 12.4668 4.34518 0.370192 0.416538 0.852459 -1.09073
1835 12.0386 5.33569 0.516263 1.28969 -0.562205 0.141222
1605 13.095 5.33057 0.406703 0.184123 0.911978 -2.20484
2839 14.6058 5.0553 0.0477506 -1.0678 -1.27756 -0.291028
2050 15.6521 4.76346 0.377512 0.998794 -0.662037 -0.0497561
1648 16.7981 4.95201 1.24377 0.415798 -1.13965 1.28151
3488 16.8863 5.67158 0.434238 0.181674 -1.4259 0.611998
91 0.115379 6.79876 0.461895 0.979623 0.938649 2.40892
595 0.896339 6.11402 0.403378 0.333863 2.31408 -0.629577
969 2.09413 6.33082 0.673758 0.794957 -1.54163 -0.544299
3581 3.78878 5.86159 1.41963 -0.174347 0.552904 -1.06902
984 3.4573 5.95582 0.457271 -2.00042 -2.65682 1.36668
3696 3.61798 7.04036 1.37511 1.3096 -0.720217 -0.202612
2561 5.5974 6.16848 0.526345 0.552007 1.02474 -0.011804
1833 4.45149 6.57672 0.497212 1.1344 -0.710311 0.173141
1641 4.92726 6.49174 1.4208 0.055944 1.74774 0.679334
2488 6.57721 7.05292 0.879733 2.02046 -0.677652 -0.694279
1136 6.72654 5.96273 1.07381 1.38606 -1.15444 0.760766
2558 6.48486 6.26188 0.0860742 -1.13233 -0.657558 -1.26883
1286 7.74824 5.71648 0.720902 -0.473258 2.56969 1.41393
3748 7.6792 6.80299 0.405765 0.0310361 -2.31095 0.199815
1864 8.70814 6.40947 0.858208 -0.89423 0.619665 -0.993569
3408 9.62587 6.0842 0.462301 -0.0973096 -1.00048 0.0507939
353 10.2625 7.0988 0.769123 1.60414 0.519474 0.325444
214 11.1662 6.16738 0.654585 0.695933 0.623382 -0.917062
440 12.1007 6.68917 0.239701 0.0265939 -0.220162 0.254317
998 13.0567 6.03437 1.19482 -0.502771 -0.0784079 -0.620694
2903 13.7259 6.55375 0.563995 1.27466 0.168042 -0.235152
3802 14.5778 6.04592 1.18738 0.0642319 -0.129785 0.216208
754 15.4969 6.89161 0.437382 -0.732937 -0.722025 0.515594
2078 16.0003 6.73062 1.39528 0.306234 -0.703511 -0.127117
3712 15.9956 5.76603 0.90404 0.760858 -0.86404 0.100547
3957 1.38699 8.22241 0.517222 1.64721 0.563833 0.344276
2107 0.348598 7.95591 0.333135 -0.472595 -1.51638 -0.0876467
52 1.04432 7.3119 0.668553 1.21838 0.402895 -0.352222
119 2.15683 7.46822 0.641956 -0.445238 -1.00215 1.07407
190 4.14111 8.53265 0.17869 0.740795 0.142596 -1.42687
3826 3.61785 7.47732 0.21566 -0.680895 0.472246 -0.034869
3651 3.38457 8.349 1.03063 -1.34909 0.935599 -1.00687
331 4.81283 7.56177 0.18779 0.892864 -0.284636 0.776146
2403 4.66381 7.7296 1.32594 -0.970011 -0.746409 0.254351
3998 5.59452 7.39936 1.07332 0.0550917 1.31649 1.21267
1591 6.49241 8.01306 0.73667 -1.7976 -0.338146 0.860942
637 5.89986 7.33717 0.0848544 0.848841 0.0863002 -0.302958
2261 8.4402 7.37799 1.41866 -0.9944 -0.632004 -0.0552709
2003 8.05712 7.8441 0.484682 -1.56036 -0.387375 -0.0803981
2070 7.47398 7.68685 1.40539 -1.04007 0.507366 -0.647669
1239 9.21957 7.40169 0.550141 -1.34613 -0.579643 0.593458
2468 8.87338 8.46227 0.892336 -1.0631 0.701499 -1.03534
3111 10.3182 8.45105 0.411657 -1.29974 0.623996 0.419266
3419 11.319 7.25797 0.596991 -0.640549 1.29426 1.13627
2252 11.4943 8.34278 0.470322 0.275315 -1.24587 1.93617
2248 12.9301 8.34154 0.778389 0.552281 0.127767 0.0334355
1246 12.8411 7.24991 0.943619 -1.3301 0.641801 0.472072
2019 15.4737 8.0607 0.145242 0.431015 2.78952 0.285264
3954 15.2278 7.76081 1.18295 1.06307 0.415813 1.02211
1081 14.2684 7.59349 0.44739 -0.0701316 -1.65432 1.2065
1883 16.4777 7.78003 0.108135 -0.987205 -0.595917 -1.33881
2129 16.5039 7.74036 1.20709 0.405743 1.6621 -1.4703
1200 0.71482 0.053805 1.49592 0.446572 0.501508 0.224541
1151 1.42035 0.51404 2.13868 0.0422286 0.155229 0.914338
3017 0.17193 1.03166 2.03022 -1.44189 -2.054 -1.8385
47 2.5898 0.522977 1.57188 -0.851533 -1.86593 0.882045
2247 2.00177 1.38512 2.11438 1.47919 -0.00106195 -1.32189
121 3.64957 0.662966 2.19247 -2.01779 1.01518 -0.615745
1765 4.96915 0.258281 2.42885 -1.48109 -0.995165 0.302075
3145 4.60745 1.07179 2.74211 0.922984 -0.272688 1.10899
3363 5.25902 1.27946 1.8519 -0.0652918 -1.23442 0.294885
3880 7.01775 0.232241 2.27702 -0.265065 -0.82376 0.663682
3009 5.8488 0.290181 1.79737 -2.61687 1.10862 0.347463
1113 6.05103 0.593712 2.72538 2.33847 1.46675 -0.142002
3767 6.39517 1.35686 1.7748 0.641736 -0.100848 0.719872
2357 7.75916 0.833639 1.78637 -1.16169 -0.136211 -0.998419
1891 8.7669 0.862881 2.34555 -0.655839 -0.996493 1.61978
1085 9.56655 1.40071 1.7781 -0.623733 -0.152927 0.404961
1842 9.69518 0.431993 2.14042 1.4403 -0.554763 0.190208
2485 10.6938 0.585506 1.4568 -0.128187 -0.598364 0.537827
1912 11.3196 0.28855 2.31622 -0.511336 -0.58197 -1.33005
357 10.5235 0.982741 2.34941 -0.764455 0.281235 -0.172534
3159 12.4066 0.749935 2.26865 0.291396 0.1711 1.66038
234 13.3485 0.392181 1.44593 -0.151773 -0.822576 -0.861374
3472 14.1595 0.573819 2.69402 -0.62277 1.11183 0.48781
477 13.6557 1.38722 2.16343 0.799535 0.50729 -0.982817
442 14.7201 1.37799 1.89213 -0.207565 -0.0361005 -1.81071
1981 14.5489 0.252333 1.74057 -0.10669 1.03292 0.575613
3059 15.1626 0.563962 2.41417 -0.0232276 -1.74013 1.46151
2515 15.9522 0.0165728 2.66715 2.62354 -0.219669 0.64621
187 16.1624 1.06043 1.94631 -0.488662 -0.469809 1.87711
1710 0.661347 2.822 1.88992 -0.316132 -1.5012 0.0164105
3142 1.06166 1.75299 2.2448 1.37129 0.862921 0.0286564
1170 1.80415 2.4359 1.66947 -0.379151 -1.24851 0.0576643
2945 1.47675 2.83778 2.56167 0.893768 0.318253 1.21664
3923 2.86844 1.72974 2.64983 -0.90521 0.206295 -0.513185
2154 3.82963 1.83835 2.31332 0.261948 -0.50377 0.0806816
735 4.87183 2.40648 2.03062 0.117514 -1.76142 0.875014
2410 5.95633 2.27807 1.96886 -1.11873 0.881149 1.22978
35 6.55543 2.43186 2.73053 -0.28473 -1.66194 -1.01196
1989 8.18164 2.15803 2.69802 0.370038 -0.733988 -0.720414
2774 7.21371 1.75499 2.30663 -0.827421 0.866901 -0.734779
3590 9.36096 2.00669 2.81982 -0.567766 0.564415 0.349761
3336 9.91503 2.79521 2.30587 0.3903 0.120749 1.85593
1847 8.89062 2.67511 2.12569 1.84475 0.637486 -0.494417
231 10.5246 1.97607 1.97327 -0.0089032 -0.146702 0.788472
3370 11.442 1.44323 2.25457 -1.17971 -2.05156 -0.667236
2959 11.8485 2.26985 1.76636 0.404883 -0.817691 1.16989
429 12.3899 1.67879 2.69466 -0.00181827 -0.00991046 0.842617
1462 13.4641 2.29871 2.80047 0.163974 -1.79637 0.779934
2077 13.8794 2.03248 1.4643 0.236291 1.6846 0.663561
1791 14.9232 2.49215 2.20493 0.58352 -1.77708 -0.0694027
1688 15.1499 1.59297 2.84351 -0.403495 -0.248731 0.626218
2001 16.8748 1.9699 2.1383 -0.895814 1.94299 0.145719
3462 15.9499 2.5082 2.26389 -0.608949 -0.299756 -0.655316
1644 0.543993 3.66387 2.4744 -0.573706 -1.1121 0.284578
270 1.36489 3.61849 1.73431 -1.47414 1.72222 -0.586035
1731 2.40642 3.2792 1.62878 -1.28954 -0.423776 -0.20107
2333 2.28179 3.51793 2.6182 -0.0999387 -1.87887 -0.103706
3841 3.32901 3.90956 2.19569 2.28447 -2.03068 -0.12456
2588 4.14526 3.36803 1.7345 -1.70138 -1.70952 0.0610562
1815 3.17167 2.90317 2.42223 -1.5942 -0.146957 0.29149
2867 4.16793 2.88577 2.78193 -0.497436 -0.546963 -0.634313
686 5.1997 3.30663 2.39644 -1.41009 0.758021 0.715313
72 4.59035 4.22306 1.84095 -1.32085 0.259871 0.919885
1643 5.69672 4.17295 2.52557 0.564691 0.568187 -0.658189
3090 7.05393 3.89699 1.56453 0.0100025 0.199463 0.0411502
2081 6.09692 3.29346 1.76518 -1.13249 2.37069 -0.958217
1854 6.5311 3.437 2.72767 0.24266 0.808485 2.18458
3144 8.34479 3.55786 1.71945 -1.27693 -1.95632 -0.40274
271 7.35028 2.85207 1.53142 -0.833235 0.376175 -0.896493
2278 7.73979 4.08526 2.49425 -0.475761 -0.379479 0.552002
3316 9.34783 3.93652 2.23193 1.39165 -0.579967 0.375841
2853 8.58039 3.51954 2.71781 -0.151843 -1.22055 0.0312913
3660 10.4754 3.97057 1.58325 -0.82948 1.60238 -0.92946
675 10.9517 3.03304 2.13604 -0.627358 -0.963304 -0.145017
2846 10.2999 3.66779 2.70415 -0.119029 0.431393 -0.804778
2402 12.6113 3.85109 2.30946 -0.625964 -2.44907 -0.394654
3835 11.4241 3.96175 2.27847 -0.135809 -1.46392 0.361943
630 13.1494 2.96917 1.7936 -0.564899 -0.686167 -0.509629
2238 14.1615 3.109 2.23846 -0.2901 1.3011 -1.21862
398 13.5462 4.25757 1.521 0.183149 -0.0373802 0.699836
319 15.3929 3.45442 1.83393 -0.98011 0.871843 -0.705161
1545 14.4577 4.09232 1.99049 -0.729846 1.42864 0.415151
166 15.4799 3.25379 2.81432 1.55613 0.49759 1.04517
2724 16.8093 2.90509 1.5757 -1.03927 -0.44568 -0.133004
76 16.6657 3.90958 1.94372 0.843006 -1.15359 -0.216787
3222 16.7769 2.99108 2.67237 -0.175102 -2.87136 0.175446
339 1.09164 4.72184 1.56797 0.0667722 -0.0742895 -0.341575
1341 1.02814 5.53451 2.58005 0.0227816 -0.678972 -0.155071
1400 0.054016 4.94027 2.2245 -1.17529 1.51449 -0.00177649
602 1.31961 4.29679 2.56833 -0.0473429 1.62796 0.652664
158 1.97821 5.21389 2.17378 0.480853 -1.7648 0.694958
2722 2.4585 4.36408 1.91259 -0.354389 -0.20314 0.0381803
456 3.45012 4.97292 2.03449 -1.17806 -0.0288437 0.237197
2127 5.09276 5.40828 1.68924 1.19591 0.0358801 -0.67535
3267 4.33734 4.88632 2.61487 0.0665327 -0.631721 -0.688824
2035 6.82283 5.13337 1.59075 0.335517 0.444777 -1.55181
1442 6.41227 5.60964 2.56911 0.223026 1.03267 -2.15515
1321 6.86147 4.57116 2.39109 -0.444345 -1.03899 0.558788
3736 7.82463 5.0204 1.71258 -0.180184 0.572012 -1.47176
2640 9.14194 5.45496 2.44114 0.162342 0.915889 -0.244927
1541 10.725 4.73549 2.42723 -0.231649 1.0348 0.0788964
1034 12.2259 5.41852 1.64314 0.705792 0.59273 -1.18747
920 12.2814 4.433 1.44459 -0.0939618 -0.777854 0.0642602
811 11.9798 4.87018 2.46805 0.456668 0.598418 0.22728
2543 14.1643 4.85621 2.65742 -0.640318 -0.314948 -0.318053
3343 14.0703 5.17052 1.48223 0.45986 0.16892 -0.515205
2449 13.1475 5.28386 2.1904 0.660959 0.219482 -0.800421
2237 15.0047 5.07053 1.73483 0.055125 0.593819 0.135352
2875 15.1771 5.31015 2.69219 -0.316771 -1.92526 2.19854
3624 15.717 4.30398 2.50107 -1.02364 -1.75734 -0.18067
1597 16.0727 5.38523 2.06478 0.298804 -0.476146 0.32575
279 15.8544 4.4191 1.43694 -0.890792 0.60134 0.843816
2789 0.346577 6.48068 2.24604 0.21282 0.784881 -1.24145
3470 0.676467 5.74311 1.45967 -0.105134 -0.667643 1.26105
891 1.34213 6.5834 1.56394 0.369644 -0.232355 -1.51073
2375 1.1247 6.68359 2.82063 1.23778 -0.508413 0.33877
1692 2.71743 5.79445 1.70876 0.768785 -0.121508 0.62689
1527 2.35371 6.90914 1.5061 -0.228345 0.786004 -0.383008
832 2.07957 6.11094 2.64485 0.0314073 -0.319139 0.102731
536 3.35884 5.90666 2.7596 -0.112942 -1.94259 -1.19729
1265 4.20864 5.96313 2.32271 -1.23755 -0.272614 0.0404315
2319 3.22675 6.87708 2.46817 1.32837 -0.290599 1.01326
2056 5.24153 6.0916 2.46529 -1.18413 -1.85821 1.54144
1715 6.95249 6.51342 2.57942 0.125546 -0.86124 -0.624915
498 6.05989 6.57384 1.73623 -0.175294 -0.49767 0.500606
2525 7.91071 5.96399 2.25601 0.750185 1.66803 1.24341
2302 7.55222 6.55435 1.50163 -2.05273 1.30571 0.19732
3047 8.07548 7.04217 2.3179 -1.20311 0.803764 0.0256212
229 8.92483 6.47311 2.10158 -0.0672987 -1.07996 1.21519
1656 9.70182 6.40991 1.4526 0.803471 1.12571 -0.201473
2664 10.6367 6.8627 1.71414 -0.0259969 1.10817 -0.452269
3974 10.2376 5.80957 2.11573 -0.826772 0.228435 -0.0174102
677 11.2239 5.83924 1.64929 0.118168 0.660857 0.927571
3221 12.0342 6.56202 1.44416 -0.0183507 0.195673 0.211163
2625 11.4692 6.58814 2.40533 -0.318805 0.675154 -0.518123
1548 12.3605 5.94859 2.69072 0.937135 2.19663 0.161193
2044 14.1438 5.89092 2.28314 -0.329739 -0.430726 -0.903584
1304 14.197 7.0036 1.62419 0.317806 -0.232853 -0.108614
3523 13.3505 6.44064 2.15757 1.76443 -0.942109 1.57419
415 15.1952 6.18862 1.96098 1.09439 0.521242 0.18539
3498 16.8068 6.04663 1.49067 -0.616873 -1.22497 -0.637787
1917 16.2191 6.4919 2.41992 -0.451607 -1.08644 0.845936
433 0.240534 7.22857 1.58349 0.818138 -0.260927 0.014856
1331 0.776141 7.66336 2.69184 -0.454724 -0.175064 -2.10481
842 1.85838 7.30443 2.55579 0.864294 0.473964 -0.624433
1566 1.6899 8.38483 2.43735 0.250571 0.442189 0.869751
2442 1.43459 7.66756 1.60018 -0.321908 -0.619315 -1.47705
2208 2.53634 7.91228 1.58574 -1.1283 0.00462424 -0.328861
2550 3.05597 8.24692 2.66158 0.216685 0.773398 -0.923818
2726 4.24584 7.37234 2.31657 0.0883845 -0.326926 0.19991
2813 5.3264 7.27835 2.05817 0.947959 0.150933 -0.663237
1646 5.13852 8.1909 2.40253 1.93594 0.260941 -1.17857
2633 6.69373 7.4583 2.20035 0.523686 -0.885239 0.950794
3260 6.07038 8.25084 1.78549 0.878347 -0.0511831 0.281827
1756 7.57958 7.99007 2.50199 -1.23283 -0.611954 0.887334
3580 9.01831 8.00515 2.08277 1.35895 0.671788 -0.961608
1784 9.83364 8.1316 1.49318 -0.333528 0.0114526 -0.878262
481 9.75653 7.20862 2.21995 1.18392 1.3645 0.583676
1983 10.977 7.51264 2.56446 -0.900233 1.2243 0.440498
362 10.0579 8.16298 2.63403 1.20955 0.366051 -0.779768
3356 10.7862 8.41209 1.75223 -0.796892 0.680129 1.40875
1172 12.3107 8.29284 1.5551 -1.8742 -0.123495 -0.362427
1583 11.4066 7.57019 1.54392 0.511507 -0.195804 1.44384
932 12.6045 7.22235 2.09237 -0.103566 -1.2148 -1.87986
2958 13.8906 7.58748 2.79424 -2.16199 0.381501 0.132904
1896 13.5361 7.79661 1.4372 -0.270741 -0.519118 0.677097
1683 12.8868 8.09781 2.54459 -0.607589 -0.86953 1.58858
3157 14.9743 7.27973 2.42718 0.836358 -0.0939067 0.944699
160 14.3741 8.26641 2.04447 0.297837 -0.278477 -0.591061
2328 16.6749 8.43685 1.92386 -0.235812 1.08435 1.64374
2894 16.7281 7.81303 2.70584 -0.629303 0.923599 -0.611787
2169 15.8787 7.67386 2.24826 1.28234 -1.43373 1.01721
2496 1.37484 0.560396 3.77654 0.141152 -0.890748 -0.29472
3164 0.17546 0.480267 3.24829 0.778108 -0.75989 1.20893
2195 2.40883 0.0877674 3.78661 0.422737 -0.589365 0.707155
2898 2.07404 0.839964 2.96584 0.704754 -2.50979 -0.277008
1045 2.6416 1.04281 3.96515 0.33774 2.0245 1.3621
3820 3.75335 1.37826 3.84148 0.456659 0.12962 0.983013
3966 3.06887 0.494195 3.01935 1.06243 -0.531123 0.0557906
1608 5.17948 0.00301228 3.44967 0.341147 0.244068 -0.184472
101 4.42311 0.434009 4.1955 1.25469 0.614152 0.0316068
943 5.14075 1.07549 3.60176 0.148694 -0.893615 0.534635
1119 6.71663 0.223946 3.5271 0.661414 -0.705439 0.906637
3078 5.93878 0.600198 4.09097 0.0722547 1.15815 -0.679948
2987 7.97969 0.9206 3.15389 0.154031 -0.0796717 -0.105484
2369 8.51772 0.0302906 3.19741 -1.57704 -1.02801 -1.75711
1201 7.13236 1.1945 3.64724 -0.506156 -0.346617 -1.72932
2067 9.83305 0.603819 3.13122 0.216179 -0.0848092 -0.39404
156 9.09266 0.282117 4.04201 -1.33922 0.916461 -0.270139
3786 8.99616 1.08445 3.36957 2.02665 0.182809 2.52575
913 9.4876 1.32481 4.24123 1.17248 0.730962 -1.57906
2092 10.863 0.215208 3.32739 0.297207 -1.04082 -0.378266
3630 10.5506 1.41168 3.29714 -0.313524 0.163617 -0.62272
418 11.6516 1.10653 3.36243 0.898847 0.237084 -0.756713
753 12.5074 0.570651 4.0096 0.388087 0.130076 0.627431
1547 11.4597 0.446033 4.05338 0.792395 -0.196909 0.0396685
2854 13.0715 0.946107 3.08197 -0.165902 0.115895 -1.14221
963 13.6568 0.585254 4.00925 1.07544 -2.30315 -1.62769
262 14.6099 1.02373 3.49098 -1.14854 -0.390642 0.0913667
2380 16.6345 0.316679 4.20625 0.161708 -1.9431 2.25157
19 15.7879 0.89779 3.42546 0.0990547 0.0311186 -1.90534
3166 0.570266 2.42774 2.87592 -0.186998 -0.754549 0.0836345
805 0.738899 1.47263 3.14857 -0.0721387 -0.296508 1.2115
1325 1.11718 2.61902 3.76146 -0.524956 1.08068 -0.45777
3777 1.66751 1.90303 3.05385 -0.113823 -1.2609 1.00767
2762 2.51219 2.56274 3.14285 -0.3581 1.09974 0.845562
904 2.30224 2.10716 4.23472 -1.03911 -0.0137755 -0.151548
941 3.51006 2.27779 3.3848 0.594923 -1.08695 0.547642
299 5.52343 2.05283 2.9012 -0.159332 0.584924 1.82904
2115 4.46475 1.8685 3.2609 -0.119378 0.0528191 -0.458141
2532 5.10254 2.1422 4.05287 -0.0105174 -0.419815 -0.606914
1152 5.7213 2.8236 3.47742 -0.448952 -1.7897 1.1854
1841 6.13255 1.93579 3.94335 -0.118286 0.575133 0.386139
478 7.11391 2.2241 3.76348 2.11845 -0.178209 1.41741
464 6.33352 1.47812 2.95574 1.65173 0.413015 0.485626
282 8.07233 1.93712 4.13347 -1.48416 0.824126 0.937741
1195 8.68783 2.53247 3.55063 0.207183 1.41793 -0.162861
316 10.1084 2.42087 4.01228 -0.683335 1.19437 -0.0458751
1120 10.5085 2.54961 3.12012 2.71827 -0.136212 -1.02621
3338 11.3649 1.80752 4.04495 2.24023 -0.341049 1.89759
41 12.5027 2.7125 3.02005 0.434202 -1.20802 -0.225031
593 11.4913 2.29693 2.88835 0.281307 0.345689 -0.527199
2235 12.6821 1.66917 3.79359 0.0251734 -0.294766 -1.47864
454 12.1351 2.74333 4.22109 0.23394 1.20624 1.09712
951 13.1138 2.52633 3.96189 0.885315 -0.751677 -2.13838
1570 13.6904 1.6566 3.53395 -0.810703 -1.04343 1.03801
3008 14.5536 2.50813 3.11999 0.410777 -0.992634 -0.46095
1677 15.1435 1.5745 4.11132 -0.100174 -0.301869 0.523199
3765 15.2108 2.83251 3.94793 -0.896994 1.51075 -0.00789486
3976 16.6663 1.47347 3.75304 -0.846675 1.2072 1.04216
2567 0.317892 3.45459 3.404 0.651875 -0.268719 0.501029
1843 0.920982 3.70864 4.23484 0.662505 -1.04972 -1.55968
2702 2.81446 2.9491 4.07608 0.977489 -1.03015 0.31476
2132 1.45848 3.50769 3.28345 0.717948 1.72858 -1.44767
549 3.09514 3.60155 3.30541 -0.54604 0.764773 0.737705
3388 4.17231 4.2613 4.12553 -0.341885 1.21964 -2.23105
3200 4.38691 3.8713 3.12115 0.989514 1.32589 -2.33166
2883 5.27706 3.74114 3.75565 -1.07177 0.0561867 -2.01502
1496 4.37935 2.94689 3.86875 -2.11021 -0.160751 -1.46472
2751 6.47089 3.65351 3.77221 0.298387 -1.94711 -0.0704013
3088 7.44102 3.1864 3.2885 -1.51381 0.250364 1.1443
1069 9.51826 3.15764 3.28677 1.6493 -0.852926 -0.575136
230 11.3787 3.15467 3.51867 -0.298686 1.30442 -1.42559
1344 12.2549 3.6594 3.43391 -0.12775 0.387232 1.06095
424 13.5941 3.452 3.19171 0.0401621 0.13224 -1.83516
1690 14.0747 3.05746 4.04774 0.271056 -0.305989 0.884139
2817 13.0753 4.02063 4.18925 0.24737 0.632763 1.10833
3392 14.614 3.75733 3.06985 -0.280025 1.61028 0.782988
492 14.9132 3.76271 4.25158 0.14563 1.8877 -1.6058
2646 16.4232 3.86632 3.12546 -0.554793 -1.63039 0.0771238
648 17.0121 4.20544 3.9232 0.0700889 -1.89163 -0.0191177
2734 15.8771 3.80383 4.0252 -0.138792 0.177471 0.406136
2293 0.512512 4.80669 3.26654 -1.51718 -0.576604 -0.459292
347 2.37208 4.5106 2.95531 1.69945 0.598017 1.36871
531 1.67413 5.38035 3.34381 -0.847806 0.011853 1.06868
1178 2.81513 4.34506 4.12077 -0.548597 -0.546708 0.730258
532 1.69465 4.42496 3.75434 -0.903181 -0.861278 0.736673
2976 2.74309 5.30471 3.55478 -0.923513 -0.0166097 0.556775
2779 3.91569 5.53854 3.60324 0.335345 -1.19509 -0.926416
11 3.43765 4.61461 3.02806 1.39325 -0.150816 -1.22187
460 4.99616 4.71915 3.44843 -2.36375 1.56309 0.0978499
496 6.02081 4.73945 3.69211 -0.216939 -1.03962 0.36321
2938 7.066 4.52741 3.55836 2.35135 0.300113 0.281686
136 7.5707 5.19141 2.9921 0.0756577 1.11828 0.700945
491 8.47303 4.67083 4.02668 0.233524 -1.08269 -1.71492
1861 9.56236 4.28829 3.40024 -1.09485 -0.191793 -0.579921
2606 8.66413 4.58796 2.9605 0.305665 -1.17653 -0.396768
638 9.2239 5.25402 3.54601 -1.4293 0.202766 -0.440802
2994 10.1956 5.35747 3.17931 -0.733382 -0.853946 -1.18438
385 11.3855 5.4806 2.89571 -0.65966 -0.949351 2.03583
157 11.3731 4.46037 3.49287 -1.29462 1.72422 0.531407
2091 10.5588 4.58772 4.19455 -0.314525 -1.37979 -0.0658707
3427 12.5524 5.30276 3.51405 -1.14991 -0.059745 0.0902751
2540 11.4775 5.37803 3.93674 0.754346 -0.158021 0.399489
3450 13.2272 4.39692 2.86527 0.610174 -0.301252 0.586259
2386 13.4436 5.55137 3.26768 1.66938 -0.838176 -0.239836
1543 13.9671 4.38473 3.73845 0.0696335 1.63735 0.300953
2656 14.5173 5.52066 3.7341 0.294188 0.723706 0.234621
1682 15.0542 4.63815 3.4552 1.45951 0.164776 1.10885
1813 16.2455 4.89086 3.28976 -0.668202 -0.761424 -0.611591
1054 0.727586 5.92822 3.58181 1.39988 3.06032 0.722375
2537 0.446796 6.90518 4.05193 -1.19781 0.514076 -0.332518
3254 0.0272195 6.87964 3.19019 2.01651 -0.516173 0.377533
1039 1.72894 6.37321 3.7674 0.387474 0.395716 -0.699309
1333 2.72501 6.42482 3.38165 -1.19111 -0.946263 0.356641
3973 3.86633 6.56492 3.23872 0.103581 0.418851 -0.747486
594 3.36912 6.19589 4.25825 0.8837 -1.57111 -1.03533
1928 4.99615 5.73613 3.51663 -0.769224 -1.8606 -1.07587
2695 5.51299 6.83037 3.92533 1.67114 1.13168 0.68705
1428 4.48699 6.28968 4.13815 -1.18073 1.42711 -1.80343
744 4.83609 6.67984 3.0459 1.96872 -1.16776 1.91189
668 6.15439 5.8521 3.65701 0.635502 -0.848005 -0.49247
3423 6.56369 6.89742 3.66641 -1.5103 3.55401 1.46
2902 8.40575 6.32788 3.22839 -0.949933 0.00652025 -0.195337
3551 7.42692 6.13448 3.61162 0.340731 1.1858 1.43134
3493 8.18294 7.05117 4.12078 0.535624 0.293152 0.265245
2784 8.45645 5.87954 4.24741 -0.391335 0.620914 0.410812
127 9.65037 6.30224 2.9024 0.648605 -0.498724 0.52442
656 9.23814 6.65558 3.99747 0.604518 -0.977121 -1.93488
99 10.8471 6.13631 3.53108 0.576062 -1.19715 -0.0518116
3837 9.97518 5.88079 4.07152 0.972745 0.562895 -0.125908
1732 12.2562 6.35107 3.71468 2.49992 0.0461887 -0.59495
3672 13.1091 6.78302 3.24879 0.749681 -1.18773 0.142128
2727 14.602 6.58799 3.24297 -0.794552 1.12671 -0.687122
2748 15.1998 6.90352 4.15562 0.196434 2.45191 0.801602
2877 15.5024 5.78667 3.88656 0.0233517 -0.58514 0.711478
178 16.7983 5.72943 2.93279 1.57188 0.65545 -0.164111
401 16.1169 6.57272 3.50583 0.847187 0.454381 -0.095225
771 16.5283 5.72892 3.98485 -0.466731 -1.23614 -1.28846
3533 1.33777 7.42858 3.55283 0.5318 -0.863365 -0.243694
2013 0.365397 7.90175 3.66522 0.0430086 -1.24299 1.27878
949 1.5726 8.36898 3.46377 0.171989 -0.835129 -0.28233
3464 2.40998 7.78875 3.27183 -1.32828 -1.191 -0.841091
3805 3.53976 8.20497 3.84196 0.670552 -0.13823 -0.350388
2267 4.21605 8.20815 3.10986 -1.50389 0.40881 -2.13615
3250 3.4251 7.17881 4.05736 0.48708 0.249136 1.61092
1274 5.27322 7.63582 3.21968 0.584453 0.371546 -0.604539
3737 5.10098 8.2114 4.23718 -1.9062 -0.192802 1.55693
3766 4.41149 7.46446 3.91836 0.130037 0.323961 1.03611
2109 6.30156 8.16564 2.87341 0.247623 0.805231 0.856266
1216 6.18398 8.12358 4.00628 -1.89039 -0.579818 0.10053
118 7.55493 7.13058 3.20599 0.836879 0.628267 -0.905257
1590 8.18511 7.99751 3.54933 1.70537 -0.144044 -0.623461
2213 7.26656 7.87444 4.02769 -0.208811 -1.24677 -0.887513
3849 9.20474 8.25596 3.53915 -2.55711 -0.537294 1.22296
575 9.95471 7.24053 3.17928 -0.398798 -0.623046 0.979145
985 8.94629 7.20724 3.02456 0.138952 0.12259 0.383008
1744 10.2866 8.21503 3.81926 0.761394 1.29318 -0.487278
3238 10.9437 7.44256 3.78172 -0.347699 0.98004 0.0203437
1558 11.48 8.46087 3.36575 -1.15513 -1.46249 -0.756276
1135 11.9207 7.85923 4.1636 0.576669 -0.57591 -0.323669
3749 12.1044 7.34554 2.94914 0.209539 -0.565226 0.709192
2250 13.1268 7.3867 4.21727 0.88653 0.215189 -0.302002
3259 14.8852 8.5409 2.92849 -1.39797 0.822692 0.436895
3359 14.6887 7.70442 3.44265 -0.500306 0.317816 -1.39008
1435 15.6781 7.87621 3.49536 -1.71466 -0.16818 0.173255
2472 0.321639 1.00703 4.28537 1.2671 -1.82188 0.118936
1138 0.876529 0.096827 5.16021 -1.44643 -0.0769403 -1.08903
893 0.743126 1.40984 5.248 -1.01074 0.138081 -1.14081
1375 1.88733 0.678016 4.68006 -0.493888 0.0468628 1.51232
714 2.77943 1.11742 5.00505 -0.486512 -1.62613 -1.77058
2456 3.4215 0.550209 4.5082 1.544 -1.55013 0.899401
165 5.43414 0.703558 5.64142 -0.50011 -1.19639 1.56227
71 4.32511 0.450372 5.20912 -0.310893 -1.87164 1.17498
3379 6.2562 0.229236 5.0292 -0.762793 -1.57906 0.0738117
1041 6.6757 1.15866 4.58804 -0.477689 0.496059 0.692053
3403 8.44655 1.1008 4.41211 0.747267 1.55394 0.816068
494 7.36018 0.367895 4.92527 2.90938 -1.19784 -0.580199
17 7.99072 0.812823 5.66547 0.0542496 -1.55827 -1.24847
3627 8.99539 0.869746 5.3913 1.20757 0.87634 1.26706
2363 10.3033 0.570463 4.30677 -1.48647 1.88642 0.825933
2549 10.255 1.11631 5.40788 0.906438 0.14923 0.392982
1140 10.909 0.2339 5.66134 -0.446719 1.62279 1.39202
2282 11.139 0.927783 4.96975 0.762594 0.316925 -0.46943
957 12.1132 0.0939324 5.40259 0.181135 -0.142916 -0.244061
1801 13.01 0.152849 4.9076 -0.702908 -1.68433 -0.855643
3194 13.2888 1.39268 4.92821 1.12795 0.0407037 -1.08862
421 13.7062 0.625717 5.39024 1.0076 -1.27608 -1.50683
2758 14.5531 1.06248 4.77746 -0.422895 1.41767 -1.08016
1947 14.7916 0.62601 5.67219 0.626852 0.160813 -0.895716
578 15.6386 0.934704 4.87434 -0.598642 0.493354 0.884834
2697 16.642 0.215507 5.45175 -0.324774 0.538123 1.24527
212 16.7169 1.34406 5.04757 0.513042 -0.541199 -1.6619
1219 0.432689 2.08329 4.36564 0.83923 1.0575 -0.747867
1348 0.0649664 2.24459 5.24071 -0.123193 -1.06481 0.847317
2446 1.34846 1.49147 4.30544 0.247788 1.49871 -0.070905
1043 1.45287 2.52421 4.78574 -0.6199 0.745815 1.16356
2480 2.58435 2.45878 5.10064 -0.452838 -1.77145 -1.33812
439 1.87454 1.57463 5.26466 0.390548 0.897208 0.692172
2689 3.52593 2.23739 4.39842 0.047378 -1.27723 -0.398765