ITEM: TIMESTEP
50000
ITEM: NUMBER OF ATOMS
4000
ITEM: BOX BOUNDS pp pp pp
0.0000000000000000e+00 1.7099759466766969e+01
0.0000000000000000e+00 1.7099759466766969e+01
0.0000000000000000e+00 1.7099759466766969e+01
ITEM: ATOMS id x y z vx vy vz
3741 0.642483 1.40479 1.36004 0.0740425 0.318178 0.803604
242 1.41344 0.744804 0.889457 -1.07951 0.546006 0.247529
2826 0.0949577 0.574944 0.831546 1.88858 0.968112 0.104349
2153 0.906463 0.90999 0.0166349 -0.44097 -0.382642 1.01085
1524 2.28535 1.07682 0.100638 -0.0146823 0.208845 0.224813
1805 2.88805 0.481271 0.787148 -0.0874979 0.902786 0.887862
3368 3.75653 1.20914 0.565675 0.01098 1.08578 -0.409461
735 3.90726 0.38726 1.31357 0.299485 -1.21684 0.70997
835 3.95872 0.207574 0.273417 0.871004 2.26982 0.49189
3119 4.87907 0.755165 0.847862 0.329677 0.828563 0.754354
1139 5.67963 0.436031 0.0327976 -0.905942 0.256333 0.118637
1712 5.97441 0.648856 1.05954 0.094339 0.878131 -1.58966
2295 6.65323 0.0846728 0.338028 -0.419095 1.96222 0.180838
836 7.50917 0.982183 1.31754 -0.076496 0.41121 -1.23944
416 7.70566 0.5148 0.317439 1.10784 0.750418 -0.604286
588 8.67407 1.31084 1.301 -1.18275 0.254115 0.847008
81 9.72496 0.0184325 1.06388 -0.110349 -0.772054 0.735401
1792 8.66304 0.164366 0.626359 1.377 -0.401573 -0.654308
3159 11.3529 0.247872 0.560374 -0.317692 0.975531 1.1082
3231 11.2573 1.14886 1.15415 1.62731 0.781701 -0.266245
1175 12.5299 1.37745 1.06837 -0.457055 -0.506782 -0.762664
3836 12.4631 0.502431 0.454513 -1.38433 -0.880229 -0.641247
917 11.7316 1.16578 0.301976 -0.713684 0.495339 -0.627288
2451 13.1395 0.537775 1.25037 1.75797 0.384927 -0.4598
1075 13.867 0.469322 0.261667 0.667088 -0.588404 -1.86231
1718 13.5797 1.36566 0.608099 -1.30376 0.240292 -0.357837
1981 14.0669 0.134789 1.35314 -1.18475 -1.21388 1.36529
597 15.0122 0.33529 0.688825 -0.432276 -0.608643 0.0058146
2901 15.0515 1.27357 0.287719 0.512887 -0.0446662 0.101042
442 14.4351 1.18841 1.13959 -1.01306 -0.891279 1.39534
480 16.0509 0.0463546 1.03587 -0.0150597 -0.729171 -0.814156
3317 16.4049 1.24623 0.371261 -1.37063 -0.146954 0.940667
3761 1.42131 1.79865 0.439917 2.02265 -0.511871 -1.36539
2756 0.604821 2.46928 1.38093 2.45963 -0.82148 0.988564
956 0.460499 1.90227 0.262502 -0.101163 0.995457 0.086106
2951 1.23846 2.79331 0.439557 1.13584 0.968543 -1.38028
1710 1.70186 2.40719 1.40521 0.533009 -0.770283 -0.624302
1311 2.42085 2.44181 0.402563 0.392173 -0.203773 -0.179555
1512 2.16186 1.45828 1.14209 0.513033 0.0632176 1.7054
688 3.36814 2.02575 0.9034 -0.182493 -1.29095 -1.11078
3257 3.83947 2.74697 0.37445 0.196145 0.307948 0.0397187
992 5.28041 2.53043 0.570403 0.267676 -1.96096 -2.02715
2154 5.29033 1.72419 1.1897 1.07642 0.407141 0.19109
72 4.37008 2.39133 1.37543 0.243904 1.96718 -0.875453
2206 4.53401 1.88889 0.401393 -0.313729 -0.182141 2.32667
3445 5.42793 1.56547 0.0198333 0.285157 -1.29615 1.8182
3691 6.30166 2.31295 0.831654 1.14494 0.541962 -0.281877
2357 7.0832 2.82583 0.912363 -0.94901 1.83261 -1.53329
210 8.02752 1.8015 0.599053 -0.0123204 -0.47575 0.0826808
3843 7.16707 2.1127 0.181851 1.49531 -0.927021 -1.36975
3552 9.87005 2.84996 0.58881 -0.467527 -2.27708 0.341529
1076 8.8165 2.66156 0.540185 1.28987 1.29933 0.648578
1870 9.44326 1.79161 0.534916 -0.695502 -1.82409 0.114221
615 11.128 2.77949 0.622326 1.45301 2.13548 1.3594
3370 10.3897 1.9605 1.04855 -0.568766 -0.24424 -0.0119733
475 10.6184 1.77234 0.0452609 0.0570965 -2.54264 -2.03691
260 11.7266 2.14175 1.25486 -0.109976 0.165763 -1.03581
2387 12.5369 2.71403 0.487054 1.86309 -0.710423 0.728709
2077 13.5872 2.23776 1.35116 -1.3336 1.52538 -0.740327
1026 14.3907 2.46698 0.590191 0.736741 0.69535 0.146661
2679 16.3345 2.33688 0.179506 -0.0582774 0.33481 0.738338
2354 16.6992 2.05549 1.13283 1.07444 -0.284449 0.194429
281 15.695 1.60436 1.06797 -0.0189151 -1.78961 0.652922
713 0.852675 4.18344 0.399735 -0.235883 -0.388303 0.0824476
1731 1.19157 3.49692 1.17256 -1.04575 -0.912274 0.443698
3470 0.306367 4.03689 1.27718 -1.73501 -0.433793 -0.139019
1003 2.35033 3.13592 1.17518 -0.898185 -1.93293 -1.60134
465 1.94699 3.8692 0.224782 0.0835003 0.73101 1.31342
1414 4.20825 3.77587 0.0759654 -0.310134 -0.864808 -0.695088
897 3.50979 3.72442 0.971304 -0.7928 1.24484 1.47743
829 5.59333 4.0296 1.25309 0.558689 0.496385 -0.160173
354 4.74085 3.34085 1.03807 1.54513 1.62921 0.514076
989 5.50726 3.42679 0.0744588 1.88554 -1.64187 -0.0530097
3636 6.23903 3.32254 0.795151 0.321644 -1.60187 -1.92693
3090 6.8421 3.9758 1.38894 0.413925 0.0846462 -0.140206
2079 6.18666 4.22958 0.130968 -2.21245 -1.52 0.279282
1984 7.72036 2.91212 0.142254 -1.97971 1.32169 1.56608
2498 7.32111 3.72993 0.55138 1.70443 0.900619 -1.56808
59 8.03249 3.2468 1.23275 1.14906 -0.133892 -0.375668
2266 8.24494 3.99253 0.379449 -1.14777 -0.156326 0.297981
3027 9.51452 4.27021 0.532051 -0.00104088 -1.20993 -0.884151
239 9.12802 3.45555 0.0796682 -0.979923 -1.50357 -0.125211
1642 10.4428 3.83734 0.295012 -0.197435 0.523135 -0.465292
2846 10.5701 4.05135 1.30966 -0.106445 0.515063 -0.242915
2836 11.551 3.96343 0.436631 -1.14988 -0.625839 -0.979557
144 12.5657 3.83138 0.820839 -1.29297 -0.0227267 -0.579226
2402 11.7578 3.36 1.29427 0.746987 -1.06121 -0.80212
2099 13.388 3.35773 0.165579 -1.04158 0.0525082 -0.985911
3723 13.7276 4.00134 1.365 0.18382 -0.00701016 -0.906572
327 15.2656 2.85214 0.708046 1.35463 -0.494614 0.661884
3890 14.4496 3.35893 0.00147921 0.493816 0.591266 -1.0042
1937 14.6639 3.94132 0.769862 0.794913 -1.77101 0.486137
3360 16.162 3.70921 0.662926 -0.296576 -1.31257 -1.27996
1966 16.9756 2.85483 0.774252 -0.795511 0.183462 0.367442
3498 0.974072 4.96569 1.23406 0.110126 -0.956493 1.49612
2417 1.30712 5.0751 0.170079 -1.73007 -1.40823 -0.0685445
1332 2.75301 4.45804 0.480892 1.13817 0.848252 -0.67438
339 1.79714 4.37183 1.31235 -0.790395 -0.126733 0.100328
733 2.60696 5.47129 0.738018 1.88898 -0.494216 1.13994
1807 3.75431 4.81383 0.565258 -0.8995 0.799405 -0.979864
779 4.6013 5.38267 0.368555 1.31205 -1.29806 0.391703
2162 5.56583 5.26153 0.0530631 0.282346 -0.399078 0.216802
1643 4.68071 4.43014 0.942885 1.45823 -0.142621 -0.672641
2558 6.74305 5.07666 0.462293 -0.448199 -1.0395 0.0789853
3736 7.57421 4.77476 1.06219 -0.42073 0.139389 0.818535
2525 8.07741 5.62441 1.35054 1.60962 0.527872 -0.120131
482 7.83507 4.82741 0.01585 0.584725 0.592812 1.699
3637 9.67353 5.57021 0.325975 -0.882769 -2.06034 0.144353
3057 8.62251 4.83646 0.88935 -2.9123 0.0415205 0.136104
3419 11.3223 5.62144 0.785641 -1.92327 -0.256615 1.47023
3660 10.1301 5.24863 1.18268 1.15974 -0.238817 -0.996453
440 10.7718 4.80348 0.374344 -1.29426 0.46239 -0.941481
1605 12.1278 5.01081 0.967205 0.759693 -0.447014 -0.694142
2379 13.1642 4.91836 0.716223 0.535953 1.86023 0.577356
998 13.4511 5.65706 1.4072 0.649448 0.74566 0.153947
3664 14.1822 5.1493 0.80097 1.39749 0.0997988 0.62317
2351 15.1798 5.14572 1.34732 -0.823079 -2.05761 -1.41243
2050 15.659 4.67842 0.320922 0.332759 -0.579926 -1.56687
1087 16.8437 5.25167 1.11771 -0.121292 0.512441 -1.53119
3712 16.21 4.37239 1.35538 -0.9732 0.290014 2.02057
164 17.0836 4.80318 0.205041 -1.69802 -1.76642 0.0881338
2059 1.13908 6.12179 0.13254 0.101802 0.972816 -0.0685759
595 0.757793 6.44935 1.10909 -0.704897 -1.29685 0.0951093
52 0.730371 7.07922 0.195591 -1.06388 -0.193411 0.379376
891 0.241167 5.88839 0.392362 1.42915 0.0448437 -0.0504211
969 1.60403 5.88113 1.1927 -1.15731 -1.45677 0.991786
433 1.62375 6.97892 1.33557 -1.29475 1.27331 0.27364
980 2.12339 6.30933 0.484724 -1.00204 0.322691 -0.700492
2346 3.37343 6.85984 0.812968 -0.209075 1.06426 0.797776
3581 3.74416 5.93216 0.861739 -0.342821 1.2919 -0.804416
2977 5.14665 6.60057 1.15439 2.36438 1.21241 0.520202
1286 7.07607 6.54205 0.80175 -0.457315 -1.49256 -0.143591
591 6.06137 6.16852 0.715164 -1.64812 -0.854142 0.311597
3433 7.81086 6.77673 0.0853375 -1.79879 -0.619462 -1.65475
900 7.56718 5.79479 0.383571 -1.24272 0.354123 1.74335
3748 8.80122 6.43888 0.743142 0.542474 0.26734 -0.798023
1831 9.78413 6.30344 0.966843 0.588298 -0.795522 0.778141
214 10.7078 6.28567 0.0387223 -1.24689 1.51634 -0.73484
959 12.3496 7.12186 0.048804 0.186245 -1.38286 0.202727
2664 11.7348 6.51917 1.08462 0.12289 -1.48432 -1.0838
3221 12.657 5.92183 0.442509 -0.120504 0.492444 1.58472
1246 13.4727 7.11651 0.396292 1.34135 -2.44238 -0.274723
932 13.8241 6.78044 1.32782 0.557158 0.630456 0.0933017
2903 14.787 6.16089 1.33836 -0.0666469 0.526565 1.04757
1081 15.4118 7.11639 0.948065 -0.629317 -0.507479 0.409946
978 15.0728 5.83956 0.458637 -0.338997 0.31668 0.258859
365 14.416 7.01905 0.138281 0.863772 1.23917 0.611576
754 16.6923 6.81849 0.730183 -0.940529 0.0463881 0.935463
2078 16.1746 5.81036 0.462046 -0.847342 -0.074171 -0.22838
3831 0.197573 8.08413 0.445769 -0.284146 1.39016 -0.0494776
2107 0.45094 7.44568 1.20618 0.218795 0.718277 -0.444737
119 2.64206 7.50929 1.05373 -0.597497 -0.973509 -1.28378
3474 1.83987 7.38475 0.239781 0.906233 0.890753 -0.0555714
949 1.54152 7.9819 1.00381 -0.772504 -0.865139 -1.22797
2198 2.57826 8.44087 0.143715 0.488927 -0.267035 -1.39475
3826 3.42808 8.53551 0.693808 1.06457 -1.8447 -0.548607
984 3.26127 7.71347 0.0535865 1.51616 -0.761064 0.0147892
331 4.39819 7.28977 0.451343 -1.13365 -1.14785 -0.977126
2403 4.83488 8.43561 0.815408 -1.13265 -1.07847 -0.647412
1591 5.25353 7.78856 0.0312376 -0.193756 0.811952 -0.309911
2488 6.06989 7.16391 1.25246 -0.969477 0.447739 -1.76213
1640 6.49903 8.04543 0.70045 0.981534 0.988424 1.0203
3260 6.08366 7.19296 0.187013 1.59836 0.300077 1.34026
1365 8.32988 7.69426 0.335926 -2.00314 0.929327 -0.903761
3932 7.61032 7.32022 1.07582 0.871853 -1.12723 0.374257
1239 9.75453 8.1434 1.25132 -0.930959 1.46648 -0.462788
229 9.33847 7.18712 1.06226 0.40201 1.30629 0.270389
3322 9.76423 7.13611 0.0289937 0.155554 0.147077 0.611334
2468 9.5794 8.15589 0.14978 -0.707557 0.0393724 0.424667
3408 10.3257 7.20927 1.38054 -0.379492 0.273938 0.529963
1656 11.0021 7.99179 1.3916 1.45404 -0.210284 -0.847014
1784 10.5906 8.05932 0.33356 0.584776 -1.42681 -0.421671
3356 11.2236 7.19299 0.344831 -0.772143 -0.619089 -1.93176
1583 12.4731 7.41466 1.16447 0.00230505 -0.179626 -0.111365
2252 11.7566 8.44946 0.542524 0.458883 -0.567342 0.208466
1172 13.3519 8.03363 0.755298 -2.15726 1.04839 0.746218
1896 14.607 7.94744 0.852398 0.487209 1.00317 0.279058
2405 16.22 7.77556 0.68266 -0.951249 -2.41378 -0.430471
3510 1.38123 1.08911 1.97676 0.289909 -0.677608 0.806095
476 1.23753 0.248034 2.62906 0.035176 -1.25822 -1.49522
1200 0.523245 0.335827 1.83623 0.281606 0.318225 -1.85349
1151 2.13594 0.383942 1.66305 -1.17227 0.174422 -1.78284
3706 3.14139 1.26837 1.62214 0.475433 1.32465 -0.268079
2247 3.71557 0.460086 2.40487 -0.190164 0.138661 -0.317394
3363 5.23622 1.15775 2.06243 0.141749 1.32914 -0.0942626
1045 4.32497 1.298 1.54478 0.664744 0.664227 -0.239877
1608 4.75716 0.784272 2.82037 -1.90249 -0.152736 0.65062
1760 5.32328 0.0147528 1.70355 0.0593021 0.967297 -1.00579
2263 6.7777 0.19958 1.87548 1.26189 1.3967 1.32523
3767 6.5541 1.23669 1.96449 0.449746 -0.925583 -0.196659
3880 7.83856 0.104119 2.07752 0.0502995 -0.815011 0.843945
3009 7.27984 0.862439 2.69828 1.49132 0.603866 -0.297075
2303 8.31771 1.23763 2.46067 -1.71445 0.902456 -1.15194
1842 9.56056 1.23735 2.70193 0.148647 -0.129981 0.861427
743 9.11427 0.367247 1.74038 0.70079 0.758367 -0.249444
889 9.41237 0.0198471 2.6905 -0.107827 0.0738886 0.379887
1085 10.1563 0.896276 1.47643 -0.933004 -0.0740688 0.352186
357 11.2528 0.80814 2.36495 3.0438 -0.513855 0.912405
2485 11.9958 0.397832 1.52193 0.117719 -0.387837 0.187967
2854 12.7344 0.876304 2.27375 0.518698 1.16959 0.464625
847 12.1117 0.110814 2.60748 1.44206 -1.20722 0.782787
2999 13.7141 1.21252 1.93886 0.277074 -0.436835 -1.05068
3290 13.9727 0.501219 2.71363 0.1314 0.177754 -1.26214
3059 15.2182 0.309098 1.78697 -0.42194 -0.063823 -0.723475
651 17.0406 1.10165 2.02172 -0.2621 -0.269838 0.936049
3017 16.1186 0.765494 1.80273 -0.658605 -1.34171 -0.124594
3166 0.791411 1.95318 2.27605 -0.275216 0.0583309 1.18787
1170 2.59461 2.29783 1.79853 0.179026 0.887348 -1.69447
805 1.6082 2.1573 2.75633 0.260571 -0.4288 -1.06308
3777 2.55449 1.43152 2.44646 0.862593 -0.978942 -1.6315
3145 4.26142 1.72536 2.66489 0.419064 -0.872065 -0.860897
3841 3.44902 2.8478 1.82397 0.480403 -2.33689 -1.82924
2588 3.26608 2.04997 2.77744 0.0397577 -1.11622 1.64723
237 5.09763 2.56866 2.78493 -0.289481 -1.17318 -0.346531
2081 5.75214 2.4658 1.74633 2.46887 0.19374 -0.644336
1152 6.84087 2.06178 2.55982 -0.233859 -0.148814 -0.305366
1891 7.18197 1.98975 1.51217 -0.267643 -1.99441 0.131093
1847 7.84456 2.51943 2.22829 -0.0710437 -0.0699465 -0.588017
1989 8.80437 2.23486 2.69064 0.461548 1.2926 0.433407
3336 8.88621 2.33617 1.49796 -0.613284 0.591608 0.709969
2067 9.78321 2.06774 1.85609 -0.343848 0.465268 -1.02596
593 10.8308 1.85572 1.98382 -0.681054 -0.340385 -0.0545291
2142 10.3654 2.18613 2.77193 0.197595 1.17116 0.232623
535 12.8244 1.82472 1.92023 0.869149 -0.927246 0.879612
2959 11.9085 2.51694 2.21627 -1.63061 -0.150327 0.764847
429 11.9485 1.46232 2.08163 -1.18927 -0.340565 -0.114382
477 14.1183 2.26142 2.24537 2.69778 -0.0186413 0.626674
41 13.2192 2.5749 2.56475 0.943706 -0.0182775 0.387182
3472 14.8872 1.61128 2.25536 -1.34409 -1.41388 -1.2777
1791 14.9654 2.32755 1.55206 -2.38059 0.5984 -0.936694
187 16.1278 1.70248 2.1765 0.665564 -1.13324 -1.13164
3142 16.9301 2.58371 2.17389 1.78234 0.365751 2.25508
2724 15.9386 2.78245 1.48198 0.369525 -1.41513 -0.0078225
2010 0.667671 3.25595 2.0641 2.26365 1.00076 -1.53023
270 1.2054 4.19814 2.59536 1.04396 -0.437471 -0.7025
3923 2.4966 2.87385 2.84607 -1.4738 -0.151537 -1.63722
2333 2.42268 3.97921 2.84446 -0.123011 -0.365947 -0.648905
1815 1.81554 3.39206 2.09941 -1.32817 -0.380896 0.47612
2722 2.80018 3.82058 1.76862 1.43862 2.24963 -0.328129
1408 4.02682 4.12986 1.87505 -1.42938 -0.609395 0.540107
549 3.47981 3.57276 2.61677 0.0543274 -0.190765 -1.2209
686 4.50693 3.17352 2.08186 1.31073 -1.53087 -0.536379
2883 5.12245 4.04972 2.18635 0.248321 0.408638 -0.0738904
2410 6.16418 3.73263 2.22972 1.63326 0.84766 -0.229299
271 6.87601 2.99565 2.12726 -0.658562 -1.18802 0.438993
2774 7.72129 3.69047 2.70273 1.09269 -0.283217 1.3807
3144 7.95557 4.19394 1.88521 0.790934 1.4944 -0.327041
1069 8.54358 3.19071 2.20073 -1.29854 -0.167017 1.04823
1747 8.85345 3.97952 1.44047 -0.69585 -0.469732 0.838055
3590 9.71397 3.23545 1.68103 -1.13573 0.847154 -0.745701
3316 9.35398 3.95195 2.45491 -2.25074 -0.858481 0.418649
231 10.7163 2.89263 1.56352 0.586985 -0.975429 -0.70133
675 11.2108 3.11474 2.70959 0.0980583 -0.704912 -1.57631
3835 11.0705 4.14812 2.41498 0.0915715 1.28671 -0.633918
1120 10.191 3.53596 2.63283 0.146736 1.11704 0.1999
3919 12.7167 3.09364 1.60904 -1.17871 0.0939335 -0.670148
920 12.1716 3.57095 2.26933 -1.25626 -3.16815 -1.43759
424 13.1235 3.79944 2.17466 0.0917549 -0.320458 0.358751
2238 14.2968 3.12359 1.48204 1.1437 -1.65487 1.41073
1545 15.2821 3.25084 2.22675 1.7609 -0.380055 -0.408363
3343 14.6844 4.16213 1.85395 -0.151568 -0.98064 0.500032
76 16.6593 3.47888 1.72067 -1.60945 1.57677 -1.95985
2646 16.1778 3.30537 2.67156 -0.584674 -1.02435 0.400801
1400 1.35814 5.53991 2.1884 -0.504817 -0.721892 0.930241
2789 0.419122 5.67301 1.8022 1.16486 -1.11622 0.482516
158 2.45482 4.90655 1.84346 -0.197523 0.542202 -1.19416
602 2.91876 5.60016 2.68967 -0.591631 2.30254 -2.44239
456 4.0199 5.12613 1.57674 0.887014 0.241776 -0.510218
1692 3.31325 4.69845 2.38362 -0.575142 -2.05973 -1.86762
498 4.9899 5.62154 1.63116 0.576345 0.12772 -0.605523
460 5.57307 5.03174 2.40318 -0.0194719 1.61735 -0.572801
1854 6.81108 4.48022 2.32891 0.36256 0.549691 0.584928
2035 6.18569 5.02883 1.55241 1.38784 -0.407456 0.916982
1715 6.49287 5.45378 2.576 0.47516 -0.570725 -1.85897
1321 7.47891 5.35343 2.29237 1.50838 -0.499991 0.445996
445 8.71358 4.68709 2.35159 0.0553987 1.91727 -2.60504
2640 9.82684 4.79454 2.10768 1.35323 -1.10552 -1.32694
273 11.0585 5.08911 1.63825 -0.289622 1.28284 1.05277
2994 10.6816 5.34394 2.684 -0.972818 -0.565181 0.935511
398 12.2914 4.58321 1.90956 -1.61114 0.191728 -0.48354
677 11.6269 4.93996 2.57926 -0.854085 -1.96127 -1.2446
3450 12.7148 4.94118 2.74867 0.368439 -0.884383 0.242379
1835 13.3033 4.77119 1.87521 -0.957654 0.293897 -1.59191
2044 14.2353 5.23693 1.88862 -0.400341 0.0169603 -0.402157
3523 13.7415 5.3233 2.78763 1.95238 -0.671241 2.08193
2875 14.8875 4.83558 2.59411 -1.60944 1.13687 -0.520128
1648 16.9483 4.77817 2.04293 0.181108 -0.405605 -0.112434
2237 15.7429 4.38547 2.35063 -0.929277 0.266903 -0.0192312
1597 15.8491 5.47513 2.18532 0.993258 0.225095 -0.791067
1341 0.959416 6.53551 2.12784 -1.07055 -0.476125 -1.66991
832 2.23363 6.38214 1.9355 -0.507763 1.70047 -0.176078
1331 1.81438 7.02175 2.64608 1.26727 -1.19003 0.02276
1833 4.17216 6.653 1.49778 -0.529643 -0.0646069 1.31401
2127 3.86603 6.09332 2.3975 -0.16838 -0.820094 0.332036
1527 3.05945 5.71043 1.60824 1.24686 0.438456 -0.612667
2442 3.059 7.04562 1.88093 0.0364552 -0.970949 -1.66982
2561 4.95402 6.7397 2.14032 -0.446353 3.36909 -1.01194
3267 4.97785 5.81535 2.76638 0.561808 2.53567 -0.211449
1136 5.94959 6.37509 2.03395 0.926948 -0.0117785 2.15724
1442 7.03475 5.74569 1.46178 -0.554644 -0.621775 1.07372
2302 6.92025 6.85107 1.87405 0.587482 -1.93519 2.01799
2902 7.99741 6.53486 1.97436 2.15416 1.15693 -1.40477
1864 9.14704 5.70798 1.53171 -0.0659414 -0.132774 -2.75919
136 9.68563 6.60968 1.91514 -0.0654218 0.082052 -1.26244
127 9.37895 5.75706 2.55862 -2.10552 -1.51525 -1.31845
4000 10.4981 6.01723 1.73815 -0.345886 1.1802 1.96239
3974 10.6345 6.59779 2.57245 0.998099 0.285561 0.875164
2603 11.5841 5.91715 2.25549 -0.0147857 1.86343 0.0377512
1034 12.5151 5.74811 1.98589 -2.16353 -0.0334721 -1.60655
1983 11.7137 7.10383 1.88285 0.589096 1.05802 -0.405824
2625 12.8801 6.86423 2.03193 0.0925469 -1.65521 -0.697027
1548 13.0199 6.17389 2.82863 -0.699297 -0.647707 -0.0010036
2958 14.048 6.35942 2.25359 1.5999 -1.20986 -1.44868
1304 15.1004 6.74291 2.16164 -0.00995506 -0.0690672 0.551297
2727 14.8376 5.83853 2.84107 -0.976563 -0.945828 -0.824807
3802 15.9993 6.38004 1.59414 1.3709 -0.373554 -0.728522
415 17.0802 6.66486 1.91027 -0.472105 1.11304 0.722151
3157 16.0797 6.86616 2.48833 -0.306162 0.599454 0.801912
2169 0.047026 8.3888 2.68843 -0.392185 1.27038 -0.790554
3254 0.482067 7.14831 2.78876 0.322351 0.533985 -1.03126
2843 1.03447 7.8653 1.92856 -0.725588 0.376574 1.49014
3969 2.7658 8.52544 2.45637 1.41061 -0.227642 0.250533
3823 2.28008 7.68904 2.11413 0.348515 -0.264573 -0.144503
1566 1.76589 8.51281 1.93584 -0.872586 1.19829 0.630425
3696 3.82855 7.68014 1.54892 0.201203 0.688845 -0.301708
2208 3.98315 7.33623 2.50486 0.347201 0.674228 -0.196009
637 4.88758 7.49856 1.51858 -0.446984 0.117756 1.86003
2813 4.92344 8.23853 2.3592 -0.366114 -0.0739111 1.5242
2070 6.72863 8.05887 1.8484 -0.635959 0.0402641 -1.23151
3998 5.76451 8.2715 1.57606 -0.0671121 -0.523424 0.267205
2633 5.8424 7.55807 2.49595 -1.08106 -0.755292 0.158971
3047 7.78406 7.57309 2.53405 -1.12245 -0.146934 -0.043455
1756 7.18737 8.47498 2.73272 -1.75512 0.858277 0.35429
94 7.74457 8.25829 1.67012 -0.277994 0.0198395 -0.788551
985 8.67583 7.65666 1.98892 -1.51854 1.01226 1.04921
2614 9.72054 7.56673 2.24733 2.06122 -0.0485252 -0.166851
3580 10.2469 8.5193 2.07576 0.622376 -0.216372 0.467153
481 10.6916 7.74096 2.84404 0.768511 2.13862 -0.361733
1558 12.1984 7.97266 2.21502 0.306672 0.952833 -0.495542
413 13.1 8.0441 2.73069 1.03911 1.58312 -1.30075
1683 13.5311 7.74344 1.77896 -1.63051 0.954229 -0.600116
2250 13.7309 7.25002 2.63863 0.714119 -1.42232 -0.297203
160 15.5521 7.76579 2.35933 0.928416 1.41689 1.18696
3359 14.6677 7.64977 2.02511 0.883287 0.784049 0.120727
3954 16.4533 7.5672 1.77269 -0.238675 0.867216 -1.15268
2001 0.480941 0.898089 3.13237 -0.497785 1.33438 0.112924
2472 0.773036 1.39151 3.91663 -0.517491 0.276479 -0.590996
1921 1.19928 0.185259 3.67772 0.344884 -0.824543 0.279428
714 2.71537 0.734129 3.13916 0.347765 -0.262704 0.0837444
2446 1.62734 1.15904 3.06664 -0.0426064 1.65291 -0.528479
1043 1.92926 0.964983 4.03523 1.29085 0.109936 1.43122
3966 3.61789 1.17968 3.47492 -0.470438 1.08824 -0.939057
3641 3.77785 0.119202 3.54492 -0.298851 -0.677387 0.577888
101 5.03517 0.556496 4.04492 1.67659 0.873811 -1.09523
2834 5.68089 0.32404 3.29159 -3.20945 -2.25302 0.604756
1113 6.31569 1.22502 3.11513 -1.75684 0.065345 -0.567755
1119 6.83099 0.377899 3.61038 -0.867788 -0.42748 0.10004
3379 5.96695 0.954974 4.22517 1.09501 1.32698 -0.468288
3786 8.83995 0.98479 3.37164 -0.641708 1.92833 0.434851
3627 8.98622 1.3845 4.23023 -0.715953 0.774334 -1.07832
2363 9.82265 1.03795 3.76414 0.614129 0.455175 -0.223086
156 9.11552 0.0128409 3.9832 0.962615 0.00832262 1.12884
2092 11.3257 0.0155578 3.30945 -0.211445 0.440516 -0.513671
3630 10.9393 1.23044 3.2867 1.76335 -0.987053 0.604802
888 11.398 0.70824 4.06518 0.0199647 -0.653731 0.0976212
1140 10.354 0.318062 4.17885 -1.50409 -0.177529 -0.993774
2818 10.3198 0.547094 2.94428 -0.587593 0.539806 -0.866833
418 11.9211 1.12419 3.07318 -0.62777 0.298992 0.497884
1318 12.3324 0.748183 4.21584 -0.677613 0.586306 0.995475
753 13.3709 1.37178 2.90745 -0.202376 0.538539 1.12394
1547 12.9001 0.33289 3.27043 0.927843 -0.514566 0.262561
951 13.025 1.33073 3.90528 1.05764 -1.95585 1.09475
421 13.9176 0.771731 3.81099 -0.06223 -0.568818 0.759084
306 14.9069 0.190588 4.02914 -1.33337 1.07783 0.252106
1688 15.6473 1.34337 3.12498 -0.935143 -0.0616056 1.9769
262 15.1686 0.427137 2.85116 0.375689 -0.225482 0.95068
1677 14.6311 1.3376 3.23687 -1.12897 1.21246 -0.59339
19 15.8799 0.00777975 3.45987 1.31641 -0.253221 1.62795
3976 16.5895 0.811392 4.09957 0.321622 -0.438305 0.528826
2515 16.7113 0.258378 2.93533 0.0169524 -0.038609 -0.983531
1325 0.0923615 2.22786 3.78221 -1.67781 -0.570356 -0.812786
2762 2.45964 1.64685 3.42641 -0.656054 1.84004 -1.59954
904 1.49833 2.04905 3.78084 -0.0345177 0.84788 -0.630263
2867 4.18647 2.73766 3.05837 -0.323673 0.849544 0.745417
941 3.35716 2.27919 3.77337 -0.810029 0.208927 -0.687718
3820 4.88118 2.67472 3.94962 -1.87828 -2.11943 -0.702444
943 5.31028 1.61949 3.46586 -2.09884 -1.68974 -0.501866
2331 4.3385 1.77045 4.08818 -0.0241342 1.59039 -0.265454
3078 6.20677 1.98266 3.93412 -0.187702 0.914016 0.810987
1201 6.93338 2.64403 3.60621 -1.48228 -1.05144 -0.630475
299 6.0916 2.78557 2.95617 -1.29216 0.263501 -0.182924
2987 7.73376 1.96881 3.12185 -0.544303 0.357828 0.134024
464 8.09148 2.82029 3.46498 0.0953682 -0.908056 -0.630923
1041 7.15099 1.62537 3.96407 1.03003 1.16253 -0.407064
3403 8.20665 1.96926 4.01948 -0.580713 -0.381997 1.00054
282 9.55051 1.98501 3.523 0.914786 -0.544215 0.848737
1195 8.96941 2.62066 4.26218 -0.803174 1.70127 -0.410881
2590 10.5362 2.11183 3.92292 0.867932 -1.35757 0.346429
3338 11.4422 2.31885 3.40903 0.734691 0.110307 -0.101511
2235 12.5453 1.93357 3.0588 0.472716 0.934541 0.0664493
454 12.57 2.26815 4.09829 -0.652942 -0.286014 -0.331658
630 13.8466 2.18489 3.41773 -2.71152 -0.444937 0.515224
319 15.6174 2.34897 2.9314 -1.63876 -1.33789 -0.0508041
166 15.066 2.0765 3.85298 0.0655862 -0.153502 -0.631345
3462 16.5608 2.01421 3.06194 -0.813073 -0.648666 0.419262
3222 16.2325 1.88027 4.00689 1.83623 -0.171373 -0.0582526
2945 1.17729 3.16217 2.98435 -0.244748 -0.130238 1.02155
1644 0.730175 4.11657 3.49563 -0.623822 -0.477906 1.14788
2567 0.117739 3.16694 3.05694 -1.43904 1.18852 -1.05268
2132 0.730602 3.09912 3.93112 0.776475 0.00329541 -1.14121
1178 1.86861 3.70926 3.77455 -1.58518 0.895464 -0.902497
664 2.66364 3.0981 3.96462 0.619753 -2.09546 0.500814
2702 4.01228 3.13934 4.09421 0.13954 0.553533 0.331815
488 3.40031 3.88938 3.74678 -0.178282 -0.0331771 -0.914779
35 5.55018 3.58462 3.27765 -0.0304966 -0.0477828 0.351585
2115 4.62958 3.83248 3.7104 -0.014348 0.889961 -0.646635
1622 5.57068 4.07188 4.23808 0.914724 1.43808 0.508926
478 6.65812 3.65485 3.08636 1.10798 -0.718867 0.235927
3790 5.91523 2.93151 4.23353 0.242607 0.730924 1.33964
2853 8.6793 3.81788 3.34152 1.29238 0.547357 -0.806545
913 9.49875 3.10966 3.19545 0.969032 -0.037468 -0.109112
316 9.69451 3.87319 3.83392 -1.17963 0.563934 1.63156
157 10.8757 4.07845 3.3744 -0.0121469 1.04821 0.205541
523 10.5233 3.10244 3.52562 -0.897218 -0.872878 0.449478
230 12.1824 3.07334 3.1432 -0.0538387 -0.71235 1.96547
1344 11.8891 4.10698 3.25675 1.11313 0.267234 1.98926
3008 13.755 3.23529 2.99744 -0.147959 1.39308 -1.49532
1690 12.9048 3.77656 3.19596 1.35917 -0.810525 -1.53803
1269 13.5276 3.01553 4.1143 -0.739648 -0.899091 0.663953
1462 14.6427 2.85025 3.01573 0.319986 -0.464941 1.27465
279 15.3789 3.10327 3.70546 -1.40387 0.894483 -0.515035
3765 14.4834 3.52105 3.88452 -0.405665 0.529506 0.509139
3392 15.0317 3.97042 3.05657 2.27639 -0.645994 1.80185
3624 15.8831 3.89664 3.76072 -0.881667 -0.200377 1.10385
648 17.0235 3.98002 4.08498 -0.359398 0.417351 0.25786
1976 16.3661 3.0218 3.77028 0.705287 -0.056565 0.51766
178 0.730361 5.093 2.88978 -1.40221 0.114702 -1.1434
557 0.715729 4.88641 4.18009 -0.820231 -0.878825 0.121741
347 2.82067 4.67053 3.4672 -0.341908 -0.374633 0.169939
532 1.72612 4.81589 3.38785 0.992596 0.900255 0.402235
536 4.13933 5.53666 3.19488 0.428547 1.02751 1.26144
531 2.91383 5.67907 3.86432 1.38188 0.207757 -0.125732
11 3.84631 4.76168 3.7033 0.675478 0.55497 0.587257
3200 4.30587 4.39766 2.90492 0.114379 1.27396 0.89797
2751 5.20531 4.9127 3.75042 -0.576326 0.335851 0.487009
496 6.99594 5.18314 3.44299 1.0245 0.641928 -0.300414
691 6.23879 5.1021 4.24797 0.0862948 0.658208 2.45608
2150 6.16296 4.50369 3.36716 -1.86339 0.652004 -1.12545
491 8.02648 4.35747 4.0334 -2.77744 2.78682 -0.131132
2606 7.92878 4.71444 3.04486 0.132345 -0.302513 0.833713
2262 8.04068 5.6439 3.78885 -1.61705 0.257519 0.765111
638 8.90757 5.17287 3.34935 -0.170548 0.177477 1.18353
1541 10.0808 4.56918 3.06235 -0.521362 0.693944 -0.965944
2091 10.2735 4.82435 4.05647 -1.2166 -2.40848 1.34124
2540 11.2634 5.0024 3.71993 -0.348792 -1.41224 -0.901241
1676 9.99868 5.63077 3.54765 2.78797 0.784031 -0.24322
811 12.1066 5.64689 3.1406 0.135054 -0.660748 -0.360318
3427 12.3511 4.54315 3.91984 2.02431 -0.544277 0.864348
2543 13.4203 4.56792 3.77495 -0.0205387 0.621399 -1.41409
2449 13.9776 4.2913 2.95727 0.405289 0.24595 0.297506
2817 12.984 5.57119 3.69052 1.09798 -0.815759 -0.295269
2656 14.3764 5.22225 3.74052 -2.00906 -0.734749 0.676018
1917 15.9677 4.9284 3.54155 0.891068 -0.267043 0.221172
2293 16.8273 4.32561 3.10692 -0.819424 0.255058 -0.632953
1813 16.783 5.50091 2.91192 1.9543 -1.06676 -0.81103
2375 0.937279 6.18441 3.33019 1.17627 -1.7842 0.334517
3533 1.32448 6.61059 4.1856 0.291314 -0.123184 -0.783112
842 2.31151 6.42975 3.3099 0.244321 1.05276 -0.840327
1333 1.83353 5.71091 4.04042 -1.9077 0.468123 -0.211334
3973 3.33873 6.41775 3.15583 0.666733 0.355235 2.18411
1428 3.96553 6.74073 4.26445 -0.201703 -0.56137 -0.542592
1641 5.69953 6.64532 3.08181 -0.049141 -0.681774 0.205279
1265 4.48807 6.61521 3.18804 -1.29226 1.38674 -0.12414
3388 4.66785 5.80595 4.12086 -0.468791 2.27473 1.49399
668 5.64187 6.27044 4.25241 0.718429 -0.302063 -0.12865
2056 5.86186 5.71502 3.31963 0.852977 1.08123 0.880274
3423 6.69355 6.17932 4.05539 1.13038 0.403353 0.771456
1582 6.69437 6.66953 2.98384 1.48298 -0.505123 -0.339324
3551 7.38108 6.03555 3.10572 0.779946 0.753478 -0.235499
2784 8.53523 6.77487 4.2035 -1.48512 -1.0662 0.434942
656 8.44508 6.1518 3.03228 -0.704586 -0.505409 2.17123
118 7.92499 6.86436 3.34663 0.486041 -0.0322667 1.42751
1590 9.07841 7.00918 2.94899 1.61696 -0.630312 0.350855
2703 9.4657 6.53989 3.79937 1.047 -1.49221 -0.513139
3837 11.0814 7.01037 3.42929 -0.259913 0.674569 0.188948
894 11.03 5.91501 3.39167 0.0471842 -1.76018 -0.442645
2385 10.5757 6.55213 4.14516 1.38747 -0.480768 0.272898
385 12.1262 6.32399 4.08134 0.197545 -0.874553 -0.550957
99 12.0617 6.68238 2.93145 -0.345429 1.2551 0.179029
3672 13.7824 6.29187 3.53138 -1.43953 3.14654 -0.464284
3318 12.8269 7.11711 3.5687 0.807335 0.309624 0.694032
2748 15.0571 5.91826 4.00619 1.0224 0.060367 2.03361
1569 15.3332 7.09732 4.16205 1.27167 -1.40705 1.26866
657 14.7138 6.97066 3.27083 1.53055 1.08564 -0.455392
1054 16.7267 6.66302 3.27652 0.223958 -0.35301 2.74531
401 16.6754 5.73955 3.9 1.64812 0.349685 -0.644097
1435 15.8556 5.96845 3.10114 0.292791 0.199721 0.473195
1252 1.30431 7.98281 4.14808 0.576102 -1.12164 0.515072
2013 0.338465 7.57368 3.76256 -2.45709 -0.288182 -0.899787
167 2.16367 7.46532 3.73349 0.887971 0.910643 -0.97785
1177 1.58819 8.09069 3.0637 0.45111 -1.39588 0.81065
744 3.99917 7.8126 3.90484 0.881464 1.58379 -1.18976
3805 2.9613 7.48646 3.02273 1.59797 -0.598339 0.742116
3224 4.92329 8.52684 4.12268 -0.377579 -0.643645 1.2072
2319 4.84177 7.66141 3.27009 0.730282 -0.299417 -0.818121
1928 5.13461 7.16481 4.16033 0.151579 1.18802 0.954004
1274 6.32982 7.8108 3.39312 0.725102 -0.340741 0.585665
1216 6.1681 7.22164 4.1469 -1.05474 1.84802 0.503345
2316 7.19925 7.16121 4.16856 0.304855 0.448119 -0.63119
1377 7.19511 8.10788 3.96421 -0.79569 1.02212 1.77776
1577 8.05418 8.01504 3.44545 0.658612 -0.533075 -1.07893
3849 9.03499 7.94418 3.55773 -0.234956 -1.50805 0.494998
3493 10.0359 7.62091 3.5759 -0.759299 -0.347029 -0.0696763
362 9.98496 8.45101 3.05369 -1.30009 0.114065 1.92194
3749 11.7516 7.84347 3.19044 -0.128997 -0.216805 -0.691561
3211 11.7009 7.31555 4.18648 -0.346133 1.45103 0.0088179
2542 13.4016 8.35048 3.6928 0.39895 -1.26555 -1.41223
1598 14.058 7.48202 3.78832 0.195125 0.0388612 0.661436
147 15.2968 8.03964 3.43116 -0.33891 0.648755 1.94295
3505 14.4055 8.04672 3.02064 -0.305015 -0.328109 0.874004
3084 14.3537 8.43465 4.22414 -0.864628 0.201494 0.203588
1482 16.2934 7.63993 3.68489 1.62284 0.986017 0.0690962
818 16.9146 8.54802 3.96362 -0.314468 2.09544 0.861184
893 0.45789 0.315314 5.39063 -1.22349 -1.37916 -1.36439
1219 0.343079 1.30419 4.77102 -0.0735742 -0.0453035 0.0865714
1278 1.29928 1.30911 4.81498 -0.0826826 0.40976 -0.540347
2106 2.47582 0.16693 4.99533 -0.112789 0.908805 -1.72069
3092 2.44939 1.33768 5.3621 0.114877 -0.827724 0.230814