ITEM: TIMESTEP
62000
ITEM: NUMBER OF ATOMS
4000
ITEM: BOX BOUNDS pp pp pp
0.0000000000000000e+00 1.7099759466766969e+01
0.0000000000000000e+00 1.7099759466766969e+01
0.0000000000000000e+00 1.7099759466766969e+01
ITEM: ATOMS id x y z vx vy vz
963 1.12534 0.939116 1.20882 -0.629316 0.577317 -1.54571
1972 0.463547 0.67563 0.442567 -0.983352 -1.25379 0.909483
3467 2.48193 1.00596 0.572848 -0.590131 -0.172777 1.48858
2707 1.86585 0.198397 0.624112 2.14475 -1.24936 1.03645
977 3.07653 0.0782799 0.654809 -0.942472 0.0199504 -1.38544
1139 3.98869 0.45675 1.08176 0.698386 -1.24484 0.889408
1927 4.22319 0.652614 0.148273 1.57915 -0.644206 0.11622
1991 5.28536 0.535419 0.266166 -0.735516 -0.336077 0.119091
1716 5.83063 0.0696053 1.11671 0.710113 0.57497 1.37016
1611 6.45467 0.90189 0.937196 -0.235825 -0.391599 0.468617
2703 8.37176 1.35702 0.520311 -0.645446 -0.482414 0.125868
3370 7.20712 0.897989 0.0764655 -0.740305 -1.14485 -1.29337
3573 7.29988 0.198659 0.829563 -0.621351 0.559663 -0.213433
2338 9.46692 1.27866 0.648433 2.74423 0.711863 1.74594
588 9.2164 0.496703 1.41363 -0.304582 -0.836836 -0.530298
2485 9.11803 0.170244 0.293824 -0.609019 -0.342036 -0.276042
1762 10.6437 0.335535 0.844285 -2.37729 0.939247 0.430733
209 10.0989 0.373117 0.0327421 0.45121 -1.06585 0.385474
753 11.6241 0.768278 1.01698 0.753636 0.863597 -1.0204
313 12.6841 0.547113 1.27649 -0.709198 -1.55487 -1.65633
1146 12.3083 0.615027 0.0188621 -0.777884 1.37065 -0.42281
675 13.2358 0.504378 0.430505 1.26933 0.33121 0.23643
3925 15.3842 0.28891 0.858684 1.62478 -0.486401 0.249409
1263 14.3215 0.428627 0.557214 -2.35757 1.54727 0.0490942
917 17.079 0.149186 1.33533 2.39955 -1.2744 2.13696
1454 16.1303 0.773196 0.400024 -0.781763 -0.292765 1.37059
1965 0.854505 1.93857 1.14242 0.221277 -0.842789 1.45046
2045 0.330189 2.78809 1.30936 -2.07727 1.85609 0.0333046
1913 0.362532 2.44981 0.29007 1.56287 0.502493 -0.266135
201 1.54445 2.78585 1.20388 -1.12181 0.028182 -0.123951
2548 2.58327 2.05118 0.638547 0.861646 -0.322262 0.226467
2930 1.65495 2.71892 0.166729 -2.71967 -0.46218 0.620248
2176 1.63497 1.74035 0.253692 -2.19585 -0.205067 -0.718886
3688 2.93784 1.46291 1.41045 0.766282 0.15515 2.4415
3846 3.78765 2.43036 0.610069 0.432667 0.627764 -0.399733
1222 4.12152 1.47385 0.742589 -0.209921 -0.345149 0.649607
1976 4.59134 2.34899 1.29017 -0.133927 -0.301578 -0.921055
3225 5.18552 1.57002 0.763241 -0.69813 0.94528 -1.49819
743 6.40425 2.18858 0.88504 -1.49114 -0.795012 -0.830015
1815 7.27925 1.4764 1.19452 0.831763 -1.04241 -0.828334
300 7.81501 2.51053 1.26886 1.21171 1.25664 -0.450772
463 7.50119 2.02781 0.35548 0.497046 -1.12404 -0.635926
737 8.75822 2.12591 1.14171 0.815835 -0.614103 1.17194
2640 9.90336 2.40039 1.04483 0.544746 0.0427646 -0.00568555
3551 10.6906 2.74414 0.323563 -1.40139 -0.783918 0.262356
274 10.5085 1.51215 0.863445 0.878085 0.866154 -0.479415
587 11.4379 2.1452 0.849838 -1.42341 1.73033 0.0258822
301 12.5669 2.41981 0.647767 -1.13893 0.255298 1.53702
2324 12.3098 1.57741 1.31089 -0.093075 1.06094 1.05884
634 13.9096 1.50175 0.985484 -1.7569 0.491344 2.11461
595 13.1029 1.55355 0.435799 -0.59244 0.905433 1.21431
935 14.2015 1.99656 0.0371504 1.35306 -0.0704722 0.381822
687 14.4848 2.41925 1.04353 0.209026 1.72512 0.474526
2826 15.4273 2.8499 1.36021 -1.35575 0.639233 -0.69809
2418 15.1364 2.5553 0.178528 0.30048 -1.49439 -0.845931
327 15.0479 1.63061 0.605696 -0.345524 1.27938 0.919072
1043 15.9701 2.0165 0.254344 0.811496 0.918407 -0.231213
1375 16.4305 2.26816 1.24554 -1.27233 0.991607 -1.41815
2145 16.9574 1.42627 0.893161 0.0782732 -0.0687035 2.69848
3324 0.666299 3.38514 0.421191 1.86201 -0.53883 1.29126
2480 1.32813 3.8117 1.04339 -0.244068 -0.188535 -0.342511
262 0.1735 3.84367 1.15761 0.399241 -1.46557 1.41324
3795 2.35879 3.89667 0.804894 0.418722 0.0672182 -0.0759695
1524 4.09928 3.16825 1.276 1.85699 -1.23639 -2.00626
1856 3.2342 3.53133 0.602289 -0.751198 0.686534 0.742985
72 4.06722 4.11333 0.407093 0.960628 1.01149 0.416501
426 4.88604 3.47875 0.625865 1.92013 1.37176 1.87563
3254 5.11457 4.11949 1.32014 -0.697005 -0.679715 0.468046
1120 5.94451 2.97109 0.364381 1.04019 -0.650461 1.00565
1841 5.99011 4.06949 0.594598 0.0129687 0.654965 -0.182769
1383 7.09935 3.16309 0.763176 0.890015 -0.192646 -1.43813
3231 8.21482 3.03325 0.474169 0.249924 0.196017 -0.680819
1076 7.60979 3.9229 0.246773 -0.581471 -1.50056 2.08684
1980 8.92345 3.62211 0.982319 -0.788456 0.183032 0.848654
811 9.86209 4.02442 0.157302 0.868188 -0.148328 -0.912158
2576 11.2763 3.10569 1.14127 0.131238 0.00552885 -0.425325
1831 10.9971 3.92912 0.648864 -0.0241118 -1.02764 -0.00134786
3161 12.379 3.50493 0.625035 -1.282 -0.844978 0.0414886
1521 13.356 3.93957 0.718525 0.56471 0.0900745 -2.28162
547 13.1262 3.14311 1.40247 -1.29644 1.28013 -1.10839
223 13.643 2.967 0.303918 0.434564 -2.01153 -0.648812
1805 15.6542 3.4635 0.485589 0.00921985 -0.256601 -0.00293767
1367 14.5222 3.57289 0.751811 0.59956 -1.17117 -0.0871171
2308 16.7097 3.11798 0.596682 -0.147081 -0.594109 -0.440295
3841 16.0361 3.82713 1.41898 -0.909194 0.933879 -0.302336
424 1.15299 5.12778 1.0871 0.726454 0.650598 1.03164
2160 0.427985 4.46921 0.40404 0.0192349 -0.99092 0.491085
1602 0.18384 5.44958 0.710476 0.730772 1.01393 0.342924
1414 2.14853 5.02854 0.848456 0.653395 0.0778815 0.290393
2075 1.687 4.42692 0.0967887 0.166711 -0.255121 -0.249993
1446 3.05482 5.5463 1.26115 1.27553 -1.78435 0.137022
465 3.19571 5.0936 0.153451 -0.155564 -0.9482 -0.00489331
3801 3.23806 4.45159 0.992031 1.06163 0.502813 -0.907025
1779 4.19192 5.06966 0.733401 -0.53388 0.670855 0.113267
2335 5.99479 5.02441 1.32871 -0.247055 0.596813 0.828506
1408 7.48913 4.89963 1.09857 0.13289 1.82713 0.272459
16 8.60728 4.55509 0.352261 0.264163 -0.393468 -0.211803
3660 8.5702 5.33413 1.15718 -1.27333 1.36588 -1.09941
3068 9.69164 5.06891 0.419821 1.85948 0.686503 2.07908
2204 11.0562 5.43588 0.369854 0.379965 -0.781815 -1.79156
106 12.6299 4.52192 1.29616 -0.875604 -1.44641 -0.0132844
1687 11.545 5.32112 1.25527 -0.299975 -0.984628 1.18962
2384 11.9487 4.67844 0.481057 0.628169 -1.21271 1.34132
459 14.0546 4.7989 0.205799 -0.0902388 -0.118965 -0.640324
832 13.8958 4.70071 1.37706 -1.49529 0.544275 -0.0368174
1246 12.8605 5.24357 0.730329 -0.970875 0.36746 -0.316146
932 13.5225 5.69808 1.42046 -0.822069 -1.4373 -0.158795
3637 15.6648 5.24671 0.857944 -0.493257 -0.793106 1.00026
3223 14.6338 5.53931 1.08839 -0.896139 0.195085 -1.03037
1994 14.8826 5.61665 0.0996535 -1.49602 -0.96594 -0.68911
920 16.5258 4.40664 0.548701 -0.509837 0.549407 -0.938276
415 16.3135 5.66574 0.219101 1.2306 -2.00578 -0.390826
2720 0.641469 6.8096 0.0834112 -0.285882 -0.399312 1.00581
178 1.19785 6.09145 0.637675 1.15006 1.25139 1.50991
1520 1.94718 6.85366 0.0865784 -0.830711 1.68813 -1.03781
1989 2.59468 5.98859 0.371825 0.436678 -2.07547 -1.26348
1591 1.85815 6.95393 1.17791 -0.0133236 0.138146 -1.34713
2129 2.83617 7.04737 0.698243 1.32513 1.48496 0.889288
8 3.72354 6.01481 0.663615 0.792708 1.07327 -0.109179
3760 4.56158 6.55783 1.31423 -1.15337 0.633891 1.17619
3267 5.29215 7.04653 0.582508 -0.518416 -0.873026 -0.896849
1419 4.94485 5.70909 0.403147 -0.311589 -0.711749 -0.320592
3087 6.71617 5.70088 0.987951 0.623488 -1.02682 -0.147391
3260 5.99466 6.23524 0.473288 -1.5829 -0.726818 0.581072
2529 6.91244 6.86227 0.635509 0.984385 0.0156362 -0.0239762
1943 7.82914 6.76531 0.115024 1.44023 -0.420733 0.320876
1286 8.14524 6.60488 1.33012 0.0973353 -1.66009 -1.62114
1152 7.71201 5.70406 0.529164 -0.0177826 1.32974 0.469368
2248 10.2792 6.07462 0.598701 0.112903 -1.22878 -0.148015
3474 11.8162 6.62822 0.67656 1.04097 1.36776 -0.428706
940 12.4911 6.10701 1.23919 -1.24241 -1.69716 -0.943702
337 14.0236 6.31931 0.30444 0.844991 -0.211572 -0.100962
2664 13.1127 7.02012 1.16217 1.84272 -0.628367 -1.31984
2467 12.8895 6.4731 0.319713 -1.62111 0.408827 -1.94425
639 15.5522 6.3457 0.931094 -0.931507 0.994632 1.3386
664 16.9808 6.73473 1.00272 -1.45487 0.287982 0.568464
1937 16.0337 7.02784 0.177424 -0.402785 0.428146 -0.892327
667 0.706602 7.69057 0.868955 0.968268 -1.17665 1.2315
212 1.95574 8.11522 0.869508 -0.383928 0.747542 2.03844
479 3.00159 8.04209 0.580762 0.227094 -0.608347 1.02411
1769 3.76388 7.30736 0.408532 -1.68208 -0.697101 -1.8519
531 4.18929 8.20044 1.25165 -0.132549 0.892252 0.571727
507 5.02477 8.11609 0.699809 -1.33869 -0.113976 1.2278
2887 6.95963 8.48439 1.27461 -0.536994 1.64223 -0.190819
498 6.21591 7.7208 0.870268 0.45299 0.86455 -0.491681
162 7.63949 7.85576 0.547798 -0.994389 -0.174454 1.93011
2948 8.65554 7.71947 0.519427 0.902513 0.670246 -0.251911
2215 11.3718 7.5955 1.35464 0.184111 -0.730552 0.147703
819 10.1664 8.26837 1.08837 0.459194 0.561956 0.0888107
2899 10.0313 7.25723 0.835243 -0.609777 -0.531395 0.0907158
332 11.0351 7.49486 0.32472 1.79202 1.33799 1.59998
754 12.6186 7.55146 0.467817 -1.03351 0.401602 1.75614
3752 11.5049 8.47517 0.165764 -0.47905 0.574726 0.989284
763 12.1171 8.45076 1.06686 0.205534 -1.42575 -1.01229
1212 14.2434 7.72928 1.42403 0.370388 1.40378 -1.02511
368 13.3799 8.30255 0.779381 1.76163 0.688233 1.69533
1845 14.5121 8.26499 0.37133 -0.627361 -0.363604 -0.612113
3642 14.6477 7.17061 0.371281 -1.09397 -0.0321253 -2.52366
2577 15.2856 7.73182 1.03682 0.861329 -0.774193 0.47423
179 16.5614 8.40542 1.08145 0.296667 -1.61428 0.235424
954 16.857 7.58659 0.479709 -0.97033 0.0763679 0.268472
2293 15.9399 7.99745 0.320656 0.104729 0.0810375 -0.983605
3174 0.507368 0.54356 2.54971 -1.31865 -0.965182 1.33899
597 1.61358 0.291383 2.02082 -3.15258 0.384374 -0.847068
3670 3.16672 0.627184 2.01355 -0.862942 -0.0422656 -0.639525
1651 3.88815 1.27507 1.76697 -0.261078 -0.148266 -0.516849
2195 4.15952 0.387988 2.28192 1.46004 -0.717158 1.43251
2346 4.94024 0.806834 1.45271 2.39408 1.84432 0.722663
3327 7.06119 0.966311 2.01567 -0.204598 0.707812 0.0412209
829 5.8401 0.526773 2.33294 1.92789 -0.00421529 0.605575
2780 5.98728 1.29889 1.69372 0.653081 -1.06835 1.63037
2770 6.68511 0.0382566 1.62146 0.425019 0.317258 -1.51566
34 7.8953 0.753611 1.53216 0.93723 -1.38186 -0.106371
3691 8.14937 0.560614 2.50129 0.856054 1.07309 -0.585069
3363 9.00619 1.25261 2.28729 0.9658 0.0925358 -1.00586
3819 10.0058 0.475722 2.0015 0.246592 -0.472206 -0.647289
270 10.5678 1.28789 2.08636 0.376292 1.22215 1.05625
3529 11.4063 0.505187 1.96684 1.70646 0.246768 -0.141587
2434 12.3142 0.589011 2.46926 -1.80924 -0.47911 0.79773
3672 13.2875 1.20493 2.1806 -0.589601 1.34401 2.0007
2649 13.9256 0.653268 1.50339 -0.508056 -0.04958 0.985969
1463 13.2584 0.0874753 2.05848 -0.417149 -0.328581 0.263565
3924 14.1529 0.998882 2.55613 1.49833 1.38618 0.976597
1708 14.7644 1.30952 1.62451 -2.06465 0.0944879 0.436906
3121 15.4518 0.315035 2.52532 -0.0247329 0.594694 -0.444478
3036 16.9217 1.08905 1.89887 0.397159 -0.242369 0.0200152
3020 15.9358 0.839849 1.59521 0.808339 0.789722 1.69059
2425 0.856494 1.52497 2.14914 -0.424826 -0.665118 0.953286
1200 0.0643705 2.25588 2.16769 -0.12188 0.479095 -1.02497
1987 1.41951 2.49686 2.32568 -1.15121 0.889583 -0.928414
482 1.88979 1.56871 1.59895 -1.21544 0.733702 0.957934
992 2.52099 1.98831 2.33211 0.235198 0.620492 -0.445795
3373 3.34299 1.55061 2.56043 -0.135737 -0.00757157 0.558842
3407 3.57635 2.26931 1.78322 -1.08367 1.87191 -0.363026
3119 4.52477 2.2904 2.39188 0.0686774 0.00418016 -1.30021
3336 6.8501 2.33395 1.72193 -0.733782 -0.863006 -0.521109
2747 6.76092 1.80197 2.68125 1.05465 0.732851 -0.154998
2331 5.7999 1.55488 2.71677 0.210515 -1.28368 1.75198
1041 5.73064 2.34377 1.81413 0.743191 0.127298 -0.397716
2515 8.00718 1.73657 1.97037 0.518991 -0.253437 1.57638
525 8.22577 2.53723 2.72475 0.13295 1.17182 0.0371236
3627 9.88785 2.21708 2.57383 0.624944 -2.13691 -1.42009
1090 9.6495 1.59703 1.59066 -0.424122 0.529721 -2.20566
3374 9.01125 2.48205 2.06113 -1.33915 0.288199 0.171021
3954 10.6033 2.5168 1.95416 1.15628 1.59135 -0.463237
1605 11.3665 1.70703 1.71131 0.196341 1.64728 -0.848438
2846 12.1776 2.6301 1.63625 0.488784 0.788511 -1.20392
3392 12.0741 2.48306 2.66906 -0.775417 0.35458 -0.595995
1648 12.0038 1.50716 2.56241 0.383982 -1.18932 -3.62773
1349 13.1995 2.14197 1.48398 1.4248 -1.38117 -0.461819
677 13.8445 2.39011 2.34402 1.07107 0.457734 -0.935606
3664 15.5313 1.82208 1.53406 1.10798 1.53856 -1.29931
1258 14.928 2.56652 2.3371 -0.00127186 0.935897 -2.20433
3200 15.724 1.75463 2.5411 -0.185767 1.25497 -0.171087
4 15.9929 2.78705 2.33745 -0.286598 -0.356684 0.281029
2756 0.471858 3.47279 2.31273 -1.34627 -0.65585 0.36014
2867 1.91739 3.53073 2.04501 -0.254698 -0.92541 -0.805748
271 2.98736 3.32099 1.59758 -0.433622 2.01208 1.04074
342 3.58977 3.40589 2.61755 1.1229 -0.704072 0.649734
891 4.27781 3.94125 2.06851 -0.970067 -0.63182 -0.390432
1580 5.24163 2.87939 2.78361 1.02608 0.0182112 0.284269
1879 5.08346 3.07972 1.72238 0.090373 -1.40618 -0.70285
237 5.59337 3.74231 2.28415 -0.257637 0.577294 -2.14422
1862 6.81638 2.98975 2.60659 -0.438512 1.23784 -1.00914
3403 6.98393 4.0836 1.50088 0.231773 -1.62253 0.0265582
478 6.19676 3.22263 1.42933 -0.298972 0.30584 -0.179561
618 6.53471 4.02464 2.57495 0.145195 -1.37789 0.333932
2588 7.88095 3.58946 1.50201 1.42865 -1.08175 1.56248
191 8.33588 3.41947 2.34267 -1.08492 -0.546394 0.786404
2410 9.28324 3.55414 2.50206 1.07084 -1.12315 -0.659933
2354 10.3271 3.47695 1.83763 -2.00079 -0.255988 0.603902
80 11.3016 3.26389 2.45 1.74112 -0.767763 0.248079
3440 11.7753 3.92787 1.6099 -1.49666 1.04594 0.349701
3204 12.5472 3.52693 2.6611 0.788323 -1.06833 0.600683
3555 14.199 3.14112 1.77894 -0.436863 0.165047 -0.995598
805 13.1406 4.06726 1.95779 -0.260579 2.12752 1.10914
1290 13.958 3.74994 2.65725 0.733251 0.171485 -0.559863
3890 15.0616 3.92265 1.71905 -1.37917 -1.22843 0.472317
3008 16.4564 3.64186 2.32175 -0.656644 0.767888 -1.64716
2247 0.467677 5.28757 1.77975 -1.88236 -0.32026 -0.410798
2883 1.02253 4.3214 2.71124 -0.924737 -0.570073 -1.33374
3082 0.0410644 4.38419 1.93747 0.874386 1.89702 -0.248694
1693 1.02209 5.49141 2.64328 -1.89803 0.515923 0.547225
2976 1.46745 4.50674 1.7702 0.352877 0.938399 0.199802
2782 2.14898 4.63161 2.70782 -1.17125 -0.164913 0.880589
549 2.07581 5.60967 1.69368 0.179379 0.948367 0.166771
460 2.91629 4.32983 2.05189 -0.306849 -0.456424 0.13644
390 2.99348 5.36795 2.31744 0.158551 -0.4559 0.796277
1864 3.78423 4.92763 1.80784 0.414219 -0.288551 -1.01224
779 4.81901 5.25236 1.64502 0.158531 -0.828781 -0.565673
3919 5.76541 4.82319 2.40597 -1.32659 0.71 -0.455535
3009 6.64619 5.17055 2.10324 0.939965 -1.08589 -1.42914
2067 8.03352 5.69144 2.0019 -1.19716 0.14012 0.187009
2775 8.37013 4.44104 1.54314 0.144441 -1.06454 -0.645048
1438 7.55225 4.74089 2.21742 0.284436 0.419679 0.616247
2302 7.17205 5.6841 2.79735 -0.261711 0.448633 -1.32843
3704 9.59146 4.31883 1.45364 -0.54252 -0.0653353 0.469881
321 8.90183 5.17609 2.2711 0.821045 -0.454895 0.13688
745 9.88382 4.78715 2.48865 0.518341 0.361383 0.425717
1249 9.67395 5.60311 1.49449 1.97756 2.51613 0.493034
2431 10.5447 4.56642 1.61111 0.0996611 -0.310222 -1.63547
3484 11.1541 4.46998 2.41169 1.52025 0.2984 0.543291
3433 12.2404 4.63317 2.32301 -1.09313 0.00948425 -1.96836
189 12.2615 5.68265 2.07187 1.67067 1.44113 -1.12657
2902 13.1677 5.26626 2.30748 -0.635918 -0.800104 -1.1153
2800 14.2476 5.63027 2.26421 -0.122518 -0.600655 0.235632
707 15.1069 5.3279 2.78412 2.05715 1.01945 -0.118567
2412 15.602 4.40428 2.79192 -1.38674 -0.0719114 -1.51287
421 16.1123 4.79804 1.79741 0.196688 -0.24341 0.593767
1214 16.2126 5.37865 2.65981 -0.295284 -1.30263 1.6669
688 0.947141 7.04417 1.7554 2.49535 0.17861 -0.496159
3135 1.16545 6.09714 1.68938 -0.580134 -0.42727 0.158285
2991 1.87532 6.85847 2.36313 0.171661 -1.81986 -0.14118
3710 2.72288 6.53322 1.57473 -0.135873 0.701213 3.29211
3039 2.2916 5.94203 2.71981 -0.247023 2.30081 -2.49576
882 3.58431 7.05938 1.68814 -1.07685 -0.409558 0.234223
2074 3.88851 6.03406 2.03561 -1.08034 0.701749 -0.719621
552 3.13494 6.63442 2.55342 0.152122 -0.966126 0.74285
213 5.57094 5.98511 1.44583 -2.48761 -2.69516 -0.755212
1495 5.24325 6.79829 2.09986 0.806243 0.300874 1.49961
1264 4.82035 5.9333 2.60031 0.280442 -0.8892 0.265542
989 5.97297 6.3102 2.72359 1.1309 1.59623 -0.665233
1265 6.65722 6.9785 2.78895 1.24188 -0.320083 -0.157837
190 6.19287 6.83512 1.50103 1.67778 -1.09325 -0.371373
97 7.2236 6.29025 1.62903 0.911616 -0.275219 1.22961
2079 7.76199 6.83073 2.37558 -1.37734 1.67789 0.677682
3316 9.10917 6.86707 1.54588 1.13002 -0.0225077 0.57503
2798 9.7844 5.9133 2.59714 -1.87728 -1.11262 1.10241
765 8.78258 6.13801 2.47466 -0.759997 -1.00711 -1.5838
3057 10.5986 5.76761 1.84426 -0.017908 0.677599 0.851076
174 10.3865 6.86773 2.07994 0.192604 -0.938969 0.971868
2266 11.5633 6.26233 1.68667 -1.21175 0.223026 0.74069
3911 12.3276 7.03962 1.91621 0.591396 2.85402 0.446422
2303 11.4359 5.7341 2.61268 0.325524 -0.483014 -0.435197
3369 13.1534 6.40497 2.0326 0.557197 1.06041 -0.136665
2551 15.3798 5.97088 1.89401 -0.909568 1.69808 0.48896
3603 14.3444 6.44015 1.71734 0.603479 -1.05387 0.354582
1005 16.9938 6.0664 2.35476 0.543157 -0.604169 -0.336112
132 16.3357 6.02385 1.57078 -1.17914 -0.20924 -0.535252
1710 16.0948 6.52309 2.58186 1.59991 -0.937913 -0.130007
1400 15.9805 7.11409 1.77034 -0.668197 0.00503626 1.61228
524 16.9328 7.04218 2.75864 -0.806668 0.500044 -1.11875
3103 0.1272 7.77723 1.7952 0.113812 0.632733 1.3263
491 0.796468 7.81991 2.51508 -1.2816 -0.585181 1.59298
2032 2.70626 7.64549 1.4701 -0.205556 -1.5403 1.26076
1436 1.69499 7.79161 2.0195 -1.52012 1.46453 0.297568
11 3.41734 8.04186 2.31701 0.306248 1.90722 -0.19506
1585 5.30605 7.54953 1.50973 -0.684664 -1.13573 0.533799
3157 5.15176 7.7638 2.57049 -0.471736 -0.25235 1.07332
2550 6.19592 7.9087 1.89899 0.254342 2.17965 -0.49158
3580 7.22121 7.38719 1.5803 1.468 0.244147 -0.803438
1854 8.31217 7.73478 1.95 0.942886 -0.237053 -0.581092
2966 7.44217 7.82572 2.53842 0.513342 0.981012 -0.0338274
2385 9.40052 7.40514 2.52884 0.425766 -0.613299 -0.962223
140 9.16699 8.50526 2.01327 0.121821 0.325395 -0.150966
1217 10.3 7.81527 2.4936 0.137222 -0.491426 -0.928655
575 11.4299 7.46411 2.43692 1.1263 0.786794 -0.328562
413 12.5936 8.13803 2.3057 -1.47541 -1.5054 -0.000786714
2903 13.3594 7.47375 2.1222 -1.98359 1.27584 1.159
843 14.1885 7.62022 2.71549 -1.06236 -0.699725 0.271597
401 15.255 7.83429 2.32178 1.39961 1.53221 -1.20614
2724 16.4218 7.90308 2.341 -0.542471 0.126759 -0.935892
3682 0.302284 0.95287 3.95045 0.679834 0.755297 1.59395
1612 1.3137 1.38635 3.81508 -0.223367 -0.0541322 0.593198
2472 2.52131 0.812354 2.89074 -1.00956 0.85483 2.02728
71 1.7274 0.400866 3.15978 -0.452678 1.1045 0.463706
982 1.6206 0.216973 4.15464 -0.655717 -0.438031 0.248658
2665 3.89243 0.648401 4.2685 -0.687135 2.29011 0.34931
2610 3.44532 0.317809 3.27058 -0.213684 0.241203 0.904206
871 2.98595 1.03829 3.94898 0.968553 -1.185 1.22421
2523 4.33237 0.903031 3.29631 0.756699 0.241809 -0.481867
2804 4.97864 0.453879 4.08869 -1.97589 -0.355506 2.213
120 6.91555 0.663256 3.28462 0.819967 0.462931 1.61062
1765 6.922 1.39005 3.98749 1.34954 -0.148937 0.851557
3115 5.80631 0.907854 3.5198 1.3128 -0.808083 -0.16593
2081 8.09803 0.280413 3.79609 -0.687271 -0.837517 1.74433
2751 7.88185 1.10993 3.35237 1.2152 1.07319 0.586899
2692 9.18957 0.555132 2.91048 0.532929 0.21208 -0.210348
2959 11.192 0.973639 3.07146 -1.20713 -1.66095 0.274381
2363 10.1291 1.34926 3.2486 0.018458 0.577595 -0.416782
2068 10.8817 0.196701 3.95894 -1.43193 1.17554 0.0641451
2451 11.8745 0.178113 3.46884 -1.43183 1.44158 0.831575
3960 12.7631 1.15148 3.53084 0.525758 -1.62186 1.01163
359 13.6564 0.743255 3.6688 -0.745494 -0.602856 0.278269
851 14.5671 0.148289 3.1189 -0.838889 1.40647 -1.28556
1242 15.0243 1.17075 3.39831 -0.148784 -1.36381 1.60536
2519 15.5816 0.208246 3.59734 -1.10627 1.21233 1.81791
735 16.4941 0.0695851 4.13215 1.08647 0.462338 0.97947
2417 16.5575 0.891191 3.17138 -0.632943 -0.114413 -0.888771
3768 0.453726 1.62452 3.14027 1.84168 0.355648 -0.981735
773 1.01458 2.41522 3.36857 -1.75191 -0.27206 -0.0762045
2389 0.0515892 2.1512 3.92059 -0.240934 -0.469965 1.10279
495 2.45542 1.97595 3.65724 1.48253 -0.0814569 1.62749
60 1.6964 1.79253 2.9178 -0.714522 0.287082 -1.7614
1816 2.16641 2.76556 3.08041 -0.780323 -0.946921 0.391902
2784 3.30997 2.44644 3.10742 0.0603604 -0.122606 -1.29059
2734 3.89827 1.71855 3.70673 -0.507109 -0.762891 1.2153
651 4.24447 2.70216 3.46704 0.464078 -1.2648 -2.60724
2693 5.15055 1.92485 3.47222 1.78805 0.774031 1.17616
3821 6.19596 2.55359 3.30647 -0.365286 0.218311 -1.67149
2888 5.96538 2.34027 4.25502 0.285194 0.036982 -0.550031
2374 7.39642 2.42691 3.37109 0.956322 -0.622688 -0.661856
2654 8.41982 2.81072 3.82143 0.927627 -0.194813 3.27241
3659 9.06213 1.69024 3.38436 -0.615993 -1.2518 -0.401928
3713 9.1766 2.72324 3.13736 -0.332977 -0.127414 1.33715
844 10.8462 2.07116 2.962 -0.936603 0.543568 0.853638
2077 10.7275 1.56783 4.17726 1.0113 2.50202 -0.485686
3669 10.1437 2.52646 3.6209 -0.980752 -0.0862702 -0.828669
2999 11.5793 2.01318 3.98297 -1.30703 0.446646 1.81778
1437 13.8996 1.67863 3.30194 -0.755975 -1.02241 2.62694
2237 13.0565 2.00923 3.83173 -0.481999 -0.469178 1.29791
2853 14.2185 2.42128 4.15683 0.771282 0.752895 0.123238
956 15.0515 2.30867 3.55722 0.12104 0.755356 -2.04211
3615 15.9653 1.69737 3.95747 -1.03548 1.38021 -0.354885
1883 16.0827 2.77975 3.84053 -0.454146 1.69281 1.1923
3247 16.5341 2.07422 3.118 0.830694 1.62289 -0.186021
2162 0.700171 3.43462 3.53487 0.637623 1.61248 1.24685
895 2.23152 3.07555 4.13034 1.1233 -0.424598 2.09035
686 1.68109 3.67119 3.05236 1.20972 0.82546 -0.0318492
1325 2.82723 3.76484 3.16462 0.646241 0.201055 0.466815
2488 3.84939 4.27305 3.30542 -0.0445322 -1.47356 0.198241
1426 3.34043 3.01902 3.95572 -1.11574 -2.19078 0.267514
476 4.81573 3.79478 2.93608 -1.72556 -1.08992 -1.0988
199 5.57151 3.25149 3.92501 -0.619534 0.432938 -1.21656
1209 4.33473 3.31338 4.27143 0.94723 0.980988 -0.587716
1992 5.80463 4.21207 3.30927 1.16252 -1.86567 0.583107
3944 6.64599 3.68192 3.63554 0.0238537 1.01848 -0.659677
1760 7.42897 3.77714 2.93243 2.00831 0.186088 1.51857
1958 8.46063 3.88514 3.21746 -0.795112 -0.740302 -1.07079
2808 9.07921 3.66761 4.08937 -0.64394 0.552015 -1.78049
1413 10.6379 3.92102 3.07831 -1.72514 -0.883451 0.385444
2946 11.1452 3.14637 3.57075 -2.31954 -1.4684 -0.964662
1548 10.2396 3.54563 4.01548 0.263466 -1.08528 0.109761
2564 11.8533 3.87732 3.35475 0.527277 -2.73035 -2.13503
136 12.0271 3.25597 4.18311 0.659011 -0.651539 0.545216
3802 13.2037 2.87035 3.09655 0.901315 -0.254386 -0.723691
339 14.1601 3.23677 3.53764 -0.367043 0.149881 0.904648
1690 13.0527 3.1698 4.14158 1.07738 0.15821 -1.66043
1718 14.9808 3.41941 2.864 -1.68321 0.522686 1.80969
3145 15.0933 3.26745 4.149 -1.06669 0.195048 -0.795751
47 16.9382 3.19281 4.18246 1.63944 -1.5287 -0.309247
2951 16.8808 3.00863 3.11314 -0.628469 0.36037 1.50422
2945 17.0483 4.05372 3.31618 0.34455 0.250135 1.64331
3777 16.06 3.79949 3.60563 1.53845 -0.703693 -0.323039
2789 0.10205 5.03817 3.04004 0.360286 0.910476 -0.875213
1003 0.925624 4.45743 3.85954 2.28101 0.289405 -1.17318
1956 0.532291 5.66208 3.7782 -1.16939 -1.64067 0.0538186
1527 1.66162 5.54983 3.65593 -0.880694 -0.155748 -1.36021
3300 2.77843 4.79295 3.39333 0.198197 -0.805285 -0.168491
921 3.68225 5.21371 4.14688 -0.490012 1.13537 0.087698
1262 3.77409 5.34847 2.99823 -0.660103 0.951503 -0.105205
2788 5.55027 5.27196 3.60041 -0.742533 -0.807443 -1.23499
2940 4.82961 4.33424 3.9624 -0.183023 1.98927 -0.806029
119 4.82341 4.78811 2.9015 1.01415 -0.615088 0.0957928
316 6.52716 5.01736 3.3051 0.333159 0.759133 0.212195
273 7.42027 5.68606 4.07456 0.930798 -0.427676 0.0933434
35 7.38264 4.69761 3.81379 -1.10283 -0.565116 -0.341001
640 8.07008 4.93387 3.08347 2.03014 0.359161 0.120967
2750 8.47866 4.61451 4.04822 1.0498 -0.124666 -0.81641
19 9.36157 4.32667 3.35491 0.44409 0.884478 1.20534
3837 9.17908 5.47012 3.28792 -0.46665 -0.779397 -0.99477
3011 10.5502 5.37881 2.93192 0.266137 0.362932 0.862357
2916 10.208 4.88372 3.75194 -0.570817 -1.03657 -0.0714278
3829 11.1294 4.3313 3.94069 -0.827578 0.927159 1.45895
2919 11.6656 4.92373 3.22225 0.472966 -1.49756 -2.59933
1050 12.7794 4.33357 3.16782 0.842029 -2.07468 0.0766971
3946 12.531 4.30051 4.19223 1.41897 -1.08801 1.92838
370 12.4436 5.30165 3.9077 0.916695 -0.210278 1.22956
2748 13.7635 4.3898 3.6287 -0.741956 -0.79954 0.0761832
3136 14.0781 5.3359 3.26623 -1.12207 0.0810042 -0.273978
545 15.5221 4.80528 3.76305 -1.00397 -0.0394775 1.36855
3844 14.711 4.40462 3.28476 0.37832 -2.08021 0.224388
3427 14.7814 5.44302 3.96689 -0.828656 0.874665 -2.01115
904 16.5363 4.77271 3.94613 -0.459959 -0.01548 -0.103802
3910 0.7311 6.31945 3.08742 -1.146 -0.818962 1.17918
3966 0.254289 6.72586 3.87872 -0.113027 1.28082 -0.0512443
2035 1.91494 6.58919 3.54973 0.732359 -0.224743 -0.357864
2722 3.97887 6.40195 3.07073 1.4979 0.822811 -0.758433
3651 3.07584 5.93695 3.44696 0.640099 0.177293 2.04126
1682 3.08076 6.93168 3.60254 -0.0667201 -0.896229 -0.252378
2556 4.15839 6.81023 3.99281 -0.0465331 0.382945 0.523542
1833 4.98508 6.71603 3.33428 -0.182271 0.337694 -0.160612
1396 4.45378 5.85538 3.99823 0.694833 -0.287463 -1.08804
1622 5.54091 6.23055 4.15193 -0.575539 -1.30178 -0.692996
3737 6.50584 6.07052 3.63805 -0.333693 -0.0821207 0.173763
2323 7.23936 6.84015 3.68238 0.945264 -0.116764 -0.182309
562 8.47 7.11199 3.05225 0.424128 0.347003 0.0640012
3007 8.17951 6.14468 3.30982 2.37437 -0.143775 -0.380621
889 9.84062 5.7973 4.04911 -0.0197486 -1.10303 0.798891
3101 9.35853 6.60233 3.45634 0.627128 0.833882 -0.371735
689 8.87796 5.85829 4.20594 1.85962 0.534016 0.116033
2183 10.3567 6.52895 3.10791 -0.570803 1.49845 -0.888917
1661 11.0976 5.9093 3.80228 -0.207706 0.316379 0.552445
473 11.1373 7.02008 3.55722 -0.324784 -1.42881 -0.813394
1344 12.574 5.74395 3.07625 0.401511 -0.652722 0.45189
2476 11.7766 6.56659 2.90477 -0.371793 -0.974689 0.253678
3318 12.3287 6.33747 4.02329 1.05083 -0.477526 -1.55785
1503 13.3089 6.47209 3.19436 1.75762 0.224827 -0.341095
1381 13.7757 6.27694 4.22039 -0.201648 -0.52267 -0.55612
188 14.4416 6.4029 3.37956 0.0197656 -0.455204 -0.767236
2567 15.4314 6.12988 3.35238 2.00007 0.696499 -0.13949
2050 16.3575 5.76205 3.67511 -1.1746 -0.289943 0.34183
3499 16.099 6.92002 3.92633 -0.823205 -1.67379 -0.345327
2817 0.474008 7.84761 3.72036 0.0798946 0.316031 -1.4319
2353 2.3916 8.31281 3.87985 -0.64111 -0.18563 -1.95927
2291 1.49741 7.54473 3.18141 1.29208 0.277331 0.092743
3227 2.43003 7.68379 2.90158 -0.448319 0.4107 1.0466
3983 3.68352 8.0968 3.60973 0.952219 0.00756196 -1.12948
834 5.3594 7.50158 4.24724 0.321658 1.0708 1.5041
346 4.62905 7.65746 3.58187 -1.40053 0.426122 -0.515169
814 6.17478 7.90148 3.04129 0.288398 1.74739 0.579274
2108 6.18582 7.19371 3.94355 -0.527747 0.0193159 1.12406
2223 7.21006 8.47994 3.30616 0.0624834 -0.704041 -1.47323
3773 7.77006 7.67841 3.51781 1.54787 0.0575245 -0.474267
3206 9.67378 8.54022 3.24547 1.47812 0.282435 0.470643
74 9.03855 8.44286 4.19015 1.80967 0.217572 -2.03078
265 9.09055 7.72261 3.56835 -1.17696 -0.261595 -0.278908
3125 11.1562 8.15066 3.45818 -0.384887 -0.596117 -1.42379
3800 10.2549 7.43918 3.5378 0.749881 0.412438 -0.317487
626 12.5613 7.17153 2.95586 -0.347126 -0.831674 -1.06066
3622 12.085 8.09948 4.02461 -1.11562 1.34946 -0.163094
1626 13.1599 8.175 4.14601 0.739309 0.470962 -1.12123
1303 14.0643 7.37325 4.00338 2.0753 -0.0923389 1.86377
792 12.8315 7.20559 3.90885 1.34014 0.0394842 0.0129104
36 13.3237 7.86933 3.2046 -1.04003 0.219668 0.0825602
2965 14.5566 8.19774 3.52029 0.303574 -0.190236 -0.995848
978 15.1093 7.13133 3.01079 -1.75818 -1.42873 0.173565
1979 15.2895 7.52595 4.22312 1.69826 1.22778 0.504765
998 16.5275 8.06293 3.56728 -0.383995 0.95723 -0.323477
1882 1.34933 0.202156 5.12921 1.32941 -1.25751 0.892544
3638 1.57686 1.16721 4.73688 0.914345 -0.433268 1.53273
2069 2.28423 0.679857 5.2186 0.457153 1.4525 -1.52271
958 3.23383 0.0168662 5.04261 -0.382434 -1.59445 0.274832
557 3.21823 1.34307 5.00787 1.07354 -0.607315 0.059432
785 4.2534 0.720019 5.27594 -0.325055 1.10113 1.72215
1113 5.4637 0.810354 5.4622 -0.0178461 -0.304551 -0.256211
2172 6.18431 0.303508 4.67202 -0.433265 -1.05199 1.37549
724 6.95527 0.602855 5.45467 1.33741 -0.770513 0.517691
2585 5.70584 1.33416 4.43157 1.53453 0.232195 -0.982383
3261 7.83884 1.03419 4.47685 0.337986 -1.43854 -0.662654
239 8.04835 0.168642 5.02817 0.645971 0.26788 0.622474
3579 8.98596 0.858828 4.33544 -0.290288 -1.03275 0.0435434
741 8.56013 0.951373 5.34368 -0.815905 -1.31229 0.256373
418 10.7748 0.452755 5.62789 -3.10631 0.435016 0.047556
3347 10.0487 0.463463 4.68401 0.984977 -1.53415 0.236416
1465 12.013 0.477798 4.43553 1.17346 0.965041 -0.35767
3113 12.9819 0.101783 4.31576 1.30886 -0.101579 -0.908909
467 12.979 1.04566 4.70214 -0.741464 0.320998 -0.937104
951 13.8577 0.588127 5.06698 -0.0337255 0.497017 1.17795
1829 15.4012 0.935545 4.45776 -0.472112 -0.0101774 0.322256
1799 14.3072 1.34098 4.53745 -0.643821 -0.682115 -2.22871
3334 15.8532 0.112265 5.10203 -1.11567 -1.23825 0.228211
2944 17.0181 0.327574 5.08269 0.759599 0.510676 0.651419
797 1.04054 2.67352 4.56553 0.264989 1.35555 0.978247
3438 0.207216 2.35262 5.23064 -0.489039 -0.70565 0.0869381
3242 0.748217 1.59314 4.69589 0.434769 0.273825 -0.949742
1178 2.64746 2.19025 4.70317 -2.18498 -1.47442 0.592136
983 2.16786 1.69766 5.48187 -0.485644 -0.51804 -0.317602
355 1.74142 2.52732 5.308 0.680133 1.1386 1.19744
2487 3.7719 2.19095 4.57576 1.28803 0.928517 -0.489541
3077 3.33817 2.32268 5.60204 0.149664 0.712653 -2.37857
2165 5.03002 2.42972 4.80945 0.735062 -1.18391 1.96947
504 4.71687 1.62752 4.34382 1.37972 0.305816 0.626955
635 5.36258 1.8896 5.54121 0.912888 1.68524 0.689766
394 4.39711 2.20642 5.60648 -0.512245 -0.210333 -0.779939
3483 6.71743 1.78392 4.97345 0.808297 1.11782 0.177787
3843 7.50355 2.66655 4.49014 -1.29025 1.37518 -0.314647
3194 8.39489 2.06001 4.5692 -0.421724 -1.51271 1.11143
2497 7.62295 1.55441 5.37098 0.250019 -0.293489 0.0784845