ITEM: TIMESTEP
58000
ITEM: NUMBER OF ATOMS
4000
ITEM: BOX BOUNDS pp pp pp
0.0000000000000000e+00 1.7099759466766969e+01
0.0000000000000000e+00 1.7099759466766969e+01
0.0000000000000000e+00 1.7099759466766969e+01
ITEM: ATOMS id x y z vx vy vz
1462 1.10609 1.07967 0.417639 -0.356054 2.13873 0.607496
187 0.81854 0.104445 0.671019 -0.142847 0.209776 1.29434
72 2.73106 0.687532 1.25884 0.417295 0.271079 -1.23345
1987 2.16897 1.21222 0.241392 -0.477719 0.239445 1.41184
2206 1.66097 0.493883 1.08945 -0.177193 -1.75383 0.668436
1222 2.49005 0.0853241 0.484793 -0.350203 0.864223 0.81031
2780 3.6812 0.713884 0.453452 0.245625 -0.0365439 1.50665
992 4.78902 1.33031 1.30633 0.50342 0.14086 0.152193
3940 4.83348 1.10466 0.109348 -0.693366 0.522363 0.938912
504 5.09512 0.428502 0.833118 0.122224 0.912689 -0.22838
588 6.45034 1.08245 0.973506 -0.996566 -0.411672 -0.45291
3352 5.81874 0.306703 0.05861 0.365098 -1.59109 0.145707
2502 6.02875 1.32423 0.00828011 -0.449701 -0.305495 0.133503
743 7.24095 1.27774 0.262221 -1.0338 -1.90986 0.207213
239 7.28651 0.133217 1.12804 -0.32373 2.35047 0.68374
2338 7.97644 0.568009 0.48897 -0.224796 -0.19125 0.87795
3575 9.49171 0.0199585 0.537398 -0.0215596 1.65563 0.277381
1610 9.22987 1.19193 0.918252 0.166214 1.17703 0.565412
274 10.3637 0.103994 1.18242 0.0190158 0.302769 0.151315
844 10.6641 1.16546 1.34737 -0.805301 -0.713774 1.14963
357 10.1447 0.879746 0.438489 -0.38598 1.34989 0.592769
1621 12.6132 0.891168 1.07475 -2.86194 -0.626137 -0.369547
55 11.4046 0.46312 1.41374 -0.874315 0.744092 -0.620052
1762 11.7584 0.754988 0.468298 0.100041 0.778231 0.99136
2649 13.7002 0.5125 1.1777 0.501011 0.305679 1.71901
1920 15.3265 0.245144 0.539147 0.123072 -0.339485 -1.12534
963 14.5512 0.802192 0.657758 0.368167 0.294265 -1.28843
3174 16.0733 1.03059 0.752821 -0.365513 -0.856817 -1.70082
1856 17.0008 0.664195 0.93022 2.37445 -0.0522779 0.523773
2425 0.401338 1.45882 1.15306 0.966348 -0.493928 1.03869
4 0.843953 2.01505 0.447351 -0.382213 2.05915 2.05124
1200 2.20909 2.21993 0.586701 -0.355026 -0.82486 0.289923
482 1.4621 2.84208 1.03081 1.52333 0.0830757 -0.4455
3225 3.35195 2.8482 1.0083 0.121893 0.271859 -0.605889
1467 3.20474 1.72944 0.473357 1.22094 -0.336663 -0.629673
3821 4.04029 2.12317 1.11467 -1.51773 0.797493 -2.00742
1815 5.02063 2.00564 0.582598 2.10296 -1.23909 0.955095
1041 6.1751 1.98278 1.00437 -0.566853 -1.46535 0.311312
463 6.50043 2.16886 0.0636184 -0.201167 1.04294 -1.68372
3090 7.26873 2.01604 1.10043 -1.43269 1.32406 0.876424
3003 8.1954 1.77313 0.66862 -2.69699 0.643825 0.225772
3231 9.14956 2.03057 0.165438 -1.63354 -0.173766 0.455159
1891 10.6797 2.69827 0.735455 -1.72157 2.24787 -0.0878809
1175 11.2785 1.72261 0.475826 -1.07157 0.786198 -0.442989
3630 11.7409 2.61064 0.613927 -0.276129 1.11573 -0.963075
81 12.4938 1.74796 0.497517 -0.717337 -1.59362 1.02739
1912 13.5859 1.61414 0.550347 -2.26227 0.305163 0.402932
3460 13.0005 2.65113 0.671777 -1.01711 0.572274 1.98904
547 15.1322 1.57602 0.326584 1.04409 -2.48159 0.262218
3289 14.5158 1.91623 1.07578 1.09862 0.716436 0.702359
687 14.5354 2.59555 0.351352 -0.573098 0.0192099 -0.123642
1170 15.6149 1.92641 1.17089 -0.591754 -0.92613 -0.0768366
1539 16.6372 1.86116 1.07817 1.95436 -0.389817 -1.51818
2418 0.209205 2.90423 1.18137 0.170939 1.12618 0.403521
47 0.809021 3.76002 1.1017 -0.806935 -1.16673 -0.754475
3558 1.3475 3.17857 0.0557991 1.67065 -0.610222 -0.00137887
1151 0.204514 3.4159 0.237784 1.04506 0.969073 -1.41118
912 2.37481 4.17947 0.848114 1.48163 1.08944 0.31121
2045 1.58147 4.15685 0.0824535 0.105807 0.582887 -0.910876
3795 2.34495 3.28973 0.205484 1.55392 -1.04662 -0.591087
1667 3.71415 3.21181 0.0460965 0.193846 1.28826 -0.634637
1913 3.40557 3.8895 1.02715 0.121541 1.04396 -0.104148
989 5.1774 4.13414 0.701352 0.758401 -3.17313 -0.45485
733 5.5001 2.98964 0.627763 -0.126858 0.324633 -0.293415
2331 4.44799 3.31618 0.752762 -1.5434 1.01952 1.0588
16 6.97391 4.14632 1.29862 0.0756766 0.197637 -1.91399
1383 6.53542 3.17709 0.448081 -0.698143 1.38166 0.68184
1864 5.74217 3.52975 1.39286 -1.09282 -0.565643 -0.571814
3009 7.18205 4.16823 0.0289619 0.101365 -1.03729 0.535279
478 7.67195 3.00493 0.514167 0.685553 1.84821 -1.4398
3660 8.04431 4.17723 0.635415 -0.757261 0.146447 0.194805
2067 8.8011 3.75688 0.0360386 -2.65714 0.663046 -0.865393
3636 8.74414 2.90772 0.564239 0.469898 -0.176331 1.22447
3551 9.07739 4.14097 1.14298 -0.287764 -0.554457 -0.369066
3027 9.74042 4.16643 0.312908 -0.517962 0.465464 -0.089707
2431 11.3181 3.36993 1.23449 1.48532 -0.327302 1.81333
1687 11.5444 3.53854 0.251758 -1.90099 -0.595056 1.89273
2354 12.7223 3.55531 1.31234 0.0951049 -0.652849 0.800399
2994 12.5808 3.74201 0.177305 0.40442 -0.141319 -0.925178
3020 13.91 2.89581 1.15747 -1.48241 1.02435 0.608928
2289 13.6667 3.55588 0.260494 0.821645 -0.857582 0.389899
3555 14.654 3.63106 0.728665 -0.324906 1.62054 0.247637
3706 15.2972 2.91536 1.14765 -0.334 -0.413123 0.4106
201 16.1498 3.04355 0.501457 -0.921875 -0.296099 -0.24556
3161 16.0281 4.1311 0.352662 0.108521 0.7531 1.95513
2685 0.128641 4.38601 0.184845 0.977969 0.059253 0.449532
904 0.5579 5.22011 1.1608 0.851598 0.686762 -0.0920731
1005 2.52599 5.4621 0.983044 0.895694 0.328306 1.1025
2503 1.47293 4.7533 1.03222 0.752157 -0.461526 -1.45525
2991 1.85627 5.37201 0.157738 -0.206978 1.67797 -0.368082
891 3.29644 4.99462 0.2528 1.66306 0.208899 0.272366
1414 3.47451 4.96595 1.39159 0.416955 0.66327 0.881684
2129 4.27076 4.37069 1.01269 0.174646 -1.02023 0.995004
2323 4.42899 5.37979 0.801303 -0.478738 0.919391 1.20051
562 5.42539 5.32803 1.19667 0.0643715 -0.295712 0.751993
3260 6.5689 5.40322 1.1772 -1.43244 -1.31928 -0.714024
3875 6.06558 4.51481 0.70586 -0.209022 0.216456 1.22711
1120 6.26529 5.41557 0.0846221 0.00925574 0.050624 -0.06074
2079 7.51782 5.08463 0.606967 1.78701 -0.886706 -1.6104
265 8.60245 5.16436 0.840648 -0.272976 0.589671 -0.574107
2410 9.29676 5.03191 0.0746921 -0.583263 1.3077 0.630544
3704 10.9364 4.31071 0.526557 0.286439 0.678632 -0.339097
1152 10.2377 5.21553 0.225925 -0.0191722 0.550998 -1.4679
3057 10.4161 5.02446 1.22786 0.153664 0.560836 -0.927527
2846 12.0741 4.34893 0.852855 -0.857056 0.345614 1.37543
2266 11.4926 5.28943 0.631892 0.715088 -1.63326 -0.399167
3440 13.6392 5.4598 0.642671 -2.017 -0.23172 -0.994886
1605 13.0145 4.59949 1.03569 0.211562 -1.57262 -1.22009
2576 14.0028 4.52897 0.341704 0.427489 0.914953 -0.67297
2294 15.1031 5.56543 0.0968489 0.485426 1.09998 -0.80759
3890 14.9558 4.54951 1.14404 -1.71723 -0.335298 -0.672197
664 14.7534 5.63201 1.0882 -1.77075 0.660475 -0.290865
1710 16.8432 4.48096 1.10265 1.02037 -0.614752 0.321652
920 15.8849 5.19358 0.921259 -0.819112 -0.28582 0.0404002
2909 0.445556 6.59708 0.634136 2.58426 2.14794 0.121445
2789 1.08205 6.12373 0.0115502 0.624154 -1.09348 -0.454364
688 1.4859 5.80903 1.118 0.930273 0.368415 0.430081
2375 1.46175 6.92805 0.832639 -0.6378 -0.534323 0.330002
3923 2.43408 6.61946 0.989509 -2.09097 -1.40222 1.078
498 4.1274 6.57328 0.479028 -1.33443 -0.197861 0.527422
3267 3.41447 6.20331 1.11324 1.08185 0.0537685 1.79536
204 4.70022 6.26756 1.36887 -0.587043 -0.0148337 -0.458598
1487 5.15236 5.79131 0.245052 -2.05374 -1.33852 0.121353
3736 7.05201 7.10866 0.30048 -1.53685 2.14971 -1.50964
273 7.07453 6.38745 1.3142 -2.47593 -0.132272 -0.518976
900 5.74961 6.26491 1.41638 -0.089333 1.01793 1.18438
190 5.93085 7.0737 0.678372 0.227249 0.396843 -0.309754
1747 8.24794 6.08966 1.33755 -1.11466 0.422197 -1.47741
2774 8.03124 7.08061 1.16693 -0.546588 -0.188368 -1.24411
3796 8.45376 6.69748 0.318872 -0.474824 -1.11297 0.0596558
409 7.39685 6.11425 0.215676 0.884465 1.46366 -0.756739
473 9.13419 6.80201 1.09471 -0.956734 1.61887 0.139332
1983 9.59416 5.83067 0.790941 -2.00627 0.992275 -0.978402
174 11.075 6.96568 1.18393 -0.6757 1.014 1.2415
523 10.8346 6.01875 0.0511518 1.16112 -2.79157 -0.545965
106 10.9819 5.95056 1.30952 -0.804223 -0.296769 0.537324
3408 10.1839 6.8994 0.525539 -0.992447 0.247575 -0.236704
2385 11.8359 6.24394 0.743471 0.381971 1.22332 -1.29264
1246 12.6367 5.87085 0.4712 -1.50583 -0.97525 -0.764529
1290 13.1536 6.61936 1.01744 -1.08207 -0.54198 -2.19298
1784 14.2962 6.56594 0.920097 1.10895 0.547042 -1.23058
1312 16.5859 6.83634 0.793332 -1.47516 1.54825 -2.46148
3723 16.679 5.8798 0.500353 -0.342523 0.90602 -1.13491
1024 15.6915 6.29913 0.526438 1.18376 -0.0871945 0.332215
754 0.629327 7.63726 0.744371 3.60188 1.13673 1.12454
3869 1.31076 8.46053 0.931035 -1.99344 0.616351 0.50256
552 2.23059 7.79009 1.1702 -1.12078 1.44863 -0.727464
2328 4.05486 7.85618 0.583711 2.05348 0.174486 0.588161
3760 3.16786 7.26764 0.573778 -0.617039 1.64709 -0.418079
553 3.20587 8.48612 0.663684 2.03177 0.702266 0.339984
602 3.89373 8.40701 1.41235 0.0537208 1.41844 0.754698
3957 4.8198 7.18662 0.819508 0.657018 -0.444901 0.714153
2570 6.01436 7.98419 1.42224 1.51684 -0.741034 0.950108
1591 6.07943 8.33453 0.361659 0.18563 -1.18347 -0.625725
1854 7.00167 8.42789 0.787338 -1.13528 1.03804 0.434707
3433 8.34067 8.14401 0.855094 2.01529 0.470742 -0.303354
1732 9.39387 7.73163 0.345015 -0.28701 -0.100677 -2.01465
575 9.74926 7.60035 1.28212 -0.110388 -0.0346306 -0.174239
3932 10.5725 7.85751 0.682527 -1.39756 -0.615896 -0.508877
631 12.2676 7.33556 0.679581 -0.157426 -0.397175 -0.22182
2899 11.4929 8.01584 1.30406 0.292033 1.23074 1.61163
3603 11.4883 8.50689 0.370366 0.17781 -1.53285 2.14224
832 14.1107 8.06623 0.339425 1.3889 -1.00444 1.31348
337 13.9016 7.4175 1.40236 -0.0931436 -2.82125 0.690335
3223 13.0473 7.36763 0.0918212 -1.08101 -0.411494 0.372705
2958 13.0493 8.00101 1.06044 -0.167356 -0.0507053 0.0550078
3642 15.0918 7.53811 0.343954 0.383285 1.62875 0.483043
1081 16.5539 7.91046 0.493153 0.742611 -0.601619 1.21976
2255 15.6896 8.29077 1.05514 -0.663696 0.622203 -0.891653
3036 0.565798 0.364994 1.96256 1.06039 1.60508 1.80025
597 0.0458832 1.36574 2.2061 -0.575372 -1.72942 -1.57002
3373 2.54435 1.3727 2.42087 -1.24561 -1.73449 -0.0282205
3410 1.52634 0.940669 2.573 0.969303 1.13156 -0.835343
948 2.24194 0.0996783 1.93558 -0.559574 -0.112837 0.0139704
1182 3.80278 1.09807 1.46683 0.703497 -0.23234 0.670499
1534 5.54716 0.000174441 1.61761 -0.0454789 -1.44671 0.683829
2472 4.42053 0.327475 2.03638 -0.388069 0.852489 0.5228
2593 5.63856 0.972686 1.93528 -0.890228 -1.03305 0.37434
2195 4.81783 1.07832 2.82305 0.0100975 0.74763 0.471221
2081 5.86639 1.35793 2.83633 0.805778 0.866067 -0.783132
3691 6.79422 0.688627 1.84287 -1.07338 -0.312746 2.771
3336 7.92912 1.12391 1.49221 -0.353283 -1.69486 -0.227342
1712 7.51524 0.703524 2.75024 0.408366 -0.0258339 -0.624315
3370 9.71035 0.639991 2.02062 -1.57043 0.70313 -1.13222
3851 8.59149 0.706582 2.44618 -0.992989 0.0162697 1.35663
898 10.7532 0.557576 2.1561 -0.639162 -0.72359 1.05432
1874 12.6606 0.088775 2.16726 0.79694 0.312215 0.379978
313 11.9725 0.873118 2.11566 1.66531 0.425162 -0.825383
3853 12.9088 1.17022 2.46344 0.168488 -1.19221 0.162424
3924 13.7155 0.475884 2.26903 -0.796658 -0.100186 0.817789
1417 15.4631 1.09715 1.66702 -1.1732 1.05312 -0.362781
535 14.4481 1.15395 1.72208 1.32961 0.106742 0.428043
3317 14.8772 0.406914 2.54075 1.04369 1.38884 0.381481
827 14.7518 0.146491 1.49726 -0.540621 -0.161506 -1.35917
1972 16.4412 0.593091 2.06955 -1.33311 -0.784325 0.630115
3841 0.89766 2.13176 1.97833 1.25755 -0.438225 -0.678605
2734 1.80027 1.47785 1.59186 1.82167 -1.3512 -0.255174
75 1.73372 2.17687 2.55604 1.5497 0.423676 0.848221
717 2.81021 2.5868 2.7432 -0.133534 0.658664 0.693727
3119 2.38132 2.54256 1.60648 -0.891665 -0.344481 0.267509
3407 3.33013 2.0517 1.91966 -1.37184 1.15905 -1.21444
1426 4.38446 1.89085 2.2104 -0.0464949 -1.24119 -0.567288
476 5.30948 2.15919 2.62656 -1.27611 -0.399073 0.250234
1580 4.95991 2.40152 1.45126 0.889079 -0.544963 2.28373
1980 6.177 2.10887 2.00272 -1.13613 -0.336905 0.00569478
191 8.15066 2.55172 1.49745 -1.98524 -1.70802 -1.69896
829 7.33696 1.73577 2.24519 -1.07071 0.695045 -1.27443
335 8.09471 2.28204 2.58633 1.36342 1.02486 -0.588792
501 9.21801 2.76292 1.58637 0.0197225 2.7073 -0.854822
726 8.86022 1.72506 1.75868 -0.525752 0.606025 -1.18893
2703 9.23983 2.35164 2.64834 0.188166 -0.796889 0.593965
429 11.1888 2.5359 1.83446 -0.904419 1.18552 0.491107
675 10.0425 1.98799 1.66485 -0.949141 -2.07784 -1.24344
847 11.0512 1.66032 2.20031 -0.260323 1.69345 2.13543
3627 10.3061 2.53891 2.50474 1.0541 -0.140891 2.78617
2959 12.0187 2.08063 2.60619 -0.503553 1.26543 0.501291
3954 12.1718 2.47534 1.53058 0.196112 -1.82982 0.473018
2434 13.1973 2.63966 1.85469 -1.10573 1.38669 0.592674
3960 13.9285 1.59686 2.62362 0.90013 -1.14561 -0.938505
3419 13.5251 1.72721 1.64995 -0.451601 0.424989 -1.03565
1648 14.4476 2.58598 2.29337 -1.83397 -0.909986 -0.991782
1375 15.1589 1.79383 2.64108 -2.17093 1.14725 -0.538608
2145 16.1206 1.87243 2.09333 0.225687 -0.247584 0.939529
2826 17.0783 2.55607 2.51976 -0.342881 0.0930748 -0.0834662
2247 0.859794 3.11643 1.96688 -0.827448 0.340114 -1.38833
2405 1.74968 3.89092 1.79196 1.58246 0.215162 -1.86552
797 1.68004 3.32671 2.82423 -0.434693 0.103122 1.72106
1976 2.73399 3.55309 1.77793 -0.439417 0.467316 -0.529139
2588 4.03243 3.01145 1.77317 -0.615734 -0.195841 -0.0637607
2867 3.6555 4.17457 2.03737 0.267095 0.105683 -0.411834
2976 3.36751 3.41826 2.66304 0.354243 -0.954085 0.972201
686 5.04057 3.16993 2.33445 0.893714 -2.07833 -1.06111
342 4.63612 4.10671 2.7129 1.19335 1.55971 0.529648
3363 6.14921 3.10393 2.61954 0.289631 -0.482995 0.952145
1992 6.42831 4.13193 2.523 0.882537 0.177541 -0.741827
1452 6.99276 3.06561 1.83923 -0.914098 1.19505 -0.0625836
321 7.99329 3.60133 1.49226 0.162111 2.47657 0.273965
3659 8.52644 3.17572 2.35871 -1.25225 -0.657019 -1.72491
1188 9.37659 3.61849 2.14027 0.248225 1.10581 0.716916
231 10.3199 4.11605 1.93144 0.839647 1.81437 0.594607
1090 10.3146 3.13355 1.65392 -1.45017 -0.241548 -1.18685
1233 11.3264 4.0609 2.23952 -0.631726 -1.54175 0.413818
2077 11.8924 3.24797 2.34403 -0.133266 0.445876 -0.413437
1708 13.6614 3.81215 1.8023 -0.130306 1.18395 1.01255
2946 12.8874 3.44181 2.51917 -0.0591282 -0.55097 0.106032
339 14.6137 3.49976 1.96326 0.105654 1.88111 0.771136
3672 14.9936 4.26841 2.5683 -0.226778 0.143809 -0.135054
2216 17.0714 3.75852 1.82689 -1.36041 0.427985 -1.40473
956 16.2196 2.97123 2.07325 -1.42129 1.75329 -2.3681
1718 15.9844 3.98126 1.59527 -2.69073 0.261644 -0.936255
931 16.7185 3.74375 2.75207 -0.892198 -0.39896 0.535761
941 1.13462 4.51761 2.52332 0.635293 -0.103443 -0.602796
424 0.113709 4.93664 2.14246 -1.77082 -0.681413 0.477993
2722 0.962628 5.47982 2.09103 -0.434546 0.734155 -0.532565
1003 2.54087 4.2892 2.59307 -0.725623 -0.844559 0.752666
1332 1.929 4.95864 2.04686 0.329378 0.91577 0.171127
2951 2.94508 5.20656 2.40802 0.781397 0.737476 -1.07177
2488 5.23593 4.41541 1.95562 0.568668 0.566304 -2.04196
2558 4.38359 5.1932 1.84875 2.21306 -0.414149 0.3494
237 5.6628 5.53813 2.21624 1.70802 -0.66665 -0.593864
3580 6.19697 4.80061 1.89012 -0.0132649 0.850325 -0.888468
3919 8.00643 4.77306 1.65398 -0.955733 -0.128165 -0.537273
35 8.35457 4.6895 2.56412 -0.402631 -0.392275 1.50705
913 7.13283 5.02656 2.50044 -0.804406 1.28016 1.94186
3007 9.38933 4.63312 2.06879 0.627801 0.668373 -0.174947
3837 10.0515 5.5534 2.53387 0.517634 -3.18974 0.953853
3204 11.1096 5.38391 2.29298 1.50971 -0.350744 1.06239
811 11.9812 5.39135 1.4666 0.10966 0.497398 -0.13021
677 12.338 4.35578 1.90684 -0.958318 1.19009 1.1844
3802 12.2862 5.26584 2.51495 0.434336 0.0746076 1.27397
3637 14.119 4.97531 1.72871 -0.657093 -0.657129 -0.0378588
80 13.2973 4.6925 2.38851 0.105967 0.139367 -0.147288
1015 13.1585 5.5167 1.72248 0.504224 -1.22691 0.775354
2537 14.1715 5.10429 2.79857 -0.235272 0.792046 -0.981955
1909 15.0586 5.19319 2.07527 1.4472 0.733488 -0.436786
212 16.5173 5.52218 1.71606 1.21002 -0.871866 -1.79272
2412 16.2382 4.80473 2.36802 0.949338 -0.705935 -2.54542
545 0.338989 6.35199 1.62713 1.7642 -0.264232 0.656335
390 1.31632 6.4112 2.3731 -0.531283 -0.735657 0.0798636
1235 0.33587 6.08137 2.77333 -0.29152 -0.341177 1.5396
3910 2.45642 6.09635 1.98425 2.27059 0.608535 0.313862
1214 2.0088 7.09585 1.8745 0.867853 -0.0570428 -0.208226
460 3.58109 6.02788 2.01829 -1.0917 1.21797 -0.221313
3801 3.05067 7.04397 1.70179 0.100517 -0.2258 1.08853
1640 3.23763 6.5742 2.83337 0.708004 -0.469359 -0.170272
119 4.48777 6.73525 2.40864 -2.1406 -1.56686 -0.685171
2108 5.22019 7.07612 1.73196 -2.08184 -0.166572 0.234337
316 5.38933 7.02024 2.79378 2.30185 -0.492807 0.728357
1265 6.69196 6.07007 2.27341 -0.230482 0.138154 0.886617
3087 7.86892 5.9256 2.25446 0.596751 -0.601736 0.519685
1408 9.20794 5.77575 1.91683 0.880638 1.28525 0.471875
1943 8.66079 6.57947 2.08115 0.07959 -0.606516 -0.732001
2902 10.0819 6.56091 1.60517 -0.938178 1.04465 0.862977
2633 10.0072 7.10477 2.4896 -0.273077 0.836935 0.118529
1212 10.7998 6.37145 2.43484 0.863272 -1.10963 0.357048
2303 11.7936 6.3039 2.70423 1.13577 0.715632 2.52548
3011 12.1819 6.44499 1.70482 -0.241347 -1.03418 1.10727
415 13.9617 5.97741 2.13936 -0.829981 -0.262123 1.57051
1050 13.074 6.52912 2.29196 0.559775 0.842905 0.973865
2293 15.2344 6.35264 2.23172 -0.0421508 1.05367 -1.73346
132 16.4435 6.41857 2.17408 -0.320403 -2.1916 0.042492
524 0.465659 8.3482 1.99967 0.0649583 1.94191 -0.807057
2010 0.667759 7.24466 2.34228 1.06097 -0.867224 -1.55261
1400 1.11762 7.70621 1.63287 1.01989 -1.01999 -1.34266
771 1.20731 8.53667 2.80542 -1.28222 1.14041 -0.750386
2720 0.0312751 7.41191 1.52344 -0.0512236 0.197504 0.507223
3250 1.52065 7.57391 2.78403 -0.00197526 0.101537 0.354015
3388 2.60612 7.58093 2.55193 0.497832 2.07186 -1.33765
1495 4.04473 7.30903 1.68118 0.112033 -0.896518 2.79885
101 3.00053 8.5202 2.02629 -0.187749 0.33611 1.60912
11 3.58136 7.54758 2.65284 0.577336 -0.423964 -0.910443
2056 5.61827 7.91745 2.43516 0.237727 0.573977 1.09973
3651 4.61132 7.99041 2.81645 -0.411922 -0.916523 1.40237
2977 4.91769 8.03011 1.50085 2.18037 -0.414347 -1.74229
2302 6.40877 7.15244 1.9681 -0.206783 -0.401436 0.880109
2198 6.61536 8.33798 2.24263 -1.42563 -0.755113 0.699008
1847 7.30486 7.39181 2.4959 1.93094 0.411948 0.640799
765 7.63194 7.91299 1.53998 0.914826 1.27889 -0.237596
3144 8.76095 7.65908 1.79061 0.746655 -0.242706 1.49387
496 10.5852 7.83037 1.8019 -0.556962 1.2296 -0.794857
3318 10.8767 7.57631 2.78719 -1.07507 0.679245 -0.789361
189 11.2402 8.49289 2.46439 1.01213 -1.23919 -0.438461
639 12.568 7.40042 1.90907 -1.08356 -0.415883 -0.387478
1774 12.4422 8.3611 2.26787 -1.79179 0.366101 -0.891887
655 11.4271 7.13967 2.0645 0.772693 0.198011 1.6213
2933 13.4468 7.68161 2.49501 0.438873 -0.508562 0.984103
1021 14.9763 7.43974 1.54699 0.180662 0.917698 -0.412087
3499 14.5573 7.31628 2.53117 1.46972 -1.76864 -0.796512
1845 14.9651 8.33784 2.02891 -0.637386 0.576021 -0.596963
2050 15.9953 7.34028 1.47803 -0.527915 -1.02587 0.894296
932 15.7407 7.31877 2.77491 0.799215 -0.0664041 0.220947
1937 16.7519 7.48208 2.5447 -1.31993 -0.885887 -0.339201
843 15.9755 8.51361 2.17538 -2.9777 0.742782 1.18564
1633 0.165047 0.506981 4.05103 0.274444 0.584564 0.194414
3688 0.957781 0.676371 3.36989 1.38983 -1.20357 -0.439752
3145 2.20135 0.888747 3.70584 -0.357301 0.164987 0.418643
3539 3.63581 0.0908706 4.1038 -0.358445 0.812879 1.53681
773 3.11908 0.689791 3.27181 0.493268 0.461847 0.928604
3115 5.47632 0.787693 3.61312 0.473961 0.00832459 -1.21196
2834 4.37558 0.579421 3.54085 0.00847595 -0.585575 -1.17077
1638 6.81949 0.783258 3.58846 -0.764363 0.620677 -0.87433
300 7.99736 0.515655 3.61871 -0.356032 -0.270293 0.203676
2758 8.90785 1.08826 4.21122 1.10973 0.209765 -1.12023
1842 9.02231 0.472382 3.42949 0.229125 0.376608 2.51973
281 10.0096 0.437287 3.77239 -0.529648 -0.0823181 0.115985
3665 11.0527 0.119717 3.36824 0.270983 -0.0787455 -0.57663
3765 12.6228 0.302384 4.21997 -0.20246 0.771365 -1.11923
1318 11.6519 0.144852 4.24181 1.41061 -0.386907 0.328014
3338 12.2049 0.118138 3.16063 1.44419 0.355814 0.621245
144 12.1825 1.0449 3.79995 1.07591 1.20998 -0.487234
2451 11.5027 1.15532 2.94153 -0.00350677 0.66971 1.28843
1465 13.1346 0.722257 3.31198 0.0807542 1.13467 -1.3178
157 14.0446 0.280814 3.33782 0.599151 2.25483 0.761942
1437 15.6072 0.383944 3.45672 0.652304 0.62029 -1.31392
2351 14.7223 1.29773 3.41232 1.35535 0.511308 -0.290449
3390 14.783 0.460559 4.13516 1.10151 0.514593 2.09448
1258 17.0896 1.30131 3.32324 -0.670568 0.350045 -0.738989
359 16.0602 1.20908 3.00963 -0.424345 1.09704 -0.661386
1043 17.0933 0.193793 3.04119 2.19562 0.310737 1.14949
60 0.940884 2.7026 3.24456 1.76113 1.15365 -0.83671
895 0.895496 2.0477 4.05034 -1.01578 0.864962 0.136525
2154 2.77327 1.8326 3.63025 1.75413 1.22054 -0.0749987
2417 1.70705 1.74242 3.51382 0.639721 1.40089 1.42031
199 2.39709 2.69065 4.00899 0.457711 0.667089 -1.65015
871 3.55379 1.76161 2.88617 0.982175 -0.939393 -0.445738
1113 3.68553 1.47182 3.89159 0.329715 0.458963 -0.06568
1089 3.76636 2.67633 3.97916 -0.834053 0.847499 0.216773
2585 4.94759 1.71626 3.68032 -0.125956 1.11325 1.08268
1651 4.37422 2.49842 3.13722 -0.27747 0.302158 -0.0545545
1765 6.16832 1.62366 4.11357 0.466823 0.312917 -0.445668
3944 6.86315 2.55916 4.08261 0.027763 -1.89527 2.03289
2769 6.46125 2.12953 3.09104 1.6439 1.71285 -0.443763
2172 5.70361 2.51426 3.69218 0.127886 -0.969065 0.306763
906 8.44341 1.45594 3.22182 -0.0843413 1.06881 -0.858928
2888 7.9953 2.23528 4.20567 -0.817161 -1.77425 0.314206
2374 7.2926 1.64494 3.30813 -1.21219 0.513915 -0.226986
2363 9.46297 1.85982 3.74075 -0.706531 -1.04252 1.64569
888 9.85727 2.84948 3.55687 -1.93509 -0.15899 -1.60159
3088 8.84005 2.67122 3.84349 0.547847 -2.12494 -0.3368
2515 10.2717 1.51808 3.1195 -1.26152 0.632059 0.957065
860 10.6101 2.15202 3.81956 0.32566 0.389698 -0.206314
753 11.7777 2.21356 3.63794 0.0563277 -1.89274 -1.68729
1829 14.0119 2.33611 3.57239 0.0117121 -0.517914 0.427958
3472 13.6343 1.46042 3.88577 -0.135349 0.973386 -0.229169
434 12.9424 1.99227 3.15994 1.17533 -0.312441 -0.617379
3392 12.9358 2.51509 4.2126 -2.37037 0.230672 1.38383
262 15.8835 2.44045 3.15013 0.698617 -0.963998 -0.506138
3142 15.7448 2.73805 4.2014 2.27469 0.50022 0.0244035
805 0.636755 3.68512 2.99335 -1.13202 -1.58137 0.871232
3008 0.242074 3.97627 4.00595 -1.93298 1.46855 1.34909
2945 1.56536 3.27597 3.89531 -0.896756 0.994932 0.0437292
3200 1.66153 4.20331 3.52438 1.32839 1.20359 -0.901106
2480 2.83883 3.53055 3.51497 -0.693184 1.00016 -0.42255
3766 3.35796 4.05672 4.21702 -1.3442 0.776801 0.00840139
2784 4.40279 3.68925 3.64817 -0.76427 -2.42267 -0.268645
618 5.44508 4.17879 3.63278 -0.161561 -1.06342 -0.785746
3767 6.74262 3.44194 3.45873 1.41992 1.46254 2.33374
1841 7.488 4.12412 3.00219 -1.0597 -1.34891 -1.73032
3579 7.67961 3.03647 3.20554 0.742918 0.168434 0.371085
1643 8.23614 4.20247 3.7553 0.146927 -0.243713 0.137772
3374 9.25333 3.88621 4.13557 0.474772 -1.15159 0.841332
1413 8.89847 3.60668 3.15673 0.125308 -0.503759 0.125488
1035 10.2939 3.8056 3.94239 -0.0608854 -0.965469 -0.250587
3462 11.1678 2.87527 2.94374 1.75965 -0.537576 -0.558127
889 10.3064 3.58691 2.88208 -0.725769 1.12523 0.921349
587 11.3709 3.97752 3.31807 1.00683 1.32993 -0.341131
1064 11.1489 3.24354 3.94088 -0.499639 0.253078 -0.686835
3664 12.3744 2.87603 3.24516 0.560892 -0.341509 -1.26792
2237 12.7802 3.72162 3.84736 0.573499 0.809742 -0.820497
270 12.0758 3.02052 4.24418 -0.15932 -0.870851 0.0730068
1883 14.0271 4.11574 2.88423 -0.270743 -0.386078 0.893937
2551 13.9989 3.58211 4.0254 0.915197 1.62444 0.752408
421 14.6912 3.39513 3.23162 0.418361 0.513485 0.901998
355 15.7101 3.75903 3.24327 0.0224851 0.24106 0.660752
1178 16.9175 2.90457 3.43736 2.2954 -2.63208 -1.02936
1956 1.19412 5.41626 3.14549 -0.922137 0.193728 0.308301
3777 0.933435 4.99929 4.11077 -0.743824 -0.251307 -1.86373
1770 0.334438 4.84531 3.1203 0.0563075 -0.118099 -0.285153
3477 0.0532701 5.52759 4.22722 -0.98004 -0.911977 -0.478325
2756 2.68615 4.64542 3.628 -0.755023 -0.557343 0.348114
549 3.45587 5.69502 3.3545 1.18274 -1.39259 1.63344
651 3.81342 4.72557 3.28491 2.05185 1.75665 -0.960893
2162 3.55538 5.06383 4.27053 -0.133391 -1.09983 -0.134018
1989 4.7941 5.27983 2.85305 -0.357846 -0.826476 -0.243875
3300 4.57091 5.04923 3.96106 1.32003 0.565617 0.725421
89 6.58393 4.48185 3.69976 -0.289039 1.53025 0.327825
969 5.88743 4.97526 3.04735 -1.23231 0.0312402 1.20935
2369 6.79004 5.55204 3.46671 1.35284 0.726336 -0.502258
1402 5.89141 5.26642 4.05595 0.762348 -0.0714286 0.284339
1760 7.91728 5.20799 3.64917 -1.13716 -1.73757 -1.6949
2798 8.68897 5.67918 2.87714 -0.665674 0.969699 0.251001
2853 9.58841 4.38126 3.27519 0.597071 -2.12955 0.487967
2183 9.61307 5.36014 3.36094 1.37038 -0.715339 0.708416
467 10.4934 4.83641 3.06425 -1.50764 0.770697 1.29702
3911 10.8595 5.11871 4.16589 -1.6644 -0.899177 -0.694622
2854 11.4535 5.09527 3.27977 -0.226431 -0.682647 0.305539
222 12.0303 4.93209 4.17295 -0.564178 0.823062 0.492777
1548 12.8529 4.77096 3.39383 -0.239373 0.499689 -0.163904
1269 13.9548 5.18088 3.8688 -0.515127 2.33955 0.548505
3247 15.0017 4.45319 3.84528 -0.467775 -0.906828 -1.27652
2724 15.6126 4.95467 3.28327 0.638577 1.08793 -0.209953
401 16.6386 5.51922 3.32553 -0.322988 0.35162 0.491976
3749 16.5164 4.37816 3.46677 -0.833568 2.4676 1.31524
2883 0.808956 6.23209 3.86136 -0.963424 0.819588 -0.129641
1436 2.10738 6.74285 2.86152 -0.555705 -0.96514 -2.32367
1682 1.57655 6.98526 3.8356 -0.4854 -0.153793 1.12445
1527 1.93029 5.93352 3.59425 -0.287351 -2.236 0.507657
2333 2.73997 6.51079 3.87053 -0.172562 -1.21236 -0.813631
2035 3.76211 6.49112 4.00222 -0.265536 -0.235903 1.09865
3039 4.50955 6.14857 3.46489 -0.491715 -0.82639 0.488733
779 5.43958 6.73135 3.84653 -0.678593 0.121025 1.31064
3617 6.5578 6.64575 4.00979 -1.31899 0.368335 1.30918
3737 6.16011 6.26432 3.10391 -0.312959 0.0915245 0.206486
2868 8.35269 7.0408 3.21911 -0.305598 -0.303474 -0.650681
603 7.40385 6.57247 3.12875 -1.39279 1.75181 -1.1179
1661 7.84672 6.28352 4.13834 0.597044 -0.229795 0.718228
3101 9.34153 6.40567 3.35819 -0.620127 0.0951022 -2.11645
506 10.6925 5.83771 3.29261 0.194617 -0.282701 -0.250382
745 10.4263 7.04478 3.48809 -0.468349 -0.764409 0.320934
1344 11.8517 5.9077 3.75858 0.29455 -0.072656 -0.144392
1626 11.4756 6.84988 3.9554 -1.44444 0.00392727 0.349086
1690 13.121 5.74005 3.23184 -0.0182026 -0.897848 0.54295
1597 13.9937 6.47318 4.19564 0.373677 -0.976834 -0.625042
3369 13.0445 6.93163 3.29673 0.218984 -1.09533 1.10715
1099 14.5198 6.12202 3.01735 0.485866 0.758097 -0.135361
672 14.9453 5.79466 4.0103 0.00926997 0.692298 -1.302
2800 15.6533 6.10442 3.12414 -1.05883 -1.61849 0.495336
2762 15.0948 6.74967 3.99946 -0.324409 -0.79842 -0.170273
2567 16.521 6.5806 3.44743 -0.165008 -0.708161 -1.96747
998 0.456884 7.14752 3.29347 0.270719 -0.421924 -0.302066
3966 0.855955 7.9703 3.68212 -0.0792773 -0.368416 0.234125
536 1.81721 8.13863 3.94784 -0.295211 1.19772 -0.224664
491 2.84328 7.51348 3.5499 -0.605722 1.02628 0.491855
3533 2.83193 8.38638 4.20545 0.913751 0.955689 -0.746297
834 3.69349 8.23484 3.42494 -1.25475 0.321983 0.00366683
1622 4.47426 7.22056 3.66249 -0.37961 -1.03767 0.605186
2213 5.49254 7.77337 3.60448 -1.56995 -0.738502 0.0859767
3452 6.89762 8.28387 3.15226 0.618737 -0.483666 -0.157461
1142 6.45602 7.33973 2.95364 0.0334626 0.532748 -0.0155879
3697 6.42036 8.07309 4.01075 -0.368618 0.174488 -0.280083
1321 7.3156 7.40958 3.77115 -0.466575 -0.593603 -1.5896
1786 8.05321 7.97001 2.9106 -0.333605 0.533703 -0.413777
264 8.50387 8.08556 3.8316 -0.503326 0.44583 0.536728
3838 7.56141 8.31485 4.17183 -0.00557163 1.21015 -0.864281
3619 9.26015 7.81071 2.88243 -1.27168 -0.376369 1.30653
3773 10.0779 8.03801 3.71136 -1.51584 0.199494 -0.399642
1464 11.2229 8.52446 3.57212 0.515573 -1.82585 2.42118
3417 12.8033 8.17463 3.22477 -0.283475 1.03882 -1.72122
136 12.0487 7.36004 2.9063 -0.910637 -2.42092 -0.229495
626 12.0922 7.8507 3.88924 -1.74537 -0.546613 0.129113
2903 14.203 7.19727 3.56831 2.06588 -1.69978 0.786202
985 13.4788 7.71595 4.01129 -0.188222 -0.992675 -0.631592
1503 14.0375 8.4572 2.94588 -0.356938 0.548055 0.546603
940 14.7482 8.23774 4.03418 0.474785 0.365461 0.704657
188 15.1001 8.31919 3.01039 -0.775253 -1.96437 -0.201784
3470 16.2762 8.31536 3.19309 0.819422 0.970353 -0.0906806
1136 16.9381 7.62933 3.89505 -0.839732 0.783071 -1.04878
1303 15.9096 7.8385 4.10486 -2.34194 -0.171747 0.980976
1887 0.533109 0.901358 5.24686 0.80666 -0.394262 1.41381
1242 1.15289 0.962685 4.38688 -0.728161 -1.69019 -0.438237
456 2.57964 1.01625 5.56253 0.578817 0.476406 3.41935
1219 2.26309 0.485577 4.69546 0.70421 0.470893 -0.117503
3253 1.63829 1.11823 5.68384 -1.70423 -0.183052 0.369676
2665 3.35799 0.872879 4.83729 0.701105 -0.0169556 0.181604
3638 4.71676 0.556898 5.00397 -1.05947 2.07279 -0.593866
2370 5.3142 1.18081 4.41473 -0.775403 -0.7681 0.742413
1119 7.03713 0.558702 5.26215 -1.06258 1.7801 -0.413713
2751 6.25307 0.480667 4.46818 -0.19193 1.25625 1.00205
494 6.22622 0.0076931 5.39406 -0.550099 0.974407 1.85667
724 8.4472 0.318823 4.55001 0.339339 -0.189875 0.277974
3117 7.32058 0.000725431 4.39963 -0.104233 0.250304 -1.8781
738 8.10426 0.506363 5.54034 0.119521 2.03435 -0.255385
2804 9.36837 0.34236 4.95881 0.0454898 -0.0341882 0.265261
3236 9.8596 1.36245 4.59065 -0.0570283 -1.77116 -0.680797
41 10.5062 0.451572 5.27995 -0.181414 -1.70606 1.71428
3891 11.7766 0.991432 4.97362 0.330664 1.38366 -0.446648
1547 13.6483 0.483873 4.34088 0.0513945 -0.546783 -0.266737
3347 12.9351 0.908685 5.56253 -1.36131 -0.922752 1.25778
951 14.7371 0.20621 5.26473 0.463907 1.17678 1.5269
3418 15.7358 0.193217 4.56569 -1.6151 -0.257991 -0.7778
2689 16.8015 0.432757 5.46492 1.23903 -1.5985 0.164388
3761 16.9186 1.34475 4.56726 2.57486 -0.573616 -0.973256
3121 16.0302 1.14584 5.46494 -0.0726306 0.192627 2.26258
1535 0.127348 2.02469 5.36527 -2.0898 0.419309 1.06595
2327 1.20527 1.97311 5.24928 0.426109 0.740901 -0.0335599
1612 2.10323 1.71019 4.57252 -0.0923288 -0.224264 0.543274
3583 1.84789 2.81253 4.86634 0.665678 0.796726 0.498819
1662 4.0848 2.00592 4.97404 -0.237141 0.952103 -0.1911