ITEM: TIMESTEP
77000
ITEM: NUMBER OF ATOMS
4000
ITEM: BOX BOUNDS pp pp pp
0.0000000000000000e+00 1.7099759466766969e+01
0.0000000000000000e+00 1.7099759466766969e+01
0.0000000000000000e+00 1.7099759466766969e+01
ITEM: ATOMS id x y z vx vy vz
1358 1.13208 1.26785 0.419353 0.452203 0.53504 -0.0442484
775 0.66109 0.0603649 0.671278 -2.7262 -0.719005 -1.03333
1841 0.0372613 1.30735 0.900097 -1.91971 0.465894 -1.25587
3679 2.42277 1.23497 0.937169 -1.2029 -0.421341 -1.12818
2693 2.76026 0.187832 1.08782 -1.84616 -0.324481 0.322686
3061 1.68792 0.407087 0.82992 -0.321008 -0.827328 -0.224982
2217 3.94659 0.955638 0.561444 -1.27587 -0.608459 0.425695
2479 3.45448 0.245853 0.0714072 -1.6931 0.492327 -0.264286
3390 5.50685 0.128296 0.937279 -0.191273 0.254005 1.5304
1774 4.80918 0.481527 0.13995 -0.863256 0.816246 1.15033
2346 5.10557 1.3949 0.544937 0.581077 1.62425 0.362904
482 4.29215 0.0425888 1.31406 1.3683 0.818747 0.509783
1760 6.82285 0.424667 0.792955 0.76428 0.511263 0.441928
3506 7.61227 0.768013 1.35658 -0.0614312 0.433982 -0.269718
1040 8.03842 1.21586 0.169735 1.31022 1.35027 -1.72974
2028 8.99269 1.25174 1.20047 -1.0497 0.315115 -0.780498
63 8.89695 0.315539 0.844768 -0.573032 -0.10632 1.32859
1947 9.95432 0.832516 1.07023 1.09736 -0.330285 0.464266
1857 9.57988 0.377947 0.110045 -1.05889 -1.54617 -0.743729
3031 10.9235 1.30282 0.501648 0.708881 -0.0548261 1.73943
3147 12.3854 0.847198 0.941196 0.222011 0.507402 -1.0178
3627 11.4373 0.406861 0.787452 -0.696289 0.129696 -0.222686
1972 14.1812 1.40894 1.04508 0.160849 1.19564 0.326467
2475 13.35 0.827547 0.437758 0.651071 2.11886 0.148436
3171 15.3195 0.465904 0.759219 0.622743 1.71073 -0.942346
3802 14.4395 0.348109 1.39458 0.243087 -0.84262 -1.47707
2800 15.8951 1.3409 1.17642 2.23691 -0.212833 -1.26336
2671 16.3723 0.79818 0.375771 1.06259 0.115316 -0.990536
474 0.970535 1.9332 1.23545 0.932096 0.899914 -0.260588
1126 0.655595 2.25975 0.0931644 0.296594 -0.0326272 -0.751924
2160 1.65719 2.7367 0.849523 -0.0638006 0.359802 -0.132879
2679 2.65636 2.7682 0.648889 1.56332 -0.337207 0.637505
2564 1.98054 1.91547 0.0268585 -0.855883 -0.678395 -0.784592
3615 3.92671 1.96874 0.911312 0.245864 -0.0758541 -0.117902
3966 3.44438 2.40899 0.012438 0.107691 -0.145081 -0.165803
3670 4.52573 2.55692 0.204251 -1.47613 1.32291 0.127228
1958 6.2991 2.61223 1.39586 -0.493207 0.0517078 0.59559
209 7.02947 1.66472 0.947454 -0.728827 -2.00769 0.673944
3263 6.05139 1.7395 0.78154 2.52266 -3.10567 -0.417023
3374 8.35208 2.5186 0.0481501 -2.42315 1.02963 -0.830198
3630 8.2277 1.88904 0.956265 -0.155939 -0.820652 0.551485
2246 7.22257 2.43944 0.0505016 1.35886 -0.56208 0.215188
2771 9.91291 1.64698 0.497226 0.61619 1.24346 -1.62004
1486 9.26387 2.33121 1.13462 0.717166 -2.10801 -0.751506
304 10.2856 2.62609 0.251352 -0.554473 -0.100223 -0.363759
90 10.9606 2.20594 1.08253 0.297678 -0.477392 -0.176397
2826 12.1826 1.76963 1.33468 0.082536 -0.471996 -2.98754
2037 11.9906 1.82986 0.225499 0.0596952 -0.7289 -0.777321
860 13.203 1.8002 0.927282 1.39821 0.158756 -1.76718
61 12.9124 2.39315 0.215562 -1.58145 -0.635019 0.69933
1845 12.8883 2.7561 1.25807 0.303615 -1.18848 -0.88595
1966 13.9558 2.76711 0.282125 -1.53203 -1.10631 -1.26607
3200 14.8392 2.66421 1.06501 0.344935 -0.641272 -0.805935
1428 15.1131 1.63814 0.460363 -0.0620919 -0.00591627 -0.982747
677 17.0811 2.33281 0.944215 0.82795 1.3577 0.579111
1461 15.9705 2.29665 0.838519 1.01027 -0.388 1.34731
2608 16.8447 2.66584 0.0129817 -1.27915 0.529212 -0.0541739
1400 0.699853 3.19431 0.813877 -1.48149 -0.514946 1.65811
1903 2.41462 3.76619 0.813971 1.55826 -0.134154 -0.832266
2035 3.71908 4.07686 0.9477 0.480182 -0.606422 0.954479
3688 3.76477 2.96206 1.38003 0.0607943 0.947933 0.252249
2081 4.86536 3.07279 1.30592 0.629646 1.14397 1.06302
1099 7.07221 3.73901 0.364302 1.55509 1.13437 1.15998
2331 6.16297 2.90232 0.413605 -0.269275 1.26813 -0.00939524
2288 6.37897 4.00098 1.06541 -1.65315 -0.595919 -0.327907
3704 7.23063 2.96877 1.14211 -0.951988 0.160225 1.46091
2315 8.19876 3.46229 0.6709 0.750249 -0.211202 -0.413409
3009 9.11964 3.26808 0.238089 1.15527 -0.0473183 -0.971296
3198 9.09173 4.07519 0.850391 -1.0686 -0.415406 -0.927399
2660 10.297 2.89913 1.23003 -0.752778 0.053848 0.0481788
473 10.0301 3.73342 0.597962 0.506569 -0.790498 -0.0869347
1077 11.0889 3.17597 0.622413 1.35148 -1.69688 1.6776
1166 10.4343 4.22196 1.40148 -0.962132 -0.0960409 0.549056
2248 12.0929 2.85666 0.501076 -2.04095 -1.47878 -0.364514
938 11.7292 3.93492 0.90234 1.0019 1.42816 0.415914
650 12.6871 3.7438 0.68198 -1.79538 1.07023 -0.556393
132 13.6112 3.66059 1.40574 -0.416855 -0.706013 2.56137
1437 14.6037 3.68168 0.990968 -1.30926 0.384423 0.162117
571 14.4735 4.01941 0.0500537 -0.143296 -0.557914 0.600915
2664 15.0303 2.99394 0.0335448 -0.546677 -0.984371 0.926819
3741 15.6994 3.80302 1.30297 -0.455088 -0.257553 0.545182
3724 16.9359 3.73131 0.0948447 0.889975 0.427036 1.69193
3253 17.0026 4.24276 1.13457 1.44854 -1.74791 -0.157443
3222 16.6197 3.16432 1.29459 0.673773 0.0723698 -0.169375
2789 16.0247 3.24743 0.365555 0.354957 -0.386216 -0.430634
2687 0.73377 5.03218 0.724246 -0.38412 0.757561 -1.07765
2637 1.97781 5.62966 0.278939 -0.389167 0.203742 1.19362
3661 2.457 4.8113 0.721828 0.670512 1.10013 -0.0946419
1129 3.13535 5.15675 0.0766203 0.367964 -1.08001 0.992123
3962 5.27485 4.42603 0.326802 0.619172 1.23901 -0.749877
3696 5.54662 5.56988 0.500459 -0.452602 -0.171525 -1.24682
2060 4.50659 5.03519 0.676457 0.396942 0.212349 -0.239619
2883 4.74668 4.34005 1.4079 0.814356 -1.00413 0.178098
3443 6.91336 5.62949 0.248948 -0.215842 -0.302756 -1.89134
3495 6.24144 4.60563 0.207864 0.833061 -0.582557 -0.871266
5 8.18092 5.24488 0.428708 -0.601468 -1.65413 -1.34586
2838 8.1256 4.4685 1.36627 -0.586921 0.867766 0.0653415
733 7.13611 4.67667 0.780048 -0.548053 2.31045 0.31879
2670 9.63734 4.89998 0.592319 0.189928 0.797074 -0.242438
223 10.9595 4.77564 0.780112 -0.268298 0.323343 0.616491
936 10.2479 5.62911 1.12378 1.75698 -0.857338 0.0998211
2691 11.9156 4.84312 0.527924 2.14547 -1.4576 0.176166
1769 12.9185 5.3812 0.686465 1.66889 -0.552653 -1.31558
3503 13.4672 4.48005 0.577097 -0.226144 -0.448017 -1.96382
2853 15.2138 4.67497 1.26087 0.09273 0.908378 1.11796
1107 14.3829 4.99875 0.565753 0.328654 -0.0940425 1.17447
3132 15.9396 4.35977 0.484381 -0.988019 -0.947295 -0.377686
2688 17.0156 4.96599 0.167003 0.387619 2.28807 -0.539936
3136 16.026 5.25458 1.04034 -0.559787 1.07521 0.289694
3001 0.929806 6.29562 0.566021 -1.15521 -0.960592 -2.00926
2043 0.227474 6.93374 0.870506 1.57259 -1.25484 -1.24773
1703 1.88474 6.5971 0.135251 -0.594773 -0.102147 1.04968
1135 2.58093 5.71453 1.16279 -0.576851 0.12755 0.873536
2056 3.85478 5.81941 0.765524 2.4974 1.47687 -0.835766
2761 2.87062 7.08612 0.925364 1.23538 1.05675 -0.159723
2734 3.88859 6.85622 1.23896 2.25469 -0.275633 0.0552527
3636 4.85441 5.96294 1.12156 -1.10932 0.0338378 1.13611
2270 6.02736 6.5407 0.38628 0.557512 0.701063 1.20972
1527 6.6771 6.6113 1.20938 0.67016 0.538007 0.404496
1575 7.86999 6.3202 0.854427 0.13273 -1.43277 0.32426
1950 7.24226 5.73528 1.34659 0.611012 -0.234267 1.19374
3586 9.31826 6.05404 1.07651 0.133328 0.954284 -0.0611108
317 8.65709 6.76057 0.220317 -0.175634 0.271299 -1.67771
3671 9.18033 5.79308 0.0593115 -0.391429 0.684376 1.17146
1452 10.1307 6.53218 0.122789 -0.0072115 -0.238798 -1.23999
900 10.5779 6.87879 0.963541 1.08899 0.687156 -0.258226
475 10.9169 5.94167 0.449263 -1.57978 1.23912 -0.0280824
3946 12.8089 6.6245 1.08723 0.352883 0.714934 1.14512
3018 12.0918 5.82191 1.37913 0.942729 -0.01473 -1.00337
189 11.5875 6.6604 1.07837 -0.987357 -0.348905 -0.725117
2827 12.0059 6.0858 0.0357264 -0.564271 -0.197273 -0.903097
3021 13.2515 6.28602 0.182045 0.182771 -1.37521 0.646485
1919 13.8012 5.82285 1.31038 0.399336 -1.38183 -0.428861
1238 14.1206 6.67159 0.719145 0.883764 -0.138549 1.72925
3369 14.9445 5.78561 0.21207 -0.885921 -0.0215655 -0.380414
2253 15.1933 6.82036 0.750909 -0.743834 -0.715005 1.35878
1722 16.3498 6.59569 1.13114 -0.975709 0.561619 1.43261
1600 16.9613 5.78955 1.32704 -1.10367 -1.03671 1.38111
368 16.8562 6.18129 0.195525 1.6791 0.880399 -1.60096
3646 0.859465 8.37763 0.69472 -0.608185 -0.433975 0.134555
948 1.26541 7.37638 1.18259 -0.265256 0.0274425 0.495406
707 2.47696 8.27327 1.3373 0.542746 -1.51481 0.580326
2416 1.95442 7.68521 0.467296 0.949913 0.530366 0.457738
2374 3.67115 7.55803 0.473299 -0.210198 0.216278 0.606357
114 4.60204 7.80988 1.26648 -0.94224 0.374927 -0.544787
145 5.21403 7.137 0.735397 -0.137529 0.921756 -0.633137
3388 4.57516 7.87664 0.24003 0.614074 0.500773 0.209825
2550 5.22936 8.47006 0.763261 1.28173 -0.7255 -0.903925
2836 5.96173 7.76236 0.680681 0.809468 -0.0670337 -1.05117
2984 6.82907 7.584 1.29139 0.306056 -0.104836 -0.47671
1806 7.62796 7.31106 0.62309 0.220001 0.0461801 1.40231
2049 7.51353 8.53529 0.168396 -0.105572 0.30307 0.519019
3580 7.93194 8.24505 1.33524 0.672601 -1.48559 -0.347779
1488 8.39761 7.76175 0.0465986 -1.02647 -0.108783 0.536409
3552 9.6021 7.17281 1.26018 -0.234 1.23601 -2.20452
1879 9.52781 8.04465 0.759194 0.62927 -0.0836173 -0.313421
271 8.56909 7.30099 1.25039 -0.883333 -2.00648 1.70269
2522 10.3678 7.70129 0.13838 -0.710321 0.756222 0.385466
754 10.5757 8.38525 1.01097 1.52851 -0.448646 -0.44562
3581 11.5427 7.81813 0.642293 -0.478338 0.730852 -0.00550321
2033 12.2898 7.49307 1.2484 0.944364 -1.29279 3.29539
3107 12.5895 8.24033 0.200135 -0.604337 0.979109 0.275145
1015 13.3335 7.52249 0.932303 -0.654016 1.09719 0.254383
2922 15.3972 7.71135 0.105097 -1.53112 -1.32442 0.502808
1440 14.467 7.81759 0.579583 1.60939 -1.55667 -0.486348
261 15.7304 7.73983 1.19526 0.226892 2.1323 0.934948
2022 16.8816 7.96355 0.75464 -0.00441077 0.727442 0.232265
3887 16.2835 7.15579 0.199311 0.538778 0.000569648 1.31308
2055 0.816357 0.65533 1.55678 1.75747 0.236169 -0.442164
2857 1.48925 0.782245 2.30203 0.656587 -0.456313 -0.850507
355 2.06533 0.0577382 1.91383 0.285935 -1.05671 0.612181
3990 2.58053 0.607555 2.759 -0.549013 1.31252 0.556509
300 3.66083 0.672652 2.43319 -0.681353 1.94485 0.196731
2427 2.88902 1.25768 1.92027 0.8214 0.0346395 1.05315
2820 5.39502 0.768547 1.75913 1.32918 1.547 0.525425
1343 4.55809 0.215896 2.34014 1.02277 -0.23241 2.11312
2426 4.38476 1.07792 1.67074 -0.944634 -0.624687 -1.32119
273 5.14327 1.23197 2.6682 1.56603 -0.0379021 1.9308
3190 6.56909 0.757921 1.97671 0.100198 -1.0351 1.08215
3505 5.94942 0.67291 2.75855 -1.64016 -0.713776 -1.66701
1822 7.68563 0.600486 2.37601 -0.0689485 0.697424 -0.798677
1957 8.3025 1.38295 1.94976 0.441958 1.46444 -0.181767
3366 9.40715 1.02948 2.06555 -0.263031 -0.392416 1.05007
1045 8.5586 0.101828 1.82834 0.390674 0.0150847 0.805577
2410 11.0702 1.2017 1.4433 0.606781 0.0658032 -0.724739
3664 11.0401 0.753096 2.47982 -0.742378 -0.743529 0.062048
1463 10.7818 0.0773456 1.87414 -0.52438 -0.74441 -0.886447
1984 10.1321 0.41946 2.6857 -0.542714 1.63119 -1.03048
2898 11.8752 0.03431 2.10471 0.829193 0.242336 0.17496
481 12.1394 1.04676 2.0604 -1.81202 -1.50112 -0.159988
2064 13.3014 0.449309 1.47257 -0.234762 0.0164292 1.1639
3438 13.2631 0.644672 2.40363 0.826399 -2.43039 -3.31182
867 15.391 1.33387 2.11177 -0.251034 0.79626 -0.704872
547 14.6479 0.355022 2.74823 0.107929 -0.065675 0.30326
2565 16.8825 0.802071 1.96286 -0.919532 0.528585 0.971581
1454 15.7064 0.0156964 2.80485 -1.03707 -1.75048 -1.51515
439 15.838 0.32982 1.81828 -0.274732 -0.742441 -0.0946192
2069 16.7735 0.196 2.84083 0.0650705 -1.30768 0.00806241
188 0.366207 2.62507 1.85021 1.56405 -0.423392 0.641428
1974 1.27972 2.1972 2.18721 0.785452 0.615205 1.28853
2842 1.83588 1.56643 1.66667 -0.573638 -1.24154 0.444975
3403 2.26585 2.48013 1.69623 -0.418175 1.36268 -0.00340101
2425 2.16124 1.62694 2.78266 0.527684 -1.27288 1.42643
864 3.4627 2.19564 2.17545 0.422743 1.75242 1.87469
3812 4.224 1.72743 2.70458 -1.07899 -0.457649 2.05207
2350 4.83219 2.0463 1.61559 -1.02195 -1.60563 -0.109459
356 6.04092 1.64479 2.14671 0.34454 -1.49684 -0.175793
3260 6.50129 2.48963 2.58457 -0.777344 0.145496 -0.440339
3452 7.95729 2.65333 1.816 1.9341 1.32276 0.626237
1534 7.36859 1.81033 1.9058 1.65018 -0.569572 1.29087
2697 9.04536 2.17934 2.11759 -0.186985 -0.683578 0.180314
1720 10.2597 2.45447 2.43296 0.198384 1.92117 1.82002
928 10.2245 1.46966 2.61253 -0.603629 0.0866443 0.230705
2228 10.0403 1.80972 1.57642 0.239376 1.47556 0.757787
2077 11.5232 2.1421 2.3839 -1.34453 -0.789214 0.914483
3622 12.5962 2.23787 2.21983 0.631731 0.687145 -1.50569
421 13.3464 1.54815 1.99792 0.862922 0.750737 -0.336766
3008 13.99 2.2436 1.7738 1.17114 -2.16738 1.17135
1043 14.2032 1.58332 2.70553 -0.516393 0.627706 0.926693
3923 14.801 2.44548 2.34351 -0.801788 -0.213552 -0.750062
1539 15.6922 2.63098 1.78662 -1.39594 0.573213 0.624208
3014 16.967 2.04598 2.79782 0.843573 2.13395 -0.217641
2764 16.5958 2.82805 2.28481 0.44098 0.259298 0.0520645
660 16.4955 1.87781 1.85012 1.37373 -1.11503 -0.0376458
3900 1.20543 3.26095 1.81159 1.53661 -2.00864 -2.92981
2529 0.230117 3.80014 1.90888 0.0940252 -1.10369 -0.936337
3441 1.13229 3.99736 2.62964 0.508326 0.392731 -0.878248
1290 2.04054 3.4357 2.46531 -1.2045 -1.60858 -0.710176
2442 2.84839 4.24328 1.85692 0.0626135 -0.211508 -0.658645
2672 1.76632 4.21975 1.58906 1.48726 0.441701 1.63786
2817 3.15453 3.23463 2.29104 1.68359 -0.977667 -2.30351
1779 3.84682 3.95474 2.21036 0.249888 -0.618963 1.18641
1992 4.28696 2.89292 2.38857 -1.50153 1.07235 -1.22363
2784 5.23791 3.88177 2.38128 0.564442 0.62183 1.62664
3551 6.32711 3.49769 2.06333 -1.14952 1.25101 -0.423544
3919 7.341 3.18703 2.75596 0.050377 1.48144 0.0861902
346 7.347 3.74138 1.78675 -1.05417 0.533325 1.95058
239 8.13694 3.98534 2.53125 -0.596774 -0.385975 -0.311894
1365 8.66551 3.36646 1.55474 -0.508936 1.46983 -2.05264
3078 9.85735 3.31397 2.00172 1.23153 0.648554 -0.218332
1476 9.06269 3.72895 2.58206 0.716033 0.653763 0.372123
81 11.3302 3.07681 1.74927 0.356447 0.668068 0.788559
2314 10.7889 3.86474 2.44297 -0.360432 -3.73555 0.909844
3837 11.8866 3.46436 2.4645 -0.115809 -0.152513 -0.680851
1152 12.7635 3.78455 2.02357 -0.756027 0.273073 0.665628
2748 13.7874 3.15786 2.24579 0.721683 0.549644 -1.18508
2930 14.8917 3.39881 2.01338 0.0783608 -0.170421 -1.29748
3468 16.3977 3.79255 2.32987 1.3026 -0.306741 0.792414
1087 0.724091 4.67018 1.75425 -0.819164 0.349015 -0.803568
1214 0.397219 5.6722 2.24298 -1.85985 -0.482993 -0.453329
14 1.99296 4.92324 2.67522 1.34437 -0.20368 -0.414991
1864 1.51628 5.42757 1.47647 -0.0300801 1.44275 -0.369787
3675 3.66188 5.03948 1.44805 -0.896861 -1.22859 -0.294498
1375 2.95208 5.14802 2.35652 1.49375 0.184669 0.308379
1035 5.56336 5.23657 2.76047 0.235461 -1.11891 -1.67443
2165 5.53849 5.38681 1.75647 0.436173 -0.762888 0.629054
871 4.52974 4.93168 2.33841 0.471346 0.0727831 -1.48196
2808 6.20464 4.40467 2.67241 0.49782 0.764356 -0.570144
2349 7.40005 4.85565 2.09367 1.2018 -0.383575 -1.50531
1408 8.83446 4.72628 2.46538 0.850416 0.873042 -0.172066
2858 9.59669 4.62488 1.63445 0.742725 -0.0429075 -1.29736
2183 9.65958 5.45803 2.21709 -2.03375 -1.10548 0.592558
830 10.9939 5.04592 2.53609 0.817151 0.100028 0.831266
3121 10.0211 4.49791 2.68908 2.37606 0.774788 0.168785
976 11.0871 5.59094 1.728 1.32421 -0.0174375 -0.429745
2384 11.5387 4.29513 1.85571 -0.570904 3.89811 -1.41905
3335 12.6112 4.94536 2.44329 -0.214246 -1.43315 -1.90181
2075 14.1746 4.51252 1.60328 -1.16707 -0.0657734 -0.957596
1381 12.9902 4.72349 1.4684 -0.0861026 -0.176752 0.776649
1200 13.6416 5.12114 2.36719 1.0717 1.4351 0.669519
3007 14.8196 5.4206 1.92621 -1.95029 -0.445424 0.0163104
701 14.5268 4.31928 2.51919 0.417773 1.15562 0.0195556
1909 15.6769 4.58895 2.22792 0.671695 -0.0516636 -1.15163
3149 16.7625 4.80712 1.92263 -0.954109 -1.04199 -1.0751
1410 1.03267 6.41817 1.85272 0.0850722 0.311025 0.385849
1227 0.413897 7.05779 2.56267 1.49356 -0.541401 -1.24113
185 2.10026 6.90191 1.74978 -1.39666 0.115286 -0.0621569
101 2.14053 5.97174 2.16798 -0.837412 -0.94746 -1.2371
2940 3.11881 6.73643 1.94371 1.00618 0.791884 0.437315
859 4.06578 5.92472 1.80162 -0.105646 -0.182305 0.951566
2191 4.87276 6.08244 2.5506 0.199768 0.984938 -0.0416244
648 6.50619 5.92926 2.11629 -0.0415767 0.968187 0.469007
409 5.76493 6.59512 2.07987 -0.286162 0.957523 0.0442654
2494 7.46676 6.65403 2.11231 0.684947 0.948243 -1.01768
3790 8.6078 5.92883 2.72835 0.65388 -0.186632 -1.06634
2882 8.57252 5.73531 1.67372 1.12312 -0.277961 1.10883
19 9.19193 6.66974 2.06326 1.71256 -0.143727 -1.62022
1831 10.2102 6.28846 1.96408 0.075811 -0.157814 0.465688
1295 11.128 6.2591 2.63913 -1.18099 -0.53494 0.372306
2873 12.0233 6.9326 2.23019 0.0701684 1.03319 1.05087
3777 12.9559 6.1451 2.10684 0.532859 -0.0807452 0.100819
1630 14.0358 6.0628 2.45462 -0.588249 1.8552 1.57555
2289 13.6968 6.90211 1.97534 -0.482138 0.631261 0.0713965
151 14.6298 6.45433 1.58635 -1.52551 -1.16285 -0.698932
3318 15.9387 5.75665 1.9363 1.01632 0.102595 -0.34655
2611 16.7586 6.40721 2.21593 -0.899136 -1.28346 -1.44705
339 15.7612 6.9153 2.16086 1.67322 -0.78448 2.30429
543 0.28655 7.5828 1.77938 1.34891 -0.849421 0.399215
2291 1.4618 8.11283 1.77458 -0.667669 1.26549 -0.739767
3620 2.41362 7.8517 2.38225 -0.0498256 -1.06172 -1.08435
3865 1.53618 7.36065 2.68012 0.779455 -1.17446 0.929349
1419 3.97568 8.45157 2.17148 0.949338 0.281003 -0.235379
1356 4.01838 7.34585 2.40696 0.812295 1.16677 -0.772413
524 3.40226 7.85012 1.45102 -0.0495576 0.710437 0.191688
479 5.5813 7.53032 1.66523 -0.385931 1.06372 0.139188
1104 4.85724 7.86078 2.61337 0.679498 0.129752 -0.184978
895 6.13356 8.19635 2.4215 2.44828 1.84056 0.140638
996 6.43544 7.19197 2.58583 0.15734 0.201243 0.277218
3710 7.11301 8.37566 1.98172 -0.305388 -0.180173 -0.106447
204 7.95389 7.65492 2.27139 0.698772 1.06501 1.4358
2358 9.46847 7.7339 2.25222 0.588312 -0.0773125 0.691105
3097 9.38066 8.52881 1.68153 0.0469969 0.76009 0.712763
1696 10.4289 8.25043 2.22913 1.08134 0.1326 -0.986039
941 10.3694 7.30247 1.96763 1.06464 0.292963 -0.539573
434 11.0392 7.67176 2.80562 -2.13924 0.628848 0.43628
89 11.4803 7.80331 1.78107 -0.267689 -1.83527 -2.14117
3166 12.1474 8.27897 2.54919 1.35607 -0.76315 0.967725
1387 13.8055 8.24519 1.58328 0.910263 1.08359 -0.285981
3230 12.9275 7.58675 2.11436 2.70582 0.254219 -0.837191
3791 14.077 7.68272 2.47141 -1.63046 1.4226 0.667354
502 13.3921 8.5133 2.66304 -1.78003 1.31027 -0.491723
174 12.8617 8.52469 1.44509 -0.0196146 1.26056 -1.06675
230 14.671 7.4825 1.55248 1.22413 -0.330481 0.261852
2013 15.0626 7.68458 2.6275 -1.98519 0.606415 0.542737
2957 14.9916 8.51659 1.94182 -1.38342 0.329861 0.460407
3010 16.4333 7.81583 2.35036 -0.466201 -0.184151 0.832969
1718 0.75382 0.31367 3.29115 1.06777 -0.33063 -0.755954
206 0.135777 1.09025 3.6026 -1.34681 -0.799441 -0.653116
197 1.99577 0.869947 3.64472 -0.429253 1.12917 0.801433
2692 3.35358 0.490229 3.45894 -0.425118 -1.81362 0.413731
2659 4.2738 0.399053 4.2119 -0.237827 -0.902741 1.79976
3363 4.40753 0.647669 3.21563 -1.63479 0.732918 0.673346
726 5.25078 0.8863 3.80556 -0.85666 -0.297891 -0.729043
281 6.2669 0.599811 3.71269 0.506165 -1.03219 0.315797
2172 6.95947 0.361356 3.03112 -0.815773 0.775798 -0.733254
971 8.02866 1.10349 3.52139 1.51224 -0.11412 0.877134
3271 8.35831 0.179536 3.87638 0.0298432 0.418719 -1.3885
593 9.06293 0.883723 4.00255 -1.29301 -0.829332 -0.620139
3924 8.97112 0.708901 3.05337 -0.645301 -0.0295399 1.2529
847 10.0905 1.04173 3.59929 0.699573 1.81031 0.458077
1922 12.636 1.3659 2.87393 1.88788 -1.11021 0.529944
3113 11.5214 0.909087 3.7093 -1.70498 0.911365 0.0987475
4 12.6132 0.442064 3.36147 -0.405787 -0.113127 0.0217155
313 13.4496 1.11811 3.57066 0.211538 0.705085 0.550219
2272 14.2596 0.538195 3.99686 -0.964183 -0.41633 0.384606
1242 15.0034 1.06596 3.4968 -0.505123 -0.102196 -0.00703287
242 16.2922 1.07387 2.85172 -1.03751 1.0175 -0.47007
3174 16.0224 0.589983 3.9508 1.24907 -0.71342 0.511634
3467 0.0819003 2.01156 4.07745 -1.91561 -0.00386289 0.585217
2202 1.0531 1.62622 3.08357 -0.92197 -0.330853 0.57585
3006 1.21618 1.49187 4.21468 -0.945167 0.113649 -0.184508
3361 2.82664 2.61232 3.00532 0.279182 -0.35299 2.27145
2279 1.92879 2.39876 3.474 0.7671 -0.0827913 0.553133
779 2.667 1.77673 3.82379 -0.274931 0.136239 -0.552993
424 3.28217 1.51194 3.04664 -2.58065 -0.837462 1.14646
342 3.7463 2.13402 3.76662 0.73407 1.73151 -0.123636
3697 5.07783 2.52945 3.19752 -2.13301 -1.92753 1.28069
958 7.09121 1.46567 2.92954 1.02926 -0.437773 -0.335996
295 6.02664 1.56466 3.21998 0.440372 -0.631755 1.63262
3525 7.02224 1.57189 3.99936 0.38751 -0.327607 -0.79853
2195 6.09495 2.45553 3.97246 -1.00585 -0.31864 -0.344416
2556 8.25432 2.07401 3 0.460816 -0.478215 2.5307
58 7.48084 2.58459 3.64082 0.185086 -0.290496 -0.925116
1605 9.40316 1.80355 3.19125 0.736134 0.122409 0.826324
1349 10.9815 1.63396 3.26246 0.982332 0.218474 -1.05183
2654 10.2565 2.38242 3.59785 0.700366 -1.64142 -0.441444
201 12.2572 2.48158 3.10933 -1.18988 -1.14645 -0.534877
2778 12.5506 1.71931 4.09462 -0.917598 0.200882 0.909752
2601 11.5759 2.17087 3.96156 1.22479 2.01084 0.0609361
2480 13.4109 2.35893 3.25567 -0.0639005 -0.446962 -0.617687
1140 13.0664 2.7761 4.11487 0.878432 -2.19524 -1.60661
773 14.5073 2.16772 3.78153 0.563943 -0.600292 -0.940474
1353 15.8832 1.9814 2.89236 -0.217629 -0.385456 -0.785519
1049 16.0923 2.23729 4.13337 0.0844637 0.149038 1.30213
909 0.883675 3.06854 3.34944 -1.43484 -0.666276 0.51155
2080 0.263351 3.98421 3.07944 0.633198 0.518344 0.662937
3114 0.574612 4.20008 4.08785 -1.50007 0.300142 -1.07821
1612 2.1629 3.40998 3.81462 0.144133 -0.862575 0.384075
1178 2.76402 3.99952 3.08023 -0.0830758 1.60339 -0.327845
3333 3.43051 3.32159 3.40771 0.241721 0.968975 -0.724383
2723 4.02431 3.86139 4.21459 -1.55934 -1.39028 1.17728
120 5.06324 3.04701 4.11971 0.280936 0.524519 -1.25435
325 4.70948 3.53992 3.36915 -0.217643 0.0130194 -0.315125
2652 6.91644 4.07665 3.21008 1.60066 -0.156051 -0.648184
2324 5.91652 3.58544 3.29211 -1.10352 -0.860725 0.0632313
1716 8.40693 3.20263 3.12763 0.547707 0.300194 -0.777876
463 7.88998 3.92492 3.88097 -0.540531 0.605196 -0.439996
3231 9.36196 2.85041 3.08595 -0.457044 -0.0776409 -0.28454
3225 8.90597 4.1666 3.4784 -0.938891 0.648747 1.98686
2431 11.0088 3.09147 3.07511 0.603314 1.40131 1.70814
1798 10.1141 3.5384 3.45325 -0.10866 -2.07951 -0.973773
3261 11.0557 4.04962 3.7614 -0.0857645 -0.818089 0.290214
3415 12.5429 4.17284 3.32053 -0.547896 0.427617 0.636626
301 11.798 3.2043 3.82772 1.59727 -0.327826 -0.104428
453 13.4791 4.0842 2.92643 -1.14463 -0.160878 -0.222296
929 12.934 3.10222 2.87098 -0.199425 -1.24556 1.36677
3440 13.7163 3.45168 3.81407 -0.362143 -0.417959 0.269847
1462 15.4369 2.9251 3.08277 0.110873 0.650038 -0.900102
956 14.7498 3.20305 3.9262 -0.890091 1.63186 0.859862
1170 15.5152 3.87524 3.53669 -1.86796 0.0521259 0.0256159
2551 14.4142 3.32428 2.98983 0.286595 -0.469168 -0.295441
631 14.5016 4.20678 3.81264 1.3576 -0.339209 1.27125
3268 16.425 4.26682 3.38057 0.87876 -0.431646 0.0829938
2707 16.6421 2.97069 3.41044 0.722174 0.236437 -0.25308
3420 0.879676 4.85231 3.15645 -0.224171 0.00980355 -0.472009
423 1.66551 5.60399 3.67965 0.495176 0.680496 -1.65708
3068 1.75478 4.49012 3.85809 0.826872 0.133059 0.0338133
2584 2.76123 5.68582 3.2689 -0.512288 -0.391686 1.15952
618 3.9936 4.31338 3.20035 -0.074598 -1.81578 0.690672
3081 4.20042 4.99513 4.05274 -0.949408 1.05465 0.246381
772 3.07846 4.60938 3.78222 -0.41881 -0.647956 1.05145
390 5.07527 4.34357 4.06352 1.411 0.545208 -0.490291
2604 6.92195 5.23622 2.98522 0.290175 2.73818 -0.862633
891 6.15142 4.35924 3.88252 -1.01754 -0.102231 -0.16018
587 6.26173 5.44417 3.9468 0.124626 -0.22365 0.548464
3737 7.11382 4.78634 3.99115 -0.507594 1.92279 -0.197422
2237 8.07502 4.73784 3.11113 -0.355839 -0.154952 -0.0742606
1801 8.04743 5.27491 4.15056 -0.811195 0.848739 -0.526005
2266 9.88981 4.60306 3.74306 0.26874 0.89954 -0.417527
1828 9.10097 5.24051 3.66334 -1.88454 -0.338889 1.68418
1431 10.6281 5.37633 3.51239 0.969762 0.780845 0.124063
2449 11.9359 5.40989 3.04435 -1.74625 0.00877159 2.34764
1082 11.511 5.56587 4.08969 -0.740456 0.188279 -0.108873
501 11.5826 4.35463 2.86295 1.25623 -0.203551 0.813662
826 12.0896 4.73364 4.03053 0.0700327 -2.62295 -0.38536
888 13.3935 4.40637 3.89651 0.00228193 -0.897642 -0.341923
907 13.0528 5.50606 3.30903 -0.414134 1.42432 -0.0922181
2903 14.0616 5.31474 3.25607 -1.22525 1.15479 0.233585
2924 15.2326 5.00206 3.08018 -0.145656 0.152533 -1.02712
385 15.4736 5.0882 4.14092 -0.378717 0.29864 0.253263
3673 16.7211 5.32889 3.2946 -0.0842443 -1.91515 -0.613466
1056 0.457891 5.72937 3.64149 0.396634 -0.147349 0.704638
531 1.32187 6.13154 2.87745 0.417051 -0.588439 0.337129
2592 0.270631 6.6781 3.66828 1.19947 0.231121 -0.632112
2481 1.27117 6.50401 3.83488 -0.670855 1.01367 -1.11559
1421 2.71557 6.88496 2.92756 2.37169 0.409606 -0.122591
2727 2.30602 6.30142 4.08874 -0.0500874 -2.42425 -0.85159
47 3.87021 6.08851 2.86334 -0.401701 1.86689 -0.962527
1976 3.2949 6.39588 3.84089 -0.604354 -0.850721 0.672558
588 4.32487 6.42527 3.85875 0.471395 -1.19853 1.41096
2735 5.64988 6.14582 3.52178 -1.14641 -1.14457 1.45771
3344 5.32139 6.95994 2.93097 -1.04168 -0.481688 1.28121
1622 6.6784 6.28046 3.45677 0.929714 1.11776 0.0191557
2213 8.06622 6.827 3.16871 -0.37202 -0.971124 0.66801
809 7.71485 5.86898 3.35208 2.02354 1.33468 -0.489894
1019 7.44263 7.03503 4.05962 -0.204139 1.0827 -0.0370683
858 8.24135 6.33879 4.20623 0.480157 0.989307 1.24091
464 9.94063 6.17691 3.96562 0.181921 -0.0188063 0.752635
2926 9.10353 6.66935 3.50443 -0.334518 0.0405219 -0.921297
3101 10.0897 6.05296 2.97348 -0.178955 -0.846095 1.6994
1081 10.1095 7.10718 2.95206 -0.806068 -0.13713 0.160766
1690 10.8336 6.67789 3.62913 0.388809 -1.12568 -0.436074
2950 13.2773 6.61305 3.96626 0.50265 1.14752 -1.76073
2991 14.0132 6.86152 3.13196 -0.695607 0.187137 -0.623736
1644 12.9649 6.94662 2.89679 -2.16394 -0.906695 1.17422
947 14.8178 5.888 3.7661 -0.01606 -1.03224 1.3454
3162 14.6525 6.85869 4.11514 -0.337271 -1.00677 0.69485
3844 14.9335 6.71997 3.03239 -1.77547 -0.883757 1.44837
1359 15.9162 5.90227 3.06996 -2.78209 1.80579 -0.464187
687 16.4739 6.06881 4.0273 -0.318605 -1.09022 -1.91941
375 16.3649 6.96413 3.03166 -0.357567 0.647599 -0.458017
1225 0.236458 8.1396 2.86159 0.766964 -0.131258 -0.0664106
639 0.904542 7.55091 3.72863 0.999937 -1.26158 0.0639478
3869 0.0337116 8.35163 3.95967 -0.68569 -0.325623 -0.36954
370 1.85538 8.16426 3.22405 1.1009 0.697899 0.282034
2079 2.79429 8.17151 3.71065 1.19876 -0.106765 -0.066714
269 1.90951 7.21217 3.64964 1.55755 0.44857 0.54153
1423 1.73295 8.27548 4.24881 -1.10943 0.00616158 0.159993
3343 3.46285 7.39461 3.69521 -1.01499 -1.94133 0.875144
3611 3.95138 8.31601 3.23887 0.223255 0.512824 0.70944
589 4.59403 7.33538 3.59001 -0.572308 2.05563 1.78242
3499 5.46276 7.73958 4.26748 -2.16034 0.928133 -1.06293
2876 4.94323 8.30951 3.60935 -1.79617 -0.881596 0.509048
2966 5.99359 8.30793 3.44494 -1.00731 0.79352 -0.424461
1184 6.88301 8.26174 4.0208 -1.3084 -0.0210509 0.537107
1509 6.31961 7.23786 3.78656 0.352665 0.212969 0.246863
53 7.14631 7.84796 3.03624 -1.22996 0.0493117 0.708016
738 7.90526 8.10014 3.72937 0.258927 0.358178 -0.292624
2540 9.89824 8.5344 4.16295 0.0970319 -0.830362 -1.05301
1142 8.75584 7.67784 3.07815 -1.71007 -0.436807 -1.1212
1251 8.82061 8.4297 3.89769 0.900034 -0.60852 0.571563
838 9.45694 7.57566 3.96798 -0.415507 -0.255736 -1.30232
1473 10.4831 7.78869 3.66699 -0.324995 -1.2682 2.71417
2198 12.3513 7.2444 3.70717 -0.864437 -1.2298 2.09341
1420 11.4303 7.3397 4.21083 -0.490158 0.31005 0.0177201
2108 12.7407 8.12903 3.38466 0.312608 -1.13898 0.868862
2413 11.5299 8.21016 3.56785 -0.540751 -2.66605 -1.02486
2832 13.6515 7.52316 3.88119 -0.603124 1.59444 -0.830942
413 15.5324 7.3895 3.56961 -0.603051 0.14716 0.961524
2403 14.5715 7.85805 3.63469 -0.2655 0.462547 -0.594044
816 16.747 7.37728 4.05695 0.103506 0.857885 -0.177637
3987 16.2833 8.10724 3.26389 -1.11768 -1.39597 0.61201
1426 0.196513 0.351697 5.53262 0.189189 -1.42395 -0.178973
3855 0.817942 0.281822 4.35374 1.25729 1.57174 -0.603673
2472 2.3431 1.35677 4.72856 0.167669 0.0797074 0.0298465
1041 2.81483 0.186872 5.52264 0.930381 1.02237 0.7776
995 1.48122 1.0486 5.15793 -0.278357 0.836736 -0.0425294
532 3.28022 0.911388 4.34434 -0.691164 -0.413881 -1.06163
3534 3.7958 0.444369 5.16926 -0.872793 1.71027 0.263528
2900 3.56863 1.34518 5.67225 -0.833027 -0.104841 0.348508
2329 4.20566 1.42092 4.50526 -1.49161 1.00027 0.212624
2411 5.5812 0.0877566 4.38366 -0.150539 -1.51762 -0.714233
3299 5.01269 0.771627 5.05309 1.87888 0.347404 0.929081
1815 5.9218 1.18747 4.51376 0.415325 -1.07281 2.39046
2370 6.19689 0.402478 5.20445 0.0775955 -0.335039 0.647799
634 8.4404 0.601933 4.81776 0.184349 0.0908519 0.531565
2400 7.37303 0.467884 4.53732 0.858232 -0.673887 -0.152345
1386 7.48199 0.500488 5.59768 -0.682395 0.0394889 0.301965
136 9.3392 0.61174 5.47114 -1.48744 0.932513 -0.794357
3643 10.1344 0.458164 4.58488 -0.0428748 -1.28742 0.706229
2147 10.6494 1.21902 5.50129 0.148475 0.78887 1.67816
2351 12.3113 1.3655 5.16129 -0.730329 1.21646 0.390811
3638 11.618 0.525129 4.65881 0.445569 -1.91638 0.78815
302 13.1388 0.170295 5.33911 -0.736042 0.342952 1.37513
643 13.176 1.3913 5.61645 0.557927 0.240839 0.0152846
3601 14.0075 0.824587 4.98177 1.41571 0.718463 0.310097
951 12.9434 0.646624 4.3853 0.922982 0.181737 -0.515564
1661 14.8306 1.34425 4.55797 0.602426 0.531104 -0.71255
3358 15.0937 0.502255 5.12885 -0.491924 -0.543216 0.0151523
2361 15.7777 1.23495 5.07702 -0.849647 -1.16637 -0.413651
1415 16.9148 0.751277 4.56335 0.413946 0.135426 0.482284
1326 16.128 0.185331 5.45444 0.28522 -0.622859 -1.33432
3247 0.655874 1.72803 5.07592 0.138141 0.468279 1.19102
3295 1.0234 2.57839 4.29013 -0.127149 0.150043 -0.370177
3457 2.10589 2.41616 4.4729 -0.69366 0.212417 1.08419
1797 2.46554 1.97312 5.47074 0.122884 0.0755196 0.00813572
2539 1.54394 2.434 5.35618 0.501886 1.44249 -0.462706
3880 3.31394 1.81834 4.89016 -2.11682 0.986026 0.32078