ITEM: TIMESTEP
51000
ITEM: NUMBER OF ATOMS
4000
ITEM: BOX BOUNDS pp pp pp
0.0000000000000000e+00 1.7099759466766969e+01
0.0000000000000000e+00 1.7099759466766969e+01
0.0000000000000000e+00 1.7099759466766969e+01
ITEM: ATOMS id x y z vx vy vz
476 1.40828 0.65563 1.34994 -0.24382 0.488659 -0.982511
2153 0.84628 1.30464 0.835544 0.0390977 1.98413 -0.776149
2055 0.0550409 0.753257 1.11047 0.651652 1.41045 0.814887
1805 2.24466 1.20179 1.02076 -1.3736 0.420526 0.737933
121 1.90965 0.190884 0.590694 1.04177 0.481328 1.75475
1608 2.57345 0.327189 1.38997 0.931629 -2.82776 -1.22998
735 3.26168 1.15232 1.38005 -0.324704 0.00384692 1.64176
1760 3.90814 0.0734898 1.06808 0.347404 -0.460981 1.09374
1612 3.75458 1.15247 0.0378184 -0.709993 -0.556647 -1.1549
2735 2.86387 0.662813 0.210736 0.528541 1.13854 -0.777703
3368 4.28631 1.40332 0.882541 -0.186269 -0.159074 -1.56555
3119 5.40885 1.18867 1.03653 0.396722 0.277135 -2.11308
2057 4.87549 0.147673 0.053435 0.0211268 -0.805135 -0.23235
1712 6.99837 0.57737 0.484802 1.84171 -0.488284 0.603959
416 6.79054 1.24746 1.21845 0.310923 -1.01718 0.357965
1139 5.91758 0.414121 0.602103 0.780314 -0.735802 4.33024
1762 8.32108 0.771657 0.395999 1.34708 0.755368 1.35584
100 7.80233 0.473773 1.28103 0.150404 0.105134 -0.87884
3231 9.31133 0.925272 1.22144 -0.552464 -0.544217 0.97822
3279 9.12175 0.0545217 0.556709 0.1273 0.878134 -0.688683
3159 11.3111 0.461406 0.344511 1.13413 1.40492 -1.20428
429 10.6905 0.872164 1.07679 0.439218 -0.014653 0.00500162
81 10.278 0.381846 0.12032 -1.05349 0.0980734 0.331317
1175 12.6854 1.09472 0.568856 -0.422853 -0.440613 -0.569361
2485 12.0226 0.319364 1.17281 0.674015 0.999703 0.144706
2451 13.1755 0.266642 1.17128 0.264113 -0.566766 -0.252276
281 13.6504 1.37293 0.0797905 -1.54802 -0.664602 -0.157847
187 13.8198 0.43132 0.48394 0.0828159 -0.192784 -1.51474
3317 14.76 0.975029 1.01857 0.291744 -0.409683 -0.101965
2354 16.2786 1.13325 1.32063 1.19165 -0.188186 -2.05679
1417 15.7275 0.432914 0.796026 -0.718612 0.785793 -0.343925
3795 16.5373 0.899082 0.164945 -0.322909 1.24685 0.291721
2417 0.697693 2.74623 0.735453 0.0847665 -0.293335 -0.760354
1710 2.16877 1.99086 0.352388 -0.912145 -1.83636 0.775632
1731 1.72166 2.72416 1.19508 0.279127 -0.603376 -0.97291
2206 4.03953 2.75779 0.647939 -0.690071 1.07964 0.67018
1311 3.262 2.24911 0.188949 -0.231949 1.17793 -2.19935
3410 4.80805 1.84631 0.196132 -0.727652 0.149945 -0.32071
3445 6.67989 1.56493 0.204972 1.17186 -0.434174 0.712994
3691 6.77067 2.70417 0.659546 0.952738 0.395493 -0.494367
3636 5.93645 1.99292 1.2603 -3.85915 0.794136 0.792846
3843 5.77473 2.37243 0.231526 -2.04035 1.55488 1.05252
1984 7.7273 1.78869 0.83191 -0.187738 -0.982183 0.200722
239 8.31205 2.5163 0.0367389 -0.448364 0.25023 -0.692678
789 9.94891 1.44965 0.0618075 1.05637 0.795081 0.734065
1870 8.88938 1.69698 0.573465 0.170379 0.741297 0.0587608
2067 9.92126 1.75191 1.06271 0.236026 1.03725 -0.318299
2971 9.60372 2.59386 0.33972 -0.584494 0.271696 0.607365
3370 10.9126 1.60056 0.293035 -1.17694 -0.0151639 -0.572345
260 10.9147 1.95811 1.3759 -1.18469 0.676195 0.771467
3509 11.3952 2.58377 0.137033 2.61441 0.835242 1.14503
191 12.0394 2.19721 0.85999 -2.05801 -1.16458 -0.203754
1718 13.2247 1.91812 0.971313 0.770247 -0.286011 0.825673
80 13.9907 2.41647 0.424662 -0.976246 0.284629 -1.47323
1791 14.6332 2.02343 1.10015 0.191688 0.747746 0.27075
2002 15.1998 1.60542 0.00611939 -0.969521 1.02323 0.763935
327 15.7613 1.90707 0.896792 -1.16366 1.06092 1.29543
3761 16.9975 1.76606 0.704928 0.817469 0.0587379 1.65209
713 1.29818 3.55839 0.382535 -0.788947 0.221809 0.672582
3868 0.788545 4.18448 0.980164 -1.69845 -0.00234902 -1.82269
2294 2.20213 3.28321 0.352132 -0.360976 -3.23786 -2.46092
3910 2.52476 4.06794 0.756675 -0.601882 -0.766928 0.293456
1003 3.13017 3.10578 1.27838 1.39158 -0.718193 -0.0161554
2172 3.23783 3.62764 0.059884 -0.397039 -0.649181 0.373728
2953 4.15172 3.53896 1.26786 0.636429 0.676128 0.667315
3225 4.52613 3.91489 0.270337 0.235297 0.0263001 -0.62271
992 5.34187 3.79485 1.24259 -0.52179 1.65595 -0.434743
1408 6.43839 3.97987 1.39608 -0.248082 0.204244 -1.03387
482 6.1718 3.74743 0.427365 -0.410741 -1.11494 -0.576738
1076 8.11581 3.43039 1.25211 0.53085 0.465884 -0.346025
3552 9.65266 3.65796 1.06337 2.42131 -0.443686 -0.00847132
2266 8.69084 3.87871 0.129556 -0.545142 0.955257 1.2673
2402 10.4096 2.91929 1.11451 1.44237 0.620483 0.677568
3027 10.4946 3.27692 0.0120634 2.24023 0.635808 -1.17453
398 10.9142 3.79942 0.873732 0.264481 -1.6442 -2.04783
2387 12.2551 3.11332 0.27088 0.898479 -1.45863 1.14411
3919 11.7719 3.25864 1.1616 -0.399743 1.66515 -0.244553
2077 12.879 2.8585 1.03343 -1.27298 -1.76516 0.914184
424 13.3572 3.83344 0.998702 -1.3016 0.637686 1.73595
3960 14.4593 3.20358 1.2535 -0.486876 0.358007 0.873161
1026 15.1648 2.86917 0.693981 -0.274941 -0.588086 1.361
2901 14.3219 3.77859 0.299348 1.02345 -0.496116 -0.0960266
1521 15.5219 3.81403 0.453399 1.5076 -0.489659 -0.66451
2679 16.9299 3.72312 0.31206 1.33263 -0.905246 1.47555
956 16.4569 2.91328 0.882294 -1.23412 0.611006 -0.511911
1341 0.480223 5.50881 0.920229 0.596612 -0.0456284 1.50171
465 1.22223 4.74109 0.182787 1.49318 1.38121 -0.51672
3498 1.55953 5.10881 1.13152 -1.39244 0.222663 -0.175828
733 2.40923 5.12196 0.430731 0.494445 -0.504313 0.703096
897 3.38089 5.13301 1.06312 1.15417 1.1346 1.54767
1414 5.51377 4.50863 0.404566 -0.0614621 -0.272637 -0.185856
562 4.62193 5.3181 0.443284 0.304605 -0.958469 -2.57943
1643 5.10998 4.96024 1.42066 0.263991 -0.0746112 -0.520489
2558 5.69869 5.45225 0.777804 -0.96611 0.704176 -0.853352
2079 6.81501 4.98017 0.754152 0.924964 0.315739 0.343448
3090 7.52772 4.35506 1.32882 -0.833752 -0.605742 -0.772667
3057 8.50327 4.79236 0.764371 -0.738742 0.812878 0.922905
1471 7.48487 4.43928 0.165518 -0.575433 0.347642 -0.922652
16 9.54162 4.81811 0.284701 -0.957273 -0.544699 -0.191205
1831 10.4057 5.17682 0.667275 -0.000654512 0.297759 -2.4734
1835 12.428 4.31623 0.634486 -1.84717 -0.297011 1.03744
3221 11.4547 5.12873 0.663721 0.956714 0.270494 -1.09342
2379 13.4967 4.97887 0.74568 -1.70426 1.00327 -0.472733
144 13.3694 4.30149 0.0457262 0.431726 1.78757 -1.23548
3723 14.7347 4.318 1.13506 0.38134 1.84784 -0.370413
3664 14.5644 5.42044 1.0665 0.470763 0.21869 0.508331
2050 15.6384 4.92276 0.966943 -0.218443 0.474875 -0.351424
3890 14.4998 4.89179 0.110525 -2.15623 -0.413163 0.699616
164 16.9257 4.55487 0.990849 0.667817 -0.246129 0.343276
978 16.4756 5.54692 1.38686 0.277654 0.534808 2.07738
954 16.5298 5.40792 0.372754 1.67479 0.239706 -0.970469
2078 0.17856 6.40087 0.198931 -1.12558 -0.503278 1.27377
2059 1.24081 6.22143 0.847605 0.364567 -0.42085 -0.69987
1332 2.36165 5.86723 1.26159 1.10278 1.89645 1.0711
1773 2.29486 6.89162 0.433043 1.28994 -0.106275 0.688647
2346 2.9642 5.96671 0.44943 0.760795 -0.18649 -0.299787
3581 4.0456 5.98439 1.05603 -1.71318 0.0193999 0.00184297
984 4.02476 7.00042 0.831025 -0.801638 -0.360678 0.896443
331 5.20086 6.23552 0.237839 2.44865 0.309616 1.89211
3260 5.99933 6.95772 0.647875 1.18334 3.50735 -0.513585
1365 7.09407 7.05637 0.551884 1.30985 -0.419331 -0.709862
1426 6.57821 6.09805 0.628221 -0.545596 -1.76098 2.44239
3736 7.92579 5.71664 0.663537 0.240665 2.45554 -2.36257
769 8.70604 5.94371 0.00691119 -0.486557 -1.23091 -0.671594
3748 8.64416 6.70814 1.1333 0.887673 -1.79778 0.956821
3322 10.5387 6.36216 0.0408448 -0.383237 -0.786033 -0.631022
136 10.5176 6.73429 1.0526 2.69837 -0.0353602 -0.149594
2664 11.7108 6.66572 1.05018 0.59614 -0.133741 1.44401
1548 12.4329 5.95038 0.804401 -0.414142 -2.26898 0.973887
3356 11.4225 6.98255 0.126131 0.465161 -0.490476 0.54367
2625 12.9119 6.73605 0.138376 -0.839742 0.0210046 -1.19025
99 12.9127 6.80653 1.30187 0.276015 0.173552 1.19787
2839 13.7248 6.03337 0.89823 -0.781829 -0.981004 0.265911
2105 15.484 5.73318 0.34931 -2.67224 -1.19425 0.671969
711 14.6105 6.75205 0.175178 -0.044478 -1.10657 -0.573475
2903 15.441 6.07386 1.28115 -0.16636 -1.89769 0.612311
687 15.625 6.88399 0.624628 -1.30947 -0.584344 0.70674
1081 16.3743 6.64638 1.22588 1.0109 -1.0344 -0.343725
52 1.07768 7.17238 0.477305 0.624831 -0.455267 -0.0732761
2286 1.95875 7.74518 1.01786 -1.77983 0.960245 1.75411
2129 1.7703 8.22589 0.0125811 0.177453 -0.143468 1.38386
3696 3.23819 7.20126 0.0700739 2.15269 -0.268962 0.872354
119 3.00618 7.25769 1.27002 0.774023 -0.235638 -0.0712619
3474 3.08589 8.10072 0.682643 1.59732 1.11066 -1.02125
3826 4.84635 8.33529 0.121169 -0.18998 -0.819404 1.19752
2403 4.97716 7.30801 1.03479 0.067257 -0.565081 -0.965217
637 4.79602 8.39053 1.30298 1.82161 0.819042 -0.450188
1286 6.7423 7.50765 1.39938 -0.530366 0.491395 -1.16949
1259 7.02018 8.37777 0.871709 0.828803 -0.131791 0.480528
1591 5.82918 8.05352 0.809389 0.893827 0.255275 0.139539
1806 7.67986 7.79945 0.0418372 -0.918566 0.322138 1.91165
1239 9.51292 8.32348 0.534849 -1.05913 -1.69934 0.192094
3252 8.66147 7.90118 1.28679 2.90056 -0.827857 -1.03134
2261 9.63233 7.216 0.610902 -0.260638 -0.480856 -1.93457
1488 8.66517 7.40922 0.196683 -0.114177 -0.624514 0.235962
1656 11.3501 8.30358 1.11483 0.172321 1.66699 0.237025
1683 12.2678 7.59192 0.453581 1.28127 -0.119021 0.118823
1168 11.6535 8.49972 0.0378534 0.376795 0.475833 0.41829
151 14.1633 8.29123 0.960503 -0.268645 -0.728026 0.308892
1246 13.6253 7.25472 0.743069 0.807368 -0.0393025 -1.46534
365 14.8584 7.40515 1.07688 -0.118137 0.7751 -0.465577
261 15.0902 8.4137 0.599184 -0.0117537 -0.0523914 0.458108
3440 14.3695 7.78939 0.0910126 -1.43691 -0.892747 0.456581
3831 16.8335 7.40341 0.414085 -0.389281 -1.56643 -0.412203
3226 16.0177 7.99776 0.410901 0.0231489 0.0387367 0.618619
2826 0.529497 0.251849 1.9335 1.68382 -0.273521 0.623225
3510 0.243819 1.29478 1.99849 0.558797 1.62502 -0.442398
714 1.15397 1.36406 2.55699 0.695528 -0.768111 -1.93849
609 0.987298 0.105213 2.84624 -0.0711985 -1.41285 1.06245
1151 2.621 1.29375 2.32848 -0.250623 -1.35764 -0.748232
2247 1.83847 0.172738 2.29608 0.874696 0.710281 -0.167108
3145 3.46185 0.354988 2.14545 0.0552543 -0.10602 -0.412871
3363 4.76509 0.515921 1.54218 -0.428334 0.403749 -0.504391
237 5.58968 0.872838 2.07635 -0.074378 0.410284 0.169991
101 4.29743 0.920512 2.83813 -0.0844768 1.06541 -1.06871
3767 6.36791 0.374324 1.57568 -0.10779 -1.50237 -0.349547
743 8.41717 1.04306 2.54346 0.000659222 -0.981879 -0.42638
1638 7.43464 0.432334 2.18161 -0.451463 0.333738 0.165668
1842 9.33782 1.40387 2.22775 2.00925 -0.444492 -0.150104
3630 9.96882 0.350501 2.0749 0.900066 0.602055 -0.628394
1209 8.99033 0.0515648 2.57968 -0.276172 0.671303 -1.04818
917 11.3607 1.05559 1.88339 -0.676648 0.557429 -0.217904
593 10.3513 1.37989 2.01496 0.973704 -1.92984 -0.17946
535 11.0461 0.643617 2.80384 -0.205506 -2.19776 -1.37197
2818 10.8452 0.062624 1.76132 -0.423091 1.07017 0.840526
2999 12.6127 1.02957 1.71007 -1.27278 1.44989 0.642249
2515 13.8748 1.08663 1.67794 -1.76558 0.999712 0.893851
3472 13.2241 0.256493 2.2054 -1.47899 -0.31245 0.325319
3164 14.8301 0.0692071 2.31407 -1.4012 -1.43524 0.143681
1462 14.7491 1.06185 2.73965 -0.145329 -1.33193 -0.0702901
651 16.738 0.520985 2.4212 1.22561 0.713871 0.610088
3920 15.7019 0.595759 2.08709 0.433705 1.67398 0.0879142
805 0.894251 2.52549 1.89791 1.30981 -0.322704 0.205456
3142 0.114347 2.0045 2.66059 -0.763466 -0.176761 -0.13398
1512 1.6188 1.7444 1.59077 -1.74509 -2.40275 0.0546813
1170 2.59706 1.99347 1.51081 1.18115 -0.214359 -0.689166
2945 1.83873 2.14844 2.5051 0.771986 1.49244 -0.86242
688 3.68832 2.26316 1.58476 -0.120951 0.267496 -0.399021
72 4.10942 2.15108 2.47057 0.00468864 -0.351689 -0.850298
3706 2.94412 2.55659 2.45354 0.0767958 0.417534 -0.582373
354 5.67962 2.25272 2.23002 -1.26229 -1.0068 0.543246
1045 4.94373 1.7681 1.77395 1.33612 -0.660876 0.566451
2081 6.9485 2.462 1.71518 -0.0968517 -1.20243 -0.352458
1891 6.4993 1.47312 2.22841 -0.141251 -0.130277 -0.693343
588 7.55287 1.54004 2.0327 -0.0804494 0.808111 -0.706451
210 7.96001 2.48731 1.53674 1.82058 1.3546 -0.623932
2303 7.45275 2.47085 2.73835 0.1872 1.59715 1.44002
3336 8.42175 1.44175 1.47744 0.387103 -1.08844 -1.06579
282 8.51016 2.1003 2.31673 -1.64759 1.81755 -1.18762
3590 9.26872 2.34853 1.59705 1.01896 0.908136 0.467999
231 10.0915 2.7241 2.08605 -0.144882 0.0475211 0.00816007
675 11.1143 2.84655 2.10335 0.0341694 -0.375276 -0.863581
2854 12.5206 1.741 2.43401 -0.13016 1.17077 -0.67377
2959 11.4771 1.73912 2.84995 -0.252888 -0.0507271 -0.730111
41 12.2593 2.48339 1.86835 0.424322 0.514504 1.0001
753 13.3706 2.77352 2.05871 0.559113 0.124291 -1.1307
477 14.2652 2.01944 2.12364 0.13438 0.851148 0.878307
2724 15.4951 2.59453 1.67688 -1.82718 -1.38804 -0.391372
630 15.1748 2.27542 2.60781 0.824331 0.765522 0.182706
319 15.2169 1.56791 1.79767 0.014366 0.190343 -0.679743
3741 16.0995 1.58274 2.40954 -0.447132 -0.408294 -0.0838311
1966 16.9974 2.34989 1.61931 -0.95943 -0.47728 -0.571744
3343 16.2846 2.62436 2.49072 1.96627 -0.211857 -1.25598
2756 0.0688333 3.18665 2.59316 0.448499 -1.32714 -0.654006
3360 0.0117615 3.58292 1.42508 0.280321 -0.235058 -1.64966
270 0.941999 3.66837 1.95749 0.234172 -0.742868 2.09771
339 1.84985 4.19747 1.60999 -0.226976 1.90573 0.692
1815 2.30157 3.24364 1.99679 0.630514 -1.1233 -0.200039
3841 3.12211 4.11792 1.64496 -0.741823 -0.0612324 0.590789
456 3.79866 3.30213 2.37655 0.239924 0.229397 -1.14214
1436 4.56876 4.09373 2.3477 -0.515694 0.927942 -0.716136
2154 4.8324 2.89992 2.05605 -1.111 1.28799 0.191277
299 5.65421 3.49549 2.41227 1.22887 -0.461425 1.27482
1152 6.47817 2.94378 2.55968 0.396597 1.02152 -0.424725
2498 5.97363 3.00783 1.50988 0.399816 -0.431103 -1.86765
2357 7.23277 3.41395 1.87096 1.08038 0.629688 1.21031
271 7.77376 4.17403 2.31651 0.621081 2.11354 -0.304436
1069 8.09601 3.25903 2.63548 -1.7613 1.37317 -2.03061
2142 9.23542 3.01317 2.65244 -0.0971277 0.58768 -0.462048
1120 8.7872 4.05298 2.11793 -0.347896 0.694275 -0.284325
2640 9.90053 4.03972 2.07062 -0.778231 -0.541565 0.0556223
3835 11.2296 4.01202 2.07249 1.04613 -0.525471 -0.952104
920 12.5769 3.81142 1.56814 0.95394 -0.592215 0.343333
1344 12.2598 3.76594 2.50842 0.533108 -0.398123 -0.818669
1690 13.5286 4.00107 2.031 -0.718907 1.24528 -1.56869
2351 14.5856 4.16989 2.45396 1.07427 0.626342 0.117825
2238 14.4608 3.1002 2.26049 0.275214 -1.07384 -0.0575066
1545 15.3025 3.67023 1.8582 0.317498 0.667779 0.541506
76 16.2988 3.55355 1.97135 1.45339 0.784192 -0.388979
3470 0.84467 4.80353 1.99304 -0.645035 -0.0902459 0.228492
2333 2.75622 4.53473 2.67774 -0.506065 -0.193768 -1.60666
2722 1.86842 4.9262 2.31957 1.09632 -1.20055 1.60503
549 2.64333 4.98766 1.65827 -1.8297 -0.0442963 1.30814
3257 3.92086 4.85345 1.88747 -0.424044 0.341344 0.480385
3200 3.38631 5.38008 2.61586 -1.84784 2.01048 0.411032
829 6.63194 4.28804 2.26951 -0.0846232 0.552073 -0.552072
2883 5.7084 4.67449 2.17178 0.159715 1.18839 -1.16734
1321 7.0284 5.17443 2.04408 -1.75618 -0.0337162 1.48449
2162 6.34019 5.69423 1.6426 1.33978 1.31768 -1.94341
3144 8.27469 5.37976 2.64567 2.42831 0.454831 -0.737765
1747 8.26548 5.43788 1.65929 0.0904696 0.527964 0.531966
2846 9.35601 4.80115 1.52811 -0.677095 -0.518259 -1.04597
3660 9.45361 5.27646 2.4411 0.172809 0.562303 0.187512
273 10.6572 4.76642 1.56813 1.38584 -0.415101 -0.676844
677 11.8642 4.67716 1.69803 1.32475 1.07017 0.771956
2603 11.4242 4.94169 2.66525 -2.20944 -0.242868 -0.530067
1034 12.4401 5.64679 2.32979 -0.161563 0.652185 2.29269
2044 14.0496 5.01494 1.90033 -1.177 1.26921 -0.427063
3523 13.9932 5.61893 2.6912 0.415103 0.686563 1.79606
2449 12.9697 4.95554 1.68929 0.335674 0.0686987 -0.294005
2817 13.4762 4.71269 2.80144 -0.922579 -1.03481 1.04782
1937 15.5497 4.33581 2.77795 -0.113233 -0.0755793 0.757553
1597 15.0869 5.35301 2.137 -0.426824 1.03612 0.930897
1087 16.1251 4.57057 1.91574 -0.11673 1.26177 -1.22905
2789 16.929 5.44977 2.29514 0.175606 -0.377335 1.28778
433 0.932994 5.91709 2.8462 0.150899 -0.875557 -0.687994
980 0.940262 6.9169 2.06825 -0.949877 0.41405 0.397985
754 0.0724679 6.39534 1.82495 0.732728 3.131 -0.387421
969 1.55366 5.88679 1.94915 2.0831 2.26106 0.605713
1400 1.75264 6.67603 2.68075 -1.21666 1.11821 -1.42995
158 2.48289 5.90205 2.52923 0.284352 0.329821 1.10082
832 1.88494 6.7869 1.60263 -0.398842 0.684603 -0.143627
842 2.66424 6.83011 2.27334 -1.1504 0.0909691 -0.672211
1692 3.29429 6.13545 1.74194 2.09683 -0.920085 -0.732834
2442 3.71276 6.42114 2.81214 -0.144334 1.54921 0.479844
779 4.34455 5.7556 2.2455 2.79789 -0.673059 -0.50017
498 4.97103 7.08759 2.07469 -0.405286 -0.256219 -0.598502
1527 5.49155 5.76105 2.49283 -0.457136 -0.380643 0.295201
591 4.92344 6.18523 1.5502 0.966499 0.0479182 -0.202959
2488 6.51117 6.04352 2.67137 -2.67187 0.207784 0.770395
1136 5.85125 6.76843 1.65298 -0.169768 0.145435 0.498419
2525 7.78591 6.97994 1.63644 1.60915 -0.589312 1.85195
1715 7.50229 5.98027 2.56845 -0.126269 0.481091 -0.122541
445 8.40254 6.38111 2.15558 0.240586 0.516758 0.0455045
1442 7.45484 5.97535 1.46796 0.72445 0.951691 0.275797
1864 9.74465 6.35597 2.39549 -2.4021 0.370478 0.542478
3637 9.31854 5.9875 1.49561 1.1109 0.00308327 2.11285
127 10.6432 5.86149 2.79475 0.0645939 0.836396 0.437185
4000 10.3478 5.77399 1.72571 -0.518606 0.592301 -0.286697
1983 11.1438 6.77234 1.99476 -1.31199 -0.272278 -0.585727
3419 11.494 5.80752 1.90299 -0.501961 -0.985804 1.1639
2605 12.3118 6.80493 2.3839 -0.900348 0.342264 -0.728653
998 14.2016 6.21749 1.79143 -0.411794 -0.434493 0.128897
932 13.3542 7.12161 2.15541 0.520896 0.48755 0.389371
3672 13.4067 6.36172 2.8267 -0.772652 -0.558137 0.310987
3749 13.2943 5.83685 1.86622 0.287152 0.620734 -0.777372
2875 15.2042 7.03626 1.99619 -0.0991174 0.0912824 -0.216434
3802 14.9499 6.30808 2.73996 0.207065 1.32756 -0.842318
595 16.1244 6.15771 2.15728 1.036 -0.680649 0.509867
415 16.6481 7.07136 2.41689 -0.316972 -0.96968 -0.593944
2107 0.255523 7.87382 2.54093 0.857849 -0.979307 -0.826649
949 0.860215 8.08055 1.54046 -0.776336 -1.78403 0.172367
1566 2.14797 7.77439 2.031 1.36537 -1.71352 0.372917
1833 3.88933 7.2351 1.88943 -0.316727 1.68429 -0.75873
1177 3.07856 8.39153 2.65792 -0.383709 0.385205 -0.929855
3887 3.80315 8.45075 1.81757 0.420457 -0.311781 0.268978
2208 4.68231 8.00993 2.56372 0.7502 -0.665596 -0.0424345
2977 6.07006 7.48168 2.53353 0.286201 0.159807 0.592409
1640 5.7147 8.22647 1.84434 -1.77395 0.105787 0.430378
2070 6.71202 8.39828 2.20335 0.0972967 -0.548514 1.07582
229 8.50916 7.44979 2.30625 0.526572 0.0937858 -1.4274
2302 7.14471 7.23479 2.43164 -0.413714 2.37038 -0.616528
1590 7.81468 8.2319 1.76981 -0.176252 0.382216 -1.09318
985 8.92679 8.35087 2.27037 -1.04798 1.73625 0.0168878
2614 9.40244 7.28821 1.77885 0.563238 -1.38111 0.652445
3408 10.6385 7.66465 1.48567 -0.584763 -2.04663 0.0844131
481 10.3615 7.30411 2.43067 -0.0412473 0.439616 0.0700722
3580 10.8035 8.49425 2.54824 -0.363668 -0.575124 -0.24601
337 12.7503 7.75492 1.54156 0.706523 0.526898 -1.00375
1583 11.8368 7.54637 1.72864 -0.234141 0.454497 0.33669
2250 12.8891 7.96529 2.473 0.219906 -1.74217 -0.531703
3359 14.0189 7.70153 1.69913 -1.07628 1.27676 -1.11069
3505 13.8681 8.48115 2.70486 0.869014 -0.641889 0.181819
1099 15.0597 8.39224 1.5886 0.182821 0.623931 0.555608
2958 14.3512 7.16359 2.6271 -0.0869605 -2.20457 0.33358
657 14.9887 7.98192 2.54087 -1.26851 0.44763 1.70859
1896 15.8146 7.60422 1.44007 0.487625 0.738736 -0.380981
3954 16.9961 7.63813 1.49915 -0.112719 1.93598 -0.395962
132 16.2554 8.5376 1.81891 0.351853 -0.148782 -0.921232
3259 15.9763 8.2835 2.79754 -0.725084 0.234644 -2.18693
2001 0.40097 0.990242 3.39477 0.0216199 0.68756 -0.22028
3976 0.70048 0.132691 3.85285 0.348486 -0.427965 -0.840499
2472 1.71294 0.936652 3.29121 -1.20198 -0.261478 1.39699
1921 2.59519 0.358037 3.09295 0.138325 -0.825737 -0.423597
2496 1.92919 0.026985 3.95997 -0.0750144 1.15059 0.242866
1043 3.07503 1.26691 4.24158 0.755753 -0.135899 0.508482
1411 3.91297 0.575566 3.80565 0.00674301 0.0260601 -0.542746
2834 6.24473 0.458595 2.98364 1.02923 -1.98183 2.01361
3379 5.9625 0.695098 3.93351 -0.154854 0.119725 -0.914948
3009 7.38908 0.998802 2.96171 -0.0947412 -0.0680462 -2.88885
3786 8.3156 0.919343 3.78176 0.603267 0.0978161 -1.25914
635 7.3578 0.978479 3.97427 -1.16489 0.0396102 1.26658
889 9.53044 0.78082 3.16143 -0.642214 2.24512 0.375169
3338 10.3639 1.23385 3.54785 -0.81602 0.481237 0.701122
300 10.575 0.346759 4.05286 0.510763 0.830099 0.124538
3290 12.2139 0.864224 3.02059 -1.69507 -1.05535 -2.26447
418 11.6908 0.0256732 3.44729 1.90163 -0.403623 -1.64432
2235 11.4589 0.968942 3.78039 -0.668399 -1.10898 -1.40437
963 12.4152 0.566303 4.04298 0.127653 -0.793268 -1.81317
1621 13.9798 0.0149017 2.8622 -0.683649 0.153884 1.63083
951 13.3102 1.10788 4.23956 2.3128 -0.00455972 -0.860345
262 14.0163 0.288257 3.86247 -1.04004 -1.0858 -0.942361
1677 13.4672 0.951462 3.08031 -0.644118 0.399486 1.92825
578 14.9121 0.291519 3.38637 -0.201742 0.983105 0.85828
1688 15.469 1.232 3.65025 1.42693 -0.45682 -2.15849
166 14.3271 1.25187 3.91354 -1.18372 0.765388 -0.0817179
1200 15.9564 0.431039 3.32286 -0.285522 -0.0192081 0.441734
212 16.4663 1.01021 4.01363 -1.37207 1.17858 -0.33668
2446 0.9202 1.87606 3.45224 0.677165 -0.781469 -1.94434
3777 2.39136 1.68831 3.40035 0.0754666 0.513903 1.21059
904 1.75305 2.42322 3.98624 -1.71091 0.227371 1.62126
2588 3.4557 2.62254 3.63154 0.422533 1.56571 1.16069
3966 3.34784 1.79349 3.06112 0.945568 0.500905 0.709019
3820 3.99108 1.73568 4.10562 -1.76558 -0.949562 0.497811
686 4.79314 2.68355 3.16962 0.0421108 -0.281092 -0.140865
943 5.41658 1.54024 2.85037 -0.106927 -0.586523 0.771145
3975 5.24527 1.53405 3.80914 0.52788 2.22787 0.631399
1841 4.64484 2.46036 4.10848 0.392627 -0.238521 1.05239
1847 6.59071 2.64741 3.94166 -0.519662 0.0472628 -0.721298
1113 6.43425 1.5783 3.51142 0.87879 -1.38614 0.0478097
35 5.89344 2.41432 3.24027 1.39276 -0.965719 -2.26297
1041 7.44667 2.0349 3.68891 2.57036 0.986567 0.0984156
3403 8.2816 1.88598 3.32268 -1.65025 0.960325 -0.134101
2363 9.25681 1.46052 4.11012 0.063507 1.46702 -0.326896
1195 8.59395 2.82567 3.4642 0.0353409 -0.543046 -0.743595
2590 9.48194 1.91595 3.18463 -0.774629 0.5942 -0.432365
523 10.6151 2.47383 3.06491 0.665825 -1.26029 0.521881
726 10.0978 2.13946 4.09321 -0.391488 0.476361 2.12703
680 11.1626 1.95234 4.019 0.146281 -1.20788 -1.39484
454 12.3671 1.62997 3.71778 1.0024 -0.278676 -0.854557
421 13.5482 2.215 2.93056 -0.430751 0.829028 -2.42759
2758 13.5686 2.04385 4.0854 -1.79865 0.181407 0.1835
3390 14.5068 2.23506 3.51049 0.634065 1.48256 -0.387546
1325 17.0204 1.91298 4.01879 -0.876978 1.72267 1.35425
3462 16.2197 1.95269 3.39092 -1.36168 -0.353711 -0.812814
2010 0.722552 3.96117 2.9023 -2.80629 -0.952115 -0.374042
2567 1.28739 3.74554 3.7952 0.395705 -1.51357 -0.585639
2132 0.482595 2.93512 3.68865 -1.30278 -0.629946 0.848687
664 1.35825 3.01497 2.97851 -0.244663 -0.512889 -1.10838
3923 1.89899 3.85871 2.9498 0.0974169 0.207843 -1.04004
2480 2.33352 2.93574 3.35933 -0.389472 0.81783 0.544571
2762 3.16544 3.53486 3.07554 -0.0124468 -0.229811 -0.363917
2867 4.20072 3.59317 3.23966 -0.192616 1.43737 -0.316717
342 3.03655 3.50374 4.12192 0.850025 0.834373 0.966543
2331 5.20947 3.55021 3.53828 0.694672 -0.369968 -0.529799
2410 5.93842 4.19007 3.12299 0.214555 0.0545905 1.01717
478 6.7465 4.10776 4.03003 -1.12651 -0.0421828 -0.265384
2774 7.12696 3.69991 3.05382 -0.305161 -0.0426883 0.0806235
3316 8.46536 4.1734 3.17866 0.398851 -0.477682 0.213133
913 7.5869 3.15575 3.9058 -0.286894 0.547262 1.88502
2853 9.4264 3.93846 4.02295 0.998942 -0.855362 1.02718
316 9.84686 3.05175 3.54552 0.752054 -0.861565 -1.34699
1541 9.46857 3.97513 3.02768 -0.0635233 2.38463 0.588287
157 10.5828 3.63938 2.85121 -0.35936 0.904339 0.257922
2091 10.4417 3.90538 4.07538 2.32169 0.543808 -0.647937
2540 11.3184 4.05845 3.29148 1.65716 -2.21342 0.386007
3911 11.1341 3.11952 3.81012 -1.38536 -1.07734 -0.224166
230 12.7614 2.95244 3.66382 0.0504432 -1.40087 0.773832
3924 11.8486 2.86818 2.91856 -0.966846 1.04841 0.420158
3236 11.956 3.75198 3.96874 -0.912909 0.0137801 0.630456
3008 13.6839 3.27192 3.012 -1.56793 0.868741 -0.775389
3427 13.0122 4.00751 3.46443 1.94118 -1.13084 -0.309244
3712 14.9302 3.32126 3.16545 -0.198534 -0.592133 1.71554
3765 14.2724 3.95035 3.71497 0.457248 -0.188398 -1.61274
1543 14.3586 3.00027 4.2182 0.0884269 -0.15134 0.920571
1648 15.8399 4.0451 3.71805 -0.761482 -0.36881 0.470845
3624 15.883 2.91639 3.59674 -1.67869 -0.378897 0.689024
1976 17.0853 3.9062 4.22683 -1.24663 -0.54077 -0.14701
1644 0.693117 4.73922 3.857 -1.63293 0.622769 -0.987295
1333 1.26897 5.6918 4.0248 0.561267 -0.350151 -0.302061
1178 2.06658 4.52712 3.74859 0.756123 1.75734 1.38959
347 2.36525 5.44826 4.13783 1.08667 1.2096 -0.412323
532 1.77844 5.55454 3.16636 -0.324966 0.271061 -1.83467
488 3.25181 4.66101 3.78267 -0.808218 1.44136 -0.176721
2115 3.95704 4.62008 3.03162 -0.23928 -0.45216 0.25304
2127 4.4931 5.55572 3.25712 0.895956 1.23568 0.437834
2702 4.44431 4.90206 4.25436 -0.35543 1.63385 0.167169
2751 5.56487 4.60726 3.96965 0.930863 -1.22729 0.481598
2035 6.57438 5.14924 3.14434 0.295005 1.61694 0.633207
1854 7.5252 4.78064 3.40009 -0.168816 1.18031 0.805075
638 9.83762 4.85542 4.22319 -0.0263889 -0.382877 -0.952603
3551 8.76473 4.76023 4.06227 2.0929 -1.921 0.733096
2703 9.62623 5.61786 3.5009 -1.03859 -0.751212 0.491153
2994 10.3401 4.58284 3.03375 -1.6968 -0.409599 -0.0428008
1676 10.7957 5.1179 3.73687 0.279011 -1.75508 -0.180413
3450 12.4288 4.77349 2.85739 0.766265 -3.02862 0.141667
2385 11.9337 5.33653 3.99918 0.635064 -0.481556 -1.74333
2386 12.6255 4.70683 4.18866 -0.155994 -0.125274 -1.12819
385 12.8936 5.50957 3.46781 1.13042 -1.38046 -0.188339
3529 13.6345 4.93811 3.94115 -0.373451 0.109038 0.50991
2237 14.6941 4.98163 3.01615 0.878013 0.733808 -1.56256
2508 14.8147 5.23469 3.95185 0.0369645 1.36939 0.300424
3166 16.9624 4.46154 3.05628 -1.65287 -0.486687 -0.987889
2293 16.5899 5.05886 3.83679 -1.03956 -1.48316 0.859202
1813 16.0951 5.17715 2.95949 -1.20185 -0.609473 -0.273192
2169 0.301169 6.82498 4.09115 -0.209804 -1.01843 -0.610355
3254 0.579799 6.8661 3.05238 0.608044 0.52733 -0.153935
178 1.70177 6.76028 3.84193 1.52126 1.10198 1.26943
531 2.57801 6.31237 3.50631 1.58429 0.80882 -0.17095
602 3.45413 6.69574 3.77965 -0.218247 2.72035 -0.724119
11 3.55926 5.74459 3.61082 1.48548 4.01807 -0.489973
3267 5.32188 6.71936 3.03568 -0.688139 0.0795741 -0.0335158
3388 5.05513 6.39246 3.98152 -0.680795 0.529391 1.59217
460 5.84407 5.76614 3.58565 0.93486 1.36166 1.9767
496 6.95301 5.81111 3.85238 -0.798392 0.472133 -1.18184
1582 6.10516 7.00639 3.8205 0.453076 -0.0436443 1.23389
2902 8.48446 5.78344 4.14768 -1.5545 -0.715676 -1.24812
118 8.24126 6.90428 3.38184 -1.76359 0.736869 -0.0969436
1274 7.16645 6.62572 3.31352 -0.0789836 -0.729865 0.607709
2606 8.85092 6.16356 3.04523 0.994762 -1.01692 1.20246
656 9.36843 6.67644 3.81796 0.0233389 -0.224585 1.67972
3974 10.4404 6.73419 3.43521 0.121427 0.348327 -0.544255
1732 10.9733 6.11116 4.07689 0.619261 1.06274 0.909138
811 11.6674 6.08036 3.04621 0.310274 0.895913 -1.05281
894 12.4297 6.50117 3.60013 0.554298 -0.728366 0.135667
2656 13.8684 6.01894 3.68416 -2.72946 -1.09091 -0.32032
1917 15.6521 5.79655 3.74661 0.32513 -0.392112 -0.127155
355 15.1806 6.8916 3.63439 -2.41247 -0.246123 -0.951468
2727 15.8984 6.90003 3.05489 1.45878 -0.0609076 -0.56689
3157 16.8001 6.10425 3.18976 -0.0140517 -1.12694 0.472359
1435 16.0362 6.9652 4.20989 0.835125 1.098 -1.08795
1331 1.2897 7.83977 3.02422 -1.04489 0.385426 0.843434
2843 0.527791 7.99401 3.83468 0.0310428 0.222888 -0.153373
2375 2.31464 7.52517 3.14854 -0.0665624 -0.929009 -0.558882
2013 1.81549 7.79879 4.05267 -1.85404 1.73268 -1.01792
167 2.83534 8.46692 3.72259 0.514907 1.26778 -0.167589
3250 2.7317 7.38237 4.16702 0.970909 -0.0952125 -0.92634
3823 3.35006 7.45011 2.91387 -2.5528 -2.02162 -0.647844
3973 3.725 7.78754 3.84694 -0.865531 -1.26451 -1.24955
2257 5.10329 7.76824 4.05305 -0.45922 -0.634991 -0.230399
1265 4.40017 7.1542 3.42585 1.455 -0.580334 -0.692324
2561 5.79264 8.34495 2.92285 -0.577802 0.856177 -0.316831
2633 6.76471 7.76349 3.25682 0.875252 1.34946 0.077924
1641 6.11268 8.06697 4.04377 0.315222 -1.46663 -0.653524
1744 7.6072 7.62174 3.97735 1.28053 0.422005 0.84569
1577 7.97766 8.14883 3.13146 -0.370527 -1.07454 -0.100609
2316 8.74117 7.7622 3.81692 0.837633 -0.694217 0.928642
3796 9.2194 7.30809 2.92019 -1.3434 -1.19703 0.575431
264 11.1557 7.89746 3.82329 -0.510364 -0.0885501 -1.10416
3493 10.0613 8.01661 3.36577 -1.93415 1.64235 1.71651
3204 10.0911 7.41535 4.12244 0.619205 -0.14786 0.501961
2542 12.4133 7.62449 3.95113 0.259924 0.32327 0.482849
1786 11.4637 7.17937 3.01765 -0.87805 -2.05642 0.673255
3011 11.8444 8.20508 3.03529 -0.899339 1.22748 0.932871
3318 13.2043 7.25278 3.2856 -0.141309 0.428848 -0.371108
1598 14.1374 8.11003 4.20243 -0.0469914 0.405405 0.0733728
2580 14.1746 7.12789 3.88522 -0.995435 1.23801 0.931803
413 13.2726 8.32067 3.6058 -1.35652 -0.686076 -1.13716
1304 15.202 7.92118 3.56962 -0.708536 1.11266 1.49448
160 16.7278 7.48424 3.37583 0.732044 0.349205 -0.193983
1374 0.843661 0.761466 4.61193 -0.0772726 -0.139748 -0.109832
3768 0.213824 0.270011 5.56944 -0.584541 -1.21561 0.0660112
439 1.98189 0.350816 4.90625 0.570067 -0.104898 -1.13979
1219 1.6366 1.36969 5.61572 0.401716 0.563089 0.791945
2389 1.95156 1.1768 4.2938 -0.638896 0.397608 -0.832955
1278 2.9259 0.258381 4.43931 2.69307 -1.26444 -0.805773
3092 3.66428 1.00105 4.98023 0.763973 0.353759 0.340255
376 4.0134 0.00569507 4.68286 -1.12222 1.85792 0.519007
165 4.85558 0.896741 4.36427 -1.49275 0.43407 -1.45293
2940 4.76649 1.05879 5.6211 -1.66149 1.14525 -0.132285
1490 5.95875 0.220061 5.59841 1.21332 -1.33763 -0.50509
2304 6.56942 0.319575 4.71581 0.13219 0.379908 1.0302
494 5.95221 1.37644 4.77846 -0.933785 0.781351 0.417981
2775 6.82095 1.11712 5.48084 1.13871 0.933053 -0.543551
737 7.48651 0.232749 5.4708 0.171031 -1.09296 0.603582
2369 8.08554 0.85734 4.78854 1.74564 0.587157 -0.554214
3627 9.17669 0.673521 4.73254 0.520339 -1.44065 0.24049