ITEM: TIMESTEP
78000
ITEM: NUMBER OF ATOMS
4000
ITEM: BOX BOUNDS pp pp pp
0.0000000000000000e+00 1.7099759466766969e+01
0.0000000000000000e+00 1.7099759466766969e+01
0.0000000000000000e+00 1.7099759466766969e+01
ITEM: ATOMS id x y z vx vy vz
2565 0.54627 0.456577 0.794404 -1.15033 0.61383 0.602301
3679 1.76755 1.20638 0.904468 -1.25142 -0.116322 -0.891282
30 2.25846 0.358728 0.52447 -0.927298 -0.964312 -0.913519
2693 3.32423 0.242791 1.25939 1.91573 -1.58049 -0.179902
2747 3.23979 1.06085 0.213438 -1.46716 0.499393 0.599983
741 5.26123 0.438377 1.06933 -0.429997 0.468905 0.571858
1774 5.10704 0.845854 0.151965 1.11202 -0.331847 0.380819
952 6.30449 0.317239 0.901015 -0.53523 1.59071 -0.355562
3115 7.03115 1.22878 0.508069 0.326873 -1.49292 0.478825
857 6.044 1.08477 0.000717417 -1.39329 -0.7853 -0.0200493
1524 7.82726 0.000979831 1.08907 0.442089 -0.190169 1.06819
3087 8.11238 0.906736 0.5422 -0.349463 -0.512536 0.929401
2660 9.06472 1.34635 0.39627 -0.442404 1.00553 -2.03414
1957 8.89225 0.60974 1.21937 -2.00029 0.0922975 -0.0447751
3506 9.63257 0.18544 0.0889054 0.546984 0.34866 -0.230759
3204 11.2945 0.675307 1.17604 0.450946 0.823052 -0.39826
3366 9.97829 0.892623 0.897575 0.375358 -1.95902 -0.506618
682 10.928 1.10648 0.173487 -1.54284 3.68404 -0.41029
860 11.9907 1.11886 0.567518 0.479462 -2.2933 0.408421
2227 11.683 0.312035 0.00131191 -0.202524 -1.67759 -1.61109
2898 12.1664 0.134921 1.11771 -0.941958 -0.682064 -0.889328
1090 13.069 0.478364 0.383492 0.116213 -0.390017 0.630743
2475 13.4496 0.195207 1.24162 -0.681559 0.700813 -0.110003
1749 14.1532 0.969915 0.69196 -0.217607 1.1964 0.212783
1608 14.9812 0.436709 0.951774 0.593098 0.257874 -0.606602
2800 15.6839 1.17413 0.840964 0.743706 0.625356 -0.888904
2915 16.7083 0.974894 0.510405 -0.348835 0.908136 -0.429809
1461 0.667461 1.56118 0.632699 -1.0504 0.856848 1.01792
1126 1.45721 2.39035 0.238217 0.686084 -0.834376 -0.269883
3403 1.94547 2.17097 1.19821 -2.73854 1.17448 -1.72123
2247 2.41011 1.82935 0.167374 0.980209 -0.481993 2.07291
3615 3.75559 2.21876 0.552943 0.696487 -0.00844216 -0.104357
2679 2.88275 2.73539 0.157158 -0.223444 1.92001 -0.646481
864 2.99702 1.9392 1.32284 0.715272 -0.834255 0.733283
1099 4.95063 2.69075 1.186 0.892101 -0.277928 0.585612
2346 5.42909 2.7495 0.285011 0.0451551 1.44363 1.75559
769 4.62775 1.56538 0.847079 -0.618481 0.294584 -2.08399
3919 6.85245 2.79527 1.18098 0.431328 -0.0959005 -0.90392
3517 6.1769 2.18033 0.738625 1.02379 0.108114 0.535533
3263 7.29741 1.84205 1.36516 1.08073 0.899826 2.13505
2246 7.98472 2.76013 0.864031 0.47844 -0.559503 -0.755026
1534 8.47643 1.8105 1.32119 1.09859 0.79808 1.12467
730 7.31103 2.19187 0.319573 -0.797285 -0.303476 1.45512
1040 8.35334 2.12708 0.245096 -0.825748 3.01839 -0.774995
1365 9.13685 2.55138 1.07681 1.21262 -0.36407 -1.096
3627 11.2802 1.91563 0.911343 0.560313 -0.443338 0.54837
1486 10.0626 1.97201 0.432106 0.133471 -0.572391 0.752078
2826 12.1901 2.04634 1.23076 -0.836311 -1.95009 0.448033
1535 14.0855 2.30273 1.13327 0.924366 1.21387 0.322308
3008 13.1416 2.45772 0.864475 -1.03863 -0.143352 -0.855365
511 13.8329 1.80695 0.209407 -1.2253 2.66038 0.88187
1428 15.2327 1.8328 0.0400497 -0.711138 1.42307 0.275913
2930 15.0466 1.85075 1.42062 0.534314 0.990573 -0.80078
2608 17.093 2.75325 0.438828 0.0939057 -0.817629 -0.538432
677 15.8843 2.46842 1.23212 -0.905103 -1.42284 1.85439
1557 16.3166 1.83407 0.0625778 -0.918507 -0.208791 -1.19932
2789 15.7839 2.63743 0.203104 -1.80405 0.174261 -1.53551
595 16.6929 1.74059 1.129 -0.610632 0.0948135 0.416454
2160 0.614184 3.38061 1.04125 -2.04624 2.16829 0.277698
2567 0.93569 3.7683 0.0678387 0.63167 -0.994086 1.5397
1903 2.5525 3.08182 1.08548 -0.234266 -0.465302 0.401041
3688 2.5094 4.10478 0.489127 -2.18207 -1.48726 1.2379
921 1.67087 3.69356 0.823358 0.420462 1.33415 -2.64573
3413 2.0394 3.20278 0.053596 0.760275 0.906947 0.0958938
3670 3.46333 3.97619 0.873289 -1.13177 0.898237 0.0998703
3257 5.63961 3.94799 0.44374 -0.140094 0.651899 -1.95672
1369 4.6412 3.60435 0.541342 0.237676 0.702813 -0.805064
1499 6.50888 3.46291 0.457912 -1.35052 0.48542 -0.733141
2315 8.39209 3.73313 0.926767 -0.803185 -0.83207 -0.557723
645 7.35638 3.65741 1.02257 -0.317421 -1.40154 -1.29886
3954 9.50153 4.08421 0.580347 0.0161729 0.758011 -1.42034
3574 9.63529 3.14287 0.0273514 0.831404 -0.946956 0.0678911
3009 10.0248 3.10754 1.02807 1.29928 -0.853871 -0.0312657
1077 11.3756 3.16411 1.21263 -1.39656 0.149808 -0.853357
2586 10.5589 4.11396 0.911729 0.763344 -0.0566572 1.27925
90 10.7233 3.24943 0.0726581 0.755577 0.0922694 -0.424201
2248 12.4192 3.15394 0.833832 -0.496045 0.651452 1.6729
223 12.5685 4.07258 0.36594 -0.250252 0.55837 1.40953
15 11.4897 3.90228 0.455804 0.527181 1.11436 -0.601982
1845 13.4769 3.64598 0.939086 -1.59768 1.42229 -0.699585
3200 14.1271 3.03008 0.389241 1.13434 1.24759 -0.661577
3741 14.4648 4.10889 0.854244 -1.91346 1.46648 -0.890038
3132 15.36 3.90727 0.294701 0.500257 -0.309222 -0.39601
1539 14.8503 3.22902 1.3704 -0.889857 0.0422456 0.945895
2688 16.425 3.43993 0.637247 0.0378587 -0.0211147 0.0430782
2687 0.0244733 4.28493 0.497899 -1.40553 0.207372 -0.313756
1400 1.10278 4.73476 1.06394 -0.886947 0.180421 0.396209
1600 0.227822 5.38946 0.744157 -0.346497 0.23177 2.15219
2637 1.12387 5.69733 0.256726 1.28483 0.81469 -0.479074
1715 1.51348 5.60019 1.28695 0.579787 -1.1632 0.921916
3661 2.38541 5.17582 0.761584 2.2079 1.55574 1.32736
2050 1.67441 4.64966 0.246869 -0.802159 0.175224 1.61022
2442 3.29143 5.3278 1.20366 -0.0680324 -1.36916 0.543419
3962 4.2963 5.69154 0.812117 -0.441481 1.11332 0.531513
2883 4.6278 4.59709 1.01621 0.606486 -1.53977 -1.79773
3495 5.51398 5.08964 0.594966 2.49212 0.655549 -0.534389
3501 6.45904 4.56316 0.344904 -0.730283 0.598975 1.04672
3443 6.85011 5.03213 1.32765 -0.454802 0.490895 0.715976
722 7.3635 5.46265 0.377033 -0.124668 -0.38282 -2.21601
2111 7.68324 4.58395 0.639622 -0.0560721 -0.88962 -0.707112
3706 9.4302 5.09771 0.421782 -2.09004 -0.229466 0.336234
168 8.64024 5.3492 0.890276 0.0649853 -0.788387 -1.10245
3671 8.90181 4.46825 1.35189 1.25016 -0.663653 -0.980135
3586 10.2545 5.02777 1.27508 1.1657 0.0826945 -0.0705003
189 10.7988 5.20635 0.439136 0.941191 1.22621 1.83673
2670 11.4937 4.81987 1.06684 -0.212723 -0.904364 0.926138
2691 12.5604 4.47043 1.34493 0.728536 0.455408 0.186486
2827 12.3642 5.26409 0.725856 0.376786 -0.872913 -0.373808
3503 13.5918 5.03287 0.610411 1.72476 0.478965 -0.610333
1107 14.8149 4.95617 0.169441 -0.230262 0.416353 -0.407157
1919 15.1432 5.64967 0.930232 0.678223 0.557874 -0.537877
701 15.3631 4.64871 1.23125 -2.21743 -1.26661 -0.923679
194 15.9867 4.66752 0.293944 -1.33088 0.0519108 0.286717
3318 16.6072 4.72616 1.16776 2.0537 1.53159 2.72012
2043 0.503151 6.78045 0.575107 -0.364102 0.973263 0.609174
1135 2.37589 6.25693 1.07702 -1.35015 0.824021 0.0542899
3079 1.50249 6.52896 0.653528 0.565634 -2.5835 0.747473
3736 2.39431 6.68074 0.0426256 -1.48782 -1.17114 2.02491
3966 3.05058 5.91812 0.349332 0.0441289 0.535151 -0.54567
1129 3.27059 6.89466 0.832667 1.63736 0.0488597 0.0741526
145 4.37378 6.96995 1.25126 0.449884 -0.867551 -0.334914
1562 5.12342 6.32395 0.507451 0.41107 -0.98264 1.21783
410 6.88459 6.71451 0.450675 -1.3225 -0.371782 -0.134343
2863 6.32019 5.80685 0.816205 -2.54629 -0.0589779 -0.714146
5 7.82642 5.9413 1.19656 -1.51999 0.63208 -0.0399232
317 8.06388 6.99217 0.66292 0.485744 -1.33176 0.267104
2135 8.44169 6.09433 0.208311 -0.807458 -0.630283 -0.234282
3774 9.71605 6.15578 0.171396 0.0107134 -0.0870891 -0.520754
1575 9.10703 6.31702 1.04939 -0.441019 -0.042179 0.191645
1452 10.4352 6.39298 0.85856 -0.601556 -0.169515 -0.588916
1010 10.5755 6.86748 0.0745235 -0.018782 0.981145 -0.788347
900 11.5065 5.8305 0.81389 0.21123 1.26114 -0.683341
475 11.6106 6.69179 0.29248 0.301312 -0.386086 -1.05088
976 12.4699 6.36606 0.729278 0.364479 -0.211042 -0.315947
3018 14.1608 6.07606 0.646986 0.217845 -0.380494 0.0166363
1238 14.9583 6.72953 0.846253 -0.199979 0.0237901 0.291855
3136 16.3672 5.89785 0.649558 0.302408 -0.983694 -0.6915
2253 15.8895 6.90251 0.465128 -0.264328 -0.166504 1.04433
3646 1.2245 7.61755 0.496462 0.340102 -0.134469 1.23814
1298 0.129512 7.72553 0.300417 1.11287 -0.430926 0.512378
1930 0.784159 8.53437 0.847578 -0.564723 0.238316 -0.0315892
2791 2.32384 7.55812 0.547917 1.25466 0.362932 -0.113126
3274 1.84764 8.49324 0.268421 -0.82649 1.21417 1.50718
2736 2.5159 8.16048 1.35367 -1.43877 -0.782128 -0.391139
2056 3.95042 7.66643 0.715045 0.803108 -0.537534 0.605245
2761 3.17399 8.30883 0.423722 -0.155308 -0.388969 -0.929735
3817 4.76065 8.30833 0.27955 0.459669 1.2558 1.29821
2060 5.04451 7.36422 0.304341 -0.336609 -0.261362 2.16547
2270 5.39109 7.96246 1.01972 0.441359 0.258856 -1.03453
1177 4.38222 8.50481 1.18255 1.33393 -0.694844 0.672805
1891 6.91547 7.74143 0.162342 1.37016 0.585862 -2.65597
2836 6.29749 8.47004 1.00808 0.867561 1.30959 0.814758
1806 6.66548 7.50155 1.31872 0.0711019 -1.5627 1.26019
549 5.99549 7.22063 0.560208 -0.777435 1.91213 0.911791
44 5.94374 8.26791 0.0332012 0.675199 -1.1964 -0.474954
2074 7.74471 8.1885 0.26318 0.93374 0.474013 0.929889
3062 7.92161 7.8535 1.41028 0.449757 1.19592 -0.21268
1488 9.35701 7.15048 0.25377 -0.92219 -0.33856 0.853166
3580 8.91612 7.81874 0.953029 0.596652 -1.83925 1.77704
2582 9.78229 8.29594 0.550066 -0.766649 -0.360915 -1.73004
2522 11.1375 7.95535 0.169176 -0.405572 0.158002 1.28507
3581 12.4141 7.59494 0.24693 0.980169 -0.825975 1.54327
89 12.479 8.14721 1.38805 -0.62136 0.876853 0.892884
689 11.5425 7.59726 1.04644 0.81885 1.14576 0.314609
2033 13.6314 7.15621 0.780975 -2.45383 -0.332876 -0.695515
224 13.4017 8.35515 0.512214 -1.7991 0.408392 -0.948716
949 14.573 8.13071 1.16106 0.167829 -0.389006 1.21593
1440 14.7277 7.38219 0.14664 1.57663 -0.249347 -0.0715683
2724 15.5302 8.03578 0.534236 1.21414 -0.375247 0.790729
2922 16.46 7.98114 0.84945 -0.260507 -0.109596 -0.0885724
188 1.38282 0.920405 1.91104 0.634505 0.286349 -0.566717
2116 0.672964 0.640338 2.71704 0.844346 -2.06959 -2.77086
2564 2.39914 0.690537 1.56345 0.311483 -0.0689925 2.03285
300 2.39105 0.712357 2.68115 2.35474 -1.35388 -0.684348
2217 4.12839 0.61023 1.97123 0.516533 0.383528 -0.395579
355 3.35093 0.121822 2.66948 -0.545334 0.518593 -0.233598
2426 3.17902 1.36533 2.41468 -0.547272 0.186324 1.11592
1498 5.0451 0.220771 2.31597 0.129981 0.535643 -0.0926571
482 4.32375 1.35506 2.78279 -1.35802 0.88947 0.917173
2350 5.23826 1.27867 1.87208 1.04128 -1.68212 -0.616398
3390 6.28575 1.18792 1.50884 -0.481287 0.349356 -0.276005
273 5.98174 0.643314 2.70651 -2.39257 0.12106 0.14691
3505 6.00701 0.067508 1.79658 2.21402 -1.00557 0.439273
356 6.95006 0.428161 2.33079 0.914514 1.55761 -3.10636
209 8.16174 0.210428 2.07667 -0.303519 -2.38108 0.618049
239 7.81058 1.21816 2.42229 -1.39572 0.865855 1.27013
1760 7.42125 0.853622 1.51173 -0.650902 -0.362728 -0.0578435
3924 9.82134 0.515261 1.91028 -0.433784 0.0957608 -0.299832
2556 8.85569 1.06207 2.21596 -0.441283 -0.286183 -0.752517
2530 9.55271 0.146436 2.84306 -0.444185 1.02749 -0.543641
3664 10.8515 0.692794 2.07075 -0.0351142 0.275945 1.60016
664 11.8847 1.21085 2.00016 0.762564 1.54542 -0.287669
2064 12.658 1.01648 1.45251 2.42598 1.14427 -0.09022
1972 13.4246 1.12727 2.13819 0.246513 0.221473 -0.799588
3638 12.9049 0.058897 2.05019 -0.102934 -1.2964 -0.137211
1043 14.4621 0.929387 2.02057 2.33156 0.386218 -0.558731
3923 15.7311 0.72488 2.67154 0.0382631 1.89472 0.468388
660 17.077 1.09048 2.00652 1.76824 -1.48682 1.28565
1718 16.7919 0.155549 2.64345 0.122626 -1.79378 0.507123
1841 16.0582 0.388451 1.54624 -0.772844 0.0916988 0.0804628
474 1.02374 1.91427 1.50219 -1.74423 -0.0224584 -1.05093
2857 1.08174 1.87601 2.5941 0.0742885 0.316642 -0.327347
2427 2.04039 1.75039 2.18026 -1.41194 -0.572977 0.590527
2425 1.85945 2.77491 2.69591 0.857118 0.123436 -0.674873
3812 3.82759 1.54173 1.70481 0.141588 -1.34979 -1.08625
3361 3.95704 2.49261 1.46541 0.239647 -0.775636 0.313327
3880 3.76738 2.45975 2.47457 -1.72445 1.77072 -1.43615
1958 6.7077 1.96827 2.3122 -0.501133 -0.345227 0.107966
2820 5.70642 2.55146 1.88513 0.472725 0.141101 1.25533
3630 7.9759 2.59938 1.90365 -0.856432 1.69221 0.291813
473 9.77152 2.80838 2.13567 -1.98691 1.09866 -0.0647201
3374 9.73252 1.53431 1.70199 -0.568182 -0.353803 -0.41843
2697 8.97122 2.06436 2.45616 -1.40692 -0.820065 -2.05656
2228 10.4095 1.95714 2.62332 -1.07616 0.842483 0.162393
3078 10.6157 2.43519 1.66681 1.87125 -0.573066 -1.02574
3147 12.6423 1.97402 2.13641 -1.47214 0.403713 -0.641072
928 11.5072 2.16122 2.11164 1.7322 1.06341 0.150186
421 14.109 1.90256 2.26494 0.530764 -0.93062 0.683429
1462 15.3281 2.20575 2.44421 -1.23661 0.275252 -0.921357
2764 16.0838 1.62638 2.01261 -0.549475 -0.418697 -2.36934
2529 16.8974 2.70465 1.4946 -2.08801 -1.2766 -0.440619
909 16.6693 2.36042 2.70416 -0.938608 0.59416 -1.15667
2842 0.585469 2.88684 2.31234 0.25872 1.4067 0.585201
1087 0.782075 4.16654 1.87882 -1.98904 -0.00013581 0.595592
3900 1.6909 3.16558 1.75965 -1.27497 0.447826 -0.288398
14 2.45436 3.93531 1.71542 1.03771 -1.2306 0.518784
342 2.50162 3.60012 2.74855 0.795938 -0.251346 -2.92504
1612 1.55999 4.19154 2.44706 -1.1547 -0.0701463 -0.286012
2672 3.04891 3.00504 2.05719 0.274086 -1.30067 2.43259
2817 4.24533 3.48877 1.71485 0.539416 0.0734833 -0.833743
2081 4.74868 2.91911 2.41236 -1.28263 1.3511 -0.879008
2331 5.28056 3.6583 1.48461 -0.573626 0.725444 -1.1737
3704 6.96512 3.08591 2.30333 -2.42066 -0.065293 -0.051794
3551 6.00322 3.41392 2.2964 0.741727 2.55028 0.678349
346 6.73402 4.13533 2.10498 -0.115945 0.225544 -0.534258
2858 7.99781 3.59707 2.39638 0.453513 0.195687 -0.225777
3198 8.94329 3.45689 1.7339 -1.45026 -0.986527 0.670205
936 9.7434 4.11916 1.83937 -1.6359 1.76656 -0.481736
1476 9.37187 3.54052 2.80448 -0.000225684 0.751196 -0.428424
1166 10.719 3.16778 2.45066 0.486381 1.02131 -0.2421
938 11.6742 4.11154 2.04675 0.845739 -0.99956 0.475198
2077 11.9576 2.87662 2.80892 0.958091 -0.943487 -0.853947
3622 12.2096 3.08243 1.78232 0.621528 -0.872946 1.32955
132 13.657 2.96922 2.05353 0.321956 0.0537438 -1.31885
1152 13.504 4.08006 1.90909 0.0826598 -0.788776 0.535812
929 13.2392 3.50023 2.75707 -0.375881 -0.553532 1.6212
453 14.552 3.75082 2.16153 0.102724 -0.981717 -0.713685
3253 16.9104 3.73013 1.6379 0.338708 0.586513 2.48076
3222 15.9165 2.97124 2.10858 -0.875874 0.258346 0.0674441
2853 15.6808 3.73058 1.47431 -1.6186 -0.111634 0.459392
3468 16.6652 3.50619 2.59443 -0.7224 -1.24238 -0.519087
1909 15.7413 4.07985 2.47826 1.38947 0.890804 -0.415441
1410 0.491783 5.25983 1.82132 -0.0604802 -0.0878194 -1.40373
531 1.1352 5.16974 2.83416 -2.10242 -1.3212 0.477139
1864 1.97151 4.898 1.80878 -0.159188 -0.495708 -0.669506
101 2.75278 5.43173 2.05876 1.76367 -0.0944656 -0.471632
2584 2.43585 4.69451 2.78048 -0.0228312 -0.442398 -0.809619
1290 3.25037 4.54527 1.88004 -0.397627 1.94531 -0.717648
1779 4.21325 5.08222 1.74707 0.183006 -0.192632 -0.729274
3675 3.55319 5.36904 2.81547 -1.12264 0.879556 0.349393
1178 4.14799 4.43021 2.55033 -1.18579 -0.743524 -0.179607
2035 5.23948 5.37705 1.66237 -0.437435 -0.329156 0.391037
2784 5.21637 4.71239 2.48983 -0.76283 -0.0695423 1.64311
2288 5.96093 4.57922 1.43571 0.551348 -0.262652 -0.0362574
2165 6.19126 4.98299 2.36251 1.35999 0.77309 0.0684575
2838 7.72016 4.32219 1.68437 0.250543 -2.24754 -0.238961
1950 8.29278 5.29519 1.90155 0.349639 -2.03544 -1.17062
2349 7.26264 5.31234 2.41653 -0.00951322 -1.08393 0.14078
1408 8.62048 4.45136 2.38328 -0.496878 -1.5971 0.600785
19 9.37253 5.42166 1.63282 0.309558 -1.51136 0.450708
3101 9.16406 5.21798 2.794 0.969826 1.98726 0.120735
2314 10.6551 4.41512 2.2667 1.58568 -0.775085 -1.22937
2183 10.1654 5.20553 2.63312 1.60965 3.36546 1.07225
830 10.9228 5.3593 1.95086 -0.648209 -0.764092 -0.061563
1831 11.9721 5.33265 1.92267 0.215997 -0.354386 0.958617
501 11.471 4.69383 2.84244 -0.789139 -0.0509299 -0.248148
1381 13.337 5.47281 1.65935 -0.540952 0.567814 -0.434893
1200 13.097 4.84582 2.70654 -0.546957 0.345113 -0.955986
2075 14.3727 4.88814 1.48249 0.156103 -0.8278 -0.28139
947 14.2855 4.86842 2.50801 -0.899802 0.902236 0.510092
3149 16.788 4.67762 2.28955 0.45635 0.370363 -0.658784
3673 15.7375 5.42342 2.04991 -0.600116 0.900103 -0.429941
948 0.778429 6.46341 1.47197 0.689391 -1.94765 0.764648
2022 0.173024 7.04315 2.15965 0.391093 0.619688 1.29212
185 0.573826 6.14172 2.58371 -1.4492 -2.18773 0.696281
2291 1.39346 6.8284 2.43084 -0.613533 0.795579 0.0459662
2416 1.9537 5.98116 2.38297 1.13142 0.221928 1.5801
2940 2.39143 6.83691 2.5643 0.982631 0.953024 1.03806
3636 4.21949 6.10185 1.98808 -0.135966 0.501278 -0.343507
983 3.35044 6.45884 2.34347 0.815252 1.15312 0.729337
2734 5.14154 6.7911 1.94205 -0.0232818 0.629364 0.0985396
871 5.27354 5.75423 2.5638 -0.168717 -0.182105 1.11212
3696 6.09119 6.82841 1.70313 0.427944 0.484674 -0.476213
733 6.98497 6.34612 1.47461 -0.288596 0.389258 0.687215
409 6.35994 6.08956 2.544 0.650899 -0.378145 0.427283
2494 7.46222 6.23348 2.61436 0.292945 -0.447294 -0.329607
204 8.10926 6.84538 1.78027 0.512517 -0.872701 0.694293
2882 8.69787 6.42088 2.39548 1.67152 1.54762 0.522104
941 9.47409 6.9539 1.80737 0.0338212 0.423282 -0.29147
271 10.171 6.23794 1.93384 -0.218861 -0.221536 -0.485156
754 10.2278 6.76035 2.84085 -1.00109 0.139418 0.574191
2873 11.2144 6.38537 1.95943 1.54829 -0.129229 1.43153
907 11.3875 6.93046 2.78891 -0.0670956 0.0249648 0.21055
3777 12.5801 6.4553 1.84316 -1.91751 1.01529 0.407222
1630 13.7483 5.98037 2.50088 -0.938737 -0.659358 -2.19302
2198 12.8596 6.35083 2.82748 -0.62233 0.612488 0.162858
151 14.4864 6.03059 1.77135 0.378007 -0.791872 -1.30907
2013 15.0497 6.81232 2.32683 0.480119 -1.00084 1.14058
3001 16.7398 6.4444 1.51868 -1.37969 1.3369 1.44249
2611 16.7434 5.72254 2.2303 -0.879124 0.914795 0.917791
339 15.7531 6.37079 1.62107 -1.01533 0.0907343 -1.81105
375 16.1167 6.54331 2.51647 0.124322 -0.801496 -0.345877
3454 0.109645 8.15417 1.98965 -0.932477 -0.904499 0.744117
296 0.778815 7.50085 1.46415 0.71309 -0.474636 -2.47009
314 1.38754 8.30094 2.16495 -0.489853 -1.36656 -0.769591
707 1.95761 7.33903 1.63062 0.268357 0.583314 0.0330946
1356 2.43818 8.18681 2.43509 -1.27185 0.978075 0.475749
1703 2.9253 7.31668 1.82113 2.23492 0.164125 0.513525
859 3.95736 7.55032 2.24402 -0.951118 -2.28234 0.762905
524 3.50043 8.37163 1.68496 0.0900241 -0.873084 -0.786395
114 4.78161 7.92299 1.86762 0.174099 -0.0362153 -0.581229
1419 5.49137 8.46281 2.62282 0.710286 0.703796 0.951354
2984 7.10228 7.29611 2.17653 -0.0989705 -0.341753 -0.674337
1104 6.17311 8.02398 1.96926 0.0111814 -0.183432 0.59927
3710 8.0547 7.99093 2.82687 1.54217 0.458459 0.63048
996 7.36137 8.36341 2.09495 0.800648 0.172336 0.352794
2213 9.11836 7.94488 1.9935 -0.0670228 -0.551039 1.29855
2476 9.82819 8.54424 2.46006 0.120974 0.677444 -0.400058
152 11.1735 7.9621 2.7548 -0.570278 -0.784529 -0.244259
1690 12.5912 7.33766 2.84073 0.442172 -2.12069 -2.1173
2997 11.9386 7.47048 2.05558 0.0255726 -0.523155 -0.452711
1487 12.9384 8.23631 2.45213 -1.73255 -0.179511 -1.11081
3230 14.0153 8.15673 2.07945 0.136653 1.29579 -0.398401
1644 13.0588 7.36954 1.7264 -0.0226653 1.52977 0.168436
3844 13.65 7.17302 2.70539 0.266831 1.42892 0.0888183
2289 14.2786 7.23819 1.76079 0.333167 -0.436131 1.18098
230 15.2083 7.49719 1.47695 1.14172 -0.369262 -2.28054
1387 14.8826 7.87242 2.53554 -0.220524 0.647968 -0.318587
1722 16.2296 7.43755 1.93241 0.590821 1.18013 -0.220449
3010 16.2245 8.45838 1.8729 -0.652104 -0.0576258 -1.51383
3786 1.34933 0.75325 3.87653 -2.69963 -0.40057 0.413819
1415 0.234343 0.671515 3.7029 0.780344 -0.700293 1.1402
2692 3.08288 0.798521 3.58508 -0.571389 -1.23489 0.54471
60 3.99566 0.542255 3.34177 0.431944 -0.432413 1.15242
726 5.13652 0.776926 3.2547 0.0428185 -0.166682 -1.51004
3260 7.03123 1.36413 3.05105 -0.264648 -0.293475 1.26347
958 6.38468 0.422086 3.85828 1.30049 0.318726 0.588932
295 5.89388 1.42231 3.64346 1.09419 0.861841 1.82382
1822 8.47973 0.479362 3.24168 -1.34279 -1.51762 -0.306878
971 7.42495 0.441278 3.67385 0.522041 -0.990833 0.637897
593 9.24833 1.1363 3.10757 1.21369 0.827027 -0.972185
1523 9.52071 0.359965 3.79693 0.702812 0.19538 0.13606
847 11.397 1.13077 3.06858 0.764207 0.67078 -0.582695
1605 10.2625 0.830116 3.09218 0.0265438 -0.975691 -1.42316
2654 10.6308 0.00165167 4.07805 1.94146 -0.924403 1.03401
2431 10.3288 1.41247 4.06817 -0.766461 1.24751 0.253936
2874 11.2125 0.0620741 2.99164 0.426417 -0.0518641 1.12701
4 12.2042 0.129546 2.89231 0.316827 0.138622 -0.415851
2778 12.565 1.14661 3.09861 -1.09711 0.258893 -0.966498
1287 13.1186 0.60512 3.82282 -0.730755 0.922731 -0.033975
3925 13.8924 0.645657 2.93832 0.27288 0.401807 0.0432941
547 14.9664 0.0836946 3.06591 -0.341411 -1.11725 -1.61784
1242 14.8137 1.41355 2.97486 1.19334 -1.11408 0.41166
2361 14.7549 1.27505 4.00158 0.194526 0.267016 1.3051
1392 14.4259 0.313091 3.8222 0.71452 1.00395 -0.447611
3014 16.1872 0.735055 3.7176 0.324627 -0.445784 -0.954491
197 1.26377 2.36324 3.47382 0.715024 0.612922 0.246092
2202 0.054547 1.50555 2.94509 1.32032 1.02185 0.440092
1003 0.158492 2.55405 3.56073 0.0175727 -0.192676 -1.61799
3990 1.77076 1.55666 3.21724 0.544062 1.81989 -0.753724
779 2.72054 2.46446 3.88983 0.831357 -0.312889 0.0662383
424 2.68713 2.14367 2.88881 -0.555576 -0.443011 -0.166024
2472 1.92439 1.78493 4.25471 -0.879178 -0.473788 0.855694
3363 3.57812 1.73046 3.449 1.1707 1.07429 1.59843
3116 3.71318 2.33784 4.21915 0.0546201 -0.369789 1.103
3697 4.65112 1.49289 3.77986 1.79065 0.635567 0.706038
120 5.40571 2.52364 4.00352 -1.18066 0.446477 0.943846
325 4.43187 2.72385 3.44605 -1.48259 -1.00253 0.970432
2324 5.16089 1.95083 3.06797 0.422364 -1.93688 0.934426
2652 6.51189 2.82312 3.28925 0.362662 -1.97377 -0.420001
3452 7.63849 2.45178 2.93556 1.17638 0.0247395 0.735531
3525 7.21622 1.96058 3.92394 0.612984 -1.8113 -0.0685833
58 8.39876 1.67416 3.24762 0.65121 0.593002 0.0247175
96 8.12761 2.35378 4.07846 -1.35985 0.191842 0.312436
3231 8.71489 2.71761 3.13963 0.651273 -0.198692 1.06071
1798 9.70829 2.63254 3.66229 -1.10523 0.745846 0.389191
2054 9.23203 1.68737 3.98207 1.23524 0.0862025 1.05772
1720 10.7847 2.25533 3.57595 0.204642 -0.911578 1.09181
481 12.5674 2.66422 3.79354 2.70076 0.375289 -1.09352
1349 11.916 1.86316 3.38308 -1.32077 0.239272 -1.6406
3438 13.3404 2.43522 2.86677 -0.48314 -2.2569 -1.15397
2272 13.6591 1.53948 3.55299 -1.95959 -0.313995 1.78895
2551 14.3152 2.44673 4.13689 -0.660705 -0.657201 1.27906
3467 16.9769 1.59002 3.96066 0.520254 -0.821001 0.882974
1353 15.8081 1.83402 3.33805 -0.864655 0.604473 -0.355133
1974 0.904655 3.35417 3.19703 -0.961629 -1.23721 0.4724
3441 0.543934 3.57631 4.07773 0.851759 1.25833 -1.33654
1214 0.273311 4.1761 2.93856 -0.14474 -0.433862 0.524314
3068 1.40261 4.20034 3.75816 -0.500775 -0.781858 0.952926
2279 1.55973 3.09009 4.22651 -1.29537 1.41942 -0.489628
2782 2.4712 3.68024 4.01729 -1.11915 0.321076 -0.505587
2723 3.57822 3.33432 4.048 -1.28466 0.746167 1.22514
618 3.67651 3.35146 2.97664 -0.844781 -1.02329 -0.388328
390 4.50386 3.86511 3.32612 0.368588 0.975856 -0.00608816
891 5.51792 3.10656 3.12075 -1.35693 0.467053 0.558567
191 5.2155 3.72278 4.07423 -0.295897 0.577004 0.153586
2808 5.82659 4.08614 3.15001 0.0120251 0.404581 0.0550853
3737 6.89418 3.82324 3.09954 -0.600229 0.167516 -1.88988
1124 6.38401 3.61462 4.01693 -1.05104 -1.64075 -0.446916
1716 7.27611 3.13534 3.81048 1.50452 -0.551391 1.23993
463 8.31913 3.80357 4.24026 0.617724 -1.06865 -1.42156
2068 9.79274 3.68744 4.16054 0.486796 1.6274 0.193303
81 11.2577 3.6407 3.20284 0.00809872 0.893375 -0.984948
3837 10.8097 3.2719 4.1399 -2.68071 -0.055375 0.690946
3121 10.2273 3.78676 3.21138 -0.404653 -0.041648 -0.863776
2384 12.2663 3.96423 3.14588 0.998349 -1.88168 -0.491429
3007 13.632 4.03477 3.57716 -0.964581 2.35056 -0.0136768
3440 13.6407 2.95011 3.64494 0.150911 0.842784 -0.805433
2748 14.6686 3.06361 2.96648 -0.0248599 0.228605 -1.56405
1170 15.0267 3.3407 3.98222 1.13072 -0.0416306 1.89335
3268 15.6691 4.2312 4.25119 1.45635 -0.339293 -0.411515
2924 14.9211 4.14839 3.24799 0.392043 0.508163 -0.862473
2080 16.5859 3.66074 3.7312 -0.842476 -0.434337 -0.849796
2707 15.7653 3.25514 3.13664 -0.50298 0.631421 -0.291031
3420 0.567047 4.71588 3.79454 -0.887291 0.191961 1.072
772 2.38054 4.69788 3.93778 -0.137835 1.51591 0.407454
1421 2.16623 5.55291 3.34945 0.0534148 -1.03549 1.13726
2727 1.4884 5.13299 4.12915 0.709786 0.942094 1.74337
3333 3.38511 4.35029 3.21339 -1.15968 1.758 -1.68384
1976 3.21479 5.38019 3.78655 0.617379 -1.03245 -0.185697
2032 4.01506 4.78939 3.94241 -0.862533 0.238993 0.704826
1992 4.85844 5.17325 3.34099 0.976436 0.464738 0.627525
1035 5.97404 4.56579 4.12498 0.503419 0.642125 1.50307
648 6.1029 5.39752 3.31183 1.34126 0.577225 0.629368
3225 8.21117 4.37202 3.31367 -1.66473 0.833986 -0.612189
2237 7.17073 4.85393 3.28853 -2.22742 0.707069 1.02005
1801 8.26199 5.6671 3.10357 -0.0359356 0.596833 0.308624
3773 7.46185 5.66682 3.83741 -1.36208 1.56149 -0.101244
2266 9.866 5.5163 3.63337 -1.68508 0.290458 1.14929
1828 9.23752 4.29705 3.54781 0.441999 1.764 0.335349
506 9.91681 4.75792 4.27112 0.593569 -0.806885 -1.4148
1660 8.7002 5.54982 4.15064 -2.13104 -1.05516 -0.92577
3261 10.8422 4.96836 3.68908 -0.365918 0.160481 -0.724475
3415 11.83 5.34869 3.73669 0.716362 1.05456 -0.801067
301 11.8399 4.30948 4.12617 0.888002 2.07789 -0.509997
2903 13.9383 5.11846 3.75065 -0.596349 0.382038 -0.913242
3433 12.8529 4.75295 3.79847 1.33436 -0.520054 1.97244
2403 14.8054 5.62926 2.90346 -0.344678 -0.569549 0.430864
3540 15.2073 5.14943 3.72191 -0.900159 0.823838 0.458085
385 16.1742 4.49347 3.23778 0.726756 -0.939231 -0.872142
2592 16.9866 5.3611 3.16894 -0.875941 -1.81763 0.292476
1359 16.0563 5.6308 2.96366 -1.69899 -0.108054 -2.58537
327 16.1209 5.50385 4.05841 -0.28787 -0.422888 1.0129
2417 16.6967 4.63904 4.24862 -1.28678 -1.42413 -0.46884
3865 0.815282 6.91978 3.24653 -0.913051 -0.080192 -0.437978
2481 0.913796 5.84093 3.66672 -0.00675756 -1.23464 -1.46195
2989 0.175563 6.86192 4.17727 0.754007 0.184225 0.650746
3620 1.85253 6.6871 3.5258 -1.36722 -0.48481 -1.96587
47 2.9563 6.36383 3.38058 -0.334841 -0.141695 0.999959
588 3.70701 6.85557 3.76109 -0.242655 0.244067 -0.921396
1375 4.32012 6.05632 3.32031 -0.779757 1.32278 -1.76539
2735 4.61924 6.98926 2.98921 0.484522 0.675648 0.399983
1622 5.34414 6.32884 3.49034 -2.01733 0.0150402 0.160546
2604 6.44084 6.06006 3.94282 0.90811 1.13625 -0.684474
3344 6.04365 7.02446 2.88899 -1.03732 0.548127 0.712286
1509 6.19453 7.12354 3.84934 0.165516 0.654939 -1.0434
612 7.00114 6.95341 3.22931 0.301446 0.0802274 -2.41833
3790 8.07973 6.82776 3.14869 -0.822469 -1.4133 2.92508
464 9.01856 6.29413 3.4886 -1.0261 0.0517689 2.00843
1431 10.9673 5.95834 3.74691 -1.14042 1.33078 0.148859
2193 10.2757 6.75791 4.13982 0.324807 -0.188194 2.67943
1295 11.8955 5.9499 2.95738 0.413027 0.0168164 -0.558175
2449 12.206 6.40792 3.92235 1.17173 0.659982 -0.343744
3335 12.9319 5.75076 3.69434 -0.0752755 -1.24226 -0.0810756
2991 14.1853 6.18805 3.49584 -1.74236 0.94746 -0.0313136
413 15.3319 6.31839 3.53739 0.56668 1.23 0.179738
1227 16.7008 6.43093 3.38103 -0.159156 -1.79429 1.93003
370 0.610792 8.2331 2.85542 -0.512826 -0.430766 0.0542904
998 1.04051 7.50247 4.08372 0.672732 -0.283932 -0.680285
1652 2.06347 7.69405 3.42037 -0.366139 -0.821298 -0.327154
2079 3.19433 7.42655 2.92759 0.469872 1.31271 -0.6874
3611 4.24734 8.20429 4.07377 -0.22435 0.699207 -1.65928
1209 2.94679 8.03014 3.90295 -0.527393 -2.49777 0.862219
2374 4.51652 8.3879 2.8573 3.36702 -0.96902 1.18281
2191 5.41768 7.82106 3.40121 1.64121 -0.29463 -0.829594
2876 5.24195 8.33267 4.23909 0.348348 -1.17784 -0.0200269
2966 6.46637 8.09041 2.94628 -1.54778 -0.259095 -0.418772
1019 7.34242 7.73054 3.75743 -0.30317 -1.13955 -0.0560634
2926 8.53112 7.66651 3.77505 0.685487 -0.62945 0.121302
1081 9.06596 7.30652 2.97993 -0.0128028 -0.492867 0.351136
1142 8.9532 8.34568 3.21992 0.175339 0.931199 -0.774819
2810 9.41628 7.34848 4.14175 1.15796 -0.364014 0.484041
2540 10.6958 7.96199 4.01026 -0.895175 0.671032 -0.703525
434 10.0348 7.89618 3.21041 0.232976 1.08514 -0.711806
838 11.8179 7.20744 3.80316 0.331986 0.516174 -0.961348
3166 14.1601 8.01358 3.2248 -0.568032 -0.356606 1.96982
2950 13.7648 7.25024 3.81825 -0.871579 0.554025 1.2012
3791 14.6793 7.15976 3.32059 0.178891 -1.42148 -0.943487
771 15.3687 7.39952 4.19124 0.944554 -0.17408 0.279918
1558 15.7901 7.69736 3.24208 0.0213586 -1.40953 -0.285219
1225 16.7903 7.74058 2.86725 -1.33511 -0.262094 0.384585
3987 16.4182 7.63806 3.97778 0.0268483 -0.378525 1.58124
3006 0.514487 1.21053 4.69993 -0.231088 -1.15841 1.34007
596 0.528893 0.254565 5.44972 -1.08734 -0.336495 0.451431
2337 2.41935 0.920626 4.73491 -1.68867 -2.60452 -1.46168
1343 3.36463 1.29859 4.38639 -0.554315 -0.726142 -0.309506
3534 4.1705 0.953697 5.65861 0.723218 -1.32417 0.745255
3973 3.13103 1.09673 5.6528 -1.60314 0.151297 0.733696
281 5.41993 0.543162 4.3431 0.873154 2.52906 1.80958
2329 4.39631 0.651009 4.66248 0.106302 0.00412425 0.390447
66 5.23747 0.763783 5.29298 -2.0143 -0.995766 -0.316812
1986 6.23248 0.398909 5.2989 -0.268312 0.426114 -1.71838
1815 7.23913 0.707561 4.67096 -1.03107 0.123907 -2.02672
3271 8.10717 1.28905 4.29654 -0.222835 -1.3135 -0.649157
3543 8.33607 0.683193 5.38711 -0.144416 0.0874321 -0.857196
136 9.53551 1.19934 5.55272 -0.257632 -0.330607 -0.719093
336 9.11442 0.80989 4.66329 -1.52432 0.272435 -1.83001
2601 11.191 0.88464 4.57536 0.599425 -0.870198 0.944727
3643 10.2455 0.205903 5.26192 0.541393 1.06161 -0.860989
2988 10.4442 1.42266 5.15903 -0.703626 -0.802052 0.793994
313 12.1852 1.30704 4.31011 -0.61332 -0.192862 -0.194489
2351 12.145 0.493981 5.00967 -0.0478157 2.49089 -0.498436
3358 13.4719 0.769842 4.87675 -0.469795 0.246836 0.766613
1583 15.4139 0.0223502 4.27998 -0.881746 0.66094 0.322676
1829 14.9391 0.733321 4.91673 0.99639 -1.61883 -0.024259
2849 15.7885 0.963827 5.58801 -1.69448 -0.937442 -0.205883
3174 16.2749 1.00579 4.73707 -0.0141549 2.10443 1.04149