ITEM: TIMESTEP
57000
ITEM: NUMBER OF ATOMS
4000
ITEM: BOX BOUNDS pp pp pp
0.0000000000000000e+00 1.7099759466766969e+01
0.0000000000000000e+00 1.7099759466766969e+01
0.0000000000000000e+00 1.7099759466766969e+01
ITEM: ATOMS id x y z vx vy vz
3558 0.0758525 0.89287 0.027725 -0.343717 -0.335163 0.241285
2898 0.710409 0.0542577 0.767128 -0.594398 -0.751169 0.864354
1512 0.934992 1.22019 0.671548 -0.671001 -2.77297 0.07861
1987 1.99652 1.08958 0.891019 -1.11269 -1.4678 -1.96024
1462 1.52577 0.408976 1.42437 -0.206111 0.291736 2.06374
1921 1.52911 0.449135 0.202212 0.128063 1.64756 1.13283
3373 3.35431 1.02781 0.452765 -1.13445 0.206298 -0.0235193
1182 4.2477 0.499315 0.398042 -1.81098 -0.00689263 0.306055
992 5.14037 1.20856 0.631656 0.910092 0.53261 -1.25231
1900 5.21734 0.17248 0.4066 0.664992 0.185264 0.832944
1534 4.43501 0.814636 1.37169 0.69189 0.166164 0.570775
3327 5.89464 0.49568 1.26338 0.284448 1.2132 0.0898398
3352 6.28275 0.332416 0.351527 -0.973138 1.06389 0.264908
3575 8.16992 0.431667 0.122851 -0.931486 -0.9875 0.988629
2217 8.28205 0.224575 1.27987 0.396876 0.963583 0.559533
239 7.35115 0.842317 0.729391 1.05219 -1.97201 1.01049
3370 9.15949 0.737226 0.649137 -2.1105 -1.87775 -0.00126108
844 9.96873 0.0450091 0.659679 1.4832 -0.110946 0.540683
274 11.0442 1.13103 0.823272 -0.57324 -0.277681 -0.32569
3779 10.9975 0.120905 0.266686 -0.592429 -0.0209108 -0.999483
2485 10.16 1.09009 0.360944 0.0312381 0.0632322 -0.153428
3853 12.0868 1.30495 1.20578 -0.326592 1.43636 -1.42283
2598 12.8098 0.488175 0.552035 -2.38295 -1.1634 0.868665
3198 11.7851 0.280322 0.908536 -0.467019 0.471737 0.108248
1912 13.4556 0.950344 1.15578 0.604688 -0.674944 -0.0349333
547 14.3389 0.89597 0.413938 -0.218696 -0.797561 -1.18789
1417 15.4428 1.29817 0.737105 -0.927713 -0.294344 1.15583
477 15.218 0.246435 0.919716 -0.374886 0.272421 0.387433
2599 16.4053 0.356529 1.03534 1.17062 -1.84067 -0.106563
2418 0.638302 2.46278 0.795344 -0.92083 1.92883 -0.360792
1200 2.39251 1.94454 0.57357 0.504325 0.3232 -1.4419
2734 1.47039 1.89923 1.28513 1.21117 1.47184 -0.738381
3795 1.57121 2.49769 0.140841 1.92219 -0.265372 0.225657
1426 4.27461 1.69081 0.472797 0.616134 -2.53164 -0.148977
3407 3.3446 2.34031 0.880886 1.26283 1.65378 -1.11498
1667 4.30194 2.43409 1.14429 -1.05067 -1.55658 1.01903
3821 5.37122 2.18065 0.49644 0.299489 1.14172 0.668331
16 5.98612 2.61599 1.18613 0.649434 -0.252533 0.771381
463 6.3495 1.68027 0.700534 -0.660956 1.2416 0.46145
743 8.10679 1.5384 0.384205 -2.1957 -0.352245 0.768099
588 7.28255 2.16347 0.737904 0.0736667 -1.46895 -0.451801
191 8.95893 1.43696 1.35708 -0.0102621 0.0640186 0.847592
3636 8.91049 2.45448 1.2153 -1.19362 -0.0733743 0.797859
3003 9.33683 1.8351 0.419171 -0.0444927 -0.329445 -0.40445
1076 9.19727 2.79536 0.139706 -0.224808 1.35548 -0.859441
429 11.2387 1.98148 1.30172 -2.21419 -0.875179 0.750758
3231 10.0664 1.45499 1.29599 -0.102204 0.673649 0.000752226
1891 10.3738 2.28132 0.203611 1.10244 -0.313753 -0.33731
1175 11.7788 1.86471 0.135175 -1.41975 -0.585252 -0.934388
3630 12.2507 2.4132 1.03394 -1.25747 1.69708 1.08382
3552 11.4384 2.78221 0.467804 0.343601 1.04696 -1.89967
442 12.5344 2.74617 0.0173557 0.263953 1.09435 0.470753
2387 12.8341 1.67168 0.545319 -0.6663 -0.880533 -0.545715
3289 14.3098 1.87709 1.09316 0.302006 -0.611364 0.352404
3020 15.2934 2.25604 0.575529 0.619446 1.76694 1.95922
3920 16.0868 2.35926 1.39836 0.0724747 -0.0273112 -0.606527
3174 16.57 1.88446 0.609676 -1.50324 -0.657119 -0.467538
2953 1.17504 3.48113 0.103874 0.345002 -0.241023 -1.01156
2216 0.588697 3.51526 0.905089 -0.50446 1.10508 -1.15684
47 1.66983 3.82811 1.08739 0.027334 -1.36261 -0.753926
1446 2.6197 3.72015 0.435429 -0.295229 -1.43413 1.03176
482 2.58671 2.99427 1.16079 -0.999948 1.06138 1.62447
3225 3.83417 3.4507 0.433498 0.787316 -0.812907 0.908632
2735 5.30766 3.40603 0.851912 -0.155889 -0.936559 -0.889308
1383 6.79864 3.23899 0.751943 -0.70627 -0.0643374 -1.35235
1864 6.19694 4.05916 0.857286 -0.884023 1.44207 -0.0767796
3009 7.77133 2.90249 1.19357 0.53898 0.461965 0.107464
3403 7.25333 4.25447 0.566366 -0.394201 -0.0103331 0.402617
658 8.14702 4.2262 0.00716669 0.113596 0.515761 -0.949246
3252 7.83772 2.85396 0.136175 -0.0727324 1.23336 -0.314341
321 8.60448 3.60556 0.598839 -0.949054 0.322153 1.95945
3919 9.82012 2.90957 1.1364 -1.17775 1.33442 -1.50018
231 9.5511 3.96841 0.683468 -0.223254 -0.569955 0.396971
2994 12.2036 3.57233 0.838337 0.683954 -0.486947 0.0308019
2289 13.5205 3.61835 0.916638 0.117366 -0.866904 0.317103
687 15.3564 3.62353 0.494397 0.496514 -0.30853 -1.26696
3555 14.3471 4.07744 0.626111 -0.186519 -1.23224 2.77538
2002 14.3857 2.90777 0.556948 0.68391 -1.09911 -1.74099
3706 16.6137 3.09702 0.600646 -2.7248 -0.432172 -0.190075
2685 0.806157 4.45197 0.28161 -0.546959 0.803335 0.518713
688 0.972818 5.45321 0.701155 2.45029 0.281827 -0.761287
941 0.861351 4.54841 1.3076 -0.21533 -0.0254133 -0.73199
1005 1.94399 4.52695 0.249115 0.278167 0.465579 -0.270542
2503 2.1288 4.69282 1.40564 -0.523671 0.679275 -0.0535426
2405 3.12407 4.38324 0.87952 0.4383 -0.880477 2.01906
2323 2.99451 5.60131 0.998635 0.967382 0.600651 -0.696986
204 4.12758 5.62476 0.902959 1.16634 2.15383 -1.87407
1913 4.14497 4.70325 0.307476 1.70284 -1.44719 1.54636
1414 5.30895 5.48779 0.861438 0.649409 0.140315 -0.935414
989 5.33256 4.65773 0.228624 0.453418 0.803923 1.00642
1120 6.26909 5.10278 0.0799746 1.04769 -1.53069 0.621063
562 6.23139 5.07714 1.31568 0.864484 0.0796479 -1.93023
273 7.93808 5.39414 0.582952 0.908965 0.160662 0.338732
265 8.3243 4.83159 1.30847 1.32349 1.62902 -1.24253
473 7.34127 5.14222 1.38499 1.13003 1.85095 -0.0764621
2410 9.22122 5.43929 0.95095 -1.67348 -1.75398 0.0634902
3316 8.98862 4.78913 0.127639 0.0346442 -0.14117 0.167652
2266 10.3329 4.85709 1.35488 0.87399 0.629794 -2.07767
481 10.1927 5.03535 0.296069 -0.374669 -0.410206 -0.637528
1249 11.003 4.40297 0.519638 1.95533 1.30083 -1.41266
811 11.6229 4.76669 1.42483 0.840473 -0.291925 0.563328
3637 12.693 5.15888 1.11539 1.97269 0.416722 0.408262
3440 11.8988 5.65874 0.473927 0.952542 0.381917 -2.07072
459 12.9551 5.44537 0.0525137 -1.15929 -2.22309 0.0331253
2431 12.8761 4.32778 0.462621 1.05325 0.0944467 -1.78048
76 14.7705 5.11356 0.935708 1.70676 1.59246 -1.49889
1312 15.6631 5.14803 1.35407 -0.0789927 0.259997 -0.094503
2603 15.13 4.63105 0.00240948 1.53715 0.0188449 -0.80263
3723 16.677 4.57183 0.502358 -0.211758 1.78719 1.42729
3868 16.5468 5.53448 0.815922 -0.51385 1.57753 -0.783165
2059 1.34126 6.32577 0.216302 -0.0226939 0.542964 -0.74805
2789 0.253562 7.06028 0.566669 -1.35151 -1.16097 0.227273
552 1.25084 6.29398 1.38577 -0.645571 -0.433321 -0.997888
3910 2.05656 5.70465 0.666222 -1.67275 -0.181936 -0.686771
498 2.70889 6.55434 0.247003 0.285127 -0.467205 0.251841
3760 2.37099 6.80953 1.23966 -1.22992 0.752723 -1.23451
119 4.18043 6.69352 0.597603 -0.144186 -1.38776 1.23901
3267 3.33457 6.53895 1.2863 -0.180442 0.32626 0.133814
2529 5.07402 6.54149 0.154101 0.135255 -0.536401 -0.700366
900 6.0533 5.97445 0.655362 1.30828 -0.232801 -0.993013
3260 6.99052 6.13847 1.21085 1.08505 0.116445 0.260499
3107 6.3832 7.07159 0.665232 -0.41938 0.880581 1.13024
1747 8.47991 6.14559 0.921194 1.59202 1.5298 -0.210202
2525 10.8818 5.71707 1.11357 0.934723 -0.624646 -1.58773
1983 9.97953 5.93327 0.544688 0.559538 0.0230907 -0.190302
174 10.2991 6.87956 1.00607 0.28517 1.20874 0.472302
2385 11.7036 6.9923 1.26307 0.776457 0.700152 0.267557
3559 12.2351 6.90163 0.399472 0.134923 -1.54999 -0.0527711
1290 12.8972 6.5172 1.39817 0.0338132 -0.570991 0.0868093
1784 13.7305 5.98872 0.993098 0.554792 -0.385015 0.0980868
2294 15.3164 5.93636 0.45105 0.251234 -0.528662 -0.27036
1146 14.2892 6.56111 0.189305 -1.32108 -0.827686 -1.29696
2050 15.7316 6.47491 1.24295 -2.02461 0.13491 1.26045
754 16.5453 6.45479 0.342588 0.445935 1.24497 -0.294251
1514 1.10815 7.38054 1.14273 1.0914 2.46685 -1.50401
3869 0.0207571 7.99205 1.3086 -0.566996 -0.492767 -1.8063
2442 2.68261 7.98283 1.18701 -0.844628 0.515427 -1.39357
2403 1.94144 7.30651 0.308036 0.360518 -0.0064804 -0.292954
553 3.39049 7.34414 0.435574 0.288975 -1.20991 -0.15202
3957 3.6953 8.27738 0.119744 0.642436 -1.55052 1.91368
1495 4.33057 7.85475 0.733573 1.1966 -0.641221 -0.718489
1487 5.25305 7.46184 0.372195 1.11358 -0.419936 -1.18227
1591 5.29449 8.4957 0.942145 -0.170655 -0.701447 -0.0331594
190 6.21043 8.28844 0.210874 -2.29413 -0.511989 0.106306
2570 6.35466 8.06581 1.26763 3.17796 1.30577 0.040997
3451 8.46527 7.85242 0.235206 -0.206283 -0.426335 -0.572942
1732 7.54499 7.94425 0.581032 -1.39481 1.05661 -0.277783
2774 8.30382 7.14029 1.31501 0.00527744 -0.773062 -0.0577007
2003 8.87081 8.11904 1.17282 0.63154 -0.729164 -1.60979
523 9.2223 7.16437 0.932773 -0.793799 1.2984 -2.15657
3932 9.72729 8.17974 0.00425034 1.25962 -0.0920013 0.168402
3530 10.7524 8.23966 0.323476 -0.496633 0.212588 0.218191
2455 10.1989 7.84138 1.11873 0.800296 0.406243 -0.417877
3243 11.1643 7.1808 0.108968 -0.347552 1.64402 -1.50744
3603 12.1896 7.92499 0.102027 -1.3366 -1.07102 1.00602
631 12.802 7.47692 1.10074 0.175749 -1.78518 -1.05156
2899 11.6956 8.1108 1.1782 0.124233 -1.97158 -0.984553
832 13.7517 7.40491 0.767043 -0.328403 0.979941 0.968795
1021 15.0978 7.99433 1.42389 -0.885758 0.729924 1.61069
3642 15.5943 7.96778 0.368051 0.57192 -0.0359296 -0.111034
1024 14.9967 7.15936 0.792182 -1.24373 -1.8221 0.776751
1081 16.3579 7.47193 0.702819 -1.88391 -0.0198315 0.937041
178 17.032 7.98273 0.13169 2.24435 -1.08153 -0.789614
597 1.18125 0.621219 2.6089 -0.736618 0.222546 0.178583
2425 0.395139 0.876462 1.49787 -0.321236 -0.897743 -1.07771
4 2.1602 0.969651 2.09269 -0.652163 -0.687938 0.215936
3410 2.97541 0.93799 1.53162 -2.28199 -0.338547 0.512674
773 3.30528 1.33254 2.44954 -1.06437 -2.72445 1.64343
3539 3.27221 0.319226 2.33096 -1.12656 0.704104 -0.690245
835 3.72479 0.178561 1.45403 -0.358928 -1.00441 0.60745
2081 5.30571 0.763164 2.17628 -0.494823 0.242082 0.161999
2472 4.31238 0.741263 2.39617 0.693351 0.332164 1.27909
2593 6.82749 0.588539 2.05264 0.369865 0.00973066 0.251903
1980 6.37833 1.30097 2.82145 -1.1719 0.692456 0.645711
3691 7.44739 1.32223 2.57987 0.350375 2.07806 -0.139977
3336 7.83335 1.1014 1.61774 0.293549 1.02827 1.74488
1712 7.73882 0.196455 2.20349 0.778711 -0.177203 0.810558
906 8.70757 0.804248 2.13501 0.676911 -0.702342 -1.81055
593 9.86386 0.952275 2.4314 -0.244483 0.285418 2.1861
2228 9.54156 0.460789 1.54936 -1.36332 -0.173996 0.16685
675 11.01 0.953807 1.88825 -0.302397 -0.725588 0.187485
847 12.0957 0.94863 2.46558 1.57138 0.774622 0.141661
81 12.9564 0.542137 1.95526 -0.427566 -2.54109 0.909233
535 13.9033 1.15949 2.15694 0.579869 -1.08341 -0.108148
963 13.9237 0.180447 2.71452 0.926555 0.306871 -0.457972
3317 14.7419 0.947698 1.49524 0.457249 0.0259979 -1.09967
1254 14.8754 1.09194 2.52213 -0.21025 0.554676 -1.58944
1972 16.3182 1.31818 1.46988 -0.778249 0.950268 0.129032
893 15.7347 0.641727 2.65622 0.100993 0.617642 0.412736
1043 16.8557 0.655372 2.23564 1.80946 -0.0689864 -1.13395
2145 0.588612 2.75479 1.99511 -0.965779 -0.153992 -0.0599952
1539 0.179985 1.96123 1.58534 0.146186 -1.99142 -0.594499
2247 1.4202 2.05871 2.52556 0.150822 -0.548219 0.245546
75 2.72681 1.93173 1.89352 0.0202339 -0.17907 1.35979
871 3.72238 1.67727 1.54249 0.63843 -0.0157278 1.72906
717 3.69603 2.81485 2.03521 -0.555899 -0.378921 0.261506
2154 2.94703 2.64473 2.78941 1.41693 -0.0693502 1.13253
1815 4.96026 1.79883 1.69738 0.291529 -0.687625 -1.62499
1765 5.40841 1.82384 2.72142 1.01703 -0.0829444 1.19653
476 4.29839 1.77759 2.68851 1.86491 -0.180546 -0.260234
2588 4.71236 2.77243 2.77346 -0.352838 0.224585 -0.463956
1041 7.00499 1.9686 1.65648 -0.0776647 1.07215 1.48033
1580 5.95452 2.37249 2.21442 -0.561547 0.719016 -0.810228
3363 6.03764 1.46809 1.5902 0.00742622 1.13768 1.2668
3659 8.18343 1.96388 2.14317 -0.780142 -0.348793 -0.296211
501 9.22865 2.79178 2.24083 0.386034 -0.0706088 0.531622
2363 9.11586 1.65143 2.51077 -1.11698 -1.16234 1.28584
2515 10.1618 1.98287 2.21199 -1.05848 1.01193 -0.044834
281 11.0794 1.96077 2.71281 0.123614 -1.29641 -0.238016
2077 11.8994 2.1244 2.19082 0.089663 -0.551003 2.26354
2959 13.0039 1.76275 2.53523 0.791123 2.03277 0.274394
1621 13.173 1.90825 1.49577 -1.04411 -0.369559 0.682015
3954 12.9586 2.71344 2.19999 1.48842 -0.316646 1.18808
1829 15.263 2.01308 2.22985 -0.484664 -0.776139 -0.389109
1708 15.0706 2.79395 1.49012 0.0124174 -1.72871 -0.179632
2354 14.2619 2.38706 2.1762 1.08455 -0.83431 -1.07133
2417 16.385 2.32211 2.39239 -0.0232125 -1.15247 0.424476
1258 16.9353 1.48101 2.79948 -1.24461 -0.450208 -0.0477775
805 0.987953 3.89491 2.01845 -1.76624 -0.175577 0.913343
1003 2.57728 3.68822 1.9134 -1.2009 -0.749453 -0.252688
2826 1.46777 2.89899 1.45466 -0.851181 -1.20807 0.0477455
3841 2.10669 2.89142 2.41398 0.296579 -0.334216 0.632762
1332 4.20087 3.77811 1.52104 -0.141887 0.49877 1.07534
3119 3.8944 3.59519 2.6429 0.705365 -0.64921 -0.69562
733 5.18461 2.90073 1.90426 0.45801 0.333829 0.791134
686 4.954 3.92479 2.64619 -1.22265 0.041846 -0.162025
89 5.90759 3.78555 1.802 0.839638 0.702513 -0.463198
3767 7.10015 3.09879 2.09906 -0.698984 -0.647325 0.451703
478 8.35058 3.12567 1.99499 -1.43553 0.943234 0.199966
35 8.09753 4.20255 2.29614 -0.690906 1.47848 -0.560934
2079 7.25785 4.05985 1.6017 0.129429 0.174873 -0.258317
1188 9.0339 3.7218 1.60093 -0.0666626 -0.664741 0.1385
1408 9.26799 3.87197 2.64243 0.649114 -1.06941 1.92166
3704 11.1364 3.75687 1.62728 -0.8335 0.135938 0.549086
3551 10.0637 4.00351 1.82548 -0.0401822 -0.246216 -0.310377
1090 10.5081 3.02871 2.08793 -0.641945 -0.161466 -0.784263
1035 10.2004 3.7 2.7485 -0.222631 -1.20361 -0.915153
2946 12.266 3.96041 2.66981 -1.44769 -0.0360445 1.07001
1233 12.0388 3.19833 1.82231 0.38363 0.0191842 0.0282908
80 12.7095 4.13219 1.7793 0.491916 -0.540952 -0.114541
2434 13.7722 3.55833 1.9305 -0.943736 1.44452 0.729843
3890 14.9038 4.07357 1.45885 -0.0237233 -0.678027 -0.280276
956 14.8441 3.4441 2.43441 0.414762 0.340631 1.3575
1710 15.8653 3.76952 1.45795 -0.489153 0.840258 -0.630941
1170 16.9114 3.28828 1.98238 0.543491 -2.0645 -1.18623
1718 16.0433 3.33212 2.49952 -0.794397 -0.627707 0.673772
424 16.7293 4.18199 2.54949 -0.416625 0.491618 0.678576
2722 1.38545 5.43046 2.04462 0.99562 0.0665479 -0.533462
1956 0.517164 4.77521 2.67758 -0.00884365 -0.344347 -0.429434
2951 1.93814 4.9439 2.80085 -0.515758 0.39467 2.20021
2867 2.41469 5.65393 1.83033 -0.252016 1.22748 0.725533
2129 3.62429 5.38874 1.94104 -1.42553 -0.429131 0.172294
549 3.23103 4.41583 2.55544 0.126728 -0.115952 -0.575226
460 4.16287 5.57768 2.81882 0.745684 0.415013 -0.672525
1436 3.12856 5.62034 2.77101 0.502162 0.314889 0.645751
2488 5.26548 4.52633 1.43492 -1.73868 -1.44262 -0.0930367
2331 4.69895 5.13321 1.93068 0.263351 -0.429676 0.00762324
2035 5.64381 4.72632 2.51626 -2.91983 -0.331177 1.24001
1992 6.66422 4.71059 2.27309 1.14726 -1.11039 0.126953
913 8.22308 5.15935 2.18794 0.0996268 0.152674 1.84879
1152 9.3862 4.86175 2.02777 1.20089 0.187013 -0.425947
3057 10.9632 4.35001 2.40966 -0.885562 0.457651 1.00676
2854 11.0495 5.40414 2.167 0.646752 0.214615 -0.373737
467 10.2599 4.94118 2.76451 0.922378 0.0951627 0.894483
677 12.2678 4.89267 2.26563 2.22196 -0.0595906 -0.092748
1883 14.1401 4.55213 2.48502 0.297973 -1.12789 -0.42535
920 14.1305 5.35657 1.72926 -0.22036 2.03258 0.203192
1548 13.2944 5.28158 2.41957 0.719178 -1.13793 2.95094
1099 14.9275 5.22082 2.67114 2.6713 0.851423 -0.432127
1909 15.942 4.84288 2.35302 -1.58839 -0.212224 -0.972404
904 16.7721 4.7362 1.61885 1.65952 -0.356203 -0.489638
212 16.8291 5.51523 2.68913 0.551604 -0.14475 0.204529
545 0.432046 5.79978 1.60709 -0.767284 -2.2619 0.128791
2010 1.21687 6.14136 2.74989 0.703214 -0.732243 1.16441
998 0.0254466 6.58781 2.61577 -1.2227 -0.260379 1.00811
3250 2.12167 6.5614 2.2989 0.341488 -1.50191 -1.10409
3801 4.01101 7.11067 1.88821 -0.749317 0.849218 0.661075
1214 3.18126 6.6234 2.37023 0.200704 -1.29566 0.729032
2558 4.5871 6.36016 1.44701 0.105428 1.67499 0.0435747
3039 4.98843 6.10086 2.38018 -1.83539 0.976897 -0.259807
2302 5.95289 6.50268 1.5416 -0.132988 -1.68355 1.5754
1989 6.35453 5.70371 2.20249 -1.18504 -1.19596 0.152305
1847 7.91024 5.96764 1.63678 -0.350855 0.824032 -1.32688
3580 7.28747 5.88723 2.60305 -0.378285 -1.60666 -0.694042
3452 7.25176 6.89694 2.0998 0.897446 -0.313562 -1.54647
2902 9.95194 5.89095 1.57511 0.0908576 0.150482 -0.517796
3837 9.71779 6.88794 2.07183 -0.442702 1.5314 2.03796
3087 9.06054 5.94787 1.92457 -0.426441 0.730165 0.846084
3204 10.0372 5.99912 2.70136 0.476727 1.09094 -0.389669
2303 11.0877 6.45235 2.11609 -1.13479 -0.411611 -0.239578
2633 10.5772 7.05064 2.73641 0.344598 -0.101736 -0.724155
106 11.8795 5.87824 1.63659 -0.673849 0.933637 -0.655101
3802 12.1489 6.28111 2.79776 0.360282 0.873172 0.972564
1015 13.6448 6.27124 2.09066 -0.88009 0.0400721 1.19938
664 15.5769 5.88897 2.31688 -1.92215 -0.673072 0.0736351
932 15.2012 6.82939 2.3203 0.941385 -1.59033 -0.685206
415 14.4146 6.88659 1.62498 -1.21402 1.78163 -0.479343
2909 16.4449 5.86128 1.81218 0.386297 0.5823 0.386505
2375 16.8794 6.82988 1.59091 -1.27885 0.399818 0.205973
132 16.0676 6.85812 2.83549 0.492579 0.842764 -0.681433
3966 0.967364 7.20374 2.28699 -0.0877296 0.901914 0.748588
1400 0.909245 8.28265 1.80973 -0.730596 -0.972151 -2.90811
101 1.73014 7.69965 1.88508 1.2033 0.450412 -0.44378
3923 2.46952 7.48908 2.64847 1.64427 -0.543714 0.0134888
1622 4.25262 7.85153 2.76393 -1.82177 -1.50107 0.796088
11 3.4069 8.00447 2.26823 -1.90582 -0.793639 -0.270192
2550 5.62096 8.53694 2.00354 0.084272 -1.04396 0.286706
2108 5.36083 7.5218 1.58963 0.550685 1.1415 1.1027
602 4.58689 8.13493 1.77243 0.832337 -2.07127 0.0654578
1854 6.33164 7.39017 2.13608 -1.07279 -0.024938 0.918011
3481 7.21056 8.21977 2.6194 -0.777828 1.35172 0.817424
765 7.8499 7.77398 2.01797 -0.573746 -0.339809 -0.633061
3408 9.10314 7.77928 2.08377 -0.0733283 -0.228131 1.53753
575 9.82202 7.82475 2.80067 -0.886424 1.35199 0.867201
496 9.90637 8.4902 1.94703 -0.775222 -2.54775 -0.393034
655 10.8578 7.65761 1.91662 -0.546766 -0.924231 2.03834
3619 10.8093 8.42732 2.75428 -0.557238 -1.44149 -0.285698
3011 12.1115 7.42407 2.10071 -1.55472 0.77755 -1.17626
639 11.6367 8.2786 2.23566 -1.46225 0.749555 1.66271
1774 12.639 8.37273 1.90215 0.0455738 0.0226517 -0.952304
2933 13.09 7.32773 2.1791 -1.10527 -0.285419 0.294216
337 13.8488 7.89423 1.69648 0.237537 -0.670361 0.125462
3499 14.0841 7.74968 2.59512 2.76739 1.90034 2.19893
1845 15.5837 7.86814 2.565 1.87779 -0.269115 0.975852
2232 16.2834 8.50386 2.0545 -0.377203 0.559164 -1.72866
1937 16.8586 7.57063 2.49025 0.782394 1.43734 1.63822
843 16.0831 7.41632 1.68961 0.924249 0.0781035 -2.90945
60 0.857568 1.38026 3.13826 -0.711337 0.29848 0.385448
1887 0.283426 0.328313 3.25828 -1.52695 -0.653687 -1.20558
3884 0.0605983 1.20163 4.05622 -0.0729352 1.46473 0.41746
2433 0.766968 0.336201 4.24759 0.241751 -0.470943 0.195469
3059 2.31842 0.255918 2.90112 0.24297 -0.0399133 0.0644986
2127 1.71861 0.996896 3.45945 -0.163778 -0.683174 0.657162
735 2.97634 0.781608 3.52311 -1.14264 1.00575 0.404264
2357 4.00403 0.378365 3.28644 1.13058 2.27346 0.0224112
3115 4.70449 1.1912 3.4371 0.890362 -1.23629 0.075512
2318 4.7629 0.629068 4.23105 -0.738444 -0.224027 0.995135
3820 5.73241 0.0363518 4.14509 1.31198 -1.91766 -1.51451
2610 5.81231 0.318802 3.00102 -0.0476698 1.2464 0.93927
2747 8.36991 0.542761 4.10977 1.22463 0.627697 -1.42567
3190 7.14006 0.508552 3.15006 0.579881 -0.205536 0.894181
300 8.30718 1.14897 3.10343 0.0497618 -0.512599 0.583402
1842 8.51547 0.119839 2.92994 0.526823 -0.34363 -0.349493
3980 9.55347 0.786525 3.40956 -0.545784 -1.59276 -0.148214
3891 10.4008 0.2905 4.04132 -0.205635 -0.425304 0.428306
2451 10.8054 0.590887 2.93944 -0.168542 2.81368 1.19782
3472 12.4173 1.37357 4.15341 2.11242 -2.10339 1.14721
434 11.4983 0.979428 3.85526 -0.874626 0.592526 -1.18569
1547 12.2318 0.275554 3.22791 -0.43847 -0.0943809 -0.356659
2649 14.2115 0.438205 3.81278 -2.90716 -1.18748 0.2614
1465 13.1566 0.907972 3.21534 0.551642 0.0704075 -2.28356
3121 15.3208 0.586847 3.91152 -0.688843 1.82631 0.662145
1437 14.8722 0.262228 2.97472 -1.20205 -0.760279 -0.471191
1633 16.5163 0.376002 3.79785 -0.272494 -1.91071 0.464349
2945 0.295544 2.69574 3.28798 0.722308 1.0087 -0.259848
456 1.13533 2.17962 3.82001 -0.00100716 -1.02762 0.172929
1612 2.50798 2.63729 3.73057 0.64234 0.271552 -0.99863
1242 2.31837 1.75372 3.01012 -1.73339 -0.0128284 -0.156034
1113 3.53268 1.64567 3.56578 0.88056 -0.538136 -0.851821
2585 3.86556 2.60739 3.5431 0.377509 -0.557979 -0.130305
2165 5.18748 2.70138 4.17227 0.93606 0.0862272 0.0151627
3944 6.02324 2.02792 3.60121 0.570818 1.59794 -1.06792
1452 6.86592 2.67967 3.17949 0.196433 1.2117 1.09972
2769 7.13236 1.67401 3.44857 0.6678 -1.19511 1.81735
829 8.09245 2.13784 3.46308 -0.348936 -0.0187551 0.3657
2775 7.17996 2.38897 4.21021 -0.10706 -1.05438 0.574517
726 9.29487 2.37667 3.26165 0.12146 -0.292401 0.331973
724 8.90313 1.53516 4.10588 -1.64485 -0.888281 1.81546
335 8.7797 2.67465 4.1444 -1.58392 0.472613 -0.416016
753 10.4831 1.48271 3.57996 1.35556 0.744894 -0.989626
3627 10.3444 2.48025 3.23851 0.676021 0.761027 -0.845815
3462 11.3854 2.2774 3.86683 0.89576 0.960431 1.08404
3960 12.1769 1.83006 3.16179 0.676403 1.07883 -0.231434
3076 12.6653 2.69447 3.85642 0.230239 1.49234 0.0713046
555 13.6288 2.28823 3.40367 -0.990042 0.130015 0.602934
157 14.7555 2.61375 3.113 -0.36483 -1.49478 -0.95122
262 14.3671 2.2937 4.16933 -0.567195 0.916079 1.29416
2351 14.769 1.59568 3.45379 0.128035 -0.265084 0.738329
1648 15.9183 2.4805 3.37213 -0.747762 2.26477 0.637592
1375 16.6664 2.12982 4.18165 -0.91329 2.69218 -2.52737
3390 15.841 1.45716 3.31041 0.192272 -1.3227 0.883464
3777 0.424173 3.75255 3.16617 0.999641 0.247226 0.0936183
797 1.61628 2.96388 3.32854 -1.48199 -0.441765 -0.939313
2756 1.49746 3.96882 2.8842 0.784922 1.23467 -0.0586317
1976 2.57722 3.71592 2.99304 -0.989643 -0.260058 -0.390688
651 2.82912 3.803 4.09251 1.62085 -0.724053 -0.433196
2976 3.60313 4.14701 3.50851 0.456323 0.741193 -1.58124
2172 4.72555 3.42173 3.55952 0.475735 -0.576965 0.234182
969 5.45683 4.13978 3.71051 -0.932622 0.712364 -0.122781
342 5.89268 3.37753 3.00733 0.975976 -2.38392 -0.451812
897 6.29747 3.03644 3.88413 1.633 0.831229 1.504
1760 6.99352 3.72427 4.10847 0.468983 -0.215752 1.25811
1841 7.44582 3.82328 3.02743 -0.727635 -1.1997 0.156378
2888 8.18778 3.56451 4.10664 1.78337 0.128609 1.80004
3007 8.3645 3.21121 3.09899 -2.41982 1.41702 0.722692
3579 9.33545 3.35056 3.51111 -2.09892 1.02943 -0.362018
889 11.0744 3.19446 3.01012 -0.594545 1.03467 -0.262316
587 11.1172 4.14892 3.47936 -1.72197 -0.564922 1.30734
282 11.995 3.62921 3.73059 -1.20334 -0.233153 0.680698
3664 12.0604 2.94739 2.95511 -0.212922 -0.588477 -0.464536
3419 13.3914 3.4385 3.03374 -0.505085 0.587803 1.01086
3247 13.323 3.56203 4.06658 -1.9 -1.51692 1.49383
421 14.4184 3.28142 3.85334 0.164234 -0.692635 -0.562061
2724 15.4155 3.25463 3.92849 0.935429 1.36857 -0.586749
339 14.6291 4.01887 3.26185 1.12784 -1.09151 -0.444247
355 14.5319 4.26232 4.26569 0.506299 -2.09478 -0.822417
931 16.4734 3.59364 3.56385 0.429078 0.998504 0.270672
390 0.260824 4.68683 3.71122 1.86811 -0.84538 -0.873786
3200 2.67102 4.83826 3.52208 -1.76197 0.0869366 0.253645
2480 1.80814 4.39401 3.76915 0.207951 -1.03094 1.05059
2162 3.68712 5.00028 4.072 -0.920305 -0.58235 -0.325265
1201 5.48206 5.16413 3.74835 1.47376 0.922655 -1.77153
3300 4.6948 4.74191 3.28278 0.310143 0.698873 0.463767
2784 4.59906 4.32038 4.19885 -1.3195 0.0837433 -0.484594
2369 6.46476 4.29149 3.35015 -0.67695 1.24541 0.0192177
237 6.44767 5.34169 3.2286 0.269146 -0.0880896 -1.60744
2798 7.39811 4.91477 3.09519 0.656077 0.800385 2.92041
1643 8.45496 4.36022 3.1924 -0.278853 -0.770895 0.436119
3790 7.7514 4.52972 3.96135 0.12333 1.11545 -0.637068
3374 8.15578 5.4079 3.50242 0.225777 0.210677 0.0895638
1413 9.89952 4.60974 3.70944 -0.906417 -0.0309128 -0.231441
2868 9.24743 5.11404 3.06302 -0.522757 0.685569 0.813173
2590 9.33526 5.57442 4.02411 0.573542 -0.691649 -0.00232225
2564 8.78245 4.53129 4.20518 -0.693379 -2.33715 -0.600623
2853 10.8846 5.08795 3.92376 -0.554117 0.17712 -0.248425
2237 11.5758 5.17 3.1552 0.172832 0.908145 1.13513
3911 11.8512 4.67468 4.23846 -0.422694 0.0666187 0.140241
1344 12.6503 4.87768 3.40786 1.66305 2.28894 0.0557158
222 11.8683 5.68347 3.97865 0.00899183 0.157646 -0.630067
3672 13.6227 4.38381 3.36795 -0.437323 -1.06211 0.331216
1269 13.6156 5.20196 4.09455 -1.20883 0.0426986 -1.61701
672 15.336 4.86603 3.84324 0.527175 -1.06975 -0.0837679
978 14.5058 5.65017 4.23654 0.349999 -1.5756 0.41825
2537 14.2685 5.14633 3.38805 0.254426 -0.294571 -0.942193
2412 15.8442 4.29099 3.24406 -0.367451 0.689612 0.183415
1235 0.374509 6.13619 3.59438 -0.847243 -0.411527 -0.0494108
1682 1.70666 5.80781 3.58371 0.874572 0.63443 1.06837
1527 2.68442 6.43868 3.34132 -1.68172 -0.144072 -1.56846
536 1.69197 6.89076 3.45229 -1.05894 1.18223 -0.0458463
491 4.26227 6.69498 2.99862 -0.32565 1.31252 -0.694928
1640 4.15716 6.00269 3.7815 1.60505 0.289058 -0.00763389
3388 3.39462 6.74586 4.12586 -0.626953 0.8636 -0.488585
316 6.39034 6.42444 3.05751 -0.804879 1.2143 -0.34028
1321 6.04124 7.02489 3.93675 0.00315085 -1.06215 2.55067
1265 7.61473 6.78328 3.05456 1.71004 -1.0045 -1.29318
1786 8.37321 6.48969 3.79797 0.393686 1.55639 -0.412831
1438 7.19568 5.84658 3.80361 -0.91464 -1.17199 0.877873
1943 8.67812 7.09542 2.9963 -0.154638 -1.70819 -0.274946
264 9.77983 7.03149 3.52283 -2.13683 -1.50885 0.792841
2183 9.15801 6.19153 3.22111 0.38226 -0.147729 0.472496
1212 10.3602 6.10503 3.8908 0.259459 -1.38015 1.22416
506 11.174 6.49372 3.42248 0.077171 0.549379 -0.604387
3505 12.5697 6.52504 3.91144 0.0293342 1.12927 -1.28992
1690 13.2888 5.96348 3.26213 0.271543 -0.548221 -1.46509
1597 14.4076 6.42599 2.90707 -0.0186982 -0.66985 0.682789
2903 14.4581 6.78038 3.94945 0.0417652 0.0861052 1.28523
2800 15.1625 5.96816 3.40707 0.756267 -1.34325 -1.51563
3470 15.4587 7.02082 3.7714 0.0437552 0.288234 -1.49883
2762 16.2821 5.91766 3.47101 1.18541 -0.0213836 1.16858
1136 0.579207 7.28236 3.36816 -1.36106 0.873135 0.783148
984 0.188922 8.12809 3.96248 -1.66472 0.973586 0.442183
532 1.71239 8.20258 3.38925 2.34764 0.0985626 -0.213802
2333 2.34992 7.60889 3.90554 -0.703379 -0.257549 2.4223
2695 2.73284 8.41221 3.01262 1.39557 0.816741 1.92579
1692 3.3015 7.54724 3.23049 1.80208 1.88246 1.13235
2600 4.25201 7.3485 3.95663 -0.106027 2.72781 0.141641
834 3.3194 8.20833 4.15996 0.576267 0.53221 0.452807
1142 5.25298 7.22508 3.35853 0.130815 -1.07521 -0.150734
2938 5.2922 8.51344 3.75078 -0.11418 -0.878697 -1.98529
2977 6.21649 8.09394 3.06609 -1.40668 -0.0390428 0.943087
3144 6.77048 7.32442 3.21372 -1.55475 0.963094 0.974266
1676 7.71621 7.18892 4.23762 -0.124055 0.915971 -0.205619
2233 7.62458 8.0814 3.60798 1.18752 0.072104 1.18138
2316 8.46255 8.27588 2.8616 0.315296 -1.10277 -0.336964
3318 11.3629 7.55617 3.06513 -1.82419 -0.110998 -1.19404
745 10.7405 7.28879 4.09932 1.20442 0.899709 -1.14608
3101 10.0972 8.25322 3.94559 -0.199268 -1.72325 0.381389
2512 12.3331 7.42961 3.12293 -0.613219 0.675314 0.0830125
362 11.6985 7.13833 4.21412 0.539269 0.815811 -1.10183
413 11.8704 8.17317 4.05471 1.8286 -0.150205 1.32041
1626 12.3819 8.4156 2.96442 0.778057 -3.3377 -1.175
1050 13.6572 7.27928 3.35101 -1.2512 -0.300778 0.854671
136 12.9038 7.95426 3.82854 -1.83242 0.347673 -0.0880398
940 13.897 8.32413 3.7629 -1.15772 1.24542 0.997854
188 15.0149 7.96633 3.77657 -0.173941 0.943068 1.16263
2388 16.0938 8.00583 3.51075 -0.333819 0.21933 -0.950067
2567 16.6632 7.1509 3.78045 -0.633459 -0.990141 0.541142
2944 1.08567 1.42309 4.42708 0.876374 -1.23992 -2.04602
3535 1.20265 0.323282 5.29754 2.34399 -0.507084 -2.0241
2814 0.595818 1.22707 5.41881 0.106178 0.651733 0.651964
714 1.92233 0.793526 4.60559 1.20297 -0.638354 -0.108032
1089 3.01903 1.40588 4.38956 -1.23906 -1.46786 -0.508213
2665 4.20334 1.02202 5.13922 0.111893 1.28916 -1.49393
1688 3.02203 0.848151 5.35748 1.70065 -0.411031 0.303066
3145 3.81329 0.250022 4.29791 -1.1488 0.931638 0.837301
2496 4.54933 0.00429017 5.0694 0.768094 -1.32943 -2.65024
3638 5.6987 0.978965 5.62162 0.411302 0.175288 -0.413645
299 6.62509 0.322976 4.96828 0.627806 0.372659 -0.594723
1662 7.22093 1.08303 5.36357 0.577406 -1.74239 -1.2692
1119 8.13979 0.648355 5.08387 -0.214598 1.47744 0.349679
2804 9.20325 0.817846 5.09578 0.333499 -0.393315 -0.692992
860 9.83614 1.24197 4.47911 -0.538974 -0.247084 1.24865
3338 11.3547 0.779619 4.78284 0.875191 -1.22765 0.452772
869 11.2962 0.292339 5.69817 0.108044 0.538654 -0.357814
1102 10.2339 0.422228 5.09004 0.939167 1.46026 -2.15887
2132 12.2568 0.109812 4.96984 0.561793 -0.937648 0.901299
3347 12.7926 1.02946 5.07225 -1.50586 -0.603735 0.676469
892 13.4122 0.127953 5.64096 0.291046 0.888658 -0.347484
3836 13.5273 0.686384 4.43581 -0.145071 -0.889677 -0.1886
1270 13.7327 1.12874 5.48544 -1.16037 0.528798 0.196385
319 14.3991 1.33499 4.56049 0.632817 -0.372892 0.345151
3334 14.529 0.235286 4.71202 -1.05193 -2.16381 0.423285
1106 15.0937 1.30056 5.56606 0.0792218 -0.225848 1.4586
359 15.4992 0.521107 5.07581 -0.0145691 0.914943 0.476181
1843 17.0764 0.491936 5.04334 -0.0106429 -0.758739 0.000890988
2492 16.2614 1.25917 4.67136 0.0512117 0.207691 -0.151307
1535 1.19298 2.14184 5.55623 1.36103 -0.480727 0.467062
2886 0.309607 2.56948 4.68428 -0.757366 -0.314433 -1.19028
1219 2.13372 1.8181 4.38852 0.446381 0.59696 0.843764
1816 2.28396 2.8333 4.93784 -0.490224 -0.974084 0.785367
895 2.38332 1.80101 5.56009 1.19675 0.813651 -0.997949
2834 4.20882 1.68854 4.28192 0.946724 -0.782396 0.155767
983 3.47821 1.77365 5.24086 0.164373 -0.527638 0.754097
2532 2.98257 2.62786 5.61241 3.36543 0.766762 -0.260227
71 3.35165 2.51112 4.4265 -0.801127 0.017809 1.48328
1638 5.29315 1.56384 4.34623 -2.56158 0.604734 1.16411
1651 4.37247 2.66425 4.88921 0.0863053 0.981926 -1.1766
520 4.9574 1.76275 5.53136 1.13938 -0.346547 -2.08325