ITEM: TIMESTEP
40000
ITEM: NUMBER OF ATOMS
4000
ITEM: BOX BOUNDS pp pp pp
0.0000000000000000e+00 1.7099759466766969e+01
0.0000000000000000e+00 1.7099759466766969e+01
0.0000000000000000e+00 1.7099759466766969e+01
ITEM: ATOMS id x y z vx vy vz
3923 1.0546 0.811427 1.24159 -0.0788826 -1.06324 1.30859
2724 0.597771 0.13507 0.0145455 2.35966 0.719049 0.073902
2411 2.26613 0.69721 1.18766 -0.35847 0.316692 1.35454
3368 1.78012 0.643953 0.157585 -1.02958 -0.0859537 1.3328
1156 3.66484 1.08822 1.26459 1.07817 0.338613 -0.926758
2057 3.46919 0.438277 0.48473 1.19115 -0.0312618 1.95765
3100 4.73574 1.18998 0.513472 -0.838688 -0.553386 -1.01315
1217 6.88898 0.507067 0.581867 -0.236535 0.611026 -1.19857
504 5.76049 0.647074 0.354942 0.952468 -2.71211 0.065416
214 7.19998 1.23209 1.27824 1.43569 0.565841 -0.447662
1003 7.73396 0.887739 0.194331 -1.2081 1.64959 -0.14846
210 8.00278 0.330442 1.20411 0.525534 0.436102 -0.196001
596 8.75944 0.882478 0.528834 -1.03971 -1.242 -1.15837
222 10.3539 0.0400095 0.928467 -1.09596 -0.310028 -1.09615
1861 10.4823 1.00327 0.718321 0.382107 -0.763764 -0.236479
1704 11.2561 0.294909 1.25144 -0.727593 -1.56523 0.183202
2144 11.5725 0.884481 0.586681 0.45859 -1.04835 -1.54231
3472 12.4948 1.1898 0.922393 -0.589694 1.15207 2.3195
83 12.966 0.139102 0.7957 0.835775 -2.29496 2.64807
952 13.5864 1.10107 0.940075 -0.538407 0.650009 -0.577216
2440 14.6499 1.41554 0.253696 1.46236 1.33793 -1.30282
2451 14.9893 1.0521 1.2014 -0.0808916 -0.987478 0.439886
345 14.3377 0.289138 1.28477 -0.965627 0.120781 -0.392633
273 14.7155 0.336043 0.268905 1.76507 -0.792895 -0.696379
2176 16.8918 0.552512 0.444384 0.0169996 -1.094 0.621953
2560 16.1585 1.09871 1.2404 -1.28555 -0.627293 -1.31316
954 15.7136 0.701614 0.319384 0.368878 0.532668 0.452181
1026 0.319991 1.5817 0.946186 0.857719 -0.838724 0.178513
319 0.698891 2.78035 0.977817 0.0832142 1.07178 1.5833
2567 1.35837 1.57103 0.572011 0.278851 1.08148 -1.59581
2115 2.66478 1.93621 0.528988 1.72507 0.990065 0.10158
3119 3.76471 1.66778 0.263296 0.333188 -0.266958 1.62699
3820 3.93836 2.69121 0.00293641 0.869901 -1.79583 -1.68066
3057 4.9711 2.1749 1.30978 -0.964188 0.415767 -0.525851
201 5.58648 1.87367 0.439346 0.267309 -0.687029 -0.574675
1964 6.53503 1.47498 0.212335 0.358641 0.601753 0.43021
252 6.51695 2.32912 1.03581 -0.874007 -0.931239 0.316277
2990 8.02919 1.73313 1.08167 -1.93116 -0.934825 0.253399
253 7.99276 2.62923 0.457323 -0.438935 -0.100043 -0.401153
2376 9.39185 1.80763 1.26432 -0.943832 0.822278 -0.293536
3986 8.78089 1.90008 0.214159 -0.906875 0.150094 0.397454
2614 8.72387 2.58622 1.0902 0.926278 -1.40694 -0.531274
1870 10.3833 1.90377 1.22444 -1.38232 0.681846 0.571329
711 10.8108 1.97028 0.23925 -1.8527 0.389773 -1.23133
1842 10.0675 2.57392 0.0316179 -1.26257 1.2018 -0.743361
55 12.0032 1.96904 0.155671 1.03282 1.23993 -0.687249
2991 12.0068 2.42734 1.05654 -2.10737 0.893796 -0.397161
363 14.0706 2.32409 0.0428688 -0.76466 0.0825165 -1.88955
41 13.1004 1.92769 1.20088 -0.033572 -1.54083 -0.218615
2911 14.3766 2.12079 1.07612 0.671638 -0.0489297 -0.669549
3853 15.4542 2.46731 1.05032 -0.033912 0.60308 0.139881
3392 16.6002 2.14136 1.05178 -0.112527 -0.36478 -0.375959
2354 15.8051 1.70267 0.439117 0.954599 0.735294 -1.46677
5 16.7301 1.71393 0.131969 -1.08158 0.586727 0.785901
1400 0.933388 4.05106 1.03079 -0.209912 1.64529 0.526343
2970 1.02703 3.66102 0.0652365 0.500337 -0.21878 -0.113477
1611 1.83274 3.02824 0.402364 -0.682788 0.238301 0.88788
904 2.04758 4.04231 0.723477 -0.33791 0.37755 -0.164473
735 3.60692 3.02036 1.08055 -0.129402 -2.88301 0.907536
1087 4.24203 3.67517 0.181891 1.9682 -0.0804922 0.0646082
733 2.88945 3.19438 0.37593 -0.145793 2.69101 -0.509923
246 3.27429 4.0891 0.990311 0.102026 0.742777 0.130179
1852 5.14275 4.20296 0.398208 -0.150005 -1.0343 -0.346878
602 4.72535 3.26018 1.03554 0.352982 -0.974938 -0.370742
1696 4.36288 4.26817 1.23605 0.287952 -0.161879 0.707947
3009 6.23102 4.0526 0.408973 0.769689 0.658155 -0.020376
2561 6.31746 3.8555 1.37341 0.39831 1.10419 -0.320363
3779 5.73733 3.25063 0.662339 1.6769 -0.239481 -0.652131
3637 7.30799 3.85205 0.152376 0.898683 1.13911 0.748122
99 8.20875 3.60663 0.891762 0.764948 2.19801 -0.828607
613 7.16906 3.26117 0.983936 -0.0793984 -0.0449103 -0.0767857
3316 9.19754 3.05336 0.328464 1.82157 -0.224644 2.90467
490 9.06472 4.11953 0.353588 0.318343 0.291038 0.942662
1201 9.92269 4.25659 1.13899 -0.693216 -0.816428 0.738727
3660 10.358 3.36035 0.67665 -0.57711 -0.112225 -0.80919
1195 10.9522 4.08393 1.1348 0.406394 -0.139714 1.17207
1120 11.9618 3.35454 1.28677 -1.27225 -0.681052 -1.01588
231 11.4696 3.08616 0.441476 1.81771 -0.692006 0.176706
683 12.4853 3.82241 0.515083 -0.63585 -0.339843 -0.214403
2634 11.5257 4.17922 0.060385 0.668082 -1.37076 0.619868
80 13.9166 3.04182 0.706626 -1.99997 -1.71208 1.05791
2402 13.4592 4.1712 0.69425 -1.81984 -0.26162 0.223526
2315 12.942 3.19269 1.11484 1.20302 0.112561 -0.192015
1363 14.6638 3.08466 1.41968 -1.80409 1.65735 0.876088
2071 14.8081 3.10391 0.256078 0.54271 -0.679651 -1.00154
3922 14.4233 3.99952 0.858082 2.229 0.491122 -1.07009
3891 15.4718 3.77422 0.956451 -0.0827564 1.23072 0.355106
3157 16.0325 2.90387 0.300763 0.177056 -0.766286 -0.281965
2169 17.0612 3.52288 0.62006 1.64673 1.01935 -0.937622
1890 0.917125 5.31629 0.737536 0.0833755 -0.197803 -0.351276
1219 0.210312 4.57468 0.180826 1.65664 1.90171 0.915142
2198 2.36839 5.14855 0.672268 -0.514794 0.569004 0.507985
2777 3.98653 5.5892 1.31267 1.383 0.455957 0.284607
1734 3.76981 4.80731 0.472326 -0.180958 -1.16731 1.32921
1311 5.45561 4.54231 1.35866 -2.13535 -0.363821 -0.663025
795 4.63503 5.18551 0.17874 -0.527413 0.472959 -0.570131
3885 5.29111 5.517 0.845871 1.38015 -0.993683 0.782546
1286 6.52837 4.88277 1.37513 0.797023 -0.213508 -0.839153
315 7.02226 4.87093 0.0304486 1.35851 0.662237 1.32129
1170 5.8438 5.14217 0.0374612 1.23755 1.3936 1.13065
1959 8.16162 4.52821 0.1179 -0.646489 -0.145253 2.1504
580 7.4157 4.38203 1.11632 -0.273646 0.548728 0.359263
2570 8.43196 5.25983 1.03413 -0.196525 -2.06093 -0.811552
1442 7.4419 5.36219 0.860727 0.259198 -1.66827 0.305017
271 8.87448 4.29079 1.41659 -0.565607 0.600558 0.852599
2414 9.18205 5.19081 0.143744 0.601628 1.8156 0.0158434
2266 10.6616 5.02223 0.509019 1.13948 -2.68248 -0.859016
1239 9.99105 4.32525 0.113951 0.371665 -1.32066 -0.051591
2678 11.8945 5.10552 0.10034 -0.810262 -1.00707 1.35385
2656 12.7371 5.01025 0.706129 -1.42798 -2.10602 1.62605
1321 11.6158 4.87883 1.16756 -0.985042 -1.42765 -1.08107
1832 14.05 5.00977 0.537882 0.680606 1.31312 -1.6643
82 15.0794 4.43732 0.028911 0.889944 -0.345829 -0.898523
1917 16.0853 5.36775 1.05946 0.215197 1.49587 0.974021
3462 16.0864 5.00162 0.193927 0.509609 -0.0503485 -0.0155704
2107 16.6752 4.41475 1.06075 1.96176 0.151494 -1.15955
3292 0.571847 6.35009 0.145612 1.58344 -0.481068 -0.574265
3675 1.78383 5.99003 0.558165 0.609011 -0.615879 1.44964
2801 1.52685 6.92308 0.270645 0.148412 -1.56208 -0.368601
1887 2.18943 6.7642 1.34434 0.379307 -0.120359 -0.163049
48 3.61813 6.21419 0.117906 -1.10609 -0.387018 -0.263562
3616 3.55569 6.61641 1.14017 2.43339 0.117772 2.10941
1904 4.66805 6.57089 1.05091 0.135575 1.46518 -1.52055
573 5.06343 6.32922 0.0580866 -0.37404 2.37288 -1.19438
3101 6.1415 6.66124 0.126815 1.72471 -0.90934 -1.21347
89 6.46351 5.78907 0.852357 0.485181 0.798908 -0.576977
665 5.77828 6.54751 1.37918 0.889398 -0.0081131 1.50028
984 7.92086 6.99404 0.586897 -1.80311 -0.638383 -0.0639354
1656 7.94386 5.98123 0.189722 0.958407 1.49764 -0.298975
3984 8.39174 7.0622 1.41102 -0.383095 -0.555565 0.482542
2316 9.00681 6.09641 0.705251 0.739628 0.373524 -1.75632
1732 9.4753 6.86243 1.32303 0.908108 0.56127 -0.0752601
3706 10.1744 5.9787 0.990115 -0.654002 -0.0966937 2.64449
1303 10.6536 6.89435 0.703718 0.230643 0.698427 0.316165
3837 11.2047 6.07684 1.02194 -0.0741525 -0.240449 0.771879
120 12.1404 5.92914 1.07482 0.883043 0.911222 1.46885
2839 11.7567 6.5412 0.230486 0.78975 0.566659 -1.03473
3712 12.7819 6.88175 0.64217 2.53303 -1.07667 1.53418
355 13.3317 5.92475 1.17125 0.387627 -1.80059 -0.542607
3856 13.9831 6.55673 0.433216 1.20725 -0.253886 1.72475
2017 12.9162 5.85153 0.158609 0.556983 0.83291 -0.86595
1981 15.3579 6.09665 1.23255 -0.869599 -1.77199 -0.412408
2013 15.4576 6.87818 0.446577 -1.00315 0.5631 -0.749496
2756 16.8465 5.73928 0.362308 0.25837 1.16855 -1.40632
3802 15.6778 5.90135 0.256168 0.598468 0.370699 -1.02783
2727 16.3664 6.83682 1.05403 0.398943 0.824272 0.432804
2470 0.393593 7.34961 0.716105 0.533777 -0.333203 1.0828
2175 1.34466 8.08981 0.35844 0.945611 -1.69016 1.10758
3133 2.67 8.54188 0.42604 -0.160641 0.386605 -0.543444
3260 3.03806 7.37963 0.554316 0.507904 -0.608553 0.186719
2173 4.21641 7.17112 0.125704 -1.25515 -1.90318 -0.176083
3667 4.10138 8.46552 0.392253 1.44628 0.859878 0.357862
1864 5.00368 8.40202 1.03042 -0.85532 -1.44652 1.08966
1814 5.3245 7.20376 0.386459 -0.837224 0.776418 0.490914
553 5.97443 7.56074 1.19114 1.02772 -1.33586 -0.80752
348 6.65056 8.28574 0.727687 0.0208854 -0.342411 0.329715
1591 6.8878 7.14792 0.610921 0.18212 2.51492 0.511185
3322 8.12007 8.50921 1.39076 1.63635 -0.887884 1.16918
1079 7.60407 8.2175 0.441809 0.421911 0.00443383 0.198476
3690 8.97771 8.03397 0.772761 1.31673 0.964237 -1.15409
392 11.0937 7.9961 0.52869 0.361959 -0.290773 0.307624
677 10.0444 8.05071 0.706087 -0.407338 0.389932 -0.407287
666 12.2769 7.74309 1.32871 0.302008 0.968517 0.730959
3831 12.18 7.78709 0.154719 -1.88042 -0.378263 -0.280714
1749 13.3561 7.54271 1.30907 -0.0942093 -1.0216 -0.760233
420 12.936 8.42273 0.936791 -0.962868 0.340955 1.32109
2789 15.5462 8.11368 0.62316 1.51856 -0.476104 -0.42831
1172 14.9496 8.04063 1.42255 1.57739 -1.40806 0.0209048
3879 14.5308 7.42128 0.420353 2.14968 -0.0886319 0.689053
2049 14.6331 8.49733 0.425011 0.682482 -1.03698 -0.506573
2129 16.5931 7.97709 0.68757 -1.606 0.246427 0.141491
1435 0.620047 0.567525 2.50269 -0.895802 0.253433 0.536429
3113 1.41372 0.155809 1.93744 1.02024 1.0337 0.863701
3271 2.1126 0.767162 2.27798 -0.543661 -0.0774453 1.86016
1731 3.3598 1.28377 2.25976 0.440346 0.332281 0.220563
465 3.57489 0.201169 2.00403 0.340926 -0.349141 0.889978
2293 4.8904 0.589247 2.39874 0.0118102 1.79862 0.000231826
562 4.47778 1.21194 1.71996 0.0532102 -0.0724984 0.713898
1496 5.82085 1.17293 2.61592 0.00930642 0.705095 -0.204998
113 6.79856 0.787146 2.08145 -0.0855835 0.00710184 1.36264
335 5.98175 1.18901 1.52694 -0.296315 0.4537 0.156683
3751 5.94711 0.146132 1.66744 -0.590399 -2.19887 0.560725
498 7.79281 0.999555 2.28589 0.0860185 -1.05274 -1.90113
2774 8.63763 1.1162 1.64002 -1.24689 -0.154614 -0.671705
234 9.71443 0.515272 1.93742 -0.343951 -1.11247 1.80024
2590 10.8575 1.18963 1.92019 0.0989882 -0.366409 -0.592992
1844 12.3678 1.34159 2.62972 0.628479 1.05251 1.13816
2044 11.9987 0.450548 1.90652 0.36302 0.562593 0.302961
2443 13.0389 1.1191 1.86797 -1.25272 -0.522428 0.588897
3194 13.6762 0.160273 2.26433 -0.27799 1.01527 -0.428848
262 14.2894 1.15434 1.88614 1.64216 -1.53582 -0.056012
2002 15.4449 0.0602664 1.55192 2.43812 0.944608 -0.128056
578 15.1997 0.698253 2.63681 -0.379187 0.424084 -1.61802
1644 17.088 0.955088 1.70102 -1.18878 -0.435593 0.486275
1225 16.0969 0.484482 2.19888 0.204038 1.77222 -1.22372
531 1.28677 1.69824 1.56966 -2.09153 -0.399116 -0.524387
1813 1.35562 2.34898 2.35125 0.153577 -0.196045 1.94105
3145 0.475879 1.60358 2.38448 -0.700498 0.102372 1.47118
3868 0.322625 2.58211 2.14252 0.837941 -1.29099 -0.0834376
415 2.10628 2.40664 1.58821 0.108623 -0.11247 0.441384
717 2.34458 1.77642 2.35482 0.461853 1.12648 -1.50703
2088 3.14141 2.12638 1.42788 1.36984 -1.78406 0.590787
3841 4.04842 2.2654 1.81193 -0.707799 0.34379 1.0764
3533 3.50367 2.41494 2.78634 2.01712 -1.15143 -1.13202
897 5.04739 1.8065 2.6867 1.31489 -0.0686152 2.18358
299 6.68662 1.79305 2.02298 -0.164641 0.530819 0.407343
1692 5.75026 2.28174 2.05985 -0.613339 -1.42948 -0.990522
1265 7.78459 1.9935 2.43663 -1.11704 -0.582801 1.35132
1404 7.5793 2.56295 1.60487 1.47106 -0.00362852 -1.05981
630 9.04812 1.5086 2.82712 0.463724 -0.640897 0.682447
3570 9.73768 2.77965 1.8134 -1.95613 -0.396624 -0.415553
2603 9.93063 1.68846 2.29521 -0.448418 -0.390196 0.480926
265 8.6768 2.75651 2.19813 -1.25849 -0.849709 -0.237222
3144 9.49698 2.52491 2.83413 0.356113 -0.172604 -0.474898
2994 10.7654 2.63895 2.40595 0.295621 0.217237 1.49149
357 11.2713 1.6735 2.79889 -1.36404 0.221442 0.376202
1462 11.8537 1.49295 1.752 -0.645791 -0.0583248 -0.280455
3630 13.0474 2.4864 2.81774 -0.38108 -0.311126 0.293141
1791 13.6536 2.22584 2.12513 -0.335889 -0.173537 0.514393
1437 15.3733 1.62509 1.96031 2.05811 0.620539 -1.34068
675 14.7234 2.43597 2.25713 1.888 0.17282 0.533939
442 16.3623 2.07174 2.09783 0.425927 -0.806691 -0.442276
1685 0.481194 3.62714 2.18303 -1.19658 -0.387412 0.723883
3222 2.63896 3.10035 2.68682 -0.00764345 -0.179134 -0.290919
72 2.46466 3.3629 1.4992 0.915829 0.583469 1.77261
842 1.50776 3.28034 2.80892 0.797184 0.225323 0.181589
3760 1.68887 4.08689 1.92291 2.01456 0.0911004 1.61462
347 2.29983 4.22038 2.78418 0.236335 -1.20238 -0.553144
3495 3.34755 3.8069 2.22367 0.627999 -0.412875 -1.19349
779 4.69999 4.16677 2.44054 1.32583 1.17112 -0.43956
3179 4.75135 2.88248 2.27984 1.11712 0.187526 1.65595
522 5.35171 3.61175 1.79075 -1.62638 -0.869535 -0.914683
127 6.46238 2.97873 1.89782 -0.198648 -0.72076 -0.915675
2369 7.03014 3.74315 2.0135 -0.113084 -0.906828 -0.950853
2525 5.96948 3.8532 2.53877 -1.21261 -0.146899 -0.799276
482 8.01543 3.47381 2.09553 1.36767 -0.451526 -0.225687
668 7.22313 2.86282 2.63874 0.389675 -0.419353 0.576354
2667 9.01241 3.85393 2.55923 -2.59737 -1.0301 0.117479
424 10.4701 3.78879 1.93664 0.641509 -0.357182 1.05597
1480 11.0862 2.93173 1.49002 0.66738 -0.0610475 1.14083
1909 12.1871 2.86779 2.55358 1.40733 -2.0505 -0.158167
888 12.5057 4.14561 2.00968 -0.582874 1.55253 0.838387
14 11.4536 3.71208 2.3511 0.024209 -1.20746 -0.421054
475 13.426 3.41812 2.06231 0.179979 -1.04063 0.746618
523 15.46 3.53554 2.31605 0.454957 -1.40902 0.278977
994 14.3937 3.9345 1.8726 1.2808 -3.51435 -0.487651
2229 16.5436 4.0558 2.06739 -0.742378 0.361711 -2.01783
339 16.1755 3.29118 1.47237 -0.172118 0.304232 -0.781084
50 16.3666 3.15754 2.69148 1.84981 -0.0024505 -1.05189
254 1.4227 4.95755 2.76595 0.377146 0.705215 -0.367477
158 0.278595 5.51218 2.70864 -0.503087 0.675995 -1.5566
1419 0.662684 4.70338 2.03794 -0.569561 -0.949468 0.856253
3823 2.5165 4.62549 1.60154 0.0180423 0.173148 0.621397
52 1.56151 4.98792 1.48771 -0.0264779 1.66793 1.11952
2323 2.32652 5.45603 2.24211 1.71344 -0.532126 0.823676
594 4.09698 5.29263 2.64142 -0.827411 -0.0428079 0.386235
865 3.54707 4.79235 1.87918 -0.260084 2.6115 1.8921
1527 4.89476 5.34919 2.02171 -0.69806 -0.0370049 0.856368
3248 5.63366 4.90896 2.62644 0.990461 -0.687034 1.0231
1365 5.87228 5.60945 1.81316 0.0213442 -2.2444 -0.832915
118 6.94467 5.69249 1.97718 -0.444173 -0.558906 0.299698
3551 6.66549 4.76418 2.53258 -0.278849 -1.14052 0.0987125
1992 7.77491 4.74613 2.02681 -0.141152 -0.062729 -0.967257
589 9.5176 5.17307 1.52842 -1.78658 -0.591885 -2.52539
2596 8.79841 5.05544 2.42279 -0.597762 -1.28739 -1.08233
106 9.77409 4.54184 2.33259 1.1249 0.443809 -0.454534
3736 10.5816 4.87602 1.57103 1.05145 -0.658978 0.626654
2351 10.5974 5.41269 2.44551 -0.00196247 0.0278968 -0.612579
3733 10.6545 4.35843 2.76909 0.783451 -1.81509 -0.54247
308 11.4334 5.6795 1.91111 0.368528 0.675444 -0.885067
1683 11.6417 4.68835 2.23433 0.010404 0.794736 -0.53526
429 12.4916 5.13062 1.75145 -2.14657 -0.825602 -0.17272
1963 13.5539 4.77612 1.49406 1.30449 0.205274 0.799862
3247 14.162 5.08531 2.31883 0.625635 -1.12996 0.551489
2660 13.2054 5.52272 2.41823 -2.08862 -0.425293 -2.19188
3529 13.5323 4.33686 2.53763 -1.08297 -0.33067 -0.0337403
967 14.5379 5.49488 1.45547 0.70449 0.324324 1.22765
1482 15.1307 5.65929 2.27588 -0.0805443 -1.80075 -0.217995
2386 16.5236 5.16358 2.12959 -0.336471 -2.14451 -1.25688
3718 15.6752 4.5338 1.66736 0.149102 -0.677164 -0.734124
1845 0.629423 5.77716 1.73461 0.874875 -1.32344 -0.326144
2009 1.05592 6.76148 1.43273 -1.16174 0.497225 -0.163715
132 2.84733 5.82637 1.42737 0.652099 -0.359581 0.56392
2442 1.45535 6.01581 2.36262 -1.28924 -0.593676 -0.588994
2537 2.34897 6.63913 2.75582 -0.0880384 -1.92099 0.188676
2208 3.96339 6.69687 2.16553 -0.607626 0.985155 -2.01095
2529 3.23888 5.78156 2.38995 0.295775 -0.402611 -0.181141
1489 3.0278 7.02947 1.94744 1.08094 -0.0734445 0.533698
495 5.04438 6.43529 2.1523 -0.922008 -0.105383 -0.656925
2417 5.99836 6.79939 2.56847 0.522424 0.372232 -0.0472493
970 6.71513 6.7672 1.65701 -0.443041 0.767467 -0.437887
1784 7.67168 6.35085 1.44367 0.504366 1.34761 -0.837304
1495 7.76976 6.55608 2.4799 0.277015 -0.688136 -0.00395737
565 8.75465 6.14574 2.0959 -1.97446 -1.99715 0.194611
3580 9.80132 6.19839 2.41299 0.693481 -0.252751 0.605766
1605 9.01914 7.01566 2.58911 0.794094 -0.731843 -0.141401
2827 10.5886 6.44173 1.90052 -0.188564 1.19581 0.0604779
705 12.3378 6.16529 2.53822 -0.37955 0.320305 -1.04583
445 11.8181 6.75842 1.61747 -0.387399 -1.3122 -1.00518
656 13.0053 6.69927 1.81519 -0.307118 -0.287912 0.600417
2289 13.9183 6.1824 2.03276 -0.109462 1.29563 0.0528064
2675 14.521 6.98143 1.42845 0.748086 -0.703232 1.11457
1597 15.4619 7.06035 1.78518 -1.16152 -1.28029 0.344505
2345 14.5119 6.6215 2.76643 0.272352 -0.670151 0.89072
3762 16.8432 6.26585 1.59446 -0.846085 -0.261298 0.246321
119 17.0405 6.64646 2.72399 0.368574 0.276611 0.602014
1331 15.9917 6.32182 2.36127 -0.661066 -0.610323 -0.175341
1671 1.10833 8.04764 1.43313 0.64468 0.583052 0.53984
2210 0.394421 7.48113 1.9698 1.66226 0.654645 -0.273771
2413 1.34683 8.16121 2.75664 -1.53619 -0.48343 -1.15535
3887 1.72686 7.39632 2.00847 -0.156564 0.697041 0.375279
2416 2.6153 7.71893 2.58569 -0.111018 2.02155 -0.795806
3805 4.25335 8.28683 2.30994 0.486851 0.883622 -0.115166
3628 4.07583 7.50855 1.49768 -0.772968 -0.734218 0.870479
1036 2.98225 8.05799 1.5709 0.61909 -0.532449 -0.386815
148 5.16403 8.13097 2.84776 0.270984 0.0963333 -1.69022
2284 5.15105 7.53271 1.92567 0.649526 0.158144 -0.603613
3452 6.97037 7.45031 2.60225 0.979635 0.56838 0.962394
1333 6.05916 8.16832 2.1833 -0.0331518 1.07952 -0.454569
1625 7.22713 8.44805 2.29056 1.43709 0.602782 0.702858
2882 7.13344 7.65974 1.49275 -0.204488 -0.149043 0.813288
2261 7.90414 7.60319 2.17561 -0.410702 -1.10089 -0.639412
1884 9.54134 8.03483 2.81408 -1.05012 -0.719626 0.680758
3788 8.8323 7.91233 1.73582 -1.00922 0.271898 0.805961
2248 11.0943 7.577 1.58762 -0.83568 -1.61113 -1.54773
291 10.7957 8.21936 2.66655 1.9705 -0.0419135 0.386575
3087 9.97899 7.49243 2.02289 2.03437 -0.993014 -0.0194443
2415 11.8735 7.61568 2.39465 1.13031 -0.394554 -0.605233
3950 13.7888 8.53704 2.69593 -1.69149 0.778358 0.661721
575 13.9662 7.44574 2.23157 -0.615688 -0.795329 -0.740928
751 12.9116 7.54851 2.50294 -1.71523 0.20524 0.709284
3427 12.8661 8.53535 1.95894 0.00183308 -0.791268 -0.1044
364 15.0299 7.93968 2.52893 1.14532 0.446782 -2.06543
1819 16.019 7.364 2.66005 -0.768605 -0.798581 0.954099
238 15.8697 8.18159 1.85723 -0.113386 0.997903 1.05373
1375 0.127008 0.715008 4.07562 -1.28297 0.666122 0.101925
688 1.05572 0.679001 3.59205 2.04829 -1.49076 0.288109
913 2.4418 1.28694 3.28575 -1.17412 0.251388 0.795059
527 2.00751 0.29207 3.89111 1.02478 -1.75251 0.351188
2126 3.99384 0.916763 3.09136 -1.14372 -0.0114045 0.0890697
2588 3.14043 0.293165 2.91497 0.0404819 -1.11108 0.931111
212 3.80849 0.469104 4.00287 -0.517644 -0.79881 0.565709
640 5.33718 0.733054 3.49304 0.865273 -0.587922 -0.0462703
2263 6.06561 0.000776866 3.70674 0.739809 0.467452 0.0691634
3790 6.63737 0.876182 3.25126 0.163407 0.502251 0.296225
1572 7.73513 0.759816 3.28851 0.976513 0.0560351 0.982919
1912 8.14551 0.236648 4.0117 2.2757 -0.927774 -0.473928
1519 9.12249 0.179802 4.09632 -1.18473 0.374941 0.746475
2377 8.66527 1.19079 4.06423 0.217057 1.46667 -1.36989
2888 9.71026 1.17023 3.58677 -1.86552 0.754401 1.16734
1119 8.70828 0.501047 3.0933 -1.32424 -0.490886 0.0730644
2092 10.463 0.892197 2.89704 0.522974 -1.08814 -1.10698
2818 10.0793 0.0385256 3.40086 -0.306648 1.73772 -0.0153056
454 12.8021 0.70158 3.85738 0.924667 1.49827 -1.64264
3159 12.3593 0.216875 2.87994 -0.386385 -0.213854 -1.04751
496 11.7574 0.868834 3.38313 -0.123426 -1.40868 0.281848
77 13.4767 1.19164 2.86266 0.842614 -0.0539537 2.15514
726 13.9461 0.567363 4.25328 1.18293 0.190193 1.22887
230 15.1693 1.16134 4.02419 0.0700272 -0.502844 -0.655062
2388 14.2862 0.636874 3.33144 -0.705657 -1.42283 0.0888143
847 15.1322 0.0913964 3.62003 0.345297 -1.9721 -0.398976
3142 16.9445 0.219565 3.25258 0.647983 0.355118 0.166281
762 16.1603 0.49813 3.94863 -1.09861 2.40732 -1.61784
2758 15.9332 1.38873 2.86887 1.15533 0.51094 -0.230474
3020 0.421191 1.51304 3.54993 1.99378 2.03202 1.09043
3317 0.792417 2.5115 3.23994 -0.294699 2.69745 -1.67193
1920 1.3992 1.5134 2.90923 -1.05056 0.450072 0.132477
2779 1.37597 1.7551 3.94965 0.0421604 -0.475476 -1.49315
2722 2.28351 2.2442 3.6902 -0.349592 0.694401 -1.17132
1278 3.46701 1.48349 3.74204 -0.653578 -0.399796 0.652761
117 3.61898 2.37624 4.17837 -0.598609 0.851411 -0.26968
2125 4.51357 2.48255 3.32888 0.247917 -0.872869 0.178185
1841 4.78006 1.59931 3.89097 1.45207 1.4997 -1.24003
603 6.15809 2.82681 3.11071 -2.29471 1.13081 -0.834644
930 6.93628 1.88948 2.96622 -0.695484 0.524053 -0.0318702
2153 6.05628 1.74376 3.67367 0.666195 -0.667222 -1.27437
682 7.24716 1.48202 3.97075 -1.68008 -0.874164 -1.00029
1264 7.52146 2.58816 3.60744 0.0182427 -0.653699 -0.153108
2784 8.27459 1.89204 3.45473 -0.182873 0.69627 0.40225
2436 8.51838 2.71919 3.98171 0.431403 -0.777971 0.244617
389 9.40708 2.20782 3.95702 0.0453529 1.23638 0.474307
478 10.2184 2.0396 3.41125 0.70204 1.3311 0.957299
3627 11.099 1.6958 4.00148 -1.81868 1.77455 -1.05342
680 11.1465 2.58344 3.38457 0.426748 -1.82718 1.18816
3786 12.1858 2.00724 3.33901 0.778863 -0.919111 1.44708
1798 13.497 1.43637 3.84835 0.0434336 2.03792 0.607101
2235 13.9654 2.6474 3.1439 1.27634 2.09823 -2.10979
2077 14.112 2.3732 4.24445 1.09753 -0.329019 -0.27459
3714 15.6031 2.40945 2.86042 -0.979079 -1.52942 2.5373
1050 14.5985 1.83346 3.36746 1.95469 -1.50867 0.333789
3436 15.474 2.28894 3.84301 -0.917283 1.47739 0.739415
457 16.8449 2.14943 3.01825 0.591081 -0.103609 1.13302
3711 16.7886 2.50831 4.03963 -2.01606 0.500654 1.02697
1825 16.038 1.55694 4.19692 1.50219 -0.653844 -0.703968
477 0.713203 3.76814 4.11002 1.77436 1.17985 -0.951607
76 0.710905 4.10133 3.03345 -0.210161 1.55942 -0.62434
3135 1.9149 4.08994 3.68081 -0.957106 0.463646 -0.314573
1332 1.52117 3.05483 4.01057 0.144776 0.503775 -0.909836
2333 4.05133 3.31914 3.03013 -0.395008 -0.189442 0.0224609
3976 3.20206 3.50715 3.59159 0.950682 1.65594 -1.94079
422 5.24111 3.86636 3.33398 -0.557307 -0.139133 -0.892335
190 4.42727 3.62479 4.15092 -0.822918 0.917493 -0.0906542
2162 5.48869 3.11229 4.08429 -1.24078 -0.0122432 -0.622701
1215 6.43756 3.63515 3.88356 -0.282505 -0.251277 1.23414
3047 6.964 3.87528 3.08545 -1.36012 1.8008 0.939798
2074 8.162 3.25651 3.125 -0.934613 -1.92515 0.0488985
1622 7.58141 3.733 4.01663 -1.50678 -0.126337 -1.57921
1130 9.21914 3.43631 3.56917 -0.684579 0.205267 0.151707
2067 10.0348 3.53547 2.88684 -0.733837 0.252688 -0.179161
3542 10.9367 3.57698 3.45215 0.391886 0.0771977 -0.701949
753 10.1853 3.02221 3.84641 -0.0397524 -1.68615 -0.299797
1548 12.0568 3.08162 3.56439 1.01519 0.480736 0.205502
3911 11.8423 4.10612 3.26439 0.992527 -0.172704 -2.62461
1344 13.271 3.99971 3.51732 0.429126 -0.727091 -0.50644
2485 14.2258 3.49729 4.00138 0.297472 1.03247 -1.91819
3859 12.9933 3.29227 4.17518 -0.000286241 -0.595541 1.3673
2646 14.5599 4.25022 3.08036 1.34919 -1.89929 1.03139
411 15.143 3.26222 3.3266 1.44233 0.940084 -0.378931
2238 15.4948 3.79445 4.18083 -1.64772 1.84646 0.700698
1081 17.0163 3.55881 3.411 0.487131 -0.773191 1.35453
2543 15.9213 4.1033 3.33981 0.607708 1.13202 1.12993
3994 16.5479 4.22048 4.15382 -1.01346 -1.70379 -0.158608
1703 0.77526 5.0512 3.64753 -1.52256 1.08005 -0.903622
270 1.80062 5.08401 3.88955 -1.56214 0.660537 -0.0233901
2187 3.34382 4.53372 2.99149 1.45321 -1.59015 0.956713
177 3.46548 5.57483 3.44522 0.5599 -0.471134 0.538136
1077 2.99293 4.42952 4.10199 -1.36926 0.589154 -0.0272735
3973 5.1048 5.53024 3.30741 0.529645 -1.38369 -0.60227
358 4.42666 4.55211 3.47723 -1.10283 0.264469 -0.837095
2056 6.271 5.6923 2.92528 -0.443919 -0.575783 2.50467
875 5.9802 4.86832 3.89501 0.107414 0.54497 0.118263
1152 8.40933 4.54415 4.09357 1.44235 0.870623 -0.138237
481 8.06298 4.34923 3.1101 1.30829 -1.24283 -0.46024
3835 7.30642 4.70114 3.76415 -0.0406243 1.51633 -0.552502
1715 7.97783 5.55662 2.85489 0.982226 -1.79853 0.963275
2640 9.22359 4.44381 3.3406 0.453173 -0.47797 1.00102
1756 9.94472 5.18244 3.32207 -0.146618 -0.343981 0.461807
3974 9.78365 4.5211 4.1706 -0.0569504 -0.926089 0.217407
3493 8.91846 5.5862 3.42677 -1.69302 -0.144508 1.89073
3796 10.7803 4.68093 3.87396 -0.124915 0.656996 1.06371
2262 10.3735 5.55107 4.2092 -0.932342 -1.44849 1.35112
2539 12.5953 4.75683 2.99893 -1.00486 1.00813 0.317784
2903 11.5896 5.59122 3.09145 0.00926764 -0.0613585 0.716276
1117 12.6087 5.66356 3.59937 2.47842 0.172627 0.825465
550 12.5108 4.32594 4.12147 1.70542 -0.892243 1.73832
166 11.7542 5.04951 4.12429 0.400017 -0.36915 0.558622
3017 13.6658 5.32204 3.94743 -0.966333 0.73825 -1.03137
3749 14.6982 4.63854 4.15748 0.678166 0.0623621 0.306098
444 14.5171 5.35533 3.24674 0.169685 -1.3476 1.12536
535 15.5476 5.13327 3.85373 -0.694969 -0.913559 0.843326
917 16.8963 4.54639 2.92252 0.080582 -0.907645 0.323509
2843 16.3726 5.61862 3.40413 0.372955 -0.198909 0.719011
1289 0.940716 6.30319 3.49768 1.07979 0.879912 0.668023
3107 2.42208 5.70634 3.45698 -1.71774 -0.281852 -1.62372
500 4.24955 6.15083 3.03801 -2.12497 0.474154 0.848798
2401 3.34492 6.55869 3.04705 -3.54583 -0.226466 -0.744388
2069 4.08666 7.11154 4.03388 -0.950649 0.776035 -0.0204708
744 3.25241 6.32734 4.12048 -0.404477 -0.116474 -1.58532
331 4.83678 7.04369 2.98501 1.32844 0.398114 1.05622
2212 5.48442 6.45295 3.64218 0.726132 1.15488 -1.60043
1763 4.50179 6.11866 4.12027 -0.520417 -1.00897 1.22871
104 6.19061 5.85995 4.17745 -0.938888 0.567892 0.867784
3826 7.2539 6.86304 3.54652 0.424553 -1.05414 -0.0738749
657 7.1873 5.83249 3.41034 0.268323 -1.95821 0.772578
587 8.1887 6.08317 3.9829 -0.0974856 -0.251816 -0.33663
1181 8.08581 7.09932 4.24711 0.731419 -0.141919 1.17313
1738 9.12096 6.6145 3.94148 -0.401476 -1.13426 -0.102529
2564 11.2825 6.01563 3.99044 -0.659855 0.541056 -0.516546
3423 10.795 6.91868 4.19179 -0.019597 0.0874327 -0.603313
1822 10.1253 6.24254 3.47205 -0.589788 -0.596922 0.805071
920 12.0408 7.01771 3.19715 0.937573 0.237194 -0.897335
2426 12.0216 6.85582 4.27253 -1.2515 -2.43973 -0.0447638
3398 14.005 6.34384 3.6126 -0.431957 1.33051 -1.36138
2682 13.0756 6.69823 3.88185 1.66696 1.08529 1.32313
386 13.3138 6.60756 2.85493 -0.44736 -0.433228 0.516695
3470 15.312 5.9788 3.30497 -1.8743 1.25658 -2.1067
3359 14.9484 6.91048 3.55726 -1.80824 -0.607872 0.5666
536 17.0737 6.19821 3.9655 -1.21604 1.46663 0.599143
1065 16.0196 6.73677 3.68579 -0.65154 0.0754354 0.729401
568 0.100242 7.7935 3.12962 -1.31378 1.05865 0.806149
2065 0.869253 7.93835 3.8572 -0.840509 -2.00882 -0.920398
3581 1.10446 7.18802 2.96194 -1.51093 -1.37063 -0.853099
2064 2.34799 8.29906 4.10724 -1.8861 -0.12049 -0.0684506
1566 1.7723 7.47236 3.81414 -1.66505 1.63024 0.149465
1780 2.80783 7.31051 3.58819 0.909417 -0.976432 0.279933
819 3.47219 8.24699 4.20792 0.272892 2.03644 0.439062
3023 3.97707 7.55286 3.03018 -2.93917 -1.34173 2.54999
3725 3.13006 8.23754 3.30107 0.0912078 1.08071 -0.260932
979 5.01382 8.35056 3.83187 -0.228645 1.66069 1.52628
74 5.29913 7.41136 3.81032 1.09636 0.449057 -0.108409
2127 6.3568 7.4656 3.65687 -0.804025 -0.533571 0.939846
3916 7.37047 7.8633 3.72555 1.74655 -0.0767025 0.633817
2858 8.29953 7.54547 3.20973 1.22596 -0.0328049 -0.0251562
2109 8.37874 8.08566 4.20051 -1.39266 -0.27223 1.77758
115 9.97175 7.63545 3.81511 -0.992011 0.771568 -0.505906
385 10.163 7.20156 2.96508 -0.647546 2.74964 0.675681
1778 11.3595 7.82505 3.53358 0.590774 -0.632004 1.23547
2958 12.4334 8.01951 3.64168 0.877488 0.634571 0.467361
3221 13.5087 7.56162 3.35079 1.54286 -1.31748 1.14892
325 14.4511 8.26855 3.58387 -0.100551 -1.15686 1.01866
980 16.2261 7.86653 3.63773 -1.29105 0.872717 -1.80867
832 16.9297 7.16994 3.95117 0.648229 0.417923 1.0284
845 0.308619 1.28604 5.39282 1.06644 -1.57552 -0.0644824
597 1.00794 0.589738 4.70582 -0.0523908 -0.0675 -0.986862
3363 2.31232 0.137733 5.08608 1.46187 -0.654816 0.862969
982 2.11228 1.08695 4.96811 -0.989581 0.31732 0.202203
3414 2.93694 0.779441 4.37234 -2.05634 -0.188999 -0.139231
1947 3.50661 0.770757 5.53428 -0.497295 1.74144 -0.453739
1760 3.9475 1.33251 4.78707 0.173545 1.17741 0.438755
71 4.83892 0.359912 4.80821 1.24258 0.207277 -1.30178
2976 4.88813 1.25459 5.43803 0.362469 1.46555 0.0251728
302 6.05231 0.297992 5.33364 2.11013 -3.09677 -0.014876
2541 6.83055 0.481743 4.33104 1.64147 -0.111831 0.281288
549 5.71737 0.865642 4.47952 -0.522082 1.1134 0.827151
412 6.90754 1.22464 5.23636 0.269663 -0.435985 0.288414
859 7.06597 0.206281 5.51834 -1.83003 -0.564502 -0.487079
1090 7.78094 1.06765 4.67708 -0.0520205 0.426532 0.413932
1127 8.16982 0.0915963 5.09703 1.23881 -0.174608 1.33368
960 9.43512 0.427985 5.05161 0.466851 -0.00996397 0.568897
662 9.64088 1.32574 4.68667 0.977035 0.428336 1.62334
2769 8.64974 1.36921 5.31475 0.570394 1.30123 0.583837
3090 10.2853 0.704469 4.32434 -0.0404713 -0.0664762 -0.669375
17 10.5251 0.96212 5.53982 1.48139 1.16994 2.50518
511 11.3894 0.996531 4.62473 1.13656 0.419455 0.55531
2781 12.0536 0.262496 4.96773 0.919303 -0.32809 0.367076
1211 11.767 1.02183 5.62858 0.229588 0.596181 2.04758
1479 13.4268 1.10595 5.06011 1.88943 0.196369 0.727237
676 13.0893 0.0771733 4.59348 -1.7922 0.700768 -0.126421
2391 14.7275 0.668578 4.93264 0.531403 0.109756 -0.0665868