ITEM: TIMESTEP
76000
ITEM: NUMBER OF ATOMS
4000
ITEM: BOX BOUNDS pp pp pp
0.0000000000000000e+00 1.7099759466766969e+01
0.0000000000000000e+00 1.7099759466766969e+01
0.0000000000000000e+00 1.7099759466766969e+01
ITEM: ATOMS id x y z vx vy vz
474 0.305549 0.776648 1.10736 -1.45609 0.553678 -1.20132
1358 1.24273 0.394043 0.816116 -1.5636 1.19118 0.124531
3615 2.79628 0.878675 0.811904 -1.33776 -0.1033 1.61478
1498 2.09628 0.246876 1.39303 1.3256 -0.077914 -0.440168
2217 3.84039 0.591433 0.36518 -1.22025 -0.348712 0.0938832
2820 4.73984 1.22753 0.25339 0.60151 0.274877 0.944381
3390 4.6742 0.586515 1.09237 -0.545622 -0.126735 -1.28998
952 5.70435 0.893086 0.578325 -0.547317 -0.179911 0.0429132
3506 6.53699 1.23815 1.04109 1.31897 0.420968 0.272836
2028 7.8382 1.3219 1.01299 1.89014 -1.07149 1.1744
3374 7.18705 0.497407 0.300762 1.70757 -0.909242 1.41063
1720 9.89415 1.32047 1.39905 1.39113 -0.977487 0.53932
3944 8.98889 1.26334 0.121688 0.395215 -0.567884 0.0553939
63 9.42617 0.120858 0.649697 0.798775 0.330242 0.323601
2771 8.74378 0.886419 1.1309 1.06469 -0.148401 -2.17947
2227 10.9943 0.15742 0.684243 1.20543 0.669347 1.07617
1947 10.3694 0.842736 0.30658 -0.429415 1.53175 -0.611994
860 11.8402 0.991235 0.607223 -0.0605999 -0.13856 1.62489
1789 12.0956 0.0327043 0.398514 -1.04734 -1.57292 1.24436
928 11.748 0.343958 1.41251 0.446809 1.91757 -1.93942
3627 12.7543 0.428724 1.14371 -0.948599 0.767347 0.460384
1972 13.1223 0.976017 0.0764586 0.219593 0.785497 -0.112343
421 13.7883 0.612473 1.04374 0.665724 -0.167791 0.468839
1428 14.0282 0.462357 0.0617038 1.23562 -0.899064 -0.767749
1608 14.7376 0.305005 0.785433 -0.548908 -1.43333 -0.635836
2800 14.829 1.25447 0.14387 -1.11101 0.574573 -0.564625
867 15.4111 1.34635 1.00377 -0.0898004 -0.0291673 0.175886
3234 16.8346 1.11592 0.34004 -0.571889 0.343778 1.37596
660 15.7079 0.395617 0.321236 -0.907133 -0.915646 0.881515
2565 16.4295 0.398163 1.30289 -0.655285 0.837244 0.654257
775 16.7866 0.0157431 0.294186 1.24744 0.0458124 -0.446968
188 0.163778 2.62566 1.04227 0.164336 -0.0714316 -0.0915536
2160 1.08675 2.57566 0.460749 -0.0497274 -0.323249 1.16607
1974 1.22385 1.54099 0.685876 -0.880456 -2.42335 1.01215
1557 0.49319 1.77953 0.0572635 -0.332407 -0.877351 -0.215931
2842 2.21075 1.61652 0.503166 -1.50281 0.0475386 0.958741
3403 1.99702 2.57859 1.01874 1.16535 1.77272 1.63307
300 3.92631 1.46582 1.20103 1.41105 -0.611142 2.11251
2427 2.99265 1.93829 1.13844 -0.681293 1.50129 -0.694164
921 3.01683 2.49759 0.188348 -0.677778 -0.69685 0.85706
2350 3.97106 1.82803 0.130653 -0.0150373 -0.747603 -0.236958
2081 4.68638 2.17806 0.95087 -0.528048 -0.200007 0.559508
3087 5.62243 2.52091 0.00560124 0.313083 1.66376 -1.50683
1958 6.8299 2.72021 0.659789 -0.710155 -1.52418 1.0691
1760 5.9895 2.01794 0.861491 0.198812 -0.210517 0.731017
3263 6.49215 1.51247 0.0289848 -0.936273 -0.26058 -0.512186
3009 7.8532 2.61523 0.926485 -0.276986 0.789171 -1.70325
3704 7.38068 2.032 0.107577 -1.47294 -0.313256 -0.61945
304 9.89505 2.09576 0.550219 -0.783633 0.99597 -0.640321
2410 11.0165 1.59564 1.09899 -0.631655 0.334043 -0.639335
2660 10.8457 2.64431 1.138 -0.589337 -0.39161 -0.288367
90 10.9101 2.08047 0.156343 -1.41915 -1.24749 -0.798873
1671 12.7312 1.94844 0.153517 0.401755 -0.868163 0.46245
2248 11.9036 2.12179 0.917852 -1.57954 -0.698438 -1.25715
3008 12.9112 1.61124 1.39837 0.205795 -1.2195 1.21489
61 13.9536 2.57412 1.24202 0.138554 1.26826 -0.616817
1845 12.8415 2.67316 0.923668 1.40274 -0.281374 -0.917663
1966 13.7752 1.90986 0.341987 1.39628 2.29317 2.33008
2664 14.4552 2.6777 0.302383 -0.182938 0.249251 -0.0741803
1043 14.9243 2.26057 1.31793 -0.0903492 -2.38917 0.662538
1437 15.6478 2.4279 0.495415 -1.14828 -1.07763 0.695584
677 16.5753 2.24741 0.312093 -0.0332807 -1.25016 0.26713
1539 16.038 2.16403 1.38565 -0.3855 0.934281 0.255561
1903 0.946025 3.33398 1.30022 -0.245066 -0.0654525 1.65252
2050 0.294514 3.28446 0.149485 -0.967137 0.0735975 -0.430885
2320 1.13924 4.11793 0.327391 0.609954 0.730722 0.56813
1400 0.113807 3.93299 1.00529 1.06896 0.378672 -1.13684
1591 2.06133 3.29124 0.118816 0.308565 0.0669821 -1.71005
3333 2.95423 3.49701 0.985474 0.30913 -0.879121 1.09228
983 3.93485 2.90893 0.598615 -0.2906 0.0337897 0.0407417
2808 5.12672 3.21173 0.73574 0.564134 0.155765 0.39464
2817 4.5314 3.77889 1.31791 -0.358172 0.845983 0.590384
2288 4.51807 3.87042 0.0849483 0.449614 -1.36174 1.36222
3452 7.07217 3.69571 0.931406 0.0554898 -0.8008 -1.02184
442 8.50205 3.47635 0.504113 -1.1455 0.240244 0.746657
473 9.72219 3.92589 0.354293 -1.35654 0.859617 -1.81133
1077 10.8438 3.81482 0.648514 0.72916 -1.28088 0.0351586
223 12.2678 3.64492 0.752856 -1.1867 -1.19467 -0.884011
3837 11.4582 3.6425 1.42497 0.582201 0.873244 1.62599
2037 11.5648 2.92722 0.248481 0.926511 -0.303091 1.34617
1769 13.5911 3.37624 0.352164 -0.567935 1.006 0.320727
571 14.2925 3.59516 1.17561 -2.32187 0.344292 1.57196
2075 15.2935 3.65537 0.784226 -2.27758 -0.356268 0.404503
3741 16.287 3.48477 1.18178 -0.621222 -0.763736 -0.845073
3724 16.4525 4.11336 0.166253 1.26136 1.67415 0.774417
2789 16.0572 3.20491 0.122078 -0.772943 0.699494 0.0954694
2687 0.839196 5.29431 0.92554 0.44081 -0.525819 -0.263411
2965 1.13858 4.37651 1.27864 0.609496 -2.43404 -0.961207
2637 1.95437 4.74202 0.770536 0.749699 0.488217 -0.00326995
1129 3.71391 4.33715 0.699617 0.895684 0.639685 -1.45791
2056 4.21368 5.18593 0.115473 -1.34462 -0.468399 0.367116
549 4.86725 5.59114 0.897287 -1.29897 -0.589981 0.507587
2035 5.09487 4.44516 0.850863 1.57229 -0.914792 -2.12966
1779 6.05667 4.86131 1.04612 -0.451463 -0.945185 0.144353
1099 6.72369 4.45646 0.131384 0.25091 -0.138802 -0.0867455
2670 8.42967 5.10802 1.25146 0.306745 0.697065 -0.0505288
5 7.54026 4.6905 0.778085 0.240899 1.09936 0.355387
3586 8.24903 5.32587 0.151491 0.0375183 0.338245 1.13603
936 9.749 4.93179 0.883744 0.0844804 0.110286 -0.675204
2691 10.9559 5.24985 0.370324 -0.142808 -0.0810379 -0.30107
938 11.7442 4.56843 1.04202 1.83948 1.30202 0.853932
1125 12.4183 4.57076 0.279397 0.901599 -0.141979 -0.776014
459 12.0328 5.61139 0.706913 0.345493 1.02159 -0.306389
3021 13.487 5.68796 0.239776 1.59463 1.22607 0.119985
1381 12.8463 5.22745 1.31599 -1.95919 -0.510624 0.0734871
3415 13.6963 4.78536 0.966747 -0.663581 -0.591728 0.659409
3145 15.2906 4.57417 0.0855668 0.778822 -0.332168 0.138299
2853 14.5024 5.28328 0.277364 -0.2263 0.592241 -0.854041
1909 14.8575 4.90863 1.2185 0.310455 -1.02368 0.270027
3132 16.1476 5.59085 1.31347 0.134802 0.852244 0.465679
1733 16.9598 4.90942 0.942781 -0.380768 0.0100427 1.12954
3253 15.8748 4.52122 1.02719 1.58837 0.868028 0.239718
3409 0.282023 7.09228 0.206599 0.311882 0.485232 -0.774647
2688 0.183566 6.26173 1.00339 -0.280816 -0.989647 -1.44371
707 1.17173 6.84679 0.880323 -1.53357 0.577303 -0.342424
361 1.03161 6.21127 0.147178 -0.406071 -1.28385 -1.09592
3001 1.71791 5.85905 0.934372 2.27268 -0.715503 -0.362353
2761 2.3443 7.01042 0.835338 1.10145 -0.648163 0.634057
1325 3.32026 5.76867 0.515921 -1.39615 0.833995 -0.599339
2374 3.48469 6.72463 0.162381 0.171219 -1.95185 -0.0694016
3675 4.44614 6.68551 0.971599 0.418899 0.162156 2.45243
1527 5.58271 6.53482 0.935025 0.963709 -0.0218102 1.34427
3696 5.31324 5.95273 0.012132 -0.44108 -1.97595 1.49799
3443 6.88435 6.18127 0.967085 0.341713 -0.28982 2.05505
992 6.26741 6.36634 0.000604962 0.0437694 0.913772 -0.554584
2838 7.94697 5.9709 0.982912 0.600886 1.15691 0.937934
3552 8.64994 6.82062 1.0045 1.48462 0.101191 -0.234451
830 9.45964 6.06908 0.330186 1.10229 2.69557 -0.82468
3706 10.3097 5.87417 1.12867 -0.856996 1.9199 -1.16857
900 10.2555 6.92483 1.07036 -0.612011 -0.198041 -3.2388
2827 12.0216 6.71235 0.609089 -0.304924 -0.516642 1.05324
1271 13.308 7.08837 0.89663 -1.07445 -1.60782 0.309763
3946 12.8586 6.17578 0.948103 1.47723 -0.376777 -0.0369451
1919 13.1743 6.63058 0.0209377 0.106865 0.459709 0.340604
1107 14.6214 6.37093 0.412925 -0.208188 -0.0301201 0.655172
151 15.4055 7.02574 0.703374 1.49785 0.700105 -0.805461
1269 16.4099 6.50416 0.340413 0.136342 -0.120012 0.328917
261 0.286479 8.03409 0.783639 0.175132 -1.76893 0.585854
2416 0.966982 7.80926 0.0260047 0.314199 -0.366952 -0.00817739
3755 1.41678 8.2183 0.857838 1.50756 -0.538053 -0.697946
493 2.1422 7.97101 0.113541 -0.123581 0.867933 -0.0718425
821 2.48563 8.03953 1.17637 0.419293 -0.239662 -2.60798
1396 4.23018 7.52382 0.1729 1.47026 0.0350441 0.275997
3388 3.62308 7.43889 1.39668 -0.713169 0.277287 0.415882
3992 3.23916 7.83734 0.447007 -0.859589 2.01072 1.7816
3636 5.05084 7.55788 0.847152 -1.19392 0.387399 1.20857
2550 5.67998 8.39643 0.667608 -0.376286 -0.116087 1.22081
2049 6.76566 7.96017 0.640873 0.860816 0.551807 -1.1482
1891 7.76338 7.36517 0.542719 0.472949 1.55723 0.086151
1879 8.39747 7.90363 1.07659 0.487287 -1.16292 0.0624452
689 9.3244 7.65321 0.419986 -0.543538 -0.318038 0.458716
2522 8.59481 8.41708 0.144776 0.949694 -1.04445 -1.99183
1251 9.4356 7.99071 1.33957 -1.00716 0.745202 -0.602782
754 11.3045 7.76252 0.579088 -1.10535 1.93708 1.16249
1641 10.2384 8.43297 0.502034 -0.333793 1.11395 0.932283
3833 12.2203 7.76758 0.0360004 0.576037 -1.0019 -0.882175
1487 12.6491 7.76907 1.13175 -1.281 -0.18127 0.932562
183 13.2412 8.16539 0.410664 0.296284 1.73331 -0.0902532
1238 14.233 7.49262 0.426209 -0.533564 -0.842679 0.148751
1722 16.7958 7.26905 1.16659 -0.266422 0.584947 -0.258124
1015 15.7908 7.74232 1.35695 -0.389944 -0.360945 -1.66459
2215 16.373 8.28084 0.691312 1.14325 -0.675718 0.242425
2857 1.28102 0.216099 2.24521 0.479163 -0.3989 0.526859
1718 0.831423 1.29178 2.17438 0.734004 -0.582383 -0.702772
242 0.374406 0.289839 2.63238 0.224215 1.30127 -0.791751
355 2.63993 0.16229 2.39383 -0.457311 0.597191 -1.12197
2055 1.90708 1.27554 1.53358 -1.06475 -1.86396 -1.4533
2425 2.80732 1.17925 2.10525 -2.49374 0.0150314 0.514526
424 3.63116 0.476086 1.45823 -0.334088 0.528403 -0.597725
60 3.95108 0.610365 2.56503 0.783824 -0.924344 -0.114703
2426 5.19545 1.38605 1.5 -1.15261 -0.355462 -1.69761
3891 4.79999 0.604097 2.12635 0.265879 1.3054 -0.14303
3190 5.774 0.167042 1.55288 0.419921 0.619826 -0.246519
3505 6.50131 1.0907 2.14607 -0.136769 0.435344 1.29742
1524 6.99535 0.341963 1.59611 0.0555722 0.078763 0.111403
1957 8.47006 0.538084 2.72709 1.00598 0.373952 -1.42514
958 7.22321 0.29348 2.80964 -0.594742 -0.969348 -0.785434
1534 7.60833 1.12882 2.09623 -0.0585354 1.78515 0.234142
1822 7.90721 0.0638306 1.93308 1.39025 0.532171 -0.818769
2228 9.28022 0.595308 2.0896 1.37685 0.365509 0.0720328
1605 11.3817 1.08168 2.24969 0.39477 -1.79067 1.09843
1349 10.3972 0.764173 2.32015 -0.0643265 0.027328 0.436828
3366 10.3377 0.31102 1.42655 -0.319975 -1.57276 -0.701206
3438 13.412 0.740568 1.94622 0.154848 0.471876 0.348724
3174 15.5293 1.1435 2.14907 -0.252298 0.177551 0.158002
3802 14.62 0.728483 1.85821 -0.0884951 0.837513 -0.453676
2272 15.2489 0.501531 2.81598 -0.697743 0.30921 -0.912477
439 15.449 0.0918516 1.73874 0.422101 0.414907 0.222996
3014 16.6805 1.30278 1.88434 -1.78023 1.03897 -0.761274
1353 16.4162 0.0503561 2.32112 0.669468 0.439333 -0.658984
3900 1.17536 2.24149 1.60694 -0.533316 -0.223944 1.12773
3457 0.449901 2.06213 2.83517 -0.207292 1.96419 -1.19742
3361 2.12596 2.04948 2.17415 -0.175844 -0.79751 1.89881
3688 3.81035 2.67862 1.72422 -1.41512 -0.915794 -1.11682
1992 3.73943 1.70753 2.272 -2.80153 0.623334 1.81079
3919 6.98021 2.16372 2.64214 0.407149 0.294825 -0.324707
2604 6.03467 2.63826 2.67789 -0.214705 -0.277178 0.0127202
356 5.83348 1.89723 2.00453 1.1727 1.24522 2.21293
209 7.19285 1.9477 1.54412 0.539519 0.102429 1.32715
3630 8.29772 1.85343 1.76688 -0.106626 -0.607599 -0.356715
1365 8.28316 1.68391 2.81006 1.47362 -0.201239 1.71326
2315 9.79918 2.36018 1.61329 -0.206937 0.925937 -1.19988
3231 9.86817 2.70111 2.53653 0.885079 0.629743 -0.0692781
2054 9.35287 1.53421 2.52877 1.66062 0.143034 1.14325
3078 8.78512 2.5961 2.32133 -0.570489 0.235304 0.610523
81 10.5691 1.67476 2.14091 1.1985 1.82761 -0.378124
2077 11.4014 2.31036 2.02747 -1.18357 0.973891 -0.026366
765 12.3288 2.56338 2.77425 -0.49027 -0.273674 0.703569
3664 12.636 1.6265 2.41732 -1.13077 -0.615933 -0.125099
2826 13.1608 2.49652 1.85398 -0.584306 0.257292 -0.805224
3200 14.0609 1.70587 1.53127 -0.922192 -1.69195 -1.45019
1922 13.922 1.94403 2.57993 -0.124323 -2.28492 1.37505
1462 15.1982 2.40809 2.43026 0.477473 -0.778176 1.81133
909 16.9531 2.28635 1.91252 0.210165 -0.301466 2.86963
1049 16.1712 1.85405 2.69993 -0.0617837 -0.991484 0.561986
1612 0.718154 2.95548 2.25486 0.594956 -0.802591 -0.0124989
1290 1.51192 3.97531 2.64504 0.912636 -0.359214 -0.759679
864 1.81224 3.01806 2.01293 0.63945 0.705109 -1.97001
120 2.57114 3.57483 2.4858 0.616273 0.369343 -0.544193
1639 4.11463 3.8738 2.33429 1.02001 -0.322048 0.0507773
325 3.32201 4.14715 1.81305 0.219752 -1.09704 -0.436998
648 5.535 4.22878 2.01491 -0.801366 0.738419 -0.21415
273 5.0801 3.21385 1.87409 0.336512 -0.978667 0.342074
3260 6.1456 3.0747 1.70642 -0.2583 -0.611195 0.66212
3551 7.03961 3.83274 2.03873 -0.900055 0.163146 -0.916092
3697 6.12703 3.64821 2.84026 -0.870361 -0.269674 -0.0649568
346 8.10132 3.70641 1.71075 0.201726 0.848235 -0.322268
1486 7.78773 2.87251 2.26963 -0.0585297 0.601603 -0.304536
1408 8.54957 3.59455 2.69029 -1.59125 -0.235079 -0.868967
3198 9.519 3.4816 1.51677 -1.40097 -1.3485 0.558333
3121 9.70719 3.78898 2.62992 0.525776 -1.01302 -0.811459
201 11.1719 3.65456 2.66286 0.238323 1.2274 0.845849
2431 10.4487 3.37044 1.96627 -0.137328 -0.659136 -1.58714
2384 12.4386 4.26491 1.69253 0.752743 -0.664316 1.6464
3622 12.2946 3.07197 1.74107 1.14593 -0.235097 -0.523972
301 12.5745 3.61171 2.67471 0.519478 -1.45609 2.04868
2480 14.1069 3.00137 2.16669 -0.547515 -0.207994 0.919988
132 13.1454 3.58474 1.57402 -1.21594 0.0797829 -0.383108
2748 13.5313 4.08479 2.76152 1.37059 -0.318275 -0.162175
1242 14.8525 3.5705 2.83931 -0.999606 -0.858796 0.140501
3923 15.2811 3.48912 1.89887 0.272778 -0.64595 -1.15678
2080 16.8869 3.87317 2.25011 0.614313 0.606842 0.862783
2764 16.1862 2.9643 2.23192 0.620131 0.948431 0.103486
14 1.30725 5.30278 1.87538 -0.27489 -0.390012 0.0740135
1864 0.296397 5.20098 1.72968 -0.980911 0.116142 -2.41511
2529 0.762977 4.59023 2.54644 -1.5915 -0.50817 0.418233
1087 0.187238 5.44449 2.80959 1.3643 0.672482 -0.132619
2442 2.17933 4.33289 1.79188 -0.309008 0.552308 -0.259786
3661 2.34548 5.37357 1.55303 0.118992 1.26521 -0.0146508
1375 2.17106 4.64913 2.75462 0.689399 1.29913 -0.150695
618 3.49839 5.1605 1.47893 1.65169 1.50296 1.61167
2940 3.08613 5.5073 2.41378 -0.11365 1.53841 0.283714
2723 4.05365 4.98191 2.67258 0.309045 -0.243032 0.0575388
680 4.86779 4.36268 2.80768 -0.339181 0.249095 0.915972
2784 4.61412 4.60716 1.834 0.698492 -0.327734 -0.60203
390 5.23515 5.35031 2.55098 -0.685761 0.628566 -0.517824
409 5.86411 5.68568 1.64634 -1.80975 0.312007 0.167894
2349 7.36167 4.94498 1.67167 -1.08965 -1.54047 -0.364886
3790 8.03303 4.66744 2.37503 0.272887 0.808885 -1.01844
2858 9.2181 4.51357 1.77189 1.04332 0.985742 -0.626504
2314 9.37039 5.12914 2.74373 -0.130172 -0.718467 1.48896
976 10.0292 5.12848 1.8718 0.860403 1.58386 -0.246503
3777 11.3489 5.49406 1.51338 -0.180687 0.824244 0.628027
1166 10.722 4.28452 1.49526 0.897463 -0.150289 0.262956
3018 10.7427 4.66518 2.67364 0.716706 -0.215689 0.340761
3101 10.6539 5.65799 2.83096 -0.579025 0.0263777 -0.345746
888 12.1545 5.20005 2.13725 -0.0111904 0.252178 -1.22173
453 12.7509 4.66724 2.83501 1.51971 2.40214 1.68542
3007 13.5587 5.01916 2.16467 1.7937 0.535128 -1.01559
2930 14.2738 4.33354 1.90675 -0.82181 -0.443419 1.14821
3468 15.6028 4.59398 2.38969 1.28589 -0.871103 -0.12722
3149 14.9529 5.42944 2.41842 0.138135 1.37636 -0.701784
2672 16.4919 4.65957 1.88495 -0.0197967 -0.905782 -0.505842
1410 0.0753559 6.51268 2.338 -0.0453685 -0.194498 0.423135
2043 0.965438 7.10643 2.84725 0.366147 -0.258066 1.8078
185 1.06635 6.29534 1.87617 -0.213228 -1.89894 -0.26094
1135 2.1381 5.92603 2.49703 -0.746891 0.192577 0.56843
2060 2.87925 6.3106 1.70249 0.343037 0.0367823 -0.135008
1035 5.28108 6.69484 2.84785 -0.612829 -1.02659 -0.350209
2165 4.34458 5.87582 2.13736 0.949432 0.283472 1.77703
2734 4.28051 7.062 2.20386 -0.174915 0.043791 -1.79201
589 5.10617 6.80106 1.86973 0.0208727 -0.215873 0.26972
2191 6.70289 6.00785 2.12252 0.96873 -0.464234 1.3755
1575 6.27678 6.89816 1.87848 -0.172357 0.304079 0.553911
2494 7.61527 6.40199 1.7724 -1.01192 0.547144 0.582548
1142 7.74718 6.70194 2.70532 -1.07574 0.185618 1.11846
2213 7.59624 5.74582 2.55893 -0.822762 -0.551249 0.411823
2183 9.29136 6.17988 1.43941 -1.06929 1.05098 0.445578
2882 8.69815 6.19675 2.38039 1.62513 -0.0416757 -2.48914
1831 9.6575 7.09697 1.97635 0.820678 -0.0742997 0.297325
1806 8.58489 7.12332 1.98488 -0.200573 0.539629 -0.337182
19 10.5449 6.96094 2.65942 0.153794 0.867611 0.217947
475 10.0962 6.2115 2.15182 -0.344351 -0.326906 -1.55599
2449 11.3521 6.38853 2.39116 -0.649332 -0.904472 0.304219
3335 12.5191 6.12164 1.89772 -0.744209 1.07274 0.00104224
3581 11.4501 6.80236 1.46718 -0.213546 -1.4141 0.113685
2950 12.6278 6.8445 2.75143 -0.502156 1.1471 -0.897442
1200 14.0395 5.7518 1.47551 0.621339 0.606911 0.143355
2033 13.3678 6.92048 1.96317 -1.63101 0.552682 -0.691202
1630 14.134 6.52662 2.44712 0.594495 0.17396 0.504107
2289 14.3592 6.93437 1.53736 -0.474524 0.02697 -0.307927
3318 15.203 6.32572 1.46526 0.320255 1.46851 -1.26086
3136 16.1659 5.94011 2.40029 -1.56661 1.10487 -0.988475
2611 16.2083 6.624 1.71715 -0.372347 0.966246 -0.300407
1151 0.785459 7.35383 1.82656 0.903159 -0.348689 -1.50577
524 2.35583 8.08311 2.4715 1.85807 -0.161645 -0.526203
2291 1.77748 7.38873 1.59227 -1.86558 -0.983947 1.62739
3620 2.86565 7.26452 2.07549 -0.0303359 -1.50102 0.144197
1419 3.57245 8.45723 1.49691 1.15993 -0.543712 0.85021
1356 3.9644 8.14775 2.49829 1.15061 0.339522 -0.7418
3344 4.98411 7.75078 2.44746 -0.182579 0.424442 -0.115383
410 6.77433 8.34138 1.64948 1.01356 1.21414 1.58495
479 6.02772 7.83919 2.12076 1.04477 0.326322 0.390151
271 6.9285 7.68995 2.61157 -0.18253 0.610455 -0.889338
1915 7.26141 7.49921 1.51639 0.799405 0.995967 0.707185
2358 8.96389 8.16799 2.31573 -2.36891 0.294606 1.42651
2540 9.98676 7.9624 2.53504 -0.182507 -0.329771 -0.879074
1081 10.5702 8.09601 1.48324 2.16644 -1.46954 1.31047
189 12.3435 7.17787 1.86457 0.0496877 0.25368 -0.443267
941 11.4958 7.68953 2.62508 -1.14837 0.00337267 -1.7132
805 11.7516 8.3863 1.83877 -0.106041 -1.88051 1.83084
3166 12.6733 7.95936 2.57084 2.05938 -0.269013 -0.149213
1387 14.2213 7.73926 2.4581 0.727256 -0.949757 1.32912
949 13.5911 7.89267 1.55627 -1.68055 -0.84763 1.05381
3484 14.7047 7.84037 1.5002 -0.149702 0.120221 0.576433
230 15.1086 7.12748 2.29113 -0.219509 1.52908 0.731234
543 16.8257 8.32665 1.74172 0.159319 -1.03548 -0.39784
3673 16.7498 7.41348 2.22312 0.389124 1.50143 1.01171
2013 16.11 8.19023 2.78366 0.380378 -1.03076 -1.52131
197 1.40342 0.844668 3.13739 -2.67017 -0.329874 -0.626613
3855 0.846864 0.461283 4.15918 0.282963 -1.93997 0.249398
2166 2.01334 0.653905 4.12471 0.302666 1.00541 0.448109
2472 2.34573 1.22918 3.23839 1.63006 0.85511 -0.701631
3418 3.02244 0.511482 3.49803 -1.97439 -1.29451 1.64501
3990 3.60042 1.34749 3.36267 0.3365 -0.639805 -0.315336
3363 4.78001 1.22318 2.91504 -0.220814 1.42171 0.330448
3818 4.74951 0.231633 3.19498 0.160504 0.848588 2.32205
281 5.56738 0.643286 3.74453 0.0348106 -0.216436 0.227278
2556 6.6425 0.885486 3.45526 -0.577285 0.356663 -0.210805
2172 7.80889 0.485297 3.67238 0.779478 -0.880792 -0.535232
634 9.50149 0.688676 3.2932 1.60561 0.241258 1.69513
1548 8.59106 1.40355 3.84958 -1.25886 -0.41787 2.08
2654 10.5457 1.31176 3.16251 -0.16982 -0.233003 -2.32167
336 10.9391 0.731494 4.00388 0.124091 -0.813924 1.28653
664 12.016 0.836585 3.47677 -1.49672 2.84542 1.88467
3603 12.9295 0.769533 2.92764 1.10839 0.830782 -0.265079
1661 14.2125 0.957694 2.92224 1.75846 -0.684765 0.882992
4 13.4953 0.955199 3.74541 1.44954 -0.769313 -0.993735
1139 14.3685 0.0215949 3.6245 0.623072 -1.08683 0.501971
951 14.415 0.985068 4.16741 0.85529 0.0870838 0.670313
2361 16.2213 0.703607 3.22063 -0.37997 0.755127 -0.130211
3467 17.0991 1.2242 3.04292 0.0685732 -1.29507 -0.363502
1829 15.9987 0.87077 4.24655 -0.428523 -1.70266 -0.848182
206 17.0313 0.963037 4.09036 -1.99233 -2.18911 -0.088163
2202 0.55487 1.98123 4.00934 -1.25791 -0.62744 1.44507
2279 1.44894 1.91307 3.07689 -1.35606 -0.0630922 -0.11324
3786 1.52551 1.45338 4.21255 2.00111 -1.03739 0.472598
779 2.35036 2.10532 3.80781 0.901856 -1.97679 0.143956
3880 3.08069 2.31861 3.03404 -1.00071 0.58519 -0.443832
3591 3.39839 2.093 4.08559 0.797388 -0.124127 -0.205904
295 4.7529 1.81599 3.84584 1.71522 1.18734 -0.0592376
3812 4.39607 2.36365 3.06758 0.133309 0.29292 0.364963
2697 7.02563 1.89002 3.74648 0.0316519 -0.0635205 -1.62498
2181 6.03458 1.80268 3.58367 1.36966 1.49029 1.78672
1716 8.52324 2.7077 3.38973 -1.02045 -3.04794 -1.2097
3017 7.85179 2.22556 4.04081 -0.307323 0.98075 0.181039
1476 9.58943 2.16085 3.5176 -0.728612 0.390733 0.876688
847 10.9256 2.62209 2.85456 -0.0506953 0.63467 1.59798
3113 12.7588 1.71271 3.53236 0.399723 1.35774 1.07064
2778 11.7567 1.84407 3.30763 -0.221894 0.590573 -1.3383
1140 12.6701 2.70213 3.86055 0.479451 -0.235887 -1.2113
313 13.7913 1.95218 3.62671 0.27785 -1.16561 1.78199
881 14.9752 1.69256 3.21149 -0.262302 -1.22107 -0.40217
956 14.5208 2.77629 3.51824 -0.339361 -0.154571 -0.91729
1170 15.7766 2.56508 3.37288 0.496571 0.303305 -0.612514
3247 16.248 1.67727 3.70029 -1.0437 0.314698 -0.612176
3420 0.402172 3.7232 3.24795 -1.89595 -0.00439265 0.746954
2782 1.29272 2.95716 3.15393 -0.549816 0.265922 0.0293865
3006 0.600882 3.00168 3.91286 0.450873 -1.07916 -0.0212125
423 2.06793 3.44348 3.83435 0.460639 3.08815 0.480156
2267 2.98721 3.62623 3.54207 0.0813155 -0.36006 -1.37669
342 4.26776 3.24922 3.36804 0.569567 -2.95725 0.928796
316 4.83673 3.97129 4.02422 -0.648344 -0.89007 0.533471
2652 5.1933 3.08837 2.89344 1.0329 -0.941064 -1.64283
463 7.06451 3.06484 3.08154 0.477823 -0.297806 -0.0647017
2324 6.2902 4.04409 4.02676 0.0370508 0.393543 -0.893067
891 7.32192 4.01362 4.10461 -0.649144 -0.888651 0.204316
793 8.5709 3.83201 4.11092 1.01857 -1.2674 -0.141296
3225 9.46453 3.10376 3.41617 -1.92585 -0.791358 0.728377
1082 11.2262 4.16433 3.46607 0.148309 0.313519 0.0306102
2854 10.2568 3.90691 3.64524 -0.0139372 -0.673787 -0.805351
2973 11.5026 3.18639 3.51785 0.0205905 -1.62905 -0.172618
1688 12.2108 4.0949 3.53178 0.514781 -0.362968 1.82264
3695 13.3551 2.95728 2.93085 0.0770095 1.53809 1.13693
773 13.871 2.89794 4.25526 -0.780054 1.75778 -0.682045
929 13.5523 4.10675 3.66925 -0.0847692 0.182754 0.117425
2551 14.5845 3.85662 3.97522 -0.716424 -0.849496 -0.799474
327 15.4814 3.36548 3.85835 1.44697 1.57193 1.22196
3295 16.932 2.8571 3.00274 3.46179 2.40948 1.75804
3222 15.9688 3.81229 2.94786 -0.242832 -0.150294 0.566898
3175 0.731556 4.461 3.99206 1.33325 0.171315 0.516471
3441 1.22378 5.31746 3.01132 1.48517 1.0237 -0.325045
47 2.24412 4.66103 4.05706 0.0288964 -1.18814 2.09339
1178 3.17284 4.4809 2.89019 -0.339804 -1.57442 -0.0136566
3081 3.57784 4.43038 4.05626 -1.2839 0.803853 0.778851
588 5.38919 4.77432 3.7785 0.0525036 1.03305 0.871436
871 4.54184 5.63876 3.27622 0.470265 -0.36975 -1.04684
239 6.96142 4.32829 3.17414 1.62907 1.02437 -0.614684
587 6.12798 4.95699 3.01903 -0.366896 -1.19328 -0.703049
191 6.87469 5.65328 3.26974 -1.71891 0.748716 0.704751
2237 7.99118 4.32135 3.38601 0.0717465 -0.241142 0.706057
809 7.51504 5.12381 3.99507 -1.53065 0.108504 -2.64484
1431 8.34069 5.32963 3.22408 0.231827 -0.00328882 1.21754
2266 9.31822 5.60624 3.8144 -0.515654 -1.14955 -0.85497
501 9.09448 4.34003 3.43516 -1.32367 -0.810766 0.588682
464 10.1632 5.01581 3.43327 -1.32401 -0.780274 1.23216
700 11.2758 5.1181 3.97848 -0.780263 1.47798 2.15557
826 11.6178 5.08171 3.05811 -0.222533 0.20361 0.331401
907 12.5431 5.43249 4.12365 0.418312 1.14116 -1.63636
631 13.575 5.20242 3.69062 0.626274 -1.10431 -2.1989
1152 14.3358 4.72968 3.03571 -1.04586 1.24936 -1.09013
701 15.4203 4.56631 3.51683 -0.239581 1.21599 -1.08666
2924 14.6902 5.19495 3.83723 -0.257944 -0.499826 0.691369
2417 16.3083 4.28338 4.07202 1.48003 -0.815951 0.485994
1056 16.9818 5.21335 3.81879 0.996711 -1.38891 0.719637
3268 15.9954 5.22687 4.27183 0.120829 0.885791 0.91289
3068 16.5059 4.55175 2.96662 0.74745 -1.42419 -0.714494
1359 15.8377 5.40399 3.17984 0.54164 -0.196273 -1.0047
1214 0.439104 6.24411 3.48422 0.564943 -1.42092 -1.31974
639 1.10585 6.87555 4.00948 -1.4709 -0.75799 0.131889
531 1.67761 6.3292 3.34012 -0.220403 -0.0581758 0.638392
1976 2.8083 5.81172 3.75322 -0.460842 -0.506127 0.540361
101 3.12862 6.4937 2.95263 -0.131451 0.78221 0.702713
3499 3.12572 6.73047 4.27209 -0.248578 0.073156 0.651224
859 3.87763 6.53949 3.61381 0.135668 0.779501 0.113422
2686 5.6019 5.8382 3.42054 0.95641 -0.896515 -0.627803
1468 4.7567 6.32887 4.0465 -0.782703 0.292004 -0.92053
1265 6.47424 5.99371 4.10915 -0.329108 1.09672 0.0877715
2735 5.75012 6.73311 3.92421 -0.312498 0.238847 0.749393
1950 6.39544 6.81613 3.13656 -2.75244 -1.65776 1.6759
1622 7.19428 6.47532 3.66604 -0.594076 -1.40907 1.02014
1828 8.50655 6.45697 3.30578 1.14932 -0.380517 1.52404
204 9.17006 7.10506 2.91117 -0.590794 -0.830648 0.0254455
1295 9.81144 6.37433 3.19549 -1.14342 0.099703 -0.297282
2926 10.3782 5.85811 4.13957 0.0733332 2.13366 -0.876959
2873 10.9696 6.97059 3.77538 -1.1426 0.221582 -1.93173
2576 11.8492 6.20356 3.51498 0.0845269 -0.727902 0.403445
947 13.0665 6.45916 3.69574 0.781825 -0.788738 1.40978
2903 13.3332 5.81926 2.94027 -1.55456 1.66273 -0.787548
3162 13.9237 6.06195 4.15198 -0.907396 0.970757 1.06388
3844 14.3474 5.83399 3.16553 -0.488798 -0.782676 0.517502
339 15.2054 6.37445 3.18405 0.93775 -0.708994 0.402285
2991 14.4819 6.89739 3.59678 0.689115 -1.02274 -1.14119
413 15.3064 6.10972 4.17994 -0.0643096 -0.416089 0.862658
1600 16.4942 6.17934 3.39739 0.374549 1.78931 -0.352416
687 16.265 6.95843 4.04503 -1.47904 -0.455772 -1.60763
749 0.325043 8.20093 4.06434 -0.297199 0.187204 0.0113568
1225 1.42484 8.00317 3.0317 -1.14931 -0.786819 0.293404
3865 2.20297 7.24448 3.02414 0.585339 0.484576 1.33093
3884 2.57959 7.69576 3.95697 -0.820973 -0.46176 1.08873
1421 3.21042 7.65545 3.1197 -2.17427 1.45843 -0.660412
2409 3.66534 7.56134 4.09568 -0.173265 0.83626 1.12163
552 5.30545 8.2433 4.05449 0.423995 0.169377 -0.887237
2079 4.51898 7.52328 3.31032 -0.678392 -1.81654 -0.413945
996 5.69492 7.51967 3.15898 -0.767402 1.09043 1.21089
651 4.75671 7.37994 4.26558 1.59669 -0.290011 -3.28216
247 6.16592 7.59473 4.14833 0.111725 0.394721 0.288594
1019 8.05833 7.20125 3.99606 -0.955881 1.19507 -0.371099
1509 8.27968 8.02577 3.12055 -0.219723 0.057764 -0.031741
1184 7.13402 7.55935 3.60701 1.63464 1.13981 -0.440035
2413 9.65621 8.20316 3.52647 0.489346 1.43292 1.39506
2193 9.00027 7.42855 4.04414 -1.09117 0.243521 -1.72574
1596 8.70872 8.45704 4.03684 -0.719537 0.942621 0.87194
434 10.6456 7.90433 3.32637 0.985258 0.0702787 1.55137
2198 12.4202 7.56363 3.66878 -1.12283 -0.912165 -2.0428
1493 11.7308 8.30367 3.39366 0.560476 -1.0783 -0.4289
2403 14.198 8.29741 3.33996 0.505937 1.42879 -0.237596
2832 14.2479 7.67404 4.26871 0.452173 -0.415572 0.222346
3230 13.3705 8.16465 3.7682 -0.1677 0.79333 0.243899
1644 13.6231 7.30265 3.12145 -0.969078 0.277615 0.961501
3791 15.1492 7.66812 3.35557 -1.36451 -0.761067 1.29884
1849 15.2997 8.41507 4.19784 0.421034 -0.380575 -0.654817
1227 16.9689 8.47225 3.15062 -2.20741 0.0179789 -0.14208
375 16.9649 7.40217 3.41303 -0.0208117 0.0969971 1.83597
3454 16.4496 8.0715 4.06669 -0.207137 0.518336 0.342067
1426 0.206171 0.243237 5.12283 1.54608 -1.28898 0.748874
504 1.00112 1.05975 4.94824 0.507652 -0.578262 0.254902
1797 2.01521 0.955857 5.16624 0.176067 0.855364 -0.0830584
596 1.66297 0.00912006 4.76856 -1.46857 -2.06999 1.66268
2900 2.8788 1.15717 4.28373 -0.778033 0.0606576 0.627586
2692 4.05525 0.536403 4.50179 0.112008 -0.362397 0.918368
1041 3.23817 0.61873 5.21144 0.38991 1.53513 -1.25498
2329 5.10778 0.758746 4.84863 -1.16531 0.912524 -0.613023
2593 4.33076 0.516999 5.55236 -1.83642 -0.232689 -1.61964
2400 6.432 0.642102 4.66129 0.687575 2.24556 -1.7118
1927 5.90325 1.28241 5.42513 2.04662 0.842732 1.01283
2722 5.89239 0.268027 5.43843 -0.522193 -1.66156 0.104055
96 8.13519 0.128513 5.0348 0.625406 1.84021 0.397424
58 7.42931 1.4127 4.76254 -0.30205 0.864787 0.462845
3387 9.84363 1.3303 4.78139 0.81841 1.45061 1.47873
971 8.90606 0.687513 4.44799 -1.35134 0.444501 0.263086
3575 9.22913 0.838716 5.6045 -0.837205 1.78556 1.17455
136 10.736 0.83246 5.17479 -1.52556 1.07148 -1.04506
3643 9.99425 0.323823 4.55474 0.661151 -0.87882 0.268654
2874 11.9188 0.774103 5.3461 -0.322999 -0.548154 -0.206212
2351 12.7033 0.750464 4.34896 -2.07569 1.32742 0.881663
3638 12.9622 0.984038 5.49516 -1.80088 0.575407 -0.52847
2002 13.8293 0.167813 4.61992 -0.841607 0.266295 -1.60256
302 14.2641 0.754656 5.44489 1.12993 0.0937321 0.569099
3890 15.1916 0.0822283 4.46104 0.889867 -0.90099 0.178731
1415 16.1257 0.336069 5.33157 1.03944 0.910637 1.18987
2867 16.9455 1.27385 5.16535 0.745876 1.20842 0.490637
995 0.528215 2.46842 4.92276 0.630305 2.40384 -0.11994
2016 1.31944 1.92375 5.53095 -1.04174 1.04781 1.58396
1003 1.46135 2.65969 4.27865 1.44737 0.122418 0.100014
1332 2.34465 2.12553 4.86113 -0.706892 0.403379 -0.310429
3888 4.13509 1.63739 4.71618 0.411552 0.307998 0.919517
1032 3.23819 1.8121 5.23367 -0.722038 0.251221 -1.20055
2834 3.96343 2.61419 5.3924 0.680531 -0.218085 -1.58057
726 5.29819 2.01724 4.80271 -0.831358 1.52489 2.17552
1124 4.32709 2.73651 4.39459 0.668485 -0.762269 -0.53843
1815 4.72925 1.53788 5.57498 -1.16652 -0.181689 1.42201
834 5.09582 2.72061 5.52337 -1.0616 -1.05736 -0.498876
3525 6.30679 2.08071 4.80601 1.3138 -2.46416 -0.74354
2588 7.79198 2.28234 5.29718 -0.123849 1.48788 0.219283
1798 9.47884 2.29657 4.77766 1.29135 -1.75213 -0.260236
2441 8.87033 1.93271 5.5089 0.270857 1.36466 1.31611
2147 11.2832 1.72005 5.3684 -0.0742999 0.164966 0.972793