ITEM: TIMESTEP
75000
ITEM: NUMBER OF ATOMS
4000
ITEM: BOX BOUNDS pp pp pp
0.0000000000000000e+00 1.7099759466766969e+01
0.0000000000000000e+00 1.7099759466766969e+01
0.0000000000000000e+00 1.7099759466766969e+01
ITEM: ATOMS id x y z vx vy vz
2857 1.04347 1.19272 0.761251 -0.721151 0.125487 1.00926
3368 0.217303 0.488607 0.0461025 -2.18814 -0.17825 0.584579
2317 1.02657 0.120371 1.23196 -0.0274011 -0.489213 1.72973
856 1.35096 0.545033 0.0931635 1.24645 -1.67061 -0.251186
3615 2.20709 1.15008 0.924322 1.27381 -1.39695 -0.438786
2217 4.14501 1.41354 0.297542 2.44507 0.933879 -0.528462
2337 4.21877 0.655413 0.989725 0.472819 -0.101757 0.194958
424 3.20785 0.944198 0.863063 -2.75409 -0.177504 0.621861
2426 4.89864 1.42162 1.1539 -0.0802304 -0.292382 -0.302488
3190 5.21243 0.609448 0.525391 1.79528 1.01755 -0.783496
3891 6.1506 0.769389 0.838567 -0.280985 -1.03907 0.142753
3374 6.88985 0.250778 0.0163411 0.0781529 1.70856 -0.243675
580 8.03704 0.483579 0.101514 -0.208039 0.125862 -0.0758797
209 7.20101 0.687202 0.805058 0.820188 0.833041 -0.705811
3366 8.29165 0.632624 1.07827 1.32513 1.70863 -1.0932
3204 9.87035 0.728466 1.07863 -0.509114 -0.00205671 1.12219
1720 8.97088 1.40233 0.902128 2.0404 -0.326013 0.7568
2227 9.02932 0.522037 0.193112 -0.841699 0.0436552 1.55658
860 11.2229 0.983273 0.543708 2.07483 0.106873 -0.948526
3627 10.9587 0.283912 1.35566 0.617583 0.681135 0.176406
81 10.2092 1.29087 0.123697 1.32213 -0.176536 -0.288331
1605 12.353 0.920712 0.815854 2.10944 -1.55091 -0.0786509
481 11.9324 0.00638077 0.833966 0.135253 0.982128 -0.322367
421 13.3315 1.35201 0.189167 -0.0482371 -1.15932 -0.639
547 13.214 0.355159 0.862026 -0.00913973 0.247808 1.36445
3438 13.5359 1.21066 1.21251 -0.990335 -2.29163 -0.471837
3672 14.1535 0.675147 0.427717 0.180838 0.509886 -1.15136
3460 14.6857 0.861549 1.37234 2.07618 -0.54118 0.913398
660 15.102 1.13005 0.166546 -0.680513 1.06425 -0.0914249
2080 16.9838 1.2015 0.982633 0.147374 0.106232 -0.796007
3174 15.898 0.776895 0.992023 -0.103586 1.06779 -0.420848
2564 0.328429 2.71532 0.0307504 -0.418142 -1.45849 -1.91734
3014 0.96202 2.77925 0.895482 1.08027 0.657305 0.800851
474 0.0787364 2.23238 0.95324 -2.29384 1.5378 -1.14433
1358 0.310054 1.64484 0.117681 -0.0236026 -1.14937 0.9426
2120 2.65858 2.08159 0.819451 0.654249 1.29896 1.79135
2842 1.54578 1.94467 1.01623 -1.40694 0.148488 -0.105204
3900 1.8801 2.80788 0.350471 -1.05788 0.35828 -0.409961
1974 1.77086 1.69934 0.0966935 0.203019 -0.555761 0.584475
2350 3.85635 1.65383 1.32408 0.0847891 -1.18085 -0.43568
2820 4.66738 2.4015 0.690458 -0.0771654 0.364314 0.201264
3377 5.846 2.58527 0.334859 -0.196386 -1.00811 -1.64156
1958 6.9637 1.89136 0.737247 -1.56127 2.61658 -0.881784
3630 8.48665 2.26655 1.03914 0.257143 0.272536 -0.452759
3573 7.95008 1.47894 0.51736 0.839746 -0.0805559 -1.95242
3944 7.77931 2.61967 0.465568 -0.105382 -0.667453 -1.98886
2315 9.81317 2.36726 0.557593 -0.328538 -0.203962 -1.3483
1947 8.83541 1.99646 0.0142975 1.8078 -2.02194 -0.425177
1671 10.8223 2.16224 0.536934 -0.456186 1.14671 0.200227
2826 12.2357 1.94589 0.910462 -0.506359 0.626951 2.00564
61 13.2802 2.2366 0.859965 -1.64408 0.27606 -0.539214
1608 15.3632 1.80323 0.939799 -0.21982 0.772708 0.456316
3802 14.3553 1.76233 0.288622 0.165664 -2.10357 -0.353699
2480 14.3456 2.65819 0.626485 -0.632113 1.02153 1.02911
1557 16.2988 1.73605 0.370535 0.692826 1.22387 0.438866
1539 16.0988 2.71084 1.28859 1.10758 -1.64899 -0.94132
1437 15.7494 2.54388 0.273184 0.0480699 0.536604 -0.0206608
3741 0.136622 3.16541 1.39691 1.85801 0.585971 1.02449
188 0.475783 3.59334 0.335525 0.254447 -0.916148 1.16233
1612 1.01139 3.92016 1.26375 -1.03985 0.902616 0.421321
1903 2.04237 3.46326 1.272 -1.79078 -1.05073 0.58525
2567 1.60077 3.96184 0.15255 0.350068 0.145018 -2.28843
1591 2.80602 3.0853 0.429656 0.14288 0.0488082 -1.16239
912 3.80078 2.88208 1.14239 -1.23955 0.353734 1.85896
1129 3.44874 3.87651 0.900677 -0.882063 0.848734 -0.881208
2808 5.43384 3.15336 1.36088 0.598461 0.96826 -0.841383
237 4.56887 4.11584 0.300482 0.286268 -0.822774 -1.6457
2331 5.56522 3.63357 0.432523 0.318601 0.4314 -0.649614
3087 6.56099 3.65685 0.463551 0.262412 -0.851531 -0.514669
1099 6.71143 3.12989 1.40486 0.538954 0.51353 0.393037
3009 7.57185 3.57197 0.62437 0.75304 -1.77731 0.320835
3198 9.06962 3.84833 1.38402 1.67035 2.17652 -1.00458
613 8.85114 3.32538 0.525981 -1.02132 -1.35842 -0.522977
3121 10.5201 2.92318 1.25249 0.319764 -0.319397 0.900959
976 10.4156 3.85484 0.763984 -0.293905 1.89498 1.54369
2037 11.3069 4.08657 0.0809816 0.194815 -0.460628 -0.443532
3837 11.3656 3.65311 1.12296 1.36555 -0.0879791 -0.529573
223 12.3353 3.68982 0.159794 0.827956 -1.77479 1.29996
132 12.5548 3.1024 1.21393 0.786152 0.639753 0.96346
1674 11.615 2.93034 0.354469 -0.520068 0.259717 0.195093
2930 13.333 3.1874 0.330432 1.40941 -0.55918 1.73125
571 14.2131 3.95905 0.501079 0.778269 0.691929 -1.81222
1242 13.6796 3.35722 1.42061 0.480564 -0.305696 -0.154066
2075 15.5417 4.2296 1.01663 0.738244 -2.00546 1.0608
1043 15.1799 3.15298 0.994652 0.363204 -1.58535 0.0363742
677 16.4541 3.36795 0.492627 0.048241 0.202098 0.291102
2050 16.8448 4.09139 1.13649 0.588542 -1.11132 1.20201
3724 0.577076 4.92543 0.836895 0.970811 1.64489 0.264252
2320 1.56795 5.05564 0.336087 0.512959 0.8873 2.09902
2817 2.66327 5.32698 1.15668 1.18512 1.4453 -0.195683
2637 1.86236 4.56815 1.29672 -1.58795 1.01425 0.0951377
2389 2.54662 4.42548 0.460037 0.7946 -0.990243 0.679985
618 3.8429 4.76383 0.451286 1.31531 -1.43964 -0.990556
2288 4.04661 5.65532 1.09534 0.170637 -0.854283 0.385972
2883 4.81578 5.08739 0.672069 0.0442889 -1.84522 -1.28294
3237 6.02063 4.43328 0.93366 -0.561408 -1.63283 1.14683
346 7.11762 4.30791 1.27618 -0.431795 0.0295156 -0.231514
409 6.55235 5.2763 1.34386 1.27579 -0.294401 0.550568
3495 5.77577 5.33945 0.126465 1.15045 0.388557 -1.3225
3452 6.88047 4.82838 0.246485 -0.674713 -1.81253 1.56653
3552 8.29909 5.28257 0.333076 0.167311 -0.251938 0.952153
2670 8.04756 4.40734 0.919335 1.81451 -0.106514 -0.361916
2838 7.45776 5.48466 1.0496 -1.3159 -0.108326 0.374132
2183 9.64364 4.94148 1.42054 -0.598906 1.4798 0.497074
689 9.35268 5.63185 0.745523 1.01641 -0.0408779 -1.24527
830 9.14553 4.57426 0.530848 -1.5626 -0.27561 -1.87427
1251 10.5624 5.58637 1.14551 0.0235924 -0.0180811 -1.17525
3777 11.0282 4.7688 0.829317 -1.82435 0.060465 2.43715
938 12.0639 4.35337 0.999209 0.182527 -1.53087 0.320166
888 12.2859 5.36913 1.41058 -0.681201 -0.893066 0.770217
1381 12.7626 5.33667 0.391417 0.317696 0.690667 3.12528
2384 13.2846 4.34474 0.368373 -1.06909 0.461659 0.458567
3415 14.0099 5.31458 0.548173 -1.27134 -0.296796 -0.391357
2756 15.1022 4.96592 0.194516 -1.05593 -0.955246 -2.40988
3145 15.4667 5.26194 1.34253 -0.602442 0.434423 0.117142
2789 16.2159 4.9541 0.612837 0.0517948 0.48362 0.648525
2160 17.0339 4.36239 0.00385705 0.551331 -2.81324 0.276422
2687 0.4793 6.012 1.03054 -0.550523 2.2513 -1.15637
1601 0.6144 6.62024 0.173423 -0.26624 0.785769 0.832156
2761 2.49405 6.64631 0.128622 1.20481 -0.667363 -0.990926
1135 2.23427 6.30801 1.03062 -0.80501 0.673332 -0.0457697
361 1.58372 6.9617 0.681171 2.3065 0.892079 -1.975
2060 3.19982 6.14963 0.574244 -0.442426 -2.55318 0.855132
114 4.30101 6.78546 0.990678 -0.943347 0.482636 1.00723
2349 5.57145 6.61115 0.793313 -0.39433 0.056441 0.019444
1562 4.99096 6.08525 0.142972 -1.54878 1.56151 0.0539847
2056 5.03141 5.95852 1.27711 0.742929 0.194627 0.599296
2111 6.80472 6.44789 0.692829 -0.493605 -0.621692 -0.292404
3443 7.80804 6.62082 0.77643 0.608413 1.96574 -0.962673
1879 9.09517 6.55924 0.705198 -1.64253 -0.380112 2.69634
321 10.0176 6.31627 0.343519 -0.684031 1.30042 -0.0793901
3833 10.7042 7.12178 0.676099 -0.391859 -0.0688213 0.279314
189 11.7865 7.02537 0.609488 0.124529 -0.107962 0.304195
900 11.8912 6.26816 1.33119 2.24663 0.957345 -0.804867
2691 11.4394 6.01932 0.439704 0.100771 -1.03193 -1.13591
459 12.3786 6.27253 0.0120279 0.0875907 -0.379075 0.841709
3503 12.9532 6.19267 0.995294 -1.86079 -0.291142 0.469838
3021 14.1883 6.61056 0.690242 -0.48981 -1.22865 0.137993
2682 13.5012 6.20427 0.143664 -2.03447 -1.39341 1.64873
3369 15.6012 6.11298 0.43594 2.01445 0.0983061 -0.590762
3132 14.947 6.06869 1.27766 -0.0749998 0.582678 -0.975819
12 16.601 6.48676 0.31521 0.0199259 -0.112498 0.840998
1733 16.3703 5.74217 1.32073 0.55924 -0.612105 -1.16172
2724 0.364314 8.259 0.790961 -0.0328036 -1.40604 -0.166372
3409 0.835065 7.45708 1.36718 -0.432698 0.0281488 -0.156412
2416 1.6285 8.27141 0.758042 0.430171 -0.140873 -0.066427
1703 2.37702 7.61554 0.430158 0.728475 0.905321 -0.575495
3675 3.64281 8.49769 0.69684 -0.280754 -0.752421 0.594876
1325 3.50377 7.47955 0.980435 -0.856143 1.7589 3.07305
2726 4.81282 7.19013 0.0334916 -0.488229 1.38837 -0.383387
3636 4.90821 7.61827 1.19496 -0.697451 0.158686 1.00632
1396 4.59964 8.23911 0.137464 0.650004 0.517855 -0.196248
3090 5.61762 7.78199 0.119252 -0.388349 -0.545465 -1.38726
2550 5.86808 8.18779 1.08794 1.11677 0.27448 -2.3918
2049 6.64488 7.58195 0.847282 0.586521 0.56966 1.29532
3957 7.25595 8.03857 0.16914 0.34863 0.0374258 -1.01287
2836 8.33418 7.69363 0.663177 0.960423 0.370874 -0.370319
2007 9.74398 7.44285 1.1097 -0.997341 -0.968377 -0.74784
2774 9.25645 7.99086 0.354446 0.58128 -1.97999 -1.05141
2984 9.03472 8.49521 1.31698 -0.829505 1.04484 0.366387
754 10.2025 8.24479 0.689421 -0.757541 -3.11753 -0.284869
1919 11.4074 7.98018 1.00984 0.640192 -0.222267 1.13809
3035 12.5973 7.88387 1.11297 0.172371 0.556476 -1.16193
2919 12.9527 7.13738 0.315378 -1.84696 -0.386834 -1.57514
1271 13.598 7.52262 0.995045 -0.118603 -0.348828 1.08104
224 15.086 7.14146 1.09571 -0.961285 1.28593 -1.96067
183 14.2972 7.78794 0.255834 2.03172 -0.59512 -0.184865
427 15.3886 8.30314 0.803848 0.476888 0.161727 -1.51658
368 17.0869 7.14099 0.87976 0.14891 -0.130191 1.12446
1238 15.9032 7.19741 0.528963 -1.46835 0.392593 -0.12066
2616 16.55 8.01431 1.19342 0.780057 1.84601 0.325556
1171 16.6728 8.02054 0.110395 0.737512 -0.401085 -0.0970987
2202 0.729326 0.503981 2.30442 0.777153 -0.920161 -0.0328117
2069 0.0991787 0.393295 1.56555 1.76728 -0.580226 0.549522
2279 1.16956 1.39716 2.79087 -0.347279 -0.804377 -0.586861
2055 1.77017 0.479132 2.08998 -0.00586156 0.724693 -0.384151
2425 2.67492 1.04331 2.7189 -0.859023 -1.26681 -0.531118
3818 4.1178 0.103778 1.98252 -1.74009 0.095608 -1.52597
3418 3.44216 0.10898 2.76867 1.9549 -0.309575 0.4388
300 5.32902 0.422484 1.54894 -1.42257 0.876704 0.37097
60 5.43705 1.28819 2.12744 -1.17963 0.419752 0.334509
3688 4.36422 1.39237 2.51549 1.34861 -0.732841 0.373622
958 6.18414 0.870683 2.80652 -0.622916 -1.1977 0.242519
3505 6.56628 1.21129 1.76555 0.0893316 0.215511 -0.478065
1534 7.06101 0.0676398 1.95246 0.682215 0.295259 -1.18492
1365 7.62235 1.14528 1.65098 1.74025 0.088551 0.315016
3271 8.37773 0.579972 2.08813 -1.0619 -0.304365 -0.884775
2410 9.31795 0.879128 2.03529 1.24075 1.07601 -2.40207
1526 10.1002 0.0191373 2.05486 -0.161341 -1.44593 0.14834
2077 10.2052 1.31981 2.25556 0.36238 -0.207052 0.822415
3785 11.6016 0.942766 1.65422 -0.411019 -0.111422 1.04376
3603 12.7864 0.739183 1.79385 0.0910067 -0.506639 1.72045
3113 12.1335 0.854522 2.53192 -1.3444 -2.44216 0.542847
1661 13.8731 0.287054 1.81387 -0.0311282 0.204099 -0.560045
313 13.4032 0.789944 2.74695 -1.20514 1.15752 -0.644291
1139 15.2569 0.234066 2.47756 0.121062 1.26217 -0.0363943
881 14.4566 1.20558 2.81187 0.737912 3.19006 0.898972
2272 16.1174 0.55177 2.01807 0.440639 0.321474 0.595995
909 16.9919 0.95102 2.82772 -0.421122 -0.956844 -1.38303
1718 1.32845 2.42854 2.04652 -2.27655 0.284134 0.362787
197 0.492537 1.43988 1.6275 -0.115976 -1.04488 0.737499
3457 0.283244 2.13121 2.44797 -0.240943 -0.702203 -0.614782
2427 1.93033 1.64023 1.98889 -0.851664 -0.474399 1.09106
3333 2.68003 2.71881 2.63872 1.09756 0.490281 -1.32331
2679 2.91731 1.55801 1.84394 0.111542 0.28016 -1.8558
921 3.76484 2.31758 2.34191 -0.114235 -1.27259 0.542121
2081 4.82618 2.26458 1.65908 -0.493796 0.368764 -0.506741
3363 5.53505 2.33129 2.48953 -0.858912 0.038362 -0.959548
1760 6.03547 2.14436 1.53605 1.12084 0.833745 1.13278
3919 6.58431 2.7001 2.44666 -1.45496 2.02126 0.272298
3231 8.43763 2.65049 2.39031 0.190611 1.34366 -0.325519
3260 7.32039 2.39991 1.8245 0.0689456 1.78319 -1.52304
2660 9.69196 1.70757 1.46173 1.02013 0.471832 0.150273
1548 8.66596 1.61171 2.2321 0.0385295 -1.35393 -2.40839
2028 9.2815 2.80463 1.49463 1.99796 -1.32268 -1.1195
90 10.7746 1.63251 1.46691 1.02469 -0.167087 0.937262
2492 11.3039 2.34933 2.70223 0.525145 -1.40734 0.712323
2054 10.3583 2.42031 2.24185 0.158513 0.17799 -0.116556
201 11.4392 2.43849 1.51259 1.03513 1.05731 0.139275
765 12.0666 1.71767 2.01093 -0.654779 0.783391 -1.6823
3695 12.4571 2.62135 2.37432 -0.586859 0.771604 -0.687284
1462 13.613 2.56466 2.05231 -0.536788 0.0797315 0.0236297
3664 13.0399 1.66102 2.41987 -2.70343 1.31557 -0.917706
3200 14.3832 2.02702 1.47607 -1.41705 0.0751326 0.80654
1049 15.1461 1.52667 2.09842 0.541974 -1.3144 -1.49499
2672 15.0866 2.61085 2.06376 0.833958 -1.15546 0.222311
242 16.1947 1.61678 1.6588 0.599205 0.963334 -0.0457183
2442 0.90865 3.20597 2.44717 -0.622351 -0.315928 0.33023
1639 2.78485 4.11019 2.05875 0.546751 0.884879 0.432086
648 3.50471 3.39676 2.33986 0.249545 -0.448413 0.307632
3403 2.89532 2.87371 1.66117 -1.186 0.425693 1.56999
733 4.42622 3.46264 1.7437 0.740687 0.77697 -0.373741
680 5.42054 4.11405 2.73108 -0.601091 -0.0164252 1.66315
983 4.63478 3.06424 2.77852 1.60882 0.450629 1.58462
2267 4.30053 4.03638 2.59572 -0.513597 -0.376876 2.29115
2604 6.10209 3.96689 2.00767 1.28848 -1.83787 1.52008
3551 8.08953 3.52889 1.44388 0.127405 0.720028 0.690681
1716 7.35106 3.45678 2.57001 0.0118986 1.49057 2.01206
2237 8.22011 4.1571 2.32733 0.392298 0.274908 0.730363
2858 9.28655 3.32837 2.43539 0.540373 0.473136 0.04258
1166 10.1578 4.09384 1.74613 -0.403295 0.96515 0.799001
2431 11.0495 3.28605 2.1555 0.534616 -0.274748 -0.917854
3622 12.0148 3.70649 1.96161 -0.457138 0.950525 -1.25573
2417 14.1004 3.69654 2.40825 -0.779454 -0.724373 1.66019
2748 12.9048 3.57501 2.46587 -1.94433 -0.713601 0.405071
3468 15.1262 4.25151 2.15067 0.559199 0.369938 -0.452318
3420 16.583 2.93213 2.77348 -0.447929 -0.881271 1.72801
1290 16.8628 3.78763 2.27189 -0.555003 -0.175055 0.380724
3923 15.8072 3.42432 1.94482 1.99488 1.51289 -0.0584658
1400 0.0227505 5.0242 1.75301 -0.0901922 0.547136 0.842233
2965 1.38268 5.57513 1.44468 -0.0704351 -0.569273 0.703205
14 0.758976 5.42654 2.27594 0.153217 -0.20943 -0.591771
1864 0.267988 4.68134 2.67883 -0.32348 -0.138552 -0.573054
2529 1.49405 4.31465 2.29598 -0.84364 1.21067 1.02884
325 3.55079 4.70326 1.67661 1.06539 -0.435459 -0.461357
549 3.86255 5.65835 2.24831 -0.168763 0.0814059 -0.135858
1178 3.46356 4.67864 2.78453 -1.10331 0.843679 1.10658
2035 4.87753 4.53872 1.50729 -1.2454 -0.57197 0.236986
2784 4.82391 5.18528 2.30859 0.618682 -1.39534 -0.227498
1035 6.06033 4.95065 2.2729 -0.969215 -1.01761 0.211858
239 6.84046 4.29423 2.67072 0.658401 1.63361 -0.495396
3790 8.53698 4.93126 1.66748 0.181549 0.957498 -0.0870059
587 7.58595 5.04262 2.20797 -0.0976703 0.141419 -0.057862
2314 9.4724 4.6417 2.40543 -1.8344 -0.509036 0.29861
1265 8.92314 5.52309 2.81038 0.12522 0.644456 -0.228292
3018 11.533 4.72726 1.83397 -1.6615 -1.39698 0.0776641
453 12.5913 4.54618 1.95749 -0.445841 -0.13431 0.818281
301 11.9862 4.36892 2.79331 0.0841349 0.72587 -0.953924
826 12.3917 5.31038 2.51516 2.96777 -0.518787 0.306347
1200 13.517 5.45025 1.85347 -0.539653 0.375175 0.67823
3007 13.6015 4.48016 1.48315 -1.17237 0.660707 0.50372
1152 13.1703 4.47801 2.77385 -0.478161 0.855121 -1.19815
1909 14.466 5.16143 1.62304 0.16913 1.87921 -1.59537
3844 14.2743 4.81923 2.53938 1.47245 -0.945488 0.168998
3253 16.0201 4.66219 1.96275 -1.0277 -0.517454 -0.133438
1410 16.6832 5.68898 2.55408 -2.91099 1.36722 -0.671161
2688 0.257028 6.66027 1.83613 -0.712128 -1.43811 -1.15625
707 1.27749 6.59116 1.7449 0.0362039 0.0935284 -0.709197
3661 1.89621 6.00798 2.43139 0.41695 -0.203098 1.44807
1421 2.15852 6.95884 2.64022 -0.854997 0.917293 0.504771
2940 3.01185 6.21853 1.86945 -0.454544 0.72467 -0.467744
2165 4.13116 6.60975 1.98026 0.739337 0.396038 -0.414205
2734 5.10935 6.48564 2.36571 1.3227 -0.622319 0.398968
2191 7.06511 6.9867 1.71221 1.58006 1.37204 0.226086
1527 6.00455 6.01532 1.82316 -0.00443505 2.06511 -0.673679
410 6.84318 6.98117 2.73184 0.522568 -0.305798 1.59694
589 7.05997 6.0317 2.23989 0.688725 0.722709 0.815394
2494 8.19185 5.96669 1.74712 -0.604346 -1.27037 0.224499
191 8.06662 6.91464 2.60895 1.22393 1.18161 2.52053
2882 9.19858 5.94841 1.79426 -0.0601201 0.818586 -1.34482
204 8.80736 6.91707 1.71836 0.407115 1.90524 -1.16241
2540 9.79328 6.91993 2.2653 -0.746254 0.675746 2.66037
19 9.96817 5.81972 2.55876 -0.139365 -0.465167 -0.333065
475 11.0335 5.74785 2.13192 1.28208 1.06748 1.00509
1831 10.8768 6.6728 2.47547 -0.00740399 -1.71062 -0.507042
3946 12.6273 7.0455 1.51468 -0.62935 0.27274 -0.552318
2449 11.9352 6.23648 2.66065 -0.0435563 0.461148 -1.85385
89 12.7962 7.10292 2.64975 -0.65361 -1.51727 -0.541514
3335 12.9245 6.2225 2.06267 0.0636321 0.550178 -0.618322
43 13.9345 6.46683 1.89819 0.854503 1.6561 -1.18621
3136 15.623 6.01463 2.20109 -0.103336 -0.968388 -0.541896
3149 14.6288 5.89911 2.34053 0.0769844 0.408969 0.303517
2611 16.2759 6.6877 2.70296 -0.15948 0.657764 0.688189
1269 16.1466 6.79223 1.47268 -0.168358 0.0417757 -0.823905
3755 0.412847 8.27887 2.51654 -0.0287255 0.561034 1.341
821 1.36806 8.5342 1.90658 -1.13631 0.144301 0.790196
2043 0.552963 7.27108 2.72074 -0.838277 -1.11805 -1.04667
185 1.42865 7.75949 2.72519 1.17099 0.894602 1.29159
3620 2.84938 7.33363 1.85322 0.48485 -0.333696 0.830672
493 1.78131 7.60689 1.66093 -0.0240763 -0.0931849 -1.24614
101 3.45191 7.12667 2.73753 0.700785 2.19075 0.218543
3388 4.03576 7.99313 1.9948 0.656362 -0.719815 1.85681
479 4.85298 7.48491 2.33655 -0.115038 -0.822304 0.94662
2824 5.43386 8.27883 2.02218 -0.984641 -0.735407 -1.30948
3344 5.93045 7.25619 1.69511 -0.169112 -1.27659 0.0445565
1575 6.72464 8.33488 1.64254 -0.365647 2.04902 -0.194873
1236 6.26235 7.82947 2.61885 -1.23767 -0.5076 1.09659
1915 8.02711 7.71504 1.75785 1.20476 1.46274 0.316975
1806 9.0665 7.97943 2.25556 0.821032 0.056814 0.431285
1081 10.6741 7.86315 1.91942 0.969056 -0.0415014 -1.17584
332 12.0326 8.45602 1.73409 -0.291668 -1.29996 0.686323
3581 11.6017 7.13377 1.86958 0.689348 -0.627806 -1.43809
1487 12.9825 8.0843 2.22638 -0.283426 0.551285 -1.29887
2289 13.8551 7.41518 2.29546 0.254822 -1.14932 -0.753638
3484 14.0958 8.23402 2.84624 -0.417506 0.54587 0.87637
3318 15.3351 7.24281 2.02548 0.539685 1.46543 -0.988549
1107 14.8256 8.08049 2.04191 -0.840214 0.787948 -1.0932
1722 16.8397 7.5439 2.06053 1.11038 1.60248 0.314088
151 15.9437 8.08482 1.96456 0.0623439 1.19597 -0.623461
75 1.41072 0.523351 3.14656 -0.407522 -1.17292 -1.40765
2361 0.488719 0.257991 3.66336 -0.927701 0.40128 0.402874
596 2.74581 0.918204 4.05164 -1.88155 0.434479 0.863277
1651 2.39354 0.00588637 3.43196 1.4262 0.304056 0.968726
3786 1.73481 1.30175 4.21709 0.485435 -1.43581 -0.104738
2900 3.61838 1.01293 3.3726 0.441957 0.480927 1.04155
2692 4.54917 0.482707 3.06559 0.270482 1.21297 -1.21394
3888 5.16779 0.921196 4.09703 -0.947353 0.289891 0.559293
295 5.67368 0.232586 3.41221 0.420675 -0.895373 -0.810828
2556 6.69894 0.264505 3.69713 2.49159 -0.359798 2.33918
726 6.22384 1.26638 3.79681 0.285676 0.132336 1.49297
3003 7.37899 1.04507 3.32999 -0.551717 1.52292 -1.26524
2697 7.42197 0.195269 2.87279 -0.409315 0.260578 1.70596
1830 7.8505 0.19903 3.784 -0.287772 1.04102 -1.18522
2771 8.56092 0.566405 3.19521 -1.07936 0.495784 0.142868
634 10.1052 0.723551 3.58647 0.50916 -0.984781 -0.820231
2778 11.3458 1.24687 3.2214 0.952432 -0.0737104 -0.238384
2034 10.8784 0.33016 2.91235 0.821581 -0.450233 -0.438439
626 11.7858 0.195809 3.3465 -0.826397 1.76148 -1.00582
2147 12.6792 1.11983 3.78157 -1.12759 0.721976 0.634633
928 12.7924 0.0238473 2.91327 1.14703 0.724896 -0.829757
2002 13.7815 0.591853 3.92184 -0.43971 -1.07841 1.33154
4 14.0713 0.0925796 2.93094 0.0220141 0.89544 -1.01569
3020 12.8333 0.12552 4.04998 0.500214 0.0441021 -1.04227
3036 14.8634 0.571098 3.63318 0.916742 1.33621 0.00370907
3467 17.0344 1.09305 4.06418 -0.797408 0.935383 -0.435337
732 15.8195 1.13941 3.93717 -0.703139 1.7571 1.65819
1829 16.2352 0.367022 3.47628 0.471733 -0.351999 -0.0108798
3295 15.8788 1.27176 2.88544 -2.40429 1.12752 -1.57897
2782 0.82615 1.65204 3.74202 -1.35455 -0.416523 0.102193
864 1.40178 2.79629 3.70746 0.0783737 -0.33512 -0.794734
3175 0.081769 2.62892 3.65964 -0.805354 0.351471 -1.25717
3361 2.01349 2.0255 3.25946 0.514556 0.621575 -1.75729
3880 3.76402 2.46338 4.02195 -1.05382 -0.143387 0.664935
1992 3.04079 1.9035 3.34314 0.272095 0.28403 -1.00144
1032 4.38154 1.53277 3.91285 0.421357 -0.994294 0.318863
3990 4.71147 2.55169 3.55727 1.24381 -0.33846 -0.616877
1124 5.49601 1.94016 4.20555 -0.0917587 1.27765 -0.60216
2181 5.48586 1.58948 3.22833 -0.105483 0.544799 -0.504638
1486 6.68086 1.7432 2.87618 2.29875 -0.100886 0.0918277
3812 6.25145 2.28211 3.55179 1.01348 1.25592 -0.923256
2354 7.12026 2.83778 3.60739 1.14216 0.41956 0.0525781
2068 8.02141 1.80463 4.01082 1.39028 0.930918 -0.604451
3078 7.64654 2.31497 2.89355 -1.78146 0.275957 -0.803556
1476 9.09673 1.49236 3.49357 -1.64762 0.00230117 0.771703
1798 10.1013 2.37402 4.23289 -0.0644963 -0.842864 1.20862
1349 10.2815 1.76167 3.25963 -1.0433 0.496476 -0.0911984
2973 11.174 2.265 3.78135 0.416327 2.23309 0.642548
1922 12.2872 1.86595 3.11851 0.429291 0.578024 -1.88604
956 13.6581 1.67842 3.43923 -0.870529 1.17107 -0.406058
773 13.7217 2.71664 3.05385 -0.387536 0.154506 1.08885
1140 12.9317 2.24137 4.01855 0.462246 -0.646507 0.361914
2764 14.8215 2.67784 3.01087 -0.837776 0.530822 1.17543
2707 15.0732 1.73909 3.66349 -1.39523 1.00624 0.29647
1170 14.3875 2.39665 3.88891 1.06006 0.96129 0.835679
3006 16.5601 1.78208 3.35411 0.0611039 0.121972 0.11016
3222 15.743 2.35375 3.02974 1.41661 0.14937 1.29895
3114 16.1684 2.27007 4.11307 -0.5026 -1.07159 -0.348043
120 0.463122 3.67288 3.25098 0.206071 0.614065 -0.260847
1375 2.12336 3.66743 3.1144 -0.583123 2.46768 0.752981
423 2.83486 2.95266 3.62396 -0.446945 -0.130247 -0.271184
273 3.76596 2.87298 3.12914 0.0788242 1.02563 -0.0363809
316 3.4917 3.76982 3.36904 0.659459 0.424117 2.40948
2652 4.87237 3.72555 3.68241 0.544843 0.156393 0.134882
356 5.60601 3.0823 3.28973 -0.0875996 0.973702 0.305416
463 6.34475 3.76578 3.38264 -1.01157 0.281675 0.769125
793 8.41605 2.96809 3.44571 0.58417 0.538205 -0.560068
891 7.80602 3.98322 3.40418 0.463749 0.571998 1.05186
1847 7.1584 3.6812 4.2395 -0.732272 -0.288869 0.990209
847 9.43281 3.1202 3.67069 0.673308 -0.644176 -1.24211
3057 8.86021 3.73812 4.14882 1.27356 -1.46597 -0.0892475
2988 10.4892 3.03764 3.41665 -0.269016 -0.41577 -1.51432
1408 10.0358 3.92501 3.09225 0.454868 -1.37466 -0.853547
445 11.1665 4.00323 3.52059 1.81341 2.36598 -0.152547
1609 11.6963 3.30289 3.0213 1.97627 -0.113309 -1.04562
1688 12.7726 3.12481 3.36434 -0.748361 0.832184 -2.26753
907 12.2899 3.97548 3.71935 0.108208 -0.954077 -1.41599
1368 12.0274 3.06648 4.10654 -0.146754 -2.77546 2.4842
2551 13.6337 3.76814 3.76164 -1.92488 2.37844 -0.695406
327 14.6321 3.77642 3.32272 0.281606 0.569465 0.147473
791 15.4003 2.96822 3.7651 0.891014 1.19639 -0.0480268
1056 15.681 3.54138 2.99723 0.173459 -0.613131 -0.324138
557 16.5671 3.47444 4.08226 -0.0114825 -0.63302 0.863716
531 1.08357 4.66643 3.28306 -0.121373 0.444324 0.185631
3499 1.29244 5.59682 3.82426 1.52877 1.36935 -0.189131
1214 0.0239615 4.40212 3.99715 -0.196391 0.355318 0.503002
3865 0.269039 5.41678 3.4593 -1.03455 -1.42945 -0.321894
1976 2.16011 5.21114 3.28546 -0.338294 -0.701165 -0.435415
47 1.70097 4.62737 4.13934 -0.0292603 -0.707612 -1.08842
342 4.26449 5.02268 3.36049 1.41753 0.244442 0.251799
2723 3.47166 5.61243 4.01128 0.0250996 0.131306 -0.376073
2032 2.9164 4.70855 4.03438 -1.23013 -1.09048 1.02421
892 5.49069 4.81321 3.4065 -2.5874 -0.0938908 -1.54847
3697 6.58493 5.53741 3.0537 -0.432416 0.918484 -0.87072
1438 6.43754 4.77631 3.75855 0.00408234 -1.4037 -0.953022
2324 7.40254 4.88238 3.28487 -1.08421 -1.65333 -0.252912
809 8.19529 5.20415 3.99801 1.34853 -1.45479 0.437022
1431 8.77759 4.58005 3.32074 0.750621 -0.252711 -0.611946
464 10.9854 4.81863 2.89023 0.536103 -0.971358 0.43848
1801 10.1853 4.81962 3.67599 -0.427842 -0.0300448 0.814582
929 12.5941 5.00425 3.46983 3.72595 -1.99656 -1.51264
1082 11.6546 5.38777 3.54157 0.388316 0.318296 -0.825792
2145 14.0212 4.68932 3.50761 -1.26121 1.47368 -0.682021
2950 13.6602 5.47893 2.9161 0.881445 -0.991969 -0.600969
947 13.3314 5.6324 4.06538 0.953723 0.82643 -0.453531
701 15.4075 4.56837 3.14979 -1.16508 -0.313805 -0.727354
3268 14.9485 5.04365 4.11581 1.08429 1.3984 0.657626
231 16.1035 4.55472 4.21295 -0.496925 -0.162695 0.207222
1087 16.3997 4.83312 3.15566 1.93272 1.21178 -0.396106
3068 15.8632 5.55312 3.84952 0.514196 -0.451083 0.467691
2933 0.487927 6.13158 4.24408 -1.56635 0.123112 0.0123335
3884 1.0539 6.27494 3.06814 0.33095 -0.74065 -1.1627
772 1.94531 6.78777 3.81129 -1.96248 -1.82483 -0.775858
3081 2.8805 6.01836 2.97634 -2.15599 -0.726563 -0.381291
859 3.01471 6.99338 3.74989 0.425521 0.780353 1.43428
588 5.09432 5.79993 3.13421 1.49674 0.581574 0.879943
871 4.50654 5.84842 4.01981 1.15963 -0.313155 -1.75191
390 4.35902 6.57406 3.27588 -0.895119 -0.510111 1.7512
552 5.30831 6.7568 3.7789 0.723132 0.312782 1.31947
752 4.32751 7.00982 4.21269 -1.60403 0.874023 -0.894254
2079 5.93237 6.52619 2.90084 -0.7457 -1.30042 -0.735058
612 5.76983 5.78434 3.91599 -0.622163 0.587072 0.44266
996 6.40335 6.94365 3.77815 -0.989951 1.63839 0.139277
2735 7.06375 6.00213 4.07575 -0.219263 0.601489 0.285799
1950 7.64394 5.99843 3.05406 -0.467049 -0.115988 1.24085
1142 7.47953 6.9551 3.67878 -1.44403 0.362193 -2.06964
969 8.38128 6.30005 3.62906 -0.645683 -1.0402 -1.38383
1019 9.06714 6.96535 4.14661 -1.16108 0.900342 -0.191862
2213 9.23485 6.51338 3.04217 0.361465 0.928627 -0.232822
1622 9.3876 5.99735 3.85511 -1.21715 0.252818 -0.32921
1828 10.3346 6.7228 3.45334 1.18394 0.075715 0.671715
3101 11.2851 6.58273 3.64584 -0.477156 0.123887 1.28843
2266 10.7206 5.74084 3.27679 -1.19621 0.373692 0.145302
2576 12.7779 6.04055 3.1856 -2.64121 -1.54383 1.02569
631 12.297 6.04859 4.10448 -1.87377 0.461243 1.0114
941 12.2415 6.95649 3.55185 -0.358093 0.455433 1.38483
2033 13.7071 6.6396 3.12016 -0.899798 1.6531 -0.341303
3389 13.1856 6.66772 4.21418 1.4098 0.739625 -0.432325
339 14.4523 6.10274 4.00935 -1.24355 -1.19907 -0.1534
1359 15.4273 6.43427 3.41921 -0.330374 -1.11268 0.190119
1600 16.5792 6.40922 3.70167 0.346682 -0.489798 0.695354
524 1.35534 7.81593 3.85004 0.907958 -0.318499 -1.49919
269 0.344667 7.2172 4.09475 0.504136 0.517893 -0.920766
1225 0.359824 8.15625 3.56956 0.530829 -0.338683 -0.0471659
3611 2.5575 7.74458 3.18343 1.43126 -1.62777 0.962223
2409 3.66667 7.88949 3.68468 -0.617037 -1.45376 0.933693
2876 4.72665 7.96279 3.39196 0.866524 0.910224 1.41959
2829 5.61401 7.72747 4.22514 -0.151582 0.421667 -1.67768
3912 6.87725 7.927 3.70356 1.31888 1.21512 -0.485592
1088 7.8712 7.83686 3.06409 0.26682 0.0878218 0.819911
1596 8.23343 7.56118 4.23112 0.304543 1.14496 0.48015
3453 8.68943 8.44709 3.52933 0.951898 -1.7936 -0.909054
1509 8.76605 7.54165 3.11525 -0.552507 -1.00911 1.47761
434 9.67016 7.60053 3.60651 -0.375103 -0.0369965 -0.828516
2108 10.4103 8.33664 2.86616 -0.990653 -0.93811 -0.926095
3065 10.0881 8.41231 4.22009 1.53805 -1.34439 -0.161253
2926 11.1429 7.57553 3.17957 -0.436852 -1.98542 1.66602
805 12.1652 8.46605 2.93367 0.78596 0.147071 -0.0355466
3230 12.4811 7.9421 3.81579 1.86147 1.55384 -2.11891
2873 11.498 7.35605 4.19756 -1.07655 -1.68658 1.05149
1387 13.1692 8.41429 3.1446 0.520824 1.22469 -0.495709
1630 13.4674 7.4516 3.6491 0.0398855 0.774494 1.92511
2903 14.5415 7.22404 3.08217 1.03067 -0.9505 0.24487
1644 14.911 8.1257 3.71494 -1.14123 0.428554 -0.273609
2991 15.2927 7.15219 4.01582 0.373178 0.92835 -1.08326
230 15.5982 7.65823 3.07626 0.0449356 0.136139 -0.86842
639 16.7012 7.3965 3.38259 0.750938 0.877209 0.993561
1015 15.9084 8.32955 3.87073 0.29036 0.465329 -0.420042
1151 16.632 8.4837 3.09897 0.49455 0.0657127 -0.81788
206 0.916291 0.61723 4.52187 1.19012 -0.0878932 0.416941
3855 0.986824 1.15374 5.46763 1.41063 0.102269 -0.73058
3119 0.136786 0.934965 5.07361 -0.343355 -0.174698 1.23154
1048 1.95329 0.435493 4.92587 -0.678034 -0.702714 -0.0356457
1797 2.47817 1.27732 5.0799 -0.132791 0.98943 -0.353625
1041 3.46427 0.17952 4.55824 -0.297381 0.184102 -0.13426
2593 4.61807 0.812768 4.90605 0.645077 0.12592 0.0316985
1927 5.98545 0.999702 4.88232 -0.233716 0.379053 1.7029
58 7.08413 0.927374 4.48352 -0.440395 0.234072 -0.53071
2400 6.83774 0.903855 5.64841 0.0598913 -0.582957 -1.86996
306 7.91121 0.819803 5.28693 -0.924635 -0.813497 -2.29207
3017 8.65911 0.79089 4.49027 -0.3336 0.674597 0.486031
2654 9.58498 1.20686 4.41283 0.96046 -0.255559 -2.46446
2588 8.7772 1.27023 5.44284 -0.99472 -0.211 -0.563782
971 9.78578 0.407512 5.25246 -2.02508 -0.406428 1.39947
336 11.041 1.31411 4.28523 -1.27783 -0.179887 0.735209
3575 10.634 0.615172 4.80045 -0.34885 0.575368 1.89153
2275 11.0506 0.420761 5.65081 -0.891545 0.284677 -0.298211
136 11.9105 0.706183 4.40914 -0.84661 -0.353279 -0.124974
2041 12.5837 0.571144 5.20178 1.26587 0.694795 0.402596
2351 13.6427 0.0637873 4.75779 -0.18553 0.235459 -0.329708
2601 13.1404 1.40747 4.72949 -0.209908 -2.19952 -0.822425
1799 14.1019 1.06089 4.92476 0.613374 1.42238 1.02359
3601 15.0548 0.402777 4.83951 -1.02946 1.24908 -0.689543
735 15.3506 1.36498 4.94402 0.773782 -0.0265463 -2.17424
2867 16.242 0.757655 4.95316 -0.45419 -1.6497 0.691565
1003 1.07518 2.66367 4.69517 0.775321 0.96321 -1.0846
3768 0.358084 1.89139 4.66207 1.52644 0.56253 0.171939
995 0.609247 2.44869 5.57903 0.56378 -0.457388 1.16075
2472 2.49817 1.98087 4.29795 0.551103 -0.123025 -1.56124