ITEM: TIMESTEP
42000
ITEM: NUMBER OF ATOMS
4000
ITEM: BOX BOUNDS pp pp pp
0.0000000000000000e+00 1.7099759466766969e+01
0.0000000000000000e+00 1.7099759466766969e+01
0.0000000000000000e+00 1.7099759466766969e+01
ITEM: ATOMS id x y z vx vy vz
1644 0.08137 0.700038 1.17606 -0.235525 -2.14198 -0.292684
1610 0.972285 0.631727 0.692614 -0.56171 -0.219669 1.40692
1635 0.193957 0.133945 0.0894197 -0.897499 -0.116068 0.18935
2411 2.01078 0.391115 0.495506 -0.49362 -0.62776 -2.32418
2576 2.28814 1.38197 0.270499 0.354676 -1.19843 0.497748
1920 1.73991 1.2886 1.08441 -0.0999802 -1.22537 0.0112776
3368 2.89121 0.533166 0.733862 -0.554225 -0.549533 -0.938828
2179 3.96713 0.13995 0.836374 -1.10772 -0.151365 -0.114026
237 3.56196 1.31865 0.947907 1.28672 -0.589086 0.307522
640 5.5756 0.921744 0.845534 1.56222 0.0516215 -0.946005
1945 6.44571 0.405725 0.914318 -0.0386775 1.62246 0.628051
1712 7.69286 1.22312 0.310492 0.84919 -2.16977 3.09155
1003 7.49656 0.485475 1.25106 1.17103 -0.523316 -1.41193
1364 8.62554 0.809396 0.623948 1.09876 -1.02483 -1.31673
3228 9.70288 0.806575 0.199051 1.12233 0.2368 0.988907
2390 9.42917 0.0672373 1.27965 -0.832836 0.882805 0.398427
1984 10.603 0.166163 0.877535 0.196932 0.517917 1.20987
1861 11.3357 0.957123 0.962148 -0.492399 -0.292474 2.25709
588 10.4936 1.38233 0.473008 -0.285615 -0.988352 -1.24146
472 11.7689 0.942501 0.0230557 1.2614 0.529092 1.29717
345 13.9102 0.722927 0.613569 0.275033 -0.526757 -1.26462
2142 12.834 1.00725 0.555029 -0.745058 0.198022 -1.978
3853 15.4185 0.698463 1.13213 0.822946 -0.264329 -1.01054
954 15.4728 1.14382 0.2556 0.419062 0.288218 -0.39967
2724 16.2961 1.40959 0.92701 1.3977 0.364514 0.24552
844 16.3734 0.422504 0.592218 0.52249 -0.293871 0.971315
3923 17.0156 1.37829 0.0368399 0.914203 -0.665559 -0.129921
2115 0.625551 1.63618 0.64809 0.466297 -0.812927 1.5574
1238 0.495605 2.58861 0.0514216 0.732578 0.367364 -0.447418
5 1.23681 2.55439 0.879167 -1.0803 -0.598743 -0.541676
2247 2.61069 2.298 0.507472 0.138501 -0.243501 -0.834044
3119 3.68405 2.18402 0.149993 -0.760259 -0.0265742 0.636265
465 3.68463 2.27573 1.28274 2.19306 0.783179 -1.62819
735 4.56212 1.5776 0.882814 -0.945984 -0.442266 -0.955443
335 5.35152 2.81097 0.888491 0.0548957 -0.224026 2.49087
1677 5.576 1.76637 0.0125534 0.0656342 -1.07456 -0.0442313
214 6.42607 1.7316 0.696735 -1.38225 0.957247 -0.849036
127 6.39401 2.55723 1.25905 0.980928 -1.28244 0.132055
613 6.13403 2.62451 0.19718 0.549022 1.86853 -1.27964
299 7.55643 1.75715 1.37205 1.37215 -0.598359 -1.24623
1404 8.41212 1.98582 0.361688 1.52859 0.65418 -0.989919
668 7.42107 2.51846 0.564886 -1.89161 0.273248 -0.654152
1959 9.62736 2.74912 1.23054 -0.235745 -1.76243 -0.773485
1442 8.55799 2.77891 1.07471 1.13498 -0.698704 0.00269367
2357 9.51765 1.72358 0.65261 1.10448 -0.410682 -0.684371
3691 8.72686 1.83366 1.37898 -1.04497 0.0727256 -0.894882
3316 10.5079 2.02934 1.28022 -0.418829 1.58594 -0.856223
271 10.2228 2.47272 0.301149 0.339462 0.837023 -0.525849
2991 12.6261 2.65728 1.38738 0.917131 -0.175284 1.00062
3275 12.3258 1.98977 0.199528 -0.498579 0.306666 0.491416
231 11.6731 2.28351 1.06543 -0.857359 1.82952 1.12248
357 12.4519 1.56059 1.39285 -0.0814422 -0.266304 0.536409
2315 13.8437 2.73193 1.35174 0.239882 -1.41881 -0.152269
2443 13.3214 2.02611 0.601467 0.649094 -1.24518 -1.11729
3447 14.3483 2.1512 0.348047 1.39414 -0.582647 0.33545
363 14.6866 1.47926 1.22713 0.0801358 0.830709 0.121054
2560 15.5085 1.98482 0.883576 -0.0754829 -1.61766 1.24598
2354 16.4783 2.26711 0.200199 0.170523 -0.516631 0.318482
319 0.980755 3.56772 0.947059 1.99819 -0.117311 0.710985
72 1.89986 3.49504 0.696458 1.0792 -0.320976 1.62733
1087 2.81355 3.56073 1.30632 0.601544 -0.959319 -1.83964
602 3.09469 4.25116 0.614425 -0.969572 1.13136 0.427363
1487 3.34143 3.15267 0.488664 1.56832 -1.21546 0.464211
358 3.89533 3.52878 1.40708 -0.0889354 -0.228108 -1.63488
1009 4.31589 3.21418 0.420764 0.868538 0.700519 -0.634913
3057 5.28302 3.62831 0.258223 0.677224 -0.466571 -0.337769
3009 6.96288 3.48253 0.334097 0.936306 -0.195447 0.647568
1656 7.03883 3.86529 1.30083 1.22255 -0.875494 1.3119
897 6.11811 3.70473 0.864358 0.730977 1.2937 0.290796
2369 8.02709 3.71169 0.474983 0.771497 1.37956 -0.652955
99 9.27148 3.08212 0.238213 -1.53172 -0.522707 0.569685
1195 9.19756 3.76689 1.10787 1.08422 1.70695 0.139542
2402 10.8404 4.23621 1.02232 1.59482 2.45993 -1.54253
3836 10.1813 3.61695 0.454578 1.53041 0.019904 -0.587693
1667 11.1 3.06424 0.427229 -1.63429 0.355692 -0.390907
683 11.7402 3.26006 1.29037 -0.0719579 1.04232 1.49
55 12.1872 3.22088 0.280799 0.918241 -0.812855 0.835127
3552 11.6456 4.00477 0.202435 0.408585 1.38447 0.219007
401 13.2742 3.83809 0.482265 -0.0396015 1.01738 -0.614563
2451 15.0524 2.91668 0.349602 1.38578 0.395129 1.05556
3878 14.4888 3.87592 0.867965 0.902462 0.338841 2.2059
2071 15.5713 3.78034 1.23989 0.689614 0.202118 0.843243
1026 16.0504 2.96597 0.95884 0.372403 -0.473612 -1.69005
3392 17.0938 3.28983 0.72464 -0.206744 -0.412137 -0.990177
3462 16.6008 4.15135 0.991762 1.29852 0.453371 -0.736583
2169 16.1882 3.4982 0.186205 0.435436 1.79408 0.693551
904 1.01126 4.78613 1.16618 -1.11623 -0.545804 1.98231
3718 0.509666 4.3689 0.296067 -0.858589 1.06487 -0.429006
1170 2.52485 5.59683 0.881015 1.718 -1.81833 -1.34577
1890 1.5463 5.5207 0.664502 -0.408644 0.614033 0.607332
2756 1.49348 4.46097 0.309585 1.41842 0.0989491 -0.903007
1692 4.11385 4.35366 0.85012 -0.149282 1.14542 1.72577
2187 3.38211 5.06477 1.14433 0.810105 0.262681 -2.43258
2561 5.25969 4.40711 0.997283 -0.080827 0.173019 -0.165862
89 5.64757 5.32666 0.359287 -0.66812 -0.382594 -0.951262
1527 4.42857 5.55332 0.46686 -0.905952 -1.87636 -0.809562
2056 5.46492 5.40846 1.35519 -0.877903 -1.17223 -0.247925
3225 4.90827 4.69486 0.0291718 0.0613705 0.855512 1.15644
3047 6.62066 4.82541 1.28101 1.009 0.542007 0.963974
620 6.84383 4.52137 0.369277 -0.16765 -1.00682 0.932239
1239 8.44204 5.59669 0.432205 -1.58744 1.47818 -0.688482
1365 7.24137 5.58755 0.972027 0.53926 -0.151055 0.222955
686 7.73807 4.52178 1.00922 0.938405 1.79642 1.09556
3706 9.79217 4.55496 1.38484 0.113233 -0.109504 0.149637
3736 9.45441 5.57227 1.17392 -0.343708 -2.29008 -1.01106
114 9.05544 4.72413 0.492533 0.127809 0.362058 0.425998
2498 10.1307 4.98668 0.621836 -1.05234 0.227092 -0.514712
1605 11.0427 5.31903 1.15275 2.1774 2.49894 -0.244346
120 11.8659 4.84512 0.886562 0.646842 -0.461328 -0.44789
2543 13.6324 4.83362 1.18808 -1.87643 -1.21919 -0.58438
994 12.9133 5.13729 0.438088 1.45252 0.850334 -0.644571
1791 14.3876 5.29647 0.672868 0.300859 0.235696 -1.07607
2843 15.1902 5.30871 1.24984 0.443795 -2.81109 1.48676
2702 16.9594 5.10609 1.28324 -1.20875 -0.314981 0.922765
1917 15.8358 4.6205 0.400644 -2.26736 0.233241 -0.110783
236 16.6104 5.35788 0.0719016 -0.032745 0.901997 0.985249
969 0.129148 6.77663 0.234097 -0.380091 -0.406957 -0.546658
2107 0.366075 6.0206 1.0113 -0.633193 0.105826 -1.11661
52 1.01167 6.90623 1.12235 0.681431 -1.4049 -1.49538
1710 1.0209 6.06758 0.0263114 0.817563 -0.55353 1.84659
2198 2.09206 6.77034 1.0517 0.321716 0.450417 -0.209758
246 1.97129 6.31894 0.0933712 -0.0937473 0.290929 0.263456
865 4.10679 7.06166 1.04989 -2.29851 -0.135302 0.492913
1489 3.4957 6.24311 1.07577 -0.232236 0.222615 -1.62713
2777 3.16536 6.48061 0.0730945 -0.247194 -0.290556 1.87139
970 4.84603 6.38166 1.19541 -2.18096 0.564056 -0.0101657
545 6.41162 5.93484 0.0477872 -1.35521 -1.81435 -0.800533
2529 5.88199 6.33931 0.853078 0.462469 0.145591 1.284
3580 7.41029 6.6132 0.182142 -0.395115 -0.939331 0.921535
677 9.19918 6.46144 0.710186 0.613755 -1.27932 0.642148
1744 10.3034 5.92991 0.535671 -0.538387 1.96012 0.191727
3924 10.6495 7.06045 1.01604 1.27953 -0.271352 0.798906
2839 12.7975 6.82069 0.533457 0.627947 1.83343 0.215153
2678 12.3122 5.94897 0.517404 -0.560821 2.04573 0.776569
3712 11.7837 6.69642 1.06291 -0.502762 -0.658626 1.96505
1749 14.0477 6.57237 0.167514 0.784922 0.592945 -0.556557
1832 13.9505 6.9647 1.09031 0.584868 0.526038 2.07457
2289 13.4953 5.97319 0.895567 -0.334692 -2.2176 -0.901653
3879 15.1049 6.87273 0.153018 -0.786716 2.18857 0.740524
2013 15.2776 5.75956 0.303434 0.60658 0.222781 -0.779634
2789 16.4095 5.92524 1.02682 2.14067 1.34285 0.636816
794 15.7595 6.97676 1.05593 0.630877 -1.21955 -2.33704
3292 0.64153 8.07357 1.11113 -0.542216 -0.225144 0.702061
2977 1.06263 7.48358 0.203708 0.386955 0.555775 -1.51919
132 1.67786 7.93831 1.14223 0.7976 1.92531 -0.116209
3881 1.96701 8.29513 0.0199662 0.397487 -0.358824 1.86627
2726 3.59315 8.52674 0.381818 0.858817 -0.0336992 -0.12756
3869 3.98303 8.09108 1.33815 0.981467 -2.08723 0.548248
2284 4.13172 7.67045 0.20617 0.847265 0.315978 0.603763
795 2.88105 7.58628 0.968164 -0.144947 0.00211829 0.727124
2245 5.16063 7.4327 0.760772 -1.00704 -0.0808944 1.01949
1198 4.87582 8.54517 0.539147 -0.151185 0.72663 -0.235962
3101 5.83572 8.54089 1.23225 -0.605428 0.472852 1.69956
2261 6.41031 7.29785 0.861645 0.165383 -0.315394 0.00387303
573 7.78415 7.88373 0.945072 -0.42705 1.39531 -1.51642
344 7.1626 8.2939 0.308775 0.296871 1.37603 0.80774
1286 8.34223 7.16258 0.526863 0.533591 0.784694 -0.85071
3837 9.65817 8.38293 1.3068 0.29799 -0.352043 1.25169
2351 9.4677 7.28037 1.35895 0.607005 -0.960337 1.533
3636 9.23814 7.81417 0.433522 1.7304 0.0494814 -1.4929
1826 10.9056 8.21251 0.667596 -0.433124 0.260694 -0.753282
1514 12.7832 7.70158 0.115857 -1.00565 0.380318 0.151948
658 11.6745 7.51559 0.509196 1.17848 1.18449 0.182953
3831 13.4175 8.08964 0.866265 0.173704 -0.638317 -0.268529
2204 15.5392 7.84105 0.0338805 -1.2618 1.08564 -1.2157
238 15.6266 8.11979 1.14077 0.125065 0.0846861 0.30143
1392 14.5131 7.78642 0.721956 1.3614 1.08354 1.86947
2049 16.4998 7.52022 0.494564 -0.0730567 0.996233 1.1851
2129 16.8074 8.41813 0.908934 1.62185 -0.041492 -0.18118
1436 0.909143 1.08103 1.61647 -1.29596 -0.555665 0.420223
3020 0.350944 0.446003 2.3592 -1.1673 -0.400927 1.92404
835 2.10559 0.504354 1.50795 -1.29786 0.866176 -1.87251
3145 1.93057 1.04014 2.3743 -0.659293 -1.07149 -2.28812
2293 2.93687 0.602184 2.73507 -0.0981112 -1.03758 -1.66924
2126 3.48525 0.510204 1.72664 -0.201949 0.141206 -0.812539
3100 5.64289 0.194854 1.60853 0.953541 -0.764554 -0.404853
3739 5.23339 0.629513 2.74611 1.52904 -1.50174 -2.94885
1731 4.75477 0.670236 1.76172 0.70745 -0.634443 -1.01214
3179 6.03528 1.17568 2.58209 0.700256 0.331524 -0.0683395
316 6.57201 0.427896 2.21293 -0.577077 -0.862135 0.365273
3790 7.2692 1.29794 2.46342 0.570288 0.199842 1.13306
210 8.13154 0.841221 2.07035 -0.337912 -1.25809 -0.397151
2774 9.22912 0.627689 2.24186 1.40496 1.42299 -1.13978
234 11.1634 0.701186 2.06696 0.137575 1.85804 0.506891
136 9.97572 0.998815 1.5364 0.172864 -0.239965 1.00803
2092 10.2058 0.0402487 2.13504 0.874074 -1.45069 0.0889393
630 12.3133 0.404599 1.45347 0.614877 -0.430602 0.483682
1595 12.2856 0.690975 2.46141 1.83177 0.982055 0.509424
83 13.4806 0.586486 1.66742 0.706109 0.260506 -2.09338
2911 13.5229 0.918615 2.74327 -0.0611146 -0.0470816 -1.1097
1437 14.4047 0.999098 2.13016 0.604714 0.0658752 0.24401
1050 15.2598 0.913417 2.80707 0.643991 1.40433 -1.06719
778 14.2778 0.222297 2.77634 0.187063 -2.80822 1.90193
2758 16.246 0.751017 1.82277 -0.972966 -0.275635 -1.10664
762 16.6763 1.19196 2.6931 -2.47689 0.511377 -0.847674
1039 0.442647 2.49589 1.67457 1.89975 1.01362 0.293173
1813 0.550148 1.59406 2.5911 0.0383546 -2.19375 -0.303678
717 2.47558 1.84437 1.51473 -0.352211 0.233289 -0.8835
1611 1.50449 1.94505 1.89339 -0.176095 -0.840076 1.11552
913 3.46152 1.50696 2.13021 -0.0857877 -1.21182 -0.607227
3841 3.10739 2.52557 2.19016 -0.413118 -2.14928 1.17306
562 5.36439 1.90133 1.43444 0.519659 0.13477 -0.397491
2125 4.53116 1.93414 2.09047 -1.12671 1.50102 -1.82872
2162 5.58708 2.48478 2.3481 1.42413 -1.48763 0.570491
1496 6.59005 1.44344 1.67355 -0.790212 -0.245203 -0.151771
1265 6.75431 2.22238 2.57429 -0.128144 1.47545 0.86363
2614 7.49223 2.65945 1.95587 -1.89 1.13635 -1.015
930 8.21247 1.84192 2.3177 -0.224018 -1.21826 -0.829235
2603 9.38623 1.64762 2.33512 -0.291808 1.64346 -0.627774
265 8.98772 2.70486 2.03464 0.898974 0.919451 0.676886
1870 10.5079 1.65008 2.25741 0.819636 -0.915599 -1.8519
424 11.2866 2.63765 2.10713 -1.84079 0.907588 -0.115114
1480 11.6047 1.62748 1.91388 -0.875518 0.124293 0.124407
2044 12.2995 2.28644 2.36834 0.692724 -0.960627 0.787124
3159 13.3622 1.68712 1.76936 -1.08828 -0.612985 0.53302
41 13.265 2.78331 2.28759 1.45768 1.15503 -0.266051
262 14.3341 2.28767 2.09798 0.320603 0.818159 1.27593
442 15.6395 1.49294 1.92444 -0.31201 0.745302 1.55471
3714 15.1373 2.58228 1.63563 -0.29088 1.11655 -0.0837877
1075 15.3309 2.09431 2.64828 -0.134916 0.793575 1.40435
2567 17.0268 1.63186 1.62947 0.53356 -0.390664 -0.718541
3113 16.1982 2.29227 1.84384 1.14626 0.964731 0.821296
3711 16.9149 2.47262 2.59754 0.927049 1.47862 1.17144
2132 0.389138 4.04136 1.61822 1.5059 -1.21748 1.95016
531 0.887576 3.09479 2.45875 0.343881 -0.916759 -0.227599
917 0.835037 4.11768 2.73446 0.970514 0.663957 0.353547
2165 2.05177 2.94125 1.895 -0.0216515 0.729526 -0.208189
2229 1.91844 3.87052 2.62933 -0.0666068 0.836208 0.459267
1685 1.68275 4.23831 1.69453 0.428919 0.550754 -1.45758
779 3.35003 3.85797 2.21432 -0.667453 -0.671769 -0.239419
2333 4.03243 3.0166 2.6572 -2.22267 0.592292 0.392788
3533 5.39298 3.45599 2.55517 -0.465467 -0.379685 0.500898
2532 4.77705 2.98691 1.76796 0.787886 1.18234 0.12902
342 4.54663 4.02097 1.98089 1.07185 2.13769 1.22637
2525 6.20504 3.32042 1.78532 -0.835978 0.100408 -0.0754928
1264 6.95069 4.0416 2.2834 -0.191099 1.57396 -0.536175
2074 8.0798 3.58911 1.99816 1.59517 -1.50309 -2.80308
3570 9.82084 3.01782 2.52758 0.7895 0.0943506 0.385906
482 9.23503 3.81066 2.1768 -2.13612 0.173704 1.52383
1201 10.5477 3.28387 1.65052 0.0559541 0.2674 -0.411274
1321 10.2012 4.18657 2.53767 0.114476 -1.23365 -0.76818
2994 10.9919 3.29869 2.80102 0.815048 -0.90139 0.535239
2656 12.0287 3.48432 2.12117 -0.865987 0.987839 1.09901
1120 12.9259 3.7233 2.61753 -1.38975 0.339541 -0.341777
1363 13.3355 3.71801 1.6546 0.232762 -1.41909 -1.09106
3825 14.3572 3.54363 1.96697 1.3172 0.065476 1.63915
3891 15.5435 3.49685 2.30237 0.133153 -0.942793 -0.100259
2485 15.1649 4.25063 2.84704 -0.10187 -0.911124 1.07797
339 16.534 3.67617 1.93324 0.694371 -0.185943 0.106076
2386 1.05662 5.22318 2.8142 -1.80807 0.346528 2.21118
3495 2.73215 4.63861 1.9061 1.28233 0.355925 0.642528
270 2.08428 5.36514 2.24067 -1.44703 -0.182093 -2.1314
254 3.32252 5.68982 1.94707 0.189679 -0.384752 -0.760948
347 3.87436 4.72647 2.46818 0.841204 0.658004 1.68483
594 4.44706 5.27663 1.55652 0.955926 -0.588434 -0.435459
177 4.86363 5.20977 2.69933 1.50359 1.39442 1.57283
422 5.89903 4.374 1.89412 2.48049 1.84765 -1.1084
118 6.51358 4.94689 2.55487 0.719203 1.35066 0.545021
2570 7.69396 4.71543 1.97308 -1.11958 0.975684 -0.103526
1756 8.44002 5.68599 1.47298 -0.404755 0.993644 -0.740769
3493 8.54238 5.38254 2.57529 -0.92542 1.07903 -2.48572
2596 9.4028 4.76425 2.34276 -0.558568 -0.307973 0.105999
565 8.58587 4.39361 1.52538 -0.180622 0.518224 -0.573273
589 10.5353 5.24427 2.20225 0.705342 0.455581 1.08888
1209 12.5322 4.34522 1.63246 0.26811 -0.399787 -0.700452
1683 12.2489 5.03087 2.39903 -0.960624 3.31189 1.37499
1963 12.6356 5.44183 1.47101 -2.32044 -0.504073 -0.71552
656 11.4414 4.61565 1.84867 1.65847 -0.442278 0.138628
2564 11.4594 4.36962 2.84239 0.280549 0.384053 0.0564754
535 13.2856 4.74671 2.48285 0.086905 -0.560379 -1.15146
355 13.9401 5.61868 1.79389 -0.346591 0.565844 -0.733386
1981 14.8462 4.50579 1.91372 -0.10024 -0.434157 -1.52214
2646 14.4063 5.00302 2.7228 -0.177082 -1.51065 -1.08361
1482 15.4285 5.25447 2.4459 -0.262623 -2.1701 0.900551
2727 15.9438 4.82838 1.74265 1.33107 -1.44955 0.612691
477 16.1503 4.40695 2.81544 0.473887 -0.00220664 0.342571
3470 16.9978 4.70095 2.25369 -0.734718 -1.00193 -0.388278
536 16.428 5.69152 2.49055 0.462949 -0.286105 -0.437926
1400 0.417967 5.8258 2.09544 -0.00658435 -0.909607 -0.700889
3823 0.602522 6.84591 2.01406 -0.410624 -0.829016 -0.697138
2009 1.43416 5.96533 1.74507 1.81041 0.540752 1.11116
3760 1.8359 7.11608 2.1214 0.757128 0.021942 -0.947141
158 2.46216 6.40009 1.99974 -0.337228 0.726678 -0.991615
1807 1.72033 6.17373 2.73706 -0.67686 -0.627316 1.55416
3107 3.23224 6.98176 1.80794 0.224156 0.24135 -1.60981
500 4.15008 6.30297 2.1282 -1.33486 0.14122 -0.832074
2127 5.53889 6.07076 2.36927 -0.393184 -0.0513592 0.46288
1818 6.97078 6.93952 1.76373 0.623943 -1.54004 -0.0368337
495 6.37746 6.12175 1.66812 0.196867 -1.16079 -0.0290365
1864 5.85381 6.97934 1.70618 2.64522 -0.150162 0.0753752
3984 8.34091 6.8334 1.54422 0.805312 -0.00304731 0.536374
3452 7.28036 6.64374 2.82489 0.664121 1.04272 1.07669
1495 7.15306 5.70292 2.29206 -1.50286 0.346521 0.413736
1732 8.2702 6.34556 2.57652 0.446635 0.328001 0.851227
894 9.39574 5.87097 2.24987 0.561075 -0.503782 -0.484409
2903 10.3567 6.05659 1.684 -0.487471 0.921611 1.40363
751 11.2906 7.0414 2.28312 0.120292 -0.767958 -0.405196
385 9.97818 6.99066 2.37067 -0.145939 0.072444 1.79504
2958 10.5324 6.11723 2.80035 0.277397 -0.0776537 0.152665
3950 12.7228 6.61294 1.62353 -0.976175 -0.908313 -0.806268
575 11.5897 5.95276 2.02824 0.673917 -2.1629 -1.96518
429 12.4881 5.99645 2.47561 1.43268 -1.32168 -0.500235
2660 12.4636 7.05343 2.52598 -1.98059 -0.168588 -0.163475
3529 13.5748 5.77253 2.73925 0.366428 -0.22899 0.188021
967 13.7966 6.75131 2.12844 -0.0496333 0.0791829 -1.11545
3922 14.8139 6.17615 1.49146 -1.07571 -0.130013 1.57847
1081 14.6276 5.96566 2.53163 -1.80815 0.0179532 -0.427904
1331 15.7355 6.12944 1.76319 -1.87172 0.258382 1.15964
1597 16.8398 6.81362 2.60484 -0.104642 -1.20506 -0.933272
2766 16.7497 6.77634 1.53987 -1.0458 1.31219 2.09266
1671 0.0703692 7.88943 2.55077 -0.493223 0.154876 -0.856032
3616 1.57683 8.31692 2.33497 -0.317535 -1.17575 0.544147
2323 2.59818 8.02912 1.90629 0.0214294 0.437823 0.408257
1289 2.52391 7.37894 2.83094 2.05921 0.823185 0.238678
2173 4.04527 7.46212 2.58809 -1.0471 0.777415 0.985157
2208 3.26339 8.18192 2.72117 0.44779 -0.65191 0.153654
3885 4.86315 7.63621 1.78339 0.0393689 -0.946643 1.99949
1186 5.72853 8.24142 2.24811 2.23501 -1.97223 -0.140108
1625 6.73613 8.00709 1.45093 0.694924 -0.388665 -0.714218
1591 6.68182 7.90068 2.69251 -0.713481 0.267234 -1.31477
1822 7.68735 7.56865 2.28663 0.929538 0.993262 1.09884
2855 8.92 7.66704 2.49793 0.386286 1.42079 0.70962
3322 8.57373 8.43429 1.63928 0.207359 1.15158 0.0747555
392 11.2982 7.98982 1.585 1.32602 0.88542 2.64995
2248 10.3374 7.771 1.80951 1.08739 0.890513 -0.425817
2449 10.3818 8.4333 2.56991 -0.10356 -1.08872 -0.765409
1172 12.7252 7.73532 1.55141 -0.755135 -2.37842 0.74775
179 13.8883 7.57967 2.62325 -0.916459 -0.512941 0.281575
325 14.15 8.03568 1.70628 -0.202508 0.706096 2.49895
2675 14.9561 7.23087 1.88365 -1.19133 -0.967007 0.757844
2345 15.071 8.36995 2.03607 1.53106 0.143638 0.72247
3226 16.227 7.68764 1.84562 -1.15058 0.0857354 0.163344
597 1.18221 1.19292 3.91011 0.483313 1.45308 0.0933231
480 0.138446 1.04694 3.59559 -0.691252 -0.870113 -0.383797
823 0.763283 0.211593 3.84824 0.203903 0.123816 0.327211
1435 2.20245 0.742683 3.58788 0.0497815 0.0219634 1.75148
2665 3.99449 0.147054 2.9197 0.40779 1.1722 0.391958
2697 3.87205 1.29702 3.17609 -1.22336 -0.367663 0.435007
212 3.947 0.613384 4.02332 1.03726 -0.0915542 -1.82688
1879 3.17147 1.27386 4.07275 1.14368 1.77841 -0.682348
2541 5.05114 0.783186 4.01462 -1.79875 -0.136925 -0.790999
1841 6.32672 0.610171 3.65851 1.81611 -1.99456 -0.668072
1805 7.33599 0.449534 3.00901 -0.236027 -0.847404 1.48291
2348 8.13724 0.890934 3.8115 0.496166 1.16764 1.97605
498 8.68462 1.17451 2.9147 -0.416222 -0.281555 -0.220563
2888 9.95445 0.104279 3.898 0.132307 -0.0982829 -1.03663
2278 9.59632 0.642662 3.1759 0.986041 -1.85206 0.439843
3090 10.6411 0.645757 2.92398 0.836124 -1.89966 0.971564
454 10.8588 0.714758 4.1126 -0.790901 -1.04617 -0.0896718
3194 12.6264 1.00992 3.45382 -1.91907 -0.105705 -1.51462
496 11.5939 0.622921 3.35705 -0.817413 -1.16934 2.36892
2632 12.4418 0.315305 4.17931 1.18585 0.108039 1.0591
847 13.4207 0.719497 4.16629 2.37212 1.93148 0.185683
280 14.3387 0.769601 3.69758 -0.769612 1.37316 -0.66134
2898 15.1527 0.0672752 3.53305 -1.38585 -0.435052 -1.34843
578 17.053 0.16087 3.2077 1.93855 -1.38252 0.629488
2335 16.0339 0.963669 3.96588 1.26969 0.25715 -0.826507
688 1.33292 2.51944 4.13495 0.264681 -1.82645 -0.66549
2945 0.579981 2.29549 3.48176 -1.13783 -0.474475 -1.9356
415 1.84228 2.77918 2.85328 -0.755688 -0.900095 0.659523
1375 1.46088 1.82947 2.9949 -1.11723 0.196408 -0.369997
2779 2.61932 1.66859 3.08284 1.42509 -0.499659 0.0322562
982 2.42133 2.44643 3.70661 0.189336 -0.291385 -0.567845
1278 3.49755 2.39494 3.43557 -0.269297 0.872215 -0.34952
2153 4.92153 2.63269 3.04289 0.919554 -0.203756 -0.529153
71 4.83826 1.59778 2.99888 -1.39008 0.153535 -0.131968
282 4.38905 1.80988 4.12136 1.55704 1.0369 -0.447704
2081 5.68818 1.88125 3.53512 -0.749375 0.684926 0.403838
3936 5.14485 2.62973 4.16951 1.25002 0.24056 1.16972
549 7.11338 1.49491 3.67732 -0.640589 0.973603 -0.942076
3975 6.29668 1.46243 4.27271 -0.389435 -0.0246167 -0.769312
481 8.04955 2.66811 2.92103 0.514355 0.0841288 -0.845609
1622 7.32493 2.59251 3.7831 0.462702 1.35007 1.02013
2784 8.30265 1.91586 3.83639 1.14554 1.40183 0.285178
3144 9.28016 2.20877 3.20225 1.95503 0.851561 1.3161
1847 9.24401 1.63552 4.06442 -0.976721 -0.381255 -0.175673
2667 10.4709 2.28176 3.12068 -0.67376 -0.340606 -0.0449268
1909 11.3033 2.57031 3.68753 0.100089 1.22933 0.989868
1844 10.8267 1.66648 4.23896 -0.584687 0.0387484 -0.0742004
389 10.1333 1.45443 3.51036 -1.4125 1.73089 0.0976626
77 11.4658 1.57465 2.8708 1.05905 -0.798312 -0.567266
371 12.1528 1.96042 3.51512 1.16113 1.79524 0.648939
664 13.5492 1.64182 3.98905 -0.44599 -0.450498 2.13489
1462 13.1038 1.95654 2.95931 2.28042 -0.820503 0.499048
475 13.9329 2.45984 3.42508 -0.21453 0.595351 1.13278
2601 13.2146 2.66915 4.24157 -0.804951 0.676209 0.41537
2598 14.2928 1.61728 2.97613 -0.763506 -1.56426 0.826188
2235 15.3207 2.51969 3.77547 -0.605422 -0.099998 0.272055
3583 15.153 1.58299 3.60342 1.0071 0.764515 0.571355
1825 16.2959 1.99627 3.36576 -0.724737 -1.48909 -0.837696
3317 0.420447 3.74816 4.06415 0.430132 0.638454 -0.198265
457 0.131127 3.38841 3.1805 0.887241 1.32075 -1.25829
3624 1.1914 3.38196 3.44726 -0.0131947 -0.516741 0.515733
1332 2.18488 3.80954 3.96842 0.76833 0.448956 1.40274
2722 2.84478 3.23688 2.99154 -0.22134 -1.33431 0.892915
3222 3.52183 3.82584 3.46022 0.335566 0.167408 0.209522
3822 4.24235 2.86662 3.79914 0.621528 -0.205347 0.954455
3976 4.5776 3.83818 3.11416 0.31453 -0.354945 -1.20836
190 5.56016 3.79798 3.7453 -0.617076 -0.59038 -0.79752
3696 4.5089 3.96196 4.13831 -1.25625 -0.203738 -0.954496
2809 6.32827 3.9054 3.00842 -0.721702 -0.457151 2.09471
1815 6.29075 2.89778 3.65673 0.834008 -2.77095 0.200212
603 7.53076 3.54444 3.29313 1.30808 -0.319993 0.0374845
2751 8.13136 3.37861 4.13425 0.198485 -0.996562 1.64728
14 8.83076 3.45234 3.10222 -1.32068 0.831462 0.871392
2067 9.69263 2.97346 3.65571 -0.499706 -0.433285 0.524548
2640 10.2915 3.83975 3.4004 1.35892 2.7621 -0.526369
3974 11.387 3.85476 3.96026 2.4289 0.290249 0.510366
106 12.3567 3.21266 4.06051 0.621468 0.154532 0.762439
3733 12.0003 3.29201 3.14584 -0.719867 -0.855484 0.864501
523 13.9298 3.85826 2.94638 1.93382 2.09751 1.6236
888 13.0023 2.95234 3.25774 -1.57104 0.591184 -0.142144
1344 13.0933 3.82506 3.85156 0.159937 1.47006 0.317951
3757 14.1029 3.40223 4.1303 -1.17338 0.153741 -0.293048
675 14.7033 3.41867 3.31986 -0.441144 -0.300686 1.08937
191 15.3977 3.58969 4.105 2.51364 -0.307233 -1.30934
2238 16.1173 3.13503 3.13991 1.13052 -0.545438 0.110034
1688 16.0857 4.10816 3.7311 -0.255738 0.88507 -0.859438
842 1.2201 4.46075 3.67998 0.402689 0.373851 0.543792
2470 0.513984 5.42752 3.62031 0.457519 -1.44466 -0.0360204
76 0.0708746 4.45161 3.42151 1.80218 -1.78463 1.09163
3868 2.71322 4.53485 3.23015 0.425969 0.0183635 -0.184869
3135 2.66906 4.74719 4.11093 0.712914 -0.167671 -0.575958
479 1.8217 5.33911 3.75533 1.06508 1.42754 0.441008
2442 3.01936 5.52036 2.99622 1.38026 0.207526 1.98073
591 3.93961 5.28154 3.67285 -0.31381 -0.727277 -2.53725
1643 5.20887 4.88986 3.69884 1.48841 1.83803 0.277693
3973 6.19922 4.54234 3.89766 -0.406417 -0.497482 -0.0893309
340 6.60398 5.60426 3.4675 -0.691216 -0.503608 -0.118158
657 7.73508 5.38575 3.11686 -1.77887 0.236663 0.752427
3551 7.1885 4.38875 3.47485 -1.35137 0.846453 0.200453
1715 8.44463 4.49205 3.34672 0.848039 -0.101469 0.0659583
1215 7.15863 5.08341 4.17506 0.670537 -0.642757 0.20568
1402 9.48431 4.38446 3.28867 -0.820055 0.222295 -0.631196
3423 9.52785 5.38689 3.26258 -0.209003 0.180314 0.298595
1930 8.80131 4.70579 4.25853 0.438874 0.360961 -0.398485
308 10.4748 4.98623 3.32769 1.31409 2.33193 1.84201
3911 11.342 4.97335 3.99488 0.178851 -0.0948531 1.80084
397 10.051 4.53821 4.15413 0.107112 1.86328 -0.758044
3427 11.4573 5.39894 2.99649 -0.89088 1.54942 1.34309
2539 12.5384 4.74997 3.37454 0.470552 1.57547 1.16102
166 13.5588 4.71619 3.56048 -0.0785626 -0.287065 0.218264
3796 12.8975 5.38248 4.10757 0.603845 1.62686 0.586703
550 14.7128 4.5228 3.69377 3.27428 0.207175 -0.754502
3523 15.4387 5.28417 3.71544 0.706516 -0.659345 -0.0200102
891 16.4748 5.11255 3.55125 -0.459026 -0.26011 -0.41444
832 0.628036 6.35806 3.03102 -0.298288 -0.0207004 0.0365801
119 1.212 6.58677 3.74603 0.516378 0.084481 -0.144368
3581 2.5645 5.93924 4.02745 -0.788721 -0.191733 -0.550772
3675 3.36448 6.7434 2.86089 -0.74662 0.117337 -0.506452
2537 2.98633 6.83694 3.90596 -0.495303 -0.680617 0.162817
679 4.22474 6.80446 4.05941 0.525545 0.205488 0.18925
2401 4.42852 6.22513 3.11929 -1.1836 -0.242101 1.62227
2417 5.07285 7.04869 3.08078 -0.0639716 -0.0101616 -0.610332
2924 5.74636 6.20786 3.67413 1.10067 -1.06227 -0.913332
2212 6.73241 6.56656 3.70986 0.580073 0.438975 -1.39732
3889 6.12852 7.10904 2.89661 -0.567125 -1.29309 0.254898
2858 8.19558 6.70384 3.78422 0.127281 0.164271 0.448762
2262 9.31334 6.5349 3.15765 -0.987679 -0.0682386 -0.681966
2109 8.68146 5.78569 3.66005 1.38334 -0.647687 -0.4555
1377 9.21612 6.60392 4.15596 -0.0750325 1.30887 0.305534
2606 9.95919 5.91499 4.02273 -0.00850398 -2.64275 1.74608
2846 11.1046 5.92122 4.01461 -0.094245 1.61762 0.169914
157 10.1768 6.93371 3.67077 -0.201226 -1.87815 0.707257
2426 11.4924 6.648 3.28455 -0.718706 0.824279 1.17045
920 12.1785 6.46088 4.11845 0.975198 1.39591 -0.983413
3247 14.0751 6.55245 3.23454 0.518751 -0.151142 1.77417
705 13.0097 6.45673 3.51733 -0.710328 -0.150564 0.0307167
2193 14.0119 5.70849 3.88352 -0.74796 0.655532 1.40027
3856 15.2805 6.34421 3.60535 1.03898 -1.15729 0.907684
3398 14.8711 7.11785 4.25512 0.254585 3.10591 0.0783968
980 16.3447 6.18129 3.60399 0.0228274 2.99029 0.998217
568 17.029 6.84631 4.24135 0.115709 1.59389 0.246236
2431 15.8051 7.00606 2.86024 -0.0134714 -0.22945 0.104534
1419 0.4917 7.52237 3.45761 0.238906 -0.953051 0.651415
3762 1.27378 7.31353 2.8959 -0.325965 0.0981914 -0.100641
3887 1.50796 8.10625 3.89703 -1.1763 -0.806441 0.813283
2413 1.97658 7.23582 4.07573 0.0297196 -0.896829 0.221125
2831 2.72399 7.90157 3.71177 1.13956 1.42409 -1.45814
819 3.83497 7.81058 3.78573 -0.2051 -0.224341 -1.36179
331 4.58336 8.20361 2.97856 0.551639 -0.90551 0.917115
232 5.60577 7.88941 3.47458 -2.22178 -0.779784 -0.152516
1333 6.87092 7.9439 3.80341 1.49668 -0.578822 -0.523642
2695 6.19408 7.3282 4.13167 0.938713 1.14684 -0.52621
3788 7.48101 8.36694 3.17698 1.18722 -1.55074 -0.773005
1884 8.22165 7.47884 3.17978 -0.727022 -0.729483 -0.262348
1181 8.74412 7.53604 4.21355 0.528895 0.0046192 0.00557328
3730 9.69386 8.30183 4.24449 1.175 -0.182297 -2.40083
291 10.6839 7.51485 2.99156 0.166147 -1.56412 0.0887782
171 10.8367 8.49954 3.66254 0.960799 0.931315 0.244449
798 12.5162 8.23031 4.00467 -0.406091 0.291581 -1.43247
1778 11.753 7.98541 2.92184 -1.61542 1.37545 -0.398911
3221 12.387 7.31799 3.49476 -0.637097 0.692621 -0.98135
3672 13.4726 8.54738 4.26355 -1.0368 -0.59403 -0.889892
364 12.9466 7.97848 3.04914 1.13426 -0.756637 0.292617
3359 14.0318 7.57 3.7799 -0.387865 -2.19639 -0.953524
2027 14.6822 8.34893 3.92981 1.95506 -0.114562 -0.237079
604 15.656 8.27952 3.2576 0.950319 0.244511 -0.164657
2670 14.8352 7.40838 3.20731 0.24668 -1.20753 -0.115448
2019 16.6039 7.54236 3.49572 -0.0482825 -0.549242 2.38901
2743 0.996506 0.00349808 5.01195 0.41881 0.645685 -1.96819
505 0.154232 0.817926 4.70964 -0.631911 -0.442958 0.0114637
1947 1.2827 0.942908 5.07702 0.0227491 2.46332 -1.60714
527 1.64745 0.299502 4.36082 0.423139 0.879263 0.58156
2331 2.29851 0.672004 5.12958 0.0968148 -0.632664 0.483428
800 2.99674 0.121826 4.46756 -1.25233 0.787279 -0.625388
3388 3.68446 1.17787 4.99594 1.63434 0.554491 -1.00013
941 3.88733 0.117537 4.87137 -0.0332941 0.434076 -1.00354
1760 4.7204 0.936105 5.16348 -0.698259 0.926827 1.44011
3539 5.89473 0.585376 4.60694 0.588116 -0.57566 -0.416838
2436 6.71798 0.712815 5.42258 -0.221861 -0.874528 -0.164546
1470 7.2998 0.846547 4.46909 0.657064 1.11334 -1.6758
2377 9.92728 0.250417 4.92873 -0.562642 0.624267 0.223417
1090 8.93228 0.688555 4.33633 -0.43328 -0.866002 -1.64751
286 9.0732 1.07936 5.26139 0.218399 -0.380194 0.673864
1572 10.0315 1.35643 4.88259 -0.167707 0.844979 -0.901392
320 10.8022 0.561476 5.14827 -0.136112 -0.570931 1.17189
3786 11.6803 1.13335 4.72542 -0.212883 -0.71556 -0.630539
159 12.5536 0.0926982 5.13066 0.439364 -2.07955 -0.444486
511 12.017 0.929067 5.64907 -0.508141 -0.831374 -0.209081
3727 14.0925 0.539212 5.1961 0.958827 -0.263842 -1.76724
2781 13.423 1.13621 5.05889 0.394301 -0.125776 -1.22521
2391 14.64 1.3313 4.79453 0.000319101 -0.359524 -1.35818
462 15.3369 0.616287 4.92758 2.51552 -2.73814 0.460884
3277 16.1774 0.188555 4.57828 -0.71927 1.52212 0.0201744
356 17.0912 0.197352 5.55655 -1.21675 -1.1818 -0.570525
1621 16.2885 0.979883 5.24573 -1.46309 -1.42517 0.465194
460 0.639211 1.80331 4.5148 -0.712002 0.239424 -1.35374
845 0.507386 2.81048 4.85678 3.0983 -0.768273 0.623101