ITEM: TIMESTEP
73000
ITEM: NUMBER OF ATOMS
4000
ITEM: BOX BOUNDS pp pp pp
0.0000000000000000e+00 1.7099759466766969e+01
0.0000000000000000e+00 1.7099759466766969e+01
0.0000000000000000e+00 1.7099759466766969e+01
ITEM: ATOMS id x y z vx vy vz
2202 1.28486 0.208954 1.19586 -1.34029 1.18507 -0.982004
1358 0.599801 1.093 0.384384 0.387595 0.769578 -0.795221
2120 2.04278 1.11558 0.463694 -0.4332 0.424348 0.761661
2679 2.48606 0.990656 1.35539 -0.60059 1.27986 0.879782
2426 2.7811 0.182043 0.543642 -1.05446 0.869135 1.23271
3902 3.80186 0.0878817 0.178446 -0.40337 0.558433 0.392045
3390 3.75102 0.497936 1.1174 1.00499 1.15227 1.18456
2337 4.84157 0.967305 0.56014 0.421643 -0.0312215 0.408534
1958 6.89569 1.3489 0.934942 -1.83722 1.39005 1.87492
3891 7.01632 0.323717 1.42242 0.0962451 0.080964 -1.1736
1534 5.76208 0.174586 0.688276 0.0465673 -1.7441 -1.61027
2498 5.84125 1.17259 0.123928 -0.600749 -0.171194 -1.12811
2246 7.90416 0.715402 1.07645 -0.940705 -0.882368 0.303562
3704 8.58075 1.09726 0.248338 -1.74743 0.151682 1.2065
3573 8.80655 1.17576 1.15284 1.04227 1.42757 -0.261001
2315 9.58861 0.544418 0.79497 -0.425833 1.2854 0.416913
3627 10.6496 1.22342 1.37165 0.45605 0.939445 1.25198
1463 10.7626 0.121484 1.20032 -0.977967 0.497308 -1.39997
1789 12.0241 1.2622 1.10792 -1.61611 0.791731 1.69421
3756 12.4398 0.735556 0.118591 -0.68788 0.843728 0.400293
1605 13.0096 1.07119 1.31569 -0.661711 -0.736869 1.08006
1972 13.9642 0.888531 0.344244 0.903816 -0.181091 -0.0149587
1533 14.9552 0.0780436 0.264885 -0.211892 -1.20137 -0.79189
242 15.5222 0.719449 1.0088 0.661014 -0.478617 -0.679072
664 14.5717 1.096 1.33734 0.784385 0.639871 1.92926
2272 16.4918 0.446957 0.830002 -0.638523 -0.666843 -2.20903
1608 16.111 1.13777 0.162331 -0.0207062 -0.124413 -1.14535
2842 0.623915 2.34498 0.936823 2.1462 0.484466 0.43275
909 0.11045 1.43899 1.24981 -0.406111 -0.715477 0.51277
424 1.94024 1.83776 1.06669 0.104525 -0.526281 -1.75462
912 2.62067 2.07396 0.0798064 2.39214 -0.0339561 1.66821
2346 3.64348 2.70389 0.284232 0.784793 -1.5762 -0.889949
2136 3.50463 1.56343 0.69664 0.741456 0.336606 0.458722
2350 4.12803 2.26388 1.17506 -0.202452 -1.44037 1.06328
3403 2.86197 2.27883 1.14421 0.456141 1.19578 0.845138
1760 5.18813 2.48927 0.702719 0.205906 0.567555 0.985463
3377 5.60071 1.60173 1.25106 1.75845 1.9256 0.696202
2217 4.58235 1.93862 0.158866 -0.684829 0.34423 1.19088
3087 7.11698 2.55858 1.17219 0.127785 -1.79702 -0.594083
3115 6.23311 2.14425 0.468042 -0.588661 -2.12437 -0.556592
113 7.86224 1.81896 0.745177 -1.65726 -0.553605 0.298788
486 7.61732 2.65205 0.0314013 -0.221707 0.466199 -0.24754
3198 9.28495 1.93387 0.668573 -0.231329 -1.20782 -1.50182
1947 11.2389 1.87774 0.777774 -1.84722 -2.07931 -0.278274
2037 10.4692 2.18085 1.39299 0.806601 1.37254 0.651608
682 10.2877 1.43583 0.316167 0.00610742 0.336064 -0.883997
2028 10.3865 2.54539 0.439697 -1.53487 0.421718 0.516114
1937 12.781 2.22802 1.37601 -0.747037 0.5061 -0.281831
3392 12.1044 1.83332 0.125291 0.915523 -0.317017 -1.25351
1535 13.7957 1.71812 1.39388 0.662653 2.09329 -0.217946
2986 13.2718 1.88862 0.529847 -0.599326 -0.82818 0.745344
867 14.1625 2.35879 0.264475 -0.314663 0.777867 0.0238734
3460 14.8926 1.47921 0.285679 -1.59063 0.396408 -0.158598
3672 14.9374 2.47246 0.998879 0.550049 1.95135 0.0843985
1539 16.1764 1.59113 1.14069 0.253932 -0.711734 -1.18424
3200 15.6983 2.32803 0.443564 -0.569805 -2.17551 1.39424
677 16.6868 2.43847 0.950302 -0.362328 0.121306 2.31252
2050 0.980078 3.29623 0.925345 -1.39113 0.162306 -0.536074
1903 0.0701123 3.02342 0.231565 0.951722 -0.190009 -0.265681
3677 2.11149 4.01833 0.592337 -0.15023 1.43578 -0.334581
2427 1.89202 2.99549 1.37832 -0.196107 -0.577539 -1.30361
38 1.74924 2.96509 0.264082 0.741308 -0.339317 0.37191
1856 3.16117 3.70687 0.355067 -0.523659 -0.85706 -1.60734
1591 3.41356 3.2398 1.26007 -2.28796 0.292387 -0.380312
1129 4.47852 3.20834 0.828277 -0.380406 0.196305 1.01671
2693 5.44241 3.70037 0.332708 -2.6318 0.0647203 -0.0753735
733 4.93552 4.13552 1.14366 -0.188554 -0.420877 0.387402
722 6.63869 3.1976 0.328253 -0.230007 -0.833243 -0.105557
1383 6.3912 4.05903 0.833608 -0.940516 -1.52856 0.189566
2250 7.34259 3.76438 0.820556 0.567125 -1.29204 -1.29691
3231 8.20637 2.91083 0.831843 -0.527819 0.170518 -0.161126
3121 8.41264 4.06298 0.723357 0.272144 0.224683 -1.6326
2670 9.63261 3.76858 0.537969 -0.546063 -1.94325 -0.620166
1476 9.36265 3.03609 1.34206 0.928918 1.24121 -1.54134
689 9.10005 2.99354 0.0877229 -0.484894 -0.651256 0.780546
475 10.651 3.72512 0.844451 0.133329 1.90721 -0.0190137
3085 12.4031 3.50351 1.31492 -0.21824 0.202074 -1.98109
464 11.8825 3.80214 0.256864 -1.51298 -0.00649025 -0.542071
1166 11.4666 3.0276 0.974217 -0.538184 0.166845 0.875054
2248 12.922 3.8458 0.493558 0.651308 -0.229311 -1.77726
132 13.5616 2.91975 1.02112 -1.9966 0.490583 -1.99307
3008 12.9273 2.86887 0.131601 -0.444077 1.89439 -0.0607006
2800 14.5764 3.35049 1.39077 1.6707 -0.254487 -2.26109
61 15.0844 4.20369 1.02155 0.354212 -0.508929 0.87692
1557 14.9191 3.29964 0.158435 -1.42083 -1.39297 0.919828
1437 15.8755 3.53934 0.368796 -1.17005 -0.328864 -0.762723
1841 17.0866 4.04917 0.232818 0.148425 -1.80771 -0.680842
3468 17.0852 3.51785 1.27765 1.04083 0.803232 0.240935
3438 15.6764 3.45961 1.38492 0.417198 0.740889 -0.226664
2075 1.02409 4.30266 0.641 -0.616217 1.12361 -0.935074
2347 2.6946 4.86887 0.241469 0.334829 0.169365 0.567977
818 1.80803 5.10928 0.552717 -0.908762 0.211214 1.06901
3324 4.01247 4.29671 0.610397 -2.1388 0.171979 0.157379
325 3.34627 5.1457 1.25212 -1.36808 -0.443238 0.331795
2761 3.87618 5.51919 0.170161 0.687156 -1.21132 -1.11754
202 4.73291 5.50924 0.736969 0.0951509 0.203742 0.0636315
2883 5.52085 5.33331 1.3845 1.62228 0.546727 -0.15449
618 5.67569 4.76971 0.332918 2.50231 -0.134914 -0.266383
2074 6.46199 5.57437 0.620968 -1.02055 1.16369 0.0621936
1891 7.65401 4.68155 1.29705 -0.557388 0.151286 -0.347607
478 7.17368 4.85471 0.41364 -1.99482 -0.725353 0.1613
3452 8.08472 4.8464 0.0480561 -0.464347 -0.111628 -0.112199
5 9.00963 5.01687 0.452881 -0.962609 -0.577476 1.00336
3035 11.1682 4.82333 1.19995 0.246408 -0.205858 0.0603497
2388 10.0615 5.04802 0.849492 -0.820771 -0.849111 0.445395
1251 10.3379 4.47444 0.0599487 -1.02795 -0.890817 1.60497
754 11.5824 5.14678 0.258765 0.522641 -0.23983 1.1877
1347 12.3894 4.8242 0.949149 2.01627 -0.255818 0.0203856
832 13.8222 5.06794 0.302791 -2.29198 0.641599 1.37802
421 13.7921 4.36578 1.19286 0.231058 0.86004 1.01822
3844 14.6317 5.30038 1.08219 0.449791 0.93237 1.55966
3415 15.6171 5.02806 1.40045 0.767631 0.167764 0.98868
1242 14.9802 4.49907 0.121444 0.292087 0.594331 1.11527
36 15.8856 4.66272 0.509372 0.744846 -0.0366601 1.35103
1769 16.9392 4.9294 0.612323 -1.32323 -0.214833 0.153365
2611 16.4296 5.65369 1.29345 1.17537 -0.79733 -0.637285
1400 0.251524 5.99458 0.788612 -0.942459 -1.95611 -0.525005
978 1.27935 6.58934 0.846753 1.61339 0.673327 -0.583054
2724 2.67815 6.81566 0.345484 -0.0604386 -1.13695 1.48458
954 2.83016 5.90617 0.712883 0.667721 1.18448 0.888523
686 3.5213 6.89683 0.982899 -1.14572 0.372375 0.710295
3661 3.97668 5.93212 1.37491 -0.187208 -1.98501 0.573339
1159 4.74211 6.50831 0.0676147 -0.420992 -0.898117 -1.04855
114 5.67316 6.52969 0.633191 -1.01287 0.324045 -1.77031
2267 4.72133 6.62326 1.15554 -0.0526691 1.45092 -0.568114
3953 7.97786 5.82462 0.327972 -1.5268 1.12359 -0.222661
191 8.39159 6.24138 1.14566 -0.0864602 -1.37218 0.189165
3790 8.03012 7.03575 0.308419 -0.0400189 0.0139968 0.0316571
2349 7.39326 6.55529 0.895085 0.283709 -0.193785 0.377145
1687 9.89136 6.59801 0.8744 0.359008 -0.525508 -0.639296
2494 8.8994 7.0266 0.912658 -0.980889 1.4121 -0.702316
3559 8.98373 5.95468 0.250641 -0.90496 -1.04586 -0.620284
2827 9.92473 5.90581 0.107608 1.2733 -0.637282 -0.166099
332 10.3794 7.03734 0.0657109 -1.33957 -0.250753 -0.913042
2467 11.3204 6.58047 0.0365469 -1.23957 0.753564 -0.391846
189 12.3482 6.29074 0.205816 0.743766 0.811636 -0.406748
2691 11.5001 5.92415 0.97804 0.01151 0.722557 0.512131
224 12.5085 6.99327 1.3092 0.186768 0.0813791 1.32578
2385 13.2069 6.08544 0.886501 -0.773741 -2.45068 -0.352397
3145 15.4032 6.18228 0.945044 1.25543 0.613205 0.652991
2215 14.2517 6.34712 1.25554 0.200314 -1.1068 -1.6371
1381 14.2596 6.51384 0.278786 -1.35916 -0.640746 -0.28323
3136 15.0405 7.09807 0.177083 1.43939 -0.331969 0.669333
2789 17.0172 6.90022 1.01286 0.0215587 -0.340959 0.83298
1238 16.0494 7.08048 0.257994 0.560409 0.671383 -0.701162
1909 16.1512 5.80331 0.300943 -0.0792914 0.794153 -2.30994
3079 16.9779 6.50997 0.0462995 -0.883229 -0.883113 -0.192531
3887 0.965868 7.35547 0.17645 -0.219112 1.91145 -0.033766
1289 0.316868 7.88292 0.609555 -1.6224 0.47205 1.77314
2368 1.32201 8.29116 0.277725 -1.30802 0.497711 -0.196686
2060 1.89302 7.57749 0.69344 0.255227 -1.26809 -0.311239
2010 2.25238 8.54298 1.23704 -0.74348 1.49917 0.127168
2940 4.1533 7.86003 1.18173 0.666496 -1.28334 -0.110495
1325 2.88685 7.80399 0.772502 -0.28458 1.00656 -1.14624
3636 5.02712 7.46248 0.717336 1.72664 1.20405 0.132387
3388 5.02555 8.48126 1.04601 0.375036 -1.15916 0.572787
3736 6.53617 7.24004 0.210111 0.399146 0.918315 -0.938121
717 6.09045 7.49452 1.14956 0.405446 0.552656 -2.23826
3826 6.64129 8.33531 0.814709 1.29401 -0.93616 0.915777
65 5.97915 8.04688 0.0668405 0.786026 1.85757 1.25034
1575 7.33616 7.69709 0.868667 -0.11412 0.49401 -0.841998
1766 7.79669 8.48992 0.324073 -1.26042 0.0254999 -0.530788
2984 8.5805 8.12053 1.1805 0.278746 -0.58203 -0.746241
204 9.17646 8.15527 0.0438776 0.0611211 -0.0776572 -0.361945
2919 11.1808 7.13569 0.915603 -1.28972 -0.355317 -0.381013
2836 10.0826 7.53991 1.17747 -1.18498 -1.4669 0.769906
87 12.6879 8.1431 1.28898 0.141177 -0.546902 -0.410965
2253 11.4365 8.23085 0.477058 -1.03632 -0.0154556 1.59308
176 12.161 7.61605 0.152493 -0.731053 -0.201155 -0.422439
3021 13.5189 7.39166 1.37434 -0.164127 -0.235339 -0.643152
2577 14.1802 7.58621 0.648293 -0.156647 0.899999 0.0792315
1125 13.0981 7.17113 0.43136 0.561341 -0.653795 0.0542558
368 15.5396 7.50926 1.17117 -1.22977 1.71698 1.13937
3080 14.3833 8.50213 1.19257 1.00923 -1.71484 0.156935
2616 15.1637 8.19778 0.313373 1.06621 -0.783869 0.824837
12 16.3248 8.24436 1.04389 1.86667 1.38402 0.325204
791 0.124033 0.374496 1.53483 0.178418 -1.8755 -0.941569
2867 0.646879 0.938794 2.18978 -0.0190431 -0.986577 -0.487918
2055 1.84852 0.691547 2.45719 -0.45663 0.894672 1.06919
2166 2.20368 0.0373781 1.75563 -1.26406 1.45677 -0.437334
355 2.84716 1.22198 2.60417 0.891675 0.239505 0.264829
3679 3.31284 0.363995 2.08991 0.00370459 -0.939025 0.679097
2820 3.35475 1.32638 1.66288 -0.841685 1.24731 0.66229
3888 4.00796 1.40916 2.39786 0.839726 -0.0616084 -0.447294
1350 5.179 0.729033 1.47221 0.366115 -1.98761 0.544129
2181 5.37639 0.132607 2.81302 0.0177263 -0.791101 0.835661
3818 4.48589 0.39138 2.2212 0.967274 -0.90143 0.300527
1365 6.41083 1.22124 1.7571 -1.43344 0.729291 -1.27281
300 5.78414 1.0812 2.61081 -1.22686 -0.0261887 -0.0250046
3363 6.79551 1.23203 2.83033 1.75733 0.0935047 0.0755665
1604 6.10521 0.206005 2.02203 1.33871 -0.091941 1.23016
1486 7.42244 0.43317 2.32039 -1.02615 0.803213 1.12225
3630 8.58221 0.531045 1.97922 -0.440565 -0.44322 0.201398
2410 9.72434 1.03517 1.65715 1.41633 -2.23598 0.848798
2660 9.77487 0.432204 2.82894 -1.0966 -0.98834 -0.404055
851 11.417 0.763303 1.86456 0.326934 0.330851 0.23332
2492 12.2939 0.883398 2.54984 -1.7709 -3.07155 -1.17667
3785 12.2607 0.229608 1.50928 -0.454629 -0.259064 -0.564298
3603 13.8596 0.317179 1.46868 1.02221 -0.150797 -0.694711
928 13.4781 0.543341 2.58009 -1.5003 0.221201 -1.31792
951 14.3854 0.100558 2.21143 -1.35155 0.184379 0.607968
956 16.02 0.781341 1.94966 -0.359514 1.15588 1.1871
779 1.07951 1.70929 1.75148 1.53563 0.368015 0.80043
2782 0.9173 1.96426 2.7619 -2.40663 1.53529 -1.06082
3418 2.10466 1.94273 2.27686 1.00064 0.514851 0.683392
3966 3.28388 2.18748 2.11512 1.10129 -1.09765 -0.902067
342 4.83545 2.11641 2.23984 0.387768 -1.03628 -0.303254
2808 6.46617 2.19887 1.86266 0.886565 -0.978894 0.540671
3505 7.57358 1.51782 1.76364 0.502279 0.0872302 -0.736107
1716 7.44721 2.25003 2.63529 -0.656692 0.50045 -1.57709
3551 8.22721 2.51704 1.86123 1.397 -0.742409 -0.920683
3260 9.16707 2.1919 1.86371 0.327467 -0.414015 1.42206
1548 9.46885 1.45092 2.81792 -0.169139 0.949438 0.140066
2054 10.8006 1.6457 2.35333 -0.00147378 2.05112 0.342446
3777 11.2858 2.79674 2.16023 -1.98989 1.64119 0.18079
3018 10.1679 2.55209 2.35363 0.418507 0.513744 1.05246
860 12.06 1.9609 1.98217 -1.2494 -0.414057 -2.8549
201 13.3392 2.82854 2.57703 1.9198 -2.49274 -0.427808
2898 13.2 1.81502 2.48426 1.30206 0.81989 -1.74778
1925 14.2608 1.53071 2.47473 1.11618 -1.23717 0.441002
1609 14.3529 2.74564 2.20209 2.0416 1.21296 -0.725928
1462 15.2324 2.69029 2.76172 0.310252 -0.195844 -1.05468
1049 15.8708 2.43768 1.64499 1.71807 0.0511009 0.243304
327 16.9711 2.53204 1.90769 0.05434 0.746319 0.0200227
2764 16.655 1.50367 2.34605 1.48999 -0.655679 0.629868
2756 0.594507 4.16051 1.67116 -0.15213 0.95159 -0.56475
557 0.157683 3.63291 2.43689 0.640071 -0.811132 1.01506
2069 0.808849 3.04956 1.9798 -1.85775 3.74832 -0.59872
1639 2.44186 3.80565 1.61554 0.366725 1.68155 -0.560228
1290 1.51352 4.026 2.41543 -0.350582 0.60804 0.232557
273 2.6094 2.98317 2.22329 -1.29391 -0.481332 -0.654728
197 1.68552 3.02684 2.75076 0.811925 -2.59256 -1.62761
1718 2.54094 3.96008 2.82036 3.12355 -0.322011 -0.127954
2389 3.72736 4.05876 1.81324 1.86604 -1.30181 -1.86991
2747 3.98849 3.0252 2.0812 1.4402 -0.268183 0.565874
3688 5.15485 2.94785 1.66891 0.693901 0.438336 0.144427
588 5.56497 3.05636 2.68111 -0.188784 -0.159679 -0.643874
983 4.76853 3.88594 2.21247 -0.1887 -2.05692 1.37748
3919 6.15239 3.24492 1.4809 -0.787246 -0.949551 1.74229
2035 5.7421 4.13093 1.81943 0.0762897 1.44177 -0.165598
730 7.1646 4.04506 1.91464 -0.955606 -1.91208 -0.0383964
3944 8.1549 3.62619 1.66787 1.18217 0.336817 0.756021
3057 8.00544 3.55952 2.81842 1.26978 0.378429 0.556874
1099 7.15779 3.06934 2.0795 0.217688 0.909217 1.92527
19 9.01946 3.82624 2.39275 0.114925 -0.693272 0.531211
2971 9.14252 2.87483 2.82178 -0.319554 -0.255483 0.807097
3007 10.8845 3.9756 2.07727 -0.431092 -0.320557 1.02401
3837 12.2973 3.87362 2.36167 0.615407 -2.27679 -1.0585
2077 12.3467 2.87329 2.74173 2.06043 -0.100641 1.90868
1152 14.1633 3.94426 2.69754 0.261338 -1.00041 0.153663
3622 13.6447 3.53271 1.79717 0.336503 0.345506 -1.35778
2551 14.998 3.61684 2.3305 -0.570823 -0.1654 -0.263491
2480 16.2025 3.17859 2.3497 -0.181834 0.362952 0.653238
2417 16.3655 4.18057 2.4219 -0.201926 -0.173801 0.024389
1056 0.476798 5.32108 1.45268 0.362244 -1.13097 0.446284
1410 0.693802 4.64607 2.59557 1.34694 1.6504 1.81061
3014 1.78718 4.76887 1.69855 0.982001 0.0859465 1.04239
2529 2.52278 5.55072 1.73954 -1.21254 -0.409521 0.14392
2442 2.92678 4.66705 2.31892 1.08158 0.799915 -0.528697
237 3.74138 5.17903 2.65374 0.500473 0.255728 -2.85325
1527 4.51011 4.93765 1.87924 -0.132872 -0.247944 0.2786
2734 5.27989 5.26853 2.43812 2.1863 0.120627 0.17199
1980 6.51953 4.81967 1.51744 0.542373 -0.382956 0.731811
346 6.5403 5.46861 2.3181 0.624783 -0.546768 0.316831
3009 8.46968 5.27667 1.58345 -0.305431 0.898475 2.39373
2237 8.53018 4.66852 2.73775 1.13519 0.667922 0.244757
2331 7.46981 4.9257 2.45331 0.471012 -0.593169 -0.94165
321 9.31998 4.38258 1.42929 0.096433 0.940966 -1.83282
900 9.5199 5.06166 2.34301 -0.24016 -0.803716 1.08892
2973 10.2497 4.54265 1.61941 -0.914664 -1.44181 0.167786
938 11.2944 5.46373 1.92214 -0.72528 -0.503947 1.0135
2348 10.6029 5.12345 2.74582 -0.265812 0.808337 1.57225
1919 11.6269 4.65785 2.50285 -0.00565646 -0.234206 0.369285
3946 12.5991 5.29855 2.32978 0.987714 1.15182 -1.86055
43 13.1026 4.46626 2.03549 -1.03362 -0.705883 1.66437
2930 13.563 5.37206 1.53495 0.498751 -0.0715666 -2.05499
1200 13.9901 4.99755 2.49838 -1.06224 0.255403 0.401556
2950 14.6926 4.52215 1.95089 -2.65659 0.822089 1.43203
2176 16.6965 4.52164 1.56092 -0.509216 0.79495 1.35525
1087 16.9078 5.2012 2.68362 0.740313 1.31103 1.79008
2965 0.741358 6.6114 1.95868 1.57643 0.81476 -0.432244
2817 1.34405 5.84093 1.48564 0.105658 0.995478 0.40553
3923 1.237 5.73839 2.67755 -1.37569 -0.635965 0.129091
1612 2.25566 6.59906 1.5323 1.25892 -0.866775 -0.846338
1864 1.83324 6.52003 2.56495 0.854768 0.268932 1.18959
1976 3.1595 6.24101 1.96946 0.00283211 -0.382355 0.434039
859 4.03593 7.08199 1.84312 -0.68598 0.469076 0.0611122
549 4.65922 6.10282 2.13927 -0.28583 0.978254 0.7074
409 6.18134 6.08198 1.48326 -0.0426792 -2.95706 -1.20649
3090 6.25684 6.55979 2.48144 -0.608721 0.329721 -0.930079
989 7.18868 6.26134 2.61522 0.896152 -0.0181676 0.792256
1950 7.47521 5.81183 1.63799 0.447227 -0.231148 -0.566908
1622 8.153 6.57341 2.82961 1.75838 -1.1818 -0.379711
3833 8.8509 6.62142 1.98155 0.34388 -1.12606 -0.1055
2882 9.44991 5.73887 1.51112 -0.327739 0.173251 -0.979457
587 8.68572 5.70889 2.55034 -0.650923 0.600828 0.505243
3581 9.5674 6.06161 2.82028 0.436907 1.23619 1.14612
2007 10.3774 5.78756 1.90761 0.453227 -0.734241 0.406951
3443 10.052 6.77993 2.01436 0.581464 0.469034 0.0885086
3335 11.1475 6.51847 1.76699 0.540359 0.334908 -1.92149
183 12.3946 6.28747 2.09887 -1.49169 0.381526 0.35711
1081 11.5917 6.93108 2.58558 -0.673588 -0.246228 1.02562
3503 13.523 5.92622 2.37522 1.05722 1.11935 -1.00735
1269 14.7929 6.70225 2.27414 -0.756284 0.449741 0.970395
3369 14.5283 5.71241 2.05231 0.46965 -1.16474 1.02796
3515 16.0815 6.72284 1.43532 -0.469805 1.42164 0.773198
269 15.6892 6.04869 2.02597 -0.211847 -0.76761 1.26424
361 16.9234 6.13493 2.03987 -0.766938 0.795123 -0.634052
3409 16.9647 6.9717 2.68642 0.187639 1.14153 -0.554797
2688 0.472452 7.71386 2.09689 -1.13192 -1.17975 0.216856
185 1.37493 8.42129 2.05347 -0.31434 -0.210843 1.15161
707 1.42801 7.50249 1.63242 -1.0422 2.72819 -1.04512
2416 1.56801 7.71897 2.72728 0.933231 -2.17157 -2.38779
1419 2.23388 8.54514 2.55987 -1.09922 -1.28266 2.47121
3620 3.00064 7.35777 1.85347 0.21698 0.664592 0.636349
1396 3.22066 8.19104 2.55266 0.391186 0.195243 -0.348529
2165 4.34445 8.12544 2.14731 0.353865 -0.27377 0.0265612
2056 5.3544 8.18912 1.94597 0.503059 1.03811 -0.662431
479 5.14613 7.13532 1.86286 0.00191777 1.07161 -0.285229
2550 7.03881 8.21407 1.81977 -1.01152 -0.754275 -0.0133017
2838 6.91414 7.24278 1.82109 2.39559 0.0731837 -0.269874
895 6.17889 7.72925 2.40669 -0.0588805 -0.448841 -0.0455441
2191 8.09477 7.19304 1.55249 0.251139 1.89667 -1.65669
271 8.22926 8.24991 2.03904 0.00594554 1.46572 1.05657
1088 7.57498 7.62172 2.54496 1.05836 -0.467044 1.51294
1912 9.61593 8.43349 1.61337 -0.212427 1.14508 -1.1732
2213 9.82943 8.24404 2.57946 1.23004 -0.99676 0.565092
1915 9.19101 7.57045 1.89308 0.25295 -1.04145 -0.726978
1806 10.6538 8.53506 1.67848 0.380801 0.225777 -1.08275
3451 10.7907 7.4631 2.00688 -0.401418 -0.061628 -0.581111
2922 11.7557 7.54511 1.67354 -0.335084 -1.26527 1.69512
2540 11.5805 7.85819 2.80844 -1.10955 0.0919158 0.101691
3389 12.3464 8.34656 2.29874 1.50814 -0.0236531 -1.64601
427 12.8855 7.48378 2.27383 0.63093 0.844591 -0.694967
1630 14.0011 7.24234 2.56317 0.748641 0.860845 1.0178
151 15.5971 7.52779 2.58344 -1.01004 0.157023 -0.733016
1107 14.55 7.45043 1.63737 -0.333916 1.26429 -0.222744
2390 15.372 8.3287 1.78266 0.78166 1.14274 0.234076
2013 14.679 7.98292 2.52493 -0.661233 0.0768208 0.669801
3755 17.0628 8.5313 1.65412 0.533992 1.35145 0.578015
1151 16.4333 7.66979 1.8781 -0.0974924 -0.738035 0.175019
899 16.0686 8.38039 2.57592 -0.534859 -0.390589 0.35217
3247 0.430945 0.264451 3.07187 -0.801482 1.30639 1.33661
3467 0.777982 1.07323 3.86398 0.245737 0.423624 -1.28452
75 1.52868 0.0661566 3.35697 -0.214476 0.234024 0.284626
3333 2.70037 1.40782 3.69761 0.372951 -0.594429 2.19059
596 2.05819 0.317582 4.18321 -0.54272 0.148921 -0.493667
1061 2.60059 0.255497 3.16391 -0.738514 -0.381133 -0.101464
2472 3.5702 0.979621 3.15213 -2.03787 1.64574 -0.237781
2900 3.38248 0.838496 4.2217 -1.25044 1.04909 0.910387
2556 5.4208 0.171318 3.90443 -0.30331 -0.454135 0.225104
1041 4.37052 0.313968 3.33885 0.868026 0.21164 0.133505
726 6.36437 0.987289 3.79285 1.33259 0.757786 -0.140621
3003 6.40516 0.269478 3.01686 -0.0225257 -0.950588 1.02726
281 6.53861 0.00216459 4.05764 1.92286 1.06826 -1.50648
847 8.51351 1.00732 2.85209 -0.647117 0.131727 -0.570668
3271 8.39825 0.577497 3.91279 1.19348 0.707029 -0.758061
3812 7.41492 0.53889 3.69703 -0.292266 -0.370205 0.410977
100 9.46667 0.73835 3.92277 -0.04818 0.579561 -1.25976
1822 10.7535 0.332764 3.51783 0.935075 2.60409 -0.781403
1526 11.5507 0.831938 3.33853 -0.415457 2.4364 2.39179
626 12.4088 0.129838 3.49755 -0.64958 -0.406477 -0.202201
1922 12.0813 1.25415 4.08172 -2.00926 -1.28174 -1.75004
3113 13.401 0.19369 4.01326 0.653167 -0.510081 -1.63701
3020 14.0451 1.36676 3.84337 0.151208 -0.285453 1.11761
2778 12.9616 1.11269 3.42221 0.877044 -0.429592 0.182759
1661 14.3683 0.607951 3.15369 -0.692263 -0.758435 -0.478433
1583 15.3693 0.995135 2.8749 -0.81441 0.5422 0.420176
1829 15.3664 0.673435 4.0416 0.710051 -0.605223 -0.0649644
1043 16.8948 1.28311 3.62303 -1.17207 -0.591939 -0.331012
2672 16.3281 0.648715 2.89901 1.49715 1.04581 0.714818
3175 0.647148 2.18272 3.94022 -1.874 -1.04424 0.25424
2279 1.78577 1.42652 3.19686 0.265188 -1.32796 -0.972651
3361 1.61159 2.43909 3.6456 -0.845139 -0.494241 -2.78764
3990 3.58668 2.01185 3.08869 -1.03813 1.76357 0.142999
2834 4.00623 1.81163 4.01464 -0.285123 0.707325 -1.23037
2081 4.5678 1.48203 3.29158 1.23358 0.73866 -0.16254
1927 5.392 1.44106 4.01801 0.483806 -0.66332 0.353563
3591 4.40429 2.76481 3.07955 0.0643482 1.0696 0.784797
60 5.43143 2.47969 3.65781 0.101902 -1.19729 -1.25029
741 6.08641 2.04898 2.88463 -0.837814 0.211711 -0.263612
2888 6.78063 2.27228 3.72377 0.926329 -0.320218 0.696987
2068 7.55953 1.5222 3.52041 2.29049 -2.37866 1.10186
891 8.44622 2.03732 3.12452 2.23851 -0.0275861 -1.21777
2854 9.95309 2.29316 3.63261 -0.858327 1.53257 -0.342446
3261 8.63403 1.61269 4.04896 0.523037 0.729766 1.11438
634 11.0244 2.23008 3.94985 1.67393 -0.624996 0.920182
1798 10.4888 1.44205 3.46993 -1.09643 1.53807 -0.496905
765 12.1604 1.87258 3.0146 2.15764 0.57423 -0.485779
3695 12.0683 2.3676 3.93605 -0.197822 1.22214 -0.0879725
313 13.0877 2.3443 3.47148 0.155532 -0.185318 0.217253
2826 14.1043 2.29262 3.16699 -0.508412 -2.63999 -0.436122
3761 14.039 2.40438 4.2303 -1.15682 -1.76224 -0.767737
4 15.0214 1.82408 3.65555 0.313819 -2.00018 1.96808
3036 16.0397 1.82839 3.01356 -2.24994 -1.54623 -0.715198
701 16.8262 2.52076 2.98113 -0.153962 2.52904 0.189409
773 15.8183 2.68834 3.675 2.15465 -0.545356 -0.335969
3741 0.71765 3.03485 3.23098 -0.140933 0.121056 -1.11389
1214 0.634498 3.90443 3.67747 -1.00718 -1.58215 0.281369
3420 1.62228 3.66696 3.54809 0.257175 -1.67169 0.132714
648 2.71429 3.82172 3.90918 1.56624 -1.71134 -1.03479
316 3.65011 4.17932 2.93713 -0.73553 1.00572 0.937359
921 3.3433 3.08321 2.95829 -0.604734 0.384097 -1.1647
3116 4.12807 3.45139 3.9509 -0.970934 0.383002 -1.1571
463 4.80281 3.89742 3.30918 -1.42723 0.961641 0.854391
239 6.42798 3.13212 3.22111 -0.304986 -0.404692 -0.135305
1438 6.52036 4.24596 3.99295 -0.889683 -0.959305 -2.51714
2604 6.93769 4.10148 2.95225 -1.16773 0.478418 -0.723607
680 5.76153 3.53737 3.98931 0.408941 -0.766898 1.29048
2324 7.58416 3.07757 3.87264 -0.111062 -0.00236513 1.23612
2858 7.67328 4.0891 3.59882 0.114118 -0.401431 0.856022
2354 8.72236 2.92029 3.95976 -0.88722 2.16427 0.314559
2266 9.63997 3.23957 3.84265 -0.269295 0.605433 -0.0748034
2988 8.85587 3.93556 3.43515 0.494028 1.21168 -0.489314
1349 10.6193 3.25206 3.01074 0.781833 1.07686 -1.63755
453 11.2068 4.0519 3.4074 1.77898 -1.16196 -0.148178
2314 9.99925 4.24357 3.15753 -0.74474 0.329596 -0.860082
2668 12.5137 3.62653 3.52974 0.0331564 -0.72309 0.925451
3440 11.7344 3.53189 4.25986 -0.129923 1.19872 1.30588
2431 11.4492 3.01259 3.4668 -0.20369 0.878934 -0.289112
1170 13.5851 3.33996 3.45471 0.0433252 1.21705 -0.751228
339 15.0031 3.98407 3.91268 1.19937 0.264125 -1.06969
3664 14.6999 3.10871 3.64892 0.632542 -0.40389 -0.148642
2145 15.7269 3.73303 3.19924 1.63679 0.607591 0.390044
3253 16.9457 3.4317 4.06733 1.01294 -2.06637 0.397354
2933 0.788521 5.36375 3.50024 0.634109 0.224539 0.91499
2567 1.82319 4.81973 2.96896 -1.11052 -2.13612 -0.257933
3469 2.81985 5.63795 2.88939 -0.740902 0.583461 0.290457
2687 1.83685 4.94646 3.96408 -0.950076 -0.796723 -0.000911918
1375 2.92839 4.77511 3.42527 1.77489 -0.771005 -0.362876
1780 3.98278 4.84747 3.92505 -0.256859 -0.349301 -0.000491393
2784 4.77696 4.9066 3.14447 1.13925 0.627332 -1.00252
1035 5.8195 4.40207 2.99245 -1.56734 0.659679 0.404718
199 5.84714 5.04516 3.9218 -1.0554 -1.39538 0.783264
657 6.99392 5.13117 3.31249 -0.977799 -1.0331 0.559445
3737 8.5119 4.61695 4.08191 1.85224 0.123386 0.94419
410 8.03871 5.2795 3.43177 0.32603 0.744905 -0.0616263
1847 9.26126 5.10135 3.39039 0.851205 -0.226724 0.303925
501 9.57499 4.33891 4.27164 1.85818 -0.616779 0.708771
888 10.6028 4.32148 4.18248 0.709771 -1.27982 0.0438283
301 11.8097 4.81154 3.87795 0.786417 0.14808 2.99433
3318 13.4116 5.29914 3.39637 -0.469303 0.138475 0.891792
2449 13.0083 4.45328 3.12102 2.17093 1.88615 -0.872539
2576 14.0158 4.48135 3.59827 -0.81832 0.159709 -1.87179
1708 14.954 5.53889 4.18968 0.609484 -1.55174 0.524759
799 14.8677 4.56792 2.98743 -0.445703 -1.08483 -1.14925
687 16.8448 5.60461 3.97385 -1.20905 -0.713823 -0.57511
2991 15.8047 4.91958 3.33673 -0.116316 0.0232851 -0.0771367
375 16.7571 4.286 3.30705 0.555448 -0.182199 -1.27212
188 0.211739 6.1483 3.06168 0.329953 0.609943 0.449985
3499 0.540257 6.28553 4.06541 -0.460679 -0.514365 0.418358
1600 0.856841 6.91204 3.05875 -0.346622 -0.733572 1.12866
14 1.44122 6.05892 3.62705 -0.61332 0.78761 -0.531313
2032 2.02114 6.98758 3.69262 -1.96269 0.67079 0.262242
2580 3.36901 5.77057 3.97134 -0.261693 -0.881197 -0.515443
1689 4.08361 6.5008 2.91894 -0.0308633 1.33988 -0.233416
1135 3.02742 6.68967 3.02853 0.281428 -0.0568617 1.09409
2043 3.32839 6.8332 4.22061 0.112394 1.18173 -0.442589
589 5.32546 6.40823 2.99612 1.16545 -0.250359 -0.132469
871 4.4838 5.78116 3.5789 -1.57593 0.0388651 -1.46709
3697 6.07442 5.72835 3.14864 1.49079 -0.547545 1.1035
3344 6.47407 6.59999 3.5314 -0.787611 0.294637 1.49572
2735 6.73468 5.78216 4.20723 -0.569202 0.082107 0.682556
640 7.50346 6.27663 3.73515 -1.12419 0.732079 0.433672
1265 8.96059 6.39152 3.62297 1.94339 0.504619 0.971464
1828 9.78848 6.95033 3.95371 -0.538988 -1.8483 0.236004
1271 11.3401 5.85814 3.94289 0.592206 -0.176099 -1.59955
805 10.6394 6.51982 2.9488 1.08227 0.398008 1.01967
3101 10.179 5.84939 3.79056 -1.15137 1.15331 -0.456501
1387 11.6137 6.92349 3.68035 0.596976 -0.114276 0.394409
1487 11.8155 5.80384 2.91625 -2.4474 0.511628 0.85011
2289 12.5332 5.83662 3.75512 -0.763191 0.735704 0.20526
1840 12.4373 6.99933 4.19211 1.33836 0.992058 -0.183565
3132 14.1587 5.99813 3.18663 -0.380163 -0.92697 -0.826608
249 12.8681 6.32855 2.99326 0.358461 0.286528 0.755182
806 13.4977 6.87369 3.74853 0.312653 -0.336348 -0.23549
3149 15.1724 5.70583 2.9786 -0.564298 -0.93835 0.142523
1015 14.9209 7.09976 3.30171 -0.361232 0.219033 0.978779
2982 14.5408 6.53038 4.14573 -1.00047 0.413263 0.481721
1770 15.5076 6.97032 4.23782 -0.33007 2.1918 0.183297
1733 16.0564 6.64515 2.91719 -0.898306 0.0140979 0.550238
1359 15.8469 5.99521 3.82228 -0.768413 -0.48165 1.40362
230 16.6247 6.73692 3.99677 -0.390481 -0.893669 1.20322
3884 1.06627 7.14093 4.25926 0.348241 0.585636 -0.193608
639 0.165157 7.70296 3.92572 -0.0313575 0.22347 0.257095
1964 0.834214 8.50091 3.15079 -1.29265 0.362333 0.422996
3675 2.67738 7.79711 3.45781 0.612763 -0.402439 -0.382052
370 1.67281 7.97412 3.90986 -1.07804 0.470689 -0.925094
2876 3.85587 7.49791 2.91027 -0.0136613 0.491018 0.696004
3817 4.47311 8.23657 3.45919 -0.589429 -1.29094 0.357076
3081 5.14506 7.53329 2.9378 0.142538 -1.077 1.33247
390 5.4341 7.99258 3.90464 -0.148015 0.260508 1.58823
2409 4.45977 7.22298 3.79814 0.133641 -1.0447 0.517254
2824 6.441 7.65637 3.61951 1.0004 0.876182 -0.763621
362 8.18242 8.20557 4.22812 0.163262 0.95178 -0.928605
969 8.39846 7.19318 3.97312 -1.07203 -0.937938 -0.363407
2079 7.46868 7.5337 3.48509 -0.927772 0.117083 -0.0508308
1831 9.50596 7.18502 2.86736 -0.401683 -1.00001 0.515732
2896 8.58735 7.62253 3.02335 0.634548 0.388512 1.11062
854 9.13411 8.02296 3.84421 -0.298848 1.01858 0.98128
2293 10.9161 8.49522 3.24425 0.136499 -0.808239 -1.32937
2108 10.6701 7.49566 3.51072 -0.374011 -0.104304 0.784057
1493 11.2959 7.92974 4.20165 -0.311809 0.83972 -0.175683
3484 12.5178 7.42076 3.2256 0.955459 -1.03906 -1.35617
1928 12.7615 8.33913 3.78785 0.626059 -1.51682 0.853749
2260 14.2016 7.88389 3.63225 0.0573575 -1.61556 -0.474191
2903 13.4753 8.13495 2.94401 0.354788 -1.32307 -0.691286
51 15.5082 8.41742 3.3567 0.327684 -0.828143 1.92729
524 17.053 8.03848 2.92742 -1.13728 0.613934 -0.0288143
543 16.2225 7.6441 3.71414 -0.51641 -0.435713 0.114399
3786 1.026 0.0719171 4.62813 -1.3975 -1.80893 -1.64859
1797 0.659569 0.240076 5.6629 -1.07486 -1.09614 0.557054
2754 1.17641 1.09551 5.49095 -0.0258271 -0.701276 -0.367741
2305 0.0669116 1.11948 4.64859 -0.193633 0.538531 1.00279
3358 0.0600107 0.0659635 4.70358 -0.145128 -0.729355 -0.550688
3855 1.71259 1.29444 4.37545 0.210268 1.55232 1.59184
3659 2.52422 0.876779 4.96864 0.937868 0.0165757 1.52377
3851 1.74373 0.354114 5.21399 -0.206754 -0.977946 -1.5455
685 2.69631 0.00890558 5.69532 -0.465061 0.263202 1.20505
1243 3.969 0.21275 5.30707 1.09934 2.83552 1.22968
426 4.40856 0.619568 4.4653 -0.150869 1.29551 -0.788443
2593 4.92171 0.827892 5.5937 0.33967 -1.06166 0.197178
1528 6.139 0.20897 5.5908 -1.72621 1.40484 -0.973169
1547 5.75524 0.825921 4.76031 -0.536614 -0.898964 1.16646
958 6.80455 0.919594 4.83056 0.42811 -0.331279 -0.512595
3078 7.79558 1.07272 4.56712 -0.445038 -0.11047 -0.176783
1270 7.68844 0.849259 5.60472 0.4386 0.987143 -0.838453
2697 7.51226 0.138692 4.67129 0.088328 0.173759 -1.49641
3575 8.62932 0.580763 5.05278 0.700458 0.5785 -0.568882