ITEM: TIMESTEP
53000
ITEM: NUMBER OF ATOMS
4000
ITEM: BOX BOUNDS pp pp pp
0.0000000000000000e+00 1.7099759466766969e+01
0.0000000000000000e+00 1.7099759466766969e+01
0.0000000000000000e+00 1.7099759466766969e+01
ITEM: ATOMS id x y z vx vy vz
1512 0.512708 0.893265 0.6078 0.691681 0.386923 -0.202301
2055 1.45042 1.30023 0.435706 1.40953 -0.384902 1.0547
1860 2.35189 0.195843 1.03627 -0.147676 -0.669951 -0.296762
2503 2.28493 0.565035 0.0827235 -0.739178 -1.24959 -1.09652
1097 1.49153 0.646254 1.39322 -0.594679 0.624108 0.116238
476 2.54799 1.18834 0.88544 -1.18485 1.13795 0.626539
3378 3.49298 0.765982 0.56407 0.198796 0.0564038 1.0868
1336 5.19904 1.40992 1.23916 0.69555 -0.740424 0.0453318
2057 4.64422 0.492191 0.578243 -1.14006 1.11033 0.0169402
2225 6.25441 0.976897 1.11133 0.901555 -0.821241 0.561409
2541 7.03005 0.0904793 0.894206 0.232183 1.08327 -1.34017
1980 5.92118 0.32192 0.478251 0.385199 -0.997729 -0.938016
2081 7.81466 0.814919 0.575728 -0.0373075 -2.67575 1.10906
2217 8.36301 0.1278 1.24806 -0.658212 -1.1789 -1.41841
3779 8.84166 0.0907292 0.238204 -0.194348 0.730045 -0.426897
1870 8.65948 1.23552 0.119774 -1.71063 0.502138 0.106136
1984 8.88827 0.96166 1.18157 1.25662 -0.148427 -0.259765
100 9.69595 0.413608 0.661261 -0.745973 -0.445266 0.273246
593 11.0149 0.845162 0.780321 0.241524 0.329597 -1.14789
634 11.6998 0.408705 0.0312623 -0.921401 -1.16049 -1.26253
3980 12.0669 1.02533 0.846065 -0.260675 -0.581473 -0.167421
2742 13.9775 1.04371 0.172378 1.98638 1.03081 0.35858
1254 13.6515 0.420232 0.932491 0.462784 -0.0526518 -0.141458
3159 12.9513 0.498071 0.177479 -0.620553 -0.571952 0.576762
3360 14.8216 0.886657 0.834026 -1.84526 0.639956 -1.13969
327 14.5183 0.0312257 0.260537 -0.409706 -1.62932 -0.182565
3174 16.4949 0.815709 0.395127 -0.624218 0.0111949 2.07808
3920 16.8113 0.38053 1.32848 0.937408 0.774184 -0.0174936
2479 15.7425 0.130788 0.967964 -2.27366 -0.0867526 0.270052
1151 0.0777297 2.7663 0.457023 0.255592 0.99624 0.282676
1170 1.11096 2.64931 0.731419 -0.635219 -0.808334 -0.464154
1805 0.519049 1.85538 0.759621 -0.0527908 1.1395 0.793541
1608 1.93261 2.24317 0.168193 -0.938556 -0.830358 1.40139
1612 3.00633 2.37983 0.889226 -0.1929 -1.15898 0.653226
75 4.12816 1.47042 0.796474 -1.56343 0.168281 0.743095
2206 3.34839 2.52206 0.00119365 1.98064 -1.40042 -2.67172
4 4.86665 2.34495 0.852608 1.63452 -0.841656 0.0303632
3691 6.46532 2.73909 0.526615 0.670465 0.0911911 0.832045
3970 7.0672 1.81267 0.776588 1.36782 0.0983096 0.972179
1900 5.86337 1.91117 0.629396 -0.5457 0.256981 -0.209326
416 8.08968 2.12046 0.962316 -0.087091 -0.835076 -1.37748
239 7.45961 2.58872 0.175075 0.58727 0.679249 -0.739967
3009 9.58934 1.83997 1.05538 0.566654 0.453941 0.597008
588 8.7239 2.8283 0.46894 -0.417669 0.549341 0.800872
429 11.2888 1.55326 0.148179 1.49424 2.00017 0.537794
2142 10.4102 1.75916 0.522679 -2.98561 -0.85782 -2.04702
675 12.0476 2.10987 0.844338 0.597765 -0.737278 -0.807654
157 12.8942 2.52475 0.393415 -0.421241 -0.311171 -2.06055
187 13.1361 1.59398 0.886567 0.623454 0.041545 1.92692
1966 15.653 1.66809 1.15266 0.14363 0.600009 -0.0602525
805 15.1184 2.60681 1.12843 1.41111 -0.569629 0.0131808
2002 14.2687 1.94202 0.741927 -1.32172 3.76586 -1.9101
2216 16.5212 1.90681 0.613065 -1.87498 -0.129883 0.717966
2294 0.527628 3.77995 1.13417 -1.05747 0.590919 -0.541529
1731 1.24096 4.07558 0.115942 -1.39681 2.61889 1.73475
164 1.67106 3.78603 1.28605 0.546396 0.21287 -0.240703
1815 2.69804 3.43196 0.636724 -0.63647 0.0862254 -0.0876914
733 3.94815 4.23478 1.14486 -1.2621 0.697337 -0.14833
3257 3.97354 3.41995 0.464624 -0.0557786 1.58632 1.66978
2735 4.91841 3.3047 0.628761 -0.629007 0.816317 -0.471024
1667 5.94359 3.47682 0.96058 0.380859 -0.367128 -0.219359
271 6.86855 3.73618 1.00493 0.608565 -0.136725 -0.703777
1383 7.13887 3.71659 0.056121 0.907465 -1.42856 -0.92209
913 8.17663 4.13089 0.812325 0.370707 -1.46218 0.478407
210 7.71233 3.10807 1.28772 1.97619 0.824101 -0.0353194
1120 9.24379 3.87305 0.429859 1.65499 1.38451 0.188055
1076 10.9591 3.32371 0.546571 0.292359 -0.955199 0.469565
273 10.2459 4.14044 0.446789 -1.03831 -1.31262 0.412889
231 10.0167 3.17754 0.969994 -1.25884 1.57729 -0.891998
191 12.1416 3.42398 0.325402 0.477302 -0.200957 -0.25994
41 11.7034 3.3892 1.42378 0.129847 0.470969 1.90172
3552 11.5526 4.19773 0.759932 -0.717804 -1.23378 0.8316
2387 13.5582 4.00392 0.727497 0.705579 0.844574 -0.065074
2515 12.9474 3.32596 1.27077 -0.513741 0.62027 -2.19678
1791 14.2806 3.13676 0.44799 1.25376 -1.85066 -0.10953
2901 14.5904 4.22183 1.22233 1.67004 0.734018 -0.996522
3161 15.388 3.48042 0.674926 0.866175 -1.61315 0.0332805
1539 16.211 2.99672 0.381553 -0.847328 1.07942 1.36342
1341 16.5268 4.20059 0.624146 -1.93238 1.33819 -0.0361138
2909 0.557781 4.80729 0.758077 2.29306 0.00691396 -0.169596
2059 1.07962 5.57608 1.301 -1.01826 -0.119455 -1.16129
3869 2.64677 5.34495 0.190239 -0.216672 1.78031 0.286959
549 2.49662 4.41113 1.0671 0.886144 -0.964862 0.115169
158 1.73201 5.02321 0.74749 0.337614 0.421005 -1.29458
1710 2.14341 4.35602 0.123586 -1.29122 -2.07433 3.17863
119 3.25985 4.44065 0.264024 1.46342 -0.0889992 -0.448459
2403 3.4688 5.27092 0.757565 -0.614855 -0.352354 0.384712
3821 4.7034 4.29613 0.421342 0.352367 -0.431687 1.87071
562 5.07685 4.77747 1.26012 -0.217556 -0.884306 -0.729284
1414 4.50143 5.45824 0.553737 -0.610628 0.0699315 0.920369
3090 6.41513 4.56361 0.660994 -1.67184 0.781819 -0.814874
591 5.83248 5.51617 1.06592 -1.16885 -0.231606 -0.415612
465 5.71259 4.99839 0.124894 -0.147907 -1.41052 0.0393973
3057 8.10197 5.58268 1.32262 0.417169 -0.179819 -0.520657
3736 7.30844 4.91994 1.31194 1.11597 1.15479 0.503818
1069 8.21685 5.35437 0.188266 0.238522 -0.146719 0.678784
900 7.4056 4.58005 0.282647 -0.811592 0.506858 -0.863732
3316 9.33081 5.10589 1.07577 -1.47818 1.0024 -2.0491
677 11.3837 5.04322 1.33374 -0.415879 0.372564 1.52975
3660 10.3597 5.24553 1.42128 -0.356902 0.481281 -1.08118
4000 10.1761 5.32046 0.458826 -0.432153 0.288615 -0.0568983
3919 12.3893 4.49179 1.21853 -0.21557 0.198065 0.306518
1835 12.1925 5.63186 0.208722 0.129179 -0.479958 0.236617
144 13.0403 4.99256 0.389252 1.11336 -1.77855 0.763663
3555 14.0329 4.91615 0.19364 -0.0336668 0.409248 0.254826
2050 14.9886 5.28981 0.543633 0.645831 -1.09489 -0.403637
76 16.7841 5.4285 1.04742 -0.76596 0.672365 0.875234
1521 15.8712 4.95581 0.0186131 -0.136032 -0.0773702 -0.963204
2679 15.6861 4.63785 1.01622 0.310413 1.22727 2.08347
891 1.38106 6.02369 0.378334 -0.423719 0.0717183 1.08014
433 0.75689 7.05068 0.621304 0.546544 0.0741783 -0.00913442
984 2.30491 6.17354 1.17585 -0.00400069 1.9155 0.347463
2529 4.27422 6.62434 0.822206 1.63506 -0.526191 -0.448031
637 3.1407 6.87629 1.24469 -0.453932 0.601874 -0.713111
3406 3.35718 6.98118 0.135008 0.535053 -0.846006 -0.42072
3124 5.58809 6.58321 1.06633 -1.59338 -1.19512 -1.13081
331 5.5147 5.97983 0.15599 -0.342827 -0.700357 -0.0200674
1365 6.65463 5.70757 0.487764 -0.407286 -1.30345 0.136899
2558 6.28729 6.67329 0.388592 -1.3437 1.34647 -1.0665
1590 6.71257 6.34616 1.40649 1.42778 0.363234 -0.204576
2525 7.57895 6.21186 0.496729 -0.763974 -1.72502 -1.77058
2614 9.15946 6.21608 0.435306 -0.87954 0.56217 -1.75048
2003 8.69557 6.83316 1.11288 1.31756 -1.47686 -0.159083
3252 11.0997 5.74506 0.416131 0.482171 -0.538519 -1.07724
1683 9.99656 6.17806 1.06767 -0.446068 0.400229 -0.596639
920 12.5819 5.71839 1.28826 1.34542 -0.0174455 -1.10711
136 11.6605 6.58632 0.681339 -0.500501 -0.196357 0.835055
3440 13.9832 6.94768 0.895331 -1.31405 -1.82064 1.48392
2839 12.878 6.80857 1.12628 -1.43988 0.872718 0.504928
1557 13.4992 5.92404 0.737964 -0.45824 0.262899 0.0167273
2611 14.7174 6.37103 1.26477 0.218673 1.12502 0.585399
595 15.6234 6.52527 0.47612 -0.0231115 0.0522455 0.912496
3642 14.6149 7.00136 0.0651176 0.26547 1.60329 -0.804486
687 15.9024 5.83812 1.38818 -0.800759 -1.62785 0.665015
978 16.6675 6.51026 1.05723 2.41191 0.750072 0.141731
832 1.26374 7.80916 1.1845 -0.444181 -1.04028 0.646499
3979 1.20285 7.7952 0.0324159 -1.22337 -0.14167 2.21903
3581 2.28717 7.42201 0.773707 -1.27012 -1.35316 0.966569
479 3.72014 7.65375 0.890913 -2.49067 -0.641331 0.442682
1646 3.15804 8.26057 0.342831 -0.0809295 -0.226969 -0.698423
1214 4.64074 7.8978 1.26824 -0.392889 -0.421374 -0.123676
1591 5.61769 7.75779 1.20171 -1.49936 -1.29912 0.331254
1495 5.03654 7.2377 0.472654 0.382442 1.97828 -0.839632
2108 4.96411 8.20225 0.297238 -0.0694482 -0.73266 -0.866727
3826 5.91539 8.25032 0.08104 0.356293 0.00215608 0.186756
3107 6.69555 7.67573 0.389055 0.392509 -2.25871 -1.34516
1806 8.10834 7.24575 0.336869 -0.648491 0.238196 1.02857
174 7.34502 7.1268 1.09037 -1.48115 -0.177726 0.353415
1511 7.62781 8.07111 0.759204 0.645421 -0.722535 -0.731913
94 9.51939 7.47305 1.16535 -1.14393 0.493244 0.397395
873 8.56513 8.18874 0.201407 0.174145 0.935412 1.04965
3031 9.24157 8.51505 1.12537 0.404511 0.703518 0.126542
3322 9.46389 7.33223 0.188656 -2.52157 -0.0687822 0.436991
1583 10.8692 7.21098 0.557453 -1.59879 0.922313 -0.304216
1656 10.1207 8.14102 0.46899 0.321728 -1.38313 -2.74585
3223 11.361 8.11372 0.295388 -1.00113 0.591158 -0.170439
711 12.757 7.96588 0.5576 0.0312345 0.823367 0.807781
344 11.8413 7.62054 1.12359 -0.294237 -0.0404432 0.890107
3603 11.8799 7.24842 0.0350135 -1.23577 0.091556 -0.0478502
631 14.2705 7.99066 0.889974 1.16291 -0.260517 1.1871
52 17.0049 7.76924 0.650442 -0.626373 -1.11849 -0.998186
2789 16.0014 7.81034 0.960845 0.506307 -0.0483724 0.213222
2393 0.116947 1.29042 1.59816 2.69435 1.04197 0.652997
2898 0.514685 0.59142 2.19478 -0.436133 -0.0279228 0.502932
1921 2.5043 0.869487 1.96089 -0.471171 -0.401456 1.07383
2247 1.62182 1.00664 2.48632 0.353051 -0.960758 0.354711
1760 3.68107 1.38224 2.43858 0.47824 -0.079218 -0.0476041
3410 4.13722 0.718038 1.55531 -0.354 1.03311 -1.38392
1089 3.37176 0.232177 2.25767 -0.841519 1.73987 1.26673
1268 5.54906 0.658005 1.91842 2.22296 -0.0614149 -0.25573
1045 4.79849 1.02319 2.45784 1.02184 -1.35755 1.65893
1712 6.52058 0.971361 2.38731 0.40445 0.626469 0.137704
1041 8.31859 1.01794 2.1262 1.088 1.33392 0.765604
1891 7.43024 0.760901 1.61745 -0.33771 -0.662325 0.666978
2593 7.49917 0.165013 2.64151 0.187851 -1.03049 0.461723
1085 9.3526 0.222208 1.75188 0.892231 -0.34861 -0.704487
1452 10.4401 0.0750479 1.49051 -1.33186 -1.52795 -1.03932
1090 10.0072 0.717865 2.44802 1.66081 -0.913728 -0.347378
743 10.2326 1.09063 1.48294 -1.83564 -0.776422 -1.62912
3231 11.0371 0.601532 2.22812 -1.6849 0.857436 1.25757
917 12.7731 0.123093 1.69708 2.2996 -0.757253 0.96586
535 11.9371 1.21746 1.89354 1.35201 -0.89471 -0.754909
2692 11.8858 0.137758 2.16752 -0.786913 0.504707 0.551796
3836 13.8601 0.343176 2.06214 1.70147 0.971604 -0.709128
2485 13.1081 1.12191 1.82699 0.934274 -0.242023 -0.874527
2145 14.0008 1.30141 1.47154 -0.263568 0.772177 -0.127632
1621 14.1221 1.34321 2.49084 -1.40091 -0.864505 0.488814
3761 15.4908 0.20885 2.52263 -0.107175 0.206937 1.42091
3020 15.1164 1.20855 1.94605 -0.0797449 0.208155 0.834787
1696 16.0458 1.00988 1.74844 -0.925548 -0.858384 1.20072
3510 16.5672 0.625996 2.71004 -0.574572 -0.712845 0.0352824
3795 1.04362 1.47299 1.89748 1.6861 -0.896197 -0.324431
456 0.0645439 2.74271 1.54552 -1.91771 -1.6848 0.109407
3706 1.2695 2.19533 2.65354 0.0381286 -1.19554 1.75851
797 2.20605 2.72856 1.59146 0.461552 0.71749 1.11478
3966 2.37944 1.85127 2.38737 -0.795584 1.07182 -1.80797
72 1.89884 1.78617 1.46498 -0.318924 0.241673 -1.49082
2588 2.36335 2.83403 2.74039 -1.06313 0.835064 -0.835467
735 3.62221 2.22405 1.89633 -0.167061 -0.658576 -0.214972
897 5.37193 2.74734 1.65499 1.11033 0.581615 0.106725
3363 5.4809 1.8642 2.14022 1.26166 0.745444 0.720639
354 4.48169 1.73741 1.81219 0.231529 1.44749 0.384271
2154 4.6127 2.69597 2.45673 -0.718101 -0.318821 -1.29475
3636 6.42569 1.99322 1.58129 -0.801537 -0.61701 1.69178
299 6.12419 2.54515 2.68668 0.965695 -0.199037 0.161345
1152 7.53202 2.37086 2.01081 -0.799132 -2.0449 0.889601
321 8.37346 1.97347 2.71654 -0.414717 0.695655 -0.797871
113 9.35505 1.45764 2.20025 0.6284 0.418099 -0.294922
523 9.69785 2.47744 1.75961 1.07404 -1.74612 0.416818
3403 8.60567 2.28753 1.77643 -0.709079 0.307729 -1.53179
3338 11.0571 1.68012 1.45344 0.184477 -0.247338 0.0453505
1842 10.2673 1.86624 2.40981 -1.17932 0.321871 -0.28925
2235 11.3128 1.80845 2.50743 1.33521 -0.875448 0.569345
1547 12.1754 2.29361 1.98228 2.0349 1.30727 -0.688444
2077 13.3753 2.37418 1.50933 2.03086 0.99109 0.0488266
2959 13.243 1.9549 2.47712 -0.882653 2.1499 0.644557
477 14.2309 2.39075 2.28584 -0.805654 -0.404847 0.049655
2354 15.1893 2.13985 2.4712 -0.45572 -0.40488 -1.39903
3142 16.4048 1.69304 2.35049 -0.134489 0.833435 0.077975
2351 15.9561 2.59367 1.84905 1.11336 0.766748 -1.67394
101 1.05942 2.87444 1.92648 -0.541434 1.06827 -0.233007
3470 0.0927218 3.77761 2.1282 0.237232 1.08231 -1.87972
1087 0.900175 4.20238 2.83812 -0.0476936 0.390202 0.228353
688 2.66061 3.74686 1.91024 -1.65102 -1.99918 -0.415667
664 1.80119 3.71912 2.73167 2.14233 0.239514 0.124729
1003 3.78759 3.08611 1.42794 -0.671341 0.598459 -0.565303
2867 3.97107 3.96307 2.25 1.18334 -0.299122 -1.61195
941 3.34535 3.09735 2.3122 -0.615995 -0.586262 -1.93455
1408 4.89764 3.79977 1.52386 -1.87034 -0.474879 0.754034
3445 6.59994 3.11031 1.85175 0.857169 0.827458 -1.74249
829 5.70803 3.63913 2.16486 -0.471609 -0.670593 -0.346486
2410 6.97114 4.1986 2.20316 -0.515198 -0.970911 -1.61583
478 6.5588 3.39734 2.84042 -0.0683653 0.972777 1.41491
35 7.70172 3.51085 2.20317 -0.34911 -0.241993 0.434138
3659 8.53843 3.00966 2.64123 0.996398 1.22358 1.13048
282 8.71437 3.60131 1.54796 0.337176 0.329143 -1.23323
464 9.63388 3.27552 2.50166 -0.382412 -0.421772 -0.395792
3637 10.3803 4.11686 2.66274 1.83668 -0.476538 0.162884
3835 10.3242 3.95796 1.53802 -0.913217 -0.605874 -0.379336
1195 10.9122 2.95811 1.90136 1.93295 -0.722501 -0.525602
2854 12.7393 3.93628 2.08461 1.35521 -0.528412 -0.31338
2640 11.7399 3.28053 2.59319 -2.82511 0.52815 0.58206
1175 12.904 3.01076 2.49665 1.57519 0.325389 0.110229
2999 13.6292 4.01461 2.65797 0.139028 0.969342 0.57857
3317 14.3529 3.11367 1.44536 0.219341 -0.83347 -2.85944
1718 15.451 3.74044 1.8445 -0.725755 -0.457533 -0.107067
1545 14.5215 3.56721 2.29362 0.371111 -0.805 0.865536
1312 16.3574 3.41938 1.4504 1.28845 -0.38111 0.991793
270 16.3764 3.50066 2.66029 -2.01717 -0.896513 0.666785
969 0.967892 4.43244 1.80777 -0.0780918 -0.183252 -0.168047
1400 0.0910033 4.79908 2.17623 1.33077 1.29704 -0.284475
3910 1.96809 4.59823 2.07596 -0.380642 -0.830455 -1.02862
498 2.70991 5.30902 1.76329 0.571855 0.556291 0.204114
1436 3.2006 4.57256 2.32507 0.393044 0.235984 1.22692
779 4.2 4.9599 1.91418 1.63262 -1.87571 -0.425502
2162 5.47582 5.19636 2.33142 1.10813 0.738222 -0.0182541
3260 6.78464 5.49371 2.13592 -1.92815 0.815741 2.26198
1262 6.14327 4.57334 1.6224 1.16519 -1.62075 0.789926
2774 7.7362 4.94992 2.30145 0.0404765 0.82814 -0.0348762
2303 9.12538 4.28939 2.73994 1.60329 1.6636 0.000203145
445 8.89116 5.10396 2.03146 -1.0641 0.251079 -1.06023
811 9.83701 4.99114 2.36845 0.652374 -1.84112 0.62346
2994 11.3938 4.31398 2.17088 0.180342 -0.0126704 0.804397
127 10.9503 5.33602 2.47278 1.8498 -1.95701 0.330998
2603 12.1138 5.4796 2.09214 0.947417 1.58285 0.923032
424 13.682 4.64582 1.75342 0.700768 -0.6132 -0.0775005
1344 13.4397 5.23968 2.7503 0.341326 -0.890685 -0.668484
3723 15.4599 5.14295 2.12872 -1.30615 0.168602 0.955813
3890 14.5726 5.2392 1.49193 0.341097 -0.454718 -1.73407
339 15.2039 4.30777 2.71723 -1.4548 1.26211 -0.51993
3749 14.5393 5.2281 2.51727 0.154245 0.36675 0.0511946
3868 16.3585 4.41125 1.82397 -1.08428 -0.927301 1.09045
2903 16.4802 5.57011 2.27286 -0.0809361 0.619407 -0.135947
842 1.30295 6.69863 1.66784 -0.476698 -0.0511086 0.808727
754 0.310771 6.10338 1.82003 0.237705 1.03968 -1.24031
980 0.92695 5.94006 2.69907 -0.390775 -1.16598 -0.389848
2722 2.15902 6.19486 2.31853 0.290188 1.14028 -1.78094
3760 4.21379 6.92467 1.79712 -0.968426 0.506214 0.247805
2442 3.10023 6.13092 2.81944 -0.481795 -0.439453 -1.65244
460 3.75637 5.9833 1.68697 -0.358714 -0.858825 0.607293
3267 4.8341 5.79377 1.65649 -0.278171 1.35092 1.59808
1426 5.68401 6.30509 2.06367 -0.248985 -0.0483051 1.93104
3300 4.67923 5.8556 2.75024 0.0386246 -0.454551 -0.698294
1747 8.41354 5.86063 2.6418 1.52772 0.768024 -1.07789
1864 7.88512 6.46943 1.783 0.569905 -0.994811 -0.802839
1983 9.09428 6.16483 1.86516 0.644086 0.101619 0.498609
3580 8.8605 7.10305 2.41179 -0.106232 0.451156 -2.06509
99 11.0737 7.00941 1.70207 1.28273 0.199566 -0.474278
398 11.1596 6.02918 1.64346 -0.342888 -0.796739 0.25458
481 10.2265 6.16705 2.11822 -2.0399 2.00883 0.0390494
2250 11.4453 6.5668 2.60432 -0.439582 -0.0149352 -0.728133
3011 12.1734 6.59278 1.79452 0.26603 -0.312503 -1.01977
3419 12.5491 6.15541 2.75608 -0.153648 -0.511153 0.596328
3664 13.4812 5.79194 1.72904 0.592047 0.0242879 0.631672
1548 13.2699 6.90617 2.08191 -0.302448 0.642021 -0.803082
3802 14.2741 7.05942 2.25019 0.219666 -1.83024 -0.94184
1099 15.1899 6.20653 2.29398 0.866695 0.0221665 -0.691125
1896 15.9453 6.73657 1.71175 -1.45862 -1.38006 -1.17472
3259 16.8393 6.48918 2.79572 1.41844 0.53488 -1.02288
2388 0.377068 7.2936 2.59259 -1.42264 -1.07304 0.0537067
2328 0.181719 8.3117 1.63339 -0.290086 0.321839 0.518743
1331 0.142478 7.18688 1.51905 0.299502 1.19482 0.322627
3250 1.30886 8.15523 2.12049 -1.0896 -1.60301 -0.939632
524 0.578886 8.28903 2.77173 -0.806662 -0.769821 0.763493
1692 2.41279 7.28434 2.02936 -1.80175 -1.99024 0.181572
1136 3.82786 8.41465 1.91379 -1.30358 0.901814 1.56818
3887 2.90351 8.20984 1.45531 -1.48315 -0.228555 0.600637
3823 2.87885 8.27903 2.49861 -0.128334 0.478325 -1.70834
3651 3.48191 7.42706 2.28063 -0.870428 0.141855 0.176487
1577 5.17912 7.26955 2.01386 -0.863818 1.48468 1.91971
2550 4.65543 8.09396 2.43529 -2.31158 0.331571 -0.146462
2849 6.38818 7.29622 1.81456 -1.6718 -0.236683 -0.487815
229 7.01531 7.754 2.77065 -0.856341 0.880737 0.817279
2813 6.27126 8.41127 2.14027 1.15868 0.695447 2.15437
97 8.45096 7.74423 1.59564 0.750025 -0.99261 -0.602831
3408 9.94595 7.18935 2.2752 -0.840223 -0.982457 -0.41862
2633 8.6211 8.07893 2.8271 0.409345 -0.839843 0.75764
453 9.3816 8.03619 2.14279 0.426818 -1.32284 -0.795391
1626 10.64 7.96178 1.43522 0.0181726 -0.0167209 -1.19215
1168 11.2518 8.26272 2.24956 -0.686804 -0.560406 -0.07813
189 10.2678 8.23915 2.70491 0.287593 -0.354938 -2.03657
3918 12.4431 7.59663 2.29141 -0.0894021 -1.42747 0.4322
2605 13.7195 8.47395 1.74531 -0.022416 0.98105 -1.69827
3318 13.6853 7.809 2.71265 -0.300927 2.13092 -0.992551
365 15.163 7.69007 1.7148 -1.65805 0.939115 -0.960536
998 14.6909 8.15535 2.58644 1.15493 0.549461 1.50543
2013 16.6745 8.53172 2.53237 -0.32533 0.671877 -0.624298
2894 16.2717 7.76137 2.05374 -0.552169 1.18816 -0.0452264
651 1.228 1.33446 3.38097 0.680633 -0.237806 0.110124
212 0.38608 0.998378 4.13115 0.920303 0.142802 -1.54101
1138 1.38237 0.225344 3.15276 -0.65592 0.0970296 0.693681
1200 0.0058108 0.115352 3.5407 0.499721 1.65555 -0.586927
1325 2.14189 0.450386 4.05845 -1.01388 1.16619 -1.4884
714 2.53116 0.320955 2.95406 0.497715 -1.08599 1.22482
3145 4.02721 0.551598 3.07064 -0.983196 0.717878 1.73507
1043 2.96855 1.32355 3.10383 -0.186901 2.16148 0.1656
3641 4.40123 0.121106 3.90621 0.795573 -0.130513 0.847548
3786 5.63956 0.830018 2.9265 0.563579 -0.0792912 1.46997
596 5.59328 0.168793 3.82021 -1.02115 -1.41973 0.129623
3808 4.96855 1.17544 4.00781 -0.0020061 -0.463062 1.36738
943 6.53862 0.807027 3.41197 -2.03471 -2.08405 0.688175
3767 7.39866 1.37373 2.86402 0.397839 0.0495595 -1.14846
737 7.38318 0.212445 3.66023 1.38145 -0.614744 -0.506015
501 8.87291 0.527021 4.13868 -1.36919 1.37029 -0.961051
1209 9.70401 0.884964 3.54243 0.723413 0.459014 0.815832
3627 8.55034 0.762987 3.1474 -0.469546 0.0980115 2.09446
1318 11.0445 0.942865 4.26928 -0.63699 1.03773 0.944109
888 10.7964 0.755198 3.21834 0.507982 -1.08099 -0.884503
2092 10.0189 0.188871 4.15576 0.689667 -0.553034 -0.00219567
434 12.4314 0.38679 3.98374 1.36611 1.38364 -2.34866
847 11.9671 0.999055 3.04035 -0.538073 -0.19357 0.122703
2451 13.2191 0.773552 2.86581 -2.47856 -0.539546 0.920564
951 13.9894 0.916243 3.66774 -0.0756218 -1.55139 0.872985
963 14.6309 0.519318 2.98914 0.809925 -0.563119 -0.131069
319 15.5967 1.20196 2.96537 -0.34951 -1.37547 0.643622
390 15.0321 0.378576 3.98409 -0.967604 -0.670771 0.690844
2945 16.3094 1.11903 3.69048 -1.1373 1.38728 1.05282
3059 15.9445 0.25498 3.44551 -0.737784 -0.432991 1.2785
2826 0.246126 1.5028 2.88248 0.455231 2.20012 1.13682
2446 1.34628 2.81435 3.81921 1.87637 -0.969054 -1.32786
1976 0.628641 2.14133 3.86408 -0.54142 -0.757527 -1.05347
904 1.99048 2.09092 3.48036 -0.0210258 0.628056 0.0090146
618 3.89649 1.4861 3.80916 0.266057 -2.58703 -1.6818
686 3.14738 2.22735 3.45522 -1.09681 0.643149 1.59896
3228 4.77728 1.82934 3.06485 -0.397979 -0.658323 0.430622
1841 4.54106 2.82889 3.68305 -0.231872 0.23364 -0.521521
3975 5.61582 2.76091 3.58926 0.260833 0.8109 -0.129107
2357 6.72405 1.96421 3.39585 1.27615 -1.15411 -0.117141
1638 5.77217 1.68951 3.59154 1.40295 0.266972 1.45617
2369 7.68496 1.95844 3.9107 0.0349515 -0.151864 0.381774
1847 7.65696 2.7772 3.36377 1.21114 1.81542 -0.362786
2363 9.43808 2.18918 3.05351 -0.848544 1.69854 2.33044
316 8.64198 2.74552 3.79906 -0.0306911 0.116629 -1.5428
1413 9.06816 1.62699 4.01247 0.196223 0.715789 -0.0965153
724 10.3548 1.75605 3.49335 -0.154364 -0.113525 -1.70344
3911 10.996 2.60646 3.21842 -0.505486 1.23005 1.09116
3290 11.4359 1.60079 3.61437 -0.612681 -0.690735 1.66461
3924 12.2382 2.29634 3.00011 -1.87566 -1.29739 -0.533105
3765 12.013 2.35555 4.04362 -1.02333 -0.658834 -0.450552
418 12.8862 1.58168 3.44303 -0.544305 0.489939 0.312096
3427 13.9375 1.97487 3.4484 0.348338 0.0475908 0.244546
3450 12.9878 2.6627 3.70538 -0.334864 1.75851 1.50742
421 14.8824 2.53805 3.43191 -0.303857 1.02964 0.11471
3472 14.9698 1.46281 4.05735 1.23931 1.49853 -1.61902
3777 16.8215 2.63035 2.86622 1.13955 -0.0184954 -0.571591
1178 15.9882 2.12538 3.15594 0.5413 -1.01719 0.255908
2756 16.7178 2.32054 4.09506 0.898651 -0.236748 -1.25392
2010 0.638575 3.232 3.26363 0.0381524 -0.1345 -1.64935
1682 0.919481 3.87877 4.11135 0.65962 -0.222451 0.00203667
2480 2.38756 3.13396 3.69962 -0.502868 0.280059 -1.65182
2762 1.88918 4.19752 3.69547 -0.51194 -0.0706102 0.720644
3841 2.90874 3.80287 3.09501 1.07039 -1.24653 -1.8288
1643 3.85535 3.84355 3.66514 -0.108325 0.186286 -0.282126
2172 5.09526 3.61195 3.06836 0.108759 -0.323702 -0.980992
2331 5.53856 3.90945 4.00935 1.0938 0.680048 -0.822103
1854 6.97859 4.04377 3.48755 -1.38897 -0.894821 1.51694
2987 6.55995 3.00245 3.80407 -0.675441 1.11287 0.246328
1989 8.39955 3.87373 3.31348 -0.5301 0.298914 0.923958
473 7.65275 3.76387 4.11337 -0.795108 1.86986 -0.483863
2853 9.73146 4.0317 3.53965 0.31996 1.33969 0.656192
726 9.99347 3.1312 3.40285 0.684865 -0.582722 -0.749687
459 10.9366 3.6109 3.26252 0.146164 0.952419 -1.38271
2540 12.8068 3.89085 3.17272 -0.944222 0.103561 1.96571
230 11.8857 3.27812 3.63565 -0.619304 -1.41503 -0.399766
753 13.9898 3.27218 3.42115 0.543557 -2.8967 -0.295851
3529 12.8376 3.69359 4.19242 -0.595925 -1.17515 0.304084
2724 14.9156 3.64801 3.86034 1.79661 0.181389 0.206603
2132 15.4391 3.13896 2.93908 -0.671617 0.0627009 1.27428
1648 15.8595 3.07722 3.96036 -0.879984 0.989714 0.957004
3166 16.9272 3.56216 4.20238 -2.13992 1.14413 1.59215
2237 15.8754 4.0263 3.46906 0.512537 0.213639 -0.614539
2567 1.03126 4.91859 4.05701 -0.229973 0.981622 0.275058
2727 0.145626 5.27524 3.27524 -0.0232825 -0.283593 0.161404
2293 0.0242711 4.68627 4.16755 0.161782 0.152942 -0.143818
3200 2.67529 5.26304 2.95782 0.353183 0.183694 -0.413045
3923 1.58983 5.02289 2.88451 1.72688 0.618845 0.104583
488 1.81527 5.59907 4.19935 0.315268 0.232631 0.690575
342 3.03738 4.81489 3.9325 1.18332 0.161852 0.0711423
1527 3.71743 5.25268 2.88279 0.0765576 1.93499 -1.55447
2883 4.71733 4.7364 3.03661 0.0236516 0.568773 0.31519
491 4.49489 5.27982 3.98644 -0.904727 -0.575082 -0.136952
1201 5.61702 5.04998 3.82371 1.35956 -0.680453 1.99617
2079 6.85936 5.09474 3.15803 1.27753 0.587805 -0.361768
1321 6.07561 4.57 2.93974 2.49967 0.306512 1.1571
3452 6.76599 4.84354 4.21819 -0.934114 -1.10087 1.43322
2902 7.50535 5.61358 4.1038 0.694869 1.18208 0.419144
3551 8.25022 5.01631 3.49363 -0.390061 1.74188 1.01541
1786 9.58337 5.06028 3.72256 -1.36226 -0.314663 -0.0770445
587 10.7065 4.88533 3.47275 -1.16727 -0.412494 -1.93033
3960 12.361 4.91106 2.86174 -1.22027 0.182573 -0.851925
2449 11.885 4.3572 3.54792 -0.701916 1.00935 0.587092
2434 11.8146 5.64946 3.54694 -0.440487 1.63282 -2.31174
2044 13.5355 4.46167 3.61379 -0.0877871 1.03681 1.07748
2379 12.8979 5.31096 3.59849 0.55368 1.22292 0.30563
3523 14.1673 5.53228 3.88894 -0.389794 0.96613 0.347209
3008 14.5954 4.57967 3.50645 -1.0121 -1.27618 1.08759
415 15.4757 5.14012 3.19618 0.272692 0.0622153 -0.249633
1909 15.3772 4.4825 4.1746 0.67618 -0.0213527 1.80618
1813 16.5963 4.5595 2.93991 -0.0713338 1.26188 1.19253
1937 16.1479 5.35109 4.26066 2.03271 -0.0416952 -1.29902
2107 0.981261 6.18167 3.67802 0.0836136 0.880958 -1.64588
2800 0.0270561 6.6919 3.67187 -0.648203 0.635529 -0.674828
2333 2.80502 6.34944 3.92235 -1.94321 0.26365 -1.40227
1833 3.94576 6.23182 3.7123 -1.78394 -1.28892 0.78731
1640 4.16328 6.77493 2.89366 0.286192 1.64333 -0.0773676
2302 5.32014 6.95261 2.9984 -0.673614 0.549178 0.939446
1265 5.61453 7.09816 3.99676 0.669113 0.454891 -0.676525
1442 4.9766 6.20636 3.74714 0.0311215 0.332114 -1.08702
2488 6.08995 5.7673 2.93745 1.76544 0.593169 1.33536
1286 6.42635 6.76538 2.91465 1.14361 -0.623627 0.428595
3144 6.38919 5.94355 3.92516 -0.334171 -1.52762 0.172803
2695 7.07128 6.70152 3.74292 -0.379377 0.338965 -0.491348
3796 7.21269 6.01195 2.98752 -0.687983 0.440296 -0.268309
1732 8.38858 6.22103 3.62629 1.1771 0.766865 -2.95023
656 7.75378 6.95277 2.91743 -1.45444 1.06527 -0.600879
3204 9.26551 6.3025 3.00489 1.08319 0.38438 -0.18537
1676 9.26577 6.14986 4.20728 0.0275963 -1.34568 -0.333563
2385 10.2199 5.75907 3.10744 -0.258168 1.16922 -0.550976
264 10.4457 6.85494 3.97959 0.231178 -1.03615 0.608221
106 11.2112 6.12002 4.21711 -0.198853 0.328799 -0.0143036
621 11.7408 6.77464 3.61229 -1.50157 1.1998 -2.54168
2412 12.881 7.07468 4.24635 -0.263581 0.19675 -0.825503
1050 13.0106 7.04586 3.07141 0.55925 0.310398 0.594543
2551 13.6997 6.27091 3.13772 0.15958 -0.524096 0.634652
2508 15.3321 5.92975 4.14293 0.726439 -0.795841 0.462881
2580 14.8084 6.19229 3.3384 -2.01149 -1.63467 2.38495
3046 14.8714 6.89788 4.25171 -0.108254 -0.183748 0.0278423
1597 15.9164 6.70591 2.85839 1.1349 -0.992767 0.0513098
2537 16.2842 5.86276 3.40734 1.00873 0.12122 1.06808
2229 15.9253 6.8791 4.13441 0.835537 -0.267808 -2.49291
2375 0.862389 7.31019 3.54458 -2.51776 -0.852468 -0.921048
11 1.86887 7.17233 3.0069 -0.527698 -0.0109411 -1.75804
3254 1.44894 8.17002 3.41477 -1.38091 -0.427856 -1.80277
3157 1.69049 7.25994 4.09852 -0.801 -2.09914 0.508884
532 2.6549 8.14148 3.47829 -0.808649 0.183581 -1.00601
2208 3.79542 8.25664 3.13887 0.228313 0.219315 -0.174145
531 3.29985 7.43585 3.69118 -0.647242 -0.564158 0.222694
2977 5.28518 8.02083 3.98151 0.403939 -0.0421004 0.260625
602 4.50434 7.52011 3.5459 1.05393 0.834783 0.867367
1715 5.90835 8.06531 3.04088 -0.0303258 -1.17366 -1.4387
1582 6.76882 7.80309 3.79682 -1.46498 1.36801 1.53936
118 7.77256 8.19133 3.37969 0.880908 -0.651827 0.337236
3493 8.60616 8.52129 3.92796 -1.03975 0.750036 -0.266738
3837 9.63119 7.36859 3.24291 0.104184 0.122313 -0.22118
575 9.6245 7.63713 4.18368 -1.60841 -0.184776 -0.935923
655 8.5818 7.34042 3.77768 -1.93968 0.700603 0.0906856
2664 10.7769 7.37067 2.88118 0.636989 0.65093 0.614706
44 10.9495 7.95031 3.73043 0.14357 0.168482 -1.15141
3211 12.3791 8.04232 3.92754 1.83428 0.144623 1.23802
1774 11.7492 7.98177 3.05067 0.490621 -0.76124 -0.251943
2958 13.9752 7.46786 3.76014 0.17695 0.0588393 -0.513807
1303 12.8688 8.2599 2.99228 -1.33812 -1.43465 -1.95114
2875 14.8848 8.16036 3.60243 -1.7165 -1.8172 1.0226
3672 14.8092 7.17412 3.13067 -0.0109141 0.901707 0.700296
657 15.6928 7.88848 3.15257 1.62543 -0.255862 -1.51588
3954 16.5297 7.46431 3.59368 0.358587 -0.633981 -1.29459
1435 16.81 8.35025 3.61315 0.238727 -1.76951 0.595888
2472 1.22976 0.5338 4.76036 0.597791 -0.439507 -0.244793
1843 0.182515 0.267746 4.94009 -0.176794 -0.862261 0.619315
3092 2.09328 0.109906 5.15282 -1.19815 -0.693715 -0.422148
1882 3.28833 0.0372044 5.26909 0.139979 -0.79736 -1.79311
3820 3.50961 0.589965 4.47553 1.47313 3.02829 -0.649728
982 3.4316 1.1098 5.36625 -0.587985 -2.24896 -0.340319
2665 4.8104 0.00237884 4.87706 0.189742 -0.400904 -1.65514
3693 5.57681 0.84254 5.68242 -1.22044 0.427045 1.05524
2834 4.50306 1.20651 4.898 0.23851 0.371474 -0.21402
3944 5.69557 1.11291 4.716 -0.0519249 -0.500581 0.138961
1470 6.67856 0.386422 4.6942 -1.89734 -2.11118 0.637098
2769 8.10631 0.43284 5.13538 -1.30947 -1.23983 -0.283937
300 8.2924 1.38739 4.57591 1.30034 -0.348147 0.524913
467 9.26632 1.14366 4.93537 -1.99051 2.79501 1.32008
1035 10.2563 0.619214 5.1979 -1.89089 -0.450797 1.15241
3076 11.4883 0.566538 5.12248 -0.820716 -0.0372663 -0.0931409
1677 13.0288 1.11852 4.57721 -0.544004 -0.0514104 -1.40603
166 13.5163 1.00753 5.44994 -0.342233 0.875677 0.412967
1270 13.3616 0.205125 4.37826 0.0501114 -0.0175602 0.541389
578 15.4461 0.193878 5.1611 -0.101722 0.648868 -0.45505
262 14.4911 0.687221 4.86228 -0.505745 -0.766341 0.947362
1947 15.8276 1.13274 4.73542 1.323 -0.629014 -1.34907
931 16.562 0.603284 5.63879 1.93933 0.692239 -0.050614
3952 16.4467 0.230437 4.38133 -0.926178 -1.51348 1.18124
1258 0.0414975 2.38356 5.52504 -0.448307 0.211368 0.382454
2886 0.70578 1.77184 4.87502 0.0736765 0.29916 0.70031
2734 1.53947 2.60916 4.78221 1.42828 -0.0733012 -0.145325
1374 1.67595 1.57313 4.54033 1.09929 0.982202 -0.846633
1242 2.27959 1.89738 5.28368 -0.00427569 1.91322 -1.50223
71 2.87483 2.75823 4.46515 0.0665485 0.780276 1.14774
2389 2.85805 1.52803 4.33758 1.01372 1.02207 -1.47766