ITEM: TIMESTEP
43000
ITEM: NUMBER OF ATOMS
4000
ITEM: BOX BOUNDS pp pp pp
0.0000000000000000e+00 1.7099759466766969e+01
0.0000000000000000e+00 1.7099759466766969e+01
0.0000000000000000e+00 1.7099759466766969e+01
ITEM: ATOMS id x y z vx vy vz
5 1.38484 1.39723 0.539316 -2.18939 -0.407197 0.249829
1200 0.0745558 0.425861 0.764892 -1.32016 0.0573833 -0.0603403
2152 1.33951 0.346127 0.344257 1.15769 -0.588101 0.199443
1920 1.95397 0.885457 1.19614 -2.18051 -0.448769 -0.073147
3641 2.3579 0.487762 0.0234875 -1.24227 -0.479263 -0.0680011
3368 3.09973 1.02199 0.577312 0.253676 0.134204 1.19802
3145 3.52604 0.201011 1.34545 0.268703 -0.027534 0.590281
735 4.28883 1.16989 1.07469 0.262189 -1.84724 -1.21025
152 4.69909 0.39671 0.572902 -0.541487 -0.198158 -0.11607
3767 6.62386 0.776051 0.553654 -0.111584 -0.191577 1.61227
3100 7.60428 0.853863 0.71748 0.421614 0.474992 -1.1296
3828 8.18625 0.34675 0.0129446 -1.57265 0.371403 0.792607
1364 8.94287 0.881774 1.21177 0.389405 -0.425812 -0.803662
588 9.85451 1.32462 0.410957 0.625496 0.303696 2.01325
3228 9.34878 0.393951 0.267925 0.944253 2.41808 -0.131988
222 10.1816 0.174693 0.881657 -1.83413 2.02177 -0.0771108
2192 10.9959 0.380091 0.401603 -1.53148 -0.493695 -0.207261
3590 11.8022 1.03785 1.15862 -1.29867 1.68616 -0.078161
1687 12.1403 1.16815 0.242311 -1.65687 1.56623 -0.767949
1363 13.5952 1.3438 0.221371 -0.952118 -0.99583 0.19208
345 13.742 0.0850652 0.185407 -2.42382 -1.23366 -0.0854558
1085 13.4051 0.561464 0.96234 0.869579 -0.531551 -1.51503
3714 15.5816 1.18061 1.11042 1.8677 0.426593 0.895209
3773 14.7087 0.624645 0.866615 0.317909 0.192792 -0.317753
2724 16.5779 1.37045 0.995045 -0.190707 0.431378 1.48376
2001 15.8526 0.436412 0.344416 2.1459 0.0678476 0.1587
2440 16.1825 0.292976 1.35088 0.0339765 -0.0933293 -0.0325142
2115 0.418184 1.87742 1.18097 2.20959 0.884796 -0.216765
3462 0.4934 2.71596 0.54285 0.828491 0.790479 -1.06587
1238 0.342214 1.46948 0.206501 -0.0621948 -0.252492 -0.825896
2576 2.34477 1.6956 0.273946 0.195494 -0.648908 0.835297
72 1.98654 2.51862 0.602164 -0.509694 0.0686783 1.07946
1087 2.74764 2.70923 1.29373 -0.0684883 0.951385 0.149411
1039 1.54321 2.06754 1.37659 0.504302 -0.458007 -0.637695
2165 2.67551 1.68006 1.24101 -1.05956 0.669519 -0.265848
1487 3.26475 2.0753 0.57088 0.736195 1.85942 0.196648
1677 4.09774 1.52477 0.0754264 1.4363 -0.966649 -0.0523217
717 3.92634 2.13951 1.37845 0.620431 1.87586 0.122519
465 3.93817 2.69903 0.0520953 0.354662 0.107482 -0.0889315
335 5.64267 1.49625 1.08757 -0.532284 -0.607675 0.835648
354 4.83601 2.21469 0.600583 0.0856297 -0.662848 0.377858
871 6.78883 2.65593 0.566538 2.18685 0.166833 -1.35426
913 5.91645 2.51238 1.32057 0.733018 -0.364006 -0.185638
613 6.27093 1.83754 0.347536 0.887647 -0.942805 -0.728866
1712 8.16066 2.49591 0.993627 0.015414 0.0272524 -0.077489
1003 7.34936 1.86409 0.50777 0.380047 1.92847 0.42585
1404 8.40701 1.54108 0.652104 -0.303364 0.270257 -0.620386
1959 9.01638 2.38181 0.327246 1.48442 -0.674724 -0.934059
3691 9.33615 1.932 1.38792 -1.03692 -1.06184 -1.33603
1984 11.042 1.67865 1.1704 -1.73497 -1.13808 -2.47974
1369 10.0669 2.33894 0.865403 -0.428695 1.65699 0.468346
472 11.9237 2.24705 1.07357 0.225255 1.41768 0.314481
55 11.9703 2.82945 0.0827276 0.450759 0.647636 -0.616608
231 12.8365 2.7062 0.858884 -0.212588 0.605351 -0.230896
3447 13.7491 2.63214 0.380807 0.533208 0.916474 0.476462
442 13.9681 1.65998 1.19634 0.234605 -2.2039 0.285728
3187 12.932 1.57458 1.01042 -0.325486 -2.54957 -1.31813
2315 14.6661 2.81676 0.684174 1.1626 0.821472 0.916401
2451 14.5705 1.77842 0.236025 1.13023 -0.176134 -0.632585
3891 15.5382 2.13555 1.21371 -0.116904 -1.90635 1.01888
2946 15.6554 2.57807 0.367196 1.29374 -1.03628 -0.568884
952 15.563 1.53123 0.156732 -1.33035 0.0658307 0.501823
954 16.6974 2.23339 0.25399 2.2847 -0.204709 0.624386
319 1.19224 3.07765 1.32719 1.01869 -1.56665 1.34328
904 1.19509 4.17911 1.1788 -0.383495 0.168094 0.314627
2702 0.183543 3.69801 1.23113 -1.80914 0.72623 -1.11042
2689 1.34315 3.1495 0.127974 0.0177235 0.0647812 1.47011
1685 2.06668 3.60815 1.11515 -1.20767 0.262326 -0.485218
1710 2.27433 4.17693 0.0830579 0.0735496 -0.94523 -0.13119
358 3.96093 3.25115 1.22407 -0.0212291 -0.0201167 -2.28741
433 3.09514 3.32736 0.155947 -1.4192 -0.880484 -1.41936
127 5.56696 3.15012 0.376964 0.70455 0.680971 -0.386434
2561 5.14493 4.18718 0.935176 0.836833 -0.0160547 1.05184
1009 4.43644 3.49237 0.38884 -0.342404 -1.17516 1.23735
3009 6.631 3.58562 0.371459 -0.221113 -0.54661 0.40376
2525 6.15193 3.58972 1.38629 1.07977 -0.48831 -1.02215
1442 7.73287 3.46303 0.916931 -0.841435 -0.466221 -0.94064
1656 7.67596 4.12309 0.0307342 -0.207921 -2.37027 1.65654
271 9.23885 3.06588 1.2154 -1.38018 -0.12939 -1.96628
3706 8.56565 3.26637 0.357946 0.755496 0.694936 1.57895
3275 11.0575 3.06525 0.736741 1.3008 1.57142 0.879234
99 10.5067 3.91582 1.0584 -0.953628 0.36131 -0.741467
3836 12.1586 3.98674 0.649355 0.653335 0.367866 -1.63546
2443 13.289 3.7028 0.497186 -0.0356756 2.33316 1.01144
401 14.2297 3.64439 0.092095 -1.33045 -0.524865 1.17519
3825 14.1775 3.47677 1.3052 -1.29273 -0.618912 1.00464
2560 15.5876 3.54343 0.662013 -0.387421 -0.132951 -1.38118
1026 16.3555 2.89148 1.19922 -0.713058 -0.103914 1.04516
3392 16.5471 3.40828 0.351417 1.28265 -0.108079 1.08839
969 1.0038 5.07549 0.585797 0.265335 -1.15775 -1.57134
2789 0.129495 4.71237 1.15478 -0.850889 -0.475841 -0.547819
1170 2.79435 4.46614 1.2828 0.753449 1.90553 -0.946507
1890 2.19062 5.12875 0.797551 1.88593 -0.619861 -0.887315
1692 4.02318 4.35177 1.23416 -1.35891 -0.773025 0.0192587
3495 3.27978 5.31189 0.833869 0.54232 -0.761625 1.41309
1527 3.27218 4.31646 0.361324 -0.11578 0.875096 0.52204
500 4.37731 5.01097 0.43718 -0.910329 0.371379 -1.21221
2056 5.97716 4.72936 0.771993 0.806259 -0.479213 1.16817
1495 6.51747 5.50586 1.0195 -1.40974 1.99411 -0.230837
686 7.4596 5.63416 1.28085 0.30323 -0.199796 0.569134
114 8.33775 4.75455 0.501768 0.824092 -1.12059 -0.546235
2414 7.35273 5.29581 0.208142 1.02441 -1.0283 -3.12453
2614 7.36006 4.59847 1.07224 -0.436757 1.72344 1.59666
2316 9.32196 5.549 1.30712 -0.759068 -0.912791 -1.31357
1201 9.44905 4.39732 0.89092 -1.90002 0.598657 0.588155
2410 9.4382 4.86732 0.00962335 -0.465801 -0.394501 1.5551
3736 10.3457 4.97228 1.13674 0.350075 0.236487 -1.55759
445 10.7108 5.63129 0.472714 0.114272 -0.72955 1.10617
2498 10.4219 4.49012 0.0950367 -0.381014 -0.537914 -0.692575
2402 11.5317 4.95458 1.28232 0.302955 0.271915 -0.326198
120 12.5844 5.02797 0.520251 -0.391554 -1.56102 1.17323
1545 11.4812 4.82626 0.238397 -0.0963115 -0.0140683 0.588831
2672 13.8544 4.71355 0.478609 0.197977 0.283789 -1.20351
178 15.0601 4.5017 0.970761 2.8669 0.141329 -0.566402
3157 14.5979 5.41143 0.775176 -0.556184 -0.435152 1.15808
3718 17.0951 4.30837 0.0805221 0.513505 -1.13655 -0.892423
1917 15.7274 5.3662 0.820055 0.928136 -0.0748873 0.582794
2071 16.2375 4.50048 0.840625 -0.435602 -0.949938 0.0385132
236 16.987 5.40597 0.37126 -1.11678 -0.754668 -0.418155
52 1.41856 6.21692 0.470604 -1.68789 -1.34735 -0.245239
1597 0.498397 6.04134 1.13629 0.896363 0.818532 -0.662915
2175 0.802815 6.99784 0.787231 1.27 1.26285 -0.322692
2187 2.66989 6.04595 1.27557 1.04196 -1.04989 -1.6297
246 2.42935 6.85291 0.585234 -2.72727 -0.12449 1.60886
865 3.52031 6.51107 0.796795 -0.512651 -0.163585 -1.51863
970 5.19358 6.01455 0.282579 1.038 -0.925313 -0.206862
2245 5.49684 7.06846 0.277671 0.400448 0.415683 -0.576807
2127 5.57683 5.70938 1.40662 0.0539022 0.613678 -0.00263956
3889 4.73962 6.44312 1.07818 0.872306 0.546307 -0.501252
1756 6.91207 6.74361 1.15576 -1.68908 1.74395 0.704533
1591 5.83817 6.69439 1.18913 1.61193 -0.36656 -1.01282
1834 6.36012 6.491 0.322972 -2.62255 0.197251 -0.0953226
2827 8.42722 5.71776 0.627878 -0.915433 0.582988 -0.0310666
1286 8.26908 6.4487 1.29444 -1.79116 0.87788 0.160427
545 7.82841 6.43605 0.394141 0.703498 -0.256969 -1.06871
1744 9.76952 6.55337 0.0602928 0.501873 -0.126095 -0.418773
440 10.0039 6.41323 1.09273 1.8931 -0.530968 -0.0227645
1605 10.826 6.79996 0.606663 0.202435 -0.753673 0.54386
2678 12.0551 5.99641 0.270313 -0.188518 -1.57306 -0.326423
1963 12.462 5.76274 1.20218 -0.95629 0.452479 -0.760881
3712 13.3335 6.71055 1.35777 0.650462 0.402502 -1.70921
2289 13.4692 5.76745 0.265261 -1.70462 0.342689 1.12548
2839 14.2245 6.64339 0.360199 0.105305 0.690973 -0.531762
2049 16.9934 6.4463 0.342695 0.228758 0.358402 -0.661363
2129 16.9492 7.11878 1.27291 0.103692 1.37502 0.225548
3226 16.0118 6.44094 0.989317 -0.674846 1.81791 0.363231
1970 0.941269 8.22273 0.351916 1.13347 0.129473 -0.261721
1868 0.0099625 7.91856 0.627016 0.73274 -0.965379 -0.0479891
2198 1.92047 7.79203 0.675528 -0.595023 -0.474335 -0.0999321
3125 4.06668 8.37091 1.19805 0.91957 -0.349736 -0.119168
2726 3.39468 7.66553 0.616461 -1.08878 -0.315223 0.468233
3869 4.56598 7.46689 0.69373 -1.38855 -0.891248 0.29334
1814 5.46122 8.24421 0.903465 -0.360352 0.414427 0.967768
3668 7.10082 8.39013 0.45044 0.207511 -1.5447 -0.212793
3580 6.3358 7.65199 0.651767 -0.700408 0.973659 1.41092
3101 6.5206 8.50293 1.35727 0.754216 -1.26064 -1.12687
1239 7.63333 7.55504 0.603195 -0.704667 0.146742 -0.298577
3636 8.64312 7.40863 1.01754 1.39735 -0.807906 -1.93894
3837 9.4857 8.47704 0.179439 -1.04581 -0.797934 -0.685909
1216 9.08551 7.39752 0.0566904 -0.717857 1.10483 0.448322
2351 10.8585 7.66003 1.13308 -0.230601 0.436997 1.8035
1185 10.262 7.76347 0.158426 2.31696 0.0335999 1.35123
658 12.466 7.16366 0.652655 0.448596 -2.11012 1.24065
2083 12.3297 8.5297 0.557776 1.2424 -0.158216 -0.558213
3238 11.5808 7.82689 0.34132 2.22362 -0.637284 0.492081
1832 14.1746 7.27536 1.35089 0.150973 0.840579 -0.418875
3831 13.0837 8.30879 1.41043 -0.92563 1.40284 -1.03466
2670 14.1671 8.35018 1.25857 -0.599278 1.12847 -0.599582
948 13.7846 8.52926 0.399544 0.852403 0.639266 1.28402
2675 15.0796 7.17164 0.942869 -1.58416 0.587958 2.27531
2019 16.0573 7.36118 0.569568 -3.0594 1.18316 -1.26314
1995 15.6918 8.29364 0.713164 -1.70391 -0.532777 1.11373
1611 0.847254 0.855255 1.42771 0.263253 0.338138 0.721647
2567 1.00166 1.18229 2.38205 0.368511 0.356228 0.0151283
1325 0.0959433 0.64413 2.73535 -0.355001 0.421588 -0.962629
835 2.74154 0.750321 1.8178 1.73071 -0.276382 -0.318995
3142 1.62602 0.170564 1.8417 1.91339 0.329052 -1.35918
237 3.69997 1.23406 1.98841 1.58624 1.21551 -0.922292
2475 3.58495 0.066234 2.62796 1.8487 1.39987 2.74647
1496 5.24357 0.973824 2.07496 0.0907428 0.624323 1.23704
282 4.46981 0.841577 2.80977 -1.31109 -1.08492 -0.419039
2588 6.31668 0.970107 2.3014 1.14023 1.43388 -0.86235
1731 5.90016 0.344645 1.49872 0.912751 -0.655106 -0.111925
165 7.0471 0.420222 1.56485 -0.952757 1.41626 1.24895
113 7.33622 0.0549797 2.47512 0.806661 0.667489 1.06069
3910 8.31615 0.680852 2.66483 0.783311 0.932138 0.715767
1805 7.99437 0.246414 1.5986 -1.33305 -0.61842 0.38008
2079 7.25026 1.40336 2.65489 1.13402 0.656998 0.339603
2774 9.22622 1.02639 2.40656 -0.551138 2.8633 0.505615
304 9.03979 0.0698661 2.00037 0.151252 -0.0435413 1.05749
2357 10.1509 1.07218 1.51528 0.841427 -0.704897 -0.187249
2178 10.0802 0.0681828 1.88358 -0.111749 -0.24261 3.42384
3108 11.108 0.544721 1.69598 -1.00213 1.18831 0.481578
976 11.9881 0.545643 2.49007 1.25207 -1.123 -0.490222
273 12.6915 0.839313 1.73135 -0.970462 1.37004 -0.185218
1437 13.9748 0.905741 1.81932 -0.363498 -0.0415427 0.251717
3159 13.1192 1.27275 2.56437 -0.345019 0.179539 0.0645482
2335 15.1192 0.470111 1.81512 -0.31467 0.2663 0.406512
1644 16.9983 0.727905 1.78861 -0.127856 1.25867 -0.906452
2758 16.1185 0.608656 2.45531 -1.03513 0.935966 0.17415
3711 0.165509 2.64554 1.65868 0.0285089 1.78321 1.66979
3624 1.24056 2.27399 2.31319 -0.779782 -0.582689 -0.710703
531 2.12481 1.52739 2.13048 -1.47598 -2.2062 1.35839
3841 3.13024 2.17642 2.14103 1.05041 0.376994 -0.857837
562 4.9009 1.89227 1.65491 -0.712488 -0.855564 -0.491571
2153 4.76329 1.93826 2.68865 1.05756 -1.25467 0.334789
640 6.77764 1.51842 1.54546 0.413024 -0.362922 -0.642654
1945 5.82965 1.94432 2.24949 -0.485577 -1.10626 1.86616
299 7.06396 2.83302 1.6756 0.211682 0.657002 -1.48726
1765 7.75338 1.6703 1.66239 -1.66094 0.546305 0.548093
1195 9.54383 2.55349 2.43022 1.99622 1.18132 0.683987
265 8.61892 2.0593 2.20904 -1.33623 -0.157247 0.0330805
1861 10.3665 1.44305 2.57161 0.121301 -1.03476 -0.78427
1480 11.2242 2.53905 1.80886 1.11737 1.34958 -0.120738
234 11.9874 1.66226 2.1503 -1.23725 -0.701359 -0.924324
630 12.3983 2.73593 1.92356 1.24992 -2.70673 -0.818568
2142 13.4295 2.31734 1.82807 0.614854 1.41644 -0.961116
1595 12.8599 2.2874 2.7449 -0.731464 0.830125 2.15164
262 14.1869 1.61944 2.4754 -0.0824309 0.968452 0.30555
675 14.1761 2.69007 2.62111 0.337309 -0.134713 0.832654
363 14.5159 2.4274 1.58219 -0.0242621 0.216001 0.515165
1075 15.1446 1.92056 2.4735 -0.63656 -0.978267 0.367991
762 17.0764 1.65227 2.13264 -1.42668 0.957331 0.188949
3113 16.0255 1.61239 1.95014 1.29657 -0.410132 0.723044
2238 16.2056 2.68939 2.21648 -0.248924 -0.0259912 -1.17556
339 1.07262 3.7322 2.19523 -0.314174 0.28356 0.868064
2132 2.08805 2.86636 2.04724 0.681503 -0.6474 0.112746
3868 2.11465 4.05097 2.0967 -1.05291 -0.866268 -0.664018
2229 2.90483 3.09821 2.60949 0.266545 0.892143 0.209515
779 3.13888 3.59021 1.72758 -0.208955 0.555255 -1.81808
2333 4.12577 3.0407 2.31957 -0.298361 -0.37298 0.546266
3976 3.61358 3.85981 2.74826 0.540347 -0.19144 -0.259665
2125 4.93493 2.98639 1.48056 1.56668 -1.07906 0.281048
347 4.3405 4.12462 2.13197 -0.318466 0.318209 0.898068
2081 5.1845 2.87501 2.54619 -1.11367 -1.65039 -0.838222
2162 6.37088 2.91484 2.54325 0.456797 -0.184167 0.314212
1264 6.81677 3.86169 2.81065 -0.15409 1.19882 -0.0493571
668 7.25631 3.85069 1.77127 -1.07874 0.83636 2.5072
2074 8.2314 3.19463 1.81086 -1.90446 0.91231 1.70829
498 7.50516 3.02057 2.66673 -0.257911 1.81432 -1.45629
481 8.45589 3.96088 2.60631 -1.96383 2.36777 1.4103
482 9.27605 3.7997 1.89722 -0.355501 -0.910702 -0.699953
1667 10.2347 3.17351 1.8185 -1.05771 -0.855298 0.044047
424 11.1303 3.36297 2.63637 -0.0345228 -0.657903 -0.824275
2991 12.7367 3.66924 1.5146 -1.15072 -0.0217642 -1.3098
2044 12.3391 3.58769 2.58246 -1.40669 -0.059319 -0.361454
1209 11.7403 3.59968 1.69002 -1.193 -1.54402 0.0555343
2656 13.2649 4.07496 2.83563 1.96135 0.942416 -0.780722
1482 14.233 3.93891 2.4862 1.27074 0.507132 -0.489833
475 13.381 3.22974 2.2186 -1.09255 0.744235 0.22147
2485 15.2742 3.19392 1.8597 -1.20622 -1.55279 -1.55928
2727 16.0624 3.85342 1.61254 0.657489 0.137261 -0.0156831
477 16.2381 4.06158 2.68795 -1.36622 -1.3349 -0.48482
3470 16.9687 3.39646 2.25741 0.0871673 -1.90747 1.52475
917 0.412236 4.50734 2.19548 -0.412342 1.16076 0.381365
270 1.06896 5.1676 1.68593 -0.330142 0.207729 0.155693
158 2.17256 5.36435 2.17143 -0.0422502 2.79108 2.32269
254 3.63798 5.08142 1.84207 -0.700498 1.57666 -0.358182
3222 2.9776 4.67686 2.44868 0.874991 -1.1127 0.548644
591 4.03782 5.4824 2.78678 0.770219 0.121363 0.280656
3533 5.6258 4.28127 2.29858 -1.48126 0.702777 0.808458
342 4.87532 4.9477 1.61174 -0.0265618 -1.74633 -0.284225
2417 5.22925 5.34315 2.74494 -1.34377 1.02594 0.710756
3047 6.39603 4.74834 1.87539 -0.877005 -0.32368 3.26383
677 8.4436 5.67122 1.93115 -0.982264 -1.16447 1.75982
2570 7.74226 4.99108 1.95891 2.18166 -0.559808 -0.147849
565 8.45216 4.46475 1.44977 0.274389 -1.89674 -0.315912
2596 9.56949 4.7565 1.84696 -1.37603 0.905092 0.11299
2640 9.87488 4.56177 2.80193 -0.849088 -2.48896 0.482233
3423 8.70779 4.89457 2.7457 -0.321029 -1.18582 -0.323624
3316 10.7784 4.50801 2.28789 -0.942224 0.339717 -0.276806
1321 10.6398 5.68066 1.86557 -0.365671 -0.0806466 -1.14697
683 11.9813 4.67915 2.44941 1.30556 -0.587067 1.27395
2543 12.7973 4.90173 1.80169 1.8143 -0.0520033 -1.10525
3878 13.5395 4.29094 1.65497 -0.464622 -0.391203 0.726997
425 13.64 5.61906 1.72208 0.622234 -0.328102 1.09392
41 13.5727 5.09865 2.57668 0.482194 0.0894165 -0.647655
1791 14.3853 4.88916 1.77163 1.46986 -1.44718 0.194099
2013 15.2888 5.48795 1.80763 -0.161303 -1.68437 -1.15099
1981 15.3544 4.45979 1.94668 0.283302 -1.58078 -0.302493
3922 15.6477 4.99609 2.83741 1.64841 -0.135394 -0.00412895
2843 16.3211 4.86431 1.90191 -1.70733 -0.652616 -0.90226
536 16.7053 5.29338 2.75776 -0.109118 1.20882 -1.02339
1400 0.347478 5.81794 2.13433 2.18267 0.537871 0.594311
3823 0.116817 6.73013 2.19768 -0.377955 -2.14809 -0.651318
119 1.34001 5.94461 2.77276 -1.34145 -0.860966 -0.424719
2107 1.60841 6.11817 1.63744 0.110035 -0.486534 0.287814
2009 2.09155 6.6139 2.4518 1.59814 -0.228078 0.557401
3760 2.85369 7.00682 1.45945 -0.0802629 -0.595271 -0.182299
1807 2.88236 5.74475 2.69724 1.18831 0.0835238 -0.264895
3675 3.58298 6.30284 2.06589 0.441445 -0.0232876 -0.77583
3107 4.84417 5.99014 2.1364 -0.0681821 0.494401 -0.876261
495 6.56552 6.05363 1.83684 0.593522 0.214406 0.114864
1864 5.98448 6.67315 2.51422 -0.426066 -1.92048 0.270899
3984 6.86927 7.04893 2.81916 -2.10018 -1.99782 0.566357
894 7.65439 6.85636 2.15745 -0.405809 1.54388 -0.337166
1715 7.60955 5.96313 2.50765 0.624508 -1.1006 0.827842
3493 8.68675 6.25485 2.84068 0.786191 -0.621087 0.877183
2958 9.83156 6.08498 2.43013 1.43841 -1.41136 -0.471255
3322 9.13216 6.70942 1.98954 -1.31098 0.749626 -0.959469
2903 10.8583 6.76969 1.87805 -0.55175 2.32103 -1.27161
157 10.8556 6.38127 2.83835 -0.247609 -0.774682 -1.83447
3924 12.0208 6.78795 1.54605 2.38755 0.742617 0.814822
1683 11.9559 6.68017 2.72983 -0.238072 0.820798 2.35761
656 11.6966 5.81513 1.93595 0.222481 0.049204 -0.448998
3950 12.8066 7.04176 2.34482 -0.138074 -0.906207 -0.252273
355 14.052 6.33553 2.54066 0.348811 0.131164 1.26775
429 12.9526 5.99006 2.47189 0.634215 1.99218 0.451571
794 14.5204 6.29081 1.47219 -1.53996 -0.426159 -0.755852
967 15.1903 6.90198 1.96339 1.65304 0.360235 0.322992
2193 15.6742 6.30376 2.74174 -0.991929 1.46338 0.5112
1331 16.3978 5.99627 1.86249 -0.338049 0.24273 0.553554
3881 0.50749 7.76495 1.58609 1.58773 1.25096 -0.771585
132 1.27568 7.8373 2.30431 -1.37586 -1.61909 -1.11647
1671 0.00430837 7.58913 2.5958 1.62847 0.331396 0.431269
238 1.70927 7.21695 1.5062 -1.6001 0.460297 0.000773507
3762 2.35916 7.57835 2.6941 1.08531 1.19469 0.165216
1036 1.86539 8.48001 1.45567 0.882232 0.110008 -1.7544
795 3.28216 8.01211 1.90653 -0.867458 0.783008 -0.688408
2323 3.99186 7.17724 1.62233 -0.367596 0.179031 0.0244775
3616 4.32704 7.97295 2.47168 -0.942999 -0.7522 -0.518654
232 5.06145 7.43324 2.79776 -0.644883 -0.157823 -1.31887
564 5.48732 8.18177 1.97193 -1.04875 1.78564 2.58736
148 5.13349 7.33316 1.74258 -0.149541 1.44338 -1.72508
2261 6.31838 7.50643 1.84916 -0.705303 1.13497 -1.06607
1625 6.74148 8.45219 2.3003 -0.506669 -0.677814 2.8891
573 7.43074 7.80496 1.58648 -1.08604 -0.523466 -0.419321
1818 8.55584 7.72106 1.99293 0.985879 0.794814 -0.624123
385 9.87263 7.50299 1.98075 -1.20759 -0.335823 0.17404
2855 9.46924 8.48166 1.73616 2.61008 -0.722305 -0.694601
575 11.1153 8.14932 2.06495 2.0287 0.8937 0.731209
392 12.1089 7.80649 1.60223 -0.683583 -1.29318 -0.261494
705 13.7237 7.47706 2.18631 -1.67209 0.891968 -0.707789
2345 15.0677 8.41214 1.76259 -1.60972 1.68608 0.293484
359 14.5318 7.97545 2.64929 -0.32734 -0.890556 1.76596
1081 16.2726 7.14625 2.23308 -0.0535834 0.300595 -1.02285
2766 16.1185 8.01831 1.66225 0.00609102 -0.309247 0.669855
480 0.985335 0.747388 3.41773 -0.611101 -1.01808 0.591311
2293 1.65593 0.207454 2.93583 0.753667 -0.425179 0.793603
597 2.06349 0.805256 3.67165 -1.1288 0.433906 0.423068
1435 3.00637 1.04891 4.20877 1.05282 0.788506 0.0979321
415 3.0254 0.986213 2.89414 -0.447314 1.00766 0.273251
1375 3.40004 0.239969 3.58838 0.250763 -0.397257 0.337487
3739 5.42954 0.133955 4.26466 -0.5488 -0.937474 1.51655
2541 5.57864 0.639097 3.0845 0.0423579 1.68179 1.68941
1879 4.74267 0.0787719 3.29219 0.52341 -1.04975 -1.26399
3388 4.45805 0.715642 4.10191 0.542732 -0.572866 -1.95683
3790 6.73518 0.78732 3.40276 2.02768 0.12164 -0.00329313
316 6.39086 0.00787001 2.87929 -0.883093 -0.454036 -0.664903
549 5.96464 1.03588 4.17461 -0.780365 2.17224 0.0674716
682 8.42275 0.105001 3.7176 0.956672 -0.551258 0.253308
930 7.94729 1.04158 3.60318 0.473325 -0.0274579 -0.0520399
2278 9.17269 0.196311 3.0308 -0.823049 0.745944 1.03268
2348 9.2385 0.845025 3.73763 0.713559 -1.23388 1.1672
596 10.337 0.452961 2.89018 -0.131473 0.106861 0.828986
3090 10.4959 1.19729 3.78148 0.13623 1.91442 -0.0543626
4000 11.2576 1.27021 2.90754 0.0164165 3.12753 0.524532
285 10.7017 0.227671 4.02005 -1.11565 -0.400573 -1.80367
1676 11.7641 0.589043 3.58605 1.26411 1.64285 0.166447
2144 12.7148 0.109324 2.9405 0.498528 1.16406 -0.182156
496 12.905 0.809095 3.95392 -0.192795 0.295733 1.00494
2911 14.3281 1.0343 3.32805 0.167997 1.46243 1.05765
3343 15.2354 0.538443 2.88705 -0.129774 -0.343406 -1.49134
778 15.0322 0.697278 4.12819 1.30276 -0.605594 2.33997
505 16.5982 0.239866 3.85872 1.0034 -0.0553845 0.0938873
3436 17.0757 1.18722 3.71814 0.154064 -0.103464 -0.0338485
2898 15.9227 1.05863 3.50145 -1.60618 0.897846 -0.384745
1813 0.468583 1.7405 3.10401 -0.177682 -0.619816 -1.74634
460 0.857213 1.88761 3.9768 0.29241 1.92154 2.10687
411 0.0729592 2.51126 3.88964 0.0846291 0.189278 0.333995
688 1.53488 1.57697 3.06607 -0.597051 0.910183 -0.502354
2945 1.48507 2.60091 3.39477 0.374295 0.134115 -0.540346
845 2.03452 1.88632 4.04863 -0.67715 0.306173 1.96868
1046 2.39718 2.18076 3.09469 2.37408 -0.0142631 -0.88593
2532 3.77349 2.57335 3.24653 -0.681584 0.796277 -0.335523
2779 3.79737 1.6365 3.08172 0.956287 -2.44787 -0.961372
982 3.35391 1.98147 3.9438 0.72345 0.777546 -0.117408
1760 4.95146 1.45996 3.58457 0.620929 -1.3091 -1.06648
117 5.05462 2.72082 3.61506 -0.243321 -1.04566 -0.671271
3179 6.85674 2.1946 3.02034 0.221252 0.0872034 0.396101
1841 5.98485 2.15027 3.61362 0.238594 -0.250485 1.69285
2329 7.03202 1.62748 3.94792 1.22596 -0.0147296 -0.645841
2784 7.74159 2.78528 3.69708 1.2996 0.51044 0.297172
478 8.14296 1.88904 3.10067 0.20325 0.685251 -0.503157
2603 9.7042 1.85239 3.2403 2.2077 0.20666 -0.988968
3144 8.99775 2.61664 3.8606 0.753364 -0.26984 0.207188
136 10.4475 2.7621 3.17919 2.42217 0.172947 0.607779
1152 10.0699 2.45574 4.13834 0.226435 -0.982678 -0.814196
1870 11.6502 2.51868 3.0966 -0.608237 0.601572 -0.620987
2667 11.7794 2.67159 4.2491 -0.514575 -0.678721 -0.806656
1462 12.7627 2.22387 3.7519 -0.12891 -0.256404 0.753845
3786 12.0413 1.58401 3.96144 -1.09032 0.324797 -0.773119
2598 13.8242 1.98482 3.43141 0.239673 -0.648644 -0.243247
664 14.4068 1.60754 4.16173 0.941528 -0.175442 -0.861019
3583 15.1121 1.75329 3.49762 -1.68861 -1.07081 0.692381
2388 14.7628 2.78961 3.46452 1.08907 0.355977 0.707605
1050 16.3249 2.01303 3.25888 -1.04683 1.48315 -0.0829454
2235 15.7871 2.36165 4.11906 0.614916 -0.695591 1.46477
457 17.0052 2.56173 2.87221 0.0327967 -1.03603 -0.900824
3317 0.695943 3.2255 3.10413 0.113308 -0.775518 -0.465507
492 1.18534 3.22259 4.1431 0.157708 0.603333 -0.676535
1652 0.213182 3.55013 3.8723 -1.77706 3.01175 -0.212937
1332 1.83747 3.42653 2.93496 1.18415 -0.56406 -0.7032
3227 2.61591 2.85206 3.78878 1.00741 -0.744132 -0.227
2722 3.01341 3.95901 3.50272 -0.200672 0.451961 0.143466
3696 4.01045 4.1745 3.92779 -2.31145 0.311828 0.705872
1651 3.74542 3.20813 4.07933 -0.649955 0.114182 1.96288
190 4.67452 3.53096 2.99298 1.13942 0.626216 2.03203
1815 5.64367 3.59427 3.27387 -0.274708 -0.469801 1.45076
1265 6.79635 3.10402 3.67285 -1.3794 -0.25662 -1.561
2751 7.68992 4.114 3.45989 -0.460139 1.33137 -0.849067
14 8.41557 3.59272 3.79945 0.633624 0.258749 -1.11346
2369 8.6178 2.96998 2.9635 -1.09909 -0.859346 0.637903
3570 9.65476 3.46227 2.96634 -1.00821 0.0142553 -2.12921
521 9.92401 3.55224 4.09648 -0.690794 -0.387078 0.558465
2067 10.5726 3.83784 3.4053 0.0383437 0.249027 -1.59015
3733 11.7353 3.71655 3.65269 0.275056 0.0637306 2.22708
357 13.4149 2.94582 3.34084 -0.647044 -0.249918 1.4607
888 12.8805 3.38193 4.1563 -0.449202 -0.41489 -0.761014
3757 14.195 3.70441 3.49343 -0.9007 0.774393 2.37253
2601 15.2441 4.00478 3.12862 0.13567 0.70398 -2.34011
1688 16.2283 3.70668 3.83421 -1.73149 -0.585878 -1.12408
2386 0.423856 5.53634 3.61307 2.40428 0.765239 0.345374
842 1.24205 4.78925 2.94461 -0.265648 -0.211823 0.624637
76 0.229823 4.36896 3.17992 0.665251 -0.473969 0.449123
479 1.42342 5.46397 3.82503 1.57085 0.920407 -0.0161578
557 1.38176 4.36373 3.82212 0.690287 0.97602 0.041641
2052 0.310139 4.58436 4.2231 -0.719141 -0.185416 0.753783
3135 2.24612 4.43206 3.05415 -1.21545 -0.629867 1.13963
1054 2.33724 4.87911 3.87718 0.864062 0.466449 -0.252129
2442 3.34077 4.94629 3.45709 1.4198 -0.0459436 2.22318
594 4.52217 4.5849 2.96574 -0.451195 0.268292 -0.164264
3973 5.37406 4.54305 3.64798 -0.284736 1.16492 -1.09141
1833 4.57065 5.26875 3.82215 1.15688 0.891479 -0.1727
422 6.32623 5.10656 2.86652 0.0960563 1.2083 0.280428
2809 6.64524 4.32266 3.74218 0.761091 -1.36212 -1.15432
1215 6.21988 5.27332 3.96705 0.893518 -1.25768 0.338774
3551 7.32869 5.14812 3.17746 0.646431 1.27901 0.895749
1402 8.45429 4.6834 4.08007 -0.653466 0.022167 0.661054
2212 7.32512 5.58742 4.22589 0.715982 0.00986585 -0.817159
2109 8.28646 5.62281 3.54851 0.682138 1.48603 0.00669005
397 9.3387 4.32037 3.71465 0.78609 0.380498 -0.204356
2994 11.24 4.77332 3.30756 -1.64192 -1.07599 -0.366342
589 10.4575 5.38739 3.08155 -2.54017 -1.22268 0.0882658
2987 10.2723 4.73495 4.07098 0.085333 -0.111303 0.612891
1120 12.5281 4.46289 3.41125 1.41106 -0.288901 0.120124
2564 12.6426 5.3309 4.182 -0.25657 -1.40039 0.799503
535 12.397 5.47245 3.11629 -0.242762 0.677251 1.32897
106 13.5942 4.66342 3.72776 -0.882708 1.23434 -1.05155
2646 14.9018 5.69308 2.87257 2.03195 0.158429 1.14404
523 14.4536 4.74669 3.12087 -0.569595 -0.0291982 -0.376911
191 15.3959 4.55692 4.03605 0.8628 0.840544 -0.318817
3523 15.3639 5.58539 3.74857 0.256928 1.43517 -1.55098
891 16.4774 4.88651 3.74026 0.854557 -0.542544 -1.18284
1419 0.812252 7.02093 3.02852 -1.36988 -0.160997 0.713859
1341 0.674258 6.53075 4.12697 -0.106198 -0.219867 -0.422288
3581 2.61886 5.86541 3.63748 -0.0532645 -0.135752 -0.0683733
3887 1.85116 6.82091 3.67376 1.56697 -2.45671 -0.148587
1289 3.06206 6.73175 3.05617 0.62605 0.0945185 -1.30948
2173 4.05181 6.86117 3.06042 1.18857 -0.743624 -0.37264
2537 3.76043 5.94786 3.61259 -0.27608 -0.308011 1.05638
1643 5.64981 6.21958 3.82152 1.41477 1.94359 0.583291
679 4.9397 6.4027 3.21209 0.928713 -1.27146 -0.107874
2035 4.98656 6.9829 4.08434 -0.545758 -0.200162 -0.533728
177 6.50992 6.01535 3.28661 -0.248189 -0.118218 -1.48726
340 6.20012 7.02648 3.45051 0.522952 -1.10324 0.493988
118 7.59845 6.25468 3.44999 1.57642 1.06551 0.288493
1738 8.43962 6.618 4.0894 -0.186759 1.76694 0.290535
1732 9.88634 6.96922 2.97049 -0.249346 -1.82055 0.504385
2262 9.51737 6.87889 3.91853 0.617729 0.167377 1.0478
2606 9.48081 5.77953 3.29019 -0.517545 -0.222076 -0.0310564
2846 10.3601 5.823 4.13036 1.1609 -0.534919 -0.187669
3730 10.5401 6.85703 3.74542 0.311384 -1.54501 -1.5367
3974 11.4001 5.85023 3.86628 -1.64456 1.42946 -1.4678
3427 12.5398 6.31582 4.03994 -0.622093 -0.580253 -0.293943
2660 13.3262 6.76849 3.22447 2.47611 1.056 1.06694
2539 13.3538 5.8223 3.56169 1.22909 -0.462211 0.71047
166 14.367 5.8853 3.76832 -1.93589 0.167181 1.54209
3398 14.5358 6.87648 3.2752 0.532551 1.19437 -1.1844
3749 15.047 6.82238 4.15222 0.054817 0.0150609 0.627622
980 16.7266 6.45605 2.99915 1.47214 -1.2732 0.0886795
1703 15.9682 6.49523 3.77903 0.943697 0.500005 1.02491
832 0.0192246 7.28296 3.70559 0.475302 0.772411 0.686646
2723 1.24512 8.23421 3.33506 -0.903736 -0.364355 -0.293599
2831 2.40047 7.70728 3.75123 -0.00247075 0.104136 -1.4454
2208 3.33743 7.89724 3.13523 -0.096195 2.42897 -0.296917
819 3.20096 8.37975 4.10759 -0.695804 -0.243821 -0.148449
331 4.48385 7.78103 3.61457 -0.760521 -0.339825 0.659761
2234 5.42405 8.17502 3.97983 0.207023 1.61436 0.102193
3452 6.55991 8.33334 3.9594 0.46778 -1.14223 0.198667
1428 5.97923 7.90948 3.01842 -0.123607 -0.298629 1.01777
2924 7.34877 7.97437 2.98697 -0.207887 0.790098 0.708382
2858 8.18768 7.21839 3.26868 0.481157 -0.503843 -1.09351
2695 7.1994 7.37843 3.76279 -0.62702 1.36129 0.313398
3916 7.69334 8.37468 4.05392 0.0965361 -2.23436 0.529653
1884 9.11701 7.61546 2.86581 0.245255 0.266524 -1.49716
3946 8.80293 7.79619 3.86604 -0.369693 -0.335645 -0.263755
1541 9.71322 8.32448 3.25915 -1.06546 0.728898 0.711122
3087 9.71939 7.87157 4.11345 1.75562 0.384459 0.293294
3221 10.6452 7.82892 3.20606 1.18852 -1.71049 0.436309
751 11.9046 7.89994 2.85185 -1.09452 1.05846 -0.0462357
308 11.5325 7.15299 3.5718 0.839299 0.71718 -0.737971
3359 12.6348 7.536 3.83248 -0.657739 0.115646 -0.44219
725 11.8381 8.2441 3.93196 -1.03863 0.915347 -1.14616
3247 13.7833 7.64255 3.77723 0.976373 0.761185 -1.39189
364 13.0123 7.8585 2.92564 0.297562 -0.396361 -1.12459
2431 15.3437 7.40627 2.87886 -2.1448 -1.49077 0.92359
337 14.7779 8.11782 3.8674 0.851746 0.500664 -0.531659
604 16.3689 8.10911 3.09251 -0.00442748 0.456515 1.0001
3856 15.8246 7.65326 3.99884 0.377159 2.80917 -0.704052
356 0.86998 0.55 5.34433 -0.897253 0.906509 0.539764
823 0.418468 0.219538 4.37998 -1.22813 0.0941918 1.32937
1825 0.430523 1.42013 4.7938 -0.39097 0.669566 -2.61496
1947 1.28481 0.934622 4.39592 -0.0112289 -0.0156668 0.346202
1816 1.94043 0.829806 5.22355 -2.23028 -1.64686 -0.134081
2988 4.11347 0.250011 5.31724 0.171556 0.081503 0.0764119
527 3.79936 1.39706 4.87413 -0.500948 0.093832 -0.411096
892 3.18296 0.822054 5.35769 1.87035 -0.97809 0.846717
800 3.13384 0.0716473 4.59366 -0.794355 -0.969724 -0.418492
2331 5.02429 0.960606 5.39644 0.270593 1.01995 1.61391
1055 6.98076 0.169871 5.58557 -0.511039 -1.24139 1.40322
2834 6.56433 1.37179 5.01985 -1.5408 0.765041 -0.212252
3479 5.94758 0.472465 5.16943 -0.797673 -0.637182 1.70168
1470 7.5737 0.286072 4.48606 1.56123 0.635255 0.182577
1136 7.77927 1.18975 4.91175 0.230364 -0.669445 0.92488
2594 9.64274 0.483438 4.60716 -1.10967 -1.10606 -0.488568
1847 8.87302 1.16866 4.85371 0.887989 -0.900632 -1.54659
1844 10.571 1.03255 4.78294 -1.09609 -1.3149 -0.0897581
3627 11.1372 0.20137 5.61705 0.318864 0.409388 -1.81214