ITEM: TIMESTEP
54000
ITEM: NUMBER OF ATOMS
4000
ITEM: BOX BOUNDS pp pp pp
0.0000000000000000e+00 1.7099759466766969e+01
0.0000000000000000e+00 1.7099759466766969e+01
0.0000000000000000e+00 1.7099759466766969e+01
ITEM: ATOMS id x y z vx vy vz
2393 0.545529 1.02917 1.05553 -0.122802 1.37685 0.478286
1512 1.49118 0.542693 0.461387 -0.096971 -1.34884 -1.53529
1097 1.71672 0.608786 1.4006 0.697369 -0.20911 1.18877
72 2.14603 1.37858 0.526807 -2.20537 0.386272 0.212021
3410 2.94623 0.407732 0.612571 0.171528 0.0133137 0.0951246
735 3.5661 1.04352 1.34262 1.27312 1.11079 -0.26642
1987 4.10691 1.36269 0.432693 0.0477263 -1.64273 0.0940695
3119 4.82812 0.783231 1.42085 -0.93009 0.473025 -0.522025
1980 5.0973 0.236513 0.0519904 1.73075 -0.354741 -1.66337
2541 5.80009 0.438924 0.903109 -0.750809 0.721226 0.447977
1610 6.49037 1.08688 0.29227 0.547914 -0.914456 2.47805
1522 6.88108 0.0391723 0.177475 -0.735482 -1.53078 -1.02823
3009 8.46538 1.29403 0.596734 1.53463 -0.13988 1.00387
1984 7.70235 0.291574 0.746304 -0.637621 -1.05235 0.305141
3575 8.42536 0.471436 1.35806 1.09357 0.803034 0.509155
265 7.40799 1.33853 0.76695 -0.261262 -0.0696652 -0.57058
1085 9.09978 0.434543 0.509213 -1.44586 -0.589376 -0.774738
429 11.198 1.12565 0.430203 0.732113 0.443314 0.90605
2142 10.1151 1.03516 0.809177 -0.130421 -0.425087 0.0618234
675 10.9237 0.910558 1.37602 1.08608 -0.806688 0.454627
3980 11.6889 0.212272 0.946183 -0.490775 0.0713745 -0.672169
2946 12.1447 0.655526 0.0321812 -0.699408 -0.767143 -0.167194
281 12.2427 1.36019 0.99225 0.0589123 -0.461061 2.17918
83 13.1502 0.825381 0.438612 0.0118556 -0.826243 -0.298304
187 13.8821 0.495926 1.11574 0.0146641 -3.72028 0.191136
2742 14.2895 0.478374 0.0532118 -0.701031 -0.761768 -0.351899
480 14.9986 1.214 0.35434 1.09375 -0.380373 0.901967
2796 16.8316 0.308764 0.49746 0.667939 0.662196 0.612625
2503 1.07022 1.94981 0.0841786 0.0611704 1.35237 -0.361951
1539 0.157233 2.08716 0.722913 1.08172 -1.27963 1.46505
476 1.82649 2.34243 0.852322 -0.320156 1.50821 0.546394
2206 3.17524 2.43864 0.174441 0.933775 0.309294 -0.28415
75 2.95626 1.94716 1.21584 1.24225 -1.02882 1.45085
2057 5.48443 1.64432 0.664697 1.64236 0.358801 1.16785
992 5.50968 2.50503 0.0549276 0.200026 0.191539 -1.38412
4 4.40916 2.08792 1.29409 -0.409072 -0.622583 0.508977
1667 5.35462 2.5169 1.09776 -3.25136 -0.0334683 0.0332603
1879 4.33965 2.44674 0.278091 -0.967901 0.204009 -0.466651
1900 6.45087 2.00172 1.06316 0.732892 0.111989 0.697507
239 7.58191 2.27071 0.231059 -0.274561 -0.3219 1.0924
588 8.6078 2.65897 0.371323 0.0532477 -0.907323 0.905373
1762 9.88124 2.13824 0.407638 0.457086 -0.303754 0.413557
113 9.29103 2.54352 1.22705 -0.415548 1.75598 -0.834263
2363 9.15967 1.44003 1.38871 0.992239 2.29896 -1.08313
2515 11.1481 2.02798 0.75374 0.855787 -0.662681 1.57021
2484 13.52 1.50914 1.1071 0.872462 0.944373 -0.273745
157 13.8617 2.45717 0.926233 1.76063 0.91649 0.504135
2002 13.8381 1.69339 0.0437547 -1.30242 -0.848737 0.256777
80 12.9285 2.10578 0.346339 -0.419938 0.958118 0.767237
1829 15.3664 1.61542 1.29015 -0.930639 0.145802 0.218466
1966 14.6467 2.30421 0.316808 -1.2856 0.776793 -0.223256
805 15.016 2.66109 1.42053 -2.69959 -0.920455 -0.286848
2216 16.3788 1.56939 0.479523 0.344378 -0.202159 1.08678
201 15.6837 2.20586 0.374345 0.142216 0.308081 0.718977
1151 0.834376 2.95081 0.77322 1.47424 -1.22274 0.294427
1612 1.34247 3.71889 1.32676 -1.28251 0.751707 -0.132707
158 0.0809656 3.90008 1.11732 -0.778434 1.21707 -1.01567
164 2.58953 3.00837 1.16184 -1.22746 -0.779625 -1.44402
2951 2.52088 4.05998 0.692297 -0.475794 0.951009 0.264263
1710 1.60028 3.56213 0.222804 -0.0111701 -0.709433 -0.0807592
3407 3.4219 3.44439 0.393194 0.0477973 -1.08484 -1.52731
1815 3.74588 2.8571 1.08637 0.403325 -0.0625876 -0.489902
549 3.39115 4.08219 1.33743 -0.742938 -0.27083 0.0341154
2735 5.00965 3.49619 0.390353 -0.394097 0.479115 -0.305977
3691 7.02027 4.15501 0.569545 -0.635884 -0.884302 0.0425844
2346 6.02103 3.68743 0.797409 -1.57226 -1.9713 1.22443
3090 6.8871 3.14235 0.613348 1.23139 -0.699442 -0.751056
913 8.00473 4.06042 1.28534 -0.915399 0.287147 0.328042
210 7.85494 3.01334 1.05976 0.0586211 1.28746 0.62754
3552 9.55013 3.27052 0.378725 0.937694 -0.72465 -1.00519
523 9.02908 4.01107 1.09599 -0.0932514 -0.258556 -1.22152
3835 10.7954 2.86074 0.221084 -0.702146 -0.748006 0.546472
1120 10.2856 3.94471 1.06627 1.59419 0.906096 -0.869221
677 11.1527 3.95032 0.202717 -0.15949 1.249 -0.453722
1195 10.5157 2.99161 1.26322 0.534406 1.39078 -0.673453
2603 12.5282 4.08686 0.832823 0.752977 0.391829 -1.20834
1233 11.8663 2.93408 0.481359 1.22404 -0.658985 -0.79852
2387 13.0562 3.03018 0.885679 0.53244 -0.684128 -0.887053
3555 13.6126 4.04229 0.523157 0.791924 -1.58532 -0.43548
1791 15.3195 3.67644 0.0860175 -0.409143 -0.875621 -0.833319
424 15.0776 3.96787 1.14672 1.83406 -0.135774 -0.352686
3890 14.4272 3.26853 0.573504 -1.90961 0.279484 0.758914
2417 16.8005 3.06483 0.631981 1.12225 0.0345523 -0.0507374
3161 15.8183 3.21477 0.834717 -0.452538 0.0429549 -1.80315
2679 16.1481 4.24438 0.857078 1.11015 1.62786 -1.01438
1341 0.794937 5.56519 0.76564 0.510087 -0.808454 1.73817
3869 0.807667 4.53058 0.792113 0.186531 -0.505057 -1.27209
3488 0.114036 4.85746 0.0552663 0.897981 -0.206373 -0.292643
2059 1.61681 5.5653 1.39933 0.343359 -0.409653 -0.52934
2403 2.63186 5.66299 0.905883 0.122002 0.410919 0.481789
2129 1.69167 4.6725 0.0876916 1.72637 -0.0874809 1.94934
1436 3.52812 5.11641 1.05464 0.7806 0.548854 1.14214
119 3.07488 4.8906 0.00981504 -0.846959 0.18599 -0.067824
3225 4.40604 4.99416 0.434468 0.0901131 0.0920901 -0.987895
465 5.34621 4.5542 0.0425282 1.10128 1.69087 -0.036707
1414 5.77849 4.97567 0.916829 0.50524 0.275981 -1.59619
1365 6.58202 5.2883 0.366023 -0.681191 0.37503 1.57358
900 7.22576 4.82351 1.32256 -0.270622 0.669436 -0.969935
1383 7.86515 4.73471 0.469359 0.315288 -0.333596 0.272479
3660 9.81931 4.6642 0.591836 -0.278403 0.833631 -0.305464
2266 8.78561 5.29749 0.32847 -0.734941 0.541803 0.708822
1983 9.57523 5.61667 1.15683 -0.774169 0.346956 0.395645
481 10.7056 5.64444 0.576883 -0.271541 0.536376 -0.132905
398 11.6622 5.03687 1.00649 -1.15677 -0.159189 -0.171316
920 12.8744 5.17458 0.759908 -0.127807 0.934135 0.435456
3664 13.9023 5.05132 1.27665 -1.57728 -1.56789 0.448736
2901 14.434 5.42759 0.453007 -1.00716 2.42057 -0.67866
687 15.4464 5.15611 0.427116 1.34699 -1.35051 -1.69277
1883 14.5759 4.34551 0.182255 -0.955664 -0.331344 -0.45313
101 16.9815 4.88871 1.14085 2.02429 -0.00811533 1.37971
1597 16.1568 5.43517 1.34662 -1.61787 -0.696968 -0.766568
1708 16.3851 5.47031 0.332588 -0.204104 -0.530082 1.77264
155 1.34976 6.4192 0.216604 1.08485 0.511678 -0.464312
3979 0.0205254 6.09761 0.178763 0.179435 1.20683 0.847399
3581 2.23556 6.70925 0.479452 -0.132203 -0.509235 -0.0990681
1214 3.81952 6.33686 0.758271 0.978441 0.151655 1.10073
479 3.10083 6.31733 0.0412994 -0.941836 1.10732 1.33314
1323 4.69903 6.66827 0.0489461 -0.392557 0.941707 -2.06251
2529 4.86419 5.87506 0.99902 1.63307 -1.17644 1.33231
1495 4.68708 6.99717 1.35448 -1.03579 0.893871 0.279273
351 5.57992 5.75071 0.25785 0.0407571 1.25959 -0.780603
271 6.16138 6.03699 1.18357 -0.472458 -0.42403 -0.484404
591 5.75113 6.82639 0.815868 -0.548191 0.985317 -0.826717
2558 6.81258 6.85509 0.317406 -0.237876 -1.25949 0.845969
1590 7.35794 6.86257 1.30865 0.70511 0.754356 0.104618
1747 8.14878 6.18239 1.06262 -1.29598 -1.7348 -1.4763
1864 7.13631 5.94439 0.935318 1.38193 0.727447 -1.73963
3875 8.05189 6.95947 0.271937 -0.43532 0.502816 0.354918
409 7.80955 5.69994 0.230308 -0.00906944 0.763529 1.3166
3316 9.81615 5.93688 0.176591 2.02704 1.11978 -0.0103388
2525 8.83497 6.28696 0.158647 -0.327497 1.27922 0.865998
2003 9.05501 6.5998 1.39183 -0.231097 0.0984018 -1.1712
1806 9.7387 6.99237 0.494298 -0.993838 -0.493321 0.601847
136 11.3986 6.35862 1.0084 1.1466 0.131316 -0.0417508
344 10.8768 7.10208 0.245268 -1.75464 1.31242 -0.425303
3440 12.5018 6.36804 0.835201 -0.863235 1.02344 -0.510398
1784 11.6015 6.38442 0.00178883 -0.765194 -0.277289 -0.10465
631 13.4314 6.87112 0.925949 1.78378 2.65178 -0.668432
1557 13.575 5.94778 0.332525 0.318707 -0.448039 -0.7281
2611 14.3126 5.99217 1.4224 -0.08708 3.2696 -0.68633
1896 14.7706 7.00876 0.660329 0.414689 -0.232436 -0.806932
1514 15.5059 6.23832 1.25945 -0.0825762 -0.441931 -0.469516
595 15.1407 6.21512 0.132334 0.225743 0.335113 2.01006
76 16.0346 6.47588 0.18638 -0.860107 0.160041 0.873177
91 16.5259 6.4726 1.17056 0.566093 -0.0964916 -1.21805
92 0.458484 7.4425 1.31311 -2.37895 -0.269758 1.04186
79 1.54217 7.44427 0.937931 0.989611 -1.36577 -0.174074
3887 2.83938 7.17647 1.22975 -2.06292 0.88338 0.409342
1397 2.27458 8.40481 1.06038 2.29302 -0.7402 -0.814837
1136 3.90516 7.477 0.76753 -0.000205309 -0.427067 0.466956
3877 2.86565 7.54633 0.116126 -0.23652 -1.24464 0.426275
1591 5.42283 7.86996 1.07382 -1.19138 0.128503 1.00744
2108 4.89222 7.67997 0.303545 -0.324795 0.626159 0.614945
3107 6.39288 7.6273 0.965724 -1.03913 0.866067 0.250562
1343 6.38123 8.52869 0.317199 -0.083638 1.55967 -0.474237
1685 8.40383 8.23569 0.643572 0.881891 0.118206 -0.397207
114 7.32258 7.87832 0.852196 -0.259233 -0.033331 -0.661776
97 9.36718 8.06338 1.06217 0.238681 -0.279218 0.602636
94 10.4294 8.04236 0.701845 -0.15758 0.624701 -0.699474
2664 11.1342 8.19584 1.33542 1.04295 -0.799426 0.275949
3559 11.0936 8.36883 0.179103 -1.27773 -1.03518 -1.69246
3223 12.0387 8.42072 0.732555 -0.751415 0.081553 -2.40265
3918 11.9782 7.27474 1.27072 -1.93366 -1.60574 -1.91124
3530 11.8057 7.572 0.159072 1.1033 0.356464 -1.60846
545 13.402 8.25081 1.04807 0.729318 -1.3508 -1.086
711 12.8578 7.58902 0.542655 0.390062 -1.23311 -0.663997
3065 13.683 8.22805 0.0222989 0.121545 0.678015 0.379065
2605 14.7217 8.44063 1.06782 -0.975651 0.395851 1.61794
365 15.4531 8.0338 0.371361 -0.74682 -0.349746 1.02053
1146 14.5751 7.79263 0.00571001 1.49578 -1.92463 0.724889
1298 15.6951 7.34552 1.21093 -0.943977 1.40433 -0.179293
818 16.6911 7.28447 0.351067 0.998291 0.199918 -0.166859
949 16.4464 8.35877 0.704434 -0.583828 2.54716 0.987961
3510 0.00280332 0.643867 2.13962 -0.0830531 -0.118588 2.04876
1200 0.98156 0.309493 2.0363 0.124836 0.414288 -0.700771
2247 1.73949 0.930793 2.73878 0.325427 0.621979 -0.868962
1043 2.47752 1.29218 1.98537 -0.065929 1.35421 0.231256
3539 2.69102 0.374418 1.69545 0.118452 -0.597936 -1.00092
1921 3.88469 0.0202202 1.52539 -1.07038 0.877467 0.692373
1089 3.35582 0.796934 2.6442 0.362291 0.218033 -0.826239
1045 5.58598 0.0233656 1.80968 0.205935 1.42106 -0.326221
1760 4.35809 1.31928 2.34521 1.4807 0.728499 0.830955
3808 5.47418 0.836846 2.63887 0.0713323 1.36447 1.11061
3036 4.67104 0.196056 2.19869 -1.29122 -0.31681 -0.548434
1336 5.93135 1.12793 1.61464 1.36124 -0.287911 1.84865
2081 6.82299 0.770375 1.43317 0.101874 0.265259 -0.367436
3363 6.34063 0.305079 2.41022 0.207794 -1.69839 -0.356383
3636 6.71872 1.41175 2.28698 1.82332 -1.88563 1.90797
1712 7.61955 0.866756 2.80029 0.681244 -1.58919 -0.0981809
1891 7.79103 1.23876 1.86632 1.92944 0.284975 -0.0258609
3190 7.87279 0.104146 2.15191 -0.370959 -1.16863 0.748625
3579 8.64571 1.23006 2.58265 -1.25727 0.63093 0.343251
743 9.60825 0.484117 1.51084 -1.48421 -0.517081 -0.96256
3231 10.5757 0.485874 2.22786 -0.624982 0.138815 -0.134219
2485 12.7972 0.456936 1.45917 0.732359 0.190916 -0.175683
1547 12.0031 0.822536 1.96065 0.560191 -0.178227 0.280584
234 11.4083 0.455287 2.806 1.42331 -0.732151 -1.10838
477 13.3697 0.603839 2.69127 0.982487 -0.534917 1.40795
1254 14.4813 0.143623 2.25277 -1.46913 -0.577081 0.421884
1696 15.304 0.682802 2.11544 1.04937 -0.476313 0.687097
3920 16.1216 0.496001 1.45308 -0.911878 0.133347 -2.20697
3142 16.3766 1.34332 2.2692 -0.520178 0.428864 0.42366
3884 16.2159 0.361527 2.66961 -0.842509 -1.69181 2.22684
3795 1.41434 1.51028 1.43275 0.999039 -0.753397 -1.13936
456 0.532074 1.85662 1.89238 0.457701 -0.582863 0.749226
797 1.03665 2.62994 1.71566 -0.537157 -0.34721 -1.33231
688 2.25213 2.2783 1.94944 -2.4708 0.495277 -0.671737
941 2.75192 2.73301 2.81808 1.1937 -0.397672 0.197331
2154 3.36949 1.78916 2.30831 0.800582 0.31742 -0.146054
1003 3.14809 2.76939 1.92989 -0.422744 1.03669 0.00509926
354 5.2456 1.84955 1.83571 -0.134056 -0.743951 -0.942035
237 4.55275 2.57452 2.34103 1.05608 -1.28946 -0.286893
2357 6.25913 2.38041 2.51548 -0.745279 -0.41019 -1.98777
416 7.41096 2.41362 2.34518 -1.84499 1.2782 0.729279
1041 8.25536 2.10175 1.47008 -0.723576 -0.493465 -0.657259
3767 8.40567 2.31825 2.53177 0.385252 1.46792 -1.33854
1090 9.50788 2.18667 2.29207 2.01206 0.793132 0.854449
41 11.0444 2.01983 1.71208 -0.688645 1.12251 -0.910439
3338 10.1202 1.42846 1.87298 -2.26347 -0.0212453 1.79611
2640 11.3994 2.76906 2.55776 -0.28358 -0.900386 2.42176
3911 10.3385 2.71814 2.58998 -1.10942 -0.199906 -2.1837
3924 10.885 1.44561 2.62399 2.10583 0.0904165 -1.9815
2077 12.3198 2.31399 1.63315 -0.144977 -0.450985 -0.195854
1175 12.395 2.55751 2.64127 -0.864359 0.750526 1.14002
3020 13.9721 1.83651 2.84012 -0.719586 -1.41566 -0.635259
2959 12.9485 1.66306 2.44946 1.20716 -1.40837 -1.92353
3317 13.4806 2.37988 1.93788 -1.01402 -0.283925 -1.22571
2145 14.4169 1.77394 1.69523 -0.752565 -1.52647 0.741053
2354 15.2519 1.70961 2.30298 1.18206 1.76821 1.18249
421 14.4273 2.64057 2.32086 0.963146 0.740731 -0.857557
3706 16.7948 2.54846 2.7037 -0.748436 0.1181 -0.557193
2351 15.9832 2.37449 1.95751 0.20884 -1.5215 0.484696
3966 0.828232 2.99952 2.77998 -0.113396 -0.662466 -1.91553
3841 0.342987 3.9717 2.22475 -1.19725 0.442973 -0.414412
2867 2.05441 3.376 2.08431 1.49235 0.446273 -0.676388
733 3.87027 3.33992 2.19355 -0.372672 0.511122 -0.277316
1527 2.94799 4.08279 2.34061 1.04941 -1.1236 0.38724
562 5.38799 4.20395 1.60515 0.378218 -1.53996 -0.0364873
1408 4.71559 3.21412 1.46219 0.244993 0.146063 0.624019
2172 5.14376 3.64173 2.50564 -0.206197 0.472756 -0.378727
897 5.85231 3.14804 1.91215 -1.02275 0.011093 -0.105779
3445 6.8033 2.90493 1.66853 -0.0395116 -0.584571 -0.796257
35 6.48082 3.94647 1.75575 1.7954 -2.0589 1.92275
3403 7.62484 3.4979 2.24702 -0.0731179 -1.15111 -0.295663
231 8.60425 3.06895 1.80357 0.0748529 -1.48122 0.593312
1152 8.97664 3.978 2.16226 0.806403 1.10148 1.59457
3659 9.09084 3.05176 2.71114 -0.825953 -0.391996 -1.02955
726 9.76203 3.25374 1.91953 0.293994 -1.44004 1.01845
3637 10.6327 3.77631 1.99803 -0.530033 -1.02678 -0.261889
3919 11.5893 3.24786 1.55814 0.160184 0.900632 -0.302082
2854 12.6211 3.32265 1.69855 -0.0109274 0.814194 -1.58857
2994 11.9724 4.22503 1.70109 -0.0643225 -0.557796 -0.39568
459 12.1226 3.59771 2.54495 -0.877902 1.44892 0.464881
144 13.2683 4.2389 1.68612 0.875797 0.319633 0.88463
1545 14.0598 3.52353 1.67011 0.538283 1.05738 -0.617653
3960 13.2372 3.66338 2.58154 0.352839 -1.09654 0.0342706
270 15.2672 3.77471 2.13515 -1.35497 -0.420968 1.08504
1170 17.0196 2.879 1.7287 -1.84017 -0.621428 0.753649
1312 16.2312 3.69334 1.74348 -1.0354 -0.404617 1.18877
3777 15.9427 3.1503 2.66566 0.856872 -0.210684 0.39755
1400 0.965056 4.80654 1.79886 -0.542017 -1.38739 0.601753
2903 0.132807 5.41611 1.99192 0.229069 0.0223043 -1.16455
969 1.7508 4.31198 2.6941 -1.13282 0.140088 -1.28977
3910 2.06244 4.54219 1.54327 -0.343988 -0.0353143 -0.0972352
2442 2.61356 5.06829 2.25357 -0.56994 -1.14416 1.28546
3300 3.6807 4.8495 2.48004 -0.316975 -0.632876 -0.413471
3821 4.32043 4.53636 1.6003 0.34617 1.81933 0.283034
779 4.68934 4.64336 2.52945 0.911917 -0.139078 0.82814
460 4.46437 5.49773 1.7969 1.8277 0.473363 -1.11616
3267 5.40484 5.57348 2.11213 0.397119 0.94298 1.50189
2162 6.10747 4.35724 2.849 -0.768962 0.644149 0.828479
2774 6.84274 4.93531 2.60768 0.179975 1.06464 -0.84306
1426 6.30183 5.00178 1.77576 1.12005 0.167924 1.25424
2410 7.9766 4.49075 2.29766 0.945745 0.711296 0.584916
2902 7.92292 5.51848 2.23333 2.83514 2.45535 -0.478825
3057 8.68554 4.98285 1.53924 -0.442921 -1.4498 -1.09289
282 9.87248 4.54398 1.99714 -0.182199 -0.0836049 1.18484
2250 10.6669 4.89993 1.52281 0.8602 -0.706134 -1.43921
3011 11.4825 5.64815 2.07766 0.395229 0.237641 -0.679535
2385 11.6054 4.64188 2.52834 2.11621 0.562103 0.947213
1344 13.1833 5.06187 2.32174 0.103814 -0.0438044 -0.0468039
339 14.2413 4.60204 2.15146 -0.716953 0.943537 0.17799
1099 14.0883 5.59407 2.73275 -0.0534946 -0.503514 -1.21689
1718 14.9882 4.98463 1.63444 -0.387564 -1.14859 0.148645
415 15.3278 5.45662 2.76678 0.546916 -1.14144 -1.23425
3868 15.9667 4.75651 2.11588 1.71218 -1.47051 -1.00459
433 0.638559 6.46665 1.45669 -1.1199 -1.51579 -1.14892
984 1.30002 6.14616 2.28679 0.584831 -1.78397 -0.0819806
3250 1.93096 6.58637 1.43324 0.85531 -0.0847389 -0.0553759
11 2.10866 6.84645 2.66176 1.10321 -1.35163 -0.63627
498 2.88533 6.18964 2.08271 -0.602656 -0.978012 1.43053
3760 3.79562 6.66926 1.70212 2.182 -0.855381 1.53715
1640 4.14349 6.57795 2.78903 -1.49114 0.86856 1.03018
1286 5.61344 6.67677 1.81084 -1.65337 0.0567074 -1.80635
3736 6.93556 5.77424 1.95278 -0.672226 0.475452 -1.21983
3796 7.95349 6.66823 2.14544 1.36199 -0.466894 -0.865648
464 9.82913 5.83324 2.34883 0.508991 -0.814559 0.386407
3580 9.08706 6.87256 2.5489 0.0175333 -1.14482 -0.677469
3204 8.89375 5.82975 2.81953 -0.189581 -0.672975 1.46745
1683 10.496 6.13122 1.47212 0.87796 1.56951 -1.27343
2303 10.7502 6.17312 2.77348 1.24663 0.892495 -0.784373
3408 10.0826 6.84079 2.11475 0.581468 0.654605 0.0685704
2839 11.9467 6.64187 2.13276 1.09642 0.42079 0.272264
1548 12.9316 5.95612 1.61827 -0.945607 -1.81151 -0.438348
3318 12.9576 6.93424 2.09944 -0.4466 0.555988 2.16451
998 13.965 6.67866 2.34958 0.427893 1.32906 -1.6156
978 14.9317 6.28017 2.20081 0.0825147 2.00319 -0.509406
2909 16.8664 7.09132 1.98692 -0.329533 0.10023 -0.295984
754 16.1178 6.25389 2.08493 -0.229429 0.186837 1.2032
1435 0.53711 8.2226 2.74865 -0.405446 0.598592 0.917454
842 0.828584 7.132 2.35832 -0.02163 -0.933831 1.84213
2388 1.0953 8.14095 1.79988 1.24461 -0.485094 -1.5746
3254 2.11021 7.88463 1.91781 -0.244545 -1.53331 -0.331411
637 3.23804 7.24912 2.42048 1.86946 -0.098861 1.37739
1577 4.18372 8.11674 2.24087 -0.928312 -0.575084 -2.0481
348 3.0236 8.25212 1.83304 0.765375 -0.922761 0.503769
2302 4.88389 7.32622 2.45441 0.397589 -1.15661 -1.68701
3124 5.82307 7.72324 1.95993 0.195294 -0.281263 0.242435
2849 6.84011 7.80945 1.87126 1.05861 -0.830696 1.35555
3932 7.74158 8.25145 1.92061 -0.291665 2.74161 -2.24189
174 8.60251 7.55239 1.96134 0.942483 -0.570959 0.927007
573 9.81942 7.8034 2.46337 -1.15252 -1.09918 -1.17661
99 10.0643 7.54283 1.42937 -0.0777236 0.0946028 -1.2219
189 10.996 7.20935 1.71079 -1.04274 1.572 -1.19379
655 10.9307 7.26574 2.78134 0.242624 0.523374 -0.536702
2155 12.811 8.0141 2.21605 0.843294 -0.0646192 -0.565301
1774 11.6938 7.71017 2.28915 -1.02694 -1.77973 0.405185
1303 13.8654 8.25208 2.13464 0.207661 1.36123 0.190363
657 14.742 7.38987 1.5547 0.567289 -1.37453 -0.733664
337 14.889 8.50229 2.08976 0.612683 0.167104 1.42793
1482 14.5038 7.52741 2.57106 0.56876 -1.66167 -1.18616
1081 16.2031 8.26388 2.59101 -1.06855 -0.269171 -0.786435
1331 17.0576 8.26328 1.90302 -0.753278 1.32384 0.497589
2625 15.8655 8.49374 1.50006 1.23239 0.577263 0.885508
2894 15.72 7.39052 2.35129 -0.445246 -0.142641 0.316429
60 0.00242106 0.597703 4.22169 1.25455 -0.722192 0.506054
1375 0.983438 0.418952 3.53453 -0.143879 -0.97876 0.580712
1139 2.35509 0.147521 3.27451 -1.15471 -1.8813 -0.0347331
1325 2.83085 1.20562 4.16714 -0.224055 1.30416 -0.185939
1374 1.92584 0.585789 4.06958 -0.939281 -2.22065 0.0349945
714 3.32185 0.509721 3.58921 1.44838 -1.02977 0.617451
982 4.80686 0.192755 4.17114 1.12847 -0.457875 -1.16147
2834 4.4409 0.537078 3.15974 -1.43011 0.783345 -0.786867
1638 5.81525 0.605377 3.74184 -1.78683 0.329515 -0.384266
3786 7.22211 0.747506 3.84562 1.29648 -0.107418 0.570212
860 8.49428 1.03288 3.54977 1.06602 0.146654 0.238126
2235 9.83788 1.00086 2.86797 -2.0221 -1.19128 -0.481017
888 9.59165 0.209239 3.65532 -1.70505 -0.0934622 1.3354
1842 8.91756 0.251195 2.95296 0.612235 1.43357 -0.261399
3117 11.1994 0.0557969 4.16892 -0.2797 -0.102753 0.0275676
889 10.0692 1.07967 4.16018 -2.11419 -0.445933 0.547123
1621 12.2939 0.888343 3.23089 1.13256 0.0363179 -0.766983
847 11.5703 1.13844 4.02227 -1.60318 -0.209977 0.115431
262 13.8876 1.18758 4.04257 -1.03283 0.0248336 -2.10812
1465 14.7802 0.918972 3.0412 -0.452997 -1.62598 1.34329
319 15.1531 0.60936 3.99189 0.909577 -0.0233549 -1.46774
951 14.261 0.0449046 3.78883 0.896302 0.00563695 -0.560444
1178 15.8787 1.39109 3.22285 -0.545187 0.661062 -0.25238
3761 17.0572 0.950656 3.16198 -0.367305 -0.326191 -1.13923
390 0.340317 1.60356 4.05854 0.15256 0.244035 1.16924
2826 0.732705 1.5496 2.93779 -0.332019 1.54207 0.970362
904 0.88917 2.38028 3.6157 2.17408 1.21679 -1.18423
651 1.77384 2.21511 2.95777 -0.652592 0.519565 -0.369809
618 2.23018 2.18595 3.88231 -1.02832 -0.24126 0.216488
2127 2.64761 1.52567 3.20582 -0.0441155 0.490513 -0.58277
686 3.71217 2.54228 3.01428 0.49301 -1.94449 -1.28023
2585 3.53925 2.32274 4.19767 1.11581 0.57435 -0.964209
1765 4.11218 1.4489 3.45983 -1.12233 -1.7044 -0.504165
3228 5.34191 1.9515 2.90571 -0.0172154 0.0694716 -0.166384
1113 4.9921 1.9872 3.95203 0.338459 -0.14105 -2.11038
299 6.48342 1.51913 3.26256 0.387784 0.257159 0.236378
2987 6.27612 2.48119 3.9127 -0.588849 -0.31953 -0.313152
1209 8.03978 2.24706 3.85782 0.295029 0.0126221 -1.04079
3627 7.14565 1.72882 4.18545 0.646902 1.17938 -0.438641
2369 7.13612 2.34177 3.36633 0.248391 -0.175793 -0.814241
724 8.8791 2.75526 3.63457 0.0295762 -0.366939 -0.390605
1035 9.21896 1.71098 3.56413 1.11765 -1.16985 -1.63476
2549 9.91325 2.50202 3.60925 -0.849241 0.196179 0.262216
3290 10.7495 1.85824 3.66141 -0.336677 -0.878663 -1.31678
418 11.6622 1.79707 3.10726 0.437002 0.453112 -0.206102
2540 11.8564 2.79539 3.43454 0.0169646 -0.0114882 0.803634
3462 11.8696 2.12282 4.24141 -0.885123 0.462991 1.49837
3472 12.8891 1.85724 3.56506 -1.49612 0.493825 0.641855
753 13.3937 2.64431 3.01232 0.286118 -0.801875 1.55062
2724 14.0626 2.39742 3.9423 0.156129 -0.291497 0.879604
2132 14.9765 2.2015 3.2206 -0.57583 -1.47132 0.483135
1648 15.1845 2.6082 4.26353 -0.112391 1.08183 -1.29123
3390 14.8729 1.53965 4.2094 1.07824 -0.815313 -1.44172
2945 16.0008 2.34155 3.43013 -1.67477 0.160313 -0.0984029
931 16.7518 2.72808 3.85024 0.0230911 0.618117 -0.0330872
2492 16.4204 1.44147 4.01243 -1.15393 1.56671 0.133134
212 0.954997 3.4063 3.72018 -0.36588 -0.64488 0.306087
2010 0.0102997 3.57062 3.19592 -1.15037 0.343749 -0.418772
2588 1.9638 3.33685 3.30197 0.942954 -0.0167421 -2.2524
2446 2.53745 4.08839 4.25353 -0.426925 -1.00208 1.97411
2480 2.66717 2.9991 4.22457 1.58816 -0.0434654 1.2764
1643 3.96839 3.90032 2.9898 0.122993 -0.582634 0.603947
342 3.06236 3.65496 3.42319 -1.49893 -0.52425 -2.32312
2035 3.97763 3.29414 4.02113 0.106209 -0.883127 -0.644256
3388 3.57395 4.16072 4.20427 0.722252 -0.0133992 -1.10882
829 5.64885 3.1078 3.14339 0.444954 0.225687 1.40541
1841 4.74258 2.94111 3.39673 -0.422705 -1.3335 -1.42487
2331 5.24037 4.00938 3.61009 -1.23911 -0.147615 -0.705397
478 6.75166 3.19451 3.09101 1.61482 -1.95128 -1.31357
1854 6.24003 3.57664 3.98331 0.759636 -0.513512 -1.13975
321 7.97615 3.21965 3.36944 -0.301071 0.808858 0.314763
1847 7.13983 4.24283 3.419 0.852189 0.359446 -1.68317
2798 8.18512 4.24202 3.899 -0.362195 1.39736 1.05077
316 8.98693 4.0823 3.24962 -0.30705 1.67777 1.22404
1413 9.56773 3.50822 3.86102 0.185132 0.942921 0.986078
2853 9.87177 3.74839 2.88476 0.6984 0.784751 -1.06948
445 10.3633 4.23446 3.95488 0.789071 0.126204 0.857394
587 10.8217 3.39269 3.26164 0.113824 -0.09072 -1.19372
3450 12.7797 3.39177 3.48017 -1.98867 -0.0961442 -1.86744
3669 11.9699 3.98894 3.73813 0.13844 0.487233 -1.40999
3523 13.778 3.56873 3.78898 0.708528 3.22149 0.871808
2999 14.4658 3.34671 3.13073 -0.596367 -0.387076 0.153913
3008 14.908 4.09848 3.99879 0.760593 -0.537416 -1.90338
2756 15.689 3.44779 3.69464 0.780703 -0.179788 1.23751
1813 16.4322 4.22691 2.90407 0.587923 1.19344 -0.162511
3470 0.242494 4.83682 2.89076 -1.36621 1.15827 -0.586489
664 1.09517 4.37389 3.50777 -1.78317 1.009 0.0407294
2722 1.24752 5.28969 2.86117 0.0173557 0.600447 -0.0649358
2293 0.0159898 4.74217 3.97516 0.280964 0.0265003 -0.15031
2762 2.10374 4.84937 3.60788 -0.0181607 -0.480256 -0.45467
3200 3.04613 4.6971 3.34019 0.517055 0.309353 0.508375
2883 4.22008 4.87691 3.49828 -0.0502343 -1.2705 0.29761
1833 3.44674 5.61774 3.62821 -0.384095 0.398934 0.728891
1321 5.30959 5.26212 3.26236 -0.227249 -1.15432 1.70506
1584 5.02725 5.31924 4.19969 -0.36668 -1.99386 0.575089
1262 6.45448 4.78503 3.90611 -1.51808 1.60088 1.30421
3452 6.91546 5.65854 3.59613 -0.759243 0.230093 -1.90687
3551 7.73057 5.19 3.17201 -0.354244 0.284755 0.639196
811 9.92502 5.3604 3.19484 0.971444 -0.623213 0.150674
1064 9.04069 5.27289 4.00531 -0.139002 1.30371 0.282399
127 10.745 4.64214 2.93694 -0.230963 1.56986 -0.00180219
3236 11.0547 5.00183 4.25861 -2.2825 -1.255 0.0489322
2434 12.6475 4.41308 2.85282 -1.12614 -0.332929 0.348293
672 11.719 5.02935 3.51552 1.09337 1.4466 -0.792979
3802 12.8955 5.28951 3.22756 -0.771656 1.24308 -0.912717
2237 13.8968 4.74508 3.26909 -0.0290883 -0.325705 0.335921
2379 13.0479 4.30621 3.82629 -0.333437 -0.696727 -0.0419989
355 13.9856 5.6692 3.89974 1.15462 0.917776 -0.0926641
3723 15.1152 4.40782 3.03026 0.0133755 -0.255506 -0.775324
3247 14.8983 5.30561 3.72556 0.0779009 -1.43601 -0.829747
3749 16.0135 4.58329 3.91298 0.942247 -0.369238 1.10267
2727 16.515 5.4023 2.88996 -1.42284 1.04185 0.500548
2800 15.9555 5.60587 3.768 -0.26907 -0.249406 -0.386395
980 0.206577 6.03905 2.94104 0.31072 0.465876 0.885432
3923 1.2433 6.44813 3.29798 -0.242662 -0.270893 -0.817509
1692 2.26561 5.70538 2.98751 -0.122193 -0.036829 0.0568107
2333 2.23492 5.75648 4.17959 -1.35373 -0.0918404 -1.08117
532 2.271 6.96239 3.86177 -0.847455 -1.17259 -0.0817811
1442 3.97268 6.53509 4.01332 0.200837 0.662916 0.329129
531 3.03283 6.57403 3.33945 -0.0947266 -0.499341 -1.38324
491 4.49959 5.8842 3.40273 -1.50685 -1.69278 0.0352672
2488 5.22317 6.37811 2.90008 -0.800238 -0.224493 0.879146
2938 5.38734 6.28154 4.02322 0.70929 -0.855944 1.08577
3260 6.1776 5.82263 2.90947 0.730414 -1.18667 0.769054
1265 6.31032 6.54945 3.80464 0.0356622 0.487569 -0.771149
2695 6.26961 7.11609 2.97761 1.60485 -0.399962 0.968128
2079 8.13802 6.13767 3.4047 0.72081 1.68455 -1.34876
1732 7.17309 6.49197 2.97318 -0.483845 0.432631 1.22015
3087 7.33931 6.85499 3.92333 -0.00699898 -0.259339 -0.588354
1786 9.65002 6.07491 4.07686 -0.489382 -0.2456 -0.0496806
3837 9.88257 6.75473 3.27706 1.74508 0.0693665 1.28761
496 8.81361 6.80498 3.81565 1.11141 1.91377 0.807532
1212 10.7288 6.58531 3.85582 -0.380623 -2.50715 1.28012
264 11.6437 6.76388 3.61479 1.23517 1.4722 -0.46989
106 12.0584 5.91092 2.98534 -1.21303 0.644659 -1.98938
2412 12.8196 6.04114 4.00902 0.959689 -1.24116 0.583854
1050 12.5544 6.95008 3.04927 1.53368 -0.570561 1.3125
3211 12.6675 7.09326 4.15196 -0.844056 0.835972 -1.27154
3419 13.4117 6.28109 3.14053 -1.35196 -1.14872 0.714935
3672 13.9655 6.78168 4.04947 -0.683376 0.72359 -2.39516
2580 15.1946 6.29911 4.21981 -0.584034 0.690369 0.114099
3954 14.6315 6.4684 3.27699 -0.379729 2.05419 -0.718956
1087 16.912 5.8958 4.0022 0.383085 0.921168 -0.123206
3259 16.9524 6.84576 3.79765 1.28545 1.20633 0.213456
2537 15.9478 6.40128 3.08405 -0.544479 -0.531096 -1.20802
2375 0.371944 7.67458 4.26259 0.451816 -0.336925 -2.42838
3157 1.37842 7.41032 3.67932 0.813405 -1.35166 1.45294
524 1.8839 8.26813 2.87966 1.27126 -0.182886 -0.653976
1317 2.21991 8.04532 4.0171 -1.22159 -0.313909 0.24602
3647 3.29338 7.33869 4.25179 0.00835401 -0.302797 0.97055
3651 2.94505 7.74237 3.35019 -0.291565 -3.23277 -1.43395
602 3.99102 7.79263 3.29996 1.7002 1.00708 -0.358294
744 3.26472 8.52407 4.04825 -0.204954 -0.131893 -0.591345
2977 5.21476 7.24532 3.56693 1.55469 -1.21748 -1.32607
1715 4.85546 8.32859 2.99795 0.116798 0.581169 -0.129095
3697 5.20741 8.18961 4.03781 0.543441 -1.62182 -0.444947
1582 5.88433 8.05781 3.09589 -0.880665 0.54452 0.267286
3170 8.10149 7.57845 4.16549 -1.05271 -0.818799 1.31064
656 8.03515 7.12947 3.13478 -0.445798 -0.277661 0.570061
118 7.13885 7.71158 3.27003 -1.46793 0.711068 -0.206113
2570 8.0758 8.20683 3.11925 -0.754409 -1.93945 0.493053
2633 9.25407 7.75329 3.34913 -0.367408 -2.35774 -0.378026
362 9.81887 7.82266 4.26615 0.760755 1.09549 0.165848
1132 10.9635 7.57567 3.86988 0.12385 -1.16696 -0.0922836
3849 10.2772 8.2548 3.30655 -1.33669 -0.461428 0.839002
3499 12.7509 8.00188 3.40536 0.815477 -0.95633 -0.665392
621 11.7428 8.047 3.27038 0.166713 -0.210664 0.106093
2958 13.5461 7.37464 2.95348 0.387163 -0.83577 0.412734
1054 13.9548 8.29008 3.39763 -0.520669 -0.730688 -1.00114
3417 15.1504 8.40282 3.50366 0.481063 -0.181393 0.497673
2313 14.7954 7.36577 3.90647 0.635169 0.538163 0.0776599
430 16.5516 8.15186 3.64995 0.661521 -2.31852 0.0880815
2013 17.0376 7.46914 2.98673 0.502144 -0.987957 1.35295
3010 15.9673 7.25185 3.88245 -3.0242 0.821869 -1.62551
3952 1.04385 0.482637 4.62121 2.55349 -0.465006 -0.722856
1688 1.00433 1.12501 5.67183 -0.340585 -0.447646 -0.834164
2389 2.00165 1.23658 5.1342 -0.303765 -0.391174 -0.0562685
1278 2.71154 0.219344 4.57598 -0.13151 -1.57121 -0.501767
2472 3.27455 0.551523 5.5052 0.788548 -1.88689 -1.34733
1091 4.23251 0.93666 5.2822 0.488407 -1.35651 0.31854
3641 3.89103 0.42852 4.45834 0.511929 0.689015 -0.894977
2329 5.29966 0.567416 5.12292 -0.729025 0.248847 -0.33065
737 6.7989 0.731803 4.83199 0.29091 -0.0974828 1.3074
943 5.93681 1.34811 4.28474 0.700016 0.343776 0.585128
2769 8.1145 0.626342 4.47608 1.15005 -2.37865 -0.324924
2092 9.21272 0.634855 4.8771 0.426411 -0.378918 0.279478
3076 11.1251 0.740342 5.19943 0.0144126 1.06504 1.50588
1318 10.2699 0.204261 4.67609 -1.9334 1.35778 1.53891
434 12.1857 0.264269 4.48798 -1.88105 -0.55607 0.810827
1570 12.4636 1.2788 4.72225 -1.08201 1.32033 -0.317913
1677 13.4813 0.521904 4.65084 -0.217213 -0.249857 1.14174
3652 13.2215 1.03503 5.55718 -0.185545 -0.610971 -0.00238739
578 14.5965 0.588906 5.01073 -0.0703907 0.00464238 0.346437