ITEM: TIMESTEP
72000
ITEM: NUMBER OF ATOMS
4000
ITEM: BOX BOUNDS pp pp pp
0.0000000000000000e+00 1.7099759466766969e+01
0.0000000000000000e+00 1.7099759466766969e+01
0.0000000000000000e+00 1.7099759466766969e+01
ITEM: ATOMS id x y z vx vy vz
3368 0.82877 0.00073678 0.943742 0.958479 0.329953 0.898137
791 1.13427 1.16093 0.977661 -1.28068 0.636628 -0.196454
3615 2.02216 0.599314 0.907382 -0.00988909 -1.32055 -0.73945
3986 3.45291 0.659537 0.193065 -0.405283 -0.800191 0.935895
2337 3.39458 0.49835 1.38699 1.46799 -0.679216 -1.18881
1350 4.48235 0.422975 1.16233 0.0574453 0.0973181 1.2377
1040 5.59749 0.492218 0.135959 -0.261282 0.299502 -0.31881
1102 4.7571 1.35042 0.700748 -0.379367 0.248616 -1.15064
469 4.45507 0.597917 0.0137853 0.929151 1.69899 -0.125891
241 6.17265 0.0216561 0.991905 -0.133635 -0.695268 -1.02654
3122 8.01437 0.628908 0.305746 0.532757 0.352862 0.215723
1524 7.40485 1.391 0.447656 -0.20801 -0.829343 -1.1367
684 7.24543 0.349153 1.03469 0.0598459 0.486272 0.0928835
1486 8.43408 0.0833309 1.25283 0.036192 1.83123 0.348837
57 9.18975 1.13985 0.722826 -0.875085 -0.883177 -0.953822
209 8.9934 0.327952 0.0858144 -1.0402 -1.04979 -0.807043
851 11.1342 0.0757013 0.994344 -2.03238 0.0346629 0.510502
1535 11.3966 1.18366 0.712224 0.769781 1.05124 -1.54504
3573 10.1859 0.589911 0.253075 0.684985 -0.865662 -1.38414
3637 12.7778 0.255322 0.528893 -0.534908 0.340479 0.214811
359 13.3226 1.20262 0.860798 0.152774 0.205843 -0.108691
3835 13.9163 0.414122 0.0938661 0.688676 0.865787 -0.440751
1925 14.4402 0.185647 0.998925 -0.0261493 -1.24947 -1.50991
3460 15.3419 1.1015 0.567465 0.652301 0.171181 0.0338922
664 15.4536 0.470994 1.35327 0.353522 -0.104623 0.749434
1539 16.5611 1.04553 0.754382 -1.28414 1.65318 0.405891
122 16.0242 0.000550896 0.386457 0.653729 2.22468 -0.424765
3413 0.630839 2.1423 0.251214 -0.203399 -0.250757 -0.44665
2637 0.633801 2.1685 1.3208 -1.75652 0.271582 -0.0714236
2050 1.59869 2.11511 0.878279 1.04578 0.260416 0.187837
2346 2.63111 2.55365 0.838117 -0.323501 -0.83369 -0.901486
2202 2.60116 1.43751 1.22521 0.251265 0.50459 1.02743
3678 2.80604 1.44334 0.158333 -0.0620489 -0.284833 0.362974
1188 3.61737 2.73669 0.401937 0.141615 0.92985 -1.7217
2136 3.81967 1.64813 0.491505 0.293856 1.13619 -0.839681
3670 4.8272 2.40752 0.840681 0.608874 -1.34895 0.350794
1760 5.69929 2.63255 0.522159 -0.173436 -0.0928042 1.01213
3087 7.02551 2.34999 0.95846 -0.0112448 -0.184065 0.290756
3506 6.28823 1.51907 0.712289 -0.972829 -1.04711 1.11733
1369 8.12652 1.94772 0.964072 -0.186587 0.303145 0.647347
3551 8.13206 2.64838 0.159692 -1.33595 -0.410286 0.470826
113 9.03899 2.30749 0.361448 -1.73748 0.947599 0.637366
3260 8.64854 2.74988 1.27338 -0.730622 -1.62746 0.30523
3704 9.89608 1.667 0.15592 0.018747 1.33636 0.483214
689 9.79363 2.61748 1.31393 -0.57142 1.89352 -1.76587
475 10.5414 2.53383 0.395579 0.755481 1.36032 0.94709
2054 10.4941 1.57449 1.11103 -1.33309 -0.341582 -0.310114
2599 12.396 1.63873 0.658257 -1.7675 0.0888981 -0.200107
1947 12.3125 2.5879 1.18379 -1.45841 1.88162 0.479105
3392 11.7214 2.84801 0.0514999 -1.11363 -0.0291922 1.00198
2668 13.1997 2.18162 0.951932 -0.890479 1.27056 0.432473
3603 14.1739 1.47275 0.335504 0.506721 1.49719 -0.117118
595 15.2758 2.02603 1.02816 -0.510109 0.735152 0.78235
1437 16.0582 1.85492 0.280403 -0.370497 1.8744 -0.306241
38 0.592756 3.23266 0.765191 -1.01963 0.089013 -1.70486
1841 0.810491 4.27013 0.315456 -0.418497 0.769386 -0.692017
912 1.58626 2.99732 0.187865 -1.2028 1.78009 -0.561921
3677 1.54342 3.08412 1.34482 -1.27185 0.90326 -0.716711
3014 1.86837 3.94075 0.518037 -0.26544 -0.306474 0.163567
1639 2.80442 4.17609 1.31761 -0.868022 -0.865696 -0.538432
1856 3.65897 3.54708 1.00546 -2.04058 -1.36917 1.72642
1174 2.88064 3.49041 0.271806 0.0242509 -0.870287 0.120301
1628 4.17408 4.15015 0.110906 -0.134794 0.103771 2.40066
1880 4.9951 3.58321 0.528014 1.72309 0.0935941 -0.971633
1076 5.90655 3.41073 1.213 0.52249 0.800489 1.08461
1264 5.84972 3.77693 0.148438 0.0102417 -1.31001 0.580664
3919 6.79615 4.05724 0.928447 0.370059 -0.316427 0.935459
2049 6.64115 3.12911 0.510457 -0.996261 -0.459535 -1.33912
730 7.71649 3.31324 1.02688 0.805815 0.483441 -0.181102
3944 8.55074 3.65686 0.443641 0.619519 0.750641 -0.746545
3085 11.1931 3.43731 0.996418 0.567659 0.336502 1.37821
2670 10.0575 4.12314 0.0312143 -0.222669 -0.399381 -0.114967
43 11.979 4.0245 0.210432 -1.0445 0.323588 0.516714
1152 12.4875 3.81 1.39581 -0.763266 -0.781351 -0.668914
2248 14.108 3.93427 0.426532 -0.0586075 -0.0183111 1.0914
1937 14.1285 3.0372 1.06209 -1.80927 -1.01126 0.107273
223 13.1427 3.30669 0.764118 1.40976 -0.389056 -0.967363
2564 15.3959 2.97979 0.586582 -0.467914 -0.749862 -0.485868
1242 15.1329 3.86052 0.189645 0.124583 1.30909 0.370682
1609 14.8222 3.71678 1.31739 0.893623 0.398797 -0.567005
2075 16.6921 2.92677 1.00662 0.863466 1.73365 -1.82599
36 16.0363 3.99451 1.10421 -0.398736 0.457982 -0.830525
1769 0.859803 5.29032 0.25646 -0.624809 0.79126 0.0246194
2965 0.0415956 5.67132 0.909644 0.965367 0.0926277 -1.79918
2567 1.39656 4.78042 1.30674 -0.959472 -1.08526 0.0956848
1169 1.88786 5.29737 0.384181 -0.501359 0.335522 0.0202341
325 2.76139 4.66135 0.431639 0.472951 -0.360579 1.23523
3661 3.774 5.28291 0.0647295 1.70236 -0.267903 -0.28712
2529 3.52552 4.98122 1.23949 -1.30195 1.41155 -1.63999
1129 5.28594 4.74867 0.0874647 1.06021 0.512347 -0.743131
2693 5.62177 4.40342 1.02439 -0.212917 -0.133581 1.009
2883 4.56069 5.14186 0.98017 -0.153247 2.14146 1.06007
618 5.95313 5.35812 0.688658 -1.61229 -1.48579 0.0880974
1980 7.05308 5.28678 1.15634 -1.4952 -0.142265 -1.37936
2349 7.22632 5.68715 0.115766 -0.915009 0.630203 -1.59234
1383 7.74799 4.57016 0.535042 -1.96628 1.9451 0.451412
1891 9.0682 4.5004 0.0780505 0.253375 1.34825 0.586324
97 9.55873 5.39317 0.0234033 2.04445 -0.930992 -0.455579
321 9.6846 4.62376 1.18757 -0.987899 -0.344855 0.944705
3007 10.6671 4.29473 1.00807 1.49707 -0.604234 0.387069
1919 10.4567 5.15914 0.479684 -0.513621 -0.0360952 0.842404
3035 12.2896 5.40074 0.280967 -0.53666 0.822693 1.47677
183 12.7148 4.77338 1.14378 -1.16398 -0.540553 -1.06887
464 11.6161 4.74243 0.771496 0.218043 -0.415238 -0.374013
2412 13.036 4.30194 0.308877 -0.598325 1.57609 -2.27177
189 13.7729 4.72479 1.1794 1.43949 1.1061 -1.28673
2930 13.2965 5.69877 1.39433 -0.908188 0.427424 -0.475428
754 13.2728 5.28451 0.493056 -1.62472 0.432641 0.731746
3844 14.613 4.96933 0.630828 2.19064 -1.81012 -0.88413
3145 15.9422 5.02273 0.833624 0.792051 0.0423669 -0.400463
2176 17.099 4.32521 0.82514 -1.00978 -0.495467 -0.207842
1056 1.34567 5.84191 1.03273 0.721342 -0.691954 -0.846963
2789 0.90168 6.59955 0.468971 0.673142 0.816413 -1.05493
3997 2.81539 5.70324 0.121084 -0.610712 -0.498527 1.2164
2817 1.97063 6.81429 0.818651 -0.00579863 1.39135 0.894991
1612 2.79813 6.12898 1.12495 1.0085 1.3346 -1.46298
1182 3.03938 7.06325 0.663214 -1.31551 -0.556818 0.434806
954 3.75506 6.07596 0.819165 -0.0532108 -0.425338 -1.18261
2374 4.27555 7.08641 0.450724 0.662684 -0.241979 0.922175
686 5.32275 5.94031 1.16773 -0.866538 -0.779861 0.322557
2761 4.88591 6.12079 0.293973 -0.964491 -0.324177 0.328201
2940 5.4064 6.88415 0.605545 0.720459 0.78737 0.195108
409 6.46537 6.30072 0.736334 1.56941 -0.177608 -1.27937
989 7.32515 6.48719 1.26742 0.108043 -1.16995 1.49165
1950 8.20281 5.72478 0.788758 0.608358 1.61549 0.07519
3009 9.83913 6.0289 0.790215 -1.62328 -0.476247 -0.688285
1622 8.79952 6.46548 0.653806 -0.0848825 1.15175 1.31542
2882 9.86716 7.00215 0.415674 -0.24503 -0.677107 1.33258
2691 11.0468 6.27341 0.843585 0.245514 -1.69467 -0.217117
1081 11.9185 6.1121 1.36064 -1.98023 1.44907 -0.25728
3503 12.7214 6.32039 0.848507 0.225519 0.868048 -0.456782
832 13.9828 6.10319 0.725863 1.24068 2.82497 -0.393267
2384 14.8612 6.08925 0.176675 -0.100861 -0.538592 -1.28979
1381 15.6245 7.06892 0.436654 -0.250774 -0.81618 -1.01169
861 14.5141 7.11009 0.45407 2.80936 -0.151565 0.292344
1238 16.6946 6.56211 0.227267 0.825787 1.18203 0.0410585
3515 15.7514 6.06536 1.01843 -0.783811 -1.04161 -0.875168
3498 0.990017 7.8076 0.798463 1.55086 0.320704 -1.50794
2060 2.04348 7.97532 0.680039 -0.895095 -0.394663 -0.0114484
2791 2.93499 8.28893 0.146348 1.54558 -1.49887 -1.57096
1703 3.70541 7.85585 1.12022 0.987404 -1.21559 0.99923
3696 4.20522 8.03686 0.0695734 0.839611 0.892572 -0.511357
1575 5.60813 7.64403 1.36407 -0.533202 0.490628 -1.57499
3388 4.88138 8.31929 0.911669 0.330963 -2.88073 -0.947774
2726 5.54671 7.97297 0.170921 -1.5418 -1.39148 -0.446685
92 6.1986 8.45041 1.40664 0.784889 1.43451 -0.0764287
1215 6.94508 7.34029 1.00595 0.277336 -0.718685 -0.0132896
3826 6.48252 8.06207 0.405922 0.395092 -0.409892 -1.23631
2191 7.953 7.1958 0.38607 -0.575423 0.319419 -0.625646
271 8.01849 8.34046 0.758496 1.12716 -1.1968 -0.750712
1912 9.17714 7.68257 0.910046 -0.496088 -0.0926539 0.601495
2922 10.8429 7.37038 0.869942 -0.353027 -0.43927 -1.54554
1806 10.2662 8.33198 1.16471 -0.0984544 -2.05449 0.508439
3911 11.8981 8.09532 0.193419 -0.515411 -1.23198 -1.2752
2919 12.0384 7.4201 0.963801 -0.63708 -1.17333 -1.47865
2385 13.3555 7.44004 0.725421 0.594629 -2.4686 -1.38621
2577 14.1157 8.35091 0.489405 0.553908 1.33014 2.28917
3021 14.202 7.57308 1.39123 0.864313 -0.736521 -1.18892
427 13.1289 8.31126 0.22046 1.37233 -0.780823 -0.37305
3136 15.3204 8.21452 0.462276 1.42135 0.467645 1.06691
3749 15.2121 7.39244 1.30554 -0.8591 0.190696 1.25887
1151 17.0073 7.46642 0.948487 -2.04964 -0.620073 1.09014
12 16.2727 8.19437 1.06824 0.137751 0.449252 0.250137
1049 0.147641 0.740814 1.63854 0.155289 -1.44462 -0.755517
779 1.36493 1.23176 2.10331 0.0895035 -0.120395 -1.0592
2055 1.30112 0.505392 2.72113 1.3032 0.151417 -0.198931
3390 2.26558 0.771063 2.23647 0.858037 1.54862 -0.633378
3679 3.13932 0.633373 2.7951 -0.479958 -0.365825 0.391736
3818 4.13384 0.975994 2.08999 -0.589769 0.986113 -0.324956
295 5.2962 0.461937 1.84706 1.47515 -0.430675 0.449443
2081 5.4249 1.18292 2.56758 -0.736756 1.07441 -0.813404
3377 6.01578 1.08919 1.68908 0.227376 0.208576 -0.0368416
2692 6.33496 0.135625 1.92875 -0.760806 -2.41011 0.564594
3505 7.51375 0.800924 2.244 0.969394 -0.752609 -1.06255
2808 7.21699 1.4229 1.47581 -0.63447 -1.74029 0.830802
2246 8.41915 1.0753 1.51731 0.0656095 -2.56257 -1.33744
847 8.47381 1.31065 2.47873 -1.45571 -1.39842 1.40646
1563 8.33787 0.256981 2.50772 -0.42499 0.744024 -0.973288
3630 9.2115 0.729188 2.09364 -2.29137 -0.42456 -2.03332
3627 10.039 0.10716 2.79293 0.761011 1.31433 2.06515
1166 11.1615 0.912224 1.92867 -1.08359 2.8887 -0.450106
3204 10.2979 0.347237 1.51818 1.30228 1.5346 2.26214
63 12.0859 0.00380154 2.49521 0.363083 1.53744 0.730811
1605 12.8203 0.386213 1.68333 1.17687 -1.69853 1.02919
2492 12.4493 1.09759 2.73794 -1.16494 -0.0475415 -0.993499
313 13.1679 0.395497 2.68429 -0.997273 0.211387 0.0154271
2986 13.8804 0.704451 1.86126 0.766873 -0.318643 -1.6112
1972 14.7474 1.19009 1.53949 0.291989 0.857401 -0.266941
201 14.6212 1.35446 2.73628 -1.58741 0.0205524 -0.447793
956 15.0858 0.517166 2.3646 -1.09931 0.241345 -0.34878
2166 17.0705 0.26656 2.70963 1.84574 -0.789733 -0.982657
3200 16.2504 0.924341 2.24991 -2.83323 1.82913 0.373759
2842 1.17926 2.38756 2.26144 0.358797 0.630395 0.352631
2867 0.149483 2.53224 2.1583 0.94131 0.971173 -0.179871
677 0.0472967 1.43564 2.39629 1.02528 -1.02482 -1.46692
424 2.1635 2.1853 1.91992 2.1015 0.394694 -0.420122
2820 3.944 1.99858 1.54185 -0.501388 -0.954565 -0.695684
3888 3.11936 1.4603 2.17283 0.147766 -1.5083 -0.250274
3966 3.26743 2.51515 2.503 0.994897 1.36584 -0.896694
3688 4.56887 2.26126 2.48288 -1.80095 -0.917034 0.450948
2350 4.96809 1.7182 1.66959 -2.60407 0.584635 -1.80673
463 5.67059 2.13344 2.80036 -1.2564 0.941356 0.896714
588 6.25968 2.43068 1.58538 -1.05226 0.542898 -0.53233
1365 6.49152 1.68024 2.49039 1.06085 1.40974 -0.73508
2324 7.62226 2.63717 1.81711 0.0659468 1.43445 2.06688
1958 7.56578 1.84203 2.40585 -0.242097 0.547893 0.240743
3198 9.87416 1.72936 2.00454 -0.870817 0.730035 -1.18068
19 9.05995 2.44414 2.19581 0.990996 -1.20714 0.00014003
1349 10.9756 2.22564 2.09375 0.291928 0.322709 -0.623982
634 11.9179 1.45381 1.64706 -0.449531 0.00428434 -0.00761672
3777 12.4018 2.5378 2.27128 -0.400335 0.458697 0.489143
860 12.9508 1.51855 1.87008 -0.551562 -1.597 -1.25729
2826 13.9777 1.85275 1.6035 -1.06031 1.27435 -2.33282
2800 14.8197 2.499 1.87808 0.251113 1.64184 -0.0998066
1557 15.5053 1.55544 2.12708 -0.117512 -0.198396 -0.0133876
1903 16.5678 1.96329 1.51673 -0.612692 -0.451733 -1.16257
61 15.8512 2.72703 1.88645 -0.902593 -1.03174 0.462646
2756 1.02938 3.93956 1.72966 -0.809143 0.221654 0.440407
2427 1.36129 3.58068 2.61411 0.287288 -0.677348 0.18637
3420 0.335169 3.53488 2.76097 -0.690661 0.152717 -0.0702451
1290 2.17758 4.04538 2.19896 -1.02615 -0.140257 0.135218
1591 2.98758 3.71896 2.60662 1.29404 -0.297018 -1.37092
3403 2.97928 3.09986 1.65327 -0.854684 -0.49004 0.181602
3324 4.02309 3.5913 2.21941 -0.315769 0.393984 -0.753148
1976 4.42144 4.26808 1.46928 0.580407 0.174522 -1.02469
273 4.71779 3.16641 2.83874 0.50052 0.243914 0.449817
733 5.01965 2.93288 1.71167 2.51274 -0.423745 0.370514
983 5.10545 3.94339 2.29632 0.118127 2.1586 1.36884
1716 6.72365 3.47218 1.83657 0.553188 -0.535987 -1.16602
239 5.93604 3.1948 2.41737 -0.0794015 0.421136 -0.901116
1438 7.59679 3.46851 2.42644 -0.627277 1.07209 0.0716169
3057 9.14636 3.58445 1.48552 -0.643417 -0.303273 -0.327539
2237 9.36864 4.12745 2.3231 -0.0674729 0.69316 2.68388
2354 8.55968 3.70004 2.75363 -0.794603 -0.922742 0.139397
1476 10.3043 3.57379 1.82687 -1.44599 -1.6194 0.724165
453 11.0268 4.0084 2.73534 -0.0815317 -0.342057 -2.19124
3268 12.2899 3.57675 2.45492 1.48919 1.80331 0.0340095
3837 11.4589 3.25953 2.00929 0.32118 2.62189 -0.737947
3440 13.2268 3.03314 1.81671 -1.09374 -2.5981 0.787203
3622 13.1943 4.21207 1.9916 -0.0133348 0.00120922 1.30559
1200 14.2188 3.2234 2.242 0.124866 1.65373 -0.83
3468 15.2804 3.51395 2.36606 1.15001 -1.06377 0.825328
2611 16.8107 3.54756 1.79647 0.953451 -0.728653 0.0771534
1087 16.425 4.07984 2.57427 0.0385603 2.31084 -1.1254
557 16.4758 3.03993 2.64117 -1.15861 -1.45376 0.0286987
1410 0.268664 4.59124 1.91498 0.487649 0.180017 -0.127413
14 0.7241 5.37368 2.76863 1.83782 1.1551 -0.110504
1414 2.4949 5.13946 1.54821 -0.0839134 0.0370322 -0.993334
1864 1.7969 5.35546 2.50549 1.78409 -1.22269 -0.144823
2442 3.24577 4.75871 2.19189 0.431648 -1.10867 1.45355
2035 5.23158 5.12603 1.85395 0.0211565 -0.811549 -0.519405
859 4.4087 5.68349 1.80572 -0.756427 -1.11582 -1.70066
1527 4.38632 4.76622 2.56708 -0.0300515 -0.612818 -2.23933
346 6.33681 5.49133 2.32594 0.71927 0.203902 1.0712
1035 6.74986 4.49553 2.42311 0.598135 1.34802 0.219653
1099 7.52335 4.44295 1.61072 -0.591516 0.129456 -0.0358508
2331 7.52626 5.46942 2.05788 0.256438 -1.55336 0.106317
2604 8.28335 4.88382 2.74298 -1.61462 -0.0684281 0.508841
587 8.74632 5.20275 1.65776 -1.55198 0.182708 -0.411737
2007 9.49657 5.08859 2.62559 1.55857 0.872628 -0.826905
2388 10.5036 4.58766 2.04528 2.06585 0.671992 0.842105
938 11.3782 5.30821 1.7624 -0.0653849 1.43469 0.594482
2348 10.4342 5.45336 2.73757 0.397063 -2.03867 0.297218
1347 11.5285 4.31375 1.77006 1.3909 -1.68554 0.263721
1271 11.8657 4.63708 2.76876 -0.100456 -0.415256 0.362479
1387 12.4094 5.3444 2.01523 0.0925522 -0.47751 -1.82925
3318 13.6099 5.23073 2.34259 -0.0641985 0.947735 0.11984
2551 14.4041 4.29501 2.00875 -1.19783 -0.548585 -0.0130944
2950 14.4985 5.34366 1.74883 -1.18922 -0.667927 -0.757528
269 15.4662 5.59018 1.98743 0.00685518 0.313976 2.66988
1708 14.9262 5.05291 2.75233 0.18236 0.778985 0.639712
3415 15.4941 4.45686 1.87148 0.125401 -0.294483 0.293152
1269 16.4213 5.0687 1.7958 -0.249392 0.256143 -0.326219
188 16.0473 5.11833 2.78145 -0.872861 1.10031 -0.542301
361 0.482901 5.74348 1.90447 1.12499 -1.05872 -1.95256
2032 0.797849 6.58743 2.59323 1.26087 -0.129386 -1.2655
3923 1.00279 6.77482 1.59462 2.41037 0.707265 -2.88288
3884 1.76819 6.39033 2.10803 -0.212476 0.646382 -0.562284
2876 3.53718 6.84549 1.69455 1.75063 -1.10586 -1.02064
3469 3.16936 5.83822 2.30385 0.723932 0.812188 0.747747
549 3.9797 6.38574 2.5759 -0.554772 -0.437147 -0.391653
3081 5.14866 6.9868 2.45831 1.61838 -1.90365 -0.882673
2056 4.62193 7.09614 1.52962 -0.206387 0.69706 0.0403963
2734 5.43455 6.05721 2.43717 0.505598 0.0709245 -0.196748
2267 5.92793 6.71702 1.61621 -0.125885 0.280187 1.15023
640 6.91776 6.33271 2.21554 1.76401 0.0378813 -0.147047
900 8.19154 6.15446 1.74306 -0.494489 -0.821539 0.489959
1831 9.24233 6.33543 1.56974 -0.650151 -1.08017 0.958127
3581 9.64418 6.12198 2.59725 0.272785 -2.64614 1.24969
3443 9.99066 6.94263 1.61881 -0.832904 0.459574 1.88092
1487 10.4623 6.09806 1.72296 0.246053 0.989405 -2.81723
3335 11.3081 6.15715 2.38934 -1.39262 1.45321 -1.54601
3132 12.7724 6.33434 2.15486 -0.559075 0.751324 1.23647
224 13.5204 6.86354 1.78215 -0.269409 -0.914344 1.02027
2215 14.1696 6.24565 2.38631 2.09262 -2.11693 -1.15443
3369 14.8385 6.3089 1.46784 0.209465 0.126582 0.963193
3499 16.8132 6.27739 2.32116 1.32383 -0.382131 1.51832
1600 1.01615 7.71778 2.10475 -0.0255469 -0.373806 -0.40012
2688 0.296788 8.42787 1.75283 -1.52435 -0.0154339 1.79883
707 2.05161 7.42474 1.68043 -0.645357 0.50797 -1.0432
370 1.8411 7.53046 2.69524 0.665756 0.158342 -0.586442
3620 2.60854 8.22643 2.07883 -0.684388 -1.90241 -0.0970458
1325 2.79403 7.15929 2.55575 0.833943 -0.974497 -1.97104
2416 1.61281 8.2946 1.67238 0.096791 -1.00608 -0.83653
3817 3.78982 7.92783 2.22555 -0.849268 -0.628551 0.18142
814 4.77646 8.31349 2.10546 1.80412 -0.407729 -2.13678
479 6.26232 7.55469 2.22413 0.69556 0.0658448 -0.0828634
2550 7.2095 8.05299 1.88924 0.413962 0.992322 0.00444601
1265 7.66742 7.24792 2.46621 -0.684304 -2.22946 -0.249154
2838 8.08266 7.24847 1.44388 -0.421203 -0.0832969 0.556272
2597 8.18765 8.17016 1.83517 -0.111533 -1.03692 0.745165
2213 9.54538 8.22926 2.47428 0.414839 0.828283 0.906517
2896 8.98426 7.50277 1.96875 2.44743 0.0842347 0.797468
2293 10.116 7.24009 2.71324 -0.385584 0.340383 3.62319
805 11.1295 7.28782 1.87084 -1.33883 0.096507 -0.384152
949 12.5671 8.17226 2.49673 1.63307 -0.456026 0.826447
2540 12.1114 7.18915 2.09341 -0.188191 0.0502892 -1.58899
2253 11.8761 8.2225 1.66469 0.586877 -0.617343 -0.878027
174 11.4944 7.87994 2.71968 0.618072 0.455451 -0.0396982
2616 13.9099 8.45295 2.10667 -1.58452 0.26674 0.861609
1630 13.1625 7.82195 1.59052 -0.453733 -1.84879 0.360109
1930 13.5768 7.52722 2.52977 -1.17848 -1.60298 0.70033
1107 15.4771 8.25997 1.80987 -0.501071 1.71912 1.1115
3149 14.6218 7.15331 2.35306 0.88038 -0.247812 0.208253
368 15.8952 7.38135 2.27021 2.19661 1.10387 -0.812594
3166 16.5292 8.2264 2.28244 -2.10131 1.28421 -1.01041
3409 16.9781 7.29301 2.12494 0.468468 -1.22839 0.395745
3855 1.37519 0.787226 4.17052 1.30082 -0.468572 -0.989772
822 0.467663 1.06017 3.5099 -1.1644 -1.83219 -0.195481
2279 0.441944 0.0626134 4.26306 -0.49133 1.86411 0.375933
1061 2.4887 0.165303 3.59296 0.262006 -0.199197 -1.25572
2472 2.0436 1.14237 3.28248 0.743433 -1.4182 0.178495
2659 3.50525 0.472309 3.83567 1.27211 -0.777062 0.792617
203 4.25107 0.769028 3.11447 0.193252 -0.323145 -0.928938
1041 5.29589 0.289778 3.1491 -1.11699 -1.63096 2.34997
1547 5.35546 1.052 4.08713 -0.896671 -0.329326 0.132535
2181 6.57537 0.728558 2.98585 -0.465149 0.0316992 -0.642448
726 6.70211 0.862272 4.19507 -0.778241 -0.146013 1.47606
3003 7.57738 0.253982 3.43303 1.23251 0.494497 -1.23758
3891 7.66501 1.27991 3.2662 -0.848326 1.68174 0.372461
3366 9.85084 1.17115 3.04732 -1.21397 1.28969 0.472438
1060 9.82379 0.320629 3.80301 1.043 -0.454563 -1.35475
981 8.78942 0.712494 3.71957 0.803101 1.09462 -1.52943
2315 10.9906 1.16147 2.98063 -0.0273823 -1.44217 0.716721
2410 10.781 0.914031 3.94912 -0.864771 0.0655931 -1.04547
626 12.7611 0.691088 4.04791 0.105408 -0.185901 -0.260426
1922 11.9382 0.55635 3.38558 0.440382 0.689826 0.172468
3711 14.172 0.358794 2.90282 1.82725 0.273 -0.506781
3113 13.5394 0.118085 3.75617 0.647891 1.4353 0.234643
928 13.5917 1.2297 3.4503 -0.859279 -0.548909 -1.22624
3672 15.6299 1.0914 3.1177 -1.02899 0.768642 2.06461
2002 14.519 0.807018 3.84702 0.217876 -0.756162 0.777979
3768 15.3839 0.211782 3.81337 0.103907 -0.0753166 0.146889
2898 16.6695 0.348898 3.70316 -0.172844 -0.00342114 -1.50352
1043 0.83661 2.06905 3.92599 -0.277312 0.0404943 0.265433
2480 0.112512 2.50609 3.25387 -1.34488 0.660456 0.0316688
3222 1.21343 1.6885 3.01643 1.13023 1.41469 1.5069
355 2.00155 2.47662 2.95385 0.231179 -1.22396 1.23163
3418 1.9193 2.08311 4.00661 -0.669094 0.191897 -2.04569
426 4.19746 2.55755 3.58218 0.677 -0.27798 -0.230844
342 2.96743 1.88295 3.63961 0.292504 -0.0184498 -0.775266
3333 3.71874 1.6398 2.92938 -1.08431 -1.08427 0.257394
2329 3.99155 1.49603 4.01596 -0.827568 0.489667 0.359342
1927 4.97365 1.75539 3.34258 0.247416 0.390107 -0.345066
741 6.98471 2.6492 2.91331 0.50849 0.388635 1.06769
300 6.48848 1.87371 3.63744 0.552984 -1.14698 0.873863
2722 6.56699 2.8386 4.25931 -0.812866 1.68696 2.10113
2068 8.52149 1.83376 3.80996 -0.987293 -1.03251 0.832477
3363 7.41441 2.16599 3.83197 -0.259906 -0.556541 0.0633326
891 8.15713 2.4723 3.03786 -0.427678 -1.02897 -1.94109
2971 9.23496 2.09235 3.1803 -1.04287 -0.152646 -0.40674
2266 9.93578 2.69202 3.93748 0.0233624 -0.568696 0.0414676
2854 11.3705 1.72958 4.12495 -0.25669 1.21016 0.61827
3018 10.4778 2.16291 3.11904 0.0665822 -0.741514 0.381484
2449 11.3482 2.83128 3.0024 0.766706 -1.12089 1.61546
2077 12.6394 1.93371 3.91245 -1.14725 2.53637 -1.38608
2037 11.8099 1.88178 3.00658 -1.09196 -0.425892 1.64257
2576 12.3404 2.78641 3.2146 -0.320588 1.30997 -0.51175
765 13.1461 2.03513 2.95044 0.275921 0.331527 0.494389
3020 14.2521 2.44954 2.94149 0.545286 1.09057 1.91349
3438 15.2668 2.45374 3.05792 -0.388295 -1.62495 -0.60876
1661 14.8347 1.77303 3.7952 1.12683 -0.705441 1.04664
3247 16.8205 1.6993 3.80242 1.77714 -0.305587 -1.11819
1583 16.1866 2.08747 3.08889 2.05333 -0.675737 0.232568
2672 15.8649 1.43594 4.1561 -0.761366 1.27557 1.27764
4 15.7842 2.58879 4.08075 0.382549 0.243183 0.163754
3741 0.641479 3.74325 3.79799 -0.444512 0.797127 0.675327
2069 1.37292 3.04487 3.68608 0.205129 2.06753 -1.31065
2389 2.62367 3.97804 4.09914 0.322835 -0.186383 -0.00735799
197 1.99424 3.86891 3.25057 -0.752463 -1.52743 0.907004
3591 3.01367 2.86434 3.54034 1.50634 0.806711 -0.61046
635 3.90077 3.51374 3.86967 -0.971625 -0.405067 0.764451
2747 5.2283 3.16144 3.73653 -1.28712 -1.20062 1.95983
316 4.7726 4.17164 3.26073 -0.854422 0.664965 -2.11178
785 5.68678 3.93925 4.04972 -0.764086 -1.19278 0.850702
199 5.82472 4.09036 3.06011 -0.914369 1.85815 1.26092
2888 6.72732 3.72671 3.37085 -0.350062 -1.23031 1.36155
2195 7.71921 3.49508 4.18088 -1.45926 0.962637 -0.0259093
2988 9.4608 3.07125 2.93988 -1.35574 0.987101 -0.214959
2277 9.621 3.64751 4.03862 -0.294231 -0.299932 0.115078
3773 8.78605 2.87598 3.75524 -1.32363 0.783494 -0.421661
2858 8.74969 4.13333 3.68764 0.845803 -0.299166 -0.889972
2431 10.4244 3.35703 3.23865 0.303143 -1.15824 0.922856
826 10.9662 3.69717 4.18559 2.11613 -0.828065 0.656914
2033 11.9578 3.20713 4.23427 -1.05003 0.414401 -0.192927
3946 11.7189 3.70341 3.42359 -0.903396 0.913578 -1.35601
301 12.7664 3.70096 3.55161 -1.89675 -0.743483 -1.07677
339 13.3707 3.03357 2.94161 1.03723 0.216437 1.9189
2145 13.8537 4.14912 2.99571 -1.24564 0.867731 -1.74217
1170 13.7648 3.42233 3.81421 -1.0707 1.37957 -0.452901
3664 14.6948 3.43953 3.323 0.360917 -0.00976605 -1.0907
687 15.355 3.87971 4.15152 1.20304 0.991288 1.43855
1462 15.9729 3.39372 3.35771 -1.61565 0.546844 0.999088
1718 1.24287 4.61857 3.27911 0.80028 0.285148 0.309383
701 0.044387 4.61807 3.2338 0.639478 0.398373 0.264252
446 0.947843 5.27782 3.95098 -1.59885 -0.724133 -0.14584
2687 1.91295 4.87376 3.98913 0.631761 -0.943021 0.71817
1375 2.43892 4.73197 3.07932 -0.723009 -0.169813 -0.688311
237 3.40579 4.36304 3.25225 1.46181 -0.108238 -0.615885
1780 3.03423 5.0362 3.92191 -1.04501 0.00222719 -0.104332
3697 3.64287 5.31305 3.09445 -0.556854 1.67799 -0.552655
2788 4.15454 5.17021 4.11523 -0.59877 -0.358572 1.7487
2652 5.23606 5.0447 3.92579 -0.475397 1.21341 1.00857
3090 4.65316 5.62918 3.04657 0.443273 0.565804 -0.213256
2784 5.43938 5.03676 2.93425 1.03371 0.563217 0.82734
612 6.37602 4.89149 3.4737 1.08589 -0.392107 -1.25556
2091 7.07385 5.54827 4.04422 1.92127 0.698268 -0.175446
793 7.34278 4.45414 3.76347 -1.06569 1.57613 0.583563
3737 8.31836 5.47783 3.54627 0.0582688 0.483902 -1.67022
1847 9.2975 5.24318 3.86855 0.370541 -0.921342 -3.11775
888 11.1352 4.60744 3.74715 0.0643209 1.53166 -0.744152
2314 10.2665 4.45974 3.18653 -0.192751 0.0420997 1.2506
3484 11.3712 5.47723 3.25183 -0.106885 0.8393 1.35944
3101 10.4229 5.3575 3.81546 0.420928 -0.514345 -0.589144
2289 12.2391 4.74077 3.74987 0.771645 -0.558463 3.54721
249 12.3582 5.5299 2.99701 0.159311 0.808436 -0.460341
2748 13.4275 4.31085 4.07664 0.819008 0.572375 -2.01579
1840 13.9994 5.21831 3.24525 0.669292 0.0413442 -0.493135
2417 15.5535 5.21349 3.70164 -0.0983127 -1.46724 -0.860065
2991 14.6449 5.58309 3.98082 -0.510199 -1.93434 -0.0457598
231 14.4318 4.49917 4.22871 -0.16531 0.525995 -0.78399
799 15.5123 4.32586 3.19148 -1.977 -0.715155 1.54018
2727 17.0517 5.44221 4.22258 1.08923 1.11309 0.701844
375 16.3443 4.5309 3.91823 0.887604 -1.16015 -0.925488
1964 1.29216 7.0784 3.71533 -1.20944 -0.931707 0.792963
2933 0.411008 6.42327 3.65574 0.47068 -1.71727 1.61189
2580 1.80202 6.06193 3.97301 -0.805898 -1.27561 0.76209
1689 2.51069 5.76047 3.16491 0.309202 -1.90007 0.622292
1135 2.22073 6.8284 3.34741 0.213815 0.910493 -2.724
2043 3.01515 6.89365 4.00298 -0.268684 0.0569185 -0.323696
589 3.87646 6.14967 3.745 -0.897946 -0.810266 -0.266743
390 4.94819 6.67373 3.4815 -0.692712 0.323696 0.0524103
895 6.04946 6.91647 2.94579 -0.0656443 -0.86363 -1.17209
3344 7.05541 6.90758 3.19399 -0.118222 0.104491 -0.665407
119 6.57891 6.46894 4.05295 -1.3483 0.290557 0.727696
657 5.90162 6.03458 3.48456 1.87979 0.559527 -1.1313
2735 7.41749 5.74945 3.02698 0.622649 -0.621094 0.276725
410 8.3293 6.17915 2.91391 -0.229762 1.01542 0.527851
2335 7.82974 6.42517 3.87992 0.349719 2.46329 -0.714881
1431 8.96203 6.3767 3.73356 -0.711049 -0.519832 0.32807
1828 10.485 6.50052 3.42936 0.647963 0.0520575 -1.53367
2108 11.8192 6.75734 3.36952 0.303647 0.111065 0.245858
2193 11.7732 5.91388 4.10546 0.403362 1.38984 0.398806
2765 12.898 7.0176 3.05198 0.901571 0.923086 -0.78107
3161 13.412 6.00211 2.99081 -0.544456 1.49804 0.811154
1015 13.9712 6.78225 3.36569 2.01963 0.676737 -1.40959
1733 15.0072 6.05879 2.96966 -1.00429 0.197366 0.901268
1214 16.426 5.87447 3.66974 0.547304 1.10764 -1.17559
151 16.2885 6.76334 3.10857 -0.927401 -1.23148 1.1543
1584 0.671506 8.33533 4.07027 -1.26881 0.477846 -1.01926
639 0.119262 7.50334 3.12341 0.323955 -1.52138 2.60234
1541 2.5887 8.52609 3.07243 -1.37642 -0.53839 -0.615487
524 1.61026 8.11992 3.54882 -0.793791 1.18257 0.440517
3914 2.62846 7.70334 3.58344 0.687451 1.5831 -0.983288
2409 3.83285 7.17223 3.35091 0.322899 0.362614 0.415399
1396 3.54617 8.15824 3.16893 0.228118 1.70549 0.730352
3675 4.35294 8.11711 3.74951 -0.1846 0.569291 -2.80281
717 5.15793 7.73361 3.26057 1.11576 0.788982 0.648312
552 5.8722 7.20159 3.93303 -0.161712 -0.809954 -2.8017
1088 6.28318 8.02889 3.27035 -0.995852 0.352653 0.486518
2223 8.41228 8.14452 2.95601 0.197194 -0.277115 0.350698
362 8.29182 7.24658 3.61662 -0.99816 -1.56982 -0.352337
2676 7.73393 8.09118 4.25054 0.431631 -1.3427 0.776435
969 7.30069 8.02994 3.1271 0.724156 -0.360477 1.28298
854 9.03998 7.2189 2.94684 -0.655246 1.09686 -0.449334
2949 9.70527 7.32598 3.8049 -0.25118 0.664165 0.424573
3453 8.83986 8.29929 3.88149 -1.0749 0.293561 0.248918
631 10.6053 7.80519 3.65543 0.934758 -0.0192851 -0.853185
1928 12.2876 7.8394 3.67675 0.80297 1.13488 1.00837
2013 14.0833 8.07431 3.30072 -1.45089 1.35538 -0.767955
74 13.4138 7.58237 4.09512 -0.356226 -0.259946 -2.4579
806 15.1843 7.27173 3.46808 -0.352843 -0.430036 -0.970015
2291 16.0791 7.95291 3.2662 -1.26204 2.09336 0.251038
3454 16.7839 7.88105 4.12001 -0.227452 -0.681188 0.570538
2754 1.37584 1.03184 5.15872 0.58357 1.30603 0.063373
1326 0.0158027 0.213004 5.42798 -0.201046 0.330831 0.505752
3659 2.53027 0.0910695 5.00697 -1.50931 -0.364015 0.294167
423 2.73434 1.21714 4.5812 -2.11134 1.40928 -0.725377
2052 2.59939 1.06902 5.69325 0.106745 -0.462678 0.505901
1243 3.29059 0.261726 5.68505 0.309922 1.16745 1.22139
2900 3.58051 0.737318 4.75652 1.05882 -0.862983 -0.430248
66 5.47941 0.8937 5.31415 0.497643 -0.973486 -0.709483
2556 4.64626 0.671074 4.80538 -1.07018 1.02892 1.01241
2541 6.14002 0.159705 4.82152 0.557273 1.80448 0.737185
958 7.07005 1.01673 5.1677 0.627964 1.03695 2.47894
3575 7.84211 1.15454 4.29743 0.48232 -0.104888 -0.0140999
1548 9.73037 1.10599 4.61578 -0.825903 0.295076 -0.811516
3385 8.69504 0.613472 4.90578 0.69426 0.0585599 -1.01837
1798 9.99539 0.517844 5.66001 1.10766 -1.58067 -0.103008
2807 10.8511 0.947143 4.98654 -0.296962 0.638382 1.34198
2147 12.345 1.40859 5.14832 0.344277 0.256322 0.447981
136 11.7302 0.704686 4.3875 0.224851 -0.166843 -0.109447
2351 12.8473 0.253365 5.02513 -0.203934 0.21973 0.129627
2568 13.7264 0.60667 4.62126 -1.09781 0.608012 -0.124383
3767 15.4473 0.146811 5.65191 0.134886 1.10755 0.125084
1829 15.079 0.974325 4.68575 1.07133 0.557575 -0.39053
2047 15.9557 0.380536 4.7013 0.226057 -0.129582 0.992416
735 15.9357 1.10983 5.47461 -0.628691 -0.702082 -0.0187543
327 16.9574 1.11875 4.81553 0.143754 0.338142 -0.271529
3175 1.19598 2.55502 4.89105 0.886559 -1.64915 0.00236457
2305 0.542519 1.64403 5.40887 -1.61578 0.349758 -0.812081
864 1.75443 1.96382 5.54321 0.0610323 -0.804475 0.928679
3457 2.53194 2.52467 5.35255 -1.26386 -2.0393 0.217884
3990 3.36476 2.2501 4.61461 -1.45873 -1.19049 0.131776
3880 3.69115 1.57728 5.36463 1.97146 -0.0281448 0.100918
2834 4.46167 2.7682 4.55655 0.98299 -1.52366 1.04868
60 5.51091 2.45306 4.42213 -0.0441344 0.975117 0.619303
2593 4.81957 1.78451 4.8727 -1.72177 0.588732 -0.524056