ITEM: TIMESTEP
67000
ITEM: NUMBER OF ATOMS
4000
ITEM: BOX BOUNDS pp pp pp
0.0000000000000000e+00 1.7099759466766969e+01
0.0000000000000000e+00 1.7099759466766969e+01
0.0000000000000000e+00 1.7099759466766969e+01
ITEM: ATOMS id x y z vx vy vz
3855 0.232227 0.474515 0.526533 -0.484366 1.01807 0.18919
3337 1.0355 0.0791154 1.10679 -0.312046 0.192462 -0.406475
2016 2.38884 0.330149 0.470021 0.134362 0.456327 -1.68309
3990 2.57528 1.23596 1.08106 0.603762 0.0911251 -0.0332454
822 2.47954 1.41638 0.0720074 0.860458 -1.00648 -0.160785
2611 1.56354 1.15625 0.822181 -1.06306 0.040568 2.78261
775 2.04991 0.421156 1.38156 0.451723 0.283743 1.52478
1350 1.49088 0.112096 0.110547 0.145294 -0.0758632 0.590602
2346 3.90289 0.783831 0.747334 0.983258 -0.752889 0.433446
1188 5.45181 0.9316 0.716994 0.78822 1.5669 0.770435
295 5.50754 0.0597784 0.0353926 -1.09653 -1.87172 0.522296
1383 6.80937 1.40953 1.14153 -1.61208 0.370032 -0.21604
3713 6.9623 0.1259 0.982558 0.1288 0.14139 1.24636
1815 6.52353 0.559823 0.198901 -0.243133 -0.194426 1.34345
1760 7.71247 1.34456 0.192027 0.762192 -0.251459 -2.24705
2640 7.89909 0.835423 1.0676 -0.0964455 -0.0139433 0.234028
3819 8.81869 0.927725 0.298054 0.284686 0.373161 -0.0403911
3198 10.0727 0.956558 0.454379 1.77338 -1.56013 1.03714
2387 11.0004 0.746073 0.946752 -0.137879 0.517113 0.965009
2818 11.8947 1.2003 0.695182 1.13976 -0.0819118 1.01215
2034 11.9984 0.120371 0.80411 0.277846 -0.852522 -0.468486
1621 13.5885 0.0187078 0.148911 1.08014 0.881811 1.24021
3529 12.9095 0.821042 0.384934 0.604125 0.383207 0.0202729
481 13.9607 1.06091 0.287853 0.769873 -0.382314 -0.835195
677 14.7608 1.18625 1.13068 -0.0132199 -0.227693 0.158093
1533 15.6085 0.397053 0.560238 -0.473003 -0.36678 0.547238
2002 15.9166 1.33336 0.962887 0.451602 -0.799053 1.79102
1539 16.5584 1.14651 0.25304 -0.817515 1.26093 -1.62791
3420 0.434382 1.46477 0.62199 -1.43013 0.902881 -0.105782
1608 0.381415 2.5993 0.882546 -1.06894 0.0660557 -1.57285
1913 1.98108 2.63819 0.485179 -0.19419 -1.37651 -0.462667
145 3.22347 2.73254 0.528936 0.00743822 -0.633819 -1.80256
197 3.37058 1.97705 1.31217 0.149251 -1.63624 -0.515581
426 4.54056 1.54372 1.0819 0.318379 -0.256894 -0.344472
1856 4.54331 2.66324 0.812083 -0.245325 0.571802 0.642345
3970 4.9021 1.698 0.168355 0.859867 -0.108196 1.11005
1976 5.72895 1.95807 0.888793 1.00028 -0.357343 0.496188
2808 6.83209 2.36585 0.708907 -0.788039 0.169796 -0.490527
3087 6.47123 1.57757 0.122703 -0.73168 0.861639 -0.405113
588 7.70165 1.93088 1.3032 0.953214 0.351739 -2.0157
191 8.13633 2.6531 0.491939 1.25824 -0.701812 -0.189849
1716 9.27987 1.49004 1.1711 0.0659839 0.344794 -0.801345
300 8.90535 2.00742 0.304428 1.14742 -1.53918 1.18363
113 10.041 2.19609 0.337486 -0.994255 -0.922898 -0.703863
1922 10.9682 1.76267 0.825781 1.86727 -0.320587 0.954081
3954 11.296 2.6791 0.373112 0.695626 -0.794581 -0.150207
3392 10.5313 2.81861 1.0329 -2.48687 -0.831467 2.4896
1258 12.7238 2.09752 0.885442 0.968851 -0.321443 -1.87847
844 11.7875 2.02049 1.34214 -0.88273 0.343533 1.53839
547 13.4909 2.69999 0.431674 -0.642287 -0.778708 -0.420348
2959 14.0228 2.19493 1.11762 -1.13493 0.440739 0.877946
1789 14.6818 1.82226 0.215826 -0.511398 1.97566 -0.716615
2800 15.403 2.35168 0.581709 0.403335 -0.081333 0.835661
1583 16.5209 2.21652 0.67651 -0.520752 -0.409865 0.593152
2305 1.33686 2.99434 1.188 -1.91189 1.05959 -0.83514
1290 0.815125 3.68711 0.514465 1.89962 -1.88043 0.195946
474 1.78684 3.64035 0.361319 -1.08381 -0.877416 -1.75646
779 3.88863 3.75485 1.24763 -0.489272 -1.41624 1.23315
1467 3.06259 3.78423 0.576745 1.67676 0.121377 0.1752
3661 4.52754 3.56196 0.248469 0.342256 1.15139 1.81331
1779 5.95482 2.95003 0.671633 -0.903405 0.809776 -1.03966
2374 6.48292 3.73615 1.40076 -0.467477 -0.115469 -0.572398
733 5.91493 4.19291 0.670059 -1.58439 -0.903474 -0.25231
1879 7.29864 3.49263 0.724923 0.768993 0.921089 -0.328513
429 8.09224 3.76237 0.167097 0.641439 -0.467853 -1.47345
2703 9.30202 3.16504 0.672558 -0.095768 -0.65147 -1.30798
3551 9.75403 4.18852 0.814811 0.563006 -0.461393 0.929201
1891 9.11381 4.11711 0.0424925 0.910297 1.34798 -0.234854
1438 8.89875 4.05079 1.29601 0.458904 -0.504048 -0.582688
634 11.3166 4.02541 0.249271 1.26942 0.355721 -0.121133
3440 10.955 4.22237 1.18722 -0.489958 -2.52502 -0.470839
1605 12.4116 3.1381 0.157337 0.721686 -0.493226 1.04032
1050 11.6236 3.33837 1.12574 -0.163 -0.893873 0.441213
745 12.9501 4.05653 0.656302 -0.0466492 -1.05594 -0.0638646
57 13.9259 3.7205 1.03646 -0.165909 -0.403567 -0.174243
3020 15.038 3.70235 1.03335 -0.571079 -0.479541 -0.299541
2412 14.4668 2.86958 0.544855 0.131355 -2.64185 -1.26109
3777 15.9721 3.14065 0.834535 -1.59942 1.40341 -0.553604
2826 17.0193 3.82103 0.850044 -0.758932 1.35069 -0.939333
1269 16.0066 4.24988 0.709929 0.091223 1.07 -0.820816
1436 0.612317 5.36536 1.0199 -1.30906 -1.58081 0.0734925
664 0.853057 5.47217 0.0113738 0.235087 -0.425804 0.265846
1880 2.27695 4.54452 0.822286 1.46686 -0.237953 -0.391024
3887 2.60619 5.44072 1.08388 -1.9024 -0.700228 1.48423
2883 3.32864 4.83891 1.01653 -0.62729 -0.113634 1.68681
3910 3.33522 5.57472 0.260405 0.449186 0.31615 -0.136137
3875 3.79033 4.38466 0.0174314 -1.47389 0.378089 1.74839
1495 5.65066 5.49655 0.774735 -1.16612 -0.133046 -1.66085
325 4.80468 4.85795 0.425152 -0.0219085 0.212061 1.11062
3009 7.04435 4.51841 0.77198 1.38309 -0.701949 -0.00270787
1264 6.79399 5.49596 0.848257 0.761925 -1.18915 1.72851
97 8.19917 4.67836 0.595298 -1.39408 0.372259 0.279623
989 7.42347 5.2507 0.0546162 -0.07905 -0.895345 -1.47665
3443 9.10057 5.16512 0.866255 -1.07934 1.35302 0.271924
2468 10.5205 4.80109 0.263232 -1.80192 1.60655 0.227557
2950 11.3488 5.23197 1.30172 -0.469801 0.613632 1.5435
3161 12.3568 5.63169 1.02608 -0.106008 0.0640566 -0.195393
301 12.0854 4.58083 0.92811 -0.9385 -0.551995 1.62607
2289 11.519 5.23782 0.255393 -0.603004 1.59526 -1.2684
2066 12.4806 4.80152 0.0613144 -0.415496 0.0406561 -0.127464
932 13.3355 5.27792 0.830907 0.0785156 -0.173987 0.228794
1077 14.4932 5.6104 0.659686 -0.418976 1.11404 -0.388012
3468 15.5532 5.50501 0.850397 0.5344 0.501017 0.486989
3802 15.0837 4.65597 0.458044 -2.88352 -2.68554 0.906762
2551 17.0226 4.71951 0.397297 -0.934678 -1.06926 1.41563
954 1.38254 6.26662 0.707335 1.21396 -0.70975 -1.60789
688 0.112981 6.65691 0.740651 -1.69309 0.472481 0.671209
2359 2.26837 6.83084 0.652142 0.70073 -0.270227 0.196457
2349 3.08977 7.103 0.204422 -0.27927 0.934621 -0.649641
1639 3.24448 6.29265 0.96569 0.11995 -1.2731 -0.184926
1788 4.25151 6.96484 1.08301 -1.66087 0.805673 0.531642
2125 5.17246 6.35415 0.881625 1.44021 -0.245104 -1.40581
1129 4.29192 5.78719 0.710877 0.966419 0.505586 1.75325
114 6.35922 6.18982 0.114126 1.29145 1.08517 0.34752
2827 6.42212 6.77406 0.977183 0.670077 0.927641 1.47897
3267 8.17677 5.72222 1.02964 -2.02954 -0.77836 0.873436
1487 7.51291 6.26609 0.428155 0.145257 -1.69357 2.03669
2891 8.68229 6.53742 0.583969 -1.13353 0.843001 -0.210824
1831 9.66015 6.70529 1.02831 0.278864 0.433989 -1.80969
1476 10.5806 6.10523 1.29284 -0.722301 -1.19975 0.381123
1919 10.0204 5.76661 0.392731 1.32102 -0.0927208 -0.000859655
1010 11.0175 6.39854 0.00455479 1.9615 -0.645993 1.4804
2919 11.8702 6.50608 0.627633 -0.159168 -2.19232 -0.280613
832 12.5853 5.86407 0.0195797 0.496994 -1.46697 1.16773
3603 13.1967 6.36962 0.901549 -2.183 0.971221 0.512376
189 14.1281 6.83064 1.25322 -0.436245 1.14075 -0.66273
2215 14.4922 6.84221 0.231828 -0.446674 -0.517546 0.515234
401 15.0573 6.4483 1.37806 -0.0389757 -0.669003 -0.738439
2567 16.6514 5.70751 1.08931 0.297583 0.980805 1.93731
421 16.0729 6.46923 0.615948 0.943012 -0.408164 -0.562198
1393 16.6823 5.7844 0.043634 1.02159 0.0518714 -1.03397
1600 1.30688 7.40065 1.14273 -0.0201997 -1.16342 -0.496696
1087 0.555815 7.9835 0.824783 -1.89969 -0.290348 -0.1086
707 1.07367 7.27573 0.095172 -1.4361 -1.53423 0.0401747
3923 1.47087 8.20412 0.411546 0.347521 -0.484753 -0.0121984
2608 2.40733 7.91798 0.803055 -1.3128 -3.15928 -0.967795
878 4.2417 7.17675 0.0825011 0.238339 0.114066 -0.4423
1703 3.33927 7.40425 1.26098 -0.599837 -0.970797 2.70752
1715 3.95647 8.12062 1.38264 -0.648864 -2.01288 1.20271
2040 3.45949 8.28566 0.5087 0.801434 0.827241 2.14248
2328 5.59267 7.16406 0.268126 -0.280207 0.62728 0.265032
2353 5.49465 7.33679 1.27278 -0.688525 -2.18333 -1.1294
854 5.95796 8.09503 0.642792 -0.448375 0.685717 1.08328
661 6.9042 7.37023 0.17066 0.978905 -0.242982 -1.03547
3452 7.61807 8.33279 1.34401 0.13916 1.60756 -0.678019
1786 8.3104 8.43303 0.55862 1.04973 -1.03655 2.08304
409 7.72328 7.44892 0.854183 0.241518 -0.302653 0.913282
2774 9.02479 7.45885 0.184335 0.604717 0.64062 -0.941069
2882 9.76314 7.72101 1.19355 -0.253586 0.593561 -1.77331
1019 10.2787 8.2032 0.0152914 -0.224074 2.10817 0.594045
44 10.7068 7.13065 0.604321 0.0977834 -0.215526 -0.78074
174 10.5577 8.40139 1.02889 -0.53313 1.50912 0.906385
2467 12.4319 7.93049 0.314177 -1.98297 -1.07653 -0.415667
2540 12.7425 8.24411 1.32871 -0.628262 1.573 1.97066
2348 11.6912 7.93017 1.09117 0.277209 0.809335 -0.890159
3259 13.3898 7.48716 0.718836 -0.574694 -1.60124 -0.502377
2013 13.6416 8.47768 0.665281 0.883169 0.304491 0.510489
361 15.5741 8.42171 0.696727 -1.12875 0.175736 -0.0164313
763 15.2112 7.39654 1.15668 -1.04489 -0.48058 -0.351804
1081 14.4691 7.90423 0.623179 -0.0890249 0.638109 1.91651
754 15.3358 7.61275 0.0682218 2.03364 -0.509373 1.25368
2291 16.6604 7.79188 0.30778 0.939045 -0.640702 1.47709
3795 0.897209 1.08147 1.6112 0.525591 -0.736254 -0.232387
2472 0.292415 0.88489 2.54437 -0.531056 1.6227 0.328264
1043 1.10267 0.193191 2.1868 -1.04129 0.419269 -0.177134
158 1.81817 1.01159 2.22419 1.54986 1.2364 1.31438
2448 3.06167 0.72834 1.75245 0.721677 -1.45755 0.492003
1651 3.04254 0.695523 2.80514 -1.10469 0.0532279 0.281934
3670 4.19305 1.19186 1.99135 0.100388 0.832346 -0.369387
2665 4.08271 0.274855 2.69458 -0.581363 0.874756 -1.00099
1927 4.49539 0.259377 1.43852 0.432492 0.272497 1.35163
1635 6.16181 0.818694 1.69735 -1.6606 -1.16598 0.24293
3659 5.93907 1.13225 2.75318 0.24112 -2.11172 -0.56204
100 6.90774 0.0167545 2.01817 -0.744456 0.678442 -1.32633
2780 5.72133 0.00299116 2.46675 -0.0797501 0.634294 1.20601
2751 7.21883 1.02171 2.03241 -0.232562 0.301984 -1.50102
2900 7.99541 0.209112 2.26754 -0.428742 1.69793 0.953874
2228 7.96907 0.981557 2.83918 -1.97116 -0.185732 0.0723448
1704 8.6777 0.405773 1.51984 -2.10042 0.500838 0.111685
1524 9.00494 1.03542 2.15815 1.55466 -0.593261 0.222876
1595 10.1544 0.891345 1.53666 0.529454 -1.29324 1.46675
2946 10.395 1.12592 2.52876 0.669098 0.0842922 -0.272239
3575 10.2576 0.0972402 2.33074 -0.0937776 0.990905 0.357401
3630 11.3395 0.423306 2.36349 -0.699278 -0.688097 -0.274483
2869 12.4386 0.18377 2.7148 -0.712777 -0.463994 -1.41606
2077 12.0111 0.696352 1.72641 0.295661 0.725021 -1.12605
1535 12.5851 1.19601 2.48861 0.295202 -0.665819 -1.8116
1049 13.9652 0.301981 1.57414 0.0199704 -0.305092 0.38814
3160 12.9762 1.21643 1.45091 1.04355 -1.01869 0.0545511
3890 14.0573 1.39759 2.07825 -2.10686 0.566535 -0.677986
3615 15.1766 0.448122 1.8471 0.971368 0.258311 1.13543
951 14.3273 0.410085 2.51119 -0.819529 0.598553 1.59778
1367 16.6906 0.733 1.64495 0.879611 0.357369 2.06812
4 16.0131 1.14665 2.22368 -0.627058 -0.233186 0.495007
3672 16.3176 0.030033 2.1474 -0.669773 -0.995772 -0.614245
2672 1.03037 2.12615 1.54407 0.692678 -0.367533 0.941934
3324 1.3236 2.14871 2.68232 1.1747 -1.61894 0.269346
2050 2.26191 2.09475 1.46415 -0.824737 -0.321257 0.755464
1332 2.48891 2.54653 2.64031 1.82389 -1.74385 -0.336238
3333 3.35104 1.74737 2.62521 0.0439114 -0.534321 0.863845
3175 4.08397 2.61454 1.72157 0.185756 -0.326956 0.509896
2217 5.13539 1.4371 2.07002 1.67649 0.845342 0.658346
3336 4.39661 2.03375 2.72164 0.72563 0.436008 1.59503
2784 5.1532 2.42726 1.72964 0.238218 -0.817578 1.0154
2747 6.10036 1.95796 1.83365 -1.14408 -0.907748 -1.10014
1547 8.50761 2.03925 2.1027 -0.188937 0.113251 1.03402
741 7.1304 2.58633 1.87569 0.103592 0.957218 0.466972
2988 11.0077 1.42676 1.69478 -1.31015 0.591568 0.849118
335 9.97962 2.21916 1.9821 0.13779 0.643985 -0.537136
231 10.9026 2.67507 2.14522 -0.0463611 0.10145 1.39971
313 12.2628 2.12287 2.31253 2.05696 0.96541 0.726938
2037 11.4103 1.57647 2.64595 -0.366049 -0.56503 0.205915
90 13.2681 1.97481 2.15034 0.737792 -0.964318 1.69473
1349 14.6895 2.835 1.64527 0.996283 1.82306 0.578621
3438 14.8946 1.90178 2.60765 0.534678 0.569433 1.39782
687 15.3227 1.95237 1.62502 -0.514093 0.655084 -0.659847
3711 16.4377 2.64378 1.63902 0.263519 -0.794448 -0.000564667
187 15.9629 2.19449 2.55837 -0.165867 -0.607086 0.112129
2160 17.0926 1.60827 1.90487 -0.226085 0.217406 -0.546741
1840 0.355665 3.04409 2.00751 -0.357841 1.32828 -1.52041
3664 0.508793 4.07354 2.71992 -1.73794 0.452124 0.614143
2480 1.37951 3.35446 2.47686 -0.403531 -1.28399 0.114214
1414 2.42296 3.7008 2.27527 -0.149876 1.18043 0.197874
2075 1.81867 3.83061 1.48646 -0.994505 0.323842 0.108467
1841 3.08097 2.85458 1.78396 -0.0659085 1.23836 -0.611104
1689 3.28449 4.22287 2.13212 0.3467 -0.729451 0.607529
2195 3.45169 3.18062 2.67767 -0.454889 0.624381 -0.00797183
237 4.14226 3.95488 2.63643 -0.585137 0.726886 -0.60133
1958 5.66264 3.3806 1.81108 -2.75485 0.129095 0.276104
525 4.81111 2.98636 2.55235 0.220625 1.5065 0.908243
1980 5.22135 3.99961 2.56297 -2.65265 -0.679412 0.144627
199 5.97329 2.85401 2.54867 0.968227 1.47904 -0.789862
19 7.66512 3.90702 1.54974 0.888881 -0.772938 2.34216
2449 8.11403 3.09563 1.94799 0.693755 0.514982 1.55744
1408 7.34106 4.04608 2.7567 1.72884 -0.906016 -0.170096
473 8.36462 4.18781 2.25171 0.112608 0.501385 0.168412
2888 9.05162 2.86998 2.80856 -0.0770757 0.230407 1.01118
3374 9.12768 2.90876 1.68544 0.49081 -1.05395 -1.94195
3018 9.29522 3.74888 2.54119 1.33045 0.986262 -0.34838
3057 10.2004 3.68316 1.94443 1.17421 -0.317871 1.72345
689 11.1847 3.58122 2.61011 -0.6512 -0.0815923 0.730387
1521 12.501 2.86839 1.58312 1.62259 -0.385235 -0.17815
1090 13.1155 4.04089 2.50194 1.18287 -0.741441 0.661202
3121 13.548 2.94922 1.97904 0.787889 0.452576 0.766078
2145 15.5305 3.31353 1.86273 -0.396725 0.307859 -0.20034
339 14.4229 3.84302 2.05021 0.553665 -0.757868 -0.33615
2176 16.592 3.53502 2.07405 1.03027 0.910233 0.567859
2951 0.613964 4.5452 1.66378 -0.874448 0.694647 0.527159
1612 0.122109 5.40495 2.25005 -0.179915 0.936897 0.68395
2976 1.48328 4.76408 2.59979 1.80738 -0.136705 -0.208573
2761 1.55769 5.30958 1.56754 -0.257009 -0.451774 1.72948
3300 2.33854 4.76572 2.0456 0.844571 -0.241866 -0.30009
686 4.07696 4.77692 1.72399 0.328809 -0.288521 0.190979
3090 3.26128 5.25005 2.42984 -0.513576 1.25537 2.00369
72 5.01426 4.29973 1.55283 -1.08782 -1.07315 -1.22179
657 5.1626 5.52207 2.08632 -1.22604 1.12205 0.185276
1375 4.39901 4.96423 2.76725 0.0108662 0.0166703 0.373123
895 5.72294 4.82516 2.53109 -0.449042 1.46588 0.1187
2331 6.27206 4.82738 1.60633 -0.182049 1.59106 -1.98133
1950 6.65792 5.4031 2.40277 -0.608808 0.470975 1.17888
3919 7.4134 4.9277 1.73042 -2.57356 -0.443704 1.99165
3737 7.78013 5.22672 2.77358 1.65117 0.881768 0.290965
2007 8.57397 5.29719 2.01357 -1.86356 1.65508 0.921705
2237 10.3473 5.04251 1.81325 0.554369 -1.62844 -0.184206
793 11.0406 5.69752 2.52124 0.527118 -1.54761 -0.303336
2431 11.4966 4.32182 2.03967 0.876009 0.392845 -0.396896
3433 12.248 4.99323 1.97034 0.56629 1.29217 -1.10613
626 13.5749 4.5088 1.65288 -1.11945 1.37279 0.715448
434 14.0388 5.68411 2.78176 -0.0491872 -0.752966 0.229708
3318 13.1178 5.55159 1.87473 -0.749395 -0.629273 1.87846
188 14.9882 5.40842 2.37035 -1.88858 0.229048 0.813208
3136 14.7181 4.76711 1.56896 0.764446 1.28128 1.22115
1708 15.7377 4.37602 2.12437 0.499988 0.551864 0.160417
2756 16.319 5.03428 1.66176 -1.17468 -0.162029 -0.181983
3884 16.6683 4.53861 2.48025 -0.611131 -0.103008 0.522525
491 1.21744 5.73858 2.50045 0.493208 1.07726 0.567643
3697 1.13555 6.49348 1.70341 1.93733 -0.591339 2.24757
3082 0.627398 6.82482 2.59735 1.90059 -0.685748 -0.827028
36 0.165226 6.27957 1.74455 -0.255995 -0.675519 -0.224048
271 2.80143 6.93802 2.07157 0.667752 0.132015 0.173982
1769 2.39805 5.91343 1.98641 0.858829 -0.713911 -1.12404
2442 3.83311 5.93165 1.8801 -0.446502 -1.08391 0.489413
3710 3.47784 6.76371 2.83197 1.73723 -0.285237 0.86491
3821 4.96068 6.68587 1.97824 3.12198 0.06786 -1.23828
1419 6.11849 6.10073 1.70269 -0.960958 -0.232563 1.26989
2529 6.43573 6.94543 2.30332 0.353484 1.60677 -1.90017
190 7.3246 5.94491 1.87106 -0.882083 2.12465 0.664572
2335 7.98219 6.76764 1.52383 0.0648494 -0.551902 0.713814
2550 7.7518 6.30291 2.74636 1.25618 1.11539 0.148883
3068 9.01715 6.25591 1.6583 -1.31557 1.15116 -0.14672
1509 8.80355 5.96476 2.72316 1.11105 -0.70611 0.626212
265 9.81211 7.03066 2.06591 -1.34767 -0.452109 -0.260814
2183 9.92574 5.91037 2.3526 -0.980772 1.61782 -1.94668
2670 8.73047 7.00127 2.40862 0.0634794 1.47618 -1.69442
2902 10.8414 6.70419 2.2902 0.488732 -0.177257 -0.39226
805 11.9791 6.12949 1.87559 0.160262 0.336616 0.884816
410 12.1032 5.77154 2.81282 -0.514707 -0.0802172 -0.16571
2765 12.43 7.01462 2.51425 -1.0597 -0.413802 -0.0157115
938 11.5669 7.07454 1.70809 -1.04905 0.778356 0.625977
1170 14.1301 5.86191 1.67587 -1.7659 -1.33981 0.455391
843 13.4191 6.72693 1.97709 0.75344 -0.111821 0.611707
2269 14.8598 6.57793 2.39104 1.08194 -0.72538 -0.693093
1200 16.1828 6.29285 2.01351 -1.00593 -0.706371 0.937688
771 0.770068 7.91675 2.74858 0.35274 2.32809 -0.243831
3423 1.26262 8.35876 1.45745 -0.97908 0.185116 0.34044
1136 0.43999 7.44615 1.71656 -1.66103 0.985788 0.103509
3469 1.95579 7.54719 1.98772 0.666726 -1.24791 1.30324
11 2.84337 7.88842 2.78485 1.74668 0.493192 -0.173535
1453 3.94216 7.18348 2.03567 0.561854 -1.434 0.475048
3826 3.65769 8.44617 2.2905 0.200837 -0.473763 1.40516
2288 4.76622 7.69343 2.48244 1.40174 0.925473 1.00963
3581 6.81793 7.55984 1.54512 1.32341 -2.72692 0.264745
2302 5.93362 7.91925 2.29126 -0.143994 0.728345 -2.35574
3660 6.39314 8.47627 1.53094 -0.139553 0.817168 -0.4371
28 7.20897 8.22325 2.3729 0.627172 -0.215248 -0.91206
553 8.30235 7.90563 2.7319 -1.1041 -0.931108 1.36871
640 7.536 7.23353 2.25781 0.334471 -1.34592 0.30324
2512 8.5211 7.95314 1.59548 -0.400495 0.919957 -0.506368
2476 9.35979 7.97715 2.29176 -0.277584 0.23802 -0.535348
4000 10.8251 7.63465 1.91191 -0.21886 0.101662 0.581849
2277 12.5869 7.15714 1.4975 -0.480926 -0.808285 0.567963
2388 11.7603 8.00082 2.20982 -0.96226 -0.590169 0.649872
2293 13.7174 7.92597 1.56694 0.238243 1.32847 0.776992
3822 12.9546 7.87543 2.64965 1.54597 -0.594559 0.765066
3694 14.824 8.30949 1.67635 -1.43999 -1.58166 -1.42582
2580 15.6044 7.49633 2.10452 1.19869 0.0573157 -1.80681
984 14.5756 7.3853 2.02258 0.426692 0.869132 0.122603
3427 14.2582 8.10714 2.59988 -0.0527773 1.24595 0.742416
978 16.5701 7.22099 1.44921 0.611462 -0.406807 0.802833
2724 16.7044 7.70233 2.3809 1.6875 -0.77299 0.699032
639 16.5891 8.20515 1.4352 0.633724 -0.165393 -2.30297
2991 15.9242 8.34278 2.7882 -0.0857535 0.849962 0.496305
3200 1.28291 0.860262 3.21423 0.0600005 0.000293541 -0.718141
2867 0.199034 0.810052 3.61088 0.0765461 -0.216764 1.71923
60 2.19432 0.11536 3.41493 -0.435848 0.161732 1.14447
866 2.80375 0.957567 3.79486 -1.17783 -0.583856 0.957305
3688 3.27024 0.0700539 3.46292 0.66022 0.27304 -0.913669
3119 3.80452 1.32063 3.43335 0.386153 0.28715 -0.0387709
3299 3.97191 0.510962 4.18101 -1.16092 1.57502 -0.614071
3225 4.70782 1.08022 2.9098 -0.323679 -0.0365067 -0.170148
3407 4.74728 1.34732 4.18208 1.08566 0.332599 -0.460615
120 5.30102 0.0252006 3.32225 -0.451323 0.250531 -1.44844
958 7.00997 0.0346734 3.06308 0.798494 -0.887065 -0.421132
239 6.08024 1.12334 3.71449 1.67222 -0.123363 0.702002
3115 6.85867 0.971539 3.16029 -0.423117 0.875777 -1.26473
1102 7.7723 0.475811 3.88678 -0.0762705 2.20373 0.122485
1523 8.39676 1.17256 4.16708 -0.185482 2.81732 1.05369
3088 9.64126 0.140856 4.00801 -1.88615 0.921375 1.80253
3853 8.79351 0.520665 3.5086 0.50026 -0.899191 1.5053
731 9.44614 1.26267 4.17012 -0.0619708 -0.787204 0.097806
1318 9.74996 0.927897 3.25849 0.234492 -0.145987 -0.240468
136 10.6651 1.39391 3.53364 0.397997 0.0886247 0.804847
2594 10.8939 0.453424 3.24591 -0.82666 0.609836 0.433213
477 12.6646 0.720774 3.66665 1.12828 1.77194 -0.443529
554 11.818 1.26457 3.48294 0.834385 0.586177 2.13305
3924 13.4914 1.10142 3.0158 -1.32205 -0.250601 1.36489
2519 13.9122 0.330537 3.46426 -0.400452 -0.768536 -1.18741
3247 14.4699 0.917446 4.19838 0.0955186 -0.392023 -1.22669
893 15.0248 0.869351 3.06615 1.7709 0.112732 0.640318
2206 16.116 0.196243 3.44844 -0.0486385 1.74822 1.41779
1965 16.327 1.26312 3.29678 0.4918 -0.253511 0.953912
864 0.146992 1.77396 3.33088 0.663611 1.50755 -0.231884
2417 0.76634 2.80592 3.2193 1.2869 -0.360635 -0.418193
342 2.31052 1.67782 3.16615 1.0737 -0.131149 -1.63697
1662 1.55172 1.796 4.07983 -0.9739 0.0992902 0.414977
1003 2.16165 2.74299 3.89956 -1.05931 -1.42725 0.614983
1527 3.24547 2.39777 3.48648 0.646713 -0.249657 0.507708
463 5.47037 2.049 3.18093 0.748162 1.15217 0.311019
2693 4.64336 2.35929 3.72529 -0.419895 0.647098 -0.821528
2654 6.42427 2.08685 3.20019 0.0899908 -0.770731 0.312229
2692 7.34855 1.62665 4.26571 0.185815 0.0836587 -0.82412
618 7.5466 2.63563 3.93599 0.111872 0.412954 0.0956218
3579 7.51597 1.94419 3.12953 -0.468757 0.150414 -1.9259
3627 8.80015 1.42574 3.25099 2.3145 0.402084 -0.798637
2410 9.6914 2.25514 3.31965 -0.0381944 -0.738729 0.0492073
3366 10.7038 2.62253 3.36036 0.75199 -0.845131 -0.331166
1140 11.7506 2.21874 3.9253 -0.923524 -0.673004 0.137429
2147 11.7565 2.72736 3.00841 1.79515 1.08186 -1.19971
881 12.7386 1.99587 3.3016 -0.68554 -1.3255 1.23766
359 14.06 2.67349 3.06319 0.728214 -0.925865 -0.178429
860 14.202 1.72168 3.43997 -1.28037 0.597197 0.602306
3829 13.272 2.43834 4.03585 -0.694849 -0.864579 -1.03566
1526 13.5576 1.44688 4.14697 -0.251866 1.02318 -0.723405
1883 15.2933 1.73068 3.75647 -0.741583 -0.697675 1.09227
201 16.8287 2.79546 2.92346 -0.919091 -1.27845 -0.0217384
797 16.3103 2.2448 3.7485 -0.0680448 1.62292 -0.013497
3222 0.295233 3.499 3.71446 0.174254 -1.8894 1.06427
504 2.84619 3.85044 3.23267 0.273014 -0.486983 -0.235951
1591 1.57773 3.49955 3.51831 1.24685 0.757352 -1.88344
1209 4.0786 3.32928 3.43064 1.32626 0.976801 -1.22296
2488 3.29444 3.18876 4.23873 -0.817673 2.19219 -0.286298
2652 5.06771 3.42013 3.49327 0.163824 1.7536 -0.733837
3944 5.91932 4.06634 3.62928 -1.4024 0.28117 0.386197
834 6.91876 3.84958 3.68796 -0.209227 0.364234 -1.38466
460 7.00574 3.01632 2.94288 0.368347 0.120793 0.751561
1413 6.04554 2.99039 4.00024 -2.49605 0.0167826 -1.90732
273 7.99116 2.85828 2.975 -1.06442 -0.551662 -2.20931
1847 8.01762 3.80586 4.19195 0.40524 0.459565 -0.758839
453 8.62907 3.64331 3.31216 0.61874 0.522963 0.257041
3505 9.95179 3.08089 3.91355 0.875994 -1.04691 0.0590564
2807 9.10904 3.86928 4.25819 0.820556 1.01318 -2.9372
3837 10.2755 3.54901 2.97278 -0.217195 -1.85331 1.40933
1557 12.4646 3.02974 3.9456 2.14787 -0.780884 0.233659
3946 11.8141 3.72427 3.51155 -0.545506 -0.33249 -0.919889
851 12.9648 2.96927 2.90175 1.0359 -0.679841 1.26177
2434 13.8702 3.69962 3.10534 -1.42299 -0.284225 0.83912
765 12.8539 3.93161 3.64346 -0.987794 -0.783213 -0.191909
1344 15.3677 3.62717 4.01898 0.272877 0.598796 1.23773
1661 14.6044 4.25322 4.05631 1.23178 -0.194921 0.512761
3253 15.1662 2.9835 3.12655 0.395265 0.680462 0.442593
1242 16.1356 3.85691 3.0172 -1.60147 -0.108148 -1.94944
1325 0.617201 5.07142 3.51924 0.843561 0.244822 2.18752
1864 2.55576 4.99325 3.10408 -0.59978 0.378117 -2.13259
1410 1.91996 4.60631 4.05008 1.35607 0.259473 -1.94758
2735 3.5427 4.64344 3.3713 -1.48204 0.484388 1.14098
3373 2.96488 4.61471 4.23704 0.855687 0.062835 0.681496
2734 2.89721 5.65989 3.93534 0.742571 0.146905 1.85138
891 4.94309 5.47976 3.99226 -1.45052 -0.13032 0.219592
2788 4.91149 4.44448 3.49721 -1.1964 -0.470699 -0.065348
552 6.68856 4.64785 3.24769 -0.0308536 0.421948 -0.688256
2940 5.81577 5.22981 3.45194 0.0649826 2.1127 -0.619923
1828 6.97603 5.63712 3.51263 2.63974 -0.1955 -0.20178
3007 7.61311 4.73389 3.77989 1.05856 0.330772 1.06631
1152 9.30355 4.9284 2.87408 -1.03719 -1.22351 -0.355564
1035 9.80243 4.40235 3.55413 0.277818 0.47053 -0.934796
2858 8.6768 4.72858 3.73612 0.347235 1.94196 -0.119047
2266 10.6454 4.77697 2.9398 0.273211 -0.832735 0.0235372
1643 11.0052 4.45248 3.82266 -0.107059 0.246242 -0.20729
321 10.3038 5.6832 3.23691 0.260937 0.384959 0.590796
1217 11.2567 5.4634 3.49436 -1.05418 -1.38351 -0.978164
638 10.3041 5.23923 4.19157 -1.59478 -0.305548 1.44886
888 11.8645 4.65204 2.97583 1.20716 -0.983936 -0.426812
2999 11.9924 4.63453 4.07059 0.257259 0.798923 0.0425771
3622 12.8521 5.11713 3.47786 0.0918419 -1.09934 -0.961896
1947 13.921 4.8552 3.44363 -0.270549 -0.90435 -1.2216
2916 15.0662 4.30912 3.03412 -0.784365 0.0139004 2.38178
3268 14.9938 5.27581 3.56762 0.233198 0.353093 0.601832
3415 15.6539 5.69126 4.21487 0.858791 -1.55468 0.893291
2032 16.6789 5.65614 3.26076 0.473894 -0.0791961 -1.82805
773 16.8121 4.30642 4.08783 -0.692142 0.332903 -0.668434
14 15.9626 4.92673 3.25135 1.04307 -0.817013 -0.246018
545 0.581511 6.15942 3.41705 1.60514 1.23267 0.279172
594 1.57222 6.93731 2.93456 0.0237076 0.105795 1.16597
390 2.48773 6.27232 3.16012 -0.321261 -0.280998 -0.613632
2600 1.60167 6.64117 4.04921 1.34879 -0.329325 -1.45129
3966 1.63424 5.71916 3.59519 0.268849 1.39675 0.814742
119 3.59071 6.43702 3.81317 -0.846451 0.7104 -0.760301
3801 5.03284 6.22245 2.97569 0.331429 -0.378085 -0.675666
2056 4.42381 6.89015 3.36813 0.0854971 1.9291 -0.0806326
2079 5.15458 6.57158 3.94467 1.23168 -0.335739 1.1951
2722 6.19323 6.3555 3.19919 0.399624 0.109117 -1.20279
900 5.91827 5.98498 4.22587 1.00471 0.613898 -0.682303
1622 7.02373 6.68724 3.71283 -0.702722 -1.12266 -0.436576
858 8.27405 5.76346 3.63903 -0.188862 0.334531 -0.655068
2223 8.11784 6.92898 3.54179 0.410169 -1.35371 -0.462114
3773 9.47722 6.96262 3.15523 0.827479 -0.760155 0.533174
362 10.4176 6.48474 3.93743 0.446184 -0.404038 0.391004
3695 11.3847 6.60333 3.03817 -0.602213 -0.244244 1.56255
2633 12.2587 7.01772 4.14154 1.40863 0.171895 -1.14961
729 13.9318 7.03732 3.01623 -0.88449 -0.581841 -1.65067
1690 13.7255 5.71558 3.96012 1.9999 0.29837 0.371353
2314 13.0217 6.48782 3.32983 -1.07995 0.899841 -0.885718
2727 15.6664 6.19156 3.15434 0.352013 -0.0719196 2.21684
3166 15.4935 6.74519 4.03383 -1.26156 -0.801679 -0.857308
1214 14.6721 6.33279 3.46508 -0.0944427 -0.839463 0.986753
1584 16.5185 6.57475 3.85194 0.845406 -0.0525968 -1.41052
2789 16.7377 6.77923 2.85182 -0.605552 0.437862 -0.114568
524 0.179197 7.24516 3.62729 -1.35253 1.29264 -0.495807
589 1.03418 7.68353 4.05784 0.264376 0.668721 1.06582
2060 2.21682 8.50583 4.239 -0.454452 -0.158075 0.00604957
3723 2.57752 7.36647 3.66672 1.27328 1.64273 0.897004
1182 1.65019 7.97465 3.20391 -0.326644 -0.101327 -1.59024
1317 3.73027 7.84126 3.37761 1.0191 1.62401 -2.1576
8 5.54394 7.25 3.09491 0.699468 0.7737 -0.316316
213 4.95766 7.65024 3.86093 -1.18527 -1.72868 -0.063103
2067 6.82294 7.61447 3.1146 1.579 -1.326 -0.435262
1265 6.14575 7.3972 3.99746 1.10049 -1.31502 -0.0454122
969 8.08092 8.02905 3.71689 1.39424 0.692923 -0.767629
2213 9.31835 7.98116 3.35882 -0.374644 -1.23476 -0.670941
1132 9.92634 7.52942 4.16941 -0.185754 -0.134261 0.214762
3731 10.4541 8.53997 3.90984 -1.03705 -1.7897 -1.3219
3206 11.3176 7.56607 3.89342 -0.485511 -0.298973 -2.7315
1099 10.5293 7.18036 3.21626 0.12758 0.946365 1.20197
1249 10.957 8.04348 3.05658 0.75692 -0.723493 1.7131
2773 12.1992 7.80112 3.47789 -0.758562 -0.616693 -1.00864
3473 14.0126 8.15268 4.05534 -1.34747 -1.58239 -0.702529
249 13.1781 7.47112 3.72267 0.121375 -0.267112 1.96219
2903 14.961 8.4012 3.57598 2.28859 -0.581325 -0.285265
3369 15.0879 7.43633 3.12549 -1.0455 -2.40665 -0.890804
1387 14.4721 7.31121 3.96841 -1.51166 -0.301773 0.0997956
3749 16.8126 8.25142 3.35905 0.328827 0.303005 -1.13027
3470 15.7394 7.78101 4.07115 0.308689 1.08109 0.851745
495 0.797793 1.42137 4.67356 -1.17627 -0.166701 0.0315452
785 2.71063 0.389713 4.68731 -0.0393413 -0.932296 0.783476
635 1.69309 0.788573 4.34476 -1.28327 0.626187 0.677143
2052 1.723 1.29805 5.34838 -1.77538 -0.262703 -1.12824
1055 2.72351 1.34246 5.08911 -0.610488 -0.916749 -1.56
3641 3.72289 0.180926 5.61087 0.853008 -1.85682 -1.08647
3628 4.27043 0.967435 5.01286 -0.182598 -0.864526 0.537068
2834 5.67814 0.323935 4.35027 0.113389 -0.241232 -1.93069
3843 4.88504 0.043849 5.15 0.901296 0.259809 0.1071
983 5.32678 1.21047 5.04427 -0.327246 1.16429 1.50273
2541 6.89931 0.213656 5.24019 -0.622972 0.0181619 -0.427988
1992 6.49662 1.36246 5.08512 -0.677931 -0.0213245 -0.816539
3812 6.80966 0.659744 4.30893 -0.475231 0.127344 0.939637
468 7.65689 0.843497 4.92388 1.00436 -0.465 1.75024
1522 8.88329 0.315498 4.58842 -1.64262 0.702855 0.951044
2172 8.63449 1.15415 5.16586 0.274455 1.10207 0.783682
3269 10.9425 0.481619 4.2955 1.037 -0.578972 -0.251006
222 10.1794 1.19455 5.02465 -0.712691 -0.117903 -1.64759
3462 10.9975 0.684141 5.3306 -0.740803 -0.84119 0.242207
1620 12.1073 0.0701033 5.29334 0.448381 -0.480093 -0.225357
3960 11.9135 0.736073 4.51269 1.13247 0.752821 0.106164
1392 12.094 1.17414 5.38124 0.164687 1.5699 -0.408165
2154 13.7129 0.242971 4.61535 -0.111313 -0.704001 1.47859
1219 14.0602 0.992376 5.37145 1.91423 -1.65679 -0.0226318
1981 12.9578 0.932873 4.90276 0.361146 -0.4141 2.11013
3076 13.2021 0.11305 5.64905 0.136611 0.193475 -1.29833
1454 15.2496 0.473027 4.76934 0.560495 0.682769 -2.21002
735 16.0526 0.901394 4.41148 -0.59203 0.0385272 -0.615382
2712 16.1429 0.775037 5.57886 -0.00556956 0.706612 -0.818816
2279 17.0514 0.700435 4.74452 0.788184 -1.49238 -0.426857
3767 0.607735 2.05025 5.52577 0.0084824 -0.996172 -0.99588
651 1.78492 2.28008 4.91838 0.194225 -0.449127 -1.06592
612 3.92116 1.83548 4.39475 2.15023 0.425658 0.0603427
286 2.85667 2.27881 4.72093 -0.68591 -0.160991 -0.632228
3572 4.13669 2.65077 4.85963 -0.339366 0.611059 -1.50069
2804 5.21653 2.65163 4.8205 0.168072 -0.230494 -2.19063
1002 4.88446 2.07289 5.5493 -1.71636 -0.23306 0.670105