ITEM: TIMESTEP
66000
ITEM: NUMBER OF ATOMS
4000
ITEM: BOX BOUNDS pp pp pp
0.0000000000000000e+00 1.7099759466766969e+01
0.0000000000000000e+00 1.7099759466766969e+01
0.0000000000000000e+00 1.7099759466766969e+01
ITEM: ATOMS id x y z vx vy vz
2342 0.488568 1.26696 0.580133 1.532 1.17797 -1.98345
2016 1.47131 0.367511 0.791998 -0.375327 1.44694 -1.97971
3990 2.85574 1.3146 0.550748 -0.656745 -0.97345 -0.674811
295 4.12474 1.10486 1.03163 -0.30402 0.0914354 -0.390365
2346 3.12193 0.368848 0.96357 0.740007 1.08029 1.06017
726 5.16884 0.373996 0.448635 -0.157573 -0.920318 1.36944
1991 6.79153 0.542163 1.12007 -0.426314 -1.01415 1.69953
1760 7.02818 1.40926 0.752031 0.0759104 -0.734976 1.01726
1188 6.01749 0.972113 0.486045 0.722364 0.617405 0.738734
3678 6.16067 0.0288253 0.0608543 -0.0317752 2.22039 -1.28242
1716 8.36983 0.726261 0.626127 1.03155 0.011496 -2.87216
2640 7.96509 1.38019 1.35598 0.143069 1.00149 1.08031
3575 9.5976 0.572189 1.07821 1.51621 2.90883 0.0667801
1193 9.15109 1.407 0.359312 1.63627 0.54685 0.881086
113 10.2182 1.32455 0.614054 1.63613 -1.65046 0.206007
3198 10.5092 0.405214 0.271966 0.963612 0.549446 2.25984
2701 11.4633 0.326329 1.0129 1.21156 0.800147 0.0961077
2818 12.599 0.532283 1.14611 2.11653 -0.389736 -0.21317
2387 11.4828 0.804226 0.162879 0.453842 1.08564 1.83969
1049 13.588 0.414169 0.710048 -2.7836 1.13001 0.64489
2055 15.1096 0.576154 0.595019 2.13259 -0.490266 -0.44625
2311 14.5849 0.0426121 1.29199 -0.697964 -0.379282 1.88277
677 14.2636 1.25699 0.820596 0.914975 -0.354451 -0.378092
1539 16.5159 0.581884 0.440895 1.27497 0.925326 -0.311538
1608 16.5996 1.32373 1.18751 1.50644 0.388459 0.296109
2305 0.92674 2.386 0.966021 -0.424949 -1.50284 0.449679
1467 2.70157 2.66918 0.427158 0.820685 0.640637 -0.0695318
3795 1.90094 1.87714 0.651207 -0.456903 0.158567 -0.484917
474 1.596 2.76295 0.242491 -0.159912 0.853002 1.36292
426 4.18527 2.2382 1.38756 0.756129 0.910616 -0.329384
3254 3.84756 2.60916 0.289197 0.628505 -0.67769 -1.02961
476 4.95761 1.54465 1.28115 0.506408 -0.61973 -0.55705
1120 5.37908 1.87846 0.238017 1.02601 -0.139425 -0.566908
1976 5.29955 2.67602 1.16111 -0.831272 2.80758 -2.12976
2747 6.85815 2.81194 1.12786 1.26938 1.23577 1.00555
1383 6.19949 1.96784 0.935313 0.656831 0.220675 0.357675
588 8.28745 2.29514 0.983041 0.0919584 -0.839587 -0.916436
210 7.35669 2.4964 0.228898 0.515933 -0.283134 -0.603899
2971 7.92859 1.5624 0.186858 1.21608 0.334049 1.5768
3626 9.64356 2.26296 0.788794 -1.4631 -1.09411 0.268606
1595 9.03161 1.67857 1.39319 -0.160405 0.271885 1.41805
3819 8.86554 2.36999 0.023931 1.00246 0.183293 1.10435
1605 10.6618 2.62703 0.890787 -0.920497 1.66339 -0.970905
1966 12.7026 2.76725 0.637286 1.17089 0.277254 0.279638
1258 11.5845 2.42511 0.653229 0.589487 -0.37819 -0.0844657
1463 12.4325 1.51354 0.376202 -0.485374 3.15332 0.221092
1922 11.6248 1.43451 1.0914 -1.16782 0.823398 -0.444493
3160 13.3134 1.46465 0.959601 -0.911484 -0.48827 -0.301866
1349 13.6995 2.5318 0.973018 0.39559 -1.49317 -0.561322
262 13.2956 1.93025 0.0158325 -1.56912 -0.27541 0.59232
1789 14.3381 2.1818 0.0691617 -2.106 0.802268 -1.43333
2002 15.4297 1.58026 0.979549 -0.789755 1.6067 1.74337
1583 15.2291 2.7085 0.432185 -0.0647036 0.562631 -1.64506
3711 16.0791 2.80641 1.15519 0.722676 0.540693 -0.709153
3420 16.6556 1.56523 0.09463 -1.51308 0.217126 -1.01223
1913 17.0109 2.31662 0.634503 1.33332 1.37382 -1.9106
1840 0.134889 3.41563 1.08805 0.288348 0.618785 -0.499801
2976 0.407038 3.91049 0.193602 0.360526 -1.85513 1.01743
424 1.39445 3.74613 0.280574 -0.421183 0.284105 1.41318
1880 2.20979 3.65917 1.11984 0.01359 -0.4904 0.309238
686 3.29105 3.66533 0.549315 -0.454487 -0.53559 -0.669175
3970 4.94499 3.03113 0.0645913 1.09582 -0.6769 -1.02555
1779 4.367 3.78307 0.458197 0.014098 -1.87449 -0.601071
733 5.44368 4.22682 0.211448 -0.0746801 -0.133572 -0.116324
72 5.05452 3.82495 1.38377 -0.42266 -1.08657 0.585426
1879 6.23191 3.76051 0.919295 2.39856 1.31139 -1.82966
3087 5.98782 2.85778 0.102968 0.270905 0.249201 -0.369172
478 7.07929 3.95799 0.206427 2.00184 2.20892 -1.02365
191 7.83192 3.13548 1.23284 -0.4059 0.126176 -0.672514
19 8.04904 4.11798 0.983978 -0.926452 -0.695529 0.562855
2703 8.97447 3.26159 0.445836 -1.21168 0.0144812 1.62934
3954 10.1987 3.49259 1.19925 0.440405 0.946199 1.16767
906 11.2991 3.74557 0.937071 1.96019 -1.27443 -1.2958
2324 12.1969 3.53661 0.145901 1.18171 0.732332 -1.61989
547 12.9843 3.70148 1.26369 -0.953825 -2.1403 -0.208722
3020 15.0645 3.82712 1.07619 -1.57987 0.605705 -1.119
935 14.3513 3.32628 0.431653 -0.557338 0.179136 -0.0315296
3777 16.3422 2.97347 0.1049 -0.870351 0.351012 -0.632434
1290 16.0651 3.88049 0.847861 -0.00297838 -1.56524 -0.922977
2951 0.935061 4.47242 1.03864 0.180079 -0.726918 1.20692
667 1.09557 5.57144 0.312315 -1.73061 1.74237 -0.290991
2761 1.99506 4.67132 0.473294 2.19658 1.1872 -0.305354
3887 3.01551 4.83682 0.581725 0.54663 -1.71029 0.876133
1710 3.91635 5.59914 0.856161 0.0492443 2.15409 1.70246
779 3.9451 4.62613 0.211174 0.603124 -0.350273 1.0979
2125 4.78051 4.85304 0.977797 0.0141995 0.201518 1.59086
3009 6.89439 4.94801 0.938983 0.736877 -0.643972 1.28606
1495 5.77624 4.97338 1.10491 0.35871 0.841149 0.449487
274 7.94063 5.08235 0.73063 3.60146 0.18465 -1.06456
429 9.23511 4.29454 0.504004 -0.746322 -1.56151 -0.293792
97 9.13641 5.37119 0.793825 -0.172955 0.0917229 -0.487122
3551 9.96473 4.50655 1.08347 0.111387 -0.0459201 1.02204
2468 9.91838 5.10493 0.138903 0.403806 0.483179 0.560087
3440 11.2259 4.68406 1.36673 1.26345 -0.200794 -0.711257
2237 10.6988 5.39323 0.857077 0.638311 1.4857 -0.237012
3800 11.2386 4.61498 0.300899 -1.08415 -0.87055 -1.76541
3704 12.1431 4.44883 0.820901 0.327519 1.78493 -1.08529
2950 12.0049 5.37729 0.536747 -1.59465 -0.660183 -1.58645
3145 13.0198 4.78812 0.660864 0.0512872 1.85377 -0.309365
2412 13.9168 4.30384 1.0766 1.54046 0.602924 0.201753
1077 14.1768 5.24376 1.3591 0.0782869 0.336251 -0.358453
3085 14.1022 5.28791 0.267549 0.738123 -1.41172 -0.731437
3468 15.1676 5.1113 0.995746 -0.937098 -0.533949 -0.228651
2551 15.1657 5.61587 0.0699068 1.12453 1.68424 2.49772
269 14.5842 4.40485 0.349884 -1.45288 0.729661 -0.0589774
3802 15.5821 4.67315 0.170818 -0.522846 -2.34894 0.688637
2567 16.6284 4.9254 0.794084 -0.331515 -0.0321503 -0.654149
1436 1.10985 7.04283 0.650315 -1.6986 -1.94977 -0.70398
688 0.298826 6.67985 1.16241 -0.41547 -1.90776 0.431122
2359 1.15226 6.11285 1.18574 0.669248 -0.703683 0.731496
271 2.07472 5.77568 1.26463 -0.761646 -0.502835 -0.618501
3910 1.86902 6.4023 0.182196 0.174634 0.252144 1.34715
2442 3.10536 6.08734 1.31503 3.1424 -0.631896 1.27335
2349 3.68549 7.11987 0.985087 -0.555764 -0.103597 -1.72931
2074 5.35568 6.34381 1.11752 0.197977 -0.123792 -0.235362
2328 4.71857 6.82645 0.20245 -1.08307 -0.153491 0.0580509
1264 6.49161 5.87264 1.26788 0.265195 1.12628 1.38371
3581 6.48496 6.70807 0.591184 0.609602 -0.147072 -1.4677
1337 7.09885 5.78477 0.172946 0.0109324 -1.31207 -2.53351
3736 5.92262 5.82995 0.238795 -1.18348 1.39365 -1.39942
498 7.52729 6.78321 0.718796 1.21782 -0.741443 -0.742582
1369 8.33555 5.97393 1.00936 0.525225 -0.226469 -0.066925
1919 9.42934 6.1278 0.134021 1.15004 1.07748 0.143921
1152 9.89318 5.92228 1.34793 -1.24914 -0.178025 -0.992246
2614 8.63406 6.903 0.602307 -1.39716 0.452486 -1.18835
2576 10.4975 6.32073 0.307656 1.39134 1.22887 -1.49212
1476 11.263 6.46233 0.915951 -0.0533587 -0.494438 1.50315
2919 12.6318 6.85789 1.28158 -0.23315 -0.496529 -1.71974
1444 11.4386 7.04328 0.108936 0.245878 -0.568834 1.9288
3161 13.0079 5.82615 1.02068 -0.890435 1.31727 1.202
189 13.5348 6.76553 0.714438 -0.0784716 -0.427336 -0.759544
2291 15.5843 6.98372 0.355291 -0.785374 0.863869 -0.273959
1381 14.6753 6.22594 0.835279 -1.74189 -1.12884 -0.635996
978 17.085 6.01133 0.306205 -2.45329 1.51029 1.83074
2965 16.4124 6.87287 1.0671 -1.22269 -0.997217 -0.0459456
421 16.0242 5.88175 0.596036 -0.231722 1.43899 1.64806
3423 0.710142 8.13477 0.979922 -0.614235 1.97862 -0.394926
3469 2.40959 7.1274 0.650356 -2.27397 -0.831246 0.353073
2608 2.61488 8.29061 0.493808 -0.784105 1.4248 -0.694384
2040 3.43365 7.40131 0.0570336 0.679725 0.670351 -0.390643
878 4.00743 8.11247 0.514388 -0.786234 -1.58599 0.790264
2353 4.93561 7.43953 0.991743 -0.0249993 0.245483 0.0165948
661 6.84541 8.17485 0.142315 0.328711 1.99641 -0.915784
2288 6.14245 7.27094 1.39963 -1.45778 1.04055 -0.228906
2774 7.06554 7.69188 1.08763 -0.307933 -1.55 -0.0880925
854 5.77571 7.59309 0.393764 -0.640592 0.723882 -0.210193
431 6.0773 8.36627 1.01602 2.42423 1.24028 1.23405
1786 7.86785 7.62535 0.378597 0.0325952 -0.321413 -0.0104732
3452 8.42041 8.09199 1.4077 1.78833 1.24672 0.493187
1747 9.35048 8.13732 0.46009 -1.00876 -0.086837 0.849192
3443 9.63002 7.14247 0.969757 -0.730694 -0.304036 -1.55308
2385 10.5804 7.88659 0.884058 -0.941573 -0.37917 -0.389187
1019 11.7479 7.54034 1.08322 0.328566 1.25774 1.62742
3603 12.5763 7.36914 0.11654 -1.19099 -0.416028 0.545864
94 11.835 8.53274 0.90495 -1.74632 0.377732 -1.03733
2467 12.7599 7.93285 1.05295 -0.481737 -0.421494 0.179043
2215 13.8491 7.90388 0.848065 0.448929 1.02614 -0.62746
1637 14.4743 7.13851 0.429149 0.149952 -0.950157 0.462701
763 14.7157 7.45366 1.40603 0.965041 -0.344508 0.671597
2013 14.6867 8.4659 0.517954 0.927247 1.14148 -0.315249
2375 16.9097 7.71717 0.455074 -0.487148 -0.432622 -1.23013
361 15.7264 7.91061 0.8112 0.219711 0.0359674 1.56545
158 0.647449 0.784523 1.49693 2.23501 0.593028 -1.99642
482 0.51792 0.263759 2.35399 -0.140711 0.495975 -0.208709
2448 2.4366 0.810475 1.60768 0.149028 0.741139 -0.556284
2672 1.50662 1.41064 1.53425 1.04199 0.0452906 -1.98898
60 2.30775 1.00308 2.63718 -1.09758 -0.276557 0.500411
775 1.52613 0.406611 2.0542 1.31517 0.376905 -1.09013
1927 3.64864 0.768694 1.94626 0.140926 0.321434 -0.696817
3225 4.83516 0.532515 1.6286 0.836969 0.596738 1.28819
2217 4.52152 1.37832 2.40284 0.0789912 -0.0617378 -0.745058
1635 6.44808 1.11269 1.96926 0.634051 -1.2821 -0.192773
3713 6.93648 0.136427 2.22386 -0.960541 -0.77734 -1.19084
100 8.22608 0.000312831 2.7176 -0.145432 -1.65615 -0.341353
2770 7.81169 0.350888 1.83588 0.359927 -1.06143 -0.772381
2900 9.06225 0.309524 1.90687 -1.21441 -0.908354 0.68585
2068 10.9828 0.34446 2.55366 1.97998 0.752908 0.729133
535 11.0133 1.4087 2.81757 0.194069 0.243201 0.429049
3853 10.0262 0.945653 2.52289 0.351221 0.866014 1.19157
2988 10.644 0.873391 1.4962 -0.210231 -0.699525 -1.20234
2227 12.0548 0.816187 1.92745 0.481206 0.0295015 -1.16627
327 14.0945 1.19296 2.83972 0.825818 1.04443 0.396394
3204 12.8764 1.42134 1.90254 -1.01508 -0.332663 0.109092
3529 13.803 0.646959 1.71181 -0.544631 -0.561334 0.866242
3672 15.128 0.091613 2.38472 1.71755 -0.516956 0.70005
3615 14.6938 0.95065 1.98625 -0.150456 0.539304 -0.143087
1367 15.7135 0.617073 1.75361 -0.15672 -0.357219 -0.491142
3855 16.7654 0.321735 1.61398 0.965941 0.306414 -0.227121
1965 17.0134 1.04522 2.6399 0.265593 -1.27147 -0.264696
201 0.0141204 2.00278 2.75426 0.224195 0.668439 -0.530075
2050 2.71333 2.58081 1.44741 0.027795 0.816968 1.08528
342 2.80785 2.64278 2.72868 0.0317194 1.34057 -0.476113
3324 1.65026 2.82838 1.49154 -0.401264 0.0267051 -2.43688
2472 1.72658 2.09797 2.48858 0.879756 1.61803 -0.0305288
1651 3.26525 1.75013 1.48042 -0.408644 -1.24705 0.466499
3333 4.04919 2.43719 2.43795 -1.11828 -0.584411 0.359709
3670 3.40234 1.58528 2.67136 0.48385 -0.78336 0.710658
3336 5.28147 2.12409 2.59526 -2.60772 -0.34983 0.236371
463 6.06324 2.16635 1.91171 0.659541 -0.137116 0.0145361
3659 7.44713 1.51265 2.59484 -0.647403 0.0651613 -0.778455
2808 8.26994 2.0785 2.11961 -0.387023 0.304177 -0.224241
1524 7.28264 1.96336 1.70923 -0.974989 -0.915905 -2.0294
300 8.97446 2.84208 1.47279 -0.259904 0.163102 0.0801491
1547 9.27002 1.54968 2.45287 1.37644 1.8028 -0.616446
335 9.97809 1.90039 1.6781 -0.31373 -0.178797 0.916035
844 11.1772 1.98038 1.81728 0.00843394 -0.807773 0.996906
2946 10.1404 2.03681 2.78771 0.338503 0.714546 -0.190866
90 12.1854 1.92761 2.47413 1.10006 0.288595 -1.71936
2959 12.7071 2.69563 1.70826 1.12797 0.715589 -0.379279
3890 14.1049 1.87701 1.6665 -2.00285 0.0963213 -0.969967
3924 13.3371 2.02623 2.73474 0.0369801 -1.59458 0.617819
3438 14.3915 2.3424 2.57915 0.363685 -0.0867556 -1.01147
687 15.1537 1.8556 1.85989 -0.367684 -0.29948 0.798329
1708 15.8889 2.56952 2.14277 1.75889 -0.521136 -0.953621
187 16.8734 2.29875 1.74042 1.16799 1.12363 -1.17147
4 16.1916 1.567 2.3635 0.327595 2.03518 -0.602708
2160 0.666015 2.89722 2.00292 0.117241 -0.0309892 0.305019
3664 1.20373 3.73857 1.59406 2.12095 0.292839 -0.0301024
1414 0.990433 3.84385 2.58416 0.849932 -0.281576 -0.283485
2075 1.98708 3.53854 2.26695 -0.410395 1.12168 0.230057
1841 3.09694 3.95101 1.46845 2.30361 1.66084 -2.22578
1856 3.62758 3.0726 1.46593 0.0738154 -1.93177 -1.45682
3175 4.11706 4.20721 1.72815 -0.115947 1.03904 -1.69598
1527 3.65512 3.47058 2.40199 -0.779486 0.573201 1.20031
2784 4.6826 3.31021 2.20251 -0.380953 1.00175 -0.185378
895 5.17775 4.13175 2.3999 0.169446 0.0996336 -0.972282
199 5.79856 3.35734 1.90213 0.108921 0.254135 1.62172
2331 6.6426 3.9799 2.50004 -0.0108745 -0.270031 -0.36895
2374 7.2468 4.27158 1.68073 0.895772 -1.06592 -0.351304
1958 7.39523 3.23553 2.19471 -0.438446 0.881134 0.988588
2449 8.36982 2.90695 2.64194 0.286086 -0.331846 0.877086
1408 8.28936 3.70758 2.0323 -0.452464 -1.37977 1.86803
34 9.64817 3.81005 1.97182 0.00608083 1.25467 -0.244848
2888 9.63896 2.98398 2.61111 0.237277 0.570294 -0.0579864
3374 8.99487 3.98104 2.77233 -0.0216612 0.596222 -0.11579
3837 10.7529 4.00593 2.03624 1.32583 1.44027 1.65083
3392 10.5694 2.89853 2.10172 -0.346959 -1.48317 -0.563515
231 11.1866 3.41453 2.72516 3.65913e-05 -0.959897 -0.926976
1050 11.9467 3.49853 1.88945 0.17339 0.68761 -1.72144
359 14.0174 3.34101 1.61452 0.486453 0.253708 -1.06925
851 13.1946 3.32177 2.41346 0.116358 0.135142 -0.0485392
2434 14.2091 3.56997 2.60585 0.575978 -1.20375 -0.0075576
2145 15.0656 3.10161 1.91567 0.494917 0.68195 -0.117251
2916 15.6196 3.9393 2.69891 -1.66166 0.806909 -1.57271
2176 16.5025 3.52193 1.85402 1.18278 -0.545494 0.453705
491 0.905608 4.80865 2.2114 -0.819763 -1.94486 0.0712605
2817 0.347672 5.39492 1.44635 -0.841181 0.980012 0.803861
2883 2.06937 4.50296 1.75274 -0.360081 -0.673318 -0.866288
1864 1.93587 5.32253 2.30189 0.168461 -0.0975859 -0.0985801
657 3.1644 5.07778 1.54429 -0.781343 -0.997904 -1.32698
1375 4.13429 4.50993 2.64201 1.13635 0.0111152 0.233627
3090 3.60787 5.33672 2.54579 0.204803 -0.424477 1.56234
1689 2.87567 4.65653 2.48102 0.659378 -1.15128 -0.782884
1639 4.24153 5.31342 1.74243 -0.230376 -0.211794 0.328765
1419 5.37187 5.48518 1.90486 0.961 -0.0435868 0.479889
3801 4.90245 5.15923 2.77685 0.30074 -1.22185 -0.569741
3919 6.23478 4.86284 2.14441 1.24349 -0.463483 0.146524
989 7.66659 5.18658 1.75619 -1.70584 0.383044 -0.555148
3007 7.83674 4.53429 2.65071 0.550104 -0.278853 1.33168
1891 8.97994 4.38684 1.53569 0.90783 0.379755 -0.815344
2007 8.7868 5.27091 1.73132 -0.419586 -1.24499 -0.457164
1438 8.93266 5.00983 2.83776 0.862049 -1.07715 0.148119
3057 10.2442 4.98855 1.88866 -0.0966441 1.14088 -0.588873
1090 11.3347 5.08762 2.32042 0.124527 -0.163381 -1.02837
1521 12.4881 4.2912 2.39997 -1.31703 1.46543 -0.429151
301 12.4127 5.07494 1.76624 -0.235502 -2.42338 0.534622
3121 13.4479 4.37915 2.21749 -0.211641 -1.65334 0.271683
745 12.8901 5.32939 2.68308 1.04359 1.21581 1.11946
626 14.149 4.93448 2.8165 -0.532641 -0.487906 -0.255818
188 15.2956 4.90385 2.70542 -1.01737 0.0101924 -0.0742788
1170 14.8787 5.50942 2.01216 -1.51364 -0.319557 -0.772744
3136 14.8255 4.38877 1.79438 1.9188 0.223806 -0.42119
2826 17.0242 4.35256 1.75043 -0.907947 -0.030525 -1.46898
1269 16.014 4.46863 1.68231 -0.0152101 -1.58108 -0.0301484
2756 16.0213 5.5417 1.81497 0.670016 0.465767 -0.856624
1612 16.5417 4.74896 2.54974 -0.147163 1.23113 0.930312
2032 0.963225 5.83274 2.40926 -0.253572 0.488455 0.127381
545 0.588709 6.79329 2.398 -0.234309 0.397337 0.00338016
594 2.11886 6.8806 1.68001 -0.521393 0.374006 2.53173
3697 2.74206 6.11721 2.47542 0.951351 1.13074 0.183084
1769 3.639 6.51978 2.2376 1.44187 -0.446693 1.12422
8 4.39126 6.42374 1.54832 1.69476 -0.416315 -0.568903
3821 4.62143 6.13336 2.74858 -1.91718 -0.867326 0.153292
190 6.84698 5.76836 2.24536 -0.922429 0.570938 -0.918116
1950 6.01911 6.36913 2.19174 -1.62567 0.185731 -0.716422
2067 7.02212 6.95342 2.02662 2.1156 2.20672 -0.864524
2335 7.61239 6.14745 1.66027 0.588502 -0.551822 0.179361
3267 7.97427 7.01293 1.55322 -0.637292 -1.94102 0.660552
2529 7.71306 6.79094 2.66766 -1.3761 -0.107033 -0.828043
3737 8.12011 5.85193 2.66129 1.23366 0.0725643 0.469446
3068 8.76507 6.80956 2.19593 0.0177904 -2.24847 -0.0852567
1509 9.39995 5.85223 2.3262 0.911843 0.293195 -0.151151
265 9.92439 6.88456 2.23352 -1.3366 -1.69903 -0.140118
2266 10.8716 6.23458 1.90278 0.10626 -1.4718 0.47923
805 12.681 6.10326 2.09461 2.58643 -1.81462 2.47208
2431 11.7193 5.70303 1.54395 0.602752 -0.093906 -0.351026
2902 11.8114 6.93959 1.87866 -0.585674 -1.0993 1.51707
793 11.711 6.14205 2.63907 -0.760973 0.00793033 0.112612
3433 13.8892 5.76499 2.36134 -0.884865 -2.21766 -1.12353
3622 13.1374 6.88132 2.7696 0.93394 1.11971 0.570577
2277 13.9264 6.35661 1.54159 -0.30346 -0.632435 0.458457
401 15.5407 6.36695 1.6499 0.644589 -1.82324 -1.63436
843 14.374 6.62429 2.72741 0.792937 1.37237 0.595421
2580 15.4523 6.14697 2.81887 0.429173 -0.791032 0.463874
3082 17.0734 5.74127 2.45504 -1.3961 0.638867 0.201224
1541 1.41561 8.40324 2.55101 1.189 -0.216557 -1.33633
1087 0.882054 7.72481 1.89071 2.73521 0.15517 -1.49826
3749 0.150426 7.92266 2.70721 -0.828933 0.51651 1.66782
11 2.36223 7.80089 2.42376 -2.68296 1.50138 -2.22755
1788 3.08945 7.32564 1.77338 0.234478 -0.291215 0.714666
479 3.89668 7.56083 2.32088 -0.35861 0.81293 0.645763
2056 5.26664 7.33059 2.03046 -0.415103 -0.828351 -0.195616
1715 5.03443 8.37306 1.6011 -1.12859 0.56189 0.984373
1343 5.9936 8.25213 2.06489 0.977608 1.61595 -0.631405
2302 6.14753 7.41067 2.57602 0.300666 -2.23596 0.0389709
640 6.97761 8.23245 1.95967 -0.750044 -1.74787 1.95919
2550 8.07114 7.73493 2.36114 0.228648 -0.440121 -1.03827
2512 9.06308 7.78488 2.70916 1.01978 -1.03327 0.263035
2891 9.39942 7.81246 1.7561 1.10034 0.307164 1.02323
2476 10.1198 8.10344 2.33604 -0.701536 -1.36647 1.68891
1831 10.7531 7.35687 1.84746 -0.570832 1.90655 0.259308
44 11.3078 8.20029 1.83129 0.290067 0.803623 -0.812505
3259 12.5742 7.61985 2.10418 -1.7042 -1.78175 -1.2483
754 13.7265 7.29929 1.90805 -1.35065 0.422157 0.589245
2691 13.4013 8.5025 1.73466 0.391405 -0.560798 -0.377177
2293 14.567 8.45326 1.74474 -0.10823 -1.05649 0.556905
2540 14.6882 7.79097 2.49263 -1.85016 -1.64206 0.324789
2724 16.6964 7.1578 2.23437 -0.783085 -1.06992 -0.478755
984 15.7725 7.45919 1.82975 -0.358709 0.988601 -0.126907
1400 16.9723 7.73517 1.47728 -1.0454 0.312025 0.149976
1056 16.3189 8.48293 1.79945 0.60485 -0.52165 -0.0156252
1043 1.03144 1.11201 2.94886 0.155444 -0.6594 -1.35808
3200 0.920402 1.23427 3.91417 -0.465011 1.66821 -1.97784
977 0.745479 0.0418147 3.46682 -1.25191 0.247911 -1.23374
2593 1.74669 0.378825 4.25776 -0.438278 0.366967 0.922466
75 2.5291 0.140664 3.62013 -0.322975 -0.405357 -1.81708
3688 2.83277 1.34131 3.55223 0.364036 -1.25548 0.208832
3679 3.44087 0.585337 3.02743 -0.170146 0.657718 -0.613785
3119 4.13794 1.29325 3.50449 0.173078 0.341346 1.49544
3407 4.5624 0.478707 2.89553 0.0290651 1.64235 0.453869
120 5.61826 0.597514 2.87761 0.679384 -0.294925 0.306645
2665 4.88912 0.350539 4.08754 0.0813014 -0.392867 -1.111
2834 5.83908 0.623291 4.07182 0.24523 1.22131 -2.03716
2751 6.64797 0.319325 3.31944 0.533932 -1.77398 -0.0185342
316 6.3786 1.41065 2.93509 -0.901897 -2.43362 -1.30178
239 7.45512 1.02243 3.54836 -1.91785 -0.766968 -1.37775
3627 8.31398 1.14358 2.87689 -1.31933 -0.0860374 1.98102
2228 9.19928 0.371553 2.96388 -0.170461 0.631344 -0.582421
240 9.91017 0.795573 3.56835 0.038243 0.0771308 -3.71229
1523 8.96513 1.00925 3.87461 1.27514 -0.16815 0.285374
3960 11.2111 0.710269 3.6144 -1.26084 1.06779 1.92484
1140 12.5551 0.957223 4.02114 -1.16892 -0.694169 0.351189
2077 12.8128 1.10483 2.91007 -0.158225 0.837508 0.364535
2869 13.3183 0.0484657 3.52383 -0.897179 0.874166 -1.24055
2519 13.81 1.05807 3.77464 0.367104 0.0797296 -0.340567
951 14.1373 0.0650013 2.87955 -1.83694 0.684511 -0.629998
3247 15.0053 0.724438 3.4009 -0.203315 -0.158471 1.04331
2206 16.8894 0.518567 3.94894 0.100473 0.0306363 0.632136
893 16.1557 0.809217 3.10538 0.33988 -1.22965 0.628384
3535 15.808 0.77898 4.10559 -0.773977 -0.0983973 -0.270273
1987 0.869507 2.23682 3.26313 1.97414 -0.14124 0.727721
864 2.0654 2.5858 3.63254 0.132872 -1.65972 0.219712
1662 1.85521 1.54926 3.66295 0.308352 -0.562071 -0.813761
504 3.23104 2.81842 3.74214 -0.344382 -0.530242 0.409992
785 3.56989 1.88306 4.04832 -0.402882 -1.25161 1.71533
2693 4.16336 2.55176 3.42326 -1.37352 1.21307 0.284797
525 5.3136 1.45313 3.50699 0.319515 -0.00630737 0.0636796
2652 5.25361 2.45772 3.68328 -0.635764 -0.458857 1.25675
2654 6.15933 2.66793 2.8783 0.102653 -0.609066 0.867226
3115 6.98397 1.99646 4.00867 -0.0710632 1.20546 -1.44537
2588 6.09634 2.71352 4.21471 1.42158 0.763259 0.669969
2692 8.06744 1.99793 3.62818 1.02745 2.423 0.842137
741 7.29462 2.6342 3.1379 0.132789 2.15382 -1.07966
2410 9.12167 2.12916 3.37028 0.716841 0.516004 -0.170246
3269 10.2384 1.71661 3.98185 0.106671 0.886554 0.255831
313 11.2933 2.33612 2.89763 -0.377254 0.857114 0.468126
2147 11.2838 1.67375 4.18847 1.5318 -1.43147 1.39093
1557 12.4895 2.84353 3.03623 0.567906 0.98476 1.72467
3630 11.9465 1.50898 3.40519 0.670138 0.481733 -0.30296
860 13.6341 2.80509 3.13603 1.71958 -0.88826 -0.191776
1535 12.8348 2.11062 3.73571 -0.472883 -0.584636 2.42225
881 13.7991 2.43163 4.15151 -0.838482 -0.372858 0.0453709
1883 15.2807 1.70584 2.86774 -0.699013 -0.2333 -1.31544
339 14.8396 2.35885 3.46464 1.78884 -0.615537 1.05034
1799 14.8061 1.55111 4.04056 0.117724 0.304539 -1.25776
3242 16.0526 1.77901 3.63636 -0.397893 -0.429976 -0.862461
3768 17.031 1.49678 3.69786 0.5171 1.26303 0.728209
2265 16.2372 2.82313 4.15221 -0.247309 0.500328 -1.85187
2417 17.0876 2.58188 3.77476 -1.21848 -0.228886 1.11941
2480 0.853223 3.21078 3.50466 1.09348 1.28765 -2.54278
1003 2.38414 3.80277 4.13733 0.224154 -0.587609 0.618876
1332 2.83603 3.57171 3.07649 -1.42841 -0.248696 -0.687561
2735 3.65003 4.08132 3.72061 0.268702 -1.14245 -1.94129
2195 4.47423 3.56904 3.2798 0.478828 0.58104 0.73638
237 5.56076 3.33724 3.24683 -0.103162 0.011285 -0.75172
1209 5.13675 3.72454 4.21251 -1.33826 -0.401161 -1.02412
1980 6.53651 3.68266 3.56868 1.01536 0.326141 -1.50743
618 8.11104 2.96401 3.78423 0.0363471 0.18372 -0.747096
273 7.5181 3.72099 3.23324 0.683823 -1.27713 -1.56019
2193 9.38792 4.08187 3.9448 -0.707517 0.799258 -0.58921
3018 10.2998 3.8371 3.06539 0.189095 0.145358 0.561625
136 10.0625 2.99153 3.55061 -0.481761 -0.815087 -0.795623
894 11.6595 3.05136 3.6012 -0.311881 1.58235 -0.744827
3829 12.5732 3.79634 3.52346 2.59039 -0.204427 -1.53923
57 13.5281 3.88675 3.42438 1.50988 0.333331 -0.622377
1344 14.6517 3.45626 3.78318 -1.32407 -0.18637 1.0113
1242 15.5941 3.20844 3.40413 0.0909878 0.513393 0.405678
3884 16.6829 3.64473 2.89704 -0.495545 0.694235 0.769037
3222 16.5413 3.87039 4.14789 -1.35401 1.23852 0.382676
1325 0.361453 4.51885 2.98689 1.12137 0.629697 0.336741
773 0.411822 5.48548 3.8434 1.37495 -0.86711 0.397088
1591 1.25255 5.31674 3.22669 -1.369 1.06003 0.641527
3300 1.96025 4.46626 2.86952 -0.129067 -0.843918 -0.813403
1410 1.67143 4.79699 4.08641 0.503502 1.06177 0.396154
390 2.2645 5.58727 3.37935 0.763511 0.519531 -0.380603
3373 2.81249 4.55514 3.59561 -1.77865 -0.120268 -2.5788
119 4.03697 5.45572 3.52581 0.912829 -0.390842 0.911097
891 5.04221 5.68948 3.62932 1.7232 0.808869 2.11373
346 4.72025 4.80541 4.02515 -1.29265 0.218346 1.07341
552 6.90944 4.97012 2.96035 0.316571 0.158929 0.75434
2940 5.83636 4.67895 3.02257 -0.521393 0.742524 -0.757294
2788 5.87071 4.37308 4.01433 -0.734381 0.185845 0.949937
2722 6.05153 5.66516 2.99454 -1.99226 -1.30559 0.306626
3944 7.10537 4.62389 3.85012 -0.86365 1.52989 -1.70404
900 6.10486 5.40475 3.97437 0.720164 0.298623 -0.776539
453 8.26857 4.65883 3.64046 0.53528 -0.294691 -0.687855
834 7.69382 5.4052 3.93664 0.377166 0.679571 0.293083
2750 9.44527 5.11828 4.07476 -1.10247 -1.45372 0.155451
888 11.1064 4.90415 3.64634 2.06051 -0.310799 0.0876181
473 10.0135 4.987 3.21027 -2.38999 0.701672 0.787602
3505 10.3296 4.64596 4.23162 -0.557821 0.17362 -0.292605
3474 10.3733 5.67453 3.94753 -0.615752 0.487911 -1.43753
689 11.6717 4.27637 3.07753 1.19761 -0.970524 -0.380091
765 12.1975 4.96873 3.57214 -0.200961 0.680316 0.467124
434 13.4074 4.88104 3.70408 0.656364 1.62785 -0.516266
89 12.9232 5.5969 4.20068 -0.0809618 0.634168 0.185995
3450 15.6581 4.62248 3.70736 0.361391 -0.279947 -1.07133
1661 14.7747 4.30439 3.30523 -0.645821 0.902707 -1.3919
1947 14.6655 5.51682 3.53695 -0.874846 1.38798 -0.0344901
2727 15.4825 5.55816 4.13087 2.60186 0.411994 1.12411
1200 16.2536 5.41521 3.21248 2.04591 -0.398417 -0.220036
1601 1.09651 6.35395 3.3287 2.18193 -0.229579 -0.438919
966 0.647045 7.06462 3.87251 0.539932 -0.668958 0.313273
2600 1.66422 7.03979 4.25165 -1.3382 -0.50972 -0.742877
3723 2.25501 6.77382 3.27525 0.71538 1.09942 -0.181622
531 2.67162 6.53605 4.24003 1.94615 -1.52514 -0.633324
3966 1.66734 5.92267 4.18443 -0.279119 -0.0276038 -0.980188
3710 3.35951 6.24506 3.33551 -1.40489 -0.422741 0.916609
549 4.4548 7.10261 3.21313 -1.55464 -0.463609 1.28758
3227 4.92231 6.97649 4.13045 -0.121092 0.142123 0.293704
213 5.44623 6.76132 3.15012 -1.33389 -0.0383954 -1.744
1265 6.74631 6.89017 3.05965 -0.512159 1.81909 0.540975
1828 6.99222 5.94006 3.29554 -1.5368 -0.168915 -0.275185
2079 6.06122 6.44416 4.04105 1.38121 0.610996 -0.234657
858 7.71311 6.49857 3.69554 0.421523 0.619822 0.298269
2223 8.76848 6.81349 3.20286 -1.7629 0.00686244 0.165013
2807 8.68323 5.80288 3.55372 -1.67843 -1.91454 -0.629644
1643 10.8557 5.71235 2.85235 0.73129 -2.02112 0.260358
321 11.3878 5.963 3.76463 -0.832442 0.123398 1.47279
2183 10.9125 6.89232 2.85912 -2.29241 1.05595 1.37237
3773 10.6074 6.67592 3.78543 -1.1167 0.766616 -0.302262
410 12.4043 6.0678 3.35791 0.439238 -0.570179 -0.911892
1217 11.9729 7.03202 3.10358 0.103444 0.869709 -0.366127
3484 13.2397 6.88081 3.98701 -0.591012 -0.425914 0.464361
3318 13.696 5.86395 3.39648 -0.861828 0.653904 0.212711
3369 15.1705 6.53398 3.69252 0.512782 0.379323 1.34059
2269 14.3219 6.56985 4.17081 1.8115 -0.140555 0.19762
1584 16.5952 5.99635 4.09025 0.845362 0.539069 -0.0238606
36 16.8872 6.82256 3.4033 -0.141931 0.0636385 0.416126
749 15.9005 6.95546 4.14072 -1.19951 0.746673 1.06401
3166 0.848914 8.02272 3.63051 1.6417 0.0627857 -0.430194
524 1.37871 7.38341 2.9512 0.617608 -0.0224145 -2.1053
589 2.22862 7.94805 3.59912 -0.21651 0.520324 -0.873897
1182 3.57151 8.43337 2.98228 -1.94479 -1.22043 -0.393782
1396 4.19582 7.78082 3.86625 -0.928663 0.439774 1.17304
1453 3.20643 7.28291 3.24104 0.427727 -0.581306 -2.15965
3651 5.20138 7.90919 4.059 1.07553 1.31776 -0.560016
3826 5.04502 7.98827 2.87425 0.0612794 -0.918753 -1.02536
1585 6.23083 7.50711 3.82548 -0.00162128 2.23613 0.29318
2966 6.8481 8.38948 3.8967 0.692454 1.83382 1.24945
602 6.26379 8.3268 3.00953 -0.471563 1.52572 1.49175
264 7.84763 8.43223 4.22521 -1.09073 0.145431 1.06827
3660 7.15127 7.84343 3.15357 0.393446 -1.55471 -2.01986
969 8.22312 7.60368 3.39875 1.12749 0.805336 0.484347
2213 8.90497 8.39491 3.93797 -0.673 0.191917 -0.31057
2670 10.3163 7.56686 3.5128 -0.366855 -0.143669 -1.37722
3206 11.3076 7.36276 3.86833 0.460925 -1.04835 -0.578654
1099 10.8868 8.28352 3.05328 0.157595 -0.948383 0.403413
2765 12.534 7.5728 3.91367 0.897866 -0.0624019 -1.56914
1249 11.9496 8.43832 3.13421 -1.63859 -0.76624 -0.550809
938 12.9553 8.33466 3.02014 -1.45561 0.784287 -1.16566
729 13.517 7.95674 4.0702 0.488822 -1.22635 -1.36813
2903 14.6673 8.37639 4.01164 -1.38237 0.268426 -0.0921081
792 15.5026 7.95338 3.58236 -1.24421 -0.650054 -0.749627
3427 14.336 7.39604 3.42263 2.319 -0.0819601 -2.26647
2789 15.9026 7.12592 3.05691 0.619311 -1.17984 1.47168
370 16.7102 7.73104 3.85959 -1.2578 2.93225 -0.445869
2991 16.1795 8.45172 2.89872 1.31399 -1.6815 -1.20138
735 0.159485 1.28182 4.97249 -0.886265 1.58869 -1.91284
1882 1.19796 0.860296 5.03405 -0.981037 0.461356 0.94458
1097 0.638487 0.150099 4.55163 -0.0705315 1.41679 0.913088
355 2.38524 0.693239 5.26246 -0.674481 -0.841054 0.520318
299 3.93998 0.0815048 5.16801 -0.176566 -1.58885 -1.48778
635 3.47537 0.860001 4.51437 -1.45539 1.18941 1.0499
3641 4.11765 1.27947 5.33261 0.80416 -1.25544 0.0520023
3843 5.3706 1.18697 4.96087 -0.293257 1.12767 -0.159464
3032 4.96151 0.242793 5.09306 0.26124 0.874313 0.170684
3445 5.92034 0.477846 5.58175 -1.12659 -0.227895 -1.61547
1992 6.9807 1.14684 5.05303 -0.205806 -0.971145 0.926228
3579 7.75521 0.877631 4.46855 1.08714 0.572801 -0.944854
3812 7.44071 0.195768 5.27048 0.127642 -0.674772 0.106107
731 9.82098 0.999801 4.6571 -1.21864 1.5629 -1.22414
1102 8.69091 0.257782 4.93415 -0.66951 -0.153293 -0.214016
3669 8.80475 1.21342 4.89164 -1.03028 0.0167121 -0.705168
892 10.4049 1.06097 5.68013 0.633471 -0.0881505 1.15806
222 10.845 0.809577 4.55017 -0.207586 0.975576 1.14593
1960 10.4234 0.0466057 5.18832 0.772521 -0.442409 0.104827
3462 11.4429 0.0822397 5.67161 0.498377 0.82837 1.71497
628 11.9765 1.2937 4.99408 -0.520862 2.90616 1.66686
1392 12.4987 0.0590774 5.33802 -0.289614 0.155559 -0.464868
1218 11.8691 0.383559 4.56533 -0.314034 -1.32779 -0.64676
2587 13.5285 0.378971 4.80004 0.776027 -1.01106 0.412213
2154 14.6241 0.170631 5.46526 -1.38107 0.323037 1.59261
477 14.4929 0.347141 4.28204 0.589381 -0.440649 -0.901628
931 15.4079 0.928996 5.12343 -0.779391 0.0412665 1.259
1219 14.3357 1.09047 4.97395 -1.25507 0.428231 -0.234747
2712 16.7162 0.154942 4.85426 1.14782 -0.370145 -1.39233
2867 1.29827 2.67331 4.29359 0.120709 -1.93421 0.394346
3638 0.980563 1.92972 5.1135 -0.558611 0.826967 1.31987