ITEM: TIMESTEP
41000
ITEM: NUMBER OF ATOMS
4000
ITEM: BOX BOUNDS pp pp pp
0.0000000000000000e+00 1.7099759466766969e+01
0.0000000000000000e+00 1.7099759466766969e+01
0.0000000000000000e+00 1.7099759466766969e+01
ITEM: ATOMS id x y z vx vy vz
2567 0.645015 0.509418 0.191558 -0.88192 0.623292 -0.730504
2230 1.16176 0.509314 1.17256 -0.605348 0.141418 1.13647
3368 2.22088 0.50383 1.16861 0.0908004 1.26895 -0.266259
2172 1.58927 0.0248086 0.262049 1.42201 -0.0216116 -0.689937
3100 4.24115 1.10798 1.39499 2.14036 0.795223 1.21508
3119 3.67556 1.37459 0.199429 0.488021 -0.307285 1.00562
3767 5.38924 0.789206 0.907394 -0.557506 -0.526902 -0.172352
1707 4.56588 0.802182 0.00232444 0.692872 -0.0827534 1.88184
214 6.45747 1.07184 0.916136 0.290722 0.234811 -2.2304
1003 6.8432 0.697239 0.0080755 0.545414 -1.66257 0.480974
405 5.74344 0.16271 0.146705 -1.35089 -0.638061 -0.542081
1712 8.24172 0.550523 0.934574 0.246293 -1.28379 -0.276114
2390 9.63795 0.473658 0.606339 -0.810768 1.02364 -0.104879
2991 11.9478 1.30998 1.24642 -0.341997 -0.879062 0.431863
472 11.5151 1.06223 0.251091 1.87873 -1.05438 0.242642
2590 11.5982 0.204663 0.896337 -0.50536 -1.43642 1.05699
2142 12.6198 0.778102 0.530509 -1.31894 -1.66852 1.65651
952 13.735 1.2011 0.624832 -1.98759 0.191875 0.164909
273 13.9767 0.250696 1.11022 -0.348615 -0.0954887 -0.736734
2192 13.5593 0.192888 0.250483 -0.225855 0.155443 -0.843082
3773 14.8944 0.716847 0.28077 -0.565605 -0.256123 -0.214348
2002 15.231 0.0299711 0.987719 0.696457 1.55481 0.755743
3853 15.8507 1.00671 0.781215 1.00642 -0.53919 1.66661
2724 16.9579 1.3027 0.991822 -0.633207 0.861894 -0.0170978
1644 16.4198 0.404804 1.35497 0.0127215 -0.602152 -0.79587
844 16.7343 0.207809 0.351871 -0.801295 -0.864205 -1.62764
3923 0.521235 1.85311 0.249299 -0.19527 -0.586459 0.243797
2115 0.758337 2.53982 1.23368 0.288375 0.668947 -1.53644
5 1.29439 2.66711 0.265549 -0.156045 0.690351 -0.438124
2411 2.33529 1.60832 1.28998 0.0513291 0.448311 -0.893846
2088 2.42961 2.4597 0.592376 -0.218439 1.60076 0.425779
2136 2.53519 1.46945 0.28138 -0.561503 -0.514739 1.33983
1610 1.45214 1.68501 0.651131 -0.666266 -0.574073 0.0045815
735 3.71251 2.70693 1.00788 0.713798 0.700122 -1.35233
465 3.28754 1.83135 0.972947 0.641149 0.683913 0.699156
3057 4.47852 1.94184 0.717625 0.331734 -1.80024 0.74549
1852 4.99691 2.6251 0.0847317 1.3542 2.11869 -0.558423
335 5.61807 1.75857 0.627643 -2.04629 0.154371 -1.17394
1692 4.87944 2.73045 1.23412 3.49664 0.465357 -1.69683
127 6.46293 2.53127 1.41882 0.128391 -0.181844 0.979588
252 6.50734 2.20549 0.0195425 -0.494184 0.291018 0.476548
2990 7.49569 1.42537 0.403411 1.30156 1.17967 -1.10635
299 7.21687 1.65791 1.32109 -1.20873 0.277938 -0.553341
1404 7.9594 2.6065 1.01624 -1.09728 -0.429765 0.243737
836 9.23121 2.7291 0.0711661 0.344221 -0.778975 -1.81336
1984 8.8383 1.63502 0.48143 -1.40254 -0.128909 0.494797
234 9.78629 1.89815 1.17569 0.330762 -0.0476118 -0.0823948
3570 9.10057 2.58819 1.11848 2.7693 -0.529203 -0.386656
1861 10.6045 1.44135 0.79187 0.0264616 0.020423 0.938926
3316 10.4323 2.51104 0.532756 0.00626264 -0.691393 -1.44646
683 11.5451 2.15978 0.398651 -0.252923 1.19561 1.67453
2315 12.3964 2.38802 1.0933 0.142733 -0.998685 -0.465226
3447 14.0753 2.07883 1.24307 1.28672 -0.920335 0.689572
55 13.2978 2.29134 0.547413 0.812952 -1.33045 0.803044
363 14.9596 1.63964 0.897816 -0.687809 0.00621566 -0.727742
2451 15.137 2.66831 0.49952 0.181637 0.663975 -0.165657
2560 16.247 1.8126 0.184148 0.216977 0.608266 0.710636
1026 15.9655 2.19684 1.33346 0.290009 -0.737465 0.738106
1039 16.9815 2.72096 0.721932 0.486306 -0.75913 3.29984
2689 1.17307 3.72075 0.132452 1.25083 -0.380008 -0.386279
72 2.26015 4.15787 0.507757 -0.430502 -0.379352 -1.02557
2165 1.63311 3.32719 0.964587 -2.12336 -0.56537 -0.181
602 3.82545 3.67095 0.883218 0.450802 1.06947 0.0396228
2247 2.88671 3.2225 0.896241 -2.00334 0.938921 0.329229
3495 2.9757 4.12139 1.39015 0.225396 0.733596 -0.818567
522 4.94989 3.83706 0.595193 -0.590287 -0.358799 1.21119
3009 6.30153 4.13745 0.483018 0.986039 -0.267351 1.39285
2561 5.7297 4.15192 1.30739 -0.105775 -0.855909 -1.23873
3779 5.78337 2.95104 0.604014 -0.0666599 -0.281958 -0.784867
580 7.01827 3.16699 0.752454 -1.08617 -0.510708 0.824615
99 8.48534 3.41231 0.468389 -1.08454 -1.7067 -1.08887
1959 7.78702 3.81232 1.2544 -0.703535 -1.38693 -0.295686
271 9.65381 3.37137 0.739024 0.258364 0.0777915 -0.136856
1201 11.1723 3.15272 1.0033 0.00599942 -1.65187 -0.942845
1195 10.6152 3.81694 0.428452 1.57008 -0.104989 -0.193056
2656 12.7814 4.10048 0.954083 0.0820605 -0.814299 -0.124078
2402 11.8211 3.73802 0.504032 -0.98994 1.06513 -0.0317583
425 14.0941 4.15234 1.00356 1.59298 0.318168 -1.57068
80 14.1127 3.01749 0.624676 -1.00685 -1.40365 -1.36167
207 13.0558 3.45658 0.218129 -0.58176 0.298049 0.734982
3825 13.0936 3.13914 1.23676 0.345274 -0.205676 1.35878
3878 14.8087 3.66874 0.0413191 1.7456 -1.20257 0.624598
319 17.0851 3.98478 1.0529 -0.554904 -0.983586 1.16411
3891 15.9712 3.30606 0.619026 1.31558 0.472249 -0.53142
2169 15.8711 4.15755 0.0952291 -0.382256 2.03459 1.22651
2132 15.9605 4.16372 1.19821 0.241214 1.81318 -0.26847
904 1.08004 4.56287 1.08209 1.78667 1.15865 0.39515
2009 0.672268 5.48304 0.778508 -1.22572 -0.343228 -0.527031
2756 0.648597 4.57967 0.0468274 1.66412 2.3901 -0.405081
1890 1.65666 4.99936 0.188364 1.68232 -0.188732 -0.398395
89 5.51825 5.4508 0.699799 0.131109 0.981713 -0.538804
1170 4.43379 4.83068 1.01069 -0.898566 0.76965 0.629922
545 6.5712 5.46517 0.987735 -0.719304 0.803891 -0.80889
1656 7.23231 4.74865 1.32669 -0.399097 -0.447406 1.04458
2414 8.1267 4.57109 0.581711 0.466075 -0.0382232 0.272215
1900 7.56975 5.36393 0.125105 -1.06947 0.310014 -0.141554
2498 9.8976 4.6111 0.71151 0.679096 0.00534883 0.552013
3706 9.06509 4.7342 1.32818 0.380464 0.884707 -0.807822
3580 9.08423 5.52726 0.799956 -0.411903 -0.249147 -1.65168
490 9.0461 4.36456 0.234616 2.05484 1.51198 -0.56893
3836 11.3251 4.77251 0.411303 0.187525 1.47647 -2.55506
2903 11.0757 5.56765 0.996943 1.61769 1.49707 -0.205233
2678 12.3691 5.0851 0.610031 0.435539 0.833269 -1.60155
401 13.3523 4.67084 0.153961 -1.05639 -1.27366 -0.0560916
3922 14.1031 5.16698 1.04582 -0.0935421 -1.22859 0.181918
120 13.0847 5.04977 1.26085 -0.502402 0.163635 -1.17379
2013 15.2179 5.6196 0.957108 1.18603 -1.35161 0.736052
2071 15.0354 4.43385 1.18703 -1.48118 -0.0319878 0.550554
1917 15.2455 4.95451 0.146092 -1.22448 1.08603 1.52193
1400 16.7628 4.92888 1.38195 -1.23675 0.863259 -0.938567
3718 16.8416 5.02448 0.222237 -0.446569 -0.557487 1.2983
2702 16.0904 5.66141 0.298947 -0.917711 -1.21062 0.993522
3292 0.615143 6.64207 0.839128 0.444829 -0.232324 -1.49423
246 2.79318 5.7691 0.189737 -0.0152171 -1.11343 1.39298
2198 2.18275 6.71803 0.287148 0.824366 1.6967 0.436537
3823 1.98887 5.86862 0.95662 -1.25979 0.340954 0.0235617
2777 3.68749 6.4547 0.152727 0.650852 -1.12104 -1.01861
3675 3.71446 6.58783 1.23054 -0.698897 -0.0186019 0.439235
865 3.07087 5.83539 1.25853 -0.429581 0.378543 0.662803
1904 5.04241 6.67745 0.379049 -0.0904598 0.825441 -3.32962
1489 4.51509 6.02402 1.07571 -1.44186 -0.415618 -0.232702
1818 6.51248 7.11977 1.27225 0.21603 0.187602 -0.740915
1311 6.02623 6.19338 0.232884 0.0149107 0.565648 0.0762123
2529 5.72353 6.4522 1.24244 -1.43662 -0.652591 0.280122
2261 7.1121 6.88346 0.485559 -1.1049 0.462495 0.454074
665 7.77575 5.89462 1.0252 -0.100652 -1.06544 1.8201
1834 8.42865 6.23179 0.253855 0.0293047 0.15213 -1.11983
2316 8.92366 6.75641 0.973581 -0.389443 -1.14887 0.573934
3837 9.90457 7.03658 1.04657 1.14847 0.995916 0.66152
3924 9.61787 7.07329 0.00354186 -0.385519 0.516213 0.911746
1744 10.6593 6.75641 0.210703 1.08524 -0.0837799 -1.20646
2827 10.1506 5.80238 0.647935 -0.973263 1.37193 0.778159
2839 11.6031 6.22245 0.277999 0.0394045 -0.950733 -0.21604
3712 12.5654 6.00545 1.07486 -0.878094 1.66744 1.26933
1514 12.176 7.02856 0.744768 0.670285 -1.30693 0.477552
3427 11.5639 6.4635 1.36438 -0.822422 0.098644 -0.205975
3950 13.3562 6.97908 1.35036 -1.58824 -0.625468 0.149584
1749 13.3121 6.94862 0.150005 -0.563309 -0.724668 -0.00953244
1832 13.3899 6.00638 0.487133 0.0141046 0.672792 0.275502
3879 14.3549 6.66179 0.847541 -0.46813 1.34152 -1.08481
2107 16.78 6.01474 1.04341 -0.939183 0.492563 0.560433
2766 16.8098 6.88771 0.324339 -0.12439 -1.42773 1.67418
2789 15.7178 6.55894 0.814896 1.15371 -1.06761 -0.149399
1868 0.0462198 7.81252 0.72974 -0.124451 0.287845 -2.03595
2175 1.67412 7.62843 0.637775 -0.677068 0.142156 -0.497228
3648 2.33652 8.10785 0.0129907 0.103903 1.1363 -1.17855
2173 4.02926 7.32369 0.680781 -0.628021 0.378047 -0.289289
1036 3.22594 7.79779 1.28692 0.262349 0.931681 -0.424006
3869 3.02952 7.30788 0.274855 -0.515889 -0.573596 -0.847536
1198 5.40697 8.18088 0.166012 1.16707 0.711409 1.20431
3628 5.58862 7.86115 1.40627 1.21574 1.60361 -1.49942
148 4.48407 8.18503 1.27903 0.187798 1.9328 -0.509554
2726 4.35145 8.16784 0.15049 -0.576724 0.199215 0.27602
3885 5.86091 7.2446 0.552267 1.53325 -2.30378 0.23247
573 6.58318 7.97472 0.658417 1.70926 -1.17785 0.144605
3984 8.24382 7.65727 0.791458 -1.64948 -1.90688 0.921516
1591 7.40706 8.21024 1.32753 0.677758 0.195446 0.522172
3636 8.54758 8.4541 0.0723508 -1.06149 1.0342 1.21324
1303 9.24257 7.74351 0.586538 1.41084 0.866911 0.562347
1942 10.386 7.77913 0.0261528 1.16458 -1.26981 -0.267471
392 11 7.25347 1.08738 0.0797397 0.603654 0.362534
1826 10.7218 8.15169 1.22826 -0.507294 0.0245916 -0.642688
2933 11.7365 8.13017 1.13166 -2.08736 0.162802 -0.246807
2586 14.1241 7.87859 0.521228 -1.13905 0.987221 -0.326414
2078 12.9379 7.81972 0.685839 1.12484 -0.675485 -0.917992
238 15.595 8.46549 1.17074 2.22956 0.881147 0.52339
2049 15.0222 7.44284 0.645608 1.62211 0.864652 0.536949
1606 16.3577 8.41676 0.27671 -1.01841 0.14838 -1.20548
2204 15.9364 7.3058 0.172388 -0.319919 1.29917 -1.56426
1436 0.440066 0.160423 1.98123 -0.3717 1.07435 0.387221
3113 0.633601 1.30637 1.70746 0.205595 1.39042 1.04573
2758 0.097791 1.08691 2.59192 0.581105 -0.925674 -2.63629
835 1.67407 0.101751 2.14999 0.167868 -1.44253 -0.0877687
3271 2.56259 0.510945 2.34688 -0.144952 -0.205464 0.0194224
3145 1.72746 1.15281 2.28203 0.882299 1.95391 -1.1628
2293 4.25222 1.35735 2.7543 -1.34109 -0.629288 1.97164
2126 3.11495 1.30462 1.84508 0.777404 0.913224 1.05114
152 3.52115 0.0435423 2.02971 -0.170515 -0.444846 0.875423
640 4.91734 0.424628 2.52586 -0.517057 -0.994426 -1.48055
113 6.25672 0.556233 1.95314 -1.13943 0.187159 0.690634
3790 6.91161 1.33007 2.31346 1.00379 1.75627 0.882173
2153 5.74543 1.38411 2.80173 0.232458 -0.680695 0.0452892
210 7.37261 0.722446 1.66309 -0.0983869 -0.0722756 1.06827
498 8.06959 1.23313 2.27497 -0.746309 -0.179373 -1.44309
2774 8.72171 0.290482 2.02433 -1.84017 -0.976229 -0.529869
630 9.89214 0.908273 1.53017 1.09461 -0.510424 -1.54473
2603 9.56844 1.35914 2.62423 -2.12186 0.0671927 1.33813
2092 9.74319 0.211633 2.43326 0.505593 -1.65092 0.596247
357 11.3079 0.726489 1.6727 0.676972 0.00201138 -0.0314203
83 12.4441 0.14893 1.48122 -0.160234 0.592721 -0.468052
3159 12.8066 1.41861 2.38569 -0.104496 0.177614 1.77599
1595 12.1043 0.693834 2.26318 0.943063 -0.484792 1.13082
3194 13.3886 0.678137 1.88438 0.068589 0.346018 0.517822
345 14.269 1.20705 1.77785 -0.733302 0.101803 -0.624024
778 14.7652 0.41661 2.21354 0.678597 -0.61258 -0.45261
578 16.1812 0.789984 2.74535 -1.4234 0.528204 0.598734
1437 16.2312 1.2598 1.80071 -1.31991 1.39693 -0.535418
3020 0.62239 2.13212 2.42756 -0.239812 -0.235682 0.976858
1920 1.64217 2.43744 1.6465 0.315389 0.693409 1.3638
1731 3.98855 2.32778 1.9161 1.21908 1.36765 0.0978762
717 2.88659 2.36873 1.90653 -1.29096 -0.708971 0.803284
913 3.42387 2.11043 2.77468 -0.13584 -0.0187078 -0.537958
562 4.92646 1.64295 1.97363 0.466748 -0.00961978 0.133958
1496 6.01052 1.60435 1.65101 1.13984 0.918029 0.822194
1265 6.81794 2.60019 2.40473 -0.299373 1.12613 0.16083
3179 5.77692 2.38566 2.29715 -0.719367 -0.129348 -0.204307
2614 7.96713 2.72153 2.22016 0.532503 1.68663 1.53841
265 8.86179 1.58038 1.55071 -2.30519 0.0666394 -0.00532425
3144 9.09497 2.33205 2.19046 0.966747 0.902819 1.77885
1870 10.1382 2.30888 2.44717 -0.5886 -1.17118 -0.233754
1480 10.8271 2.22262 1.5587 0.0105177 0.743495 -0.646397
496 10.8198 1.43838 2.31013 1.63951 -1.44416 -0.66494
41 12.7677 2.44712 2.10152 -0.571399 -0.807401 -0.745474
2044 11.7406 1.85754 2.14982 1.67407 1.09427 -0.595968
2443 13.1637 1.54798 1.44509 -0.687801 -0.0841306 0.584308
262 13.7064 1.85804 2.42616 2.279 -0.0029355 -1.87049
2911 15.1682 1.79483 2.31761 0.0576715 -0.244797 0.0122352
675 14.6993 2.52147 1.88711 0.399058 -0.586785 0.449302
442 17.0767 2.0375 1.63475 -1.04262 0.887444 -0.546447
3714 16.3862 2.28263 2.37701 -0.427261 -1.13246 0.576768
1611 0.879036 3.46044 1.7343 1.64209 0.267009 1.31406
3317 0.431615 3.93138 2.72549 0.171414 0.0753879 -1.09124
1813 1.50975 2.93412 2.52468 -0.792942 -1.22032 -2.01836
415 2.21569 3.42451 1.9804 0.396088 0.237544 0.398761
3841 3.48144 3.28519 1.84646 0.608856 -0.274244 -1.78122
3222 2.85803 4.07056 2.56735 -0.767812 0.0363319 0.476613
897 4.49651 3.13179 2.35064 0.566725 0.0117054 -1.07387
358 4.77968 3.7882 1.70967 -1.41231 0.893059 0.291793
2369 6.6185 3.81803 1.67959 2.15458 -1.80949 -1.90928
2525 5.78713 3.47058 2.249 0.345953 -0.156353 0.547001
668 7.43072 3.65333 2.29695 0.738991 -0.0136237 0.784023
481 8.45906 3.58016 2.76355 -1.48159 0.187888 0.857069
482 9.00547 3.60252 1.60555 1.1567 -1.25077 -0.883993
2667 9.45682 3.30234 2.55906 -0.169843 0.135166 0.0765589
424 9.96877 2.9469 1.57817 -0.296461 -1.37697 1.03416
1909 10.9152 3.0301 2.09304 0.123301 2.1077 0.659455
589 10.1857 3.89405 2.06163 -1.34422 -0.805463 -0.388048
1120 12.6598 3.44117 2.18502 -0.819043 0.539927 -0.0800944
1683 11.7795 4.01002 2.01506 0.463675 0.871722 1.70784
1363 13.515 4.0324 1.72773 1.41559 0.107349 0.154769
1791 13.6992 3.07755 2.21982 0.528107 -1.12618 0.336511
2543 14.7757 3.64396 1.88619 -0.306966 -1.09827 -0.282373
531 16.9735 3.03246 2.10077 -0.804164 -0.776429 0.356514
2229 16.6067 4.08181 2.1091 -0.791488 0.845245 -0.457652
339 15.8493 3.22573 1.71442 1.59754 -0.0349541 0.522068
457 16.2238 3.33546 2.78253 -0.37024 1.30234 1.8167
535 15.6853 4.19232 2.73037 -0.209656 -1.65966 -2.04057
1685 0.511002 4.73045 1.96767 0.503191 2.48647 -1.30069
3868 1.99617 4.4847 1.71059 -1.65217 0.293166 1.26669
842 1.5059 4.65231 2.68503 0.906106 0.441158 1.2441
254 2.29094 5.49764 1.88458 0.752448 -0.244418 -0.402092
779 3.74553 4.43501 2.01053 1.17219 -0.476913 1.58152
2187 4.09365 5.51955 2.11518 -0.914636 -0.923784 0.568797
1527 5.03402 5.05291 1.82022 1.24814 0.439111 0.159446
422 5.05724 4.29884 2.52891 -1.40807 0.30926 -0.230817
1365 6.03167 4.94392 2.21106 -0.149786 -0.504643 0.607287
3047 6.79191 4.37628 2.70992 -0.430912 -0.908177 2.3375
2570 8.46183 5.20793 2.65627 0.661564 -1.19252 0.529958
1442 8.10886 5.13032 1.72222 -1.63985 0.781399 0.490362
1992 7.2112 5.26636 2.34682 -0.0468292 1.46147 1.07882
2596 9.16751 4.36033 2.37873 -0.51317 -0.24275 -0.698007
1756 9.37208 5.55636 2.49492 -0.202333 0.431023 -0.363015
1321 10.8572 4.34694 1.44691 -1.13806 -0.537748 -1.48481
3736 10.2033 5.17003 1.62739 1.72337 0.713152 0.101567
1963 12.8171 4.59934 2.23075 -2.49628 2.11193 -1.13359
445 11.864 4.94735 1.56836 0.53229 0.616395 -1.25067
3529 13.8922 4.99642 2.24383 1.63603 0.432877 -1.01818
355 14.958 4.78214 2.21379 -0.752116 -0.37608 -0.0264533
1981 15.8857 5.02809 1.85049 -0.330931 0.621326 -0.653897
2386 16.7939 5.47092 2.27992 -1.84895 -2.16734 -0.29226
2470 0.337034 6.35418 1.90843 2.42271 0.728473 0.219644
3760 1.36189 5.76671 2.584 0.659091 -0.0912692 -0.195502
158 2.14806 6.58138 2.50277 0.160375 0.677001 -0.0952477
52 1.44926 6.90434 1.44917 -0.598111 -0.70068 1.21526
132 2.70396 6.74812 1.62708 0.794444 1.14987 -0.629081
3107 3.35686 6.19766 2.22589 -0.34318 0.38732 -0.409297
495 5.17241 6.10677 2.07963 -0.264678 -1.78274 0.405099
2284 4.68522 6.9092 1.52534 1.44513 1.1552 -1.1375
500 4.37313 6.64121 2.67662 0.512812 -0.871353 -0.000991846
1286 6.41119 5.93108 1.90104 -0.518164 -0.394926 -1.87791
3452 6.91492 6.8125 2.36323 0.89109 0.516414 0.388574
1495 7.72756 6.86972 1.58664 -1.43685 -1.78231 0.0704585
657 7.73248 6.15335 2.29722 -0.201797 0.0340872 -1.78409
2351 9.4871 6.58033 2.11908 0.390092 2.65155 0.358732
565 8.64808 5.95518 1.74805 -0.15443 1.33275 -0.579299
1605 10.5212 6.48324 1.76608 0.753772 -1.99277 -1.10952
656 11.1488 5.81855 2.10135 -1.6705 0.15698 -0.411404
575 12.2004 5.73207 2.14971 0.383102 -1.06819 1.87194
751 11.9796 6.81439 2.44477 0.926341 0.230516 0.458272
967 14.2392 6.23696 2.65209 1.85478 1.61638 -0.260631
2289 13.7749 5.81392 1.77422 1.45826 0.460472 -0.775136
364 13.2506 6.62615 2.50915 0.828905 -1.28465 2.17115
3856 14.7131 6.16652 1.74981 -0.525783 -1.16594 0.14481
2843 15.5015 6.41928 2.55838 -0.364259 0.640847 -0.617766
2727 16.1943 6.4318 1.75098 -0.0311832 -2.04767 1.38835
1331 16.6481 6.67919 2.64418 0.710728 -0.520554 -0.677186
2801 1.3073 7.68447 2.16831 0.425499 -0.990022 3.07035
1671 0.210945 8.46161 2.33679 0.897229 0.0374562 -1.93355
1845 0.304928 7.41823 2.18337 0.431994 -0.575666 0.0731215
2210 0.866939 8.38944 1.44834 -0.490379 0.41722 0.986339
3887 1.7474 8.544 2.70842 -0.920667 0.561826 0.269179
3616 2.22211 7.64979 1.6806 -0.266904 -0.221089 1.96005
3581 2.26223 7.56116 2.78908 2.76564 -0.511731 -0.118521
1887 2.88945 8.36201 2.24098 -0.126054 0.501034 0.0589417
2323 3.26034 7.22511 2.3666 0.679869 -0.255137 -0.17447
331 4.05393 7.85312 2.25906 -1.96653 2.00164 0.253454
1625 5.06135 7.68659 2.32505 -0.120044 0.544026 -0.374138
970 5.90554 7.13124 2.10412 1.43884 -0.320039 -0.896864
1732 8.35211 7.17183 2.33108 -1.64954 1.64666 0.644052
3788 8.4736 8.22681 2.24643 -1.15329 -0.0381459 -1.39807
1333 7.53058 7.7206 2.21185 1.02922 -0.462241 -0.146373
677 9.09313 7.71767 1.67553 0.104942 0.220548 0.320541
2855 10.0474 8.395 2.05922 -0.640306 1.18044 0.438424
2248 11.249 7.4701 1.99662 0.51082 0.127266 -0.191516
291 10.7537 8.04977 2.79508 0.111673 0.660069 -0.0707663
385 10.1596 7.35923 2.37986 0.253974 -1.09188 -0.516881
666 12.5641 7.66441 1.69883 0.434183 1.28313 1.09892
2415 11.9667 8.04181 2.46368 0.94431 1.3301 -0.320945
325 13.8787 7.61346 2.50997 1.02088 0.135399 -0.322673
1172 13.5837 8.14204 1.51222 -0.512784 0.167958 1.77298
2795 13.1323 8.30684 2.41995 -0.407213 0.116415 0.222241
2675 14.4956 7.22384 1.67809 1.82762 0.320168 -0.951217
794 14.8658 8.23246 2.22252 0.659979 -0.219113 -0.774231
3226 15.5594 7.41693 1.51651 -0.576183 -0.864182 -0.131666
1995 16.338 8.31399 2.07692 1.42085 -0.953849 0.901384
2129 16.6538 7.24996 1.52292 0.388449 -0.399196 0.220569
1597 16.0569 7.52197 2.56358 -2.06526 1.05348 -0.28073
1435 0.785769 0.168603 2.98004 -0.00503401 0.0041412 -0.682072
2697 2.78066 0.755313 3.36343 -0.306814 -0.627214 -0.0565215
597 1.43682 0.632501 3.74971 1.04806 -0.982523 -1.08742
2588 3.95257 0.429143 2.87799 -1.41788 0.00387209 0.114067
212 3.84193 0.773524 4.01187 0.212539 1.02799 -0.137239
1841 5.69633 1.41888 3.83988 0.660295 -0.845095 -0.850603
71 4.80668 0.930524 3.40204 -0.0379662 -0.0640196 0.897614
3539 5.2496 0.319683 4.25881 0.414004 -0.369462 -0.91563
3910 6.87702 0.00121603 3.92252 1.33669 -0.164603 0.62245
2541 5.82931 0.367188 3.13202 -0.888997 0.854436 0.99069
549 6.71483 1.27834 3.34348 -0.048414 -0.849574 0.960151
1119 8.17013 0.27391 3.88603 -0.573497 1.51332 -0.731483
1470 7.46108 0.92523 4.15019 -0.0405616 -0.0907786 0.74837
1805 7.52415 0.535819 3.0395 -0.165485 -2.50427 -0.607884
1912 9.18572 0.714235 4.25405 0.120453 -0.710675 -1.5937
2348 8.97745 0.306924 3.12552 -1.13582 -0.0320988 -0.708766
2888 10.036 0.482268 3.6703 0.461488 -1.98373 0.0992494
3786 11.155 1.28133 3.94073 0.718929 -0.592913 0.906454
3090 11.0682 0.287796 4.10139 1.47194 -1.38905 2.24943
2278 10.3759 1.29936 3.24537 0.324554 -0.354225 -0.0933556
4000 11.3257 0.293951 3.06106 -1.17755 0.531339 -0.394666
40 12.5491 0.149544 4.00462 -0.387077 0.650639 -1.4391
77 11.8525 1.18466 3.19607 0.176944 -2.04241 -2.16602
664 13.9258 0.876011 2.93349 0.597702 0.656336 1.13117
847 14.1263 1.26313 3.87846 0.673492 -1.69024 0.425235
2938 12.8796 0.573011 3.0818 0.517236 -1.49117 1.09257
2122 15.227 1.09872 4.04999 0.0924574 -1.26864 -0.334127
3277 15.2066 0.40148 3.19521 1.07548 1.03424 0.109318
2598 16.0346 0.443017 4.14177 0.424027 -0.786283 0.10602
762 16.7129 0.941513 3.70273 0.454305 -0.806612 -0.907684
1375 1.105 1.45356 3.1466 1.15136 -1.27795 -1.4309
3711 0.487691 2.84303 3.04026 -0.104192 -0.587618 0.0603991
1825 0.0052937 1.92544 3.17947 -1.16683 -1.04035 1.24428
480 0.56759 1.47823 4.05059 0.178461 -1.44183 0.621179
3018 0.55362 2.57059 4.13507 2.67736 1.34004 -1.37486
688 1.88639 1.59351 3.91234 -0.827105 2.04483 -0.282999
2779 2.34099 1.95607 3.09053 1.25559 -0.550506 1.53864
3624 1.57105 2.49794 3.55923 0.603371 -0.456728 1.78811
282 3.19836 1.73421 3.69923 0.39617 0.520632 0.426509
1278 4.25084 1.92522 3.78138 0.671932 -0.455389 1.63575
2125 5.00798 2.26173 2.92259 0.609268 -0.30848 -1.19503
1760 5.17065 2.37154 3.92609 0.906357 1.30381 -1.16517
2081 6.22106 2.2648 3.23315 0.760577 0.164436 -0.311849
930 7.55492 1.87995 2.95647 -1.85484 -0.0404868 -0.958599
682 8.40612 1.68435 4.2726 -0.284522 -0.333988 0.648244
2074 7.7087 2.81161 3.38304 1.51843 -0.426252 0.753185
1622 7.22374 2.20901 4.08954 -0.208026 0.149582 -1.00148
2994 9.97005 2.78726 3.57889 0.501396 -0.736005 -0.27572
2784 8.58795 1.50633 3.25786 -0.253244 -0.890072 0.644746
478 9.43324 1.95935 3.54679 -0.551464 -0.464821 -0.972651
1847 8.79417 2.76747 3.78529 -0.554353 -0.0685647 0.773094
1844 10.963 2.22104 3.03384 0.0429583 0.244079 0.142585
389 10.3293 1.9503 4.10147 0.156306 0.88373 0.506096
1462 12.3185 2.23114 3.14766 1.54601 0.985403 -0.940295
3630 11.4586 2.30514 3.91723 1.83713 0.157958 -0.160606
454 12.3959 1.43026 4.15643 0.00950438 -0.306137 0.36583
475 13.1076 2.80417 3.12983 2.0754 -0.639417 1.5132
2388 13.2121 1.47829 3.44791 -0.0876467 -0.969898 -0.924685
2235 13.7152 2.32762 3.81276 0.260131 0.145053 -0.60199
523 15.3451 2.73248 3.10957 -0.455227 1.21137 1.29722
3017 14.674 1.98347 3.59297 0.541094 -0.940983 -2.51437
1050 15.8626 1.72478 3.20442 0.738216 -0.374736 -1.16715
1075 16.6992 1.94804 4.15006 0.548098 -0.269947 -0.753476
477 0.438174 4.26807 3.85655 1.67254 -0.0572853 -0.95998
1332 1.18844 3.58412 3.38359 -0.00500086 -1.12285 -0.602842
2722 2.48703 3.05915 2.93052 0.284185 0.27218 -0.746325
1643 2.25882 3.45549 3.94111 -0.844457 0.807205 0.83853
2333 3.91295 3.83096 2.87676 -0.0440143 -1.37032 -1.03986
3976 3.4385 2.88212 3.49743 1.95945 0.147324 0.857595
1077 3.18171 4.18515 3.65525 0.479007 -1.01088 0.923357
3533 4.46996 2.97635 3.47548 0.16033 0.684631 -0.85687
190 4.31355 4.03538 3.84619 1.77113 1.14241 1.18229
2162 5.50621 3.09093 3.19706 -1.46494 0.345434 -1.85996
3936 5.41035 3.62309 4.07199 -1.00729 -1.31159 0.259419
3248 5.89653 4.06664 3.26933 1.9722 -1.23578 0.610785
603 6.69883 3.23954 3.43327 -0.63052 1.36803 -0.95189
1264 7.69858 4.00925 3.43147 -0.351581 -1.47881 0.0151771
3835 8.62473 3.79835 3.9115 0.0198499 -1.06858 -0.601974
2640 9.58649 4.15378 3.4183 -0.966874 -0.884851 -0.240045
14 10.4795 3.44965 2.97101 -1.32779 -0.361764 0.904891
888 11.6251 3.27895 2.92745 -1.26537 0.900457 -1.86051
680 11.4638 3.59588 4.11711 0.347342 1.31249 -0.459973
1344 12.2535 3.03005 3.73584 -1.84724 -0.0764294 0.161802
2539 12.2856 4.20413 3.10982 -0.402578 1.64847 -1.10434
166 12.4555 4.12208 4.12456 -0.791485 0.132075 -0.173422
994 13.2714 3.83508 2.91219 0.509345 0.620181 0.288671
550 13.771 3.72017 3.87778 -0.330094 1.07061 0.904733
2485 14.5949 2.85451 4.2195 -0.249742 -0.560094 -0.797883
2646 14.316 3.17276 3.03481 -0.890526 1.20867 0.195792
2238 15.0464 3.63744 3.69326 0.989474 -0.0929636 0.196021
50 16.9374 3.46324 4.25187 0.68383 -0.579708 0.814182
411 15.9757 3.21006 3.86669 -0.456818 -0.936581 -0.592958
76 0.524191 5.04497 2.94969 0.199613 -0.559032 0.355991
557 1.38399 4.61817 4.13578 -1.35061 1.9276 0.441939
3135 2.22645 4.45329 3.52066 -0.162714 1.91955 -1.09846
1807 2.81343 5.47629 4.1087 -0.474491 0.198032 1.56373
347 3.04114 5.01894 3.01446 -0.0996024 1.22623 0.455383
2532 4.16477 4.83726 3.01251 0.333837 0.261435 2.05447
2924 4.07466 5.24577 4.03093 1.51521 -1.13672 1.34524
594 5.03491 5.63618 3.02579 0.990996 0.649425 -0.0704053
3973 5.01121 4.74 3.49866 0.931343 0.697581 -0.468686
1763 5.30427 5.66795 4.27343 0.0124078 -0.113861 0.751715
3551 6.81372 4.43934 3.88185 0.730049 -0.152128 -0.465104
2056 6.02666 5.08538 3.30509 0.771378 0.7064 -1.01141
340 6.80592 5.49821 3.92035 0.149128 0.303726 -0.256633
1715 7.57686 5.20764 3.28478 0.705322 0.326829 0.573958
1402 8.73248 4.88165 3.74978 -0.0656025 -0.0955309 -0.987304
106 10.9733 4.58454 3.14683 0.759766 -1.62898 0.766912
3733 9.98946 5.04823 3.61318 -0.0337406 0.483608 0.980543
308 10.4648 5.44485 2.85072 -0.650087 -0.700709 0.663654
2564 11.0307 5.60954 3.84384 -0.0406988 0.372756 1.15041
429 11.6757 5.28058 3.04684 -0.244327 1.75281 -0.383249
2660 12.6489 5.14849 3.293 1.06239 -0.0122476 0.144795
3911 11.4886 4.58567 4.14159 0.28535 -0.760147 -0.66423
3796 12.1826 5.45024 4.07389 0.286049 -0.875223 -0.456309
3247 13.6193 5.67821 3.19289 0.0718736 -0.358237 -0.721434
705 13.7162 5.36309 4.26166 0.580515 0.429178 0.356796
2193 13.6904 4.73132 3.44528 -0.831782 -0.622914 1.02929
1482 14.8602 5.30278 3.16913 -0.703726 -0.478111 -0.454658
3523 14.5582 4.71842 4.17089 0.498503 1.50731 -0.353696
1081 16.0474 5.55329 3.00575 -1.11618 -1.26955 -0.9017
1703 16.7498 5.12487 4.04321 0.231043 0.343028 0.174445
917 16.5677 4.37312 3.16855 -1.03197 0.276767 0.282509
3470 15.7658 4.95056 3.71859 -1.12674 -1.03641 -1.69011
1419 1.12065 6.86832 2.86391 -1.58049 -0.212263 0.776313
536 0.299178 6.29325 3.12377 0.557822 -0.0795534 -0.0596845
832 0.334911 6.78787 4.12458 -0.399357 -2.41664 -0.618113
479 1.15739 5.71184 3.55597 -0.795583 0.372145 -0.294411
119 1.63483 6.89099 3.712 -0.847132 -2.36156 -0.0251693
270 2.25291 5.82106 3.21146 0.250065 3.37455 -1.19686
1289 2.63009 6.84066 4.10758 1.62752 0.0753069 1.13233
2442 3.44327 6.82615 3.29797 0.914991 0.109967 0.340134
177 3.85372 5.7875 3.24047 -1.647 1.50188 -1.03484
2401 4.51107 6.48643 3.83329 1.06543 1.15221 0.801122
118 6.66847 5.83264 2.86801 -1.09692 1.46559 1.56962
2212 6.25668 6.98141 4.04737 0.304029 0.436927 -0.581196
2127 5.75139 6.44041 3.31678 -2.78849 0.0907338 1.76154
1738 7.8354 5.88776 4.09281 -0.361862 0.892124 -0.841727
1822 8.16152 7.0959 3.6777 -0.587723 1.44707 -1.16924
2858 7.20556 6.61774 3.3618 -0.838437 -2.04182 1.31048
3493 8.6732 5.89466 3.43266 0.706818 0.485428 -2.03063
2262 9.06989 6.72909 3.07756 1.41625 -1.11736 -0.390359
894 9.62752 5.84425 4.12471 0.402652 -0.51601 0.451185
397 8.93148 6.49501 4.24403 0.48419 0.342452 0.17546
3423 10.0747 6.34769 3.32764 0.469271 -0.0747694 -0.211098
1778 11.2097 6.31242 3.06578 0.786808 0.669619 0.104258
2426 11.7906 6.43476 4.00612 -0.852 0.502312 -0.386923
386 12.5338 6.44108 3.33586 -1.3204 1.4086 -0.466342
3221 13.4052 6.75246 3.78066 0.066918 2.30267 1.67019
3398 14.4022 6.19563 3.73314 1.01313 0.0848646 -0.506862
1065 15.4935 6.52196 3.54985 -0.951685 0.0897683 0.252546
980 16.4436 6.16428 3.81327 -1.02052 -1.14642 0.0181757
568 0.376417 7.56593 3.40004 0.787497 -0.0114369 -0.802701
3762 1.50429 7.87481 3.58603 -0.278577 1.38691 -0.110204
2537 3.02947 7.98209 3.33344 -0.96764 0.295364 -0.559825
2208 4.16556 7.64487 3.31656 1.0488 -0.817881 -1.29562
819 4.1248 8.35202 4.24343 -0.433199 -0.836563 -0.717345
1601 3.43391 7.44992 4.13402 -1.35105 1.19056 -0.381788
1186 5.33703 8.40743 3.44916 0.19647 0.688801 1.13728
2417 5.25264 7.34831 3.5298 0.48623 -0.108931 1.92652
3889 6.53901 7.65141 3.31373 -0.189632 -0.759321 -1.6278
924 7.06024 8.45172 2.93096 0.767343 2.47966 -1.3302
2882 7.57621 7.6483 3.16772 0.786953 0.358847 0.757139
232 7.29186 8.26578 3.99803 1.93709 1.63185 0.899485
1181 8.30909 8.53905 3.91081 1.30575 -0.505022 -0.598745
1884 8.94871 7.85709 3.26294 0.729403 1.44672 1.84888
2109 8.89401 7.63138 4.27173 0.94636 -1.10015 0.209113
2958 11.0404 7.23022 3.96524 -0.442604 -0.666937 -0.3275
3730 10.3277 8.35296 3.99797 -1.02577 -0.162437 -1.16251
1377 10.0011 7.38221 3.6665 -0.560952 -1.74538 -2.29984
512 11.9381 7.31974 3.37417 -0.585791 -0.205361 -1.57575
3871 12.4219 8.18647 4.23516 0.806893 0.148441 -0.930556
2412 11.4062 8.25131 3.78118 -0.272757 0.262493 0.159509
179 13.3331 7.85613 3.50139 0.690043 -0.123247 0.0539215
2670 14.7008 8.01673 3.75245 0.784277 -1.68196 -0.0300586
2345 14.8554 7.26122 2.91518 0.666697 0.257331 0.0595864
2019 15.5483 8.50307 3.11944 -0.828595 1.22089 -0.885541
3359 14.3795 7.14634 4.04873 1.61924 1.53087 -0.813606
1819 16.3231 7.40026 3.73385 -0.890929 1.03979 0.385471
2687 17.0046 8.16323 4.18122 1.22869 1.18914 0.332173
3498 16.6933 8.1544 3.1092 1.19076 1.07459 1.48003
460 1.03057 0.966287 4.79442 -0.830238 1.34069 -1.11358
3583 0.0658441 0.528995 4.62515 0.780895 0.539055 0.582488
3414 2.09061 0.649204 4.5468 -0.357014 0.78245 1.15406
1879 2.92884 1.15544 5.06467 -0.497721 0.604183 0.559864
1411 3.9378 1.31541 5.47237 0.246988 -1.19184 -0.44572
494 5.57568 0.174701 5.30889 -0.347605 0.148593 1.02088
892 4.91788 1.31629 4.48437 0.435079 0.492117 0.044347
941 4.27822 0.076774 4.58786 -1.01231 -0.0404789 -0.12503
809 6.79281 0.153444 5.6116 1.6225 0.381324 0.0869568
1538 5.77898 1.22432 5.29542 -0.136467 0.627621 -1.53677
302 6.14389 0.695125 4.47134 -1.45065 -1.53346 1.67823
1090 8.30644 0.902795 4.98982 -0.211979 0.573599 1.19819
249 7.33569 0.965657 5.23957 -0.720312 -1.22032 -0.65383
412 7.57609 0.141225 4.69811 -1.55523 0.168886 0.95665
379 9.32709 0.782564 5.51642 1.19689 0.783776 0.450396
662 10.1434 0.993619 4.49426 -1.92496 -1.08615 -1.01195
960 10.6342 0.202073 4.97073 0.699189 0.909971 0.178264
2476 11.753 0.85796 4.77147 -0.603951 0.631625 1.04598
3403 13.8434 0.826187 5.47846 -0.393079 0.0984748 0.927829
159 13.0383 0.6942 4.67049 0.411684 -0.658519 0.00408098