ITEM: TIMESTEP
64000
ITEM: NUMBER OF ATOMS
4000
ITEM: BOX BOUNDS pp pp pp
0.0000000000000000e+00 1.7099759466766969e+01
0.0000000000000000e+00 1.7099759466766969e+01
0.0000000000000000e+00 1.7099759466766969e+01
ITEM: ATOMS id x y z vx vy vz
963 0.232731 0.55226 1.38891 1.1559 -1.67095 -0.126052
158 1.128 0.126885 1.03173 -0.691442 -1.36458 0.388182
2116 0.623495 0.460369 0.228374 -0.669353 1.20996 -1.85369
2305 2.50635 1.07622 0.859108 -1.55025 -0.0102386 0.841307
3337 1.96762 0.250369 0.479232 -1.01135 0.583968 1.77955
1467 1.51358 1.07619 1.20159 0.327533 0.150993 -0.0192369
2016 3.519 0.37644 0.46397 -2.78575 -0.127506 -1.33757
1580 5.53285 1.40671 0.530168 2.3642 0.0805318 0.185716
3225 4.46568 0.976337 0.743618 1.06619 0.995975 -0.346258
2515 5.46169 0.206409 0.873117 0.690012 0.159528 -1.01356
743 6.18565 0.553296 0.170113 0.187766 -1.54538 -1.54392
2780 6.69246 0.955532 1.4148 -0.717756 0.543703 -1.17941
2640 7.88372 1.15695 1.17091 0.396635 -0.415155 -0.87264
3626 8.10411 0.0608868 0.83801 0.411301 1.52096 -0.705567
1716 7.22003 0.48086 0.405657 -0.613837 0.639017 0.491794
3819 8.91524 1.30599 0.206589 -0.694446 -0.033817 -0.418919
34 9.05351 0.58477 0.961642 1.15661 0.258344 2.07912
335 10.1316 0.986904 0.481221 -0.407232 -1.08082 -1.80468
2387 10.9635 0.354254 0.610166 -0.220315 1.61843 -0.974653
535 12.0152 0.104909 0.475192 0.293567 -1.18023 -0.762223
1463 11.7585 1.40704 0.620681 0.976076 0.444011 2.29564
1349 12.9888 1.08741 0.771135 0.397132 0.948431 -1.24021
677 14.1483 0.370973 0.895437 -1.25122 -0.229061 -1.31003
262 13.886 1.02278 0.0373075 -1.0361 -0.626689 0.474353
1367 15.2672 0.872521 0.683774 0.874274 -1.78498 -1.29812
597 16.1523 0.326271 1.18441 -0.85669 0.139624 1.42185
1539 16.5175 0.847305 0.224327 -1.11021 -0.263583 0.0725609
1840 0.632791 1.66244 0.753592 -0.28134 1.76348 1.43849
2160 0.644115 2.83973 0.316503 -0.0316101 1.69673 0.48974
3795 1.96544 2.75801 1.31067 -0.812283 -0.895509 -0.437749
2672 1.62972 2.12348 0.422826 -0.153805 0.603014 -0.613644
3175 3.86452 2.47597 0.407311 0.513878 0.367087 1.49848
295 3.38282 1.43911 0.353976 0.381624 0.224841 -0.934022
426 3.49992 1.9196 1.29463 0.639366 -0.792052 -0.309573
3407 4.92587 2.21849 0.710927 -0.462475 -0.124284 -0.317879
463 6.33796 1.96615 1.36815 0.838357 -0.346218 2.05596
1188 5.84166 2.24466 0.0146076 2.07491 -0.785486 -2.60678
1991 6.5505 1.4671 0.402966 -1.56229 0.775373 1.204
588 6.95697 2.41799 0.15372 -0.199903 -0.472633 0.53856
2703 7.76797 1.62238 0.241067 2.08701 -0.580642 -1.69251
300 7.94638 2.72323 0.400108 0.440758 -0.563317 2.27017
3363 7.34548 2.08852 1.08406 0.505385 -0.48955 -0.839794
3954 8.6131 2.10467 0.724061 -0.349699 1.75519 -0.0367644
429 9.43143 2.66459 0.278233 0.642423 1.32387 1.55333
1648 9.8788 1.93055 0.872591 -0.0902685 1.34485 -0.579478
753 10.8288 1.81188 0.508371 -0.312212 -1.15699 0.657647
1258 12.7371 2.13868 0.817731 0.0978333 -0.343092 -0.145368
547 11.6151 2.33176 1.1032 -0.550661 0.477734 1.37906
1521 14.052 1.90667 0.729507 1.63815 -1.72692 -1.10101
1437 14.8003 1.44305 1.39682 -1.10685 -0.0664458 0.172936
2002 14.856 1.46853 0.014511 -0.626593 1.36971 0.0684403
1462 16.8063 2.04669 0.459075 0.849679 1.03653 -1.77409
3711 15.7181 2.02674 0.722458 -1.08936 -0.465159 0.193425
1414 1.23084 3.55044 1.38681 0.702486 -0.174288 1.22174
3664 0.341364 3.96658 1.01732 1.11025 -0.361437 -0.651164
2976 1.0158 3.8311 0.266375 -0.0110068 -0.955755 -0.503912
424 2.12882 3.38026 0.43914 0.363866 0.142436 0.754895
1693 2.55351 3.93272 1.08249 0.652474 -1.18018 0.0964537
1856 2.90588 3.04461 1.31402 -0.852532 0.340857 0.232556
1879 3.91027 3.31987 0.994038 1.27501 0.143535 0.572074
3970 3.32629 3.45483 0.0628471 -0.318963 -0.858006 -0.330789
3087 5.17337 3.92006 0.582648 -1.72661 -0.574857 0.311025
2236 4.93289 3.02123 0.102187 0.826593 -1.81175 -0.0559323
1383 6.96275 2.97586 1.13482 -0.290312 -0.908175 -1.19919
2747 5.86491 2.98262 0.891052 -0.185158 0.36773 0.0911122
3009 6.23157 3.90059 0.676182 2.15303 -0.410863 -1.02881
1980 7.90434 3.50448 1.33697 0.761112 -1.02072 -0.605017
1891 8.2439 4.27017 0.242163 0.336603 0.0129254 -0.368295
3260 7.1784 3.66624 0.199156 -0.399657 -0.35772 1.49943
1408 8.87161 3.43867 0.813822 -0.591227 -1.40179 0.866212
587 9.54419 3.72963 0.125665 -0.623092 -0.263441 0.93591
442 10.6435 3.7656 0.0744361 0.292945 0.359156 0.0828357
3704 10.5035 2.85513 0.808252 -0.651211 -0.078125 -0.545027
888 10.684 4.07761 1.4243 1.06416 -0.62797 -0.343936
2248 12.3531 3.4442 1.10022 -0.640433 -0.823464 2.40867
223 11.4138 3.19791 0.0598051 -0.762074 1.95552 -1.67467
3706 13.9271 3.8135 0.520422 0.318363 -0.71554 -1.86174
2564 13.5821 2.85597 0.794469 -0.710032 -0.336937 -0.80265
2800 15.541 3.54386 0.839493 -0.620279 0.747774 0.857134
935 14.6877 2.89107 0.458003 -1.07471 2.30588 0.253241
2480 16.5527 3.35736 1.17392 0.473956 0.0341222 1.65609
3841 16.6612 4.08554 0.237404 -0.723716 -0.595271 -0.612625
2045 16.1662 3.15238 0.0829271 1.20133 0.00437598 -0.63854
2685 0.467284 4.90963 0.049836 -0.548828 -0.760878 -0.85449
1005 0.218699 5.13133 1.11971 -1.20702 0.395663 0.892976
2050 1.34886 4.80187 1.03092 0.637516 -1.88115 -2.56385
1628 2.6494 4.88966 0.614717 1.28542 -0.478498 0.308912
3254 3.6641 4.62011 0.447169 -1.08773 -0.45549 0.0264514
3875 3.44334 5.49847 1.13447 0.411497 -0.445344 -0.538776
72 4.43462 4.32425 1.30242 1.14168 1.46489 -0.963862
2335 5.60819 5.51026 0.375667 0.295575 -0.563866 0.518915
779 4.61523 5.51822 0.744296 -0.304179 -0.30519 0.165656
658 6.48666 4.95537 0.0972085 -0.353491 -1.8698 -1.12268
989 6.20982 4.8161 1.08647 0.830288 -0.558384 -0.20769
1950 7.12229 5.58107 0.920514 -1.27363 0.452055 1.26111
97 7.23611 4.55066 0.653768 -2.00476 -0.0200155 -1.09038
3660 8.31392 4.57491 1.26117 -1.39598 1.88459 -1.56584
3957 7.6856 5.20111 0.0703635 -0.12681 0.702629 -1.42784
1919 8.75337 5.43815 0.610687 -0.0112342 1.29281 -1.69462
2775 9.52772 4.40684 1.08314 -0.258217 -0.451796 0.0669125
2468 9.40451 4.86304 0.0637373 0.667952 -0.931707 0.177652
1019 10.4667 4.74381 0.397421 0.817378 0.04407 0.317239
2576 11.3425 5.45144 1.05496 0.607184 0.68074 1.19436
274 10.1292 5.22898 1.31626 0.316465 -0.00676727 -0.236363
1909 11.7796 4.44953 0.766768 0.402745 0.528521 -1.35804
94 12.7328 5.23081 0.949301 0.844132 -1.86245 -1.44573
832 13.7405 4.70263 0.992897 -2.49702 1.96253 0.74017
459 14.9231 4.55753 0.253578 0.735491 -0.342932 1.75704
337 14.2828 5.49996 0.537802 1.97521 -0.60987 0.868476
3223 15.2807 5.56912 0.698212 -0.551024 0.0956855 -1.12984
1718 15.3965 4.74771 1.32303 -1.28536 -1.14572 -1.51657
920 15.9585 4.88004 0.0647573 -0.367629 -0.206627 -0.651391
2247 16.5252 4.51966 1.20794 -1.06619 -0.0779037 0.0434193
2551 16.263 5.589 1.10486 -0.196324 -0.717944 0.837186
2761 0.62133 5.84173 0.231692 0.659629 0.210389 -1.9841
1710 0.991583 5.78269 1.15413 0.70323 0.349962 1.01114
491 0.802602 6.93902 0.688086 -0.20026 1.64296 1.62861
3250 2.68807 6.96544 0.2839 0.312725 -0.906127 -0.0785238
271 1.91352 5.84195 0.593162 -0.678496 -1.6118 -0.528636
3910 2.06412 6.98632 1.07538 -1.1493 -0.279303 0.39383
1182 3.09152 6.77735 1.21224 -0.698562 0.743333 0.442005
3090 4.00302 6.34841 0.363542 0.442219 0.149667 0.842153
1841 2.8724 6.0168 0.336706 -1.15262 0.358224 0.631855
2125 5.21795 6.36909 0.941553 0.24549 0.0362512 0.688588
657 4.49569 7.09815 0.917145 0.304688 0.273823 -2.09979
1495 5.65073 6.66797 0.0294965 0.269298 0.34894 -0.050197
1337 6.66345 6.27037 0.101777 -1.15086 -0.363909 -0.137508
1264 6.34505 7.07864 0.861769 0.1761 0.476406 0.561538
2007 8.53312 6.52547 1.00498 1.0224 -0.559185 -0.579604
498 7.89503 6.36129 0.227862 -1.02375 -1.81617 -0.130021
16 9.51852 6.16697 0.767387 -1.0975 -0.0811781 1.4703
1476 10.624 6.19093 0.578275 0.848251 1.6755 -0.338731
174 11.2969 6.91682 1.18031 0.6471 -1.34583 1.06949
4000 12.0763 6.18999 1.19378 -0.252322 -0.952457 0.0653741
2664 13.3518 5.75003 0.172079 0.784459 0.437909 -0.0443992
3603 13.6302 6.00728 1.16846 -0.905617 0.0809206 -2.07267
3911 12.8585 6.77351 0.79664 0.708916 -0.234867 0.330757
2277 14.1909 6.87724 0.806655 -0.39984 -0.322808 0.842653
432 14.8569 6.37148 1.37794 0.213138 0.207694 -0.183619
1602 16.9994 6.28249 0.860399 -1.80343 2.26986 0.121538
2577 15.8894 6.55061 0.541178 0.880042 -0.380762 0.772495
954 0.321873 7.59613 0.0955996 -0.828855 0.845934 0.41592
401 0.0514773 7.25938 1.35229 2.01712 -0.188238 1.50188
2291 0.794478 7.82743 1.36985 -1.2694 1.06946 0.722714
2625 0.0767229 8.43594 0.748133 -0.411589 0.897498 -0.817123
2375 1.0096 8.4181 0.299885 0.928699 0.278632 1.24073
3887 1.77074 7.58882 0.158235 0.05929 -1.27623 0.133326
594 1.82761 8.14703 1.13056 -0.228772 0.434617 -0.621641
212 2.85222 8.02739 0.138589 -0.944344 -1.44129 -0.39669
2328 3.8526 8.53175 0.981514 -1.33399 1.33323 -1.80543
3581 3.80706 7.7384 0.0891553 0.757786 -0.186451 -1.27107
2442 4.94118 8.09285 0.585603 0.781173 -1.84515 0.466805
854 6.73136 8.01663 0.739285 0.397111 0.0402697 0.717256
2827 6.00431 7.61247 0.029223 1.13041 -1.45792 0.383784
3267 7.57843 7.19347 0.985155 0.214468 0.162487 -0.56751
1286 7.97739 8.13617 0.71528 -0.840567 -1.66111 -0.473709
162 8.27542 7.28792 0.0776786 -0.489623 0.77136 0.919053
140 9.18823 8.54483 0.394069 -1.41562 0.346996 0.793044
3509 9.83238 7.82925 0.864007 -0.353049 -0.571503 0.544221
1747 8.64764 7.50874 1.12963 0.504872 1.40974 -0.890445
332 11.0022 7.84461 0.158906 0.373507 -1.64619 -1.5359
3408 12.3771 8.46167 0.177483 -0.346879 0.920192 -0.738541
3752 12.3081 7.99898 1.2876 -0.718859 -0.664977 0.307863
1930 12.0402 7.32781 0.427387 -1.25027 0.886627 -0.156319
2467 13.3596 7.71759 0.687075 0.447845 -0.620186 -0.00642873
1212 14.1915 8.39248 0.373069 -1.31468 -1.15674 0.753673
2293 15.0777 7.60593 0.418133 0.88308 -0.989903 -0.187454
664 16.4538 7.75135 0.525857 0.0845051 0.412533 0.991969
1640 15.766 8.45464 0.830056 -0.287891 -0.0823845 -0.259954
1043 0.75343 1.2879 1.9694 0.0378921 1.8047 0.667927
1222 2.78632 0.480423 2.39515 0.356529 -0.492977 -0.36316
3514 1.56642 0.525218 2.14804 -0.189381 -0.0845263 -1.05371
3846 2.39165 1.34754 1.95844 -0.0492603 0.216991 0.875209
775 2.53953 0.0807765 1.54257 -0.577072 -0.186873 -0.573747
3333 3.37343 0.865924 1.74259 -0.668211 -1.81412 0.12102
1635 5.28462 1.14569 1.65536 -0.740715 -0.178716 1.17669
2834 5.24191 0.507435 2.48785 1.4702 -0.396831 -0.562206
1041 4.27604 0.355797 1.96464 1.51332 0.928969 0.519055
3190 6.30474 0.403944 2.46811 -0.106343 -1.35154 0.129935
120 7.33156 0.696159 2.1006 1.32411 1.2525 0.0562003
3659 8.4204 0.612082 2.01848 0.651334 -0.580265 1.07023
3627 7.99552 1.192 2.8092 0.726752 0.844249 -1.25915
2410 9.04123 1.19991 2.69854 0.880328 0.0711615 -0.603739
844 9.55919 0.603037 2.0603 -0.17813 -2.05231 -0.0603899
3269 10.3775 0.793731 2.64858 -1.20696 0.046344 0.108158
3630 10.4126 0.64652 1.5895 0.41387 2.19036 2.06392
3672 12.6374 0.103636 1.45286 -0.0265025 -2.13361 1.12002
2959 11.5557 0.78941 1.47439 1.51039 -1.4336 -1.34049
2537 11.4664 0.982752 2.46134 1.06539 1.90534 -0.793568
2434 12.7615 1.38847 2.35049 -0.686708 1.49762 -0.186649
851 13.4797 0.66643 1.83912 0.158638 -0.211225 0.550455
3855 15.2442 0.154187 1.74004 0.915081 0.37808 0.0585971
1708 15.3514 1.02692 2.57956 -1.86289 -1.13151 -1.27323
3615 14.369 0.315664 2.27538 1.27007 1.09285 -2.41035
2145 15.8214 1.25019 1.61065 -0.739454 0.0133844 -2.21504
2206 16.9972 0.997276 2.43096 0.993522 0.375314 0.45518
893 16.0215 0.246521 2.43466 -0.556755 0.14904 -0.671122
1608 1.2347 2.09652 1.42677 0.183353 -0.64821 0.700055
3324 0.258487 2.49089 1.49624 -2.8444 0.15954 -0.742977
4 0.239854 2.00241 2.53436 0.100522 -1.51878 -0.374878
3688 0.989128 2.69221 2.33871 -0.331356 -0.38593 0.282297
482 1.61723 1.80111 2.38159 -0.626877 -1.43869 -0.183999
342 2.49146 2.45544 2.14622 -0.0597751 -1.11083 0.590574
3670 3.41638 1.95815 2.73648 -0.15044 1.62916 -0.00176011
2735 4.09325 2.59369 1.98123 0.255293 0.040767 -0.290246
1976 4.38744 1.43361 2.13768 -0.444402 0.452234 0.749647
3336 5.1082 2.1372 1.9346 -0.0553139 1.95777 -1.2039
525 6.18936 1.46127 2.36744 1.01219 1.60056 1.46359
2588 6.17333 2.74892 2.05389 -0.820191 -0.254769 2.21508
191 8.1963 2.51473 1.5908 -2.08121 1.00481 0.507662
1958 7.19515 2.76757 2.22481 -0.0661244 -1.37283 -0.31611
2808 7.1795 1.73111 2.2905 -2.03963 0.32585 -0.637128
19 8.32731 2.22044 2.56261 0.644134 -1.56693 -1.18304
3374 9.24474 2.75913 1.52312 -0.927992 -0.201409 1.04269
2692 8.84199 1.46728 1.62515 -0.590982 1.03687 -0.926192
1605 9.95814 1.52932 1.85291 0.0242337 1.07935 -1.06797
3837 9.34062 2.3328 2.5297 -0.0435418 -1.64053 1.87307
2077 10.7553 1.78387 2.55696 0.0230287 -0.336503 0.476798
3392 11.0379 1.61516 1.58803 0.407898 -1.69335 0.513083
80 11.0383 2.81641 2.36015 0.122336 -0.596885 -1.00858
1557 10.3185 2.55464 1.78184 -1.60571 -0.767222 -1.01552
3204 12.3388 1.52152 1.46703 1.21753 -0.637597 -0.928738
3440 11.9022 1.97335 2.35517 1.28156 -0.916445 -0.273471
3433 12.6014 2.62968 1.83095 1.97242 -0.840305 -0.625526
3890 13.4309 1.92946 1.51056 -0.917395 1.08465 0.480288
3121 13.856 1.57316 2.47949 0.460788 0.222975 0.113916
359 13.4114 2.72551 2.49059 0.580048 1.38792 0.975968
327 14.8644 2.0579 2.27665 0.49132 0.490751 -0.161599
2176 16.7436 1.64233 1.46693 0.726519 -1.61955 1.05045
1170 16.5627 2.64153 2.34992 -0.552776 1.23253 1.78027
1454 15.9235 1.91024 2.60069 -0.686576 1.20372 0.862266
1290 15.7893 2.42028 1.70433 0.302528 -1.96041 0.259409
2075 0.340957 3.36928 1.9738 1.10776 0.707465 0.418718
1987 1.26965 3.77454 2.72789 1.59136 0.724879 0.0842753
686 1.94201 3.49496 2.03252 -0.738812 -0.156675 -1.91039
895 3.91946 3.68782 2.10024 -2.05183 -0.954613 -0.416268
1689 3.00042 4.08514 2.60333 -0.107563 -0.497626 -0.886423
478 5.63783 4.05034 1.54214 0.301235 1.14272 0.153422
476 4.87805 3.21703 1.46154 0.361135 1.86137 -0.289044
199 4.79755 3.18187 2.52195 0.554797 0.652375 -2.35762
2374 7.03761 3.91766 1.48938 -0.391819 0.657351 0.0860581
3551 9.63969 3.65506 2.01421 -0.335543 0.88361 -0.581895
1090 8.64292 3.40195 2.08752 -0.700018 -1.19676 0.684006
3800 10.5979 4.03254 2.61602 -1.01837 -1.25254 -0.17573
301 11.5061 3.1837 1.54737 0.0503329 0.406205 -0.392383
2853 12.5079 3.46675 2.29207 -1.27453 0.834339 1.39703
2902 11.7166 4.11107 1.89543 0.692216 -1.15736 0.630663
805 13.5369 3.50813 1.70605 -0.267225 -1.66049 -1.31419
410 13.8449 3.94158 2.80108 -1.25847 0.791608 -1.94906
3844 15.4925 3.62149 1.90493 1.23371 -1.57054 -2.70799
3802 14.6397 3.35149 2.35167 1.80711 0.747554 1.84
687 14.8377 2.85199 1.43653 0.622955 0.332421 2.16699
2826 16.3562 3.55344 2.65196 0.326668 -0.556591 -0.507639
1375 0.976685 4.55574 2.03347 1.03014 -1.16587 -0.365671
3082 0.299359 5.13988 2.48862 -1.83239 -0.847843 1.14699
1527 1.97366 4.60692 2.57052 -0.602012 -0.570392 2.19789
2035 2.56882 5.08331 1.85436 0.286932 0.175649 -2.6993
891 3.85558 5.18044 2.14512 0.0651869 2.4577 0.640976
3801 3.24066 4.49312 1.52705 -0.192642 0.00888343 1.44088
3300 3.00241 5.35688 2.74687 -0.0321087 -0.872826 0.695906
1779 5.01103 5.11601 1.68794 1.5493 -1.05754 0.218321
2940 4.9569 4.41707 2.48756 0.589962 -0.105688 0.331632
1524 6.3955 4.28493 2.20061 -0.48379 0.14793 1.3935
3919 5.72788 5.18523 2.47398 0.907526 0.461622 -1.41671
190 6.98448 5.03675 1.77194 0.834588 -1.01236 0.277522
2067 7.6255 4.47377 2.51918 -0.0546514 0.06275 -0.0877926
2302 7.97496 5.5388 1.44535 -0.896727 -0.0202091 1.66808
1152 9.20332 5.47534 1.61383 -0.531721 -0.259149 -1.12297
1438 9.31862 4.56277 2.45598 -0.0711053 0.13026 -0.312216
2385 9.95826 5.55974 2.39792 -0.360037 1.30385 1.09989
453 8.79643 5.64247 2.70865 -1.34437 0.526562 -1.15837
3057 10.891 4.94436 2.02336 0.0289152 -0.623865 0.235908
3161 12.7868 4.40978 1.45288 0.280698 0.0287165 -1.69227
1831 12.1546 5.14987 1.8189 -0.513323 -1.56803 0.286555
2476 11.7966 5.0401 2.67943 -1.59935 0.57681 1.56932
1687 13.2676 5.35533 1.98448 0.584007 -0.345656 -1.01885
2431 12.8906 4.40379 2.65668 -0.159759 -2.32397 -0.76879
189 14.4056 5.54211 1.72947 -0.136486 1.21957 1.7885
3145 14.5008 4.32462 1.93927 -0.17645 -1.0719 -1.39009
3008 16.0224 4.41227 2.37307 1.85676 -0.750477 0.921779
2951 17.0054 4.28169 2.17871 1.57491 -0.136914 -0.0362686
978 0.0873479 6.35522 1.99177 0.202111 -0.64579 -0.134682
688 0.750548 7.10983 2.4611 0.940868 1.73025 2.36256
2567 0.893054 6.06426 2.68426 1.40876 0.436353 0.906178
549 2.57174 6.17987 2.12226 -0.649793 0.7488 0.220546
2817 1.7817 6.61947 2.58911 -0.590065 0.494116 1.41244
1419 4.23937 6.06461 1.60028 0.0141052 0.814309 0.415409
1864 3.78096 6.20848 2.50591 -0.467512 0.191736 1.78091
3710 3.69581 7.07238 2.01497 0.712931 0.903529 -0.526739
1769 5.31597 7.08127 1.87078 0.0466177 0.463876 1.15404
552 5.16479 6.09533 2.3636 -0.161505 -0.964646 -0.975108
8 5.9616 5.97331 1.58543 0.363304 1.06612 -0.231646
213 7.02792 6.56686 1.5755 -0.811099 0.451793 -0.0432684
3821 6.65057 5.83746 2.47017 -0.939517 -1.02267 -0.597647
640 6.19674 6.73927 2.14833 -1.0855 1.36504 0.14906
2529 8.02728 7.08689 1.88775 -0.496008 -0.135908 -0.141738
2079 7.1733 6.95164 2.69784 -0.359653 1.021 0.954561
1509 7.64819 5.95325 2.36004 -0.33393 -0.770406 -0.568906
3443 9.64963 6.36942 1.89905 1.4223 -0.156644 0.556563
1249 10.8183 6.11375 1.81079 0.344225 0.555499 0.843926
562 10.2841 7.11125 1.61383 0.880326 1.23613 -0.430599
3316 11.4024 6.72167 2.64209 -0.192334 0.580331 0.705154
626 12.3044 5.90728 2.5489 1.47182 0.0828207 1.09184
368 12.0556 7.0698 1.96784 0.468921 -0.0914681 -2.30081
3474 12.9619 6.53075 1.82052 -1.4412 -1.47379 -2.08909
2215 14.007 6.7391 1.98622 1.72725 0.47185 -0.721574
3369 13.3998 6.18268 2.60647 0.58173 0.596133 1.63608
1381 15.3279 5.7883 2.31481 -0.188198 -0.401662 -0.777283
421 16.4278 5.79965 2.51689 -0.292983 0.383339 -0.33423
2724 0.189244 7.95899 2.28945 0.536546 0.195716 -2.05782
707 1.51922 7.60913 2.01351 -0.15436 0.716495 -0.300494
2032 2.49069 7.46895 1.96799 0.604558 -1.49586 1.54546
479 3.36064 7.94326 1.53889 1.25852 -1.8517 1.20918
3227 3.28742 7.89309 2.60347 -1.47748 1.12169 1.49119
2782 4.56583 7.23535 2.55447 0.974908 -0.921668 -0.194176
3651 5.5171 8.34469 2.3997 -0.408106 0.124043 -0.0703151
2288 5.35718 8.47497 1.44993 -1.72482 -0.751327 -1.37274
531 4.44402 8.03352 1.86195 -0.821474 0.907932 0.211248
2074 6.1605 7.70334 1.71962 2.0117 -0.367892 -0.624268
2561 6.176 7.63036 2.81504 -0.418524 -0.607995 0.170719
2887 8.13663 8.41284 1.78983 1.4898 1.0777 -0.164704
2550 7.23364 7.78575 1.71077 -0.454843 -0.639449 0.222087
1854 8.0787 8.21849 2.8138 1.26096 2.22251 0.168323
3068 9.4116 7.6295 2.00526 0.429828 0.551646 0.67789
265 9.94631 7.20804 2.78647 -1.05792 -1.09507 -2.44876
3695 11.3239 7.78421 2.74008 0.928873 -0.614326 1.89276
2899 11.1953 7.89263 1.4778 0.29445 -0.114433 0.606954
1590 10.1658 8.3926 1.98952 0.739513 0.00155609 -0.0539683
2924 12.4634 7.91765 2.40652 -1.83061 -0.594353 0.137089
754 13.3378 7.51677 1.70242 0.358072 1.01084 -0.586607
2903 13.7641 7.53354 2.65124 1.66239 -1.29373 0.727938
1845 14.6517 7.56836 1.48601 0.644986 -1.47953 0.0724277
639 14.9243 7.79115 2.53796 2.23357 -0.583175 -0.980463
984 15.4106 8.32866 1.78814 0.0143757 0.416027 1.04378
2013 15.7693 7.30015 1.44725 0.0483605 -0.217356 -0.547856
843 16.3299 7.14026 2.3177 -1.12072 -0.331236 -0.38192
1400 16.4275 8.13046 1.54023 0.71842 2.11146 -0.12955
1237 16.4068 8.39203 2.67458 0.0709154 0.0784002 1.14211
2472 0.84923 0.196659 4.04832 0.611551 1.82675 0.423445
1965 1.03011 0.889442 3.14507 -1.68818 -0.973173 0.750459
3200 0.18795 1.27409 3.5329 0.00713623 1.02634 0.375496
1662 1.29712 1.22078 4.23844 -0.622705 -0.477612 -0.903877
2548 2.23223 0.95608 3.20187 -0.181605 -0.296166 0.15974
2593 2.24188 0.608217 4.14222 -0.668298 1.32557 0.649557
3679 3.25576 1.17061 3.65795 0.494598 0.586648 -1.09736
1651 3.78246 0.73936 2.85598 0.0499098 0.940925 -0.255601
75 2.99487 0.139282 3.6021 -1.28307 -0.705613 -0.546682
1534 4.76766 0.745255 3.50227 -1.5443 -1.02862 -1.87788
239 6.73061 0.406305 3.78294 -1.64841 0.432159 0.435047
3457 5.93357 0.949592 3.37218 0.462156 -2.45134 -0.831736
3713 7.07894 1.40225 3.43821 -0.587531 1.04534 -1.54505
741 7.696 0.529981 3.92217 0.18841 2.24088 0.807582
1523 8.15297 0.21331 2.93391 1.01049 0.763604 0.139914
1413 8.77292 0.958858 3.67218 -0.71635 -1.46042 1.56547
3891 9.64285 0.636254 3.47199 -1.14355 -0.646391 1.14826
240 11.0047 0.309279 3.49959 -1.00931 0.424575 -0.6533
222 10.4028 0.99065 4.12776 0.586514 1.4804 -1.4002
3960 12.0351 0.623411 3.40199 -1.46763 0.546638 0.279502
1535 12.7481 1.11598 4.23163 -0.554985 -1.34686 -0.380094
3924 13.3336 1.42124 3.47477 -0.378223 0.533972 -0.895724
951 13.6543 0.643784 4.04928 -1.65018 0.414628 -0.523829
2519 13.4517 0.233954 3.15456 0.132695 0.970126 -0.072594
735 15.0102 0.816914 3.98457 -0.311094 -0.315742 -0.28905
956 14.4597 1.03823 3.07404 -1.57141 -0.529979 -2.01472
157 14.3296 0.0489859 3.61208 -0.0200252 0.378552 -0.23403
2898 15.1971 0.12723 3.04254 2.18256 0.890169 -0.335765
3467 16.9531 0.0591053 3.20506 -0.605071 -0.200647 0.186677
3036 16.1713 0.757539 3.4112 1.553 0.0159221 -0.778522
3638 1.16821 2.04109 3.26974 1.55676 0.773604 0.119148
495 2.52219 2.57023 3.99212 0.106522 -0.581183 -0.586417
60 2.33174 1.95024 3.22491 0.228442 1.44075 0.0124944
785 4.23882 1.5668 3.95066 1.60267 1.10485 -0.750965
504 3.69186 2.44646 3.73746 -0.583843 0.53763 0.723946
3119 5.39306 1.86653 3.87836 -0.136683 -1.81122 2.02759
2693 4.38063 2.18672 2.90979 -0.827602 -1.17672 -0.0869705
2195 5.21373 1.4877 2.90212 -0.338689 -0.00514155 1.23465
2751 5.4667 2.60272 3.06638 -0.570442 1.14303 1.01056
2654 6.53317 2.31301 2.85875 0.230498 0.660279 0.213886
3843 6.78067 2.28923 3.93883 0.0568643 -0.433089 0.26939
2449 7.63025 2.32891 3.45 0.318476 -0.795886 0.812574
3115 7.93237 1.58416 4.08738 -0.552784 -1.27508 1.77091
2946 9.87307 1.65976 3.19132 0.437958 0.0379683 -0.796396
306 8.93765 2.0703 3.54002 0.791066 -0.517264 -2.48293
231 11.2229 1.65603 3.72418 -1.01651 0.135596 0.179391
136 10.5969 2.48812 3.75038 -0.220856 2.52091 2.36004
434 12.3022 1.70704 3.35362 -0.125764 -1.14847 0.932794
57 11.8597 2.40156 3.97657 -1.84762 -0.437837 -0.723871
1242 13.2842 2.64537 3.47644 1.31805 0.708833 -0.237511
3535 14.1661 1.77737 3.82688 -0.0146577 0.0280574 0.194597
3020 14.4365 2.60716 3.18718 1.66346 -1.0642 -2.25943
3247 15.3223 1.82347 3.42858 0.977322 0.872163 1.4307
1269 15.2507 2.72073 3.89123 1.16455 -0.534718 -1.69698
3768 16.6542 2.32296 3.31679 -0.691897 -1.09978 -0.265539
201 0.5611 2.97751 3.30211 -0.395075 0.535184 -0.97177
1200 0.29434 4.16905 3.15078 -1.90162 1.8044 1.19172
2867 1.79949 2.91897 3.15277 1.02282 -0.473831 -0.217101
1816 1.44823 3.24617 4.14173 -1.34426 0.803046 0.227665
1003 2.37737 3.68605 3.58874 0.324813 -0.766437 -0.092557
3373 2.91194 3.02555 2.90023 1.04594 -0.397276 1.83374
2734 4.03113 3.44664 3.37584 -0.506073 0.278882 -0.192923
871 3.21718 3.46016 4.11064 0.0253666 -0.562721 -0.458638
237 5.55099 3.841 3.2144 -1.42945 -2.38438 -0.873082
2652 4.78112 2.85568 3.94069 2.07068 0.454189 0.389866
1209 4.67168 4.16671 3.66901 -0.615936 -0.457421 -0.253681
2331 6.64463 3.39464 3.10142 -1.1285 -0.240229 0.837024
1992 5.94264 3.32298 4.05554 0.996453 -1.22993 0.00127371
618 7.63203 3.43839 3.6211 -1.11824 0.951632 -0.253275
2354 8.64277 3.19708 3.28724 -0.899363 -0.51315 0.580016
321 9.48166 3.81849 3.12889 0.457162 -0.137903 -0.489726
1847 9.20604 4.14492 4.04762 0.563082 0.0921731 -0.0219504
689 9.41855 2.99389 3.99656 0.292919 -1.209 -1.88312
2999 10.6737 3.3903 4.27204 0.124017 1.19725 0.206517
2237 11.3602 3.1142 3.33691 -0.935737 -1.07641 -1.35916
3018 10.1673 2.86057 2.92595 1.29525 -0.340332 -0.352002
3484 12.3285 3.06379 3.19887 -1.46091 -0.470343 -0.224906
745 11.9256 4.11459 3.06933 -0.428355 0.877393 1.04498
3829 11.9014 3.77995 4.06217 -0.0686918 0.939917 -0.205218
339 13.7024 3.38751 3.93855 -3.08638 -0.611283 -1.52372
2916 12.8921 3.95824 3.60165 1.511 1.00628 0.495408
1015 14.7975 3.57614 3.40029 0.722527 0.28567 0.759425
1883 15.6003 2.95191 2.88895 1.19357 0.759309 -2.03565
1612 16.5049 3.54659 3.74512 -0.605699 0.0148582 -0.0703046
773 1.41259 4.27547 3.67157 0.450052 -0.0288881 0.0241232
2883 1.06471 5.13039 3.18924 -0.285341 -1.30309 -0.447215
1214 0.297647 5.26248 3.91351 0.124635 -1.13704 0.663591
864 1.31814 5.35628 4.25307 -0.352931 -1.76861 -0.204308
1325 1.91089 5.61674 2.92315 -0.425871 0.841337 1.00888
1601 2.38253 5.22492 3.85002 -0.382823 -1.55298 -0.230379
2784 3.93968 4.46922 2.89167 0.0387068 1.13002 1.43509
1262 4.11288 5.05518 3.69717 -1.10011 0.756707 0.48889
2532 3.1526 4.48833 3.46022 -0.0502156 -1.9441 -1.18227
119 4.79696 5.33747 2.9701 -1.00174 -0.3029 -0.143359
2556 5.30236 4.90919 3.89957 -0.414068 -0.0837791 1.03048
2788 6.33257 5.44075 3.80322 0.761428 -0.0490246 0.432539
3007 6.23066 4.55379 3.19235 -1.19683 0.771309 -0.2819
3737 7.6672 5.12181 3.3289 -1.00502 0.53381 0.297589
765 9.68389 5.07394 3.36372 0.116519 -0.387032 0.0468443
3011 8.64457 4.47461 3.28654 0.723938 0.0990359 0.28793
2750 8.69695 5.49934 3.75902 1.35559 0.741958 0.192612
1661 11.3626 4.83221 3.8652 0.131275 -1.78097 0.67435
889 10.3227 4.42562 4.22622 0.448451 -0.161907 -1.79341
473 10.7017 5.29263 3.08878 -0.915216 0.906722 1.01556
1233 10.5086 5.62057 4.17568 -0.474891 -2.31937 -1.60403
2303 12.5943 5.13095 3.52496 1.38344 -0.389929 0.112155
1344 13.5746 4.94011 3.37773 0.599555 -0.140949 1.12564
1077 13.9448 5.58572 4.25837 -0.191588 -0.144828 -0.77799
2756 15.5083 5.48999 3.37115 -1.20036 -0.234784 1.04043
2412 14.4993 4.69537 2.91389 -0.867002 0.725642 -0.363565
188 14.2614 5.69805 2.894 0.315783 0.891241 -0.247058
3884 15.5167 4.32219 3.33946 0.283291 0.30872 0.487823
2580 14.6716 4.7071 3.95656 0.570603 1.367 -1.40334
3777 16.6515 4.86689 3.1418 0.990805 -1.409 -0.247787
545 1.12115 6.35064 3.73491 -0.643075 -0.793027 0.166398
3039 2.35683 6.38465 3.56253 -0.500889 -0.514453 -0.221389
3966 3.55646 7.09782 3.28549 0.217595 1.50043 -0.618265
3994 3.37039 6.14758 3.81117 -0.203048 0.433981 -0.0110618
390 4.4837 6.30132 3.25181 -0.680145 -0.225099 -0.986674
3790 5.12979 6.29095 3.99657 -0.964736 -0.221463 1.52984
2722 6.59767 6.86722 3.65349 0.0767535 0.245809 -0.798922
1265 7.05574 6.07272 3.3585 0.399576 2.58478 -0.0608567
346 5.81958 6.1372 3.18929 0.4319 0.239928 0.540884
3773 8.4705 7.12094 4.10653 -0.461988 0.652317 -0.0276874
834 7.53665 6.29761 4.12313 0.409576 0.85633 0.79953
1643 8.14176 6.30462 3.13215 -1.86192 -0.660878 0.409688
501 9.37002 6.2878 3.37774 0.898158 0.598186 0.0646367
2183 10.4106 6.24443 2.98675 0.348161 -0.482515 0.0876726
1132 10.3015 6.59259 3.97579 -1.24705 -1.47204 -0.259702
2266 11.7006 5.9259 3.39553 0.322371 1.92423 -0.419771
575 12.5487 6.75205 4.16908 1.46763 -0.706332 0.750146
89 11.5044 6.88769 3.63324 0.633273 0.788085 1.70505
3622 12.5146 6.79951 2.9512 0.337485 0.402382 -0.230332
2919 13.0869 6.00075 3.70683 0.472026 1.22025 -0.857693
44 13.6821 6.84779 3.34701 -1.49082 1.59899 0.86024
2540 14.6373 6.88808 2.90952 -0.556901 1.59568 0.039355
3085 14.7497 6.11145 3.77566 1.15447 -0.048454 -0.676163
1770 15.6598 6.85494 3.33464 1.64964 0.655512 0.318152
36 17.0028 7.04873 3.15387 0.816022 0.500352 0.060663
2789 16.6987 6.06867 3.7057 -1.61116 0.0391942 -0.888448
3423 16.9076 6.93694 4.1794 0.0803003 1.41181 -0.224464
524 0.809163 7.37738 3.76933 0.186211 -1.29102 -0.966142
2991 0.646152 8.30243 3.33129 -1.2995 0.406207 1.0988
3749 1.33458 8.16621 4.24487 0.30117 1.16207 -0.435267
842 1.5452 7.98867 2.98392 1.32788 0.426411 0.0701496
1591 2.49309 7.28488 2.98698 0.547124 -0.498905 -0.659002
672 1.77794 7.17189 4.0894 1.01407 1.5698 0.483054
1317 2.56764 8.13037 3.5353 1.02637 0.86832 0.327505
3760 3.64595 8.52744 3.50958 0.508748 0.564638 -1.5687
882 5.60066 7.23066 3.47136 -1.16054 2.74779 0.77244
3157 4.65944 7.84826 3.46867 0.34523 -0.923329 -1.08098
814 6.17697 7.70961 4.22275 0.156961 -0.510652 -1.85927
858 7.01969 8.18307 3.58947 0.431008 0.119118 1.04356
1833 7.19241 7.44762 4.26564 0.38004 1.5683 0.508968
969 7.82065 7.4149 3.25471 0.322663 -0.140708 -1.27601
2108 7.90378 8.28224 4.03767 -1.83144 0.513905 0.396352
2223 8.79159 7.17751 3.0932 0.922659 0.0771253 0.0228741
3525 9.48362 7.64506 4.09066 1.99348 -0.561227 -0.0566054
2882 8.90831 8.2302 3.42417 0.0795655 1.0562 -0.627994
1099 11.3171 8.25106 3.95023 -0.863906 1.06689 -0.370859
3206 10.4422 7.91993 3.43127 0.782384 -1.67724 0.797299
1217 12.2581 7.76381 3.47469 1.50054 -0.687299 0.610982
938 14.0749 7.35648 4.10766 -0.895121 -3.01593 1.01197
3473 14.2352 8.32024 3.27244 -1.38857 -1.40494 1.20671
763 13.27 7.75733 3.55508 -0.854616 -1.50902 0.0293984
2773 15.1298 7.79332 3.73013 -0.753089 -1.51314 0.631344
2965 16.1748 7.81597 3.46652 -0.627161 0.0666405 -0.7887
2646 15.6806 8.5377 4.22843 -0.340004 -0.118651 0.609254
3682 0.593168 0.79279 5.02862 0.0871902 -0.591335 -1.17584
1278 1.56264 0.0821297 4.90063 0.452115 0.0267315 0.121406
355 2.17591 0.962852 5.34817 0.922972 2.93788 1.93041
2318 3.32319 1.30976 4.7134 -0.0368266 -1.21626 0.662304
1536 3.19181 0.739128 5.68615 -0.267398 1.08697 -1.22756
1078 3.35374 0.24896 4.68328 -0.102471 1.27805 1.04391
2541 5.43277 0.524337 5.35198 2.22163 0.227833 0.0152592
2665 4.44196 0.62251 4.5428 0.665406 0.204723 -1.6956
2610 4.50942 1.2647 5.49935 -2.93714 1.08034 1.20893
1470 5.49496 0.466582 4.34026 1.36597 -0.589362 -0.0070298
2960 4.31181 0.175622 5.52137 2.34443 -1.10392 -1.64803
1765 5.85173 1.41394 4.89859 -1.24828 -1.55211 0.550296
1102 6.51776 0.429574 4.81047 0.492207 -0.312409 1.3573
2400 7.48159 0.155925 4.85144 -0.019235 -1.53529 -0.478731
2497 7.30461 0.787623 5.6599 -0.25436 -2.47045 -1.20881
3261 7.95423 1.10499 4.96438 -1.16337 1.71326 -1.5673
3347 9.74444 0.179204 4.37991 -0.852855 -1.93709 -1.67098
1270 8.89907 0.742792 4.69677 -1.11437 -0.777369 0.363323
3239 9.97016 0.461202 5.53005 -0.0411471 0.731529 -1.02609
1960 11.014 0.0437636 4.52822 -0.34898 0.595826 -0.697907
628 10.8385 0.988601 5.09105 0.0219156 -0.709704 1.167
3462 12.1449 0.310625 4.41336 1.16813 -0.857403 0.932046