ITEM: TIMESTEP
60000
ITEM: NUMBER OF ATOMS
4000
ITEM: BOX BOUNDS pp pp pp
0.0000000000000000e+00 1.7099759466766969e+01
0.0000000000000000e+00 1.7099759466766969e+01
0.0000000000000000e+00 1.7099759466766969e+01
ITEM: ATOMS id x y z vx vy vz
3174 0.614009 0.993786 1.37848 -0.596531 -0.499488 0.737547
597 0.300838 0.996873 0.128935 1.41417 0.275144 1.10271
1965 1.07036 0.303904 0.437035 1.58733 -0.402323 1.05784
2548 2.42597 0.518969 0.276523 1.27887 1.4098 0.282895
2652 4.07921 0.638474 1.42203 0.239844 -0.0120263 -1.13477
1635 3.56017 0.461874 0.535796 -1.35782 0.431197 -0.624285
120 5.49729 1.09053 0.635865 2.22605 0.878171 0.92051
3626 4.62801 0.828256 0.184457 -1.2738 0.84598 -0.17128
34 6.53658 0.961746 0.214526 1.10267 0.892291 -1.06722
357 8.17015 0.147307 0.275378 -0.121597 1.27863 0.943338
3003 7.39603 0.308334 1.21161 0.124663 -0.421797 1.06765
3336 8.64132 0.880555 0.729777 -0.935112 2.13886 -0.177679
3630 10.8316 0.991957 1.04315 -0.492685 2.05221 0.796275
2 10.2381 0.173178 0.861649 -0.566588 -0.459855 -1.39647
2299 11.3828 0.20892 0.31817 0.0228315 -1.91018 1.06216
2387 11.6583 1.15871 0.216488 1.07398 -0.363234 1.342
3835 12.0511 0.678776 1.09733 0.443481 1.59121 -0.84086
1375 14.092 1.01737 1.40259 0.700777 0.116781 -0.188896
1463 13.2779 0.513262 0.59148 0.850082 -0.663878 -0.407483
3920 15.4363 1.01337 0.246175 0.179702 -0.572525 0.175669
157 14.8033 0.452354 0.994497 -1.2044 -0.0189576 1.66871
1417 14.3096 0.571281 0.0303132 -0.848292 1.33979 -1.34822
2145 16.2745 1.08804 0.921472 0.259604 -0.999909 -1.08073
1972 16.7922 0.0118106 1.09316 0.533899 1.25915 -1.36166
2247 1.09216 2.6857 0.692879 -0.311601 0.359856 -1.27074
1200 0.0936727 1.95417 0.688601 -0.235145 0.0865354 -1.29136
1856 1.62336 1.8825 1.22497 -1.89382 -0.696152 0.343671
72 2.77982 1.64556 0.594951 0.876088 1.3552 1.03854
1976 2.1562 2.54288 0.063751 1.80592 -0.691805 0.800203
482 2.83515 2.41161 1.32267 -0.143252 0.158258 0.0455601
1182 3.67384 2.3898 0.798343 1.91403 0.173213 1.33986
2346 5.03571 1.93035 0.508334 1.34612 -1.50098 -0.412434
3225 4.94103 2.74396 1.16851 0.32921 0.517241 1.11283
733 5.94424 1.92688 0.0608182 -1.61016 -1.23039 -1.72717
1862 5.71674 2.82424 0.445115 -0.402296 0.907869 1.0202
478 6.80776 2.18684 0.975236 1.55545 -6.72321e-05 -0.301124
3370 7.71416 1.62059 1.33582 -0.0106038 -0.987869 -1.522
726 7.92449 2.03176 0.342802 -1.29133 0.968668 1.48875
3636 8.51993 2.62171 1.08885 1.39778 1.44103 0.0858914
2485 9.59117 1.49852 0.698733 0.669219 1.56928 -0.901612
906 8.94893 2.34792 0.197591 -1.6136 -1.18617 -0.219709
3551 9.9 2.41075 0.45617 -0.753951 0.121771 -0.328871
209 10.6755 1.66841 0.164601 -1.08348 1.02299 -1.00886
274 10.9682 2.60421 0.500119 -1.18935 0.837698 -0.172791
2703 10.2197 2.3239 1.3864 0.565863 0.122962 0.997936
2959 12.6566 1.5115 1.11608 0.300097 -0.665366 0.556574
675 12.1228 2.60387 0.852646 -0.765624 -2.07807 -2.06048
753 11.4433 1.82958 1.04545 0.473067 1.29992 0.0444732
3925 13.6342 1.63504 0.421148 0.783618 0.970549 0.254742
1708 13.9872 2.78473 0.694516 -1.28505 -0.0453415 0.117044
687 12.9792 2.61584 0.217082 1.04968 -0.347146 -1.72335
1170 15.2788 2.2606 0.523474 1.12546 0.62667 -0.119487
547 14.4202 1.93852 1.01221 0.415529 1.87743 -1.6761
1437 15.3025 1.68782 1.42019 -0.446065 -0.0671352 0.284372
757 14.5794 1.57457 0.0574278 -1.94566 -1.1962 0.892851
3558 16.6431 2.7922 0.600422 -0.616213 0.209216 -0.743511
920 0.109873 3.63313 1.12207 0.155067 -0.0194988 0.272042
424 1.04537 4.13492 1.42211 2.1723 0.603467 0.384596
2418 0.586018 4.17102 0.21745 -2.62327 -0.965466 -1.86646
2480 1.86494 3.56544 0.634349 0.104897 -1.3535 -1.68367
1667 2.89139 3.08547 0.546346 -0.0356619 0.905629 1.76157
1524 4.13684 3.46022 0.894466 -1.12297 -0.202662 -0.0472441
2129 2.85585 4.08471 0.74321 0.0665886 -0.601932 -1.63485
1120 5.18834 3.64095 0.63147 -2.04199 0.0704372 0.220957
2735 6.53173 4.18058 0.0929993 0.866306 0.548802 1.12279
3843 6.85929 3.29919 0.835921 0.0710548 -1.72227 0.838459
3090 8.17277 3.05521 0.179146 0.646799 -1.51305 1.05507
2067 8.21387 3.68832 1.05981 -3.12869 -1.03582 0.835502
1188 9.29409 3.47357 0.54901 -0.0758453 -0.569002 -0.541902
1891 11.1707 3.70605 0.631942 1.18672 0.703273 -1.17203
2410 10.1561 4.2266 0.43088 0.603998 0.0612459 0.0113639
429 10.2187 3.30963 1.15021 2.47849 -0.760757 -0.586491
3460 12.6482 3.60295 0.300707 1.04242 0.312073 -0.0958907
2354 13.6924 3.92011 0.532074 -0.291263 -0.677136 -0.218616
3555 15.3772 3.38472 0.694871 -2.01521 1.87089 -0.989585
1605 14.5871 4.19053 0.997673 -0.503479 -0.528408 -0.0899805
3890 15.915 4.08487 1.34669 -0.499711 -0.0588104 0.406431
1805 0.815493 4.98258 0.880378 -0.230747 -0.373152 0.0105917
2685 1.80363 5.55251 0.153914 -0.196339 -0.210163 0.829674
2160 2.05882 4.71108 1.15098 0.235905 -0.682952 1.79929
912 2.59134 4.80664 0.106023 1.1637 -1.10462 0.21079
1151 1.53787 4.48983 0.208479 -1.39816 0.870011 -1.35352
465 4.05298 4.67695 0.651896 0.951875 0.359406 2.34834
2074 3.11452 5.4363 0.826567 0.668492 -0.745411 -0.617696
426 5.08273 4.74365 0.220023 -0.648678 -0.823959 0.953491
989 5.24855 4.91133 1.15806 -0.757766 -1.26273 0.923783
3919 6.17493 5.17894 0.526498 -0.969752 1.66673 -0.141485
3316 8.40035 5.09774 0.946914 0.0788763 -0.935606 -0.642534
3403 7.30558 5.18691 0.502557 0.22945 -0.0743322 -0.080897
1841 7.25399 4.30871 0.98363 2.56868 0.812562 0.220408
464 9.74436 5.08135 0.113985 -1.04117 -0.693257 -0.128216
1507 8.66952 5.69556 0.235356 -1.28742 1.92092 0.460059
3068 9.15555 4.38888 0.912226 -0.117749 -0.354517 0.0451645
3704 10.9987 4.84365 0.421923 0.437087 0.673056 -1.95708
2266 10.4435 5.5835 0.845674 0.112715 0.571949 -2.0414
2431 11.9245 4.3604 0.80388 0.059948 0.525723 0.985426
106 12.4033 5.51764 1.05658 2.787 -0.426546 0.273692
442 13.0705 4.65957 0.773592 -0.556808 -0.0563088 -0.323107
3440 13.9408 5.20568 1.24875 0.567993 -0.278528 0.661407
3637 15.0892 5.41347 0.84251 -0.15342 0.0362782 0.441006
1521 15.4196 4.3446 0.187818 -1.8458 -0.3123 2.29293
3161 16.661 4.72468 0.656988 0.798871 -0.0201908 -1.33232
132 16.8538 5.6489 1.23707 0.256534 -0.132642 0.119275
2720 0.0742884 5.92603 0.236473 0.115963 -0.685469 -0.844868
2789 0.217905 6.7724 1.39604 -0.106803 -0.539503 -0.378336
212 0.42628 6.88287 0.241721 0.432368 -0.666323 0.873119
688 1.09732 6.19993 0.847776 -0.219864 -0.372698 1.11367
3135 2.51918 6.24279 0.557762 -0.147228 -0.262264 0.435072
1436 1.61706 6.95202 1.36094 -0.399109 1.19378 -0.665661
2991 3.31835 6.84243 0.763362 -0.210955 0.868464 1.84864
213 4.2222 6.05329 1.31647 -0.378965 0.230528 0.760775
2007 3.93798 5.87367 0.272345 0.342002 0.716947 -0.345451
3254 4.35812 7.08925 0.697034 -0.104561 0.793809 1.39926
1531 5.39282 6.79114 0.688033 0.210531 0.164575 -1.77175
325 5.40287 5.82988 0.186485 -0.476503 -1.18974 -2.085
891 5.77168 5.84107 1.17845 -2.05402 -0.577639 -1.29495
3580 6.47538 7.12065 1.15144 -0.518909 0.846645 -1.6966
3260 6.48854 6.28304 0.331559 -0.0989275 -1.12471 0.409176
3009 7.67774 6.17118 0.5624 -0.48315 -0.10222 -1.4898
1943 8.66464 7.06963 0.654995 0.31393 0.335612 -0.742887
3796 9.55259 6.04882 0.80361 -0.00241293 -1.00304 1.31269
3057 11.2095 6.50636 1.19832 -0.168356 0.299203 -0.45323
1983 10.3603 6.45772 0.287933 0.659168 -0.847719 0.353561
3484 11.2835 6.09475 0.126952 0.107202 0.176413 -1.07368
1367 12.2861 6.55427 0.514176 2.14727 -0.130345 1.12915
1021 14.2028 5.87 0.451232 0.305134 0.239685 -0.702541
3065 13.4143 6.8416 0.423122 -1.14052 0.984387 0.619084
4000 12.8696 5.81314 0.1537 -0.198212 0.918098 1.39917
1290 13.0213 6.23501 1.29572 1.08681 2.01901 -0.050757
337 14.0167 6.87347 1.37737 0.0318446 1.30403 3.37049
415 15.3461 6.40713 1.21008 0.8137 -1.36646 0.517758
1024 15.8981 6.2174 0.37875 1.35355 0.562336 -0.165813
1235 0.199833 7.94051 0.201713 0.363076 0.365256 -1.40915
1005 1.68711 7.91592 1.03218 -1.30587 0.0436222 -0.160493
657 2.50366 7.25455 0.209744 0.319143 -1.61446 -1.55025
3923 2.85318 8.46851 0.915486 2.00168 -0.922285 -0.84541
2032 3.52994 7.76911 0.541491 0.720754 1.90289 -0.486895
1487 5.66468 7.82906 0.977895 0.332808 0.837012 -2.68324
2328 4.49638 8.24299 0.675415 -1.08807 -0.458745 -1.24452
190 6.57794 8.13322 0.349417 -0.746708 2.31271 0.122479
409 7.6181 7.39021 0.650776 0.781942 -0.716406 0.163557
2570 8.39105 8.0165 0.154051 -1.73781 0.599097 -0.990529
114 7.82149 8.3457 1.14717 -0.260631 1.74851 0.68514
1854 9.25353 8.13285 1.25747 0.604613 0.742237 0.892231
3978 9.67956 8.33301 0.170413 -0.388505 -0.468274 0.005936
631 11.359 7.39603 0.620171 0.251275 0.835067 -0.0295534
2248 10.8 8.53614 0.601503 0.721301 0.640807 0.596379
118 10.1349 7.64474 0.861851 0.984535 1.89524 -2.26141
3752 12.6393 8.04996 0.644267 -0.0364034 1.49606 0.487353
1212 11.9493 7.33021 1.42154 -0.514217 0.231927 -0.528713
2899 11.7366 8.3706 0.997696 0.920833 0.330501 -0.95389
3603 13.6715 7.7474 0.604526 0.695631 -0.295338 -0.159503
754 14.6501 8.10195 0.309753 -0.518032 -0.738151 0.111331
664 15.2897 7.19168 0.575154 -0.812151 -0.978765 -0.0329607
1937 15.4195 8.2133 1.01365 1.57844 1.01022 -0.590664
980 16.3967 8.4962 0.148552 -1.19928 -0.457378 1.75784
3723 16.4336 7.25913 0.84198 0.407738 0.105806 0.245765
1637 16.9311 8.14054 1.17274 -1.70123 1.16732 -0.33047
1633 0.098233 0.0649338 1.99741 -1.71553 -2.10453 -0.115523
2417 0.439185 0.907049 2.64942 -0.378782 -0.0877715 1.26441
3814 1.14909 0.161998 2.26735 -0.161076 0.35674 0.0781935
2425 1.87723 1.29056 2.3497 0.426186 1.53063 -0.706888
3688 1.56965 0.60784 1.43982 -0.0644423 0.206574 0.140409
775 2.88223 0.753245 1.43768 -0.131022 -1.11807 -0.9195
2472 3.38917 0.560539 2.21679 0.237816 0.446488 -1.4125
2693 4.64133 0.982858 2.40063 0.314227 0.156277 0.0668517
743 5.32685 0.442122 1.43034 0.212847 -0.613912 -0.354839
829 5.60541 1.07975 2.28815 -0.475075 -0.0503752 -0.554672
239 6.59231 0.899874 1.69595 0.781121 -1.14815 -0.187308
3115 6.85848 0.547974 2.78125 0.0427968 0.266244 0.0387023
335 8.48753 1.09838 1.83805 1.3202 1.07515 0.833588
3691 7.41566 1.29404 2.36125 0.307627 0.370826 1.00276
1712 7.93546 0.356649 2.5328 -0.461811 -0.130051 0.0967023
3088 9.34886 0.784738 2.49011 -1.48266 2.09315 1.24217
898 9.42113 0.646734 1.43871 -1.23168 0.334096 -1.14553
313 10.6929 0.274514 1.79628 1.3902 1.04719 -0.063522
1318 10.5297 0.788723 2.65841 -0.067075 0.811554 -1.62141
860 11.6824 0.994322 1.95124 0.934803 -1.48859 -0.242778
3664 12.7966 0.61474 1.94413 0.705833 0.902514 -1.05758
3960 13.743 0.894749 2.73346 0.216257 -0.568217 0.522769
917 15.5636 0.429539 1.56975 2.15374 -0.83636 1.15323
3121 15.5211 1.28786 2.49558 0.525804 0.0263354 -0.65075
2689 14.6697 0.66969 2.3433 0.0164362 -0.928186 -0.594844
1043 16.4822 0.88126 1.87669 -0.520336 -0.884652 -0.512372
3036 0.402661 1.89289 1.97636 -1.76827 1.48022 0.39597
4 0.0647737 2.72321 1.52763 -0.987505 -0.936876 -0.909018
1987 1.90741 2.33735 2.05369 0.478001 -2.2495 -0.119075
2734 2.7525 1.87718 2.40011 -0.433246 -0.31702 -0.031826
3373 3.69868 1.78267 1.56725 0.647829 1.81661 1.68375
504 3.83131 1.43417 2.68795 -1.08452 0.517928 -0.369525
1815 4.71286 1.55439 1.62614 0.547278 -0.230324 0.947293
3821 5.66787 1.76647 1.50144 0.179385 0.00952667 1.65343
992 4.37465 2.34405 2.58476 -1.11791 -0.23657 0.84227
1580 5.27518 2.34369 2.15248 0.0410597 0.286524 -0.166266
2081 6.76075 2.36861 2.05194 -0.171106 1.08323 -1.31234
1765 6.24422 1.72393 2.83565 -0.0195733 -0.740264 1.56087
300 7.91941 2.40578 2.53074 0.443489 1.01413 1.45828
737 8.49219 1.59538 2.84033 -1.09839 0.247057 0.914625
1980 9.15361 2.47635 2.72614 -0.405751 -1.61925 0.184609
1090 10.1342 1.57757 2.09334 0.35478 -0.214047 -0.563905
2640 10.7095 2.55441 2.63947 0.0220963 -0.0192239 -0.257171
3954 11.9636 2.61446 2.37798 -0.703465 0.258239 -0.680595
2946 12.5235 1.58749 2.37727 -1.46571 -0.245119 0.43245
2077 11.5227 1.62906 2.70687 -0.579784 -0.49653 -0.470407
3020 13.5267 1.79665 1.8982 0.435507 -0.864228 -0.488541
844 12.8795 2.53978 1.5712 -2.36285 0.324583 -1.1945
2434 13.2657 2.80079 2.55403 1.35323 -0.837814 0.354647
359 15.5232 2.473 2.20838 -0.00731154 -0.359883 -1.27256
2237 14.4891 1.68709 2.18017 -0.837457 -0.574945 0.929036
3200 16.7237 1.6262 2.63112 1.06145 1.06876 -0.76699
1258 16.3687 1.92243 1.71283 1.4972 -1.09008 -0.682204
3841 16.4251 2.66711 2.46208 0.907778 0.63416 0.0732408
797 0.867676 2.99921 2.13217 -0.254038 0.145708 0.82364
47 1.78264 3.70871 2.03327 0.831373 -1.03594 -0.205434
1414 2.68074 3.99449 1.77226 2.16528 -0.352844 -0.485179
2867 2.63847 3.80021 2.77557 1.04458 0.40298 -0.323444
1879 2.91202 2.91762 2.14377 -1.506 -0.296698 1.39345
3119 3.61646 3.49638 2.5825 -0.00973275 1.1364 -0.333097
3407 3.84981 2.85898 1.68908 -0.611463 0.567078 -0.0649939
460 3.82469 4.23568 1.75423 0.473234 -1.09522 1.53143
1452 5.58166 3.96683 1.65778 0.151865 -0.708348 -2.90513
2331 4.70395 3.59483 1.92798 -0.909239 0.0437306 -1.86996
1383 5.93125 2.9464 1.67366 -0.148886 -1.25355 0.626665
1760 6.40537 3.80647 2.14147 0.0540059 -0.505925 2.01057
16 7.57368 2.95554 1.43157 0.454649 0.674264 -0.734701
2775 8.47157 3.34111 2.2879 0.630452 0.756657 -0.842334
1408 8.3431 4.26188 1.84069 -1.28489 -0.00875941 -1.38517
191 7.35562 3.37551 2.41658 1.23904 0.560487 0.327615
3660 9.14795 3.62908 1.57476 0.054359 -0.327154 -0.832363
321 9.1646 4.09178 2.78643 0.394395 1.84178 -0.709245
19 9.9238 3.57279 2.20357 -0.0745338 -1.1075 1.41224
3627 11.3234 3.05611 1.61658 0.309393 0.456497 1.15577
1413 10.471 4.18938 1.61366 -0.799825 -0.515475 -0.531658
3204 11.4844 4.03439 1.8614 0.498997 -2.28901 0.541513
587 12.368 3.45797 1.45758 -0.401759 -0.705006 0.69963
3802 12.4365 3.61943 2.5444 -0.63768 -0.432738 1.49767
80 13.7146 3.36978 1.66948 -0.705829 0.140306 0.049142
231 13.8364 3.96411 2.82068 -1.00972 0.565862 0.927613
1648 14.6264 2.85473 2.69412 -1.50972 -0.782132 0.100273
339 14.8012 2.95323 1.58789 -0.091726 0.0462377 -0.552519
1718 14.7766 3.93184 2.2208 -0.953077 0.446408 -0.212585
3247 15.6553 3.4039 2.71944 0.515078 0.0661008 1.75682
2826 16.1478 3.02333 1.46969 1.32273 -1.64795 -0.562741
2756 16.7341 3.54629 2.10827 -0.232128 1.45254 -0.791808
1710 0.0596753 4.6723 1.73593 0.758276 -0.279897 1.59457
2045 0.967652 5.05847 1.98389 0.452901 1.16344 1.70203
2976 1.96017 4.69497 2.43677 1.30933 0.881274 -0.921186
2405 2.86217 5.0921 1.93041 -0.0559605 -1.01251 1.42585
3801 3.83048 5.55073 2.28821 0.302762 1.59142 -1.22629
1989 3.14402 4.82634 2.82451 -0.459968 -0.822619 1.83901
342 4.16571 4.43523 2.7352 0.744153 -0.823062 1.3963
1992 5.07199 4.90221 2.18888 -0.982645 -0.154343 0.111747
316 5.62684 5.58371 2.82027 -0.845967 1.73009 -0.811032
237 6.28885 4.83079 1.52807 -0.324562 -0.401059 0.0421889
2788 6.20747 4.69434 2.55145 2.38763 -0.987405 1.56936
3007 7.53587 5.40017 2.56683 -0.289376 -1.23534 -0.0209538
3087 7.40266 5.38676 1.52793 0.96085 0.380426 0.0665788
1438 7.37136 4.49126 2.22823 -0.808512 0.45626 -0.355647
1286 8.92713 5.69023 1.70527 1.00581 -0.590795 0.614109
2183 8.76281 5.18374 2.64662 -0.0793762 0.74284 -1.38114
1064 9.69624 4.83471 2.13659 1.32096 -0.395155 -0.480042
2853 10.7965 4.9506 2.3024 1.12803 0.0813369 -0.966779
811 11.4379 5.04953 1.45109 -0.36889 -0.579794 1.22215
2846 12.4801 4.46357 1.69924 1.79123 -0.459552 -2.31091
1548 11.7251 4.48489 2.74249 -1.81754 -0.810979 -1.37992
3911 11.7968 5.48661 2.51706 1.18772 -1.8188 -0.104756
1246 12.9436 5.34604 1.90705 1.18079 -0.0616475 -0.17034
677 13.584 4.38425 1.72269 -0.858246 0.116613 -0.316208
1690 12.8921 4.50481 2.75826 -0.973657 -1.43574 -1.73663
832 13.8789 5.2493 2.31226 1.33237 0.929635 1.21831
3672 15.1506 4.7292 1.64573 -0.540234 1.02894 -0.137211
2800 15.0684 4.95967 2.75335 1.01611 -0.754077 0.959331
401 15.8116 5.41545 2.08823 0.0899281 1.59347 -0.324895
805 16.3201 4.40744 2.45005 0.0707094 1.69361 -1.49688
1214 0.352009 5.91723 2.1666 -1.13765 -0.0760725 1.5653
390 1.40393 6.03034 2.29674 0.491547 0.109773 -0.812843
3910 2.29857 5.95969 1.47026 0.273028 0.0136189 0.999105
2722 2.19253 6.53718 2.67424 0.26426 1.22813 0.724614
3267 3.06162 6.54794 1.98 -1.04298 0.103666 -1.07168
498 5.51536 6.73274 1.69527 -0.279227 -0.375895 0.605101
2323 4.49276 6.73076 2.04076 1.67168 0.126474 -0.856073
119 4.85674 5.87309 2.06414 -0.88292 1.36175 1.1038
1265 5.22066 6.7645 2.76635 -0.659818 0.839471 -0.888781
562 6.67519 6.04359 1.82543 1.18163 2.14884 -0.313412
3737 6.15557 6.51527 2.45583 2.09421 0.671555 1.71372
2079 8.42194 6.45766 2.37848 1.8948 0.550068 0.617001
2774 7.59467 6.87803 1.5185 -0.203418 -0.141535 -0.663325
2302 7.13967 6.71837 2.67846 -0.12749 -0.197088 0.202115
1747 9.49453 6.91898 1.43832 -0.81356 -0.7509 0.869637
3837 9.67305 5.71803 2.77552 -0.248078 1.77983 0.883867
2798 9.52956 6.92783 2.53399 -0.521958 -0.751825 -1.46347
3011 10.549 7.0892 1.82342 0.480848 -1.45412 0.159328
174 10.1092 5.87339 1.87866 0.247622 1.00232 1.14244
3433 11.3157 6.43879 2.4184 -0.865998 0.439062 -2.51294
1503 12.3501 6.65359 2.34089 -0.636877 -0.719742 0.349874
639 13.6082 6.28973 2.24225 -0.414973 -1.14289 -0.915837
1909 14.6169 5.96256 1.77702 -0.935507 0.161111 0.253513
2724 15.5767 6.46202 2.50602 1.57963 1.76213 0.44123
545 16.3769 6.40961 1.89828 -0.850837 0.731685 1.40322
2010 1.27459 7.25537 2.45466 1.14718 -0.511265 -0.201673
667 0.731878 7.65236 1.60613 -0.383434 -0.537581 -0.341021
524 0.366298 8.20982 2.42853 1.53755 -0.731191 -0.99631
552 2.74724 7.50337 2.80791 1.31244 -0.940339 -0.252521
3250 2.63512 7.42218 1.45599 -0.205029 -1.48463 -0.0590216
92 2.13889 8.10045 2.38167 -1.06028 -2.70233 1.13606
1495 4.02063 7.963 2.37972 -1.56586 1.88513 -0.124631
3760 3.72215 7.38387 1.6254 0.824611 0.971981 1.55679
602 3.07204 8.44853 1.99325 1.03849 0.0903219 1.71836
3957 4.82234 7.64754 1.54454 -1.08632 1.05312 -0.253611
2550 5.3634 8.41981 2.38116 -0.578413 -0.443798 -1.63445
1827 6.40534 8.44133 2.49101 -0.108897 -0.993026 1.50445
204 6.9533 7.85545 1.69366 0.108379 1.23968 -0.959421
2966 7.86873 7.91947 2.42103 -0.710306 0.107647 -0.655096
265 8.91034 7.89807 2.6922 -1.03664 0.0561547 0.373906
765 8.56516 7.47937 1.60895 -0.403705 -0.0357805 -0.155442
3800 9.68812 7.82685 2.07219 0.278919 -1.94942 -0.242023
2664 10.9647 8.16202 1.56682 1.24618 -0.13179 -0.571621
1774 12.8201 8.29416 1.54105 -0.556973 0.219721 0.849291
189 12.0775 8.04797 2.23086 1.06479 1.03288 2.56884
2933 13.9452 7.98739 2.48796 -0.157377 -0.30477 -1.21719
2577 13.2549 7.49388 1.77354 -0.283546 -1.22223 0.601248
1845 14.3881 7.86191 1.55121 0.0654285 -0.741576 -1.83335
1303 14.5432 7.12551 2.19042 1.34818 1.23717 0.752717
3470 15.1408 8.08408 2.30287 -1.37173 -0.959081 0.76864
3642 16.0602 8.48834 1.8821 1.3869 -2.54931 -0.583489
2293 15.7803 7.31833 1.81958 0.695832 0.276846 2.1807
2050 16.7407 7.47844 1.99278 -0.0794933 -0.238837 2.2275
2389 0.767972 1.06595 3.99683 0.589495 -1.85291 -0.0337541
71 2.6432 0.920774 3.09186 -0.114808 -0.727368 1.6317
983 1.7657 1.18221 3.895 -0.0456744 0.54033 0.276499
3768 1.52406 0.24316 3.32047 -2.81323 0.488787 -1.84589
1113 4.17272 0.851654 3.44631 -0.225368 -0.723776 0.820433
871 3.34195 1.31266 3.85623 -0.576521 -0.598483 -1.14456
2834 5.20193 1.04912 3.72129 -0.107696 -0.923025 1.00897
2195 5.9307 0.460327 3.2434 1.61634 -1.09753 0.103968
2751 7.20998 0.565147 4.22077 0.83217 -1.45088 0.148379
593 8.09003 0.875416 3.60166 -1.17151 0.49938 -0.0171638
741 9.40113 0.500469 3.4473 0.129562 -2.21515 -0.833085
2363 9.87772 1.18869 4.23694 1.87276 -0.279127 -0.692031
3347 10.7038 0.327719 3.70555 -1.02253 1.49115 -0.340887
144 11.5801 0.126119 4.13395 0.448203 -2.41109 1.02553
3891 11.6529 0.544994 2.93247 -0.00250545 1.1816 1.52628
3472 12.282 0.810229 3.67302 0.906697 -0.138183 -0.883223
3853 13.0838 0.311285 3.20952 -0.10699 0.887606 -1.99681
3924 14.1478 0.853065 3.75529 1.33316 0.590723 -1.22685
975 15.5747 0.544141 3.14056 -0.81062 0.158172 0.703946
1535 15.1243 1.04572 4.04396 0.375925 -0.954278 -0.036579
1242 16.8515 0.390166 3.15201 -2.1926 -1.61141 0.930911
1887 16.282 0.76215 4.12668 0.892488 0.0449057 1.56801
2154 0.926016 1.7348 3.17602 0.188889 -0.0540955 -1.28093
2847 0.186809 2.50204 3.14175 0.447604 1.08935 -0.306793
773 1.99092 2.01133 3.04544 -2.55748 0.876662 1.04562
1178 1.54394 2.45703 3.87406 1.41678 0.841231 0.269682
2784 2.56389 2.06576 3.99999 0.148105 -0.956795 -0.613873
1426 3.70782 2.67235 3.34023 -0.23861 -0.373481 -0.33341
1041 5.1079 1.69309 2.98806 -0.548083 1.74005 -1.11415
476 5.4486 2.54802 3.57571 0.916673 0.26536 -0.73691
1651 4.49313 2.19352 3.72587 -1.92456 -0.0032331 -1.28888
2804 7.08402 1.46556 3.47263 -0.766593 0.112159 0.360279
2374 6.95997 2.59182 3.14855 -0.761552 -1.32499 0.482104
2888 6.28763 2.00115 3.89167 0.154289 -1.03565 -0.50174
2750 7.89061 2.11133 3.51815 -1.37444 0.971691 0.996455
3579 9.45798 1.78679 3.52245 -0.83997 -0.867528 0.47333
1842 8.74143 1.50327 4.27273 -1.70275 0.425698 -1.47002
3374 8.74941 2.58026 3.73704 2.26073 -1.90849 -0.79233
3659 10.6503 1.54371 3.31652 0.188219 -0.819553 -0.217283
270 12.806 1.82103 3.45746 -1.88806 0.0525171 -0.607729
3462 12.4332 2.79522 3.50139 0.11137 0.692451 -0.849704
3669 11.9268 1.64519 4.11636 0.372669 0.993729 -1.53185
2564 11.4028 2.42807 3.65733 -0.952859 0.67885 0.335716
2451 13.8494 2.0778 2.96907 0.0349536 0.568322 -0.185841
434 13.8021 2.06707 4.02095 0.953951 0.838064 2.11045
1883 15.6586 2.64119 3.36388 0.0568043 0.485129 -0.552046
1829 14.8282 1.7417 3.2904 -0.276644 0.655351 0.942719
3615 15.8665 1.44168 3.48428 -1.70044 -0.0635369 0.899319
956 16.5838 2.77518 3.97115 0.782877 -0.316365 0.719843
735 16.8562 1.59252 3.69922 -0.564363 -0.536301 -0.16604
3777 1.20819 3.14541 3.09924 -1.47386 0.558634 0.623096
262 0.240591 3.53926 2.86864 -0.534438 0.518625 -0.853419
2951 1.07353 4.2629 3.20705 -0.422773 -0.885749 -0.268145
2162 0.681902 3.10301 3.91962 -0.479148 -2.57791 -0.236064
446 1.01123 4.16401 4.26996 -0.852638 -0.731199 1.00276
60 2.48328 2.88898 3.1951 0.395455 1.23408 0.998163
2945 1.74932 3.69085 3.85288 0.195711 -0.890105 -0.706216
1816 3.41813 4.06009 3.50821 0.342128 0.0840273 1.04441
495 2.9244 3.0393 4.172 -0.0344988 0.148595 1.43866
199 4.60802 3.30096 3.21322 0.137841 -0.883205 -2.22511
2488 5.48056 3.93242 2.88257 -0.387768 -1.0245 0.220422
717 4.48541 4.26254 4.0647 0.0354948 -1.32253 0.532584
618 5.53837 3.94255 3.83371 0.336922 -0.383559 -2.1079
3363 6.59638 3.67754 3.38803 0.490743 -0.756251 -0.350956
2588 6.00269 2.9836 2.8559 -0.471287 -1.16747 -0.305933
525 7.71148 3.33021 3.54642 0.795799 1.66917 0.131503
1233 9.83828 4.15147 3.88019 -0.0156452 -0.927298 1.21093
1035 9.50081 3.24502 3.44221 0.0477339 -0.20946 1.08103
2808 8.73096 4.19407 3.91544 1.79906 0.945029 0.480385
2916 10.8259 3.65118 3.72096 -0.517327 0.440141 0.412676
888 11.4483 3.33578 2.89707 -0.0570462 -0.789948 -1.1099
2854 11.7138 3.7572 4.26095 1.22227 -1.16157 -0.762882
3829 12.6702 4.13153 3.76881 1.08327 -0.282389 -0.97679
3529 13.5358 3.09971 3.48858 0.0134041 1.57984 0.435959
1015 14.7459 3.09725 3.74505 0.44374 1.79028 2.43148
3082 17.0056 4.01703 4.03187 -1.1385 1.23074 -0.760313
421 16.5208 3.61946 3.21725 -1.41026 1.6433 0.511925
3844 15.8663 3.83163 4.0336 -0.915039 -1.00211 -0.0680657
941 0.583334 5.20807 3.92254 -0.497883 -0.221083 -0.834367
1003 0.893116 5.32668 2.88071 -1.12611 -0.84499 0.695733
2883 0.0829608 4.62 3.14926 1.20019 -0.0798078 -0.099392
686 2.22943 4.62815 3.3894 -1.32386 0.243186 0.88599
1527 1.57706 5.17847 4.20738 0.522043 0.474617 -0.352231
3039 2.74946 5.52955 3.88809 0.770786 -0.460621 -0.425369
3300 3.77728 5.42024 3.45871 -1.22125 -1.02189 -0.237357
1864 4.90655 5.38559 4.18818 -1.08846 0.194404 -0.972345
1402 5.12528 4.88695 3.31605 1.54195 -0.233056 1.24561
273 6.60862 5.6561 3.08274 -0.822049 0.346827 -0.186361
2369 6.99945 4.76767 3.33167 0.161057 1.67518 -0.224877
1396 6.04198 5.08962 3.81984 -0.595947 -2.21075 1.33063
35 8.08888 4.48701 3.12887 0.0416539 0.155279 -1.04823
89 8.04271 5.39869 3.83883 -1.1233 1.3544 -0.0914801
745 9.40024 4.91251 3.37168 0.43973 -0.0503869 0.137009
2902 10.2578 4.37574 2.93475 -0.496811 -0.0121245 -0.75149
889 11.0346 5.68226 3.16686 0.519264 -1.3865 -1.23196
506 10.7092 4.77781 3.84838 0.16452 0.263479 1.28457
1269 11.9583 5.18188 3.67282 0.90777 0.37812 -1.03431
2537 13.5555 4.55501 3.78284 -1.17415 1.24239 -1.78558
978 13.6993 5.6851 3.36471 -1.13662 0.487945 1.38584
2748 12.9663 5.30102 4.04208 -0.641523 -0.340724 1.39614
2551 14.7625 4.29461 3.88991 0.45511 0.336045 -0.936129
3427 14.3399 5.21843 4.02017 1.13717 -1.36177 1.20375
2412 16.0139 4.84062 3.53413 1.30868 -0.976688 -0.604049
1400 0.131895 6.99064 2.92515 -0.0350467 -0.425312 2.39649
1770 0.328652 6.90546 3.98699 -1.13812 1.03537 -1.35162
491 0.255793 5.97214 3.29797 -0.215742 0.330481 0.929229
2035 1.0632 6.72051 3.2541 -0.270486 -1.4848 0.902903
1332 1.76362 5.93601 3.46987 -1.21505 1.44337 -0.773187
2446 2.28353 6.62037 4.00445 0.772602 0.636384 -1.28249
549 3.06178 5.87582 2.86154 -1.01316 -0.00746378 0.16475
779 3.16818 6.90874 3.57932 1.72345 -0.507951 -0.293853
3651 3.84683 6.7698 2.89253 -0.499023 0.07494 -0.506681
1622 3.87629 6.40107 3.94261 1.0636 -0.0980751 -0.0766131
2213 5.13702 7.06555 3.70771 -1.79989 1.27409 -1.46622
2782 4.56326 6.15338 3.16502 -1.45512 -1.55912 -0.0197094
969 6.58505 6.90601 3.5233 -0.260532 0.444008 2.28272
1142 5.72094 6.16663 3.72357 0.807128 0.73114 -0.937478
1847 6.90705 5.97963 3.95518 -0.476878 -0.058056 0.354294
3144 8.44607 6.99763 3.26664 0.669303 -0.387854 0.30067
3101 7.75799 6.10745 3.24304 -1.5219 0.249012 1.03884
1786 7.57779 6.99246 3.82537 0.906362 0.702983 0.101756
501 8.7943 5.86978 3.44675 -0.787281 1.65087 1.0578
1464 9.61852 6.59706 3.6591 -1.40703 0.00179527 0.100624
3773 8.68468 6.56851 4.25167 1.00516 1.85461 -1.75675
2633 10.4446 6.45384 2.91096 -1.16672 -0.397915 -1.78602
2303 10.7382 6.78808 3.87008 1.02359 0.0168384 -0.910479
1661 10.3189 5.74717 4.01172 -1.26121 -0.185809 -0.309578
136 11.8186 6.33535 3.32493 -0.764098 2.29576 0.644924
1050 12.8344 5.97922 2.93638 2.88938 0.524991 1.43165
3369 12.9705 6.44109 3.82665 0.9451 1.26998 -0.651781
3499 14.1973 6.65045 3.64806 0.706328 -1.124 1.13675
3450 15.3139 6.01041 3.46947 0.258038 0.428905 0.345938
932 14.4804 6.08915 2.87231 0.282167 -0.205131 -2.85161
904 16.4854 5.78489 3.93688 -0.151756 0.309146 -1.47854
2567 16.3303 5.95099 2.9934 0.797081 -0.351905 -0.83195
771 1.00047 7.85273 3.26345 -0.752152 2.48419 0.437508
1136 0.159806 8.09856 3.87204 -1.86706 2.42555 0.265266
1640 1.89075 7.47347 3.4466 0.173901 -0.599825 0.697914
531 3.38589 8.5127 3.00376 -0.0609532 -1.67057 -0.693441
744 2.93732 7.90742 3.98479 0.614837 0.58902 -0.885456
1833 4.18367 7.49026 3.56442 -0.45586 0.602648 0.140581
247 4.76815 8.38002 3.28508 1.46883 1.12024 -0.685854
3983 5.27018 8.29035 4.26876 0.131159 0.229231 -0.298757
900 5.80657 7.59686 2.94683 1.35112 0.573439 -0.597814
453 7.01715 7.69694 3.0542 1.57576 -0.127965 -0.801902
2891 8.35456 8.39563 3.76076 1.26637 -0.882375 0.0140209
264 7.36283 8.1377 4.23505 -0.513982 -0.157067 0.846447
473 9.05958 7.65025 3.71689 -0.0550957 -0.586169 0.283137
575 9.9802 7.45389 3.2498 1.17001 -0.277325 1.71603
1626 11.3607 7.41845 2.91728 -1.1187 0.247182 0.400645
3622 10.8428 8.13675 3.98065 0.11154 1.66855 1.46854
2919 12.4738 7.37655 3.66042 -1.37692 -0.340407 0.938024
3136 12.8243 8.18224 4.19423 0.495113 0.492821 -1.09342
2924 11.7782 8.16666 3.62299 0.351101 -0.945747 0.159556
1381 12.9574 8.30231 3.09687 1.24365 0.138144 -0.0538581
707 13.5052 7.37519 4.09838 0.729489 -0.185478 0.460532
940 13.3222 7.20833 2.93747 -2.07085 -0.487324 -0.41777
188 14.4767 7.65032 3.32801 -0.447752 1.56331 0.134575
2903 15.1455 7.39962 4.16275 0.997181 -0.455508 1.25096
843 14.9645 8.40871 3.90497 0.0284601 -0.988368 -2.31735
2646 15.7933 7.53284 2.92948 -0.873965 0.687465 -0.16734
998 16.4902 7.2991 3.62139 0.139728 2.0404 -0.587965
49 15.929 8.05818 4.04052 2.25315 -0.640869 0.268722
3966 16.4449 8.41087 2.87006 0.609425 -0.832975 -0.151445
2433 0.544671 0.475169 5.25096 0.392348 0.538484 -0.577957
1612 1.13689 1.25926 4.94823 -1.43824 -0.805952 0.147468
714 1.84235 0.272327 4.4187 1.61867 0.350898 -0.372592
456 2.32244 0.692433 5.25463 0.45361 0.124191 1.50306
2069 4.14698 0.952016 5.43942 0.846209 1.11868 0.991513
958 2.9758 0.494499 4.34512 -0.302147 1.14415 -0.424486
2165 4.18318 1.24833 4.42387 0.257316 0.82136 0.209035
1209 5.47897 1.15885 4.96173 0.599238 -2.15449 -1.68465
3457 4.69002 0.250606 4.70413 0.30667 -0.212853 0.326485
2398 6.05287 0.231021 5.10506 0.997953 -1.3189 -0.315684
3641 6.21004 1.15033 4.3543 0.448275 0.0236375 0.581117
3117 7.11257 1.25407 5.08947 -0.312302 0.602577 -1.75912
1102 8.08765 0.0672474 4.34498 -0.66516 -0.517212 -0.145309
173 8.16671 1.3307 5.20246 -0.488299 0.871527 -2.59001
724 7.74672 0.383022 5.50054 0.0210157 -0.241458 0.0793931
662 8.91346 0.644288 5.22688 -0.0314817 -1.48025 0.907439
3643 9.86454 0.878023 5.41089 0.551013 -0.137538 -0.977559
2497 9.57277 0.202186 4.46688 -0.00640565 -0.484636 0.389609
3179 10.8108 0.497917 4.79628 -0.722063 -2.28467 -0.616411
418 12.1179 0.862246 4.72211 0.0809581 1.95056 -0.375376
892 11.5959 0.339179 5.48095 -1.85865 1.14792 0.26315
2068 12.77 0.651088 5.48298 -1.15152 -0.986041 0.00702573
3836 13.789 0.407526 5.32446 -0.926487 2.37981 0.837046
1621 13.1651 1.20139 4.4511 -0.607264 1.34696 -0.474947
951 14.2885 1.41034 4.9118 -0.592543 1.1658 1.78458
3334 14.6243 0.24866 4.63198 -2.08569 0.406683 1.54462
3145 17.0841 1.23092 4.78923 0.959627 -0.0615191 1.58696
3761 15.9496 0.848333 5.17435 -0.928047 -0.230087 0.705683
895 0.796683 2.11769 4.49059 0.700729 -0.843603 1.00647
355 0.190309 2.7253 4.98853 1.16021 -1.5285 0.606187
2944 1.14077 2.50848 5.48906 -1.21369 0.504343 0.0867022
3438 0.389995 1.73069 5.57226 -1.62822 0.200718 4.72933e-05
557 2.01777 1.95903 4.9987 -0.521457 -1.08748 0.544343
2487 3.59426 2.19599 4.41142 0.696666 -1.58219 -1.07789
520 2.98606 1.59592 5.11056 0.430106 -1.90596 1.57521
1205 4.24419 2.28865 5.21792 -0.478584 0.0568822 0.199507
2532 3.17115 2.83337 5.23483 1.27265 -0.0231027 -0.227022