ITEM: TIMESTEP
70000
ITEM: NUMBER OF ATOMS
4000
ITEM: BOX BOUNDS pp pp pp
0.0000000000000000e+00 1.7099759466766969e+01
0.0000000000000000e+00 1.7099759466766969e+01
0.0000000000000000e+00 1.7099759466766969e+01
ITEM: ATOMS id x y z vx vy vz
2842 0.398791 0.988272 1.3876 0.407544 0.21189 -0.962423
3368 0.49711 0.543269 0.445488 -0.492857 -0.961816 -0.694806
791 1.31841 0.13427 0.0388634 0.650628 -0.839566 0.166402
465 2.45332 0.909661 0.459117 0.362777 -0.259026 0.0189147
909 1.47585 0.985768 0.478143 -1.02569 1.3203 1.43308
2637 1.47352 0.244672 1.18528 -2.57846 -1.78687 -0.284255
3888 3.48969 0.906378 0.631412 0.651723 1.13199 -0.741523
2346 4.61905 1.31064 0.257169 -0.340144 1.20401 0.108692
295 4.48252 0.669165 1.12922 -0.478442 0.469123 -0.236959
1102 6.16662 0.547406 0.523752 0.413451 0.591411 -0.555718
588 7.07516 0.549771 1.02649 1.45778 0.888455 1.26795
3669 8.16393 0.853375 1.10432 2.69578 -1.38811 0.776702
2751 7.40227 0.848074 0.0343812 -1.13917 -0.735153 -1.82409
2324 9.50466 0.680769 1.11763 -0.0266394 0.638237 0.893441
3122 8.74346 0.312035 0.379105 1.55526 0.523922 0.0744711
2315 11.2699 1.00986 0.968484 0.442155 -1.26884 0.250562
1486 10.4669 0.324723 0.908581 1.28218 -0.199115 0.124711
1166 12.2338 1.01943 0.385562 -1.76467 0.0905201 -1.07308
2537 11.5777 0.110051 0.395752 -0.179379 0.102338 0.596935
3174 14.177 0.487768 0.720822 0.395977 0.334097 -0.903738
1789 13.1795 0.971302 0.691879 -1.21225 0.0552194 -0.262996
2986 15.6261 1.30375 0.472576 -1.54148 0.280429 -0.304707
3890 15.6236 0.129907 0.939451 -1.27818 0.440253 -0.255381
474 16.4959 0.534429 0.522986 0.110931 0.428383 2.0878
775 0.78435 1.66031 0.783355 0.647383 1.84808 0.0980164
1461 0.427076 2.73159 0.490469 0.385327 0.980468 0.42589
912 1.32103 2.54284 2.60529e-05 1.4266 -0.609552 -1.10414
2050 1.9235 2.01444 0.72375 0.560132 -1.57879 0.716207
2820 2.55315 2.76192 0.134626 -0.2341 -0.0585699 -0.0403652
3713 4.03397 1.75048 1.24213 -0.818227 -0.372573 1.56031
2448 3.13492 2.46273 1.40486 -2.20345 0.637862 1.04189
3990 2.92128 1.47992 1.18434 -1.01094 -0.0231022 -1.36657
3986 3.46681 1.87795 0.00703386 -0.371576 -0.0521174 0.96215
3688 5.23669 1.96133 1.31776 -0.806632 -0.856781 -0.640296
3403 4.7865 2.46102 0.355269 -0.683785 0.598937 -0.0662815
3115 5.7158 1.53364 0.22399 -0.00771276 0.738153 -1.08469
1383 6.07737 2.53194 0.305517 -0.265916 -0.537127 0.0444332
2217 6.62295 1.62807 0.995264 0.456517 0.38377 -0.328881
1365 8.34919 2.10767 0.735332 0.212256 -0.0120103 0.575312
1524 9.38368 1.87745 0.665614 -0.834746 -0.275593 -0.501366
2246 10.3332 1.66148 0.934736 -0.486789 -1.45479 0.975665
844 12.6848 1.96438 0.847175 -0.454208 0.105004 0.906072
2818 11.6145 2.28079 0.18783 -1.22822 -0.547487 -0.613607
689 11.5483 1.97791 1.35971 -1.43433 -1.5432 -1.23003
3020 14.1632 1.49777 0.889576 -1.52805 -0.346585 3.27355
3460 13.6257 2.34829 1.19436 2.2043 0.400412 -0.353742
3008 14.1623 2.39374 0.321492 -0.182851 1.86765 -1.65618
3061 15.1457 1.92407 1.15212 0.674055 1.83851 -1.49793
677 16.9081 1.97044 1.09257 0.716065 -1.25711 -0.171813
595 15.935 2.5623 1.19841 -0.262051 0.749114 -1.11485
38 16.2723 2.24289 0.247395 -0.438816 -1.35558 -0.0367161
2160 1.21072 3.58131 0.770004 0.0650182 0.234916 0.0757721
2951 0.296263 4.04007 0.511342 -1.00442 0.734482 -0.389482
779 2.74448 3.63689 0.661035 -0.761345 1.04811 1.05253
3254 3.84852 3.15133 0.828404 -1.24137 -1.49996 -0.37584
1639 3.27 4.25492 1.31232 0.630245 -0.504122 -1.32343
1976 5.03694 3.25085 1.35925 -0.302235 0.658279 0.256871
415 4.28274 4.20544 0.602288 -0.565377 0.357263 -0.586803
1188 5.06479 3.45983 0.428495 -1.39248 0.0424707 0.174491
730 6.71816 3.33505 0.723539 1.37009 -0.709821 0.803974
1716 8.13539 3.23023 0.694323 -0.514836 0.784206 -2.13569
3031 9.03135 3.60887 0.192697 -0.491471 0.283684 -0.585912
1879 9.06871 4.17048 1.11994 0.290581 -0.377634 0.829411
634 11.1576 3.82955 0.421101 0.988151 -0.239554 0.0885741
1438 10.0791 2.86948 0.138245 -1.28026 -1.27026 -0.371218
1831 10.1854 3.65349 1.05658 0.707478 -0.477547 -0.885717
113 10.94 2.9283 0.848832 0.221915 0.261435 -1.71985
3954 12.1695 3.6293 0.172039 0.0013956 -0.421996 -0.267718
1535 12.0954 2.9427 0.994704 -0.219933 -2.4131 0.0762104
1972 14.1356 3.88787 1.1178 -0.473267 0.960307 1.34111
745 13.6651 4.27468 0.366618 1.12011 -0.0847989 -0.725622
2668 13.4478 3.24978 0.713377 1.60962 0.259636 1.83196
3594 15.3609 3.37589 1.01021 1.85259 0.210909 0.447039
1437 15.0154 2.926 0.217334 1.51023 -1.79701 0.562198
2564 14.7888 4.08072 0.0392859 0.231529 0.847446 -1.0155
571 16.6038 3.22968 0.5747 -0.810336 0.457164 -0.125346
935 15.829 3.63393 0.0481411 1.3818 -1.86828 0.821147
1601 0.83901 5.47405 0.035473 0.680189 1.56709 -0.0236748
1393 0.439939 5.13685 0.943167 -0.81027 0.196769 -1.29417
1612 1.49289 4.79562 0.400021 1.03867 1.0453 -0.135658
3966 2.45706 4.84251 1.03733 -1.45959 -0.438918 0.645774
2724 1.86807 5.68213 0.973695 0.738257 0.455554 -0.720742
954 3.71665 5.03968 0.914102 -0.43344 0.785241 -1.56694
1880 2.87807 4.66796 0.0352402 -0.528847 1.00846 0.302995
2374 5.3826 4.61979 0.953978 -1.69259 -0.129875 -0.244528
2040 4.78021 5.37833 0.543784 -0.258941 -0.416871 -0.162091
2349 5.90774 5.5542 0.251097 0.53571 -0.883176 -0.189251
686 6.22915 5.19169 1.33982 0.662654 2.83914 -1.03058
3953 6.51653 4.64295 0.367801 -0.401624 0.177902 -0.989332
1264 7.20001 5.40533 0.0458487 1.35594 1.56185 -1.68618
3944 8.37278 5.28568 1.17189 0.151114 -0.480019 -0.443682
992 7.66725 4.42701 0.75543 0.0477915 0.567683 1.15004
3443 9.90477 4.89336 0.0600398 0.546486 0.27128 -0.202786
3009 8.88354 4.95326 0.0853719 -0.037691 -1.12734 -0.512177
321 9.57268 5.00449 1.09412 0.205191 1.00326 -1.24323
1476 11.0133 4.60529 1.29899 0.605884 0.467367 -0.250691
1919 10.9636 5.18771 0.494171 1.0312 0.934668 0.205058
3085 12.2244 4.42799 1.06127 -0.398221 1.14861 1.04141
2066 12.0179 5.48684 0.263758 -0.531445 -1.6723 0.0628086
43 12.6629 4.57146 0.00914513 0.389532 -0.270173 0.340055
2248 13.1231 5.30564 0.730576 -1.19334 1.7261 -0.0675444
2800 14.0437 5.1447 1.03472 -1.77901 -0.16439 0.292255
3145 15.0745 4.4105 0.893869 0.213209 0.529483 0.0473181
2930 15.254 5.34209 1.17314 -0.105136 -1.06227 1.61767
3844 16.2785 4.32033 0.852593 0.5466 1.7131 -0.70096
1909 15.7571 4.9144 0.0592194 0.881473 -0.204374 -0.0585267
1845 16.5271 5.47649 0.445078 -0.947845 -0.650222 1.84429
1056 1.09747 6.2992 0.686519 0.494993 0.1147 -1.48214
3997 2.40366 6.52223 0.381385 -1.15637 -1.03321 1.46843
2929 2.19128 6.68099 1.3823 0.472769 -0.357761 0.977018
707 3.01089 5.79935 0.720073 0.918516 -1.49039 -1.53339
818 3.37908 6.95722 0.610105 1.08914 1.98998 0.348952
271 5.62547 6.28632 1.003 -0.676101 -0.674099 0.935686
3724 4.44641 6.46189 0.42697 -0.041995 0.691187 -0.529753
72 6.62891 6.16973 0.733183 0.129369 1.8642 -0.14983
2827 7.85545 6.49442 0.732797 -0.35375 0.23469 -0.0913885
332 8.29581 5.9118 0.101388 0.416082 0.609231 0.107914
2774 9.27807 5.88893 0.586401 -0.160534 -0.278108 -0.0861469
1099 9.55759 6.74142 1.09159 1.13138 -0.150949 -0.299543
2973 11.2996 6.07382 0.697565 -0.799025 -0.0732787 0.499516
2388 10.3187 5.94864 1.01064 2.97056 0.448135 1.11081
1687 10.5148 6.8212 0.216075 -0.88775 0.573219 -0.436472
2919 11.411 6.86702 1.38617 -1.00414 -0.0706683 -0.0219711
464 11.7632 6.89663 0.306892 -0.480914 0.994643 -0.784843
3301 12.3989 6.05914 0.952735 -0.10045 -1.52663 1.80987
2384 14.0954 6.80975 0.429433 -1.75947 0.496065 -0.621935
832 13.2714 6.01657 0.00298814 2.69713 -1.14284 -0.601643
1081 13.0798 7.05181 1.04233 -0.521024 -0.923517 -1.07599
932 14.9933 5.93909 0.334725 1.54197 1.29224 -1.95159
3136 14.7534 6.56987 1.16543 -1.75008 1.05829 -1.6823
1169 16.9489 6.37598 0.9576 1.88412 0.1343 0.405419
1381 15.9101 6.32514 0.791766 1.36192 -1.00099 -1.45272
3887 0.87579 7.39088 0.499121 0.00830935 0.100857 -0.0869874
978 1.15162 7.73843 1.38745 0.355088 -0.603397 -0.400548
3620 1.38447 8.53801 0.499697 -0.638335 -0.41187 0.540316
1151 0.0276592 8.15172 0.950142 0.35619 0.0243109 -0.35874
1136 2.02366 7.4952 0.669214 0.835136 0.643137 -1.17157
1419 4.05572 7.30668 1.40583 0.260898 -0.72571 -1.44839
3079 3.20626 8.24765 0.698449 0.0360662 -1.26136 0.128465
11 4.09158 7.79588 0.292155 -0.729954 0.18102 1.2411
2089 5.66835 8.21639 1.16065 -0.376387 0.394124 -0.486391
3826 5.0171 7.34525 0.72331 -1.26889 0.434871 0.0581018
2074 5.78771 7.98924 0.00149008 0.74759 -1.15806 -0.574396
3710 6.4214 7.24194 0.644556 1.48852 -1.034 -1.87858
1622 6.92576 8.22469 0.905177 -2.05877 -0.669548 -0.818945
190 7.38324 7.26417 1.3345 1.25596 -0.741305 -1.67868
1912 8.09943 8.11436 0.83184 -0.64135 0.826131 1.03025
2882 8.78651 7.24316 0.665901 0.543336 -0.902189 -0.190233
1983 9.66339 7.60676 0.344087 -0.878074 0.293688 1.72299
2213 9.12051 8.45007 0.644588 0.0203551 0.476032 0.0133804
1019 10.383 8.53165 0.587063 -0.542788 2.73245 0.921357
2108 10.1633 7.52005 1.3322 1.40999 0.624391 -0.0748229
174 11.118 7.97899 0.982818 1.08634 -2.46547 -0.511046
2385 12.1647 7.67032 1.03645 -0.476541 -0.617881 -1.13468
1212 13.4253 7.97548 0.586151 0.90817 -1.11273 0.185304
2291 15.2941 8.24707 1.14839 -1.24785 1.48102 -0.387223
421 15.3274 7.31504 0.715747 2.75589 0.301988 1.96784
3021 14.4391 8.26586 0.441078 -0.108485 -1.10826 -1.16498
106 16.4387 7.57013 0.621774 0.281961 -0.641513 -0.188572
3390 0.723292 0.952126 2.6565 0.698702 0.343013 0.401794
489 0.881728 0.00904108 2.07491 0.114777 1.43513 0.85209
2016 2.64657 0.901913 2.57419 0.426481 0.14519 0.0551806
2427 1.45785 1.10086 1.9469 1.01812 0.423406 -0.173135
3679 1.66996 0.314233 2.77763 -0.25618 1.39061 -0.266635
2202 2.31833 0.609405 1.65317 -0.910229 1.18715 0.870629
1350 3.84251 0.871948 1.98472 -0.813602 1.43342 -0.458482
2081 5.05776 1.03225 2.31378 1.67641 -0.510933 -0.386694
463 6.21098 1.298 2.38361 0.436276 -0.274064 -0.0377445
3377 5.8559 0.566439 1.55414 -0.574099 -0.853307 -0.411744
1547 7.13491 0.747083 2.08978 0.346792 -0.361886 0.471904
3505 8.14909 0.882238 2.23355 -0.28231 -1.06246 -1.04138
2808 8.59635 0.0888993 1.6745 1.20357 -0.103476 1.09553
3575 9.48649 0.833543 2.6059 0.489867 -1.09582 -0.0419781
2077 11.3207 0.807565 2.50023 1.34728 -3.25688 -0.507267
2410 10.3783 0.650526 1.91888 0.577093 0.355056 -0.736426
1463 12.4507 0.864571 1.52125 -0.759236 0.169334 -0.0644977
626 13.3501 1.2174 2.73014 1.25094 -1.46477 -1.02595
1605 13.5944 0.951383 1.58384 1.08006 0.576602 -1.2166
956 15.5524 0.0947171 2.00872 0.813397 0.719014 1.37631
951 14.7723 0.801307 1.62902 0.150367 -0.493025 1.2111
359 14.4368 0.775406 2.8394 1.08489 0.531531 -1.27387
1049 16.1775 1.00959 1.54828 1.38204 -0.0769951 -0.130184
3200 16.8688 1.33577 2.72714 1.15655 -1.05849 1.60546
3672 16.6963 0.529631 2.25905 -0.696906 0.70893 -0.102055
2867 1.26744 2.23433 1.57105 -0.672989 -0.818484 0.462341
2305 0.631601 2.00372 2.31332 -0.0514125 -0.372699 -0.28971
424 2.08621 2.81354 1.43297 -0.0109788 0.000656665 1.19749
822 2.22356 1.84883 2.15165 -0.764631 0.635113 0.188224
3670 3.38476 1.77612 2.19058 1.17639 1.60437 -0.253699
3175 3.01078 2.75759 2.81858 2.10999 0.0369182 1.203
1927 4.40858 1.85686 2.47549 -0.170866 0.839926 -0.214237
426 4.28057 2.72191 1.73482 -1.07382 1.22408 -0.00371156
239 5.57488 2.12224 2.25039 0.0407552 -1.32753 -1.13759
2468 6.00831 2.73207 1.48608 0.315208 0.552432 1.56682
273 6.84849 2.08682 1.91716 -1.20581 -1.27728 -1.18255
2747 7.54771 1.53356 1.56822 -0.122531 -1.13384 -0.191544
847 8.31689 2.44875 1.8255 1.06606 0.948558 -0.127451
1958 7.81007 1.89442 2.59341 -0.411316 -1.09806 -0.690605
2988 9.5267 2.18522 2.73987 -0.331555 0.305771 0.314035
2971 9.01995 1.62229 1.82584 -0.17243 -1.01452 1.45509
3057 10.3626 2.77929 1.75672 -0.519492 -0.257451 0.860854
3198 11.1792 1.97977 2.38325 -2.41016 -1.41961 -0.810338
851 12.3119 1.70374 2.32412 -0.111556 0.569361 0.692774
3392 11.6466 2.83116 2.02428 0.0413647 0.571367 -0.401315
860 13.4063 1.88047 2.03518 0.61927 -0.175881 -0.14273
1539 14.5993 2.57251 1.92965 -0.199419 -0.302878 -0.264328
1462 15.5996 2.78697 2.18908 -0.123747 0.743854 0.734274
313 14.746 1.59232 2.36214 1.2014 0.273523 0.682744
1903 16.8567 2.61997 2.17638 1.2156 -0.728293 -0.206701
1557 16.0063 1.91652 1.95559 -0.72831 -0.237452 0.288793
2075 1.11769 3.29073 2.10357 -0.814231 2.20294 1.95193
2756 0.24482 3.40113 1.49083 0.0548169 -0.233042 -1.93121
2176 0.32766 4.07398 2.54822 0.559988 0.843408 -0.65139
1769 1.8271 3.81567 1.55558 0.40168 -1.50042 0.871884
1841 1.97777 2.89691 2.68722 0.521766 -0.216655 0.360331
237 2.73834 3.78682 2.07453 -0.957019 -2.24787 0.268761
3875 3.74213 3.37096 2.53881 0.386021 1.14577 0.791366
2784 4.79411 3.49251 2.38287 1.93539 -1.15472 -0.141608
891 5.77307 3.16334 2.54245 -1.13829 0.130066 0.21818
199 6.94799 3.01079 2.73361 -0.12918 1.0448 -1.39068
2035 7.2933 3.16043 1.70296 -1.3634 0.675482 -1.89097
741 8.34673 3.53748 1.86126 -0.296779 -1.01438 -1.24926
618 7.47434 3.94812 2.6237 0.0180155 1.19368 -0.441204
3087 9.29009 2.86332 1.49191 -0.0669901 -0.0459152 0.104717
19 9.28252 3.7402 2.05021 -0.15801 0.83688 0.186839
2237 11.0051 3.70245 1.88087 -1.59123 0.210435 -0.740943
3440 12.1416 3.98952 2.11401 0.84065 0.387416 -0.244238
3121 12.6862 3.41967 2.76862 1.22618 -1.427 0.994563
3268 12.8454 2.88379 1.58842 -0.739285 -2.18459 1.7101
339 13.6925 3.3656 2.21459 0.50236 -0.882743 -0.966486
61 14.9068 3.60668 1.97607 -1.06848 0.227788 -0.293129
3420 16.1803 3.49457 1.56399 -0.673269 0.0231696 0.832381
3664 16.4279 3.49843 2.65877 -0.327531 0.49928 -0.240084
1290 1.13233 4.56909 1.52143 0.311393 -0.08015 -0.274118
3499 0.70949 5.00286 2.46565 0.338288 -1.29764 -0.926718
3884 1.01811 5.64353 1.72104 1.07864 -1.5166 -0.472839
1591 1.96743 4.59836 2.2538 2.04029 -0.453555 -0.893717
2442 3.06749 5.11893 1.91854 0.574813 -0.157569 -1.07135
1689 3.90649 5.60567 1.87483 0.418791 0.0263955 0.985317
2761 4.94083 5.29288 1.55482 0.685266 -0.540423 1.05347
2883 4.31326 4.3013 1.68423 -0.658412 2.75748 1.01185
2529 4.99785 4.72272 2.56968 -0.506869 0.149834 -0.347807
191 6.9336 4.41698 1.48997 0.289732 -0.147168 0.048468
1129 5.85254 4.3558 1.9728 -0.850315 -0.781512 -2.60907
1980 6.6902 4.64169 2.62849 -0.281439 1.13292 -0.36938
895 6.52672 5.65454 2.39225 -1.01588 -0.632914 -1.10251
3919 7.99993 4.59242 1.96419 1.67828 -0.148552 0.189534
989 7.31414 5.43605 1.65227 1.28969 -0.482952 -1.27354
587 9.02396 5.10723 2.13613 1.11865 0.49501 0.984614
3007 9.75225 4.43968 2.4902 1.12724 0.0801712 0.207079
2348 10.334 5.15368 1.77253 0.97484 0.18116 -0.677697
3068 11.3357 4.68121 2.24764 -0.314258 0.382366 -1.17481
2277 10.4014 5.48654 2.84809 1.26508 0.238984 -0.540579
938 11.4655 5.52489 1.48049 -2.36295 -0.287415 0.478249
3622 12.6263 5.4962 2.64132 -0.605503 -0.756348 0.230307
1152 12.3166 5.08852 1.82727 -0.188195 -1.97078 -0.139055
2576 13.1144 4.51505 2.55916 -0.464698 -2.32624 0.580687
2412 13.1307 4.29837 1.54365 -0.494821 0.631868 0.835792
2950 13.9986 5.34504 2.25027 2.2313 -2.12761 0.426767
2551 14.1655 4.3183 2.0562 -0.343856 0.395332 1.44083
3468 15.4561 4.62438 2.07973 0.988887 0.651095 -1.55652
36 17.0816 4.62551 1.76126 1.11566 -0.603728 -1.45176
1269 16.681 4.79271 2.73751 1.76075 0.813264 -0.777935
1087 16.1075 5.38636 1.96526 1.56005 0.16065 0.853012
433 0.683822 6.64315 1.55534 -0.134366 0.272911 -0.937275
1780 2.24982 5.79936 1.93085 -1.20597 0.207933 1.72843
2789 1.47714 6.50999 2.37836 0.639659 -0.87282 0.459534
2876 2.77231 6.07534 2.70171 0.414766 -0.174816 0.482041
1600 3.34381 6.4113 1.56908 0.82624 1.89006 -0.510732
1182 4.14593 6.70094 2.3983 0.221758 -0.490905 -0.0615698
3469 4.63131 6.42226 1.54153 -0.314208 -0.861674 -0.40815
1703 5.43971 7.03528 1.8304 0.0175868 -0.807391 0.11288
2267 5.50944 5.97741 2.11119 0.424134 -0.376653 -1.48232
3081 4.58759 5.78064 2.75592 0.067579 0.126965 0.499694
2550 6.33911 6.60212 1.61565 -0.201576 -1.9533 0.873626
3636 7.73695 6.56187 2.42112 -1.05449 -0.459739 -0.336659
2891 8.48774 6.83421 1.59901 -1.4521 1.35081 1.77479
2007 8.72839 6.05034 2.54646 -0.441318 -0.237391 0.146901
1828 9.44636 6.89891 2.15114 -0.894957 -0.584058 1.93889
2670 9.66908 5.93288 1.90528 -0.162335 1.6288 1.2854
1487 11.2319 5.71515 2.40256 0.0693527 0.917466 0.954651
2293 10.5263 6.45121 1.97814 0.684392 0.339672 -2.14327
3335 11.5 6.87213 2.65299 -0.509142 1.88237 0.0461515
805 12.1218 6.29876 1.91538 0.212122 -1.23568 -0.502003
3161 13.0469 6.52295 2.54273 -0.761697 -0.823731 0.796366
189 13.1774 5.81763 1.63841 -0.46509 -0.638904 -0.21297
2215 13.9815 6.29751 2.75664 0.828959 -1.15081 -1.10847
224 13.748 6.69974 1.61395 -0.0433498 1.0356 -1.06546
269 14.8691 5.80231 2.02575 1.02846 -0.484957 -0.623741
3369 14.9707 6.97979 2.7624 -1.0333 -1.26261 -0.202906
2567 15.6285 5.87718 2.78904 0.834162 0.413495 -1.21534
401 15.6704 6.71176 1.78317 1.20159 -0.752849 -0.55546
361 17.0186 5.81402 1.80237 -0.208362 -1.70201 1.24505
370 0.788772 7.19014 2.76224 1.67464 -1.98233 -1.57674
314 0.244896 8.06883 2.03245 0.709117 2.22662 0.668755
1541 1.66287 7.50227 2.46639 -0.757858 0.83029 -0.527946
545 2.6762 7.52748 2.43799 0.675322 1.22472 0.696966
3498 1.55073 8.44741 1.95941 -0.63174 0.361183 0.311107
1317 3.02495 7.47061 1.47866 -0.310488 -1.86401 1.58295
2791 3.89652 7.76374 2.33604 0.358742 1.33557 -0.964739
2288 4.61445 8.3054 1.52672 -1.57455 0.22002 -1.52651
3302 4.85744 7.57974 2.84229 -2.07121 -1.14065 1.8783
213 5.93805 8.2252 2.28175 0.068373 -0.0422782 -1.91917
2353 6.3505 7.64486 1.53383 -0.934862 -0.393144 -1.94183
1265 7.0065 7.97305 2.6016 0.0449583 -0.258103 0.811752
2597 7.49502 8.323 1.71274 0.184639 -0.0688389 1.5267
2604 7.98084 7.59977 2.38471 0.961293 -0.420109 0.559815
2223 8.96827 7.65159 2.78415 -0.985821 0.31616 -1.60161
265 9.74072 8.3372 2.1235 -1.78377 0.967288 -1.72852
3581 9.05518 7.84575 1.58635 1.53968 -0.520858 -0.651151
2949 10.6654 8.54074 1.75551 -0.116405 1.24436 -0.785816
2902 10.6075 7.45035 2.30521 -0.214875 0.443005 2.18207
2540 12.4226 7.27453 2.2974 -0.113517 -0.840977 -0.612946
1928 11.5314 7.93655 1.96484 -1.05608 -1.8317 0.416178
1249 13.0461 8.05317 2.80549 1.43053 -0.177203 -0.934564
3149 13.3025 7.85637 1.65261 -0.271519 1.66635 0.031694
3540 14.8708 8.44438 2.40934 0.69373 1.15197 1.12725
3749 15.6645 7.67708 2.45664 2.14912 0.418369 1.1201
763 14.2554 8.43318 1.57806 0.0613704 0.552082 -0.852541
3515 14.859 7.6069 1.79131 -1.456 -1.73905 0.217792
2965 16.3359 8.37072 1.54371 0.266703 -0.931709 0.739108
2933 16.5812 7.84327 2.58738 -0.991903 -2.4837 0.911766
3166 16.6139 7.21994 1.64894 0.604179 -0.502409 -1.29318
864 0.977283 0.807141 3.72559 0.699646 -1.13087 -0.779611
2055 0.0142874 0.322852 3.20704 0.833622 0.0847955 -0.55728
2279 0.489506 0.105718 4.26591 0.677565 -1.40424 0.654862
1061 1.95979 0.278432 3.93394 1.21271 -0.5204 1.36201
3324 2.67443 0.964201 3.65377 0.661492 -0.0771195 0.662045
3222 1.74542 1.28488 2.91406 -1.56258 0.239814 -1.84293
60 3.86647 0.792504 4.0117 -0.178099 -1.44406 0.0781621
342 3.76348 0.683716 2.93919 -0.543184 0.510706 -1.11834
2665 4.92057 1.00423 3.29122 -0.964118 0.696527 0.551282
2780 4.6933 0.230882 4.22134 -0.701842 0.13848 1.95334
300 6.37833 0.494386 2.8954 0.11174 -0.824533 0.494901
3659 5.79171 0.367224 3.82406 0.108002 -1.49 -0.215295
1992 6.335 1.2648 3.78224 0.517381 0.403089 -0.313256
100 6.92278 0.305592 3.81533 0.799615 -0.318266 -2.07348
958 7.92743 0.449546 3.43374 0.789018 0.268531 -1.06944
2692 7.17724 1.19493 3.0866 0.332697 -0.56889 -1.01873
3579 7.30334 1.23522 4.20412 -0.64157 0.013761 -1.66289
222 8.75884 0.199681 2.99657 0.964592 -0.574329 1.14398
1270 8.57052 0.905789 4.1714 0.232957 1.88803 1.51355
3891 9.42882 0.254666 3.97029 -0.19456 0.470548 1.02524
3366 9.64074 1.3121 3.89143 0.718425 0.594399 2.03681
2654 8.69955 1.4021 3.10533 0.0939019 -0.875073 -0.277363
2278 10.4462 0.918487 3.15279 -1.53422 0.703963 -1.00306
2594 11.0627 0.536973 4.27181 1.33954 -0.856467 0.336976
477 11.8248 0.709891 3.46848 -0.624858 -0.158685 -1.16469
1922 12.8307 0.44327 2.88224 -1.08517 -0.157632 0.569049
2568 13.048 0.813523 3.80726 0.649288 -0.604484 -1.90202
1 13.7444 0.0209073 3.8383 1.75294 -1.78775 -0.833937
2002 15.472 1.18789 2.97999 -0.389962 0.706072 0.321173
2147 14.3896 0.95638 3.93906 -0.122876 0.683728 0.556186
3711 15.4433 1.35633 4.18689 2.49591 -0.942223 0.182384
881 15.574 0.128095 3.30763 2.83447 0.124102 0.644551
2480 1.17987 2.47 3.20746 0.67486 1.76054 -0.556823
1410 0.941291 2.31482 4.24706 -1.49106 1.21354 3.05489
3855 0.505282 1.77479 3.43773 1.08941 1.40827 0.0439841
197 2.4566 2.01099 3.37188 -0.269574 0.113207 2.21351
733 3.97843 2.64699 3.19553 -0.355352 -0.828859 -0.0278821
635 3.46989 1.69184 3.37496 -0.193958 1.62113 2.3064
2834 5.52985 1.71709 3.17158 -0.254371 0.542893 -0.245986
612 4.45041 2.13701 4.08685 0.396299 0.283233 0.916208
983 5.60091 2.05111 4.16127 -0.665867 0.699271 0.230504
2195 4.9677 2.63603 3.14322 -1.45422 -0.0713201 1.12712
2693 6.50147 2.14734 3.30311 -0.972563 -1.57367 -0.870019
1408 7.55504 2.22867 3.80712 1.67851 -0.401584 1.80105
2854 9.82736 2.63074 3.79557 -1.08443 0.849479 0.883161
306 8.90893 2.24086 4.18512 0.628046 -1.28004 -0.736845
2037 10.6654 2.35362 3.3445 -0.73974 -0.333182 1.06898
2807 10.7851 1.5252 4.17986 -0.114721 -0.0583578 -0.848063
1349 11.4504 1.6188 3.25924 -1.18288 1.3106 -0.151524
3837 11.8097 2.48561 2.92722 0.279708 -1.27681 0.198234
3695 11.6486 2.21166 4.08067 -1.19716 -0.422081 -0.909427
3777 14.137 1.74951 3.26527 -0.252668 -0.874741 2.1833
1947 13.2907 2.32843 3.21496 -0.657526 -0.937687 -0.434281
1170 14.0244 2.78365 4.0268 -0.937557 -0.10807 -1.24476
3603 14.8253 2.70655 2.99016 1.80124 0.888504 -0.468763
765 14.8798 2.19466 4.07294 0.357359 0.311016 -0.0272369
1583 16.9032 2.577 3.477 -0.454227 1.49954 -0.765759
2826 15.8081 2.59342 3.31169 0.698349 -0.91534 0.825653
3247 16.4965 1.52172 3.69891 0.792722 -0.101063 -1.96653
2611 0.654956 3.42263 3.38874 -0.44872 0.895855 0.466742
2782 2.45885 3.05179 3.78163 0.920859 1.50846 0.19801
2069 1.58872 3.56575 3.7839 1.22244 -1.5963 -1.89308
1414 2.56339 3.77819 3.10492 1.40434 0.187417 0.286182
921 2.47994 4.23035 4.16101 1.5688 0.286538 -0.353674
504 3.37509 3.7655 3.79129 2.0167 -0.0549667 -0.174399
1527 4.86597 3.61734 3.57456 -0.446113 0.726976 1.66057
2652 5.6125 4.05889 3.0339 -0.540581 0.168938 -0.0114017
3225 5.80551 2.96312 3.66786 0.207207 0.459989 -0.21331
2722 6.68731 3.82121 3.40189 -0.402061 -0.0196405 -0.629417
3336 6.90269 3.17247 4.06466 0.00122155 -0.724398 0.275325
1209 5.90132 3.99616 3.99236 0.519084 0.415874 1.08173
34 8.29451 2.91278 2.8766 -0.211943 -2.06982 1.81855
1035 7.90895 3.71442 3.91553 1.77188 -0.211633 1.11165
2888 9.11206 3.91972 3.09855 1.22836 0.248462 0.959643
3018 10.1135 3.17268 2.89913 -0.652784 -1.77596 -2.53078
888 10.751 4.0417 2.95663 -1.00599 1.11596 0.160387
2449 10.9597 3.22505 3.62368 1.12775 1.46153 0.412643
434 11.3177 4.24204 4.05879 0.819622 1.06466 1.07135
2193 9.98224 3.80123 3.9614 0.80241 1.11688 0.20439
453 11.6438 3.65754 2.95408 0.0422953 0.453315 1.08707
3433 12.0666 3.05203 3.68367 -0.505371 -1.16689 0.469795
2145 13.9039 3.58661 3.17578 0.879241 1.0784 -0.432624
2748 13.1683 3.53124 4.23303 -1.67056 -1.4902 0.823918
1718 15.441 4.24227 3.97569 0.472762 0.834181 1.23741
1200 15.3641 3.62643 2.87383 -0.437297 0.555097 1.64241
201 15.259 3.1934 4.10409 -1.03771 0.351712 1.56955
3438 16.3379 3.57485 3.76159 -0.633487 -0.858616 0.273624
3591 1.3257 4.44423 3.39424 0.497644 -0.700015 0.630792
2417 0.416888 4.47244 3.93402 0.310346 2.49347 1.7692
14 0.11329 5.47943 3.43236 -0.293998 0.0703157 -0.44554
3116 1.21563 5.26974 4.23516 0.438474 -0.296537 0.264018
2032 1.62865 5.54144 2.91632 -0.436018 -1.23029 -0.31143
1864 2.40904 5.11459 3.58198 -0.395998 -2.54368 -1.99466
2976 3.35212 4.92106 3.97318 1.45141 1.52656 2.89365
859 3.21513 4.98473 2.99802 1.01561 -0.187394 -1.45985
3697 4.29037 4.59032 3.41068 -0.195979 1.21557 1.99321
3090 5.13416 4.76829 3.96369 0.489315 -0.815804 -0.77182
657 4.49408 5.52636 3.86641 -0.554142 0.368473 0.151102
346 5.62872 5.25121 3.1985 -0.97825 -0.700855 -1.77687
640 6.69724 5.14714 3.50417 1.08812 -0.581568 0.239965
2331 7.70906 4.72869 3.61499 -0.364416 1.19722 0.757112
3790 7.53303 5.44127 2.85024 1.56378 -0.381033 -0.0212478
97 8.71977 4.74252 3.4445 1.53548 0.465991 -1.17414
793 9.36632 5.55433 3.14604 -0.976811 -1.69153 -0.277257
3773 9.81162 4.7912 3.66034 0.882915 -1.20365 -0.995442
2858 9.02261 5.48251 4.19848 -1.06109 -1.16153 1.00727
2314 11.3546 5.03581 3.3864 0.157728 -2.04624 0.636798
410 10.1842 5.69234 3.99197 -1.09723 -1.11484 -0.42891
2289 12.4382 4.73097 3.47945 -0.431954 0.8482 0.0417068
3484 12.0356 5.69277 4.24481 -0.83728 0.431904 1.44588
1609 13.602 4.87973 3.44673 0.0830238 1.8527 -0.305068
843 14.1438 5.56353 4.13797 0.333092 -0.348507 0.777564
1840 15.3534 5.36409 3.94586 -0.11287 -0.377236 0.420731
188 14.5195 4.59258 4.18694 1.57796 0.789215 -0.662099
1242 14.6627 4.46138 3.18022 1.31561 0.488175 -2.05468
3318 14.5644 5.5024 3.01747 0.599233 -0.0460456 -0.3884
1214 15.5927 4.84708 3.14519 2.46895 1.14966 -0.0306825
2687 16.4222 4.56482 3.89094 -0.297707 0.433652 1.27664
639 0.741647 6.01138 2.88494 -0.644819 -0.727977 -1.45122
1325 1.57529 6.40902 3.57807 0.309924 -1.79078 1.38768
549 2.55662 6.89017 3.42687 -1.25279 0.758852 -1.19831
3373 3.67153 6.12309 3.15871 -0.757964 -0.420303 -0.0837623
1375 2.98426 6.1275 4.03094 0.520407 -0.80898 1.16616
2056 5.25341 6.61563 2.92138 0.652215 0.137537 0.734557
589 4.46663 6.51409 3.81933 -1.29144 -0.0526128 -0.423599
552 6.04526 6.1296 3.5992 -0.571093 0.258626 0.784767
900 6.91242 6.24347 3.13004 -0.327473 0.768563 -0.488943
362 8.19389 7.11033 3.33355 -0.382988 -1.79861 -1.35997
1950 7.74985 5.9479 3.67357 0.368324 0.183404 -1.57113
1847 8.38719 6.54081 4.13828 -0.91507 0.179618 -0.309454
1431 9.15406 6.76058 3.33763 -1.06826 -0.860987 -1.03251
1509 10.1315 6.45282 2.93549 0.888135 -0.745618 0.651118
249 11.1515 6.1806 3.46586 -0.448185 -1.01044 -0.676124
3101 10.2902 6.90493 4.23886 -0.0602655 -0.82853 -0.649354
3132 12.2205 6.29018 3.24998 -0.0797626 0.378842 1.42313
2579 11.8158 7.09358 3.8396 -0.840993 -1.4167 0.351861
729 13.1176 5.8349 3.47511 0.0314968 2.30179 0.824621
1708 13.6736 6.66911 3.88169 0.77964 -0.855482 -0.892237
2991 14.7067 6.57275 3.72409 0.569611 -0.515102 -0.0248571
524 16.8448 6.67457 2.91221 -0.966151 -1.4145 1.22378
2727 16.0916 6.41331 3.57743 -0.391472 -0.926796 -1.11281
1584 16.9588 6.50184 4.09659 0.211929 0.699125 1.32067
604 1.04061 8.24328 2.93769 -0.168722 0.809147 -0.182195
2043 0.582292 7.62356 3.73415 0.310892 0.909784 0.997021
1227 2.14103 8.46557 2.88158 -0.640503 1.39984 -0.149189
3723 1.64951 7.69848 3.58727 0.388491 -0.754885 -1.52128
3914 2.98091 7.6829 3.87926 1.11532 -1.07245 -0.147175
1575 3.53662 8.46583 4.25532 1.8274 1.18996 0.328538
3861 3.24299 8.274 2.91569 -0.812682 1.8224 0.43143
2060 3.6662 7.20107 3.32313 0.576244 0.525302 -0.3176
1205 4.23405 8.06237 3.4167 1.42262 1.0234 0.837873
3817 5.07419 7.50908 3.91627 -0.347372 0.0128856 -1.13151
2686 5.64022 8.20826 3.41485 -1.59929 -0.912889 -1.10192
814 6.02528 7.41093 4.05777 -2.03811 1.86066 -0.0291209
2940 6.1749 7.29655 3.00629 -0.384432 -0.395806 -1.97994
2335 7.10915 7.27632 3.50853 -1.50546 -2.57584 1.94305
2079 6.65708 8.44282 3.68482 -0.251238 0.748682 0.704457
969 8.27156 8.21111 3.48076 0.478093 0.352223 0.789263
882 7.54014 8.43263 4.22433 0.521034 0.3528 -0.0206208
2896 9.25794 8.37101 3.75187 0.0402066 -1.70754 0.376816
1660 8.82332 7.52266 4.04473 1.26681 -0.0169075 -0.312155
3206 9.93856 7.53918 3.19121 1.33443 0.358671 1.11369
3731 10.7853 8.22002 2.99278 -0.22542 -1.19034 -2.08013
2765 10.92 7.36884 3.42258 0.172198 -1.15084 -1.0606
3408 11.9959 7.87208 3.0279 0.268043 -0.0996633 0.812272
3694 12.9247 7.18447 3.40202 -0.822378 -0.811677 -0.733502
428 13.3056 7.97536 3.9103 -0.834749 -0.828523 0.959748
1015 13.9179 7.27094 3.06021 -0.568575 1.27648 0.109202
806 14.7723 7.9793 4.22176 -0.380596 -0.306199 -0.190341
3473 14.8174 7.83016 3.19754 -1.02903 -0.435781 0.621121
2903 15.5401 7.30739 3.58624 0.319538 0.414702 -1.21809
1135 16.6913 8.50882 3.67251 -0.0226179 0.567436 0.322174
3673 16.7109 7.44198 3.6827 -0.298392 0.779608 -2.38613
1003 0.52845 1.32527 4.62955 0.643776 -0.01929 0.448186
423 1.62398 0.569096 5.01802 0.506446 -0.992737 0.134808
1931 2.24644 1.33381 5.48115 -0.312901 -1.55807 1.1287
2593 2.89588 0.415657 4.78028 -0.441344 -0.330156 -1.75836
2821 3.48425 1.19744 5.44299 -0.43566 1.47999 0.552131
3119 5.26124 1.03137 4.48458 0.355782 0.935193 -0.944894
59 5.90351 0.161021 4.8533 -0.962203 -0.45248 1.74624
66 7.04349 0.409526 4.94561 -2.14764 0.529217 -1.23772
282 6.31704 1.12839 5.03988 2.20543 0.640779 -0.326858
2497 7.9021 0.595156 5.39972 0.444872 0.370728 -0.24639
1523 9.288 1.16379 4.9297 0.423004 0.77729 -1.14464
2172 8.93913 0.0538137 4.8937 1.06839 -0.0147367 -0.523807
3152 11.2756 0.415286 5.6074 -0.0601337 -2.13428 1.1244
2946 10.04 0.488371 4.76217 1.77928 -1.69882 1.24836
136 10.6212 1.20267 5.20988 0.0390499 0.338004 1.0472
35 10.1445 0.00153109 5.68768 1.24694 0.164331 -1.17326
2778 11.7428 1.25489 4.74026 -1.20117 -1.01807 -0.75161
3829 11.8466 0.204578 4.80599 -2.25176 -2.06732 -0.760534
3113 12.935 0.227479 4.71938 -0.979462 1.5251 -0.282341
3836 13.6551 0.847102 5.04532 -1.18222 1.28942 -0.555542
3334 14.7786 0.965888 5.45517 0.488481 -0.150703 -1.10772
3768 15.3708 0.264356 4.46545 -0.779651 -0.975346 1.56084
2672 16.3134 0.725976 4.48125 0.301265 -0.290009 -1.10767
735 17.0412 0.582999 5.46188 -0.123835 -0.0593693 -0.168867
3638 15.8814 0.671842 5.42503 0.72072 -3.22189 0.614758
1884 0.318582 2.47565 5.29739 -0.0465586 0.832337 1.1189
3361 1.3003 1.77149 5.26522 -1.58493 -0.0545686 -1.4941
3572 1.79221 1.42948 4.43528 -1.0629 -0.475433 0.422701
355 1.74872 2.73691 4.53642 -1.44412 0.658077 1.17961
1775 2.55022 2.50126 5.2018 0.719355 1.61725 -0.567917
1055 3.13156 1.53056 4.44088 0.867327 -0.283478 -1.03332
120 3.48103 2.61737 4.606 -0.847221 1.97672 0.738886
785 5.3738 2.22082 5.31646 0.90716 0.222066 0.703011