ITEM: TIMESTEP
68000
ITEM: NUMBER OF ATOMS
4000
ITEM: BOX BOUNDS pp pp pp
0.0000000000000000e+00 1.7099759466766969e+01
0.0000000000000000e+00 1.7099759466766969e+01
0.0000000000000000e+00 1.7099759466766969e+01
ITEM: ATOMS id x y z vx vy vz
865 0.594252 0.692699 1.13169 0.51173 0.0453559 0.901856
1903 0.991038 0.588273 0.0359906 -1.70601 1.74289 -0.141493
1350 2.507 0.925876 0.133765 0.951607 0.122783 1.0413
822 2.40303 0.925606 1.20992 -0.0442063 -0.0466877 1.12518
1974 1.64012 1.07812 0.645304 -0.206796 0.340468 0.298009
3990 3.26934 1.40793 0.854441 -1.45983 -0.846053 -0.0385936
2448 4.06773 0.667711 1.21075 2.32145 -0.0932408 -2.20741
1628 4.21495 1.23249 0.409309 0.568556 -3.21061 -1.55407
2016 3.48978 0.434198 0.319941 0.587496 0.794706 1.35722
2346 4.70244 0.239867 0.454426 1.33769 -1.09516 0.172486
3254 5.15709 1.31924 0.75052 1.17108 0.130086 0.00309403
2640 6.98453 1.004 0.528378 -0.190898 0.184047 -0.701854
3377 5.93379 0.471638 0.59451 -1.82261 -0.133506 1.97742
3231 5.98587 1.38253 0.142139 0.0920309 0.0636322 0.355145
1991 6.83986 0.0402468 0.98137 -1.44228 1.07603 1.47587
300 7.74219 1.02565 1.20934 0.719185 -0.0917906 -1.10454
1365 8.75772 0.735285 0.345289 -0.0828015 0.838538 0.0376756
2387 9.0435 0.521407 1.38609 0.242169 0.1881 -0.979317
1595 9.71728 1.16638 0.823722 -1.42825 2.43093 0.352172
1486 9.73344 0.0599267 0.389497 -0.879896 0.248226 -0.794153
2701 10.7299 0.325827 0.562739 -0.397468 -0.951528 0.202788
1258 12.4218 0.0507875 0.49731 1.38614 -0.771448 0.310097
1463 11.5591 0.567799 1.1199 0.0573053 0.598646 -1.01228
1789 13.0301 0.833755 0.41796 1.16504 1.2659 -0.378753
677 14.7049 0.441567 1.01036 0.0489817 -1.45724 0.652785
1462 15.7003 0.649366 1.04641 2.19856 -1.02252 -0.585362
1972 16.7212 1.02654 0.368304 -0.0940837 0.653114 0.725466
2342 1.11761 1.9509 0.741133 0.533654 -0.481141 0.903887
415 2.49646 2.04225 0.321522 -0.0520147 -0.898998 -0.361195
145 3.38398 2.55861 0.870293 1.5196 1.04674 2.7109
1188 4.31508 2.24088 0.721103 0.213239 -0.379046 -1.62253
2035 5.68204 2.4247 0.604666 0.0826284 -1.1753 -0.0496861
3087 6.82366 2.20332 0.281708 1.44778 -0.140393 0.0970804
1760 7.9109 1.77773 0.261302 -0.235929 -0.983038 -0.696104
588 8.31412 2.56814 0.812345 -0.442125 0.0633264 -0.123665
2747 7.23706 2.25199 1.24178 0.155215 -0.0951261 -0.0987025
2315 9.56101 2.27809 0.529995 -0.32456 -0.481026 -2.22043
2228 8.70831 1.53379 0.902111 -0.293694 -0.698486 1.02878
3198 11.1955 1.5581 0.5698 0.518023 -0.28839 1.16052
2988 10.6121 1.85257 1.36344 1.60247 0.056835 0.853485
3057 10.0341 2.81031 1.26488 1.52989 0.459725 0.4673
3704 10.5235 2.5152 0.185668 0.661026 0.165754 2.39677
682 10.2527 1.51127 0.0148512 0.652134 -1.4539 0.032532
2818 12.0951 2.14075 0.0143634 1.2914 1.17862 -1.46224
1922 11.5845 2.72667 0.938527 -0.233671 0.332827 0.634225
1605 12.2829 1.45953 0.682278 0.0557363 -0.325444 0.0283456
1090 12.6869 2.48661 1.17011 1.80403 0.544571 0.891151
223 13.056 2.63316 0.214708 -0.470772 -0.352594 -1.15453
844 13.6263 1.59895 0.948309 1.13348 -1.4572 0.582616
3020 13.9231 2.56656 1.22034 -1.86169 0.88876 0.117599
1521 14.3787 1.77442 0.24163 -0.828005 -1.82093 -1.03432
3061 15.6229 1.5063 0.380147 0.14474 -1.09678 0.106313
3711 16.8875 2.4642 1.40329 -1.05245 0.662514 -0.722805
595 16.0909 2.31464 0.0994938 -1.53511 -1.05553 0.751901
1539 15.9416 2.20407 1.29777 -0.956892 1.02931 -0.598937
3420 17.0347 1.97237 0.550667 -0.000344015 -0.649192 -0.865128
1608 0.723872 2.87373 0.565002 1.13279 -2.07456 -0.409821
2951 0.950707 4.04642 1.01412 1.42781 -0.555257 1.27362
1467 2.73759 3.17961 0.471334 0.811726 -0.0306476 1.72507
1880 2.58894 4.13905 1.10378 -0.0907564 0.417896 -1.58593
474 1.76457 2.86548 0.762292 0.864352 -0.224827 1.95385
3175 2.66237 2.99251 1.41779 -0.507153 -0.00902496 0.280113
424 1.68286 3.68685 0.0683721 0.547119 0.952138 -0.72499
733 3.6288 3.86054 0.943924 1.14188 0.618668 0.251368
1446 3.70947 3.17016 0.109298 1.40993 0.958593 0.0850078
1856 4.72397 3.18033 0.601445 0.109381 0.956245 0.399808
1779 5.32761 3.94117 1.26471 1.72072 1.69323 -0.951972
3001 5.34859 3.98882 0.243954 0.76788 0.722505 -0.783588
325 4.31608 4.1994 0.177709 0.325142 2.36082 0.72398
2049 6.36451 3.38687 0.348654 0.40427 1.42538 -0.0729272
2808 7.48153 3.1811 0.768197 -0.585948 -0.251024 1.54076
3374 8.45138 3.47613 0.565658 0.45843 -0.144424 -0.376746
113 9.78575 3.17478 0.0223715 0.896859 1.24938 -0.7064
634 11.3254 3.81402 0.616422 0.499374 -0.82995 -0.738883
3440 10.2158 3.8136 0.707974 -0.0124182 1.11723 -0.828467
3954 12.1485 3.2128 0.222608 1.51458 -0.454778 0.659483
57 12.7374 3.68131 1.33718 -0.467079 0.211776 -0.334653
745 13.8119 3.30627 0.541124 1.85406 -0.154509 -0.00131326
3085 13.6449 4.18573 0.937046 -0.348385 0.586473 0.263013
2248 12.9041 3.94909 0.20344 -1.61904 -0.956927 -0.418037
1718 15.279 3.96991 1.05004 0.453847 1.42117 0.989843
2800 15.2363 2.9256 1.03992 -0.443829 0.393723 -0.778647
3145 14.7705 3.54467 0.220341 -0.568299 -0.0198444 -0.300583
3008 16.2719 3.11833 0.767959 -1.78475 -1.0265 -1.10213
2826 17.032 3.54945 1.30527 -1.21959 0.949769 0.321173
1269 16.3665 4.02466 0.00509752 -0.253186 0.848059 1.20245
1290 0.147973 5.54738 0.949629 -0.0394822 -1.30259 -2.19655
1693 0.766281 5.46541 0.149039 0.114211 1.39797 0.343147
1612 1.05542 5.09807 1.32027 -1.02439 -0.709725 0.00477906
3300 1.58429 4.73578 0.374032 -1.77604 0.734915 -0.476029
1005 2.52286 5.21394 0.561501 1.63665 -1.17616 -0.438277
3875 3.66989 4.92275 0.831646 -0.142177 -0.607323 1.86634
3736 4.87718 4.83957 1.06394 0.0710546 1.2042 1.66502
2349 4.5607 5.37233 0.057972 0.840283 -0.452687 -0.220263
3267 6.80799 5.03941 0.356371 1.34948 -0.973377 -1.87731
3953 5.7595 4.91291 0.150968 1.55435 0.0709233 0.592483
72 6.02262 5.45252 0.947475 2.32796 0.665644 -1.51692
2331 6.27934 4.42851 0.940711 -2.66055 -0.0212713 0.119866
3919 7.02897 5.44055 1.27991 0.729347 -0.199299 0.969471
3009 7.70921 5.6604 0.367084 -0.22059 1.9477 0.000449663
97 7.55241 4.41618 1.14439 0.25834 0.32737 0.416186
1879 8.194 4.37115 0.237774 -1.46367 0.442037 0.719158
989 8.53891 5.41551 1.12086 0.156529 0.352151 0.966946
1438 9.58313 4.65634 0.812982 0.892747 1.25658 -0.0630685
473 8.66799 4.39986 1.38283 -0.602572 0.23054 0.424704
1919 10.8304 4.67037 1.32948 2.4512 1.31235 -0.376563
2183 10.6364 5.39019 0.459535 0.948011 -0.7963 -0.655748
2973 11.7067 5.57867 0.488958 2.2976 0.367391 0.24259
3161 12.5774 5.39996 0.954366 -1.05122 2.27087 1.50564
2289 12.1197 4.55247 0.550181 -0.290764 1.11354 0.739409
3603 13.5394 5.35585 1.34803 0.926737 -0.415302 -0.360428
2853 13.7067 5.38109 0.280601 2.166 -0.139813 -0.874373
3136 14.5053 4.90905 0.909282 0.550063 0.742582 1.47152
3468 15.9852 4.93511 0.566006 0.487894 -0.599553 -0.053036
2756 16.8522 4.4593 0.88603 0.212624 0.209581 0.182915
688 1.06978 6.37334 1.1667 -1.88988 -0.211849 0.0495159
1393 0.200537 6.58456 0.349639 1.20926 1.65621 0.844075
2359 2.33768 6.30432 0.496986 -0.511334 -1.96456 -1.27129
1769 1.92929 5.73045 1.30637 -0.444056 -1.35448 -0.487438
1639 4.23134 6.01103 1.00702 -1.36729 1.05083 2.3533
2442 3.06911 5.84369 1.33758 -2.59676 -0.0403495 0.0168243
3469 3.43946 6.98172 1.11075 0.275664 0.417536 -1.40964
2435 3.60993 6.03938 0.0783095 -0.989366 0.254618 0.23445
2608 2.98111 6.95586 0.187907 -0.598491 -0.627133 1.52833
1495 5.22269 6.06268 0.530615 -0.118776 0.179767 1.2236
1703 4.42727 6.72987 0.282956 0.377929 0.910173 0.186219
1419 4.78255 6.98527 1.38449 -1.40926 0.533838 -0.0576631
2827 6.72849 6.31312 0.939316 -2.07523 0.203258 -0.970833
3801 5.87413 6.7492 1.07666 -0.519448 -0.219015 0.713373
587 8.48945 6.40421 0.777069 -0.691173 1.18534 0.91239
2891 7.66437 6.9556 1.25202 0.901217 1.05366 2.28235
3636 7.6583 6.65688 0.138795 0.461825 -0.749896 2.15665
3443 9.46593 5.71236 0.641252 -0.00649017 -0.797041 1.12652
2774 9.82307 6.92964 0.838263 -0.0536218 -0.247083 1.03521
44 10.9636 6.84968 0.230226 0.869059 0.0352963 -1.05199
938 11.1732 6.38992 1.12957 0.265591 -0.784368 -0.217893
2919 12.2925 6.46768 0.356324 0.37539 -0.859228 -0.943181
2950 12.9346 6.38197 1.26749 -0.895982 0.0301354 2.07543
2215 13.9437 6.25071 0.773755 -0.53296 -0.0683624 0.318957
1909 13.2501 6.49691 0.132096 -0.826853 1.03371 -1.28635
1381 15.0664 6.29048 0.656465 0.337747 1.05976 2.71893
2269 16.3771 6.17028 0.933297 0.0463693 1.82214 -2.02331
978 16.9201 6.94572 1.39038 -0.158599 -0.152151 -0.261944
3923 0.636402 8.2399 0.9671 0.611481 0.489424 0.146806
818 0.858116 7.62652 0.139925 -0.425511 0.0970751 0.665499
1600 2.67924 7.88688 0.688238 0.948749 -1.30157 -0.56316
707 1.74008 7.25216 0.696575 0.132892 -0.552013 -0.343047
11 3.57629 8.29988 0.962526 0.824276 0.0913333 -0.269704
2040 3.59581 7.79911 0.0441603 1.47145 -0.563446 -0.331899
2089 4.6995 8.42396 0.259873 0.24681 -0.855416 0.727144
2125 5.2676 7.25714 0.285944 0.907857 0.334849 -0.229063
3821 4.31857 7.63149 0.705668 2.47795 -2.7901 0.533073
1453 5.39591 7.97018 0.96095 -0.364927 0.512376 0.395937
661 6.28372 7.43789 0.25152 1.92204 0.669733 -0.257108
2328 6.55883 8.33625 0.724017 0.60773 0.256939 1.56522
3452 7.69759 8.12242 0.364295 0.0887387 -0.194926 0.0498131
1806 9.09721 7.9986 0.566438 -2.28596 -0.558597 0.197756
1019 9.81227 7.87963 1.30882 1.88761 0.364995 2.23729
2348 10.7708 7.6353 0.868026 1.75368 0.897785 1.01722
2467 11.963 7.68607 0.13269 0.128174 -0.598204 -1.08155
2576 12.3057 7.61592 1.20316 0.132094 -0.636049 -0.742722
3259 12.9377 7.41437 0.242406 -0.477831 1.42589 -0.879919
1212 13.5436 8.2362 0.75004 0.169067 1.45026 -0.883059
1723 13.9498 7.232 0.102721 -0.0286413 0.619646 0.363628
984 14.6989 7.19296 0.798762 1.11482 0.191652 0.250676
3482 15.3082 8.37369 0.77372 0.139949 -0.215764 -0.533117
2817 16.7898 7.7215 0.676164 0.0469892 -1.11774 0.0339501
421 15.8069 7.14347 0.476586 -0.63356 -0.31321 -0.533366
2611 0.994332 0.235809 2.0053 -1.0401 -1.20122 -1.18761
158 2.46564 1.01527 2.37012 0.0119603 -0.668851 -1.27611
1061 2.28555 0.0503447 2.79381 -1.1127 -1.27001 0.123274
3688 3.59309 0.957133 2.11279 0.0681162 -1.52909 1.55693
1604 3.0356 0.17776 1.71015 0.498597 0.223996 -0.507064
1815 5.04849 1.02914 1.76634 -1.27141 -0.204577 2.42259
2900 5.31492 0.487249 2.8086 1.00575 -0.308407 -1.53712
1635 4.43068 0.228026 2.27657 -0.561463 -1.50766 0.72547
1383 6.22042 1.27719 1.44916 0.471564 0.0755461 -0.605975
3713 5.8799 0.422071 1.82885 0.296049 -1.44244 0.332928
2751 7.08597 0.822088 1.95828 0.724736 -0.218597 -0.582675
3115 5.90427 1.39804 2.58525 -0.215094 1.17483 1.6244
958 8.44299 1.13607 1.97127 -1.09958 -0.557038 0.0528557
1524 9.57356 0.855797 2.50719 0.441672 0.777098 -0.225481
962 10.2949 0.677691 1.57527 0.0423725 -0.63672 -1.54947
3630 10.3957 0.0391172 2.61224 0.315559 -1.38201 -0.171383
335 10.6549 1.23901 2.38491 1.33431 0.262886 -0.579551
2959 12.5543 0.229227 1.66543 0.98037 -0.185823 -0.0114837
2227 11.5353 0.130756 2.04559 0.703255 -1.06615 2.07158
3924 12.1648 0.949576 2.21484 -1.18279 -1.64433 0.159592
1049 13.94 0.760358 1.7546 0.849871 1.85184 -0.711783
90 13.2749 1.0148 2.60721 0.919836 -0.0648925 -0.962028
3890 14.7796 1.38771 1.44002 0.681427 -0.126004 -0.609398
951 15.3275 0.718406 2.01282 0.494522 0.446634 1.16604
2055 14.2739 0.40887 2.66456 -1.61532 0.970532 -0.1018
3855 16.5192 0.940658 1.50717 -0.250703 0.079917 0.0753926
1583 16.3209 1.02904 2.62278 -0.454134 1.59285 -0.334603
2305 1.24105 2.01803 2.43191 0.517401 -1.45588 0.692467
2160 0.418021 1.64451 1.82223 -1.49262 -0.158663 -0.0243198
2075 0.880967 2.75632 1.62192 -0.270013 0.690858 1.13926
2050 1.87892 2.36137 1.77167 0.516149 0.661845 0.759654
3333 2.47372 2.84359 2.58975 -0.301032 0.315793 -0.182036
197 3.1176 1.98849 1.82114 -1.86138 0.889094 1.03022
426 3.69023 2.83207 2.22342 1.45618 0.440649 -0.48282
3670 4.24383 1.73003 2.10212 0.388953 0.059489 -0.466086
342 3.47477 1.86678 2.83497 -0.140426 -0.220016 1.75991
2217 5.68114 2.12608 1.64745 0.323267 0.247861 0.0798588
3225 5.03893 2.59466 2.65791 -0.707646 0.815265 1.83418
463 6.30454 2.6946 2.56391 0.912901 -0.265541 -0.22029
273 6.91993 1.77186 2.39869 1.1992 0.695307 -0.363914
3579 8.15619 2.11851 1.86768 1.17591 0.238689 0.805908
1547 9.49204 2.01054 1.52303 0.864753 0.172768 -1.28116
3505 9.87041 2.17486 2.57537 -0.353416 -0.0784596 -0.127832
2037 11.0551 2.57964 2.11809 0.741229 -0.889102 -0.551807
2077 11.8178 1.84516 1.48816 0.360087 -1.76525 0.640466
1535 12.2901 2.79054 2.20217 0.326453 0.296679 -1.68149
2568 11.813 1.81924 2.53035 -1.27332 -1.45572 0.18633
1349 13.8094 1.81399 1.96325 -0.0530862 0.624214 -0.861466
851 13.2442 2.72254 2.48509 -0.304714 -0.296665 -0.805502
359 14.8391 2.30636 1.91028 0.56342 -2.12589 0.0771302
860 14.6874 1.44206 2.60397 0.767829 0.475872 -1.97756
2002 15.694 1.74021 2.20459 1.44401 0.292396 -0.758286
687 16.2605 2.69312 2.66943 0.656252 -0.795076 0.459107
1840 0.924184 3.95578 2.13101 0.127199 0.113645 -0.312226
2480 1.01888 2.98091 2.68218 -0.663994 1.69549 -0.215471
201 0.165298 3.17022 2.25626 0.0051465 -0.0523174 -0.754647
1841 1.65255 3.35063 1.91631 -0.347866 -2.07427 -0.88484
1414 3.00024 3.83353 2.17942 -0.05352 -1.57393 1.43707
2195 4.1214 3.7019 2.8074 0.671073 1.23355 1.50053
1976 5.13977 2.91929 1.55105 -0.862041 -1.65298 0.8169
2784 4.29987 3.58451 1.71254 0.766904 -1.83447 -0.639473
2652 5.09275 3.67382 2.36085 0.227957 -1.06428 -1.14698
2374 6.22688 3.1453 1.57915 -1.09237 0.806251 -1.23646
1958 6.15149 3.9068 2.412 1.18853 0.412565 0.0869749
741 7.43292 2.86821 2.40681 0.938969 1.83122 -0.733893
19 7.69165 4.10691 2.08638 0.888997 0.215041 -0.0520956
2888 7.99704 3.16898 1.64396 0.199003 -0.648753 -1.17731
1716 9.07826 3.05852 1.47455 0.214828 0.478106 -1.33979
453 8.80799 3.9503 2.66503 0.872694 -0.761003 0.268707
34 9.7393 3.80506 1.80485 2.74692 -0.178589 -0.435174
3669 8.60574 2.92786 2.40385 -1.96876 -0.602031 0.604818
3392 10.9294 3.34528 1.49266 0.0897225 1.52726 -0.906623
3837 10.247 3.13302 2.45079 0.84004 -0.98939 -0.115734
301 11.6568 3.42449 2.75138 1.09147 -1.84326 -0.571615
231 11.834 3.76404 1.79307 -0.489587 1.24249 -0.641611
3433 12.8764 3.60551 2.48694 -0.939352 0.983194 -0.00898567
626 13.6382 3.52587 1.77186 -0.489937 -0.597927 -0.539773
2412 15.3312 3.31595 2.12896 -1.30408 0.196772 -0.67449
3802 14.5573 4.14471 1.75842 -1.20501 0.600876 0.502892
3121 14.3167 3.52509 2.81625 1.0484 1.05636 -0.222191
3777 16.1783 3.55377 1.64426 0.657988 -0.778874 1.83041
3884 0.210632 4.88294 2.0238 1.57208 1.68108 1.63107
3966 1.16858 5.37068 2.383 0.384773 -1.75278 -2.22013
1689 2.74236 5.0318 2.03523 1.44008 -1.81894 1.05101
1591 1.85336 4.58337 1.84752 -0.502827 0.986745 0.185701
2883 4.06026 5.67065 2.18183 1.83935 0.141509 0.0547372
237 3.71006 4.55127 1.75482 -1.01502 -1.13276 0.672701
779 4.71027 4.85755 2.14962 0.706406 0.556152 0.939
1980 5.69819 5.05253 2.3529 0.139565 -2.09864 0.287076
1950 6.58283 4.70629 1.84578 0.220681 1.63231 0.0787563
1509 8.38084 4.88121 2.66275 -1.22768 0.654513 0.839247
1847 7.79575 5.22615 1.86704 0.654127 -0.609291 0.0138705
552 7.20929 5.43968 2.67542 -0.917588 -0.463802 -0.421614
3018 9.87004 4.65986 2.42572 0.150102 -0.539722 -0.0489685
321 11.0368 4.3925 2.36442 0.780534 1.16403 1.02767
2237 11.7794 5.02059 1.77412 -1.70266 1.14364 2.14859
1217 11.6342 5.41693 2.79008 -0.955705 -2.2069 -0.263951
888 12.0635 4.42444 2.58054 0.237249 0.0497314 -0.908811
3622 12.7114 5.18391 2.73469 -0.897707 0.0814537 -1.24614
932 14.151 4.96905 2.22812 0.652848 -0.770712 -0.394521
3318 12.9208 4.58063 1.79065 0.095195 0.688312 0.487977
1200 15.4843 4.55252 2.31878 1.83425 2.67614 -0.445829
2567 16.0671 4.95747 1.63929 -1.60334 -0.965319 -1.7082
2176 16.5625 4.29865 2.38769 -0.234437 0.166179 -0.0465931
2727 16.456 5.53395 2.80883 -0.266978 1.57969 -1.8125
2032 0.235698 6.03132 1.91626 0.252407 0.0645847 -0.644243
954 2.48339 7.00843 1.49807 0.0433951 -1.05562 -1.82072
2761 2.51604 7.00515 2.45542 3.01866 -0.504822 0.700895
2789 1.68166 6.33568 2.02056 -0.257758 -0.310805 1.02555
1129 3.80791 6.597 1.93164 -0.426308 0.420255 0.866164
3697 2.96187 6.06457 2.29266 1.32397 -0.156888 0.787361
3710 4.81819 6.1978 2.68564 -0.391711 -1.23033 0.45624
891 5.31759 5.87655 1.59453 0.552486 -1.12045 -0.366697
895 6.06271 6.92919 2.58088 1.80079 -1.57934 -0.484568
1622 6.20302 6.096 2.00393 -2.24496 1.43851 0.4827
2007 8.25593 6.12815 1.74523 -0.280828 0.611778 1.01695
2550 7.17592 6.35259 1.9839 0.578301 -0.882765 1.2849
1828 7.83479 6.97653 2.52579 -2.09684 1.00635 0.323479
3068 9.24483 6.03589 2.08365 -0.762469 -1.82142 1.21172
265 9.63362 6.885 2.75526 0.351219 1.46917 0.306735
793 10.9032 5.70906 1.90788 0.270718 1.62453 -0.42323
2902 10.3649 6.58152 1.93763 -1.40097 1.68161 0.294861
1152 9.99691 5.70275 1.579 0.425601 -0.406771 -0.917148
362 10.17 6.05271 2.80007 0.449217 0.00945721 0.536233
1476 12.1094 6.20255 1.77271 0.371309 0.572148 1.73045
2277 11.4217 6.56171 2.60913 -0.204979 -1.45259 -0.846484
2314 12.6084 7.04307 2.185 0.225271 0.221465 -0.0101314
1170 13.3993 5.99275 2.20118 -0.412143 -0.664266 2.1986
401 14.6432 5.7097 1.57184 0.530832 0.27046 -0.421185
1214 14.8322 6.37137 2.82349 1.47827 -0.128637 0.758007
524 15.5953 6.08852 2.01651 0.226551 -1.4993 -1.06907
3369 14.272 6.74066 1.97372 1.08692 1.86273 -0.0322336
2291 15.705 7.07725 1.62849 -0.10245 0.404937 0.870666
2580 16.7305 6.48295 2.51491 -0.313417 -1.80402 -0.166677
2991 15.8453 6.96633 2.77195 0.495 1.62061 -0.308983
36 0.849159 7.44756 1.45708 0.898042 0.74818 -0.0568972
2724 0.3256 7.27745 2.36775 -0.507351 -0.239141 1.52229
771 0.559988 8.32387 2.48462 2.81989 1.69837 -1.40171
3723 2.46603 8.12136 2.60931 -0.400199 -0.314633 -1.09006
1317 3.54512 7.29264 2.73142 -1.50894 1.05081 1.64295
2288 3.86075 8.54975 2.4131 0.446474 1.69441 -0.301672
1780 3.21595 7.78401 1.8415 0.868531 -1.30489 0.238555
271 4.41776 7.50374 2.13662 0.244295 0.606293 -1.558
2529 5.45226 7.64091 2.10601 -0.952445 -0.852144 1.62064
2353 6.28609 8.34029 2.13464 -0.487024 1.14344 -0.257386
190 6.58204 7.19951 1.58213 -2.15961 0.0261274 -0.43727
3581 6.98302 7.53281 2.48788 1.93679 0.39316 0.623052
2335 7.85562 7.86579 1.95609 -0.131523 1.67991 -0.339474
1487 8.8191 7.37977 1.70291 -1.37945 0.46812 -1.60482
2765 10.8652 7.69265 2.71202 0.725818 -0.336419 -0.213665
2388 10.9416 8.28875 1.81072 -0.244791 0.987586 -0.692946
1099 9.97806 7.73891 2.25182 1.68075 0.978348 -0.740038
805 11.4054 7.16449 1.77546 -0.994619 -0.00109846 -1.01443
2293 11.8477 8.06648 2.17805 -1.17021 1.33802 0.921896
189 13.4382 7.36882 1.46545 -0.287924 -0.878485 0.892937
1081 12.9547 8.28714 2.10136 -0.578165 1.43448 0.611417
2933 13.7221 7.79055 2.39308 1.11228 -0.411914 -0.364676
763 15.6615 8.0415 2.4441 0.276688 0.694262 -0.257527
3694 14.4426 8.03389 1.44731 -1.60565 0.328304 1.22035
3427 14.6938 7.5192 2.72653 -0.130992 0.670076 0.982059
3149 14.5473 8.49534 2.55175 -0.346927 -0.171047 1.52448
361 15.9964 8.46931 1.5821 1.36523 0.121228 -0.408255
1087 16.9796 7.96706 1.65078 -0.931661 -0.103783 0.833498
639 16.6218 7.78597 2.73482 -0.922867 2.15991 2.17795
1367 0.26806 0.869492 2.87247 -0.766969 -0.997839 -0.25393
3200 1.26196 0.626461 3.04799 -0.50378 0.534084 -0.177158
423 0.629183 0.600811 3.9334 0.864381 -1.35018 0.472507
2593 1.88881 0.524036 4.00271 1.58715 0.0670227 1.3054
1651 2.90872 0.774219 3.79746 1.44459 0.841996 0.501918
1927 4.26251 1.14007 3.15802 -0.872477 1.18038 -0.0514169
3679 3.56986 0.368355 3.22233 1.48054 1.51909 0.137523
3659 5.05718 0.501078 3.95074 -1.62843 0.313746 0.62017
2834 5.99892 1.06965 3.74792 1.42079 -1.33145 1.99534
3812 6.55685 0.466877 2.85761 0.254237 -0.526938 -0.847418
1102 7.7001 1.1215 2.87047 1.54687 -0.842312 0.617465
1523 7.98908 0.184605 3.89341 0.185958 -1.60491 0.124453
731 8.36663 1.41187 3.78604 -0.314119 1.75318 0.558198
847 8.70049 0.733046 2.98099 0.453628 0.396458 -1.7484
1318 9.50867 0.10417 3.24406 -2.79184 -0.778864 -0.210061
222 9.40263 1.29693 4.25578 -1.50876 -1.003 -1.6932
2869 11.3316 0.707871 3.17062 -1.35919 -2.00127 -0.886303
2410 10.2695 0.966541 3.32132 -0.849031 0.889036 0.940041
477 12.4756 0.769118 3.86842 0.706694 0.390666 0.177331
3204 12.6462 0.229512 3.00383 -1.09561 0.175366 3.55428
2594 11.6204 0.22296 4.14126 -0.435336 -0.352298 0.433752
2519 13.5787 0.0896613 3.72375 1.34762 -1.16068 -0.534859
881 13.9189 1.06221 3.52382 1.0141 -1.20206 -0.698341
1097 15.3459 0.0239252 2.89711 -0.546509 -1.78774 -1.37445
1326 14.9529 0.768724 3.43075 -0.0160511 1.04815 1.31867
187 16.5824 0.136974 3.26034 -1.42087 0.520837 -0.662037
2672 0.229738 2.06988 2.85459 0.307436 -0.821556 2.34201
1003 0.990593 2.28172 4.19235 -0.870065 -0.579109 -1.12446
2472 2.00318 1.82434 2.89788 0.382703 -0.141451 -0.861116
3324 1.78079 2.78325 3.71109 -0.572145 1.80387 0.817588
2867 1.8967 1.6722 3.91028 0.115162 0.0920688 2.0737
635 2.77233 1.89449 3.61594 2.33737 0.832307 1.45334
2665 3.6142 1.49189 4.07145 -0.63698 -0.400236 1.20743
3336 4.05076 2.69183 3.12289 0.206056 -0.247051 -1.2096
120 4.99204 1.53636 3.87961 -1.60165 -1.01112 0.385519
3572 4.68028 2.58754 3.95092 0.950958 -1.02834 0.618496
1408 6.59629 2.62145 3.68389 1.49235 -1.57801 0.153704
239 5.75772 2.07428 3.26319 -0.379418 0.65112 -0.0853109
2654 6.90521 1.67199 3.41293 1.30708 0.771964 -0.403434
3891 7.80525 2.09228 3.12229 0.691793 -0.768463 0.567011
3152 8.43565 2.57441 4.00028 1.08045 1.07378 0.766456
3627 8.81777 1.92658 3.08263 -1.00933 0.71814 1.31736
2807 9.94303 1.95285 3.67184 0.65645 1.26816 -0.333436
689 11.3668 2.79359 3.48016 -2.7245 -0.947587 1.96525
2278 10.8364 1.90606 3.06763 -0.417062 -1.11299 -1.79754
1050 12.4274 2.73409 3.30184 -0.00137542 0.333252 1.67489
554 12.6452 1.76425 3.80642 0.999565 0.778423 0.306805
3366 11.5601 1.7468 3.72503 -0.464113 0.126008 -1.22345
313 12.8638 1.92429 2.87805 -0.18299 -0.555914 0.345628
3829 14.0858 2.33955 3.9408 -0.512237 1.35773 -1.55944
1557 14.0422 2.17582 2.97239 0.843414 -0.967189 1.48924
4 15.2818 1.84537 3.54449 -0.927891 0.384422 -0.851198
3438 16.3298 2.18418 3.63238 -1.86412 0.305564 -2.48212
864 17.0391 1.54049 3.77291 -0.897486 -0.0386321 0.024829
3664 0.429421 3.82442 3.28043 0.842712 0.240801 0.401091
2417 0.131344 2.89426 3.43412 -2.43405 0.00676804 0.612406
1410 1.37795 3.68163 4.03105 0.314705 1.09677 -0.186123
1332 1.80646 3.55439 3.05015 -0.901301 0.875231 -0.41384
504 2.55329 4.27388 3.09775 0.669164 -0.84053 -0.0935206
1055 2.49513 3.70162 4.07821 -0.740436 1.40656 -0.00141815
1527 3.14634 3.04433 3.62937 -2.16903 1.53212 -1.51356
2488 3.87403 3.43562 4.22623 1.07389 -0.228755 1.45675
2693 5.58038 3.26626 3.3703 1.5918 0.285113 0.765353
1209 4.643 3.65613 3.70846 0.68618 -0.756056 1.96906
1592 6.5951 3.73658 4.26677 1.5965 0.687744 -0.756097
199 7.18138 3.59017 3.22327 -0.550031 0.127366 -0.559784
2449 8.16975 3.55846 3.36563 1.04121 -0.0127176 -0.926813
618 7.45243 3.10533 4.10077 1.71958 -0.659958 0.248785
80 8.89193 3.52074 4.10082 -0.0757383 -0.330428 -0.300095
2431 10.6666 3.75411 3.12307 0.35046 0.0921103 -0.877148
2033 10.8169 3.54351 4.19985 -0.138971 0.82476 -1.8869
1548 10.0121 3.13375 3.56329 0.0894741 -2.22655 -1.42537
1271 11.9301 3.66282 3.80149 1.18277 -0.318278 0.171068
1947 12.8357 3.9164 3.44187 0.850957 -0.903449 0.248425
3268 13.4727 3.12631 3.60814 -0.0882856 0.242661 0.453565
2145 15.3028 3.83163 3.00066 0.708931 -1.62261 1.26983
339 14.5406 3.78207 4.01885 -1.51851 0.521742 1.16744
3253 14.8501 2.8825 3.36898 -0.569717 0.98707 1.05805
1242 16.54 3.62006 3.22673 0.81015 -1.04825 -0.901667
773 16.6037 4.04476 4.2574 0.38824 -1.17228 1.11302
1325 0.937296 4.61426 2.92158 -0.517083 -0.871494 1.30614
1584 0.223468 5.68009 3.28789 -0.897827 0.317697 -0.535008
2782 0.689145 4.53912 4.21632 -0.0218746 0.772016 0.884822
2976 2.12956 5.20074 2.87706 -0.0351169 0.901051 0.527809
1864 1.70368 4.69334 3.98797 -1.7135 -0.263849 1.90794
2600 2.64686 5.07521 3.87133 -0.320455 0.239289 0.955654
3090 3.40441 5.2196 2.88791 -0.756343 -0.895234 -0.254963
657 3.99834 5.52333 3.86293 0.263687 2.30744 1.76075
2788 3.5912 4.31153 3.67257 -0.653571 -1.91884 -0.0993412
525 4.40189 4.67393 3.1761 -0.145842 0.160267 -0.0798969
1413 5.57938 4.32891 3.39296 0.300096 0.51029 1.15972
2588 4.73998 4.56353 4.14442 -0.746043 0.546026 -0.133158
346 5.09391 5.39551 3.28152 -0.867284 -0.849135 -1.01827
3944 6.56225 4.8281 3.55071 0.403701 0.495144 -1.15563
814 5.9229 5.31757 4.18204 -1.88455 0.178358 0.32073
3737 7.83074 5.60719 3.51271 0.478563 -0.115802 -0.0196736
1035 7.68586 4.48659 3.37129 0.468354 -1.12698 0.0216653
2722 7.47366 5.05889 4.24811 0.946772 0.0198458 0.540758
2858 9.05939 5.55106 4.18089 0.55079 -0.281476 1.5222
2266 9.35782 4.34322 3.41259 0.641247 1.49739 -1.43333
858 9.36944 5.36904 3.1454 -0.210804 0.750586 -1.5187
1643 11.3981 4.44723 3.44284 -0.458588 1.40006 -1.31306
3695 10.5079 5.10633 3.14871 0.0412176 -1.00992 0.456825
336 11.172 5.3197 3.87253 -1.71478 -1.38741 0.187005
2091 10.0736 4.87693 4.128 -0.0819155 2.18167 0.537574
89 12.3109 4.843 4.16109 -0.436563 2.39266 0.100796
434 13.532 4.57266 2.88148 0.735742 0.0166232 1.77679
1661 13.2888 4.75341 4.07981 -0.200503 -2.31703 -0.116853
1690 13.8197 5.57447 3.37797 -1.22076 0.148509 2.43477
2244 12.8438 5.63424 3.64215 0.433977 0.414036 -2.09565
188 14.8167 5.38677 2.91469 -0.946834 0.286285 1.709
1708 14.6715 4.70016 3.64197 -0.874894 -0.360355 2.04103
2916 15.8418 4.85163 3.36815 -0.225038 0.120875 0.0870678
3415 16.4484 5.38414 4.07679 1.42126 0.424279 -0.935017
14 16.8628 4.76618 3.34146 -2.26539 0.9809 -0.00682328
545 0.610216 6.50099 4.08434 0.0570883 0.0736058 0.199566
859 1.36782 5.74151 3.41868 -0.0855175 0.858398 -0.117127
1601 0.710906 6.59325 3.05349 2.88064 -0.323353 -0.604876
3373 1.99893 5.92273 4.17522 0.11923 -0.0471837 0.934735
2929 1.85668 6.75838 3.1705 -0.893558 -1.41414 1.11135
686 3.85657 6.4382 3.10242 -0.776153 0.381812 -0.182083
3081 2.90518 5.98361 3.43313 1.26238 -0.459408 -1.15659
2940 5.46885 6.23381 3.99834 3.28862 0.249893 0.6394
390 4.41659 6.5669 4.1168 -0.0160109 0.113443 3.10427
2079 5.00085 7.00706 3.27489 -0.691583 -0.744065 -0.263166
900 6.97689 6.40399 3.09015 0.690677 -0.666664 0.972817
3790 6.13522 5.84349 2.99583 0.364985 2.25401 -0.0184071
1833 6.69357 6.17478 4.15685 1.25713 1.5067 -1.16788
640 8.35781 7.11114 3.62888 1.44269 -0.239636 1.50863
3007 8.70595 6.20938 3.00958 -1.43882 -0.607466 0.701155
3101 9.6795 6.65188 3.94408 0.553521 -1.15915 0.786269
410 10.8233 6.94209 3.63386 -1.47521 0.864022 0.440358
3773 10.3559 5.92537 3.86929 1.11637 -1.36493 -0.303796
1493 12.067 6.15754 3.90399 0.11667 0.0409662 -0.799926
843 13.8743 6.84412 3.0226 -0.774502 -0.409654 0.924237
729 13.178 6.57789 3.72689 -0.849094 -0.331556 -0.212255
2903 14.5821 7.06024 3.76371 0.911535 -1.53339 -0.772637
1387 14.556 6.00393 4.16765 -1.22403 0.0640972 0.58406
1015 15.5427 6.1067 3.80763 -0.280654 1.6573 3.34928
3470 16.6448 6.48711 3.56157 0.0461043 0.780099 1.00934
1227 1.05437 8.43374 3.50138 0.286283 -0.170153 0.771029
1541 0.280621 7.41979 3.49865 -0.304265 -0.127108 -1.3103
3116 0.371551 8.20112 4.21857 0.71907 -0.867334 0.299196
491 1.52538 7.65046 2.93156 -0.634841 -0.239502 -1.01806
589 1.48633 7.32287 3.95491 0.765837 -0.266429 1.26099
1182 2.79054 7.25021 3.42261 1.34501 0.616686 0.690168
2060 2.16331 8.15283 3.80579 -0.864467 1.82258 1.19648
2165 3.8045 7.54975 3.99071 2.07555 0.104931 -0.599219
2267 3.28818 8.38956 3.3611 1.77533 -0.97248 1.33046
2056 4.30291 7.85501 3.19254 -0.890046 -2.66524 -0.935498
1265 6.05302 7.9655 3.07146 -0.00220176 0.541278 -1.75712
602 6.23219 8.49265 3.93342 1.10563 0.164438 -0.512544
349 6.17938 7.15391 4.09661 0.181431 -0.0653155 -0.155602
2302 7.0027 8.53184 3.02446 0.299177 -0.707481 0.215445
3344 6.93638 7.64973 3.70476 0.161406 -0.556868 0.039156
2067 7.92581 7.93695 3.06674 0.176055 -1.81072 1.05879
2670 9.2061 7.99677 2.89977 -1.05146 0.508797 1.26791
2223 8.97783 7.85874 3.88038 0.0909384 0.803581 0.175008
969 10.0529 7.66866 3.60573 1.1141 0.169524 0.00169893
3731 11.2274 8.07985 3.81204 -0.732507 0.17435 -0.709947
3335 12.2687 8.26785 3.26349 -1.79074 1.98268 0.665715
249 11.9702 7.31379 2.95875 0.367526 -0.6165 0.383121
2699 12.2078 7.38367 3.99364 1.3925 -0.68194 -1.85856
3132 12.9756 8.3235 4.03654 0.55155 0.239362 1.12174
3473 14.0019 7.87785 3.50129 0.491009 -0.285633 0.748823
3540 13.0189 7.49607 3.21613 0.0391166 1.44061 0.0746721
1135 15.4449 7.7203 3.49441 -1.33853 1.69218 1.2572
3749 16.5221 8.26849 3.79831 -0.846328 -0.167457 1.52702
2001 0.506177 1.05995 4.99236 1.36185 0.488946 -0.627649
1882 2.28415 0.0485406 4.94632 0.597624 0.842994 0.442923
1987 1.52454 0.978952 5.0109 -1.60394 -0.0118086 -0.981633
866 3.50977 1.07596 5.05848 0.219715 0.950165 -1.10042
3641 3.39683 0.0478862 5.19697 1.35162 -1.08528 -1.54987
3880 5.40567 0.448532 5.6628 0.78148 1.67792 -0.180251
3119 4.36199 0.952372 4.48774 0.439435 -1.99636 5.19764e-06
3299 4.76859 0.0371669 4.86797 0.921109 1.04488 -0.434815
3628 4.68854 1.12268 5.52189 -0.54509 0.981793 1.05943
983 5.50644 1.06053 4.80002 -0.541817 -0.614356 0.447137
1992 6.94026 1.02845 4.34663 -0.655288 -0.429582 -0.271304
59 6.7692 0.517806 5.19629 -0.861469 0.45322 -0.114428
66 7.87957 0.267085 5.16716 -1.10134 -0.890317 0.521123
2172 8.51788 1.01307 4.77833 -0.896874 0.0971077 0.89921
2497 8.8268 0.068837 5.45283 -0.148988 1.12289 -1.81857
468 9.17737 0.26308 4.31911 0.907525 -0.904397 0.949695
2530 9.43133 0.966101 5.23015 0.110414 0.0102506 1.1833
1066 10.4664 0.729277 5.62788 -1.86733 -0.0476694 -1.76631
2946 10.8068 0.961026 4.40388 -1.08518 -0.427136 0.933807
3462 11.3641 0.140147 5.1848 1.02272 -1.22328 -0.979712
1392 12.4911 0.171834 5.00749 -0.852331 1.39942 0.775095
3269 11.9847 1.13493 4.71333 1.13346 -0.0601768 -0.21319
2778 11.4793 1.1883 5.5325 -0.231444 -1.07755 0.462436
1526 13.8403 0.472696 5.06391 -0.855801 -1.55879 0.292005
628 13.162 1.08792 4.57357 0.163331 1.17032 -0.237546
893 14.8993 0.256332 5.48776 0.311223 0.709775 -0.000962005
3247 14.6116 0.330509 4.31196 -0.657512 -0.185782 0.453608
3768 15.4949 1.15186 5.20655 0.442172 -0.7449 -1.00444