ITEM: TIMESTEP
79000
ITEM: NUMBER OF ATOMS
4000
ITEM: BOX BOUNDS pp pp pp
0.0000000000000000e+00 1.7099759466766969e+01
0.0000000000000000e+00 1.7099759466766969e+01
0.0000000000000000e+00 1.7099759466766969e+01
ITEM: ATOMS id x y z vx vy vz
1599 0.617902 0.288251 0.516807 -0.483454 -0.119608 0.388707
2426 2.68701 0.9728 0.898516 -1.51549 0.19904 -1.22339
3061 1.81592 0.428895 0.55104 -0.657508 -0.532468 -1.32014
3615 3.73113 0.71206 0.95375 1.60385 0.143159 -1.25157
769 5.60414 0.986718 1.14836 0.575984 0.951728 -1.73515
1774 4.98355 0.473898 0.537026 -0.521474 0.450224 0.000579153
952 6.09285 0.692405 0.280363 0.889112 0.617121 0.127895
857 6.63336 0.99243 1.38594 0.144927 0.516667 1.28422
348 6.33492 0.0152163 1.24059 -1.01266 0.0217045 0.269551
1524 7.55747 0.306886 0.78946 -0.809425 -0.585488 1.69331
1760 7.75214 1.21851 1.28839 -1.50115 -0.372677 -0.400939
3087 8.86138 0.964101 0.294742 -0.125842 -0.224468 -0.329135
1957 9.40602 1.08823 1.21644 0.205584 -1.11873 0.0203484
3506 9.56761 0.248433 0.552832 1.48821 -1.1461 1.19854
3366 10.4505 1.04938 0.755179 -0.346729 0.751859 -0.029274
1947 11.1483 0.184118 0.513574 1.03493 2.21724 0.53857
860 12.331 1.35191 1.38443 0.0133392 0.404688 -0.908497
3627 11.6699 1.19866 0.449628 0.228397 -1.54004 0.353152
1984 12.0228 0.132189 1.0558 -0.327664 -0.460877 -1.69005
1749 13.5288 1.39908 1.02121 1.96251 1.2823 -0.429975
429 13.5256 0.79005 0.205139 -0.204897 0.534383 0.131106
1090 13.1848 0.253477 1.04477 -0.169354 0.567882 -0.309356
1608 14.6407 0.628382 0.576327 -0.237504 0.752232 -0.816222
2608 15.3888 0.570211 1.30927 0.414173 1.44543 1.21899
2565 16.9773 1.15003 0.514598 -0.0112218 -0.586432 0.364016
1841 15.7295 0.781259 0.228009 0.108058 -0.105473 -1.25049
2116 16.3934 0.44118 1.12039 -0.320832 0.12282 -1.24642
1889 16.5576 0.0147096 0.159782 -0.642775 -0.867442 1.063
2160 0.428294 2.31755 1.0185 -1.13635 1.03797 -0.171819
3376 0.88079 1.43578 0.536692 -1.30318 1.1637 -0.284525
2247 1.93812 1.61006 0.599485 -0.205533 1.33959 0.392077
864 2.38408 2.13617 1.41241 1.07176 0.852417 -1.12999
474 1.43604 2.43137 0.409565 -0.404713 -1.17215 2.46598
2679 3.18133 1.88805 0.736616 -0.0635176 -0.364397 0.101524
482 4.04178 2.21656 1.28443 1.55685 0.691996 -1.31871
1369 5.05897 1.98966 0.878212 -0.225272 0.697763 -1.11131
774 4.30565 1.52699 0.290658 0.0454282 -0.559316 2.17622
668 4.5189 2.74521 0.329626 -0.0840261 -0.623253 0.698843
3446 5.4356 1.59023 0.0447868 -0.0903144 -0.442702 -0.383248
730 7.05405 2.13393 1.19184 2.11339 -0.16397 -0.957171
1188 6.48201 2.65877 0.56753 1.3312 0.52689 2.01081
950 6.4713 1.59077 0.57112 -0.805395 1.22529 -0.25295
270 7.56247 1.53845 0.22449 0.952375 1.48459 -0.959711
1384 7.69836 2.7108 0.744826 1.04119 -1.41649 0.447983
1534 8.72992 2.20678 0.378738 -0.89365 0.358207 -0.574244
1365 9.59083 2.29329 0.811618 0.0954401 0.451614 1.48074
613 8.56621 1.85162 1.37599 2.3446 -0.74054 0.0720518
2660 9.73793 1.57958 0.0820948 -0.873791 -0.161036 -2.29749
3009 10.8443 1.98671 1.34133 1.11072 -1.10553 1.51981
3944 10.6376 2.13819 0.224564 -0.545381 0.541345 0.656398
1077 11.8242 2.31414 1.16598 -0.351116 0.256642 -1.14351
2014 11.4671 2.82968 0.271439 0.0626697 0.903496 -0.0630608
3920 12.3461 2.34396 0.195034 0.173565 -0.802296 0.192389
1671 13.8506 2.68905 1.37048 -0.789496 -0.198517 1.19418
2066 12.8443 2.40215 1.20267 -0.0204693 1.01084 0.250186
2930 14.8757 1.75274 1.24544 -1.62615 0.0727046 1.42119
677 14.707 2.72282 0.27381 -0.18233 0.167195 -0.33098
3724 15.603 1.85498 0.573446 -0.354896 -0.109684 -0.225471
1428 14.6102 1.67348 0.0316522 -0.38612 -0.609932 0.716529
660 16.7159 1.60803 1.28852 -0.287533 0.280143 -0.21622
595 16.4375 2.50795 0.630663 -1.58451 0.555341 -0.172851
3688 1.24486 4.15835 1.38364 -1.38966 -1.31098 1.2904
921 0.31384 3.05594 0.238222 0.651564 1.17119 -0.694673
1400 0.222547 4.09536 0.715971 -0.902171 -0.1277 0.680514
2567 1.24601 3.49162 0.332016 -0.308381 -2.11192 1.30042
2965 2.133 3.93908 0.759929 0.0580518 0.200236 1.55741
1903 2.4494 2.86867 0.411458 -0.186445 -1.78694 -1.82109
1099 4.01905 3.30709 1.16927 -0.260972 -0.318723 0.0464666
3551 4.25973 4.22018 0.888518 -0.460361 0.401314 -0.913822
912 3.26005 3.82976 0.589991 -0.342001 -1.66132 0.292454
3257 5.4285 2.97399 0.665715 1.74419 0.14476 -1.58745
2288 6.74143 4.02016 1.08308 0.892994 -0.885854 -0.159384
645 7.14926 3.64751 0.112209 0.581894 -1.69662 -0.779262
2111 7.78989 3.84913 0.973968 -2.0583 1.36933 -0.987439
3954 9.66866 3.08326 0.0943764 0.526267 -0.022151 -0.302931
3671 9.55182 4.09176 0.771052 -1.57397 -0.388335 0.546815
2119 8.76561 3.31275 0.688579 -0.235146 -1.89281 0.679844
2586 10.4462 3.12278 1.06772 0.211118 0.882191 -2.05617
1069 10.7604 3.62053 0.191481 -0.184486 1.2262 -2.37166
2826 12.6494 3.37548 0.458908 -1.33658 -1.10622 -0.121267
15 11.7301 3.74788 0.949164 0.630638 0.5184 -0.837364
1539 13.5641 3.63035 0.743397 0.206245 0.635128 0.281773
2688 15.4858 3.42279 0.382876 -1.52444 -0.465785 -0.799866
2529 15.5502 3.00119 1.22548 -0.698123 0.481671 0.326731
2853 14.5613 3.44884 1.34047 1.81455 1.22189 2.28093
3149 15.3212 4.24147 1.09064 0.263117 1.65052 -0.838672
3253 16.5365 3.38768 1.02488 -1.26975 -0.515495 -1.85338
2342 16.6011 3.80952 0.00359183 -1.20016 0.618329 0.13405
3318 0.236423 5.13895 0.950093 -1.84648 0.105566 -0.355447
3887 1.26194 4.4893 0.429791 0.409518 -0.710054 1.29871
2442 2.70176 4.97406 0.568264 0.362276 -0.931122 0.723844
2320 1.7912 5.21157 1.04583 -0.38419 -0.693025 0.861103
3661 3.59578 5.25726 1.03964 -1.28242 1.84332 -0.691373
2883 3.95617 4.87506 0.150505 0.508271 -1.59507 0.488876
2863 5.42397 5.21027 0.414814 0.369673 -1.4401 -0.172558
3962 4.64729 5.13296 1.14835 2.22811 0.113745 2.30297
3495 6.2717 4.57158 0.142136 1.75814 1.44426 0.874707
733 6.40972 5.29106 1.09182 -0.130155 0.809328 -2.03315
3501 7.20984 4.87848 0.566786 0.188928 -0.545216 -0.963438
486 8.29004 4.86527 0.717946 1.65708 -0.228678 -0.0245459
3586 9.74365 5.12336 1.31084 -0.358094 1.51039 -0.831869
1724 9.02692 4.89226 0.00598923 0.29492 2.23118 1.59474
459 10.2944 4.96953 0.0849133 -0.550862 -0.967746 -1.46167
189 10.5941 4.38586 0.923594 1.5687 1.23088 -0.955279
223 12.3517 4.65507 0.599093 -0.807797 -0.179074 0.575258
900 11.4168 4.87285 0.157798 -0.847114 -0.404678 0.56872
238 11.7041 5.51973 0.969141 0.56034 -0.413799 0.0708529
1125 13.0168 5.41949 1.23444 -0.133692 0.359828 0.141404
3741 13.4332 4.53892 0.372067 -0.989295 -0.672558 -2.05395
3503 14.5907 5.63034 0.268472 -0.578631 -1.16003 -0.453721
947 14.5932 4.9329 1.3025 0.0726175 -0.712043 -0.261297
3132 14.5089 4.5388 0.273754 -0.0667219 -1.6863 0.847099
701 15.8338 4.81428 0.350611 1.27148 -1.12971 -0.795546
3673 16.2748 5.52917 1.12067 -1.65991 0.742967 -1.13213
2050 1.15806 6.19883 0.27609 -1.86722 0.382774 -0.39131
3079 0.171447 6.13705 0.773807 0.465916 -0.866904 0.811297
2291 0.866283 7.06006 0.969179 0.744267 -0.655761 -0.0801594
3966 2.17927 6.24608 0.867421 -0.159133 -0.352345 -1.15922
707 1.82728 7.08672 0.292478 1.10096 -0.173154 -0.11773
163 3.08071 6.11889 0.510081 -1.31787 -0.469624 1.17635
983 3.6725 6.83987 1.15546 0.67458 -0.625662 -1.1
145 4.31415 6.14518 0.868279 1.32338 -0.425699 0.0291614
1562 5.30044 6.36367 0.388231 0.782019 0.689666 0.61707
1104 5.55977 5.96551 1.3975 -0.405477 -0.946308 -2.16834
722 6.82106 6.35932 1.02078 -0.506328 1.33887 -0.299098
2504 6.72494 5.82512 0.227818 0.523216 -0.770653 0.841413
114 5.85416 7.0182 1.31368 -1.32344 -1.23087 0.213081
3443 7.67124 5.84383 1.34351 -0.100861 0.354236 -0.187346
1806 8.03738 5.92886 0.345531 0.663781 -0.779226 -0.690657
2135 9.52259 5.8849 0.163368 -0.44338 -0.896488 1.1651
1575 8.57229 6.70356 0.864088 -0.549333 0.169274 0.341377
830 9.51095 6.3345 1.29031 -1.16197 0.182898 -0.522947
204 9.46438 7.03388 0.357323 -0.210898 -0.118982 -0.609371
1452 10.3979 5.80004 0.863147 -1.03698 0.650782 0.652
1488 10.418 6.91701 0.854799 0.854582 -0.0962721 -0.390354
475 11.4832 6.941 0.564092 -0.530903 1.38145 -0.602559
832 12.5315 6.11971 0.292084 0.411312 2.64534 0.746401
1769 12.4277 6.39573 1.28597 -0.30937 0.727087 0.87341
2827 11.598 5.8605 0.0627457 -0.409867 0.290479 -0.21678
3018 13.5301 6.27468 0.811884 -0.164096 -2.24255 -0.242632
2525 15.6042 6.2203 0.589139 1.53307 -0.199521 0.480926
1919 14.9097 5.93923 1.38917 -0.593733 0.78629 -0.328253
1015 14.432 7.01744 1.16549 0.33576 -0.57978 -0.91596
2013 16.4662 6.83258 1.06499 -0.268243 -2.47344 -0.489517
296 0.827968 7.50003 0.0166642 1.2013 -1.65674 -0.0641367
524 2.41853 8.53846 0.700631 0.204915 -0.0500954 1.1855
2791 2.80765 7.16232 0.586796 -0.578597 -0.168321 0.586787
2736 1.8985 7.79677 1.12896 0.649814 0.179602 0.461108
3646 1.48803 8.21878 0.226413 0.0760067 -1.23196 2.0324
2056 4.21526 7.16774 0.12868 0.916184 0.560271 0.416754
3274 4.24985 8.1754 0.641337 1.30805 0.879972 -0.375534
2060 5.40899 7.45853 0.297825 -0.803428 -0.140108 0.0906045
1177 4.69402 7.20413 1.10797 -0.606792 -0.52615 0.975041
549 6.50262 7.38461 0.136466 0.590816 0.900138 -0.309035
1419 6.41913 7.94552 1.04006 -0.99582 0.00058693 -0.525232
410 7.41517 7.27314 1.0197 0.968503 1.47564 -0.593704
3249 7.25288 8.26229 0.348038 -0.0880618 0.0597432 0.693257
2984 8.5953 7.99627 0.846298 0.313808 0.105097 -0.0842638
941 9.69154 8.26787 0.917008 0.768836 -1.50345 1.00925
1943 10.651 8.08123 0.454794 -0.00897749 0.446071 -0.177745
1970 12.7949 7.24991 1.03032 -0.707619 1.1664 0.0258759
689 11.6988 7.76616 1.10249 -0.515038 1.40272 -0.868253
3833 12.8512 7.92679 0.193826 0.0789066 -0.781919 0.276609
3021 13.7797 7.88621 1.00801 -0.350869 0.350027 0.905781
2577 14.7217 7.90278 0.0320752 -0.517055 0.565046 -0.369326
3001 15.5488 7.17718 0.172997 0.714457 -0.327366 -0.888057
224 15.0321 7.83183 1.08833 0.429363 -0.627222 -2.28715
1298 16.7127 7.86453 0.622764 1.35475 -0.974566 -0.140151
2022 15.8754 8.48505 1.42092 -0.388046 0.273596 -1.92055
2055 0.816716 0.463971 2.64502 1.00901 -0.795303 -1.23376
1718 0.657234 0.959561 1.47083 0.343194 -2.16727 -0.138676
2564 1.31307 0.130444 1.50326 1.07813 -0.233262 -0.435871
355 2.77661 0.681824 2.00322 0.763867 -0.33198 0.928543
300 1.77668 1.079 1.57522 1.1167 1.24303 0.395594
1358 1.95469 0.675677 2.82638 0.329016 0.0196949 0.41766
3088 3.80752 0.775553 2.47352 2.94677 1.61285 -0.495564
741 4.57004 0.908915 1.63753 0.514373 -1.46998 -1.01683
3505 4.91592 0.794496 2.68669 -0.17366 0.0611972 -0.14525
3517 6.20258 0.505 2.2001 -1.46627 -0.445789 -0.276778
356 7.71206 0.0438659 1.79918 -0.299438 2.34776 1.23841
3704 7.20307 1.13337 2.34955 1.65287 1.84504 1.17141
209 9.12757 1.09863 2.32586 0.189388 1.59521 1.11352
1830 8.60766 0.535588 1.64249 0.661201 -0.437517 -1.12242
3190 9.23865 0.00822467 2.49112 0.303245 0.548633 0.794313
3924 10.0745 1.2544 2.00337 -0.346661 1.60095 -1.05364
3664 11.2411 1.03897 1.52098 -0.0778348 0.291981 1.16423
1605 11.0121 1.18997 2.54605 -1.00987 -1.01521 -0.735383
2410 10.3917 0.381347 1.50331 -0.91095 0.293477 1.694
1060 10.3795 0.288642 2.58893 0.5389 -0.160137 0.759812
3638 11.949 0.861429 2.35178 0.482175 -0.544198 -1.17261
2874 11.5495 0.0602009 1.96382 0.369461 0.425899 -0.705322
981 12.6491 0.00136074 2.067 -1.36846 0.709894 0.393926
2475 14.2428 0.692184 1.53619 0.737583 -0.0769087 0.87156
2064 13.1119 0.989184 1.93173 0.402007 -1.00079 0.470989
3438 13.7384 0.212312 2.32541 1.49728 0.0614271 -1.60383
1043 14.9344 0.663649 2.53826 0.632464 -0.689639 -0.00495354
242 15.9572 0.95342 2.73754 -0.552103 -0.0661925 0.456116
1415 16.7901 0.906276 2.03875 1.47651 -3.07415 -0.402874
867 15.9666 0.0717724 2.06113 1.00127 -1.41752 -0.39006
188 0.566373 2.63781 2.22123 -0.0590997 0.301583 -2.34533
2427 1.30272 2.01356 1.54232 -1.43149 1.08158 -1.03493
3467 0.592675 1.73484 2.74983 0.347886 2.1627 -0.487571
3990 1.74562 2.0789 2.37252 -0.526988 0.62221 -1.27724
618 2.68084 2.54564 2.39045 -0.151356 -1.37968 -1.08876
2217 3.39562 1.54792 1.73448 -0.137648 0.452588 0.380418
3361 3.71774 2.77355 2.08084 -0.204052 -0.80835 -1.36785
3919 5.38638 2.54362 2.60667 2.37403 0.219875 0.489928
3263 5.46912 1.55732 2.29837 -0.204637 0.307026 1.27119
2350 4.40984 1.92056 2.28767 -1.01978 2.23482 -1.67058
3880 4.89911 2.8055 1.64748 -0.00133137 -0.15604 -0.382388
2346 6.05451 2.28931 1.54162 1.27655 1.16501 1.89993
3737 6.49131 1.91058 2.6658 -0.668664 -0.319082 0.243082
3115 7.39909 2.27909 2.21044 -1.579 0.966561 -1.32579
2246 8.12999 2.84467 1.70484 -0.794767 -0.96846 -0.358145
2556 8.13484 1.51628 2.34748 1.04314 -0.63081 -1.14883
2697 8.18407 2.69905 2.75962 -1.45215 1.09384 -0.384524
3374 9.09105 2.45444 1.92307 0.12256 0.97867 -1.16634
1798 9.8558 2.66759 2.51305 -1.2144 -0.575283 -0.977002
2228 10.9323 2.43032 2.48919 -0.416336 0.976881 1.31127
664 11.7877 1.83079 2.16312 1.29406 0.605404 1.32637
1349 12.6147 2.55421 2.64763 0.000394029 -2.12796 -0.976517
1535 14.131 1.55148 2.12355 0.680392 0.712997 -0.554471
511 13.1806 1.9979 2.03436 0.565874 -1.60308 1.47619
1462 14.9615 1.73121 2.70623 0.872089 0.100526 2.98093
2764 15.6585 2.80803 2.3083 2.82568 1.00631 -0.0164353
3222 14.7922 2.49236 1.99094 1.70494 0.188929 0.164211
2800 15.6299 1.64458 1.94426 0.000731849 1.4107 0.45064
909 16.5201 1.82725 2.46838 -0.843592 0.431749 0.9454
2842 16.808 2.57982 1.63735 -0.660194 0.709009 3.09967
2857 0.508836 3.36766 1.46805 0.703185 1.26758 -0.706315
3900 1.01865 3.73137 2.24089 -0.766085 -1.31304 -0.808602
3403 1.63467 2.99635 1.56071 0.310933 -0.54716 0.452667
3812 2.79746 3.24677 1.68663 -0.0929454 0.272771 -0.438233
2672 1.98158 3.47374 2.5343 -0.689279 -1.26135 0.36963
390 2.81617 3.95007 2.43033 -0.693491 -0.422733 -0.67521
2081 4.0728 3.73541 2.15735 0.856661 -0.657122 -1.16075
2820 5.67163 3.76846 2.52957 0.488822 0.0528353 -1.15251
2331 4.97304 3.77574 1.69453 -0.260531 -1.23464 0.74177
3198 6.78734 3.24612 2.18156 -1.07398 -0.691195 -1.83855
2808 5.97113 3.43135 1.53642 -0.951957 2.43145 -0.389152
3101 7.92424 3.70349 2.36925 -1.38357 -0.442006 -0.298255
2315 8.67999 4.13591 1.49611 0.782851 -0.163563 0.781745
473 9.63288 3.38488 1.68857 -1.40564 0.477137 0.992365
1476 9.07866 3.55605 2.58062 1.20523 1.13177 -0.0827851
3078 10.4692 3.40724 2.31422 -0.4441 -1.14802 -0.326459
928 11.308 2.98603 1.65105 0.888848 -0.883635 -0.107328
938 11.2249 4.0335 1.76509 -1.28012 2.46966 -0.361044
3008 12.2512 3.38307 1.75923 0.338826 -0.485537 -1.62477
3837 11.7293 3.48612 2.63514 0.331287 0.6678 -0.9474
132 13.8112 2.85642 2.3797 -1.12057 -1.25546 -0.583985
453 13.0253 3.46962 2.63953 -0.292034 2.50299 0.789191
1909 13.7475 3.65558 1.79138 0.993351 -0.724785 0.733991
2080 14.7562 3.38994 2.83836 -0.774388 -1.33599 0.359695
1612 16.8484 3.80215 2.4923 -0.618213 -1.70691 2.87925
3468 16.0571 3.68863 1.82958 -1.47991 -0.0931642 1.01491
1715 0.124235 5.6161 1.98383 -1.14017 -0.606543 0.324305
1864 0.378616 4.5665 1.97303 -1.93346 -0.702005 0.277273
1290 1.37945 5.1999 1.97082 1.03801 2.61469 -1.0977
14 2.10062 4.3564 1.86903 -0.090281 0.665635 0.949984
3675 2.61662 5.32697 1.66298 0.293991 1.34241 -0.242833
1178 2.39443 4.90043 2.69773 0.475495 1.17433 0.185161
1421 1.44119 4.54799 2.73342 0.349399 0.67591 -0.206199
3670 3.31142 4.34563 1.60606 0.789576 0.0158821 0.382693
1779 3.34307 5.04813 2.34668 0.574067 -0.84292 0.0717009
3636 4.26604 5.66745 2.68957 -0.407661 1.20294 -0.397146
2035 4.39176 4.77668 2.16607 0.272342 -0.0266608 -1.2381
871 5.26654 5.64485 2.33629 0.359375 0.200913 1.87554
3696 5.557 4.80237 1.67736 -0.38817 -1.3175 -0.617826
2165 5.97235 4.83455 2.79124 -0.0424141 -0.644643 0.915244
2838 6.9017 5.6471 2.45819 0.38068 0.0536871 0.32868
1716 6.64432 4.27636 2.33573 -2.02744 -1.03803 1.95179
168 8.31262 5.01751 1.91554 -0.573534 -0.80879 1.12468
346 7.25972 4.81292 1.61813 -0.308371 0.686356 -1.67047
2349 7.46994 4.85882 2.67139 1.57284 -1.51908 -0.323259
19 9.28602 5.68961 2.26724 -1.36437 0.22918 0.430193
3121 9.28556 4.63132 2.27621 -0.848463 0.469462 -0.704307
936 10.2168 4.30108 1.87639 0.988462 -0.123891 -0.237147
2314 10.8073 5.08656 1.65191 -0.584944 1.49796 -0.476805
1831 10.6793 5.51712 2.84765 0.190693 0.130632 -0.0397223
2670 11.9581 4.72077 1.52481 0.437408 0.844859 -1.24477
2691 12.5303 4.37597 2.59783 -0.217529 -1.79874 0.482632
1200 11.482 4.65314 2.61193 -0.366306 -3.29706 -0.360969
1845 13.0296 4.38218 1.62986 -0.490749 -0.755881 0.4185
1381 14.0099 5.5713 1.72195 -0.237321 -1.18425 -0.214965
3777 13.0778 5.29224 2.49297 0.609502 0.0281279 -0.78908
2924 13.9201 4.58786 2.23088 -0.831384 -1.40324 -0.472086
151 14.7727 5.33413 2.57285 -0.244151 0.420041 1.22643
2748 14.9316 4.30137 2.09285 0.140932 1.0905 -0.002072
1359 15.5399 5.08155 1.70921 1.55893 -1.00321 0.702358
1087 16.4658 4.59515 1.64927 -0.0634536 0.746787 0.957622
1410 1.12052 6.14549 1.49785 -1.12781 -1.32245 0.063045
2416 0.09889 7.07968 1.80621 -1.08717 0.23425 -0.380617
2940 1.31419 7.01692 1.92217 0.744528 -1.30732 -0.209396
1652 1.04023 6.57068 2.80479 0.253728 0.936637 1.13792
1135 1.86052 6.02054 2.2741 1.32799 1.11972 -0.943373
101 2.51332 6.82052 1.85412 -0.702291 0.062634 1.40918
1129 3.71011 6.00766 1.74343 -0.200569 -0.0933676 1.90682
2032 2.89995 6.02947 2.56711 -0.396201 -0.758545 0.953958
588 2.91466 7.09083 2.78428 -1.55588 -0.905614 1.6153
1622 3.79569 6.81594 2.26667 -0.205563 0.29099 -0.443567
2734 4.78031 6.51368 2.03156 -1.12693 0.329914 -0.238775
2604 5.61189 6.68946 2.77135 0.159832 -0.746375 -0.8133
409 6.33879 6.57258 2.12827 -1.45705 0.810864 0.961198
5 7.48224 6.78435 2.00143 -0.0892511 -0.580341 1.09283
1950 8.47572 6.10237 2.12108 -1.1338 -1.81708 -0.593963
271 9.3569 6.68818 2.62981 -0.909126 -0.938463 0.330032
2183 10.45 6.63863 2.75229 -1.51111 1.37544 -0.368747
1690 10.403 5.95238 1.92868 -1.44352 0.122406 -0.246377
2997 11.3681 6.26769 1.50835 1.70149 -0.581357 2.64054
976 12.0202 5.707 2.22965 1.49169 -0.609405 0.545849
89 11.9975 6.87079 2.12492 -0.754065 -0.440111 -1.09228
2033 12.9706 6.39842 2.31657 -1.2161 -2.49512 0.624289
1387 13.9351 6.56381 1.96864 1.04275 0.874305 -2.29004
339 15.5447 6.89849 1.59461 -0.759226 1.68129 -1.7476
1558 14.8116 6.36746 2.36354 0.259702 -0.0239621 -0.520375
2611 16.5467 5.99743 2.70292 -0.151169 0.56702 -0.365529
3987 15.8739 6.87418 2.68193 1.19398 -1.65182 -1.61906
948 0.124207 8.17441 1.59475 0.145699 0.187491 -0.254583
370 0.806432 7.71348 2.52517 -1.19058 -1.00793 -1.31787
1356 2.06562 7.81829 2.14534 0.0162989 1.34203 -0.131799
1703 2.95641 7.66808 1.56308 -1.02783 -1.07242 0.975007
2735 3.95348 7.91996 1.68761 -0.0257999 -0.48327 0.411535
2079 3.2858 8.32443 2.47269 0.444931 -0.364982 0.0266399
2374 5.26025 8.11503 1.45554 -1.31977 0.0322505 -0.653956
3344 4.99556 7.50686 2.28496 -0.290662 0.132074 0.616527
2494 6.77198 7.51543 1.83623 1.0593 0.989398 -0.481301
292 6.25635 8.53664 1.91228 1.93872 0.300919 0.952456
996 7.77141 7.68622 2.28771 -0.113185 -2.04162 0.0933575
1019 7.16023 8.35226 2.5608 0.211139 -0.690408 0.164682
2213 8.43877 8.4003 1.78257 0.199357 0.055332 0.326014
2873 9.63569 7.35832 1.52166 0.277337 0.390763 0.981316
1081 8.62099 7.22021 1.71161 -0.578533 0.155418 -1.10102
738 8.89873 7.92208 2.46621 1.93608 0.357216 0.787884
1251 10.7314 7.13454 1.78588 -0.676551 -0.120646 -0.427728
1295 11.1674 7.89015 2.65281 -0.221643 -0.306043 0.648673
1142 10.003 7.89662 2.43089 0.674297 -1.41833 1.40382
3559 10.6391 8.14687 1.61597 0.722426 2.56314 2.27779
1487 12.3489 7.76787 1.83204 -0.296561 -0.419113 1.34081
1167 11.475 8.50033 1.94356 0.811246 -0.817405 -1.03496
1644 13.3024 7.33476 1.94881 0.327437 -0.389379 0.420437
174 13.3581 8.41152 2.01416 -0.171568 -0.779934 1.04677
1225 15.5687 7.83098 2.16376 -0.14572 -0.180609 -0.407775
3451 14.4624 7.56928 2.09293 0.177836 1.93061 -0.608137
2692 0.782744 1.1848 3.62025 0.558045 0.3649 0.177067
60 3.03456 0.656358 3.27119 0.111932 0.716305 0.335438
779 3.45111 1.35136 4.1131 1.39322 -0.262808 -0.701698
2593 4.07821 0.410504 3.43189 -0.0196746 0.86138 -0.371622
958 6.89703 0.171679 2.94369 0.0211197 0.519614 -1.0458
273 6.48943 1.14281 4.07114 0.653742 -1.5593 0.73828
1958 5.93987 0.848108 3.20725 -0.642758 0.929279 0.424489
2411 5.83631 0.277622 4.26959 -0.777241 -0.887123 0.219211
1523 7.41805 0.400204 3.78432 -2.05093 0.634994 1.39614
96 8.45456 1.40487 3.92126 -1.15182 0.788092 -1.09658
634 8.29637 0.536572 2.85105 1.64429 -0.695634 1.00754
1822 9.19693 0.520489 3.49491 -1.36471 -0.640358 0.715423
136 9.54957 1.24708 4.09205 -0.809258 -1.03468 -0.556875
322 10.4699 0.975615 3.62278 1.14034 0.812059 0.471483
951 12.6013 0.325008 3.24101 0.696867 -0.0152216 -0.289406
2654 11.4046 0.12708 3.12511 -1.42794 -0.205941 -0.978404
4 11.922 0.972824 3.61572 -1.20598 1.41415 0.028659
421 13.9506 0.938185 3.05947 0.114321 0.180933 1.58696
2272 13.3529 0.969051 3.85896 -0.152863 0.371972 -0.443692
3925 14.9187 1.00802 3.65058 2.61696 -0.563488 2.17363
3601 14.3175 0.423751 4.09016 -0.385124 -1.19087 -1.57766
1046 16.969 0.829414 4.13006 -1.0866 0.021467 -0.555724
3014 16.1172 0.518839 3.81848 0.819974 -0.472532 -0.106956
685 16.9691 0.660518 3.05553 0.917259 -0.902458 -1.92884
2202 0.33981 2.22078 3.82446 -1.48365 -0.0409489 2.07611
3457 1.34765 1.91327 4.07888 -2.33283 -0.710811 -1.56175
2472 2.64352 2.02357 3.85953 1.90541 0.289368 -0.933784
2782 2.23468 2.76917 3.40371 -0.476534 0.393299 -0.112723
1498 4.22875 1.44732 3.39644 -0.253783 1.3283 0.325401
424 3.39885 1.8027 2.86175 -2.95103 -0.498404 0.656673
2324 4.19673 2.52904 3.22544 -0.932971 1.04884 3.03167
726 5.35742 1.72013 3.49316 0.682177 -1.08384 -0.711157
1496 4.92375 2.6991 3.96333 -0.268933 0.548922 0.696655
2652 6.47768 1.98441 3.68135 1.24567 -2.58503 -0.920133
3452 6.97492 2.7559 3.15809 -0.231024 -0.662606 1.05379
239 7.47648 1.78488 3.38174 1.28508 0.667127 -0.612214
3017 8.29239 2.50305 3.76744 -1.28576 -0.249008 0.786029
593 9.96667 1.87222 3.03595 0.224369 1.07818 0.391523
58 8.83064 1.94323 3.04332 0.141401 -0.403804 3.77652
1720 9.74934 2.34392 4.22287 0.538076 1.18045 -0.742535
2431 11.1024 1.7352 3.4794 -1.0343 -2.59315 -1.45821
336 10.3943 2.73849 3.50317 -0.467886 -1.1449 0.478652
1972 12.5045 1.51806 2.97479 0.928089 -0.0647736 -0.745844
847 11.5475 2.80823 3.47141 0.0803691 0.798538 0.610154
2778 12.0672 2.11418 3.95041 -0.404504 1.16291 -0.542924
3147 13.7034 1.91572 3.0451 -0.681135 1.77278 -0.522685
929 13.1407 2.11348 4.11421 0.886768 0.988043 -0.111533
1140 14.2061 1.74894 3.91834 0.706488 0.431132 -1.42417
2551 14.588 2.42641 3.30546 -0.541499 -0.220601 0.745129
3923 16.5975 1.60738 3.48617 -0.254475 1.4745 1.50932
1242 15.7934 2.14004 3.25831 -1.44172 1.48767 0.755044
1003 16.4052 2.50295 3.99842 -0.869176 0.298773 1.42228
1353 15.9081 1.54366 4.19271 -0.449508 0.268193 0.205825
2425 1.06949 3.12312 3.0214 -1.48097 -1.11289 -0.201463
342 0.515747 4.09345 3.21873 -0.312067 1.37618 -0.472757
197 0.931529 3.43678 4.09455 -0.512088 2.36955 2.11731
3333 2.69097 4.19266 3.8042 -1.75156 0.479013 0.446509
325 3.2547 3.00084 3.34392 -0.66307 -0.0415525 -0.0243847
2723 4.13413 3.61863 3.86346 -0.0926555 1.54416 -0.16893
3116 4.80626 3.3379 2.8713 -0.462177 0.624017 -0.185165
891 5.09595 3.8763 3.69958 -0.0241561 0.299839 -1.37941
2858 6.78648 3.23019 4.09147 -0.62775 0.379479 0.284326
191 6.21767 4.13567 3.46036 0.69354 1.14294 -0.281101
1124 5.87779 3.00807 3.39896 1.22302 -1.20799 0.839008
3630 7.34327 3.84393 3.36912 -1.27654 -0.201775 0.511405
3231 8.31541 3.80797 3.51251 -0.333721 0.125918 0.00995672
1166 9.93332 3.66215 3.38596 0.669236 -0.553726 -0.728931
2068 9.16363 2.85906 3.43215 -0.676632 -0.32308 0.246056
1828 9.19709 4.2673 3.8871 0.660207 1.3626 0.281292
501 10.8941 3.9339 3.2104 -0.321755 -1.68378 -0.135438
301 11.0031 4.01356 4.27206 -0.121537 0.829548 -0.798675
2077 12.597 2.94195 3.66504 0.414137 -0.0917467 -1.04492
1152 11.853 3.79294 3.656 2.08469 -0.892845 0.93432
3440 13.6944 3.13878 3.61893 -1.24045 -0.146604 -0.204372
1688 13.1249 3.80041 4.24005 0.208771 0.11112 0.860927
2707 14.7426 3.63808 3.99305 -0.125813 -0.782091 -0.139249
1974 16.9127 2.90917 3.17638 0.0859644 0.272536 1.04286
3441 16.8855 3.64758 3.94735 0.268728 1.13815 -0.278863
1214 15.8171 3.51301 3.30598 -0.966253 -0.378369 1.83107
3659 0.832728 5.24663 3.95153 1.30947 -0.100265 0.786752
2584 1.64192 4.28564 3.77362 -0.430738 1.24251 0.0858381
772 2.1262 5.26306 4.13012 0.678583 1.31267 -0.83241
3620 1.55625 5.61392 3.30582 -0.39249 0.720998 0.490744
1992 2.92563 5.17755 3.50999 1.12321 -0.0784431 -0.520656
1413 3.78703 4.57486 3.07788 0.484484 0.866741 0.290819
423 3.57378 4.74502 4.10338 1.023 -0.328036 -1.77077
3081 4.2006 5.6888 3.87359 0.00965568 0.184083 0.763257
2784 5.02309 4.88332 3.12807 0.680986 0.941989 0.188504
648 6.32907 5.69637 3.33723 -1.65499 -0.773156 -0.572275
3225 6.90301 4.64866 3.9704 0.875811 1.12633 -0.865366
3790 7.03512 5.54223 4.26246 -0.650142 -0.0713569 0.110738
1408 8.30933 5.22537 3.47737 -1.34086 -1.80837 1.70182
3261 9.69052 5.58073 3.33483 -1.54346 -0.167418 0.672922
2579 9.66028 5.06418 4.26583 -0.253369 1.18562 0.123186
81 10.0756 4.66224 3.19891 0.101014 1.15416 -0.479232
3415 11.4485 4.84413 3.66974 0.823545 0.149943 1.25193
2903 12.6022 4.71992 3.62461 -1.85205 -1.81822 -1.32005
2075 13.4456 4.37206 3.12263 -0.387807 0.844455 -1.55981
3007 14.0876 4.34821 4.02755 -0.627122 -1.7263 0.437494
2403 14.1525 5.54647 3.35611 -1.54551 0.704269 1.04114
3622 14.7627 4.48549 3.17388 0.202873 2.14894 1.24356
531 15.718 5.2696 2.85669 -0.772998 0.95786 1.34445
385 15.7646 4.66653 3.7554 -0.384464 1.2065 1.03063
2592 16.5746 4.75289 3.07205 -0.432636 1.05041 1.42574
185 0.0252513 6.89713 2.8704 0.567249 1.04396 -0.457112
3420 0.339306 5.79827 3.0651 0.876481 0.251215 2.57692
2727 0.4596 6.37384 3.98248 -1.21004 -2.15491 -1.19823
639 1.4462 6.11094 4.10769 -0.547751 0.869861 -0.137096
2648 2.36757 6.39677 3.43219 -1.06273 0.491529 -0.200757
1375 3.46542 6.38847 3.36474 0.55066 -0.258531 0.271446
1780 5.30377 5.85365 3.81463 -1.77446 1.44832 0.483262
1184 4.64418 6.55922 3.15141 0.102522 -0.274431 -0.970879
2208 4.47286 6.55978 4.24007 -1.85879 1.57635 0.148105
2923 5.45235 7.05608 3.96066 -0.00359742 -0.227865 -0.442347
809 6.4485 6.69996 3.93901 -1.46128 -1.1341 -0.562775
2882 7.27621 6.26207 3.47772 -0.254304 -0.722933 0.0121269
754 8.54616 6.28074 3.23804 -0.945512 0.931949 -0.890217
1801 7.68912 7.07866 3.06897 0.453358 0.749928 0.15515
2266 8.72693 6.66593 4.13815 -0.200004 -0.694487 0.138784
2492 9.80729 6.30808 4.01755 0.660359 0.499777 0.40014
3844 10.7886 6.56211 3.80473 -3.76796 1.34209 0.605607
2198 11.4328 6.26776 2.92491 0.112962 -0.818005 1.01903
2950 11.787 5.75927 3.95672 1.82031 -0.272885 0.199764
1493 12.1658 6.81552 3.80424 -0.853132 0.22731 -0.353488
1514 13.2877 7.08256 3.93729 -0.799855 0.182829 0.674406
1630 12.8722 5.75667 3.48568 -0.604808 -0.927463 1.84003
2430 13.3271 6.18041 4.26469 0.414922 -1.78938 -0.412583
3684 13.8506 6.57428 3.17588 0.0282945 -2.15185 -0.177344
3791 14.5077 6.69868 4.0016 0.63113 -0.0237925 1.00477
816 15.0881 6.1707 3.37068 -0.628091 -0.441367 -0.271752
2481 16.6503 7.11977 3.8764 -0.867956 -0.956695 -1.78306
771 16.3481 5.90115 3.74263 -1.55434 -0.560383 1.18783
3865 0.710166 7.38836 3.66234 -0.369033 1.92249 -0.37904
1976 1.97667 7.34796 3.07618 -1.38819 -0.697146 -1.00236
47 1.44041 8.08704 3.76064 -0.403861 0.464358 -0.365187
3193 2.59481 8.28351 3.2397 1.084 -0.214435 -0.00984581
2788 1.86802 7.1588 4.12547 -0.734887 0.153112 -1.42998
1209 2.92553 7.49099 3.89795 0.265288 -0.670937 -0.564097
589 3.78418 7.76533 3.16073 0.628517 0.542859 0.0920711
2191 4.98729 8.17864 3.3752 -0.0912994 -0.0258503 -0.484181
651 4.45075 7.53843 3.97466 -0.949414 -1.51106 -1.28049
1509 6.21806 7.84395 3.93184 -2.20816 -0.481613 -0.0987582
3710 6.64959 7.17269 2.95713 -0.123047 -1.15786 -0.468259
2966 6.11327 8.40219 2.94998 -1.49473 -0.987077 0.384581
1503 8.14006 8.33661 2.94192 -0.24161 0.139802 -0.660187
2926 7.23983 8.11217 3.64367 0.292935 2.22693 -1.89755
2810 8.28024 7.6056 3.78889 1.45999 2.14299 -0.131666
434 9.89763 7.22714 3.2866 1.502 1.25736 -0.88623
3256 8.94943 8.42046 3.703 -1.16384 -1.1672 -1.19183
3512 9.94351 8.26111 3.5733 0.170421 -0.828847 0.777581
838 11.369 7.50925 3.57194 0.230558 -1.14202 -1.33715
1473 12.2852 8.49458 2.88978 -0.976312 1.19873 0.000667768
3166 12.5586 7.23658 3.00944 -0.585082 0.0174718 -0.778276
502 12.7368 7.98166 3.67958 0.923604 -0.00530612 0.343106
3230 13.5066 7.78013 3.00325 0.479325 -0.172081 -1.17446
2902 13.6354 8.26342 4.26817 -0.74346 -1.22069 -0.510649
749 15.0562 7.75193 4.16274 0.438816 -1.43163 -1.35363
882 14.4545 8.30339 3.00162 -0.215146 -0.823293 -0.228016
2108 15.0513 7.34408 3.16271 1.08572 0.749022 -0.796039
1964 17.0682 8.20194 3.80013 -0.0410775 -0.296996 -1.31551
3450 16.32 7.77991 3.06195 0.974098 0.581197 0.562442
3786 0.854827 0.52415 4.76629 -1.45803 -0.577787 0.202175
1256 0.589288 0.0223353 5.65034 1.09166 -1.28793 -1.24066
3202 1.65854 0.0502854 5.43897 1.56589 0.547444 0.382564
2337 2.11625 1.10792 4.30458 1.24112 0.172886 0.62712
2900 2.78056 0.942357 5.3232 -0.00827881 -0.727723 0.105103
1041 1.55827 1.25764 5.34245 -0.365563 -0.521696 -0.817531
708 1.84799 0.124806 4.39562 0.225989 0.139585 -0.703385
2166 2.88938 0.389968 4.32513 0.924087 0.457077 0.278931
3534 3.99554 0.190219 4.92441 0.397288 -1.66525 0.420832
917 4.83516 0.337375 4.36419 0.822651 0.1903 0.338941
295 5.40135 1.13926 4.85918 2.08392 0.369649 0.926218
3363 4.37453 1.35843 4.63172 0.105039 -0.448462 -1.44882
1639 4.52003 0.883584 5.56455 -0.861936 0.247979 -0.631958
1986 6.42373 0.778057 5.07151 1.3138 -1.74367 -0.0245382
1815 7.27124 0.23213 5.22759 0.177798 -0.234042 0.0108749
3260 7.55677 1.20902 4.36729 -0.27409 1.11991 -0.533264
2981 8.28269 0.337261 4.552 0.00326276 0.425366 -0.742486
3387 8.2386 1.34804 5.13025 -1.41232 1.05136 -2.07387
3543 9.55832 1.21494 5.39448 0.364536 0.412288 1.59145
3829 9.73599 0.164724 5.59867 -0.96799 1.80627 0.485277
2714 10.2347 0.381875 4.46432 0.295944 -0.407084 -0.459118
2601 11.3884 0.357072 4.4615 0.218931 -1.30085 -0.696804
2147 10.8012 0.388955 5.47955 -0.503934 1.26863 0.148242