ITEM: TIMESTEP
74000
ITEM: NUMBER OF ATOMS
4000
ITEM: BOX BOUNDS pp pp pp
0.0000000000000000e+00 1.7099759466766969e+01
0.0000000000000000e+00 1.7099759466766969e+01
0.0000000000000000e+00 1.7099759466766969e+01
ITEM: ATOMS id x y z vx vy vz
2202 0.740576 0.628829 0.934313 -0.336017 0.939881 -0.904592
2120 1.74025 1.06354 1.10418 -0.428257 0.274917 0.420533
1974 2.73974 0.539091 0.594551 0.537051 -0.081701 0.596618
3615 1.87014 0.0235476 0.378405 -0.63971 -0.267713 -1.66261
2426 3.69322 1.00061 0.723143 -0.288023 -0.255244 0.462034
2337 4.83438 0.219532 1.28322 -0.339576 1.64844 1.67194
3390 4.34606 0.0894333 0.110532 0.380133 -0.918919 -1.18368
2217 5.21743 0.679474 0.364636 0.927972 -1.74411 1.07384
3966 4.34014 1.35719 0.0612505 -0.782732 -1.56729 -0.789758
113 6.40225 1.03432 0.504666 -0.948711 -0.158438 -1.2428
1350 6.01113 0.0735129 0.177371 0.911317 -0.620548 -0.681296
3891 6.68316 0.182409 1.02459 1.98664 -0.4155 -0.530806
3630 7.54716 1.1159 0.681494 0.313643 0.606301 -0.440364
3366 7.8011 0.0279735 0.609245 0.380577 -0.150065 1.06855
2315 8.88943 1.41139 0.91844 -0.193592 -0.957194 0.193577
1749 9.51715 0.194869 0.131884 0.90253 1.99328 -0.785217
2227 9.81999 0.373363 1.09301 0.0398902 -0.621196 0.812456
3204 9.90181 1.27129 0.276349 0.302298 1.40116 0.551585
580 8.744 0.400515 0.90795 -0.844002 0.667497 0.183384
3392 11.0419 0.805991 0.985572 0.918035 -1.07881 0.497225
3756 11.3217 0.34145 0.018412 -0.441703 -0.601678 0.386621
3785 12.1351 0.907675 0.836501 -1.45536 -0.210153 0.67543
1937 11.5729 1.42468 0.0415198 -1.13201 0.75352 1.27208
1711 13.0896 0.306473 0.692165 -0.845371 1.64083 0.0333115
664 14.1258 1.34945 1.01693 0.278983 -1.0901 -0.311176
3460 14.2287 0.327103 0.479435 0.357516 -1.96206 0.492454
3672 13.912 1.32912 0.0513383 0.044061 1.0727 1.63199
242 15.0885 1.23394 0.377281 0.0770464 -1.09145 -0.0963275
3174 15.1576 0.0670413 0.194191 1.3904 0.635651 0.551533
2272 15.8769 0.575636 0.906 -1.05672 -1.00725 -0.454575
3368 16.8797 0.152356 0.399631 2.70698 0.79706 -0.197152
2069 16.86 1.04519 1.14873 -0.324496 -0.657292 -1.46083
1358 1.25584 1.8961 0.635743 0.30785 0.111512 0.175548
2842 0.564413 1.99915 1.36446 1.12258 0.818326 0.929299
1903 0.924324 2.83836 0.898246 0.573213 0.840358 0.037051
912 2.64944 1.7395 0.823277 0.765086 -0.96986 0.122305
38 1.84643 2.65628 0.0693153 -1.94051 -0.867164 0.849899
1591 2.95379 2.81145 0.613062 -1.58018 -1.15468 -0.398522
2747 3.52677 2.00619 0.388587 -1.07339 -0.270988 -0.0457304
648 3.85259 2.54655 1.28971 1.15945 0.0295944 0.283983
1760 5.48544 1.56379 0.973599 -3.1848 1.16261 -0.0680154
3377 5.60019 2.71921 0.974665 0.665064 1.8828 -1.03387
2820 4.5441 2.08736 0.718978 -1.6667 0.693365 -0.865627
1958 6.69483 2.12058 1.15749 0.740534 -0.56534 0.544821
1369 6.04211 2.20692 0.198449 -0.774729 -1.63775 1.52317
2246 7.06244 1.81584 0.162502 0.876361 0.553735 0.757391
3573 7.70021 2.6115 0.731105 -0.769846 0.556725 1.63592
1947 8.69914 2.41498 0.473521 0.145962 -0.236377 0.840238
81 9.91547 2.30719 0.218883 0.0889578 0.0916756 -0.928807
90 9.50229 2.1784 1.22493 0.172948 1.24121 0.682005
860 10.8193 1.97205 0.482564 0.74706 -0.0099014 0.265436
2492 11.9056 2.11784 1.24344 1.32065 -0.311114 0.254057
201 12.6772 2.74088 0.954695 0.00424232 0.203933 -0.0740227
3008 12.1064 2.38226 0.17446 -1.33564 1.71656 0.885324
2800 14.0993 2.32951 0.337153 0.751292 -1.0896 -1.5528
1535 13.0491 1.84389 0.181162 -0.926536 1.40634 -0.357325
3603 13.0185 1.44429 1.14303 -2.16685 1.64674 -1.10831
1608 15.0409 2.11196 0.900086 0.903423 -0.211116 -1.01833
677 15.9499 2.71207 0.890126 -0.962501 -0.887002 -0.0596508
2080 16.0645 1.836 0.446985 0.50716 -0.902993 -1.28347
2564 17.0472 2.51152 0.406148 -0.313632 0.262896 -1.06641
2160 0.498681 3.99372 0.63548 0.281153 0.500549 -1.73985
1639 2.0097 3.7487 0.650857 -1.60741 -0.302261 -0.328653
1718 1.96926 2.92481 1.36351 -1.6238 0.303029 0.824049
1129 3.88458 3.10061 0.262916 -0.49029 -0.0559658 -1.64219
2389 3.15874 3.52214 1.20483 1.00591 -1.08546 0.348336
2693 4.93914 2.91366 0.238977 -1.21296 -2.67705 -0.881882
733 4.64106 3.19686 1.15576 -0.0618774 1.28705 -2.3335
1383 5.60645 3.8169 0.834565 -0.120778 -0.397035 -0.487794
618 4.55819 3.91782 0.324262 0.131371 1.86888 0.460102
3087 6.59423 3.2152 0.845816 -1.15324 0.787441 0.313564
3944 7.42885 3.85989 1.34938 -0.75471 0.0444502 0.679465
3231 8.60929 3.24465 1.22578 -0.785094 -0.378351 -1.09652
3121 9.50461 3.34001 0.814123 0.847585 -1.88423 1.61464
3198 9.04028 4.26938 1.36185 -0.586404 0.687357 1.25412
613 8.58581 3.45479 0.0503334 0.224859 1.66699 -1.70559
2183 10.4856 3.74546 0.691908 -0.442831 1.83777 2.19958
1671 11.2671 3.2048 0.0543944 -1.37124 -0.00889242 0.691654
1166 11.8537 3.30841 0.914587 -0.444732 0.242546 0.138561
2248 12.7914 3.74973 0.682604 -0.727047 2.51364 -0.954025
421 13.7301 3.52546 0.997166 0.00568832 -1.52792 -0.58946
61 14.5482 4.09032 0.620948 -1.4483 0.232243 -0.908616
571 15.6244 3.54886 0.149809 -0.340738 2.22956 -0.0763889
2176 16.678 3.49699 0.525209 -0.713859 -1.29418 -1.12341
978 0.860465 5.23989 0.505023 0.72014 -0.265708 0.151489
2567 1.33746 4.4107 1.32067 -0.428993 -0.768246 0.0900062
818 1.69415 4.75937 0.304357 -0.379287 -0.80774 0.500367
3324 2.76427 5.00058 0.154255 0.637702 0.118838 0.738428
325 3.33291 4.59921 1.10699 -0.083638 -0.831468 0.647144
2288 3.39465 5.66265 0.570699 -0.639035 0.640687 1.01025
549 4.11909 5.38291 1.26841 0.0190109 -0.513933 0.361177
1159 3.87541 4.7512 0.202903 -1.25045 -0.728712 -1.66566
3495 4.81363 4.86893 0.542784 -0.192588 -1.59497 0.495402
1980 6.0197 5.09351 0.750449 -0.106169 -1.11863 -1.15527
346 6.93827 5.62036 1.19758 0.196686 -0.651009 -1.56465
409 6.81798 4.59166 0.784852 0.221379 -2.10566 0.394899
2670 8.34236 4.30473 0.546074 -0.815884 -0.387117 0.793322
1891 7.74147 5.2936 0.638454 0.389364 -1.02739 1.1608
321 9.39318 5.34464 1.29032 1.18975 -0.0388612 0.372267
689 9.43894 4.77396 0.380135 -0.0678236 0.603488 -1.65427
223 11.3371 4.31114 0.970337 1.38219 -0.303381 0.808229
1919 11.3114 5.32978 0.848246 0.868227 1.77158 -1.16262
1251 10.4449 4.89312 0.703188 0.470381 2.7697 1.16008
3085 12.2112 4.63765 0.555258 -0.572804 1.68145 1.26501
2930 13.6105 4.44513 0.484934 0.112183 -1.26115 -1.11007
3335 13.0453 5.01919 1.09037 -0.248465 1.75867 0.401707
2385 13.5181 5.41827 0.0894164 -0.788688 1.09299 1.68946
2384 14.4049 4.99598 1.10801 -0.780606 1.41141 0.806566
1909 15.3504 5.66801 0.566923 -1.66025 0.786673 1.14659
2417 15.3048 4.84517 1.40265 -0.516454 1.38519 -0.490521
3415 15.801 4.60614 0.280724 2.16542 1.15373 -0.478046
1400 16.1588 5.5219 1.11759 -0.892043 -0.219379 0.652817
2756 16.3948 4.4217 1.13983 -1.98792 0.311795 0.875474
1601 0.52168 6.42361 0.470563 -1.63383 -0.308254 0.96978
2761 2.71736 6.98787 0.339433 0.506771 -0.408003 1.45453
2965 1.46624 6.17107 0.954862 -1.53828 -0.335824 -1.67802
2817 2.36941 5.84307 0.658076 1.68599 1.17671 -1.08435
114 3.64025 6.59354 0.805901 0.105971 -1.46072 0.382428
2883 4.97761 6.08268 1.09812 -1.69639 -2.41738 -0.333333
3636 4.61665 7.11443 0.720903 0.360444 -1.86035 0.361432
3090 5.46283 6.81769 0.121661 -2.31776 1.33218 -0.445832
3736 4.45642 6.06498 0.227526 -1.14203 -0.270857 1.0337
3344 7.08751 7.00702 0.788129 1.53214 -0.550134 0.375898
2349 6.29003 6.20043 0.478571 -0.3448 -0.0875908 1.21988
2838 7.55672 6.32023 1.39056 1.07843 -1.48908 0.695291
3559 8.15907 6.49134 0.42278 -0.534219 -1.84055 0.12164
2494 8.7941 7.11436 1.34927 0.73084 -0.504224 -0.303797
204 9.32942 6.26442 1.12315 -1.20426 0.587262 -0.150639
754 10.2553 5.99647 0.568545 -1.09251 -0.976814 -0.755687
1687 10.2 6.94647 0.882929 0.554416 -0.907203 0.404989
189 12.5485 6.4604 0.366423 -0.867285 -0.809056 -0.192038
2919 11.9489 7.07334 1.08596 1.33496 1.08392 0.89099
3946 12.5011 5.93753 1.26145 -0.307909 -0.239056 0.75877
2827 11.4709 6.24137 0.274602 0.312092 -0.29866 1.35492
224 13.83 7.09309 0.903571 -0.301552 -0.495238 -0.878958
3503 13.4289 6.13542 0.860787 0.571721 -1.35355 -0.886339
2682 14.6685 7.12235 0.234903 -0.518263 1.00466 0.269476
1381 14.4412 6.05342 0.268715 0.673663 -0.0975143 -1.25502
3021 15.0169 6.7707 1.18055 -1.68304 -0.681027 1.45145
2688 16.9419 6.42321 1.27104 -0.40359 0.051584 0.371752
1238 16.077 6.73374 0.74465 0.973044 1.19948 1.09967
1182 1.1895 8.42584 0.460653 -2.08863 -0.0287791 -0.543365
707 0.743738 7.40786 0.829722 0.768945 1.24717 0.0337695
2724 1.94849 7.22854 1.19582 0.792338 1.84341 -0.140923
1325 2.82189 7.94181 1.00741 1.00289 -1.41289 1.07197
954 1.74665 7.18289 0.122364 -0.367627 0.231682 -0.271097
2374 3.80665 7.62316 0.466866 -2.28086 -1.85409 -1.09122
686 3.09379 8.54772 0.0484337 2.79785 0.24799 -0.407933
717 5.21664 7.79094 0.410497 -0.318628 -1.16334 -0.845397
814 5.90567 8.41621 0.754747 1.33984 0.790537 -0.527215
2550 6.57165 7.81292 0.3204 -0.637871 -0.562114 0.963771
1575 7.82967 7.66401 0.306575 -0.922873 0.517522 0.532465
2191 7.86103 7.47902 1.35993 0.417965 1.07741 0.272386
2597 7.42517 8.47081 0.839885 1.58403 0.794561 0.0970898
2836 9.68755 7.94073 1.03853 -1.33488 0.167817 0.699607
2111 8.80739 7.25842 0.295058 0.11951 -0.725448 0.00214294
2899 10.7076 8.36524 0.203853 -0.0899017 0.163385 1.49656
332 11.3486 7.95062 1.17371 0.563214 0.925741 -1.30759
1952 11.3552 7.41067 0.0671736 -0.645956 1.49502 0.378727
1696 12.0376 8.12216 0.314449 -1.06741 -2.01596 -0.422162
87 13.1161 8.21628 0.87669 -1.24582 -0.919773 -1.41476
176 12.8252 7.44681 0.350482 -1.39657 1.114 -0.87137
427 14.1287 8.05046 1.39672 -2.4976 0.262976 1.39683
2577 13.977 8.04869 0.306839 0.273736 0.50366 0.840779
2616 15.1241 7.83104 1.00191 -0.104625 -0.0330767 1.44501
1289 16.7938 7.4992 0.845937 -1.533 -0.798157 0.0357601
12 15.7823 7.49772 0.0413644 0.649412 -1.92738 0.463605
368 16.0955 8.13661 1.1952 0.334862 -0.368808 -0.654955
909 0.901094 1.23609 1.99093 1.35138 0.169859 1.07854
2361 0.678121 0.072086 1.8638 -1.36498 0.282427 0.183345
75 1.21402 0.507918 2.6662 -1.42503 0.253692 1.08183
2055 1.98114 1.19265 2.59954 -0.904272 1.77834 -0.490808
2116 1.80627 0.322318 1.8936 -2.06745 -1.24398 0.321372
424 3.63209 1.39488 1.67754 -1.16678 -2.019 -0.395311
2166 3.05562 0.513955 2.14063 -0.278663 -1.10832 -0.49305
355 3.83462 0.356339 1.53799 -0.84743 -1.2133 0.000268134
1061 4.06079 0.481902 2.66291 -1.82537 -1.01931 0.480293
2350 4.77057 1.01935 2.04553 -0.497942 0.755497 -0.410264
60 5.46136 1.0807 2.78482 -0.516787 0.6274 -0.708691
3818 5.01544 0.0691189 2.55259 -1.11107 -0.320502 0.725962
1365 6.7374 1.11897 1.61141 -0.411065 -0.604015 -1.00031
300 5.75825 0.511375 1.85367 -0.277362 0.33271 -0.0592264
741 6.54979 0.537136 2.72388 0.561191 1.69842 -0.214629
1486 7.58583 1.08922 2.70033 0.796549 0.223011 -0.507522
2660 8.11941 1.12963 1.61397 -0.250065 1.02457 -0.620039
3122 7.43338 0.274215 1.76779 0.744813 -2.07563 -1.35285
2228 9.34588 0.298328 2.02462 -1.16473 -0.820491 -0.482275
2410 9.97181 1.00636 2.75756 0.070048 -0.827629 0.825112
1548 8.65294 0.934404 2.68216 0.901484 0.427798 0.272816
3627 10.1837 1.34411 1.50328 -0.270926 -2.21542 0.645563
1463 10.6765 0.02469 1.56493 0.374511 0.112623 0.777216
1526 10.9678 0.868877 2.35407 -1.61921 -0.82849 -0.0466313
928 12.7878 0.284642 1.73863 0.762615 1.24188 0.176034
2898 11.9246 1.16418 1.84051 -1.26456 1.54678 0.391948
2034 11.5947 0.192673 2.12867 -0.0827946 -0.0919769 0.716599
2154 12.3811 0.347203 2.79022 -0.533393 1.14117 -0.632485
1925 13.7955 0.417104 1.47163 -0.650621 -1.30385 0.806228
1661 13.3909 0.896067 2.5331 0.810903 -2.4115 1.08684
881 15.1074 0.173744 2.20151 0.0183309 1.19704 -0.602362
956 14.7026 1.02253 2.56112 0.264686 -0.385147 0.166142
2764 15.0497 1.07972 1.49528 -0.0326882 0.221334 -0.969233
2707 15.7594 0.96306 2.49058 0.217159 0.407835 0.631974
3247 16.6688 0.440256 2.63004 -0.552751 0.366454 0.602255
2782 1.20278 1.97765 2.7118 1.04841 0.595 1.69752
3420 0.9066 2.81429 2.00686 0.63019 -0.0735871 -0.51029
3006 0.254302 2.2864 2.82712 -1.04368 0.629228 -0.849954
2679 2.71379 1.70255 2.24022 1.04806 1.21767 1.45723
2427 1.49865 2.02861 1.75583 -0.469441 -0.910444 -1.0182
197 2.02715 2.50957 2.40002 -0.807885 -0.105418 1.02883
3403 2.88837 2.41984 1.59806 -0.416149 -0.434299 -0.0336703
273 3.72158 2.06517 2.48409 0.866905 -1.92103 0.63238
921 4.95566 2.04304 1.66664 0.505943 -1.36123 -0.539222
680 5.25824 2.30651 2.67461 -0.0975714 1.7784 1.47497
2808 6.5067 1.77613 2.73294 -0.306495 1.59161 -0.386523
3688 5.84119 1.522 1.93372 -0.799541 -0.213417 -0.646767
1099 6.2075 2.6052 1.9029 -0.826494 1.17464 0.462853
3505 7.3549 1.96311 2.10514 -0.267222 -0.967915 -0.884692
3260 8.48558 2.22036 1.46897 0.313853 -1.72231 0.652557
847 8.44763 2.04397 2.49674 -1.51382 -1.71789 1.08307
1476 9.24434 1.46348 2.03874 -1.79619 0.794212 0.114867
3551 9.34591 2.76681 2.12293 0.180991 -0.0311188 -0.497525
2037 10.3399 2.79978 1.46531 -2.34777 0.72066 0.411064
2054 10.2581 2.10811 2.32975 -1.46657 0.488057 -0.465618
2077 11.2486 2.29573 2.18334 1.24042 -0.904247 -0.542214
3622 12.7065 2.43856 2.0607 0.399453 1.25344 0.811035
3438 13.8948 2.36579 1.49002 0.772508 1.74572 0.375528
2826 13.9032 1.77376 2.33576 -0.425587 -0.146788 0.149408
1049 14.9502 2.01132 2.0197 -0.492506 -0.477666 0.181317
327 15.6611 2.69014 1.84415 0.202387 0.291703 -0.590514
1539 15.8686 1.72107 1.5754 -1.87126 -1.09847 0.116353
1043 16.3671 2.27773 2.57807 0.772002 0.357073 1.14012
3741 16.725 2.37095 1.50582 -0.700378 0.948052 -0.510958
3222 16.9552 1.46827 2.11532 0.730706 1.30631 0.423882
2050 0.0504597 3.48237 1.46534 -1.5777 -0.73187 -0.497733
1290 1.18716 3.77722 2.15765 0.518632 -0.226788 1.59406
1056 0.253748 3.62081 2.62849 0.0406548 -1.6809 1.31209
2442 2.47769 4.23629 1.56472 -0.329074 -0.161539 0.837815
316 2.66412 3.26664 2.31915 -0.634233 -0.0237267 0.439146
3661 3.5775 3.93976 2.12664 0.398412 -0.273006 0.944061
983 4.19116 3.07887 2.35712 1.09498 -0.433613 -0.0112487
588 5.39411 3.17833 1.97281 -1.01153 0.0904684 0.225783
3919 6.72353 3.68032 2.12122 1.05665 0.695748 0.49901
2035 5.80279 4.20986 1.75617 0.839689 0.208207 -0.449133
1716 7.76337 2.92971 1.92349 0.609194 -0.488249 2.06398
2324 8.08746 3.85986 2.22842 -0.991889 0.408061 0.14188
3057 9.11224 3.65251 2.81945 0.609151 0.00577723 -0.625118
2028 10.0088 3.86289 1.6268 1.82229 -0.442963 0.652365
464 11.2988 3.75649 1.87459 -0.344981 -0.208736 0.464105
3018 10.419 3.87073 2.61468 -0.23112 2.92716 -0.117423
2431 11.1996 3.19946 2.81096 0.024658 1.40212 -0.368301
132 12.7446 3.66528 1.79691 1.57675 0.795166 -0.529886
3837 12.0902 3.45952 2.49642 2.07047 1.1548 1.0746
1609 13.5931 3.21526 2.04737 -0.1822 1.15949 -0.925517
1437 15.5823 3.75704 1.42838 1.36077 -0.363259 -0.827326
3844 14.6488 4.10818 1.726 -0.989589 1.03116 0.715015
1462 14.7672 3.02661 2.62326 -1.5551 2.49607 0.840498
2480 14.7715 3.00209 1.44749 -2.03145 0.783155 1.03934
2145 15.3691 4.14066 2.45428 -0.187462 0.222197 2.9302
3468 16.4098 3.26791 2.38038 -1.98952 3.37983 -0.765183
3923 0.671436 4.7444 2.11448 2.01644 0.252407 -0.35599
14 1.11106 5.52578 2.72654 0.182933 -0.340538 -0.851853
3014 1.75016 4.82163 2.14925 0.554199 -2.30882 0.503857
2529 2.78177 5.01282 2.33115 0.396274 -0.0505841 0.431173
237 3.80958 5.20597 2.2825 1.10011 -2.07212 -0.786992
202 4.45683 4.429 1.76531 0.485607 -1.33121 1.06253
1527 5.33802 5.13136 1.44521 -0.559922 -1.0293 -1.41615
2784 4.83984 4.69964 2.78697 2.01708 2.01384 -0.66849
3081 4.84928 5.6824 2.18126 -1.02409 -1.44616 -0.963
2331 6.71704 4.8236 1.82152 0.663113 -0.0050707 -0.547835
1035 5.87406 5.11313 2.54469 -0.418232 -0.107678 0.329857
3009 8.14782 4.80323 1.49098 -0.0380375 -2.37849 -0.0756791
3697 7.60553 5.3379 2.56426 0.574107 0.0889068 0.277607
475 9.64472 4.46403 2.43716 -1.38136 -0.341325 -0.616167
2237 8.63088 4.74916 2.37995 0.319915 1.50106 0.332383
2882 9.8167 5.60314 2.48923 -1.42062 0.532672 0.930917
3777 11.1819 4.57177 2.58029 -0.0199587 0.259878 -0.0253051
900 10.6803 5.22283 2.01504 0.20616 0.880281 0.344408
938 12.13 4.44892 1.61992 1.16411 1.04716 0.454246
2348 11.7391 5.45433 1.92287 1.76439 -0.718291 0.441111
2449 12.2533 4.74192 2.63127 1.93898 0.146567 -1.02101
1242 13.6015 4.36913 1.90742 -1.19685 1.89535 -1.91213
2576 13.4755 5.15984 2.72628 -0.630057 -1.21853 -0.0541539
3369 14.5062 5.22351 2.1173 -1.11123 -0.805213 -1.63973
3145 15.9443 5.13793 2.43682 1.05351 -0.0543348 -1.5677
3253 16.5283 4.30582 2.16134 -1.94618 -0.310676 0.0340145
188 16.923 5.30738 1.92449 -0.553983 -0.633881 1.4285
1864 0.821626 5.77782 1.59626 0.86346 1.51178 1.44501
1600 0.681097 6.34737 2.38261 1.46568 1.03346 -1.02832
2060 2.66387 6.76711 1.67612 -1.20459 -1.81007 0.852668
1612 2.09284 5.78919 1.64422 1.04119 -0.00497735 -0.81097
2687 1.70811 6.45556 2.38594 -1.15879 0.0789081 -0.213418
1135 2.69181 6.53734 2.76202 -1.08546 -1.23828 -1.66768
2267 3.06818 5.84965 1.55192 -2.33926 2.44891 -0.144816
859 3.71305 6.17774 2.39114 0.033489 0.14302 -0.0159047
479 4.27512 6.66452 1.59387 -2.20699 0.111846 -1.18195
2824 5.35565 7.06399 2.79917 0.927618 0.696484 -0.4751
895 6.62919 6.93905 2.75679 0.252291 -0.335855 -1.59976
410 6.06406 5.84918 1.68983 -0.466593 -0.74188 -1.3178
589 6.18902 6.9141 1.57361 1.65888 1.34611 -0.163907
2079 6.67355 5.84639 2.63437 -0.975856 -0.92234 -0.437787
3790 8.33815 5.77142 1.75105 1.29379 0.410015 -0.27464
1950 7.75895 6.6988 2.456 0.106446 0.514396 0.418785
3833 9.15608 6.92361 2.38035 3.04147 0.415908 1.22405
3035 11.259 6.29634 1.45296 -0.157049 1.53913 0.914375
2388 10.1009 6.45298 1.8284 0.786996 2.06473 0.255787
3581 10.8116 6.30004 2.61116 0.620487 -0.282778 -0.29428
1831 10.229 7.08547 2.72731 -0.68745 0.629048 1.23314
43 12.7007 5.76653 2.33304 -0.520114 -0.657927 0.642514
1487 11.9323 6.7363 2.32332 0.265307 1.4694 -0.00393881
1200 13.7369 6.00695 1.9687 0.809014 -0.91495 0.203897
183 13.0167 6.87962 1.51854 1.64041 -0.239713 -0.91896
3318 13.2432 6.63697 2.74705 0.821155 -0.577116 0.523388
3136 15.2918 5.80826 1.74987 0.305341 -1.07613 0.810752
3132 14.3624 6.69003 2.5204 -0.00926721 -0.244038 0.576512
1733 15.3853 6.63029 2.4144 0.386946 1.78853 -2.58121
2611 16.3128 6.14472 1.99201 -0.756664 1.21489 1.67524
3409 16.9236 6.79586 2.54372 1.34032 1.25302 0.844163
821 0.60525 8.0893 2.42493 -0.6486 0.222784 0.761029
2416 1.31319 8.06826 1.63457 -1.51114 0.184636 -0.542718
2043 1.11746 7.32279 2.83884 -0.380611 0.288051 1.08353
524 0.81645 7.17248 1.82716 1.21344 0.365294 1.23819
185 1.66437 8.32411 2.7662 -0.258289 -0.761009 -0.183412
3620 2.00834 7.5 2.19863 0.593325 1.36381 -1.0469
2940 3.43884 7.35963 2.12571 0.293617 -0.366829 1.21036
1396 4.08723 7.89562 1.46783 -0.0657808 -0.754862 1.47539
3675 2.94218 8.03074 2.7518 -0.606197 -0.67144 0.0340848
3388 4.84159 8.27561 2.22963 -1.62279 -0.0715721 -0.549718
2056 5.27416 7.54113 1.53036 0.42265 -2.83352 0.0846003
3817 4.40676 7.18681 2.4873 -0.174597 0.890749 -1.69884
989 6.78857 7.92306 1.49336 -0.0876875 -0.593498 0.379669
28 6.00504 7.79166 2.26255 -0.213087 -0.972049 -1.61628
191 8.02159 7.74817 2.71393 -2.13516 0.616985 -1.49277
2676 7.56605 8.26208 2.03728 0.532757 -0.530296 0.442208
3443 9.75675 7.78052 2.09641 -0.530724 1.029 0.433158
1915 8.66522 7.92182 2.02518 -1.08127 -1.61125 -0.89987
2007 10.8701 7.30578 1.75499 0.00891715 1.99354 0.20868
1081 11.3105 7.5562 2.78973 0.056187 -0.0734921 -1.21102
3451 11.383 8.51246 2.10157 0.840856 -0.625937 -0.499938
2540 10.3342 8.14957 2.80883 -1.20053 -0.996693 -1.14494
2922 12.1324 7.76602 1.86354 -0.531616 1.8798 -1.03734
3484 12.7497 7.51758 2.84114 0.984986 0.691268 -0.211199
2215 13.4871 7.5088 2.17743 -0.5111 1.18244 -0.881788
1107 14.1725 8.16932 2.57074 0.386448 -0.00551494 -1.57933
1930 13.034 8.47915 1.92984 -0.571037 1.21343 1.94266
1269 14.7262 7.47276 1.89853 0.905528 0.232046 -0.483491
361 16.2301 7.1286 1.82002 2.12849 -0.288758 -1.30358
151 15.9109 7.81936 2.53945 2.09979 -0.519302 0.991463
3755 16.8776 7.83736 1.81409 0.205936 -0.455586 0.924337
206 0.331759 0.18727 3.30869 0.948087 -0.0624239 -0.197831
3467 0.34939 1.1392 3.05176 -0.69291 0.347243 1.7005
2754 0.312927 1.03187 4.05663 0.009505 0.95793 1.59669
596 1.4473 1.05282 3.65331 0.706228 -1.79427 1.4504
3333 2.48047 1.37824 3.51138 -0.652508 1.30407 1.06538
2900 2.60719 0.537056 4.06094 2.37704 -1.2563 -0.245251
1032 3.665 0.901896 4.06972 -0.440567 0.184209 -1.74374
2279 3.40402 1.18815 3.01104 -0.886358 -3.06171 0.625564
2743 2.88305 0.221635 3.1158 -0.393396 0.430413 0.508139
3888 5.66629 0.206531 3.486 -0.221638 0.374481 0.115558
3418 4.53407 1.38518 3.12745 -0.00131008 -1.20037 0.543125
2081 4.76577 1.37759 4.22562 -1.2034 2.3805 -0.493001
2329 4.60946 0.337749 3.57584 1.22973 0.901648 0.326075
3003 6.98652 1.39313 3.5666 0.0719009 -0.83633 0.651422
2556 6.56583 0.464477 3.97381 -1.35336 1.76869 0.295232
426 5.83933 1.07254 4.21635 -0.120588 -2.25556 0.609764
2697 8.16064 0.391161 3.67494 1.34271 1.02644 1.67637
1604 7.38691 0.106724 3.04501 -1.33196 0.0453751 -1.00142
981 9.54342 0.075687 3.02254 -1.08154 -0.167519 -1.17774
3271 9.19128 0.99791 3.76479 -0.961313 -1.10676 0.952458
100 10.2701 0.63317 3.65945 0.128829 -0.867929 0.216863
626 11.1234 1.08863 4.0019 0.835992 -0.311749 1.42838
3113 12.722 0.707209 4.03152 0.131594 -0.379461 0.0557194
3814 11.5016 0.288006 3.44644 -0.959289 -1.40708 0.281699
4 13.6063 0.243818 3.44026 0.979029 0.379747 -0.307106
3036 14.8517 0.455148 3.4222 2.21554 -0.131842 -0.129855
2867 16.2844 0.799844 4.22557 -0.676115 -0.72391 0.00886275
3855 0.758945 2.28716 3.81869 -0.397121 -0.0047552 -0.970224
3361 1.75668 2.22746 3.51773 -0.0318804 -0.821759 2.56148
779 2.99092 2.24868 3.17964 -1.65658 -1.44128 -0.243788
3990 4.21193 2.19593 3.51947 -0.247689 0.476524 0.261402
3116 3.42635 2.48088 4.24012 -0.0170015 -0.344172 -0.0874554
726 5.80648 1.85144 3.55105 -0.622358 -1.42384 -1.3019
3812 6.83616 2.2801 4.13659 -0.635455 -0.904871 1.41189
239 6.41319 2.63949 3.13205 1.07889 -1.79341 -1.19967
3363 7.68546 2.24619 3.26012 -0.14109 0.106866 -2.47229
2068 8.11376 1.45074 3.7785 1.41906 0.279956 0.616443
3078 8.21438 2.54651 4.20633 -0.748086 0.394485 -0.945046
2971 9.31415 2.63476 4.17177 0.0537892 1.19795 0.598402
3261 9.54801 2.03769 3.07093 -0.116779 2.09231 0.346271
2854 10.4201 2.70341 4.09008 0.165425 -0.245569 0.836683
634 10.9577 2.0175 3.35915 0.64177 0.650359 0.268893
1798 10.0022 1.52204 4.24501 -0.344757 -0.518404 0.349665
1922 12.3257 1.8698 3.81032 1.64534 0.596159 -1.009
2778 11.8591 1.47835 2.9232 0.379162 -0.861438 -0.523383
765 12.1041 2.6113 3.01834 -0.309833 0.593665 0.19303
336 11.4943 2.78439 3.81686 0.294846 -1.28899 -1.69516
2551 13.6732 2.64147 2.96622 -0.383327 0.385485 -0.256293
3020 13.6141 1.45656 3.48262 2.07135 1.03443 0.747544
3695 13.2493 2.33875 3.92528 -1.51314 -1.37372 0.894753
313 12.8367 1.95306 2.93542 0.0868919 1.45171 -1.3751
1170 14.2306 2.80754 3.9098 1.36877 0.415313 0.760834
2672 15.4143 1.82294 2.94862 0.266899 -0.155766 1.41243
3664 14.48 2.09862 3.14052 -0.0814339 1.49027 -0.300512
732 15.3338 1.51353 3.98771 -0.788182 0.695315 -0.209151
3114 15.3764 2.45992 3.73043 2.18025 0.488158 1.025
791 16.6694 1.61578 3.46779 -2.02422 0.9881 0.338542
701 16.3753 2.68645 3.67022 0.855321 -1.41561 1.35456
557 0.499278 3.82264 3.68902 -0.942537 0.29888 0.786244
864 0.139994 2.97555 4.19247 0.431661 -0.471389 -1.17409
3457 1.23812 3.01766 3.04558 1.15448 -0.258839 -1.59947
1375 2.04029 4.14322 3.03744 -1.48268 0.510647 0.926421
423 2.36715 3.16274 3.29541 -0.109003 0.722827 1.4544
1780 3.10674 3.90622 3.91681 0.350776 0.359088 0.832759
2648 3.50837 3.20365 3.11613 1.003 1.1104 -0.387834
1413 4.22359 3.78657 4.18063 0.027518 -1.75428 -1.25537
342 4.48475 3.73616 3.06249 -0.550059 0.226505 -0.526818
2652 5.26171 3.46998 3.89951 0.346543 -1.4366 -0.980159
463 5.87064 3.50987 2.87707 0.556296 1.74525 -0.784678
1438 6.38449 3.30578 3.893 1.24568 -2.23604 -0.623114
2354 8.52235 3.1031 3.39872 0.0296624 -0.276862 0.694406
657 7.37656 3.31802 3.0271 0.14789 -0.739944 -0.865513
785 8.14112 4.1516 3.36394 0.929456 -0.426084 0.0490045
2988 9.89285 4.25343 4.06531 0.0459451 1.14189 -0.836975
793 8.74016 3.92425 4.12837 -0.613919 -3.10843 -0.517997
891 10.0841 2.99252 3.21383 -1.26116 -0.606358 -0.613675
1349 10.7361 3.72532 3.63694 1.5027 0.434814 0.486473
2973 11.6695 3.91369 3.68254 -0.538666 -0.73704 -0.863844
1688 12.4672 3.2732 4.21615 0.171029 0.69337 1.14493
3007 12.9544 4.04845 2.90497 0.980811 0.588904 -0.110565
453 12.9235 3.14822 3.30503 -1.24412 0.0405536 -0.671319
2668 13.5259 3.43725 4.17851 0.308893 0.0269659 0.361189
2748 13.9281 3.58077 3.01671 -0.405174 1.07264 0.314086
773 15.6559 3.08864 2.95937 1.41669 0.68071 -0.121016
799 15.5386 3.91194 3.70833 -0.207484 0.0236901 1.77672
231 16.5635 3.71901 3.2862 -0.434469 0.455607 -0.142643
2933 1.06237 5.28369 3.81801 0.0137002 -0.00377982 0.883814
120 1.12642 4.53688 3.02662 -0.0102395 -0.506443 0.661297
998 0.411179 4.66655 4.26517 0.0734768 -0.925579 -1.20228
2488 1.83759 4.3209 4.0513 1.90071 -0.539308 -0.332663
531 2.13424 5.09748 3.13131 1.57422 -0.0373234 -0.762539
2723 2.83423 5.01607 3.93567 -0.0923313 -0.402839 -0.0899363
1976 3.28921 5.40412 3.09693 0.0964308 0.960468 0.093324
3469 4.14413 4.61014 3.75177 -0.75631 1.38355 -0.564213
1178 3.12132 4.27865 3.00305 2.75966 0.997245 -1.45238
892 5.11898 5.16883 3.61674 0.662747 -0.238041 -0.716181
2604 6.55381 4.43926 2.87135 0.174164 -0.197306 2.51522
2993 6.69947 4.38671 4.24728 -0.0222933 -1.16635 -0.0720804
612 6.17258 5.0973 3.5991 1.75316 0.681906 -0.482204
2858 9.01385 4.71942 3.358 0.548419 1.46995 0.115486
2314 9.81568 5.33722 3.89465 0.0611722 0.581148 2.5012
19 10.4081 4.75268 3.2696 1.44624 1.87261 -1.81201
888 11.3143 5.04237 3.9241 -0.137485 1.91384 0.693881
301 12.3082 4.87626 3.64976 0.516063 -2.71999 -1.15885
1152 13.5381 4.33997 3.65 0.53232 -0.459013 -0.141054
2950 14.3913 4.69296 3.06197 0.740902 -0.761214 0.497197
339 14.962 5.31659 4.02932 -0.330933 -1.36425 -0.682736
3149 15.0651 5.6101 2.86714 0.246881 -0.809505 -0.774593
3949 14.4454 4.35582 4.13656 0.770168 -1.00782 0.808798
1410 17.0722 4.77475 2.85532 1.43562 0.210507 0.459706
1087 16.8267 5.6481 3.90287 -0.14401 0.80818 -0.41714
1359 16.0754 4.90557 3.47254 -2.19015 -1.6157 1.76377
269 0.286037 6.19787 3.30524 1.16195 0.496667 -0.112375
3499 1.27521 6.31055 3.47969 -0.382388 0.77306 0.571257
1421 1.98634 6.81452 3.98733 0.559772 0.85916 0.612174
2032 2.08455 5.82428 3.89107 2.23337 -0.588285 0.129657
1689 3.20387 6.19134 4.10198 0.907633 -1.71904 -1.15798
871 4.21665 5.71814 3.33812 0.468673 0.0279414 0.32876
2409 3.79754 6.833 3.29432 -1.63863 0.216641 1.98809
2734 5.45828 6.03306 3.07633 -0.201589 -0.788564 -0.355916
390 4.75797 6.78966 3.72598 0.182764 -0.176124 -0.704368
552 5.35957 6.00038 4.12897 -0.199986 0.571771 -2.27842
640 7.11361 5.91824 3.67776 -0.977722 -0.58593 -0.679812
996 6.22845 6.52533 3.64555 1.74317 -0.199651 -0.473094
1509 7.10281 7.10334 3.7234 0.307909 0.385171 0.444744
1265 8.16529 6.8787 3.393 -0.633278 0.670933 -1.3459
587 8.57247 5.79758 2.94688 0.17223 1.29906 -1.42812
1828 9.11838 6.91555 3.96537 -0.509885 -1.23695 -0.0182427
3101 9.73684 6.22211 3.33452 -0.528301 -0.0593096 1.02987
1431 8.86504 5.73515 3.89122 -1.14295 0.24826 -2.12067
805 11.2027 6.7439 3.49225 0.590825 -0.0510707 -0.85184
434 10.8455 5.8061 3.60701 -1.56861 0.583628 -1.68167
1271 11.9122 5.76987 2.99768 -0.662561 0.840852 -0.0276849
2289 12.2941 6.85278 3.43253 -0.652963 1.463 0.40918
89 12.0525 6.02928 4.14133 0.896426 -2.01894 1.11738
249 13.6321 6.64238 3.90536 0.542317 -0.353653 1.13113
2033 14.0083 5.91988 3.12372 0.785633 -0.65546 -2.28498
3268 12.9106 6.00253 3.4468 0.612556 -0.137714 0.539342
2991 15.3265 6.4644 3.44153 -0.481678 -0.708977 -1.82279
687 16.7571 6.69101 4.24025 1.04603 0.41712 -0.231904
2982 15.7117 7.09042 4.26069 0.831277 1.8474 0.313501
230 16.2215 7.09356 3.30648 0.298178 -0.992741 0.263564
3884 0.977122 7.24297 4.06321 -1.12469 -0.760008 0.0226855
639 0.232674 7.47446 3.31412 0.47622 -2.25718 0.308724
370 0.618194 8.49377 3.62896 0.291144 -0.161693 -0.146089
772 2.2685 7.57068 3.36197 -0.409692 2.5119 -0.676404
2165 3.90648 8.02686 2.86074 -1.47577 -1.6301 2.25555
2876 4.02858 7.68456 3.82228 -1.22231 -0.832033 1.3296
3611 3.19078 8.38529 3.748 0.374754 -0.543346 -2.36798
1177 5.19696 7.98559 3.45253 0.127642 0.324707 0.640548
1088 7.00456 8.01911 2.87643 2.04907 -0.956561 0.417653
1301 5.84104 7.34515 3.99757 -0.283176 1.00459 1.23871
2027 6.17424 8.10423 3.4735 -1.14986 0.752284 0.266661
854 8.30905 7.90882 3.6636 1.13416 -0.256474 0.154222
1142 7.36632 8.20635 4.0891 -0.532876 -0.141067 -1.58374
1622 9.22451 7.62558 3.12862 1.62935 -2.32068 -0.499726
1995 9.35904 8.11344 4.11148 1.1197 -1.79907 -0.289306
2108 10.9477 7.83292 3.7236 0.650373 1.06952 0.375149
2193 10.1876 7.15903 4.03573 0.331889 0.458003 -0.402743
1387 12.0383 8.11391 3.4605 0.449502 -1.55755 -1.37293
3389 12.9893 7.50313 3.85027 0.109638 -0.11872 0.390331
2903 13.1386 8.52757 3.50003 -0.798311 0.486557 1.52798
1630 13.9774 7.42931 3.33366 0.270714 1.57897 -0.569535
2013 14.6135 8.45165 3.49191 1.00021 0.0471431 -0.32941
1015 15.1088 7.46002 2.96694 -0.273298 1.15385 1.26727
543 15.662 7.98295 3.62432 -0.809774 -0.452962 -1.10172
1225 16.7283 8.28173 3.04509 1.53331 0.563541 0.378529
3673 16.8249 7.89163 4.09905 -0.133948 -0.674633 0.174877
1415 0.918682 0.522312 5.16938 1.1664 0.842082 -2.40986
1797 1.51983 0.348021 4.41027 0.648501 0.953679 -0.286507
617 2.30972 0.646929 5.2146 0.254354 0.74395 -1.03068
1041 4.0622 0.348478 4.93646 0.543247 -1.50891 -0.0283605
3880 3.10492 0.277436 4.99181 0.187282 0.718151 -1.58315
1992 3.18559 1.29365 5.06842 0.934258 -0.731422 -3.70355
2593 5.06911 0.610181 5.52113 0.290491 0.135212 -0.161407
1528 5.15436 0.106391 4.47312 -1.70949 1.37676 -1.7775
1547 6.27317 0.45712 5.09632 1.26628 -0.569178 0.0573984
1830 7.2953 0.500218 5.02266 1.42803 -1.24545 -0.034552
3017 8.43897 1.08269 4.96783 -0.406351 -0.771038 -0.851016
971 8.86035 0.289101 5.54069 0.685075 1.65654 -0.852896
3575 9.90461 0.423228 4.65267 -0.435889 -1.31491 -1.29377