ITEM: TIMESTEP
61000
ITEM: NUMBER OF ATOMS
4000
ITEM: BOX BOUNDS pp pp pp
0.0000000000000000e+00 1.7099759466766969e+01
0.0000000000000000e+00 1.7099759466766969e+01
0.0000000000000000e+00 1.7099759466766969e+01
ITEM: ATOMS id x y z vx vy vz
963 1.06167 0.828387 0.663066 -0.0703068 -0.194357 -0.799679
3670 2.62224 0.221009 0.520803 0.139154 0.962183 2.72778
3175 3.4257 1.00878 0.472406 0.733602 -0.520931 0.897016
1222 4.7789 0.923058 0.480721 0.823816 1.57471 1.76923
743 4.57221 1.21199 1.40708 -0.415298 -1.80065 0.309924
1139 4.6842 0.0217819 0.829361 2.10581 0.0706361 0.718152
3573 6.44185 0.379405 0.388706 -0.329683 1.08997 1.04089
3626 5.75954 0.815483 1.025 -0.189008 0.615435 -0.041461
3327 6.4048 0.0842804 1.29148 -0.127888 0.197399 0.880484
2683 8.30793 0.0281918 0.499799 0.298341 -0.487506 1.8826
34 7.38037 1.40208 1.12893 -0.242631 -0.0391929 -0.0100539
2338 8.28903 1.05436 0.951102 0.424381 0.052513 -1.00242
588 7.41514 0.339905 1.28791 1.18017 -0.180054 0.33251
241 7.73363 0.897756 0.0322392 0.25306 -0.352712 1.16173
335 9.72346 1.33299 0.246699 0.0234375 -1.08686 -0.856095
898 9.55763 0.439078 0.74204 0.950194 -1.36128 3.01793
3575 8.72571 1.20389 0.038035 1.56547 -0.779732 0.183856
274 10.7119 1.14538 1.02295 -0.0738879 -0.713569 1.49426
313 11.2013 0.0179047 1.08579 0.606123 -0.393465 -0.442239
2387 11.6662 0.778167 0.385149 0.768174 -0.514789 -0.377978
3925 14.1292 0.534552 0.574563 -0.0204475 -1.72467 0.194974
1463 13.2384 0.65207 1.02847 -0.222633 0.892087 0.693726
3664 15.176 0.271742 0.861576 1.23128 -0.793174 1.90605
3711 14.9626 1.28934 0.131769 0.927 -0.400437 1.84914
1375 15.9432 0.976517 0.838564 -0.875922 -0.632447 -0.186128
1043 16.9638 0.375789 0.662571 0.00266086 -0.433439 0.0649534
201 0.543171 1.61358 0.0704016 1.21404 -1.51083 0.256871
2308 0.0339873 2.67421 0.60366 1.17051 -0.212604 -0.337503
1965 0.913556 2.03064 0.950329 -1.64771 -0.715914 -0.201732
3688 2.83275 1.45341 1.30758 -0.358517 -0.314982 -1.64651
3467 1.87552 1.62003 0.775828 0.143908 0.095821 2.04289
271 1.59556 2.78546 0.772998 0.943053 -0.815156 1.45038
3846 2.762 2.43764 0.569097 1.11123 0.324082 1.30431
2548 3.7128 2.33978 1.2047 0.00159436 -1.96265 -0.221719
3225 4.36803 1.80728 0.67406 1.03979 0.333556 -1.06133
1815 5.54768 1.94127 0.743673 -0.895733 0.566976 -1.19551
733 4.67446 2.59441 0.0837804 -0.691704 -0.338819 -0.00591633
726 5.8569 2.58155 0.0393093 0.616773 1.26885 -0.668573
1792 6.33331 1.45274 0.399944 -1.06651 -0.432035 0.0742956
3370 7.58223 2.18833 0.62846 -1.78104 0.642393 -0.236687
2515 8.6772 1.98486 0.656838 -1.10451 0.336573 0.937057
2703 10.0539 1.97637 1.15443 -0.221178 0.223875 1.0195
3954 10.9962 2.38952 1.1278 -0.0764909 -1.65845 -0.747185
146 11.0094 1.55041 0.142311 -1.25896 -0.79487 -0.507175
587 11.6572 2.48816 0.401072 0.180421 -0.640286 1.03113
675 12.314 1.53075 0.534559 -0.0257657 -0.828605 -1.15462
1349 13.7543 2.67154 0.230978 -0.604036 0.425269 1.4564
1708 13.7499 1.62881 1.32747 1.40555 0.569477 1.24665
1605 12.9562 2.51934 0.952638 1.30529 -1.49075 0.857037
3672 13.9834 2.84492 1.26633 0.312205 -0.993352 -1.07935
687 13.6365 1.57908 0.331382 -0.329815 -0.583402 0.52929
547 14.7387 2.5961 0.0499579 0.505109 0.162195 -0.498836
3555 15.0436 2.79852 1.25248 1.15993 0.502065 2.01975
1437 14.5848 2.01306 0.805999 -0.609853 0.544913 -0.265211
3920 15.6562 2.06193 0.452575 0.256718 -0.497274 -1.36044
2145 16.6991 1.48305 0.566627 0.961441 -1.19138 -1.04815
2826 16.1001 2.53626 1.23588 -0.438136 -0.244825 1.12332
1414 1.91806 3.79115 0.541139 -1.11123 -0.00259043 -0.112648
72 2.74486 3.51853 0.187782 -0.43287 0.407041 -1.96564
1524 2.99477 4.03334 1.09929 -2.01167 0.954066 0.340281
1452 3.85648 3.36682 0.405894 -0.181727 -0.392914 0.378061
1862 5.64915 3.14727 1.18609 2.31459 0.0826543 0.97036
1120 4.62204 3.03323 1.05962 1.23625 -1.54305 -0.673277
2735 4.59638 4.19281 0.0759817 -1.00751 0.422864 -1.72248
3403 5.9439 4.26963 1.36829 0.584838 0.388711 -1.35207
1841 6.79243 3.16734 0.387586 -0.752039 -0.51103 -1.11507
3087 7.34149 4.17663 0.399503 -2.16737 -1.86806 1.51454
3231 8.27967 3.10132 0.61305 -0.150632 0.407641 1.01984
429 8.89584 4.1475 0.762522 0.614859 0.925779 0.299283
737 9.27647 2.93201 0.756438 -0.171086 0.27716 1.13701
3704 11.3553 3.79716 0.996102 -0.563768 0.659545 -0.773928
3627 10.7825 3.11839 0.18834 -1.44535 0.0530251 0.442166
888 10.0976 3.74296 0.844908 -1.47282 0.804078 -0.800412
2204 10.7174 4.11044 0.0477194 -1.29356 0.654781 -0.150624
2431 12.3549 4.05404 1.00405 -0.373893 0.151604 -0.734355
844 12.0101 3.0195 1.22416 -1.21966 -0.17973 0.544736
2576 12.8768 3.45392 0.265652 -0.585599 -1.29072 -0.147905
3161 13.5658 4.09097 0.673446 1.86252 -0.352314 -0.431725
2846 13.1985 3.49745 1.42472 0.385942 -0.780651 -1.08198
1521 14.4214 3.69496 0.0749941 1.45961 0.962672 -0.0676583
1909 15.1319 4.25851 1.02417 -1.58372 1.59582 -0.166827
3289 15.7499 3.42368 0.578309 0.87314 1.58104 0.146291
2045 16.6995 3.35369 1.14777 0.744215 -0.0189039 -0.365703
2247 1.09827 4.3137 0.73018 0.983879 0.490382 -1.07989
76 0.536997 5.14673 0.408945 -0.225526 -0.0885673 0.576783
2685 1.50014 5.42476 0.675974 1.88178 -0.72745 -1.52659
2405 2.41762 4.73409 0.332033 -0.720639 0.992823 -0.88601
1989 2.19455 4.60723 1.42411 -0.949427 -1.33794 -0.867796
426 4.21573 4.49162 1.08381 1.33375 0.87028 -0.217035
3254 4.06466 5.67353 1.37018 -0.8452 -0.905629 0.851738
1129 3.40769 5.41723 0.454827 -0.835848 1.17017 0.303405
891 5.14199 5.12457 1.13863 -0.479849 0.128122 -0.918445
2335 6.63705 4.96145 0.688744 -1.40761 1.0897 -0.0668635
3919 5.863 4.44002 0.310617 -0.582828 -0.197597 0.558768
2067 8.44143 4.95138 0.627287 -0.456897 0.476054 -0.208139
1408 7.61209 4.83807 1.3091 -0.33229 0.618695 -0.798605
1064 9.27252 5.5855 0.660198 -0.108725 -1.25349 0.290584
2266 10.102 5.55462 1.38259 -1.40358 -0.418986 -1.45082
811 10.5322 4.81407 0.716365 -1.05971 0.0284485 0.188805
1687 12.3178 4.88966 0.104189 0.867488 -0.525115 0.540522
3484 11.5084 5.20351 0.800593 -1.32088 -1.31213 -0.297896
106 13.1489 5.10071 0.876874 -0.557788 1.02619 0.354292
4000 13.7428 5.27036 0.0335006 -0.391879 -1.34596 1.17113
3558 15.6486 4.31135 0.11167 -0.161397 -2.00163 0.831673
3440 14.2566 4.87906 0.952438 0.703791 -1.40057 -0.0850618
459 15.0302 5.41181 0.442869 -0.218051 0.904176 0.0397668
920 16.2879 4.44242 0.904829 -2.11929 -0.0227632 -0.336292
415 16.4477 5.55947 0.583145 -1.89102 0.576766 2.03986
2789 0.457668 6.20637 1.00375 1.04302 -0.823712 -0.514265
1446 2.35769 5.98669 0.904904 -0.443154 0.520331 1.48446
2991 2.84443 6.9313 0.606875 0.294786 -0.382972 -0.640148
178 1.5553 6.61143 0.388068 -0.856224 -0.00967156 1.80759
8 3.844 6.34983 0.404896 1.09415 0.597072 0.707155
2007 4.57917 5.75478 0.353022 -0.324333 -0.172521 1.54472
3957 5.51075 6.17959 0.631211 1.1726 -2.18044 0.86897
1487 5.52572 7.02711 0.0473347 0.263901 0.409462 -0.301704
3580 6.47057 6.67969 1.1184 0.76097 -0.074861 0.402769
3316 8.38186 6.1285 0.477343 -1.06161 -1.09401 -1.32127
2774 7.33243 6.88169 0.301934 0.727236 1.89984 0.419192
97 7.24405 5.87183 0.250382 -0.426299 0.408474 -0.473745
1943 7.69177 6.05666 1.30713 0.199211 -1.57773 1.14404
3796 9.35071 6.6584 0.559206 0.884946 1.18993 0.294786
1747 8.7063 6.49126 1.39631 0.652961 -1.21162 -1.13674
464 10.3694 6.25051 0.529392 -0.625794 -1.08297 -0.307959
1831 12.696 5.91678 0.227591 0.636164 -0.500547 0.634679
496 11.8486 6.30455 0.87361 1.09604 -1.13873 -0.616152
3065 13.9582 5.8384 0.794916 -0.592835 1.00413 -0.625431
3474 13.0278 6.34175 1.06552 -0.707238 -0.511299 1.26298
1021 15.608 6.26192 0.274869 1.40231 2.26496 -0.411909
337 14.7646 6.61088 0.760671 -0.211978 0.00895845 -1.25869
639 15.5934 6.18339 1.3276 1.56894 0.345013 -1.1765
664 16.4407 6.5809 0.877321 1.21483 -0.060091 0.187902
212 0.269557 7.31819 0.909099 -0.683489 -0.821782 -0.968619
667 0.0229764 8.50291 0.454155 0.91201 -0.128948 -0.269898
3887 0.97475 7.94275 0.260997 0.449608 -0.661899 0.747762
2375 1.01169 8.48555 1.08114 -0.0307448 -0.212984 -0.299235
3250 1.92469 7.87153 1.27204 0.869496 0.65119 -0.639082
3760 3.96767 7.1895 0.991209 1.67667 -0.686557 -0.943846
3710 3.01451 8.00151 0.636959 0.00356355 0.848426 0.364292
882 4.14591 8.27432 0.568817 -0.164219 -1.43683 0.274646
1769 4.95622 7.64903 0.574788 -0.722477 -0.744907 -0.646983
498 5.61667 7.40001 1.35466 -0.898938 0.0297557 -0.664621
507 5.14868 8.53892 1.25845 -0.70979 0.698297 -0.00308937
204 6.70194 7.59791 0.445677 0.567491 0.316809 0.614667
1854 8.24183 7.25834 0.909606 1.9487 -0.425716 -1.77478
2570 8.02391 8.33374 1.13134 0.190123 -0.007213 -1.36039
2561 7.16649 8.53174 0.440434 0.0592147 -0.515048 0.984661
118 9.06062 7.55185 0.105344 -0.633297 0.218455 0.744388
1983 10.173 7.8367 0.0877185 -0.253557 -0.390831 -0.458005
2385 10.2085 7.32745 1.17154 0.151164 2.50552 1.35042
2248 11.3926 7.58138 0.778007 -2.16635 0.438437 -0.00911492
523 12.2136 7.22837 0.126898 0.121546 0.449584 1.04731
2899 12.3598 8.35438 0.98374 -0.964506 -1.58835 -0.120245
1212 12.9192 7.3175 1.30237 -0.140698 2.05962 -0.68599
754 14.0974 7.86184 0.783065 -0.00370486 1.26734 -0.231106
3752 13.1625 8.15462 0.372913 1.0655 -0.892103 -0.198318
2215 13.4588 7.16013 0.366766 -1.31045 -0.478667 1.31827
1937 15.6254 7.48775 1.0197 1.10894 -1.02496 -0.693933
3642 14.8368 8.44748 0.980932 -0.95141 -0.930257 0.345863
1005 16.5995 7.81603 1.35049 -1.12436 -1.05251 -0.213135
3174 0.297758 1.01818 1.46166 1.02093 -0.236615 -0.868095
3814 1.3835 0.147997 2.08477 0.220021 0.898377 -1.11288
2417 0.345071 0.299668 2.30083 -0.528553 -1.33258 0.27224
2425 1.36068 1.30373 1.62667 1.16834 0.719507 0.0297415
3036 0.586176 1.39958 2.41355 0.798405 -0.167324 0.197129
75 2.45902 0.316549 2.48291 -0.315383 0.533273 -0.815315
775 2.24044 0.681699 1.51215 -1.52836 -0.277264 0.527356
3768 1.57655 1.04701 2.75854 0.832586 -0.398723 0.0667174
2472 3.34682 1.03791 2.53896 0.403104 -1.07807 -0.515228
3373 3.75081 0.435279 1.51098 0.477542 1.01564 0.149519
2346 5.1766 0.142727 1.82085 -0.0275658 -0.371558 -2.87535
2834 5.04509 0.8927 2.59732 0.152468 -0.235336 -1.07951
120 6.64248 0.217303 2.23126 -0.429413 -0.880885 -0.327678
829 6.31987 1.06795 2.51275 0.797845 1.63199 -0.266773
3003 8.11654 0.863374 2.08265 -0.405129 -0.891946 -0.843417
1610 8.79299 0.142311 1.55441 0.531363 -1.21852 -1.01689
2485 9.30279 1.28279 1.48611 0.204522 0.220695 -0.0268429
2692 9.43443 0.620074 2.44663 -0.946401 -1.66291 0.809446
3630 11.0165 0.714047 2.09013 0.797581 -1.90109 0.0268069
3819 10.119 0.439285 1.6014 0.565089 1.28374 0.330369
860 12.1341 0.499773 1.92747 0.197295 0.313427 -1.21905
3960 13.7199 0.0863479 1.74843 -0.346364 -1.44441 0.0973967
2451 13.4853 0.97661 2.24984 0.925019 0.188298 1.18348
3121 15.4474 0.133454 1.94198 -0.518797 -0.428652 -1.1667
3020 14.65 0.831098 1.64657 -1.65035 0.0254209 -0.670067
2237 14.4252 1.27917 2.63806 -0.943911 1.08141 0.528747
3615 15.4961 1.31745 2.57637 0.694707 1.7439 -0.0086068
3924 14.7468 0.304002 2.68441 -1.75156 0.665998 0.139169
3200 16.5434 1.04851 2.6541 -1.22267 -0.596192 -1.29024
1633 16.53 0.474959 1.71405 0.086521 0.0367006 0.285306
1200 0.922101 2.38818 2.17156 -0.586224 0.928918 0.832692
4 0.0586053 2.25894 1.51064 -1.86461 0.987125 -0.264035
597 1.89549 2.38271 1.60877 0.852633 -0.778351 0.458938
71 2.37798 1.60049 2.35564 0.0443842 -0.971333 -0.307672
773 1.69761 2.22675 2.82807 1.20567 -0.210776 0.867906
482 3.05562 2.24607 2.02687 -0.0248462 1.18689 0.57583
3407 4.18354 1.9343 2.06664 -0.825659 0.875516 -0.357202
1976 5.04641 2.26319 1.67573 -0.545782 0.82417 2.03704
1651 5.29673 2.034 2.61782 -0.688021 -0.516174 0.273328
478 6.45962 2.38858 1.44932 1.62508 -0.420991 -0.458374
2780 5.8225 1.56784 1.73469 -0.203887 0.751234 -0.614562
3821 7.05196 1.67054 2.12271 -0.313011 1.2468 -0.892625
1580 6.12049 2.78318 2.32895 -1.22062 -1.67957 1.85412
3336 7.50387 2.43847 1.72485 -0.703319 1.43551 -0.854109
300 8.42355 2.63787 2.81505 2.16757 -0.0740854 -0.834422
2747 8.23312 1.75604 1.65176 -1.52058 0.318171 0.635611
1090 9.48755 2.45439 1.91176 0.285727 0.181272 -1.17667
16 8.602 2.78279 1.67339 -0.66707 -1.38203 0.133042
3659 9.57439 1.76433 2.69568 0.397111 0.0117815 1.91582
2077 10.5341 1.7129 2.05926 0.595021 -0.280505 -0.753375
270 11.36 2.54061 2.16794 -0.331228 -0.302981 -0.659994
2959 12.7874 1.64961 1.54583 -0.374435 -0.997207 -0.134613
753 11.4577 1.55819 1.59129 1.10651 -0.699856 -3.01558
80 12.4973 2.83747 2.53088 0.554775 -1.26554 -0.695576
3529 12.0936 1.71815 2.36616 -0.994853 -1.19792 0.365948
2434 13.3584 2.37066 2.11318 0.696954 1.40017 1.09557
3890 15.4657 2.7978 2.23323 0.145156 0.763248 1.45569
359 15.3562 1.50513 1.56865 0.582618 -0.434151 -1.58132
1883 14.4268 2.11773 1.82191 0.613733 0.0601851 0.072946
1258 16.3054 1.72569 1.93779 -0.867315 -1.06127 -1.53924
797 17.0231 2.14583 2.66734 -0.177357 0.243557 -0.252075
2480 0.716725 3.23403 1.53339 0.829479 -0.6901 1.05867
1987 1.29704 3.39566 2.38218 -1.10142 -0.0405805 1.36167
2756 0.161747 3.38235 2.67564 0.156225 -2.10544 0.650417
1856 2.11347 3.52092 1.59766 0.717768 1.07846 0.879536
2867 1.89217 4.24288 2.75143 0.12364 0.759351 -0.792755
2784 2.47962 2.95871 2.53111 -0.917738 1.56417 0.177063
992 3.67403 2.98447 2.69068 -0.749026 -0.208943 0.0404207
1879 3.23371 3.25818 1.76308 0.824075 -0.728387 -0.523017
3119 4.3712 3.804 2.43322 -1.26421 -2.15106 0.62594
2331 5.05082 2.97021 2.45972 -1.65492 0.798867 -1.23822
237 5.27937 3.89274 2.0159 0.425189 0.21218 -0.512808
1383 6.81314 3.53114 1.63079 -0.0601543 -0.407528 -0.887046
2788 6.25871 4.05289 2.44968 1.62879 -1.15545 0.594078
2588 7.29602 3.02175 2.64213 0.187598 0.114084 0.0217192
463 7.8974 3.57901 1.64125 -0.654904 1.39736 -1.12528
1980 9.51489 3.45561 1.75645 -0.63735 0.495687 1.92399
19 9.66316 4.21183 2.67415 0.488332 -0.93522 -0.409776
525 8.77901 3.61512 2.46449 0.302162 -0.466803 -0.509329
2410 10.7852 4.18626 1.8562 0.562881 0.292304 0.0442868
2640 10.421 3.3041 2.31718 0.451368 0.0735519 0.769462
3204 12.0615 3.63713 2.02689 0.937346 0.931436 0.347839
1718 14.1964 3.36155 2.35061 -0.41974 -3.5526 -0.290513
805 14.2266 3.92182 1.59869 -0.115393 0.802545 1.583
2551 15.1516 3.74705 2.73 1.35186 -1.76015 0.320368
1805 15.7546 3.78533 1.68421 -2.16162 0.531918 -0.389615
3841 16.4148 2.92719 2.25974 -0.389725 1.00085 -0.701214
262 17.0615 4.02583 1.81151 0.14197 0.359576 0.469935
421 16.2621 3.97211 2.74716 0.103499 -1.74471 0.229472
424 0.943148 4.28162 1.9011 -0.371649 -1.13415 -0.121886
132 0.241484 5.00211 1.45536 -1.03036 0.378547 1.47934
2976 1.23348 5.20335 1.81213 -0.168948 -0.168674 0.851048
2883 0.245397 4.93014 2.699 1.60889 -0.106122 -0.815597
460 2.79382 4.30345 2.18865 -0.122693 0.779124 1.15108
2782 2.18724 5.63555 1.94324 -0.17886 -0.770462 -0.817477
465 3.0722 5.20452 1.5019 -1.56203 1.28002 1.1975
3801 3.33942 5.26468 2.58022 -1.19843 -0.511301 1.60246
342 3.6354 4.32252 2.82736 -1.44696 -0.841298 1.84511
989 5.66347 4.92706 2.24307 1.2922 0.774078 0.72387
213 4.99148 5.6857 2.14307 0.957237 -0.227091 0.119057
2488 4.61292 4.77352 1.97369 -0.239747 -1.47753 0.236161
3009 6.50372 5.28668 1.71873 0.174132 0.143598 1.53243
316 6.73684 4.98492 2.83079 -0.557912 1.48491 0.816679
2775 8.51106 4.46622 1.69926 -0.574848 0.116723 0.477891
1438 7.45656 4.30758 2.21427 -0.980692 -1.87456 0.0812948
2302 7.65852 5.30681 2.1617 1.19853 -0.338694 -0.131819
3660 9.66203 4.57818 1.47658 2.17798 -0.28518 -0.308064
321 9.35304 5.27119 2.33301 1.62307 -0.391111 -1.85848
1286 8.65651 5.40934 1.57746 0.517502 -0.18965 0.425387
3057 11.2047 5.65908 1.64544 -1.44881 0.0614326 0.198492
1413 11.3261 4.29988 2.68456 -0.570316 -0.0503671 -0.501628
745 10.4071 5.11835 2.34043 1.18419 -2.33344 -0.145049
3911 12.5845 5.20015 1.81323 0.557378 -1.44388 1.47591
3433 11.7107 4.65445 1.59014 -0.642439 0.241385 0.209876
2902 12.3009 4.56946 2.62777 1.34691 -0.354358 -1.49535
677 13.4049 4.53029 1.80316 0.176303 0.0334955 -1.35168
832 14.1954 5.46095 2.70551 0.19655 -1.46254 2.11448
1290 14.5736 4.74356 2.05546 -2.01237 0.675467 -0.246655
1710 15.4692 4.78518 2.63374 0.0353102 2.26703 0.895207
3637 15.7298 5.17163 1.68913 0.257956 -0.0939794 0.558769
545 16.5633 5.51525 2.30022 -0.396992 -1.09925 -1.0266
1214 0.505559 5.79725 2.16152 0.431602 -0.357188 -1.14863
688 1.42816 6.31321 1.57749 -1.40557 -0.614877 0.893496
3135 2.52894 6.77631 1.58007 0.958497 -0.0864755 0.768973
3910 1.55763 6.34653 2.63182 -0.424496 -0.224517 1.50876
549 2.74482 6.30121 2.56785 -0.484627 -0.0943418 0.833101
2074 3.43934 6.42149 1.56811 -1.24834 0.988089 0.990011
779 4.21726 6.22375 2.65707 -0.169941 1.03919 -0.521849
3267 4.52458 6.59312 1.68933 0.212556 -0.100415 -0.675769
2323 5.54983 6.46447 1.6887 -1.30477 -1.22503 -0.113163
1265 5.13889 7.05222 2.60841 1.19536 -0.105992 0.333343
562 6.98826 6.30642 2.14735 -0.879813 0.180077 1.20878
3737 5.76695 6.05391 2.63804 -1.41876 -0.570469 0.273649
2966 6.30712 6.99096 2.24142 0.646959 0.977351 1.47766
2079 8.20839 6.20441 2.39204 -0.0825627 -0.241817 0.554791
453 7.68997 6.97986 2.71143 0.54546 0.735883 -0.629768
2798 9.33074 6.30941 2.41699 1.13221 0.163172 -0.264535
631 11.288 6.86993 1.62404 -1.03232 -0.47844 0.301991
174 10.391 6.9575 2.28899 0.549617 0.493464 0.941741
2303 11.3923 6.36213 2.55457 -0.225015 0.0539125 -0.507853
3011 12.252 5.72145 2.62226 -2.31048 -0.0957606 1.35983
3223 13.9473 6.88563 1.59207 0.0637501 1.02196 1.53634
1246 13.4936 5.73015 2.03677 0.381996 1.52584 -0.459542
189 12.9353 6.83978 2.14714 -0.544309 0.581157 0.305355
940 13.8887 6.90183 2.68752 -0.219805 -0.678438 0.208607
1367 14.6722 5.91187 1.69592 1.07105 0.547087 -0.374136
2800 15.5766 5.84215 2.42692 -0.124724 -0.125058 0.17879
2577 14.9221 6.78014 2.06939 -1.23375 -2.29176 -1.08781
1400 16.689 6.54563 1.91277 -1.25044 -0.569235 0.0323934
1436 1.16777 7.29964 2.01609 -0.207917 -0.0321086 0.401798
524 0.207745 7.60805 2.53958 -0.378779 -0.826704 0.0934378
602 2.81396 8.51989 1.71288 1.38441 -0.980831 -0.0421376
390 2.18258 7.4856 2.34802 0.202766 0.941352 0.839915
2010 1.72329 8.42072 2.34651 -1.00277 1.43053 0.189424
1833 4.11973 7.33426 2.48158 0.829172 -0.240253 0.312919
531 3.8371 8.45001 1.92012 -0.0539721 -0.803794 1.90054
552 3.3748 7.45682 1.73731 -1.8907 0.379606 0.243145
11 2.96641 8.04241 2.78286 -0.150666 -0.839723 -0.749349
1495 4.58291 7.66189 1.58885 -0.498736 0.451157 3.12099
2550 5.44872 7.99059 2.26297 -0.310183 0.110204 -2.21341
1827 6.54557 7.86427 1.56043 2.12075 1.24562 0.257415
409 7.49688 7.27005 1.62419 0.822049 0.962634 -0.18431
765 8.49719 7.17859 2.11724 1.56434 0.929691 0.65725
2887 7.67851 8.07959 2.60119 -0.354848 0.900618 -0.664188
3800 9.55494 7.63966 2.21445 0.851512 1.28436 0.85753
265 8.70783 8.53376 2.60849 -2.10506 -1.49218 -0.337348
3481 9.00092 7.99021 1.42573 -1.24182 1.26107 0.690483
819 10.9367 8.01365 1.6568 -1.15927 1.47529 0.550002
626 11.2506 7.63606 2.79915 -0.761963 1.47955 0.0628781
2633 11.9361 7.9611 1.8713 2.13684 -1.23399 0.670558
3603 13.6055 7.97803 1.77613 0.187974 2.40613 1.05108
2664 13.0538 7.80228 2.74772 -0.45147 -0.366336 -2.70935
2933 14.598 7.79174 1.79487 0.776637 0.520997 0.136326
188 14.2696 7.88854 2.79366 2.47563 -0.498413 -0.269612
3470 15.2262 8.27781 2.81764 -1.51609 0.710596 -1.47485
3723 16.2854 8.42476 2.50684 0.286903 -0.807467 0.065437
2724 15.7554 7.60037 2.14929 0.0422824 1.73612 -0.598341
3242 0.858061 0.247999 4.00719 1.08676 0.627112 0.460738
2154 0.311602 0.756184 3.22319 0.569882 0.0825144 -0.407581
3682 1.27575 0.153316 3.08863 -1.56622 -0.286808 0.350757
871 2.68066 0.717005 3.53108 0.736112 -1.50418 0.233152
1612 1.86099 0.567109 4.17019 -0.415886 1.18169 1.93914
2693 4.07014 1.24179 3.21208 0.744108 0.192374 -1.011
2610 3.5846 0.263942 3.10741 -0.310519 -0.965008 0.140176
2523 4.96237 0.505593 3.57011 -0.883567 1.11062 1.04428
2195 5.77717 1.03393 3.45665 0.243987 0.325585 -0.547174
3190 6.21954 0.0737308 3.55211 -1.61404 1.78451 0.864904
3691 8.37731 0.350095 3.29081 -1.38701 -1.60615 1.29613
1765 7.30793 0.934907 3.37923 0.377374 0.388506 -0.251589
2363 9.28396 1.07204 3.86625 0.66298 -0.754758 -0.503346
3343 11.2907 0.282924 4.04764 1.02955 2.46969 -0.994188
1318 10.0845 0.944406 3.24044 -2.91808 -0.470142 -0.300372
3891 11.8599 1.15905 3.84327 1.15928 -0.0911395 0.185291
3853 11.4584 0.260847 2.93831 -0.195755 -0.124595 -0.436202
3392 12.4986 0.75946 2.91784 0.772386 0.360751 0.734902
434 13.5866 0.851252 3.29535 -1.12723 1.50853 0.346221
467 12.8359 1.19546 4.13579 -0.825795 -1.22875 0.604336
3113 14.6831 0.662486 3.79106 -0.876145 -0.566852 0.180419
1242 15.7283 0.521452 3.17668 0.0114948 -0.196873 -0.958843
735 16.3504 0.721858 4.12275 -0.518267 0.339672 1.3826
47 0.568607 2.57781 3.37965 1.10536 -0.916591 -0.737526
2847 0.195201 1.79526 3.89488 -0.129103 0.291316 -0.741103
895 1.17501 1.45026 3.6889 0.0989958 1.42039 0.726033
1178 1.77594 2.24703 4.0308 -0.707323 -0.458923 1.35554
495 2.76148 2.6099 3.5441 0.890776 -1.41207 0.191632
958 2.3109 1.63102 3.4156 0.46209 1.96685 0.105609
2734 3.33604 2.01035 2.9609 1.29032 -1.53098 -0.591895
1426 3.78676 2.72144 3.8229 0.750585 1.1697 0.947643
2165 3.55873 1.86844 4.18986 0.247747 -1.82375 0.0932996
476 5.66068 2.36623 3.50473 -0.328427 -0.217448 -0.223638
2804 4.97262 1.65341 3.67123 -0.273522 0.843349 0.666128
199 4.342 2.28239 3.0527 0.771385 -1.02697 -0.662633
1041 6.86206 2.11907 3.0154 -0.447553 0.752537 1.47439
2172 6.52467 1.65861 3.93286 -1.26139 0.173092 -1.5187
3843 8.2737 2.621 4.15594 -0.4541 -0.630985 -0.676525
2081 8.15582 1.47361 2.94608 1.70906 0.153991 -0.922155
3579 9.16041 2.23233 3.7581 -0.592743 1.67741 -0.582432
2946 10.9968 1.47429 3.00427 1.26936 0.594077 1.38199
3669 10.4917 2.40386 2.91156 -0.349478 -0.135763 0.372986
2037 10.1206 1.56166 4.18007 -0.220274 1.30907 -0.0700092
3018 10.9689 2.7597 3.74602 -1.33408 0.564861 -0.225574
3802 12.3165 2.84768 3.78857 -0.194591 0.743324 0.523517
2999 11.8809 2.04778 3.24839 -0.107414 0.125268 -1.68287
1648 13.1018 1.98928 3.18229 -0.0519447 2.2353 0.821149
339 14.3398 2.30749 3.08764 -0.651553 1.54246 -0.134344
1829 15.2508 1.60445 3.64998 0.0587749 -0.976184 1.1671
956 15.9775 2.15259 2.91137 0.158405 1.21358 -0.321839
931 15.9963 2.37101 3.97276 -0.277831 0.589098 -1.78934
2951 0.856037 3.92215 3.16086 1.6948 -1.37301 -0.464477
2945 0.384995 3.64778 4.10973 -1.61562 -0.749914 -0.499333
60 1.48506 3.17947 3.52504 0.994454 0.477189 1.31612
1816 2.73483 3.70368 3.14784 1.36443 -0.0804286 -0.834672
717 3.66383 3.8099 3.70374 -0.653683 1.01515 0.859941
651 4.67623 3.43827 3.63757 2.3551 -0.624538 -2.14381
2940 5.43597 3.18653 4.27459 0.657598 -0.176183 -0.831615
1760 7.00708 3.89188 3.2236 -0.641814 0.894644 -1.49362
618 5.8172 3.41056 3.22993 0.150038 0.788524 -0.0560806
2374 7.30538 2.86954 3.7369 0.103512 -0.236883 0.935201
3363 8.07711 3.76582 3.1014 0.0772967 -1.56628 1.83363
2654 7.75641 3.7833 4.02891 1.51591 0.911139 1.19793
3374 9.58939 2.91292 2.89194 -0.617949 0.705016 -1.64762
1958 9.05174 3.64644 3.75053 -0.118641 0.765925 0.213296
1548 11.2781 4.07957 3.63343 -0.216451 0.943649 0.160113
3194 10.0499 2.88222 4.037 -0.672042 -0.49069 -0.610231
3713 10.3072 3.65697 3.29867 0.842866 -0.818652 -0.761811
282 10.5118 3.90021 4.22905 -0.287798 -1.46273 -0.0811803
2564 11.5834 3.17676 3.02821 1.28106 -1.07688 -0.254473
2853 12.9957 3.73304 3.26859 0.964832 -0.660082 1.22615
1799 13.8743 3.21194 3.4493 0.605981 0.0796699 0.253786
1015 14.978 3.24456 3.61557 -1.80718 0.698189 1.26936
3247 16.5826 2.91071 3.40737 0.667422 0.0377381 -0.429986
3082 16.9726 4.08996 3.41934 0.244274 -0.602551 -0.812648
3008 15.928 3.73663 3.66384 -0.295761 -0.026242 -0.597042
1003 0.618839 4.83253 3.89412 -0.533328 1.60586 -0.0104493
1693 1.01119 5.49939 3.09849 -0.529741 0.50603 -1.33997
686 1.70717 4.38445 3.78548 0.228729 1.15099 -1.71367
3039 2.17585 5.23069 2.91286 0.82972 -1.07203 -0.907022
1325 2.80238 4.57381 3.87082 -0.726829 -0.498815 -1.10167
1992 4.15527 4.80003 3.72445 0.276828 1.949 1.43354
1864 3.32814 5.60152 3.56431 -0.209083 0.0139054 0.321616
119 4.63416 5.41051 3.09673 -0.864149 0.264205 -0.544419
1402 5.10404 4.30642 2.94405 -0.639529 -0.467102 -0.461738
3767 5.65541 4.28735 3.81124 -0.20428 0.520396 -0.0497096
273 6.84201 5.52825 4.11225 -0.571351 0.864155 -0.481841
2369 5.82819 5.21095 3.25483 -0.472688 0.235548 -0.418061
191 8.2971 5.30781 2.97031 0.617543 -0.591212 -0.235045
2808 8.49532 4.46136 4.15103 2.3255 -1.28687 2.04709
35 7.62173 4.59607 3.49098 -0.0757592 -0.00625587 0.0140158
640 7.96592 5.57683 3.92373 1.8554 -0.152203 -0.8783
2606 9.50563 4.73012 3.77502 -0.743725 -1.71239 1.20955
2916 10.45 4.70299 3.20909 -2.03936 -1.0586 1.26347
889 10.0564 5.60768 3.75779 1.80961 -0.333673 0.0281384
1269 12.3367 4.55096 4.02003 2.33904 -0.719765 -0.524997
136 12.6533 5.44739 3.83437 -0.147521 0.802568 -1.13734
2919 11.6254 5.21021 3.42355 -0.304177 -1.40631 0.712766
1690 14.2056 4.3601 2.96646 0.380806 0.520985 -0.750523
2748 13.5302 4.28513 3.94046 -0.811722 -1.28011 -0.91174
1050 13.3177 4.87192 2.96728 0.864947 -1.08154 1.02979
707 13.8293 5.45038 3.65763 0.380095 1.0875 0.247741
3844 15.2586 4.52881 3.68841 2.59529 -0.104811 0.187991
3427 14.9465 5.44973 3.39927 -0.324403 1.71722 0.662834
2412 16.2326 5.05747 3.43839 -1.63428 -0.744108 1.60262
2050 0.00849931 6.62085 2.913 -1.47637 2.11219 -1.37826
1770 0.565741 6.83399 4.00928 1.33771 0.339092 0.922667
491 1.20475 7.03018 3.27112 0.271674 -0.896274 0.585742
904 0.209925 5.84043 3.71793 0.304783 -0.789498 1.05484
2035 2.25388 6.94331 3.36186 1.07091 0.339303 0.296175
1332 2.28325 5.95755 3.87515 2.5426 -0.49825 0.766248
2722 3.35791 6.91789 3.14683 1.44717 -0.356784 0.129987
3651 3.22433 6.49718 4.19965 -0.334007 0.0733846 0.634115
1264 4.21755 6.62178 3.65907 -0.530811 1.94758 0.0773299
1396 5.35752 6.47765 3.45908 0.141842 0.830458 -0.561539
900 6.436 6.45135 3.32316 0.140279 -0.204871 -0.546652
3007 7.29679 5.86758 3.08919 0.0471741 1.70991 0.713082
1142 7.13208 6.65438 4.25803 -0.53535 1.66373 1.10065
3101 8.20348 6.49174 3.50657 -0.74302 -0.091246 -2.02336
2183 9.29586 5.81817 3.2769 0.399393 0.587301 -0.982097
89 9.60178 6.4221 4.20301 0.207218 0.671645 0.0105889
501 9.22621 6.88233 3.24363 0.693669 -0.148796 -1.06074
3837 10.1349 6.37619 3.08173 -0.467679 -0.133891 -1.55227
1661 11.1683 6.7989 3.67247 2.93177 0.448282 0.00686142
1626 12.201 6.7783 2.91062 -1.40738 1.25232 0.0720725
1344 12.2983 6.6348 4.04915 -1.71762 0.167867 0.558595
1503 13.0328 6.20059 3.03497 -2.22171 0.606392 0.982283
3136 13.326 6.32417 4.07775 0.227378 -0.585817 2.40617
401 15.21 7.01873 2.98559 0.0284849 0.151737 -2.06944
932 14.2643 6.36735 3.47666 -0.832583 0.528444 0.527561
2269 15.4164 5.71964 4.14626 2.00877 -0.134799 -0.682921
2567 16.1899 6.15525 3.24071 0.160416 -1.66586 0.223749
672 16.6268 7.06526 4.08371 0.425922 -0.108833 -0.920453
1136 1.01432 7.97772 3.53647 1.73424 1.37218 -0.378008
594 2.25582 8.39273 4.26491 0.833481 1.12652 0.861761
1682 1.99275 8.06004 3.28987 0.75204 0.964877 -1.01395
2600 3.53976 8.34724 3.90127 1.698 -0.239888 0.927687
2556 2.86332 7.46695 3.98758 -1.75213 -1.27361 0.701498
834 4.78212 7.51699 3.80846 -1.94351 0.404824 1.20278
3983 4.79204 8.53118 4.05039 -0.229504 -1.28004 1.09805
2108 5.65029 8.07971 3.36829 -1.53786 -0.0838911 1.59233
1509 6.67875 7.5498 3.20578 0.256785 -2.05522 0.47154
1622 5.85687 7.16618 3.95541 -0.0645663 -0.80471 0.767829
2213 6.73299 7.90108 4.1213 -0.469003 0.0016702 0.000137427
969 7.59899 7.45505 3.63658 -0.12502 0.0513345 0.689037
3144 8.46708 7.64945 3.12663 -0.0350877 -0.611221 -1.28923
1668 8.15186 8.38578 3.72053 -0.100113 -1.02792 -0.553875
3773 8.68873 7.35562 4.07955 0.198734 -1.22102 -0.0200525
473 9.46299 8.06393 3.37236 0.472 -0.0959224 0.0897919
575 10.3166 7.40084 3.25107 0.584504 -0.724477 -0.728019
1625 10.6953 8.32026 3.67772 -0.69217 0.409287 0.564116
2476 12.0071 7.52996 3.72678 -0.114999 -1.56191 -0.930292
3811 12.7835 8.29224 3.75621 -0.22279 0.167837 -0.319038
2924 11.759 8.4324 3.16154 -0.909048 0.868103 -0.0906343
1381 13.1815 7.3321 3.57895 1.07537 0.012154 1.24207
2903 13.8877 8.27603 3.82168 0.246365 1.1083 -1.1245
1303 14.5004 7.34321 3.80865 -0.41155 -0.825706 2.76955
3499 15.5714 7.21783 4.08739 -0.92223 0.80806 0.278817
2646 15.8181 8.18897 3.75596 -0.518833 -0.57168 -0.130986
998 16.2448 7.39468 3.0434 1.11033 -0.538958 0.725419
3966 17.0313 7.95536 3.56709 1.09991 -0.0976366 1.98492
2389 0.116852 0.966623 4.55725 -0.378738 -0.845785 -0.463677
983 1.03066 0.734796 4.99556 0.97665 -1.30304 -0.921044
3438 0.00294133 0.77559 5.64768 -2.80452 -0.993078 -0.902661
3539 2.73154 0.817321 4.61589 -0.939738 -0.458944 0.145178
2052 2.11535 0.27452 5.3217 -1.86766 1.03403 -0.403583
504 4.21621 0.933842 4.2946 -1.96867 1.18505 0.762122
3445 4.42124 0.122014 4.9198 2.18137 2.02668 0.173726
1113 4.66247 1.01192 5.39031 2.02621 -0.22922 1.13563
3457 5.4144 0.894519 4.63196 -1.71272 -0.044431 0.57141
2441 6.10213 0.511077 5.37066 0.600361 -0.55523 -1.38333
3115 6.56446 0.702959 4.29165 -0.783634 -0.725034 0.391815
2751 7.71727 0.0505609 4.32558 -0.102295 0.672161 -0.610911
724 7.36626 0.76456 5.25279 0.944898 0.779321 0.12813
2497 8.4067 0.860273 5.48531 -0.452743 0.22231 0.56617
3179 9.42397 0.180529 4.45466 1.09728 -1.01665 -0.391106
3261 8.59906 0.769713 4.48215 -0.0604013 -0.537323 0.0166856
3643 9.28217 0.364614 5.60259 -0.176969 -0.357544 -1.71557
3347 10.228 0.934276 5.46503 2.4501 -0.342483 2.0261
2068 11.3149 0.580996 5.2699 -0.550195 -0.262956 1.7518
847 10.3798 0.517413 4.44851 1.68681 1.37856 -2.41743
418 12.4149 0.353015 4.87782 -0.453422 -1.05925 0.553046
2124 12.2558 1.14186 5.5885 1.57962 -2.20839 -0.19877
3836 13.4865 0.765826 5.53595 0.944141 0.721495 1.36678
951 13.8061 0.998626 4.61425 0.162691 0.334515 0.292197
1535 15.344 0.165339 4.52401 0.687888 -1.1067 -0.96632
3334 14.6426 0.616541 5.07935 0.226808 -0.596471 -0.214519
2433 16.3298 0.169642 5.07831 0.622129 -0.588585 -0.445207
791 16.1791 1.11235 5.34933 1.5421 -0.191288 -0.320632
446 1.03209 2.62914 4.51547 0.0229458 -0.24882 -2.6147