ITEM: TIMESTEP
100000
ITEM: NUMBER OF ATOMS
32000
ITEM: BOX BOUNDS pp pp pp
-1.4938015821857215e+01 1.4938015821857215e+01
-1.4938015821857215e+01 1.4938015821857215e+01
-1.4938015821857215e+01 1.4938015821857215e+01
ITEM: ATOMS id x y z
802 -14.2173 -14.1976 -13.5775
805 -13.5193 -14.9347 -13.4588
2 -14.1939 -14.1714 -14.8856
8 -13.413 -14.1946 -14.216
885 -13.456 -13.4684 -13.4587
806 -12.7539 -14.2619 -13.4621
12 -11.9807 -14.1971 -14.2232
91 -11.1897 -13.4546 -14.207
810 -11.1013 -14.1886 -13.4788
16 -10.3785 -14.2738 -14.2309
814 -9.76556 -14.22 -13.482
95 -9.74225 -13.451 -14.1926
93 -10.4043 -13.4453 -14.9372
893 -10.481 -13.4501 -13.467
14 -9.66272 -14.166 -14.9366
20 -8.96186 -14.2103 -14.2702
99 -8.22715 -13.4801 -14.1614
817 -8.97698 -14.9296 -13.4914
818 -8.25097 -14.2423 -13.4752
897 -9.05764 -13.4649 -13.5052
97 -8.97773 -13.4466 -14.9137
24 -7.49738 -14.2158 -14.2655
103 -6.77242 -13.485 -14.249
901 -7.48989 -13.4578 -13.4621
22 -6.71953 -14.236 -14.9176
28 -5.97701 -14.1972 -14.2348
107 -5.26681 -13.4637 -14.24
825 -6.03724 -14.9013 -13.544
826 -5.18594 -14.1886 -13.4501
32 -4.52758 -14.1802 -14.2249
830 -3.70676 -14.216 -13.5159
111 -3.77972 -13.5159 -14.2386
829 -4.46734 -14.9202 -13.4973
909 -4.41445 -13.4903 -13.4756
31 -3.73598 -14.9262 -14.2444
36 -2.9958 -14.1352 -14.2845
913 -2.99249 -13.4485 -13.46
35 -2.1848 -14.9217 -14.2153
834 -2.18587 -14.1977 -13.4613
40 -1.47111 -14.112 -14.1697
39 -0.745846 -14.9219 -14.1773
44 0.0457933 -14.2204 -14.1667
38 -0.680053 -14.1627 -14.8394
41 -0.0388909 -14.9228 -14.8834
48 1.45838 -14.1775 -14.1452
123 0.724286 -13.4495 -14.0898
125 1.4472 -13.4652 -14.9321
45 1.44866 -14.9192 -14.855
52 2.99538 -14.155 -14.229
127 2.27174 -13.4716 -14.13
849 2.97753 -14.9102 -13.5194
47 2.18674 -14.891 -14.0881
56 4.58878 -14.1768 -14.213
853 4.51741 -14.8778 -13.4559
51 3.73529 -14.8606 -14.2407
60 5.92091 -14.2048 -14.1596
937 6.0878 -13.5059 -13.453
857 5.98845 -14.9214 -13.471
64 7.47664 -14.1627 -14.2432
139 6.74002 -13.4464 -14.2336
58 6.75737 -14.1642 -14.9005
861 7.47869 -14.9078 -13.4455
59 6.68854 -14.9108 -14.1654
68 8.95828 -14.1449 -14.2523
862 8.16703 -14.1227 -13.4631
62 8.19461 -14.2219 -14.8985
72 10.5179 -14.1711 -14.1439
147 9.63173 -13.4664 -14.1981
866 9.71445 -14.2487 -13.4582
76 11.9877 -14.2811 -14.1866
870 11.2122 -14.2801 -13.514
953 11.9577 -13.4804 -13.4653
70 11.1752 -14.2152 -14.934
73 11.9832 -14.9173 -14.9352
80 13.4259 -14.1337 -14.236
155 12.6586 -13.4461 -14.2185
874 12.6519 -14.2759 -13.4655
801 14.9327 -14.9003 -13.4983
4 14.7211 -14.2247 -14.2803
878 14.1056 -14.2235 -13.4655
83 -14.186 -13.4349 -14.182
84 -14.9141 -12.7455 -14.2204
88 -13.522 -12.6727 -14.2685
965 -13.5316 -11.9655 -13.4995
882 -14.2734 -12.6603 -13.4811
87 -12.7881 -13.3985 -14.299
886 -12.8222 -12.6562 -13.461
92 -12.0267 -12.7937 -14.1133
169 -12.0282 -11.9634 -14.8888
90 -11.3131 -12.6594 -14.9298
890 -11.2075 -12.6623 -13.4838
96 -10.474 -12.7097 -14.2007
175 -9.71708 -11.9837 -14.2879
173 -10.5354 -11.9914 -14.9194
894 -9.74818 -12.6697 -13.4995
973 -10.4797 -12.0084 -13.4981
100 -9.05254 -12.7192 -14.1916
179 -8.12636 -11.9648 -14.2393
898 -8.21575 -12.7164 -13.5393
98 -8.27141 -12.7161 -14.9172
104 -7.46681 -12.72 -14.1176
102 -6.72158 -12.7073 -14.9158
101 -7.57406 -13.4286 -14.9357
108 -6.02223 -12.7257 -14.2322
906 -5.1794 -12.8147 -13.4921
187 -5.21858 -11.9736 -14.2273
112 -4.42781 -12.7211 -14.2122
191 -3.72455 -11.969 -14.1728
989 -4.51662 -12.0514 -13.5232
910 -3.70964 -12.6438 -13.4604
115 -2.26285 -13.4063 -14.1857
116 -2.99877 -12.7253 -14.2074
914 -2.20921 -12.7188 -13.4785
993 -2.95435 -11.9755 -13.4492
114 -2.26269 -12.7174 -14.9199
119 -0.719214 -13.421 -14.2217
197 -1.53709 -12.0146 -14.9266
120 -1.47021 -12.6879 -14.2291
117 -1.49447 -13.3959 -14.9242
918 -0.803747 -12.6891 -13.4665
118 -0.712505 -12.7635 -14.9251
921 -0.0497185 -13.4166 -13.4657
124 0.0766867 -12.6944 -14.1703
121 0.0619062 -13.4278 -14.8865
201 -0.100529 -12.0062 -14.85
128 1.45789 -12.6903 -14.2596
132 2.98643 -12.6179 -14.1766
926 2.23787 -12.7587 -13.4533
207 2.1975 -12.0247 -14.132
209 2.88249 -12.0022 -14.9379
131 3.67235 -13.4203 -14.2056
933 4.56678 -13.3351 -13.5276
136 4.49096 -12.6591 -14.2218
133 4.47033 -13.4258 -14.9077
930 3.65603 -12.7679 -13.4651
130 3.65766 -12.6805 -14.9115
135 5.31378 -13.4413 -14.2617
140 6.01776 -12.7923 -14.1006
215 5.24524 -11.9671 -14.1986
134 5.25422 -12.6779 -14.9031
217 5.94047 -11.9907 -14.9091
221 7.5192 -11.9649 -14.9079
144 7.52171 -12.6586 -14.2041
219 6.79768 -12.0123 -14.1515
138 6.6903 -12.7105 -14.8918
941 7.52984 -13.4167 -13.4783
141 7.50352 -13.3739 -14.9197
143 8.27227 -13.3633 -14.1774
148 8.99916 -12.703 -14.2197
1025 8.95771 -11.9524 -13.5074
223 8.28365 -11.9578 -14.1734
152 10.3812 -12.7028 -14.2565
227 9.77633 -11.9638 -14.2473
946 9.75167 -12.7167 -13.5035
233 11.8959 -11.9689 -14.8539
151 11.1711 -13.4276 -14.1525
156 11.9266 -12.7402 -14.2775
231 11.1493 -11.9829 -14.2329
950 11.1814 -12.6917 -13.4852
154 12.7323 -12.7109 -14.8881
954 12.5978 -12.7581 -13.5187
160 13.4266 -12.6671 -14.1122
235 12.6722 -11.9968 -14.2365
237 13.4506 -11.9836 -14.9206
159 14.1701 -13.3977 -14.1912
881 14.875 -13.4021 -13.4593
958 14.1334 -12.6811 -13.4968
158 14.1138 -12.7472 -14.9332
163 -14.2531 -11.9327 -14.2481
164 -14.9287 -11.1788 -14.2776
962 -14.2167 -11.1863 -13.4566
168 -13.5345 -11.212 -14.2525
167 -12.7526 -11.9257 -14.1778
247 -12.7645 -10.501 -14.1653
171 -11.2761 -11.9485 -14.1834
172 -12.0093 -11.2104 -14.1781
970 -11.2525 -11.2496 -13.509
170 -11.2388 -11.2666 -14.8783
969 -12.0336 -11.8786 -13.4503
176 -10.4434 -11.3402 -14.1906
174 -9.79791 -11.1812 -14.9171
974 -9.75161 -11.2275 -13.5536
1053 -10.491 -10.5072 -13.5347
180 -8.96705 -11.212 -14.2333
257 -8.96112 -10.5017 -14.9345
978 -8.22819 -11.1877 -13.5165
977 -8.94947 -11.862 -13.5404
178 -8.18805 -11.2384 -14.8884
183 -6.76738 -11.9263 -14.169
184 -7.41533 -11.1572 -14.2008
263 -6.66245 -10.5203 -14.2519
982 -6.64015 -11.1712 -13.4842
1061 -7.45144 -10.4912 -13.4839
265 -5.87358 -10.5062 -14.9296
188 -5.94153 -11.1744 -14.2107
190 -3.77347 -11.2898 -14.9157
192 -4.54746 -11.2472 -14.2076
990 -3.85136 -11.2312 -13.4649
269 -4.44958 -10.5254 -14.9138
195 -2.22276 -11.9483 -14.1376
196 -2.98134 -11.1294 -14.2349
275 -2.25614 -10.4791 -14.162
199 -0.791846 -11.9133 -14.1138
198 -0.749437 -11.1337 -14.9027
200 -1.50077 -11.181 -14.0756
1001 -0.027228 -11.9382 -13.4582
204 -0.0613955 -11.1956 -14.215
281 0.0496473 -10.4749 -14.9078
203 0.819426 -11.9452 -14.2152
208 1.35942 -11.1333 -14.1926
205 1.49578 -11.888 -14.9281
287 2.17401 -10.5149 -14.2819
212 2.86958 -11.2181 -14.1694
1006 2.16871 -11.1793 -13.4694
211 3.66395 -11.9132 -14.1605
1013 4.52361 -11.9332 -13.5063
216 4.50934 -11.1618 -14.1304
291 3.69046 -10.5441 -14.1516
213 4.48003 -11.9176 -14.8463
293 4.51403 -10.4874 -14.8164
220 5.95304 -11.226 -14.1242
1014 5.23165 -11.2303 -13.4442
295 5.22408 -10.4774 -14.1546
224 7.4663 -11.2551 -14.1276
299 6.72691 -10.5071 -14.1838
218 6.63537 -11.2131 -14.9238
228 8.96126 -11.2061 -14.23
1022 8.28066 -11.1797 -13.4477
303 8.1087 -10.5411 -14.1652
222 8.20348 -11.2248 -14.929
1029 10.4538 -11.9059 -13.4665
232 10.4345 -11.2027 -14.1909
1026 9.68057 -11.2464 -13.4908
236 11.9064 -11.1739 -14.2262
1033 11.9774 -11.9122 -13.4988
1030 11.1971 -11.1991 -13.4859
313 11.9348 -10.471 -14.8842
230 11.2366 -11.1792 -14.9242
240 13.4389 -11.224 -14.263
1037 13.3846 -11.9221 -13.5157
1117 13.4741 -10.4622 -13.5125
1034 12.6537 -11.1528 -13.4565
234 12.6965 -11.2794 -14.9272
961 14.8455 -11.9217 -13.5606
239 14.1676 -11.8734 -14.2268
238 14.159 -11.1235 -14.9367
1038 14.1499 -11.1425 -13.5405
243 -14.2595 -10.4393 -14.2626
244 -14.9031 -9.68193 -14.1834
248 -13.4766 -9.79152 -14.191
327 -12.7589 -8.99417 -14.1288
1046 -12.7151 -9.73137 -13.4841
251 -11.3193 -10.4004 -14.2548
252 -12.0889 -9.68375 -14.2817
250 -11.2555 -9.70131 -14.8485
1050 -11.19 -9.62059 -13.4813
1049 -11.9859 -10.4305 -13.4606
255 -9.7528 -10.4379 -14.2395
256 -10.4482 -9.63527 -14.2158
259 -8.17291 -10.4253 -14.2151
260 -9.02387 -9.82722 -14.1219
339 -8.27777 -9.12542 -14.2116
1137 -8.95727 -9.03724 -13.5473
264 -7.35797 -9.77676 -14.2253
343 -6.72572 -8.99554 -14.2525
1062 -6.6866 -9.78314 -13.494
341 -7.46429 -9.00021 -14.9339
267 -5.13581 -10.4096 -14.2244
268 -5.98507 -9.74352 -14.2528
1066 -5.2447 -9.64391 -13.4773
347 -5.22204 -8.98889 -14.2212
1145 -5.99165 -8.9728 -13.5338
266 -5.08315 -9.71452 -14.9141
271 -3.78365 -10.4482 -14.1636
270 -3.75044 -9.68258 -14.9119
272 -4.40753 -9.67098 -14.1654
1069 -4.53104 -10.4232 -13.4549
1070 -3.71353 -9.61162 -13.4815
274 -2.25756 -9.67938 -14.8746
1073 -3.00138 -10.3887 -13.4823
276 -3.00517 -9.67567 -14.1594
353 -3.00616 -8.96591 -14.9153
280 -1.46047 -9.69741 -14.1606
279 -0.73306 -10.3805 -14.2319
277 -1.6137 -10.3797 -14.9288
1077 -1.41038 -10.4303 -13.4731
283 0.697141 -10.4413 -14.1725
284 -0.0622615 -9.64425 -14.1899
1081 -0.0531166 -10.3746 -13.4666
288 1.44944 -9.73326 -14.2167
1085 1.54949 -10.4543 -13.4782
1165 1.5383 -9.02452 -13.5082
292 2.96931 -9.80114 -14.1659
367 2.14291 -9.07251 -14.2551
286 2.21739 -9.75499 -14.927
296 4.39419 -9.67255 -14.2274
371 3.61453 -9.0015 -14.2124
373 4.35552 -8.97564 -14.9154
300 6.00102 -9.80567 -14.051
375 5.14033 -8.97795 -14.1431
297 5.94267 -10.4481 -14.8692
294 5.21015 -9.67038 -14.8624
298 6.74122 -9.7889 -14.8565
304 7.45391 -9.73229 -14.1152
379 6.7201 -9.03119 -14.1244
381 7.40732 -9.00609 -14.9004
308 8.95076 -9.76586 -14.2255
383 8.16144 -9.03324 -14.16
302 8.08157 -9.785 -14.8719
1105 8.99276 -10.4397 -13.4883
1102 8.23636 -9.82656 -13.4734
1185 8.93994 -9.04603 -13.4742
305 8.99754 -10.432 -14.9371
306 9.73157 -9.72352 -14.9233
307 9.75561 -10.4329 -14.153
312 10.5147 -9.67388 -14.1888
1106 9.70192 -9.66006 -13.5272
387 9.60568 -8.99163 -14.2881
311 11.2294 -10.4051 -14.1842
316 11.9694 -9.75953 -14.1602
310 11.217 -9.63194 -14.9281
315 12.7056 -10.452 -14.2725
320 13.4614 -9.72274 -14.232
395 12.7204 -8.98773 -14.21
1197 13.4664 -9.00213 -13.527
314 12.7021 -9.68532 -14.9021
397 13.5015 -8.97703 -14.9047
1041 14.9105 -10.4285 -13.4446
319 14.2717 -10.3927 -14.2108
1118 14.2455 -9.66143 -13.4638
399 14.2135 -9.01177 -14.2437
323 -14.1683 -8.96209 -14.2209
324 -14.8849 -8.2923 -14.1882
403 -14.1413 -7.50512 -14.1607
401 -14.8007 -7.54886 -14.841
322 -14.1873 -8.2603 -14.9144
328 -13.4523 -8.20947 -14.1529
407 -12.6764 -7.51223 -14.2011
1126 -12.6519 -8.158 -13.466
326 -12.7282 -8.21624 -14.8658
325 -13.4231 -8.91404 -14.8728
405 -13.4966 -7.52214 -14.9169
1129 -11.9332 -8.89846 -13.4695
331 -11.2711 -8.93297 -14.2072
332 -11.9257 -8.21286 -14.1492
409 -11.9668 -7.48262 -14.8635
1130 -11.122 -8.25984 -13.4952
1209 -11.9681 -7.48228 -13.4917
329 -11.9868 -8.89562 -14.8721
330 -11.2189 -8.15753 -14.8739
335 -9.70847 -8.91186 -14.2539
336 -10.4515 -8.22915 -14.2436
415 -9.61381 -7.50558 -14.1828
1134 -9.67414 -8.2387 -13.4482
340 -8.93352 -8.28701 -14.1622
419 -8.21661 -7.52261 -14.1607
417 -8.80893 -7.48942 -14.9159
338 -8.20991 -8.32348 -14.9124
344 -7.5732 -8.2764 -14.1487
423 -6.70301 -7.48897 -14.1971
342 -6.77639 -8.2546 -14.9368
1142 -6.7259 -8.19796 -13.4676
348 -5.93826 -8.25933 -14.1695
427 -5.15592 -7.54357 -14.2099
346 -5.25522 -8.25826 -14.93
1225 -5.96764 -7.51132 -13.4669
425 -6.00412 -7.60193 -14.9336
351 -3.70745 -8.91882 -14.1466
352 -4.51749 -8.29947 -14.1481
1229 -4.50346 -7.5816 -13.4644
350 -3.67761 -8.26171 -14.9129
429 -4.42621 -7.49179 -14.9288
355 -2.23697 -8.92518 -14.1035
356 -3.02169 -8.14704 -14.1821
1233 -3.05762 -7.5037 -13.4782
433 -2.93882 -7.47093 -14.933
437 -1.55608 -7.48564 -14.8823
359 -0.765028 -8.95147 -14.1621
360 -1.51438 -8.18085 -14.1606
357 -1.53563 -8.89978 -14.8843
364 -0.0285286 -8.20453 -14.1629
1241 -0.0547272 -7.55739 -13.4521
361 -0.0906775 -8.94952 -14.9085
363 0.718148 -8.95108 -14.2528
368 1.51245 -8.31588 -14.2391
1245 1.48105 -7.49214 -13.4821
443 0.722542 -7.47944 -14.2408
1162 0.76573 -8.21689 -13.4833
445 1.41344 -7.51928 -14.9026
372 2.94954 -8.26738 -14.1801
447 2.25633 -7.53152 -14.2791
370 3.65239 -8.25706 -14.8787
376 4.40972 -8.28035 -14.1388
451 3.68985 -7.5086 -14.1017
453 4.47843 -7.55019 -14.9062
380 5.98932 -8.23769 -14.1858
1177 5.93996 -8.92074 -13.4619
455 5.23505 -7.54271 -14.1672
1257 5.92895 -7.53696 -13.4497
457 5.91769 -7.50795 -14.9234
374 5.06441 -8.2745 -14.9295
384 7.40587 -8.30284 -14.2554
1181 7.48431 -8.94611 -13.455
459 6.74133 -7.50771 -14.0869
388 8.91053 -8.27526 -14.2224
463 8.16816 -7.59324 -14.1769
1182 8.1873 -8.26023 -13.454
1265 8.96757 -7.54391 -13.4477
465 8.91643 -7.55706 -14.9343
392 10.5156 -8.18348 -14.239
467 9.70346 -7.54357 -14.2463
1186 9.67542 -8.29589 -13.4534
1189 10.4727 -8.92129 -13.4636
473 11.9132 -7.48797 -14.9313
1193 11.9748 -8.93672 -13.4708
391 11.2456 -8.93321 -14.1643
396 11.959 -8.17002 -14.1501
1190 11.192 -8.12257 -13.462
393 11.9541 -8.95508 -14.8509
394 12.6742 -8.19993 -14.9146
400 13.4222 -8.21454 -14.1854
1277 13.4905 -7.56187 -13.4621
398 14.2166 -8.23938 -14.8686
479 14.2464 -7.51547 -14.0463
1198 14.177 -8.3214 -13.4689
404 -14.9138 -6.7615 -14.0663
483 -14.1309 -5.99919 -14.1342
406 -12.671 -6.79095 -14.9111
408 -13.4283 -6.72197 -14.2942
1206 -12.779 -6.7351 -13.4563
487 -12.764 -5.98023 -14.1541
489 -11.9743 -5.99458 -14.8393
411 -11.1747 -7.40385 -14.1072
412 -12.0265 -6.74794 -14.18
410 -11.2519 -6.67425 -14.8164
416 -10.4052 -6.74401 -14.2171
413 -10.4694 -7.46528 -14.9205
414 -9.6211 -6.76959 -14.8681
1213 -10.3827 -7.45426 -13.4536
493 -10.403 -6.0125 -14.8988
420 -8.91506 -6.76426 -14.2151
499 -8.21255 -6.03155 -14.2077
1217 -8.93425 -7.46165 -13.4558
424 -7.41344 -6.74714 -14.1641
503 -6.67053 -5.9913 -14.1804
421 -7.46736 -7.46803 -14.8676
422 -6.77329 -6.65777 -14.9367
426 -5.19015 -6.76649 -14.9253
428 -5.95834 -6.80741 -14.2851
1226 -5.21912 -6.70404 -13.5386
431 -3.84879 -7.45891 -14.1645
432 -4.44854 -6.6942 -14.2024
511 -3.71414 -5.97994 -14.1597
1230 -3.83035 -6.7346 -13.4541
434 -2.24248 -6.74351 -14.8984
435 -2.27847 -7.44677 -14.1617
436 -3.01595 -6.75446 -14.115
515 -2.32627 -6.03684 -14.1869
513 -3.01489 -6.06382 -14.8777
1234 -2.23793 -6.72113 -13.4524
439 -0.804254 -7.45927 -14.1808
440 -1.53258 -6.65344 -14.2164
519 -0.754236 -5.98771 -14.1448
517 -1.49347 -5.99283 -14.8882
444 0.0189264 -6.71056 -14.1208
438 -0.698968 -6.68615 -14.9021
1321 0.0690642 -5.98704 -13.4477
448 1.50669 -6.69092 -14.2601
1242 0.782954 -6.77955 -13.465
523 0.777844 -6.00492 -14.2445
442 0.726468 -6.7694 -14.886
452 3.02608 -6.83727 -14.2165
1329 2.94285 -6.03515 -13.5221
527 2.24069 -5.9834 -14.3352
1246 2.20661 -6.71256 -13.6036
450 3.77846 -6.71212 -14.9141
456 4.48317 -6.78401 -14.096
531 3.71715 -6.03456 -14.2248
533 4.43895 -6.00017 -14.8361
460 6.0168 -6.83495 -14.1669
535 5.22357 -6.02498 -14.188
537 5.95497 -6.04437 -14.9237
1337 6.01173 -6.07686 -13.5286
454 5.14694 -6.7466 -14.8353
464 7.4903 -6.81592 -14.3228
539 6.86033 -6.0388 -14.2296
1258 6.84023 -6.7007 -13.4536
545 8.93639 -6.02606 -14.92
468 8.92292 -6.79761 -14.1746
1262 8.2607 -6.68779 -13.4601
472 10.4473 -6.78403 -14.1709
547 9.73041 -6.11165 -14.216
549 10.4389 -6.03993 -14.8625
471 11.1955 -7.44103 -14.1841
476 11.9773 -6.7453 -14.1487
1270 11.1472 -6.74008 -13.5166
1353 11.9767 -5.98858 -13.4724
475 12.6604 -7.45505 -14.1498
480 13.4531 -6.80889 -14.1682
1274 12.7622 -6.75799 -13.4738
555 12.7385 -6.04695 -14.2393
557 13.5001 -6.0211 -14.8868
478 14.2632 -6.73796 -14.8655
559 14.1441 -6.03033 -14.089
481 -14.9257 -5.95869 -14.9022
484 -14.9291 -5.23037 -14.1014
488 -13.4104 -5.27228 -14.2338
486 -12.6772 -5.28588 -14.8846
491 -11.2546 -5.94353 -14.1773
492 -11.9919 -5.26336 -14.123
571 -11.1684 -4.48947 -14.0996
569 -11.994 -4.50066 -14.8449
495 -9.74666 -5.92816 -14.1871
496 -10.5351 -5.19012 -14.169
494 -9.64267 -5.2252 -14.8512
497 -8.92224 -5.95214 -14.9171
500 -8.9276 -5.26255 -14.1825
579 -8.14532 -4.48163 -14.2013
1377 -8.91529 -4.56165 -13.5205
1301 -7.4115 -5.92789 -13.5138
504 -7.47284 -5.21746 -14.1844
501 -7.45371 -5.91961 -14.885
507 -5.18815 -5.89886 -14.1123
508 -5.99098 -5.14469 -14.3402
1306 -5.2634 -5.23795 -13.4527
1305 -5.92646 -5.97517 -13.4488
510 -3.75412 -5.24167 -14.8702
509 -4.45718 -5.91147 -14.8812
512 -4.47054 -5.20092 -14.1661
591 -3.66696 -4.53146 -14.1292
516 -2.91904 -5.23248 -14.2484
1393 -2.9703 -4.56874 -13.4563
520 -1.6411 -5.306 -14.1437
599 -0.969393 -4.56232 -14.1683
1318 -0.770074 -5.22742 -13.4667
518 -0.65671 -5.24472 -14.9096
524 0.040989 -5.17876 -14.1484
521 0.0327749 -5.96375 -14.8522
528 1.53455 -5.13656 -14.2186
522 0.714038 -5.2533 -14.8708
1325 1.49955 -5.93128 -13.4768
605 1.52145 -4.51759 -14.9369
532 2.95068 -5.26456 -14.1806
1326 2.19563 -5.25853 -13.4974
609 3.00519 -4.49417 -14.8788
1333 4.46588 -5.96733 -13.4861
536 4.40385 -5.22854 -14.2172
611 3.72565 -4.51444 -14.1856
1413 4.48521 -4.6373 -13.495
540 5.89399 -5.29686 -14.1791
615 5.13551 -4.50059 -14.2582
1417 5.96403 -4.52526 -13.5319
544 7.43391 -5.23527 -14.2419
1341 7.55623 -5.88728 -13.46
619 6.60158 -4.50912 -14.2796
1338 6.78248 -5.21677 -13.5102
625 8.96629 -4.57983 -14.867
543 8.21465 -5.91638 -14.2451
548 8.96523 -5.25039 -14.1767
542 8.22566 -5.23467 -14.9263
552 10.4201 -5.3195 -14.1678
627 9.66251 -4.55611 -14.1698
1429 10.4272 -4.55552 -13.4568
629 10.4381 -4.51645 -14.8345
546 9.68977 -5.29386 -14.9223
551 11.2492 -5.96493 -14.2128
556 11.9616 -5.27313 -14.1918
631 11.2796 -4.54959 -14.1953
1350 11.2295 -5.24418 -13.4546
550 11.1349 -5.29203 -14.8699
635 12.7574 -4.63633 -14.2175
560 13.4722 -5.35468 -14.1529
1354 12.7299 -5.28295 -13.4577
558 14.2169 -5.19811 -14.9061
1358 14.1826 -5.26656 -13.4581
562 -14.2604 -3.63602 -14.9272
563 -14.1891 -4.45938 -14.1083
1362 -14.1249 -3.71205 -13.4659
564 -14.899 -3.78816 -14.1177
643 -14.1482 -3.00451 -14.2522
561 -14.8969 -4.44552 -14.9301
645 -13.4836 -3.11464 -14.9316
567 -12.6508 -4.43961 -14.1294
568 -13.4524 -3.85865 -14.2537
647 -12.7877 -2.99563 -14.2364
1366 -12.68 -3.72204 -13.504
572 -11.9918 -3.72062 -14.2245
1370 -11.2574 -3.66754 -13.4863
570 -11.2533 -3.73839 -14.9281
575 -9.69533 -4.41192 -14.1919
576 -10.4622 -3.6778 -14.1338
1374 -9.68717 -3.68174 -13.4722
655 -9.74403 -2.99372 -14.097
1373 -10.3518 -4.44211 -13.4534
573 -10.4694 -4.44476 -14.9242
580 -8.9752 -3.78448 -14.2022
659 -8.29779 -3.02512 -14.1875
1378 -8.23351 -3.71143 -13.4986
577 -8.90921 -4.45909 -14.9318
581 -7.41403 -4.47309 -14.9203
583 -6.81933 -4.4349 -14.1812
584 -7.52618 -3.70417 -14.1757
1382 -6.74507 -3.70227 -13.4915
587 -5.21935 -4.40175 -14.1866
588 -5.97537 -3.71478 -14.1325
667 -5.19997 -2.99368 -14.1566
665 -5.99357 -2.99009 -14.8172
589 -4.46646 -4.41889 -14.9121
669 -4.51331 -2.99929 -14.8331
592 -4.43636 -3.70779 -14.1404
1390 -3.72377 -3.77109 -13.4805
590 -3.72616 -3.68333 -14.9251
595 -2.23964 -4.44265 -14.1786
596 -2.93525 -3.68975 -14.1161
673 -2.85909 -3.02442 -14.8585
675 -2.20313 -2.98929 -14.1155
600 -1.55944 -3.73079 -14.1659
679 -0.854307 -3.01404 -14.1654
598 -0.765058 -3.73907 -14.8786
603 0.696648 -4.38775 -14.1783
604 -0.147515 -3.71761 -14.1481
601 -0.0685371 -4.47678 -14.781
1481 -0.0974729 -3.04131 -13.4568
608 1.4553 -3.82055 -14.1843
683 0.786718 -3.0244 -14.1973
1405 1.45077 -4.42161 -13.4541
1485 1.42179 -3.03751 -13.4853
602 0.752016 -3.70188 -14.9148
606 2.23622 -3.71282 -14.8655
607 2.34676 -4.42023 -14.1055
612 3.00809 -3.69237 -14.1744
687 2.27926 -3.00506 -14.1141
616 4.512 -3.71323 -14.2526
691 3.78115 -3.01015 -14.2146
1410 3.78321 -3.81283 -13.5321
1493 4.48566 -3.06595 -13.4797
620 5.89961 -3.74269 -14.1797
1497 5.96326 -3.02314 -13.525
1421 7.38465 -4.41286 -13.5054
624 7.51219 -3.73289 -14.2714
699 6.73153 -3.01714 -14.3329
1418 6.77872 -3.6722 -13.4982
618 6.74227 -3.81547 -14.9361
623 8.23818 -4.4603 -14.1657
622 8.29669 -3.87125 -14.9141
628 8.95912 -3.72417 -14.181
1425 8.96087 -4.41261 -13.4907
626 9.71552 -3.73366 -14.9113
632 10.4868 -3.66457 -14.2665
707 9.68478 -3.04372 -14.2487
1426 9.65766 -3.63794 -13.5112
636 11.9252 -3.74316 -14.0973
1430 11.122 -3.75718 -13.4501
711 11.2737 -2.98997 -14.1928
630 11.2801 -3.80547 -14.897
634 12.7195 -3.89528 -14.9337
640 13.3977 -3.7958 -14.2014
715 12.7136 -3.03986 -14.1645
1517 13.4263 -2.99345 -13.5005
639 14.169 -4.47518 -14.1509
642 -14.1347 -2.20164 -14.9081
1442 -14.2004 -2.18745 -13.5264
1445 -13.4365 -2.98348 -13.5225
648 -13.4765 -2.18803 -14.1954
727 -12.674 -1.5583 -14.2715
1446 -12.6647 -2.30414 -13.4838
1525 -13.3503 -1.52558 -13.4594
651 -11.2124 -2.98057 -14.2812
652 -11.9875 -2.34134 -14.2503
1450 -11.1962 -2.20233 -13.4894
1449 -11.9866 -2.98033 -13.4583
650 -11.1804 -2.22952 -14.9147
729 -11.8767 -1.57561 -14.8935
733 -10.475 -1.54391 -14.9059
1453 -10.5222 -2.91989 -13.4507
656 -10.4498 -2.22813 -14.1813
1454 -9.67212 -2.24728 -13.4529
735 -9.65534 -1.56553 -14.2281
654 -9.73746 -2.32858 -14.9168
660 -8.88572 -2.22751 -14.1879
739 -8.19783 -1.53336 -14.2361
1458 -8.11946 -2.22841 -13.4459
1537 -8.87652 -1.61192 -13.4611
1457 -8.90912 -2.97034 -13.45
663 -6.72914 -2.90987 -14.2066
664 -7.51672 -2.18477 -14.2555
743 -6.79701 -1.55525 -14.1763
1461 -7.47203 -2.98531 -13.4502
662 -6.71623 -2.20163 -14.9363
745 -5.99665 -1.54707 -14.8666
666 -5.28084 -2.23532 -14.8722
668 -6.00635 -2.23155 -14.1539
1466 -5.28656 -2.15578 -13.4691
747 -5.24115 -1.52031 -14.1632
1465 -5.97934 -2.94586 -13.4954
670 -3.73133 -2.2055 -14.9281
671 -3.7729 -2.9652 -14.1411
672 -4.50681 -2.2244 -14.2396
676 -2.91117 -2.29496 -14.1946
755 -2.23517 -1.52826 -14.1108
674 -2.15539 -2.2644 -14.8471
680 -1.43917 -2.20738 -14.1141
678 -0.664606 -2.34887 -14.8567
761 0.101154 -1.5512 -14.8848
684 0.031303 -2.32856 -14.1934
759 -0.710014 -1.49915 -14.121
681 0.0727794 -2.98697 -14.907
765 1.51419 -1.52198 -14.9258
688 1.54892 -2.23571 -14.2134
682 0.855315 -2.27627 -14.9237
769 3.00793 -1.59302 -14.9253
692 3.00637 -2.32867 -14.1858
767 2.244 -1.51984 -14.2388
1569 2.93383 -1.61262 -13.5175
696 4.41442 -2.18439 -14.1968
771 3.67682 -1.53398 -14.1419
773 4.45798 -1.52312 -14.9097
695 5.14506 -2.89531 -14.2868
700 5.96261 -2.23196 -14.1958
1494 5.17247 -2.33115 -13.4883
694 5.19459 -2.2061 -14.9318
1501 7.4815 -2.9423 -13.459
704 7.42431 -2.21004 -14.229
779 6.63814 -1.49395 -14.2392
1498 6.69676 -2.30871 -13.4936
1581 7.33115 -1.5182 -13.5211
703 8.24643 -2.97461 -14.2328
708 9.00391 -2.29626 -14.2027
783 8.22585 -1.55587 -14.1697
712 10.4274 -2.23724 -14.2173
787 9.74185 -1.58473 -14.1974
1589 10.3915 -1.54229 -13.4598
1509 10.4651 -2.92164 -13.481
709 10.4922 -2.98452 -14.9291
716 11.9391 -2.30227 -14.2465
1510 11.1834 -2.31582 -13.4679
720 13.422 -2.22154 -14.262
795 12.6099 -1.55594 -14.1802
1597 13.3472 -1.5144 -13.4832
1514 12.6971 -2.3475 -13.4495
641 14.9195 -2.92862 -14.8786
719 14.157 -2.97666 -14.1945
644 14.9294 -2.23456 -14.1544
799 14.0711 -1.51158 -14.2117
16003 -14.092 -0.0153192 -14.1875
723 -14.147 -1.45563 -14.1502
724 -14.8081 -0.745768 -14.2448
721 -14.9209 -1.46132 -14.9006
722 -14.1079 -0.745153 -14.924
16007 -12.6929 -0.0529152 -14.2017
728 -13.3657 -0.801918 -14.1999
731 -11.2117 -1.43803 -14.1458
732 -11.9672 -0.864016 -14.2653
1530 -11.2099 -0.758234 -13.4447
16009 -11.9777 -0.0522866 -14.8795
730 -11.1385 -0.668005 -14.915
16015 -9.65447 -0.0115281 -14.1821
736 -10.4158 -0.742198 -14.207
734 -9.75387 -0.826401 -14.8955
737 -8.92027 -1.42 -14.9237
740 -9.0371 -0.787136 -14.0328
1538 -8.1908 -0.819074 -13.5092
738 -8.29301 -0.632942 -14.8501
742 -6.74524 -0.712331 -14.9061
744 -7.45729 -0.791605 -14.0773
1542 -6.66859 -0.710428 -13.4984
16021 -7.48358 -0.0131337 -14.8688
748 -5.97747 -0.760585 -14.2237
1546 -5.16328 -0.750661 -13.4492
746 -5.23182 -0.75775 -14.8913
16825 -5.91772 -0.0335851 -13.4575
750 -3.63967 -0.76945 -14.8661
751 -3.65893 -1.47606 -14.1226
752 -4.41107 -0.753514 -14.1839
1549 -4.43146 -1.46657 -13.4506
16829 -4.46411 -0.00566794 -13.4448
756 -2.90666 -0.736046 -14.1042
754 -2.22824 -0.752911 -14.8925
753 -2.99243 -1.44971 -14.8801
16033 -2.9562 -0.0515185 -14.8916
757 -1.46396 -1.49037 -14.8456
760 -1.51246 -0.829904 -14.1261
16037 -1.42942 -0.09359 -14.89
764 -0.0297016 -0.706844 -14.1199
758 -0.673404 -0.852734 -14.8825
16041 0.0724756 -0.0150653 -14.852
16043 0.792209 -0.0169986 -14.1576
763 0.71142 -1.4072 -14.1897
768 1.47152 -0.735007 -14.1248
762 0.801571 -0.704358 -14.8408
16049 2.93385 -0.0451287 -14.8898
772 3.09375 -0.778228 -14.1774
1566 2.21262 -0.829303 -13.4977
766 2.20949 -0.766195 -14.8746
770 3.74954 -0.754002 -14.9115
16053 4.47276 -0.105933 -14.9181
776 4.51795 -0.729748 -14.204
1570 3.77355 -0.670985 -13.4667
1573 4.5091 -1.46619 -13.4956
16853 4.54493 -0.00154107 -13.4569
775 5.34199 -1.47793 -14.1638
780 5.9192 -0.657318 -14.2824
1574 5.26209 -0.77939 -13.4944
16055 5.16517 -0.031574 -14.2792
774 5.21861 -0.910626 -14.8955
784 7.3917 -0.773505 -14.1806
1578 6.64784 -0.650295 -13.54
16861 7.47379 -0.0912579 -13.5016
788 8.91588 -0.784523 -14.1772
1582 8.17056 -0.839188 -13.4678
16063 8.21975 -0.051783 -14.2182
16065 8.88243 -0.108717 -14.9255
782 8.26084 -0.794501 -14.9296
792 10.438 -0.779848 -14.1353
1586 9.68963 -0.751206 -13.4449
16067 9.65216 -0.112325 -14.1527
16069 10.3646 -0.0397302 -14.8815
16071 11.232 -0.00170494 -14.1926
793 11.9236 -1.46451 -14.9339
791 11.1763 -1.47039 -14.2139
796 11.8827 -0.803638 -14.2067
800 13.3848 -0.786056 -14.199
1594 12.6632 -0.830929 -13.4721
16075 12.5944 -0.0265352 -14.2385
1521 14.8723 -1.45009 -13.588
798 14.1928 -0.784805 -14.8656
16079 14.2217 -0.018519 -14.1883
883 -14.1783 -13.4666 -12.7103
808 -13.5215 -14.2072 -12.7594
804 -14.9159 -14.1758 -12.7393
1681 -14.9078 -13.4648 -11.9692
803 -14.2906 -14.934 -12.7605
887 -12.7638 -13.4861 -12.7074
1685 -13.4796 -13.4578 -11.9812
1606 -12.7468 -14.1579 -11.9887
807 -12.8324 -14.8985 -12.7293
889 -12.0193 -13.5218 -13.396
812 -11.9763 -14.2177 -12.7081
891 -11.2254 -13.4733 -12.74
1689 -12.0087 -13.4464 -11.9808
1610 -11.1567 -14.2186 -11.995
811 -11.2244 -14.9154 -12.7622
816 -10.4221 -14.2482 -12.7034
895 -9.7233 -13.4476 -12.7026
1693 -10.4425 -13.4804 -12.0453
815 -9.6714 -14.9146 -12.712
820 -8.97665 -14.1337 -12.7065
819 -8.22747 -14.8716 -12.7075
822 -6.71162 -14.1951 -13.4342
824 -7.53271 -14.1376 -12.7323
821 -7.44435 -14.8491 -13.3952
828 -6.04612 -14.1804 -12.663
905 -5.94574 -13.5018 -13.4418
907 -5.24995 -13.4967 -12.6916
1705 -5.92525 -13.5211 -11.9789
832 -4.47765 -14.1784 -12.6974
831 -3.68604 -14.8791 -12.68
833 -3.02335 -14.9188 -13.4303
836 -2.94255 -14.2253 -12.6908
838 -0.773713 -14.1774 -13.4214
840 -1.50244 -14.2472 -12.753
1717 -1.56834 -13.4766 -11.9572
1638 -0.751787 -14.1898 -11.9677
844 -0.00149926 -14.1366 -12.6377
841 -0.0403291 -14.8554 -13.3264
1641 0.0324494 -14.9065 -11.9966
842 0.737539 -14.0933 -13.3588
848 1.55312 -14.1138 -12.6161
843 0.783059 -14.8905 -12.6441
845 1.41922 -14.8917 -13.4403
846 2.2454 -14.198 -13.4151
852 2.95523 -14.2175 -12.7144
1649 2.97329 -14.8578 -11.9701
847 2.20711 -14.9034 -12.6741
850 3.76187 -14.1278 -13.4424
856 4.46051 -14.0837 -12.7279
1650 3.83895 -14.2006 -12.0226
851 3.66683 -14.9307 -12.7568
854 5.25729 -14.1379 -13.4203
855 5.30458 -14.9177 -12.7606
860 5.96514 -14.2034 -12.6692
1654 5.16467 -14.2472 -12.0112
858 6.82272 -14.1383 -13.4415
864 7.45956 -14.2103 -12.6241
939 6.70887 -13.4888 -12.6293
1658 6.77148 -14.2266 -11.966
859 6.65861 -14.9212 -12.6968
868 8.90365 -14.2402 -12.7226
1745 9.06763 -13.4855 -12.0056
943 8.27031 -13.5422 -12.63
863 8.144 -14.9253 -12.6819
949 10.4778 -13.5217 -13.4042
872 10.5386 -14.1753 -12.6336
947 9.76728 -13.5896 -12.73
1749 10.5291 -13.4448 -11.9585
876 11.9856 -14.2369 -12.7201
871 11.1831 -14.9287 -12.6407
880 13.4608 -14.2725 -12.7104
1674 12.7049 -14.2027 -11.951
957 13.3781 -13.4658 -13.3481
955 12.6834 -13.4453 -12.6394
875 12.6492 -14.9342 -12.7172
959 14.1562 -13.4836 -12.7041
1678 14.19 -14.1496 -12.0045
888 -13.5746 -12.6611 -12.7972
963 -14.2839 -11.9541 -12.6635
1686 -12.7727 -12.6931 -12.0332
967 -12.723 -11.9549 -12.6968
1765 -13.5097 -11.9832 -11.9729
892 -11.9582 -12.642 -12.6945
896 -10.5278 -12.7017 -12.7193
975 -9.68928 -11.955 -12.775
1694 -9.733 -12.7012 -12.0663
899 -8.27638 -13.4284 -12.7785
900 -8.98967 -12.7158 -12.8351
979 -8.19846 -11.987 -12.7883
1697 -8.99766 -13.4337 -11.9941
1777 -9.01014 -12.0184 -12.0262
903 -6.70464 -13.3797 -12.6709
902 -6.70468 -12.6964 -13.4379
904 -7.53144 -12.6899 -12.8145
983 -6.73116 -12.0457 -12.734
1702 -6.75238 -12.6871 -11.952
1701 -7.55588 -13.3666 -11.9985
1781 -7.53491 -11.9604 -11.9959
985 -5.97061 -11.9936 -13.3878
908 -5.95175 -12.7553 -12.5985
1706 -5.24832 -12.7616 -11.9563
987 -5.25327 -11.9636 -12.7845
1785 -5.9567 -11.9965 -11.9794
911 -3.71902 -13.3411 -12.7487
912 -4.50972 -12.7597 -12.7003
1789 -4.46267 -12.031 -11.9843
991 -3.82342 -11.9883 -12.7541
1710 -3.70926 -12.6709 -11.9744
915 -2.25969 -13.4216 -12.6979
916 -2.97311 -12.6546 -12.7027
997 -1.54341 -11.9525 -13.3406
917 -1.48202 -13.4326 -13.3882
919 -0.778474 -13.3953 -12.657
920 -1.49406 -12.7167 -12.6796
1721 0.0450339 -13.3799 -11.9771
924 0.014283 -12.7166 -12.6688
923 0.821265 -13.386 -12.6588
925 1.46718 -13.4038 -13.3549
922 0.731695 -12.6502 -13.3722
1005 1.5135 -11.9766 -13.4224
928 1.49683 -12.593 -12.6726
929 2.96833 -13.4349 -13.4252
927 2.34964 -13.4039 -12.6412
932 3.05254 -12.5695 -12.6315
1007 2.23262 -11.9702 -12.6549
931 3.65064 -13.3812 -12.6041
936 4.57102 -12.7573 -12.6936
1011 3.77822 -11.9816 -12.6649
1733 4.48434 -13.4184 -11.9931
935 5.33403 -13.3951 -12.7311
934 5.30143 -12.6815 -13.4438
940 6.02848 -12.7155 -12.7183
1015 5.22726 -11.9634 -12.7173
1017 6.04146 -11.9903 -13.3893
938 6.77416 -12.7332 -13.3706
944 7.54492 -12.7351 -12.7041
1821 7.45792 -12.0184 -11.9643
942 8.30314 -12.7741 -13.3925
945 9.05792 -13.4074 -13.3713
948 8.99218 -12.7074 -12.6703
1023 8.26878 -11.9714 -12.707
1742 8.28443 -12.7782 -11.9698
952 10.4575 -12.7526 -12.7398
1027 9.76254 -11.9726 -12.6794
951 11.2426 -13.4329 -12.743
1753 11.9327 -13.4283 -12.0167