ITEM: TIMESTEP
200000
ITEM: NUMBER OF ATOMS
32000
ITEM: BOX BOUNDS pp pp pp
-1.4938015821857215e+01 1.4938015821857215e+01
-1.4938015821857215e+01 1.4938015821857215e+01
-1.4938015821857215e+01 1.4938015821857215e+01
ITEM: ATOMS id x y z
83 -14.1716 -13.4922 -14.1901
8 -13.4949 -14.182 -14.2546
4 -14.916 -14.2496 -14.2776
642 -14.1562 -2.13175 -14.9039
87 -12.5979 -13.458 -14.2074
641 -14.9303 -2.89989 -14.904
12 -11.9229 -14.1631 -14.2521
810 -11.2282 -14.1177 -13.5428
857 5.92599 -14.8874 -13.4977
7999 14.2395 -1.48799 -0.798391
865 8.90379 -14.9158 -13.4351
16 -10.3265 -14.1706 -14.1717
2461 7.52108 -14.9405 -10.454
19201 -14.8298 -0.0163733 -8.89873
610 3.73816 -3.70805 -14.9264
20 -8.94537 -14.2304 -14.2313
301 7.54397 -10.3499 -14.8624
525 1.48519 -5.99624 -14.9109
773 4.43408 -1.50916 -14.8773
24 -7.38274 -14.2084 -14.2202
901 -7.49458 -13.4522 -13.5121
481 14.9346 -5.91233 -14.8361
658 -8.14705 -2.17802 -14.9282
634 12.7223 -3.77371 -14.9134
28 -5.97592 -14.2385 -14.212
107 -5.27691 -13.4662 -14.184
32 -4.51502 -14.232 -14.2468
111 -3.76258 -13.4548 -14.2232
909 -4.42206 -13.4544 -13.4783
830 -3.71426 -14.2475 -13.4848
1619 -8.23669 -14.9266 -11.2228
36 -3.00322 -14.2881 -14.2143
16825 -5.94714 -0.0227814 -13.5482
40 -1.38196 -14.2687 -14.1412
119 -0.808431 -13.4914 -14.3382
861 7.4373 -14.8284 -13.5017
386 9.7291 -8.25522 -14.907
44 -0.0844159 -14.2248 -14.2485
4805 -13.423 -14.9031 -6.0497
3213 -10.4758 -14.941 -9.02568
48 1.4286 -14.1699 -14.1824
837 -1.49757 -14.9002 -13.3562
23219 -8.19724 -0.031187 -0.714695
401 14.9282 -7.42473 -14.8793
410 -11.1995 -6.67674 -14.9299
52 2.92769 -14.2413 -14.2144
23239 -0.787432 -0.0602403 -0.720548
6433 -2.93311 -14.8873 -3.02914
16839 -0.702847 -0.0273922 -12.637
23275 12.71 -0.0926688 -0.660158
56 4.46323 -14.1898 -14.2804
16009 -11.8992 -0.052061 -14.9288
850 3.71577 -14.145 -13.5162
60 5.91104 -14.0923 -14.2117
135 5.22086 -13.4474 -14.2498
478 14.2774 -6.64985 -14.8878
64 7.42973 -14.1716 -14.2353
169 -12.0133 -11.8627 -14.8738
7223 -6.70539 -14.9232 -0.757121
7998 14.1523 -0.73422 -1.52553
68 8.95955 -14.1848 -14.0443
143 8.2339 -13.3947 -14.1986
945 8.91254 -13.3875 -13.4707
72 10.4056 -14.1676 -14.2049
866 9.71603 -14.2397 -13.4101
17659 6.70155 -0.0108213 -11.2008
2463 8.21194 -14.9087 -9.66051
76 12.0378 -14.1419 -14.2337
21619 -8.2513 -0.00414562 -3.66036
7924 14.9046 -0.777226 -0.730199
155 12.6649 -13.3443 -14.1978
80 13.4003 -14.1305 -14.1403
874 12.6111 -14.2267 -13.4584
733 -10.3527 -1.64278 -14.8659
159 14.2461 -13.4466 -14.1574
878 14.1273 -14.2033 -13.4401
882 -14.2005 -12.7005 -13.5662
2479 14.1533 -14.9117 -9.73951
88 -13.3719 -12.7107 -14.2179
965 -13.4085 -11.9763 -13.487
21627 -5.21761 -0.00820355 -3.73177
91 -11.1351 -13.3658 -14.2219
92 -11.9214 -12.7052 -14.2019
171 -11.3267 -11.8653 -14.2523
17617 -8.89755 -0.0939987 -11.9144
22423 -6.76836 -0.0288308 -2.13893
95 -9.64761 -13.3561 -14.2064
96 -10.4327 -12.7101 -14.1227
175 -9.80178 -11.9583 -14.1081
425 -5.9831 -7.46037 -14.9294
99 -8.20507 -13.4465 -14.2467
100 -8.89092 -12.6341 -14.2928
4807 -12.7172 -14.9167 -5.26608
103 -6.60749 -13.4746 -14.2412
104 -7.44272 -12.8274 -14.2796
4829 -4.48499 -14.9081 -5.91982
108 -5.9877 -12.6439 -14.0971
187 -5.21732 -12.0014 -14.1718
6471 11.1417 -14.9281 -2.2045
112 -4.50356 -12.7005 -14.1852
191 -3.63095 -11.946 -14.2483
1609 -11.98 -14.8476 -11.9606
910 -3.72893 -12.6704 -13.5184
7221 -7.42966 -14.8499 -1.4901
115 -2.21749 -13.5174 -14.1556
116 -2.89727 -12.6759 -14.1756
195 -2.20125 -12.0016 -14.2111
120 -1.45682 -12.7127 -14.2091
566 -12.6747 -3.68356 -14.8262
4023 -6.75888 -14.8886 -6.71901
123 0.797861 -13.3967 -14.1973
124 0.0312766 -12.6403 -14.2162
918 -0.670104 -12.6874 -13.413
21609 -11.8761 -0.0788059 -4.63571
128 1.58725 -12.7542 -14.1656
203 0.811204 -12.0003 -14.244
127 2.31244 -13.4978 -14.2246
132 2.90337 -12.7185 -14.3023
207 2.21442 -11.9502 -14.2988
2457 6.0139 -14.9238 -10.4005
131 3.59486 -13.4053 -14.2826
136 4.44119 -12.7299 -14.21
930 3.75226 -12.7263 -13.4232
22411 -11.2061 -0.0306939 -2.23682
430 -3.72918 -6.85249 -14.7617
517 -1.44942 -6.05753 -14.8378
140 5.8973 -12.7178 -14.1961
2413 -10.5656 -14.894 -10.4783
8750 -3.62831 -0.721224 -0.0169229
139 6.70228 -13.3607 -14.161
144 7.45602 -12.6828 -14.1008
5635 -2.22403 -14.8804 -3.77316
148 8.94561 -12.7014 -14.1535
223 8.18653 -12.031 -14.1896
942 8.16998 -12.6244 -13.3682
1659 6.72194 -14.9337 -11.1777
147 9.75068 -13.4603 -14.1598
152 10.5301 -12.7321 -14.2685
394 12.6959 -8.14508 -14.9126
151 11.2944 -13.3868 -14.2884
156 11.9796 -12.6299 -14.1656
231 11.2004 -11.9846 -14.2169
817 -8.9798 -14.8843 -13.4682
160 13.4769 -12.6556 -14.1411
954 12.6688 -12.7333 -13.4647
1037 13.4467 -11.9439 -13.4494
235 12.6826 -11.9313 -14.2517
46 2.25057 -14.3007 -14.9139
84 14.9156 -12.6378 -14.2277
961 -14.9218 -11.9441 -13.421
239 14.135 -11.821 -14.1221
5637 -1.44743 -14.9241 -4.39653
163 -14.1372 -11.896 -14.228
962 -14.1581 -11.1723 -13.4779
243 -14.2171 -10.4495 -14.2688
168 -13.4242 -11.2067 -14.1952
167 -12.7186 -11.8787 -14.1578
966 -12.742 -11.0979 -13.3535
1045 -13.4713 -10.4115 -13.4002
342 -6.77129 -8.27953 -14.9298
172 -11.9943 -11.0377 -14.0787
969 -11.9481 -11.9061 -13.4342
251 -11.2048 -10.4376 -14.1707
970 -11.2511 -11.208 -13.5056
21629 -4.51144 -0.010744 -4.45073
145 8.86839 -13.3915 -14.9024
176 -10.4832 -11.2639 -14.2652
255 -9.68001 -10.4417 -14.1763
1053 -10.4167 -10.5215 -13.4973
734 -9.64504 -0.791811 -14.9077
974 -9.73308 -11.1975 -13.4399
545 8.90693 -5.97057 -14.8871
179 -8.27673 -11.86 -14.2829
180 -8.91202 -11.1787 -14.1968
977 -8.98042 -11.9927 -13.4864
259 -8.21969 -10.4491 -14.2671
1057 -8.83248 -10.4539 -13.3719
613 4.45454 -4.41931 -14.8687
23273 11.9773 -0.082563 -1.44473
183 -6.79103 -12.0122 -14.2604
184 -7.51218 -11.1948 -14.2193
982 -6.74814 -11.2336 -13.4602
263 -6.77128 -10.4539 -14.2116
1061 -7.43701 -10.5147 -13.4398
981 -7.51304 -11.948 -13.375
337 -8.90405 -9.0026 -14.9177
24069 10.403 -0.0307018 -0.0346957
188 -6.00642 -11.2176 -14.1867
267 -5.21086 -10.4568 -14.1772
192 -4.38675 -11.2308 -14.1898
8202 0.809263 -11.2666 -0.0364134
993 -2.97463 -12.0376 -13.3883
196 -2.95052 -11.2156 -14.0577
994 -2.24436 -11.2625 -13.3939
65 8.9256 -14.8813 -14.9236
490 -11.2139 -5.27857 -14.9392
17609 -11.9072 -0.025581 -11.9732
199 -0.765863 -11.9826 -14.093
200 -1.48405 -11.2477 -14.0952
998 -0.712147 -11.2832 -13.342
204 0.0527301 -11.3234 -14.2436
279 -0.709674 -10.4995 -14.1249
270 -3.75744 -9.62376 -14.9168
208 1.52287 -11.175 -14.1853
1005 1.49754 -12.0073 -13.4661
1002 0.820993 -11.2526 -13.5125
23227 -5.24453 -0.0202866 -0.758358
212 2.97169 -11.214 -14.197
1006 2.25664 -11.2393 -13.4143
1089 3.08592 -10.4777 -13.4688
546 9.7008 -5.19544 -14.9176
211 3.70523 -12.0277 -14.2581
1013 4.51524 -11.9769 -13.3995
216 4.47647 -11.2026 -14.1751
7 -12.757 -14.9267 -14.1825
534 5.24578 -5.14682 -14.8934
215 5.19077 -11.9041 -14.16
220 5.96072 -11.1555 -14.1669
295 5.22235 -10.4362 -14.1025
421 -7.5006 -7.47275 -14.9115
466 9.68113 -6.71438 -14.9038
55 5.23431 -14.9204 -14.2651
219 6.66909 -12.0073 -14.1968
224 7.50454 -11.2121 -14.2333
299 6.75975 -10.4777 -14.191
625 8.94986 -4.45789 -14.9017
550 11.1964 -5.21462 -14.9159
228 8.93136 -11.2298 -14.175
7231 -3.68889 -14.9227 -0.618906
462 8.16797 -6.72045 -14.9171
227 9.6755 -11.9284 -14.2802
232 10.5343 -11.2228 -14.1755
307 9.70821 -10.5205 -14.1718
23255 5.20996 -0.029319 -0.767215
23241 -0.0189843 -0.0291007 -1.48784
437 -1.39708 -7.47659 -14.9108
236 12.0438 -11.1318 -14.1358
311 11.2554 -10.5142 -14.1567
240 13.409 -11.2142 -14.1757
315 12.6314 -10.3658 -14.2462
1034 12.6566 -11.274 -13.3756
1117 13.4617 -10.5746 -13.4649
16845 1.47096 -0.0299061 -13.4375
164 -14.9016 -11.2542 -14.1823
1038 14.2189 -11.2177 -13.3777
21641 0.015459 -0.00966539 -4.45647
1041 -14.879 -10.431 -13.4296
323 -14.1597 -8.91317 -14.2495
3227 -5.17769 -14.8704 -8.24596
247 -12.7619 -10.4122 -14.204
248 -13.5102 -9.63767 -14.2326
20847 2.30739 -0.0763487 -5.26889
5639 -0.727838 -14.9104 -3.6462
22479 14.1741 -0.0575849 -2.28654
252 -11.9395 -9.71024 -14.2349
331 -11.2745 -8.8896 -14.2121
256 -10.4015 -9.70833 -14.2345
335 -9.72357 -8.9654 -14.2618
1054 -9.67004 -9.73753 -13.4851
1133 -10.4369 -8.95554 -13.4487
4859 6.69794 -14.8185 -5.21098
66 9.65911 -14.1045 -14.878
260 -8.94463 -9.70902 -14.2416
23269 10.4853 -0.0323065 -1.49539
339 -8.22769 -8.99924 -14.1313
871 11.1281 -14.8673 -12.6831
264 -7.45686 -9.75564 -14.2439
343 -6.74284 -8.95813 -14.1611
6469 10.4375 -14.8771 -2.98235
268 -5.96681 -9.73262 -14.2344
1066 -5.25898 -9.73918 -13.464
193 -2.89818 -11.8843 -14.8926
271 -3.72061 -10.4781 -14.1746
272 -4.50825 -9.70643 -14.204
1070 -3.74552 -9.71658 -13.5358
458 6.61912 -6.63295 -14.9021
275 -2.26673 -10.4552 -14.0591
276 -2.96811 -9.64097 -14.2033
355 -2.14912 -8.99201 -14.1715
1153 -3.04797 -8.97717 -13.3826
629 10.4183 -4.47711 -14.7771
8674 -2.30327 -2.26029 -0.0127529
280 -1.42998 -9.81183 -14.1555
22443 0.771524 -0.0514243 -2.26986
1078 -0.730833 -9.80137 -13.3278
283 0.760708 -10.4532 -14.2362
284 0.103883 -9.71798 -14.1511
1081 0.0539143 -10.5051 -13.4045
1161 -0.0319364 -9.09507 -13.2694
288 1.55814 -9.75084 -14.2588
1085 1.51668 -10.4565 -13.521
565 -13.3882 -4.53719 -14.8732
1082 0.809774 -9.73751 -13.4162
1165 1.48852 -8.96356 -13.4991
6461 7.52033 -14.847 -2.99595
287 2.25077 -10.5421 -14.3118
292 2.97375 -9.72373 -14.289
1086 2.28456 -9.68254 -13.5136
2469 10.4478 -14.7971 -10.38
291 3.73758 -10.4877 -14.2493
1093 4.45546 -10.4472 -13.4023
296 4.44262 -9.75597 -14.1872
371 3.73985 -8.98916 -14.2569
1090 3.73956 -9.72769 -13.5498
300 5.96556 -9.77464 -14.1799
375 5.16534 -8.99723 -14.2242
1094 5.20273 -9.71703 -13.4987
1097 5.93666 -10.3761 -13.4233
689 3.05816 -3.02445 -14.8682
304 7.42463 -9.69222 -14.1172
379 6.70337 -8.94558 -14.2175
717 13.3803 -2.98053 -14.7601
303 8.31371 -10.4834 -14.163
308 9.07003 -9.76467 -14.229
530 3.63302 -5.22258 -14.9048
24073 11.8673 -0.11679 -0.0178113
312 10.4048 -9.71749 -14.2818
16875 12.7155 -0.022835 -12.6255
22439 -0.642039 -0.00298438 -2.29665
316 11.9756 -9.72897 -14.1701
391 11.2272 -8.91741 -14.1526
789 10.5473 -1.54043 -14.883
1193 11.94 -8.98195 -13.4224
797 13.5331 -1.4818 -14.8252
320 13.5294 -9.77664 -14.1828
395 12.827 -9.01589 -14.1542
314 12.7233 -9.6784 -14.9219
23271 11.1655 -0.0263866 -0.713762
274 -2.24786 -9.69946 -14.8524
244 -14.8355 -9.73401 -14.2141
319 14.1917 -10.562 -14.1726
399 14.2112 -9.02708 -14.1477
19247 2.28939 -0.0461975 -8.25088
374 5.29666 -8.19159 -14.918
20831 -3.69125 -0.00472706 -5.14964
1201 -14.8874 -7.42163 -13.5219
403 -14.1986 -7.48023 -14.2806
20833 -2.91964 -0.0511122 -5.98308
645 -13.432 -2.92425 -14.8604
327 -12.7203 -8.99044 -14.2636
328 -13.4576 -8.19262 -14.1921
407 -12.629 -7.43167 -14.168
332 -11.9985 -8.17803 -14.1164
1130 -11.2213 -8.22128 -13.4853
411 -11.1373 -7.39673 -14.204
694 5.17287 -2.18096 -14.8867
513 -3.05935 -5.96788 -14.8547
336 -10.4467 -8.2339 -14.1848
415 -9.74481 -7.47372 -14.22
1134 -9.704 -8.23082 -13.4419
2477 13.527 -14.8269 -10.4981
20051 3.77761 -0.0252013 -6.69351
340 -8.86198 -8.23188 -14.201
1138 -8.19021 -8.14829 -13.4223
446 2.2854 -6.70866 -14.9077
344 -7.4801 -8.30602 -14.1672
22461 7.36391 -0.00816042 -3.05012
4867 9.74485 -14.9257 -5.23008
347 -5.2536 -9.04711 -14.2303
1145 -6.01484 -8.94382 -13.4147
210 3.77224 -11.1615 -14.9099
348 -5.91816 -8.19321 -14.1366
19215 -9.67881 -0.0521483 -8.13956
485 -13.4121 -5.97301 -14.7791
351 -3.74208 -8.90446 -14.2297
352 -4.51291 -8.22261 -14.2183
431 -3.7452 -7.5973 -14.1564
569 -11.951 -4.53118 -14.8097
356 -2.94284 -8.29442 -14.1158
686 2.1849 -2.1737 -14.9133
435 -2.27784 -7.5498 -14.1256
22445 1.57249 -0.0100496 -2.97282
360 -1.37381 -8.3156 -14.2192
439 -0.649703 -7.5039 -14.1792
359 -0.723836 -9.06817 -14.158
364 -0.00383648 -8.32217 -14.1768
1162 0.696313 -8.34492 -13.4408
363 0.879162 -9.01129 -14.246
368 1.56192 -8.225 -14.2532
443 0.818179 -7.54809 -14.2391
20851 3.75754 -0.0524818 -5.29231
1245 1.45796 -7.54444 -13.436
367 2.20359 -8.99483 -14.2172
372 2.9646 -8.23084 -14.2587
447 2.23786 -7.42272 -14.2269
1169 3.0259 -8.98397 -13.5309
570 -11.1635 -3.71595 -14.92
376 4.46078 -8.30194 -14.2029
1170 3.70448 -8.23438 -13.465
1253 4.44173 -7.42848 -13.465
493 -10.3985 -5.89291 -14.8838
380 5.89856 -8.22672 -14.1518
1174 5.14769 -8.17579 -13.4413
1257 5.91618 -7.4366 -13.5169
384 7.41952 -8.25314 -14.1846
459 6.6485 -7.47816 -14.218
1181 7.43143 -8.89468 -13.4691
383 8.18327 -8.99248 -14.207
388 8.96642 -8.26223 -14.2073
8133 4.529 -13.4375 -0.0448967
387 9.70862 -8.98908 -14.2609
392 10.4325 -8.15611 -14.1801
467 9.68054 -7.3667 -14.1836
465 8.95264 -7.4744 -14.8984
396 12.0017 -8.2276 -14.1571
855 5.30743 -14.9069 -12.6939
471 11.2521 -7.47658 -14.19
581 -7.41942 -4.54038 -14.9036
400 13.3899 -8.17601 -14.1905
475 12.7145 -7.35937 -14.1976
1277 13.4495 -7.55899 -13.4731
16869 10.5908 -0.0328447 -13.415
7219 -8.18478 -14.8655 -0.71955
324 -14.9092 -8.22537 -14.1873
479 14.1356 -7.45071 -14.1772
1198 14.2444 -8.21497 -13.4526
404 -14.8634 -6.65627 -14.1198
1281 -14.9125 -5.93072 -13.4388
4057 6.0109 -14.8669 -7.39853
408 -13.4448 -6.79132 -14.1178
487 -12.6498 -5.9846 -14.1065
1205 -13.4089 -7.53385 -13.4617
1206 -12.683 -6.71832 -13.4908
18421 -7.46718 -0.0146123 -10.4268
157 13.3815 -13.4186 -14.8562
412 -11.8736 -6.72488 -14.0903
416 -10.4443 -6.6187 -14.1476
1293 -10.3675 -5.88518 -13.3517
419 -8.17007 -7.48707 -14.1246
420 -8.93303 -6.7322 -14.2124
1217 -9.0291 -7.45965 -13.3918
1218 -8.26806 -6.76161 -13.4014
423 -6.70718 -7.53143 -14.1781
424 -7.43091 -6.73433 -14.0992
1222 -6.68325 -6.80436 -13.4187
1301 -7.502 -6.07243 -13.3495
427 -5.28504 -7.47602 -14.2563
428 -6.02276 -6.74799 -14.1611
1225 -5.87685 -7.52496 -13.3882
1226 -5.24637 -6.67227 -13.3737
725 -13.3496 -1.46753 -14.8873
3271 11.2424 -14.8851 -8.20192
432 -4.52031 -6.82255 -14.1685
511 -3.75817 -6.0516 -14.1267
8790 11.0761 -0.823143 -0.0183729
821 -7.45835 -14.9242 -13.4941
436 -2.92544 -6.81456 -14.1407
515 -2.26134 -6.07697 -14.197
6457 5.91158 -14.9038 -2.9024
1237 -1.51847 -7.55391 -13.4466
440 -1.46746 -6.82994 -14.2063
1238 -0.787034 -6.80957 -13.4719
16007 -12.5413 -0.0366672 -14.1783
444 0.0925182 -6.74337 -14.1135
523 0.743786 -5.95402 -14.1724
1321 0.0392681 -5.93063 -13.4547
1242 0.77959 -6.65995 -13.4197
448 1.41311 -6.75911 -14.252
452 3.10199 -6.71176 -14.1961
1249 3.00559 -7.47503 -13.5344
1329 2.99922 -5.9887 -13.5078
1246 2.26951 -6.82705 -13.4625
451 3.79515 -7.56645 -14.2062
456 4.46113 -6.73048 -14.2266
531 3.76558 -5.98117 -14.2067
1250 3.78562 -6.7494 -13.4243
455 5.20596 -7.49595 -14.1918
460 5.93757 -6.687 -14.138
535 5.16101 -5.89896 -14.1527
1254 5.14178 -6.70758 -13.4243
1653 4.55253 -14.917 -11.9876
22427 -5.24527 -0.160672 -2.18504
464 7.41418 -6.75394 -14.2153
1258 6.71646 -6.70591 -13.3941
463 8.19054 -7.49072 -14.1406
468 8.93871 -6.70684 -14.2139
1262 8.09176 -6.74209 -13.4962
698 6.72337 -2.16445 -14.8715
17665 9.05822 -0.0102156 -11.9957
472 10.5208 -6.7398 -14.1782
1349 10.5107 -5.99915 -13.369
1266 9.71268 -6.67433 -13.457
476 11.958 -6.70092 -14.2146
551 11.2442 -6.02247 -14.2255
6441 -0.0227616 -14.8797 -2.96074
480 13.4291 -6.69243 -14.1803
1274 12.6967 -6.79088 -13.4341
1357 13.4051 -5.97346 -13.4549
701 7.32535 -2.93467 -14.8671
1278 14.0845 -6.73256 -13.3916
486 -12.6878 -5.25973 -14.8252
23225 -5.96842 -0.0857634 -1.45508
483 -14.1558 -5.94918 -14.0792
1282 -14.1707 -5.15738 -13.3987
563 -14.2797 -4.47106 -14.1202
1361 14.9237 -4.52933 -13.4709
1285 -13.4134 -5.99472 -13.4183
488 -13.4607 -5.13659 -14.0593
1286 -12.6551 -5.29491 -13.4172
567 -12.703 -4.49901 -14.1385
491 -11.1274 -5.93459 -14.1781
1289 -11.8582 -6.03832 -13.3561
492 -11.945 -5.30708 -14.0964
1369 -11.8868 -4.47239 -13.4488
571 -11.1091 -4.5674 -14.1545
495 -9.68117 -5.95033 -14.1386
496 -10.3784 -5.26321 -14.158
58 6.66573 -14.1795 -14.9204
499 -8.14023 -6.0165 -14.125
500 -8.83655 -5.26703 -14.1255
81 -14.859 -13.41 -14.9157
269 -4.4377 -10.4442 -14.8678
20011 -11.1399 -0.0588833 -6.75229
503 -6.79674 -6.02069 -14.1798
504 -7.47005 -5.16356 -14.1582
1302 -6.73978 -5.26901 -13.4383
507 -5.21709 -6.01998 -14.2337
508 -5.89585 -5.2562 -14.1026
1306 -5.17937 -5.22697 -13.4163
512 -4.53317 -5.31295 -14.1549
20075 12.7444 -0.00578042 -6.68286
2451 3.76794 -14.867 -9.66536
516 -3.02416 -5.25141 -14.175
1314 -2.29819 -5.37163 -13.4344
519 -0.648914 -5.91111 -14.1963
520 -1.48127 -5.30274 -14.1414
1318 -0.738791 -5.18803 -13.4196
21655 5.19732 -0.0283906 -3.70581
524 -0.00903803 -5.18087 -14.2023
1322 0.74897 -5.15651 -13.3943
522 0.723738 -5.13272 -14.9095
528 1.48293 -5.23277 -14.1415
603 0.746141 -4.44498 -14.1232
1405 1.45093 -4.39225 -13.3669
22457 5.97348 -0.0546005 -3.01069
273 -2.95827 -10.4451 -14.7999
527 2.26276 -6.0347 -14.1798
532 2.89252 -5.27486 -14.1783
607 2.20825 -4.46827 -14.185
3249 3.04104 -14.9062 -8.97501
8225 8.94155 -11.9978 -0.0666414
536 4.51258 -5.16093 -14.1809
1333 4.48094 -5.99997 -13.3858
20035 -2.22974 -0.0310405 -6.72575
7275 12.6791 -14.9305 -0.75405
540 5.92626 -5.22331 -14.1479
1334 5.16839 -5.12144 -13.3295
798 14.2979 -0.732602 -14.885
539 6.74554 -6.02186 -14.112
544 7.48481 -5.10552 -14.178
619 6.66822 -4.47443 -14.1514
1341 7.43762 -5.96997 -13.429
1421 7.39971 -4.43502 -13.4957
543 8.13416 -5.96451 -14.1481
548 8.88983 -5.22793 -14.1503
623 8.18703 -4.41889 -14.1523
1425 8.82497 -4.47268 -13.3771
1342 8.18396 -5.30505 -13.405
547 9.78174 -5.97804 -14.2012
552 10.4754 -5.34325 -14.127
627 9.6241 -4.47429 -14.2141
497 -8.92683 -5.91149 -14.8624
1346 9.6927 -5.32421 -13.393
556 11.9129 -5.30817 -14.2674
631 11.1962 -4.52449 -14.1734
1433 11.9075 -4.51095 -13.4035
555 12.65 -5.95724 -14.1355
560 13.3635 -5.25387 -14.2357
635 12.6089 -4.55262 -14.181
559 14.1595 -5.94108 -14.1585
484 14.8078 -5.25158 -14.1237
639 14.1517 -4.52096 -14.2289
1358 14.0989 -5.21698 -13.405
4823 -6.71239 -14.9213 -5.25028
643 -14.231 -2.90464 -14.1024
1365 -13.4612 -4.45506 -13.4142
568 -13.5139 -3.63002 -14.1302
1366 -12.6257 -3.63473 -13.461
572 -11.9164 -3.66758 -14.1007
651 -11.0773 -2.99756 -14.1571
1370 -11.1203 -3.81516 -13.5275
575 -9.63088 -4.45816 -14.2418
576 -10.4361 -3.77229 -14.2058
1453 -10.3755 -2.97404 -13.4288
1373 -10.3837 -4.50637 -13.4957
1374 -9.66755 -3.68438 -13.4236
16859 6.81286 -0.0110817 -12.7813
579 -8.20967 -4.46825 -14.1739
580 -8.88318 -3.76177 -14.1421
659 -8.08224 -2.9941 -14.1965
4019 -8.36667 -14.912 -6.7079
583 -6.67576 -4.51767 -14.2392
584 -7.36955 -3.71438 -14.2584
1382 -6.68047 -3.80567 -13.3392
663 -6.61924 -2.94708 -14.2588
587 -5.23448 -4.49743 -14.1923
1385 -5.95705 -4.4577 -13.4691
588 -5.88402 -3.72628 -14.2375
591 -3.77959 -4.53619 -14.2285
592 -4.56377 -3.76972 -14.224
1469 -4.45151 -3.01265 -13.3912
1389 -4.47585 -4.47965 -13.4651
21611 -11.1146 -0.00476138 -3.75941
595 -2.2373 -4.53064 -14.1885
1393 -2.96229 -4.52868 -13.4249
596 -3.01794 -3.84634 -14.2268
1394 -2.28916 -3.76373 -13.4753
1473 -2.87145 -2.99635 -13.4909
600 -1.50939 -3.76214 -14.1797
599 -0.816014 -4.53183 -14.0858
604 0.0140764 -3.75466 -14.1767
1402 0.759152 -3.72182 -13.4494
608 1.50561 -3.63179 -14.1755
683 0.671247 -2.98952 -14.194
1485 1.5343 -2.90773 -13.4734
18447 2.2322 -0.0129455 -9.71946
612 2.96184 -3.71461 -14.1519
1409 2.98826 -4.41728 -13.4615
2407 -12.6197 -14.8822 -9.72312
21635 -2.19395 -0.0286743 -3.70646
3221 -7.47522 -14.8973 -8.92194
611 3.72114 -4.41081 -14.2289
616 4.52138 -3.63774 -14.2396
1413 4.51708 -4.38251 -13.3689
82 -14.1223 -12.668 -14.8824
615 5.17289 -4.43758 -14.0875
620 5.92328 -3.82073 -14.1844
1417 5.97995 -4.50593 -13.3965
1414 5.2317 -3.68374 -13.4057
624 7.38909 -3.6333 -14.2169
1418 6.73897 -3.73942 -13.4059
1501 7.40193 -2.82823 -13.5114
699 6.6187 -2.96694 -14.1359
23229 -4.47914 -0.0605021 -1.45944
2409 -11.9763 -14.8706 -10.4954
628 8.95844 -3.7495 -14.1904
1422 8.18282 -3.67175 -13.4692
1505 8.94788 -2.97202 -13.4323
632 10.4521 -3.61791 -14.1677
707 9.59082 -2.98331 -14.2224
1509 10.4102 -2.99146 -13.404
1426 9.63934 -3.69265 -13.4215
5633 -3.00866 -14.9023 -4.49901
636 12.035 -3.72856 -14.1343
1430 11.227 -3.75363 -13.5453
1513 11.9898 -2.91862 -13.3434
640 13.3311 -3.83991 -14.1611
715 12.6318 -2.93791 -14.0966
564 14.8984 -3.70719 -14.1376
719 14.2832 -2.84267 -14.124
1441 14.9173 -3.03074 -13.3668
109 -4.47534 -13.4162 -14.9345
253 -10.4454 -10.4849 -14.9211
1442 -14.0589 -2.21208 -13.4383
648 -13.3772 -2.26276 -14.1938
647 -12.6152 -2.91872 -14.162
727 -12.5888 -1.42673 -14.1897
393 12.0462 -8.95815 -14.8769
1446 -12.6627 -2.18413 -13.4886
86 -12.6501 -12.6594 -14.8968
652 -11.8646 -2.25499 -14.1843
731 -11.1469 -1.5562 -14.1313
1449 -11.8309 -2.88155 -13.4202
1450 -11.1008 -2.1684 -13.3998
5613 -10.5289 -14.9296 -4.40907
1529 -11.8568 -1.45764 -13.4063
655 -9.65172 -3.01352 -14.2377
656 -10.2809 -2.31549 -14.181
1454 -9.6155 -2.30873 -13.4823
1457 -8.95965 -3.00535 -13.3693
660 -8.85709 -2.28505 -14.1899
739 -8.1812 -1.52903 -14.1575
1458 -8.16801 -2.18645 -13.4268
1537 -8.99553 -1.45736 -13.3609
226 9.70379 -11.1914 -14.9302
17671 11.2665 -0.00410984 -11.2078
1461 -7.39958 -3.10792 -13.4577
664 -7.33023 -2.21292 -14.1688
1462 -6.6569 -2.25944 -13.4565
1541 -7.39309 -1.51442 -13.4051
4833 -3.00976 -14.9266 -5.91878
667 -5.18212 -3.03378 -14.1726
668 -5.90512 -2.34373 -14.1686
1545 -5.92864 -1.50563 -13.4828
671 -3.7446 -3.02266 -14.1877
672 -4.45888 -2.34046 -14.1668
1549 -4.42135 -1.61944 -13.3757
751 -3.76059 -1.4434 -14.1941
469 10.4741 -7.4195 -14.8854
675 -2.27067 -3.03913 -14.2919
676 -2.95219 -2.25689 -14.223
1474 -2.22737 -2.24677 -13.5008
1553 -2.92637 -1.49406 -13.49
21663 8.21923 -0.0209519 -3.7045
16011 -11.1401 -0.0696451 -14.2116
680 -1.57278 -2.27738 -14.2432
1477 -1.54994 -3.0329 -13.4367
679 -0.899274 -2.93139 -14.1044
684 -0.0342112 -2.32571 -14.2141
142 8.13151 -12.6929 -14.8919
688 1.39304 -2.19416 -14.1892
1673 12.0076 -14.9065 -11.8222
687 2.26372 -3.02012 -14.227
692 3.04954 -2.24251 -14.2192
1486 2.28574 -2.19858 -13.402
1489 2.91859 -2.9896 -13.4392
691 3.67299 -3.00878 -14.1695
1493 4.3939 -2.92223 -13.4027
696 4.445 -2.24919 -14.125
1490 3.67954 -2.1843 -13.392
7249 2.92065 -14.9291 -1.49944
695 5.16592 -2.96995 -14.2096
700 5.98937 -2.18291 -14.1255
775 5.22426 -1.44458 -14.1542
1497 5.92462 -2.97543 -13.3989
1494 5.20997 -2.29481 -13.449
704 7.4911 -2.22134 -14.2622
1498 6.73408 -2.14765 -13.4933
779 6.69529 -1.46809 -14.2026
19225 -5.92943 -0.0211166 -9.02407
8374 5.13465 -8.196 -0.0833865
23223 -6.73287 -0.0758287 -0.700006
703 8.18147 -2.90198 -14.1689
708 8.91053 -2.17705 -14.2467
783 8.2273 -1.50836 -14.2457
1585 8.95356 -1.4286 -13.5425
712 10.4115 -2.33514 -14.1647
1506 9.63382 -2.16213 -13.4223
1589 10.4738 -1.43041 -13.3617
711 11.2284 -2.93204 -14.2346
716 11.9738 -2.16903 -14.1491
791 11.2113 -1.4823 -14.1329
3253 4.46597 -14.9339 -8.89249
720 13.4578 -2.2388 -14.0966
1514 12.6951 -2.20284 -13.3707
417 -8.88714 -7.50318 -14.8946
406 -12.6624 -6.7179 -14.8154
17673 12.0218 -0.0198235 -11.9146
644 -14.8268 -2.15429 -14.099
723 -14.1698 -1.41345 -14.1969
541 7.48786 -5.86304 -14.887
728 -13.3851 -0.693962 -14.1483
24013 -10.5363 -0.0130039 -0.0981218
418 -8.18067 -6.69335 -14.9046
8309 10.3622 -10.4709 -0.0799577
7995 12.6131 -1.57137 -0.772916
732 -11.9167 -0.809279 -14.0961
6477 13.3762 -14.8522 -3.05136
318 14.2065 -9.81532 -14.9088
505 -6.03706 -5.96881 -14.8983
735 -9.58625 -1.51411 -14.214
736 -10.3897 -0.767074 -14.2522
1534 -9.65729 -0.731823 -13.5045
617 5.9384 -4.44369 -14.9325
740 -8.8612 -0.746566 -14.2474
310 11.26 -9.67122 -14.8619
6475 12.694 -14.8871 -2.23641
7277 13.419 -14.8835 -1.48859
743 -6.64941 -1.47185 -14.1901
744 -7.4231 -0.744307 -14.2503
1542 -6.69241 -0.774799 -13.4883
18403 -14.2058 -0.0596573 -9.80122
747 -5.1888 -1.55616 -14.1659
748 -5.94086 -0.731367 -14.2991
1546 -5.24223 -0.723073 -13.5371
752 -4.54077 -0.750333 -14.2775
2467 9.61813 -14.9064 -9.62308
5661 7.50051 -14.9204 -4.56434
23263 8.29644 -0.00998892 -0.819995
20043 0.732727 -0.0264348 -6.72043
8142 8.18646 -12.7392 -0.00400954
755 -2.21756 -1.52373 -14.2083
756 -3.06141 -0.770631 -14.2315
93 -10.3518 -13.3867 -14.8917
281 -0.0929672 -10.4312 -14.8829
759 -0.762184 -1.42193 -14.2072
760 -1.58195 -0.794061 -14.1681
764 -0.0729684 -0.709252 -14.2511
8318 14.185 -9.77008 -0.0382348
763 0.68876 -1.37411 -14.2359
768 1.46239 -0.669164 -14.224
1562 0.709488 -0.761157 -13.4385
597 -1.49581 -4.55969 -14.8941
1569 2.95375 -1.4042 -13.4061
767 2.203 -1.49702 -14.198
772 2.88117 -0.691569 -14.1924
4839 -0.717272 -14.867 -5.17191
16833 -2.85129 -0.00763916 -13.5153
771 3.775 -1.47352 -14.1121
1573 4.51045 -1.48374 -13.3732
776 4.47848 -0.688778 -14.0913
8001 -14.8589 -14.9385 -0.00640167
1577 5.966 -1.4065 -13.3912
780 5.99911 -0.71727 -14.1557
1574 5.25804 -0.656087 -13.4585
16015 -9.73812 -0.0155525 -14.2206
630 11.2356 -3.72862 -14.8449
784 7.50596 -0.700321 -14.2187
788 8.99957 -0.783266 -14.2861
1582 8.20682 -0.722672 -13.4882
121 0.0412313 -13.4323 -14.9026
2415 -9.72672 -14.8737 -9.71366
390 11.1915 -8.18837 -14.8962
16803 -14.0823 -0.00604084 -12.6729
787 9.81838 -1.47158 -14.1731
792 10.5644 -0.695102 -14.1909
361 0.00592496 -8.94397 -14.887
7247 2.19779 -14.9086 -0.672536
796 12.0174 -0.728082 -14.1662
218 6.68101 -11.2601 -14.9343
2405 -13.3041 -14.8895 -10.6031
714 12.7092 -2.20517 -14.836
795 12.7776 -1.48343 -14.1255
800 13.4477 -0.711344 -14.1563
1594 12.714 -0.712729 -13.4786
5 -13.4301 -14.8867 -14.9214
799 14.2262 -1.42097 -14.1173
724 14.9062 -0.716084 -14.1364
1521 -14.8773 -1.42641 -13.4301
3215 -9.64417 -14.9147 -8.25363
23203 -14.2109 -0.090828 -0.762531
802 -14.2259 -14.2684 -13.4795
6479 14.0398 -14.8868 -2.29912
1602 -14.1527 -14.2639 -12.0106
804 14.921 -14.1943 -12.6816
806 -12.6205 -14.1846 -13.3966
885 -13.4902 -13.479 -13.459
808 -13.4624 -14.2232 -12.7234
887 -12.6702 -13.4663 -12.8122
657 -8.84515 -2.98975 -14.8756
22433 -2.9745 -0.0217957 -2.93626
812 -11.9356 -14.1693 -12.7035
891 -11.1559 -13.4431 -12.6987
1689 -11.9619 -13.3828 -12.058
1610 -11.248 -14.0957 -11.9447
4873 11.91 -14.871 -5.89208
814 -9.65896 -14.1537 -13.4425
816 -10.433 -14.1884 -12.7074
895 -9.70965 -13.4134 -12.665
8000 13.4252 -0.830565 -0.797864
818 -8.20831 -14.1894 -13.4851
897 -8.91564 -13.4148 -13.532
820 -8.96447 -14.1541 -12.7175
899 -8.22249 -13.4058 -12.7269
822 -6.71357 -14.1482 -13.5027
3201 14.9063 -14.8982 -9.00861
824 -7.37335 -14.1849 -12.678
1701 -7.47603 -13.3992 -11.9517
429 -4.49033 -7.43112 -14.8539
198 -0.757655 -11.2898 -14.8511
7994 12.6343 -0.772074 -1.37895
826 -5.23506 -14.2816 -13.487
828 -5.97431 -14.1576 -12.7935
1626 -5.19588 -14.1343 -11.978
907 -5.21125 -13.5484 -12.7518
832 -4.51428 -14.2254 -12.7129
911 -3.82397 -13.4565 -12.6776
834 -2.24628 -14.243 -13.4864
913 -2.96624 -13.4448 -13.4619
526 2.25967 -5.19267 -14.9288
836 -2.988 -14.171 -12.7304
1634 -2.25282 -14.2147 -11.9677
838 -0.627803 -14.1779 -13.3692
840 -1.47632 -14.2054 -12.6879
1638 -0.6986 -14.2174 -11.9822
1717 -1.47846 -13.5322 -11.9283
921 0.0151124 -13.4653 -13.5223
844 0.170518 -14.2779 -12.6987
923 0.776029 -13.4907 -12.7212
21649 3.02801 -0.115084 -4.62712
842 0.765791 -14.2325 -13.4591
848 1.55105 -14.3151 -12.7238
8469 10.5174 -7.54879 -0.0376156
846 2.22436 -14.2732 -13.4882
852 2.89456 -14.2543 -12.76
1646 2.24573 -14.2464 -12.0308
7257 5.96189 -14.8616 -1.52061
856 4.49704 -14.1222 -12.6423
931 3.68419 -13.5078 -12.6627
1650 3.81034 -14.1934 -11.8999
5643 0.741104 -14.8612 -3.7394
854 5.20094 -14.1817 -13.4737
22407 -12.7228 -0.0526327 -2.26585
638 14.1185 -3.68519 -14.7697
860 6.00202 -14.2123 -12.6675
858 6.65693 -14.204 -13.5752
864 7.30085 -14.2376 -12.7313
1658 6.69131 -14.2505 -11.9141
939 6.74022 -13.4461 -12.7288
862 8.19498 -14.1414 -13.3758
868 9.04762 -14.2191 -12.7168
943 8.1443 -13.4276 -12.7224
737 -8.85062 -1.4878 -14.9347
4015 -9.76201 -14.917 -6.73719
949 10.434 -13.4302 -13.4931
872 10.3726 -14.2157 -12.6903
947 9.74528 -13.4786 -12.7186
17607 -12.6148 -0.00982446 -11.1511
870 11.2046 -14.1433 -13.4746
953 11.9705 -13.4443 -13.4415
876 11.9221 -14.2852 -12.7282
951 11.2337 -13.4217 -12.6403
1670 11.2403 -14.178 -11.9076
1753 11.9441 -13.4318 -11.9493
880 13.4289 -14.1203 -12.6421
957 13.4832 -13.4373 -13.4567
955 12.7055 -13.4504 -12.7214
1678 14.203 -14.0256 -11.9536
959 14.2376 -13.4049 -12.8417
230 11.214 -11.1918 -14.916
881 -14.8744 -13.4098 -13.5026
883 -14.1597 -13.4476 -12.72
963 -14.1326 -11.8991 -12.7872
886 -12.611 -12.6649 -13.5108
888 -13.5031 -12.7154 -12.8154
1686 -12.6686 -12.6887 -11.9709
1765 -13.4509 -11.9107 -11.9219
889 -11.8949 -13.4117 -13.4309
890 -11.2694 -12.6633 -13.4325
892 -11.964 -12.6322 -12.7196
971 -11.2874 -11.8591 -12.6649
893 -10.4329 -13.4472 -13.4462
894 -9.66175 -12.6792 -13.4316
896 -10.4311 -12.6448 -12.7386
1693 -10.4595 -13.4852 -11.9267
973 -10.555 -11.9338 -13.4913
1694 -9.72285 -12.7443 -11.9479
898 -8.18473 -12.6832 -13.5095
900 -8.96942 -12.7933 -12.7481
979 -8.27886 -12.0162 -12.748
902 -6.78877 -12.6596 -13.4325
903 -6.68016 -13.4271 -12.7586
904 -7.55286 -12.7508 -12.7513
1702 -6.74796 -12.7616 -12.0284
983 -6.73518 -11.9728 -12.6437
905 -5.99191 -13.3938 -13.468
906 -5.19739 -12.6051 -13.4677
908 -5.99384 -12.6388 -12.7734
987 -5.22474 -11.9798 -12.6098
989 -4.42274 -11.9878 -13.4517
912 -4.5744 -12.722 -12.6682
914 -2.17692 -12.776 -13.44
915 -2.23522 -13.4948 -12.7675
916 -3.03317 -12.759 -12.7484
1714 -2.23329 -12.7023 -12.0265
917 -1.42485 -13.4578 -13.414
919 -0.651956 -13.4118 -12.7037
920 -1.43388 -12.7782 -12.6797
999 -0.656931 -12.0642 -12.6598
924 0.129048 -12.6457 -12.7047
925 1.63316 -13.4851 -13.421
922 0.785649 -12.7736 -13.4562
928 1.48264 -12.7753 -12.725
1805 1.49405 -12.0291 -11.9198
1009 2.97761 -11.9276 -13.5552
927 2.27406 -13.4779 -12.6346
929 3.04939 -13.4214 -13.4369
1729 3.01534 -13.5608 -11.924
926 2.31936 -12.6698 -13.4781
932 2.99694 -12.679 -12.705
1726 2.22845 -12.7366 -11.9153
933 4.42024 -13.4074 -13.4818
936 4.47883 -12.7103 -12.726