ITEM: TIMESTEP
42700
ITEM: NUMBER OF ATOMS
864
ITEM: BOX BOUNDS pp pp pp
0.0000000000000000e+00 1.0726842421158810e+01
0.0000000000000000e+00 1.0726842421158810e+01
0.0000000000000000e+00 1.0726842421158810e+01
ITEM: ATOMS id x y z vx vy vz
371 0.810445 1.39507 0.406206 1.88861 1.29574 0.774063
262 0.890309 0.205221 0.871038 0.84129 -1.77888 1.44113
104 10.1133 0.88948 1.2306 -1.16601 0.312809 -1.06191
297 2.32234 0.649538 1.10837 1.37332 1.77433 0.843283
195 2.75408 1.71741 0.558142 -1.6578 2.15775 -0.516197
498 1.60763 0.0780129 1.76786 0.595994 -1.32621 -0.404525
842 3.25713 0.0261345 0.202954 0.782534 0.367357 -0.969854
490 4.18476 0.563795 1.06428 -1.62939 -0.0145331 -2.15752
110 4.44975 1.85809 1.69781 0.159249 1.58803 0.591823
7 0.920551 4.35577 0.0707015 -1.31553 -0.518599 1.77249
379 5.94927 0.813339 1.45541 0.929222 0.634518 -0.78368
864 5.14615 1.33197 1.11711 -0.134077 -0.12089 1.49055
743 7.08541 1.00618 0.343984 -1.53311 -0.436932 1.34159
474 5.91824 1.11003 0.454829 -0.97135 0.415296 -0.102335
522 3.69355 2.52693 0.092874 0.178673 -0.34924 0.516799
614 7.17186 0.607703 1.45153 -2.06565 -2.20306 0.46131
547 9.23592 0.539019 0.55276 1.69183 -0.481695 0.353561
412 8.23814 0.490606 0.206988 1.53457 -0.697665 -0.244524
363 8.19699 1.00224 1.30166 0.0512603 1.13762 0.207159
231 9.20368 1.33042 1.33279 -1.00524 1.53496 1.54577
450 9.98001 4.00978 5.26159 1.77898 -1.71485 0.952271
224 1.13378 1.16823 1.49467 -0.739047 0.0761471 0.396796
465 0.16017 3.05268 1.52543 -0.519506 -1.46834 -0.0991477
161 1.1551 2.49963 0.490731 -0.0690704 0.580268 -0.987452
417 0.131652 1.58331 1.19917 -0.289662 -0.615942 -1.39408
595 0.135508 3.01811 0.461298 0.164411 -1.24665 0.499369
84 1.89133 1.86072 1.16927 -1.03957 -1.63321 1.75007
196 2.15896 2.75912 0.187267 -0.206452 -0.105023 0.667438
132 1.53934 3.20338 1.43922 0.217292 -0.577186 0.889785
197 4.07186 1.54154 0.191369 0.0290899 0.919908 -0.369618
732 3.71951 2.90182 1.8826 0.519314 -1.57313 0.62682
633 6.28816 2.89912 4.83494 -1.23464 -0.377443 -1.00266
365 5.9093 2.12565 1.01567 -0.342683 0.712064 -1.2182
480 6.09544 3.09239 1.60155 -0.972172 -1.92119 0.469275
518 5.33389 3.08 0.728558 -0.0745095 -0.244234 -0.281404
657 4.18446 3.39306 0.758634 -2.01273 1.90075 0.735165
396 4.61686 2.38456 0.664874 -0.28293 -0.272654 1.36111
644 6.82175 1.82926 0.909978 -0.559574 1.79471 -0.703248
278 7.15051 2.28473 0.05126 0.519392 0.477734 -1.65873
77 7.051 3.0107 1.15254 0.129327 -1.26232 -1.11211
774 6.29424 2.96806 0.458314 -0.424229 -0.222276 -0.813004
26 7.60226 1.75701 1.5894 -0.608159 -1.90326 0.852451
5 9.23845 2.34147 1.37885 -0.08895 0.700854 0.306166
41 8.04435 2.75462 1.36218 -0.769229 0.063198 0.431222
97 8.05506 1.86384 0.619864 -1.45383 -0.193261 0.788334
602 9.99326 2.19289 0.65193 -0.515688 -0.485453 0.364683
235 9.62186 3.45047 1.63381 1.32674 0.532731 -0.686998
191 10.14 1.60267 1.97775 -0.146658 0.43224 -1.09368
176 9.8134 3.33006 0.580812 -0.429164 1.83724 0.64358
559 1.74477 3.7555 0.389994 0.640571 -0.597814 -0.137917
555 0.566596 4.04023 1.88513 -0.0585909 -0.347123 -1.06723
492 10.1888 0.0222881 0.79513 1.53676 0.106921 -0.431149
823 10.5153 4.13713 0.968794 0.0418024 -0.814194 1.20718
312 2.65174 4.45163 4.95513 -1.90187 -1.33485 -1.38695
206 2.33508 4.75818 0.237069 1.23935 -0.501748 -2.03777
466 2.93043 3.73084 1.10598 -0.998067 0.266073 0.1456
82 1.03289 2.3078 5.34732 1.03246 -0.3436 -0.266054
543 8.65366 5.27467 3.72345 -0.256612 0.802197 0.367238
419 3.78427 4.38004 0.992714 -0.257227 0.107233 -0.203423
452 5.75312 4.05111 1.27549 0.734661 0.608993 2.02175
336 8.24965 3.84105 5.35007 0.955171 0.235394 -0.230123
418 9.03619 5.27907 2.76966 0.86057 -0.224206 -0.361798
251 6.54765 0.776482 4.83197 0.0185769 1.42093 -0.00601296
102 6.45555 4.2497 0.593647 0.214785 -0.0239789 -0.625651
188 7.57573 4.46109 1.14893 -0.138601 -1.98203 1.93328
726 8.57559 3.67892 0.907573 0.214698 0.374242 0.230176
855 8.69132 4.71824 0.842004 -0.690383 -1.01863 -2.28159
99 9.31215 4.51434 1.61955 -0.341071 0.449797 1.61985
468 9.74225 4.92394 0.597862 0.98053 -1.15831 0.973077
70 1.94403 0.997131 0.185428 0.359779 -0.0478486 1.06326
429 10.6381 0.528725 5.31317 -0.203709 -0.279146 0.0896044
36 0.437426 1.45771 2.4932 -0.452626 -1.56111 0.0156762
167 0.986628 0.496771 2.69535 1.56282 0.686684 -0.182412
654 10.5876 2.01413 5.21633 1.65407 0.218324 0.878428
741 2.34269 2.28248 2.63373 1.82138 -1.20392 0.880429
713 3.29625 0.260312 1.47918 0.793908 -0.201283 -1.85473
399 2.11114 0.524254 3.34511 -0.822473 -1.21024 1.96494
243 3.18037 1.80901 2.01172 0.140917 1.56305 -1.18729
615 10.0039 0.706147 2.22478 -1.0394 -0.610941 1.62364
600 3.00239 0.136871 3.54909 0.202808 0.0553791 1.1506
801 3.05317 1.4663 3.14498 -0.77699 -0.531181 -0.905796
44 3.60528 0.878657 2.39499 0.0353535 -0.482395 1.44933
296 5.52657 1.64762 2.13611 0.979375 0.0223579 0.140258
58 4.68734 0.717684 2.05287 0.181097 0.897134 0.754915
106 5.88227 0.349923 2.50124 -0.50347 1.2566 -1.40036
554 4.73608 1.19347 3.41659 -0.158309 -0.50036 1.3293
64 6.74964 1.26508 2.43487 -0.0738132 0.943514 -1.0845
725 7.35673 1.61486 3.51303 0.576571 -0.5372 -0.178266
306 3.60836 0.367166 4.88164 0.81708 -0.603489 0.582142
536 6.98698 0.084321 3.13138 1.38713 0.144807 1.30898
389 7.83448 1.50303 2.50914 -0.0750076 -0.950436 1.17343
236 9.02568 0.173532 3.2387 0.812137 -0.347035 -0.0819017
439 1.04041 0.178139 5.12179 0.228569 0.618337 0.690132
173 0.215722 0.252965 1.74286 -1.13951 -1.16561 0.115369
550 8.85484 0.647052 2.40054 0.296233 0.0769915 -0.906885
708 0.424072 0.931401 3.36585 -0.199405 -0.617682 0.323856
255 9.53919 1.3428 2.90963 -0.171391 -0.385935 -1.9396
113 0.978716 2.56932 2.42203 -0.442918 1.14962 -0.861851
85 10.4397 3.32746 2.50665 -0.374578 -0.243179 -0.0911471
189 0.513055 2.31823 3.46709 -1.44354 -0.0170046 -0.451995
674 2.52254 2.68431 1.31434 -1.1137 -0.203365 -0.690628
281 1.80752 3.21321 3.22376 0.16279 0.407567 -0.957596
32 2.38351 3.35419 2.22594 -0.703186 0.0861836 -1.25552
494 4.2275 2.04227 3.18626 -0.0153741 -0.242439 -0.723559
178 2.97742 2.68491 3.28201 -2.18622 -0.25139 1.324
521 4.96372 2.51057 2.48609 0.113469 0.0459846 -2.19791
688 5.76259 2.31449 3.17316 1.04766 -0.0159522 0.777641
587 5.83915 3.44179 2.86476 -0.179289 0.118229 -0.992899
131 4.63622 3.19091 3.18012 0.24052 -0.314328 -0.749006
400 6.53206 2.71798 3.70313 0.785566 0.334647 1.60056
115 7.5007 3.62679 3.38781 -0.0778796 -0.768655 0.683648
216 6.83297 3.28477 2.38368 -0.328848 -1.6897 -0.202616
257 7.35384 2.38131 2.822 -0.847339 1.95576 0.916404
639 9.05148 2.25558 2.66206 0.171262 0.429058 -0.364067
92 8.42667 1.90088 3.42392 -0.256055 0.20279 -1.5866
2 8.33918 2.89801 3.22863 -1.58228 0.926453 0.3226
519 9.36645 3.27811 2.72332 -0.413398 1.84193 1.26288
202 10.6869 3.21285 3.52876 -0.266789 0.408873 0.665198
10 10.4495 2.39049 2.82459 1.75715 -2.88259 0.29529
754 0.610731 4.68273 2.84493 0.734069 -0.198384 -0.776022
444 0.823676 3.62376 2.83755 1.29218 0.0185984 -1.79202
440 1.6705 4.98543 2.4204 1.40549 2.66315 -1.77609
61 1.68224 4.05834 2.01809 -1.98135 0.203048 -1.17197
770 2.37085 4.26603 3.01779 0.507294 -0.509278 -0.351107
621 0.636101 5.04912 5.25931 -1.00238 -1.28287 0.892488
586 3.02289 4.49358 2.13204 -1.43353 0.032095 1.76726
546 3.31942 3.60268 2.70271 1.08886 0.449892 0.418997
816 4.43054 3.64205 2.05646 1.89227 -2.05499 -1.58903
300 4.61295 4.28413 0.364868 -1.27273 -0.208192 -1.05038
610 5.27159 4.74381 2.78358 1.27591 -1.82273 0.674083
182 6.63026 4.1585 2.8871 -1.0295 -0.455193 1.42643
138 6.69477 4.19587 1.77053 2.17858 -0.87197 0.993178
66 6.37351 5.16637 1.37328 -0.847288 0.805858 1.19911
274 8.59952 4.36838 2.39146 0.837826 1.3889 1.09004
74 7.75681 3.644 1.88599 -0.543999 -0.943941 0.316572
596 8.59179 4.16337 3.36379 -1.14511 -0.172785 -0.141567
184 7.25652 3.04189 5.31873 -0.313219 0.613978 0.712694
455 10.2232 5.27165 2.00984 -1.6563 -0.795365 -2.27555
248 10.5601 4.38314 3.46777 -0.162915 -0.55494 -0.567222
746 9.89916 4.17277 2.44003 1.09399 0.793023 0.689358
252 1.55589 1.55937 2.69556 1.97228 0.92973 -3.05764
244 1.88359 1.33165 4.93964 0.447865 0.289883 -0.660601
192 1.09238 1.85411 4.29835 -0.0851039 -1.18116 -0.908438
583 1.66863 0.472459 4.31519 1.22493 -0.338025 -1.11436
319 2.48832 1.16925 4.05202 -2.63129 -0.742838 1.13487
747 4.74258 0.131413 5.04045 -1.96597 -0.161588 0.554006
273 3.66589 1.02326 3.86424 -0.671164 -0.286528 0.24074
758 4.20092 1.17489 4.67855 0.486477 -1.41379 -0.677143
215 4.79934 2.06977 4.34899 0.800211 0.490231 0.203856
589 5.73052 0.572954 3.79745 3.14801 1.01623 -0.944056
787 6.39191 1.40873 3.44067 0.171729 -1.16115 -0.254457
807 7.24666 2.40775 4.53351 0.4892 0.963315 -0.305513
149 7.46475 0.822862 4.38312 -0.934811 -0.230423 -0.00200419
407 8.99197 3.27523 0.0216507 0.252308 -0.813935 -0.235838
573 9.58388 4.80872 3.46352 1.39992 -0.407603 -0.49901
591 8.16065 0.536465 5.09235 0.570262 -1.85124 0.981334
37 8.63506 0.982439 4.06211 0.889875 -0.387351 0.247769
158 8.14064 1.79654 4.59582 -1.5056 -1.76919 -1.32106
857 5.48484 1.03876 4.91994 -0.555524 0.215538 0.358413
570 2.43012 0.621461 2.22044 0.938497 1.59152 0.483316
121 10.033 0.166233 3.44677 -0.647355 0.679773 -0.58118
123 0.671075 0.961352 4.39401 0.141668 0.0236438 0.949229
185 9.89073 0.666459 4.43078 0.273537 0.131001 0.578766
76 10.251 1.75375 4.12791 1.89976 1.03029 0.5968
310 0.323377 2.75235 4.39242 -1.31367 -0.637132 0.500174
57 1.49795 2.73875 4.1206 1.03933 0.456641 -0.0683654
288 1.8351 3.56186 4.74208 0.121358 1.63366 0.482218
265 1.89805 1.97879 3.56312 0.303293 -0.253842 0.2042
652 2.54023 2.76366 4.69286 -2.22825 1.50792 -0.767639
436 2.70606 3.74124 4.00447 1.17411 -1.23461 0.363406
154 3.31433 1.74734 4.64423 1.92679 -1.02475 -0.486701
198 3.74221 2.51777 4.03032 1.62768 1.84567 -0.861046
179 3.87518 3.64324 3.96419 0.0993724 0.477186 -1.31957
322 4.92737 3.67778 5.23433 -0.676083 1.23648 1.26778
181 4.0369 2.50124 5.21426 2.16499 -0.483852 0.565427
13 5.38817 2.48671 5.34561 0.0192564 0.849824 -0.0473933
721 9.09898 2.32355 5.31827 0.408769 0.992606 0.9189
103 5.34251 2.94655 4.02183 0.681075 -0.961798 0.305279
245 5.79663 2.02444 4.42531 -0.987564 1.79005 0.923761
479 9.94203 3.97025 4.18681 0.0607098 0.604297 1.13768
327 6.94991 3.49147 4.35197 -0.518924 2.1564 0.448824
672 6.0898 3.82924 3.79795 1.23854 0.279682 -1.28092
241 8.20995 3.25399 4.27836 0.141315 2.21215 0.138181
229 3.09717 5.16918 1.10314 0.156119 0.640634 0.836768
734 9.17431 2.01647 4.0322 0.142532 0.272064 -0.20225
139 7.20046 5.17851 0.383107 1.24648 -0.587139 -0.138105
237 9.32053 3.06812 3.9128 -0.888952 -1.61033 -0.776563
737 9.97282 2.67849 4.68474 0.12865 0.242906 0.369562
174 0.650801 4.89884 4.10515 0.649934 0.529783 0.42695
526 0.486641 4.05876 4.9771 -0.432231 -0.731669 1.30944
484 0.87149 3.73593 3.85054 1.27108 -1.90235 0.78447
538 1.59155 4.46934 4.43603 -1.29718 0.103243 1.3112
426 3.50712 4.78268 3.0417 -1.32975 -0.772622 -0.624963
217 3.4337 5.09418 4.5379 -0.914071 2.51059 1.17405
226 4.28125 4.54568 4.99081 -0.115398 -1.06248 -0.0984386
40 2.45525 4.89418 3.77184 -0.249118 -1.74853 -2.31886
34 3.37772 3.28648 4.88412 -0.549189 -0.0799656 0.245823
204 5.15119 3.9442 4.00968 2.35696 0.647781 -2.23293
65 4.46796 5.14645 3.387 -0.62016 1.97962 0.192218
527 8.02472 5.1294 1.70563 -0.548281 0.132524 0.855325
684 6.52153 4.83344 4.15416 -1.03886 -1.5185 -1.40836
640 7.43612 4.4333 4.94791 1.20667 0.841242 0.892713
190 5.71735 4.18937 4.85763 0.793525 -0.104186 0.271252
112 7.38698 4.67987 3.4188 -0.408631 -0.0739148 -1.17128
135 8.24998 4.49317 4.41231 0.405206 -1.26629 0.023415
348 9.1942 3.48773 4.91402 0.120368 1.18326 -0.988719
354 9.20343 4.53869 4.75802 -0.729423 0.197323 0.637091
118 7.97902 0.303305 2.82263 0.804062 -1.6655 1.02093
49 0.102972 5.33712 0.406162 0.393204 -2.02524 -0.576153
367 1.15518 1.01271 6.78801 0.526963 0.0971369 0.15994
277 0.329263 1.25811 6.07705 1.68447 -0.76418 0.0868045
472 5.84433 0.20927 9.16399 1.82841 -0.667644 -1.4005
171 1.55914 1.60214 5.995 -0.409841 1.01427 0.101324
127 0.638205 1.94603 6.94858 0.634975 -0.672452 -0.361743
275 2.44121 1.07196 6.23677 -0.969011 -1.10591 -1.99099
337 2.69663 2.08098 5.62108 -0.671518 0.657159 0.171527
397 3.17958 4.43403 10.4329 0.0176723 1.46145 -2.86214
332 10.1921 0.336248 6.63153 0.326663 1.46398 0.840261
381 3.34695 1.05 5.77596 0.882917 -0.0305215 -0.697154
228 4.40006 0.868069 5.67969 -0.00510034 -0.0189305 -0.163699
685 3.91602 0.444062 7.37925 0.813025 -0.0794192 1.18999
824 4.21815 1.38658 6.68277 -0.028335 -0.172617 -0.768318
79 2.1085 0.671313 7.23373 0.713124 0.573205 -0.229197
751 4.82509 1.8642 5.85747 0.500676 0.132563 -2.28799
797 5.39971 0.449771 5.98963 -0.4662 0.999822 -0.0919482
341 8.8491 4.6713 9.68114 0.243206 -0.75849 1.12798
212 7.34653 1.02211 5.59993 -1.29264 0.779574 1.21535
279 6.42049 0.107001 6.18838 0.0215188 -0.251555 0.903861
162 10.3332 4.55726 10.546 -1.87471 -1.27905 -0.258111
736 6.16152 1.02197 7.27733 0.767649 -2.32352 1.59074
199 7.80367 0.0485712 6.13876 -1.18021 -0.275176 -0.603992
790 8.82952 0.497938 6.51077 0.86538 0.362526 -1.29191
706 7.9082 1.18985 6.63589 1.84725 -0.498936 -1.06108
124 8.50631 1.55483 7.48552 -0.983849 -0.96706 0.237644
393 9.84601 4.15807 9.68825 -0.526124 1.27019 0.720802
362 9.7913 1.19673 6.16197 0.188898 -0.313506 -1.7041
626 10.6334 1.23674 6.99799 -0.588763 -0.456605 0.534223
798 1.80135 5.28547 8.26948 -0.00483086 0.345029 0.180383
631 0.650536 2.96196 6.58786 -0.149432 -0.50941 0.337946
325 1.66726 2.59191 6.70694 -0.420803 0.83358 1.29288
151 4.13645 0.208329 9.63214 -2.34088 -0.135953 0.480198
69 2.48586 3.0576 7.63489 1.78548 0.371876 1.13152
223 1.94362 2.92287 5.64973 -0.263005 -0.148051 -1.41354
214 2.87186 3.76191 6.36474 -1.02312 -0.91702 0.303895
422 3.70376 2.14387 6.20079 -0.20902 0.619551 0.649769
727 3.98483 2.94713 6.89053 0.666764 -1.23481 -1.23153
320 2.92776 2.33723 6.98014 -0.38301 -0.235869 0.113213
376 5.5611 2.83762 7.12076 -1.04406 -0.064765 0.580069
514 4.64431 2.18435 7.30334 1.52046 0.764037 0.972225
843 5.91775 1.89263 6.54127 -0.370093 0.604798 -0.694883
763 4.79034 2.87563 6.10554 -0.625886 -0.21959 -0.649616
352 6.78769 2.84226 7.34692 -1.32182 -0.41206 -0.857235
335 6.37024 2.7538 6.15093 -0.0950492 -0.525644 -1.47986
475 7.19053 1.85151 6.26857 -0.233293 -3.05045 -0.596226
53 7.5203 3.49785 6.60798 -0.178882 -1.0601 1.11981
655 8.1483 1.65609 5.62444 1.04913 0.247713 -0.393869
756 8.12261 2.86878 5.8679 -2.14256 -1.45986 -0.537387
220 10.0877 2.15041 6.60282 0.449759 -0.352547 -0.437433
789 10.3264 2.82728 5.68449 0.232724 -0.301628 0.740517
786 8.87191 1.61683 6.3421 -1.7507 -0.872911 0.459115
750 5.82179 3.36567 10.1708 0.781351 -0.0983016 -0.398676
315 0.554195 3.2057 5.59619 -0.892473 1.97193 -0.419063
359 0.484817 4.37962 6.06466 -0.65727 0.216998 -0.480514
442 1.56266 4.49012 5.66532 0.0584983 0.583999 1.01623
435 1.94486 3.7143 6.77449 2.33505 -1.12145 -0.828342
860 6.83691 5.18721 9.46472 -0.350058 -1.58251 -1.08914
611 2.47179 4.63214 6.23381 -0.396741 0.601978 0.577448
100 5.63184 4.47555 10.5085 1.01931 -0.878856 -0.155108
48 0.24069 5.18304 9.77326 0.531468 -0.774471 0.824017
318 3.65321 4.51577 6.46063 0.394637 -2.45694 -1.6101
156 3.90996 3.61313 5.72712 0.497762 -1.13552 1.44343
512 4.36082 3.9644 7.06506 -0.712649 0.214221 0.407487
45 4.69161 4.31158 5.95804 0.574129 0.219915 -0.294892
89 4.31053 5.25911 6.79534 -0.89254 0.418417 0.3606
775 5.55212 5.04675 6.57947 -0.34543 1.3297 1.11136
294 6.55152 4.17047 7.0505 -0.510191 -1.14713 -0.681639
788 6.72449 3.8293 5.7719 -0.369551 0.554153 1.27066
594 7.54289 4.4409 6.09585 0.627665 -0.112835 -0.11043
592 8.49726 4.82712 6.06045 1.13951 -0.236149 -0.152239
438 8.39718 3.75646 7.38051 1.05134 -1.01957 1.22685
27 9.00014 4.51309 6.89109 -0.508262 -0.363605 0.709416
117 10.0163 0.965323 10.5795 -1.81514 0.682479 -0.62568
453 9.82729 5.16848 9.83022 -0.0321503 -0.591612 -0.800614
72 10.4174 3.60032 6.33137 -0.642446 -1.16803 -0.426395
567 6.29183 4.90621 5.77335 0.212685 -1.26681 2.07328
205 9.3393 3.55634 6.08792 0.338052 0.973013 0.320265
645 10.1752 4.63395 6.47063 0.108935 0.115892 -0.361566
239 0.709294 0.959782 7.80795 -1.05011 0.101327 -0.93041
767 1.63229 0.83173 9.03466 0.825203 -1.04464 -0.205121
298 2.96341 0.734246 7.8689 -0.764914 -0.0737301 -0.708335
87 5.55718 3.53122 6.11277 -1.36639 0.417305 1.2946
437 3.18662 1.2612 6.94897 1.62928 0.417143 0.377075
832 3.94657 0.533621 8.63578 0.457603 -0.811929 0.189491
368 3.71259 1.48633 7.95204 2.16696 0.559657 -0.60772
254 5.53145 0.119729 6.93336 1.01598 0.13836 0.0609613
54 4.85224 0.0164113 7.952 -1.29255 -1.64262 -1.52127
609 6.22956 1.01045 8.33351 1.2595 -0.692543 -0.369745
686 4.89829 0.610844 8.95456 -1.05993 -1.14414 2.10791
820 5.19325 1.20607 6.93143 0.496326 0.0337188 -1.48647
828 1.26241 0.274365 10.6627 0.0541309 0.4658 -0.387167
169 7.04764 1.53308 7.88336 -0.520301 0.487482 -0.660541
837 7.85616 0.802121 7.7477 0.386821 2.4389 -0.106953
606 3.04513 3.29201 10.3173 -0.0180018 -1.13123 -0.847943
238 10.4171 0.53619 7.89768 0.751368 0.282777 0.936156
25 9.43597 0.634624 7.3716 0.317772 -0.222552 0.306677
715 8.92884 1.08363 8.39884 -1.23259 1.26344 -0.0902847
385 10.4211 1.25399 8.5922 -1.41974 1.62492 0.682038
854 9.48638 1.82626 7.59714 0.737361 -0.16083 -1.21197
369 10.6841 1.91887 7.87413 -0.799656 0.451246 -1.67676
266 1.14408 1.80886 8.17527 -1.34447 -0.408239 0.20067
290 0.604631 2.75445 7.63137 0.471124 0.937771 1.91847
670 0.185854 2.53297 8.74398 -0.535303 0.481018 0.161414
517 2.05464 2.07704 7.71938 -0.501761 0.156727 -0.243488
673 1.54495 2.84474 8.09946 -1.29009 -1.80657 -0.201131
391 3.00261 2.40306 9.01579 -0.307507 1.34095 0.313095
1 4.61839 1.72967 8.20068 -0.0556137 -1.63511 0.742358
551 3.80435 2.65369 7.88065 0.81138 -2.64095 -0.525576
406 5.97197 2.02789 7.84981 0.672681 1.22553 1.93368
803 4.91247 3.20358 7.93541 0.418987 -1.0715 1.17497
372 6.04968 3.62634 8.15956 -2.441 2.52877 -2.50299
382 5.32418 2.94786 8.8931 0.359377 -0.517602 -0.195996
432 6.33826 2.73138 8.73608 0.714949 -0.361806 0.496604
483 7.46428 2.86303 8.31381 2.93428 0.385717 0.597798
230 6.6076 1.8287 9.12552 1.85303 0.311806 -0.0801705
473 8.1289 1.983 8.35121 -1.31978 0.144247 1.63552
209 7.7826 2.29028 6.99935 0.816076 0.678152 0.872389
388 8.92378 2.504 6.75048 1.25527 0.392888 -2.08817
735 8.77361 2.69541 7.95443 0.0347284 0.0936873 0.558846
384 10.1484 2.89205 8.1225 -0.00268513 0.110009 -0.405817
810 9.70283 3.24435 7.20206 0.235556 0.193673 1.40742
680 9.53559 3.51175 8.9331 1.7915 0.958909 -2.02532
93 10.587 3.79617 7.37611 -0.877274 -2.2954 0.730128
170 0.252045 4.93985 7.13836 0.429082 -1.58732 -0.527365
357 1.30476 4.54973 9.00049 0.96779 1.85236 -0.317484
779 0.798396 3.93139 8.14352 1.03108 0.461927 0.011793
286 1.16721 4.6831 7.53745 -0.852462 1.10817 0.933179
669 10.4248 5.0776 5.4759 -1.13753 -1.44637 0.215087
316 3.26145 3.73056 7.31058 -0.472169 0.69977 -0.0558074
208 2.15186 4.06572 8.01465 -1.34031 -1.56967 -0.349161
276 2.67965 4.86429 7.51094 -1.84941 -0.079099 -0.221388
757 3.96865 4.50467 7.82845 0.0537584 0.906792 0.366026
307 3.09254 3.29857 8.47627 -3.43058 0.868539 -0.478289
825 4.52206 5.31621 8.57764 0.475894 2.28994 1.30217
17 4.55218 4.19168 8.66155 -0.344029 0.0475145 -1.25295
581 5.0346 4.6737 7.93671 0.681392 1.65457 -0.309265
424 5.97552 4.70006 8.62474 1.5275 -0.483068 1.75702
344 5.9596 4.96044 7.55824 -0.624302 1.7255 -0.233487
813 7.66955 4.7708 7.24789 0.493705 -0.933657 -2.77148
781 5.42764 3.95426 7.21261 -1.04188 1.14914 -0.711448
145 6.98645 5.16364 8.32316 1.71641 -0.54308 -1.61895
33 7.77342 4.69951 9.64922 1.37988 0.0951716 -0.173131
142 7.3981 3.86755 7.72563 -1.01104 -2.87311 -1.53759
350 7.92423 4.62892 8.62392 -0.69319 -2.01683 0.433322
577 8.45247 3.6608 8.48836 -0.133195 0.333343 0.953139
329 8.57687 4.74958 7.77899 -0.529292 0.677229 -0.976249
769 9.56457 3.82069 7.94019 -2.40101 0.121139 0.499238
146 9.63875 4.85816 7.83699 -0.840048 1.43581 -0.614995
364 10.6987 4.6428 8.17685 0.0975711 -0.0511204 -1.30229
259 9.1735 4.83525 8.76805 0.0293941 0.488418 0.793265
392 0.0169942 1.818 10.7133 -0.50103 -0.420041 1.06257
524 0.396648 1.68859 9.46192 0.104953 0.982583 0.115655
219 1.04072 1.00713 9.8272 -1.88662 1.6142 -1.25055
377 10.7055 0.65194 9.49441 -1.08576 -0.126522 0.321912
718 9.03543 1.10341 5.42773 -0.19224 -0.170596 -0.571409
21 2.01189 0.575228 9.95928 -0.704737 -0.629432 1.01039
295 2.81406 0.526578 9.11263 -1.71951 -1.05769 0.0891857
8 2.19339 1.69176 9.54443 -0.583707 -0.180351 0.327746
416 2.91627 1.02287 10.1145 1.9392 -0.753919 -0.544059
659 8.15273 4.95621 10.503 -0.191587 -0.0538081 -0.142992
221 3.30792 1.31954 8.95281 1.00308 -1.08314 -0.1266
405 4.84954 1.35041 9.80233 0.884062 0.790686 1.04728
334 5.88871 0.163054 10.4163 0.838751 -1.14732 0.550596
264 9.09592 4.39913 10.6443 -0.760498 0.514503 -0.549023
666 7.93957 0.95632 8.77243 1.08872 0.984768 -0.0604349
430 5.98754 1.24113 9.78247 -0.817096 0.33154 1.34913
504 6.9617 0.698856 10.075 -0.208722 1.11236 -0.559869
28 7.98125 0.322154 9.74906 0.392611 -1.2503 1.93387
411 7.53232 1.61988 10.1039 -0.142492 0.266652 0.60687
408 8.61523 1.59847 9.65678 -2.21919 0.124429 0.346144
845 9.0539 0.738207 10.1423 -0.0999558 0.668152 -0.0708677
451 6.92252 4.31047 10.0704 -0.282471 1.02975 -0.404618
283 10.0457 1.91565 9.63973 0.88623 0.759461 -1.48537
386 9.31215 0.533248 9.19968 1.21476 -0.365598 0.3242
366 1.00039 3.26011 9.08961 -0.725275 0.106023 -0.572297
482 0.701123 2.65703 10.2644 -0.976373 0.552451 1.58008
313 1.52234 1.8477 10.4089 -0.14047 -0.160262 0.13787
55 2.39673 1.32366 8.455 0.709916 -0.523079 -2.10891
177 2.26494 2.90814 9.57649 0.561892 -0.444042 -1.87444
83 2.83987 2.04195 10.3202 -0.044293 -0.735486 -1.08716
292 4.05152 2.31728 8.90026 0.0353661 -2.25816 -1.10657
160 4.67787 2.42756 10.0199 -0.824219 -1.17288 1.22373
383 3.59569 3.25453 9.30508 0.751991 1.24824 0.359189
556 3.74096 1.81117 9.8155 -0.502679 0.777704 0.0950123
134 5.94873 2.28997 10.5384 2.12001 0.203501 -0.361114
390 5.44576 3.92266 9.2491 0.336512 0.910922 -0.15103
187 5.4917 1.89009 9.0144 -0.561337 0.301348 -0.239245
428 7.53656 3.45591 9.40789 0.914521 0.684364 2.39057
478 7.02765 2.62315 9.58264 -0.593668 0.146843 0.861068
431 6.91381 3.33691 10.3585 1.06159 -0.554358 2.07664
415 6.98963 4.10623 8.65318 -1.5974 -1.36405 -1.33629
289 8.30698 2.73502 9.03561 0.596758 0.586342 -1.36233
242 0.280142 0.687665 10.5 -0.109413 -0.309501 -0.531467
829 7.91322 2.8066 10.2929 0.666633 0.201117 -0.180229
588 8.688 3.59455 9.66414 -1.38521 0.783169 0.794182
51 9.19956 2.11254 10.6213 0.171442 -0.623792 -0.0598377
792 9.58675 2.26467 8.59861 -0.337449 0.362595 0.281085
580 9.31859 2.79047 9.70508 -1.501 -0.881946 1.27254
16 10.3384 2.73673 10.1571 -1.69002 -0.148049 0.235353
648 0.158445 3.6831 10.3695 0.887303 -0.797195 -1.0104
841 10.4847 3.35503 9.26504 -1.76089 -1.05516 -0.766843
505 0.655403 0.316264 8.72769 0.563514 0.708237 0.0861556
553 1.35619 3.88293 9.85085 -0.447503 -0.278187 0.624851
445 0.376633 4.1662 9.43025 -1.35973 -0.110747 -0.0688617
305 6.75328 0.68997 9.03697 0.232747 1.89247 -0.744487
68 3.06542 5.07072 9.09647 1.50484 -0.0808151 0.768647
141 2.45615 4.46774 9.70256 0.392914 -0.243919 0.0808671
799 1.49261 5.04811 10.3271 -1.59976 0.570365 -0.421312
699 9.47833 0.206114 5.78495 -0.0258666 -1.62401 0.13486
541 3.86355 4.50965 9.71009 1.80867 0.271818 0.459472
42 4.63545 3.77564 10.2335 -1.63801 -0.369205 1.57048
682 2.16855 0.276758 5.38987 -1.02396 -0.0448536 0.0461444
641 7.28248 0.427747 6.97662 -0.304105 0.529618 -0.669569
561 4.95966 4.78223 9.51861 0.11297 0.939331 0.58189
203 6.63988 1.83454 5.38011 -1.00836 0.440777 0.039292
613 4.71757 0.552999 10.6935 1.14449 -1.27534 -0.643029
18 9.2052 0.0147796 8.19786 -0.303902 0.761098 1.04489
502 6.12514 0.0423646 7.90048 0.865614 1.11571 -1.19598
557 7.79705 3.95071 10.666 0.209017 0.601426 -1.82168
256 0.534104 0.0222447 6.09721 -2.47226 1.7406 -0.979739
427 1.38053 6.15968 1.18341 0.918445 0.658739 0.809208
531 0.0300691 7.11248 2.04676 -1.08965 0.756686 0.840874
413 2.21547 7.58737 0.512155 -1.46482 2.226 2.28092
793 2.69078 6.53662 1.87625 -1.76441 0.92853 -0.0838501
71 6.63599 8.29595 5.08034 -0.258672 -0.080125 -0.00911156
658 1.89106 5.6861 0.390792 -0.231317 0.503296 1.05429
665 4.99536 5.70891 2.07787 0.740729 -1.48038 -0.742696
43 3.88086 6.49791 2.616 0.0300131 -1.06322 0.0485326
470 3.70179 6.21654 1.12591 1.82928 1.19331 0.488213
443 5.72868 6.42374 1.69894 -2.49179 -0.381018 0.805501
380 5.28871 6.40872 0.651826 0.0861443 0.676346 0.791828
520 10.5079 10.2959 4.92701 0.971282 0.158267 0.181001
812 6.47309 6.58011 0.952725 0.0574043 3.08857 -0.736491
620 7.28318 6.44725 1.57068 -2.13551 0.294201 0.445757
409 7.48403 6.17143 0.329756 0.851677 -1.3358 -0.224891
271 8.42561 6.78375 1.20178 -1.25329 -0.256654 -1.60972
585 4.4643 7.1772 5.15349 -1.55062 0.569839 -0.368757
545 9.25268 6.07743 0.675752 0.248129 0.477647 -0.431503
486 9.36808 10.7048 1.524 0.627853 -0.460678 0.130704
840 10.5306 6.13207 1.04468 -1.29206 0.284697 0.469994
618 4.01095 5.50324 2.46159 0.335384 -0.00243319 -0.345263
101 0.642587 8.8814 0.375051 -0.260056 -0.553633 -1.64942
463 0.489616 6.5255 0.38806 0.119025 -0.989871 -1.7147
448 0.30351 8.04903 1.1374 0.0473729 -1.34839 -0.40457
232 2.81671 7.87196 1.647 -0.232142 0.660934 0.0429054
574 3.05334 8.16507 0.631799 -0.344542 2.57242 1.97491
467 2.6842 8.98261 1.38052 1.46697 0.744391 2.623
739 1.60003 8.49314 0.667899 0.280076 0.122756 0.569022
778 1.13006 7.33505 0.748293 -0.407545 -0.487585 -1.90409
447 8.37712 10.0896 2.29151 1.02478 -1.07162 2.67362
534 4.53402 7.46383 1.1066 0.274604 -0.0765761 -0.0779314
489 4.10316 8.41789 1.03051 0.765932 -0.303873 0.419003
460 5.37268 7.44395 0.396577 1.19059 -1.08662 -0.894523
730 5.07727 8.50358 0.726897 2.1869 1.41889 -0.689791
240 5.43345 7.75227 2.03405 -0.930587 -0.0565048 1.2844
510 4.77693 8.53202 1.85346 1.2629 0.405089 0.320098
572 7.33716 7.575 1.32806 -1.51618 0.759595 0.852455
784 7.78463 8.4485 1.80156 -1.3329 -0.38186 0.0532887
47 6.67205 7.9195 0.413671 -1.4439 0.714413 -0.562447
488 6.3729 8.02047 1.43833 0.745488 0.39378 1.12946
150 8.28758 8.65386 0.711058 -0.620884 0.264197 -2.11477
172 8.49635 7.82675 1.32161 0.822404 0.408299 0.276672
811 7.91935 7.28891 0.315035 -0.884037 0.441223 0.190795
696 7.86596 10.5638 4.2491 1.56234 -0.50447 0.653953
744 9.53651 8.79355 0.538755 0.212015 0.00993914 -0.0932981
222 8.89751 7.86702 0.248386 0.568371 0.182783 1.17253
168 10.1651 8.77925 1.88292 1.51665 0.24475 1.0348
213 10.063 7.38075 1.06322 -1.57409 0.372321 1.10784
461 1.73024 10.3441 0.699834 0.972258 0.466448 -0.688402
246 0.414952 9.96758 0.97796 0.834423 -0.448836 0.701392
122 0.548224 10.0367 2.42259 -0.035012 -1.18318 -1.55933
446 2.48455 9.28447 0.478267 -0.110174 -0.539261 0.930879
109 1.27852 9.69373 1.51461 -0.717866 -0.627175 0.711389
78 2.85023 10.03 1.13865 0.583767 0.924664 1.38056
533 3.53595 9.21516 0.889134 1.00118 -1.20535 -0.0643282
663 4.70329 9.57496 1.10796 -0.131807 -1.27559 1.46965
157 4.05641 10.3005 1.25986 -1.07158 -1.34319 -0.241698
777 3.91279 9.41706 2.10672 0.250936 -0.598164 2.0702
576 8.8581 9.51175 4.77893 0.0599415 0.0139909 -1.00476
852 5.68286 9.43215 1.56751 0.20982 0.212132 -0.854427
423 6.27839 8.81426 0.675054 0.41869 0.953139 -1.90741
414 5.81993 9.76964 0.365027 0.256658 -0.328824 -0.54672
14 7.26494 8.5158 0.987779 -0.849055 0.0428833 -0.227389
690 6.73169 10.0125 0.842556 0.602709 0.560994 0.422182
374 7.62862 9.35057 0.135213 1.47076 -1.13473 -0.614804
831 7.56783 9.56482 1.1723 1.22658 0.170682 0.0726962
361 5.90826 10.4563 1.65073 1.0469 -1.68985 1.17036
709 6.72687 10.7141 2.2107 -0.969905 0.30306 -2.08713
343 8.19528 10.5014 1.04962 -0.278152 -0.524025 0.358805
458 9.28716 9.7035 1.71434 -0.23108 -0.93176 1.55701
560 10.4831 8.96324 0.863667 -0.24834 -1.34124 -2.7644
387 10.3329 10.1645 1.69065 0.914751 0.054503 1.74162
740 9.47959 9.95918 0.51284 0.0232754 -0.0489752 0.697562
578 0.191481 6.57946 5.00001 -0.26282 1.9666 0.574802
282 9.29539 5.6727 1.73744 -0.145329 1.38853 2.78662
90 0.346335 5.8693 2.24684 0.15309 -1.61864 -1.0321
846 1.78062 6.43127 2.51664 0.0240421 1.08267 -0.170045
847 1.53052 5.52067 3.41566 1.54165 0.0792951 -1.04871
471 2.41015 5.82415 3.76594 -0.154839 1.39136 0.34908
62 2.84925 6.6888 3.01114 -1.90871 2.56969 1.18609
858 4.88908 7.4356 3.14684 1.89585 1.82659 -0.549798
351 6.58036 6.1909 2.47872 2.37783 -0.908449 -0.773174
579 6.50781 5.47037 3.17038 -0.0135595 -0.89402 -0.600213
598 7.49158 6.71104 2.7959 -0.111866 1.07585 0.725152
260 9.49579 9.29169 3.80988 0.254849 2.14786 0.869796
210 8.30468 6.02317 2.20848 -1.16186 -0.455907 -2.17182
528 8.07369 7.20765 2.1748 -0.292092 0.0597889 -0.201362
822 9.31076 6.69084 2.08233 0.271481 -0.0470455 -0.417214
809 9.83953 5.83919 2.71251 -1.31683 -0.838274 -0.693841
434 0.639051 7.63202 2.71001 0.308267 0.710104 0.109393
98 1.56908 8.26116 2.99866 0.613806 -1.35498 0.254735
765 1.09727 8.39938 1.87496 -1.5667 -1.45633 -0.907255
529 1.36631 7.29793 1.79703 -1.08069 -0.469585 -1.88561
218 2.44695 8.23878 2.49896 0.826744 1.38609 -1.51209
180 2.94351 8.70743 3.47423 -0.0150694 0.911819 -0.774234
629 3.78008 7.26197 1.80909 1.49906 -1.61436 -2.88813
12 4.83223 6.85432 2.16198 -0.605891 -0.658259 -0.941343
29 2.88344 9.16105 2.43929 -0.388364 -0.676853 -0.0196468
129 4.34097 8.17071 2.59999 -0.235104 -0.194938 1.01987
459 5.9208 7.5335 3.31545 -1.21244 1.56979 1.23229
166 5.24131 8.42053 2.99465 -0.0523033 1.81153 -1.3759
105 6.9017 7.49153 2.35444 0.979298 -0.688515 2.33628
148 7.85804 8.08685 2.82282 1.60541 -0.134884 -0.359827
485 6.77233 8.50811 2.77425 -0.531264 -1.04421 -2.26589
616 7.40798 7.16415 3.73485 0.11281 0.598484 -0.269213
186 8.80893 7.18339 3.04783 -0.179082 -0.850426 0.39459
143 8.7323 8.78894 1.75346 -1.52229 1.02908 -1.09205
552 9.21866 8.06015 3.34181 -0.61156 0.593149 -0.936868