ITEM: TIMESTEP
51700
ITEM: NUMBER OF ATOMS
864
ITEM: BOX BOUNDS pp pp pp
0.0000000000000000e+00 1.0726842421158810e+01
0.0000000000000000e+00 1.0726842421158810e+01
0.0000000000000000e+00 1.0726842421158810e+01
ITEM: ATOMS id x y z vx vy vz
242 0.838302 1.56023 1.45541 2.10259 -0.54515 1.34671
557 7.81038 3.17661 0.031634 1.64394 -0.417442 -0.477858
526 8.62626 3.77524 4.44884 0.782466 0.672962 -0.247602
195 1.50618 0.571486 1.25854 1.01559 2.68872 1.09647
466 0.24777 1.32201 0.411728 0.669976 -1.13182 -0.448724
828 2.04487 0.393452 2.11387 -0.219344 0.219642 0.670903
474 7.94879 0.0418459 1.60324 2.11836 0.684958 2.74436
524 2.48368 1.4447 0.29431 -0.318267 2.73754 0.860424
141 1.38314 1.19951 0.329675 -0.389109 0.72608 -0.304008
570 1.9917 1.54215 1.2955 0.207935 2.6036 0.850553
395 3.56537 0.972943 0.571504 -0.0799764 -0.966002 0.125669
405 3.85704 1.71777 1.55874 -0.365734 -0.549036 -0.979994
587 4.8636 0.733002 1.88774 1.78842 0.8768 0.277018
197 4.7631 0.691874 0.7925 -2.19629 0.372379 -0.865326
296 5.4372 1.51534 1.72357 -1.33748 -0.655974 1.16576
774 6.80738 1.31267 0.375368 -1.118 -1.01105 -0.66131
394 7.70419 1.23811 2.05736 -1.38945 0.644637 0.749587
602 7.76874 1.14115 0.802664 -0.209218 -1.22561 0.235077
374 8.80819 0.738404 0.687901 -1.37559 0.0177169 -0.629668
104 9.74345 1.76669 0.72457 -1.70557 0.914481 0.241563
492 10.0909 0.425572 0.839744 1.08212 -0.188604 -0.60656
113 10.4759 1.21866 1.43148 -1.17746 1.10866 -1.16529
135 6.38492 5.35367 3.05673 -0.0368378 -0.0565115 -1.01596
559 1.58643 2.60516 1.29031 0.562378 0.579681 0.966502
670 1.05801 2.16237 0.342278 2.94357 0.798432 -1.49189
403 9.97537 5.33253 0.420999 -0.212757 1.29757 0.165299
674 2.02206 3.72534 1.26946 0.137034 -0.348265 0.703649
461 3.23097 2.06955 0.699967 -2.45026 0.299069 1.16145
274 2.95566 3.34857 1.29739 0.111553 0.680351 -1.79238
100 3.66943 3.81256 0.758904 -0.881891 -0.562087 -0.488244
206 4.32589 2.35436 0.98628 -0.963108 1.07138 1.56632
138 5.27372 1.5692 0.621322 0.671912 -2.52803 -2.20719
379 7.26954 2.05447 1.4341 1.23651 -0.734977 1.07466
382 7.05507 2.96676 0.809972 0.54692 1.05763 0.630654
231 6.15634 2.00362 1.1348 -1.08896 0.278182 1.64552
282 6.30798 2.95186 1.84311 -2.58559 0.297658 -0.688828
624 8.09064 2.87048 1.08522 -1.07446 -0.2728 -2.06956
97 8.85612 3.41557 0.532902 2.18207 -1.61819 -0.377933
41 8.5888 1.9466 0.832386 0.581426 2.94517 -0.783598
313 0.0882624 2.46167 1.07213 -0.792862 -0.291937 -1.40718
595 9.26934 2.80605 1.31654 0.55695 -0.667944 0.336743
132 10.2312 3.04477 0.462349 0.321233 0.549359 0.69732
16 9.4442 2.50251 0.0671834 0.0489649 -0.770715 -0.159348
38 1.45612 4.00938 0.451084 0.105314 -1.48569 -0.760475
598 5.47486 4.71015 1.46462 1.13421 -1.15448 -0.191796
176 0.817256 5.11583 0.707135 1.50353 0.445941 -0.42578
639 0.529826 4.62014 1.67264 0.633911 1.71283 0.383808
49 1.76583 4.71729 1.94694 0.17358 0.188011 -0.645695
535 2.16847 4.77221 0.909574 0.733118 0.92394 2.2666
546 0.925193 3.67637 1.46014 0.312308 -1.44968 -2.78025
586 2.67894 4.45722 0.0615999 0.125149 1.078 1.08082
618 3.90489 4.33429 1.81442 -0.251356 -0.965051 1.65607
397 3.47128 4.86205 0.977986 -1.31838 -0.545977 0.598372
620 4.59218 4.42525 0.852295 -0.300159 0.508518 0.543213
740 8.36171 0.204381 2.56272 -0.48466 -0.949615 -0.366265
579 4.0529 4.99881 2.77544 -0.868783 -0.389515 0.920107
300 5.01288 2.90782 0.522431 0.201607 -1.84926 -1.03023
112 5.978 3.99567 2.06861 -0.844401 -0.382742 0.310274
5 6.7876 3.93347 1.22714 -1.11053 -0.571062 -1.09725
572 6.8868 4.17575 0.0899266 0.545942 -0.300094 -0.435357
543 7.42726 4.87561 1.58419 0.757521 0.108591 0.0440194
468 7.95824 4.09752 0.277557 0.266705 1.33691 -0.020791
278 8.75393 4.38138 1.26488 -0.160623 -0.652164 -2.13887
530 10.014 4.9786 1.46057 -0.443787 -0.823485 1.59242
99 9.72542 3.72492 1.18958 -0.975114 1.80138 -1.07323
366 0.193884 4.14134 0.686986 0.855105 -0.542678 -0.142905
827 0.738493 0.530029 2.15643 1.47412 -1.82589 0.313444
549 0.974343 1.14031 3.05414 -0.788396 1.30642 -0.00909489
224 10.5989 1.13665 2.56763 -0.218526 1.26695 -0.536952
615 0.707084 0.348655 3.63491 1.18332 0.0745436 0.970552
669 9.79314 4.58189 4.04122 1.69546 -1.02785 -0.429168
161 2.87747 0.320938 3.01413 -0.555792 -0.66875 -0.147297
84 2.39258 1.7712 2.62859 -1.33764 0.825072 0.421618
371 3.17365 0.73726 1.50295 0.636244 0.391602 -0.812645
801 3.53285 2.0502 3.08774 -1.27629 0.909567 2.09698
109 3.9338 0.512582 2.47655 -1.13485 0.313957 0.212231
709 5.91861 0.452595 2.24317 -0.539601 -1.31031 -0.49736
119 6.54809 1.19101 1.98822 -1.21718 1.64753 -0.212974
42 4.2452 1.55683 0.0782754 2.85777 -0.546877 -1.19942
521 6.34542 0.941355 3.0177 -1.29227 0.717092 -1.45776
550 7.34979 1.74562 2.9322 -0.404541 0.874352 0.417685
614 6.97191 0.573836 1.32542 0.0559167 -0.941455 1.38785
77 8.48297 1.19086 2.83345 -0.550179 -0.837653 -0.119047
417 9.29128 0.394023 3.21746 -0.826307 -0.260225 1.44032
465 8.71716 0.661718 1.66287 -0.270885 -0.160235 -1.52366
236 9.54503 1.16456 2.61456 0.0754573 -0.565742 -0.10847
497 10.2764 0.130707 3.45372 1.44078 -0.516898 0.660426
252 0.129448 2.83798 3.03312 -1.06716 -0.629974 -0.314754
741 0.887573 2.45907 2.37276 0.789399 -0.530746 -0.387132
131 0.502105 3.62795 2.36861 -0.611134 -0.493437 -0.0325092
396 2.51215 2.50061 1.9241 2.29822 -0.0552514 1.11655
103 1.25205 2.16398 3.44931 -0.375052 0.481962 -1.87611
630 2.37803 2.81751 3.05169 -1.58582 -0.866097 -0.350006
665 2.61418 3.87858 2.19119 0.952226 0.68126 -0.799951
480 3.34579 3.01974 2.47834 -1.27649 0.649555 0.332287
188 4.58539 3.44342 1.49523 -1.14905 1.32873 -2.09078
139 5.21695 2.62881 1.64826 0.721491 0.536764 0.363183
717 4.6779 1.65309 2.49733 0.769795 -0.818531 -0.102575
389 5.89233 2.05945 2.58931 -0.0441056 -0.196309 -0.854022
204 5.08779 3.73098 3.89797 -0.39791 1.04671 -0.484258
102 4.37072 2.71363 2.41283 0.535806 -1.08166 0.805921
216 6.69297 3.38246 2.74783 1.01833 -0.926649 -1.98136
787 7.15773 2.49657 2.35178 -0.113211 0.14715 0.301245
201 7.83367 3.14908 3.01841 0.310556 0.237036 -0.726744
235 7.603 3.26219 1.88683 0.299824 -0.34459 1.67195
257 8.76296 2.07607 3.15702 1.45833 -0.170519 -0.174345
117 8.36561 2.39307 2.05349 -0.915142 -0.683334 0.374316
519 8.70199 2.93997 3.7782 1.47709 -1.52304 -0.200463
547 9.95198 2.14821 2.07982 -0.41362 1.32886 0.041027
281 9.72962 2.40968 3.13194 1.06745 0.698865 1.47769
36 9.05757 1.59933 1.72517 0.261969 1.03868 -0.500067
440 9.82765 3.26619 2.32585 -0.86534 -0.588801 0.495327
555 8.611 3.46037 1.93091 0.871875 2.42882 -0.225352
160 7.45562 2.02727 0.271293 -0.708541 1.19812 0.526612
754 10.5525 3.77471 3.2634 -0.878519 0.16769 0.13107
708 1.52664 3.37322 3.29844 -0.247066 0.74259 -0.99341
178 0.801684 4.48318 2.79095 -0.453519 0.827 -2.27453
243 1.59326 3.35947 2.22082 -0.552737 0.0566719 -2.45835
61 1.99431 4.28764 3.06967 -0.367961 -1.03615 0.937705
40 10.7254 4.76258 3.44176 -0.90315 -0.976937 1.01764
657 4.30237 3.68839 2.86853 0.321826 -0.313181 0.808911
610 5.36312 3.43439 2.80955 -0.0819137 1.28921 -1.38521
452 4.82001 4.17371 2.14839 0.229269 -0.293808 0.544678
46 5.57984 4.55765 3.0065 -0.918927 -0.814092 0.482778
596 7.09027 4.49438 2.72204 -0.583043 1.15115 0.217196
191 8.69499 4.85514 3.65163 -0.442227 -0.308369 -0.276439
695 9.30614 4.95298 2.57086 -1.04514 0.32723 0.0724033
527 8.36742 4.68957 2.35292 1.12603 1.30356 -0.314566
734 9.87089 4.92595 5.08104 0.318736 1.25263 -1.36282
416 2.31695 2.65992 0.163658 -0.00981401 -0.29659 0.903373
200 10.3238 4.19203 2.16565 -0.90343 2.66118 -0.40861
482 0.801271 0.324422 0.498265 -0.927662 -1.19423 0.301475
237 9.4502 4.10799 3.25846 -0.673782 -1.83004 1.05533
226 4.20807 5.34734 1.66597 1.55645 1.79696 1.59174
439 1.47896 0.235353 4.73427 1.66277 -0.776279 -0.59457
85 0.85876 1.10989 4.36634 1.16359 1.54707 -1.19112
121 1.92323 0.524745 3.70005 -0.431474 1.17308 -0.312497
57 2.40287 1.64102 3.73783 0.14507 -0.410142 -1.16644
265 2.51749 0.481173 5.08546 2.35225 -0.949676 1.1227
503 1.90503 1.17401 4.53894 1.05493 1.37444 -1.30987
152 3.09913 1.41865 4.87278 0.486039 1.12259 1.19276
297 4.47495 1.90318 3.56399 0.692909 -0.595676 0.802959
498 3.36506 1.0348 3.79194 -0.040277 1.14616 -0.377064
494 4.46626 0.988496 4.25615 0.516622 0.303518 0.894047
682 3.48606 0.515454 5.20931 1.29101 -0.768316 -0.346498
198 4.73555 0.583335 3.2459 0.0156045 -1.2116 -1.05
87 5.67388 1.55528 3.61531 -0.455508 0.050976 -1.55596
688 6.14848 0.58306 4.22224 1.1554 0.822547 0.984767
319 5.21774 0.813173 5.10932 -0.965998 0.694777 1.24769
520 8.14523 0.436722 3.49529 0.0350016 -0.941628 1.56894
565 7.55386 1.46012 4.652 1.24874 -1.38038 -0.710982
115 6.94884 1.1535 3.89501 -2.12256 -0.0139669 0.0280054
185 9.31008 0.849384 4.64524 -2.36797 0.40555 -0.515107
699 8.24109 0.382027 4.5879 -0.797528 0.0301968 -0.93118
2 8.41381 1.30694 4.1449 -0.699871 0.368608 -0.310323
680 9.54281 4.25535 0.176262 1.04356 -2.35771 0.765456
123 0.0869135 1.23125 3.61662 -1.10373 1.72193 0.673302
255 9.68274 1.45829 3.58693 2.40543 -1.83705 -0.53351
118 10.4254 0.760287 4.41 0.548821 0.292522 -0.663312
202 0.137262 2.12399 4.81009 1.30316 -0.438351 1.46404
177 2.02841 0.448453 0.110288 0.234753 1.40744 1.53561
436 0.788635 2.94705 4.33359 0.139438 -2.41394 0.829941
429 1.88821 2.70149 4.0474 0.454774 0.969347 1.27867
192 1.47357 2.00966 4.70437 1.95377 2.17026 -0.732841
248 1.88682 3.68031 4.63769 1.18146 -0.582579 -1.24209
189 2.50907 2.84968 4.8955 0.91594 1.19767 -0.363803
721 7.18337 2.27455 5.21865 -1.49143 -1.86486 -0.194173
442 2.8682 3.83252 4.41761 -0.0612708 1.34047 -1.3494
179 2.95636 3.93959 3.33729 -1.06583 1.04123 -1.43568
776 3.78868 3.85498 4.10268 0.909512 0.351894 0.163837
34 3.64804 3.11336 5.14279 -0.407611 -0.542984 -0.988594
273 3.22242 2.91999 3.66492 0.805137 -0.0247982 0.430615
365 3.55818 2.19041 4.31504 -1.07857 0.316116 -1.11488
327 7.55994 4.69666 5.02668 -1.31672 0.0707143 1.04106
157 4.34322 2.80687 4.25728 -1.36739 0.0971131 -0.216329
181 5.73547 2.66539 4.75704 -0.010455 0.702974 -1.24068
149 5.28203 2.45301 3.36635 0.372031 -1.66754 -0.394155
26 6.56004 2.29787 3.37469 1.02703 -1.36578 1.47179
241 7.79298 2.12484 3.81142 0.810569 -0.223719 0.84113
594 6.78537 3.34893 5.2684 -1.44851 -0.257053 -0.184309
348 6.62745 1.98392 4.46579 -0.959852 0.449791 -0.567065
338 5.3714 4.62973 5.08479 0.149289 0.00317905 -0.298885
92 7.44473 3.08826 4.46471 -0.69308 0.149168 0.626788
74 9.30198 2.44821 4.54595 0.742865 -1.19137 -0.28586
76 8.78914 2.86034 5.25016 -1.35446 -0.492246 -0.365262
444 10.2947 2.69385 3.98096 -2.02727 -0.363258 -0.075276
158 10.2242 2.9426 5.14181 -0.760726 -2.06183 -1.50152
450 0.264488 4.76479 4.53134 -0.143401 -0.636994 -0.369306
249 0.418411 1.36712 5.32384 0.752045 1.49457 -0.570668
809 0.837193 3.92759 3.78287 -0.0500488 0.664173 -1.24687
518 5.95942 2.11728 0.00289944 0.92472 -0.0111334 -0.180634
752 2.13107 4.57396 4.01975 -0.965901 1.33825 -0.429482
312 4.27936 4.54447 4.89294 -0.972197 0.343558 -0.330438
182 4.48043 4.60806 3.72128 -1.19139 -1.84311 -1.50592
310 0.404592 3.80854 4.81851 -0.560227 -0.344079 -0.579154
14 8.11808 0.0504478 0.335875 0.951711 0.664374 -1.05213
322 4.41937 2.13151 5.05794 -0.105241 -1.32988 0.449347
154 4.86747 3.63507 4.91703 -0.417001 0.11904 -2.5045
422 3.53803 4.86471 4.07759 1.27208 0.281574 0.606415
280 5.62827 4.87963 4.11261 -0.664084 -1.09107 -0.00538803
13 5.98713 3.78313 4.57157 0.48272 -0.413235 1.70063
645 10.1107 3.84333 4.57464 -1.12905 -0.105658 0.163015
684 6.6744 4.53777 4.48341 -0.798879 -0.851834 0.0519002
60 3.32078 3.04747 0.129194 0.201907 -1.44227 0.894466
633 6.40898 3.86659 3.66359 1.73989 -0.999061 0.735985
438 7.9553 3.60137 5.23602 -0.014336 -1.72475 -0.44277
335 7.465 4.48031 3.77638 -0.0587341 0.82924 -1.16061
66 6.00977 3.61574 0.434854 -0.764244 -1.72801 0.0726715
210 5.53828 4.63873 0.381379 1.23888 -0.492889 -0.469484
516 6.42453 4.90868 0.958931 -2.52559 -0.134019 0.188141
106 7.25915 0.283425 2.80781 0.782292 -0.0371976 -0.464538
90 10.2661 5.35449 2.3936 1.17001 -0.119536 0.831375
842 2.57315 0.0144128 1.0465 -1.39162 1.39936 -0.461228
247 1.20674 1.71526 5.84525 -0.479615 -1.50719 -0.628572
820 4.97956 0.0804233 6.05931 -0.486565 1.62909 -0.0181346
193 1.23326 0.418101 7.94907 0.226389 -0.197518 2.32246
761 9.07551 0.460536 8.88959 -0.425625 -0.0716006 -0.322974
228 2.14623 0.234388 6.80295 0.393148 0.538909 1.00876
729 0.679418 0.994722 6.53717 -0.997925 1.18118 0.445991
517 2.75767 1.51509 6.76302 -1.06555 0.695277 -0.283511
619 2.28622 1.19666 5.88375 1.10928 0.0253109 1.29748
479 1.90671 4.54849 6.69319 -1.53584 -0.984577 2.77272
301 4.16107 0.956562 6.77592 -1.88699 0.339231 0.746595
652 3.47967 1.2138 6.06395 0.0355649 -0.350196 0.161258
843 4.59536 1.3285 5.90904 0.523649 -0.842426 -0.468186
212 6.04718 1.48646 6.56838 1.29332 1.85893 0.00196269
706 6.63092 0.287368 6.27149 0.649106 -1.71131 0.124534
116 6.86921 1.3382 5.46658 -0.0437068 0.821891 -1.87001
659 7.64382 5.00699 10.3735 -0.706756 -1.04977 1.08767
735 7.26708 0.768944 6.9035 0.196456 -0.0960128 -0.281776
715 7.83736 0.855769 5.6821 -0.325738 -0.662095 -0.609833
837 8.47114 0.526524 6.49007 1.00852 0.84172 -0.294915
64 10.2576 0.736936 10.5604 0.0654049 -0.885614 0.261041
239 8.95952 0.713913 5.6604 0.303221 1.28406 -0.372407
491 8.50765 4.9782 7.30492 2.19772 -0.193695 1.33676
705 10.1985 1.77634 5.6594 -0.260526 0.75104 -0.992623
238 9.92982 1.38341 6.91419 1.60708 0.358917 1.44428
256 10.3989 0.725819 5.44556 -0.115169 0.0573897 1.7335
69 1.31734 2.7728 6.48467 -0.164765 -0.0180969 0.65382
37 0.233119 3.0273 6.96029 0.147509 -0.705423 0.623385
10 1.74085 3.82735 5.69008 -1.49682 1.37963 1.66379
79 2.30246 2.31413 5.77161 0.440673 1.82603 0.62318
275 2.71183 3.51803 5.6072 0.665269 -0.970695 -1.71604
223 2.77472 2.54882 7.00373 -0.263286 -1.89982 -1.96486
19 4.64134 2.13703 6.76338 -0.367028 0.970174 1.15634
320 3.44048 3.33263 6.23169 2.19731 -0.15106 1.26364
250 3.35084 2.3365 5.71439 1.64717 -0.0805923 0.346406
512 4.30038 3.29569 7.22812 -2.32793 -1.62835 0.365938
392 1.8579 0.335855 8.93655 1.12443 1.9 -1.21027
824 5.28464 3.08023 6.75912 0.942682 0.523012 0.777103
475 5.103 2.42006 5.86957 -0.239787 0.353677 -1.40356
124 7.08001 1.71923 6.3983 0.390105 0.245084 -0.794787
410 0.174837 5.12521 7.93184 -1.21143 -1.25229 0.437507
718 7.41014 3.12009 6.77989 -0.347933 0.5306 0.227336
169 6.32393 3.45474 6.37511 -1.23306 -0.0585898 -1.65347
807 8.96704 1.51167 6.40128 -0.855929 -2.01191 -1.2275
769 8.9741 4.13515 9.18385 0.601909 -1.32341 -0.38872
786 8.43557 3.40461 6.33673 0.570413 0.0439092 0.410429
330 0.344526 2.52862 5.74433 0.626905 -0.619699 1.09381
127 9.48818 2.56069 5.79212 -1.60332 1.09407 0.108106
220 10.4568 3.42436 6.10071 2.69219 0.727774 -0.288171
369 10.0446 2.44053 6.65969 1.6277 -0.585093 -0.0704455
759 0.895504 3.80398 6.55762 0.389863 -0.946757 0.064051
655 8.17499 2.09432 5.77269 0.0493918 -1.46403 -0.293135
592 0.269556 4.69544 6.56455 -0.248309 -0.440772 1.02325
393 9.23899 3.52423 10.2146 -0.773788 -0.164231 0.760171
675 1.34673 0.774284 5.55078 0.922202 -1.1249 0.511769
359 2.08806 3.58442 6.75392 -0.758978 -0.701934 0.915938
318 3.01207 3.93179 6.90434 -0.394406 -0.111987 1.41129
45 3.01752 5.17791 6.24809 1.22119 1.3353 1.95165
647 3.91605 4.88884 6.88578 0.0600138 -0.2746 0.766388
190 4.56485 4.92689 5.79871 2.01279 -0.605791 -0.318796
156 3.65835 4.34701 5.82085 0.554198 0.870991 1.23122
352 4.70031 3.88882 6.34344 0.388725 -2.24333 0.210249
376 5.81528 4.46088 6.48003 1.10755 -0.770246 0.172949
693 9.26326 5.15166 9.8545 -1.05382 0.145427 0.381308
643 10.0842 0.145495 6.76124 0.553572 -0.0949654 0.267414
672 5.66408 3.32038 5.50901 0.65474 -1.25124 0.675416
145 6.87549 5.09772 6.48196 -0.710906 1.03738 1.03322
142 7.45988 4.21974 6.15641 0.431545 1.03488 0.832411
763 6.40888 4.34966 5.51646 1.17442 0.277864 -1.15209
505 2.24599 0.105326 7.84718 2.10333 -1.1591 0.479129
27 8.54551 4.60192 6.22273 0.0967741 0.382126 -0.210211
613 4.4791 0.414027 10.4115 -0.520574 2.22179 0.0994915
294 7.85694 5.35541 5.86625 0.343422 0.435153 0.763094
632 10.1489 5.10498 6.23257 -1.77594 0.515859 0.215979
737 9.64961 4.16143 6.26077 0.386195 -0.307325 1.11922
653 10.6711 4.43995 5.49711 -0.76878 1.11959 -0.678063
789 9.98622 3.56434 7.06798 -1.20049 0.453387 2.66864
726 7.08418 5.02858 9.52035 -0.973464 0.635292 0.0551314
55 0.397842 2.13958 6.60191 0.824982 1.18586 -0.551311
628 0.518358 1.19852 8.0296 -1.42628 0.301847 -1.12113
283 0.176469 0.478978 9.08894 -1.48805 -0.381337 -0.559733
806 2.71543 1.2147 7.98043 1.43223 -0.226753 -2.339
767 3.08172 0.415486 9.03739 1.20877 0.217349 -0.037441
701 3.47829 0.285506 8.08929 0.406534 0.971167 0.59432
151 3.73594 1.25089 7.82186 0.571617 -1.0692 -0.127059
722 3.08365 0.575689 7.0928 -1.13877 3.33792 0.962771
573 6.41343 2.44633 5.85334 -1.07643 -0.0950409 0.297538
1 4.92035 1.75136 7.77181 0.402141 0.0482208 0.341414
563 5.83904 1.32549 8.11147 -0.915805 0.807805 -0.964417
686 6.05649 0.435145 8.68341 -0.384735 -2.65863 -0.332206
15 4.9326 1.59778 8.86196 -0.698233 -1.77331 0.49244
326 5.20266 0.863436 7.01071 1.23773 -0.541142 -1.13738
606 4.4803 0.568959 7.93654 -0.832604 -1.41262 -0.124782
501 6.33203 0.526354 7.36975 -1.17979 1.44828 0.11584
641 7.25051 1.70715 8.82095 -0.751656 -1.18159 0.949429
18 7.00585 0.942784 8.18649 -1.43744 2.02431 1.7461
305 7.91088 0.44352 8.48336 -1.25558 -0.133189 0.458138
469 7.0052 0.601225 9.18459 0.00228223 1.57495 -3.11922
408 8.36471 1.564 8.47513 1.79348 0.830979 1.53983
332 8.60484 0.791088 7.55032 -2.73042 -0.964048 -0.401239
386 10.365 0.737942 7.77004 -0.780022 -0.636542 0.353929
385 9.45743 1.22144 8.27558 -0.625069 -0.205215 -2.25559
781 4.96569 5.35566 6.70857 -0.198985 0.528735 0.816046
277 0.67856 2.51255 7.73829 0.0819114 -0.769438 -0.445709
290 0.546435 2.06821 8.5325 -0.0998812 -1.99077 1.28098
367 1.40643 3.35943 7.53271 -0.878662 0.590593 0.33216
170 0.920294 3.00579 9.53294 -0.333985 0.303055 2.67504
551 3.09832 2.24765 8.02093 3.10231 -0.687489 0.731395
219 1.65416 1.85421 6.7637 -1.70413 0.182735 -0.12253
171 1.63978 2.35604 7.66335 -0.446501 -0.568111 -1.92228
316 2.371 3.19766 8.04961 0.883034 -0.640513 1.26406
368 1.59059 2.38426 8.78367 -0.537168 1.29509 0.0511442
288 3.73206 1.95336 7.12185 1.10049 -0.582136 0.495699
244 3.57748 3.23355 7.94259 0.807192 1.06707 -0.899355
337 4.21206 4.07538 8.36804 -1.12256 0.0383189 0.270528
832 3.08471 3.02033 8.89388 -0.980654 0.333423 0.880029
432 5.18058 2.95006 8.04476 1.82838 -0.434848 -0.553585
209 6.24116 2.73446 7.32604 2.03927 0.136407 -0.838986
134 6.45762 4.19553 7.29081 -0.351382 1.18927 0.807602
803 5.12334 3.60992 9.21419 1.39405 0.844101 3.28341
736 7.58139 1.58791 7.50656 1.71965 -0.661621 2.32417
53 7.7586 3.90186 7.98364 -0.022392 1.41161 1.33229
411 7.03949 3.19161 8.11246 1.56881 -0.321597 -1.82171
259 6.00079 3.56073 8.41456 -0.731906 0.283271 0.189765
577 9.10184 2.95438 7.16869 -0.837419 0.509051 0.315432
362 8.37611 2.38573 6.75899 0.0244163 0.794054 1.77902
473 8.11673 2.60972 7.66268 0.643527 0.895629 -2.08963
854 8.92705 1.8734 7.56066 -0.66089 0.680885 1.08312
261 10.144 1.92172 7.73005 1.39368 0.364853 -1.2062
631 10.278 2.93457 7.92147 -0.804629 -0.26046 1.24159
792 9.35634 2.24946 8.49207 0.532374 -0.0144029 -1.1237
7 0.198108 3.20645 8.72696 1.25501 0.462238 0.418522
779 0.206718 4.0985 7.46996 -0.1529 -1.26975 -0.499896
72 1.32553 4.36396 7.68784 0.193329 0.449697 0.533106
599 2.88815 4.95525 7.34423 0.692874 1.72718 -1.68758
673 1.47032 3.81064 8.54821 1.17605 1.46375 -0.525287
214 2.55581 3.98416 8.8408 -1.37491 -0.888151 1.01255
94 3.0515 4.91187 8.46036 -0.949823 0.262984 -0.489902
640 4.02031 5.04395 7.92998 -1.77838 -0.411892 0.0435633
727 4.57741 5.00026 9.07326 -1.84844 1.17556 -0.421844
581 5.22697 3.95154 7.34694 1.01919 0.653334 -1.29662
561 5.32523 4.75794 8.19869 -0.631713 0.586659 -1.73509
772 0.623901 0.0728493 5.41184 -0.490106 0.811819 0.279291
860 6.45067 4.7722 8.27315 -1.28009 0.147572 1.60044
108 7.55589 4.72798 7.02857 2.36003 0.968288 0.978789
289 7.0793 3.81321 9.00114 -0.153192 -1.60185 -0.429086
388 8.76729 3.96004 7.23966 -0.591297 0.145734 -0.981132
329 9.19594 4.80149 8.19017 -1.45615 -0.952634 0.24483
478 8.87045 3.21626 8.19147 1.17928 -1.9779 -0.162185
350 7.92417 4.74055 8.58855 2.04842 -2.95722 -0.231353
384 9.92903 4.16013 8.12668 0.161125 0.264824 -0.765388
137 9.66016 4.61959 7.20468 -1.04432 -0.702088 0.0769695
266 1.35208 1.3465 8.71302 -0.349514 0.422903 -0.118086
208 0.3863 1.36837 9.58272 -0.113382 -0.270519 0.280596
70 1.31227 0.975935 9.95526 0.0396372 -1.55747 -0.837335
83 2.36888 1.60369 8.84547 -0.15212 0.59755 1.33745
588 8.16682 4.16221 9.95664 0.785651 0.895482 -0.324311
514 3.77904 1.49918 9.13366 0.0594764 0.396395 0.223436
21 3.18399 0.358111 10.4905 0.91517 -0.508228 0.145276
147 6.05152 5.29447 5.72803 -0.804294 1.01815 -0.703457
295 3.94565 0.0262267 9.49889 -1.92652 -0.187998 0.750256
17 4.65703 1.46403 9.79717 -1.31658 0.982674 0.380225
221 5.4296 0.148898 9.8517 -0.467721 0.236956 -0.876916
743 6.11176 1.40813 9.26629 -0.221273 -0.12082 0.331357
584 1.65427 5.04838 8.7 1.52066 -1.60645 -0.549023
574 5.80571 0.967927 10.3179 0.537061 0.258635 0.360212
423 6.58184 0.291968 10.2266 -1.36747 -1.53646 0.182035
609 7.53079 0.695083 10.1101 0.628463 1.04333 1.05926
334 6.67582 1.53891 10.0493 -1.81953 -0.375829 -0.693602
146 10.412 3.85853 9.52945 0.70627 -0.62884 -0.879414
28 8.71961 1.23965 9.4865 -0.907346 1.15665 0.864526
230 8.7328 0.251391 10.1377 0.600823 -0.523656 -0.183711
644 7.65318 1.85839 9.87944 0.401257 0.420059 -0.705928
845 9.62724 1.5487 10.458 1.24917 1.5413 1.01293
580 9.95829 0.820864 9.60323 0.752512 0.703493 2.5402
93 10.2534 1.60752 8.69482 -0.579429 0.806192 -1.62039
8 1.14293 2.05873 9.88334 0.0952898 -1.1928 0.890625
815 1.21873 3.08815 10.7089 1.54101 0.997427 1.67724
853 3.03136 2.66653 9.87113 -1.28683 1.13345 0.0730091
435 2.18343 2.98442 9.37732 0.720388 -0.928135 -0.503438
556 2.20466 1.77108 9.97034 0.351057 -1.00543 1.20417
325 4.18365 2.41552 8.68255 -0.542351 0.534357 2.0402
794 1.10379 4.8346 5.44618 0.125531 1.46778 0.144585
437 3.1832 1.45938 10.1311 0.104707 -1.04298 -0.251112
406 3.99074 2.36986 10.0838 2.18139 0.260568 -0.727076
757 3.91202 3.42156 9.66189 0.0919801 1.20793 -0.0878449
541 5.49329 3.0473 10.1199 -0.553883 0.901307 -2.69171
292 5.3293 2.44395 9.25991 -0.898523 -0.525461 0.257977
750 6.23828 3.21864 9.38815 0.605972 -3.52165 -0.970096
477 10.3027 5.16314 9.93718 0.246175 0.75636 -0.603959
187 7.29489 2.77994 9.49733 0.0925416 0.79226 -0.385394
445 9.89237 5.19216 8.82119 -0.0762012 -1.73019 -0.161002
430 6.27943 2.39583 8.58432 -0.370208 -0.216573 0.297685
431 6.72475 2.74919 10.4247 0.284689 -1.56264 0.423167
648 8.42197 2.34554 10.618 0.866534 1.17694 -0.618736
829 8.47832 2.54306 8.99535 -0.119442 1.40834 -0.0738761
414 8.3789 1.21558 10.43 0.658063 0.284032 -0.349703
810 9.70422 3.34359 8.80003 0.141267 -0.763045 -0.782088
553 10.0099 2.95006 9.8609 0.859475 -1.1197 0.170065
841 10.7183 2.3798 9.38736 -0.131077 0.267231 0.392045
407 9.39132 2.15614 9.52955 -0.0651874 0.332639 -0.653483
196 0.130086 2.07537 10.3798 0.000139341 -0.787005 0.219134
823 0.578265 4.40023 10.3411 -0.993926 -2.1204 -0.853434
307 0.933594 5.22767 9.63352 0.524381 1.33078 1.26123
455 0.232289 3.18706 10.3738 -1.27554 0.711858 1.1476
419 1.66158 3.97864 9.64861 0.7703 0.593957 -1.14287
732 2.87991 3.84831 9.98881 0.44821 -1.00589 0.68879
825 2.53527 4.90328 9.82583 -0.920228 0.165243 -1.24284
68 1.61799 4.87864 10.617 -2.04368 -0.847543 0.121492
347 3.52987 4.80524 9.37912 -1.97311 0.438915 -0.615727
372 3.83904 4.29846 10.2016 -0.725135 0.297242 -0.863241
380 4.68985 3.65212 10.5796 -0.281677 -1.28656 0.664938
264 6.75996 3.84584 9.92682 1.09357 0.791261 1.69232
390 5.68667 4.03881 10.1075 1.61309 0.0874667 0.566964
409 5.78124 5.24621 10.192 0.0665196 -1.66363 -0.84723
415 6.14805 4.52526 9.28436 -0.280265 -0.061478 1.66055
205 9.10601 4.11198 5.43762 2.02203 0.540028 1.15093
751 5.81067 1.58706 5.45754 0.454605 -0.108798 1.0216
381 1.30526 2.84108 5.43101 1.84985 -0.391756 -0.325478
82 2.40708 4.69916 5.36694 -2.5001 -0.49937 -1.03995
402 9.28349 0.116422 7.78583 0.667578 1.18907 -1.17538
798 3.77227 5.30907 10.4095 -0.460912 -0.0421019 -1.43161
63 4.6234 4.80753 10.6607 1.51606 -0.037002 -0.765898
651 4.87712 0.0340218 8.92172 -0.621287 1.42399 0.709566
765 0.876244 6.61538 1.35888 0.213465 -0.58112 1.56365
427 0.922492 6.03388 0.497929 1.53645 0.374952 0.84526
766 1.63463 5.76144 1.29257 -0.237378 0.922192 -0.0641408
345 1.86215 7.20799 0.933424 -0.726533 -0.794171 0.089065
229 2.72093 5.70529 0.577245 0.772349 0.432103 -1.60646
816 2.69052 6.54105 1.27921 -0.752138 0.416673 1.4212
32 1.53808 9.99191 2.90274 -1.16953 0.41545 -0.748987
443 3.56365 6.49387 0.573667 1.3151 -0.530578 0.77814
269 4.32907 5.81848 0.729959 0.35289 -1.02012 0.430009
6 4.50154 6.93144 0.674543 0.514706 -0.375969 0.0945084
702 5.29694 6.0108 1.2392 0.746297 -0.66763 0.262338
852 6.49891 5.97781 1.00163 0.668334 -2.10983 -0.16582
858 4.81883 5.3805 4.52878 -0.849295 0.0711178 -2.16034
783 8.35869 9.60739 4.19894 0.119272 -0.345531 -1.77668
456 10.4644 7.72085 0.136128 -1.32504 0.180453 1.26283
642 7.31259 6.75375 1.66383 0.353096 1.19329 0.824677
784 8.63803 6.33683 1.26001 0.246652 -1.93392 -0.522868
453 8.93474 5.51443 0.63642 -0.213781 -1.1981 0.451533
128 3.67827 8.37073 5.18358 0.688107 0.842694 -0.227437
746 0.0704167 5.7834 1.21123 -0.514891 -1.50885 -1.95649
545 9.66778 6.03403 1.84785 1.2107 0.291165 1.64975
246 9.59525 6.81468 0.549929 -0.634436 1.38841 -0.203202
168 0.578266 7.67883 1.22149 -0.587584 -0.0167053 -0.812947
413 1.04258 8.93671 1.47321 1.99063 1.13384 0.827401
24 3.06992 6.44118 3.61067 1.53603 1.22373 -2.02299
434 10.5907 6.61042 0.434129 0.441789 0.682857 -0.00576528
847 10.704 8.59084 0.733318 -0.952816 -0.131622 -1.01721
780 2.83417 7.71281 1.43822 1.6397 -0.361032 -0.405287
462 1.20749 8.19389 0.642365 -0.479585 0.369776 -1.52233
65 0.977175 5.5686 1.98984 1.11226 -0.121784 0.0646239
470 2.5463 8.67771 1.69966 0.288505 0.26863 0.121466
817 3.61495 7.6444 0.206102 -0.506283 1.5633 -0.0153182
607 3.37773 8.53056 1.11984 1.12838 0.00119944 0.23684
542 4.3871 7.52495 1.67509 1.32495 0.0531979 -0.2451
793 4.37014 8.32529 0.739305 0.229172 0.37947 0.571651
629 5.26769 7.67471 0.850987 1.07866 2.64059 -1.99113
215 5.75406 8.15141 1.74605 1.56436 0.316228 0.275404
730 6.35235 8.47604 0.296042 -0.395245 0.57721 0.629613
47 6.24931 7.04424 0.882908 0.515871 -0.050114 -0.429964
73 7.70415 7.60274 0.453756 0.217009 -0.685391 0.522075
663 6.65003 8.41532 1.34125 -2.7044 -0.53325 -0.780618
811 7.54775 6.43914 0.411902 -0.136969 0.757024 -0.56303
528 7.0925 7.68523 1.84638 -1.9294 -0.321415 0.302433
802 8.43161 6.79299 0.257192 -0.110725 0.851192 0.946278
690 7.83143 8.42856 1.52368 0.590397 -0.507127 0.412041
525 8.78152 8.0145 1.52149 0.0502133 -2.38521 0.583895
222 10.3685 7.20284 1.56585 1.08782 -0.306548 -0.413293
400 7.11804 10.6017 5.1169 0.273192 -0.442929 -0.308937
703 9.74399 8.30099 1.05795 0.303085 -0.840724 -0.861332
51 10.5891 10.3972 0.154004 -0.546887 -1.79606 0.531611
698 0.559167 9.74193 0.702167 0.039206 -0.0734944 -1.21334
638 0.978917 10.1933 1.95836 -0.633471 -0.746289 2.40495
778 2.08102 9.12279 0.935085 -1.95325 -0.311316 -1.16309
3 2.08811 10.0838 1.92808 -0.610336 -0.943415 -0.729843
819 1.39729 10.2829 0.952914 -0.0742242 -1.16401 0.0439899
677 5.39184 6.94341 0.168119 -1.73258 1.96302 1.46373
349 2.98169 9.68285 1.1086 0.216207 0.548506 0.174034
489 3.4791 10.333 0.564197 -0.299837 0.135385 -1.48794
534 4.68606 9.78388 1.00953 0.121693 0.77033 0.316031
601 7.11014 5.44874 3.9049 -1.04849 1.15992 0.329701
446 3.10391 10.6203 2.07224 -0.867039 0.0130899 1.02697
129 5.72143 10.7159 1.27559 1.73656 0.262323 0.163549
110 5.53976 9.01084 0.818956 0.458413 -1.92071 1.56852
700 7.90838 9.69334 1.39924 2.30151 0.895822 0.681538
490 6.98221 10.2713 0.777509 1.18765 -0.594009 -1.07136
576 10.0601 9.13583 5.19104 0.687906 1.30084 -0.512204
44 6.68786 9.4352 1.48769 0.570756 -0.234697 1.30295
354 8.75305 5.47146 5.15555 0.214418 0.672142 0.505062
35 8.69041 9.85596 0.593991 -0.668399 0.48765 -0.88192
637 8.0715 9.06268 0.225152 -0.447969 -0.128479 -0.812689
486 8.91777 9.06805 1.32748 0.0697582 -0.264947 -0.0604083
150 9.37842 8.96742 0.40413 0.0921796 -0.304779 0.879988
20 9.84452 9.93504 0.844299 0.334442 -0.661834 0.419501
363 9.46034 10.5855 1.55414 1.28069 0.604052 -1.6714
846 1.35799 6.50961 2.31178 -0.897316 0.318667 0.713175
133 10.6395 6.37123 2.24936 -0.290279 0.964733 -0.628047
508 0.647123 5.62093 3.14922 0.866196 -0.0683372 0.411019
464 5.20096 6.83482 5.32907 1.16348 -0.697097 -0.600783
822 7.8272 5.76445 1.50923 0.282648 0.245571 -1.80097
627 2.01477 6.92502 3.12721 0.641196 0.378861 0.181371
159 2.42119 6.41385 2.23055 1.31178 0.474548 0.0028167
742 2.02201 5.61651 3.55145 1.76796 -0.961068 -0.1461
749 3.47226 6.98382 2.00545 -1.22641 0.186653 -0.664884
664 3.05077 5.57123 1.62258 0.667281 1.217 0.997869
770 3.44531 6.00653 2.73249 -0.118638 1.15015 -0.780937
361 4.43902 6.2732 2.7343 -1.20686 -0.33937 1.05328
564 5.25758 5.81268 2.38856 -0.671647 -1.29171 -1.72185
616 6.23951 6.35232 2.94339 1.48637 1.51377 0.258492
788 5.1538 7.13736 3.12158 0.174439 0.73902 0.120817
130 6.15378 6.47296 1.8595 -2.56161 0.650082 -1.86806
719 9.9477 10.6238 4.52603 -0.791133 1.33763 0.134537
426 3.56726 5.3844 5.21893 -0.533606 -0.647398 -1.2209
358 7.7697 6.56017 2.64201 -0.211511 -2.14537 -1.18934
418 6.97588 5.92625 2.35185 0.322939 0.285098 -0.165089
162 9.02971 6.30004 3.15934 0.28318 0.481282 0.585204
552 9.97124 6.65394 3.76558 0.31953 -0.00374276 1.34101
23 0.196618 7.38882 2.54328 -0.741085 0.951135 1.41593
207 9.99204 9.13589 2.79839 0.455406 1.50554 -2.30078
43 1.50972 8.02401 2.048 -0.0567786 -0.912302 0.0934736
538 0.981552 7.65879 3.12109 -0.658259 0.978048 -1.24415
263 2.69595 7.67128 2.5519 -0.783675 1.11487 -1.29915