ITEM: TIMESTEP
47960
ITEM: NUMBER OF ATOMS
864
ITEM: BOX BOUNDS pp pp pp
0.0000000000000000e+00 1.0726842421158810e+01
0.0000000000000000e+00 1.0726842421158810e+01
0.0000000000000000e+00 1.0726842421158810e+01
ITEM: ATOMS id x y z vx vy vz
242 0.589265 1.02089 1.35787 1.67299 -0.573673 0.666355
554 6.00781 0.0926716 3.93983 0.859927 -0.61127 -1.64762
313 0.518752 1.95853 0.707149 0.238653 -0.347689 0.856992
455 10.1724 4.90509 0.204694 -1.01816 2.24325 -0.0353834
371 2.37574 1.65599 1.68515 1.16695 -0.0529108 -0.0940264
763 5.85466 3.80106 5.12156 0.59711 0.724659 0.0350085
461 3.35554 0.912912 0.707465 0.273754 -0.598617 -0.0315698
405 4.88127 1.47365 0.418082 1.46134 1.01475 0.109007
396 3.33203 1.6427 1.57635 1.58441 0.436619 -0.192455
197 3.99292 0.499803 1.41471 -1.45616 -2.06063 0.385873
423 5.40049 0.709626 0.706553 0.333072 -0.166677 0.396811
664 3.0966 4.70723 0.986183 0.0875052 0.288686 2.38021
614 6.02353 0.743572 1.67477 -0.00805301 -1.03297 2.57455
418 8.16322 5.06377 2.94189 0.274379 -0.218655 1.31028
97 7.76634 2.4197 0.52034 0.263756 0.308205 -0.117235
394 7.17574 1.51373 1.47762 -1.34453 -1.12638 0.351761
492 10.5917 0.68179 0.510561 0.806387 -1.32844 -0.245524
363 9.55513 0.72579 2.14261 -0.528084 0.4956 -1.53011
256 10.1268 1.61528 5.26249 0.671762 -0.179188 2.76507
64 9.01003 1.20986 0.121053 -0.76074 -0.0244466 -0.645838
195 1.86477 1.88954 0.679447 -0.508497 -1.02319 0.800048
466 1.41126 3.18988 0.724267 -2.15543 -1.23937 0.46367
559 0.431566 3.19049 0.967695 -1.16573 -0.115257 1.57699
546 2.43281 3.38143 1.11006 1.3357 0.486085 -2.30672
570 2.84324 2.40706 1.1104 0.0540332 -0.990291 -0.291565
271 8.62181 5.29124 0.869638 -0.516009 -0.949208 0.234997
672 4.84585 3.46212 4.38057 -1.85931 0.616706 -0.330367
249 0.332229 0.881028 5.10508 0.189404 -0.79089 -1.20272
732 3.34014 3.61032 0.758459 -1.14001 -0.200309 0.456736
416 3.08355 1.87262 0.189267 -1.579 -1.35201 -0.916379
674 4.0414 2.73103 1.26464 1.79312 0.137394 0.105169
522 4.40968 1.78026 1.29959 -1.86842 -0.872259 0.238226
602 8.24242 1.06071 1.81445 -0.413143 0.483008 -0.774442
474 6.88231 0.603859 0.929013 -1.97952 -1.10637 0.586557
274 5.10581 2.59453 1.17916 -1.67101 1.1697 -0.410548
379 8.06488 2.30272 1.75307 0.836375 0.123346 -0.544303
160 6.94175 2.65886 1.33995 -0.708583 0.693507 -0.513695
774 6.70948 1.74579 0.375783 -1.03238 -1.55801 1.14395
725 8.089 0.00869023 3.21104 -1.06782 -0.273192 1.55644
754 10.3375 5.18801 2.2792 1.08517 0.656045 1.205
41 8.73536 2.54502 0.762551 -1.22736 -2.13313 -1.2944
648 9.14635 3.54041 0.665338 0.554983 0.712532 1.86586
595 9.94834 2.56732 1.77492 2.27163 0.562897 -0.827763
235 8.47729 3.35543 1.67821 -0.177121 -1.51198 -0.590465
16 10.3046 2.5927 0.795904 0.614017 0.213456 -0.0417711
553 10.6526 3.79334 0.411832 -0.806117 -2.79617 1.08225
815 0.818778 4.12883 0.691827 0.39899 0.634817 1.34979
132 10.5722 4.90514 1.22557 -0.832941 -1.48024 1.06107
49 3.00578 4.00964 1.83337 1.15271 -0.412286 2.33829
586 2.23915 4.45786 0.376907 -0.852927 -1.27737 -1.56521
156 3.75847 3.73027 5.1609 1.06504 1.63554 -1.52977
397 4.14136 4.63347 0.0140659 -1.74852 0.188841 -2.62757
618 3.83041 4.78108 2.28045 -1.1761 0.368968 0.331481
185 8.69999 0.653739 5.10846 0.389011 -0.999078 0.570223
828 2.03755 0.832473 0.967397 0.216334 -1.06395 0.0108676
657 4.15873 3.90483 1.28432 -0.0147482 0.55798 1.13344
380 5.19402 4.34211 0.433581 0.297825 -0.0368881 -1.69984
139 6.19777 2.73717 0.548436 -1.12919 -1.19423 0.657111
210 6.98461 4.19322 0.6043 0.204063 1.92112 -0.970031
482 1.23107 1.05388 0.40858 0.0149026 0.177866 -0.25032
262 1.28647 0.0219494 0.628998 0.321063 -1.30786 1.29353
5 7.91841 4.27273 0.850358 -0.173729 1.82754 0.614384
176 9.55316 4.5714 0.91223 0.116303 0.0582199 0.705531
468 8.90792 4.57588 0.0687905 -0.538083 -0.338258 0.305424
601 8.51163 5.11348 4.65372 -0.377885 -1.86092 -1.15633
119 7.307 0.495529 2.39042 -0.782827 0.126933 1.17103
161 1.12609 1.52732 2.18338 1.11319 1.26226 1.60434
252 0.843456 2.33667 3.45458 -1.11115 0.264694 0.969449
121 0.810853 0.488013 2.90125 -0.0262187 0.204073 -0.697707
265 1.84854 0.193694 3.50744 0.582278 0.572637 0.591935
32 2.11763 0.709294 2.278 0.0545968 -0.19318 0.148655
823 0.942085 5.22214 1.20745 0.398884 -1.27512 0.144801
297 3.06992 0.730786 1.96285 -0.761131 -0.0982089 0.634343
801 3.02331 0.324579 3.161 0.0311566 -1.23313 0.914795
57 2.30852 1.31617 3.23917 -1.26314 -0.557092 -1.29122
184 7.36816 4.75949 3.85236 0.100687 -1.85436 -1.23199
273 4.11937 1.26045 2.08453 -0.218512 0.356269 1.06296
684 6.13325 4.72856 4.55486 -0.432107 0.668252 -1.06644
157 4.4001 1.76082 3.53923 -0.061527 1.79329 1.73336
296 5.73701 1.74967 1.1635 1.11764 0.322496 -0.552463
587 5.01361 0.404419 2.17945 0.841395 0.120164 -1.84054
526 9.07071 4.18228 4.03422 0.728069 0.3298 0.511643
717 6.42903 1.89571 2.14417 -1.39115 0.999114 -1.2252
624 7.81519 1.35903 0.607568 0.0659985 1.09419 -0.964123
709 6.4695 1.17065 3.30088 0.309776 1.17707 -0.859763
521 7.31352 2.23587 3.34201 1.86411 0.224139 -0.0466198
236 8.57682 0.776057 3.68981 0.357257 -0.0785753 1.72995
77 9.1051 1.55999 1.16802 0.72253 -0.407207 0.257555
550 7.29968 0.724632 3.68912 1.42636 -1.37555 0.146227
389 7.65841 1.62512 2.42862 -0.124188 0.010207 -1.77929
257 8.26131 1.98943 3.91804 -0.631041 0.446644 -1.02001
549 10.7188 1.14078 2.20465 0.783619 0.0852473 0.0308229
123 10.6566 1.74399 3.29355 0.886654 -0.161498 -0.928542
417 8.78712 1.45495 2.72219 -0.920089 0.602163 0.100678
74 9.3196 3.22033 4.24091 0.346384 -1.58434 -0.319312
84 1.22514 2.31806 1.39729 0.711966 -1.39372 -0.913267
113 0.234009 2.2546 1.85517 -0.349906 -0.818385 -0.622059
281 0.490744 3.66246 1.89065 -0.295978 1.00472 -0.585511
741 1.03584 2.9016 2.27953 -0.300956 -1.79277 -0.310039
436 0.726697 3.52256 3.13001 -1.90836 -0.211717 0.0643168
178 2.13248 2.84736 3.40303 1.20706 -1.57138 0.724081
103 2.07046 2.48359 2.35598 0.401673 -0.36096 0.909209
630 2.91185 1.84611 2.62329 0.572135 0.0851168 -0.521212
365 2.88566 2.29479 3.61075 -0.604953 -0.269188 2.38479
243 3.21611 2.7915 2.26865 -0.550972 0.630761 -0.441728
179 3.55201 3.37156 3.17934 2.41656 -0.0669746 0.902051
480 5.14279 1.84679 2.44889 1.88478 1.2701 0.375048
188 5.33329 3.93339 1.32363 -1.14353 -0.804974 -0.124908
776 4.22184 2.5348 2.30519 -0.292532 -0.613052 0.12417
204 4.29461 2.82727 3.37444 -1.73712 0.443436 1.78723
138 6.08956 2.86071 1.81098 -0.748213 -0.594062 -0.323829
102 5.97071 2.14165 3.05 -0.888724 2.14394 -0.637885
216 6.50398 3.29009 2.93842 -0.450406 1.30534 -1.25563
231 7.57322 3.08381 2.30523 0.403082 -0.295767 0.127569
787 8.23912 2.54242 2.90237 0.949343 -1.01161 0.00346637
117 9.09615 2.53103 2.43715 0.924836 1.43832 -0.6938
547 10.2778 1.4719 1.05886 -1.45814 1.33062 1.03748
465 9.82036 1.75903 2.64506 -1.93943 -1.03769 1.28807
639 9.61995 3.40599 2.35193 -0.0386446 -0.208408 -1.06846
191 9.52844 2.23385 3.37383 0.936024 0.177215 0.525501
36 10.3709 2.73156 2.78983 -0.00300935 0.625297 -1.73022
65 1.9898 4.85684 1.25785 -0.0319004 0.322032 -0.755696
338 4.86258 4.35333 4.78442 -2.02339 0.964975 1.15385
440 1.51346 3.92616 1.46353 -0.644592 1.65805 -0.108289
555 10.688 4.29414 2.7113 -0.737101 0.0744385 0.433091
131 2.31481 3.4743 2.57149 -1.10174 1.02203 0.237547
61 2.29391 3.90573 3.74993 -1.18572 -0.298596 0.84105
284 2.99937 4.5596 2.88471 1.16856 0.0685716 -1.87041
816 2.8029 5.29575 2.07934 -0.374058 0.607994 0.820431
742 1.55932 4.27476 2.84169 -0.655804 1.15077 0.632547
665 3.83272 3.63709 2.18389 -0.56236 0.331373 1.1276
182 4.435 4.13111 3.03321 0.718736 -1.00963 -0.0547159
669 9.8914 4.89646 4.22325 -1.12227 0.898217 -0.167895
452 5.2622 5.09357 1.70308 -0.532687 2.20761 -0.0748873
579 5.06939 4.91362 2.69053 -0.953217 -2.23659 1.55382
610 5.43417 3.8906 2.5437 -0.903092 -0.428015 -1.00261
66 6.52591 4.16875 1.88834 0.506789 -0.808331 0.6019
112 6.7907 5.25565 1.76371 0.759365 0.586306 -1.8422
46 6.23517 4.3188 3.08889 -1.24536 -0.306433 0.495115
201 7.21258 4.50143 2.727 -0.738608 -0.362037 -0.960707
527 8.23731 4.24535 2.16698 1.49239 1.02426 0.65931
519 8.80067 3.27294 3.33703 0.223303 -1.8125 -0.00245442
596 8.20076 4.13625 3.52419 -0.709097 -0.903545 0.058183
822 8.9307 4.91944 1.82064 1.18069 -0.771124 -0.829121
99 10.2182 3.89928 1.5422 -0.998971 -2.05187 -2.22722
695 9.11451 4.60555 3.09161 1.08568 -0.686878 0.184059
237 10.0182 3.76821 3.49653 -0.425421 -1.30769 -0.0691764
809 0.73762 4.66103 2.11437 -0.152318 0.0814385 0.223011
315 2.20722 4.59121 4.76311 -1.55565 1.61509 -0.298078
439 0.598797 0.548264 3.95592 1.7568 0.942633 -0.160724
429 0.378797 1.6208 4.257 1.09376 0.69939 -1.13137
189 1.48561 1.25114 3.86434 -1.00899 -0.279119 -0.321558
118 9.80885 0.603839 3.32589 0.0781246 1.40924 2.03704
381 2.26431 1.16687 4.49664 -0.627629 0.90573 -1.23066
682 2.82811 0.0320807 4.22792 0.455492 0.015805 -0.0376624
864 5.01045 0.387803 4.12263 1.06401 -1.61677 0.482065
770 4.00659 3.98983 4.1801 -0.385999 -0.840949 -0.941153
319 4.74308 1.41631 5.08432 -1.16016 0.400549 -0.455947
24 2.06035 5.02064 3.5225 0.540557 -0.455725 -0.0899699
494 3.48521 1.40415 3.42072 -0.70363 0.432744 0.630236
241 8.06885 4.11914 4.68681 -0.297917 0.282227 -1.1058
688 5.38955 1.33495 3.52455 0.313127 0.706626 1.09109
60 4.45985 4.89499 0.941455 0.663963 -3.33694 -0.42598
115 6.68015 1.26974 4.32322 -0.291906 0.881077 1.50068
857 5.89593 0.758712 4.91933 -0.880504 0.238711 0.9026
620 6.12239 5.03736 0.759442 0.254292 -1.27242 -1.89602
343 7.54711 0.199931 1.4857 1.19477 0.447955 1.54385
699 7.9367 1.15901 4.58739 0.163309 1.59072 -0.295807
100 4.98278 3.246 0.26165 -0.729866 0.462646 0.992021
497 10.3108 0.369768 4.50634 1.27545 0.385058 1.24685
282 7.80187 5.15557 1.70733 0.282855 -0.525192 0.170312
255 9.10631 1.33648 4.36055 1.02195 2.17227 0.444275
520 9.33696 0.0945309 4.10479 -0.828931 -1.61076 -0.952974
708 1.86156 2.21452 4.25693 0.456621 0.614326 -0.088292
85 10.7022 2.59008 4.0822 -0.573813 0.17018 -1.48296
116 7.09516 0.471094 4.80953 -0.260595 0.381646 0.955082
518 5.52216 2.23005 0.0683061 -0.902533 -0.0677913 -0.895774
652 3.26538 1.85329 4.9777 1.68818 -0.653129 0.419268
198 3.96795 0.663605 4.16614 0.383599 -2.82919 -1.55866
34 2.21273 3.21622 4.52265 0.795795 0.295869 -1.55302
154 3.51182 2.83987 4.60047 -1.16863 -0.028151 1.39377
414 7.56644 0.354349 0.115827 1.01267 0.0749483 0.910848
13 5.51427 3.27942 3.33274 0.0463328 -0.920848 -0.156109
181 5.47498 2.47984 4.02823 -1.11762 0.340373 0.033738
87 4.56489 2.52747 4.83619 -1.20676 -0.702371 -1.44064
843 5.91804 1.83046 5.0984 -0.154606 0.514787 1.7791
104 9.92258 0.376451 1.29565 0.66782 1.18561 -0.466486
335 7.23437 2.9836 4.62354 -0.401324 -0.117676 -0.421163
149 6.50161 2.49073 3.86248 0.44593 0.74973 0.575423
348 6.25605 2.96252 4.74617 -1.04743 -0.310879 0.518681
26 7.67903 3.23778 3.60135 -1.08362 0.0551985 -2.83577
92 8.26994 2.70771 4.69825 -1.07915 0.775954 0.215398
633 7.04292 3.95392 4.48916 2.13481 -1.40081 -0.70686
2 7.3433 2.0725 4.33419 -1.56435 1.35795 -0.5505
788 5.24513 4.98383 3.88847 -1.19321 1.71424 -0.101159
158 9.79186 3.3646 5.10663 0.121792 -0.410432 -2.32457
248 0.0759583 4.11023 4.61323 0.190318 2.0527 -0.542198
330 9.78786 2.20792 4.38362 0.251521 -0.22733 -1.25347
444 0.279095 4.82673 3.89387 -0.514288 -0.260445 0.285627
202 0.903761 3.25145 4.14398 -0.340557 -0.711546 0.711172
615 10.5675 0.191426 2.64437 0.127005 0.712844 -0.378939
442 1.18202 4.34433 3.83528 1.0143 -0.539427 -0.360905
752 1.22129 4.99872 4.59438 1.41354 -0.584238 -1.67596
422 3.00809 3.93401 4.47975 0.695902 -0.0756777 -0.218844
426 3.52001 4.77813 5.01914 0.234844 -0.403859 -0.444595
327 7.31135 4.77179 4.91744 0.501977 -1.14621 1.14177
696 8.2416 0.082689 4.35182 0.82401 1.58185 -1.13186
818 10.5784 1.12638 6.1525 -0.00592588 -1.44595 0.644749
247 0.909929 1.45059 6.54002 -0.230899 1.20584 1.69553
806 1.0216 0.565418 7.16467 1.58126 0.593807 0.388571
503 2.65556 0.725648 5.47788 0.0463112 -0.418504 -0.681869
312 3.94817 4.7034 5.96603 0.328759 0.297935 0.701821
79 2.19992 0.573375 6.44476 1.32991 0.546601 0.756272
517 4.47553 1.13437 6.63188 -1.59439 0.979656 -0.0401223
203 4.67124 0.309908 5.48484 0.672222 -1.23813 0.515759
228 3.78169 1.01024 5.65112 -2.00721 0.36176 1.86073
820 5.37521 1.05233 5.85243 0.0915949 1.55104 -1.01799
206 3.86681 3.05528 10.6887 -0.756393 0.562924 0.501968
1 5.56303 1.40725 7.2023 -1.38897 0.413853 0.33394
567 7.84263 5.26273 6.03442 0.663821 0.297816 -1.66128
706 7.80848 1.06051 7.01546 0.713441 -1.06791 -1.07169
212 6.6043 0.755392 5.69404 0.497048 1.1522 0.709665
641 6.65848 1.1694 7.31877 -0.101884 0.51969 0.888023
863 8.36176 0.189181 6.45544 -1.27351 0.302193 -0.287242
715 8.85608 0.675924 7.35437 -1.15896 0.465632 0.183079
42 4.39232 2.18638 10.6001 1.04786 0.682141 0.651667
626 9.59711 0.704588 6.06509 -0.424189 0.717463 0.0023511
556 2.11024 3.05341 10.6663 0.146819 0.611325 0.0345316
772 10.4402 0.0182197 6.35009 -0.642812 -0.985056 1.0516
277 0.398075 2.45464 6.19457 -1.29209 -0.731608 0.437923
310 0.734336 3.4787 6.24826 0.220751 0.880079 0.693098
10 1.41017 2.99069 5.43462 0.490668 -0.143305 -0.502576
171 1.8517 3.15596 7.04274 0.375685 -1.61719 1.61292
320 3.00216 2.86775 5.57758 -0.0888435 0.680675 -0.692183
288 3.50577 3.01945 6.7812 0.870011 -0.420771 0.972064
244 3.66956 2.18041 7.32544 0.653304 -0.142117 0.724605
337 4.70137 2.81353 7.0293 0.263667 0.463337 0.954174
512 4.32934 3.8546 6.52867 -0.0985959 -1.41695 0.856748
322 4.07411 3.04131 5.87757 1.05156 0.284729 0.275376
824 5.16839 2.16113 6.17344 -0.722332 0.68634 2.3124
352 5.18714 3.20769 6.18736 1.57478 -2.19261 -1.06227
409 6.57226 5.30152 10.5016 -0.0764032 -0.072755 0.185735
751 6.13479 1.61407 6.28941 -0.00643329 -0.504466 -0.0117772
594 6.1116 2.67209 5.86844 -2.09788 -2.36983 1.45818
209 6.60778 2.17509 7.39112 -1.19202 -1.02468 1.61861
124 7.02669 2.65038 6.40482 -2.06856 0.131563 1.69999
807 8.58324 2.75185 6.28964 0.269416 0.456143 0.971102
756 7.27542 4.10418 6.64633 0.727583 -0.385581 -0.129176
735 7.78635 2.17672 7.1929 -1.27906 -1.50259 0.160889
718 8.69615 1.54022 6.49107 -2.36407 -1.61367 -0.502382
737 10.0337 4.07209 6.60446 -1.28888 1.97238 -1.22087
76 9.23046 2.3902 5.53364 -0.0417184 0.0437489 0.953334
479 1.27746 4.14301 5.43962 0.0288088 0.659743 -1.39653
431 7.16232 3.53086 10.5166 0.0224526 -0.740359 -1.19065
359 1.48158 4.54221 6.43505 0.0105336 -0.702154 1.27535
450 0.273021 4.77886 6.24808 0.213971 0.158797 -0.765038
25 9.87368 0.505108 7.18638 0.0178386 1.42657 -2.45002
82 2.12954 3.71147 6.02941 -0.518957 0.13975 -1.28866
599 2.20675 4.15303 7.05062 -0.0550032 0.473899 -0.421117
779 10.5468 4.10538 9.15051 2.3569 3.25727 -0.44843
190 4.93615 5.15355 6.45593 1.7944 -0.891662 0.907806
318 3.01615 4.09039 6.33493 -0.0946613 -0.123795 1.20169
94 4.02535 4.76422 6.97742 -0.402346 0.771757 -0.0987989
845 9.80426 2.10043 10.6432 -0.240322 0.785075 0.992204
89 4.94107 4.23068 7.28515 -0.303911 -0.158708 -0.861243
781 5.0822 4.24092 5.92491 -0.824668 0.5159 -1.72485
376 6.13888 3.5765 6.49086 -0.898645 0.826062 -0.770177
794 2.09156 5.3178 5.8258 -0.506381 0.294093 -0.769647
438 6.81489 3.9564 5.54175 0.540231 0.239143 0.146872
483 7.02926 5.1076 6.66945 0.886001 2.34186 0.25571
721 8.37325 4.39851 5.96066 -0.129404 0.0790209 -1.6683
388 7.99467 5.12944 7.22513 -1.88639 0.289734 0.946232
205 9.30504 3.50552 5.97462 -0.292528 0.101157 -0.0238149
354 9.56881 4.60236 5.39821 -0.423078 1.52645 -0.764417
278 8.16279 3.25371 10.7094 1.5518 -0.314203 -0.50375
19 4.01592 2.02538 5.84111 2.721 -0.452516 1.72467
705 0.117145 1.7291 7.21639 -0.914767 0.0275165 -0.269354
250 3.1191 1.91999 6.18161 2.10238 -0.789145 0.871022
261 1.19475 1.4961 7.82402 0.0407675 0.999545 -0.422452
628 0.569707 0.656767 8.0819 0.952816 -1.27586 0.594419
275 2.18898 1.94027 5.55482 1.8017 0.479622 -0.713603
55 2.13645 1.16453 7.35168 0.380256 -0.316378 0.405151
219 2.54101 1.64569 8.71754 0.687186 -0.16298 0.399363
391 3.06985 1.0428 6.83797 -1.30362 1.08166 -0.69887
437 4.08408 1.46797 9.15551 -1.15082 -2.33971 1.49254
83 3.86272 0.546844 8.63419 0.796795 -1.27129 -1.44341
295 4.9554 0.599455 8.1827 -0.0805588 0.0227316 1.65533
502 5.46566 0.248777 7.1499 1.95507 -0.912848 -1.59617
151 5.15929 1.56157 8.32552 0.235026 -0.370017 0.266048
686 6.10789 0.536965 8.24901 3.30851 2.0765 -0.166858
736 7.26154 1.13555 8.10575 -1.47856 0.541263 1.57579
609 7.04083 0.531932 9.21867 1.88951 -0.457632 0.626643
701 4.28803 0.206573 7.4311 -1.06088 -0.59208 -0.770058
837 8.36749 1.42997 7.8964 0.621466 -0.28864 0.726294
408 8.65349 0.957044 8.94192 -0.473291 -0.402289 0.974629
187 7.69016 0.20027 8.43846 -0.0199368 -0.210482 0.306122
334 7.34717 1.27971 10.3384 0.927605 -0.378548 -0.0471587
239 9.78822 1.50149 6.96001 -0.479267 -1.23177 0.0422541
332 10.2858 0.911734 8.20381 0.523043 0.654898 0.9648
854 9.38876 1.41322 8.09365 1.06376 -0.447007 -0.644864
367 0.834112 2.90504 7.30758 -0.799607 -0.179221 0.559271
789 10.639 3.51169 7.62787 1.2838 -0.571419 -0.489798
238 0.380172 1.75179 8.34719 0.95409 0.311321 0.80846
631 10.5775 3.04479 8.76821 0.192588 -1.47242 -0.175539
290 1.12577 2.77234 8.23865 0.647058 0.229407 0.00902806
673 1.92686 3.74667 8.1421 2.14405 -0.674014 0.52876
69 1.61822 2.08357 7.05151 -1.48016 0.147594 -2.16725
8 1.55579 2.8363 9.65954 0.0347121 0.412006 -1.59748
727 4.41861 3.59188 8.04116 0.0202103 0.844362 -0.0441755
514 4.19986 1.34968 7.69894 1.32027 0.922886 -0.50511
325 4.32297 2.45769 8.15909 -0.895712 1.79539 1.08387
551 3.1955 1.40797 7.92297 -1.10563 -1.1021 -0.052175
214 3.75062 3.74164 8.83974 1.94634 0.262013 1.5628
406 4.48271 3.07861 9.1343 -1.08619 0.839253 1.03594
432 5.28431 2.63769 7.91782 0.162601 -0.353794 0.791801
390 5.73888 3.25034 8.85217 0.838416 -0.215115 0.420048
803 6.7012 3.02915 7.95724 0.229507 0.390227 -1.02217
169 7.61378 3.33719 7.45301 0.617994 0.325985 -0.303191
478 7.76267 3.06321 8.36872 1.20545 -0.0266715 -0.938416
134 7.13563 2.16156 8.44082 -0.119537 0.864383 -2.19717
786 8.52353 3.80514 6.87764 0.359827 -2.57209 -0.113752
362 8.64503 2.93321 7.66836 -0.645495 -0.0381433 -1.42019
810 8.65347 3.87694 8.13475 0.495045 2.21433 0.19758
473 8.67571 2.10902 8.546 0.897217 1.08849 0.100476
384 9.42628 2.93135 8.54802 0.896311 0.153135 0.308756
127 10.0329 2.68208 6.54946 -1.06032 -0.460882 0.260232
220 9.44831 3.79171 7.38613 -0.93205 0.533507 0.83733
369 9.54608 2.33311 7.6457 -1.46555 -1.03673 -0.394586
146 9.78993 3.90326 8.38117 -0.940708 1.03377 1.40539
72 0.918551 4.10137 7.23643 1.65502 1.09643 0.21078
170 0.633824 3.96939 8.31175 0.47978 -0.24946 0.269165
419 3.22071 4.18283 10.1228 0.892709 -0.534793 -1.06799
611 1.9961 4.87746 8.22817 -0.962873 2.17498 0.957089
316 2.7303 3.13598 7.73973 0.734894 0.0528009 -1.1791
650 3.01587 5.18312 7.98489 -0.16893 0.696788 -1.41492
223 3.32417 3.89683 7.57552 -0.728586 -1.09839 0.35567
383 3.92237 4.50389 8.27427 -2.22786 0.191473 -0.266223
825 2.86207 4.9041 9.26104 -1.93836 -1.12794 -0.306105
372 4.8522 4.12534 9.1594 0.0934951 -0.445032 0.292562
581 5.7976 3.56063 7.50787 0.767133 1.74773 -1.96102
145 5.867 4.67024 6.63816 -0.00191084 -0.665973 -1.23909
561 5.57044 4.27206 8.26796 1.37997 0.495619 1.22299
53 7.66573 4.31183 7.90278 1.58816 -0.107581 -1.36582
860 6.75163 4.16153 8.69146 0.0974679 -0.737496 1.03575
142 6.5396 4.16833 7.38608 -1.63376 1.658 -0.448759
428 6.22688 5.07495 8.66612 0.814596 2.1285 0.536376
63 4.76749 5.01115 10.0097 -0.115854 0.198928 0.443197
192 1.5129 1.05371 5.54907 -0.182036 0.101405 -1.26579
289 7.84295 4.7996 9.01468 -1.14829 0.910466 -0.317246
577 8.86582 4.936 8.00856 0.608923 0.692783 0.579116
27 8.93763 5.12593 6.42904 -0.231899 -2.33127 -1.6581
445 9.91946 5.04059 8.77814 -0.974108 0.724989 0.567626
137 10.518 4.68187 7.52335 -1.21059 -0.774518 -0.208913
505 1.72735 0.765108 8.71777 1.8616 -0.860075 -0.672055
283 0.433334 0.208141 10.468 -0.861791 -1.7928 -1.62786
196 0.2708 1.40207 10.4913 -1.02272 -0.456812 1.14085
584 0.625034 5.30371 8.70189 0.849675 0.525791 0.108487
21 3.49971 0.2567 10.6752 1.31995 1.16808 0.13571
407 8.76827 2.41509 10.4885 0.152674 -1.15839 0.291503
392 3.00189 0.912265 9.56161 -2.29924 -0.951877 0.00096904
433 2.19359 0.237095 9.42841 -0.569846 -0.661789 0.874536
70 1.24955 0.856867 9.84918 -0.497638 1.09876 0.430813
152 1.77631 0.0341164 5.42965 1.31275 -0.862051 -2.69175
832 3.20039 2.5067 8.40741 0.654988 -0.810306 0.243179
853 3.85882 1.21065 10.1763 -0.10604 -0.360812 -0.767219
613 4.63752 0.45896 10.5341 -1.2775 0.566335 -0.218156
221 4.86885 0.774224 9.28671 -1.48236 -0.477737 0.707168
411 6.83697 1.65199 9.50409 -0.202099 -0.223751 -0.906076
430 5.83667 1.41823 9.16287 1.73863 0.416716 -0.190853
743 5.84878 0.492084 10.4058 -0.805582 -0.191072 -0.657916
829 7.80977 1.64221 9.06237 1.67565 0.208569 -0.294887
294 6.59737 5.25897 5.62407 0.484204 0.421774 0.435065
230 8.93366 0.522053 9.8886 -0.250982 1.14372 -0.615641
385 10.0101 2.01255 8.76101 -0.115864 0.144266 -0.12351
28 9.76517 0.906236 9.28549 -0.535564 1.26224 0.472307
51 9.73985 0.690678 10.4581 0.830771 -0.36569 1.89947
386 0.361078 1.09381 9.22104 0.231404 0.454143 -0.339072
208 0.736104 3.45454 9.4269 -0.698409 -0.613021 -0.857844
266 1.10164 1.8102 8.90724 -0.769631 -0.832148 -1.4697
524 1.06567 2.1386 10.5021 0.0222137 -0.267947 -0.0885873
93 0.0259599 2.29377 9.53765 -0.238329 1.18565 1.34041
757 3.12858 3.15971 9.53025 -1.45135 1.45553 0.0462844
177 1.98464 1.63201 9.67688 -0.0114681 -1.53208 0.477078
368 2.98024 1.8724 9.92853 0.930575 -1.98312 -0.520471
606 3.85043 2.39215 9.62161 -0.11135 0.559023 -0.589898
292 5.25339 2.25112 9.29306 -1.81417 1.92301 0.506992
17 4.90231 1.46469 10.0377 0.631627 0.0286727 1.40315
382 6.5099 2.46807 10.2998 1.09407 0.865981 1.59642
541 5.2296 3.2242 9.98728 -0.85136 -0.489509 -0.129606
557 7.5582 2.34785 9.99817 -0.110888 -0.478567 0.529314
750 6.88706 3.18745 9.44632 -1.12958 -0.610993 0.224956
259 7.96267 3.73622 9.30505 -1.95177 -0.328969 -0.621921
588 8.45772 2.66883 9.42782 -0.844735 0.574676 -1.6924
580 9.1392 1.63219 9.67002 2.17623 0.106641 1.66314
680 9.43714 3.50864 9.39163 1.29174 -0.580361 -2.37241
644 8.26101 1.42583 10.0817 -0.302119 0.172525 2.03792
670 0.159953 2.62806 10.6222 1.22877 0.78558 -0.0761482
841 10.3968 3.33202 9.87532 -0.412532 0.0564322 0.265392
792 9.65345 2.5451 9.77403 -0.356653 0.660858 0.00496634
535 1.24794 5.03495 10.5709 -0.0773802 0.454319 0.618974
141 1.15524 3.61806 10.3853 -0.7533 -1.16336 1.24047
7 0.429428 5.31414 9.83337 0.74621 0.746349 0.379293
366 0.175821 4.37797 10.0954 1.21964 0.187693 -0.406266
799 1.25306 4.27991 9.27507 0.795011 -0.291699 0.62733
435 2.81248 3.97447 8.69891 0.478415 0.299884 -0.460028
647 2.68506 5.23622 6.82892 -1.02188 -2.01844 1.19252
307 2.08731 3.77552 9.7589 2.0239 0.582683 -0.245455
38 2.17111 4.72787 10.1007 0.110181 -1.34232 -0.901076
798 3.89264 4.64837 9.51107 -0.720191 -0.0866956 0.0156998
68 3.33644 5.16218 10.3209 -0.578925 0.231071 -3.26243
269 4.44251 3.84739 10.1929 1.00569 -1.29337 1.85961
591 7.05941 0.326084 6.60302 0.667527 0.769993 1.41399
403 10.0702 4.91534 9.88614 0.914492 0.193523 -0.397147
300 6.14346 3.53124 10.5051 -1.26763 0.00848574 0.991838
646 7.87775 0.554584 9.70038 0.150683 -0.297272 -0.865789
415 5.60547 4.17392 9.85333 -0.859704 0.741886 0.250712
726 6.7372 4.43492 9.69702 0.356315 -0.925216 -1.1396
565 7.5939 0.940744 5.94851 -0.941016 0.803121 -0.889178
530 9.74004 3.835 10.549 1.21436 0.567941 -0.114057
453 8.45176 4.83462 9.92641 0.755576 -0.290238 -0.469965
769 8.85526 4.33938 9.11276 -1.14573 2.23255 0.744964
393 8.68125 3.84611 9.98964 -0.8496 1.0667 -0.527974
734 10.5262 4.04099 5.56312 -0.612123 0.0666679 -0.787561
37 10.4652 2.6405 5.41834 -0.497665 -0.811911 -0.219898
666 9.19887 0.202777 8.46862 0.630837 1.86215 -0.0808644
404 0.698564 0.102904 9.29618 -0.990176 1.36772 -0.378465
655 8.25485 1.73563 5.55087 0.484165 -0.772103 -1.18802
264 7.51419 4.57956 10.4539 -1.35538 -0.337373 0.217485
573 7.65048 3.37597 5.66949 -0.193888 -1.074 0.692997
819 1.86865 0.174283 10.4822 -1.18612 2.11399 -0.376668
475 6.98237 2.04125 5.45354 -0.193581 0.735537 0.0986106
424 4.86963 5.02868 8.58574 -0.151105 0.700329 -0.0830162
15 5.86076 0.36921 9.25427 -0.555811 1.87874 -1.23618
842 2.47884 0.919767 10.5633 0.607516 -1.58532 -0.50643
729 3.21218 0.0634117 7.03914 -1.89425 -0.349048 -0.234513
350 7.0114 5.25876 7.78383 -0.731679 -1.28269 1.04247
106 6.6473 10.5004 1.9496 -0.0472398 1.18743 0.103792
765 1.59036 6.36476 1.65397 0.398783 0.290664 -0.0240276
713 4.0579 10.51 2.39168 -1.72445 -0.898435 2.08421
251 5.48641 10.4527 4.99036 0.655461 0.724751 -0.0858699
766 2.3903 5.8118 1.20128 1.37198 -0.963521 -0.393835
477 1.64351 6.184 0.537849 -2.59161 -1.14654 1.298
658 3.48407 6.52528 0.639487 -0.537985 1.21589 -0.0792599
229 3.45384 5.76675 1.37911 -1.13632 0.00174815 0.696352
817 4.43885 7.02621 0.306031 0.243998 -0.841116 -0.124926
702 3.85719 7.06494 1.44943 -0.451909 -0.808747 0.466206
855 5.18986 6.15333 0.5356 0.622281 -0.93903 0.332189
629 6.05936 7.44237 0.824399 -1.16226 -1.04722 0.0390085
531 0.463841 9.11621 0.363667 -0.44155 0.58651 1.31091
224 0.040001 10.3619 1.5613 -0.771274 0.423246 -1.7446
222 8.8095 6.44592 1.10747 -0.830411 2.61556 -1.27863
232 4.37528 10.5523 0.585691 2.38127 -2.31532 0.209351
661 1.09756 7.90295 0.107917 -2.14858 -0.274615 2.39672
545 9.61424 5.64336 0.579929 -1.3922 -1.50573 0.177994
90 0.265438 5.9954 1.78968 1.62531 0.0520742 0.198661
529 10.054 6.53546 0.940539 2.41591 0.660467 -1.00367
746 0.337699 6.5635 0.572067 0.64884 -0.67703 0.834147
168 0.169206 7.53857 0.953271 0.352705 0.693467 0.709653
413 1.11312 8.68751 1.17939 -0.182037 -1.29866 0.772992
462 1.23922 7.17179 0.977501 1.10757 0.358819 0.898666
387 0.142276 8.77882 1.57761 1.14319 -0.353292 -0.170347
484 10.5316 5.98997 4.31708 -0.836034 0.328526 -1.32809
470 2.13654 7.94262 0.553789 -0.0675791 0.42842 -0.127308
98 2.29879 6.95078 0.920437 1.59888 0.256314 -1.27993
80 2.17116 8.80734 1.18046 0.812072 1.07536 -0.348184
534 4.21415 7.9273 0.824308 0.328452 1.43291 0.16031
489 4.06948 9.25277 0.837737 -0.354079 0.204186 0.990508
852 4.45354 6.16377 1.71694 -0.2157 0.265473 -0.710527
510 6.53755 8.26769 0.986864 0.600425 0.568328 -0.44402
654 3.99892 10.5024 3.42774 1.90772 -1.37259 -0.267606
730 5.17472 7.84964 0.197351 1.92869 2.08882 -0.645998
40 0.439687 5.58794 2.9649 -0.149514 -0.142647 -0.0536805
528 6.99757 6.83222 0.640635 -0.41973 1.29126 0.464505
166 7.10646 8.67628 0.26118 -1.6259 -0.991049 0.0147429
105 7.40125 7.71889 1.66179 3.18138 -0.793066 0.615323
784 8.03126 7.24297 0.851926 0.936821 -2.25979 0.49033
150 8.02086 8.42476 0.651405 0.443766 -1.30441 1.11727
143 8.85096 8.15716 1.30495 1.03127 -0.938301 1.49403
506 9.94271 6.80164 1.98837 -0.457948 1.74715 0.275761
213 9.52246 7.6844 0.420752 0.371026 0.0864311 1.24492
434 9.86443 8.29107 1.52803 -2.27041 0.157206 0.974663
569 1.07347 9.75508 0.929895 -0.127891 -1.26223 -0.387775
173 1.01166 9.51973 2.04906 -1.59948 -0.137738 -0.809997
638 0.183013 10.1381 0.396726 -0.570058 -0.580865 -0.597264
122 2.11285 9.56605 1.94556 -0.715786 0.286982 2.49982
374 9.1185 10.4581 1.10122 0.863245 0.146636 -0.169798
109 2.60942 10.4607 1.97818 -0.887385 -0.0754115 -0.877055
349 2.82978 8.75491 0.382806 1.04122 0.375676 0.704204
287 0.909175 5.96411 4.58889 0.229759 -0.667184 -0.0611561
218 2.98083 9.53688 1.27456 -0.488564 0.920176 0.980861
395 4.38164 10.1148 1.50498 -0.427227 -0.819733 0.801725
858 4.46243 5.41477 4.44471 -1.16089 0.324437 1.86469
700 5.18152 9.21493 0.469142 0.532139 -1.4482 -0.32616
690 6.43916 9.60574 0.918554 0.759761 0.243092 -1.19642
35 6.69159 10.2842 0.0186621 -0.0893942 3.04554 -1.56839
488 7.42056 8.75766 1.50207 0.95389 -1.33033 -0.20189
299 2.09997 10.0657 1.04803 -1.69885 0.623374 3.79771
50 6.35001 8.12728 5.30068 -0.90681 -1.31489 0.926758
136 5.50696 5.40969 5.29671 0.155234 0.29917 -0.235449
740 7.41672 9.86824 0.427522 1.71116 1.26378 0.666705
3 1.92087 9.85981 0.0135619 1.34557 1.47678 -0.798139
456 10.1645 9.12446 0.89184 -0.841221 -0.782134 -0.480972
744 9.55524 10.3318 2.26017 0.440522 0.682091 0.901196
246 9.08949 9.10836 0.430527 0.728845 1.02224 0.889441
20 9.85897 10.0893 0.179048 1.80928 0.0170566 -0.0203654
306 5.11266 10.1137 4.03127 0.318991 -0.0305527 -0.124468
612 0.284441 6.84984 4.04086 1.28249 -0.555268 0.50553
43 1.83777 7.43933 1.7347 -0.386724 -0.229986 -1.33171
23 0.948692 6.56624 2.77301 -0.476911 0.520615 0.241158
846 1.33131 5.6246 2.2294 -0.870829 -0.907139 1.0063
627 2.181 6.36013 2.54999 -1.02633 0.626178 -1.94204
780 2.97091 6.92663 1.87777 -0.37922 -0.294787 -0.312924
159 2.9156 5.88974 3.18537 1.2801 0.811783 0.255098
714 4.30218 6.78028 2.49461 -1.28336 -0.421621 -0.831362
226 5.2784 6.26997 2.37256 -0.424801 -0.12652 -1.76218
12 5.69081 6.4448 1.38093 0.496825 0.796405 -1.97606
590 6.29299 6.95232 3.6881 -1.04935 0.533141 1.33717
172 8.46317 7.06085 1.97609 1.40115 -0.270561 0.130724
351 6.68025 6.82192 1.62118 0.587473 0.464755 -1.22332
598 6.37791 6.1681 2.37926 -0.937117 0.236794 -1.53037
516 7.49115 6.17231 1.50947 0.645612 0.788798 0.137398
642 7.3881 6.67291 2.68359 0.93343 -2.00389 -0.14545
523 7.9849 8.7498 5.05182 0.197801 -2.12983 -2.73831
543 8.35229 5.89058 2.07503 -0.0442854 -2.08645 -0.688976
552 8.40094 6.39922 3.1675 1.32554 0.599256 -1.69769
499 9.01112 9.9487 4.55555 -0.562705 0.74614 -0.821668
130 7.26007 5.62237 2.60436 -1.51256 0.528228 0.454277
200 9.188 5.76254 2.71039 0.365092 -0.552553 0.940753
508 10.257 6.77782 3.17508 1.13895 -0.0885123 0.546567
443 3.88279 5.90397 2.52088 -1.41111 1.14232 0.715828
515 1.43499 7.632 2.85676 -0.55936 -1.34106 1.00276
509 1.82744 8.4797 2.19016 0.850716 -0.979378 -0.452511
458 0.693342 7.71232 2.04722 0.724739 1.37276 -0.952966
342 1.28881 6.77987 4.05459 -1.10855 0.627158 0.593533
133 0.197523 7.93123 3.6671 -0.281861 1.63648 -1.37956
31 2.95847 7.8164 1.27116 0.438904 1.34688 -1.82004
793 3.69693 7.61115 2.53828 1.46731 -0.1109 -0.494208