ITEM: TIMESTEP
43920
ITEM: NUMBER OF ATOMS
864
ITEM: BOX BOUNDS pp pp pp
0.0000000000000000e+00 1.0726842421158810e+01
0.0000000000000000e+00 1.0726842421158810e+01
0.0000000000000000e+00 1.0726842421158810e+01
ITEM: ATOMS id x y z vx vy vz
371 1.36193 1.35344 0.559229 -0.455567 0.430639 0.362248
224 0.818141 1.05596 1.50938 0.171214 1.65916 1.21953
417 10.5404 1.40113 0.655719 -0.770941 0.559924 -0.0866821
63 5.77429 5.17992 0.947717 0.741596 0.0195466 0.462992
173 0.393984 0.19047 1.47926 -0.409363 0.0559038 0.101556
297 1.86433 0.818916 1.24685 -1.20701 -0.15152 -0.890309
157 4.12081 0.427546 1.83992 2.36839 0.545936 -1.10323
536 7.47033 0.141735 3.67817 1.3799 1.19312 -0.738074
490 4.07582 0.287556 0.686608 0.652957 -1.66249 -1.84756
713 3.52005 1.01433 1.16797 -2.44539 -0.497677 1.27213
864 4.77114 1.30653 1.29967 -0.499048 0.425402 -0.531245
474 5.14342 1.41209 0.256843 0.565784 1.03782 -0.415609
379 6.26118 0.526958 1.03846 0.588303 -0.995883 0.948237
743 7.04577 0.778148 0.275607 0.618977 -0.444 1.26102
162 10.5463 4.56596 0.577494 -0.128444 -2.04833 0.985136
26 7.44587 1.97896 2.09456 -0.931401 0.113537 0.163721
412 8.13115 0.50804 0.72229 0.620033 0.852819 0.125076
363 8.06537 0.560489 1.76004 -0.750643 -1.492 -0.355152
97 8.05839 1.40322 1.11791 1.54455 0.109034 0.67313
104 10.0759 0.762761 1.64898 0.750333 -0.975261 0.347043
547 9.02508 0.696644 0.324157 1.51208 -0.750612 0.581279
465 0.250576 2.09834 1.44794 0.117015 -1.07818 -0.0292472
161 1.09426 2.64347 0.721108 -1.17888 2.19181 -0.0199197
132 1.09244 3.00976 1.93949 0.498614 -0.254289 -0.0628809
195 2.00516 2.18008 0.502913 1.04215 0.96391 0.297078
84 2.0452 2.99845 1.17195 -0.508249 -0.286137 -1.01893
674 3.21283 2.83593 0.571596 0.994999 -0.636535 -0.312903
343 9.15481 0.296596 1.25089 -0.684244 1.17402 -1.5338
657 4.15376 3.17471 0.923626 -0.852931 -1.84669 -0.181524
396 4.04703 2.15245 1.32867 -0.255067 -0.147545 -0.97335
243 3.22636 2.30263 2.14078 0.881491 1.40118 3.17764
365 5.22458 2.12473 1.07888 0.736684 -1.01162 -1.64926
480 5.36714 3.13938 1.2827 2.38697 0.0051107 0.723878
66 6.78637 5.1743 1.74053 -0.547091 -0.484934 -0.387234
816 3.54292 4.18297 1.88615 0.397126 1.76889 0.524702
644 6.78313 1.69477 0.907755 1.19049 -0.132257 0.124597
77 6.59637 2.66482 1.63298 -1.06158 -0.299938 -1.58395
774 6.18638 2.51839 0.54911 -0.323076 -1.11104 -0.0251329
278 7.19796 2.33149 0.0503019 -0.59555 0.911567 -1.25214
407 8.53044 3.10114 0.302357 -0.330107 0.144821 0.45915
231 8.43347 1.99554 1.99137 1.02317 -0.192361 0.739514
41 7.71953 2.58233 1.19661 1.04162 1.13305 -1.08012
648 10.6249 3.6235 0.168273 -2.06781 -0.903661 0.932141
595 10.2652 2.55953 0.819839 0.835536 -0.522203 1.44697
5 9.40787 2.84668 2.10155 -1.53967 0.77697 0.463934
602 9.2714 1.39978 1.31356 0.356815 -2.12315 1.11671
176 9.65292 3.48249 0.621337 -0.113193 1.26063 -0.338917
7 0.707867 3.63443 0.742031 -0.644958 1.41776 0.139359
49 1.26159 4.80746 1.04248 -0.285082 0.701358 1.61446
559 1.57232 4.16589 0.282281 -0.550127 -0.572351 0.452483
466 2.72295 3.70682 1.00175 0.178032 1.31543 -2.44301
586 2.60826 5.01283 1.44883 -0.162286 0.686472 0.00386838
419 3.78002 4.28606 0.76649 -0.902666 1.69366 0.551578
776 5.02458 4.13151 1.93724 0.440111 0.202178 2.49744
358 9.74144 4.98348 4.22061 -0.700844 -2.10446 0.161933
102 6.13641 3.56722 0.861758 -1.32356 -1.42097 0.767933
138 7.30937 4.03091 2.19254 1.11825 -1.55897 0.958712
139 6.89361 4.38006 0.856413 -1.24555 -1.40155 -0.310458
188 7.61184 3.62288 0.924448 -0.756643 0.0597817 0.354274
726 8.87059 4.07316 0.569284 -1.1181 1.1542 -0.550062
855 8.08614 4.86277 0.599892 -0.286283 -1.17167 -1.74165
99 9.2327 4.39098 1.59451 0.901351 0.637452 -0.372299
823 0.173372 4.42223 1.6066 1.08349 -0.180754 0.737847
468 9.52272 4.93387 0.770462 0.724759 0.823036 -0.973426
461 2.28871 0.429809 0.467227 -0.195393 0.823873 1.1445
36 0.19121 0.908629 2.40571 0.18854 2.70015 0.826486
167 1.17135 0.0864795 2.27862 0.511257 0.724069 1.49909
708 0.895275 1.47426 3.24003 0.300495 1.48398 2.76052
550 8.70846 0.445933 2.75214 -1.77955 0.389448 -0.934705
801 2.08989 1.69382 3.68581 -0.224664 0.0926869 -0.792473
252 1.80605 1.92109 1.64372 0.812191 -0.960342 2.19695
570 2.43191 1.31553 2.2852 0.187003 2.76163 -0.962827
110 5.13435 1.56833 2.37687 -0.314148 -0.935153 1.76342
600 2.67236 0.596809 3.23341 1.11619 0.380603 1.17273
44 3.98483 1.53779 2.16218 0.819333 0.410857 1.52101
58 4.40131 0.596063 2.82517 0.629575 -1.18424 0.641137
630 4.65225 4.37548 4.16204 -0.922833 -1.99334 -0.571758
234 3.33413 0.68361 2.39992 -0.0550964 0.26977 -0.663381
160 4.81891 2.8076 0.137171 1.79741 -0.990073 -0.16381
296 6.13821 1.49787 1.88695 1.9152 -0.922937 0.631003
106 6.1169 0.757109 2.66797 0.424382 0.0647245 1.95496
64 6.9591 0.499314 1.75047 1.29823 0.317917 0.308018
725 7.3067 0.658625 2.73917 -2.3406 -0.770433 -1.74926
787 6.63865 1.91913 2.88347 -1.22966 -0.281165 0.523699
669 10.2578 4.9513 5.17742 -0.985561 0.197775 0.740458
51 8.48277 1.97074 0.419083 -0.269109 -0.196703 0.0236644
615 9.8351 0.637996 2.89533 0.0372749 0.988048 0.869959
255 8.6264 1.32309 3.25683 0.84151 0.795798 -1.71161
121 0.327891 0.529194 3.48078 0.706068 1.20167 0.0484972
113 0.872289 2.00953 2.32155 0.123244 1.06099 0.86625
189 0.703791 2.08726 4.3128 -0.68775 -0.611573 -0.2587
741 2.50002 2.29294 2.84177 -0.40773 -0.217281 0.164302
281 1.5228 2.88367 3.10407 -1.61308 1.32385 -1.25961
32 2.65724 3.21475 2.21409 0.259396 -1.07611 -0.74151
265 1.72488 0.799549 2.93403 0.367227 -1.72292 0.136301
732 3.90038 3.11877 1.92736 -1.14512 0.181655 -0.930643
494 3.24931 2.55246 3.91357 0.227326 -0.171763 -0.0801748
546 3.30287 3.18015 2.99846 -0.565554 -1.08967 0.545164
521 5.14629 2.53198 2.70618 -0.293889 -0.872797 0.356703
688 5.47529 1.73296 3.55199 0.486688 -1.13493 -0.567567
587 5.49712 3.82756 2.79111 1.42005 0.371339 0.206641
131 4.52524 3.43873 2.82931 -1.64331 0.741794 1.5754
115 7.27569 2.9757 3.88878 -0.0256066 0.778797 -0.291573
216 6.62193 3.35825 2.39089 -0.459841 -0.378968 0.32075
257 8.04159 2.17002 3.09827 -1.02849 -0.964731 -0.758708
639 10.3391 2.45868 2.89512 0.984961 1.21804 -0.329321
92 9.15751 2.09294 2.82489 1.00604 -0.787706 -0.726798
2 8.57263 2.70277 3.63784 -0.214228 -1.82885 -1.16724
74 7.68484 3.04011 2.15647 0.119469 -0.428232 0.473692
191 10.1952 1.84268 2.02725 -0.393271 -0.106852 -0.690757
85 0.585054 2.55968 3.45175 -0.668778 -1.44837 -0.347327
10 10.4608 1.5407 3.34054 0.339167 -0.451784 -0.27861
555 0.232854 3.83478 2.46086 -0.941846 -1.03017 -0.758747
754 0.612133 4.40846 3.2941 0.846776 -0.517185 1.28808
444 1.58461 4.09787 3.04984 -1.32967 -1.25692 -1.77871
248 10.3098 4.13895 3.55169 -1.56068 1.89219 -0.858356
61 1.79473 3.78769 1.78695 -0.0925007 -1.23588 0.429916
770 2.75771 4.44222 2.53009 1.54394 0.352905 2.04814
618 3.9828 5.12916 1.52773 0.0724696 -1.33051 -1.98422
426 3.00418 4.74931 3.83877 -0.0338992 -0.263966 1.10401
665 4.43321 4.8939 2.51503 1.18708 0.0972599 -0.357127
452 6.05734 4.30086 1.79974 0.0615072 1.62838 0.817793
610 5.72229 4.67625 3.51749 -0.310294 1.06189 1.56557
479 10.1989 3.99965 4.60279 -1.33532 1.69434 0.368434
182 6.53066 4.46382 2.62665 0.243795 2.01415 -1.24279
112 6.68252 4.9176 3.78867 -0.893512 0.595795 2.83739
418 8.14756 4.94586 3.14624 -0.911076 0.112908 1.43855
274 8.46535 3.64488 1.61284 0.0156229 -0.320707 -1.80897
596 7.93191 3.83638 3.29047 -1.15369 0.106167 -0.0811754
527 8.10407 4.69791 1.99179 1.35695 0.223947 0.182532
235 10.0571 3.64205 1.52458 -0.978847 0.178908 0.116011
519 9.50041 4.49371 2.53132 0.0611788 0.979153 -0.772357
746 10.015 5.05806 1.65612 0.183566 0.223246 -2.616
612 10.4385 4.80682 2.83527 1.37824 0.386485 -0.241694
654 0.86994 1.66914 5.23895 0.558151 -1.96181 -0.111715
192 1.83179 1.05614 5.3295 0.461367 -0.236691 1.97765
583 1.77628 0.477775 4.0746 0.0494665 -0.290548 0.214863
123 0.687106 0.716488 4.35782 -1.09373 -0.947447 -0.183739
361 5.65038 0.105492 2.00344 0.304106 0.897738 0.264836
440 1.46877 5.18548 2.08697 0.869444 -0.640829 0.204721
319 2.70811 0.999125 4.51838 2.57907 -0.912117 0.78231
306 3.8602 0.688254 4.34111 -0.0737731 -1.13214 -0.996615
273 3.29686 1.44004 3.19762 -2.22777 0.623038 -0.842318
758 4.57089 1.45657 4.60864 0.252713 0.503369 -0.544962
154 3.51056 1.74552 4.6123 0.0199779 2.03584 0.758768
554 5.11755 0.704195 3.79997 0.0476129 0.566446 0.176453
857 5.74684 1.07275 4.64448 -1.15229 -0.531984 -1.70615
245 6.40882 0.952585 3.62507 0.620944 -0.205421 -0.4209
251 6.89007 0.620369 4.73306 0.528503 -0.351693 1.27125
589 6.09618 0.0301035 4.28107 1.39001 -0.0954469 -0.699487
149 7.36434 1.53159 5.18853 0.266831 -0.960056 -0.522646
236 8.72088 0.491319 3.80159 -1.28278 1.92387 0.304173
443 5.11883 5.12536 1.75741 2.41622 -1.78129 1.64228
37 9.41341 1.46362 3.9015 0.335586 0.961902 -0.437525
158 8.35114 1.77815 4.45841 -2.39306 -0.00713253 1.31966
718 9.39439 1.84199 4.93425 0.963795 -0.674645 1.85866
498 2.22335 0.196261 2.34702 -0.222739 -0.48601 -0.183251
185 10.3224 0.625322 4.32657 0.578096 -1.00462 0.586178
174 0.956193 5.33239 3.91266 0.0785265 0.631468 0.516679
310 0.0888739 3.10802 4.77704 -0.125126 -1.99439 0.11033
57 1.65518 2.87113 4.25726 1.35989 0.968804 0.181717
288 1.33083 3.45394 5.24232 1.87626 0.946393 -1.24517
178 2.48741 3.11022 3.53525 -0.521974 -0.707468 0.25646
652 2.50735 2.20486 4.54359 0.00435685 0.024819 -0.652526
198 3.88835 3.62336 3.68143 -1.1396 -1.31438 -1.02609
181 4.38128 2.47912 5.14227 0.824408 -2.09815 -1.64572
34 3.21498 2.92522 4.82696 0.556185 -1.0531 0.804005
215 4.14644 1.58129 3.59004 -2.63125 -0.0450596 -0.667516
322 4.18154 3.44389 4.72186 -1.94446 0.207176 -0.864689
13 5.271 2.23318 4.6039 0.161147 -0.701292 -0.109009
103 4.17793 2.63002 3.73007 0.82904 0.132456 -0.926428
203 6.40961 1.80205 4.82414 -1.41737 -0.166315 -1.75035
633 6.52255 3.35643 4.76205 0.79883 0.620725 -1.61302
400 7.65531 1.19814 3.92304 -0.129457 -2.04341 0.431867
807 7.31464 2.63797 4.83215 1.06933 0.608408 0.196366
573 9.14682 4.21458 3.41669 0.560932 -0.479727 -2.3593
348 8.59595 3.57109 4.43232 -1.95275 -1.57138 0.84916
721 8.29887 2.68252 4.98914 0.533816 -0.845876 -0.300681
241 7.66724 3.78069 4.48854 -0.826122 2.53521 1.07624
237 9.73334 3.27912 3.03845 0.933971 0.450702 -0.524988
202 10.4496 3.05898 3.88583 0.790695 0.89991 -0.503121
76 10.3579 2.11769 4.71332 0.291888 0.0786232 -0.0330824
734 9.47854 2.50331 3.98081 0.635949 -1.11045 0.733318
737 9.52046 3.20951 4.97701 -0.119951 -0.730727 0.356985
117 9.54544 1.51386 0.256099 -1.01464 0.662072 -0.357894
29 3.68302 0.116089 3.41586 -0.271331 -0.172012 0.729635
526 0.398822 4.49889 4.77523 0.141818 1.50864 -0.706867
484 0.779544 3.5682 4.09104 -0.0170768 0.520872 0.25794
538 1.44338 4.65333 4.5031 0.347642 0.351226 -1.10625
312 2.97452 4.47516 4.7683 1.85719 1.36099 -0.68292
436 2.42854 3.89161 4.08671 -0.458451 0.112652 0.230142
40 2.02919 4.91264 3.50374 -0.471295 0.650502 0.373316
179 3.90091 4.55466 3.34983 -0.254446 0.708783 -0.541587
699 9.14424 0.813132 4.661 -1.49534 1.46585 0.0437297
226 3.84967 5.12046 4.42204 -0.28118 1.46306 0.333987
672 6.40615 3.85709 3.90991 0.620871 0.898201 0.567624
204 5.27971 3.25358 3.98016 0.500085 -2.97287 -0.676341
327 6.50547 4.40068 4.8886 0.143019 2.16397 0.326386
431 6.8837 3.51094 0.0479656 -0.46814 -0.333618 1.15996
242 0.62833 0.604371 0.594249 0.432116 1.5315 -0.136786
45 4.36864 5.05022 5.24692 0.46775 -0.107451 0.262917
354 9.08055 4.30897 4.8875 0.41984 0.548234 0.49695
135 7.70832 4.99568 4.24918 -0.118906 -0.643861 -0.615913
658 2.53172 5.20181 0.415335 0.486915 2.85689 0.584696
492 10.1954 0.109797 0.781423 -0.0393439 0.174854 0.680706
601 8.87659 5.29015 5.09894 0.496267 -0.0919473 -2.27429
35 5.1617 0.409472 1.03915 0.270448 1.49094 0.60506
380 4.79308 5.28024 0.52597 0.779247 0.385021 -0.182069
87 5.51101 3.04096 5.05518 1.64007 0.0568375 -0.781758
197 4.02388 1.34487 0.367158 0.409935 -0.449095 2.10246
206 2.68024 4.26694 0.0605115 0.393452 -0.264254 0.974903
82 1.86554 2.45725 5.32272 0.554852 -0.487862 -0.806391
90 0.304866 5.35074 2.06878 -1.36248 -0.518608 0.996777
46 7.31981 5.35082 2.60249 -0.880551 -1.30514 1.56765
367 1.41217 0.833401 6.81085 -1.02832 0.93455 -0.267741
277 0.795333 1.53814 6.25694 -0.560246 -0.623782 -0.720527
439 1.01829 0.156531 5.38319 -0.302862 0.263902 -0.95929
256 0.311461 0.530511 6.43197 -0.400269 -0.0527755 -1.31142
275 2.44041 0.880254 6.48133 1.41255 0.172271 -0.348974
70 2.05554 1.22845 10.6023 0.338822 -0.0150885 -0.562413
228 4.48002 0.665803 5.38997 0.278043 0.148121 -0.828476
824 4.33161 2.08699 6.27459 0.164334 0.685227 -0.649705
437 3.36555 1.27966 7.24373 -0.339553 -1.51513 1.35525
729 3.45788 0.42699 6.60514 0.677234 1.46477 -0.955789
751 5.13571 1.6384 5.51451 1.75293 -0.835282 -0.168457
190 5.58871 4.75526 5.43279 -1.47692 2.16143 0.731102
300 5.13307 4.74451 10.277 0.201271 0.0915968 0.0739265
820 5.5376 0.706535 6.20396 -0.746399 -1.05472 0.217386
212 6.48871 0.86287 5.69192 2.29589 0.33327 0.555427
736 6.7063 1.17431 6.63639 -0.607348 2.98982 -1.55562
475 7.1377 2.13149 6.17283 0.130783 0.236583 1.10175
641 7.13722 0.0923512 6.60874 -0.201885 0.391136 -0.296803
790 9.64466 1.18807 5.66353 3.14368 -0.486029 -1.28934
706 7.90093 0.971652 6.32057 2.2182 -0.107902 -0.56061
655 8.4423 1.35086 5.50224 -0.920013 -0.975422 -0.421897
332 9.98163 0.225247 6.82003 -0.911504 0.391489 -0.495524
362 10.6132 1.92801 5.76831 -0.938955 -0.546904 -0.091278
626 10.4012 1.39764 6.6163 -1.46574 -1.14113 -0.720602
518 4.71203 3.82764 10.2736 -1.30996 0.60794 0.59117
786 9.18576 1.91818 6.13643 0.818614 1.19958 -1.09097
127 1.15813 1.89264 7.21953 -0.538511 -0.333881 0.0762857
631 0.865405 3.01195 7.29183 1.16303 1.61871 0.0666899
325 2.02053 2.98609 7.11037 2.91452 -1.10712 0.389968
315 0.40842 2.93777 5.64606 -0.912481 0.148638 1.06962
171 1.28351 2.64431 6.43231 -1.11744 0.0706819 0.988087
337 2.87041 1.66201 5.48315 1.04415 -0.0668811 0.069848
223 2.00531 3.4076 6.08417 -0.129916 -0.348318 -0.00690564
214 3.14178 3.76986 6.63572 -0.27741 1.71878 0.174191
320 2.53786 2.44648 6.19554 1.06179 0.922924 -0.117055
422 3.35468 2.89858 5.91147 -0.997633 -0.307825 -1.91332
727 3.3701 2.57062 6.88797 -0.0880137 -0.535209 0.465736
156 4.67677 3.21852 6.04156 0.448805 1.62608 -0.472627
376 5.49195 3.17091 7.24231 -1.53243 0.407129 1.06578
843 6.0945 1.69813 5.9582 -0.183406 -0.573673 -0.262314
763 5.71199 2.76269 6.31017 2.51237 1.34383 -1.04486
701 4.43535 0.104273 7.12427 0.340157 0.597827 1.00759
352 6.26593 2.24107 7.08419 0.293899 -1.05408 -0.493979
335 6.41435 2.74903 5.57342 0.76538 1.72686 -1.99071
53 6.8165 3.11158 6.52019 -0.220638 -0.247056 -0.346234
756 8.23047 2.26746 6.09496 -0.795925 0.884866 -0.74062
388 8.68353 3.45163 5.76664 0.218014 0.257522 -0.943345
220 10.6679 2.52847 6.72594 -1.84955 0.899999 1.31374
789 10.0179 2.85958 5.79266 -0.718218 0.957873 1.61306
72 10.5304 3.72604 6.61174 1.12694 -0.746662 0.159944
359 1.16488 4.11541 6.16057 -0.281137 2.86326 0.493586
170 0.767256 4.29377 7.66439 1.37434 -0.194076 0.724378
442 2.10959 4.54304 5.58198 -0.192305 1.04654 -0.716372
435 1.46193 3.84371 7.10252 -1.35954 -0.95992 0.840952
611 2.41518 4.98658 6.60272 0.71131 -1.18581 -0.0231335
794 3.27511 4.71646 5.98185 0.392169 -0.0396708 1.15129
318 3.87393 3.98085 5.59448 1.76923 2.08226 -1.09311
512 4.18748 3.59289 7.07011 1.70258 -0.804632 -0.224588
89 4.43614 4.68361 7.11611 1.28582 -0.587802 -2.14791
416 3.10476 1.56863 10.7205 -0.214928 0.906271 0.705082
294 6.2304 3.97985 6.80603 -0.836189 0.630131 1.3602
788 6.18234 3.77133 5.7854 -0.754824 0.553197 0.169019
594 7.17536 4.47976 6.41218 -0.103515 0.755169 -0.474296
309 9.37031 5.11414 7.95908 -1.2324 -0.162747 -1.18765
592 9.50509 4.98067 6.06413 1.37559 -0.793386 -0.40147
27 9.38406 4.01086 6.5235 -0.562586 -1.19435 0.435452
813 7.531 4.69611 7.35579 0.0882867 0.864523 0.508402
244 1.83203 1.59899 6.21571 0.964225 0.835375 0.842723
429 0.0521827 0.867777 5.45886 2.22926 2.93029 -2.03302
336 7.99339 4.5539 5.38009 -0.0747436 0.810065 -0.10445
205 9.87155 4.03842 5.5753 0.894057 1.90732 -0.744493
645 10.697 4.85709 6.16124 1.50986 0.907204 0.990094
151 4.36722 0.188771 9.77185 0.720577 0.170384 -1.03444
453 9.8012 4.64686 9.76155 -0.23214 -1.27056 0.549626
239 0.501865 0.690803 7.86973 0.716209 -1.04004 -0.374123
505 0.255097 0.562916 9.11521 1.32188 -0.145411 1.48522
261 1.55409 1.08865 7.82495 0.130838 -0.355567 -0.981384
79 2.38222 0.529806 7.50709 1.40219 0.540769 -0.537407
767 1.3684 0.58802 8.72136 1.04152 -0.158971 -1.3651
517 2.36954 1.60379 7.26039 0.134489 -0.121118 1.77374
55 2.42275 1.3438 8.46501 -1.04999 -0.0986921 0.609504
9 9.17054 0.127832 10.0245 -0.174404 0.768615 1.36834
685 4.48425 1.14496 6.92588 -0.613305 -0.729292 -1.28665
298 3.1779 0.608533 8.15961 -0.81227 0.196658 -0.563786
832 4.34395 0.983174 8.93204 -0.78627 0.0658528 -0.807896
368 3.34642 1.52354 8.71782 -0.312082 0.913868 1.59147
609 5.97107 1.7758 8.32441 -2.86422 1.10294 0.32855
1 5.45716 0.985751 7.80995 0.446623 -0.458674 -0.80282
502 6.44305 0.851759 7.74695 -0.130061 0.260473 -0.193895
837 7.68105 0.97541 7.84357 -0.067472 -0.0737848 -0.707237
863 8.56355 0.134149 6.4613 0.655238 0.804022 -1.25812
715 8.51914 1.51348 8.23306 -0.121983 -0.502374 0.356272
184 7.45964 3.42793 5.43644 0.800255 0.182782 -0.532566
238 9.70346 0.427915 7.95148 -0.310472 0.162619 1.89346
25 9.05482 0.981981 6.65796 0.122313 -0.0681225 0.438767
385 9.76789 1.35886 8.60588 -0.229555 0.11825 1.47654
18 8.52559 0.215668 7.68713 -0.124227 -0.795257 -1.60012
266 0.563408 1.37819 8.63053 -0.486696 -0.308156 0.70424
290 0.804472 2.29018 8.2188 1.06536 -1.53488 0.632963
69 2.89373 3.31269 7.6645 0.641896 0.973729 1.3259
673 1.91824 2.20586 7.90172 -0.535144 1.08872 -0.403517
551 3.51722 2.4842 8.44366 -0.517366 -0.552804 0.767984
292 4.77588 1.84654 8.76565 0.45945 -1.32778 0.0564862
514 5.18196 1.96178 7.18089 -0.606409 -0.347282 1.14776
406 5.19994 2.54356 8.18422 0.200457 1.74647 -0.0524852
803 4.0889 2.56013 7.58822 -0.590848 0.463315 -1.74118
169 6.7178 2.33757 8.02364 0.760323 0.919965 -0.166876
432 6.02084 2.92341 8.68499 0.915747 0.163733 0.125431
142 6.46059 3.35136 7.5998 0.625942 -0.243658 0.286597
124 8.34327 1.65712 7.10955 -1.32217 0.218872 -1.54286
438 7.6227 3.62476 7.35433 -0.778202 0.960882 -0.599358
483 7.10666 3.27248 8.60771 -0.322095 -0.364773 1.87163
473 7.57691 2.27964 8.71465 -0.357898 0.267433 -0.443149
209 7.45663 2.52114 7.08269 -0.529422 0.113726 -0.484281
735 8.51065 2.75006 7.14042 0.689488 0.0574752 -1.34761
854 9.44647 1.86262 7.14037 1.97372 -1.56592 -0.224845
369 10.4948 1.88571 8.01068 -0.272453 -0.447065 0.261816
670 10.6467 2.58951 8.95007 0.584731 1.49339 1.07432
384 9.42946 2.30964 8.03501 0.916187 -0.903477 0.98742
810 9.5235 3.04879 6.9 -0.326892 0.408173 1.07497
680 9.80825 3.245 9.12927 -0.346198 -0.230069 0.30554
792 9.55956 2.21019 9.20015 0.778361 1.42257 0.227226
779 0.326093 3.50523 8.78903 -0.788307 -1.02034 0.612869
286 0.640491 5.04185 8.30357 -0.560165 -0.329563 -0.181189
364 10.3978 4.82033 8.3536 0.105823 0.0267961 1.9613
208 1.50469 3.34113 8.05088 -0.865143 -1.67394 2.21817
276 1.71512 4.61887 8.13363 -0.738397 -0.901043 -0.773585
307 2.3233 3.76706 8.5981 -0.211613 0.182373 2.31894
316 2.60552 4.45353 7.59038 1.02445 1.43822 2.44922
757 2.54424 4.77622 8.84911 -2.11861 -1.49668 -1.88107
17 4.2275 3.00034 9.71997 -1.107 -0.525694 -0.562877
752 1.0412 5.25821 5.40125 -0.454422 -2.33184 0.279382
372 4.42841 3.22778 8.52976 -1.03939 0.55453 -0.0943211
581 4.68193 4.40677 8.20372 0.468482 1.16686 0.191553
33 7.72907 4.87949 9.18551 -0.308969 2.91918 0.571847
344 5.38622 5.07665 7.35871 -0.0558608 -0.521437 0.500629
781 5.07785 4.36202 6.27097 -0.952537 0.392384 0.636299
145 6.46292 4.7983 7.67588 -0.408208 -1.78335 -0.728474
350 7.1894 4.3909 8.33755 1.60729 -1.32597 0.669993
415 6.2626 3.9374 8.45456 -1.28849 0.642369 -0.678242
577 8.41827 3.73422 8.71879 0.12903 0.66367 -1.43766
329 8.85498 4.36795 7.47877 -0.908745 0.198506 0.677052
93 10.4536 3.19188 7.89951 0.223964 -0.186146 -0.397801
769 9.0334 3.45179 7.87685 -0.728798 0.799075 0.0558889
146 10.1188 4.41155 7.31771 -0.453465 0.34912 -0.163888
259 9.41598 4.35322 8.77198 -0.570062 0.375673 -0.153785
219 1.31589 0.963682 9.74073 1.15718 1.76667 -1.48925
317 1.63835 5.09684 9.23308 -1.44313 0.35006 -0.208235
21 2.67167 0.592009 9.48272 -0.608948 0.469668 -1.83038
295 3.58401 0.358229 9.09118 2.33326 -1.23055 -0.091423
8 1.52916 1.85777 8.97638 -1.62149 1.08192 -1.21878
334 6.08436 0.543809 10.5074 0.360339 0.603174 0.136972
221 3.8512 1.16301 9.79286 0.821432 0.411256 0.0831457
393 9.69619 3.72298 10.2084 0.594966 0.927294 0.14666
472 6.87345 0.647412 8.6902 1.83358 1.47579 1.60911
828 1.31221 0.376676 10.5457 -0.967515 -0.608295 -0.0247607
405 4.57605 2.06572 9.86493 -0.578731 0.0238834 0.898917
565 8.95863 0.087083 5.55684 -0.0716337 1.12037 -0.176995
430 5.04436 1.01852 9.69499 0.0116438 1.58161 1.28028
381 3.34655 0.739974 5.63155 0.112074 -1.65252 -0.698421
504 7.36136 0.637735 10.0104 -0.567268 -0.541771 0.540632
411 7.77211 1.73072 10.2388 -1.54582 -0.839726 -0.131026
305 7.76002 0.168145 9.24133 1.43822 1.87318 -0.510609
666 8.9566 0.190988 8.63438 1.31216 -0.0714548 -0.0781548
28 8.43524 0.95081 10.3617 -0.340855 -0.575844 0.0977003
845 9.41679 1.20514 9.79076 -0.384815 -0.35528 -1.60811
254 5.67897 0.0209283 7.04751 -0.223201 0.744645 1.20903
377 0.254062 0.0780476 10.1086 0.774928 -1.3595 0.174576
638 10.0636 0.541939 10.5411 0.509617 0.183418 0.988121
386 9.99811 0.269834 9.38792 -0.911684 -0.153255 -0.784155
591 7.50628 0.0605665 5.54481 0.673025 -0.231633 -0.901128
524 0.660831 1.90245 9.59358 0.160103 0.574353 0.0215503
366 0.993055 2.80888 9.30499 -0.808061 -0.316837 0.0887114
482 0.335913 2.37106 10.715 -0.989963 0.466383 1.02441
606 3.41452 3.53765 9.18579 1.12793 1.919 0.793936
313 1.36982 1.96449 10.4598 -1.93471 0.203419 -0.0348733
177 2.03609 2.68287 9.83412 2.20284 0.459973 0.119075
83 2.60691 1.67326 9.59925 -0.418938 2.34315 -2.4251
196 2.45151 3.19688 10.5757 -0.269691 -2.46378 0.862736
391 2.43171 2.58912 8.83602 -0.0207698 0.68668 0.775817
383 3.64336 4.00624 8.08682 0.170916 0.57465 0.839466
556 3.53505 2.26047 9.49267 0.0672176 -1.23962 0.718105
42 3.519 3.81686 10.3385 0.611029 0.302971 0.0797232
382 5.35443 2.86298 9.80915 -1.00846 0.411927 2.2844
450 0.0975477 3.93301 5.51306 -0.051118 1.63099 1.082
187 6.62828 1.69364 9.17852 1.97348 0.0321429 0.5783
750 5.93092 3.7769 9.48761 1.52177 -0.183555 1.93577
230 7.71707 1.18434 9.13143 -0.122779 -0.0418538 -0.103231
134 5.7823 1.81428 10.2143 0.0021961 0.123091 -1.03443
478 6.84603 2.74409 9.45963 -0.953886 1.38741 0.649632
503 1.8132 0.11637 6.13643 0.749662 1.26399 -0.783737
408 8.62236 1.58553 9.35567 2.27348 -0.339938 0.149216
289 8.6874 2.41645 8.68895 -0.581843 -0.18698 0.967882
829 8.04244 2.839 10.0185 0.969552 -0.141756 -0.377401
580 8.98863 2.20185 10.2165 0.881889 -0.432084 0.766057
283 10.3306 1.40436 10.035 -0.544215 0.213235 -0.490681
16 10.0417 2.39769 10.0912 -0.40681 -0.385911 -0.704533
841 0.0373329 3.31966 9.86088 0.55471 -0.64702 0.859522
584 1.57741 5.20569 7.29803 -0.221397 -0.326941 0.858472
357 1.25362 4.01168 8.88366 -1.33076 0.0890551 -0.433907
392 0.478196 1.22538 10.4788 1.03852 -0.20358 -0.167594
553 1.36787 3.79583 9.94852 0.471585 -1.2084 -0.155777
445 0.0665192 4.43894 9.35183 0.996802 0.834689 -0.0951349
799 1.23718 4.78312 10.2291 -0.216181 0.764852 0.0735505
141 2.56021 3.82846 9.69391 1.32736 -1.03031 -0.0183157
264 8.90213 4.66911 10.6069 1.14851 1.44699 0.414571
825 3.82739 5.35686 9.02126 -1.39606 1.04807 -1.05414
68 3.13549 4.9666 9.85547 0.972312 1.23555 1.13691
541 4.20773 4.3576 9.51409 -1.64277 -2.16302 -0.682574
100 5.85106 3.83887 10.6897 -0.185591 -0.643033 0.0764616
390 5.25905 4.02269 8.88409 1.24681 -1.63279 0.594929
561 4.97141 4.95668 9.17907 1.01674 -0.780607 -1.42735
860 6.62747 4.48298 9.28778 -0.39194 -0.496796 -0.348972
588 8.7782 3.86327 9.74097 -0.044729 1.53556 0.219758
451 7.11223 4.81054 10.3519 1.34858 1.52013 0.308732
428 7.45574 3.66513 9.71921 -1.37253 -0.438859 -0.806838
341 8.50236 4.85392 8.50276 0.398502 -0.0388842 -0.830761
522 3.89552 2.26645 10.6411 1.6993 -1.85778 1.24066
557 7.98043 4.09594 10.5063 -1.38643 -0.245805 0.529328
250 2.40973 0.0737455 8.47834 -0.884827 -0.284027 -0.141273
314 1.44956 5.06993 6.3296 -1.79296 -0.622517 0.0625807
397 3.86229 4.94272 10.6765 -2.3311 -0.941878 -0.0887155
247 1.39196 0.0513357 7.87284 0.653747 -1.53747 -1.22822
563 6.43987 0.128397 9.44405 0.0526796 -0.1784 -0.944144
599 3.40392 5.04582 7.12467 -1.08367 -0.614333 0.635539
613 5.08053 0.00286945 10.6532 0.792094 1.57712 0.704067
530 10.7154 5.35631 10.6087 -0.104765 -0.960623 -0.500246
427 0.952726 6.0115 1.54011 -0.656777 -0.449787 0.823854
463 0.934877 6.62619 0.293069 1.6876 -0.0527163 -0.128752
456 0.359451 10.3204 0.308305 -0.324634 -1.2457 0.00882877
477 2.32201 6.49843 0.624516 -0.0672525 2.08115 -0.0328939
694 2.04633 5.90316 1.65555 -1.62388 -1.79265 -0.0936811
470 3.35623 7.06993 1.89337 -1.35971 0.130414 0.575228
229 3.29709 6.14974 1.24033 -1.07692 -0.330814 1.43489
60 3.72424 6.08358 0.0127027 -0.136197 -0.0565324 -0.446834
462 3.36536 6.91105 0.758211 -2.05089 -0.575698 -0.934507
56 8.53597 5.7735 0.385727 1.3601 -2.35157 -0.524731
399 1.17823 10.6216 3.34589 -2.10635 0.176214 0.32142
140 7.97281 9.80355 5.28293 -0.810883 0.224108 0.14208
812 6.01191 7.32983 1.6772 -0.550372 0.450303 0.274034
620 7.18297 6.81873 0.856545 -0.402666 0.252878 0.989721
709 7.31211 10.3088 2.84461 1.16293 -1.30274 -0.720641
271 8.14655 6.4929 1.06516 -0.784175 -0.213834 -0.0471605
282 8.8092 5.45671 1.52762 -1.33815 -1.76532 1.22687
822 8.96943 6.53177 1.76115 1.1593 0.640931 0.295811
545 9.38201 6.04803 0.848323 0.18855 -0.272844 0.570595
840 9.93992 6.99567 1.91748 -2.36599 -0.486645 -1.05376
284 2.30994 5.47628 2.65347 0.252469 -0.880383 -0.616404
520 9.8483 10.7188 5.02282 -1.82788 0.744658 -0.94354
814 9.47782 7.50694 5.33765 1.36484 -0.376211 -0.425898
739 0.393533 9.32322 0.218316 1.33945 0.611881 -0.131768
778 1.90401 7.52483 0.211659 1.59079 1.03816 -1.30576
529 0.201532 7.00239 1.1206 -0.731586 -2.56057 -1.73753
413 1.97349 7.95534 1.13214 0.98033 0.0436413 -1.6512
232 3.05961 8.7085 1.11692 0.461538 -1.64452 -0.175884
31 2.91942 7.90601 0.388362 0.713674 -0.990072 1.3658
59 6.68159 9.94585 4.16015 0.532779 -1.39856 0.511947
574 3.26777 9.1687 0.114138 0.962866 1.21119 -1.24999
489 3.93903 7.92012 1.15023 -0.430049 -0.15165 1.70917
629 4.40875 7.55574 2.24853 -0.46609 -0.199499 -0.751011
579 6.11403 5.53391 2.83134 -0.965769 0.960019 -1.23838
534 4.51151 6.37626 1.28893 -1.82715 -1.73723 0.67311
460 5.89914 7.19005 0.615123 -1.268 0.672829 0.976875
730 5.72798 8.38158 1.21267 -0.440084 -0.71876 -0.278772
572 7.47952 7.84011 1.00734 -0.388018 0.855591 -1.76538
47 6.39889 8.27393 0.208725 0.0482765 -0.278195 -0.478661
488 6.7846 8.55947 1.28473 0.24187 1.13683 0.329286
532 6.48323 10.3652 5.21208 -1.08882 -1.47676 -0.127537
14 7.32793 9.10905 0.21942 0.152228 2.52317 1.24883
409 7.76328 6.43166 0.0190779 -0.867768 0.34072 0.141341
172 8.46713 7.627 0.979456 -1.26438 0.423036 -0.847781
827 9.55845 9.20302 3.58997 -0.146548 -1.5454 1.54863
143 8.90863 8.28126 1.63965 0.241872 -0.382339 1.05024
744 9.40215 8.5659 0.566103 0.124354 1.66405 0.308628
213 9.46391 7.54093 0.615771 -1.05864 -0.624367 0.0687244
560 10.6048 8.53592 0.347895 -1.44172 1.08383 -0.158353
389 8.22049 10.0117 1.90974 0.152292 0.152208 0.454479
246 10.0487 9.45124 0.615812 -0.82466 0.214812 0.859737
569 1.31985 8.91941 0.956924 -1.3135 1.97559 -2.08928
262 1.29903 10.2336 0.840203 0.5848 -2.13731 -0.844113
311 3.46057 8.49897 5.26508 0.351971 1.11898 -0.0146242
342 10.4573 8.21669 5.29107 -0.379967 -0.13602 -1.39441
109 2.1859 9.0604 0.506108 0.554497 1.19211 -1.9761
78 2.35703 10.1813 1.22335 -1.17488 0.370977 0.102572
533 3.68829 9.90481 1.02697 0.381735 0.743623 0.176173
464 5.19989 7.76111 4.89607 0.960805 -0.566121 -1.30471
576 8.78115 9.51204 4.51583 -0.027205 0.510978 -0.733601
663 4.85329 10.036 0.79018 0.343239 -0.761049 0.213584
852 5.60156 9.39926 1.91681 -1.97388 -0.401095 -0.393196
842 3.14603 10.662 0.449397 0.340184 -0.129088 1.02058
423 6.17676 9.39089 0.42515 0.898727 -0.346083 0.298434
690 5.86396 10.2049 0.8683 -2.30623 0.110828 0.364948
717 6.99418 9.54339 1.41629 -0.605603 -0.575048 -0.929345
24 3.60829 6.52104 4.47245 -0.363398 -1.3162 -1.68539
374 8.54315 10.3678 0.398193 -0.323587 -1.13628 -0.753841
831 7.95903 8.73178 1.2145 0.182609 -2.36202 -1.298
116 6.96307 9.25708 4.94822 -0.401409 -1.41956 0.837578
458 10.0432 8.90244 1.5811 -1.11137 -2.30745 1.69114
387 0.0625072 9.86611 1.56394 0.0234527 -0.221701 1.12086
740 9.21049 9.88147 1.22459 -0.349605 0.745714 1.30047
539 5.09888 8.9392 4.46109 -0.723138 -0.266764 1.72004
486 9.76075 10.3917 2.1108 -1.11336 0.113552 0.30319
542 6.03369 10.4469 3.01961 -0.015649 -0.488399 0.404128
847 0.25587 5.92551 3.15745 -1.66443 -1.07142 0.0499566
506 0.00312017 6.46296 2.09551 -1.03298 1.10273 -1.19716
793 2.02077 7.04534 1.37863 -1.01043 1.22647 -0.707077
846 1.48813 5.9817 2.92329 -1.97219 0.456967 1.71826
62 1.97381 6.18434 3.893 -1.37334 -0.0492107 -0.0355204
260 9.3047 8.4023 4.47342 -0.134182 -0.453184 0.21295
111 5.06414 10.3199 4.03838 -0.0635765 -0.0277335 0.694843
43 2.3619 6.6499 2.28625 -2.19214 0.259929 0.797132
12 4.47063 6.02338 2.29058 -0.753101 -0.0359403 0.372261
65 3.14308 6.07333 2.69739 -1.38517 0.313596 -0.436204
50 5.87802 9.61396 4.93121 0.455152 -0.11602 1.25716
338 4.66959 5.60093 3.30501 -0.470775 0.600044 0.134224
351 6.58154 6.24477 1.93902 1.11643 0.255791 0.284503
598 7.01136 6.35769 2.87486 -1.05246 -0.400821 0.933729
71 7.11125 8.1351 4.99304 -0.824336 1.22614 -0.653385
280 5.71831 5.92391 3.79159 -0.797978 -1.34003 -1.05552
210 8.00992 6.10667 2.10945 -0.500526 0.726854 0.541417
186 8.04982 7.04073 3.15781 -2.25677 0.0570994 -0.104793
201 7.76342 5.94797 4.15906 0.515117 0.159801 -0.866594