ITEM: TIMESTEP
45360
ITEM: NUMBER OF ATOMS
864
ITEM: BOX BOUNDS pp pp pp
0.0000000000000000e+00 1.0726842421158810e+01
0.0000000000000000e+00 1.0726842421158810e+01
0.0000000000000000e+00 1.0726842421158810e+01
ITEM: ATOMS id x y z vx vy vz
224 1.1751 0.553888 1.4937 0.815645 -0.602458 -1.01905
242 0.620873 0.846226 0.414776 -0.49013 1.1458 -0.259024
465 0.168385 1.38756 1.6575 -0.702413 1.09471 1.20214
252 1.1399 1.75305 1.84071 -1.67588 -1.4292 1.67449
371 2.026 1.6429 1.01193 1.10088 -0.253749 2.20426
461 2.89291 1.07857 1.09063 1.13711 1.40417 0.563093
78 2.23325 0.289964 1.20209 1.33962 0.525298 0.619701
713 3.41527 0.0813046 1.09553 1.07801 0.393212 0.339945
197 4.67234 0.803318 0.948735 0.956439 -0.329804 0.227771
396 3.68675 1.40367 1.84256 1.29788 0.392888 0.598365
416 3.6142 1.50234 0.570299 0.711289 1.21515 1.16591
35 5.5536 0.10297 1.03084 0.167551 -1.01674 0.798538
379 6.51757 1.00791 0.861682 0.176035 0.912763 1.40047
64 8.02007 1.32726 0.207505 0.93157 2.88834 -0.743656
405 4.37905 1.7698 0.0254645 -1.58415 -2.7358 0.353853
363 8.83398 0.139905 1.11377 1.14012 1.78589 -0.835427
97 8.15738 1.2323 1.34567 -0.148764 -0.605789 -0.955482
547 9.17294 1.30104 0.458141 0.917072 -0.873997 -0.844502
417 9.44406 1.17943 1.79447 -0.428121 1.47139 1.01727
549 10.0901 0.899056 0.699177 1.85973 0.555979 2.37885
161 0.86644 1.93416 0.871305 0.215394 -1.20983 -0.277341
84 0.918949 2.97443 1.59506 -1.7119 0.231234 0.714156
132 0.0244147 3.65326 1.5066 -1.38144 0.921784 0.708504
195 2.75902 2.1027 0.421582 0.0205433 -0.223024 0.0507731
196 1.61172 2.5825 0.437605 -0.91853 -0.644351 0.175507
32 2.13464 2.78248 1.3936 -0.589731 -0.0143145 -0.551092
674 3.88798 3.16935 0.605681 -0.413052 0.233989 0.545059
657 4.33943 3.93006 1.45817 0.531737 -0.672589 -1.17385
522 4.67525 2.25912 1.09892 0.593584 1.2387 -0.608416
732 3.06505 3.33579 1.34959 -0.873564 0.327579 -0.0354309
365 5.50886 1.53311 1.71707 -0.350773 -0.739335 0.0317126
160 6.11224 2.13041 0.982459 1.82829 1.16931 0.892868
518 4.79814 3.03946 0.029525 -0.55215 -0.879772 -0.709359
278 7.29935 3.32179 0.44544 0.345203 -1.60623 -0.641395
644 7.49724 2.19939 0.544189 0.898384 1.85825 0.573613
102 6.75297 2.92268 1.68894 1.16797 2.2048 1.25541
399 0.616887 0.0833088 3.39281 -1.40697 -0.660698 -0.886582
407 8.90489 2.54031 0.588888 -0.555207 1.35343 1.92878
41 8.14982 2.48528 1.32234 -1.44757 -0.17967 -0.370551
176 8.28076 3.54953 0.772043 -0.0229036 0.823078 -1.38937
117 9.13912 2.24787 1.56899 1.8546 0.88575 0.133099
648 10.7099 3.6061 0.317546 -0.030999 1.25363 -1.64738
595 10.0713 2.61955 1.63167 -0.58624 -0.676756 -1.07449
669 9.71232 4.45335 5.18031 1.50072 -0.0544024 0.563981
823 0.692527 4.58856 1.64381 0.850697 -1.12793 0.896992
559 0.910613 3.73079 0.6591 1.66262 1.24964 -0.976906
799 1.63528 4.25499 0.0355515 -0.0349434 -0.999367 -0.497736
664 3.09556 5.10428 0.654366 0.421898 0.789422 -0.0197752
49 1.65951 4.91491 1.00363 0.0586837 0.240643 -0.79524
466 2.00408 3.70506 0.88621 -0.62438 -1.50249 0.929064
586 2.83738 4.64475 1.70185 0.0282767 -1.55117 -0.160832
206 3.05025 3.64955 0.0060382 0.750552 -0.567042 0.0475227
419 3.56218 4.23208 0.918537 -0.253241 -1.57167 -0.304741
618 4.43642 4.92208 1.36314 -0.327116 0.213397 1.48917
397 4.49844 4.22647 0.163461 -1.38607 -0.0424348 -1.55809
452 5.38789 4.17835 1.67792 -0.0577739 0.614754 -1.1715
380 5.34349 4.96609 0.821629 0.425041 0.653819 1.63576
100 5.34766 3.63602 0.605671 -1.57237 1.03704 -0.30556
443 5.04604 5.31607 2.15829 0.580145 0.396449 2.48633
455 0.587997 5.2278 0.661439 -0.136263 -1.32195 -0.279541
139 6.34327 4.75911 0.955992 -0.779346 1.67722 2.38193
188 6.20175 3.75791 1.31258 -1.06724 -1.99545 -0.456423
726 7.07129 4.56055 0.0394236 0.264705 -0.267769 -0.70407
274 7.1868 4.17395 1.21128 1.07863 0.668047 -0.0565369
210 7.63888 5.12127 1.2902 0.224764 -0.487082 0.987016
99 8.95844 4.20764 0.995945 0.820108 -1.57154 1.89321
474 5.38695 1.55169 0.381185 -0.134717 2.01223 1.242
162 9.92416 4.1301 0.167482 -0.216052 0.196077 -0.206683
235 9.66654 3.42348 1.06487 -0.198642 -2.00431 0.483003
746 9.9687 4.87066 1.12429 0.16726 0.374473 -1.36862
121 0.774649 0.86207 2.67226 -1.49069 -0.0881119 0.0940103
265 1.46768 0.731351 3.42732 1.18067 -0.98987 -0.0928927
297 2.20078 0.783461 2.24978 -0.0383831 0.0739081 -0.50535
570 2.747 2.02594 2.1579 0.368794 2.47398 -1.51325
696 8.41017 0.153486 4.61105 -0.268491 -1.04207 -1.81964
801 2.03815 1.71961 3.05913 0.382719 1.22477 -0.889656
157 4.2521 0.579379 1.91273 -0.193359 -1.44322 0.0976555
273 3.06003 1.19345 3.06836 -0.108522 -0.848826 -0.7838
234 3.34788 0.378463 2.68496 -0.307381 -0.183089 1.02823
215 4.22695 0.98009 2.87344 -0.688791 0.39657 -1.90846
110 5.541 0.455019 2.34022 0.594393 -1.08615 -1.06262
106 6.0656 0.355142 3.18339 0.145757 -0.507473 -0.25073
688 5.2073 1.24107 3.82377 -0.42113 -0.991163 0.253955
521 6.05211 1.61566 3.04561 1.0238 -1.31752 0.86669
709 7.48646 0.445113 2.54154 0.109937 1.75476 0.218248
77 7.13629 1.58055 1.78452 -1.40576 2.37403 -0.757939
296 6.48883 1.01535 2.17956 -0.418874 1.63458 1.87069
156 4.06004 3.01965 5.29829 -0.814895 -1.01733 -0.735583
787 7.36521 1.36599 3.00537 1.49827 -0.713526 1.87349
550 8.6231 0.68817 2.34853 -0.497097 -0.457117 1.81607
257 8.6968 1.43293 3.19579 0.0762757 0.839302 -0.648572
104 10.5475 0.436591 1.64629 0.429261 0.334201 -0.0458461
526 10.1319 4.40076 4.21433 -0.704386 1.00154 0.397218
255 9.79677 1.13188 3.56449 -1.09186 -0.126846 0.566782
615 10.4397 0.573952 2.89527 -0.732 -1.00699 0.124895
708 1.07629 2.01651 3.06948 0.570171 -0.428105 0.27228
113 0.226434 2.35012 2.34706 0.221007 -0.125661 2.16659
281 0.92818 3.21072 2.79372 -0.115755 -0.101105 -1.22768
741 1.80985 2.61651 2.37026 1.31814 -0.123792 -0.339973
178 2.03547 3.30716 3.24438 0.460737 0.895334 -0.806265
546 2.38483 3.59023 2.2622 -0.492384 -0.126561 0.0479578
243 3.67132 2.44509 1.89687 0.493151 0.412634 -0.913909
131 3.29369 3.49406 2.65287 -0.0037767 0.0202724 -0.115209
776 4.42049 3.2669 2.25902 0.813614 -0.193999 0.496957
103 3.22219 2.34312 2.99869 -1.79556 0.613191 -0.43993
864 4.5377 2.05864 2.36767 -1.33103 -2.46305 -0.960033
480 5.41969 2.91734 1.55168 0.461563 -0.464752 -0.107801
587 5.66607 2.34886 2.39748 1.57708 -1.96554 0.250743
216 6.90221 2.19425 2.54723 1.37431 0.937553 -0.56327
204 6.64396 3.12428 3.02322 -1.79283 -0.518154 1.0601
26 8.04486 2.26516 3.07319 -1.30659 0.417371 0.52762
231 8.487 1.64388 2.1831 -1.13964 0.197571 0.644506
74 7.57326 3.19281 2.30563 0.1499 0.252311 -0.753592
36 0.105036 2.78476 3.35125 1.57367 2.51292 -0.43421
639 10.558 3.35411 2.58989 1.76892 0.836751 -0.626258
92 9.00743 2.41839 3.21669 -0.649955 0.0986856 0.49283
191 9.9959 2.19622 2.7333 2.11135 0.4445 1.27529
555 0.247512 4.4167 2.66942 -0.692988 0.352035 0.0470984
754 0.0469026 4.93929 3.5565 -1.76172 0.28503 0.00329758
444 1.0574 4.11428 3.38007 -0.93936 -0.927298 -0.110023
61 1.55618 4.03478 2.16624 -0.416668 0.888616 0.765065
284 2.74816 4.70697 3.02492 -0.438249 -0.506127 0.888781
770 3.30584 4.01998 3.99694 1.28957 -1.83326 3.14133
816 3.73692 4.4072 2.19355 -2.45585 1.76169 0.0305686
179 4.12938 3.9464 3.14911 -0.928089 -2.18952 -0.356488
159 3.83507 5.01576 3.40169 -0.472551 1.26309 0.258148
665 4.74393 4.42295 2.45332 0.931627 -0.0972815 -0.790083
182 5.5992 4.46802 3.03807 -0.0836566 -1.3502 -0.264631
338 4.91827 4.64287 4.29807 -2.15137 1.56131 1.6392
66 7.09376 5.13571 2.06121 0.0555925 -0.706247 1.42267
112 6.74065 4.9765 3.06542 -0.707349 -1.2893 -0.205582
138 5.93493 3.60248 2.47721 -1.44974 0.927756 0.702061
46 7.33641 4.0763 3.10272 1.1866 1.538 -1.51768
5 8.71971 3.54184 1.76824 -0.0382318 -0.964315 -0.485076
418 8.55852 5.16213 2.95127 -0.115802 0.717562 0.453069
596 8.35753 4.01879 3.41487 -0.690638 0.715837 0.945502
527 8.05693 4.4077 2.02134 -1.3443 -1.10839 0.652018
695 9.70076 4.99836 3.06312 1.52538 -0.0435852 -0.683698
237 9.4788 3.52751 3.04792 -0.698176 -1.43844 0.25061
519 9.6969 4.49414 2.2475 -2.15905 -1.26571 1.52289
123 0.28351 1.36273 3.53126 -0.658611 0.451502 -1.69786
439 0.959543 0.577503 4.3134 0.0102371 0.681369 -1.72596
429 0.733417 1.48403 5.01934 1.04048 0.325719 -0.383901
189 1.18341 1.64133 4.07178 1.1118 0.583491 0.427136
682 2.50977 0.0401836 4.74545 -1.29593 -0.101873 0.0359925
654 2.3059 0.913924 3.93459 0.589627 0.61362 0.0984748
319 3.43593 0.699635 3.96221 2.19257 -0.0905149 2.38036
381 3.08937 1.15538 4.88471 0.165699 -0.9166 -0.564929
192 1.91277 1.10562 5.21736 1.44177 -0.252972 0.108107
306 4.35042 0.633299 4.59046 2.3518 0.0410959 0.316127
747 3.45827 0.146187 4.92335 -2.48855 0.8662 -1.67963
154 4.25018 1.3938 3.87678 0.467603 0.275144 -1.00586
16 10.0393 2.67457 0.142179 -0.581644 0.689114 0.592485
758 4.98935 1.80507 5.02338 0.0279999 0.00571814 0.585378
613 5.88981 0.628 0.110671 -0.0580841 -0.261561 -0.709769
857 5.39672 0.754372 4.92013 0.541751 -0.787646 2.38065
245 6.23326 0.983276 4.09722 0.469132 -0.416407 1.1687
149 7.04107 1.51283 5.09285 -0.512586 1.29523 -0.556816
400 7.29014 0.427701 4.31522 0.678797 -1.11355 1.3904
315 1.25129 3.58401 5.34031 0.94268 -0.189072 -1.02136
699 8.74953 1.18754 4.29114 1.28609 -0.168477 0.544502
185 9.61068 1.30118 4.85315 -0.0299459 0.588848 -1.10806
520 9.47033 0.314921 4.36058 -0.177944 0.668654 -0.17398
330 10.4481 0.89105 4.32644 -0.573244 1.49852 2.1018
717 7.03019 0.15501 1.54079 2.04432 -0.263586 -0.530822
10 0.233736 2.70995 4.99317 0.375223 1.21129 0.861101
85 1.46427 3.50804 4.18818 -1.79786 -0.662453 0.419667
57 2.06249 2.46423 4.02785 0.290448 0.251285 0.497043
652 3.04103 2.30678 5.04708 -0.102484 0.821272 -0.518346
494 2.96407 1.68627 3.92249 0.360157 -0.759504 1.76132
212 6.51604 0.5028 5.15681 -0.794362 0.76243 -0.716018
198 2.96647 3.20545 4.45528 -2.12734 -1.47222 0.413601
322 3.90925 2.2538 4.5281 0.536843 1.71549 0.495978
630 4.32855 2.55956 3.5427 -1.25687 0.293283 1.29421
181 4.98147 2.72786 4.72001 0.492001 -2.1265 0.403904
13 5.3839 2.31813 3.6594 0.446936 0.892751 -0.271876
87 5.37705 3.66381 4.36153 0.247542 -0.364787 -0.633965
335 7.7371 2.60776 5.0276 1.30303 1.13359 0.500718
115 7.15361 1.46635 4.03303 -0.0336392 -2.9339 0.0811753
203 6.19603 1.92105 4.58476 -1.8978 -1.24509 -0.693223
633 6.42427 3.4455 4.02864 -3.82771 -1.19252 -0.0179625
573 8.26393 3.1125 3.95298 -2.10218 0.154755 0.79718
158 8.90505 1.97983 5.0332 0.862482 1.18326 0.799389
807 8.74299 3.10963 5.14737 0.423056 -0.0201617 1.30342
2 8.11148 1.9609 4.34572 -0.459556 -1.22971 -0.44315
348 7.33106 2.99028 3.90202 0.963399 0.187836 0.882293
37 9.77954 2.04125 4.03253 0.31325 -0.567791 0.704527
202 10.6816 3.9019 3.57785 -0.137511 0.976114 0.12511
734 9.67883 2.91505 4.69479 0.991883 -1.86645 0.141409
484 0.686253 4.40096 4.25972 0.354481 0.963355 -0.169914
742 2.43269 5.09324 4.44217 1.11906 0.0193939 0.132231
34 2.22511 3.92476 4.80827 -0.45246 2.83638 1.05024
40 1.39466 5.22093 3.79695 -1.39769 0.888617 0.179168
436 2.10059 4.25708 3.69997 0.338768 -0.611541 -0.202847
312 4.00517 4.17861 5.01737 1.64884 0.815481 0.421926
426 3.64547 4.89961 4.40233 0.498684 -0.396558 -0.312667
684 5.697 4.91416 5.09533 0.317354 -1.90092 0.592572
19 4.22835 3.49711 4.22303 -0.370449 -0.980202 -0.165183
610 5.15151 3.42726 3.01508 -1.63492 -1.35699 -1.29564
135 7.57647 4.8323 3.79511 0.114126 0.601916 -0.270151
672 6.04749 4.53034 3.92702 -0.298672 2.28637 0.580968
788 6.65547 4.2627 4.78672 0.272959 0.0205171 -0.893673
241 7.72988 4.77091 4.99286 0.785884 -0.298946 -1.1365
354 8.66481 4.1935 4.98138 0.754872 1.12366 1.33536
184 7.59849 3.59616 4.75345 -0.912618 -0.410313 0.435599
358 8.50989 5.22917 4.19433 0.393405 -0.0441892 0.248262
248 9.27688 3.90031 4.16667 -0.215298 -0.87513 -0.383134
479 10.4554 3.68914 4.86786 1.29208 0.820208 0.263054
828 2.27119 1.13723 0.0654107 1.22297 -0.724237 -2.18688
842 3.78591 0.477487 0.13342 0.349111 -0.0122512 0.497259
256 0.113324 0.393865 5.01475 -0.477305 -0.126032 1.30522
431 6.43758 3.7475 0.366753 0.137201 -1.56623 -1.11052
82 1.9869 2.83699 5.30638 -0.246058 0.72216 -0.328965
763 5.77954 3.83089 5.33277 0.283286 -0.657533 -0.508982
45 3.5916 5.25409 5.32461 -1.36548 -0.822035 1.27275
602 9.31258 0.0865461 2.07064 0.371991 0.838134 0.143645
236 8.78283 0.119281 3.27476 2.33373 2.47149 1.44953
440 0.813532 5.33969 2.33519 -0.242825 -1.1905 -0.0412927
565 8.40524 0.938357 5.36023 -0.226954 0.671954 -2.00269
367 1.10463 1.57097 6.79422 0.454827 2.08349 0.117082
705 0.538297 0.338554 6.70243 0.67841 -0.332382 0.998613
275 2.49068 1.68483 5.82541 -0.480023 -0.4521 0.130632
244 2.09459 2.13931 7.32749 1.165 2.02476 1.46146
503 2.24062 0.389502 6.45124 0.396911 0.363393 -0.84486
337 3.71763 1.88134 5.9121 -0.856657 1.03766 -0.4653
729 3.43075 0.597075 6.42982 0.251782 0.207643 -1.6262
228 4.48283 0.532113 6.00797 -0.867873 0.938163 -1.50071
517 3.32738 1.81457 7.01628 -1.1714 -1.19991 -2.70553
701 4.40475 0.442607 7.27206 0.196463 0.198435 0.425985
685 4.46035 1.38144 6.49556 -2.15615 -0.674267 0.619452
820 5.45942 0.328404 6.45064 -0.541093 0.92468 0.197856
751 5.92636 1.33122 6.51209 0.339378 -1.49637 0.391287
561 5.42265 5.04007 9.11793 0.507625 0.856081 -1.01371
736 6.85479 1.20583 6.97265 0.0836991 -0.86141 -0.457898
706 7.55119 0.945407 5.92208 -0.393856 0.491029 0.86431
863 8.64527 0.487887 6.42559 0.617361 0.85274 -0.32058
25 9.30938 0.959879 7.25775 0.484279 -0.192855 1.1286
124 8.09553 1.94847 6.75172 -1.60578 0.719281 -0.512718
825 3.6553 4.59999 9.38456 -1.30567 -0.158553 0.0603273
790 9.30143 0.48222 5.66385 0.16828 0.330623 -0.308076
626 9.94813 0.944526 6.25328 -0.0807113 0.776459 0.175937
718 8.91872 1.45918 6.14028 0.0501955 0.613239 1.44608
412 9.01309 0.383921 10.7209 -1.22778 1.33025 0.344894
277 1.19548 2.58091 5.79395 1.25086 -0.936634 -0.546374
42 3.73203 3.52555 9.95972 1.79748 -0.981408 1.05314
127 0.0788997 1.8207 6.57045 0.422447 0.266797 -1.43657
631 0.522277 2.83436 6.8197 0.670742 -0.148655 0.137889
76 10.0865 1.89722 5.49761 -0.739347 -0.686306 -0.970781
171 1.57932 3.00654 6.85564 -0.505156 -0.700681 0.132987
320 2.49281 2.78603 6.58322 -0.644828 0.641672 -0.091546
860 6.71452 4.26694 9.28633 -0.081358 -0.134561 -1.03282
422 2.99446 3.42445 5.61892 -1.20896 1.21648 0.680092
727 3.84615 3.04507 7.16376 0.382945 0.285224 0.450664
512 4.5188 3.83356 6.24614 0.52295 1.90082 -0.573929
843 6.28541 2.35005 5.68309 0.262077 0.54212 -1.11104
824 4.82134 2.32978 5.95481 0.314968 -1.03024 -0.848916
352 6.21524 2.6119 6.74513 1.14763 0.00156988 1.71184
514 4.82646 2.25253 6.98347 0.356295 0.454626 1.89558
475 7.08281 1.86983 6.17921 0.610362 -0.0377649 0.197942
53 7.03562 3.28138 6.90617 0.0138639 0.485309 0.559801
209 7.09424 2.22096 7.30023 -1.0413 0.750001 0.85787
655 8.14453 2.02028 5.74916 0.174082 -0.65742 -0.30336
756 7.85074 2.86377 6.24897 -1.5617 0.412773 -1.16424
786 8.88093 2.72785 6.65327 0.500246 1.59265 2.21595
721 8.10846 3.77042 5.87229 -0.931275 1.20533 0.216445
362 9.61353 2.01229 6.78397 -0.411735 -1.10326 1.76251
789 9.90796 3.13241 6.50792 0.473226 0.237727 -0.461654
737 9.47256 2.5803 5.70466 -1.00303 0.370162 0.0246207
310 0.119403 3.28141 5.94811 0.449126 0.234601 2.81917
359 1.34415 4.13898 6.3638 -0.486066 -0.455683 -0.95557
645 0.262945 4.69004 6.66464 2.09889 -0.810983 -0.149329
72 0.865093 4.18523 7.39058 0.467526 -0.864814 -0.630706
750 5.92554 3.54473 9.9426 0.891269 -0.842003 0.0978873
861 8.75444 0.134828 7.43516 -0.50893 -0.373783 -0.77159
752 1.32387 4.66009 5.37134 0.624006 0.0648913 -0.809831
223 3.03071 3.67863 7.05211 0.252676 0.72814 0.0421541
468 9.48031 5.18056 10.6013 -1.15752 -0.672437 -0.262042
611 1.67761 4.69855 7.56675 -2.18064 1.14244 0.470842
794 2.84537 4.9912 6.17209 -1.29385 -0.0734981 -0.165751
288 2.26976 3.87809 6.10397 -0.558413 -0.461058 0.778223
318 3.83907 5.07977 6.36854 0.0422243 -0.655547 -0.771664
599 3.21435 4.65508 7.17332 1.22037 0.0726556 -0.789031
557 7.02108 3.46457 10.0168 0.200879 -2.03373 0.584118
541 4.84892 3.82442 9.79126 0.0338845 0.823065 0.517661
781 5.07474 4.71077 6.22062 -0.513141 0.111764 0.106359
376 5.56225 3.95421 6.8366 0.510032 1.76344 -0.579863
125 6.41708 4.98734 8.4623 -1.07444 -2.3759 -0.611768
294 6.31234 4.681 6.18098 -1.18106 2.10057 -0.730967
594 7.01932 3.62487 5.79204 -2.02358 -1.44302 -1.08293
7 0.451711 4.11927 10.2153 -1.7994 -0.185604 -0.153624
438 7.25226 4.59922 6.61495 -0.332592 -0.394907 -1.08396
300 5.73085 4.57525 10.4919 1.51938 0.567259 0.691501
388 8.46672 3.78256 7.06108 0.597699 -0.775228 -0.601248
336 8.83327 4.8466 5.82972 -0.151612 0.642796 -0.573085
329 8.73108 4.91576 7.06057 0.416015 -0.401865 1.16018
450 10.2834 4.17225 6.00101 -1.01086 -1.54517 0.462638
592 10.0004 5.196 6.47821 1.55475 -1.57464 -0.761153
27 9.53116 4.03605 7.28042 0.66274 -0.269447 0.436287
205 9.21435 3.8762 6.21514 -0.0040435 0.323575 1.39794
239 10.4115 1.10606 7.25636 -0.674304 -0.0215271 0.250719
767 1.17234 0.664848 8.60247 0.902493 1.31249 0.341348
266 0.558647 1.36061 8.71747 2.16123 -1.90207 0.807647
261 0.742285 0.950694 7.6826 -1.29411 -0.743186 -0.429329
259 8.67455 4.44798 9.43583 -0.574962 -0.990076 -0.181793
79 3.23471 0.773616 7.4354 -0.339143 -0.0542332 -0.197157
55 1.69311 1.72686 8.31774 -0.790078 0.396285 -0.0598785
250 1.96175 0.80301 7.60601 0.0642137 0.184764 -1.60644
301 4.82044 0.422754 8.45994 0.893987 1.46459 0.549083
437 4.03229 1.2089 7.78376 -0.285352 -0.769709 -0.974259
298 3.14761 0.233663 8.34919 -0.484029 -1.87222 -1.23104
832 4.3745 1.49561 8.83245 0.618463 -0.608228 1.01179
1 5.34912 1.52052 7.74369 0.996051 -0.908178 -0.330366
641 7.28408 0.274721 7.2442 -0.148441 0.418681 -1.50449
530 9.98571 4.18603 9.82603 -0.797835 -0.0447372 -1.72337
502 5.72119 0.392454 7.84857 -1.42782 -0.396472 -0.38928
472 7.14981 0.577796 8.46599 0.676814 0.173243 -0.0577855
609 6.67353 1.49143 7.93799 0.137944 1.05167 0.89552
854 8.88895 1.66809 8.02146 -0.000387419 0.215687 -0.535672
837 7.78985 1.55563 8.27761 -0.858105 0.654084 0.327741
715 8.30678 1.0542 7.3518 -0.0780104 1.54539 0.0554817
666 8.6555 0.819889 8.65124 -0.400018 0.236943 0.622027
332 9.53683 0.666902 8.24405 1.43924 -0.406532 1.15849
238 10.6307 0.617618 8.35868 -0.520222 -0.778983 0.0135439
290 0.57322 2.13168 7.85197 0.0985209 -0.752965 1.62182
208 0.77447 2.90568 8.5961 -0.230966 1.4262 0.744075
325 2.86367 2.79388 7.5374 0.365558 -0.581578 -0.543985
8 1.80628 2.70311 8.96327 -0.0860981 -0.263762 0.887416
69 2.63758 3.18055 8.48008 1.05793 1.96918 1.46831
673 1.45459 2.78536 7.84599 -1.33737 1.27073 0.164647
391 2.75325 2.10799 8.47344 -0.439723 0.694741 -0.260063
551 3.73268 2.38827 8.03847 -0.965351 0.344352 0.059959
803 4.62251 3.29978 7.83456 1.43516 0.0548687 0.877666
372 4.07528 3.78313 9.07514 2.06169 -0.560857 -0.0727471
406 4.72464 2.4048 8.6767 1.2847 -0.134098 1.23014
432 6.04909 2.30601 8.44636 0.283798 -0.243248 -0.322808
169 7.15919 2.35035 8.41 -0.462464 -1.50417 -1.4787
142 6.37574 3.00188 7.67961 0.0459576 -0.191369 1.12263
735 7.95108 2.87385 7.37947 0.990208 -0.50933 1.25462
810 8.6918 3.37301 8.07151 -1.65447 0.198842 -1.57879
289 7.64759 3.4333 8.25464 -1.02751 -0.141673 -1.61215
220 9.65326 2.96338 7.54436 -0.847611 1.40345 -0.303229
369 10.2152 2.05027 7.8105 0.945417 0.972744 0.691731
384 9.49836 2.30154 8.51853 -1.10379 -1.07484 0.354812
93 10.619 2.14774 8.73602 0.467258 2.21317 0.567363
170 0.667218 4.02423 8.57032 -0.378706 -0.371218 1.10379
584 0.74637 5.18961 8.26192 0.606624 0.69218 1.32559
435 1.76765 3.82816 8.71385 0.738996 0.385658 1.26082
276 1.878 4.91844 8.5623 1.08372 -0.603105 0.688891
316 2.61559 4.30144 8.20077 1.53958 -1.271 1.25023
798 3.06219 5.28442 8.74301 1.4579 -0.289385 -0.279429
214 3.63823 3.71599 8.1268 -0.569247 -0.65807 0.95755
383 3.97296 4.7821 8.27538 -1.65155 0.077041 -2.21773
89 4.71587 4.26886 7.2691 -0.84239 2.93001 -0.0851376
581 5.10139 4.07354 8.36323 0.0197403 -0.270196 0.43726
344 5.16534 5.22446 7.99289 -0.409935 0.828971 -0.829915
415 6.01655 3.65249 8.5122 0.201778 0.747373 0.115534
588 8.0846 3.57093 10.1783 -0.440074 0.3411 1.33957
483 6.81072 4.07367 8.10844 -1.65004 0.52604 -1.05351
145 5.97892 4.55749 7.57154 -0.0607046 -0.359703 -0.0885974
350 7.45272 5.02243 7.57988 -0.218695 -0.251762 -1.13883
428 7.62646 4.95123 8.54305 -0.240228 -0.970865 -0.852729
577 8.43118 4.33045 8.34943 1.13631 -0.732195 0.540943
769 9.48834 4.03904 8.56022 0.313176 0.127873 0.51125
146 10.6932 3.61251 7.88353 0.24168 -0.7031 -0.487533
445 10.4542 4.71401 8.48874 0.361911 0.654729 0.053496
137 10.3274 4.57265 7.43466 -0.735093 -0.904908 -0.820439
309 9.43759 5.27186 8.32007 0.0509454 1.34852 0.061157
638 0.0390474 0.256274 10.5654 0.77015 -1.72229 1.6601
505 10.6938 0.904102 9.50303 0.626655 0.556456 -1.54423
392 0.994938 0.743933 10.1066 -0.0526192 -0.903424 -0.307289
446 2.58666 0.0493315 10.6791 -0.3951 0.437782 1.5331
482 1.16855 1.69901 10.5605 1.01348 0.238838 0.579767
853 3.08083 1.08156 9.99885 -0.827573 -0.954241 -0.330011
219 2.14446 1.13178 9.42083 0.372229 0.673266 1.07277
151 5.33057 0.314091 9.60598 1.05442 -0.0984287 -1.18035
70 2.04534 1.93835 10.2447 0.768562 -1.4287 -0.849812
21 2.55326 0.166579 9.54664 0.499626 -0.0335182 1.83718
83 3.24772 1.12222 8.89381 1.55057 -1.50778 -0.353045
453 8.98518 4.20135 10.4769 0.0777285 -1.60078 -0.652481
368 3.85421 1.78885 9.68699 0.976143 0.668355 -0.0837707
295 3.92523 0.390188 9.15871 0.488652 -0.590753 -0.0175743
221 4.52138 0.843399 10.0537 -1.34455 -1.85699 0.892524
403 9.3802 5.24942 9.55556 -0.63741 -0.43685 1.57466
264 8.14481 4.6922 10.6177 -1.30365 0.0855371 0.416236
774 6.55286 2.67239 10.6407 0.496841 -1.50159 0.930906
430 6.13239 1.08168 9.38516 3.44203 -0.099119 -1.03872
334 6.13629 1.75401 10.311 -0.111692 0.0188379 -1.66428
504 7.52364 0.253883 9.3295 1.98583 -0.879918 -1.17778
411 7.15652 1.40519 10.0586 0.359258 -0.0288642 0.360625
414 6.79402 0.309166 10.018 0.0247502 0.0833357 -1.2688
51 8.74107 1.38435 10.1916 1.58386 0.840775 0.525047
743 7.76029 0.332127 10.3942 -0.380026 -0.301645 1.50295
806 10.5619 0.0336983 7.26004 -0.520261 1.06587 -0.657518
230 7.98289 1.24004 9.39806 -0.091494 2.04321 1.87875
408 8.80988 1.85088 9.17843 -1.54486 -0.365596 -0.102324
385 9.7755 1.42368 9.17516 0.763468 -0.20413 -0.510352
845 9.84961 1.61098 10.5428 1.54169 -0.227502 1.00757
386 9.74455 0.297922 10.0638 0.508968 0.0247053 -1.35331
283 0.13715 1.31826 10.4121 0.0924302 -2.46929 2.08627
524 1.10457 2.52746 9.61414 -0.821749 -0.012621 0.261254
366 0.758324 3.45743 9.57928 0.448615 -1.04068 0.556329
313 0.547896 2.55488 10.6932 1.66498 0.685967 2.00497
670 0.156419 2.11238 9.82457 0.560268 -0.867737 -0.255518
553 1.14804 3.25491 10.5384 -0.79456 1.9207 1.43923
307 1.75172 3.61595 9.79682 0.452976 1.01799 1.64023
177 2.9003 2.02144 9.58177 -0.168045 -1.41849 -0.0804507
141 2.39014 2.87035 10.3366 0.170375 2.3048 -0.644472
17 4.44645 2.77535 9.87878 0.832705 0.51408 0.63173
68 3.63068 4.75758 10.4553 -0.594257 0.112252 1.36091
556 3.48474 2.49115 10.358 -0.400817 -0.0653868 1.01514
606 3.54767 2.85868 9.09052 0.980119 0.240695 0.697209
292 5.16286 1.71916 9.96762 0.688309 1.30088 0.0515674
390 5.31825 3.16529 9.10896 1.15675 -1.1162 0.261012
382 5.55639 2.61681 10.356 2.00943 -1.98124 -0.472397
134 6.87613 2.47495 9.67191 1.73454 0.00831588 -0.593844
187 7.06118 1.45857 9.00951 -2.03356 -0.304211 -0.888104
478 6.81193 3.26597 8.92872 -0.263228 -0.0330094 -0.501897
829 7.65589 2.57749 10.3547 -0.318991 -2.04315 0.126138
473 7.70931 2.49815 9.20806 -0.0696362 1.18348 -0.529706
580 8.68071 2.49323 9.94668 -0.864438 0.511062 0.181644
680 8.81147 3.50152 9.14374 -0.719941 0.405854 0.569228
451 7.33375 4.94235 9.78416 0.572273 -0.081104 -2.30381
393 9.19718 3.24545 10.453 -0.695886 0.337152 -0.938889
779 10.3803 3.32965 8.99484 1.22691 -0.613589 0.904232
841 10.619 3.19951 10.0069 -0.162288 0.752713 0.561331
792 9.78386 2.34177 9.81151 0.403205 -0.40869 0.766442
357 0.210858 4.72936 9.38465 0.914266 1.97717 -0.973496
317 1.34548 4.84398 9.9766 -0.344145 -1.24984 -0.294249
757 2.93291 3.84056 9.41555 -0.457229 -1.65345 0.339988
815 2.60333 4.57042 10.4487 1.01982 -1.60087 1.9713
269 4.78573 5.18494 9.99525 0.320074 -0.4621 -0.794211
427 1.18548 6.09085 1.37724 -1.00279 -0.0618017 -2.07202
463 0.879397 6.25227 0.233035 0.781512 0.577181 -0.87854
635 7.01257 7.10061 5.21035 1.80527 0.0843685 -0.606679
477 2.01379 6.57729 0.595127 -1.16948 1.58708 1.89982
694 2.3694 5.64443 1.24291 -0.282099 -0.213103 0.0534087
56 8.46774 5.37237 0.736911 -0.365504 1.76858 -1.00425
470 2.99245 6.72602 1.49497 0.0135738 -0.646916 0.0782398
658 3.49661 6.37999 0.567193 -1.52974 -0.0476968 0.165032
534 4.39502 6.80752 1.41337 2.33482 -1.99487 1.30156
60 4.24422 5.65215 0.389271 0.456391 0.968708 0.784063
229 3.84783 5.63227 1.79918 0.104383 -0.0987626 -0.261591
6 5.16693 6.04653 1.08388 -0.651442 -1.33826 -1.06831
817 4.42775 6.68922 0.0524527 -0.321106 1.31043 -0.937896
63 5.41591 5.68847 0.0573653 -0.135494 -0.377185 -0.672805
620 6.28734 6.59019 0.57661 0.402781 -0.0463047 -0.809607
271 7.26554 6.01204 0.406273 0.356272 0.32009 -1.26989
855 6.17359 5.81015 1.36648 -2.11628 -0.0663985 -0.741008
528 6.51876 7.17168 1.60753 -1.63825 -0.918203 0.0860725
3 2.34375 9.50514 0.187891 -0.733084 0.281695 -1.6111
822 8.95747 6.58819 1.58808 0.930215 1.21214 -2.00481
172 7.80915 6.98201 1.8014 -0.07721 0.349064 0.292415
222 8.44117 6.46126 0.649749 -1.63717 -0.278963 0.750584
545 9.56284 5.91453 0.708078 1.52823 -0.346205 -0.354816
90 10.2832 5.89236 1.48155 -0.0401504 -0.625957 0.612059
506 9.8572 7.01661 1.16625 -2.30251 0.0634689 -0.877321
766 10.517 6.43535 0.625678 3.34983 0.834779 -1.60943
765 0.942771 7.5719 0.0983782 -0.05224 -2.01932 -0.672491
249 1.43395 10.7015 5.14766 -0.368735 0.430682 -2.20523
98 1.26079 7.07071 1.09657 2.24275 -0.404548 -1.228
168 0.431937 8.1918 0.969522 0.348074 -0.545522 -0.418735
793 2.33518 7.93975 1.1098 0.235509 0.589967 1.59617
778 1.69434 8.36822 0.0569657 -0.559999 1.51646 -0.439018
462 3.21048 7.46909 0.690442 -0.724061 1.80083 0.392387
31 3.05467 8.65895 0.755297 0.0834526 -0.208434 0.449636
489 4.08373 8.109 0.719226 -0.523826 0.325536 -1.10203
702 3.57518 7.56346 1.89953 0.880063 0.251869 1.47922
282 8.36676 5.54342 1.74067 -0.199254 1.55448 -0.101966
460 5.49329 7.09371 0.154806 0.183498 0.271297 0.855976
730 5.543 8.3095 0.610113 -0.384475 -0.381102 -1.55287
629 5.50032 7.22259 1.29838 0.962242 -0.193131 -0.888206
812 6.3617 7.64065 0.703317 -0.228434 1.04026 -0.9822
572 7.69719 7.31111 0.781271 0.691553 0.580562 -0.0871175
784 7.45589 8.32815 0.849857 -1.12171 -0.380825 -1.64129
724 10.0298 10.3389 4.93415 0.473851 0.184189 0.452873
143 8.13336 8.26372 1.7032 0.593409 0.996382 1.83047
744 9.0769 8.70986 1.01823 0.712938 -0.74268 1.33935
213 9.26386 7.62666 0.407289 -0.697779 1.55753 0.651637
529 10.3143 7.80472 0.211948 1.07671 0.0605341 0.901179
434 10.0579 8.22265 1.15853 0.0180885 0.493636 0.647317
569 0.849579 9.43409 0.547503 0.636495 1.28823 -0.64816
262 1.49424 10.5856 0.220678 0.158983 0.913963 0.120714
387 0.340411 9.51693 1.526 -1.91454 -0.941615 -1.27304
122 1.44427 10.0461 1.41787 -0.559653 -0.122123 0.802459
173 0.512784 10.6178 0.884818 -0.456915 -1.57336 -1.42572
413 1.58756 8.79618 1.03783 -1.85629 -1.63006 0.305442
109 2.58563 10.065 1.05461 1.51362 1.12176 -0.227824
232 3.32789 10.1243 0.159727 -0.167912 1.46614 -0.125301
490 4.40683 10.5082 1.10966 -0.0500615 -0.478482 0.320598
533 3.71231 10.3108 1.91331 0.392289 0.333023 0.488509
663 4.75927 9.00246 0.71109 -0.700904 0.175832 -0.62982
218 3.35643 9.32105 1.50124 -0.90059 0.515852 -0.656237
361 4.50292 9.54161 1.68589 0.899024 -1.56465 0.152789
395 4.5909 9.88843 0.284467 -1.75367 1.5948 0.460123
690 5.2915 9.63847 1.14959 0.132263 -1.71731 0.589052
423 5.78941 9.53445 0.241671 0.0790383 0.756185 1.98086
852 5.17392 8.58993 1.58519 0.0806617 -1.26516 -0.245441
488 6.27252 10.063 1.25899 1.05081 -0.368793 -1.43203
624 6.63019 10.6378 0.343709 1.28185 0.635638 0.37102
14 6.95922 9.24077 0.328546 -0.526112 -0.423394 -0.3545
207 10.4981 9.27833 4.55294 -0.271376 0.29102 0.41152
614 7.22911 9.89669 1.04482 -1.30811 0.707013 -0.74042
831 8.11651 9.2417 0.787811 -0.246979 0.589707 0.166106
343 8.93079 10.0156 0.505207 1.00806 -1.61157 -0.943807
740 9.02447 9.08197 2.02712 -0.909162 0.0283889 -1.56483
394 7.89317 10.7108 0.688676 -1.71844 0.873631 -0.145818
456 10.3798 9.99697 0.0726685 1.07277 -0.200182 0.845465
246 10.5846 9.0836 0.595947 0.805326 -0.411633 -0.613233
492 10.0423 10.4818 0.889652 -1.10057 0.169406 -0.781659
846 1.244 6.22922 3.08853 1.01479 -0.765074 0.0645762
190 4.74665 5.72177 5.34428 1.54455 -0.55897 -0.599217
43 2.07748 6.38741 2.20363 0.608949 0.0515393 0.182935
627 2.70029 7.04545 2.91796 1.72601 0.206209 0.141493
65 2.80576 5.44049 2.30908 0.297605 -0.461442 0.472776
780 3.77784 6.34421 2.51548 1.12343 -1.14744 0.642762
24 2.65856 6.0774 3.30251 -1.61202 1.19579 0.58979
12 4.9886 6.46722 2.35513 -0.582931 1.56983 1.86699
579 5.71765 5.81464 3.16615 0.147236 1.24929 2.2045
858 4.7291 6.08608 3.27535 -1.72248 -0.456201 -1.62302
240 5.30459 7.07313 3.20315 -2.15987 0.406172 0.328362
351 5.96352 6.31209 2.31858 -1.12167 0.906237 -1.13463
598 6.61347 6.29194 3.19643 0.49151 0.739634 1.01355
186 7.31673 6.98099 2.71563 -0.224135 1.79894 0.0898359
516 7.39493 5.99361 1.70052 -1.29134 -0.76333 0.258738
543 8.326 6.24646 2.595 0.94358 1.50368 0.898889
552 7.81233 6.6874 3.80104 -1.46069 -0.807655 -0.396499
847 10.4719 6.85943 2.12482 0.205368 2.69477 -0.269836
809 9.47893 5.69163 2.14652 -1.8608 0.287922 -1.01285
508 9.34471 7.03955 2.76387 -1.19923 0.566387 0.320375
200 9.13433 6.00081 3.37586 -1.63893 0.450539 -0.195061
612 10.5944 5.53008 2.66095 0.549119 -0.750106 -0.31848
75 1.64161 7.22226 2.89257 1.05179 -1.72516 -1.22354
23 0.728665 7.55225 2.43175 -0.308733 0.515856 -0.141411
515 0.972301 8.05957 3.29857 0.258555 -0.0504113 0.570135
511 2.98184 8.19176 3.1322 0.342011 0.751618 -0.926832
678 1.47911 9.06532 3.58995 -0.480977 -0.572733 0.399446
777 4.05044 8.2214 3.89129 -1.3083 -1.56829 -0.442287