ITEM: TIMESTEP
44900
ITEM: NUMBER OF ATOMS
864
ITEM: BOX BOUNDS pp pp pp
0.0000000000000000e+00 1.0726842421158810e+01
0.0000000000000000e+00 1.0726842421158810e+01
0.0000000000000000e+00 1.0726842421158810e+01
ITEM: ATOMS id x y z vx vy vz
371 1.73267 1.70235 0.634295 -0.81634 -0.826356 2.6618
224 1.149 0.662906 1.79062 0.259101 -1.14408 0.0875146
709 7.20163 0.5248 2.07026 -0.675266 2.05989 0.354046
242 1.14941 0.697593 0.626471 -1.04985 0.562303 -1.05299
297 2.09967 0.584938 2.56751 -0.215745 -0.0215865 0.416647
461 2.47546 1.056 1.20093 0.494188 0.963941 0.219871
695 9.60514 5.21014 3.60323 1.99508 0.187658 -0.948342
157 4.1563 0.818086 1.80299 0.343914 0.234899 0.741166
278 7.25031 3.28651 0.352934 0.783418 0.486339 0.24404
713 3.1262 0.33644 1.12228 0.0148127 -1.62425 0.00769176
197 4.01708 0.861714 0.650208 1.64609 -0.0947218 1.094
864 4.50892 2.01076 2.33562 0.523552 -0.202856 0.524871
684 5.78201 4.75874 4.96664 -1.02664 0.705182 0.472125
35 5.43797 0.949897 1.1381 1.03153 -2.58631 -0.812089
379 6.36824 0.856085 0.602533 1.34824 0.264057 1.02959
431 6.44076 4.04646 0.0272544 1.12299 -0.336609 -0.652392
644 7.12973 1.92521 0.589415 -1.16667 -0.368804 -0.0930152
64 7.5869 0.699209 0.920511 0.485477 0.772344 -1.79354
412 8.6361 0.240738 0.00870747 1.03936 -0.296891 0.20597
363 8.5501 0.148177 1.07006 2.66868 -0.826469 0.355814
97 8.44569 1.22776 1.49151 0.10579 0.78146 1.25192
19 4.98076 4.04634 4.54187 -1.30195 -2.35098 -0.608791
417 10.1272 1.02516 1.17816 -0.642731 0.284093 3.23502
104 10.6833 0.410171 1.78697 -1.2138 -0.559165 -0.474322
547 9.03131 1.00519 0.645047 0.832424 1.33139 -0.899288
602 9.48552 0.255118 1.8867 0.345915 -2.3724 -1.21009
117 9.62728 1.94691 0.734141 -1.12721 -0.580749 1.9592
799 1.70569 4.75798 0.144909 1.98063 -0.963887 0.753841
465 0.292804 1.54497 1.18113 -0.0768543 -1.03901 0.836715
161 0.595728 2.62599 0.730178 -0.524309 -1.06948 -0.079523
742 2.38731 5.08762 4.89682 0.0209313 0.0297861 -1.37957
195 2.60383 2.20477 0.33623 0.808877 -0.213705 0.387564
84 1.57295 2.81921 1.39385 -1.04133 0.961524 0.197683
252 1.3505 1.843 1.62428 0.337379 -0.812888 -0.0135807
196 2.04274 3.0852 0.46215 -2.08927 -0.231671 1.24683
674 3.38409 3.26882 0.607427 -0.305774 1.44213 -0.682233
657 4.40368 3.31875 1.06567 0.914502 1.01645 -0.733759
396 3.3528 1.44842 1.52681 -0.117279 -1.6057 1.8883
522 4.49196 1.71431 1.23593 0.899616 1.54151 0.381054
365 5.57442 1.86624 1.57152 -0.20703 1.63644 1.66218
480 5.13669 2.84578 1.80125 1.16401 -1.28201 2.73777
160 5.20953 2.18793 0.642669 1.75299 -2.16588 0.238338
77 7.14598 1.57354 1.6512 0.37591 -1.6729 2.6694
610 5.5619 3.70735 3.6617 -2.26031 -1.55819 -0.211629
102 6.36919 2.4319 1.04743 0.760019 -0.457318 0.700447
156 4.33784 3.42535 5.25633 -1.28849 -0.194729 0.407007
407 8.59685 2.47818 0.51371 1.71328 0.6262 -0.272544
41 7.84127 2.36885 1.56067 -0.622498 -0.633336 0.0836034
229 3.51975 5.30062 1.77959 0.128289 1.31773 -1.33979
648 10.355 3.18128 0.682598 0.978707 -2.07627 -0.198539
595 10.236 2.56957 1.52208 0.0917749 -0.378645 1.13763
176 8.66948 3.40008 0.960759 -1.31439 -0.589961 -0.997388
664 2.69259 5.17343 0.195743 1.66003 -1.0638 1.1388
49 1.48272 4.70937 1.41307 0.841322 -0.447875 -0.200465
823 0.117666 4.48459 1.39971 1.61005 0.727751 0.343248
559 1.47878 3.89678 0.722446 -1.9401 -0.581141 -1.21156
466 2.33918 3.6773 1.3462 -0.287569 1.1244 1.31164
586 2.91903 4.57203 1.35935 -0.164117 1.95376 -0.480779
682 2.41491 0.278097 5.0596 0.927364 -0.733851 1.18233
419 3.72639 4.26488 0.873352 -1.36067 -0.575176 1.30424
618 4.45599 4.8902 1.26442 -0.696535 -0.670642 2.62664
135 7.51075 4.73765 4.02332 -1.21374 0.912288 -0.292211
452 5.53156 4.19407 1.74145 -0.60007 -0.00994278 -0.662726
380 5.24648 4.96523 0.501636 0.614226 -0.158417 -0.939998
66 6.90222 4.69346 2.13352 -0.00683349 1.5792 0.559416
139 6.40278 4.97749 0.770141 0.978027 0.359822 -0.0605957
188 6.76203 3.93996 1.02241 -1.54803 0.906228 1.10502
726 7.50852 4.52631 0.242227 -1.42056 0.517031 -0.46264
397 4.47418 4.32371 0.159646 0.919576 1.0054 0.165024
274 7.80483 3.90956 1.2983 -1.30002 -0.0623661 -0.637008
100 5.47889 4.01776 0.683915 -0.501965 1.02825 -0.0972588
162 10.2068 4.24674 0.27941 0.737237 -0.714283 -0.798539
99 9.08807 4.38964 0.577922 0.443964 -0.898119 0.678429
774 6.48752 2.56867 0.0299294 -0.0866313 1.17989 0.35832
235 9.81055 3.85888 1.38519 -1.36239 -1.00206 -0.713931
746 9.87996 4.92571 1.07982 -1.27087 0.306157 -1.09831
36 10.3697 2.05915 3.38337 -0.655544 -0.763803 1.1207
206 2.68493 3.89101 0.36064 0.740091 -0.738209 -1.4238
708 0.65988 2.17532 3.0188 0.444124 1.19062 -1.88437
121 0.522834 0.994173 2.76069 1.60067 1.1881 -0.934174
570 2.4324 1.70458 2.06127 0.46656 0.351744 0.0383135
600 2.73024 0.0798761 3.24599 1.50775 0.437786 -0.361334
265 1.47142 0.636365 3.321 0.0558045 0.27969 0.369894
273 3.12348 1.46094 2.72424 0.135866 -0.230188 -0.600905
112 6.7852 5.06761 3.29373 0.0232365 -1.03137 -0.458356
44 4.3363 0.0333996 2.48401 0.822967 -1.39647 -0.243673
672 6.6635 4.18317 4.00256 -1.25142 1.13453 -0.600772
234 3.29546 0.33909 2.21345 1.24122 -1.3704 0.724808
354 8.51706 4.30526 4.71892 0.574775 -0.312288 0.115344
110 5.01891 1.0229 2.369 -1.51904 0.919722 -0.634433
106 5.81193 0.603728 3.29245 -0.237895 0.65649 0.228808
688 4.71278 1.2542 3.61438 -0.231879 0.175211 -0.104964
312 3.16645 4.52593 5.09144 1.11633 -0.964834 0.702095
296 6.16015 1.10367 1.97393 0.127481 -0.656392 1.19749
725 7.03741 0.371383 3.29666 -0.594818 -0.6529 -0.878583
550 8.29513 0.111959 2.73004 -0.598656 0.711427 -1.25694
255 9.58664 1.33001 2.96109 1.9779 0.182173 0.670901
615 10.3224 0.625287 3.17532 2.38463 0.268796 -1.90033
10 10.6671 1.93092 4.38295 0.839969 0.876104 1.58154
132 0.240329 3.44028 1.68556 0.322583 -0.775731 1.21481
113 0.400354 2.3654 2.06635 -0.725483 1.10935 -0.836473
281 1.00563 3.21089 2.87395 -0.955915 0.223048 0.546826
85 1.11327 3.45461 3.91684 0.48274 0.254415 1.8751
741 1.87024 2.42405 2.38987 -0.27928 0.486562 -0.279744
32 2.73421 2.7126 1.26145 -1.30986 -0.0941455 0.834989
178 2.20469 3.2545 3.32479 1.71559 -0.103952 -1.02561
243 3.40043 2.43167 2.17716 0.598828 1.5217 -0.857547
732 3.33222 3.40795 1.69689 -0.659465 -0.152487 -0.688341
546 2.15074 3.58641 2.38522 -1.19383 1.19269 -0.479362
131 3.2375 3.26399 3.12949 -1.30767 -0.546563 0.32541
521 5.77451 1.67037 3.09108 0.237034 -0.393753 -1.74404
26 7.77636 2.08487 2.82253 0.713632 0.0544541 1.01763
787 6.75194 1.21676 2.80523 2.24603 0.0943106 0.573853
216 6.36295 2.22005 2.26176 0.68249 -2.36321 -0.864476
231 8.74534 2.04812 2.24516 0.365212 -0.99475 0.156011
257 8.38712 1.35711 3.25605 0.636332 -0.791173 -0.647354
74 8.19112 3.11216 2.32243 -0.750019 0.575354 -0.378612
5 9.08604 3.59311 2.16396 -0.859771 0.39369 0.368783
639 10.3948 3.13235 2.57708 -0.613822 1.24635 0.109384
92 9.50869 2.62328 2.86032 -2.18505 -1.14334 -0.0297923
191 9.84813 1.73948 1.97754 0.0722118 1.29046 0.239347
237 9.61282 3.942 2.93229 -0.452982 -0.228557 -0.989207
555 0.348579 3.95148 2.60806 0.883572 0.136025 -0.641937
754 0.688206 4.49085 3.47871 -1.47795 2.23295 -1.24188
444 1.69344 4.17641 2.9496 -1.73737 -1.85368 -1.03325
440 0.866275 5.24767 2.80291 -0.0428047 1.69919 -0.291393
61 1.32419 3.80729 1.85368 0.664634 0.572563 -0.807339
770 3.33584 4.24617 3.41744 0.424226 0.11698 1.18647
482 0.855819 1.65461 0.078962 1.79422 0.646378 -0.772777
816 3.58595 4.30403 2.41311 -0.90951 -0.58645 -0.94807
665 4.73685 4.74562 2.15403 -1.74584 0.343467 -0.173633
179 4.37647 3.91957 3.31012 -0.201697 -0.726394 -0.198901
776 4.56169 3.62473 2.22007 -0.019632 -1.75795 0.971629
587 5.21205 2.79675 2.83608 2.32245 -1.22219 -1.22802
788 6.63142 3.92327 5.20084 -0.976658 -0.192132 -1.55965
138 6.74988 3.53638 1.88642 -2.62898 1.39792 0.808241
182 5.94251 4.62054 2.9198 -0.735173 -1.02374 0.347454
46 7.32662 4.22707 2.99422 0.111918 -1.18258 2.1569
418 8.465 5.09718 3.00279 -0.236321 -0.555572 -1.39165
596 8.42322 3.95181 2.96545 0.554362 -0.155625 1.01525
527 8.31795 4.4995 2.04791 -0.600282 0.464153 0.244307
573 8.87003 3.31296 3.63312 -0.348064 0.10815 2.40039
248 9.5986 4.13142 3.92296 -2.39717 -0.96701 0.657679
519 10.2204 4.82656 2.37 0.0684641 -1.30129 -0.227517
638 0.357236 0.376822 0.0138999 -0.798609 0.955117 -0.115969
654 2.03761 1.01339 4.35219 -0.171719 -0.504927 -1.13905
123 0.458825 1.24413 3.92285 -0.73404 0.283671 -0.914633
439 1.03094 0.25864 4.41653 0.263415 0.291522 -1.0508
429 0.650134 1.07161 5.06052 -1.68469 -0.384781 -1.54186
479 10.253 3.78134 4.75422 1.81991 -0.510581 -0.447809
801 2.40019 1.70041 3.40564 -0.446378 -0.284228 -0.92414
589 6.03498 0.0885441 4.2211 -1.04105 0.284271 0.7034
319 2.94556 0.842363 3.84386 0.826438 -0.132029 0.610867
306 4.172 0.562946 4.4184 0.365159 -0.662343 0.732655
758 4.61278 1.58533 4.84183 1.09584 0.38307 -0.9332
184 7.60224 3.61513 5.00693 0.059442 -0.517628 -1.33812
215 3.84917 0.835074 2.99291 1.39435 0.30487 -0.948327
554 5.00423 0.0374973 3.74217 1.33887 -0.0452177 1.2865
857 5.34639 0.753672 4.57438 -1.45665 -0.21209 -0.881165
284 2.49534 4.78272 2.45025 1.2374 0.663991 0.224407
245 6.1576 1.3108 4.04996 0.550939 -0.580033 -0.0978411
210 7.68926 5.26342 1.1598 -1.79591 -0.422885 -2.02239
241 7.36991 4.73146 5.09793 1.5076 0.215671 -0.337492
149 7.3848 1.57082 5.04347 -0.897165 -1.14115 0.366579
400 7.79358 0.848733 4.1179 1.69075 -0.748003 -0.589491
236 8.54376 0.312709 3.75129 -1.84839 -0.190464 0.466773
158 8.94867 2.01071 5.01383 0.783966 0.52639 0.111805
699 8.95049 1.03169 4.40407 -3.18872 0.614735 -1.36211
669 9.62424 4.65603 4.80325 0.256499 1.3018 -0.429884
37 9.59304 1.88954 4.02628 0.176809 1.32978 1.05088
185 10.073 1.27435 4.80987 -0.724637 -0.0402645 -0.195938
189 1.11636 1.82489 4.40439 0.0191035 -2.24162 -0.0540831
747 3.68875 0.17695 5.26231 0.368466 1.13632 0.71202
335 6.93632 2.84389 5.18161 2.74685 -0.107755 0.310412
57 1.85785 2.6152 4.03347 0.514746 0.555158 -1.31682
652 2.96491 2.07502 5.25336 0.685137 -0.051812 1.32917
358 8.61419 5.09075 4.01675 -0.277638 0.714342 0.423178
494 3.02252 2.30298 3.99843 0.288439 -0.410127 0.483716
154 3.79247 1.45343 4.05249 0.97484 0.192306 -2.2796
198 3.46499 3.32373 4.17296 -0.755521 -1.44453 0.79896
181 5.20898 2.59797 4.81433 0.227804 1.47039 -1.28562
34 2.55613 3.45765 4.75503 0.260205 1.86733 0.276944
322 4.01754 2.34049 4.76073 1.64111 -1.98111 -0.481096
103 4.10526 2.30286 3.16477 -2.15501 -0.653087 -1.50808
13 5.76528 2.71289 3.79507 -0.712792 -0.010181 -1.47209
204 6.53502 2.78453 3.12358 0.476131 1.2972 1.69142
87 5.86759 3.51503 4.77912 -0.75601 0.336895 0.190989
115 7.19682 2.29073 3.86463 -0.831788 -2.36002 -0.364051
203 6.34707 2.09134 4.56486 -1.63384 1.68287 0.332925
633 6.67916 3.14963 4.18839 -0.704477 0.40392 -0.731819
807 7.94786 2.5028 4.86084 2.78004 0.177144 1.29672
2 8.56889 2.22866 3.78805 -0.690023 -1.24986 1.5183
348 7.56691 3.54717 3.94315 0.544767 -2.04344 -0.936568
520 9.55997 0.198032 3.99705 -0.927921 -0.50364 1.89409
78 2.029 0.130006 0.937536 -1.48472 0.0455947 -0.922963
202 10.6141 3.55204 3.82429 0.697837 -0.392385 -0.472433
613 5.31202 0.477273 0.153125 -0.288921 0.0586413 -2.7809
734 9.57592 3.0402 4.45187 -0.893639 1.61895 -0.828638
330 10.6477 0.380641 4.30496 1.74773 2.41512 0.861222
526 10.4927 4.68361 3.99804 -1.2944 -0.581607 -0.102948
484 0.556893 4.03221 4.5076 -0.198436 0.231405 1.95469
16 10.1284 2.44251 0.0389241 -1.0186 -0.511337 -0.156178
426 3.17414 4.91986 4.18461 1.5441 0.292524 -0.751026
436 2.24254 4.39221 3.97807 0.208907 -2.44197 0.130686
630 4.53737 2.98434 3.99231 0.129412 0.153978 -2.56466
455 0.456429 5.31386 0.771276 0.850552 1.84076 -0.109034
282 8.95574 5.24302 1.41168 -1.17903 1.31028 -0.00968978
338 4.86875 4.86259 3.22298 1.30957 -1.31482 1.02186
416 3.64706 1.78696 0.13487 -0.00641573 -0.410622 0.18596
381 3.12692 1.14604 4.95512 -1.06507 -0.161988 -1.08123
40 1.61008 5.09885 3.61139 0.153896 -0.665404 0.199762
159 3.83467 5.3353 2.66732 0.240906 -0.636925 0.897486
583 1.89935 0.0131744 3.94048 -0.482377 -0.300251 0.28433
443 5.53455 5.3575 1.63752 -1.77512 -0.653419 -0.30593
518 4.72472 3.3307 0.0184741 0.629879 0.126257 1.46156
367 1.09299 1.30248 6.37519 -0.973215 -0.00733352 0.601786
277 0.979626 2.27741 6.16652 -1.41571 0.384192 -0.210765
256 10.7204 0.405645 5.46498 -0.954123 0.396996 -1.47943
275 2.58461 1.25207 6.06857 -0.796989 2.60787 -0.169807
192 1.7824 1.26737 5.53225 1.15376 -0.0845863 -0.447964
337 3.86709 1.79305 5.72698 -1.25342 -1.07584 1.93195
244 1.93041 1.42128 7.03625 2.02576 -1.43679 0.237829
327 6.54828 5.15123 5.65956 0.0210142 -1.82745 1.15305
729 3.56575 0.733003 6.18846 0.654078 0.814401 -0.0843443
685 4.42921 1.21441 6.46101 2.55783 0.0492335 -0.921511
549 9.82222 0.349017 10.6549 -1.00018 2.00044 0.671583
853 3.04634 0.900891 10.3387 -1.13253 0.566302 -0.0403205
820 5.37714 0.125972 6.53022 1.33926 -0.296606 0.205629
843 5.91389 2.30131 5.47809 0.739928 -1.13159 -1.33443
212 6.7341 0.39252 5.64063 -0.159266 0.154664 -1.20445
736 6.63348 1.44222 7.13453 -0.52845 1.17734 0.720724
641 7.09298 0.265225 7.2166 0.262372 -0.898853 1.09786
51 8.34117 1.50195 10.4716 0.771576 -1.46923 -0.875919
706 7.59139 1.19586 6.13713 -0.356387 -0.306293 -0.670383
655 8.21142 1.92929 5.83552 -0.995776 -0.028132 -1.1371
863 8.28607 0.460181 6.62832 1.05698 0.293155 0.0181058
25 9.10806 1.07987 6.6024 0.792482 -0.109388 0.855691
124 8.22232 1.73937 7.19735 0.502198 0.476828 -0.722866
565 8.36816 0.705065 5.44797 0.370673 0.219342 0.543003
790 9.46481 0.459221 5.49421 0.800432 -2.22132 0.738236
332 9.85711 0.639417 7.30917 -0.545992 -0.606828 1.90087
626 10.2982 1.00843 6.24774 0.679223 -0.511964 -0.0734744
854 9.09449 1.60605 7.76417 -0.655642 0.511033 2.28782
315 1.02859 3.21068 5.71687 0.409816 0.696702 -0.459764
171 1.66239 3.21407 6.61134 -0.761485 1.66633 -0.13702
325 2.75412 2.74763 7.30163 0.0113455 0.184978 -0.411096
223 2.56205 3.7679 6.61706 0.519339 -1.1176 1.22085
320 2.85013 2.37679 6.2544 0.637665 0.505906 -1.32699
824 4.94597 2.28476 5.8261 1.45104 0.779631 -0.878848
422 3.27164 3.301 5.52272 -0.360541 -0.113264 -0.274233
727 3.97703 2.58947 6.93669 -1.66618 0.800708 0.724258
512 4.70722 3.31039 6.49631 -0.773357 -0.589237 0.424985
705 0.483889 0.288248 6.40935 -0.0859032 1.86089 -1.21658
763 5.43978 3.61987 5.84379 1.2609 1.72437 -2.9785
475 6.76949 2.05922 5.95319 0.660476 0.244497 -0.626446
352 5.98955 2.46893 6.71009 -0.264513 0.826457 0.987561
563 6.50708 0.0166528 9.00987 -0.710732 0.0101457 -1.33039
53 6.79139 3.33396 6.61733 -0.199493 1.13867 0.299252
301 4.24452 0.335942 8.42514 1.82863 0.588354 1.50249
209 7.3218 2.27169 7.03206 0.302341 -1.40363 1.02734
756 7.67306 2.98333 6.04543 0.461742 -0.248463 -0.507996
388 8.1137 3.94244 6.78999 -1.70144 1.42161 -0.1533
735 7.91259 2.9759 7.71974 0.0541893 -0.595864 -0.110552
362 10.0881 2.23468 6.33506 -1.31137 0.216951 1.21978
786 8.8586 2.59713 6.32987 -0.331936 -0.145245 0.541247
220 9.87806 2.8668 7.42254 -1.36914 0.584761 1.80251
789 9.97227 3.25717 6.4636 0.481733 0.528875 0.47115
810 8.90434 3.18915 7.557 -0.212025 0.46977 2.57547
359 1.18789 4.21106 6.45081 -0.107595 0.0933312 -1.25267
435 1.66871 3.647 7.84801 -0.0635352 -1.32588 1.52278
645 0.339015 5.12129 6.62619 -0.100946 -1.97613 0.589626
269 4.36315 5.07116 9.93573 1.57342 0.274184 0.579557
450 10.5438 4.29032 5.67816 -0.757971 0.533102 -1.13022
743 7.49326 0.426746 10.5083 1.54841 0.346486 -1.60473
442 1.82447 4.80479 5.77368 -0.624433 2.13684 0.279226
611 2.0456 4.55022 7.07512 0.00453995 0.430636 0.406976
214 3.39771 3.58695 7.26858 0.946718 0.848517 1.67777
794 2.87393 4.63568 6.02774 0.990023 0.771892 0.452101
318 4.08715 4.52733 6.25799 0.88401 0.533287 1.74434
89 4.66699 4.16309 7.32716 -0.0610036 -0.916293 0.988402
599 3.31052 4.79267 7.11032 -1.99207 -0.735661 -0.491474
228 4.58309 0.308389 5.75628 -1.77442 0.313934 1.38521
7 0.656887 3.99207 10.6867 0.623423 0.52996 0.820184
781 5.30346 4.76905 6.25638 -0.549142 1.06895 -0.624763
294 6.34931 4.2991 6.4115 1.30173 0.477222 -0.987933
594 7.46992 4.06783 6.12849 1.88533 0.67894 0.24565
737 9.59753 2.63575 5.44641 -0.0795844 -0.532535 1.14558
336 8.36856 4.62411 5.71074 0.90249 0.235951 0.0719592
72 0.189633 4.18301 7.07509 0.90183 0.207281 0.528457
592 9.74974 5.04182 6.52291 0.0798525 0.11194 0.942123
27 9.666 4.11407 7.02497 0.445463 -0.529737 0.991558
205 9.50159 3.87571 5.49008 -0.487825 -1.11116 2.35385
239 0.174094 0.927088 7.13432 -0.363658 -1.00195 1.24497
767 1.07491 0.266342 8.60426 -0.356865 0.115263 0.0206868
266 0.807529 1.46711 8.92001 0.321285 0.0718801 0.965645
261 0.934949 1.06397 7.82335 0.50729 -0.201183 -1.25547
79 2.89356 0.848509 7.36907 -0.341052 1.42131 0.668786
517 3.32065 1.58153 6.71264 -0.987586 -0.894517 -0.456206
55 1.85865 1.62941 8.03686 -2.71677 0.504676 0.162463
393 9.54179 3.55326 10.6905 1.10407 0.140932 -0.359237
437 4.23743 1.07195 7.49622 0.265157 0.374335 0.451457
701 4.31487 0.176652 7.07425 -0.216349 0.171961 0.112956
298 3.0971 0.627044 8.29421 -0.976084 -1.27017 0.696497
832 4.64126 1.11859 8.9311 -1.13205 0.459523 -1.17158
368 3.87836 1.62913 9.78538 0.155962 0.515541 1.05737
1 5.43104 1.73092 7.86732 0.174746 0.2809 0.536457
503 2.01532 0.250933 6.75181 1.07925 1.60948 0.559681
502 6.21564 0.742328 8.00527 -0.4899 -1.34601 1.07461
837 7.69384 1.64682 8.15173 0.385748 -0.900717 0.71401
472 7.31023 0.404272 8.34248 1.21127 0.651913 -1.11991
715 8.18028 0.699407 7.68569 -1.3247 -1.55341 0.42885
751 5.60738 1.33088 6.05739 1.06228 1.12817 1.96358
666 8.79395 0.862618 8.66506 -0.433928 0.0432808 -2.08271
238 0.0354886 0.637577 8.36118 -0.479941 -0.330703 -0.6165
385 9.94902 1.49562 8.8527 -1.11858 0.296406 1.48083
127 0.252708 1.97341 6.90032 -0.8781 -0.69873 -0.860905
631 0.281491 2.96756 7.21405 -0.506058 1.93632 -1.47548
290 0.885672 2.09126 7.7546 -0.27914 -0.0968077 -0.231501
779 10.2746 3.29354 9.08074 -0.636201 -0.3185 -0.197664
208 0.456915 2.88417 8.43437 0.456943 -2.59752 0.824587
8 1.40081 2.36083 8.69143 1.54162 0.265364 1.68763
69 2.90413 3.26219 8.39487 -0.997828 0.0333264 0.736235
673 1.71178 2.64294 7.60433 0.658335 0.467629 1.19232
391 2.55097 2.22902 8.5405 0.533105 0.0836024 -1.16564
551 3.53963 2.3839 7.91724 1.57074 0.607249 -0.204532
803 4.45216 3.01259 7.81809 -0.806644 1.51602 -0.203285
372 3.99863 3.53961 8.88931 0.667297 -0.233187 -0.81692
376 5.54174 3.80657 6.86411 1.06867 -0.862241 -1.20286
609 6.35622 1.80271 8.01773 0.609443 -0.962787 -1.7243
292 4.82086 1.88437 9.55171 1.68974 0.234932 0.191752
514 5.01597 2.44622 7.12229 -1.51681 1.34225 0.0408722
406 4.97255 2.67026 8.76205 0.816513 -0.885504 0.364345
432 6.14771 2.65857 8.63042 -0.53714 -0.848455 -1.08145
169 7.15532 2.40787 8.2479 -1.33853 1.84413 2.15935
142 6.35199 3.02195 7.68819 -0.140927 -0.587544 0.118569
483 7.15955 3.81029 8.33534 0.324627 0.554086 1.17888
473 7.82254 2.19151 9.4354 0.100283 -1.09117 0.974004
769 9.444 3.84813 8.31607 1.46551 0.663594 -0.136259
289 8.32212 3.16821 8.98055 -0.725447 0.875875 -1.03557
369 10.0534 1.65885 7.31328 0.420757 2.19526 -1.60413
384 9.15991 2.52283 8.27353 0.00118145 0.154953 -0.31075
93 10.3398 2.26962 8.33286 0.0863038 -1.03318 0.668545
170 0.483011 4.24994 8.39642 0.660547 -0.474689 0.10657
286 0.506512 5.2667 8.96199 -2.31174 1.09175 1.023
357 0.426962 4.24379 9.75325 0.805909 1.08203 -0.0536483
276 1.4956 5.05457 8.54867 0.369747 0.536849 -0.35149
307 1.91224 3.28102 9.17982 1.15944 0.00672089 0.885383
316 2.67362 4.58834 8.07892 0.58985 0.591903 0.512847
757 2.8515 4.20765 9.5344 -0.434958 -0.861059 -1.17759
584 0.734297 5.14402 7.64794 -0.937353 0.787955 1.05305
383 4.3156 4.78124 8.62935 0.568462 0.679997 0.0973303
581 5.20047 3.93509 8.27233 -1.27235 -0.343078 -0.567877
344 5.31336 5.1174 8.01123 0.420198 0.835113 0.529566
390 5.27563 3.51604 9.21006 -1.5894 -2.04616 0.0788648
813 6.79358 5.32285 6.78182 -1.65072 1.00708 -1.18775
438 7.15495 4.32754 7.19041 0.0260398 1.63581 -1.88782
145 6.28056 4.37473 7.61576 -0.231591 1.79123 0.385166
350 7.2677 5.14599 7.83135 0.990686 0.295937 -0.510919
415 6.18523 3.70816 8.48027 -0.241325 -1.14819 -0.11757
577 8.16163 4.14728 8.22377 -0.382464 0.188288 0.103471
329 8.78213 4.70356 7.21465 0.767264 0.62017 -1.09471
310 10.5188 3.13551 5.57132 -0.388532 0.410232 1.66126
474 5.09114 1.46847 10.5551 -0.745135 -0.292107 2.06564
288 2.03476 3.65994 5.65372 2.21314 0.00528798 0.935033
146 10.4693 3.63662 7.98643 -1.05943 1.48067 -1.47483
259 8.82255 4.65323 8.83734 -0.336311 -0.315484 2.24929
505 0.161431 0.958453 9.46426 -0.0156603 -0.365066 -1.06243
219 1.77762 1.18924 9.17917 -1.48352 0.802005 0.821796
828 1.77989 0.534254 10.5126 2.25133 2.1082 1.23319
392 1.07355 1.02773 9.94785 -0.088559 -0.825044 -0.403663
70 2.20995 1.6597 10.2868 0.279715 1.07909 -1.8604
21 2.75929 0.316711 9.33911 0.586175 -1.52631 -1.60019
151 4.69702 0.0506224 9.95437 1.75097 -0.259986 -0.0162063
295 3.7494 0.59003 9.47605 0.547113 -0.142585 -0.824782
221 4.14121 0.802848 10.3518 1.20179 0.85877 -0.970268
530 10.0165 4.40922 9.63121 -2.75431 -1.82956 -1.28924
334 6.16043 1.50113 10.4958 0.810869 1.25993 0.545244
430 5.80164 0.843 9.65349 0.334169 0.669299 -0.681952
403 9.43777 5.26063 9.62495 1.71413 -0.445744 -0.559045
504 7.43888 0.271875 9.45408 0.119698 1.84518 -0.828932
187 6.78603 1.78142 9.07632 1.98302 0.55776 -0.920848
453 9.06163 4.58031 10.1928 -1.12672 -0.104816 1.20733
411 7.37325 1.43686 10.1685 -0.0653763 -1.07386 0.908251
861 8.95177 0.0964565 7.60424 -1.08566 -0.266501 0.897085
28 8.57996 0.516528 9.72374 0.377674 -0.364631 -1.98427
230 7.98266 1.26303 9.28275 0.725578 -1.32309 0.181719
408 8.7929 1.93523 8.96042 -0.00862512 -1.42876 -1.03207
845 9.4184 1.55284 10.069 0.643485 1.4281 -0.121258
76 0.0366471 2.0351 5.48321 -0.0830761 -0.817581 1.20634
386 10.285 0.22866 9.63365 -1.39001 -1.56705 1.11914
283 10.4841 1.20487 10.4863 -0.165568 0.185758 0.63752
524 1.24205 2.02365 9.71142 -0.617492 -0.153343 -0.134079
366 0.697625 3.26357 9.45212 -0.0414436 0.327688 -0.56681
313 0.55496 2.63639 10.3939 -1.13236 -0.649761 1.66034
841 10.5447 3.43799 10.1772 -0.896199 -1.52252 -0.0905072
177 2.43413 2.3548 9.59181 0.763836 -1.04592 0.655237
83 2.78537 1.42828 9.3323 0.947577 0.849986 0.234864
17 4.3507 2.87341 9.69722 -0.232239 -0.429902 -1.01017
405 4.34992 2.38384 10.52 0.205423 -0.0568638 -0.236813
556 3.31807 2.58488 10.329 1.90887 0.312767 -0.266914
382 5.60743 3.0935 10.1255 -0.510705 -0.29032 0.357295
134 5.87018 2.07732 9.65332 0.885822 0.403972 -0.0419414
825 3.51363 5.22687 9.42007 0.0752956 1.4261 0.524955
478 6.96635 3.0583 9.06784 -0.511659 0.346449 -3.32216
829 7.54358 2.75064 10.3101 0.376214 -0.0270659 -0.60605
580 8.72237 2.43448 9.98019 0.161159 0.67915 -0.236344
670 0.0243214 2.31214 9.34423 0.166354 1.95503 0.741373
680 9.30686 3.75136 9.46111 0.00140658 -0.44644 0.0698752
792 9.74711 2.48109 9.74697 0.720658 -0.643171 0.630097
468 9.67111 5.24802 10.6895 -1.38308 0.468163 -0.836446
553 1.34758 3.40044 10.1981 -1.43955 -0.396863 0.0195651
445 10.1652 4.48295 8.69014 -0.134333 -0.156059 0.496489
247 1.27184 0.114643 7.41526 -0.766406 0.160712 0.846441
317 1.34055 4.87627 9.70088 -0.710679 0.0236625 0.335287
798 2.74616 5.3104 8.81595 1.34942 0.502146 -0.0626889
141 2.41606 3.21817 10.1674 2.04557 0.789734 1.61839
606 3.29613 2.85833 9.36274 0.924114 -0.895374 0.14455
42 3.41426 3.66993 10.1534 0.309657 -0.465636 -1.05875
68 3.44847 4.78367 10.3802 0.289714 -0.0505454 2.04489
541 4.32524 3.96172 9.82736 0.734529 -1.58465 0.296189
567 7.74297 5.24555 6.22393 -0.337968 -0.535501 -0.156528
300 5.37691 4.34139 10.3046 -1.20645 1.09904 0.552539
815 2.35117 5.34467 9.87771 -0.271022 -1.78325 -0.415973
750 6.29432 3.7225 9.54689 -0.592927 -0.549081 -0.474654
718 9.53378 1.448 5.71192 -2.18659 -0.0378577 1.00183
561 5.09479 4.60192 9.19172 1.02864 1.44943 0.761398
860 6.28549 4.83679 9.03778 -0.0517683 -0.42534 -0.669452
451 7.20472 5.03523 10.0478 0.236386 1.13169 1.07189
428 7.5449 4.74001 8.88228 0.13886 1.70928 0.256724
414 6.60019 0.415823 10.077 2.31473 -0.470478 -0.324593
264 8.20516 5.19859 10.3625 -1.72101 -0.669403 -1.61409
588 8.2628 3.98039 9.97344 -0.00280707 -0.258001 0.430496
557 7.10633 3.88571 10.0655 -0.733074 -0.517193 0.852575
433 1.47754 0.043739 9.56195 0.237227 -0.368987 0.254939
82 1.93397 2.6127 5.71281 0.983038 1.01081 -1.46237
314 1.33949 5.3006 6.73923 0.261462 0.173721 1.09108
250 2.07899 0.583461 8.18056 -0.338836 -0.178956 -1.12986
752 0.801927 4.45034 5.46773 -0.711703 0.230581 -0.0570496
137 10.1944 4.59212 7.71475 -0.543576 -0.97906 -1.28017
721 8.57939 3.40699 5.60479 -1.31185 1.32093 1.18481
45 3.70804 5.25225 5.51137 -0.787752 0.360582 0.98056
309 9.2731 5.15879 7.9474 0.238335 -1.41327 -0.0835987
689 9.39567 0.0421187 6.49008 0.217496 2.29682 0.478079
427 1.04107 5.84517 1.57885 1.00296 -0.282579 -1.69262
463 0.903849 6.77819 0.448121 -1.89139 0.0978826 -0.47413
529 10.5359 7.06776 0.285826 1.70789 1.30211 -0.114818
477 2.5027 6.54351 0.491865 0.898013 -0.53022 1.0827
694 2.23297 5.46503 1.39849 0.094823 -0.575365 -1.06425
793 1.93314 7.60781 0.934688 1.32248 0.445306 -0.0428963
535 1.51645 5.72772 0.388353 0.53068 -2.56344 0.327891
658 3.35607 5.78277 0.795322 1.10461 0.864118 0.380663
525 9.71021 8.47431 4.75919 -0.158974 0.829633 -2.04828
29 3.90373 10.7081 3.56345 -1.252 -0.739125 1.57171
462 3.36572 7.26749 0.641229 0.130355 0.0389404 0.413654
534 4.2008 6.48515 1.18616 1.36228 1.05269 -0.9039
6 5.2876 6.36344 1.17275 -1.4467 0.17011 -0.850172
817 4.78951 6.53928 0.20534 -0.549984 -1.11205 -0.0756325
620 6.52526 6.67269 0.455644 -0.809867 -1.56962 0.55709
56 8.62313 5.76458 0.59286 -0.961948 -0.33575 1.19082
271 7.52124 6.32734 0.612228 -0.217153 -0.102244 0.992392
822 9.09544 6.4871 1.72551 -1.44415 0.90661 -0.473112
486 9.31532 10.2988 2.99358 0.463894 -2.45776 -0.776546
545 9.91873 6.11445 1.07718 -1.00182 1.15634 0.460763
697 7.97383 6.96205 5.306 0.992485 -0.426932 -0.693246
765 0.975835 7.78199 0.131935 -0.892669 -0.0500892 0.00987718
268 3.12279 10.3369 4.18716 0.0283217 -1.07496 -0.0371065
413 2.07038 8.95526 0.9897 -0.983704 0.149239 -0.55127
31 3.13357 8.39494 0.596429 0.828999 1.28372 0.0609057
232 3.74722 9.48976 0.351494 -2.3162 0.376332 -0.721088
489 4.18233 8.08395 1.06358 -1.59409 -0.974652 -2.42814
490 4.36557 10.6025 0.858992 -0.361545 0.433533 0.108267
812 6.16934 7.52012 1.25439 2.00383 0.163792 -1.80644
696 8.35485 10.5908 4.71723 0.34018 0.515758 0.121843
460 5.36313 7.46923 0.344646 -0.217621 0.0974898 -1.2585
730 5.29381 8.33837 1.12224 0.764198 -0.131891 -0.22175
572 7.42021 7.46805 0.51119 -0.670129 -1.19832 0.0228235
60 4.2832 5.41658 0.361006 0.0500392 -0.487932 -1.02388
488 6.46119 8.99143 1.51019 0.216989 1.3534 -1.61369
172 8.16395 6.99769 1.31799 -0.548351 -0.732452 2.12051
143 8.36852 8.43679 1.65492 -0.199827 -0.110467 -0.356538
831 8.09299 8.97349 0.887046 -1.27951 -0.533573 1.33117
601 8.98424 5.55359 5.18926 -2.39149 0.178366 -0.303775
744 9.14365 8.62327 0.533728 0.293718 1.60236 1.25917
213 9.18491 7.61121 0.533561 -0.18253 -0.452049 -0.632428
343 8.99317 9.91616 1.07268 -1.32707 -0.0619756 -2.23185
458 10.2851 8.17223 2.07724 -0.0316207 -1.59633 0.0348397
531 10.7194 8.46877 0.406875 -0.130481 1.4649 -2.02449
456 10.5534 10.1765 0.160971 0.0415174 -0.396482 -0.478486
167 1.34724 10.4982 2.19624 0.254955 0.745644 -1.36204
569 0.972868 9.33515 0.58607 -0.220654 -0.426794 -0.501402
262 1.1838 10.3804 0.361075 1.54778 -1.23632 -1.03225
387 0.569419 9.38626 1.76024 -0.0953915 -1.42404 -1.3957
122 1.50531 9.86751 1.2536 -0.944428 1.94132 -1.39355
109 2.48794 10.0535 0.500792 0.657004 0.182485 0.553315
251 7.14733 10.3988 4.62759 -1.03171 -1.16255 -0.771348
624 6.5132 10.0636 0.140655 -0.574797 2.21674 0.377163
533 3.67157 10.1689 1.66707 0.134871 1.89379 1.02332
842 3.71237 10.7155 0.0848523 -0.380791 0.785082 -2.55355
777 3.93666 8.18152 2.98885 -1.14245 1.33587 2.89319
663 4.492 9.1791 0.950548 0.296394 -0.535128 -0.621078
690 5.53822 10.174 1.14735 -0.745911 -0.419551 0.201176
14 7.28148 9.35634 0.271153 0.869321 1.46349 -0.174477
423 6.03047 8.86508 0.391668 0.419283 0.493443 -0.5859
717 6.83165 10.5025 0.943935 -0.0336088 1.00685 0.125584
374 8.63056 9.39111 0.0407624 0.649158 -1.46916 -0.935976
740 9.16037 9.13316 1.64803 -0.699476 -0.271839 0.0202257
614 7.64109 9.83587 1.41192 -0.724692 0.929322 1.26464
246 9.88636 9.35386 0.706046 1.08078 0.310378 0.528968
855 6.66705 5.69812 1.36289 1.71277 2.15735 0.0111665
847 10.4766 6.27269 2.67567 0.57439 1.26623 -1.15474
846 0.80119 6.33046 2.64138 1.48214 0.830464 0.681103
90 0.0221047 5.53782 1.92205 -2.17411 -0.406812 -1.11242
207 10.3763 9.33673 4.46759 0.791488 -0.113217 -0.761018
43 1.9049 6.68014 2.02412 0.730389 -1.0261 1.34739
75 1.12768 7.57331 2.96619 1.58073 -0.869029 0.700977
627 2.58162 6.98928 3.06678 0.451744 0.541298 -0.162962
470 2.8773 7.08676 1.52724 1.34938 -2.00614 0.288417
12 4.61067 6.54637 2.13173 0.618692 -0.950477 0.360282
65 2.73001 5.99179 2.21491 0.339261 -0.72557 -1.7205
780 3.55616 6.91647 2.44867 -1.61365 -0.917877 -1.39167
398 10.0542 6.57124 4.83337 -0.528967 -0.9754 -1.52787
579 5.63655 5.85626 2.54317 0.481004 0.688937 0.913823
634 3.82655 6.64927 5.19245 1.37561 0.291246 0.50907
858 4.48347 5.99119 3.17236 1.10027 1.01052 -0.313188
351 6.47865 6.44239 2.03452 0.038265 -0.20545 0.374311
598 6.51588 6.43226 3.35772 -0.377016 -0.28963 1.08954
528 7.12177 6.97869 1.45159 1.56061 -1.81137 -0.798074
616 5.49929 6.77012 3.68537 0.833633 -0.758243 0.796912
498 2.42289 10.4982 1.75669 2.27046 0.667834 0.924664
186 7.20814 6.82608 2.62218 -1.18945 0.206636 0.57063
516 7.86124 5.95553 2.3351 -2.02756 0.802383 -2.04095
840 9.08844 7.57847 1.91833 -0.237513 1.47679 0.925765
506 10.31 6.7775 1.67028 -0.368726 0.911865 -1.96966
809 9.58716 5.71859 2.5544 -0.500072 -1.39 2.28586
508 9.40188 6.89739 2.69527 -0.184005 -0.377381 -1.10719
174 0.605396 5.72937 3.72511 -0.361832 0.510341 0.882664
98 0.316143 7.52724 1.10763 0.177955 -1.26872 0.206147
168 0.334011 8.47571 1.38925 0.547094 0.782019 -1.13276