ITEM: TIMESTEP
41880
ITEM: NUMBER OF ATOMS
864
ITEM: BOX BOUNDS pp pp pp
0.0000000000000000e+00 1.0726842421158810e+01
0.0000000000000000e+00 1.0726842421158810e+01
0.0000000000000000e+00 1.0726842421158810e+01
ITEM: ATOMS id x y z vx vy vz
371 0.974451 1.3322 0.352914 0.764193 0.0225698 0.536378
547 9.26749 0.157535 0.586916 -2.56072 1.32137 0.257568
224 0.925956 1.78092 1.36382 0.420865 1.41685 -0.773662
602 10.1127 2.53812 0.52594 0.67429 0.483274 -0.212256
297 1.92939 0.50613 1.031 -0.80786 0.121243 0.170915
195 2.99969 0.929123 0.425325 -0.73516 0.448256 0.732352
490 3.98066 0.560108 1.06541 0.610027 -0.0715218 0.103712
429 0.00619121 0.17803 5.33784 -0.431814 0.563268 0.0767472
110 3.89669 1.73038 1.09273 1.64002 -0.0212835 0.78341
35 5.12056 1.01835 0.8818 -0.332899 -0.455035 -1.15526
743 7.30444 1.47762 0.0643627 -0.155219 -0.0512747 1.29548
474 6.34012 0.544471 0.168512 -0.290484 -0.766072 -1.14525
26 7.96445 1.66292 1.32951 -0.300765 0.562461 -0.149278
379 6.1226 0.911396 1.31255 -1.56239 0.0582432 2.40597
412 8.12303 0.715485 0.158636 -0.764579 -0.558775 -0.0800714
394 7.34134 0.565655 0.764911 1.10393 -1.8856 -0.321809
354 9.23996 4.18709 4.49588 0.385994 0.72932 -0.356061
363 8.75937 0.916366 1.04017 -0.0160812 -1.61649 0.0536225
262 0.143144 0.141483 0.875116 1.47617 -0.412587 0.241859
104 0.0109967 1.52668 0.870546 0.273316 -0.489957 -0.585342
231 9.76219 0.93538 1.34635 0.122053 0.658591 0.817584
5 8.99572 2.14713 0.947895 -0.170185 0.458652 -0.21576
747 4.06709 0.42839 4.79362 0.539938 0.991983 1.00303
84 2.02394 1.77121 1.23399 -0.30767 0.327679 -1.03124
465 0.72418 3.41796 1.48204 0.133702 0.128171 1.17091
161 1.10867 2.61946 0.846091 0.606621 0.763771 -1.30223
417 0.155821 2.53907 1.43544 1.04286 -1.24749 0.297832
70 1.89461 1.05126 0.0714592 0.174943 0.391944 0.543544
46 7.84996 5.29663 3.0792 -1.22679 1.8994 1.76468
197 2.8271 2.03579 0.734753 3.00044 -0.972858 -0.069681
49 0.517965 5.35233 0.811575 -0.259825 0.357919 -1.89591
732 3.75253 3.10901 1.37381 0.89455 1.1314 0.581447
365 5.24494 2.44921 1.14902 -0.122854 -0.518968 0.0541506
64 6.41708 1.57568 2.04463 2.67891 -0.731661 -0.748358
480 5.98262 2.99555 1.67573 0.698261 0.0795573 -1.12454
864 5.93201 1.64123 0.619668 -1.67441 -0.0909783 -0.212843
190 6.45048 4.83432 5.18445 -0.0405707 -1.48136 -0.139183
644 6.70512 2.2089 1.38222 -1.5238 -1.04338 0.271366
518 6.10521 2.71375 0.650176 -0.95653 -0.468018 0.575926
278 7.18127 2.56915 0.256881 -3.62715 0.990092 1.97633
639 9.02412 1.94327 1.91743 1.97825 -1.00634 1.19261
13 5.59192 1.48428 4.95514 -1.77611 1.75326 1.81705
41 8.14883 2.91911 0.936056 0.671651 -1.6376 0.651301
77 7.24784 3.08447 1.28588 -1.17776 0.374568 0.0690346
557 7.77519 3.90203 0.227045 -1.31454 0.535036 -0.46975
235 9.59727 2.97001 1.5156 -1.28607 1.4829 0.115815
191 10.0077 1.93142 1.56743 -0.903191 1.25094 -0.373661
176 9.91211 3.5167 0.245308 -2.19492 0.257586 -0.395733
559 1.21577 4.2823 0.92959 0.45371 -1.29331 0.640459
851 0.320304 0.0178589 3.05183 0.0489928 1.32358 0.949108
633 6.77603 2.80815 5.24267 0.608984 0.681245 1.07957
555 0.625823 4.49889 1.92641 0.698868 0.477894 -2.11986
595 0.263925 3.48333 0.540569 0.491079 -1.03312 -0.958465
196 2.09726 3.09305 0.0773932 -0.0791592 0.842847 0.83321
206 2.21564 4.40877 0.880234 -0.0333823 0.460267 1.67745
466 2.90591 3.63756 1.28435 -0.480795 -0.225647 -1.01074
87 5.57645 2.83477 5.10018 0.493276 1.07611 -0.289842
527 7.90056 5.01175 1.97664 0.475334 0.0102595 -0.80634
397 3.65172 4.68396 1.16314 -2.66151 -1.48728 -0.653063
657 4.47137 3.67279 0.303562 1.54646 -1.14961 -0.0827239
522 3.30002 3.21652 0.345083 0.261206 -1.29968 0.206384
776 5.34613 5.25358 1.24953 -0.516364 -1.17366 -0.640285
570 2.03061 0.0219859 2.63773 0.295114 -0.569509 -0.375809
419 4.63729 3.90918 1.62678 1.58827 1.06347 -1.20127
774 6.68309 3.62356 0.613238 -2.21267 -2.12746 -0.367697
610 5.92128 5.24797 2.11695 0.328608 -0.252479 0.852415
452 5.69955 4.32022 1.07457 -0.953256 0.44846 0.404033
591 8.10882 0.552531 5.23012 -1.72802 2.21096 -0.968026
188 8.07202 4.91075 0.811214 -0.725832 0.505219 0.777995
274 8.83088 4.44266 1.93163 0.00737379 -0.202768 0.333223
726 8.85748 3.73528 0.866561 0.300107 -0.103765 0.0629272
99 9.7162 4.20417 1.38806 -0.984592 0.336429 -0.597065
823 0.0569317 4.44931 1.07915 0.658734 0.807294 -0.11749
468 10.1243 5.33135 0.896151 -0.0181509 -0.571102 1.07865
264 9.51037 4.51355 0.146652 1.13631 -0.272634 -0.315885
223 1.90161 2.26893 5.32453 1.67245 0.378442 0.742997
713 2.68527 0.193042 1.6216 0.991444 1.25121 2.17629
36 0.44691 1.61058 3.0597 0.865208 0.803807 -1.78015
167 1.10277 0.507873 2.60098 -0.458484 -0.426771 0.337533
204 5.26684 3.82847 4.75633 0.140365 0.360813 -2.04743
399 2.27469 0.869938 3.30043 0.916097 -0.0194172 0.309489
600 2.93366 0.192752 2.92244 -1.56599 0.6013 -1.78439
243 2.81113 1.40284 1.71628 0.438349 -0.191844 1.48469
801 3.33974 1.53414 2.64938 -0.789545 -0.312233 0.819866
44 4.24537 0.656454 2.52203 -0.165392 0.418524 0.690958
50 4.06618 0.00236512 3.41918 -0.913702 -0.0392971 -0.719156
296 4.9099 1.38589 2.03797 -0.590635 0.485825 0.771084
58 5.00121 0.144534 2.05496 0.357698 0.253638 0.594693
494 4.05629 1.99483 3.33523 0.804808 0.330347 -1.26764
106 6.10198 0.658535 2.59974 -1.30181 -0.0770533 1.06077
389 8.4265 1.05371 2.10191 -0.0121351 0.356292 0.56142
725 7.30276 1.69247 2.74788 0.545442 0.552642 0.822192
118 7.38313 0.36737 2.45651 -0.41128 -0.750604 1.29891
754 0.375701 5.34962 3.33333 -1.03446 -0.221173 0.0699325
92 8.3017 2.07122 3.00761 -0.0254765 -1.32208 1.41209
236 8.51504 0.366548 2.99235 0.680919 -1.55004 2.1385
173 10.5256 0.839077 2.13191 -0.552701 -0.595009 0.786412
550 9.33804 0.819523 2.69874 -0.159056 1.04464 -1.28829
708 10.3184 0.621589 3.12292 1.74709 0.0605102 -0.882812
122 0.452648 0.0283901 2.00789 0.449078 0.819223 -0.692298
444 1.06852 3.68038 2.36998 0.530552 0.628645 0.317084
113 1.19784 2.609 2.00993 -2.92361 0.790082 -0.431902
674 2.48332 2.17375 2.25497 -0.423776 1.07361 -1.3792
281 2.00147 3.19439 2.83625 0.220092 -1.08116 -1.59241
32 2.97572 3.2479 2.19409 -1.46277 0.470641 0.437537
178 3.34586 2.66599 3.01515 0.775517 1.22934 0.956316
521 4.10962 2.35618 2.25728 0.304813 0.57809 0.1633
688 5.35724 1.99319 3.02252 -1.46492 0.607528 1.02916
587 5.61608 3.45292 3.18338 0.456018 -0.786681 0.181986
103 5.38003 3.0446 4.09159 0.0300025 0.623784 0.399356
400 6.5587 2.3656 3.44084 -0.0242223 0.741052 -0.324262
115 7.59769 3.1336 3.09285 -0.520167 1.43966 0.850111
216 6.74024 3.1679 2.38033 -0.318847 0.020356 0.74087
614 7.38389 1.03335 1.77827 0.518129 -1.0706 -0.0705205
327 7.26757 3.05637 4.154 0.929886 0.623686 -0.466672
519 9.65882 2.93725 2.54685 0.121592 1.0115 0.67088
241 8.39525 2.86168 3.71668 -1.85225 1.71401 -0.0983985
257 7.54001 2.46271 2.1382 -0.00688193 0.339762 -0.580965
2 8.56098 2.87112 2.41189 -0.382817 -1.01523 1.50383
741 1.49818 1.69564 2.5814 0.0905126 -1.79399 -0.801288
85 0.29972 3.02581 2.49801 0.759427 1.3142 -0.904175
202 10.2519 3.64504 3.38648 -0.145528 -0.60096 0.138676
237 9.18712 3.5297 3.56641 1.08501 -0.0793227 1.22449
455 10.2084 4.95547 2.15158 -0.0967067 -0.224385 1.59014
248 0.0818964 4.34778 2.83235 -2.29886 -0.154263 0.936042
61 1.97214 4.19571 2.09228 -2.61411 -0.469708 -0.0507706
479 10.2963 3.7783 4.50932 -1.48381 -1.32104 -0.229184
471 2.44934 5.35823 3.27109 0.0830725 0.543426 -0.0475476
132 1.77631 3.09594 1.31139 -0.895593 0.634522 -0.521412
440 1.27788 4.97859 2.61431 0.183557 -1.34268 -0.839894
426 3.47519 4.76762 3.73394 -1.78178 0.735311 0.469495
586 3.1264 4.30188 2.11517 1.20081 -0.258666 -1.65493
546 3.94812 3.8579 2.77252 -0.917962 -0.0468155 0.487905
770 3.03022 3.91504 3.16873 -0.998746 0.831207 -0.671505
816 4.78251 4.67937 2.71766 -1.59555 0.0134624 -0.926684
65 4.82116 4.04443 3.67221 0.72653 0.987993 1.09335
138 6.93496 4.38619 1.9489 -0.681807 -1.24567 -1.40001
407 9.00401 3.00872 0.0795446 -0.214645 -0.444179 -1.41106
102 7.06317 4.8381 1.00549 0.284997 -0.848111 -1.85017
74 8.00888 3.8508 2.38473 0.00165798 1.9461 -0.554542
135 8.26164 4.72195 4.52662 0.509 -0.347874 0.0347125
596 8.432 4.38989 3.24632 0.00139569 -1.11998 0.28539
97 8.32198 1.88856 0.204228 0.689904 0.217724 0.996943
746 9.33922 4.11122 2.80131 0.983219 1.19886 0.196649
573 9.83993 4.65406 3.56559 -2.08824 0.812905 0.570974
252 1.10602 1.19799 3.64552 1.44528 0.25809 -0.857693
583 1.53692 0.595185 4.72587 2.25683 1.11685 -0.705373
536 6.61818 0.516987 3.4814 2.56456 -0.804166 1.12836
284 2.43958 5.27168 2.18218 1.08861 0.0499143 0.309185
273 3.76871 0.823349 3.90864 -0.99552 -0.410895 -0.0398786
319 2.61415 0.726522 4.38283 0.598092 0.801019 -2.02558
721 8.82997 2.81294 5.21133 0.0144523 -1.58733 -0.51346
358 9.88738 5.03272 4.75069 0.964193 -0.627431 0.421757
396 4.60634 2.67103 0.0918118 0.0880501 -0.124899 0.342074
758 3.96875 1.36455 5.22693 3.46267 0.149814 -1.54399
215 4.75332 1.48011 4.13314 0.29961 0.74578 -1.39333
589 5.37986 0.511826 4.61011 -0.425186 0.0222598 -0.0382282
554 5.32154 0.876725 3.18028 -1.15112 1.80392 1.52983
787 6.02712 1.40736 3.91971 0.983147 1.54868 0.927644
807 7.05535 1.74693 4.28181 -0.615153 -0.405446 -0.645757
149 7.16632 0.606098 4.38477 0.444232 -0.348614 -1.05648
203 6.54715 1.77436 5.21204 -0.152891 -0.670603 -0.227706
37 8.27396 0.685669 4.07401 0.764705 0.828731 -1.73402
117 9.74869 1.48355 0.357732 1.30595 0.234879 0.459232
158 8.17363 1.60109 4.76408 1.05979 0.247208 0.0126024
121 9.53088 0.350306 3.86521 0.610515 -1.80246 0.193247
123 10.5996 0.521214 4.25706 0.0865912 -0.441736 -0.623781
185 9.69173 0.544419 4.88524 -1.10347 -0.238582 -1.30987
76 10.2107 1.58044 3.78372 -0.0927787 0.549736 0.363026
174 0.780532 5.2243 4.49876 0.323448 -0.7763 -1.11183
244 1.38714 1.61218 4.77868 1.55105 -0.313279 1.20542
189 0.577695 3.09708 3.46355 -0.400979 -1.71687 -0.223362
310 0.422478 3.1963 4.60825 0.112965 0.401241 -0.23534
288 1.71206 3.28177 5.12883 -0.225694 -0.423014 -0.683394
265 2.06986 1.95498 3.63124 -0.314201 -0.787769 -0.219439
652 2.58918 2.62385 4.70458 -0.416286 1.52091 0.3577
57 1.46721 2.62129 4.38089 -0.300195 -0.142339 1.50337
131 4.59139 2.85345 3.25394 0.71471 1.53225 0.0167993
198 3.40759 1.95245 4.21851 -0.893958 -0.898789 0.186904
179 3.10616 3.14256 3.91829 -0.241225 -0.567804 -0.578587
322 4.67321 2.31367 4.7706 -1.47104 -0.208045 1.28565
217 4.15678 3.57972 4.30338 1.50987 1.42241 -0.399726
245 6.17244 2.31053 4.37968 -0.450066 -0.42048 -0.292715
348 8.29079 3.74294 4.22683 -0.880881 -0.685969 1.29499
255 9.16658 1.4805 3.41813 0.145163 0.514824 -0.375257
734 9.00944 2.1817 4.26944 -0.687603 -1.61494 -0.688702
184 7.74876 2.68659 4.96331 0.870331 0.00340265 -0.852004
10 9.7292 2.61617 3.58795 -0.0266677 -2.35943 -0.375666
192 0.282197 1.76634 4.91299 -0.674185 0.417289 -2.05655
181 3.59381 2.71138 5.03194 -0.682483 -1.84364 -0.136248
737 10.0718 2.51979 4.547 1.64814 -1.5468 0.171082
618 3.54692 5.20005 2.32486 0.306384 -0.134682 -0.901523
526 0.693829 4.12179 5.07168 -1.75695 -0.021366 0.688234
484 0.454903 4.26647 4.00819 1.15602 -1.12547 -0.307586
251 6.22833 0.671852 5.3482 0.940097 -0.0267238 1.16333
63 5.52942 4.90371 0.242546 -0.00747364 -2.64328 0.055022
436 2.1089 3.46905 4.18251 0.239666 0.202335 0.532919
538 1.66243 4.39897 4.3713 -0.49588 0.0675933 0.274996
226 4.5106 4.64262 4.5718 -0.979629 -0.454332 1.54695
40 3.43834 5.26787 4.76184 -2.91492 0.100503 -0.648832
34 3.21043 3.74344 4.83014 -0.723077 -1.67114 -0.399016
338 5.66024 5.23008 4.55297 -1.00295 -0.826295 0.0264005
684 5.83423 4.32646 3.65287 -0.850447 0.524249 0.489
672 6.36532 3.54437 4.63056 0.289149 -1.88382 -0.623926
640 7.35571 4.0711 4.69216 2.71642 -0.753306 -1.33043
112 7.39541 4.60905 3.82488 1.29986 0.363489 -0.14893
367 0.794372 0.633901 6.81211 -0.090529 1.98151 -0.314357
277 0.417526 1.1465 5.79595 1.29533 -0.146694 3.55814
439 1.12757 0.353831 5.73393 -0.168297 -1.16063 1.01857
220 10.3939 1.88716 6.78285 0.476255 -0.0284574 0.652325
171 1.33614 1.50877 5.85882 0.467937 -0.547212 -1.07171
381 3.17019 0.99069 5.96293 0.612533 -0.281368 0.373334
613 4.66978 1.42303 10.7239 0.690908 -1.51778 0.888551
275 1.73024 0.919678 6.63388 -0.594103 -2.07296 -0.525863
228 4.09557 0.517472 6.0639 1.50609 0.51505 -1.54916
857 4.94056 0.801593 5.52228 0.509629 1.30947 -1.2383
751 4.9248 1.359 6.46575 -1.23419 0.0538095 -0.324044
238 10.1432 0.192955 7.705 -0.41866 -0.248597 0.539997
837 8.16915 0.883964 8.00384 -0.378475 0.586789 -2.00496
797 5.73529 0.630674 6.35955 0.19234 -1.33537 0.284192
212 7.23932 0.962895 5.61018 1.48646 1.03425 0.627964
199 7.81405 0.155102 6.20186 -1.56523 -0.833801 0.438846
790 8.63471 0.978014 6.21237 0.702995 0.261 1.11265
706 8.00017 1.48374 6.79284 -0.319852 -1.17242 -0.528192
79 1.35259 0.0183278 7.42683 1.51535 -1.00149 -1.70452
313 1.5253 2.05797 10.6363 -0.741952 1.42362 0.0976206
362 9.7871 0.858293 6.05544 0.48386 0.646112 0.288876
108 9.19308 5.13785 8.2571 -1.23484 -1.33183 -0.826571
25 9.52416 0.847422 7.20923 1.74233 -0.0524833 0.333489
93 0.62467 3.77634 7.23584 -1.96374 1.02572 0.38008
315 1.05352 3.51037 5.97499 0.197999 1.18453 0.121175
631 0.181697 3.01441 6.54153 0.428327 2.10102 -0.0704534
56 8.86917 5.1738 10.503 -0.304083 0.397873 -0.815027
69 2.23627 2.72626 6.77299 -0.443153 1.1679 0.782913
337 2.42126 1.76347 6.36244 -0.943895 -1.53864 -1.79283
325 1.28236 2.4361 6.4401 -0.0822605 -0.418807 0.0824175
422 3.77924 2.17181 6.14818 0.630125 -2.21814 0.376738
727 3.57895 3.37371 6.33878 0.709812 -1.33641 0.601266
316 3.04204 3.60142 7.20557 0.12794 0.680777 -0.261347
254 6.078 0.340817 7.32049 -0.777218 0.727013 -1.70528
137 9.47814 5.2317 7.10168 -0.293518 0.660341 0.142538
301 4.98533 0.262892 6.81693 0.740985 -0.15587 -1.02298
376 5.56708 2.98842 6.78164 -1.34491 0.248717 1.38056
512 5.10835 3.84871 6.49634 -2.0822 0.935602 0.557986
514 4.46457 2.46792 6.89632 1.31245 -0.825338 0.62204
843 6.01278 2.38365 5.94988 -1.7628 -0.697899 1.05182
352 7.26121 2.21154 7.13084 -3.11788 0.95485 1.24583
335 6.65248 3.23423 6.2335 -0.576848 -0.415849 0.502623
142 7.94282 3.47138 7.51152 -0.925373 0.494381 1.12145
475 7.38542 2.09137 6.01276 -1.53879 -0.930273 0.999786
124 8.9381 1.68544 7.12652 -0.913685 0.11876 -1.95036
53 7.68749 3.11165 6.44539 -0.941203 1.19145 -1.74472
655 8.51313 2.35326 6.29665 0.494379 0.389621 0.135515
592 8.61061 5.10359 5.9897 0.0802627 -0.548424 0.202745
756 8.87772 3.33169 6.35615 -0.697111 0.384888 -0.396704
789 10.3326 3.25569 5.60303 0.969651 0.384424 0.912796
786 9.39016 1.86141 6.21813 -2.39505 0.750891 -0.0706847
72 10.3899 4.01216 6.48516 0.167208 1.79194 -0.901365
359 0.644188 4.77286 6.12014 0.41595 -0.500619 0.0296784
312 3.10465 4.24524 5.72846 -1.12659 1.94374 0.97143
435 1.8215 3.72946 6.52331 -0.621979 1.3091 -1.27153
314 1.63457 5.00021 6.7504 -0.0656518 0.790422 0.737657
611 2.59835 4.55284 6.71363 1.58875 0.148784 -2.23909
18 9.0141 0.317827 7.99694 -0.318509 1.53919 0.847138
318 3.59463 4.58755 6.65796 -1.71414 -0.0128246 -0.629099
154 2.8659 1.98595 5.39592 -1.43314 -0.850612 -0.575802
775 6.13969 4.33361 6.11491 0.38401 -0.402655 0.752996
279 6.87223 0.19567 6.38109 0.812339 -0.293293 -0.364777
45 5.17883 4.71385 5.93328 0.524564 0.474793 -0.271237
156 4.2658 4.06793 5.58977 -0.438205 -2.11443 0.751498
89 5.1022 4.95697 7.28807 -0.699645 -0.558889 -0.125663
800 6.66365 5.26342 6.26672 1.71481 2.1464 2.21283
344 6.20594 4.93099 7.1157 0.125462 -0.138216 2.33635
294 7.19147 4.0637 6.59459 0.812428 -1.04959 0.866163
813 7.35853 4.87008 7.36278 0.193669 2.50024 0.632178
82 0.534366 2.16409 5.93619 0.565325 0.615617 -0.426305
438 8.16573 4.24134 6.69572 0.715924 -1.78117 2.9965
450 10.5344 4.34802 5.59412 0.0223212 0.29309 -0.431239
788 7.40104 3.58398 5.57251 -1.38782 0.514609 -0.382909
27 9.37504 4.44058 6.43856 -2.11278 -0.338041 -1.02258
675 2.73935 0.114633 5.79815 -0.182298 -0.373434 -0.277208
242 10.6192 0.540302 10.6935 -0.154464 -0.269487 1.09732
369 0.184697 1.85378 8.09233 -0.461224 0.807443 0.390113
750 5.88226 3.68774 10.7019 -0.346607 1.055 0.131817
266 1.22399 2.05466 8.25165 -0.208533 -0.827451 -0.471027
239 1.10359 0.973826 7.91941 -0.452472 0.445634 0.276105
298 2.46458 0.499159 7.86338 1.48691 0.327069 -2.38411
729 2.69416 0.315888 6.89174 0.648655 1.15474 -0.32848
437 3.01446 1.44963 7.16488 0.760841 -0.0955327 0.214854
55 2.70251 2.20099 9.12285 -0.292078 0.458172 0.897851
54 4.77529 0.66172 7.86392 0.566037 -0.511912 -0.997832
824 3.99025 0.991353 7.10081 0.0450936 1.00486 -1.12733
1 4.24786 2.2507 8.22995 1.15308 2.10582 -0.928789
502 6.60765 0.43468 8.95111 0.10115 0.237334 -1.65464
736 6.52798 1.3752 6.44641 1.89908 -0.813678 -0.288535
609 6.08559 0.896466 8.21501 0.106461 -0.0507922 0.333227
686 5.21902 1.13194 8.82014 -0.65714 0.202132 -1.05114
472 5.53483 0.0276332 8.99196 -1.77141 -1.73565 -0.576461
820 5.1835 1.70162 7.47553 0.690551 -0.189725 0.638346
666 7.3046 1.08823 9.14169 -0.51172 0.285859 0.738475
169 7.18549 1.53849 7.89543 -0.468656 1.4307 -0.528798
406 6.10775 2.04561 7.26218 -0.473881 -0.0317674 -0.350849
863 8.67178 0.0997035 6.90156 1.19926 -0.608011 -0.0733381
715 9.30476 1.15105 8.3938 -0.63085 1.86483 0.148072
473 8.29426 1.76141 8.47186 0.502518 1.78816 1.27381
626 10.5371 0.955719 7.12306 0.417714 0.101648 -0.642287
385 10.4908 0.80997 8.57778 0.91304 0.274797 -1.087
854 9.96089 1.70872 7.83277 0.881296 0.207853 0.906877
127 0.763629 1.70953 7.09135 -0.343737 -0.975686 -0.427087
290 0.95729 2.75285 7.44378 -0.164713 1.30565 -1.05555
670 0.452762 2.83497 8.99433 0.640508 -0.350016 -0.824066
769 10.4823 3.71921 8.1457 0.417071 -0.54425 0.351205
517 2.20747 2.04203 7.51864 0.325483 0.367374 0.0499173
673 1.85226 3.36885 7.49856 0.402608 0.0327763 1.5497
391 2.80065 3.1967 8.69124 -1.73275 1.11961 0.520459
320 3.24787 2.50662 7.06097 0.61203 0.832105 0.0378377
803 4.66459 3.27027 7.84774 0.135572 1.60006 -1.9195
551 3.54093 2.99854 8.02729 0.479689 -1.40726 -1.14056
292 3.6849 2.29759 9.02106 0.26778 -0.894774 -0.447627
372 5.71156 2.95371 7.86423 1.70566 1.90873 2.37181
781 6.33148 3.81387 7.31634 0.74096 0.0866687 -0.974817
432 6.38124 2.87356 8.66874 -0.338431 1.06998 -0.648039
483 7.61746 2.58868 8.1509 0.0479783 2.26515 -0.47425
428 7.37661 3.27304 8.94459 0.929228 -1.15711 -0.468659
209 8.33641 2.511 7.29911 0.555402 -0.300293 -0.328867
289 8.33254 2.80225 8.80862 -1.7845 -1.44366 0.229156
388 9.1869 3.28978 7.35113 -0.414431 -0.863149 -1.50889
384 9.96017 2.82242 8.17271 0.347993 0.484546 0.521734
735 9.09917 2.2167 8.08199 0.749527 1.24238 2.21382
170 0.325185 4.71943 7.5192 0.158818 -1.71877 0.0180839
357 0.986277 4.91346 8.7889 0.432453 0.729278 0.830683
779 0.748303 3.69409 8.49386 -1.15021 1.35489 -1.34488
832 3.58268 0.336383 8.24952 -0.189785 0.0539143 1.47299
286 1.32071 4.268 7.75377 -0.149375 -0.307041 1.03734
366 1.56865 3.74072 8.97288 0.0487538 -1.47872 0.631285
276 3.2987 4.85496 7.64589 -1.15685 -0.373984 0.0773251
757 4.1888 4.00633 7.39687 0.0471335 -0.834927 0.100294
208 2.39901 4.27234 7.92542 -0.0457781 0.00709314 0.740216
307 3.25081 4.06377 8.4607 -2.21141 -1.79166 -0.346887
68 2.66424 4.73149 9.04468 -0.664754 -0.741133 0.386397
825 4.50059 4.8432 8.14538 -0.466685 0.401621 -0.808355
581 5.46823 4.38605 7.99507 -0.694663 0.776872 0.111529
305 6.28927 0.0395371 9.95839 0.0680009 -0.3708 2.88908
145 6.51052 4.46888 8.25329 -0.149106 1.99747 0.905263
350 7.83503 4.84863 8.39588 0.957432 -1.63034 -1.53988
7 0.839312 4.72193 10.3244 -1.0565 -0.474043 -0.355872
594 7.52734 4.95446 5.65775 -1.21754 -1.23351 -0.53469
577 8.61389 4.05862 8.49242 0.836113 0.907323 -0.756374
810 10.3491 3.3146 7.25855 0.506151 2.30284 -1.00497
329 8.75541 4.65006 7.54041 0.140354 0.681281 1.17123
680 9.24926 3.33084 9.06844 0.620545 1.31824 0.321459
146 9.73424 4.39837 7.80149 -0.0395505 2.03666 0.00669315
364 10.6755 4.89079 8.61058 -0.935963 -0.528316 0.731433
259 9.72212 4.25238 8.82065 0.662008 -0.619684 0.0901176
21 1.89708 0.427932 9.86714 0.867169 -0.804455 -1.69566
392 0.302855 1.65185 10.416 0.350364 1.18632 1.95901
250 2.19321 0.268142 8.8298 1.01758 -1.25771 -0.0899028
767 1.0302 0.689547 8.94919 -0.106932 0.625717 -1.06771
524 0.165709 1.67541 9.27063 0.54905 0.15198 1.03473
219 1.26063 1.28516 9.7468 -0.256464 -0.884087 -0.83051
763 4.77424 2.40546 5.81068 -0.221337 0.534855 0.798979
295 3.0044 0.717958 9.32463 -1.00232 1.4198 -1.64038
416 3.35583 1.36762 10.2222 -0.376017 -0.685721 1.05279
368 3.43884 1.38879 8.48186 -0.736148 0.169874 0.169305
151 3.71595 0.401927 10.2048 0.915208 -1.26717 -2.6296
221 4.23636 1.08534 9.41817 -1.68028 0.456289 -1.41225
405 5.09995 1.74091 9.79641 -0.218703 0.0998393 -0.387764
430 6.42011 1.05109 9.71519 2.24943 -0.938113 -0.517335
334 4.90565 0.433578 10.0485 1.4401 -0.455145 0.378852
230 6.46452 1.85394 8.5893 -0.441681 -0.4545 -0.576126
504 7.29208 0.478356 10.3423 0.319826 1.24801 -0.431424
411 7.90886 1.30821 9.95193 1.27367 0.991912 -0.207029
408 8.78087 1.32125 9.37608 -1.71571 -0.998539 -0.104853
478 7.54346 2.06438 9.08678 -0.697894 -0.580671 0.511797
51 9.40039 2.09814 10.3895 1.44298 0.554337 3.12474
377 0.10817 0.0204962 9.52804 -0.409965 -0.103436 0.463679
792 9.99515 2.01738 8.88665 0.0597367 -1.68275 1.18718
283 9.87716 0.981696 9.61541 -0.524572 -0.161199 0.404499
654 10.193 1.89615 5.63809 -0.43829 0.512636 -0.780321
482 0.831479 2.56342 9.97685 0.483838 -1.97876 -0.689338
8 2.17559 1.53376 9.71189 -0.665471 -0.490408 -0.222339
177 1.79109 2.87842 9.68667 0.581694 0.405595 1.4601
553 1.07484 3.58823 10.2028 0.258073 2.4008 -0.138836
83 2.77952 2.50342 10.1246 0.30442 0.219914 -1.49406
160 4.39954 2.58084 9.63654 1.43207 1.5122 -0.548023
17 3.89805 3.51184 8.96642 -0.911842 2.18462 -1.26761
383 3.39264 3.34 10.0305 0.75809 -0.602128 -0.767492
42 4.52748 3.58315 9.82472 2.09985 -0.381362 0.811495
134 5.63088 2.21831 10.4808 -0.365386 2.10322 0.352013
382 4.93009 2.99615 8.79149 0.605216 -0.295333 0.474133
390 5.55715 3.243 9.70624 -0.920375 -0.293413 -0.440421
187 5.63652 2.32299 9.12089 0.187543 -0.163261 -0.129963
431 6.72309 2.16837 9.84735 0.5359 2.26031 -0.783643
424 5.96468 3.79253 8.84134 -2.04624 1.55575 1.49286
415 6.62308 3.42927 9.80441 0.703937 1.04098 -1.66836
829 7.86514 2.50573 10.0116 1.10588 0.811158 0.91681
580 9.05456 2.35614 9.38519 1.34172 0.55551 1.05763
393 9.51055 3.65087 9.94893 1.47033 0.61031 -1.67721
442 1.56009 4.41168 5.62343 -1.33269 -0.421053 -0.94376
16 10.4366 2.40291 10.1144 0.125485 -0.328998 1.86278
205 9.41188 3.84102 5.46859 -1.01879 1.2671 0.75736
648 0.0657671 3.48128 10.1991 -0.524346 0.689094 0.560807
445 0.380841 4.27861 9.49909 0.429904 1.44127 -1.41387
682 2.20445 1.10092 5.50175 1.78256 -0.413628 -0.158296
141 2.45088 3.78203 9.5257 -2.91756 0.819727 -1.81482
214 2.63467 3.28161 5.63063 0.0123286 1.392 2.44502
799 1.79679 4.99668 10.1518 -1.66108 0.141486 0.904178
477 2.78608 4.9383 10.2349 -0.719731 -0.8147 2.3709
541 3.66312 4.76829 9.66275 1.65753 -0.977716 -1.56695
347 6.08002 4.97187 9.18469 -0.455229 0.452558 0.452309
300 4.59426 4.48737 10.4851 0.621308 -0.244521 1.35051
561 4.94545 4.58753 9.43174 -0.379048 1.06928 0.70976
100 5.87443 4.27383 9.87517 -0.217468 -1.61178 -0.0613114
33 7.43276 4.0921 9.67258 0.799371 0.118376 -0.053025
659 8.06772 4.69543 10.3933 1.17665 -0.646779 -1.15248
537 8.04452 5.19319 9.56936 0.279007 0.25656 -0.0811574
588 8.47976 3.55135 9.766 -0.908069 0.264807 0.0638948
341 8.82164 4.43237 9.61862 -0.899089 0.230877 0.93771
841 10.4161 3.63368 9.268 0.418298 0.231309 -1.05915
453 10.0713 4.64015 9.74285 -0.172331 2.46846 -1.23609
386 9.23485 0.422497 9.12269 0.0574978 -0.638012 0.0576089
828 0.937884 0.407991 10.3198 0.415693 0.0697808 0.311954
451 7.19422 5.12771 10.6512 -0.666815 0.279597 -0.697375
845 9.11682 0.77992 10.3599 0.334235 -0.275057 0.417568
794 2.32909 5.01011 5.73811 1.03111 -1.02742 2.36523
645 10.3327 5.21426 6.39283 0.747851 -2.08138 0.101996
556 3.73092 2.20305 10.6741 -1.29279 2.28127 -1.11347
336 8.4343 4.05896 5.44344 -0.518618 0.724558 1.33678
718 9.1309 1.4371 5.38827 0.485059 -0.455853 0.798664
842 2.38529 0.00901104 10.7153 -0.704633 0.177697 0.635693
162 10.676 5.0424 10.6829 -0.557793 0.367711 -2.38089
606 2.60581 4.06228 10.7107 -0.265378 -0.110623 -1.35064
427 1.06209 6.3422 0.882965 -1.72331 -1.56009 0.748685
395 4.60823 10.5492 0.387496 1.32348 -2.21986 -1.33289
90 0.239914 5.70583 1.85149 0.0863207 -1.26696 0.434338
694 1.69026 5.3814 1.34185 -0.894261 -3.51903 0.735355
413 1.82068 6.80309 0.242497 0.200134 0.0633172 -0.424515
232 2.55615 7.30265 1.63076 0.990083 0.0575909 1.01835
461 1.31819 10.4132 0.435442 0.516873 1.62119 -1.03765
665 4.44305 5.67704 1.59404 0.877569 0.363935 0.884712
793 2.95774 6.48474 0.41502 -0.739923 -2.54731 1.64336
43 3.43234 6.6183 1.37555 0.889822 1.17933 1.52839
443 5.20072 6.57979 1.58922 -0.175385 2.56456 -1.26165
66 6.40814 5.64677 1.3217 0.932928 -0.230702 0.237948
380 5.98821 6.22244 0.520795 -0.689087 -1.8839 0.195933
470 4.73575 5.98367 0.647462 -1.51169 -1.02903 -0.888581
812 7.22977 6.16281 0.606285 -2.66614 0.284327 0.23235
620 7.49717 5.99023 1.50736 0.875494 -0.398713 0.278598
572 7.62452 7.2174 1.34905 0.119702 0.364842 0.0466202
446 3.08137 9.4446 0.496896 -1.97075 1.04979 -0.0909603
409 8.29668 6.42 0.77028 0.893392 0.391346 -1.3887
545 9.59863 6.24245 0.815184 -2.05207 -0.0149726 -1.02858
833 10.4423 6.84092 0.146723 0.101265 0.79956 -1.28649
101 0.625179 8.7374 0.780999 -1.32938 -0.86581 -1.88832
91 10.4764 7.9888 0.565841 -0.659189 1.24542 -0.449529
109 1.92619 8.98855 1.36674 -0.459361 -0.0639265 0.377628
463 0.762543 7.64763 1.01759 -1.5886 0.257721 0.275376
574 1.8278 7.63347 0.749895 0.891626 -1.13681 -0.628329
86 4.29094 7.61847 0.262021 -0.546269 -1.49521 -1.61984
467 2.66865 8.27784 1.27193 0.135609 -0.601733 0.835267
629 3.44945 7.85669 2.08278 0.956754 -0.525126 -1.6209
120 2.31135 6.91512 5.18295 1.05888 -2.10555 0.254249
460 5.60776 7.38335 0.704624 -0.556283 0.466917 -0.363464
730 4.97271 8.28757 0.764347 1.22789 1.5409 -0.798786
534 4.40367 7.40326 1.47248 0.173232 0.0846876 -0.360172
240 5.86797 8.09333 1.48684 0.678459 0.934336 -1.38149
784 6.84262 8.39789 1.54262 0.651066 0.443794 0.715487
690 6.30766 9.38533 1.01233 1.16493 1.3434 0.0427057
150 8.60111 8.80829 0.795333 1.21235 -0.948213 -0.579273
719 2.11747 10.5881 3.82426 -0.713202 -0.0870714 -1.40999
172 8.62867 7.4433 1.37685 0.939969 -0.593443 0.313392
744 9.52606 8.35702 1.05575 1.18685 0.152965 -0.885083
59 6.96999 9.93587 4.37799 -0.165551 -1.05422 -0.932164
560 10.3395 9.14412 0.561852 -0.0101599 1.2462 -2.28668
222 9.46701 7.27905 0.659701 -1.58788 0.0873914 -0.297854
387 10.4258 9.86336 1.46069 -0.535105 -0.113144 0.516513
246 0.523317 9.80546 0.697024 0.741137 -1.1069 1.44558
498 1.48089 10.4119 1.58643 0.252364 1.51231 0.820811
78 2.3145 10.1319 1.05281 0.671727 0.951207 0.0579126
739 1.57382 8.59273 0.411844 -0.347736 -1.87617 0.331909
9 8.4119 10.2882 0.0339277 0.361339 -0.804729 0.908658
533 3.18448 10.4846 0.718308 -0.322827 0.122391 0.12247
663 4.61665 9.32733 0.824038 0.297963 -1.88482 0.487801
267 10.4408 10.3473 3.70671 0.505021 1.01822 1.18127
157 4.22443 10.2091 1.3586 -0.171788 0.704435 0.881334
852 5.41652 9.63848 1.64128 1.1964 -1.21315 0.353503
563 6.46372 10.1053 0.0553243 0.699272 -0.887972 -1.48943
523 8.24767 8.71864 3.96778 0.55358 1.20256 1.18211
374 7.27899 10.2636 0.725789 0.793215 0.0553079 -0.506519
717 6.61659 9.60257 1.87565 0.725207 -0.163825 1.594
520 10.2352 9.94507 4.91686 -0.633657 0.422623 -1.40938
576 8.116 9.85025 4.3538 1.07261 -1.65322 -0.762397
831 7.53029 9.22774 1.33682 -0.675284 -0.345396 0.964762
740 9.43671 9.76448 0.166815 0.426717 1.06752 1.19082
814 9.11966 6.94416 4.92194 0.53992 1.22808 1.04552
343 8.52026 10.0932 1.10781 -1.83398 1.78359 -0.26851
486 9.65036 10.6625 1.59827 -1.65562 0.105155 0.432202
458 9.44012 9.59899 1.23443 -2.55314 -0.43956 -0.720449
492 10.1477 10.4269 0.375538 2.16517 0.230737 -0.437665
168 10.2719 8.91865 1.77279 -1.79644 -0.84402 -0.42888
840 10.4032 6.32187 1.35908 -1.17632 -1.86743 0.385079
532 7.01178 10.6883 5.32683 -0.731674 0.296974 -0.509357
846 1.20392 6.00585 2.12571 2.46308 0.245173 1.10653
752 2.41025 6.24032 3.95907 1.99173 1.49248 1.37289
62 2.22548 6.25377 2.81236 0.386073 0.726601 -0.96639
12 4.33608 7.05858 2.56576 1.60587 0.874591 1.46966
423 5.53709 9.19512 0.140892 0.302657 0.357476 -0.5058
459 5.34121 7.45848 2.9719 1.18842 1.26195 -0.123415
19 5.70054 6.61961 4.05004 0.116911 0.555123 0.157977
858 5.20961 6.26325 2.80924 -0.965506 1.65271 0.401528
351 6.36075 6.37123 2.01778 -0.486193 -0.0248168 1.08421
182 6.99932 5.41099 2.36225 -0.840387 -2.27115 -0.556182
579 6.36461 5.91284 3.16326 -0.404812 -2.0709 -1.50693
47 7.08367 7.44501 0.419549 0.484194 -0.362651 0.426642
598 7.31934 6.24799 2.91697 1.21659 -1.32024 0.12529
271 8.84178 6.28894 1.64528 -0.578758 0.838663 2.32759
418 8.78057 5.6894 2.61573 1.02412 -1.0281 -0.949761
847 0.13984 6.72643 2.58581 1.80139 0.732061 1.24633
822 9.5549 7.15895 1.74141 0.370278 1.04359 -0.35689
506 10.3998 6.88226 3.71032 0.830534 1.14188 0.583811
508 9.3695 7.35038 3.32033 -0.609772 0.875764 -0.526341
809 10.0366 5.54066 2.97906 0.924891 -0.278413 0.677234
531 1.05107 6.94416 1.77698 -1.0098 -0.861256 -0.810434
434 0.443723 7.77157 2.74661 -0.476508 0.6794 1.20685
448 0.445811 8.3784 1.76226 1.02439 1.17318 -1.15331
98 0.897917 8.59412 3.26037 1.0622 0.199169 -1.1783
765 1.49088 8.76441 2.3159 -1.79255 0.697781 -1.1679
529 1.86321 7.60027 2.75987 0.868064 -1.21657 1.21718
778 1.64531 8.00207 1.69776 -0.0458167 -0.659389 -1.14856
489 3.77084 8.53367 1.17121 0.853614 -0.0724244 -0.125159
29 3.55004 8.8588 2.4077 -1.49086 -2.51308 -0.354781
129 3.6849 7.80124 3.05302 -1.19297 1.27874 0.658656
105 6.69802 7.48321 2.34812 1.69924 1.53056 -0.127011
280 6.70339 6.97117 3.62646 -0.389626 -0.894343 0.259685
510 4.88508 8.45052 1.89071 -1.18646 0.389474 -1.32461
148 7.29962 8.2107 2.43014 -0.0655389 1.05199 0.196024
485 6.46148 8.59974 3.05897 -1.71088 2.16445 -0.685963