ITEM: TIMESTEP
50560
ITEM: NUMBER OF ATOMS
864
ITEM: BOX BOUNDS pp pp pp
0.0000000000000000e+00 1.0726842421158810e+01
0.0000000000000000e+00 1.0726842421158810e+01
0.0000000000000000e+00 1.0726842421158810e+01
ITEM: ATOMS id x y z vx vy vz
242 1.1726 1.27533 1.54444 -0.249726 0.0780152 -0.74386
262 0.845767 0.321547 1.14596 -0.600466 0.515397 -1.50706
38 1.01567 3.82073 0.221433 -1.46363 -0.274801 1.22008
482 0.270966 1.02714 0.372462 -1.04809 -0.62052 -1.94296
450 0.431104 4.49478 5.03566 -0.426852 -0.783249 -0.90117
828 2.06606 0.567906 1.64406 -1.37427 -0.310015 1.99448
195 1.62958 0.860582 0.682012 -0.116606 -1.83757 -0.342366
842 2.68144 0.522306 0.470393 0.843602 -1.64803 0.0617254
461 3.52966 1.55142 0.49034 0.336293 1.56952 0.169573
395 4.16301 0.586194 0.940629 -0.682993 0.0841813 0.436765
446 3.12495 0.400101 1.52453 0.089436 -0.35277 -0.108093
405 4.7075 1.50387 1.18518 -0.964786 0.626882 0.784629
774 6.40241 1.24599 0.687195 -0.235725 0.381507 -0.447485
684 7.00789 4.92296 4.14405 -0.0812137 -1.56657 3.16415
587 4.94901 0.457615 1.5065 -0.893981 -0.129749 -0.0631713
468 8.45266 4.88094 0.703361 1.41917 -0.796311 -0.453872
423 6.57091 0.391822 0.113227 -0.852123 0.298667 -0.274039
394 7.46374 0.661361 1.38888 0.613711 1.45399 0.496403
160 7.23944 2.29659 0.195189 1.4702 0.181785 -0.0310524
379 7.10619 1.66225 1.30697 0.405032 0.466531 -1.4026
602 7.30743 1.17552 0.176128 -0.185535 -0.80623 -0.0497105
104 9.48396 1.64581 0.961142 1.71508 2.06874 -0.936466
141 1.53816 1.94331 0.162613 2.38758 0.352238 -0.0823256
399 10.103 0.0633452 3.06457 -0.836913 0.0815411 -1.38457
492 10.0463 0.177133 1.1222 -0.167479 -2.78191 -1.44279
740 8.29307 0.00360228 1.93328 1.13875 -0.421033 2.67622
374 8.89634 0.798705 0.452906 -0.936261 1.32649 -0.551678
466 0.418803 1.85878 0.967835 -1.86911 -1.37666 -0.24334
559 1.14566 2.62214 0.894647 0.379492 0.0918811 -0.19931
313 10.5724 2.74024 1.1639 0.0243583 -1.39581 1.11511
24 2.53029 5.3587 3.47169 -0.281256 -0.406773 -0.798654
570 1.98544 1.9978 1.12302 0.510921 -1.73314 -0.276927
416 2.52988 2.297 0.0887511 -0.376399 0.388165 -0.876514
396 2.62024 2.7098 1.7786 -2.15901 -0.68672 0.699959
674 2.79289 3.17908 0.838015 1.58974 0.608853 0.856555
669 9.31687 4.80073 4.19798 -0.230429 2.68107 0.0123466
274 3.71453 2.22444 1.31863 -0.222119 -1.67257 1.20692
100 3.90563 3.18157 0.963067 -0.889798 -0.971489 -0.924383
206 4.45516 2.25148 0.527554 0.822241 0.818903 1.62046
139 5.23638 2.9335 2.11919 1.15547 1.2775 -0.476145
138 5.57426 2.54401 0.856263 -1.30086 0.157736 0.57666
312 4.1081 4.63037 4.9141 -0.604911 -1.74126 -0.696093
382 6.85144 2.94349 1.0208 -1.0122 -0.264274 0.425895
231 6.40195 2.39999 1.70438 1.1023 0.995523 0.23907
624 7.73654 2.6019 0.968535 -0.73953 0.00971312 0.423139
97 8.104 3.40862 0.31088 0.801906 0.669446 1.33393
235 8.21886 3.24481 1.77894 0.986875 2.04348 -0.764227
41 8.67374 2.50652 0.5175 0.529309 -1.03665 -0.707429
595 9.11405 3.20934 1.28313 -0.635141 0.210093 -0.108955
132 10.6401 3.36252 0.205322 0.134994 -1.33762 0.418114
535 1.43202 4.38498 1.00745 0.872179 -0.58517 -0.249549
444 10.3284 3.49977 3.80584 -0.467332 -0.211607 -0.167604
823 0.755996 5.19165 0.460275 -0.186317 -0.465191 0.138073
546 1.96229 3.39126 1.30963 -0.201659 0.347832 0.315005
586 2.43685 4.18388 0.304803 -0.46797 -1.08308 -0.0720434
664 2.99847 5.06005 1.5966 0.745421 0.591213 -0.722802
60 3.4139 3.48581 0.13116 0.013214 0.00637758 -1.13287
618 3.65775 4.13501 1.44686 -0.788762 0.874549 0.753126
397 3.14817 5.06055 0.50384 0.964935 -1.13545 -0.271324
380 4.52054 3.75463 0.158748 -0.927845 -0.546259 -1.21038
300 5.21364 3.56932 0.870261 -0.691927 -0.0603568 -0.7088
620 4.43717 4.87732 0.885863 -0.73951 -0.361061 0.453962
210 5.99235 4.77092 0.317754 -0.861981 -0.705231 -1.02553
112 5.95423 4.93371 1.44562 -0.112131 -0.214232 0.719151
5 7.6456 4.12146 0.923342 -1.78638 -0.560926 0.295795
282 6.37902 4.0136 2.09117 -0.141451 -1.01087 -0.958783
66 6.25874 3.7546 0.665905 -0.287045 -1.98166 -0.596684
572 7.20189 5.26069 0.1767 -0.821431 0.0743688 -0.0916901
530 9.43084 4.73688 0.868611 0.0351 -1.11569 0.385146
278 8.5995 4.17778 1.51237 0.0678024 -1.78278 0.364015
322 4.75156 2.56543 5.33881 2.13787 -0.0518206 1.09132
176 10.622 5.25634 1.26993 1.42279 -0.512224 0.791093
99 9.54189 3.79566 0.454978 0.406903 1.42247 -1.12499
639 10.1837 4.06161 1.38648 1.62231 -0.322455 -0.208582
121 1.83543 0.724666 3.71424 -0.00139031 0.00726135 -0.486197
549 1.42888 0.846683 2.66107 1.03189 0.327847 -1.19476
113 10.5178 0.98754 1.72156 -1.0244 -0.69853 -0.409867
161 2.46707 0.745826 2.85251 1.33785 -0.0900313 -0.469753
57 3.2896 1.53629 3.93752 0.991551 -1.19794 2.25677
197 5.2683 0.0725292 0.529251 0.982444 0.327296 2.11477
371 3.46089 1.38721 2.06277 1.22781 -0.300066 -0.518927
109 4.35603 1.00683 2.36531 -1.60595 -0.697816 -0.564491
297 4.40849 1.46645 3.48846 1.11942 -1.57886 0.826929
801 3.59316 0.726115 3.2805 -0.249419 2.7082 -0.435529
296 5.69794 1.71064 1.71781 -1.75796 0.0322864 0.334894
633 6.80662 3.89735 3.56551 -1.32103 -1.05315 -0.978404
614 6.60402 0.00773017 1.99648 1.73574 -1.69929 -0.948537
709 5.43794 1.05152 2.86267 1.82515 0.524977 -0.518081
717 4.77872 1.94141 2.50433 -1.44339 1.09951 -0.963926
119 6.72587 1.02314 2.22927 0.808826 -1.37072 0.0486633
106 7.51393 0.293448 2.64332 0.829039 -1.42209 0.229062
521 6.80507 1.70724 3.56272 -0.773741 -1.13447 0.0470554
77 8.29785 1.10133 2.16347 -1.37818 0.946294 1.00768
417 8.98634 0.37712 2.81077 2.09858 -0.59631 -0.569231
257 7.87629 1.6486 3.05132 1.66641 0.465308 0.176848
550 7.47031 0.829891 3.68406 -1.23092 1.32548 0.211053
224 0.233969 0.744015 2.81398 0.88029 1.53859 -0.9229
123 10.4601 1.78473 3.59749 -0.140255 0.341286 1.48336
465 9.46564 0.956331 1.99624 0.653479 -0.521741 0.387332
236 9.91569 1.17616 2.99898 -0.09578 -0.0749189 0.554743
252 0.561548 1.85748 2.83587 -0.0913602 1.12502 -0.217097
741 1.36368 2.25089 2.02383 -0.633514 2.23981 -0.194917
131 0.679324 2.9612 2.67301 0.801707 -0.996901 -0.348941
84 2.2282 1.60333 2.16864 0.786987 -0.311175 1.062
103 1.79213 1.84124 3.20529 0.746408 -0.409661 0.631577
630 2.77249 2.29821 2.88958 1.36546 0.925634 1.0798
243 2.14264 3.1942 2.57499 0.486284 1.39726 -1.64508
179 2.82645 3.26129 3.54462 0.398733 0.643505 1.43147
776 4.00662 3.63316 3.78293 1.34777 -0.252649 -0.64269
665 3.27145 3.31467 2.26924 0.401472 -0.396807 -0.393858
480 3.84524 2.41447 2.45894 0.747197 1.3228 0.120863
188 4.263 3.38436 2.01439 0.25959 -0.316585 0.72009
216 6.2704 3.05017 2.46295 -0.14263 -1.53818 0.790811
389 5.93657 2.01653 2.72732 0.135635 -0.602566 1.12244
26 6.61207 2.68464 3.42262 -1.23825 -1.02949 -0.525679
787 7.18156 2.34846 2.50269 0.828988 0.599462 -1.67607
117 8.20543 1.97717 1.84441 -0.92394 0.388 -0.337969
191 8.00752 3.91018 3.55585 0.688006 0.752728 -0.734192
519 8.47775 3.0542 3.01077 -0.636039 -0.940979 2.42537
241 7.72963 2.62411 3.57089 1.63616 -0.437283 0.130508
547 10.2916 1.88916 2.3329 1.20005 -0.148384 0.984042
281 10.1302 2.81108 3.01914 -0.796909 0.162396 0.88793
36 9.06292 2.20064 2.32453 0.735768 -0.0571066 -1.51578
440 10.5594 3.24004 2.01745 -1.08648 -0.42462 0.724778
809 0.139749 4.42807 3.58521 -0.657362 0.235153 0.578711
65 0.839678 4.82274 2.66261 0.164338 0.554728 -0.427527
49 1.95647 4.21343 1.99066 -1.50761 0.391274 -1.0102
284 2.13337 5.1967 2.50496 -0.697979 1.08786 -0.19615
61 2.29452 4.31196 3.09033 -1.38477 1.33887 -2.45336
657 3.99491 4.26963 2.52586 0.310071 -0.788122 0.657082
770 3.22866 5.12387 2.8387 0.154439 1.66143 0.433452
610 5.09264 3.72746 2.69242 -0.314908 -0.648771 -0.596796
579 4.36512 5.19008 2.54528 -0.401932 1.69241 0.963112
182 4.8534 4.71561 3.38998 -0.0614989 0.973615 -0.28249
452 4.98579 4.40104 1.7844 -1.03078 0.845879 1.77868
46 5.84396 4.3254 2.90052 -3.08849 -0.968555 0.766285
201 7.51141 3.41923 2.69567 -1.22342 0.357192 3.20294
184 6.14873 5.32434 2.42349 -0.643622 0.601787 1.2368
596 6.98493 4.97816 2.82192 0.915582 0.386588 0.136658
695 9.02517 4.85045 3.14987 -0.665184 0.234407 0.988061
120 3.84969 5.25817 3.74496 0.903538 1.21112 0.346084
526 9.20047 3.90493 4.68006 1.81148 0.161265 -0.113304
527 8.39949 4.31848 2.5063 1.17826 -0.384793 0.963159
200 9.43859 4.56218 2.00363 1.24251 1.52856 1.45373
822 8.75547 5.32892 1.64236 -0.608306 -1.57079 0.278793
754 10.547 4.33708 2.59513 0.0200462 -0.785866 0.326766
555 9.4098 3.21344 2.29161 -0.54511 -0.855837 0.455067
621 10.0832 5.11774 3.55339 1.09759 0.655329 -1.02979
249 0.466956 0.82015 5.30743 0.321387 -0.678801 0.613819
439 1.03758 0.399618 4.3844 -0.836804 -1.13295 0.184903
615 0.909192 0.172931 3.2358 2.25527 0.843269 1.41394
327 8.18049 4.89961 4.40261 -0.771177 1.21522 -0.241747
498 2.78347 0.463197 4.34721 1.58338 0.591727 0.76114
265 1.95086 0.268245 4.81424 0.205883 -0.186322 -1.14852
503 2.14227 1.34273 4.62712 0.0291797 -0.0352756 0.0838906
543 7.55112 5.05317 1.77296 -0.387201 0.249354 0.961058
494 3.99883 0.942369 4.45848 1.0904 -0.0749999 -0.370583
682 3.57208 0.130566 5.216 -0.225562 0.391381 -1.11304
198 4.63408 0.500137 3.8516 0.376431 0.122476 0.73151
87 4.91257 1.51393 4.86276 0.404075 -0.584189 -0.361087
688 5.80346 0.851367 4.46205 2.41082 0.228275 -0.840102
319 5.23925 0.0753433 4.74785 1.32156 0.584354 1.23063
152 3.04119 1.32542 5.02682 -1.97228 -0.259813 -0.480487
497 10.6478 0.258275 4.18675 2.05634 0.356484 -2.65318
115 6.88808 1.07141 4.60805 0.841553 -0.88229 -0.415626
237 8.97313 3.84348 3.67116 -0.0942679 -0.367034 -1.10925
645 10.2859 4.34036 4.49751 -0.574685 -0.951212 0.0200635
185 8.79539 0.851553 4.61429 -0.41364 -0.132486 -0.546832
699 7.88095 0.294235 4.5325 -0.499814 1.82382 -0.399157
255 9.03706 1.68893 3.8035 -0.545394 -0.924266 -0.275014
2 7.87146 1.61007 4.26583 0.702343 -1.84863 -0.957532
655 8.753 1.86361 4.90602 -0.907571 1.13046 0.813106
118 9.78179 0.768501 4.18624 -0.63982 -0.465814 0.665737
436 0.152521 2.61113 3.96401 -1.18852 0.592805 2.03376
429 1.26639 2.25828 4.12119 0.963023 0.639555 1.24894
708 1.40518 3.29065 3.40678 -1.27089 0.685675 0.103881
85 0.12565 1.49756 4.60347 -0.26619 -1.50364 -0.435602
189 2.66924 2.44746 4.27215 -0.352557 0.331518 1.51885
381 1.8978 2.84827 4.83093 1.36364 0.487394 1.19649
34 3.37905 3.45669 4.65719 1.84408 0.257664 1.58811
273 3.66259 2.49149 3.67595 0.221304 -0.0433535 -1.29601
365 3.80331 2.14471 4.75556 -1.24536 -0.961735 0.0758412
154 4.46694 3.28903 4.57869 0.109736 -0.474446 0.880345
102 5.02296 2.80801 3.22919 -1.31213 -0.143092 -0.693872
157 4.84226 2.26491 4.14915 1.41235 1.48276 0.191421
181 5.80944 2.41914 4.99505 -2.01868 1.0472 -0.186157
594 6.34994 3.30092 4.32389 -0.863454 0.378286 1.27325
149 5.74327 1.7903 3.87809 -1.11348 0.140989 1.25506
348 7.0301 2.35413 4.56655 -0.728353 0.563932 0.58726
335 7.33494 3.26116 4.20741 0.196524 1.00701 -1.35113
92 8.40991 3.05414 4.37624 -2.01459 -0.794613 1.34497
202 9.84916 1.75679 4.85902 1.79484 -2.3594 0.33505
74 9.37298 2.71772 4.02275 -0.899769 1.6386 0.130702
158 10.2146 3.08936 4.76264 -1.75009 -0.000250714 -0.27912
76 9.05989 2.90286 5.21096 -1.56942 0.179464 0.0952977
192 0.933358 2.14812 5.04757 -1.23493 -1.37513 0.172602
178 1.2499 4.45821 3.6284 0.672924 0.591078 -0.435235
248 0.88849 3.15912 4.56733 -1.35379 -0.520272 -0.702595
752 1.45987 4.53283 4.62196 0.610354 -0.781589 0.102593
442 2.02058 3.76058 4.13276 -0.143715 -0.870938 0.497376
13 5.84364 4.44757 4.57084 -1.86274 0.475707 0.0892791
554 6.19653 0.0804543 3.11674 0.175247 -0.509216 -0.497049
82 2.69575 4.42701 5.00291 -0.126178 -0.637497 0.877564
426 3.00765 5.24905 4.48002 -0.41685 0.843631 1.09798
422 3.35855 4.33938 3.54622 -0.449979 -0.342827 0.246464
16 9.8183 2.78934 0.389431 -1.42379 -0.803705 -0.237922
858 4.85961 5.32008 4.34894 -0.0135041 -0.750915 -0.242458
354 8.93538 5.11279 5.23681 0.168136 1.38644 0.0533753
672 5.47635 3.57608 5.16623 0.540211 -0.479454 -0.0964143
204 5.54452 3.73884 3.9252 0.941728 -1.90089 -1.1385
366 10.3973 5.04992 0.131594 1.45814 -0.514932 2.19639
626 8.74709 0.0568072 5.3017 -0.331274 0.510337 -0.0140333
565 7.45242 1.75058 5.27936 0.651227 -0.691594 -1.05388
479 1.74186 3.77407 5.33919 2.63987 1.41875 -1.56097
247 0.776113 1.42705 6.18444 -0.21856 -0.790341 -0.748472
55 0.530362 0.980548 7.23042 -1.94471 -1.89251 -0.606682
294 7.49445 4.9683 5.4935 1.12229 0.85043 -0.112099
228 2.47655 0.379188 6.93771 -1.43199 -0.737216 1.66623
729 1.61189 1.19458 6.97436 -1.16189 0.139588 -0.681038
675 1.86906 1.48501 5.65036 -1.07456 0.41811 -2.00748
165 1.20185 0.0414378 5.63741 0.509157 -0.170907 2.00781
517 3.66967 1.14518 6.49085 0.0839906 -0.275753 -0.168389
843 5.24549 0.759691 5.56101 -0.0309982 0.496063 0.817327
751 5.5788 1.89386 5.86857 -1.03435 -0.625195 -0.938536
212 5.88774 0.871631 6.72367 -1.30049 1.13393 0.979712
301 4.75359 0.918259 6.47753 -0.452341 -1.38211 0.495823
706 6.85428 0.586977 6.65347 -0.423135 -0.449589 -0.41029
414 8.4144 1.44942 10.5647 -0.410221 -0.584474 -0.329919
715 8.3346 0.827396 5.69899 -0.320204 1.8237 -0.0620577
837 8.53756 1.72573 6.67793 1.95235 0.642085 0.325647
818 0.040536 0.492318 6.35446 2.28496 -1.21318 0.648555
25 9.24345 0.696643 6.38762 -0.42962 -0.765295 0.0855667
116 6.42931 1.01961 5.717 1.27322 -0.220478 0.274797
705 10.2072 1.72688 6.49495 0.444199 0.630839 0.761172
330 0.177013 2.50214 5.96107 0.814468 0.135809 0.333337
277 0.163 2.15139 7.25294 -1.68285 -0.851435 1.03101
69 1.06839 2.40088 6.56022 -1.0147 0.666411 -1.85098
37 10.6558 3.37923 6.70924 -0.0311349 0.100325 0.539782
264 6.89239 4.06152 10.6248 -0.080546 0.589988 -1.71596
10 0.904262 3.12538 5.67347 1.11414 1.20044 -1.62739
79 2.01237 2.01384 6.43469 -1.26068 1.59285 -1.36343
275 2.48219 3.10936 5.79186 0.852918 -0.00703966 0.951745
223 2.93688 2.95785 6.70098 1.83908 -1.70342 -0.975983
19 4.2174 1.9646 6.21202 0.291677 -0.713812 -0.630118
320 3.86301 2.86399 5.8311 0.426989 1.10682 0.559352
288 3.83695 2.4574 7.14089 -0.96557 1.05605 1.58026
250 3.15382 1.96073 5.93893 0.302833 -0.0895382 -1.52179
824 4.79751 2.95983 6.43345 -1.43265 0.471439 -1.68413
48 0.647576 5.02911 10.1059 -0.535833 -0.655684 -1.3288
124 6.48195 2.03617 6.6773 1.72338 -0.561115 -1.3639
573 6.57493 3.13296 5.62951 1.72952 -1.25843 -0.172028
718 7.67843 2.36236 6.50256 -1.91615 -0.108278 -0.413962
807 9.03895 2.68752 6.30743 -0.471609 -1.5422 -1.58036
721 8.00137 2.68628 5.45264 1.48808 0.654991 0.0681168
239 9.34787 1.59148 5.74857 -1.54553 -0.524387 -0.160629
127 9.91545 2.42765 5.68791 0.0748918 -0.67154 -0.261795
759 0.688435 3.99072 6.38554 -0.321431 -0.526423 0.492372
310 10.685 3.6784 5.58603 1.93483 0.626682 0.47644
640 5.80399 5.1461 7.55759 -1.58365 -0.704829 0.699985
592 0.958019 5.11496 6.67487 0.204417 -1.17147 0.847751
541 5.21182 3.06165 10.5499 -0.209414 0.666793 0.78165
359 1.94202 3.99701 6.43574 -1.68719 1.13735 0.52077
794 1.54671 4.73008 5.79511 -1.03963 0.564675 -1.10074
611 2.73152 5.15858 6.88065 -1.49539 0.954252 2.3066
352 4.68333 3.99741 5.72364 1.70849 0.644397 1.09746
318 2.93753 4.08366 6.59372 0.114348 -0.201741 0.365024
45 3.18725 4.88481 5.77256 0.856584 -0.94425 -0.135193
647 3.88267 4.57775 6.51367 0.0824432 -0.202276 -0.245842
409 6.71437 5.34276 9.94737 -0.938273 0.870007 0.727299
512 4.11331 3.61172 6.61158 -0.438391 -0.543387 -1.11262
376 5.74248 3.60083 6.78237 1.20589 1.44102 -0.972047
781 5.61892 4.76392 6.64445 -0.584726 0.497801 1.19281
763 6.48828 4.29199 5.52236 0.452085 -0.271018 -0.394287
145 6.54023 4.97769 6.31496 -0.0199167 -1.15356 -0.674436
438 7.61689 3.77285 5.43554 1.02776 -1.24083 -0.999073
142 7.07884 4.07741 6.423 -1.40701 0.502575 0.513273
786 8.08932 3.55483 6.41884 -0.748934 0.237482 -0.398014
27 8.10588 4.54864 6.18258 0.273846 1.59642 0.926757
388 8.70557 4.5882 7.44475 -0.515198 -1.33249 0.252538
205 8.82153 4.0356 5.63978 0.751439 -1.55004 -2.30683
737 9.12457 4.89473 6.31709 0.0735811 -1.04932 0.253914
577 8.899 3.48086 7.12116 0.462131 -0.744408 3.13666
653 10.5224 4.46231 6.39122 -0.165813 0.447476 -0.965232
220 9.65784 3.5294 6.29762 -1.98827 -0.249699 0.563388
404 0.879143 0.0967451 8.48044 0.237596 -1.27384 -1.66456
806 1.95411 0.82156 7.89784 1.67592 0.438895 -0.48936
238 10.2148 1.1024 7.47589 -1.14686 0.337127 -1.04511
628 0.469808 1.27474 8.37117 0.346333 -0.770873 -0.100816
551 2.88761 1.34109 7.95665 0.67325 1.72759 -0.69378
219 2.40236 1.94768 7.31917 -0.474532 -0.310323 -1.52529
391 3.97048 0.369442 7.13 0.452665 -0.0904132 -0.506335
701 3.88518 0.532526 8.23821 -0.560653 -0.978883 -0.347824
475 5.315 2.1506 6.72535 0.576378 0.407911 -1.73616
1 4.9873 1.15649 7.55907 -0.387926 0.602546 -1.13196
563 6.30134 1.29777 7.48855 -0.335638 -0.837576 0.177568
469 7.69643 0.665199 8.64279 -0.429728 0.889941 1.66715
641 6.33569 1.28483 8.58475 -2.49437 -0.752492 1.29825
686 6.27971 0.291845 8.55811 -0.725724 -3.68573 0.133971
18 7.13126 0.482784 7.68945 0.97157 0.0724292 0.0886823
472 8.17014 0.787854 6.95814 -0.380063 -0.845751 -1.15422
854 9.32329 1.78931 7.40566 0.571117 0.790897 -0.225568
553 9.72077 3.51485 10.1891 -0.233964 0.457113 -0.829093
28 8.9244 0.69679 8.772 0.236805 -1.57586 1.00579
332 9.28913 0.644318 7.73222 -0.675398 -0.0774288 2.04159
386 10.2172 0.833225 8.55029 0.792133 -0.194081 -0.88265
290 0.480127 2.38546 8.68463 -1.43856 -0.239556 -0.952926
171 1.51587 1.98652 8.36387 1.62092 -0.435986 0.597466
244 2.97051 2.92779 8.0335 1.28645 -1.12741 1.58302
316 1.84631 3.01082 8.15534 0.205046 0.155194 -1.37704
367 1.41553 3.1892 7.29344 -0.618006 1.74463 1.53514
266 1.51335 1.45304 9.41616 -0.44094 -0.158168 0.34881
514 3.57859 1.7293 9.17067 0.90094 0.975379 -0.921261
337 4.04813 3.20904 8.03249 0.734 -1.2556 -0.803339
832 3.75656 2.8086 9.0018 -1.7465 -0.713873 -0.605575
151 3.98694 1.56519 7.52094 -1.99702 -2.50816 -0.379411
15 5.46134 1.93634 8.59158 -1.45132 -1.24114 0.449483
432 4.86869 2.4235 7.73523 -1.80201 -0.317582 2.02538
325 4.33267 2.03411 8.73293 -0.10993 -0.827721 -0.347887
209 6.6201 2.46777 8.10361 -2.00467 0.960333 0.606606
169 6.68792 3.00928 6.83382 -1.64629 0.893349 -1.02955
134 5.59172 3.2799 7.80252 0.351758 0.648885 -0.665515
735 7.39806 1.48004 6.89149 -0.0774591 -0.421198 0.819837
736 7.35942 1.69989 7.88447 -0.572269 1.02333 -0.995066
362 8.03674 3.00844 7.42638 0.362479 -2.6266 -0.466362
408 8.26108 1.76117 8.31263 -0.109552 0.0721433 0.196495
261 10.4171 1.98229 8.15034 -1.09414 0.00455732 0.0435013
473 9.09824 2.66713 8.12487 -1.47578 0.608115 0.0953374
631 10.3198 3.11888 8.48781 0.344825 -1.14501 -1.37086
369 9.76244 2.7531 7.08929 1.23933 0.626751 -0.14613
170 0.952257 3.61284 8.55684 -1.69166 0.0204055 0.744407
72 1.51786 4.49587 7.29649 0.438825 -2.64911 -0.313968
584 2.1414 5.3322 7.96449 -0.722291 1.13785 0.0996025
599 2.52896 3.7652 7.55436 0.230807 0.600817 -0.109162
673 2.0205 4.38246 8.25518 -0.783286 -0.372326 -0.200731
214 3.34463 3.76435 8.62135 0.61098 2.45632 0.747755
383 3.36758 5.20373 8.86888 0.483582 1.98715 1.57943
727 4.4639 3.98592 8.48688 2.61069 -0.552477 0.218229
94 4.55398 5.17998 8.09154 1.00537 1.41829 0.79125
581 4.75211 4.18389 7.40819 0.245679 -0.114972 -0.233928
561 5.64495 4.29072 8.59325 1.08649 -0.0731694 0.234759
89 6.66027 4.4894 7.28518 1.21345 2.00285 -0.141681
860 6.76259 4.20058 8.43418 -0.525032 -1.60598 0.124011
53 7.37941 3.74518 7.40745 -0.436954 -1.60883 -1.53177
108 7.72263 4.81583 7.10518 -0.595067 0.306927 0.503351
329 8.95158 4.81839 8.35223 0.138894 0.188114 1.18269
478 8.44096 3.85577 8.10016 1.38843 0.0405396 -0.897624
350 7.7697 4.56756 8.23107 0.174165 0.290214 -0.58962
789 9.95343 4.03544 7.22347 -0.55336 -0.279433 -0.56635
384 9.53205 3.96222 8.12457 0.411011 -1.71936 1.15838
137 9.77347 5.2333 8.00042 -0.30228 -1.65646 0.539678
146 10.2072 4.60816 8.7807 -0.0446633 1.2287 -1.07192
779 0.539505 4.34295 7.71194 0.509925 0.759016 -1.16033
326 5.32553 0.171906 7.57248 0.57985 1.59955 -1.48808
283 0.299407 0.538765 9.39322 -0.356188 -2.19729 -2.38485
70 1.14461 0.75627 10.4887 1.06614 0.442192 -1.18156
392 1.34261 0.48566 9.40635 -0.00409678 -2.08438 0.745852
83 2.59199 1.17639 9.27836 -1.20006 -0.173868 2.12525
177 2.07394 0.162634 10.1524 0.0195842 -0.613874 0.040573
853 3.04041 2.62175 9.84103 -1.0262 1.28457 -0.205288
524 2.28323 1.12583 10.3835 -0.308331 -0.57856 -0.00611016
21 3.36665 0.679644 10.3794 -1.02881 -0.145998 -0.374353
613 4.53397 0.332982 10.5105 0.24209 -0.860931 0.772305
437 3.83855 1.81034 10.1032 -0.82488 0.641964 0.450475
295 3.95996 0.709451 9.58737 0.89579 -1.11624 -1.14787
221 5.58283 0.665572 9.2958 0.518446 -0.829031 -0.125597
17 4.77038 1.32915 9.92122 -1.31258 0.317673 -1.23642
643 9.91352 0.088945 6.78355 -1.66334 0.639511 -0.987708
606 4.61808 1.02573 8.80145 0.60244 -0.0476548 -0.402724
743 5.92583 1.58337 9.65922 -0.763264 0.506539 0.127311
609 6.85182 0.736874 9.29504 1.43538 -0.602979 0.949291
334 6.98629 1.52393 9.9155 0.734035 0.889717 -1.10418
42 5.29921 1.98789 10.6937 -2.10058 0.140935 -0.155319
400 7.11541 0.155079 5.54986 0.965407 0.192431 0.675168
187 7.37154 1.87815 8.92909 0.782513 1.63148 0.869894
230 8.3158 0.306302 9.61968 -0.0430457 -0.183999 0.599687
644 8.23078 1.30271 9.29474 -0.135945 0.136525 0.370226
845 9.29103 0.773947 10.0151 -0.631695 0.418447 -0.0982174
64 10.2411 0.792226 10.3841 0.353099 0.463818 2.14152
580 9.91838 0.0911013 9.48592 3.12111 0.85489 0.0966151
93 10.4483 1.53318 9.23619 -0.0505838 0.558478 1.21172
338 5.52716 4.61834 5.60179 -0.974473 -0.668161 -0.215251
208 0.648322 1.57036 9.83032 1.55538 -1.19983 1.31658
8 1.06682 2.94179 9.4006 -0.676674 -0.235312 0.574207
841 0.0600217 2.43069 9.83905 -2.33989 -0.192018 -0.11484
435 2.51708 3.28273 9.04674 -1.85029 -0.107365 0.183208
556 2.04311 2.33551 9.6812 0.114742 0.463402 0.472224
368 2.56558 2.12045 8.65124 0.303696 1.80373 -0.772056
732 2.95383 3.71839 10.0124 -0.522339 -0.533006 0.962972
406 4.08341 2.82715 10.387 1.11621 -0.329382 -0.0278411
757 4.00487 4.03404 9.61472 -0.968347 -0.708409 0.497578
803 5.12553 2.89328 8.66743 -0.376214 -0.591993 0.676387
518 6.23749 2.49378 10.3164 -0.0374635 0.803347 0.365875
390 4.74659 3.21829 9.45947 1.88376 1.46415 1.77662
292 5.17175 2.32497 9.55198 -0.67863 0.38674 -0.809657
750 6.00723 3.33536 9.82594 0.843022 0.347478 -2.19997
430 6.31396 2.40229 9.21451 -1.14988 -0.0264844 -1.54834
411 7.62065 3.07935 8.36802 -2.08132 -1.38352 -1.71445
259 6.38896 3.41204 8.85788 -0.180295 1.71537 -1.20384
431 7.44735 3.09192 10.2976 -0.0077655 -0.8259 -2.97271
648 8.69671 2.96577 10.2858 0.111773 -0.263832 -0.780148
829 8.78314 2.40344 9.20816 -1.24294 -0.517631 -0.53955
557 7.90803 2.2215 9.84306 -2.15977 0.007103 -0.429433
588 8.10962 3.22095 9.49397 0.234242 0.0787731 1.27079
477 10.2564 5.32092 9.77315 0.00269846 -0.284545 0.668647
385 9.32317 1.61397 8.77078 1.111 -1.11223 -1.14031
407 9.19858 1.7725 9.9792 0.247321 -1.39208 -0.380955
792 9.81978 2.44039 9.30167 1.23321 0.261197 -1.93412
799 1.92675 5.16574 9.03087 0.425414 0.723084 -0.926785
307 0.646956 4.4921 9.13954 -0.476121 -0.618877 -0.80042
455 0.21743 4.17285 10.2611 -0.342415 0.611424 -1.38528
825 3.08031 4.60044 9.79729 0.817442 2.29601 0.746858
341 6.96844 5.22215 7.93943 2.39466 -1.63263 -0.865044
419 1.79365 3.933 9.65602 0.588672 1.74528 0.0370188
372 3.80259 4.50086 10.7064 -1.47914 -0.49523 0.233661
804 5.5861 5.18888 9.7688 -0.332062 -1.49704 0.0228834
415 6.29137 4.37317 9.8452 -0.734871 1.73536 -0.424061
63 4.90033 4.56776 10.2225 -0.185434 -0.787025 2.0617
428 6.19186 5.25539 8.71927 -1.06125 0.858197 0.620963
767 2.24881 0.28658 8.80092 0.409426 0.747524 -1.36468
726 7.42454 5.26699 8.96373 -1.0861 -0.672615 0.192694
289 7.1653 3.85922 9.48466 -1.47948 0.299894 -1.21086
769 8.51144 4.32585 9.20164 1.16116 1.42389 0.752861
810 9.34682 3.52894 9.15509 -0.628251 -0.472716 1.23002
659 8.24642 4.98441 10.4069 1.11621 0.514532 -0.256545
393 8.7045 3.97138 10.4169 0.545015 -0.241741 -0.10595
680 9.33403 5.12624 10.5072 0.482365 0.971128 1.05536
7 10.5397 3.80848 9.32221 -0.188553 -1.14829 -0.747003
256 9.98638 0.47467 5.45189 -0.119067 -0.464989 -0.463808
4 10.5621 0.141085 7.55259 1.98373 1.59768 0.202172
734 9.82027 4.54864 5.44882 0.147318 -0.345098 0.869485
815 2.10676 3.12609 10.3905 -0.469541 0.692568 0.215022
652 3.9653 1.11337 5.51707 -0.832974 -0.359785 0.182143
574 5.48272 0.782136 10.4425 0.16582 0.397657 0.0748068
196 10.4843 1.79727 10.5283 -1.84556 1.98252 0.679446
619 2.56726 0.290529 5.71603 -1.06987 1.37244 -0.481483
156 3.4481 3.90606 5.72276 -1.50653 0.127233 0.565313
670 0.466004 2.56201 10.7084 -0.234363 -0.924579 -1.01478
765 0.293382 6.67808 1.4319 0.0373352 -1.2518 -0.933381
427 0.874276 6.94952 0.476 -1.083 0.633157 0.39805
719 10.5643 9.77372 4.39073 -1.05296 -0.706118 -0.467013
766 1.49881 5.56656 1.27836 -0.194993 0.273732 -0.467656
345 1.54098 6.71036 1.49467 -0.980594 -0.367158 -0.200294
403 10.5621 6.11456 0.631182 0.0884446 1.00326 0.16502
229 2.51297 5.96521 0.713603 0.260167 0.958184 -1.18899
694 1.56777 5.6993 0.179891 -0.141744 0.33846 -0.909734
817 3.0372 6.9765 0.318698 -0.939454 -0.729737 1.34845
702 4.66087 6.59454 0.44901 0.100526 0.429458 -1.43128
443 3.61936 6.25183 0.718875 -0.456181 0.306591 2.06927
731 5.61233 5.37322 3.30601 -0.732474 0.0394953 -1.2249
598 5.23848 5.67566 0.985982 -0.0216867 -2.23555 -0.00617727
351 6.84512 6.4779 0.479766 0.100568 -0.720788 -0.480405
516 6.64704 5.75858 1.61318 -0.15379 -0.366509 -0.0519152
271 7.93364 5.72 0.838813 0.869893 -0.755339 -1.34763
597 7.41456 9.95211 4.82483 -1.34577 0.885945 -2.17398
784 8.5984 6.34808 1.32804 -1.4806 1.09089 -1.52737
51 0.329318 10.4776 0.385282 0.322257 -0.757274 0.127633
571 8.90917 5.77581 3.6125 0.00600812 0.558698 -0.13509
453 8.81573 6.13369 0.238847 -0.61005 -1.4278 -0.0739777
746 10.1054 6.18904 1.8586 1.25478 -0.429718 -2.10145
222 10.3568 7.43652 1.5247 -0.276376 2.00854 0.316431
545 9.60698 5.69909 0.950927 -1.42869 -0.295919 0.576028
796 9.06319 6.33388 5.1094 -0.354507 -0.924013 1.52906
168 0.600405 7.73871 1.68282 0.958383 0.501216 -0.7112
464 5.20963 7.22066 5.32799 0.284434 0.546422 -1.04133
413 1.13323 8.87651 1.38924 0.942453 1.01397 -0.166062
531 0.615343 8.54918 0.349874 1.52585 -0.718282 -1.28905
780 2.98984 7.53196 1.13352 0.618561 -0.0187009 0.934204
462 1.35431 7.69822 0.897856 0.174406 0.228503 -0.424306
98 2.41092 7.78444 0.213938 -2.28641 -0.844506 -2.19394
470 2.36611 8.42608 1.04495 -0.12385 -0.0400723 0.821704
607 3.96579 8.32279 0.907849 0.168548 -0.384673 -0.3946
542 4.03796 7.14631 1.1503 -0.827078 0.921964 -1.45765
558 3.99894 7.62467 0.0550507 2.03166 0.595431 -0.24518
852 5.58117 6.83555 0.805853 0.71073 1.20268 2.93481
629 5.12334 8.04178 0.851908 1.04529 -1.24644 0.10612
730 5.85353 8.59666 0.406877 0.30622 -0.64127 -2.44635
215 5.78586 8.74128 1.39231 0.686851 1.23336 0.024395
700 6.72589 9.08925 0.894845 1.11378 1.45432 -1.89818
528 7.92082 7.31926 1.02318 2.15112 0.193529 -0.0173016
47 6.57097 7.71748 0.865846 -0.481886 -0.547478 1.88977
73 7.79357 8.32436 0.553343 0.527658 -0.417531 1.86968
802 8.59181 7.45289 0.15876 -0.553784 -0.382586 0.119521
690 8.34725 8.69201 1.71858 0.0767884 0.163793 0.829929
143 9.10157 8.06905 0.899622 1.73729 1.37216 -1.16687
703 9.52255 8.88378 1.4889 2.73877 -1.18048 -0.114753
434 0.140943 7.54955 0.463077 1.98229 -1.49556 -0.878438
246 9.78929 7.20323 0.560407 -0.025779 -0.294824 -0.37989
456 9.73891 8.09564 0.0478655 0.0555808 -0.305526 -1.62854
20 10.5573 9.7144 1.21538 -0.511044 -0.629445 -0.704586
698 0.867196 9.56483 0.522063 -0.656876 -0.752086 1.22451
778 1.88815 9.19142 0.467881 -0.518231 -0.0522717 0.182101
638 1.87113 9.76953 1.48567 -1.07202 0.63821 -0.336198
569 2.74342 9.86967 2.03966 -1.33829 -1.9187 1.05041
349 3.09554 9.13236 0.35423 0.365736 0.0163839 0.596435
3 2.79306 9.99122 1.06666 -1.5258 0.599136 0.12033
129 4.59183 9.98804 1.33853 0.244075 1.117 1.13002
679 3.72458 9.32496 1.42199 -0.288018 -0.436877 1.2154
489 3.86474 10.4896 0.419447 0.419383 2.01934 -1.46745
110 5.47966 9.78405 0.91185 1.47146 -1.27971 -0.865895
534 4.81656 9.28535 0.287821 -1.83124 -0.321592 2.35003
490 6.27434 10.4165 0.76777 -0.265228 -0.0702663 0.554662
474 7.45737 9.85508 1.46316 0.132278 -0.960543 0.185018
35 8.44421 10.5557 0.655011 0.185913 -0.292345 -2.26376
637 8.02608 9.35274 0.728385 -1.06231 -0.915202 1.28737
343 8.65542 9.75501 1.4684 -1.10937 0.439477 1.19412
847 10.3158 8.47373 0.976543 0.112227 -0.403829 -0.35878
819 1.51904 10.3606 0.508095 1.09095 -1.86667 0.972724
486 9.56154 9.95572 0.66223 -0.291744 0.44808 2.26761
846 1.21357 6.10057 2.48869 1.1265 -0.553087 -0.0262599
538 1.9754 7.2924 3.43127 0.712324 0.636823 0.0635041
627 1.97798 7.00491 2.33186 0.403247 0.648185 1.02382
159 2.69568 6.29767 2.94363 -0.0896387 1.23856 0.280803
263 2.90483 7.58213 2.81153 0.0259923 2.78561 2.30949
816 2.42677 6.18941 1.74138 1.80241 -1.13368 -1.40418
749 3.52529 6.26105 2.20024 0.106808 -0.744599 -1.22193
226 4.29216 5.84128 1.49885 -1.60206 -0.814771 -0.553344
58 4.80937 7.18147 2.83289 -0.130861 0.0781162 -0.688163
511 3.35249 6.08912 3.99686 2.21343 -0.503896 0.790575
361 5.05631 7.00648 1.63906 -0.792812 1.56607 -0.728652
564 5.21669 5.95913 2.05272 0.0392932 -0.907579 -0.0778023
720 9.22599 9.32642 5.18189 0.520223 -1.53917 -1.02943
510 7.47404 6.47863 3.42903 -0.728592 0.98172 0.649789
130 7.00677 6.08492 2.57833 -1.87582 0.7962 -0.00848177
135 6.59601 5.7951 3.50319 1.25881 -0.642816 -0.522637
616 5.84406 6.38099 2.9826 -0.931203 -0.544414 0.705539
642 7.58649 6.40087 1.72029 -1.32543 0.350031 -0.279242
358 8.28349 6.60132 2.65761 -1.11844 0.0954229 -0.550106
172 9.30473 6.7307 2.4422 0.347779 0.695024 0.642884
162 9.47 5.59533 2.41298 1.44541 0.140794 0.246649
90 10.5621 5.45165 2.5641 -0.763281 -0.484233 -1.99568
552 9.69532 6.28523 3.2698 -0.197004 -0.230071 1.37749
133 10.6935 6.49762 2.92461 0.95676 0.530113 -1.19726
23 1.00814 7.43397 2.65983 -0.8142 1.09269 -0.0235475
387 0.464377 9.27959 2.13003 -1.30593 -1.04214 0.999233
207 0.449802 8.3678 3.21619 0.92279 0.205166 0.425815
458 1.62311 8.40911 3.2288 -1.67443 -0.663642 -0.315106