ITEM: TIMESTEP
42400
ITEM: NUMBER OF ATOMS
864
ITEM: BOX BOUNDS pp pp pp
0.0000000000000000e+00 1.0726842421158810e+01
0.0000000000000000e+00 1.0726842421158810e+01
0.0000000000000000e+00 1.0726842421158810e+01
ITEM: ATOMS id x y z vx vy vz
371 1.08789 1.43769 0.384106 -0.915419 1.10569 1.0823
262 0.46522 0.360412 0.832308 -0.00123757 0.170484 -0.74056
104 10.5183 1.08333 1.01267 -0.488607 -2.09617 0.622045
297 2.14287 0.689132 1.12044 2.90441 -0.322271 -1.56807
195 3.0609 1.10686 0.74763 -0.0577041 -1.59844 1.04739
82 0.702699 2.27772 5.35619 1.84446 -1.46146 0.540704
842 2.86345 0.118997 0.319063 1.24084 -0.294309 1.13315
490 4.20408 0.747396 0.928927 0.953646 -0.0632671 1.59372
110 4.22161 1.52564 1.73155 0.963023 0.136458 -0.208358
35 5.31661 0.289552 0.793637 0.167809 0.7048 -1.9019
379 5.949 0.930092 1.67385 -0.0498621 0.245781 -0.352506
864 5.39424 1.36916 0.578706 -1.8297 -0.89262 1.38133
743 7.33191 1.37598 0.332174 -1.13748 0.193036 -0.629199
474 6.29576 0.981752 0.256782 -0.95081 0.0822819 0.438735
492 10.183 0.0112794 0.547988 -1.49782 0.849021 0.12088
614 7.44588 0.846163 1.66969 -0.766676 -0.299074 -1.63751
547 9.17022 0.39269 0.505911 0.668444 0.760062 0.271616
412 8.1033 0.675009 0.0958694 0.103999 -1.67495 -1.05766
363 8.39053 0.870726 1.25123 -0.262578 -0.770244 -0.0239013
231 9.59719 1.28989 1.26427 -1.49746 1.07204 0.149345
117 9.87972 0.999104 0.207139 0.218938 -1.64635 -1.7216
224 1.34149 1.2482 1.45163 -0.55202 -0.660231 -0.226398
465 0.401293 3.31002 1.43757 -1.13367 -0.611401 -0.0206658
161 1.1122 2.50571 0.671715 -1.26422 -0.628169 1.03085
417 0.450851 2.04577 1.27664 -0.0049921 -0.976121 0.104501
595 0.220184 3.07806 0.362216 0.627831 -1.13374 0.192634
84 2.19189 1.87657 0.697826 -1.21659 2.02975 0.720228
196 1.9925 2.87406 0.385938 0.303352 -0.292925 -1.79223
132 1.49281 3.15847 1.27361 -0.60813 -0.430815 -1.1054
197 3.80392 1.57288 0.36169 0.819843 -0.736709 -1.4596
732 3.73911 3.31498 1.87396 -1.56493 -1.56066 -1.48518
633 6.40421 2.84842 5.14127 -0.584013 0.875703 -0.33639
365 5.56153 2.21054 1.38729 2.64244 -0.472677 -1.75758
480 5.96744 3.14472 1.60033 0.57166 0.846529 -0.0457516
518 5.41905 2.89268 0.639416 0.302779 1.07461 1.03871
657 4.26741 3.32587 0.651306 0.121498 -0.591488 -0.0253796
396 4.58529 2.21727 0.336731 -0.547465 -0.499552 -0.555298
644 6.47694 1.68784 1.20273 0.137539 -0.814284 -0.78038
278 7.05056 2.44607 0.288469 0.115643 -2.44692 -0.295428
77 7.20167 3.01124 1.18284 -0.540579 1.36781 0.433638
774 6.45131 3.25909 0.499105 0.52352 -1.20951 0.490369
26 7.70218 2.03231 1.5471 0.181886 -0.210488 0.300946
5 9.27269 2.2756 1.35088 0.689723 -0.637361 1.15972
41 8.43383 2.89949 1.17467 0.389895 -0.732482 1.06145
97 8.35958 1.83082 0.352617 0.195457 0.645502 0.258689
602 10.2967 1.93619 0.614062 -0.750415 0.89561 0.157394
235 9.29294 3.3406 1.50709 0.71779 -0.375623 0.283635
191 10.002 1.97963 1.95878 -0.850216 -0.239116 -0.173016
176 9.75877 3.26551 0.494412 0.574463 -0.566071 0.608455
559 1.60467 3.84731 0.320349 1.51491 -1.54746 0.348021
555 0.760332 4.37884 2.00748 -1.08726 -1.14459 0.422234
203 6.66489 1.63833 5.32494 0.100179 1.07191 -1.45068
823 10.5039 4.26483 0.527489 -0.818834 -0.212353 1.49554
694 1.43771 5.1027 1.46184 3.6115 0.850516 -0.512522
206 2.16074 4.57728 0.860489 -0.289419 0.697993 -1.49332
466 2.88449 3.56109 1.20224 1.75478 0.746935 -0.968686
397 3.29234 4.3083 0.380935 -0.919695 -0.132386 0.586103
567 6.41086 5.27286 5.238 -0.957133 -1.3213 -0.259161
419 4.1817 4.18941 1.21602 -2.02079 0.744825 -1.54613
452 5.60825 4.258 1.24827 -0.0194226 -1.06774 -0.412672
63 5.7543 5.05509 0.537788 -0.369293 1.4778 -0.233061
418 8.89702 5.13635 2.62329 -0.646066 0.0124272 -0.737841
557 7.77615 3.54596 0.175786 0.43249 0.682143 -0.8825
102 6.65719 4.23803 0.535113 -0.446481 -0.401713 -1.13852
188 7.6697 4.52347 0.92512 0.0101271 -1.40037 0.91493
726 8.67626 4.12056 0.929433 -1.20047 -1.93685 0.0789127
855 8.72626 5.08307 0.686748 -1.18809 -1.31138 -0.051485
99 9.70517 4.24785 1.17917 -0.227573 0.759378 1.03811
468 9.96075 5.27185 0.601087 -1.31792 -0.98219 0.116572
264 9.33856 4.28422 0.00394997 -0.84651 -0.220319 -0.431941
429 10.4916 0.593816 5.33045 1.00073 0.192815 -0.813235
36 0.279823 1.75708 2.41189 0.476205 -0.685125 0.665185
167 0.944397 0.38597 2.72373 0.598261 -0.178848 1.53555
654 10.3651 1.56621 5.10827 0.89227 0.550093 -2.65532
741 2.06154 1.97736 2.36697 0.474588 1.95897 -0.0276385
713 3.2546 0.301754 1.33685 0.196226 1.41087 -0.954538
399 2.12313 0.905788 3.10516 -0.951085 -1.05602 0.469383
243 2.95126 1.81415 1.91755 -1.03332 1.25651 1.07508
615 10.1559 0.0908537 2.389 -0.601422 0.443897 -0.498545
600 3.12933 0.288529 3.27972 -0.674571 -0.218865 1.29166
801 3.19923 1.70811 3.16942 0.110369 0.339341 -0.649034
44 3.96389 0.780025 2.38964 -1.15853 -0.190252 -0.564471
296 5.16662 1.63485 2.23353 1.30693 -0.26994 -0.972036
58 4.96268 0.385201 2.3561 1.26629 2.77813 0.896023
106 5.79118 0.688613 2.78343 -0.588164 0.75416 0.175822
554 4.92583 1.19193 3.11407 0.0754535 -0.987929 -0.243947
64 6.82869 0.991555 2.53376 0.752201 -0.427657 0.811292
725 7.14934 1.76076 3.25029 -0.325475 -0.396353 1.91235
306 3.3777 0.421102 4.59829 -0.150168 1.45427 1.64113
536 6.62579 0.262983 3.80882 1.80554 -1.02907 -2.12239
389 8.09817 1.50292 2.34641 1.51026 -0.542118 0.435863
236 8.59387 0.268081 3.3227 1.13428 -0.214092 1.46307
696 7.77788 0.0272959 3.92614 -0.880125 -1.32435 0.277531
173 0.272833 0.637064 1.97744 0.887184 -1.48913 -1.27818
550 9.07339 0.907343 2.23535 -1.85832 0.0737995 0.122883
708 0.0516936 1.27199 3.19769 1.51753 1.1872 1.52923
255 9.40334 1.21284 3.39928 1.663 1.04005 -0.745927
113 0.949944 2.57333 2.4401 0.518073 1.01983 1.76352
85 10.3796 3.80009 2.37575 0.863246 -0.999468 -0.090769
189 0.801177 2.21398 3.5109 0.916744 -1.74869 -0.108263
674 2.60239 2.60547 1.3989 1.74 0.110519 1.11561
281 1.89588 3.26221 3.07171 0.199708 -0.0276087 0.862562
32 2.69461 3.18334 2.36358 -0.715246 -0.19914 1.21623
494 4.20396 2.09399 3.28308 -0.672217 0.745496 1.02869
178 3.42243 2.83895 2.94434 -1.76052 0.342116 0.664707
521 4.50487 2.57204 2.33375 1.80769 -0.341471 1.24419
688 5.38506 2.20936 3.1396 2.00552 0.370029 -0.00798746
587 5.78083 3.24548 3.04492 0.376251 0.493201 -0.475299
131 4.61659 3.37269 3.30821 -0.491143 -0.147572 0.280096
400 6.63697 2.69362 3.48254 -0.74858 0.37299 0.276507
115 7.61544 3.47613 3.12409 0.587559 -0.331988 0.180953
216 6.94247 3.37313 2.28995 0.59974 -0.512413 0.870341
257 7.42521 2.42224 2.57838 -1.01481 -0.619348 1.16701
639 9.11003 1.86842 2.50892 -1.64941 -0.23906 0.348569
92 8.40731 1.92173 3.4048 -0.302367 -0.682974 0.421132
2 8.39534 2.87451 3.00017 0.132604 1.29113 1.83317
519 9.40488 3.27003 2.66574 0.247811 -1.22826 0.0472586
202 10.5175 3.22941 3.66221 0.800651 0.429201 -1.00515
10 10.0165 2.31068 3.33911 0.924955 1.46092 -3.00521
754 0.509819 4.96662 2.92221 -0.679735 -1.43067 -0.953369
444 0.85147 3.53007 2.85896 -0.338926 -1.96153 0.674638
440 1.51592 4.6588 2.66743 -0.0432167 0.331435 -0.269847
61 1.90119 3.89613 1.86338 -0.643271 0.507957 1.1471
770 2.43073 4.17756 3.00571 1.1816 -0.336968 -0.0144181
284 2.73484 5.16827 2.57505 1.48615 1.1293 0.715352
586 3.29095 4.48091 1.8015 -0.0120915 0.0710093 -0.431053
546 3.39382 3.85008 2.88979 -1.83703 -0.464312 1.82778
816 4.27963 4.51489 2.3982 -1.18073 -2.57289 -0.474269
300 4.65161 4.66579 0.252851 0.836689 -2.08676 2.17939
610 5.25869 5.06137 2.34945 -0.465475 0.654185 1.31023
182 6.78716 4.70456 2.71441 -0.814469 -1.4005 0.914256
138 6.58014 4.11554 1.75223 -1.93027 2.11119 -1.48176
66 6.53377 5.12848 1.35436 -0.458446 -0.921047 -0.66153
274 8.82175 4.21404 1.98032 -1.0602 0.645616 2.70877
74 7.7967 4.03027 1.85601 0.103233 -0.784597 -1.74219
596 8.79016 4.05859 3.59728 0.00615378 0.291995 -0.524631
601 7.4389 5.33231 4.91765 0.0549195 -0.736068 -0.884306
455 10.3954 4.78857 2.20729 1.30871 1.84703 0.653754
248 10.564 4.22202 3.43756 -0.432975 1.03002 0.412563
746 9.53956 4.30208 2.68432 0.078906 0.860764 0.398236
252 1.13541 1.27277 3.25971 -0.696722 0.41859 -1.46833
244 1.94543 1.38185 4.97566 -0.638611 -0.948912 0.370509
192 1.0328 1.54222 4.35889 -0.114489 2.00835 -0.0206521
583 1.58804 0.587665 4.30428 0.624333 -1.44287 -0.356278
319 2.71365 1.00176 3.90818 0.146842 0.620977 -0.586558
747 4.76514 0.22485 5.05057 1.0393 -1.20637 1.10248
273 4.02461 0.977092 3.75786 -1.38296 0.0134053 0.281304
758 4.20054 1.46362 5.16594 -0.90405 -0.0583522 -1.77665
215 4.67454 2.21472 4.22607 -0.214273 -0.407759 -1.28269
589 5.0479 0.614899 4.08072 1.33834 -1.23024 -0.131512
787 6.24386 1.35571 3.43971 0.369965 -0.791849 -2.46564
807 7.15364 2.19819 4.39398 -0.68375 -0.810554 0.400113
149 7.48653 0.948951 4.37212 -0.270553 -0.275632 -0.673824
486 9.28723 0.0578269 1.59114 -0.955972 1.91165 -0.96005
573 9.67106 4.80046 3.5647 -0.0840225 -1.79355 -2.04607
591 8.33633 0.447901 5.12397 0.110386 0.993306 -1.01916
37 8.61848 1.1443 4.17291 -1.254 -0.748649 -0.300027
158 8.0461 1.77323 4.73705 1.63082 1.7925 -1.23483
718 9.23897 1.20981 5.36196 -0.954437 0.216614 0.573634
570 2.23342 0.208253 2.09498 1.07565 1.71601 0.518693
121 9.8619 0.182204 3.3855 1.27097 -0.568358 -0.713564
123 0.351626 0.679851 4.36284 1.60133 0.669359 1.30654
185 9.80553 0.668071 4.52014 0.232534 -0.364735 -0.715631
76 10.2041 1.62355 4.05174 1.49765 -1.29783 0.474249
310 0.262245 2.9184 4.62063 0.519165 -0.287624 -0.0887234
57 1.39043 2.97374 4.03776 -0.86358 -0.599365 -0.290066
288 2.02746 3.55277 4.90017 -0.764338 -0.33528 0.112274
265 2.09574 2.09857 3.73577 -0.714774 -0.236174 -0.532082
652 2.4805 2.5626 4.71747 0.951579 0.91943 0.152603
436 2.42909 3.61709 3.97892 1.36284 0.970851 0.296889
154 3.01668 1.39381 4.99492 1.96989 -0.695069 -0.432896
198 3.36023 2.32385 4.1118 1.75509 0.416277 0.87795
179 3.36599 3.39815 3.81245 2.428 2.81309 -0.673532
322 4.82414 3.03282 4.99156 1.02379 1.32804 0.583478
181 3.73395 2.44357 5.16968 0.737219 -0.739673 -0.181288
13 5.41913 2.12179 5.27326 -0.0261817 1.79914 -0.268825
282 9.32341 5.32579 1.61158 -1.23328 0.366472 -0.795347
103 5.48171 2.87924 4.03805 -1.20394 0.185365 -0.350408
245 6.14782 2.03937 4.39961 0.0211276 -1.98365 0.851985
479 9.96604 3.88152 4.44708 0.151845 0.489018 -1.90835
327 7.23163 3.24821 4.20997 0.518677 0.0916248 -0.0476121
672 6.18413 3.66799 4.13836 -1.28165 0.732901 -0.926307
241 8.25539 2.9092 4.17213 -0.857727 0.400785 1.32485
606 2.76678 3.42811 0.00583473 1.18495 -0.70961 -1.91399
734 9.18017 2.07472 4.19894 0.159976 0.126274 0.143428
184 7.64912 2.84118 5.32083 -0.842164 1.05092 2.00991
237 9.24764 3.12809 3.89262 -0.911791 0.159549 -0.443532
737 10.0296 2.75644 4.48247 0.277901 -0.135975 0.729213
174 0.597801 5.0913 4.09929 -0.480311 0.773855 -0.45822
526 0.452263 4.40911 4.97926 1.13385 -2.48785 -0.123351
484 0.749542 3.7598 3.84823 0.933641 0.372439 -0.796378
538 1.43051 4.40501 4.32807 0.629008 -0.0631583 -0.147941
426 3.29264 4.72538 3.31931 0.598917 1.10623 -1.04855
217 3.80336 4.34454 4.18114 0.713018 1.53651 -0.72818
226 4.28561 4.9106 5.26192 1.7031 -1.67345 -0.94417
40 2.85861 4.83751 4.23568 -3.3377 1.49298 -0.0927777
34 3.04248 3.50779 4.87441 1.21099 0.115216 -0.0631691
204 4.84322 4.05094 4.44512 -3.41066 1.4476 -1.64932
65 4.58943 4.67192 3.50068 -0.679628 1.02518 1.57593
338 5.3511 5.03892 4.35401 -0.537652 1.49286 -1.87014
684 6.70183 4.91135 4.25589 0.826359 2.58424 1.64787
640 7.10245 4.12887 4.71556 -0.0366863 1.16716 1.62264
190 5.79945 4.38574 4.97313 -0.148466 0.206581 -0.873497
112 7.46889 4.64982 3.60064 0.0940353 0.338704 0.530099
135 8.04839 4.53207 4.57938 -0.0866365 0.512271 -0.816083
348 8.85876 3.19126 4.9291 1.36548 -0.804976 0.836191
354 9.03901 4.60042 4.49874 0.687887 1.47634 0.21563
118 7.62857 0.285905 2.69776 -0.62199 2.60425 -0.143711
251 6.51873 0.711505 4.73814 0.991836 0.300769 0.589453
229 3.12539 5.22222 0.976405 0.30064 -0.716118 -0.969198
857 5.57136 1.19737 4.9967 0.215821 0.140559 -1.03202
70 2.01321 1.06523 0.0945272 -0.775374 0.299028 0.386291
498 1.24072 0.0886138 1.50076 1.09553 -0.406691 1.17631
439 0.851018 0.286383 5.36028 -0.108083 -0.489436 -1.48322
367 0.92086 0.743232 6.77277 0.994406 1.81989 -0.107783
277 0.159145 1.60147 5.94062 0.133936 -0.553525 -0.660237
472 5.47579 0.019881 9.25612 1.75953 1.3715 0.583001
171 1.35539 1.44206 6.11417 0.602152 1.23448 -0.00313346
127 0.685075 1.95991 6.73754 0.193403 -0.706472 -0.3804
275 2.21995 0.937972 6.42779 1.18417 1.27052 0.0207858
337 2.53253 1.92636 6.04239 1.33704 0.314243 -2.15165
729 2.92677 0.0729672 6.72419 0.806532 -0.522086 -0.171285
332 10.3779 0.231228 6.57327 -1.28524 -0.365117 -0.0284966
381 3.3517 0.947795 5.97847 0.19146 1.38943 -1.95234
228 4.43183 0.647254 5.91418 -0.089648 1.21964 -1.17196
685 3.80168 0.269169 7.46491 -1.00222 0.370611 -1.31512
824 3.99864 1.20186 6.72215 0.21261 0.580711 -1.32877
79 1.96147 0.450666 7.39889 0.347463 0.876344 -0.65373
751 4.94389 1.68554 6.18896 -0.360892 1.30229 0.954704
797 5.57275 0.51121 5.9918 -1.24622 -1.13102 -1.23985
341 8.8222 4.80606 9.77943 -1.02733 0.105889 -0.0491667
212 7.38605 0.904918 5.69256 -0.487081 -2.90268 -0.289123
279 6.59578 0.159586 6.02523 0.296181 0.382695 -0.67299
162 10.5815 5.01902 10.5071 0.016634 -1.23378 0.0133509
736 6.39637 0.974024 7.1732 0.0998977 -0.747443 -0.466307
199 7.95738 0.172061 6.12373 -1.38062 -0.758937 -0.061609
790 8.70456 0.954933 6.27288 0.571086 -1.33109 1.5104
706 7.57087 1.38401 6.68653 1.14747 -0.292979 -0.111882
124 8.76384 1.68893 7.15636 -0.930785 -2.16734 0.196073
393 9.88963 4.05853 9.75694 0.853017 -0.278357 0.227588
362 9.85236 1.15935 6.21312 0.461965 0.52253 2.4571
626 10.5926 1.12104 7.23453 0.0133549 0.755534 0.126217
798 1.85126 5.32764 8.24976 -0.0880396 -1.5178 0.00143231
631 0.657144 3.09454 6.61411 1.66995 1.61002 0.162586
325 1.74962 2.22402 6.75796 0.399333 0.295317 0.111655
151 4.41498 0.18128 9.6854 -0.0237911 1.71855 1.44975
69 2.23646 3.15638 7.08955 0.4834 0.892373 1.69976
223 2.11888 2.97182 5.90878 -0.860446 0.208965 -1.46721
214 3.01141 3.62098 6.16827 2.22564 -0.724488 1.31404
422 3.79647 2.04993 6.13518 -1.02909 0.192654 0.279909
727 3.87333 3.0465 6.63388 -0.911183 0.135285 0.48342
320 3.15617 2.37759 6.88868 -0.659372 -0.186379 0.122101
376 5.52855 2.78764 6.96442 1.33984 -0.226979 0.183161
514 4.51256 2.30713 7.01022 -0.543232 0.114553 0.196064
843 5.92448 2.0007 6.20451 -1.43185 -0.446153 2.1191
763 4.90111 3.0418 6.24824 -0.752384 -0.451516 1.12214
352 6.93981 3.06437 7.26241 -0.473288 -1.09676 -1.04078
335 6.39526 3.18643 6.36879 1.54922 -0.246317 -0.748937
475 7.15652 2.33118 6.13209 0.775769 -0.877787 -0.489218
53 7.55986 3.27269 6.22718 -0.214542 1.52123 1.42996
655 8.08123 1.85021 5.77379 -1.2828 -0.0825436 0.439593
756 8.41504 2.82103 5.9564 -0.630907 1.0982 0.733201
220 10.1364 2.06593 6.71964 -1.14737 0.376249 0.131929
789 10.0974 2.9212 5.54959 -1.23249 -0.427152 0.513835
786 9.08846 1.97174 6.2537 -0.791165 -1.02705 -0.756313
750 5.65979 3.28562 10.4798 0.281365 0.183718 -0.749983
315 0.642575 3.46685 5.55777 -0.457278 -1.17162 -1.55216
359 0.679439 4.45884 6.19625 -0.571869 -0.643959 -0.374009
442 1.42539 4.211 5.37246 0.870588 -0.328859 -0.719437
435 1.49196 3.71412 6.70788 -0.263353 -1.25411 1.42249
314 1.66241 5.09322 6.59684 0.67414 0.888959 0.255751
611 2.59429 4.62553 6.29025 -0.209981 0.82323 -0.500538
100 5.55832 4.54795 10.2185 -1.47364 0.61216 1.0201
312 3.16391 4.42377 5.44397 -1.31065 -0.949851 -1.79696
318 3.65664 4.9223 6.59259 -2.44698 -0.904732 0.616963
156 4.03139 3.87985 5.53581 -0.851767 0.637434 0.861481
512 4.53648 3.86877 6.78378 0.491933 0.39053 1.44384
45 4.82024 4.46495 5.98756 -2.10454 0.77919 0.222972
89 4.77673 5.03312 6.79803 0.710565 1.41417 -0.803369
775 5.8118 4.60593 6.36433 -2.6177 1.61001 0.223784
294 7.13821 4.08349 6.9818 -1.50904 -0.19238 -0.156311
788 6.82726 3.75965 5.59857 -1.85078 -1.44234 0.937769
594 7.09959 4.72182 5.95204 1.52899 -1.02818 1.1571
592 8.309 5.17932 5.89783 0.571095 -1.35489 1.04734
438 8.23267 3.86878 7.01007 0.480602 -0.045186 0.915971
27 9.2181 4.34899 6.69205 0.342924 1.03013 1.53635
336 7.93226 3.9307 5.39232 1.0177 -0.0307368 -0.935337
453 9.80384 5.21139 9.73693 0.786364 0.714165 1.17619
72 10.5541 3.673 6.30289 0.0370248 -0.431615 0.445364
450 10.165 4.26812 5.51994 -1.55995 -0.407699 -0.680985
205 9.37612 3.77212 5.91659 0.316514 -2.06203 0.662726
645 10.3284 4.78042 6.43073 -2.24727 -0.654819 1.53211
239 0.825079 0.9669 7.8376 0.066567 -0.625223 0.585924
767 1.16241 0.871876 8.84712 1.49439 -0.115872 -0.2941
298 2.9479 0.617957 7.9268 0.77916 -0.115998 -1.25204
87 5.48705 3.70555 5.75928 2.10983 -0.95222 1.20437
437 2.91002 1.14835 7.09713 -0.812991 0.646076 1.59943
832 3.89168 0.617342 8.45365 1.20701 0.708409 0.423632
368 3.43677 1.84006 7.99693 1.76631 0.400432 -0.453239
254 5.79974 0.181679 7.24327 -0.591903 -1.60427 -0.599716
54 4.95094 0.181938 7.92111 0.358463 -1.47693 1.887
609 5.94898 1.16818 8.16102 -0.691719 0.493417 0.771997
686 4.69972 1.06693 8.56213 0.510624 -0.827658 0.727019
820 4.9943 1.15532 7.43242 0.930843 0.509116 -1.7521
502 6.12356 0.13795 8.43212 -0.805809 -0.74998 -1.68437
169 7.16191 1.52403 7.84732 -0.0287747 -0.567637 2.50207
837 8.13197 0.810726 7.67039 0.470065 0.984921 0.580236
18 9.04593 0.0945311 7.94275 0.918568 -1.59968 0.893056
238 10.2629 0.127918 7.63572 0.597878 0.469549 -1.00189
25 9.52547 0.884548 7.14782 -1.08428 0.153349 0.203072
715 9.07613 1.26208 8.19269 -0.971443 -1.25409 -0.618329
385 10.6124 1.03952 8.56144 0.0021226 -0.297968 0.730648
854 9.8083 1.92702 7.70259 -0.999296 -0.113937 -0.425301
369 0.204488 1.9053 7.95758 -1.1308 -0.542468 -0.378012
266 1.28548 2.07406 8.2857 -0.83356 -0.483414 0.123987
290 0.711047 2.83006 7.72053 -2.07298 0.692381 0.330236
670 0.49515 2.42554 8.79671 -0.472015 -0.299824 -0.201547
517 2.38918 1.97946 7.43704 0.0107481 -1.01084 -0.438147
673 1.62075 3.43098 8.20146 -0.945012 -0.517484 1.40592
391 2.60391 2.84625 9.03586 1.48755 -2.11509 -0.222869
1 4.87092 2.08077 8.15045 -1.2461 -0.163772 0.719213
551 4.01012 2.67473 7.92383 1.15466 -1.72399 -0.782805
406 5.66504 1.94306 7.57408 0.560356 0.16682 0.521539
803 4.76849 3.30919 7.80472 -0.849001 -0.16732 -0.0882149
372 6.40923 3.93301 8.2593 1.87403 -1.28125 -0.0104295
382 5.14882 2.96423 8.66527 -0.384653 -1.61949 1.04323
432 6.13356 2.58364 8.84386 -0.734974 -1.23592 0.0553495
483 7.07733 2.76078 8.4463 0.403507 0.456214 0.506751
230 6.74961 1.5934 8.83318 0.495361 -0.890552 0.803377
473 8.16948 1.83211 8.29818 -0.0215777 0.0403929 -0.0200382
209 7.71179 2.34476 7.39725 0.256442 0.286187 -1.79122
388 8.84234 2.73265 7.02888 -0.489202 -0.957639 -1.41501
735 8.95277 2.64446 8.12133 -0.00409564 2.24569 0.323851
384 10.2771 2.77635 8.11855 0.845093 0.725616 -0.817725
810 9.7983 3.24527 6.93889 -0.845807 -1.06667 -0.974138
680 9.44534 3.44803 8.89488 -1.21208 -0.496824 -2.0244
93 0.102399 4.12923 7.38135 -1.18415 0.908407 0.376191
170 0.195618 5.27303 7.38573 1.41798 -0.795477 -1.40805
357 1.5016 4.2927 8.64117 0.744216 -0.149533 -0.319713
779 0.4595 3.79227 8.39441 1.25377 -0.819678 -1.76416
286 1.33815 4.64254 7.59649 0.287017 0.966076 -1.06976
669 10.6847 5.17784 5.48757 -1.41523 1.06752 -0.49787
316 3.12416 3.63738 7.40774 0.405266 0.0450704 0.246827
208 2.32018 4.29198 8.11093 0.791972 0.388237 0.433899
276 2.98685 4.92501 7.73948 -0.740938 -1.26187 -1.03649
757 3.94981 4.18268 7.95657 0.0322733 1.27482 -0.446791
307 3.03809 3.82489 8.6581 -0.348376 -1.58833 -1.9403
825 4.47818 4.93053 8.58286 -0.618251 0.531802 -0.974448
17 4.28805 3.59886 8.91056 1.43574 2.50355 0.504792
581 5.02821 4.41009 7.71209 -0.313559 -0.835755 0.557645
424 5.49733 4.62943 8.58116 1.11689 -0.665043 -0.29701
344 6.09641 4.76207 7.48835 -1.1164 0.42727 0.0264531
813 7.32754 5.18795 7.62487 0.546394 0.968457 -0.252591
781 6.07816 3.78123 7.13448 -2.68895 -0.384538 0.608249
145 6.56979 4.88875 8.34559 -0.0203065 2.35977 0.834728
33 7.71872 4.65826 9.63458 1.08823 0.508119 1.07842
142 7.3931 3.79082 7.98929 -0.650107 1.55027 0.801839
350 7.95844 4.90865 8.49429 0.277452 -1.05191 0.352381
577 8.40614 3.87141 8.25988 -1.00263 -1.5791 0.744713
329 8.80034 4.65429 7.65331 -0.549759 -0.454504 0.476347
769 9.99598 3.8699 7.96693 -0.754527 1.44942 -0.836483
146 9.87201 4.81769 7.35621 -0.107164 -0.915213 0.955187
364 10.6784 4.68608 8.5756 0.334826 -0.32307 -1.24198
259 9.54228 4.4623 8.80722 -1.45304 0.72623 -0.851944
392 0.184159 1.85565 10.4718 -1.22282 -1.67308 -0.725185
524 0.426004 1.54942 9.42114 -0.422421 1.24643 0.907234
219 1.26806 1.22688 9.97918 0.154236 -1.44628 0.342556
377 0.0849442 0.362033 9.6014 -0.293745 0.848929 -0.564365
828 1.01563 0.105958 10.6255 0.745455 -0.0966486 1.33563
21 2.08561 0.549806 9.8997 -0.19052 -0.119402 -1.05309
295 2.76241 0.822307 8.93059 -0.383036 -0.325227 0.665765
8 2.24957 1.69181 9.65747 0.0403986 0.683187 0.0868288
416 3.06125 1.20665 10.4315 -0.66873 0.125951 -0.7917
659 7.97286 4.76991 10.5495 -0.970777 2.1405 0.773211
221 3.75014 1.59168 9.08736 -1.51319 -0.135993 -0.632806
405 4.77281 1.42712 9.71858 1.0912 -0.271625 -1.36613
334 5.62383 0.289266 10.422 1.13807 0.964495 0.558735
613 4.52195 0.947727 10.5503 0.307686 -1.82303 -0.212779
666 7.60903 0.980864 8.79501 -0.340004 0.520786 -1.13564
430 6.0279 1.3034 9.8848 -0.228034 -1.36021 -0.62965
504 6.96186 0.504582 10.424 -0.230279 0.35152 -0.604264
28 8.00405 0.509445 9.79393 -0.122648 1.33397 1.20027
411 7.66995 1.47536 9.91439 -0.615254 0.3983 -0.118335
408 8.86588 1.54918 9.57149 1.65481 0.125471 -0.177699
845 9.01952 0.759349 10.1419 -0.438629 -0.0196289 -0.607839
451 6.64919 4.63158 10.2283 0.996386 -2.68237 -0.553699
283 10.01 1.30364 9.97849 -0.909182 1.95482 0.377509
386 9.13488 0.275197 9.13485 0.464742 1.02725 0.807381
366 1.12294 3.40021 9.1757 -1.02241 -2.19773 0.127989
482 0.836132 2.52203 9.85276 0.706352 1.13562 0.198018
313 1.66278 2.15454 10.5258 -0.597027 -0.925138 -1.0897
55 2.31058 1.7017 8.46277 0.110296 -1.60607 0.159934
177 2.02317 2.90387 9.92111 0.891693 0.979382 0.170478
83 2.8894 2.3847 10.3078 -0.579055 -1.10154 0.0532021
292 4.05811 2.52211 8.99902 1.25368 -0.588795 -0.431414
160 4.91987 2.74699 9.82416 -0.581691 -0.557507 -0.10508
383 3.78009 3.19292 9.8819 -1.22568 -0.731685 0.37243
556 3.9212 1.89011 10.0878 -0.524168 -1.12737 0.405693
134 5.57172 2.13157 10.4689 -1.19154 0.621346 1.41821
390 5.87856 3.66183 9.35172 -0.275817 2.76723 -0.974792
187 5.42169 1.94288 9.24318 -0.76127 -1.30733 -0.732146
428 7.73858 3.46548 9.00519 0.159056 0.164695 0.6008
478 7.26644 2.28947 9.36019 -0.953748 -0.186712 0.638092
431 6.71137 2.98843 10.1116 0.400766 1.14207 0.556955
415 6.68591 4.14984 9.36594 0.139297 0.718911 -1.81383
289 8.34886 2.44142 9.39615 -1.09809 1.30162 -0.317978
407 8.73654 3.15954 10.64 0.216235 0.168907 -0.484923
829 7.77988 2.77291 10.2347 1.12613 1.49137 0.928805
588 8.39541 3.80595 9.68519 0.646276 -1.31127 -0.590191
51 9.24537 2.21137 10.6332 -1.42843 0.565804 -0.175259
792 9.57299 2.06643 8.783 -1.0097 -0.0960337 1.32623
580 9.62649 2.63232 9.71845 0.222294 -0.24771 0.49937
16 10.5207 2.77594 10.2565 0.149268 0.948811 0.284962
648 10.6927 3.86664 10.4071 0.186356 -0.321217 -0.123514
841 0.00525307 3.34145 9.20928 0.486551 -0.443208 0.271064
7 0.819283 4.54404 10.6192 0.130959 -1.16637 -0.744325
553 1.55705 3.83819 10.0562 0.545431 -0.708432 -0.369332
445 0.538476 4.3804 9.56228 -0.814486 0.865069 0.809177
305 6.73106 0.365519 9.32879 1.14383 1.18422 -2.02765
68 2.66141 5.18945 8.78889 1.44993 1.20863 -0.415269
141 2.56745 4.30128 9.53683 -0.631811 1.09145 1.33834
799 1.63067 5.00298 10.2435 0.896814 0.816262 -0.198378
699 9.57424 0.239935 5.47247 0.525843 0.860897 0.925505
541 3.53228 4.38346 9.374 -0.290077 0.483009 1.5703
42 4.70377 3.77083 9.87619 0.597642 0.126358 -0.180741
682 2.18314 0.524624 5.50445 -0.3359 -0.93224 1.2418
641 7.29065 0.215536 6.91064 -1.73964 2.07355 0.38943
561 4.81295 4.81244 9.58228 0.308811 0.806445 0.238686
505 0.424304 0.030995 8.58148 0.725332 2.25974 0.669285
242 0.257782 0.865058 10.7165 0.676112 0.380844 -1.37751
522 3.81277 2.67323 10.7191 1.15754 -1.02046 -0.658696
721 9.37094 2.33555 5.38914 -1.74122 -0.841197 1.46594
427 0.871538 6.20748 1.28581 1.70993 -1.11738 -1.45356
531 0.441797 6.96264 1.87678 -2.47363 0.347195 0.345527
413 2.27938 6.71703 0.163241 1.85674 0.709413 -0.580675
793 2.98034 6.48482 1.70404 0.308095 -0.549375 1.51546
71 6.4584 8.24594 5.13588 0.730354 0.640545 -2.08682
658 1.60203 5.71314 0.416802 -0.43317 0.392673 -1.47438
665 4.95277 6.02325 2.206 -0.986682 -0.323296 0.122427
43 4.01614 6.46641 2.05056 1.32505 0.463977 2.11653
470 3.86966 5.91637 1.09516 -2.6951 0.395673 0.706206
443 5.61941 6.72044 1.47635 0.748873 -1.45605 0.978177
380 5.50538 6.14076 0.578121 1.74739 1.60734 0.472883
520 10.0734 10.2657 4.8655 1.04448 -0.207426 0.636343
812 6.52782 6.03626 0.550467 -0.899394 -0.893734 0.879445
620 7.86851 6.24597 1.90114 -0.386336 -0.494803 -1.24329
409 7.81752 6.4464 0.695942 -1.77866 -0.197807 -0.459414
271 8.79199 6.45843 1.35509 -0.656363 0.695032 -0.677073
139 7.25132 5.4248 0.26441 -0.495442 -1.20858 0.728792
545 9.25065 6.16933 0.504596 -0.833667 1.36875 -0.631237
833 10.2267 7.15579 0.181829 -0.00529642 0.778566 -0.160522
840 10.3095 6.13143 1.42506 1.60124 0.241466 -0.743679
618 3.87032 5.37372 2.40739 1.09809 -0.256243 0.122772
101 0.610155 9.05525 0.801808 1.24555 0.0977265 -0.534745
463 0.515159 6.99255 0.556305 0.0363219 -1.68736 -0.360802
448 0.348443 8.19349 1.4868 -2.64579 1.40156 -0.711093
232 2.54702 7.607 1.8449 1.75248 1.36622 -1.0348
574 2.90935 7.63499 0.687574 1.63287 0.796617 -0.141756
467 2.36065 8.5643 1.3452 -0.881856 0.745311 -0.869575
739 1.65678 8.48508 0.495914 0.599162 -1.44507 0.555296
778 1.26702 7.60324 1.37697 -0.374772 -1.23595 -2.12511
447 8.23077 10.4508 1.91978 -0.338361 -1.94199 -0.648661
534 4.66729 7.44874 1.12567 -1.06677 -0.378602 1.29199
489 3.86638 8.57495 1.12082 -0.0360456 -0.426376 -0.0768283
460 5.54773 7.2266 0.600499 -0.487927 -0.118335 -1.3275
730 5.00665 8.48011 0.638279 0.107152 -0.55983 0.402308
240 5.58255 7.89713 1.84486 -1.24251 -2.00968 0.842336
510 4.68203 8.79099 1.82297 -0.187887 0.77758 -0.881244
572 7.44871 7.2279 1.29387 0.548159 0.436545 -0.804158
784 7.65506 8.3458 1.92643 2.84838 1.02914 0.233559
47 6.9151 7.2055 0.243939 -1.03493 1.65217 0.176503
488 6.32468 7.91776 0.952372 -0.0501237 0.107331 2.25652
150 8.46448 8.93987 0.974556 1.3617 1.01466 0.921866
172 8.56996 7.72978 1.4927 -0.552648 0.408287 -0.39847
811 8.02853 7.54387 0.246127 -0.307526 -1.62053 0.184786
91 10.4677 8.27326 0.017116 0.103221 2.19878 -1.26163
744 9.49327 8.65935 0.750253 0.47237 0.47186 -0.611858
222 9.09064 7.74387 0.431908 -1.35698 1.71761 0.624027
168 10.2775 8.63868 1.86226 0.208962 -1.11697 -0.445943
213 10.397 7.35936 1.15767 -0.176601 -0.889637 -1.24806
461 1.53705 10.3494 0.688401 0.657711 0.0908624 1.52615
246 0.45184 10.1052 0.844298 -0.610851 0.637185 0.355623
122 0.289648 10.2985 2.20348 -0.474936 -1.80019 1.31219
446 2.62025 9.53778 0.313689 -0.465041 0.183276 -0.665215
109 1.53908 9.45677 1.25103 -2.53851 0.402223 0.455571
78 2.39804 10.221 1.2775 1.80789 -0.776308 -1.19208
533 3.51206 9.83774 0.683181 0.458306 -3.79579 0.0259593
663 4.60752 9.46492 0.763086 0.991302 0.250828 -0.824965
157 4.06321 10.5597 1.39262 -0.703468 -0.0365769 0.312635
777 3.87501 9.49483 1.60696 1.2127 -1.10264 0.250462
576 8.70067 9.68817 4.50036 3.05058 -0.420934 0.335741
852 5.5878 9.31204 1.64547 -0.560195 0.387515 0.177078
423 5.9292 9.05575 0.747946 0.657156 -0.932222 1.54625
414 5.71696 10.1068 0.387851 -0.589741 -2.05821 0.599199
14 7.18694 8.62962 0.827933 0.583335 -0.296488 0.0627581
690 6.70323 9.78138 0.988561 -1.49257 2.35157 0.225597
374 7.44061 9.60651 0.251918 1.36289 -2.1291 -1.49594
831 7.7617 9.5738 1.40745 0.144368 0.261668 -0.426326
361 5.94755 10.4899 1.32957 -0.617385 -0.602886 0.458324
709 7.1381 10.5017 1.55487 -1.58702 0.814436 2.02094
343 8.36533 10.4222 0.786223 -0.864571 1.46644 -0.4657
458 9.16397 9.55315 1.38602 -0.959198 -0.84238 -0.99109
560 10.2599 9.40749 0.924371 -0.381454 -1.18548 0.684056
387 10.2179 10.1239 1.69176 1.56415 0.622515 1.498
740 9.46869 9.69226 0.25489 0.596362 0.414864 1.35161
578 10.6683 6.17245 5.2769 0.657837 -0.447343 -1.65574
791 10.5268 8.79677 5.34322 0.5875 0.284956 -0.537553
90 0.475446 5.86165 2.18689 -0.945851 1.85417 -0.568013
846 1.83809 6.04661 2.60708 -0.0087528 1.26853 0.205671
847 0.714622 6.02401 3.18146 1.05225 -3.29977 1.34467
471 2.27 5.82073 3.49424 0.811006 0.880702 0.320275
62 3.1883 6.40991 2.77221 -0.198548 2.45149 0.826314
858 5.04264 7.0476 3.1363 -1.43877 2.5718 0.208134
351 5.95318 6.42811 2.44728 2.79163 0.548596 1.67264
579 6.56337 5.42498 3.38876 0.57028 -0.150142 1.01089
598 7.20964 6.43443 2.69083 1.14325 -0.34166 -0.825878
260 9.44949 9.29038 3.93658 0.155266 -0.38334 0.707668
210 8.33588 6.42384 2.83169 0.739209 0.413619 -1.5444
528 7.96338 7.29033 2.26388 1.77107 0.367005 -1.2336
822 9.54613 6.63079 2.15033 -1.31871 -0.768736 0.790288
809 9.91828 6.10093 2.95904 -0.25253 1.23551 -1.33647
434 0.541509 7.65957 2.53758 0.747395 -0.47814 0.222042
98 1.09366 8.41201 3.08954 0.957002 0.0638252 -0.641645
765 1.57923 8.71123 1.95534 -1.11092 0.0730018 -0.76601
529 1.63553 7.36888 2.48503 0.501208 1.31562 -1.71018
218 2.26488 8.1861 2.72624 0.135631 -2.43941 -1.44093
180 2.90989 8.56078 3.44605 0.474552 -0.854624 0.0033453
629 3.69455 7.5914 1.84919 0.611393 -0.935764 0.285967
12 4.85683 7.10321 2.06434 0.507254 -1.53807 0.100028
29 3.03212 8.90073 2.40964 -0.516583 1.40587 0.164896
129 3.93224 7.84624 2.90471 1.16222 0.826577 -2.02021
459 6.13025 7.42254 2.87528 -0.326205 -0.871661 1.15573
166 5.22308 8.15938 3.25158 0.62091 -0.877898 0.104078
105 6.90255 7.48987 2.12179 -0.527067 0.350477 -0.792128
148 7.6116 7.94162 2.97225 -0.550247 -2.06802 1.96776
485 6.84242 8.76095 2.82723 -0.435002 0.730361 -0.785727
616 7.33112 7.28488 3.69058 1.55496 -0.26184 -1.17904