ITEM: TIMESTEP
43000
ITEM: NUMBER OF ATOMS
864
ITEM: BOX BOUNDS pp pp pp
0.0000000000000000e+00 1.0726842421158810e+01
0.0000000000000000e+00 1.0726842421158810e+01
0.0000000000000000e+00 1.0726842421158810e+01
ITEM: ATOMS id x y z vx vy vz
371 1.02726 1.39287 0.452614 -0.736672 -0.896497 -2.65437
224 1.05446 1.01683 1.42581 1.27732 1.37223 -1.25053
417 0.158034 1.70314 1.01994 -0.992702 1.15896 0.727048
828 1.29917 0.278847 0.0758578 1.41602 0.821766 0.0392785
173 0.197718 0.25812 1.71739 0.988048 -1.03078 -0.874003
297 2.48352 1.07913 1.3144 -1.07206 -0.799493 -1.05957
70 2.14897 0.895804 0.269002 0.587083 -1.38245 -0.155836
842 3.19448 0.181723 0.0143651 -0.664874 0.296626 -0.383814
490 4.17125 0.523217 0.321077 0.19452 -1.49278 -1.47917
713 3.44565 0.457161 1.30673 0.891998 0.941068 -0.261476
864 4.99944 1.27743 1.26725 0.0421121 -0.227885 -0.155328
474 5.64958 1.26167 0.242185 -1.4084 -0.195517 -0.334375
379 6.17516 0.951638 1.30253 -0.381495 0.500144 -1.37551
743 6.72622 1.07205 0.424699 -0.171922 -0.110434 -0.238837
614 7.32368 0.222037 1.37195 0.297616 -2.2203 0.722078
26 7.46889 1.71161 1.6425 0.128368 0.0290158 0.558411
412 8.36271 0.430502 0.275097 -0.418539 -0.331693 -1.60746
363 8.14045 0.897924 1.35645 -0.132277 1.75224 1.16463
97 7.76094 1.74352 0.65339 0.170807 -1.36653 -0.557419
104 9.95687 1.06955 1.18606 -0.298049 -0.00213196 0.208689
547 9.46039 0.258697 0.59731 -0.146786 0.0128085 0.748132
465 0.0589915 2.71047 1.57653 1.18845 0.949918 -0.551498
161 1.16519 2.56895 0.557793 -0.468011 -0.389594 -1.07263
132 1.38057 3.02234 1.52813 -0.0905834 0.717297 0.850508
195 2.79737 1.80888 0.505322 2.29819 -0.355247 -1.7211
84 1.77285 1.9843 1.18925 -1.72541 1.04216 0.113243
674 2.52874 2.66791 1.16231 1.86901 1.43717 -1.18118
522 3.54432 2.58096 0.141589 -1.26454 -0.580686 -0.562436
657 3.77513 3.20596 0.997136 -0.773217 -0.972346 1.52923
396 4.34397 2.27928 0.840943 -1.90009 0.110964 0.390014
243 3.14617 1.81029 1.48877 1.22689 0.601443 -1.17953
365 5.43759 2.15816 0.64439 -0.79081 0.488029 -1.41198
480 5.89342 2.6837 1.43136 0.0202301 -0.444559 -2.10608
518 5.07994 3.42761 0.527155 -0.621398 1.07834 -3.44913
816 4.88163 3.38329 1.67163 0.383277 -0.0685416 1.23181
644 6.42206 1.94273 0.957461 -2.81234 0.92161 1.41639
77 7.20712 3.10334 1.1411 0.0848079 0.188738 0.562291
774 6.13795 3.08381 0.455267 -0.606055 -0.86847 0.1078
278 7.23651 2.52204 0.101255 0.1677 1.42123 0.849448
407 8.91023 3.11247 0.122831 -1.87814 -0.317676 2.55086
231 8.98308 1.80047 1.786 -1.42824 1.78991 0.758988
41 8.21885 2.46058 1.45964 0.653854 -1.0603 0.269784
51 9.07091 1.89123 0.00521253 -2.58541 -0.00540843 0.70031
595 10.7022 2.71535 0.542257 0.394503 -0.000548992 0.478909
5 9.26026 2.93513 1.48064 1.72881 0.306697 -0.130073
602 9.80985 2.14201 0.628392 -0.677937 -0.0228979 -1.08405
176 9.82734 3.50853 0.541026 0.53954 0.148005 2.49159
7 0.690411 3.68866 0.537353 -0.293486 -3.60289 1.25798
49 0.206857 5.03129 0.457621 0.517297 -0.321468 1.85043
559 1.81054 3.84033 0.42128 -0.674356 1.00418 0.126313
466 2.60714 3.80607 1.11692 -0.565909 0.368323 -0.493129
586 2.67394 4.71646 1.69943 -1.35585 0.828804 -1.56918
419 3.71457 4.44012 1.19958 -0.135583 -0.044842 1.03888
776 4.51066 5.19494 1.20132 -1.08113 -1.70528 1.90984
300 4.59655 4.71564 0.277079 0.378208 1.00344 -1.0791
102 6.46479 4.04838 0.526984 -1.17893 -0.461689 1.32567
138 7.00892 4.04618 1.69047 1.00266 -0.244385 -1.6366
139 7.4063 4.84713 0.417981 1.43358 -0.513752 0.035203
188 7.69756 3.91061 0.880147 0.529129 -0.889662 -1.92865
726 8.67225 3.59383 1.0398 -0.0406487 1.18778 -0.485359
855 8.44225 4.80008 0.857567 0.602958 0.127839 -1.72157
99 9.07461 4.52985 1.67446 -0.962836 -0.493545 0.210733
823 10.4631 4.16788 0.977082 0.739799 1.00547 -0.327909
468 9.57141 4.78519 0.576358 -1.88688 0.458692 -0.948115
455 10.4106 5.05705 1.53318 0.019494 -0.823623 -1.84735
36 0.257078 1.08481 2.44564 -0.341403 -1.22885 0.850334
167 1.30518 0.45076 2.30971 -0.876542 -1.31127 -0.721772
708 0.321267 1.22654 3.54503 0.385115 -0.17549 -1.10139
399 2.04183 0.0706045 3.11933 -0.015761 -0.420155 -1.40728
801 2.87669 1.46222 3.23518 1.0717 0.654866 -0.19141
252 1.66332 1.5081 2.34535 0.0515755 1.22493 0.723111
570 2.48831 0.785423 2.38452 -0.775203 -1.34308 1.27171
110 4.12133 1.72661 1.94317 -1.73416 -0.351197 -0.139849
600 3.24032 0.148776 3.36027 -0.358472 1.38004 -0.362561
44 3.56536 1.02986 2.47789 -0.73851 1.69218 -0.0637232
58 4.56898 0.922557 2.37187 0.201651 -0.631278 1.95302
111 4.26155 0.0407706 3.14997 1.06412 -0.282424 0.504041
234 3.35943 0.040327 2.34184 0.518169 3.00943 0.384343
542 5.29802 0.14825 3.17872 2.74037 -0.208456 0.0446817
296 5.72206 1.76327 2.00914 0.739117 -0.213759 -1.7946
106 5.72118 0.669781 2.40815 0.61219 -0.0323743 -0.170077
64 6.66296 1.14907 2.22188 1.25683 -1.77281 -0.636816
725 7.46562 1.48071 3.57539 0.943183 -0.842268 -0.200548
787 6.40494 1.6074 3.20512 -0.966734 0.641179 0.0777033
389 7.80393 0.792323 2.51243 -0.755939 -1.71652 -1.35575
550 8.77973 0.524145 2.07889 -0.370222 -0.977739 0.731875
615 10.0268 0.53948 2.38501 -1.17528 0.890888 0.700333
255 9.34862 1.41164 2.70773 -1.21725 -0.279093 -0.501278
121 10.0799 0.369207 3.48716 0.0307439 0.899979 0.619298
113 0.781488 2.47257 2.31286 -0.619135 -1.4564 1.23125
189 0.666998 2.39201 3.44858 0.412944 0.54694 -0.819977
741 2.53185 2.39349 2.45388 0.35126 -0.234881 -0.155079
281 1.68107 2.72586 3.02497 -1.34532 -1.85765 -1.44778
32 2.34938 3.31799 2.06738 -0.642984 1.31973 0.48347
265 1.92359 1.84295 3.3969 -2.08378 -2.06916 -0.876262
732 3.88585 2.94933 2.07429 1.6428 -0.518625 -1.18424
494 4.162 2.10623 2.88218 -0.492208 0.480012 -0.133667
546 3.51776 3.53951 2.8072 -0.706419 0.12683 1.44495
521 5.002 2.45301 2.4891 -3.03349 -0.337474 1.25334
688 5.76381 2.44893 3.16852 -0.457455 1.66722 -0.108576
587 5.6387 3.41694 2.60547 -0.137101 0.351135 0.0298385
131 4.69298 3.17119 3.09518 0.0838436 0.443176 -0.024654
115 7.11932 3.51921 3.46117 0.274927 -2.68321 -0.961798
216 6.62802 2.99029 2.26373 -0.118421 -0.618121 0.169783
257 7.47533 2.46269 3.19388 0.625059 -1.08214 0.156304
639 9.17901 2.5911 2.48604 0.511517 1.23898 0.592666
92 8.61339 1.98193 3.33953 1.26963 0.16322 0.634584
2 8.33531 2.98647 3.0489 1.35537 0.191327 -1.27696
74 7.74079 3.12307 2.27001 -1.38322 -3.49071 0.610094
191 9.99116 2.09867 1.82995 -1.62112 0.165297 2.01072
85 10.6133 3.25303 2.65208 1.28807 -0.187207 1.53608
10 10.3275 1.79833 2.94003 -0.784581 -0.108993 1.70341
555 0.434411 3.81312 1.82573 -0.772991 -1.03818 0.0336285
754 0.89657 4.77183 2.59012 1.07128 -0.430311 -0.521319
444 1.07919 3.66532 2.72816 1.06888 -0.267351 1.25253
248 0.239201 4.15519 3.2021 1.62904 -0.214778 -0.721576
61 1.61993 4.41132 1.82192 1.16639 1.33358 -0.453612
770 2.41798 4.03693 2.79899 -0.41139 0.337143 -0.259938
618 3.95674 5.09637 2.16014 -0.662676 -1.42233 -1.23795
426 3.23539 4.50744 3.14848 0.360613 0.418732 0.0181083
665 5.22087 5.11141 2.10039 -0.430696 -0.547116 -1.01233
452 5.85932 4.12654 1.90084 1.0289 -0.379027 0.106753
610 5.5139 4.48799 2.75866 -0.876438 -0.176977 2.13569
579 6.49692 5.36341 3.04322 0.0515044 1.35188 -0.582846
182 6.70632 4.15645 2.91667 1.21099 -0.155536 -0.960585
112 7.55232 4.60099 3.44078 -0.631447 1.01118 1.04548
418 9.07572 5.0637 2.83811 1.81532 -2.4291 -0.98437
274 8.31425 4.04616 2.34331 -0.135076 -0.867999 -0.00566648
596 8.34435 3.99384 3.49565 0.518824 -0.563097 1.39824
527 8.00262 4.89163 1.80042 -0.560704 -0.547216 1.01896
235 9.88841 3.69692 1.87314 0.632161 1.61544 1.19103
519 9.32081 3.93165 2.87972 0.621445 2.01468 -0.813942
746 10.1029 4.65411 2.45814 0.150118 1.25232 -0.369669
612 10.5453 5.16194 3.2575 -0.274892 -1.32049 -1.71492
654 0.309589 1.67729 5.18839 0.695737 -0.265292 -0.518111
192 1.19356 1.51165 4.26976 1.16103 -1.34005 -0.217435
583 1.50274 0.270406 4.29827 -0.389481 1.05601 -1.8335
123 0.540985 0.873214 4.54152 0.0544478 0.158866 -0.684262
682 2.03926 0.482262 5.24339 -1.00734 2.08674 -0.214808
244 1.71321 1.4653 5.28329 -0.6582 -0.429231 1.12712
319 2.53703 0.95409 4.1553 0.388071 -1.79216 1.41679
306 3.65164 0.286329 4.75792 -1.23047 -0.792502 -0.923255
273 3.70389 1.04398 3.80082 1.54131 0.12287 0.249769
758 4.34682 0.996349 4.70702 0.314791 -0.31539 0.865605
154 3.63656 1.7648 4.72515 0.00862812 1.48776 0.758751
554 4.80819 0.922582 3.64279 0.0798773 -0.0344649 -0.158272
857 5.38295 1.08859 4.95007 -0.735477 -0.460679 -0.917756
245 5.88286 1.75962 4.17874 -0.3964 -0.489658 -2.63562
251 6.50066 0.972959 4.79249 1.86672 -0.61214 -0.987828
589 6.14984 0.152952 3.89301 0.125584 -1.67411 1.11583
149 7.40877 0.613006 4.44412 0.0970337 1.14025 0.693172
236 9.07779 0.147829 3.58727 0.741776 -0.677052 0.629346
591 8.11087 0.61451 5.13563 0.731425 -0.156303 0.677113
37 8.75182 0.87803 4.28431 -1.42387 -1.75055 -0.724718
158 8.05227 1.66576 4.39346 0.265303 0.488576 -1.07326
718 9.24289 1.09919 5.32011 1.07894 0.53597 1.16275
429 10.5579 0.687996 5.27251 0.788339 -1.11124 0.197215
185 9.78103 0.832571 4.33671 0.425839 1.77072 -0.607052
82 1.26511 2.38485 5.01253 1.28277 0.501162 0.577097
310 0.320135 2.92177 4.77521 -0.530056 2.05652 0.566968
57 1.49997 2.58161 4.08547 0.131731 -0.319628 -0.0353415
288 1.43153 3.42231 4.91351 -2.24828 -1.14536 -0.073848
178 2.73499 2.61412 3.62805 0.586522 -0.104092 -0.412081
652 2.6297 2.55735 4.87109 0.825015 -0.958058 1.68524
198 4.08226 2.92958 3.92984 0.307775 1.20357 0.152844
181 4.23885 2.57034 5.11689 0.0597759 -0.213015 -1.34266
34 3.46005 3.31101 5.00027 0.769716 0.197152 0.504792
215 4.70871 1.94983 4.2083 0.75366 -0.888264 -1.22034
322 4.78013 3.55535 5.1753 0.0746278 0.414227 -1.11597
13 5.5322 2.63667 5.18493 0.0883808 -1.23873 -1.40262
103 5.39019 2.93585 4.05716 -1.24901 -0.682913 0.929207
203 6.35303 1.98044 5.3181 -0.386315 -0.452187 -0.195237
633 6.31355 3.17566 4.73188 -0.0109678 -1.43133 -0.417087
400 6.57126 2.48119 3.95549 -1.02563 -1.94067 1.46024
807 7.56317 2.53477 4.62403 -0.0474287 -0.292016 1.21838
184 7.40409 3.28202 5.35522 2.47395 0.544309 0.552119
348 9.06601 3.52781 4.73003 -0.611455 0.599256 -0.144736
721 9.09139 2.4388 5.16659 -1.222 -0.774363 -2.69972
241 8.07476 3.30539 4.26964 -0.136958 0.487054 -0.753802
237 9.16442 2.95796 3.79235 0.272969 -0.420257 0.41939
202 10.4874 2.8854 3.84607 -0.184843 -1.58117 0.184074
76 10.6322 1.96611 4.34295 -0.416051 1.55141 1.05375
734 9.45377 1.83198 4.25667 1.40018 0.127647 0.842474
737 9.89467 2.75697 4.57653 0.282466 -0.119338 -0.314337
621 0.677102 5.05893 5.32917 -0.904182 -0.0490427 0.39157
174 0.454401 4.99226 4.05244 0.407745 0.314826 0.328882
526 0.224188 4.24852 4.71562 -0.259323 0.661361 1.90184
484 0.846591 3.76109 3.94097 0.0768093 0.0583865 -1.11221
538 1.34418 4.58504 4.62765 -0.145497 0.471702 -0.455618
312 2.53437 4.49643 4.80954 0.224361 0.626248 1.13276
436 2.94425 3.82223 4.03103 1.00256 0.921055 -0.513503
40 2.38383 4.74109 3.71362 -1.31215 0.666544 -0.545452
179 4.0357 4.07591 3.68465 1.15461 1.66911 0.335112
217 3.46192 5.2881 4.76471 0.477241 -0.0424521 0.507315
226 4.0609 4.31497 4.8798 -1.25471 -0.797218 -0.426724
672 6.06395 3.70249 3.69703 -1.03971 -0.0526383 -1.10852
204 5.03923 4.05193 3.77248 -0.814098 -0.626371 0.573078
327 7.12092 3.85886 4.46096 0.614874 0.867899 0.367672
684 6.39461 4.6355 4.01711 0.673567 0.913308 -0.156653
640 7.0964 4.86032 5.02236 -4.03127 1.74779 -0.670206
190 6.17262 4.26438 4.98819 1.14064 1.6487 1.5882
354 9.04405 4.85481 4.86244 -0.855814 0.402988 -0.741686
135 8.0734 4.54173 4.68769 -1.78596 -0.484091 1.22261
573 9.52197 4.62461 3.62705 -0.64369 -1.03452 1.69593
479 10.0531 4.05796 4.39961 -1.38085 -0.233615 -0.0133938
367 1.32221 0.782716 6.71874 1.33756 -1.03634 -0.183432
277 0.697723 1.18621 6.03554 -0.265664 1.11711 0.500553
439 1.03605 0.291516 5.57872 1.31735 -0.955794 -0.0244887
256 0.148609 0.0242252 6.22128 -1.13842 -0.640269 1.15182
275 2.28514 1.05328 6.14696 -0.0498467 1.17252 1.25482
381 3.239 1.17773 5.58825 -1.00075 -0.185849 -0.524379
228 4.28221 0.491697 5.65568 -0.653878 -2.18096 -0.148178
824 4.27789 1.47066 6.58235 -0.732341 1.37035 -0.384627
437 3.16894 1.32784 6.78524 0.200104 0.200568 -0.92172
729 3.1301 0.239577 6.6742 -0.595724 -1.28091 -1.37572
751 4.98878 1.75688 5.72601 0.155149 0.232983 0.80148
797 5.59697 0.461691 5.85901 1.48433 -1.26664 -0.0551593
254 5.69043 0.0699034 7.10261 0.908181 0.710202 0.802632
820 5.20638 1.10132 6.74491 -1.53588 -0.233876 -0.1246
212 7.06603 0.639167 5.60781 -1.04446 -0.475628 1.03098
736 6.29698 1.10982 6.86401 0.228784 0.260569 -0.97632
475 6.95381 1.78521 6.67934 0.806142 0.592306 0.0613291
641 7.24616 0.274437 7.08871 0.19891 -0.672904 0.265926
790 8.95442 0.553169 6.10893 -0.644991 1.29535 -2.01976
706 8.00736 0.9635 6.37751 0.484863 0.373683 -1.12806
655 8.19339 1.55485 5.4746 0.722133 -0.840752 1.43926
332 9.83727 0.295389 6.51686 -0.663287 -0.10945 -0.646864
362 10.0358 1.30748 5.90205 2.88588 0.539132 0.172703
626 10.3554 1.14199 6.99651 -0.705862 -1.13993 -1.00762
699 9.73591 0.142954 5.41188 0.527036 1.3153 0.0732265
786 9.2788 1.75228 6.42324 -0.664043 1.75951 1.14012
127 0.780449 1.83235 6.99298 -0.436236 -0.421105 0.365884
631 0.405142 2.88019 6.83254 -1.28442 -0.787951 0.164164
325 1.45407 2.6791 6.97968 -0.890888 1.20892 0.50753
315 0.635039 3.07095 5.74755 1.67947 -1.43345 0.850452
171 1.54598 1.91746 6.26303 0.359201 0.2449 1.41999
337 2.5775 1.97363 5.68791 -0.256964 -1.70164 1.01468
223 1.8498 2.78139 5.87611 -0.382722 0.159733 2.13935
214 2.89509 2.96953 6.01415 -0.978838 -2.91388 -1.39829
320 2.9218 2.35656 6.76314 -0.432519 2.05589 -0.86568
422 3.64009 2.12558 5.8997 1.06574 0.275999 -1.42672
727 3.93575 2.88479 6.86508 -0.650299 -0.863019 -0.974132
156 4.08572 3.22462 5.90559 0.188544 -0.458622 1.51837
376 5.51451 3.18787 7.05897 -0.781699 0.951548 0.0493603
843 5.85152 2.06295 6.36312 0.464818 -0.985389 0.0171385
763 5.01627 2.54312 6.37559 0.345201 -0.486693 2.54262
87 5.5279 3.55967 6.01966 -0.341935 -0.0783639 -1.96997
352 6.55188 2.58415 7.01301 -0.287032 -0.350844 -1.24085
335 6.27728 2.86583 5.89578 0.175004 0.561978 0.544932
53 7.34473 3.28289 6.45639 -1.80678 0.570562 -0.242614
756 7.99614 2.40152 6.03035 0.4728 -1.74868 0.44975
388 8.90805 2.85393 6.46316 -1.25942 1.37 1.05607
220 10.3047 2.14487 6.56982 1.47277 0.58096 0.240596
789 10.0951 2.6395 5.66866 -0.334651 -0.277225 -0.772138
72 10.3421 3.51432 6.47715 -1.00115 -0.606439 -1.38481
359 0.33384 4.24429 5.91352 0.212976 -0.305104 -1.01079
170 0.290298 4.72295 6.98662 0.18501 0.156403 0.0214645
442 1.54836 4.46882 5.74943 0.400366 -1.02178 0.151962
435 1.91632 3.79432 6.79179 -0.385824 1.62812 -0.946756
611 2.159 4.92355 6.55734 -1.08966 0.934781 0.550434
794 2.61551 5.277 5.47228 1.65243 -0.499165 1.44359
318 3.65494 4.29691 6.15765 0.103981 -0.790793 -0.733772
512 4.12541 3.95192 7.04019 -1.04419 0.895339 -0.033535
89 4.0801 5.18276 7.03175 -0.197783 -0.187546 0.969434
45 4.68513 4.77244 6.25728 -0.574053 1.58427 -0.198146
294 6.25413 3.90315 7.12349 -1.42551 -0.147152 1.01926
788 6.57708 3.8694 5.9701 0.456137 2.01957 -0.342116
594 7.63982 4.21743 6.0826 -0.128709 -0.883809 0.146437
567 6.50238 4.90616 6.35946 1.81917 0.17601 1.45723
592 8.80533 4.76521 5.98436 0.66754 -1.58423 1.96098
27 8.96363 4.29452 6.9609 -1.91 -0.931431 1.21776
813 7.74126 4.40582 7.08343 -0.81238 -1.51254 0.365284
601 7.99113 5.253 5.4877 0.668968 -1.56348 0.233057
738 8.69582 5.23572 6.91859 1.60435 -1.10951 0.00306129
336 8.419 3.94826 5.43425 0.60838 -0.222032 0.599048
205 9.38905 3.74932 5.96865 0.590523 0.190888 -1.69929
645 9.94125 4.59107 6.48974 0.214286 0.0405146 -0.370893
669 10.1916 4.68823 5.4616 1.33711 -1.10649 0.288357
450 10.3426 3.61736 5.40216 -0.902712 -0.593455 -1.44601
239 0.49321 1.09543 7.6076 -1.18119 -0.0205722 -0.0631225
505 0.537223 0.505075 8.56658 -1.67172 0.40645 -0.690585
261 1.37575 0.403222 7.7147 0.214065 2.0527 2.00982
79 2.34378 0.732841 7.18138 0.614551 -0.336806 0.951881
767 1.6083 0.661736 8.87245 -0.859361 -1.24588 -0.507447
517 2.08608 1.70145 7.3622 0.0585559 -1.75536 -1.24965
55 2.43877 1.27383 8.36613 0.558962 -0.976539 -0.118922
250 2.24336 0.0695841 8.23535 0.580256 0.184775 0.629672
685 4.18275 0.624959 7.18713 0.751068 1.22846 -1.69512
298 3.13995 0.28586 7.85039 0.948427 0.110821 -0.0133269
832 4.06943 0.496358 8.55845 1.34037 -0.417249 -0.190985
368 3.72661 1.38661 8.03666 -0.41834 0.0247051 1.15319
609 6.07456 1.31073 8.42651 0.575026 0.909969 -0.026423
1 5.05604 0.966845 8.26335 0.247704 -3.04761 -0.615818
502 6.59921 0.275858 8.09179 1.89302 2.8221 1.01015
837 7.62363 0.772491 7.96414 -0.849487 0.158072 1.03029
863 8.55894 0.114047 7.43829 0.0487036 1.9106 0.93849
715 8.95011 1.40228 8.27701 0.178872 -0.0552566 -0.55974
355 7.99581 0.0596285 8.58492 -0.832431 -1.24151 -0.392272
238 10.304 0.471105 8.07201 -0.606762 1.60465 -0.0613409
25 9.41547 0.826658 7.37705 -0.715886 0.893867 -0.272734
385 10.1457 1.47699 8.40213 -0.604458 0.292851 -1.8795
18 9.22202 0.136699 8.19403 0.563564 0.063051 -0.100706
266 0.817534 1.7908 8.28366 0.268318 -0.0369211 0.317822
290 0.718506 3.01003 7.80449 2.50132 -0.566752 0.685266
69 2.43675 2.94147 7.48904 0.0412315 -0.904177 0.0863157
673 1.63255 2.79972 8.44115 0.370476 -0.159972 0.94953
551 3.80003 2.43429 7.87475 -0.580319 -0.206388 1.2903
292 4.40402 1.97889 8.70108 2.15067 -0.664661 -0.612783
514 4.90601 1.9722 7.39742 0.636892 -1.31204 0.0418322
406 5.96135 2.32642 8.1599 -0.610624 1.64499 0.193433
803 4.77419 3.10667 7.93812 -0.597074 -0.0888512 -0.681212
169 6.95895 1.87694 7.67727 -0.279087 1.14765 0.352363
432 6.64734 2.82689 8.86103 0.211851 -0.285751 -0.349435
142 7.07554 3.38258 7.54062 -0.290866 -0.883202 -0.814422
124 8.59904 1.79194 7.31218 -0.654927 0.163036 -0.457825
438 8.16565 3.51802 7.30353 -0.706264 2.46593 -0.993709
483 7.83763 3.1614 8.29619 -0.923373 0.730616 -1.1686
473 7.80166 2.06844 8.36703 -0.18475 0.193145 -0.799906
209 7.82763 2.4607 7.23963 -2.08247 -1.44866 0.435436
735 8.8591 2.70161 7.94219 0.0540907 0.141072 -0.930895
854 9.64077 1.86814 7.45364 0.206221 1.09004 1.26728
369 10.6331 2.24 7.55797 0.684501 0.469802 -0.961073
670 10.714 2.40866 8.72232 -1.92088 -0.163576 0.934686
384 9.97477 2.83392 8.13474 -0.181375 -1.90615 -0.94878
810 9.68509 3.1011 7.21963 -0.0548293 -0.0380791 0.28056
680 9.41205 3.37442 8.91255 -1.3249 -0.671822 2.62399
792 9.3417 2.21493 8.85492 0.797996 -0.101429 1.92675
779 0.759103 3.9237 8.27795 -1.12891 0.73242 1.11435
286 1.20455 4.80019 7.83969 -0.42396 0.256567 1.05592
364 0.121297 4.72005 8.20437 0.992003 3.03116 2.39912
208 1.80311 3.69615 7.86399 -0.663074 -0.576839 -0.0524995
276 2.17056 4.62163 7.56999 -0.956294 -0.864994 0.824504
307 2.50655 3.85023 8.91491 -0.176189 0.0757679 -0.495658
316 3.14021 4.04566 7.4064 -1.60014 1.02386 0.255711
757 3.80844 4.85186 7.91601 -1.04503 0.857097 1.32116
17 4.58303 3.82636 8.66883 0.889978 -2.54245 -0.528978
825 4.52401 5.34156 8.69115 -1.24527 -0.373794 0.689188
372 5.72989 3.91041 8.00517 -1.507 -1.65713 0.62201
581 4.84923 4.67118 7.99907 -0.622082 0.110017 -0.4506
424 5.86834 4.77975 8.68841 -1.13681 1.06732 -0.463633
344 5.89783 4.9913 7.62195 -1.71314 0.38974 -0.395775
781 5.20557 4.12439 7.15133 0.283536 -0.168994 0.667392
145 6.90013 4.90158 8.07931 -0.545487 -0.0133128 -0.480817
350 7.60344 4.12505 8.50474 -2.31652 -1.8333 0.135516
415 6.60545 3.88002 8.44007 0.33142 1.57867 0.357398
577 8.53406 3.90338 8.82762 2.00389 1.53798 2.38457
329 8.38393 4.81462 7.90364 0.358139 0.0249498 0.683139
93 10.6757 3.83578 7.48376 -0.173014 -0.0981453 -0.0460234
769 9.19896 3.79397 7.90928 0.409786 -2.70476 -0.554388
146 9.91684 4.74153 7.53886 1.64348 -1.83808 -0.794667
259 9.30092 4.69507 8.63782 0.494881 -1.3491 0.30178
219 1.04411 0.963297 9.74027 0.546751 -0.884296 0.169273
242 0.131576 0.796639 10.6107 0.310335 -0.266959 0.752074
21 2.12837 0.582536 10.0015 0.620289 -0.230996 -0.918619
295 2.91109 0.183577 9.18659 1.81309 0.336129 0.32012
8 2.04237 1.46711 9.35386 0.386224 0.600727 0.205071
416 3.17443 1.12205 10.0421 -1.17777 1.0305 0.978934
221 3.25127 1.24545 9.00758 -1.60395 -0.281568 0.373777
197 4.08389 1.59661 10.7018 -1.63787 0.0974556 0.719046
472 5.91532 0.497291 9.14482 -1.75727 -0.274736 -0.0808139
686 4.91039 0.414554 9.56412 0.030821 -0.792753 0.504579
405 4.88088 1.3822 10.0549 0.821426 -0.00325114 0.0354372
334 6.11129 0.25822 10.6886 1.0899 1.61633 1.41242
430 5.90909 1.02317 9.93373 -0.95415 -1.22224 0.743993
613 5.05378 0.205263 10.512 0.944838 -1.30498 0.272134
504 6.84785 0.548222 10.0398 0.727667 -0.428294 -1.54004
411 7.39609 1.5658 10.1126 -0.792978 -0.0557838 -0.206675
305 7.11579 0.337398 9.0249 0.71281 -2.10725 -0.459279
666 8.20648 1.06739 9.12673 1.49431 -0.181366 0.267991
28 7.85041 0.54553 9.96211 -0.634273 0.953687 -0.911329
845 8.97027 1.0217 10.0473 0.0127467 1.03953 -0.746757
117 9.94314 1.24914 10.5313 -0.198543 0.0349646 -0.0580055
377 10.6568 0.762135 9.53502 1.76971 1.01097 0.504968
638 9.82538 0.245208 10.2013 0.882654 -0.10174 -1.93743
386 9.49983 0.504452 9.18046 -0.918713 0.209696 -0.305072
392 0.0241645 1.8911 10.6118 0.667158 0.577703 -0.455179
524 0.415827 1.80023 9.48161 0.174144 -1.95482 -0.497239
366 0.70516 3.16664 9.18176 -0.897742 -0.674224 1.44939
482 0.657549 2.68761 10.3732 1.68398 2.45402 0.863703
606 2.99877 3.13672 10.0159 0.0209407 0.539926 -1.37687
313 1.58614 1.97403 10.3139 -0.393531 0.423224 -0.060491
177 1.95415 3.01484 9.40927 -1.42302 0.331655 0.384652
83 2.58698 2.04388 10.0809 -0.362943 -1.20307 -1.00782
196 2.16774 2.84271 10.6902 -0.307261 0.414769 -1.07901
391 3.21083 2.31673 8.96857 0.437851 -0.0940553 -0.270137
383 3.68681 3.37454 9.24982 -1.14342 -1.35011 -1.88193
556 3.75936 1.97092 9.7717 0.37755 1.47032 -0.826153
42 4.33149 3.39723 10.339 -0.834724 0.95709 0.975941
382 5.41876 2.8711 9.0903 0.489254 -1.26526 0.401933
160 4.65648 2.44562 10.5715 1.98102 -0.522797 2.11169
187 5.7917 1.8327 9.33014 1.66006 0.594718 1.56301
750 6.14992 3.2694 10.0388 1.38332 -0.352421 -0.516531
230 6.96301 1.86608 8.96732 0.683035 -0.252522 -0.305575
134 6.29951 2.09137 10.2418 0.08733 -0.763465 0.0493486
478 6.99986 2.71566 9.83796 1.4307 -0.476982 1.62755
431 7.30447 3.5287 10.7103 1.68644 -0.062681 0.18692
408 8.61501 1.92535 9.65513 -0.033404 -0.219834 -0.195326
289 8.44915 2.77452 9.04791 -0.438445 0.17027 0.0731793
829 8.05743 2.78526 10.0228 -0.826193 -0.181801 -0.986565
580 9.17983 2.78878 9.9649 0.706173 3.5931 -0.608125
283 10.1359 2.03576 9.78738 1.93124 -1.3466 1.16412
16 9.9467 2.80017 10.5686 0.0933708 -1.15587 0.108141
841 10.4226 2.99313 9.53058 -0.624127 -0.950565 0.964772
48 0.287976 4.91251 10.0945 -0.316874 -1.36569 0.113893
357 1.20336 4.5345 8.95647 -1.99097 -0.567867 -0.419755
648 0.197515 3.62728 10.18 0.137346 -0.63498 -0.623883
553 1.2239 3.60486 10.0871 0.204894 -2.44996 0.348134
445 0.0951686 4.18853 9.10911 -0.727394 -0.141235 -1.2076
799 1.36312 4.84888 10.1748 -1.28054 1.07341 -0.184939
141 2.07235 4.3941 9.61838 -1.32787 1.14376 2.43637
206 2.33986 4.63949 10.6955 0.320719 -2.15652 0.455466
397 3.37765 4.80808 10.2818 0.231668 1.40397 0.660001
68 3.5433 5.24446 9.30152 1.49156 1.47007 0.324201
541 4.20152 4.43318 9.54046 0.432382 0.5941 0.749212
100 5.76457 4.34409 10.3474 -0.584852 -0.108308 -0.731136
390 5.49502 3.87719 9.36435 0.0629217 -0.204138 0.93994
561 5.15846 4.86141 9.47449 1.30513 0.393329 -0.461369
860 7.01578 5.17989 9.14657 -0.555377 -0.432777 -2.20566
804 6.68755 5.32199 10.513 1.5503 0.520998 0.600316
451 6.86384 4.37964 10.1244 1.11554 -0.820389 -0.86399
428 7.173 3.65206 9.39254 -1.918 0.826402 -1.95075
341 8.85215 5.01542 9.69798 -0.672505 1.15612 -0.289579
557 8.16062 4.17848 10.6511 -0.849233 -0.482983 1.36015
33 7.82856 4.55801 9.59447 1.25394 -0.893805 0.455234
659 8.28779 5.19208 10.5633 0.542578 0.105492 -0.329705
264 9.10496 4.22989 10.6279 0.735407 0.842309 -1.09876
588 8.73911 3.70792 9.76769 -0.762549 -0.654715 -0.0545855
162 10.337 4.29395 10.627 0.0607648 0.515495 0.227251
393 9.78459 4.01717 9.70884 2.09644 0.332185 0.628195
453 9.83679 5.29448 9.81349 0.888439 -1.26737 0.773071
427 1.35521 6.25187 1.53922 -1.0379 -1.64309 0.612162
463 0.146328 6.29753 0.409702 -1.86053 -0.920372 0.679763
658 1.72899 5.60573 0.530968 -0.846122 -0.56088 0.141804
477 2.85257 6.29356 0.335763 0.219404 0.259189 -2.37265
694 2.42393 6.10929 1.47265 0.650883 1.60629 0.0746688
470 3.86007 6.26123 1.00095 0.16498 0.672627 0.688838
229 3.21187 5.3956 1.24789 0.326778 -0.780103 0.591891
60 4.31517 5.73376 0.272562 0.126569 0.338675 1.51758
462 4.18927 6.92047 0.349725 -0.205797 0.841485 -0.775868
63 5.57583 5.41067 0.696469 1.25678 -0.39291 -0.187295
380 5.04771 6.36967 0.796563 -1.05987 -1.79275 -0.288856
66 6.13127 5.3771 1.73683 -0.329628 0.692173 1.29607
812 6.14382 7.09991 1.58693 -0.746767 0.660709 2.97294
620 7.2406 6.42984 1.35512 -0.680953 -0.69358 -1.51778
409 7.81903 5.88909 0.309831 -0.204437 -0.471803 -0.219024
271 8.3244 6.69338 1.07379 0.754652 0.712298 0.567025
282 9.04843 5.72903 1.69723 -0.43441 -0.29053 -1.15626
822 9.04906 6.96914 1.73467 -1.68552 -1.62884 -1.13789
545 9.2567 6.38832 0.797581 -0.556079 1.42329 -0.0644174
840 10.1222 6.19498 1.43889 -0.664659 0.173752 1.93063
530 10.1071 5.5969 0.0771324 0.704683 -0.741484 -0.125061
101 0.631204 8.67011 0.00564528 -1.27487 -0.128742 0.198081
448 0.158284 7.65183 0.979209 0.614579 -0.545542 0.156078
739 1.47312 8.78822 0.824193 -0.567951 -0.832381 -0.718989
778 1.02635 7.20972 0.350731 -0.0254082 0.0186055 -1.47942
529 1.0785 7.21303 1.65139 -0.656158 -1.11518 0.0628881
413 1.92446 7.64149 0.977924 -2.24194 -0.52754 0.337997
232 2.91162 7.9936 1.3989 0.0205067 1.91179 1.18626
31 3.0182 7.36175 0.567468 -0.685178 2.2592 2.12168
3 2.30485 8.36753 0.00655832 -0.345101 0.684037 1.78459
574 3.06744 8.45031 0.525299 1.33997 0.631356 -2.65059
489 4.24076 8.27011 1.08045 0.535765 0.119182 -0.52167
629 3.89828 7.51776 1.64488 1.11156 0.965776 0.317877
679 4.11484 8.67725 0.116594 -1.05312 -1.19056 1.40983
534 5.10279 7.34356 1.21008 -0.261355 -2.52279 1.87554
460 5.56917 7.59568 0.0359971 0.039049 -0.713912 -0.136519
730 5.52028 8.39376 0.758712 -0.146719 2.0645 -2.44912
572 7.31881 7.51987 1.23244 -0.436556 -0.695888 -2.31205
47 6.83913 7.82269 0.174522 1.13269 1.28937 -0.674987
488 6.19712 8.17858 1.51244 0.771395 0.771332 0.0489946
811 7.63697 7.2372 0.333501 -0.182613 -0.929977 -0.566389
14 7.32587 8.73525 0.762916 0.838466 0.299625 1.03786
150 8.38131 8.456 0.548333 0.149651 -0.839316 -0.628301
172 8.75202 7.85402 1.40149 1.05727 0.0186416 -0.589
222 9.08384 7.54624 0.396193 -1.37017 -0.808659 -0.665474
143 8.69195 8.82996 1.6332 0.404676 -0.535476 1.28936
744 9.40515 8.87038 0.588076 0.0659708 0.818519 0.339519
213 9.83576 7.31334 1.06952 1.96099 -0.772682 -0.212977
560 10.5304 8.87258 0.797721 -0.914951 -0.844062 -0.730535
833 10.5448 7.67446 0.0186819 -0.0302071 -0.106926 -1.48512
246 0.35455 9.80299 0.836959 0.340205 -0.560051 -1.80532
569 0.484467 9.20603 1.58696 0.957547 1.98821 -0.0603497
262 0.949626 10.6475 1.01907 -0.260961 -2.21616 -0.251526
461 1.97242 10.5076 0.78641 0.0144368 0.894247 -0.911564
446 2.394 9.45846 0.384657 0.188597 1.30029 -0.350922
109 1.60244 9.6474 1.59219 1.06125 1.17882 1.23091
78 2.71081 9.95553 1.3481 -0.397132 0.0710394 0.5788
533 3.46273 9.30947 1.0188 -1.42067 0.183227 2.44506
157 3.82233 10.2243 1.613 -0.836208 0.263009 1.3267
395 4.54065 9.91759 0.225823 2.25903 -0.00254295 -0.546047
663 4.63913 9.27578 1.09737 1.18156 -0.849501 -0.470629
852 5.82447 9.34782 1.42946 -0.155959 0.534983 0.736699
35 5.14899 10.4233 0.916389 -1.05023 -0.198027 -0.222624
423 6.33724 8.96616 0.49807 1.058 0.749938 -1.12228
690 6.72225 10.1587 0.991127 -0.239553 -0.0158485 0.319411
717 6.85854 9.28859 1.65059 -0.961823 0.535529 0.335508
394 7.32809 10.6623 0.0318073 -1.24306 -0.527183 0.449645
374 7.76558 9.74927 0.263319 0.370799 1.58513 1.14405
831 7.70018 9.57155 1.20869 0.321355 1.49182 0.262404
343 8.26284 10.4476 1.19627 0.737307 -0.855898 0.992313
458 9.3823 9.52325 1.59898 0.559825 -0.441999 -0.144801
387 10.4433 9.96316 1.78748 1.06711 -0.702367 0.599558
740 9.46379 9.94643 0.673273 0.0321347 0.126638 -0.833968
492 10.4207 10.6851 0.891626 0.448798 0.889497 -0.989739
486 9.50817 10.6824 1.54399 0.770613 -1.0349 1.27799
90 0.508885 5.5571 2.10014 2.04672 1.16856 0.550124
847 1.46106 5.46053 3.15748 -0.823175 0.323227 0.444412
506 0.773528 6.50296 2.77374 -0.885449 -1.44124 -1.73478
793 2.55979 7.01296 1.85918 0.635492 1.45375 -0.724802
846 1.79975 6.50005 2.47427 -0.908733 -0.88561 0.590566
62 2.70258 6.86636 2.98292 -1.11072 -0.379954 1.33192
284 2.91202 5.69084 2.34832 -0.0633541 -0.0336167 -1.24775
440 1.89926 5.50475 2.16588 -1.04931 -0.420923 -0.0867994
43 3.53134 6.49658 2.56195 -0.426088 0.476519 -0.354138
12 4.55726 6.81158 2.01305 0.311277 -0.338357 -0.282387
65 4.45579 5.64119 3.45293 -0.477323 1.13694 0.425801
443 5.61979 6.31271 1.83182 -2.0311 -1.79454 0.311574
338 5.46756 5.81231 3.15728 1.21095 1.34938 -2.29867
351 6.35222 6.25097 2.54545 -0.492022 -0.0461298 0.766349
598 7.31675 6.49009 2.93482 -2.23281 -0.251605 -0.068212
46 7.48995 5.40834 2.55459 -0.0293951 0.575698 -0.169508
280 6.25089 6.54141 3.53081 -0.166262 0.0855986 1.03718
210 8.16742 6.17374 2.08581 0.484758 -1.30565 1.42285
186 8.92621 7.08665 2.82873 -0.0301993 -0.944763 -0.190271
201 8.19314 5.83269 3.14272 -0.240613 -0.590494 0.550401
809 9.94593 5.86859 2.69041 -0.93179 0.868137 -1.5069
508 9.9591 7.12705 3.00236 0.314294 1.50835 1.14769
434 0.587985 7.57508 2.72393 -1.12593 0.461184 -0.184628
98 1.41572 8.28497 2.81759 -0.986403 0.529519 -0.627318
765 0.816271 8.25986 1.84792 -0.424985 0.578475 0.690307
509 0.58847 8.93144 2.66353 0.0370312 1.55361 1.16431
218 2.4145 8.45438 2.44881 -0.729638 0.69812 0.73718
75 1.63595 7.18126 3.42696 -0.966891 -1.10999 -2.61453
129 3.83799 8.34533 2.6821 -2.595 0.731223 -1.96426
780 3.88244 7.38508 3.43208 -0.972589 0.158825 -0.499154
702 3.13919 7.63798 2.46824 0.67305 1.25927 -0.608263