ITEM: TIMESTEP
47220
ITEM: NUMBER OF ATOMS
864
ITEM: BOX BOUNDS pp pp pp
0.0000000000000000e+00 1.0726842421158810e+01
0.0000000000000000e+00 1.0726842421158810e+01
0.0000000000000000e+00 1.0726842421158810e+01
ITEM: ATOMS id x y z vx vy vz
242 0.365133 0.410302 0.974177 1.03424 0.870586 -0.615321
264 7.94959 4.52071 0.141056 -0.0815942 1.25454 1.16798
313 0.317801 1.58605 1.23622 1.00433 1.58143 -1.18279
262 1.35061 0.011388 0.804539 0.312268 -0.363445 -1.20281
371 2.07679 1.10646 1.12328 0.0963717 1.27539 0.304037
78 2.30242 0.114527 1.3175 -1.41302 0.529785 0.228899
461 3.43349 1.22868 0.590876 -0.424632 1.22635 -0.112725
405 4.56881 1.52012 0.159279 0.300163 -0.0336942 0.949442
396 3.63895 1.69632 1.68303 0.510847 2.26088 -0.0334567
197 4.51341 1.08271 1.2375 -0.629535 -0.266262 0.140867
423 4.90749 0.172292 0.846071 -0.563788 -0.0351607 -0.357666
334 7.25557 1.47745 0.0675192 0.557097 -0.00429346 -1.26493
614 6.6877 0.650435 1.21728 -0.687163 0.275597 -0.316687
418 8.30674 5.2295 2.84208 0.274976 -0.164158 -0.806338
97 8.39275 1.68047 0.960962 -0.522838 0.43825 -0.341635
394 8.08314 0.851459 1.46891 -2.53356 1.02109 1.3167
492 10.0514 0.369782 0.348827 -1.0774 1.28604 0.875713
363 9.61189 0.684519 1.39046 0.0602488 -0.782886 -1.22031
845 10.1869 1.43409 0.383148 1.05986 0.6466 -0.854153
64 9.15148 1.3898 0.0224114 -1.35212 0.274196 0.0253891
195 1.63951 2.03276 0.635358 0.314212 0.351175 -0.216898
466 1.54353 3.01944 0.0956187 -0.0924185 0.151704 0.872734
559 0.382991 2.65069 0.887107 0.138438 -1.40829 -1.11564
546 1.98664 3.09117 1.09845 0.0116471 -1.2999 -0.323459
570 2.63284 1.95541 1.60761 1.0942 1.42429 0.670305
271 8.36737 5.20527 0.89764 1.43699 -0.649455 -0.52608
842 2.57701 1.75961 0.255248 1.85197 -0.505242 -0.0739639
42 4.42813 2.65309 0.219887 -1.01951 -1.23999 -0.362149
732 3.11695 3.36725 0.859324 -0.649917 0.108088 -1.24569
416 3.48633 2.4317 0.982082 0.0747807 -0.743456 -1.36186
674 4.26077 3.37936 1.22699 -1.86106 -1.49119 0.426805
522 4.77476 2.2133 1.00883 0.196543 0.0165164 0.867727
602 8.99962 0.0498599 2.145 -1.64891 1.22565 0.6646
474 6.32567 1.2761 0.618302 1.2764 -1.78399 -0.909755
274 6.02408 2.72543 0.691011 1.1909 0.136619 -2.50951
379 7.64309 2.0417 1.72536 0.888777 -0.253112 0.89972
160 6.88102 2.82252 1.15804 -0.739273 -0.641573 -1.93302
774 7.00333 2.50233 0.114297 -0.0399274 0.440818 -0.522625
278 7.78195 3.05344 0.79874 0.00526501 0.0252665 0.71019
407 8.70735 2.59456 0.401723 0.866368 -1.44846 -0.347073
41 8.57156 2.78939 1.52799 0.833479 -0.694468 -0.436957
648 10.0555 3.78092 0.777883 -1.38835 -0.275572 -1.49812
595 10.2734 2.87398 1.70542 -1.50951 0.875831 0.358153
235 9.19243 3.65815 1.79397 0.787072 0.363879 1.43252
16 9.77604 2.58185 0.773595 -0.10418 0.233156 1.4714
553 0.280232 3.54607 0.191127 -2.32281 0.0062895 -0.114388
815 1.55675 4.57777 0.675865 -1.37415 0.337067 1.66645
132 0.173262 4.45983 0.740548 -0.516649 2.27437 0.0926713
49 2.18231 4.40802 1.44002 1.8279 0.426084 1.47468
586 2.2986 4.01851 0.387512 -0.821164 -0.332424 -1.50686
694 2.62882 5.19048 0.781476 -0.997772 -0.0985127 -0.451299
419 3.29322 4.51984 0.457461 0.11586 -0.0365425 -2.55186
618 4.30763 4.48416 1.38412 -0.497578 1.10084 0.3063
60 4.66468 5.17285 0.553605 -0.161691 0.623051 0.990668
306 4.9415 0.0485979 3.91288 1.12553 0.57317 0.600616
657 5.25002 3.69951 1.13433 -1.47166 0.419273 -0.778786
380 5.58466 4.50662 0.229497 0.0601997 -0.757946 0.332147
139 6.42247 3.78443 0.350418 0.200527 -0.798273 0.674132
210 6.96265 5.02297 1.016 -0.502617 0.717899 -0.941555
482 1.2674 1.15015 0.335942 -0.679899 2.04095 2.86026
393 8.91179 3.697 0.46887 -0.156726 -0.157262 -1.73134
5 7.7652 4.32093 1.24211 -0.719981 -0.593814 1.63377
176 9.02677 4.4857 1.12475 0.825489 0.0233025 -0.613265
468 9.12836 4.80594 0.110249 -2.19195 0.603398 1.22764
374 8.81946 0.107557 0.821749 0.843531 0.466705 1.07336
645 10.7265 4.79752 5.23437 -0.765656 -0.506402 -1.38798
161 0.757978 1.1446 1.98533 0.132254 0.611362 -1.1483
252 1.09161 1.33789 3.03346 -0.204441 1.88101 0.737008
121 0.428373 0.391378 2.73886 0.40541 0.110512 1.26864
265 1.57254 0.507768 3.14039 0.813469 -0.861986 -0.573493
32 2.03761 1.30064 2.26255 -1.37581 -1.50875 0.333694
224 1.46416 0.438978 1.97768 -0.686295 -1.14048 -1.09924
297 2.91684 0.712379 1.91385 -0.440082 0.249991 -0.134948
801 2.62678 0.657291 3.04406 0.81597 -1.03047 -0.795219
57 2.19136 1.46891 3.65838 1.10935 -1.85452 0.675666
713 3.67733 0.0367519 1.92836 -0.00512613 -0.318423 -0.063933
273 3.75815 0.907798 2.50064 -0.816255 -0.971023 -0.947267
215 4.21458 0.185251 2.90641 0.0876957 -0.763706 -0.373382
157 4.61407 1.41785 2.9098 -1.68567 0.616793 1.01724
296 5.51782 0.71201 1.56598 -0.42065 1.39968 -2.27496
587 5.68262 1.15674 2.81712 -3.14002 -1.77263 -0.855725
44 5.47394 0.162411 2.70066 0.913768 -0.957252 -0.727193
717 6.31895 1.37616 1.991 0.744038 1.08994 0.100898
624 8.0091 0.698573 0.220397 1.64069 -0.672994 2.5918
709 6.67801 0.630063 2.95681 -0.0321526 -0.944963 -0.54427
521 7.34389 1.60071 3.42368 -0.87667 -0.062843 -0.300922
236 9.04705 0.352178 3.40558 0.104946 -0.995518 0.101776
77 8.77892 1.54295 1.93029 0.115207 0.916518 -1.51338
550 8.10283 0.875842 3.44512 -1.16976 -0.522416 0.134628
389 8.04987 0.933574 2.41059 -0.209195 1.67201 0.513997
257 8.90405 1.73063 3.37766 -2.38666 0.371796 1.15853
549 10.4747 0.756686 1.85779 -0.22398 -0.923506 0.993925
123 9.93937 1.66918 3.5439 0.621159 0.945861 1.19674
417 9.3527 0.976299 2.69982 -0.501067 -0.201857 0.0607277
615 10.0382 0.275319 2.54252 0.116834 -0.596433 -1.13789
84 1.10931 2.21909 1.63013 -0.48561 -0.359927 -1.15985
113 0.132754 2.00375 2.15802 0.916248 0.134375 -0.725289
281 0.321223 3.4383 2.23281 0.63122 0.258075 -1.36337
741 0.858599 2.5621 2.82313 -0.0294175 -0.119724 -1.70418
436 0.747113 3.61075 3.22699 1.68545 1.96469 1.15267
178 1.91704 2.68449 3.32604 0.161681 0.375011 -1.47159
103 1.87932 2.97852 2.22232 1.40776 -0.932128 0.972414
630 2.42441 2.30938 2.58372 -0.275343 0.340086 -0.785451
365 3.51933 2.09042 2.66742 -1.10163 0.443617 1.00255
243 3.6176 2.87221 1.84076 -0.622664 -0.384599 0.333647
179 3.60326 3.37461 3.40092 -0.418633 0.288572 0.304252
480 5.74535 2.25544 1.60184 -0.766143 -1.43283 1.63614
188 6.02895 3.38024 1.71541 -0.584144 0.840935 0.0768359
776 4.66981 2.70923 2.02635 -1.18905 -2.29833 0.0315077
204 4.95457 2.43239 3.04802 -0.936986 1.42885 1.50204
138 6.01322 2.85059 2.68797 0.466585 -1.03272 -0.704902
102 6.48446 2.04022 2.93121 -0.227955 1.15536 0.999476
216 7.05894 2.98043 3.73889 0.347307 -0.135246 1.07085
231 7.43496 3.09614 2.46496 -0.422416 1.53919 0.929462
787 8.17324 2.43344 3.03697 -0.866206 1.90055 -0.617368
117 8.95832 2.65894 2.46639 0.18741 -0.96105 -1.67853
547 9.95562 1.57472 1.83914 1.39703 -0.368217 -1.75633
465 9.92371 2.44398 2.68127 -1.13448 0.972401 0.220494
639 9.83459 3.58091 2.59375 -1.16532 -1.18127 -0.757995
191 9.21691 3.10797 3.74866 0.869731 0.498153 0.321125
36 10.3132 3.10976 3.51894 0.582082 -0.199002 1.02946
65 1.2589 4.77321 2.04523 0.399196 -1.36844 -0.768677
40 0.475819 5.20783 3.01173 -1.29976 0.481848 -0.505845
440 1.24699 3.74917 2.11692 0.893598 -0.304384 -0.446189
555 10.6182 4.15486 2.77758 0.639851 2.02208 0.562665
131 2.82777 3.53863 1.97345 0.670115 -0.638228 0.458715
61 1.67693 3.84472 3.68748 -0.638817 0.16294 2.57617
284 3.21801 4.34356 2.8865 1.03276 1.54188 -0.50085
816 2.62257 5.12507 2.18719 0.464093 -1.01518 -0.241964
742 1.37354 4.78163 3.15321 -1.25949 -0.595529 1.86268
665 4.04423 3.85626 2.30955 0.15983 -0.258071 0.133949
182 4.14829 4.23636 3.32715 -0.370853 -0.334386 -1.08598
669 10.1912 4.46829 4.50198 0.944793 -1.67779 0.183009
452 5.20799 4.7764 2.02276 0.0859962 0.756005 -0.758429
579 5.25559 5.22983 2.98804 -0.907479 0.703523 -1.23483
610 5.19729 3.73353 2.47814 1.26616 0.819568 -0.0209116
66 6.97169 4.05801 1.82021 0.842243 1.5506 -0.0914635
112 6.15397 5.0109 2.7116 -0.617888 1.43544 -0.887349
46 7.22907 3.96253 3.32133 -2.39063 0.400344 -0.334109
201 7.3016 4.82433 2.61361 0.59475 0.433265 -0.312649
527 8.32695 4.38239 2.07887 -1.8607 0.13018 0.431734
519 8.95239 3.77794 3.02407 0.153742 0.882759 -1.62762
596 8.12981 4.40154 3.46692 0.424485 1.90202 0.158972
822 8.99245 5.19871 1.9902 0.606906 -0.815383 0.641523
99 10.1481 4.20008 1.78071 -0.55919 -0.678402 -0.203335
695 9.68677 4.84163 2.90613 -0.286782 -1.72537 0.979101
237 9.70582 4.14287 3.57833 -0.509482 -0.495166 0.191633
809 0.313225 4.81675 1.80135 1.0419 -0.734506 -0.536331
315 2.16702 4.34002 5.09244 -0.881656 0.658242 -1.22089
439 0.111588 0.653692 3.67673 -0.675136 0.42748 -0.762712
429 0.0511709 1.51538 4.30024 -0.0237039 -1.32771 -0.0613469
189 1.29474 0.958396 4.07716 0.138445 0.0764053 -0.274596
118 9.99465 0.0907516 3.68249 -1.4171 0.396691 -0.137673
381 2.43181 1.24312 4.77661 -0.985331 0.335514 -0.519595
682 2.29259 0.503057 3.98952 1.7074 0.628922 -0.134414
864 4.30003 0.879693 3.68525 -0.543498 0.29991 -0.851614
654 3.56185 0.179181 3.79251 0.195649 -1.75323 -2.41229
319 3.99121 1.69567 5.10848 1.0877 0.0648033 -0.42164
245 3.97716 0.206585 4.66042 0.405813 -0.645278 0.243989
494 3.42061 1.31781 3.36116 -0.145096 -1.19222 0.0146746
241 8.36177 4.50459 4.55838 0.568842 -1.41325 1.88881
688 5.64498 0.858242 3.90553 -0.949946 -1.72472 -0.435283
203 4.79495 0.87083 4.77992 -0.342516 -1.24923 1.65951
115 7.16667 0.743496 4.06605 -0.43436 -1.22287 0.303587
857 6.19326 0.93961 4.8472 -0.422468 -0.5094 1.86851
400 7.63892 0.0589927 5.12538 1.11728 0.11615 1.37079
696 7.98476 0.242695 4.21769 -1.66483 -0.196965 -0.334032
699 8.4016 1.22333 4.52589 -0.0919244 -0.00785676 -0.429006
734 0.112412 3.70033 5.34062 1.18628 0.551402 -0.203068
497 10.2846 0.549102 4.66303 0.826101 1.58954 -0.265202
282 7.89373 5.24292 1.86358 -0.0877434 -0.56324 -2.58943
255 9.43352 1.16568 4.47804 -1.37361 -1.12174 -0.670344
520 8.90902 0.281546 4.57185 0.613705 -0.00859353 1.03729
708 1.29506 2.17506 3.93937 0.132818 -0.735332 2.42271
85 0.501749 2.61112 4.21198 -1.70312 -0.838645 0.189627
275 1.23622 1.59506 4.85939 1.13026 -0.272064 0.397
37 0.115529 2.31044 5.26693 1.13017 2.44901 0.354657
652 2.32259 2.30669 4.49999 2.35733 -0.73063 0.798419
198 3.31919 2.42797 3.69729 0.78362 -0.911454 1.21679
34 1.86329 3.25667 4.6951 0.685402 0.104514 0.246615
154 4.48383 2.63553 3.97914 -0.222388 -0.331376 -1.48054
19 3.83485 2.71726 4.68805 -0.867897 -0.393248 0.71255
13 5.62699 3.23212 3.62061 1.10243 0.825277 -1.09884
181 4.89637 1.78878 4.34273 -0.210969 0.440634 -1.34254
87 4.92144 2.61389 5.14579 0.240715 2.1215 0.980261
843 5.93883 2.06022 5.19267 0.878583 0.41866 -1.03171
475 7.02742 1.72863 5.33614 -1.13329 0.578216 -0.461037
335 7.28726 3.18607 4.75698 0.440301 -0.939922 -2.56433
149 6.61197 2.1646 4.29363 -0.921737 0.0804018 1.33989
348 6.22233 3.26597 4.68614 -0.0475486 -0.945838 0.865363
26 8.27142 3.29902 4.1173 -1.44647 -0.693656 0.198026
92 9.12826 2.40883 4.58102 -1.03393 0.0878641 0.939476
573 8.56885 3.25507 5.26868 -0.763296 -0.292821 -0.0960073
2 7.7523 2.33341 4.20944 -0.619608 -1.65612 1.00056
655 8.24706 2.15681 5.20825 1.12052 0.372983 -0.570973
158 9.84739 3.28531 5.0438 0.0772661 -0.492488 0.745593
248 0.0247165 3.65858 4.23311 1.00992 0.311263 -0.966658
330 10.0857 2.40511 4.2939 -0.78665 -1.30194 1.11507
444 10.7059 4.50049 3.67777 0.531157 2.37569 0.197536
202 0.979004 3.48907 4.4327 0.480028 -0.955957 -1.79681
479 1.05003 4.14368 5.25942 -1.1999 -1.01776 0.44139
442 1.01272 4.51205 4.12438 0.0699116 1.51893 -0.0725312
752 1.06234 5.19343 5.12331 -0.267998 -0.816693 -0.887341
422 2.86886 3.53479 4.89523 -0.424695 -1.36025 -0.150315
426 2.8782 4.74782 4.02241 0.176527 0.41584 0.849
312 3.89177 4.88485 5.06567 -0.670725 1.64405 0.813487
770 3.70379 3.93533 4.34271 -1.13666 0.34306 0.885462
858 4.2788 5.28653 4.07864 0.0708866 -0.58675 1.89695
338 5.28088 4.45174 4.99575 -0.705533 -1.01508 -1.19755
672 4.80131 3.60517 4.42541 0.261387 1.89274 1.83238
788 5.6638 4.67913 4.03678 -0.963625 -2.38719 -0.551175
327 7.17714 5.23944 4.92474 -0.346525 -0.0741812 0.627831
633 6.38192 4.01272 4.00395 0.274862 -0.0272343 0.0357756
684 6.29054 4.52172 4.99091 0.123541 2.1119 -2.43589
135 6.60339 5.03772 3.75607 -0.823375 -0.0682606 0.086546
184 7.29175 4.13485 4.52393 -0.437423 0.410227 -1.1616
74 9.15387 3.86457 4.54716 0.558421 1.82805 1.57218
526 9.29986 4.8938 4.50339 1.57095 -1.03022 -1.65618
664 3.75289 5.30025 0.955203 0.0990211 -1.48039 -0.35772
409 6.83737 5.14002 0.0162135 0.745795 -1.75753 0.607473
818 0.0926723 1.4309 6.2875 -0.569172 0.964523 0.030472
247 1.13136 0.557487 6.69861 -0.375538 0.675529 -1.41306
806 0.0427728 0.319661 7.00144 0.484764 -2.19471 1.24466
503 1.61984 1.43014 5.94961 -0.351102 -1.58823 -0.759856
675 2.59189 0.429192 5.52514 0.98481 -0.656193 0.454421
79 2.26588 0.352047 6.7008 -1.32469 -1.31103 -0.325924
517 4.0037 1.48711 6.28013 3.7084 0.707042 0.289536
685 4.41172 0.58154 6.66089 1.4799 -2.03971 -0.547604
228 3.77557 0.834308 5.61686 -0.374889 0.329618 1.05356
820 5.63058 0.658933 6.1541 -0.889585 0.113294 -0.0636316
758 4.78815 0.100372 5.76789 1.25315 -1.89275 0.018149
1 5.61166 1.57311 7.09254 0.211834 -1.22334 0.953997
455 10.1648 4.94916 10.6561 1.39914 1.21911 -1.47802
706 7.508 0.99192 6.6748 0.778624 -0.424662 -0.279503
212 6.58151 0.735797 5.78584 0.694005 0.710722 -0.432878
641 6.68341 0.293761 6.88257 -2.14554 0.223043 0.397063
863 8.60448 0.157086 6.04095 0.182155 -1.58118 -0.13301
715 9.03226 0.84502 6.89503 -0.87919 -1.47611 0.183026
185 8.87131 1.04584 5.38262 0.61979 -0.145083 0.859932
626 9.81724 0.982693 6.26546 -2.83278 -0.396947 -0.770455
556 2.60153 3.13224 10.5553 0.0303169 0.719327 -0.622889
772 10.6975 0.30625 5.93316 -0.595632 3.13773 -1.48335
277 0.853698 2.09121 5.9807 1.21884 -1.56426 0.452652
310 0.711778 3.3534 6.29064 0.399624 1.20109 -0.655471
10 1.23915 2.89377 5.40228 0.274696 -0.0206286 -0.30684
171 1.60767 2.93067 6.77191 -0.198815 2.1026 -0.503896
320 2.7593 3.14076 5.85012 0.738754 0.777772 -0.96772
288 2.50698 3.48602 6.86706 -0.439759 -0.156003 -1.18632
244 2.95989 2.33345 6.76517 1.142 -0.42862 -0.554681
337 4.51848 2.58731 6.86852 -0.603723 -0.406093 0.526769
512 3.57495 3.56378 6.3897 -1.70652 1.4764 -1.08861
322 4.01074 2.6132 5.95799 -0.315441 1.05651 2.41503
824 4.97123 1.86623 5.90111 0.742885 -0.468979 0.328306
352 5.58431 2.85248 6.62549 -0.282671 1.37682 0.209389
763 5.70044 3.64676 5.67084 -0.657253 0.596217 -0.671474
751 6.40681 1.65225 6.15471 1.10716 -1.58558 0.438664
594 6.6295 3.17243 5.85715 -0.846833 0.658831 0.325103
209 7.01145 2.56174 6.78049 -0.810568 0.653856 -0.584439
124 7.57056 2.7333 5.77271 2.45215 0.421046 -1.6119
807 8.9983 3.03873 6.34643 0.0853242 1.8346 0.924272
756 7.96325 3.76195 6.36316 0.325337 0.204863 -0.0557181
735 8.08332 2.18647 6.75164 0.0248043 -0.39324 0.136574
718 9.4644 1.89546 6.90386 -0.479147 -1.305 1.22172
737 10.1447 3.87897 6.48742 0.491249 1.10142 0.656932
76 9.8032 2.57796 5.83668 -1.56858 1.27168 0.217097
344 4.9837 5.2059 7.50552 -0.271719 -0.331753 0.875632
431 7.35915 3.49179 10.6256 0.460724 -1.8081 -0.693138
359 1.2788 4.51429 6.18185 0.587644 -0.412756 0.769663
450 0.285068 4.47041 6.6804 0.721402 1.0461 0.479168
759 1.48852 5.14944 7.18496 0.136486 0.666189 -0.025417
82 1.8152 3.61444 5.99132 0.464864 -0.185121 0.154587
599 2.57224 4.54903 7.14261 -0.0169845 -1.80931 -0.616614
779 10.0474 4.07402 9.24484 0.503054 0.877269 -0.19642
190 4.78399 5.17273 6.49752 -0.240058 1.43045 -0.00483176
318 3.21003 4.37157 5.7338 -0.170767 -0.344447 1.70864
94 3.85097 4.84507 7.06222 0.581671 -0.573933 -0.330762
156 4.45351 3.61904 5.59055 -1.72811 -0.99955 -2.52879
89 4.43432 3.97283 7.00508 2.21981 0.173379 0.906366
781 5.48288 4.46688 6.14285 1.18862 0.515744 -0.11628
376 6.35478 3.67051 6.80646 -0.0611095 -0.21229 -0.0228783
794 2.14882 5.15311 6.04124 0.0686917 -1.82836 1.20896
438 7.07607 4.08881 5.74209 0.694723 1.18053 0.479927
483 6.9643 4.58517 6.7098 0.126859 -0.356098 0.298479
721 7.99926 4.46204 5.52343 0.346817 0.265951 0.605341
388 8.17621 4.81105 6.64133 0.973847 1.27126 0.94798
205 8.97679 4.02357 6.61164 -0.781682 -1.41855 0.662916
354 8.97918 4.34221 5.44159 0.524267 -0.69951 0.475359
592 10.0578 5.08797 6.21503 0.0894202 -1.94655 1.20112
518 5.66562 1.89032 10.6805 1.87908 -1.7205 -0.782988
705 0.473631 1.4805 7.47122 2.20903 2.28549 -1.33933
250 1.33993 1.9247 6.95966 -0.0206053 -0.908323 -0.494412
261 1.49783 1.52787 7.96227 -0.99551 1.19514 -1.07852
628 0.945262 0.652433 8.32051 0.658952 0.776184 -0.605508
767 1.96171 0.235749 8.09224 -1.12532 -0.734894 0.435665
55 2.55425 1.26278 7.61428 -0.0932755 -0.549895 -0.759497
219 2.25697 1.97773 8.82279 -0.220077 0.0858908 0.547991
391 3.63601 1.07134 7.29725 0.561459 -0.433858 -2.64357
437 4.72509 1.36721 8.68398 1.32516 -0.00374546 0.125277
83 3.61953 0.620166 8.45569 1.13238 0.191155 -0.338616
295 5.14183 0.409745 8.32568 -0.691436 0.851439 0.0657217
502 5.32433 0.516931 7.28335 -1.05817 0.820066 -2.16817
151 5.615 1.27159 8.05126 0.82428 0.764582 0.397914
686 6.11913 0.212211 7.8711 0.244387 -0.549912 -0.856468
736 7.06633 1.62962 7.47144 0.453335 -1.33204 0.942334
609 7.02356 0.629297 8.38014 -2.31542 1.65845 -0.175515
472 7.81056 0.0653134 7.3559 -0.0179351 -1.30169 -1.66753
837 8.22161 1.2476 7.56309 0.882501 0.737118 -0.0887152
408 8.58589 1.08813 8.75619 0.557438 -0.0884708 -0.252392
187 7.97831 0.27503 8.75904 -0.00966161 -0.868496 -1.70313
819 1.44309 0.0801763 10.4516 -0.432435 -0.409638 0.680497
239 10.1979 1.19776 7.20035 0.547558 0.782529 -0.0835407
332 10.428 1.02302 8.21853 0.572055 -0.538153 0.563071
854 9.32936 1.32692 7.90353 -0.465817 0.433871 -0.983584
367 0.606408 2.5656 7.36215 1.80027 0.506504 -1.84091
789 10.6459 3.4743 7.54788 -0.819727 -0.10765 0.222182
238 0.131242 1.93811 8.34277 -0.260212 -2.05184 -1.06031
631 10.4808 3.27804 8.70212 -1.67019 0.934721 1.67602
290 1.04777 2.57467 8.34369 -0.611139 -0.612935 -0.115906
673 1.46584 3.35364 7.99518 -0.358016 1.34237 0.526848
69 2.28576 2.38293 7.87338 -0.215059 -0.771454 1.21227
8 1.96793 2.85689 8.99393 -0.0295592 0.856602 1.74773
727 4.59224 3.15273 7.777 0.715225 1.71854 -1.04936
514 4.39793 1.9633 7.8657 -0.160259 -0.439592 0.0571353
325 3.50297 3.05407 7.40343 0.790428 -0.0359313 2.09378
551 3.11776 1.96243 8.29417 -0.696992 0.580366 1.33754
214 3.64135 3.50232 8.56891 1.01292 -0.0177345 0.877404
406 4.68838 2.3594 8.70231 0.840947 0.401884 -1.2024
432 5.55337 2.3848 7.87134 0.0542277 -0.949101 -1.00466
390 5.79369 3.20461 8.74257 0.645189 -0.197483 2.33216
803 6.53774 2.89005 7.85607 0.921197 1.23473 1.91136
169 7.62844 2.74302 7.70711 0.536461 1.31553 0.538197
478 7.08147 2.94738 8.68123 0.803869 -1.03236 1.25367
134 6.70369 2.01351 8.70038 -0.492951 -0.247614 -0.0832927
786 8.38371 3.46355 7.27788 0.580155 0.32127 0.6942
362 8.89479 2.58465 7.75078 -1.09015 0.904132 1.0071
810 8.23576 3.27925 8.55445 -0.391388 0.18483 0.550631
473 8.0967 2.18098 8.43902 0.06755 1.47612 -1.06158
384 9.09746 2.80107 8.73782 1.44446 0.692663 2.106
127 10.1973 2.66384 7.12603 0.0665378 1.40195 -0.87374
220 9.51556 3.53121 7.29032 0.2869 0.718624 -1.13934
369 9.93534 2.52883 8.12979 1.2042 0.260996 -1.72596
146 9.59151 3.79389 8.29128 0.194935 1.1555 -1.87123
72 0.97229 4.29546 7.34328 -0.259668 0.654327 -0.38243
170 0.538908 4.22485 8.54118 -0.134561 -0.92224 0.54918
317 1.30516 5.34483 8.95839 -0.94084 0.877999 0.252933
611 1.79676 4.49225 7.92653 -1.01366 0.287486 -1.26648
316 2.66067 3.54569 7.99108 -0.994795 -0.245067 -0.741443
650 3.09909 4.72851 8.01678 1.55934 -0.846556 1.00755
223 3.3804 4.00104 7.43814 -1.51494 1.33847 1.14497
383 4.37172 4.35405 8.05697 -0.362145 -1.13544 -0.293303
825 3.01812 4.3093 9.29448 -1.10382 0.800808 -0.0947285
372 4.77486 3.61296 8.64432 0.0609128 -0.862412 -0.00124127
581 5.54729 3.72225 7.90098 0.699492 -0.324571 -1.17367
145 5.58183 4.60591 7.10202 0.16905 -0.399786 -0.304889
561 5.37015 4.69242 8.46061 -0.134988 -1.18142 -1.15327
53 7.59785 4.08139 7.56252 1.34537 2.29193 -0.90734
860 7.09383 4.08138 8.828 0.188353 -0.502689 -0.167181
142 6.61238 4.01617 7.83071 1.34891 0.750893 -0.379196
428 6.53313 5.10163 7.98097 -0.62962 -0.457274 1.65147
350 7.44429 5.35541 7.63881 -1.652 0.387595 -1.01539
329 8.75047 5.10285 7.4835 -0.575333 1.52433 1.36169
289 7.8721 4.67466 8.45459 0.592518 -0.419156 0.460894
577 8.59654 4.23286 8.03182 -0.282933 0.0661384 -1.2263
27 9.73989 4.83423 7.45685 0.554117 -2.00584 0.391881
445 10.0781 4.98546 8.48255 -0.606511 -0.512108 0.717551
137 0.0421847 4.49999 7.73297 -0.909809 0.368387 0.228167
505 1.09196 0.999656 9.48825 0.292397 -0.113317 -1.9096
283 0.444614 0.622521 10.4312 1.18518 0.413299 -0.178923
196 0.51797 1.57853 10.2594 0.641135 -1.55023 -1.33077
256 10.2303 1.41625 5.38457 -1.0343 0.484297 -0.36528
21 3.04066 0.266381 9.35899 0.569499 2.38063 1.87812
828 2.62123 0.495379 10.5878 -1.24223 -1.38831 1.64844
392 2.75138 1.34877 9.43009 -0.124696 0.136751 -1.23886
433 2.04187 0.660579 9.26738 -0.468575 0.57866 0.435573
70 1.75498 1.61985 10.0402 0.396389 -0.314867 -0.330225
232 3.90756 0.262396 10.4939 1.08603 1.5826 1.72847
832 3.70344 2.11308 9.29242 -2.47531 1.70521 -0.554878
853 3.56757 1.22423 10.0344 1.53359 -0.731895 0.459009
613 5.31855 0.500673 10.4779 -0.370574 0.865156 0.963091
221 4.89861 0.141348 9.42398 -1.85487 -0.654571 -0.882712
411 6.41214 1.65398 9.9412 -1.42408 0.217876 0.304355
430 5.75907 1.042 9.11062 -1.96838 2.04847 -0.0955143
743 6.78212 0.595319 10.0401 -2.17826 0.0966393 1.1115
829 7.62556 1.59115 9.39775 0.0370724 1.0234 0.205283
412 9.15788 0.297463 10.3636 0.289336 -1.24269 0.398407
230 8.34889 0.793505 9.88153 1.19003 0.734683 -0.0746987
385 10.0324 1.72558 8.84791 0.500707 0.339025 -0.137379
28 9.5082 0.743728 9.17141 -0.276303 -0.0116095 -0.0376054
51 10.1614 1.26899 10.0931 0.148565 0.294062 -0.451105
386 0.0235312 0.943201 9.14245 0.583992 0.481689 -0.448591
208 0.758703 3.36725 9.1268 -0.957887 -1.04313 0.0183866
266 1.24039 1.97423 9.2155 0.542504 -0.131662 0.450923
524 0.564337 2.58368 10.1189 1.58518 -1.37918 0.499107
93 0.137271 2.37985 9.18867 -1.38055 -0.773898 -0.649475
757 2.84863 3.41149 9.63892 0.971522 -1.09219 -0.0751614
177 2.63182 2.42879 9.68996 -1.39268 0.136492 0.478234
368 3.43737 2.4033 10.5005 -0.228348 -0.516186 0.965518
606 4.14674 2.91014 9.78914 0.430307 -1.51539 0.0981977
292 5.66205 2.18963 8.9788 0.572934 -2.15725 -0.453034
17 4.78269 1.85713 9.76637 -1.37687 -1.11483 1.29895
382 5.92298 2.76538 10.3399 -0.518059 0.372956 2.97628
541 5.11506 3.15064 9.55861 -0.558476 0.878339 -0.0283516
557 7.33714 2.53968 9.71254 0.629466 0.368037 -0.375809
750 6.51916 3.23626 9.5664 -1.91336 0.20278 -1.38773
259 7.70539 3.41468 9.52546 0.186859 0.261933 -3.20741
588 8.17334 3.07278 10.3497 -0.168491 0.201823 -0.768535
580 8.68146 1.9975 9.4047 -0.689604 -2.46022 0.652535
680 8.92099 3.38346 9.61187 2.22029 0.349077 -0.0157856
644 8.26768 1.78916 10.3417 -0.325362 -0.173335 -0.974618
670 10.3955 2.37699 10.7126 0.671708 0.0201004 0.0356354
841 10.4053 3.19593 10.131 0.406382 -1.11516 0.291736
792 9.56136 2.63905 9.61012 -0.585194 0.389482 -0.99154
535 0.950336 4.89638 10.2295 0.850652 -0.246239 -0.478526
141 1.22498 3.81512 10.2434 -1.48399 -1.34973 0.252877
7 0.226486 5.01905 9.21409 -0.481522 -0.616389 0.140716
366 0.23387 4.1626 9.91243 -1.22662 -0.490466 -0.0870629
799 1.25925 4.4131 9.34234 0.649 -0.0341727 -0.441403
435 1.95668 3.94906 8.83075 -0.85811 -0.694568 -1.04239
276 2.28599 5.10272 9.50502 -1.45269 -0.477244 -0.448676
307 2.31215 4.10158 10.0733 0.256383 -0.116089 -0.817447
38 2.24752 4.97076 10.6145 -0.643219 0.188341 -1.1848
798 4.08405 4.74868 8.93714 1.8877 0.681951 -1.46437
397 4.46132 4.3117 10.5649 -0.240001 -0.802947 -0.184492
269 3.995 3.86784 9.55495 -0.0879845 -1.04351 0.330085
68 3.43677 4.97778 9.92995 2.58696 0.704303 1.20914
403 9.85246 5.14599 9.631 0.46514 -0.46571 2.4048
300 6.06654 4.19011 10.1707 0.309202 0.0682362 0.757834
100 5.20705 3.51788 10.5854 -0.101699 -0.469406 -0.155823
415 5.48535 4.30117 9.40481 -0.515414 0.88284 2.3015
726 7.18096 4.31015 9.93076 -1.24592 1.73201 1.11065
294 6.12868 5.33246 5.88901 -1.52639 -0.952871 0.359242
530 9.61109 3.89269 10.2284 0.928486 -0.428377 0.0681958
453 8.57752 4.25303 10.0481 0.342269 1.55949 -0.149036
769 9.06947 4.36655 9.02915 0.0826226 0.608298 1.79275
659 7.59917 5.20048 9.80324 0.268264 0.757876 -0.474912
33 8.37193 5.30976 9.07465 1.76763 0.565977 2.44766
63 4.72741 5.10818 9.96776 -0.81076 -1.95509 0.365769
249 0.70092 0.838507 5.58989 2.14216 2.22779 0.420221
565 7.78002 1.04779 5.59317 0.484403 -0.543356 1.89413
206 3.77772 3.38025 10.6941 1.29366 -0.554994 -0.522199
790 9.49964 0.194881 5.40194 -0.791645 -0.631363 0.455736
106 6.47789 10.6137 2.12984 0.259684 -0.985545 -0.263458
765 0.733549 6.71924 1.20009 0.215636 0.700856 1.30854
823 0.942917 5.70341 1.61658 2.36174 -0.757121 -0.0914806
251 5.67839 10.6411 5.26896 -1.15211 0.287892 0.601169
766 2.1384 5.86662 1.48783 0.425701 -1.29874 -0.545294
477 1.94986 6.60718 0.532952 -0.933354 -0.158714 0.393157
658 2.9317 6.23406 0.870327 1.40724 -0.378658 -0.0501209
229 3.84789 6.06021 1.84104 -0.834509 0.0880759 0.0390294
817 3.89623 6.334 0.681215 0.252801 1.30631 -0.468231
702 3.4959 6.99964 1.46299 0.378057 0.143893 -0.836663
855 5.11431 6.19506 0.850299 0.0875632 0.000926571 0.641012
629 5.7674 6.90482 0.835347 0.0356809 0.885724 -1.104
620 6.47316 6.10863 1.00556 1.56467 -1.93147 -0.748071
192 1.62202 10.6319 5.31369 1.59788 -0.366052 0.740839
222 8.85819 6.08483 1.20533 -1.1804 -0.110952 -1.65134
833 8.88739 6.73087 0.319222 0.355256 -1.08986 -0.256898
572 7.83913 6.43149 0.733009 -0.484591 -2.07652 -0.117436
545 9.36275 5.76921 0.128481 -0.132926 1.09919 0.966735
90 10.6145 6.20397 1.77047 1.07939 -1.11931 -0.333327
529 9.94324 6.81633 0.689922 -1.36547 -1.08409 0.77997
746 0.169628 5.93764 0.700054 1.99108 0.895387 -1.24305
168 0.19427 7.59659 0.939965 0.0585867 -0.916804 -0.648962
413 1.16899 8.74146 1.09239 0.976935 0.242318 0.439918
462 1.20347 7.2538 0.22952 0.385376 0.758455 -1.61986
387 0.0661521 9.22402 1.56917 -0.299605 1.5447 1.95061
484 10.6525 5.41487 4.11345 -0.798763 1.41516 1.60207
470 2.56521 7.61889 0.59476 -1.40834 0.87838 -0.977914
98 2.30584 7.12506 1.5233 0.929274 -2.2335 -0.839578
80 2.18752 8.71183 0.904794 -0.257257 0.261513 0.132554
534 3.77251 7.82515 0.709072 0.977081 0.367253 0.19698
489 3.72643 8.73007 0.116937 2.70465 0.927088 1.21943
852 4.54969 7.02776 1.58909 -0.0306042 -1.6629 -0.446033
510 5.84171 8.0358 1.05851 -0.690394 0.0772847 -0.952612
812 6.21511 7.83702 0.12376 1.35689 -1.47086 -0.875328
730 4.73012 7.25092 0.60347 -0.569292 0.167171 1.72114
47 5.02605 8.38572 0.229577 0.564748 -0.643403 0.206171
528 6.68445 7.11266 0.682308 0.246818 -1.07261 0.448022
166 7.23276 8.29173 0.181789 -0.573711 -1.86661 0.626115
105 6.80507 8.02807 1.38159 0.0304136 -0.116724 -0.578726
784 7.75558 7.55165 0.806625 0.333542 -0.996458 0.684078
150 8.21883 8.48723 0.393932 -0.136207 -0.199962 0.493955
143 8.68056 7.97124 1.4782 0.318778 0.829633 -1.46159
506 9.96512 6.99042 1.82755 1.15365 -0.16018 0.34728
213 9.13439 7.85989 0.374941 -0.124729 -0.0335186 0.0130152
434 9.9037 8.67368 1.51028 0.786441 -0.725188 0.111154
569 0.79768 9.70912 0.867765 1.67507 -0.0684341 0.80222
173 0.959496 9.59262 1.98605 0.793577 -0.32675 0.0173401
638 0.158575 10.3974 0.366289 -1.03081 -0.313936 -0.0161216
122 1.96139 9.68059 1.20404 1.39988 -1.26803 0.702661
3 1.61007 9.59537 0.192372 -0.447672 -0.880496 -1.13405
109 2.8343 10.0863 1.82337 0.176301 0.362052 0.935077
349 2.66668 9.35663 0.171944 -1.52568 -0.887738 -0.55858
446 3.22556 10.3593 0.729475 -1.20269 0.201513 1.07384
218 3.14057 9.31191 1.06049 -0.572277 1.032 0.267408
395 4.10082 10.159 1.1189 0.7528 1.46182 -1.75396
679 3.72898 9.79747 0.0367062 -0.6412 -1.52537 0.30363
700 4.91126 9.9219 0.36916 0.628238 1.25702 1.63999
690 5.82643 8.95053 1.42867 0.895498 1.71322 -0.966194
35 5.87082 10.4396 1.07567 0.150218 -0.31893 -1.23051
488 6.70682 9.67529 1.64985 0.871216 -0.079688 -0.876264
414 6.85907 10.7041 0.286285 0.952239 0.238578 0.935277
831 8.02267 9.93952 0.353377 -0.982023 1.62754 -0.699247
343 7.86799 10.5346 1.31121 -1.86378 -0.876032 -2.06501
740 8.33453 9.25632 1.1862 -0.97455 1.59265 0.926071
443 4.23532 5.43084 2.72097 -1.15479 -0.296106 0.558844
456 10.4925 9.09914 0.371076 -0.291777 1.09447 -0.469681
744 9.43173 9.64713 1.7308 -1.41266 1.05748 0.993339
246 9.18529 9.18972 0.499169 2.8123 0.637625 -1.67032
20 9.8541 10.1417 0.543006 0.911436 -0.00986838 -1.15532
104 10.3248 10.2392 1.69445 0.630777 -1.69008 -1.19074
612 0.529792 6.39266 3.86125 0.885754 -0.745191 0.491461
43 1.36108 6.89952 2.47158 0.353514 3.25081 -1.98563
23 0.607785 6.189 2.73293 0.517548 0.210367 0.0397807
846 1.61266 5.7769 2.41114 -1.05828 -0.554679 0.747059
627 2.35572 6.39823 3.02833 -1.56954 0.0314015 0.86135
780 2.96219 6.26382 2.23331 -1.81525 -0.0900484 -0.409135
159 3.30097 5.69404 3.12173 -0.319192 0.0305819 -0.605822
714 3.78102 6.70681 2.78873 0.832147 0.489537 0.74406
226 4.99876 6.23249 2.93958 2.1476 -0.275413 -1.27161
12 5.29554 6.28779 1.9525 0.443511 -1.48037 -2.00339
590 5.90762 6.94619 3.39527 0.924039 -0.625238 1.6207
172 7.47986 7.18047 1.7186 -0.126293 -0.490542 -0.176519
351 6.15953 6.8731 1.80371 0.599447 -0.60812 -0.359834
598 6.33212 5.92391 3.2991 -1.05258 0.724559 -0.7134
516 7.09662 6.09068 1.79333 0.410269 1.09017 -0.280222
642 6.99864 6.80445 2.6817 1.52268 1.17056 -1.12128
523 8.22581 8.71092 5.05177 -0.606273 0.589271 -0.373252
543 8.30542 6.30721 2.26755 -0.673963 -2.12439 -1.88532
552 8.13271 6.96871 3.2579 -1.30867 -1.56698 -0.770404
499 8.57996 10.185 5.2015 -0.467961 1.17465 2.1167
130 7.49607 5.99854 3.14483 -1.00296 0.307643 -1.89711
200 9.1971 6.12354 2.72987 -0.79492 -0.110389 -0.327864
508 10.489 7.29755 2.98776 1.90399 1.95781 0.669486
754 10.2463 5.61582 2.61351 -0.360082 -1.24583 -1.41688
515 1.30696 8.53243 3.36336 0.199313 0.0894111 -0.209171