LAMMPS (29 Sep 2021 - Update 2)
#RDF

units		lj
boundary	p p p
atom_style	atomic

lattice		fcc ${rho}
lattice		fcc 0.7
Lattice spacing in x,y,z = 1.7878071 1.7878071 1.7878071
region		box block 0 6 0 6 0 6
create_box	1 box
Created orthogonal box = (0.0000000 0.0000000 0.0000000) to (10.726842 10.726842 10.726842)
  1 by 2 by 2 MPI processor grid
create_atoms	1 box
Created 864 atoms
  using lattice units in orthogonal box = (0.0000000 0.0000000 0.0000000) to (10.726842 10.726842 10.726842)
  create_atoms CPU = 0.004 seconds
mass		1 1.0

velocity	all create $T 87287 loop geom mom yes rot yes
velocity	all create 1.0 87287 loop geom mom yes rot yes
reset_timestep	0
timestep	0.001
pair_style	lj/cut 2.5
pair_coeff	1 1 1.0 1.0 2.5

neighbor	0.3 bin
neigh_modify	every 20 delay 0 check no
thermo		100

#Equilibration

fix		thermos all nvt temp $T $T 1.0
fix		thermos all nvt temp 1.0 $T 1.0
fix		thermos all nvt temp 1.0 1.0 1.0
run		20000
Neighbor list info ...
  update every 20 steps, delay 0 steps, check no
  max neighbors/atom: 2000, page size: 100000
  master list distance cutoff = 2.8
  ghost atom cutoff = 2.8
  binsize = 1.4, bins = 8 8 8
  1 neighbor lists, perpetual/occasional/extra = 1 0 0
  (1) pair lj/cut, perpetual
      attributes: half, newton on
      pair build: half/bin/atomonly/newton
      stencil: half/bin/3d
      bin: standard
Per MPI rank memory allocation (min/avg/max) = 2.626 | 2.626 | 2.626 Mbytes
Step Temp E_pair E_mol TotEng Press 
       0            1   -5.2272486            0   -3.7289847   -4.5808285 
     100   0.71513491   -4.8375807            0   -3.7661199   -1.9975966 
     200   0.66648696    -4.756809            0   -3.7582357  -0.93167675 
     300   0.67348482   -4.7528426            0   -3.7437847  -0.79211397 
     400   0.67977711   -4.7447968            0   -3.7263113  -0.73965211 
     500   0.71065023   -4.7714706            0    -3.706729  -0.78171617 
     600   0.68766062   -4.7203973            0   -3.6901003  -0.56457957 
     700   0.69746837   -4.7179865            0   -3.6729948  -0.54236663 
     800   0.72224577   -4.7387381            0   -3.6566234  -0.56684048 
     900   0.70754899   -4.7011015            0   -3.6410063  -0.36707372 
    1000   0.71963838   -4.7008027            0   -3.6225945  -0.34795576 
    1100   0.72843403   -4.6936958            0   -3.6023094   -0.3064612 
    1200   0.75869376    -4.716962            0   -3.5802386  -0.40814376 
    1300   0.74630627   -4.6766921            0   -3.5585283  -0.22968188 
    1400   0.77550711   -4.7002396            0   -3.5383253  -0.33355985 
    1500   0.77658253   -4.6783171            0   -3.5147915  -0.22257789 
    1600   0.76520462   -4.6390927            0   -3.4926142 -0.075431617 
    1700   0.78770235   -4.6484323            0   -3.4682463  -0.07183286 
    1800   0.81641585   -4.6677578            0   -3.4445514 -0.074541633 
    1900   0.82132687   -4.6529167            0   -3.4223523  -0.10854553 
    2000   0.84215253    -4.659949            0   -3.3981822   -0.1142185 
    2100   0.84044468   -4.6341985            0   -3.3749906 0.0020885169 
    2200   0.86892254   -4.6514498            0   -3.3495745  -0.06228683 
    2300   0.82875135   -4.5682191            0   -3.3265309   0.31072386 
    2400   0.85965398    -4.591369            0   -3.3033805   0.23565041 
    2500   0.88013898   -4.5984506            0   -3.2797701   0.15656853 
    2600   0.90209463   -4.6082116            0   -3.2566358   0.11306545 
    2700   0.87715868   -4.5487219            0   -3.2345067   0.34398504 
    2800   0.91319655   -4.5807086            0   -3.2124991   0.17584098 
    2900   0.94584278   -4.6064171            0    -3.189295   0.07517147 
    3000   0.91617194    -4.540444            0   -3.1677766   0.33603051 
    3100   0.94157364   -4.5556364            0   -3.1449106   0.34626313 
    3200    0.9628169   -4.5670362            0   -3.1244824   0.33805264 
    3300   0.92718075   -4.4935374            0   -3.1043759    0.6249748 
    3400   0.95450048   -4.5126768            0   -3.0825832   0.56645411 
    3500   0.96575693   -4.5098142            0   -3.0628555   0.56680914 
    3600   0.97334539   -4.5035487            0   -3.0452204   0.65702851 
    3700    1.0038033   -4.5304295            0   -3.0264672   0.62992222 
    3800    1.0177016   -4.5354973            0   -3.0107118   0.50299341 
    3900   0.99922554   -4.4904502            0   -2.9933466   0.58398891 
    4000    1.0250305   -4.5137601            0   -2.9779939   0.49941083 
    4100    1.0221382   -4.4948796            0   -2.9634468   0.58505813 
    4200    1.0288351   -4.4926357            0   -2.9511692   0.62198556 
    4300     1.022963   -4.4737273            0   -2.9410587   0.64885082 
    4400    1.0586188   -4.5165569            0   -2.9304667   0.49578642 
    4500    1.0527625   -4.5000229            0   -2.9227068   0.54413766 
    4600    1.0445761   -4.4789892            0   -2.9139386   0.63694601 
    4700    1.0674705   -4.5078985            0    -2.908546   0.57830124 
    4800    1.0609549   -4.4935525            0   -2.9039622   0.66259415 
    4900    1.0616607   -4.4940663            0   -2.9034184    0.6391975 
    5000    1.0665794   -4.5029663            0   -2.9049488   0.58137902 
    5100    1.0362855   -4.4614279            0   -2.9087988   0.70278896 
    5200    1.0572578   -4.4972901            0    -2.913239   0.65188029 
    5300    1.0296463   -4.4597833            0   -2.9171015   0.81528235 
    5400     1.066505   -4.5221353            0   -2.9242294   0.53813227 
    5500    1.0367618   -4.4866834            0   -2.9333407   0.70548532 
    5600    1.0197449   -4.4725605            0   -2.9447135   0.79153148 
    5700    1.0510499   -4.5308212            0   -2.9560711   0.54541245 
    5800    1.0200959   -4.4969128            0     -2.96854   0.62621152 
    5900    1.0099831    -4.493963            0   -2.9807418   0.64475419 
    6000     1.019156   -4.5218419            0   -2.9948773   0.57343982 
    6100    1.0084619   -4.5180584            0   -3.0071163    0.6284599 
    6200   0.99703152   -4.5117968            0   -3.0179805   0.60389382 
    6300   0.97290171   -4.4892256            0   -3.0315621   0.65799729 
    6400     1.012954   -4.5604893            0    -3.042817   0.40276028 
    6500   0.97026361   -4.5060569            0    -3.052346   0.53375354 
    6600   0.97868184   -4.5291139            0   -3.0627903   0.39864896 
    6700   0.96426461   -4.5170216            0   -3.0722988   0.40142845 
    6800   0.96547388   -4.5258528            0   -3.0793182   0.39453844 
    6900   0.95607169   -4.5178826            0   -3.0854349   0.48330693 
    7000   0.97596024   -4.5550967            0   -3.0928507   0.34857344 
    7100   0.97064605   -4.5520254            0   -3.0977414   0.38884909 
    7200   0.94439647   -4.5151128            0   -3.1001576   0.50794048 
    7300   0.96368993   -4.5468047            0   -3.1029428   0.31808288 
    7400   0.95056029   -4.5284854            0   -3.1042953   0.38489174 
    7500   0.95665349   -4.5362997            0   -3.1029803   0.42999122 
    7600   0.94542465   -4.5168349            0   -3.1003393   0.52428221 
    7700   0.96103614   -4.5366742            0   -3.0967885   0.36521246 
    7800   0.96973435   -4.5445491            0   -3.0916311   0.28529043 
    7900   0.94463849   -4.5010457            0    -3.085728   0.51183964 
    8000   0.98703205   -4.5580082            0   -3.0791737   0.40209298 
    8100   0.97230758   -4.5277203            0    -3.070947   0.49816232 
    8200    1.0057905   -4.5696492            0   -3.0627096   0.31082907 
    8300   0.99088624   -4.5392109            0   -3.0546018   0.36111487 
    8400   0.97765585   -4.5090364            0   -3.0442499   0.46166993 
    8500   0.99258779   -4.5216599            0   -3.0345015   0.45342639 
    8600   0.97601566   -4.4866785            0   -3.0243495   0.62144648 
    8700   0.96281938   -4.4577253            0   -3.0151678   0.83113794 
    8800   0.99892259   -4.5020191            0   -3.0053695   0.66161446 
    8900    0.9937383   -4.4834462            0    -2.994564   0.73554582 
    9000    1.0531872   -4.5634522            0   -2.9854998   0.40216853 
    9100     1.012637   -4.4939714            0    -2.976774   0.63762286 
    9200    1.0362319   -4.5201804            0   -2.9676316   0.58889624 
    9300    1.0089313   -4.4718304            0    -2.960185   0.73504838 
    9400    1.0424453   -4.5150682            0     -2.95321   0.54622714 
    9500    1.0005753   -4.4465811            0   -2.9474552   0.85322358 
    9600     1.054331   -4.5218147            0   -2.9421486   0.60091303 
    9700    1.0284528   -4.4792097            0    -2.938316   0.72066011 
    9800     1.039193   -4.4928043            0   -2.9358189   0.57829978 
    9900    1.0357549   -4.4862301            0    -2.934396   0.63037976 
   10000     1.017933   -4.4588305            0   -2.9336982   0.77573549 
   10100    1.0630533   -4.5291906            0   -2.9364562   0.49867598 
   10200    1.0267329   -4.4756891            0   -2.9373723   0.71425451 
   10300    1.0045002   -4.4460623            0   -2.9410559   0.87591954 
   10400    1.0438851   -4.5081599            0   -2.9441446   0.60122732 
   10500    1.0358507   -4.5018909            0   -2.9499132   0.59241567 
   10600    1.0300631   -4.4991226            0   -2.9558163   0.64455253 
   10700    1.0390054    -4.519599            0   -2.9628948    0.6200498 
   10800   0.98938589   -4.4535726            0   -2.9712114   0.80521088 
   10900    1.0235533   -4.5117663            0   -2.9782133   0.56160642 
   11000     1.025702   -4.5235802            0    -2.986808   0.51535682 
   11100    1.0141004   -4.5155611            0   -2.9961711    0.4485093 
   11200    1.0097801   -4.5172731            0   -3.0043559   0.45495666 
   11300   0.98876146   -4.4945368            0   -3.0131112   0.54992634 
   11400   0.99660929   -4.5143222            0   -3.0211385   0.52064038 
   11500   0.98385426   -4.5041621            0   -3.0300888   0.47995232 
   11600   0.97396696   -4.4972895            0     -3.03803   0.53115301 
   11700   0.97823484   -4.5120155            0   -3.0463616   0.53971225 
   11800   0.98650054   -4.5304944            0   -3.0524563    0.4818592 
   11900   0.96761949    -4.508347            0   -3.0585977   0.57027632 
   12000   0.99291596   -4.5519891            0    -3.064339   0.49316154 
   12100   0.99887412   -4.5668172            0   -3.0702402   0.48432984 
   12200    1.0005479   -4.5743766            0   -3.0752918   0.45074506 
   12300   0.96982091   -4.5349845            0   -3.0819368   0.49756567 
   12400   0.95232709   -4.5129746            0   -3.0861373   0.50923715 
   12500   0.96733718   -4.5379363            0     -3.08861   0.41779355 
   12600   0.98575499   -4.5676753            0   -3.0907542    0.3516507 
   12700   0.96622692   -4.5393767            0   -3.0917138    0.4612452 
   12800   0.97085101   -4.5462967            0   -3.0917057   0.41241113 
   12900   0.97282889   -4.5486066            0   -3.0910522   0.34191441 
   13000   0.95232489    -4.517478            0    -3.090644   0.45775367 
   13100   0.95922565   -4.5258311            0   -3.0886579   0.46647226 
   13200   0.96323115   -4.5272427            0   -3.0840682   0.43283872 
   13300   0.94525057   -4.4966911            0   -3.0804563   0.54081467 
   13400     0.975275   -4.5343119            0   -3.0730926   0.40707373 
   13500   0.98511373   -4.5423354            0   -3.0663751    0.4871537 
   13600   0.96157415   -4.4991021            0   -3.0584103   0.63371767 
   13700   0.99006482   -4.5331328            0   -3.0497545   0.50802426 
   13800   0.98130237   -4.5101274            0   -3.0398775   0.59964289 
   13900   0.99084433   -4.5156632            0   -3.0311169   0.59774206 
   14000    1.0309155   -4.5697665            0    -3.025183    0.3110586 
   14100    1.0219491   -4.5465722            0   -3.0154227   0.38084987 
   14200   0.99210854   -4.4930075            0   -3.0065671   0.58174283 
   14300    1.0196465   -4.5275425            0   -2.9998429   0.40608711 
   14400    1.0440802    -4.556944            0   -2.9926364   0.32174354 
   14500    1.0292723   -4.5300544            0   -2.9879329    0.4672465 
   14600   0.99865324   -4.4787717            0   -2.9825256     0.692271 
   14700     1.020119   -4.5056764            0   -2.9772689   0.61033939 
   14800    1.0293054   -4.5145693            0   -2.9723982    0.5629509 
   14900    1.0075324   -4.4792651            0   -2.9697156   0.75134694 
   15000     1.008393   -4.4780489            0   -2.9672101   0.79111131 
   15100    1.0385202   -4.5218303            0    -2.965853   0.64257469 
   15200    1.0440983   -4.5287785            0   -2.9644436   0.54831375 
   15300    1.0227126   -4.4974424            0   -2.9651491   0.66817373 
   15400    1.0064509   -4.4737904            0   -2.9658614   0.81218696 
   15500    1.0477805   -4.5372961            0   -2.9674444   0.55167023 
   15600    1.0330606   -4.5192108            0   -2.9714134   0.51303897 
   15700    1.0385757   -4.5327033            0   -2.9766428   0.35925477 
   15800   0.99435071   -4.4705171            0   -2.9807174   0.57553174 
   15900    1.0085993   -4.4975721            0   -2.9864243   0.45484829 
   16000    1.0269879   -4.5305364            0   -2.9918376   0.38845039 
   16100    1.0090033   -4.5103511            0   -2.9985979    0.4807959 
   16200   0.98764884   -4.4850614            0   -3.0053028   0.59940281 
   16300    1.0027752   -4.5162931            0   -3.0138712   0.49655082 
   16400    1.0251732    -4.556353            0    -3.020373   0.34581553 
   16500   0.99441399   -4.5162167            0   -3.0263221   0.51687067 
   16600    1.0091352   -4.5467249            0    -3.034774   0.37669317 
   16700   0.99843878   -4.5367488            0   -3.0408241   0.36915774 
   16800   0.98806943   -4.5289058            0   -3.0485171   0.40837168 
   16900    0.9929286   -4.5430808            0   -3.0554117   0.33921602 
   17000   0.98201923    -4.533368            0    -3.062044   0.35746052 
   17100   0.98766484   -4.5477814            0   -3.0679989   0.24856932 
   17200   0.95892342   -4.5089419            0   -3.0722216   0.43959247 
   17300   0.95176022   -4.5019927            0   -3.0760047   0.56377721 
   17400   0.93690591   -4.4803267            0   -3.0765944   0.60458633 
   17500   0.99006457   -4.5628853            0   -3.0795073   0.24146809 
   17600    0.9670769   -4.5285462            0   -3.0796098   0.39361594 
   17700   0.97395448   -4.5384534            0   -3.0792126   0.40063338 
   17800   0.97183995   -4.5340345            0   -3.0779618    0.4652286 
   17900   0.95547528   -4.5083212            0   -3.0767671   0.49918276 
   18000    0.9876752   -4.5550799            0   -3.0752818   0.37415284 
   18100   0.96152152   -4.5121328            0   -3.0715198   0.56730032 
   18200   0.97860126   -4.5327851            0   -3.0665822   0.46580042 
   18300   0.98956611   -4.5429329            0   -3.0603017   0.44665615 
   18400   0.96371751    -4.497892            0   -3.0539889   0.65536434 
   18500   0.98578119    -4.522757            0   -3.0457967   0.54721037 
   18600   0.97392015   -4.4969131            0   -3.0377237   0.61867706 
   18700   0.97098852   -4.4829384            0   -3.0281413   0.73008341 
   18800    1.0092953   -4.5284059            0   -3.0162151   0.56186694 
   18900   0.99758165   -4.4990549            0   -3.0044144   0.62461318 
   19000    1.0339737   -4.5427052            0   -2.9935398   0.47413353 
   19100    1.0463698   -4.5511577            0   -2.9834196   0.42849233 
   19200    1.0358519   -4.5258509            0   -2.9738713   0.52127609 
   19300    1.0354603   -4.5181915            0   -2.9667987   0.60179542 
   19400    1.0065105   -4.4687945            0   -2.9607761   0.75655066 
   19500    1.0268731   -4.4953793            0   -2.9568524   0.67016328 
   19600    1.0317047   -4.4999422            0   -2.9541764   0.68964108 
   19700    1.0377863   -4.5082846            0   -2.9534069   0.65491291 
   19800    1.0470517    -4.522352            0   -2.9535923   0.64906041 
   19900    1.0255323   -4.4910372            0   -2.9545192   0.77204918 
   20000    1.0592478   -4.5446916            0   -2.9576588   0.52734728 
Loop time of 2.97655 on 4 procs for 20000 steps with 864 atoms

Performance: 580537.132 tau/day, 6719.180 timesteps/s
99.6% CPU use with 4 MPI tasks x no OpenMP threads

MPI task timing breakdown:
Section |  min time  |  avg time  |  max time  |%varavg| %total
---------------------------------------------------------------
Pair    | 1.9052     | 1.982      | 2.0568     |   5.1 | 66.59
Neigh   | 0.31337    | 0.3192     | 0.32476    |   0.8 | 10.72
Comm    | 0.45608    | 0.53255    | 0.60755    |  10.2 | 17.89
Output  | 0.00191    | 0.0022937  | 0.0033812  |   1.3 |  0.08
Modify  | 0.11162    | 0.11328    | 0.11699    |   0.6 |  3.81
Other   |            | 0.02718    |            |       |  0.91

Nlocal:        216.000 ave         222 max         212 min
Histogram: 2 0 0 0 0 0 1 0 0 1
Nghost:        1169.50 ave        1177 max        1160 min
Histogram: 1 0 0 0 0 1 0 1 0 1
Neighs:        6802.75 ave        7284 max        6348 min
Histogram: 1 1 0 0 0 0 0 1 0 1

Total # of neighbors = 27211
Ave neighs/atom = 31.494213
Neighbor list builds = 1000
Dangerous builds not checked
unfix 	thermos

fix 	1 all nve

run 	20000
Per MPI rank memory allocation (min/avg/max) = 2.626 | 2.626 | 2.626 Mbytes
Step Temp E_pair E_mol TotEng Press 
   20000    1.0592478   -4.5446916            0   -2.9576588   0.52734728 
   20100    1.0290942   -4.4987588            0   -2.9569041   0.65264854 
   20200    1.0502951   -4.5292846            0   -2.9556654   0.50596771 
   20300    1.0319246   -4.5028016            0   -2.9567063   0.62980353 
   20400    1.0262569    -4.494173            0   -2.9565693   0.62145605 
   20500    1.0456519   -4.5231048            0   -2.9564423   0.63121005 
   20600    1.0312547   -4.5023067            0    -2.957215    0.7011772 
   20700    1.0291938   -4.4986847            0   -2.9566809   0.62999809 
   20800     1.018548   -4.4827348            0   -2.9566811   0.63918803 
   20900    1.0302681   -4.4996181            0   -2.9560046   0.58359412 
   21000    1.0114018   -4.4710114            0   -2.9556646   0.67635578 
   21100    1.0089193   -4.4677088            0   -2.9560815   0.70474567 
   21200    1.0449026   -4.5231782            0   -2.9576384   0.46607531 
   21300    1.0559033   -4.5405853            0   -2.9585635   0.38155797 
   21400    1.0500845   -4.5310162            0   -2.9577125   0.42878561 
   21500    1.0346453   -4.5073544            0   -2.9571828   0.56122902 
   21600    1.0442367   -4.5200636            0   -2.9555215   0.58850774 
   21700    1.0176289   -4.4792985            0   -2.9546218   0.76221102 
   21800    1.0578137   -4.5411126            0   -2.9562285   0.50066631 
   21900    1.0377208   -4.5102134            0   -2.9554338   0.57514719 
   22000    1.0258999   -4.4925173            0   -2.9554485   0.63668879 
   22100    1.0256331   -4.4928677            0   -2.9561986   0.60052021 
   22200    1.0123374    -4.473302            0   -2.9565534   0.71564817 
   22300    1.0391915   -4.5119566            0   -2.9549735   0.54866693 
   22400     1.036373   -4.5079603            0      -2.9552    0.5435714 
   22500    1.0199713   -4.4837235            0   -2.9555373   0.58879978 
   22600   0.99237875   -4.4424884            0   -2.9556432   0.72713723 
   22700    1.0067497   -4.4634256            0   -2.9550489   0.77344508 
   22800    1.0553777   -4.5367049            0   -2.9554706   0.47941282 
   22900    1.0446037    -4.520482            0     -2.95539   0.50808924 
   23000    1.0543743   -4.5361787            0   -2.9564477   0.52731914 
   23100    1.0150429   -4.4768878            0   -2.9560857   0.73815033 
   23200    1.0171317   -4.4804556            0   -2.9565239   0.66850828 
   23300    1.0343679   -4.5064249            0   -2.9566688   0.55834096 
   23400    1.0322752   -4.5028412            0   -2.9562206   0.52901914 
   23500    1.0051583   -4.4633771            0   -2.9573848    0.6753613 
   23600    1.0396641   -4.5152709            0   -2.9575797   0.50440831 
   23700    1.0315567   -4.5022207            0   -2.9566765   0.58182822 
   23800   0.99463187   -4.4461954            0   -2.9559744   0.88139005 
   23900     1.024587   -4.4922109            0   -2.9571092   0.69076088 
   24000    1.0061436   -4.4631032            0   -2.9556346   0.74920503 
   24100    1.0236771   -4.4900493            0   -2.9563109   0.61585696 
   24200    1.0380028    -4.512764            0   -2.9575619   0.58321571 
   24300    1.0387801   -4.5137668            0      -2.9574   0.60538961 
   24400    1.0182796   -4.4816518            0   -2.9560002   0.68111447 
   24500    1.0415103   -4.5170339            0   -2.9565766   0.53833192 
   24600      1.01827   -4.4818347            0   -2.9561975   0.65694866 
   24700    1.0322377   -4.5024429            0   -2.9558785   0.55824623 
   24800    1.0459803   -4.5229395            0   -2.9557849   0.48240616 
   24900    1.0329723    -4.505705            0   -2.9580399   0.57477835 
   25000    1.0235741   -4.4911775            0   -2.9575934   0.57642972 
   25100    1.0222102   -4.4864559            0   -2.9549153     0.615074 
   25200    1.0053483   -4.4606024            0   -2.9543254    0.7467748 
   25300    1.0033482   -4.4578336            0   -2.9545532   0.71496197 
   25400   0.99187254   -4.4430181            0   -2.9569313   0.71938717 
   25500    1.0599689   -4.5447892            0    -2.956676   0.35902326 
   25600    1.0328957   -4.5047499            0   -2.9571996   0.48646736 
   25700    1.0346453   -4.5057041            0   -2.9555324   0.52944234 
   25800    1.0482836   -4.5271406            0   -2.9565352   0.46189331 
   25900    1.0187936    -4.484043            0   -2.9576212   0.62582365 
   26000    1.0290677   -4.4994201            0   -2.9576051   0.56698691 
   26100    1.0437715   -4.5200033            0   -2.9561582   0.54081901 
   26200    1.0424828   -4.5189577            0   -2.9570434   0.55665085 
   26300     1.013766   -4.4756176            0   -2.9567286   0.71427614 
   26400    1.0443455   -4.5217444            0   -2.9570393   0.54227993 
   26500    1.0069938   -4.4659888            0   -2.9572463   0.71649552 
   26600     1.032908   -4.5049505            0   -2.9573818   0.63832477 
   26700    1.0675435   -4.5565014            0   -2.9570395   0.51372686 
   26800    1.0338981   -4.5058297            0   -2.9567776   0.66186119 
   26900    1.0358246    -4.510733            0   -2.9587943   0.59247669 
   27000    1.0511237   -4.5346218            0   -2.9597611   0.48068108 
   27100    1.0375215   -4.5119565            0   -2.9574755   0.56255168 
   27200    1.0600874   -4.5444778            0   -2.9561872   0.47623934 
   27300    1.0352388    -4.506953            0   -2.9558921   0.62597006 
   27400     1.030492   -4.5005778            0   -2.9566289   0.59594201 
   27500    1.0377075   -4.5098002            0   -2.9550405   0.55954874 
   27600    1.0294778   -4.4988835            0   -2.9564541    0.6157406 
   27700    1.0277694   -4.4958135            0   -2.9559438   0.63607649 
   27800    1.0301856   -4.5004198            0   -2.9569299   0.60109982 
   27900    1.0302277   -4.5002298            0   -2.9566768   0.61344458 
   28000    1.0347087   -4.5067208            0   -2.9564542   0.58401383 
   28100    1.0624603    -4.548529            0   -2.9566831   0.49713843 
   28200    1.0166212   -4.4789611            0   -2.9557942   0.83758073 
   28300    1.0101234     -4.46921            0   -2.9557786   0.87134944 
   28400    1.0322965   -4.5042588            0   -2.9576062   0.66250299 
   28500    1.0586943   -4.5426432            0   -2.9564398   0.46937255 
   28600    1.0170203   -4.4801741            0   -2.9564093   0.70120026 
   28700    1.0306427   -4.5020859            0   -2.9579112   0.58092945 
   28800    1.0695674   -4.5615811            0   -2.9590869    0.3182548 
   28900    1.0184553   -4.4839222            0   -2.9580075   0.62565447 
   29000   0.99263078   -4.4450768            0   -2.9578539   0.84924583 
   29100    1.0490101   -4.5286473            0   -2.9569534   0.57912689 
   29200    1.0125829   -4.4739443            0   -2.9568279   0.75867765 
   29300     1.036211   -4.5092585            0    -2.956741   0.58294566 
   29400    1.0070633   -4.4652614            0   -2.9564149   0.72668703 
   29500    1.0582217   -4.5427707            0   -2.9572753   0.43441292 
   29600    1.0301179   -4.4988509            0   -2.9554625   0.60161635 
   29700    1.0364244   -4.5095593            0    -2.956722   0.57412861 
   29800    1.0243564    -4.490982            0   -2.9562258   0.69064745 
   29900    1.0303027   -4.5008016            0   -2.9571362   0.64671711 
   30000   0.99665231   -4.4500817            0   -2.9568335     0.791023 
   30100    1.0372372   -4.5105681            0    -2.956513   0.57188141 
   30200    1.0231732    -4.490201            0   -2.9572175   0.66300931 
   30300    1.0366244   -4.5100683            0   -2.9569314   0.51376276 
   30400    1.0024803   -4.4604851            0   -2.9585051   0.71082019 
   30500    1.0604606   -4.5470682            0   -2.9582184   0.39532205 
   30600    1.0217344   -4.4885334            0   -2.9577057   0.56795745 
   30700    1.0378167   -4.5125159            0   -2.9575925   0.54663763 
   30800    1.0500161   -4.5308165            0   -2.9576153   0.56711301 
   30900    1.0465746   -4.5243866            0   -2.9563417   0.59791373 
   31000    1.0461415   -4.5245536            0   -2.9571575    0.6694002 
   31100    1.0289709   -4.4982193            0   -2.9565493   0.68595987 
   31200    1.0313054   -4.5014545            0   -2.9562869     0.647744 
   31300      1.03383   -4.5058378            0   -2.9568877   0.65132562 
   31400   0.98923466   -4.4384735            0   -2.9563389    0.9419093 
   31500    1.0725497   -4.5640993            0   -2.9571368     0.444236 
   31600    1.0351772   -4.5082017            0   -2.9572332   0.60705881 
   31700    1.0089652   -4.4686967            0   -2.9570005   0.80438854 
   31800    1.0221001   -4.4882179            0   -2.9568423   0.63832094 
   31900    1.0258251   -4.4951626            0   -2.9582059   0.58631389 
   32000    1.0047521   -4.4632896            0   -2.9579059   0.72090089 
   32100    1.0360701   -4.5095339            0   -2.9572275   0.59740207 
   32200    1.0510181   -4.5314283            0   -2.9567258   0.55703719 
   32300    1.0437774   -4.5198754            0   -2.9560215   0.58421669 
   32400    1.0135637    -4.474171            0   -2.9555851   0.74678006 
   32500    1.0282629   -4.4958597            0   -2.9552505   0.62436289 
   32600    1.0204784   -4.4855554            0   -2.9566094   0.61983655 
   32700    1.0283347   -4.4971403            0   -2.9564235   0.51334659 
   32800    1.0254752    -4.493972            0   -2.9575395   0.49826087 
   32900    1.0312515    -4.502572            0   -2.9574851   0.50593749 
   33000    1.0246249   -4.4907629            0   -2.9556043   0.62158352 
   33100     1.013706    -4.474659            0   -2.9558599   0.74969482 
   33200    1.0238777   -4.4899496            0   -2.9559106   0.64434781 
   33300    1.0264142   -4.4947083            0    -2.956869   0.65498177 
   33400    1.0081687   -4.4671842            0   -2.9566814   0.76921959 
   33500     1.028459   -4.4956964            0   -2.9547933   0.69871616 
   33600    1.0286006   -4.4963904            0   -2.9552753   0.68667227 
   33700     1.032138   -4.5017608            0   -2.9553456    0.6351529 
   33800    1.0241923   -4.4900645            0   -2.9555542   0.61661145 
   33900    1.0079791   -4.4668089            0   -2.9565902   0.65709293 
   34000    1.0267187   -4.4947942            0   -2.9564987   0.58742164 
   34100    1.0226317   -4.4882733            0   -2.9561011    0.7039103 
   34200    1.0253841    -4.492509            0   -2.9562131   0.65957018 
   34300    1.0538017   -4.5358189            0   -2.9569459   0.43192986 
   34400    1.0482929   -4.5281201            0   -2.9575007   0.44417442 
   34500   0.98900027   -4.4386842            0   -2.9569008    0.7283187 
   34600    1.0293996   -4.4992794            0   -2.9569671   0.51122504 
   34700    1.0184194   -4.4825435            0   -2.9566825   0.57159738 
   34800    1.0398112   -4.5137732            0   -2.9558616   0.55121998 
   34900    1.0461394   -4.5249068            0    -2.957514   0.56107768 
   35000    1.0372938    -4.510841            0   -2.9567011   0.63138612 
   35100    1.0360037   -4.5098308            0    -2.957624   0.60527157 
   35200    1.0551935   -4.5377177            0   -2.9567594   0.47417987 
   35300      1.03071   -4.5023871            0   -2.9581115   0.54393676 
   35400    1.0188576   -4.4837482            0   -2.9572306   0.59488319 
   35500    1.0315904   -4.5025273            0   -2.9569326   0.56710975 
   35600    1.0480801   -4.5264262            0   -2.9561256   0.48299323 
   35700    1.0527118   -4.5342297            0   -2.9569897   0.44852061 
   35800     1.041792   -4.5176846            0   -2.9568052   0.54501374 
   35900    1.0386632   -4.5131093            0   -2.9569177   0.54683672 
   36000    1.0305703   -4.5012876            0   -2.9572214   0.61929673 
   36100    1.0388124   -4.5132578            0   -2.9568427      0.58694 
   36200    1.0140802   -4.4756373            0   -2.9562776   0.77102589 
   36300    1.0327042    -4.503903            0   -2.9566396   0.64506239 
   36400    1.0281346   -4.4971714            0   -2.9567545   0.65297542 
   36500    1.0390493   -4.5135944            0   -2.9568243   0.56929505 
   36600     1.043936   -4.5223475            0   -2.9582558   0.50492373 
   36700     1.060392   -4.5463094            0   -2.9575624   0.39212393 
   36800     1.015073   -4.4773696            0   -2.9565224     0.683063 
   36900    1.0349101   -4.5078862            0   -2.9573178   0.61219171 
   37000    1.0458837   -4.5223255            0   -2.9553157   0.58149477 
   37100    1.0573592   -4.5407657            0   -2.9565626   0.55244061 
   37200    1.0360707   -4.5077813            0   -2.9554739   0.68973957 
   37300    1.0255095    -4.492655            0   -2.9561712   0.83488256 
   37400    1.0303285   -4.5005711            0   -2.9568671   0.74186192 
   37500    1.0285955   -4.4986912            0   -2.9575836   0.68883566 
   37600    1.0703997   -4.5619541            0   -2.9582129   0.43757994 
   37700    1.0412408   -4.5179557            0   -2.9579022   0.58473082 
   37800    1.0261333   -4.4950957            0   -2.9576772   0.68171211 
   37900     1.047439   -4.5259849            0   -2.9566448   0.55227664 
   38000    1.0453862    -4.523831            0   -2.9575666   0.50072071 
   38100    1.0121846   -4.4738121            0   -2.9572925   0.68472608 
   38200    1.0321984   -4.5041026            0   -2.9575971   0.60667251 
   38300    1.0363283   -4.5102609            0   -2.9575677   0.64415523 
   38400    1.0391842   -4.5151845            0   -2.9582123   0.63340361 
   38500    1.0454526   -4.5235957            0   -2.9572318   0.61811759 
   38600    1.0335593   -4.5037142            0   -2.9551696   0.64877872 
   38700    1.0208916   -4.4860545            0   -2.9564895   0.69462588 
   38800    1.0439032   -4.5212766            0    -2.957234   0.61516001 
   38900    1.0206126   -4.4850233            0   -2.9558763   0.72793027 
   39000    1.0073999   -4.4649375            0   -2.9555866   0.76809537 
   39100    1.0505463   -4.5294954            0   -2.9554999   0.56592162 
   39200    1.0269554   -4.4938836            0   -2.9552334   0.76568343 
   39300    1.0439928   -4.5187858            0   -2.9546091   0.54104709 
   39400    1.0498419   -4.5290992            0    -2.956159   0.45953204 
   39500    1.0081013   -4.4658502            0   -2.9554484   0.77062417 
   39600    1.0415951   -4.5163453            0    -2.955761   0.61953599 
   39700    1.0341983   -4.5060059            0   -2.9565039   0.63573336 
   39800    1.0132054   -4.4747168            0   -2.9566677   0.71803348 
   39900    1.0372104   -4.5114164            0   -2.9574015   0.56193253 
   40000     1.049141   -4.5304073            0   -2.9585172   0.48441293 
Loop time of 2.93339 on 4 procs for 20000 steps with 864 atoms

Performance: 589080.173 tau/day, 6818.058 timesteps/s
99.6% CPU use with 4 MPI tasks x no OpenMP threads

MPI task timing breakdown:
Section |  min time  |  avg time  |  max time  |%varavg| %total
---------------------------------------------------------------
Pair    | 1.8833     | 1.9817     | 2.0913     |   5.3 | 67.56
Neigh   | 0.31415    | 0.31903    | 0.32545    |   0.7 | 10.88
Comm    | 0.43832    | 0.5538     | 0.65406    |  10.5 | 18.88
Output  | 0.0020521  | 0.0023956  | 0.0033776  |   1.2 |  0.08
Modify  | 0.048803   | 0.050154   | 0.052253   |   0.6 |  1.71
Other   |            | 0.0263     |            |       |  0.90

Nlocal:        216.000 ave         224 max         204 min
Histogram: 1 0 0 0 0 0 1 0 1 1
Nghost:        1172.00 ave        1184 max        1163 min
Histogram: 1 0 1 0 1 0 0 0 0 1
Neighs:        6794.75 ave        7089 max        6168 min
Histogram: 1 0 0 0 0 0 0 0 2 1

Total # of neighbors = 27179
Ave neighs/atom = 31.457176
Neighbor list builds = 1000
Dangerous builds not checked

dump		vel all custom  20 dump.* id x y z vx vy vz

run 12000
Per MPI rank memory allocation (min/avg/max) = 3.888 | 3.888 | 3.888 Mbytes
Step Temp E_pair E_mol TotEng Press 
   40000     1.049141   -4.5304073            0   -2.9585172   0.48441293 
   40100    1.0148384   -4.4777421            0   -2.9572463   0.63390468 
   40200    1.0323076   -4.5040159            0   -2.9573467   0.58436399 
   40300    1.0530357   -4.5348837            0   -2.9571583    0.5409981 
   40400    1.0462804   -4.5248002            0    -2.957196   0.59175505 
   40500    1.0384815   -4.5140392            0   -2.9581199     0.589999 
   40600    1.0333914   -4.5073276            0   -2.9590347   0.52768342 
   40700    1.0227378   -4.4906685            0   -2.9583374   0.65846344 
   40800    1.0527838   -4.5351588            0    -2.957811   0.47331746 
   40900    1.0107945   -4.4715146            0   -2.9570776   0.71660913 
   41000    1.0456346   -4.5240157            0    -2.957379   0.50517788 
   41100    1.0314012   -4.5022962            0    -2.956985   0.50167161 
   41200    1.0364122    -4.509708            0   -2.9568889   0.54804731 
   41300    1.0513052   -4.5327436            0    -2.957611   0.55043511 
   41400    1.0420352   -4.5198196            0   -2.9585759   0.53853843 
   41500    1.0584931   -4.5438966            0   -2.9579947   0.42231852 
   41600    1.0320636   -4.5041199            0   -2.9578162   0.57578682 
   41700    1.0209964     -4.48688            0   -2.9571579   0.66645493 
   41800    1.0196092   -4.4841593            0   -2.9565156   0.71959208 
   41900    1.0117755   -4.4721565            0   -2.9562498   0.82022213 
   42000    1.0125676     -4.47274            0   -2.9556465    0.8181023 
   42100     1.033116   -4.5044753            0   -2.9565948   0.66088295 
   42200    1.0249833   -4.4932895            0    -2.957594   0.67649404 
   42300       1.0272   -4.4960807            0   -2.9570641   0.63299512 
   42400    1.0265855   -4.4958837            0   -2.9577878   0.61496808 
   42500    1.0360061   -4.5098683            0   -2.9576577   0.54035328 
   42600     1.040196    -4.515423            0   -2.9569349   0.48056902 
   42700     1.036614   -4.5107168            0   -2.9575955    0.5470544 
   42800    1.0314743   -4.5010875            0   -2.9556668   0.56973082 
   42900    1.0081706   -4.4665296            0    -2.956024    0.6814611 
   43000    1.0481953   -4.5268725            0   -2.9563994   0.51897081 
   43100    1.0300623   -4.5005984            0   -2.9572933   0.69237733 
   43200     1.027784   -4.4960867            0   -2.9561949   0.65744223 
   43300    1.0039356   -4.4609576            0   -2.9567972   0.77200477 
   43400    0.9999377    -4.454498            0   -2.9563275   0.80617227 
   43500    1.0262328   -4.4944428            0   -2.9568752   0.73599576 
   43600    1.0436461   -4.5205377            0   -2.9568805    0.6345175 
   43700    1.0395652   -4.5150455            0   -2.9575026   0.63265982 
   43800    1.0271427   -4.4972284            0   -2.9582976     0.758296 
   43900    1.0219291   -4.4893558            0   -2.9582364   0.73304227 
   44000    1.0380307   -4.5127488            0    -2.957505   0.68197144 
   44100    1.0300202   -4.5015209            0   -2.9582788   0.76578946 
   44200    1.0369118   -4.5111081            0   -2.9575406   0.71342514 
   44300    1.0255414   -4.4947132            0   -2.9581815   0.75484706 
   44400    1.0289549   -4.4975022            0   -2.9558563   0.73493598 
   44500    1.0344626   -4.5058461            0   -2.9559481   0.70878885 
   44600    1.0226168   -4.4884523            0   -2.9563024   0.76556715 
   44700    1.0443428    -4.521954            0   -2.9572529   0.58777262 
   44800    1.0213059   -4.4885289            0   -2.9583431   0.63076917 
   44900    1.0332088    -4.505142            0   -2.9571226   0.60350596 
   45000    1.0347355   -4.5084255            0   -2.9581187   0.64401859 
   45100    1.0562449   -4.5397456            0   -2.9572121   0.48580913 
   45200    1.0149927   -4.4776586            0   -2.9569317   0.70396005 
   45300    1.0456888   -4.5233667            0    -2.956649   0.50362484 
   45400    1.0248342   -4.4913843            0   -2.9559123   0.61065922 
   45500    1.0013006   -4.4568746            0   -2.9566621   0.81755926 
   45600    1.0206076   -4.4859573            0   -2.9568177   0.80834021 
   45700    1.0405528   -4.5166162            0   -2.9575935   0.60373046 
   45800    1.0507174   -4.5323556            0   -2.9581037   0.41339641 
   45900     1.038246   -4.5126874            0   -2.9571209   0.49854251 
   46000    1.0412918   -4.5161527            0   -2.9560227    0.4509178 
   46100    1.0055757   -4.4636247            0   -2.9570069   0.74160742 
   46200    1.0391016   -4.5137038            0   -2.9568554   0.57895666 
   46300    1.0395869   -4.5152372            0   -2.9576617   0.59795144 
   46400    1.0134534   -4.4760417            0   -2.9576211   0.77176425 
   46500    1.0364976   -4.5111632            0   -2.9582162   0.70824017 
   46600    1.0216241   -4.4887202            0   -2.9580577   0.79083438 
   46700    1.0609654   -4.5469701            0    -2.957364   0.58009997 
   46800   0.99691676   -4.4514175            0   -2.9577732   0.87097105 
   46900    1.0388728   -4.5143957            0   -2.9578901   0.57920458 
   47000    1.0526355   -4.5345797            0   -2.9574539   0.48473754 
   47100    1.0276078   -4.4971934            0   -2.9575657   0.59913393 
   47200    1.0251036   -4.4936519            0   -2.9577762   0.63581229 
   47300    1.0383225   -4.5140723            0   -2.9583911   0.56426459 
   47400    1.0170146   -4.4822557            0   -2.9584994    0.7059023 
   47500    1.0516817   -4.5343302            0   -2.9586334    0.5215712 
   47600    1.0450487   -4.5235392            0   -2.9577806   0.51298461 
   47700    1.0468563   -4.5247642            0   -2.9562972   0.48330403 
   47800    1.0539894   -4.5359414            0   -2.9567871   0.42950321 
   47900    1.0632391   -4.5513619            0   -2.9583492   0.34324221 
   48000    1.0471017   -4.5270908            0   -2.9582561   0.49245294 
   48100    1.0326342   -4.5050573            0   -2.9578987   0.57228023 
   48200    1.0231024   -4.4889039            0   -2.9560265   0.63348597 
   48300   0.99017891   -4.4399209            0   -2.9563716    0.8751356 
   48400    1.0120377   -4.4719313            0   -2.9556317    0.8133532 
   48500    1.0244537   -4.4900873            0   -2.9551853   0.76127736 
   48600    1.0445702   -4.5202429            0    -2.955201   0.62250678 
   48700    1.0316639   -4.5008429            0   -2.9551382   0.65655696 
   48800    1.0342803   -4.5046389            0    -2.955014   0.64368637 
   48900    1.0069768    -4.462936            0    -2.954219    0.8142354 
   49000    1.0237556   -4.4896037            0   -2.9557477   0.70528925 
   49100    1.0081459   -4.4664029            0   -2.9559342   0.73704941 
   49200    1.0260424   -4.4942342            0   -2.9569519   0.64295642 
   49300    1.0400204   -4.5140853            0   -2.9558602   0.57256971 
   49400     1.026304   -4.4940579            0   -2.9563837   0.60879518 
   49500    1.0063711   -4.4649867            0   -2.9571772   0.75686402 
   49600    1.0311217   -4.5016185            0   -2.9567262   0.62271259 
   49700    1.0192448   -4.4844244            0   -2.9573267   0.66875426 
   49800     1.019383   -4.4831839            0   -2.9558792   0.63583488 
   49900    1.0249969   -4.4912193            0   -2.9555034   0.62673694 
   50000     1.015533   -4.4779085            0   -2.9563721   0.65246544 
   50100    1.0242003   -4.4905699            0   -2.9560476     0.562987 
   50200     1.054796   -4.5370519            0   -2.9566892   0.40860556 
   50300    1.0373566   -4.5118862            0   -2.9576522   0.51147966 
   50400     1.032909   -4.5043863            0   -2.9568159   0.56389496 
   50500   0.99832561   -4.4520246            0   -2.9562693   0.85963205 
   50600    1.0666899   -4.5539314            0   -2.9557483   0.42510863 
   50700    1.0265749   -4.4948097            0   -2.9567297   0.67990251 
   50800    1.0236795    -4.491132            0     -2.95739    0.6620268 
   50900   0.99906075    -4.452591            0   -2.9557344   0.78089928 
   51000    1.0216683   -4.4870386            0   -2.9563099   0.64949337 
   51100    1.0417545   -4.5179721            0   -2.9571489   0.53025727 
   51200    1.0298511    -4.501981            0   -2.9589923   0.57129604 
   51300    1.0409612   -4.5176857            0   -2.9580512   0.52859321 
   51400     1.028589   -4.4980304            0   -2.9569326   0.62999902 
   51500    1.0168839   -4.4803721            0   -2.9568118   0.70383387 
   51600    1.0303485   -4.5003538            0   -2.9566199   0.62885041 
   51700    1.0341988   -4.5076018            0    -2.958099   0.61928735 
   51800    1.0217434   -4.4887376            0   -2.9578963   0.62129864 
   51900    1.0684096   -4.5584919            0   -2.9577324   0.31927652 
   52000    1.0289038   -4.4990319            0   -2.9574625   0.62146297 
Loop time of 2.15033 on 4 procs for 12000 steps with 864 atoms

Performance: 482158.841 tau/day, 5580.542 timesteps/s
98.0% CPU use with 4 MPI tasks x no OpenMP threads

MPI task timing breakdown:
Section |  min time  |  avg time  |  max time  |%varavg| %total
---------------------------------------------------------------
Pair    | 1.1341     | 1.1914     | 1.2477     |   5.1 | 55.41
Neigh   | 0.18656    | 0.19211    | 0.19703    |   0.9 |  8.93
Comm    | 0.28884    | 0.34994    | 0.4129     |   9.4 | 16.27
Output  | 0.3615     | 0.37019    | 0.38009    |   1.1 | 17.22
Modify  | 0.029226   | 0.030487   | 0.032497   |   0.7 |  1.42
Other   |            | 0.01618    |            |       |  0.75

Nlocal:        216.000 ave         222 max         205 min
Histogram: 1 0 0 0 0 0 0 1 1 1
Nghost:        1153.00 ave        1182 max        1133 min
Histogram: 1 0 0 2 0 0 0 0 0 1
Neighs:        6770.00 ave        7175 max        6367 min
Histogram: 1 0 0 0 1 1 0 0 0 1

Total # of neighbors = 27080
Ave neighs/atom = 31.342593
Neighbor list builds = 600
Dangerous builds not checked
unfix   1
Total wall time: 0:00:08
