LAMMPS (29 Sep 2021 - Update 2)
#RDF

units		lj
boundary	p p p
atom_style	atomic

lattice		fcc ${rho}
lattice		fcc 0.7
Lattice spacing in x,y,z = 1.7878071 1.7878071 1.7878071
region		box block 0 6 0 6 0 6
create_box	1 box
Created orthogonal box = (0.0000000 0.0000000 0.0000000) to (10.726842 10.726842 10.726842)
  1 by 2 by 2 MPI processor grid
create_atoms	1 box
Created 864 atoms
  using lattice units in orthogonal box = (0.0000000 0.0000000 0.0000000) to (10.726842 10.726842 10.726842)
  create_atoms CPU = 0.002 seconds
mass		1 1.0

velocity	all create $T 87287 loop geom mom yes rot yes
velocity	all create 0.5 87287 loop geom mom yes rot yes
reset_timestep	0
timestep	0.001
pair_style	lj/cut 2.5
pair_coeff	1 1 1.0 1.0 2.5

neighbor	0.3 bin
neigh_modify	every 20 delay 0 check no
thermo		100

#Equilibration

fix		thermos all nvt temp $T $T 1.0
fix		thermos all nvt temp 0.5 $T 1.0
fix		thermos all nvt temp 0.5 0.5 1.0
run		20000
Neighbor list info ...
  update every 20 steps, delay 0 steps, check no
  max neighbors/atom: 2000, page size: 100000
  master list distance cutoff = 2.8
  ghost atom cutoff = 2.8
  binsize = 1.4, bins = 8 8 8
  1 neighbor lists, perpetual/occasional/extra = 1 0 0
  (1) pair lj/cut, perpetual
      attributes: half, newton on
      pair build: half/bin/atomonly/newton
      stencil: half/bin/3d
      bin: standard
Per MPI rank memory allocation (min/avg/max) = 2.626 | 2.626 | 2.626 Mbytes
Step Temp E_pair E_mol TotEng Press 
       0          0.5   -5.2272486            0   -4.4781167   -4.9304234 
     100   0.42192475   -5.1471039            0   -4.5149493   -3.8669565 
     200    0.3106196   -4.9781621            0    -4.512772   -2.4741856 
     300   0.33002847   -5.0001547            0    -4.505685   -2.3364925 
     400   0.34485958   -5.0129695            0   -4.4962788   -2.2806415 
     500   0.36033774   -5.0265581            0    -4.486677   -2.2626988 
     600    0.3637403   -5.0230794            0   -4.4781004   -2.1323474 
     700    0.3744529   -5.0311779            0   -4.4701486   -2.0467949 
     800   0.37857546   -5.0302563            0   -4.4630504   -1.9195167 
     900    0.4057055   -5.0630413            0   -4.4551874   -1.9407086 
    1000   0.39089379   -5.0309253            0   -4.4452633   -1.6571596 
    1100   0.40649948   -5.0452818            0   -4.4362383   -1.6134213 
    1200   0.40598369   -5.0351777            0    -4.426907    -1.525173 
    1300   0.41321233   -5.0351885            0   -4.4160874   -1.4604294 
    1400   0.43352879   -5.0546723            0   -4.4051318   -1.4928911 
    1500   0.42657512   -5.0347184            0   -4.3955963    -1.385066 
    1600    0.4345997   -5.0357983            0   -4.3846532   -1.3428142 
    1700   0.45032758   -5.0493295            0     -4.37462   -1.3453695 
    1800   0.47039885   -5.0694557            0   -4.3646741   -1.3540862 
    1900   0.46288124   -5.0478979            0   -4.3543797   -1.1564305 
    2000   0.49110353   -5.0804028            0   -4.3446001   -1.2027485 
    2100   0.49017985   -5.0705797            0   -4.3361609    -1.113676 
    2200   0.50367061   -5.0826545            0    -4.328023   -1.0947527 
    2300   0.50528553   -5.0781872            0   -4.3211361  -0.99052925 
    2400   0.50721549   -5.0726092            0   -4.3126666  -0.93083672 
    2500   0.51105856   -5.0732111            0   -4.3075105  -0.92160177 
    2600   0.51611448   -5.0743721            0   -4.3010964  -0.93678501 
    2700   0.51307138    -5.063461            0   -4.2947447  -0.87560318 
    2800   0.50762609   -5.0499208            0   -4.2893629  -0.82718543 
    2900   0.51024549   -5.0486701            0   -4.2841877  -0.88033495 
    3000   0.51962727   -5.0590356            0   -4.2804969  -0.99024824 
    3100   0.50768747   -5.0379447            0   -4.2772949    -0.901301 
    3200   0.52538235    -5.061221            0   -4.2740596  -0.96258387 
    3300   0.52464263   -5.0582967            0   -4.2722436  -0.93751165 
    3400   0.52101178   -5.0528685            0   -4.2722554  -0.88894059 
    3500   0.53391379   -5.0702872            0   -4.2703434  -0.96342081 
    3600     0.510399   -5.0355862            0   -4.2708738  -0.87488119 
    3700   0.50227507    -5.023472            0   -4.2709314  -0.84638418 
    3800   0.50950816   -5.0343355            0   -4.2709578  -0.90793023 
    3900   0.51059646   -5.0373502            0    -4.272342  -0.89543448 
    4000   0.51705462   -5.0480436            0   -4.2733594  -0.93583004 
    4100   0.50979284   -5.0383881            0   -4.2745839  -0.92984331 
    4200   0.51198247   -5.0445263            0   -4.2774415  -0.95356872 
    4300   0.50100289   -5.0306206            0    -4.279986  -0.90473973 
    4400   0.51889086   -5.0610621            0   -4.2836267   -1.0053833 
    4500    0.5000773   -5.0369162            0   -4.2876684  -0.86165447 
    4600   0.50463653   -5.0474989            0   -4.2914203  -0.86802289 
    4700   0.51569433   -5.0677815            0   -4.2951353  -0.95672975 
    4800    0.5208349    -5.079587            0   -4.2992388  -0.98005684 
    4900   0.49426837    -5.044844            0   -4.3042996  -0.87020686 
    5000   0.52420055    -5.094982            0   -4.3095913   -1.0433584 
    5100   0.50587848   -5.0724267            0   -4.3144873  -0.92837873 
    5200   0.51089067   -5.0852732            0   -4.3198241  -0.96303525 
    5300   0.52028279    -5.105234            0   -4.3257131  -0.98898088 
    5400   0.50809077   -5.0926419            0   -4.3313878  -0.89872237 
    5500   0.50040794   -5.0868517            0   -4.3371086  -0.87919889 
    5600   0.50720556   -5.1035177            0   -4.3435899  -0.95156918 
    5700   0.50103857   -5.0999815            0   -4.3492935   -0.9555842 
    5800   0.51780497   -5.1292771            0   -4.3534686   -1.0481331 
    5900   0.50905769   -5.1232597            0   -4.3605569   -1.0259498 
    6000    0.5120297    -5.133779            0   -4.3666234   -1.0569966 
    6100    0.5134826    -5.142628            0   -4.3732955    -1.081647 
    6200   0.49606113    -5.123062            0   -4.3798316  -0.91848608 
    6300   0.50643823   -5.1443317            0   -4.3855536  -0.96177525 
    6400   0.50165741   -5.1426885            0   -4.3910733  -0.89189695 
    6500   0.50405413   -5.1517066            0   -4.3965005  -0.88557056 
    6600   0.52449013   -5.1891992            0   -4.4033746   -0.9798655 
    6700   0.50377399   -5.1643008            0   -4.4095144  -0.78599188 
    6800   0.51483174   -5.1878429            0   -4.4164891  -0.77817251 
    6900   0.50137744   -5.1732023            0   -4.4220065  -0.65247965 
    7000   0.50608563   -5.1873787            0   -4.4291289  -0.67805883 
    7100   0.51934809   -5.2135878            0   -4.4354674  -0.76968669 
    7200   0.51796053   -5.2195776            0   -4.4435361  -0.74758692 
    7300   0.50741888   -5.2100353            0   -4.4497879    -0.651691 
    7400    0.4966408   -5.1992734            0   -4.4551744  -0.59529736 
    7500   0.53011727   -5.2565808            0   -4.4623252  -0.80114427 
    7600   0.52882157   -5.2629917            0   -4.4706775  -0.79254869 
    7700   0.51362552   -5.2470109            0   -4.4774643  -0.71606967 
    7800   0.52866409    -5.277662            0   -4.4855837  -0.80410052 
    7900   0.50119756   -5.2436699            0   -4.4927437  -0.65785436 
    8000   0.50476593   -5.2558802            0   -4.4996077  -0.71431162 
    8100   0.52518922   -5.2931171            0   -4.5062451  -0.76591073 
    8200   0.53119932    -5.309274            0   -4.5133972  -0.72599705 
    8300   0.51035496    -5.285382            0   -4.5207356  -0.58443065 
    8400   0.50313053   -5.2808875            0   -4.5270652  -0.59055797 
    8500   0.49403325   -5.2745183            0   -4.5343261  -0.56916677 
    8600   0.50624277   -5.2982691            0   -4.5397838   -0.6680407 
    8700   0.50548911   -5.3019806            0   -4.5446245  -0.66997703 
    8800   0.49229417   -5.2869168            0   -4.5493302  -0.64622972 
    8900   0.47963104    -5.274549            0   -4.5559352  -0.61972803 
    9000   0.50674785   -5.3196812            0   -4.5604392  -0.77829325 
    9100   0.50017108   -5.3140381            0   -4.5646498  -0.71777516 
    9200   0.49576041   -5.3110018            0   -4.5682219  -0.64426001 
    9300   0.51634279   -5.3479484            0   -4.5743306  -0.73021593 
    9400   0.50899926   -5.3396715            0   -4.5770563  -0.61738995 
    9500   0.50240305   -5.3348015            0   -4.5820691  -0.59617176 
    9600   0.52103524   -5.3691005            0   -4.5884522  -0.73265325 
    9700    0.5080196    -5.354332            0   -4.5931845   -0.6859372 
    9800   0.50187694   -5.3512847            0   -4.5993406  -0.65952462 
    9900   0.49837898    -5.350436            0   -4.6037328  -0.67840364 
   10000   0.50608653   -5.3666365            0   -4.6083853  -0.71613746 
   10100   0.48271057   -5.3347548            0    -4.611527  -0.57748142 
   10200    0.4983142   -5.3612383            0   -4.6146321  -0.61575253 
   10300   0.49261762   -5.3557302            0    -4.617659   -0.6645464 
   10400   0.49278604   -5.3602749            0   -4.6219514   -0.7465044 
   10500   0.48769858   -5.3548799            0   -4.6241787  -0.72854932 
   10600   0.50268754    -5.380754            0   -4.6275954  -0.82808013 
   10700   0.48467141    -5.356112            0   -4.6299463  -0.72821011 
   10800   0.49613216   -5.3765437            0   -4.6332068  -0.76826798 
   10900   0.48534265   -5.3628881            0   -4.6357167  -0.70138183 
   11000   0.48452425   -5.3634548            0   -4.6375096  -0.66200646 
   11100   0.49641484   -5.3837797            0   -4.6400193  -0.73136121 
   11200   0.48882823   -5.3738005            0   -4.6414068  -0.67886118 
   11300   0.49292976   -5.3818661            0   -4.6433273  -0.68281878 
   11400   0.48654818   -5.3744426            0    -4.645465  -0.62553764 
   11500   0.48365983   -5.3700949            0   -4.6454449  -0.55597262 
   11600   0.51191581   -5.4121192            0   -4.6451343  -0.73150954 
   11700   0.48725838   -5.3775731            0   -4.6475315  -0.66614966 
   11800   0.48865704   -5.3795943            0   -4.6474571   -0.6854635 
   11900   0.49699842   -5.3930079            0   -4.6483731  -0.73376627 
   12000   0.49462624   -5.3894142            0   -4.6483336  -0.69208376 
   12100   0.51393051    -5.420647            0   -4.6506435  -0.74297457 
   12200   0.49947403   -5.3994691            0   -4.6511253  -0.63235574 
   12300   0.50704363   -5.4133413            0   -4.6536561  -0.68997746 
   12400   0.49894523   -5.4010337            0   -4.6534821   -0.6190951 
   12500   0.49114808   -5.3918765            0   -4.6560071  -0.57731659 
   12600   0.50100778   -5.4068751            0   -4.6562333  -0.64070571 
   12700   0.48888799   -5.3896215            0   -4.6571382  -0.58297708 
   12800   0.50502142   -5.4154415            0   -4.6587862  -0.71104047 
   12900   0.48850778   -5.3924811            0   -4.6605676  -0.63509254 
   13000   0.50204119   -5.4134612            0    -4.661271  -0.68701585 
   13100   0.51212272   -5.4307824            0   -4.6634875  -0.68935171 
   13200   0.49745627   -5.4093585            0   -4.6640377  -0.54968853 
   13300   0.49534257   -5.4076684            0   -4.6655145  -0.46492006 
   13400   0.50574579   -5.4260679            0   -4.6683273  -0.51842816 
   13500   0.51184303   -5.4366143            0   -4.6697384  -0.58627573 
   13600   0.51666027   -5.4468522            0   -4.6727588  -0.59322341 
   13700   0.49600048   -5.4187325            0   -4.6755929  -0.52062163 
   13800   0.51072815   -5.4437241            0   -4.6785185  -0.59490324 
   13900   0.51323012   -5.4508484            0   -4.6818942  -0.60573383 
   14000   0.49508466    -5.425819            0   -4.6840516  -0.49086267 
   14100    0.5124357   -5.4562315            0   -4.6884676  -0.58188365 
   14200   0.48489714   -5.4190549            0    -4.692551  -0.45082986 
   14300   0.49979734   -5.4457114            0   -4.6968831  -0.52305954 
   14400   0.49962613   -5.4503808            0    -4.701809  -0.57308146 
   14500   0.48509156   -5.4322902            0   -4.7054951  -0.56776614 
   14600   0.48068428    -5.429469            0   -4.7092771  -0.57855042 
   14700   0.50032296   -5.4625239            0   -4.7129081   -0.6798944 
   14800   0.49432264   -5.4569843            0   -4.7163585  -0.63757483 
   14900   0.50556009   -5.4768711            0   -4.7194087  -0.62637643 
   15000   0.48847471   -5.4535352            0   -4.7216712  -0.49115969 
   15100   0.48694963   -5.4527728            0   -4.7231938  -0.43160374 
   15200   0.50193401   -5.4772775            0   -4.7252479  -0.50699188 
   15300   0.48857244   -5.4592387            0   -4.7272282  -0.46212958 
   15400   0.50502991   -5.4861203            0   -4.7294523  -0.52061414 
   15500   0.49849305   -5.4792396            0   -4.7323654  -0.43001752 
   15600   0.52219698   -5.5170141            0   -4.7346252   -0.5167665 
   15700   0.49764657   -5.4813106            0   -4.7357047  -0.38731019 
   15800   0.50462313   -5.4955743            0   -4.7395157  -0.42873618 
   15900   0.51248224   -5.5110995            0   -4.7432659  -0.49502809 
   16000    0.5108376   -5.5111923            0   -4.7458228  -0.54827022 
   16100   0.49974012    -5.497627            0   -4.7488844  -0.50175677 
   16200    0.5070204   -5.5114284            0   -4.7517781  -0.55675463 
   16300   0.49336369   -5.4955758            0   -4.7563868  -0.54283989 
   16400   0.48013739   -5.4793349            0   -4.7599624  -0.54859286 
   16500   0.49458818   -5.5059502            0   -4.7649266  -0.63762598 
   16600   0.49255984   -5.5068779            0   -4.7688932  -0.61679648 
   16700   0.48030519   -5.4935581            0   -4.7739342  -0.50628514 
   16800   0.49631974   -5.5223912            0   -4.7787732  -0.59770958 
   16900   0.49572311   -5.5263084            0   -4.7835844  -0.58554161 
   17000    0.4779995    -5.505026            0   -4.7888566  -0.48696516 
   17100   0.49367552   -5.5315972            0    -4.791941   -0.5688581 
   17200   0.46825786   -5.4986477            0   -4.7970739  -0.43459009 
   17300   0.50164216   -5.5537655            0   -4.8021732  -0.63655876 
   17400   0.47414923   -5.5179684            0   -4.8075677  -0.55289451 
   17500   0.48653071   -5.5406676            0   -4.8117162  -0.65228138 
   17600    0.4907172   -5.5511052            0   -4.8158814   -0.7155956 
   17700   0.47865331   -5.5376556            0   -4.8205066  -0.62953752 
   17800   0.46423952   -5.5200149            0   -4.8244616  -0.53894782 
   17900   0.46774705   -5.5292753            0   -4.8284668  -0.57463725 
   18000   0.47902824   -5.5494624            0   -4.8317517  -0.63753109 
   18100     0.478933   -5.5503815            0   -4.8328134  -0.62791033 
   18200   0.47562731   -5.5484126            0   -4.8357974  -0.59610012 
   18300   0.45866414    -5.524609            0   -4.8374091  -0.51769198 
   18400   0.47849508    -5.555881            0   -4.8389691  -0.61338288 
   18500   0.46576852   -5.5374834            0   -4.8396393  -0.50493982 
   18600   0.46539346   -5.5363777            0   -4.8390954  -0.51651365 
   18700   0.47165929   -5.5429284            0   -4.8362583  -0.55572774 
   18800     0.470305   -5.5369767            0   -4.8323357  -0.50793487 
   18900   0.50206174   -5.5796029            0    -4.827382  -0.61094764 
   19000   0.49233229   -5.5598402            0   -4.8221965  -0.53167489 
   19100   0.48380181   -5.5380864            0   -4.8132237  -0.45695305 
   19200   0.48450527   -5.5317602            0   -4.8058435  -0.43531704 
   19300   0.48225573   -5.5214294            0    -4.798883   -0.3638683 
   19400   0.48640496    -5.519716            0   -4.7909531  -0.30711154 
   19500   0.48692203   -5.5126366            0   -4.7830989   -0.2323009 
   19600   0.50665566   -5.5338316            0   -4.7747278  -0.33102894 
   19700   0.50728114   -5.5297603            0   -4.7697193  -0.32790916 
   19800   0.50383489   -5.5207835            0   -4.7659059  -0.34689856 
   19900   0.51487006   -5.5335602            0    -4.762149  -0.48789586 
   20000   0.50841631   -5.5205744            0   -4.7588327  -0.46334634 
Loop time of 3.44249 on 4 procs for 20000 steps with 864 atoms

Performance: 501962.788 tau/day, 5809.754 timesteps/s
99.6% CPU use with 4 MPI tasks x no OpenMP threads

MPI task timing breakdown:
Section |  min time  |  avg time  |  max time  |%varavg| %total
---------------------------------------------------------------
Pair    | 1.5312     | 2.0538     | 2.5116     |  24.9 | 59.66
Neigh   | 0.25766    | 0.32614    | 0.37389    |   8.0 |  9.47
Comm    | 0.40747    | 0.91532    | 1.5099     |  42.3 | 26.59
Output  | 0.0019414  | 0.002298   | 0.0033629  |   1.3 |  0.07
Modify  | 0.11415    | 0.11822    | 0.12228    |   1.0 |  3.43
Other   |            | 0.02674    |            |       |  0.78

Nlocal:        216.000 ave         264 max         141 min
Histogram: 1 0 0 0 0 0 1 0 1 1
Nghost:        1141.75 ave        1230 max        1080 min
Histogram: 1 0 0 2 0 0 0 0 0 1
Neighs:        7305.00 ave        9790 max        4414 min
Histogram: 1 0 0 0 1 0 1 0 0 1

Total # of neighbors = 29220
Ave neighs/atom = 33.819444
Neighbor list builds = 1000
Dangerous builds not checked
unfix 	thermos

fix 	1 all nve

run 	20000
Per MPI rank memory allocation (min/avg/max) = 2.626 | 2.626 | 2.626 Mbytes
Step Temp E_pair E_mol TotEng Press 
   20000   0.50841631   -5.5205744            0   -4.7588327  -0.46334634 
   20100   0.50626261   -5.5176098            0   -4.7590948  -0.43099375 
   20200   0.50676347   -5.5172479            0   -4.7579825  -0.45179947 
   20300   0.50778024   -5.5184125            0   -4.7576237  -0.44783006 
   20400    0.5246377   -5.5433319            0   -4.7572862  -0.53193106 
   20500   0.51175058   -5.5255311            0   -4.7587937  -0.48176449 
   20600   0.51933367   -5.5379529            0    -4.759854  -0.48228724 
   20700   0.50451517   -5.5148989            0   -4.7590021  -0.37236942 
   20800   0.51609317   -5.5328324            0   -4.7595886  -0.44255773 
   20900   0.50837945   -5.5215192            0   -4.7598326   -0.3686957 
   21000   0.50413151   -5.5157365            0   -4.7604145  -0.33669784 
   21100   0.51249892   -5.5275752            0   -4.7597165  -0.34210913 
   21200   0.49716258    -5.504883            0   -4.7600023  -0.22735172 
   21300    0.5081572   -5.5206965            0   -4.7593429  -0.31781392 
   21400   0.50814626   -5.5208515            0   -4.7595143  -0.35443249 
   21500   0.51448983   -5.5304874            0   -4.7596459  -0.43057849 
   21600   0.50635131   -5.5174034            0   -4.7587555  -0.44933474 
   21700   0.48954363   -5.4919561            0   -4.7584906  -0.42112972 
   21800   0.51041142   -5.5230338            0   -4.7583028  -0.64294297 
   21900   0.49114066   -5.4941808            0   -4.7583225  -0.56849761 
   22000   0.47930992   -5.4760199            0   -4.7578871  -0.47109985 
   22100   0.49247548   -5.4957469            0   -4.7578886  -0.54960847 
   22200   0.48896425   -5.4902789            0   -4.7576814  -0.54016405 
   22300   0.49289203   -5.4962575            0   -4.7577752  -0.61899137 
   22400   0.48359371   -5.4821926            0   -4.7576416  -0.59807805 
   22500   0.49805995   -5.5040367            0   -4.7578115  -0.67653575 
   22600   0.48816825   -5.4902562            0   -4.7588513  -0.57885025 
   22700    0.5063665   -5.5177516            0    -4.759081  -0.64232356 
   22800   0.49658642   -5.5021927            0   -4.7581751  -0.48462963 
   22900   0.49572945   -5.5007568            0   -4.7580233  -0.41214632 
   23000   0.49195067   -5.4949813            0   -4.7579094  -0.39684911 
   23100   0.50162538   -5.5104026            0   -4.7588354   -0.4271824 
   23200   0.51461957   -5.5307976            0   -4.7597617  -0.52169889 
   23300   0.50489323   -5.5160543            0    -4.759591   -0.4707505 
   23400   0.49949027   -5.5077899            0   -4.7594216  -0.42301916 
   23500   0.50670553   -5.5176163            0   -4.7584377  -0.48099204 
   23600   0.50200338   -5.5103251            0   -4.7581916  -0.42913987 
   23700   0.49589131   -5.5019595            0   -4.7589835  -0.36739121 
   23800   0.50360696   -5.5145414            0   -4.7600053   -0.4011008 
   23900   0.51690771   -5.5361528            0   -4.7616886  -0.45436272 
   24000   0.51328548   -5.5296865            0   -4.7606494  -0.42891984 
   24100   0.51963013   -5.5378721            0   -4.7593291  -0.47803555 
   24200   0.50558388   -5.5172228            0   -4.7597247  -0.43756687 
   24300   0.50580568   -5.5162319            0   -4.7584015  -0.48807727 
   24400   0.50037456   -5.5089816            0   -4.7592885  -0.46589991 
   24500   0.48973631   -5.4925723            0    -4.758818  -0.37079567 
   24600    0.5092913   -5.5215874            0   -4.7585346  -0.47192813 
   24700    0.4964346   -5.5020953            0   -4.7583053  -0.41149323 
   24800   0.47773874   -5.4746675            0   -4.7588888  -0.32844137 
   24900   0.51347807   -5.5276679            0   -4.7583422  -0.52434422 
   25000   0.49632377   -5.5025133            0   -4.7588893  -0.40685108 
   25100   0.48496521   -5.4867592            0   -4.7601533  -0.34102791 
   25200   0.50696331   -5.5199259            0    -4.760361    -0.470198 
   25300   0.51683499   -5.5338108            0   -4.7594556  -0.46728705 
   25400   0.50133387   -5.5100553            0   -4.7589248  -0.31115983 
   25500   0.51940651   -5.5374924            0   -4.7592844  -0.42427826 
   25600   0.49269732   -5.4975878            0   -4.7593972  -0.32140424 
   25700   0.50051895   -5.5090786            0   -4.7591691  -0.41312812 
   25800    0.5216693   -5.5405046            0   -4.7589063  -0.61531029 
   25900   0.49892285   -5.5060823            0   -4.7585642  -0.47913436 
   26000    0.4823359   -5.4824013            0   -4.7597349  -0.42107153 
   26100   0.49858675   -5.5064867            0   -4.7594722   -0.5644255 
   26200   0.48876657   -5.4912999            0   -4.7589986  -0.53664667 
   26300    0.5005797   -5.5079833            0   -4.7579828   -0.6200736 
   26400   0.50488904   -5.5139857            0   -4.7575286  -0.60344473 
   26500   0.48807282    -5.490186            0   -4.7589241  -0.49668291 
   26600   0.49641991   -5.5030323            0   -4.7592642  -0.51486313 
   26700   0.48909536   -5.4916221            0   -4.7588282  -0.45438387 
   26800   0.51386977   -5.5290983            0   -4.7591857  -0.58514657 
   26900    0.4998557   -5.5083277            0    -4.759412  -0.50409978 
   27000    0.5076331   -5.5194703            0    -4.758902  -0.53621326 
   27100   0.48706303   -5.4897425            0   -4.7599936  -0.40065931 
   27200   0.50304368   -5.5132159            0   -4.7595237  -0.47224622 
   27300   0.50768749   -5.5197211            0   -4.7590713  -0.53475262 
   27400   0.50074976   -5.5094575            0   -4.7592022  -0.52181584 
   27500   0.50233979   -5.5115006            0   -4.7588631  -0.51622852 
   27600   0.49770866   -5.5045809            0    -4.758882  -0.48946418 
   27700   0.50436225   -5.5143447            0    -4.758677  -0.50052108 
   27800   0.47893515   -5.4769809            0   -4.7594096  -0.33784095 
   27900   0.49653903   -5.5031497            0   -4.7592032  -0.46331375 
   28000   0.48602414   -5.4869611            0   -4.7587687  -0.44757499 
   28100   0.49798286   -5.5047465            0   -4.7586367  -0.53832917 
   28200   0.49698674    -5.503161            0   -4.7585437  -0.55336278 
   28300   0.49711335   -5.5033516            0   -4.7585446  -0.61805505 
   28400   0.49549652   -5.5005528            0   -4.7581683  -0.62388587 
   28500   0.49662172   -5.5012388            0   -4.7571684  -0.62007081 
   28600   0.47702901    -5.470335            0   -4.7556197  -0.54175049 
   28700   0.49752884   -5.5008221            0   -4.7553926  -0.72854606 
   28800   0.47787631   -5.4719219            0   -4.7559371  -0.67116333 
   28900   0.47545244   -5.4685365            0   -4.7561833  -0.66785961 
   29000   0.49800127   -5.5023789            0   -4.7562415  -0.79495652 
   29100   0.48831333   -5.4877291            0   -4.7561069  -0.68925665 
   29200   0.48499653   -5.4823446            0   -4.7556918  -0.65403656 
   29300   0.49282389    -5.493469            0   -4.7550888  -0.67246727 
   29400   0.48311146   -5.4805233            0   -4.7566948  -0.63632235 
   29500   0.49187566   -5.4928798            0   -4.7559203  -0.62313681 
   29600   0.48385107   -5.4815545            0   -4.7566179  -0.46978192 
   29700   0.49726519   -5.5015227            0   -4.7564882   -0.5277901 
   29800    0.5031563   -5.5105952            0   -4.7567342  -0.58536429 
   29900   0.49642125   -5.5005229            0   -4.7567529  -0.52700481 
   30000    0.4909301   -5.4921818            0    -4.756639  -0.47356993 
   30100   0.48479518   -5.4829507            0   -4.7565996  -0.43626207 
   30200   0.50227371   -5.5101403            0   -4.7576017  -0.51911347 
   30300   0.49715034   -5.5018764            0    -4.757014  -0.53891456 
   30400   0.49901072   -5.5057961            0   -4.7581463  -0.53534592 
   30500   0.49187346    -5.494478            0   -4.7575217  -0.46521937 
   30600   0.48794908    -5.488656            0   -4.7575795  -0.45184274 
   30700   0.48849833   -5.4887235            0   -4.7568241  -0.47548771 
   30800   0.49104766   -5.4920511            0   -4.7563321  -0.57451377 
   30900   0.49477767   -5.4969396            0    -4.755632  -0.65991366 
   31000   0.47125982   -5.4618899            0   -4.7558183  -0.53061617 
   31100   0.48497848   -5.4824445            0   -4.7558187  -0.61587089 
   31200    0.4904343   -5.4911876            0   -4.7563876  -0.64879805 
   31300   0.47633252   -5.4703431            0   -4.7566713  -0.55998008 
   31400   0.47919787   -5.4744072            0   -4.7564423  -0.56390617 
   31500   0.47636266   -5.4703278            0   -4.7566108   -0.5341739 
   31600   0.49139248   -5.4935653            0   -4.7573297  -0.62878758 
   31700   0.50108009   -5.5071571            0   -4.7564069  -0.71213436 
   31800   0.48953112   -5.4900425            0   -4.7565957  -0.64104032 
   31900   0.49639756   -5.4994774            0   -4.7557429  -0.68155644 
   32000   0.48593726   -5.4833496            0   -4.7552874  -0.62106274 
   32100   0.51035837   -5.5199414            0   -4.7552898  -0.73847758 
   32200   0.48460019   -5.4817252            0   -4.7556662  -0.57544249 
   32300   0.47714369   -5.4697794            0   -4.7548922  -0.52547318 
   32400    0.4820619   -5.4780369            0    -4.755781  -0.54770308 
   32500   0.48517206    -5.482414            0   -4.7554983  -0.54591058 
   32600   0.48962551   -5.4895754            0   -4.7559872  -0.56600054 
   32700   0.49372406   -5.4958475            0   -4.7561186   -0.5467341 
   32800   0.50863365     -5.51815            0   -4.7560826  -0.59143208 
   32900   0.49971295   -5.5050864            0   -4.7563845  -0.52850795 
   33000   0.48014476    -5.475973            0   -4.7565894  -0.44790529 
   33100   0.49909337    -5.504251            0   -4.7564774  -0.63140779 
   33200    0.4949703   -5.4986212            0   -4.7570251  -0.63766019 
   33300   0.49309692   -5.4965126            0   -4.7577233   -0.5979237 
   33400   0.49920246   -5.5062072            0   -4.7582702  -0.53294087 
   33500    0.5087212   -5.5215259            0   -4.7593273  -0.53657417 
   33600   0.51935564    -5.536913            0   -4.7587812  -0.65799273 
   33700    0.5021408     -5.51112            0   -4.7587805  -0.52709232 
   33800   0.52372099   -5.5428876            0   -4.7582153   -0.5634097 
   33900   0.51011467   -5.5223703            0   -4.7580839  -0.41078651 
   34000   0.52406954   -5.5448461            0   -4.7596516  -0.49274743 
   34100   0.50870806   -5.5228482            0   -4.7606693  -0.42921729 
   34200   0.51558744   -5.5327429            0   -4.7602569  -0.42936586 
   34300   0.52316892   -5.5443096            0   -4.7604646  -0.43464082 
   34400   0.51307739    -5.528941            0   -4.7602157  -0.36538671 
   34500   0.50820874   -5.5210213            0   -4.7595905  -0.37963045 
   34600   0.53039256   -5.5532798            0   -4.7586118  -0.52684489 
   34700   0.52252377   -5.5418317            0   -4.7589532  -0.47098169 
   34800   0.52122469   -5.5408656            0   -4.7599334  -0.49688473 
   34900   0.51117823   -5.5252667            0   -4.7593868  -0.41793481 
   35000   0.52176216   -5.5399706            0   -4.7582332  -0.45453493 
   35100   0.50585803   -5.5165953            0   -4.7586865  -0.41395046 
   35200   0.50684021   -5.5189564            0    -4.759576  -0.44403475 
   35300   0.50466573   -5.5152087            0   -4.7590863  -0.48540091 
   35400   0.51375448   -5.5282026            0   -4.7584629  -0.61922514 
   35500   0.50743231     -5.51888            0   -4.7586125   -0.6338879 
   35600   0.50662819   -5.5179812            0   -4.7589184  -0.64452553 
   35700    0.4900152   -5.4924297            0   -4.7582576  -0.53931015 
   35800   0.51115219   -5.5235134            0   -4.7576725  -0.64042359 
   35900   0.49679535   -5.5028903            0   -4.7585598  -0.54600046 
   36000   0.50243103   -5.5102748            0   -4.7575005  -0.56900838 
   36100   0.50925763   -5.5202597            0   -4.7572574  -0.57073937 
   36200   0.49151925   -5.4940579            0   -4.7576323  -0.46982252 
   36300   0.49939774   -5.5059003            0   -4.7576707  -0.52783374 
   36400   0.50942386   -5.5208864            0    -4.757635  -0.61304443 
   36500    0.4908496   -5.4935863            0   -4.7581641   -0.5129495 
   36600   0.50333299   -5.5112137            0   -4.7570881  -0.57673705 
   36700   0.49946132   -5.5058844            0   -4.7575596  -0.50844214 
   36800   0.50563989   -5.5155363            0   -4.7579543  -0.50960431 
   36900   0.50066043   -5.5087958            0   -4.7586744  -0.45976751 
   37000   0.49908516    -5.506966            0   -4.7592047  -0.43793943 
   37100   0.49636875   -5.5024785            0   -4.7587871  -0.39569584 
   37200   0.49570887    -5.501679            0   -4.7589763  -0.40764454 
   37300   0.51080026   -5.5234221            0   -4.7581085  -0.48775511 
   37400   0.52234572   -5.5414943            0   -4.7588826  -0.56260309 
   37500   0.51140161   -5.5263052            0   -4.7600906  -0.48499297 
   37600   0.52281177   -5.5431365            0   -4.7598265  -0.51193773 
   37700   0.51949333   -5.5395802            0   -4.7612421  -0.45149217 
   37800   0.51476451   -5.5325335            0   -4.7612804  -0.40998632 
   37900   0.50346516   -5.5152073            0   -4.7608837  -0.31479737 
   38000   0.52283852   -5.5445945            0   -4.7612444  -0.41405204 
   38100   0.52872315   -5.5522011            0   -4.7600343  -0.45153646 
   38200   0.51916307    -5.537253            0   -4.7594097  -0.47470411 
   38300   0.49835224   -5.5059783            0   -4.7593152  -0.41875033 
   38400   0.50651755    -5.518286            0    -4.759389  -0.48076462 
   38500   0.49075246   -5.4950981            0   -4.7598214   -0.4083836 
   38600   0.49860335   -5.5057331            0   -4.7586937  -0.44840465 
   38700   0.50342626   -5.5139393            0   -4.7596739   -0.4955422 
   38800    0.4935079   -5.4981345            0   -4.7587294  -0.47618654 
   38900    0.5069012   -5.5168625            0   -4.7573908  -0.57163374 
   39000   0.49343926   -5.4974467            0   -4.7581445  -0.53039634 
   39100   0.48319457   -5.4813239            0   -4.7573709  -0.50896992 
   39200   0.48730292   -5.4868536            0   -4.7567452  -0.52468042 
   39300   0.48008388   -5.4756007            0   -4.7563084  -0.48011484 
   39400   0.50187612   -5.5081208            0   -4.7561779  -0.62959641 
   39500   0.48591015   -5.4845382            0   -4.7565165  -0.56401554 
   39600    0.4846765   -5.4820834            0   -4.7559101    -0.565106 
   39700   0.51014088   -5.5200722            0   -4.7557466   -0.7443018 
   39800   0.48880165   -5.4880799            0    -4.755726  -0.64158904 
   39900   0.49529594   -5.4978282            0   -4.7557442   -0.7011734 
   40000    0.5013199   -5.5083664            0   -4.7572569  -0.78116667 
Loop time of 3.74035 on 4 procs for 20000 steps with 864 atoms

Performance: 461988.651 tau/day, 5347.091 timesteps/s
99.7% CPU use with 4 MPI tasks x no OpenMP threads

MPI task timing breakdown:
Section |  min time  |  avg time  |  max time  |%varavg| %total
---------------------------------------------------------------
Pair    | 1.2466     | 2.1177     | 2.8206     |  39.2 | 56.62
Neigh   | 0.21293    | 0.32938    | 0.40651    |  12.8 |  8.81
Comm    | 0.42376    | 1.2126     | 2.219      |  59.3 | 32.42
Output  | 0.0020605  | 0.0026009  | 0.0037435  |   1.3 |  0.07
Modify  | 0.034412   | 0.051838   | 0.060549   |   4.5 |  1.39
Other   |            | 0.02628    |            |       |  0.70

Nlocal:        216.000 ave         258 max         149 min
Histogram: 1 0 0 0 0 1 0 0 1 1
Nghost:        1149.00 ave        1229 max        1093 min
Histogram: 1 0 1 0 1 0 0 0 0 1
Neighs:        7262.50 ave        9465 max        4481 min
Histogram: 1 0 0 0 0 1 0 1 0 1

Total # of neighbors = 29050
Ave neighs/atom = 33.622685
Neighbor list builds = 1000
Dangerous builds not checked

compute 1 all msd
compute 2 all vacf

thermo_style custom c_1[4] c_2[4]
thermo 100

run 10000
Per MPI rank memory allocation (min/avg/max) = 3.376 | 3.376 | 3.376 Mbytes
c_1[4] c_2[4] 
           0     1.502219 
 0.012898004   0.53983278 
 0.037441791  -0.12813062 
 0.059346629 -0.098727378 
 0.077522667 -0.064310612 
 0.094005543 -0.048465498 
  0.11011731 -0.093953404 
  0.12440361 -0.085144179 
  0.13854677 -0.076231094 
  0.15236335 -0.056987204 
  0.16859108 0.0015840841 
  0.18593909 0.0036149316 
  0.20123684 -0.020012592 
  0.21922127 -0.0098238507 
  0.23792576   0.01322601 
  0.25170399  0.024689566 
  0.26311337  0.013306084 
  0.27372652 0.0059023158 
  0.28831165 -0.0040057441 
  0.30545899 -0.054860378 
  0.32228093 -0.015808694 
  0.33575614  0.028226836 
  0.34862612 -0.020553638 
  0.36253978 -0.035769654 
  0.37701214   0.02389404 
  0.39095149  0.010881226 
   0.4095049 -0.032877159 
  0.42854663 -0.023346185 
  0.44562897  0.027991765 
  0.46337058  0.043277092 
  0.47842813 0.0009774074 
  0.49281023   0.01546627 
  0.50778997  0.001930321 
  0.52514611 -0.036717103 
  0.54121872  0.022228936 
  0.55774767  0.087380874 
  0.57990992  0.025422399 
  0.60722151  0.040805341 
  0.63273251 0.0021221025 
  0.65211653  -0.05607038 
  0.67113071 -0.038263649 
  0.68954603  0.034126125 
  0.70450691  -0.02520208 
  0.71903739 -0.054517718 
  0.73304701 0.0029636272 
  0.74831542 0.0048423152 
  0.76559092  0.027929298 
  0.78143008  0.033894181 
  0.80035695 0.0020121412 
  0.81923471 -0.017785297 
  0.83365176  0.033694529 
  0.84418538  0.039610579 
  0.85605203   0.03183094 
  0.87039852 -0.0095534503 
  0.88760435 -0.014634301 
   0.9126229 -0.012090885 
  0.93313312 -0.016646745 
  0.94642772   0.02194245 
  0.95889141  0.014466046 
  0.97217925 0.00025844622 
  0.98323363  0.061088659 
  0.99706227  0.021509984 
   1.0148657  0.034685824 
   1.0330629  0.043170596 
    1.052561  -0.01769365 
   1.0770101  0.025892003 
   1.0953296  0.039906249 
   1.1091896  0.001000656 
   1.1243121  0.021471383 
   1.1401888 -0.0041947581 
    1.154045  -0.05355652 
   1.1708238  0.019427718 
   1.1901258    0.0753379 
   1.2049431  0.045635488 
   1.2192162 0.0025218474 
   1.2369917 -0.018507299 
   1.2543851  0.038290971 
   1.2714118  0.024715896 
   1.2931979 -0.0080840824 
   1.3087679 -0.0031921238 
   1.3229278 -0.016927612 
   1.3345674 -0.049583751 
   1.3476428 -0.0011988374 
   1.3691075  0.025546244 
   1.3914066 8.8066141e-05 
   1.4151319 -0.026108599 
   1.4377076 -0.063387354 
   1.4544045 -0.043014168 
   1.4677271  0.042912419 
   1.4828363  0.029128458 
   1.5040635  0.040069869 
   1.5239285   0.02588556 
   1.5347466 -0.057261313 
   1.5497921 -0.0025547253 
   1.5642235  0.054598968 
   1.5810342  0.044801692 
   1.6006258 0.0049321848 
    1.613085 -0.047581735 
   1.6243263 -0.00012237642 
   1.6433395  0.052225047 
   1.6659375  0.042848873 
Loop time of 1.87133 on 4 procs for 10000 steps with 864 atoms

Performance: 461704.153 tau/day, 5343.798 timesteps/s
99.7% CPU use with 4 MPI tasks x no OpenMP threads

MPI task timing breakdown:
Section |  min time  |  avg time  |  max time  |%varavg| %total
---------------------------------------------------------------
Pair    | 0.58308    | 1.0551     | 1.406      |  28.9 | 56.38
Neigh   | 0.10282    | 0.16509    | 0.2054     |   9.4 |  8.82
Comm    | 0.21538    | 0.61093    | 1.1551     |  43.6 | 32.65
Output  | 0.00085005 | 0.0011052  | 0.0015637  |   0.8 |  0.06
Modify  | 0.017021   | 0.025924   | 0.030205   |   3.3 |  1.39
Other   |            | 0.01316    |            |       |  0.70

Nlocal:        216.000 ave         259 max         136 min
Histogram: 1 0 0 0 0 0 0 1 1 1
Nghost:        1143.50 ave        1245 max        1079 min
Histogram: 1 0 1 1 0 0 0 0 0 1
Neighs:        7317.00 ave        9384 max        4110 min
Histogram: 1 0 0 0 0 0 1 1 0 1

Total # of neighbors = 29268
Ave neighs/atom = 33.875000
Neighbor list builds = 500
Dangerous builds not checked

compute 3 all msd
compute 4 all vacf

thermo_style custom c_3[4] c_4[4]
thermo 100

run 10000
Per MPI rank memory allocation (min/avg/max) = 4.126 | 4.126 | 4.126 Mbytes
c_3[4] c_4[4] 
           0    1.5189807 
 0.012707201   0.43487437 
 0.035508053  -0.19464236 
 0.055345613  -0.13428745 
 0.073532783 -0.063748387 
 0.091781029 -0.064558968 
   0.1091492 -0.042249744 
  0.12750844 -0.036761151 
  0.14587412 -0.00045625219 
   0.1622052 0.00080237532 
  0.17741331  0.049159631 
  0.19597415  0.012571994 
  0.21480564 -0.0075005142 
  0.23161356 0.0047378712 
  0.24788167 0.0014816607 
  0.26477202 0.0054571561 
   0.2814565 -0.028836434 
  0.29875563 0.0029822516 
  0.31457214  0.015391333 
  0.33082996 -0.030227166 
  0.34610943 -0.010808259 
  0.36149422  0.028322931 
  0.37870017  0.014804237 
  0.39805845   0.03170087 
  0.42038246 0.0060848461 
  0.44032924 -0.029042242 
  0.45627406  0.010387918 
    0.474707  0.016569685 
   0.4963627 -0.0042943433 
  0.51511876  0.026018098 
  0.53074218  0.028585083 
  0.54306351    0.0677991 
  0.55702294 0.0091628098 
  0.57630859 -0.021276131 
  0.59103821  0.067163576 
  0.60170256   0.03410674 
  0.61311028 -0.026563415 
    0.627234 0.0075154629 
  0.64325194  0.036683553 
  0.66302633  0.010561284 
  0.68128368 -0.020910477 
  0.69812679 -0.026967906 
  0.71619427 -0.036334769 
  0.73334944   0.01282334 
  0.75058443  0.051698447 
   0.7700852  0.054901677 
  0.78885387 -0.015160956 
  0.80399267 -0.0048175598 
  0.81741098  0.026683515 
  0.83201309 -0.0018283217 
  0.84473645  0.018226253 
   0.8596445  0.025631799 
  0.87843943 -0.0024576666 
  0.89952119  0.027375109 
  0.91815825 -0.0011376131 
  0.93634603 -0.021732026 
  0.95456561 -0.026346237 
  0.96650175 -0.045455921 
  0.98125731 -0.0065739831 
  0.99970598  -0.02505148 
   1.0169171 -0.055410806 
   1.0332084 0.0063661562 
   1.0510171 -0.0028461683 
   1.0641835 -0.022162414 
   1.0788434  0.024759674 
   1.0998848  0.028033596 
   1.1236872 -0.016934486 
   1.1448037 -0.010670683 
   1.1637508  0.046395591 
   1.1810012  0.030505354 
   1.1926272  0.005432401 
   1.2046516 -0.036870796 
   1.2218513 -0.0078995453 
   1.2306596  0.014988495 
   1.2349047 -0.021764325 
   1.2465953  0.012496045 
   1.2642231 0.0046956803 
   1.2794266  -0.03089984 
   1.2985733 -0.016873045 
   1.3179447 0.0024894674 
   1.3276015 0.0095356408 
   1.3344969  0.020498609 
   1.3445567 -0.042531881 
   1.3608742  0.014673334 
   1.3826969 -0.0076051567 
   1.4002748   0.03121461 
   1.4087019  0.018704726 
   1.4192037 -0.024802631 
   1.4298126 -0.022007301 
   1.4392515  0.022087708 
    1.453435  0.021514473 
   1.4699206  0.040250866 
   1.4862557    0.0271655 
   1.4967829 -0.028432515 
   1.5086257 -0.064573402 
   1.5207546  -0.03766127 
   1.5329918  0.013099287 
    1.542325  0.045310238 
   1.5641166  0.025016092 
    1.586045  0.034718702 
   1.6048738  0.033360815 
Loop time of 1.87768 on 4 procs for 10000 steps with 864 atoms

Performance: 460141.524 tau/day, 5325.712 timesteps/s
99.7% CPU use with 4 MPI tasks x no OpenMP threads

MPI task timing breakdown:
Section |  min time  |  avg time  |  max time  |%varavg| %total
---------------------------------------------------------------
Pair    | 0.55933    | 1.0554     | 1.4104     |  30.2 | 56.21
Neigh   | 0.10092    | 0.16482    | 0.20548    |   9.5 |  8.78
Comm    | 0.21703    | 0.61727    | 1.1871     |  45.1 | 32.87
Output  | 0.0008506  | 0.001117   | 0.0015935  |   0.9 |  0.06
Modify  | 0.016916   | 0.025926   | 0.03037    |   3.4 |  1.38
Other   |            | 0.01319    |            |       |  0.70

Nlocal:        216.000 ave         257 max         137 min
Histogram: 1 0 0 0 0 0 0 1 1 1
Nghost:        1151.00 ave        1251 max        1089 min
Histogram: 1 0 2 0 0 0 0 0 0 1
Neighs:        7339.25 ave        9516 max        3817 min
Histogram: 1 0 0 0 0 0 0 2 0 1

Total # of neighbors = 29357
Ave neighs/atom = 33.978009
Neighbor list builds = 500
Dangerous builds not checked

compute 5 all msd
compute 6 all vacf

thermo_style custom c_5[4] c_6[4]
thermo 100

run 10000
Per MPI rank memory allocation (min/avg/max) = 4.876 | 4.876 | 4.876 Mbytes
c_5[4] c_6[4] 
           0    1.5337364 
  0.01294114   0.50374045 
 0.036904461  -0.12289282 
 0.059931842  -0.06399023 
  0.08045555  0.027326232 
  0.10041768 -0.058534974 
  0.12012086 -0.051239772 
  0.13865896 -0.011439431 
  0.15554423 0.00013330209 
  0.17286056  0.028564245 
  0.18972789 -0.033472181 
  0.20618151 -0.036071653 
  0.22190159 -0.0019776952 
  0.23733868  0.024837491 
  0.25233789 0.0058347376 
  0.26881903   0.01265938 
  0.28640352 -0.0024617702 
  0.30292699  0.019132781 
   0.3158722  0.035618069 
  0.32830468 0.0024230341 
  0.34338242 -0.0038353077 
  0.36037942 0.0045898921 
  0.37624223 -0.013009013 
  0.38863706 -0.096875219 
  0.40060244 -0.056577186 
  0.41530147 -0.0087548627 
  0.43239339 -0.010532832 
  0.45089989  0.068130932 
  0.46834037   0.10782233 
  0.48393809 0.00064099052 
    0.499845 -0.028975259 
  0.51841607 -0.020230654 
  0.53672345 -0.044278707 
  0.55248953  0.025899371 
  0.57080438  0.056343621 
  0.58692458   0.01295083 
  0.60170278 -0.030636584 
  0.61803005 -0.022490721 
  0.63869467 0.0090625392 
  0.65401454  0.026451394 
  0.66809035  0.028360726 
  0.68395059  0.052381704 
  0.69945936  0.048190552 
  0.71334781  -0.04303754 
  0.72557002  0.015588214 
  0.73364923 -0.030078795 
  0.74272017 -0.013605411 
  0.75885962 0.0034038443 
  0.77642746  0.010931623 
  0.79465966 -0.024511102 
  0.81221269  -0.02461488 
  0.83321257 -0.027365137 
  0.85287809 -0.037546651 
  0.86534579 -0.018533115 
  0.87912899 -0.010230693 
  0.90160593 -0.027000238 
  0.92464066 -0.023284817 
  0.94293142  0.013467581 
  0.95705643 0.00092533548 
  0.97026118 -0.030613599 
  0.99063986  0.028227534 
   1.0111963 0.0056770919 
   1.0231378 -0.018832102 
   1.0330879  0.013633137 
   1.0455131 -0.030069214 
   1.0592287 -0.025036125 
   1.0739515  0.054238142 
   1.0814299 0.0065967973 
   1.0925519 -0.001239708 
   1.1083051   0.01239587 
   1.1259786  0.013656252 
   1.1486252  0.026563864 
   1.1730617  0.023809324 
   1.1926241 0.0099274181 
   1.2032178 -0.0094302182 
   1.2108869 -0.045215831 
    1.224083 0.0029879811 
   1.2384674   0.01854096 
   1.2598994  0.027478327 
   1.2807207  0.049189025 
   1.2956382 -0.020163175 
   1.3158546 -0.062712491 
   1.3363483  -0.03434578 
   1.3509504  0.026500051 
   1.3581611  0.065131764 
   1.3656519  0.039649466 
   1.3810653  0.047657666 
   1.3949455  0.013867329 
   1.4057747 -0.078785728 
   1.4114694 3.8060946e-05 
   1.4119995 0.0082971246 
   1.4215366 -0.038372731 
   1.4369741 0.0071623298 
   1.4504537  0.015382628 
      1.4674 -0.020260235 
   1.4912299 -0.0020523237 
    1.511631 -0.018571371 
   1.5256211 0.0075601172 
    1.534383  0.029096846 
   1.5511406 -0.0094796713 
   1.5748781 -0.018091851 
Loop time of 1.85193 on 4 procs for 10000 steps with 864 atoms

Performance: 466541.013 tau/day, 5399.780 timesteps/s
99.7% CPU use with 4 MPI tasks x no OpenMP threads

MPI task timing breakdown:
Section |  min time  |  avg time  |  max time  |%varavg| %total
---------------------------------------------------------------
Pair    | 0.57026    | 1.0502     | 1.3904     |  29.1 | 56.71
Neigh   | 0.10183    | 0.16395    | 0.20308    |   9.3 |  8.85
Comm    | 0.21389    | 0.59766    | 1.1493     |  44.2 | 32.27
Output  | 0.00085337 | 0.0010972  | 0.0015366  |   0.8 |  0.06
Modify  | 0.017218   | 0.025875   | 0.030071   |   3.2 |  1.40
Other   |            | 0.01318    |            |       |  0.71

Nlocal:        216.000 ave         255 max         151 min
Histogram: 1 0 0 0 0 0 1 0 1 1
Nghost:        1160.50 ave        1227 max        1121 min
Histogram: 1 1 0 1 0 0 0 0 0 1
Neighs:        7232.50 ave        9275 max        4330 min
Histogram: 1 0 0 0 0 0 1 1 0 1

Total # of neighbors = 28930
Ave neighs/atom = 33.483796
Neighbor list builds = 500
Dangerous builds not checked

compute 7 all msd
compute 8 all vacf

thermo_style custom c_7[4] c_8[4]
thermo 100

run 10000
Per MPI rank memory allocation (min/avg/max) = 5.626 | 5.626 | 5.626 Mbytes
c_7[4] c_8[4] 
           0    1.4393572 
 0.012759246   0.54514426 
 0.037193523  -0.11754867 
 0.061422904 -0.047672381 
 0.082876117 -0.019510161 
  0.10201775 -0.079140499 
  0.12044452  -0.05024402 
  0.13791191  -0.01870804 
  0.15720229  0.020079673 
  0.17278926  0.017263405 
  0.18814746  0.050911376 
  0.20531674 -0.017319863 
  0.22288339 -0.0094563409 
  0.24110267  0.019616198 
  0.26106623 -0.013813747 
  0.28234938  0.035954403 
  0.30137997 -0.0047377865 
   0.3182203 -0.0067014594 
  0.33542931 -0.015494907 
  0.35142103 5.4032428e-05 
  0.36634186  0.012240357 
  0.37922754  0.021815002 
  0.39032988  0.011008295 
  0.40524141 0.0076992839 
  0.42402465 -0.010086413 
  0.44181592 -0.068751842 
  0.46121425 -0.019510766 
  0.48020951 -0.014801844 
  0.49773145 -0.033858601 
   0.5141607 -0.011150731 
  0.53040788  0.018064209 
  0.54754992   0.02877453 
  0.56837886  0.028653846 
  0.58607515 -0.0077354208 
  0.59814759 -0.028826755 
  0.60861707  0.039784236 
  0.62598374  0.024590432 
   0.6450527 -0.024488227 
  0.66153685 -0.067200233 
  0.67394672 -0.049047812 
  0.68837436 0.00010216106 
  0.70418017  -0.02250381 
  0.72415839 -0.043333068 
  0.74105766  -0.05062779 
  0.75627179  0.010477308 
  0.77204029 0.0014052536 
  0.78760846  0.046775814 
  0.80010558 0.0097834133 
  0.81478007 -0.018718892 
  0.83096878  0.016866171 
  0.84601284  0.036177395 
  0.86689709 -0.0015027911 
  0.88852836 -0.030419984 
  0.90452809 -0.033077561 
  0.91529694  0.052727028 
  0.92730083 -0.0084574944 
   0.9414889 -0.0090596405 
  0.95767447 -0.001969997 
  0.97187951 -0.013210952 
  0.98713525 -0.020418653 
   1.0057158 -0.018975624 
   1.0237831 -0.049214124 
   1.0383186 -0.011993841 
    1.049803  0.025080449 
     1.06281 -0.029008354 
   1.0813806 -0.0080647854 
   1.0992569    -0.021885 
    1.118646 -0.043727368 
   1.1316404 -0.020874319 
   1.1411869  0.012434782 
   1.1477005   0.01518403 
   1.1589052  0.026641196 
   1.1754316  0.032465011 
   1.1943499 -0.014341796 
   1.2064465 -0.066660526 
   1.2192435 -0.0097792879 
    1.233013  0.013019652 
   1.2451642 -0.00014504143 
   1.2585355  0.037092914 
   1.2779976  0.045049982 
   1.2971467  0.007188543 
   1.3128082 -0.025316793 
   1.3293014 -0.022740025 
   1.3444894 -0.052826728 
   1.3602148 -0.017123874 
   1.3798637 -0.0019977583 
    1.400008  0.034300335 
   1.4166043  0.013009032 
   1.4294433 -0.066537732 
   1.4405015 -0.059783898 
   1.4542849 0.0088104771 
   1.4636583 0.0011961764 
   1.4733374 0.0017258973 
   1.4846377  0.011061079 
    1.501985 -0.048161073 
   1.5187473 -0.048528627 
   1.5333492  0.017513452 
   1.5471706    0.0155147 
   1.5605584  0.023037979 
   1.5860833  0.019887994 
   1.6093113 -0.034149837 
Loop time of 1.84295 on 4 procs for 10000 steps with 864 atoms

Performance: 468813.904 tau/day, 5426.087 timesteps/s
99.7% CPU use with 4 MPI tasks x no OpenMP threads

MPI task timing breakdown:
Section |  min time  |  avg time  |  max time  |%varavg| %total
---------------------------------------------------------------
Pair    | 0.56252    | 1.0541     | 1.3835     |  29.6 | 57.20
Neigh   | 0.10066    | 0.16533    | 0.20349    |   9.7 |  8.97
Comm    | 0.21169    | 0.58332    | 1.1494     |  45.6 | 31.65
Output  | 0.00085469 | 0.0010756  | 0.0014733  |   0.7 |  0.06
Modify  | 0.016918   | 0.025895   | 0.029868   |   3.2 |  1.41
Other   |            | 0.01319    |            |       |  0.72

Nlocal:        216.000 ave         256 max         131 min
Histogram: 1 0 0 0 0 0 0 1 0 2
Nghost:        1166.00 ave        1265 max        1115 min
Histogram: 1 1 1 0 0 0 0 0 0 1
Neighs:        7300.25 ave        9356 max        3870 min
Histogram: 1 0 0 0 0 0 1 0 1 1

Total # of neighbors = 29201
Ave neighs/atom = 33.797454
Neighbor list builds = 500
Dangerous builds not checked

compute 9 all msd
compute 10 all vacf

thermo_style custom c_9[4] c_10[4]
thermo 100

run 10000
Per MPI rank memory allocation (min/avg/max) = 6.376 | 6.376 | 6.376 Mbytes
c_9[4] c_10[4] 
           0    1.4416148 
 0.012503721   0.47729476 
 0.036169479  -0.13064468 
 0.057078656   -0.1289749 
 0.077303352 -0.041316836 
 0.098216052 -0.0031791941 
  0.11676891 -0.0046445552 
  0.13428215   0.02302821 
   0.1526416  0.016136895 
  0.16943629 -0.0088940221 
  0.18312245 -0.019480448 
  0.19677693 -0.043162532 
  0.21342072 -0.020987452 
  0.23064011  0.012306941 
  0.24607989  0.028934545 
  0.25981782 -0.012517855 
  0.27243262 -0.016382602 
  0.28485353 0.0041850709 
  0.29624774  -0.01977197 
  0.31218781 0.0039693332 
  0.32926771 0.0018930016 
  0.34642579 -0.031878631 
  0.36279868  0.055003264 
  0.37904474  0.035795839 
  0.39853853  0.030717988 
  0.41859026  0.046011797 
  0.43647911  0.011944235 
  0.45476323 -0.001227022 
  0.47004455 -0.013970659 
  0.48438526 0.0052091822 
  0.50194964  0.022740168 
  0.52031901  0.025437176 
  0.53385448  -0.01314191 
  0.54867879 -0.022328647 
  0.56670673 0.0011342495 
  0.58596412 0.0056304821 
  0.59928439 0.0042115053 
  0.61386966 0.0022134494 
   0.6278299 -0.0066651046 
  0.63831217 -0.022548234 
  0.64900304 -0.020597223 
   0.6589522 -0.0014106839 
  0.66930191 0.00017467704 
   0.6796479 -0.020253526 
  0.69054188  0.021800595 
  0.70311249 0.0071757541 
   0.7143979 -0.038071745 
  0.72604895 0.0061715657 
  0.74036537 -0.015891721 
  0.75580718 -0.018075305 
  0.77052252  0.052872196 
    0.784106  0.054569933 
  0.79987902  0.011021441 
  0.81772936  0.052210992 
  0.82718155  0.040889762 
  0.83819717  0.046821111 
  0.84919854  0.027397807 
  0.86507038 -0.0055358592 
  0.87952635  0.027544151 
  0.88815548 -0.0023137979 
  0.90076307  -0.02639696 
  0.91590918 -0.032735134 
  0.92949365 -0.011501235 
  0.94880003 -0.020668226 
  0.96792825  0.047749334 
  0.98359567  0.030671072 
  0.99707637  0.040800009 
   1.0105599 0.0088680614 
   1.0277473 -0.030946549 
   1.0445222 -0.046425648 
   1.0651602 -0.0085012407 
   1.0850358 -0.010505645 
   1.0992108 -0.022621589 
    1.112309 -0.016184227 
   1.1236844  0.023085394 
   1.1358779 0.0095796576 
   1.1557568 -0.021725395 
    1.176336  0.011545906 
    1.193313  0.020195877 
   1.2065707 -0.0061499172 
    1.228808  0.023902261 
   1.2580167  0.029213546 
   1.2821803 -0.0010685768 
   1.2936291  0.015393214 
   1.3049083 -0.0071945606 
   1.3140072 -0.030957175 
   1.3252844 -0.036340746 
   1.3440403  0.010937026 
   1.3649325 -0.018197296 
   1.3833853 -0.021031738 
   1.3982015 -0.012617717 
   1.4092657 0.00072351239 
   1.4269617 -0.0018234466 
   1.4489326  0.027042974 
   1.4652375 -0.0090424555 
   1.4821936  0.010374627 
   1.4962519  0.015273886 
   1.5045221 -0.027072386 
   1.5204435 0.0012268367 
   1.5324301  0.024390165 
   1.5472211   0.03957488 
Loop time of 1.85722 on 4 procs for 10000 steps with 864 atoms

Performance: 465211.738 tau/day, 5384.395 timesteps/s
99.7% CPU use with 4 MPI tasks x no OpenMP threads

MPI task timing breakdown:
Section |  min time  |  avg time  |  max time  |%varavg| %total
---------------------------------------------------------------
Pair    | 0.52396    | 1.0525     | 1.3937     |  31.3 | 56.67
Neigh   | 0.095259   | 0.16459    | 0.20323    |  10.2 |  8.86
Comm    | 0.21589    | 0.59987    | 1.2084     |  47.6 | 32.30
Output  | 0.00087728 | 0.0011053  | 0.0015162  |   0.8 |  0.06
Modify  | 0.016097   | 0.025901   | 0.029856   |   3.6 |  1.39
Other   |            | 0.01329    |            |       |  0.72

Nlocal:        216.000 ave         256 max         127 min
Histogram: 1 0 0 0 0 0 0 0 1 2
Nghost:        1167.75 ave        1271 max        1114 min
Histogram: 1 1 1 0 0 0 0 0 0 1
Neighs:        7283.75 ave        9449 max        3551 min
Histogram: 1 0 0 0 0 0 0 2 0 1

Total # of neighbors = 29135
Ave neighs/atom = 33.721065
Neighbor list builds = 500
Dangerous builds not checked

Total wall time: 0:00:16
