LAMMPS (29 Sep 2021 - Update 2)
variable t string 1

units lj
boundary p p p
atom_style atomic

lattice fcc 0.8
Lattice spacing in x,y,z = 1.7099759 1.7099759 1.7099759
region r1 block -6 6 -6 6 -6 6
create_box 1 r1
Created orthogonal box = (-10.259856 -10.259856 -10.259856) to (10.259856 10.259856 10.259856)
  2 by 1 by 2 MPI processor grid
create_atoms 1 box
Created 6912 atoms
  using lattice units in orthogonal box = (-10.259856 -10.259856 -10.259856) to (10.259856 10.259856 10.259856)
  create_atoms CPU = 0.001 seconds
mass 1 1.0

pair_style lj/cut 2.5
pair_coeff * * 1.0 1.0

velocity all create $t 322 mom yes rot no
velocity all create 1 322 mom yes rot no
reset_timestep	0
timestep 0.001

#### Equilibration ####
fix base all npt temp 0.6 0.6 0.1 iso 0.1 0.1 1

thermo_style custom temp etotal press density
thermo 100

run 10000
Neighbor list info ...
  update every 1 steps, delay 10 steps, check yes
  max neighbors/atom: 2000, page size: 100000
  master list distance cutoff = 2.8
  ghost atom cutoff = 2.8
  binsize = 1.4, bins = 15 15 15
  1 neighbor lists, perpetual/occasional/extra = 1 0 0
  (1) pair lj/cut, perpetual
      attributes: half, newton on
      pair build: half/bin/atomonly/newton
      stencil: half/bin/3d
      bin: standard
Per MPI rank memory allocation (min/avg/max) = 3.260 | 3.260 | 3.260 Mbytes
Temp TotEng Press Density 
           1   -4.8649635   -5.4090823          0.8 
  0.39255738   -5.2758878  -0.50025474   0.85135892 
  0.59497638   -5.2230496  -0.42373799     0.872601 
   0.6525639   -5.1960487  -0.09612018    0.8845056 
   0.6552659   -5.2799211  -0.17279531   0.89207139 
  0.64650174   -5.3877876  -0.19046062   0.90157399 
  0.64350571   -5.4912517  -0.18550386   0.91216126 
  0.63491057   -5.5989915  -0.10967777   0.92340744 
  0.63225474   -5.6939457   -0.1105076   0.93270307 
  0.62513543   -5.7825456 -0.084491295   0.94089223 
   0.6144611   -5.8620792 -0.034838278   0.94840845 
  0.59997067   -5.9230414   0.05681965   0.95410539 
  0.59497899   -5.9607088  0.063021234   0.95732694 
  0.59088806   -5.9748732   0.12693692   0.95915778 
  0.60006014   -5.9643803    0.1141467   0.95918792 
  0.59640021   -5.9493009   0.17391791   0.95826535 
  0.59408646   -5.9280189   0.16415204   0.95585555 
  0.61334707   -5.9063975  0.026628337   0.95371002 
  0.60133052   -5.9060787   0.10435862   0.95340614 
   0.6025647   -5.9031914  0.065631084   0.95265911 
  0.60618126   -5.9060138  0.061300461   0.95328937 
  0.59817825   -5.9197627   0.11326349   0.95440831 
  0.59792047   -5.9216916  0.088588549     0.954253 
  0.59807989   -5.9182425   0.12109973   0.95450771 
  0.60466153    -5.915738  0.091142012   0.95450987 
  0.60220229   -5.9145875  0.076993899   0.95393788 
  0.60189827   -5.9166943  0.081023052   0.95415401 
  0.60229272   -5.9272662  0.082075395   0.95529497 
  0.59329385   -5.9443414   0.13630028   0.95674054 
  0.59532288   -5.9440082   0.10921128   0.95647987 
  0.59852153   -5.9311162   0.12529666   0.95584254 
  0.59202813   -5.9184889   0.18403766   0.95491372 
  0.60251807   -5.8970893  0.078806636   0.95229991 
  0.61000198   -5.8852901   0.03396371   0.95122066 
  0.60670685   -5.8951857  0.064764621   0.95237272 
  0.59798982    -5.917089   0.10769711   0.95410061 
  0.60021897   -5.9333973  0.075522725   0.95537843 
  0.59579324    -5.947718   0.12282308   0.95702058 
  0.59288536   -5.9472335   0.15035604    0.9570772 
  0.60145762   -5.9312357   0.09024145   0.95567198 
  0.59709205   -5.9220648   0.13342913   0.95508554 
   0.6044486   -5.9123305   0.08299608   0.95400058 
  0.59836988   -5.9123255   0.10074567   0.95374273 
  0.59655253   -5.9142789   0.12011156   0.95389148 
   0.6040503   -5.9102677  0.078982137   0.95378612 
  0.60276014   -5.9134053  0.090979657   0.95406416 
  0.60386622   -5.9249832  0.048150359   0.95465924 
  0.58934593   -5.9438959   0.17260895   0.95682176 
  0.60266765   -5.9384785   0.10577359   0.95672461 
  0.60010399   -5.9298511  0.097828693   0.95551908 
  0.59973977   -5.9092269   0.14864727   0.95439023 
  0.61067983   -5.8940036  0.057793828   0.95255372 
  0.59908587   -5.9042907  0.064731116   0.95212064 
  0.59389852   -5.9079034   0.12239579   0.95296543 
  0.61094653   -5.8957723  0.083313543   0.95330774 
   0.6090026   -5.8966339   0.10094073   0.95344648 
  0.59851019   -5.9222249  0.050282813   0.95359337 
  0.60168485   -5.9266582  0.076067154   0.95498823 
  0.59776065   -5.9351257   0.16870829   0.95700446 
  0.59441945   -5.9428297   0.12328789   0.95649683 
  0.59806168   -5.9264213  0.081486614   0.95479101 
  0.60573124   -5.9072632  0.096373115   0.95405923 
  0.60675327   -5.9036233  0.036029878   0.95288076 
   0.5962347   -5.9102254   0.10830604   0.95326271 
  0.59931441   -5.9154158  0.087374135   0.95374612 
  0.60594508   -5.9226294  0.048674418    0.9548403 
  0.59242059   -5.9452427    0.1878182   0.95754042 
  0.59662771   -5.9454918   0.13798309   0.95730121 
  0.59971438   -5.9327366  0.071903153    0.9554188 
  0.60280614   -5.9139154   0.09555971   0.95432107 
  0.59524488   -5.9115618   0.14161348     0.953881 
  0.60623236   -5.9101362  0.035833327   0.95323367 
  0.59544056   -5.9179661   0.13678519   0.95434188 
  0.59934698   -5.9155968   0.12358052   0.95428146 
  0.61014444   -5.8938956   0.10315748   0.95323109 
  0.59783878   -5.8871194   0.14663985    0.9519108 
  0.59746925   -5.8859613   0.05484302   0.95015821 
  0.60283206   -5.9026064  0.015175978   0.95173613 
  0.60301577   -5.9247746   0.16172024   0.95649283 
  0.60240986   -5.9372956   0.18857302   0.95805018 
   0.5985933   -5.9459684  0.032682844   0.95571068 
  0.58957196   -5.9467884  0.083269964   0.95557352 
   0.6021455   -5.9226464   0.20099763   0.95678287 
   0.6033905   -5.9144303  0.091281054   0.95431953 
  0.59657954   -5.9172599 0.0073215082   0.95227625 
  0.59922488   -5.9152421   0.10860265   0.95409866 
  0.61065051   -5.9010736   0.17976081   0.95549746 
  0.59675498   -5.9097162   0.13545814   0.95378477 
  0.58965413    -5.922941 -0.0047056341   0.95162778 
   0.6051712   -5.9144512  0.050879839   0.95388095 
   0.6065659   -5.9165732   0.22297655   0.95718879 
  0.60641035   -5.9247749  0.090863589   0.95568646 
  0.58591777   -5.9322006   0.10815677   0.95407508 
   0.5986784   -5.9173898  0.071895346   0.95373916 
  0.60341657   -5.9084465   0.13678769   0.95465795 
  0.60041394   -5.9126494   0.13036295   0.95435277 
  0.59514896   -5.9230843  0.040945321   0.95315855 
  0.58966556   -5.9409512  0.043971891   0.95426619 
  0.60533101   -5.9372781   0.11305465    0.9571417 
  0.60432105   -5.9269407   0.23729239   0.95822937 
  0.59899723   -5.9289666  0.063013755   0.95483194 
Loop time of 13.7497 on 4 procs for 10000 steps with 6912 atoms

Performance: 62837.946 tau/day, 727.291 timesteps/s
99.7% CPU use with 4 MPI tasks x no OpenMP threads

MPI task timing breakdown:
Section |  min time  |  avg time  |  max time  |%varavg| %total
---------------------------------------------------------------
Pair    | 10.984     | 11.239     | 11.508     |   5.9 | 81.74
Neigh   | 0.67753    | 0.6824     | 0.69065    |   0.6 |  4.96
Comm    | 0.67486    | 0.95103    | 1.2095     |  20.6 |  6.92
Output  | 0.0017721  | 0.0019305  | 0.0023967  |   0.6 |  0.01
Modify  | 0.74231    | 0.75056    | 0.76128    |   0.8 |  5.46
Other   |            | 0.1248     |            |       |  0.91

Nlocal:        1728.00 ave        1748 max        1708 min
Histogram: 1 0 0 0 1 1 0 0 0 1
Nghost:        3867.00 ave        3887 max        3847 min
Histogram: 1 0 0 0 1 1 0 0 0 1
Neighs:        71440.0 ave       72170 max       70031 min
Histogram: 1 0 0 0 0 0 0 1 1 1

Total # of neighbors = 285760
Ave neighs/atom = 41.342593
Neighbor list builds = 244
Dangerous builds = 0
unfix base


fix start all npt temp 0.6 2.0 1 iso 0.1 0.1 1

thermo_style custom temp etotal press density
thermo 100

run 30000
Per MPI rank memory allocation (min/avg/max) = 3.262 | 3.262 | 3.262 Mbytes
Temp TotEng Press Density 
  0.59899723   -5.9289666  0.063013755   0.95483194 
  0.59502823   -5.9286259   0.12979922   0.95524439 
  0.59612566   -5.9290675   0.11819209   0.95519743 
  0.60088544   -5.9280654  0.063369574    0.9548322 
  0.59877702   -5.9271193  0.094226108   0.95497214 
  0.60087231   -5.9253411   0.10292688   0.95534204 
  0.60273793   -5.9229565   0.10421831   0.95530788 
  0.60137022   -5.9193722  0.078837105   0.95444352 
  0.59195532   -5.9156485   0.16992088   0.95436542 
  0.60628153   -5.9107068  0.041457819   0.95346439 
  0.60086729   -5.9068996   0.14836653   0.95424683 
  0.60227376   -5.9030272   0.15814432    0.9542166 
  0.60073917   -5.8990404   0.11958673   0.95309333 
  0.60284596   -5.8945405  0.053568721   0.95175218 
   0.6047183   -5.8905551  0.057617915   0.95156331 
  0.61474616   -5.8862135  0.098054757   0.95318352 
  0.61418627   -5.8815277   0.19304024   0.95438138 
   0.6143709   -5.8753142   0.10143592   0.95204962 
  0.60721042    -5.868815  0.029728638    0.9492826 
  0.61018835   -5.8629531  0.065357959   0.94980462 
  0.61428777    -5.857145   0.19304908   0.95200578 
  0.62073412   -5.8497663   0.11720507   0.95063988 
  0.61365976   -5.8411315  0.011094184   0.94707464 
  0.61503877   -5.8334311 0.0064267903   0.94650627 
  0.62844455   -5.8275594    0.1397444    0.9499237 
  0.63509633   -5.8208002    0.2181912   0.95164385 
  0.62967236   -5.8117342   0.11340555   0.94807424 
   0.6167689   -5.8016915  0.011144784    0.9434688 
  0.62264796   -5.7933554 -0.0071569851   0.94327272 
  0.63246231   -5.7858215   0.14865915   0.94655042 
  0.64200033   -5.7780033   0.21618917   0.94820896 
  0.63589075   -5.7678415   0.14500879   0.94537009 
  0.63288297   -5.7566773 -0.011217944   0.94099503 
  0.63606329   -5.7476482  0.043631035   0.94146132 
  0.63729595   -5.7388067   0.20105304   0.94364133 
  0.65366437   -5.7277179  0.067947284    0.9422924 
   0.6479739   -5.7174368   0.12938873    0.9416504 
  0.64594954   -5.7067719    0.1231531    0.9403326 
  0.64692892   -5.6957211  0.062862558   0.93826313 
  0.65890725   -5.6845772  0.027657189   0.93793997 
  0.65810671   -5.6737761   0.16085546   0.93930581 
  0.65513339   -5.6625341   0.16951095   0.93789972 
  0.66210498   -5.6496284 0.0032844502   0.93437852 
  0.66367684   -5.6383829   0.04865305   0.93440431 
  0.66588498   -5.6273375   0.15501692   0.93553853 
  0.67289641   -5.6145689  0.093929964   0.93427998 
  0.66433519   -5.6018989   0.15791998   0.93290501 
  0.66987209   -5.5886488   0.07817708   0.93096599 
  0.68278182   -5.5758333  0.021412253   0.93025009 
  0.68759464   -5.5637171   0.10377349   0.93119768 
  0.68347024   -5.5512847   0.18288001   0.93092722 
  0.68487348   -5.5368456  0.069897311   0.92748067 
  0.68023987   -5.5224289  0.024562209   0.92460522 
  0.69097651   -5.5090131  0.041695435   0.92509045 
  0.68976852   -5.4965232   0.23685417   0.92708278 
  0.69097138   -5.4821341   0.11842887   0.92368727 
  0.69685706   -5.4660292 -0.073840623    0.9194724 
  0.69968703   -5.4525036  0.077241644    0.9211783 
  0.70266348   -5.4389594   0.23918549   0.92311184 
  0.70478495   -5.4236359   0.11029869   0.91970661 
   0.7094965   -5.4072736 -0.030954305   0.91600387 
  0.70464389   -5.3927075   0.14551858   0.91730402 
  0.73063267   -5.3777788  0.078708161   0.91774421 
  0.72297187   -5.3624671   0.16231384   0.91676451 
  0.71560372   -5.3466199   0.11812496   0.91339904 
   0.7063605   -5.3302505  0.058803067    0.9096111 
  0.71588199   -5.3141777  0.046251534   0.90894483 
  0.72955251   -5.2985346    0.1186736   0.91042582 
  0.74160775   -5.2819021      0.13374   0.91067574 
  0.74458111   -5.2649103   0.13497964   0.90937035 
  0.73080312   -5.2479896   0.12380445   0.90557002 
  0.73684599   -5.2303004 -0.017717409   0.90218864 
   0.7434361   -5.2138265   0.09164423   0.90335016 
  0.74886747   -5.1974725   0.21870736   0.90476534 
  0.75158462   -5.1796766   0.13234158   0.90191625 
  0.75190431   -5.1610678  0.043609933   0.89832931 
  0.75530845   -5.1441071  0.091978684   0.89768102 
    0.754018   -5.1268421   0.19069564   0.89774677 
  0.75286638   -5.1086121   0.15101486   0.89496582 
  0.76235899   -5.0890844 0.0022975023    0.8912524 
  0.75434766   -5.0708028   0.14745438   0.89114822 
  0.78165731   -5.0521689  0.036257438   0.89097552 
  0.77702173   -5.0338654   0.20242149   0.89152726 
  0.76872046   -5.0144892   0.15270792   0.88750008 
  0.77281291   -4.9941311 -0.040024853   0.88183791 
  0.77413272   -4.9748863  0.029911425   0.88130164 
  0.77275735   -4.9567593   0.19017605   0.88240469 
  0.78280807   -4.9362131  0.087353533   0.87993799 
   0.7758639   -4.9159485  0.096273432   0.87694375 
  0.78024042   -4.8958267   0.11555619   0.87583029 
  0.78560316   -4.8759637   0.16047352   0.87521664 
  0.78704311   -4.8555278   0.13534709   0.87303484 
  0.78880861   -4.8350371   0.11822489   0.87060155 
   0.7884861   -4.8134626  0.088971243   0.86748637 
  0.78764295   -4.7921573  0.053491635   0.86465834 
  0.78936857   -4.7716341   0.13925052   0.86442215 
  0.79498902   -4.7507566    0.1795953   0.86363596 
  0.79166952   -4.7286231   0.13386021   0.85988387 
  0.79441799    -4.706123  0.046342861   0.85571791 
  0.78615542   -4.6847148   0.13210654   0.85375264 
  0.79180011   -4.6622895  0.099147063   0.85137825 
  0.79451289   -4.6393678  0.083277423   0.84910282 
  0.79397103   -4.6173679   0.13773563   0.84778304 
  0.78800214   -4.5950056    0.1434472   0.84459295 
  0.78445499   -4.5713015   0.06328067   0.83997467 
  0.79243197   -4.5485642  0.025786377    0.8381272 
  0.79890375   -4.5261482   0.16663843   0.83873819 
  0.79074162   -4.5030755   0.19120189   0.83537253 
  0.79560033   -4.4778088 -0.021824313   0.82869283 
  0.77981813   -4.4540755   0.10018438   0.82621559 
   0.7855787   -4.4299266  0.078021363   0.82373525 
  0.77614275   -4.4059838   0.16451686   0.82108933 
  0.76727357   -4.3814471     0.139599   0.81614123 
  0.76379077   -4.3558692  0.032523821   0.81044829 
  0.76233667   -4.3313117  0.055094757   0.80811992 
  0.76495317   -4.3071734   0.17576979   0.80771908 
  0.76750539   -4.2823817   0.14078989   0.80471284 
  0.76347708   -4.2564265  0.090003742   0.79985855 
  0.75660686   -4.2310809  0.085719668   0.79553899 
  0.75855502   -4.2050597   0.07508179   0.79226748 
  0.75558525   -4.1797542   0.12084782   0.79020375 
  0.75915239     -4.15412   0.11059044   0.78763882 
  0.76383276   -4.1284139     0.092892   0.78456118 
  0.76441582   -4.1018225   0.10969998   0.78165936 
  0.76089341   -4.0754446   0.14980915   0.77869488 
  0.76622332   -4.0492497  0.057838725   0.77463966 
  0.76559843   -4.0223884  0.095649473   0.77248141 
  0.77559727   -3.9963738   0.13882368   0.77127728 
  0.77463445   -3.9690395   0.14357018   0.76816086 
   0.7803707   -3.9410701  0.061619714    0.7637919 
   0.7781057   -3.9137172  0.086661687   0.76084173 
  0.79797604   -3.8864527  0.016690383   0.75893311 
  0.79565564   -3.8593519   0.12141028   0.75855696 
  0.80554716   -3.8317295     0.120476   0.75674022 
  0.80307036   -3.8033693   0.14838778   0.75381634 
   0.8073582   -3.7745121  0.090504395    0.7495347 
  0.81868751   -3.7456838  0.051327001   0.74621513 
  0.82207454    -3.716791   0.10391693   0.74445774 
  0.83007741   -3.6879904  0.097474654   0.74230314 
  0.83295638   -3.6586496   0.12107112   0.73981471 
  0.83845169   -3.6292677  0.096505657   0.73646672 
  0.84274479   -3.5988957   0.10113196   0.73334155 
  0.84484161   -3.5691304   0.10888999   0.73053071 
  0.84864177   -3.5386353   0.10629646   0.72760054 
  0.85333056   -3.5084454   0.11656444   0.72469984 
  0.85801314    -3.478084   0.14115643    0.7219616 
  0.86428631   -3.4473371   0.12120731   0.71809318 
  0.86839473   -3.4157426  0.073516552   0.71375239 
   0.8739472   -3.3850473   0.06349035   0.71107727 
   0.8892446   -3.3540258  0.086844447   0.71012031 
  0.89321078   -3.3226865   0.16391827   0.70913661 
  0.90316683   -3.2909602   0.10587871   0.70540388 
  0.90364297   -3.2583274   0.10834449   0.70101352 
  0.90825471   -3.2257779  0.063726399   0.69704778 
  0.92023251   -3.1936514    0.0481147   0.69485866 
  0.91730977   -3.1615213   0.19114167   0.69409312 
  0.93051977    -3.128811   0.12670929   0.69070747 
  0.93629571   -3.0950689  0.067712201   0.68650483 
  0.93060979   -3.0619656    0.1159053   0.68322112 
  0.94471132   -3.0289572   0.10706445   0.68018636 
   0.9494814   -2.9954336   0.15463958   0.67719297 
  0.95794323    -2.961504  0.097842292   0.67248812 
  0.95780746   -2.9268088  0.092731112   0.66813192 
  0.96378319   -2.8929588   0.11152881    0.6650067 
  0.97302417   -2.8587385   0.11972047   0.66170218 
  0.96871076   -2.8242568   0.13272645   0.65745183 
  0.97291543   -2.7899907  0.092932985   0.65285313 
  0.97772995   -2.7546922   0.12471516   0.64962339 
  0.98702441     -2.71992    0.1419909   0.64654282 
  0.99214744   -2.6848235   0.14845234   0.64251512 
  0.99401147   -2.6496952   0.13429353    0.6372426 
  0.98942657   -2.6139291   0.13711292   0.63157692 
  0.98779184   -2.5784368   0.11391043    0.6263362 
   1.0076887   -2.5425343  0.082528104   0.62296689 
   1.0067274   -2.5065789   0.17621684   0.62091458 
    1.012204   -2.4714412   0.15409274   0.61682441 
   1.0223705    -2.434719  0.095143453   0.61201111 
   1.0306066   -2.3977763   0.11631181   0.60894601 
   1.0376949   -2.3609076   0.17557996   0.60620474 
   1.0543342    -2.324682   0.10649827   0.60152863 
   1.0431879   -2.2883142   0.14237344   0.59661804 
   1.0501666   -2.2505357   0.10766708   0.59223128 
   1.0555037   -2.2134056   0.13998895   0.58934525 
    1.072449    -2.176343   0.13309466   0.58624554 
   1.0854267   -2.1389188   0.12084942   0.58214499 
   1.0803426   -2.1015348   0.14415018   0.57740889 
   1.0807286   -2.0633111   0.15516556   0.57237654 
   1.0777765   -2.0259106    0.1628335   0.56732153 
   1.0939315   -1.9877366   0.10941712   0.56253738 
   1.1019793   -1.9497099   0.12654185   0.55861334 
   1.1095837   -1.9110231   0.13281241   0.55465451 
   1.1021449   -1.8732889   0.18248675   0.54998101 
   1.1112462   -1.8348864   0.13305374   0.54451863 
   1.1105222   -1.7962804   0.17088317   0.54012431 
   1.1234014   -1.7580249   0.14305213   0.53552299 
     1.11657   -1.7195358   0.19738951   0.53083784 
   1.1214429   -1.6818728   0.13647472   0.52493122 
   1.1321336   -1.6421767   0.11321754   0.52034428 
   1.1462885   -1.6025961   0.12780741   0.51706523 
   1.1532978   -1.5637977   0.16206537   0.51348362 
   1.1581072   -1.5250015   0.16504354    0.5086647 
    1.156541   -1.4862638   0.18858514   0.50340847 
   1.1583346   -1.4471677   0.16650192   0.49788292 
   1.1666605    -1.407546   0.15249991   0.49292035 
   1.1706809   -1.3685562   0.15542199   0.48818774 
   1.1701953   -1.3291404    0.1783542   0.48352895 
   1.1831587   -1.2895648   0.15744446   0.47861337 
   1.1837485   -1.2496115   0.18884326   0.47402599 
   1.1863947   -1.2107536   0.19734769   0.46886717 
   1.1990334   -1.1716463   0.13951205   0.46325316 
   1.1951917   -1.1315245   0.20036173   0.45874681 
   1.2146467   -1.0927643   0.14906063   0.45345783 
   1.2138831   -1.0527309   0.19859087   0.44869839 
    1.217137   -1.0144579   0.22514601   0.44325509 
   1.2280787  -0.97617444   0.18334011   0.43722564 
   1.2267843  -0.93672436    0.1978748   0.43189861 
   1.2338569  -0.89720328   0.18851626   0.42681524 
   1.2387376  -0.85769916   0.21424603   0.42193084 
   1.2399395  -0.81977994   0.22058206   0.41628473 
   1.2528524  -0.78085667   0.18767136   0.41061998 
   1.2435632  -0.74309755   0.23566521   0.40531894 
   1.2522077  -0.70439652     0.213904   0.39974346 
   1.2545018   -0.6663535   0.20770239   0.39437146 
   1.2645305  -0.62631323   0.19260474   0.38946247 
   1.2695152  -0.58812726   0.20125343   0.38456279 
   1.2837856  -0.54829057   0.18766283   0.37969245 
    1.281569  -0.50992607   0.23691689   0.37471323 
   1.2846736  -0.47342359   0.23867756   0.36900679 
   1.2913755  -0.43613327   0.22147324   0.36345493 
   1.2956636  -0.39782262   0.22667462   0.35835112 
   1.2953936  -0.36059362   0.22135625   0.35312027 
    1.302033  -0.32266686   0.20505144   0.34811313 
   1.3062548  -0.28392676   0.21487724   0.34347009 
   1.3150346  -0.24501966   0.21887935   0.33887622 
    1.318542  -0.20784623    0.2263659   0.33390914 
    1.326238  -0.17030577   0.21273643   0.32890947 
    1.332034  -0.13291412   0.20230075   0.32415194 
   1.3347307 -0.094453251   0.20617364    0.3196014 
   1.3355847 -0.056277279   0.22505019   0.31518052 
   1.3469218 -0.018658741   0.20869258   0.31056388 
   1.3469226  0.019339129   0.22988785   0.30617189 
   1.3563307  0.056148131   0.23460236   0.30158637 
   1.3601408  0.091303691   0.23434314   0.29671095 
   1.3728057   0.12823877   0.20344028    0.2920509 
    1.370196    0.1669387   0.23449858   0.28798904 
   1.3874566   0.20232139   0.21278029   0.28348025 
   1.3830285   0.23871178   0.23710436    0.2790899 
   1.3989459   0.27532578    0.2053078   0.27468032 
     1.39523   0.31161628   0.24061968   0.27061331 
    1.404985   0.34611699   0.23447112   0.26611088 
   1.3986212   0.37954159   0.25088542   0.26160269 
   1.4119373   0.41356395    0.2171841   0.25714066 
   1.4181151    0.4493183   0.22335063    0.2531921 
   1.4292767   0.48582414   0.22659581   0.24930197 
   1.4389687   0.51948934   0.22372169   0.24514833 
   1.4421526   0.55388781   0.23236405   0.24107337 
   1.4520959   0.58787383   0.22679869   0.23705489 
   1.4614631   0.62220018    0.2224149   0.23316147 
   1.4707612   0.65561241   0.21621877    0.2292903 
   1.4733243   0.68946204   0.21614174   0.22551163 
   1.4771381   0.72351584   0.22431778   0.22183404 
   1.4933348   0.75650314   0.20478269   0.21806119 
   1.4941896    0.7910729   0.22163318    0.2146215 
    1.501265    0.8238045   0.22127318   0.21102111 
   1.5066366   0.85601762   0.22083722   0.20740721 
    1.522589   0.88794093   0.21308901   0.20385802 
    1.517601   0.91928104   0.23440488   0.20034657 
    1.531465   0.94973558    0.2115478   0.19673815 
   1.5314815   0.98141973   0.22171309   0.19338692 
   1.5490869    1.0127067   0.20466221   0.19004668 
   1.5510912    1.0441329   0.21332464   0.18686026 
   1.5554145    1.0753053   0.21750947    0.1836437 
   1.5585545    1.1053775   0.21625724   0.18040188 
   1.5622845    1.1345968   0.21076904   0.17716743 
   1.5702868    1.1648769   0.20414215   0.17411114 
   1.5714422    1.1960035   0.21071639   0.17119166 
   1.5798936    1.2259276   0.20753101   0.16822137 
    1.591398    1.2561633   0.20002049   0.16530041 
   1.5934223    1.2857954   0.20281275    0.1624379 
   1.6002145    1.3166822   0.20307069   0.15970474 
    1.608795    1.3447724   0.20080047   0.15687545 
   1.6143412    1.3743561   0.20508937   0.15414316 
   1.6293395    1.4031847   0.19341565   0.15143604 
   1.6316904    1.4322226   0.19520155   0.14884947 
    1.633339    1.4615117    0.1975337   0.14631487 
    1.643783    1.4905322   0.18928485   0.14379413 
   1.6541994    1.5200735   0.18768268   0.14139737 
   1.6631368    1.5492991   0.19295592   0.13902859 
    1.666331    1.5760744   0.20061566   0.13656473 
   1.6817274    1.6011498   0.18478059   0.13405316 
   1.6825998    1.6280947   0.18579357   0.13174651 
   1.6901182    1.6556988   0.18701463   0.12950036 
   1.6964082    1.6812986   0.18691332   0.12720718 
   1.6976307    1.7072694   0.18673383   0.12497103 
   1.7109294    1.7342458   0.17980022    0.1228414 
   1.7201547    1.7613924    0.1795618   0.12077365 
   1.7208367    1.7862602   0.18343706   0.11865332 
   1.7234755    1.8108926   0.17947431   0.11655942 
   1.7406476    1.8381981   0.16519827   0.11461087 
   1.7523572    1.8671959   0.16642839   0.11282537 
    1.759297    1.8938149   0.17406157   0.11096666
