LAMMPS (29 Sep 2021 - Update 2)
variable t string 1

units lj
boundary p p p
atom_style atomic

lattice fcc 0.8
Lattice spacing in x,y,z = 1.7099759 1.7099759 1.7099759
region r1 block -6 6 -6 6 -6 6
create_box 1 r1
Created orthogonal box = (-10.259856 -10.259856 -10.259856) to (10.259856 10.259856 10.259856)
  2 by 1 by 2 MPI processor grid
create_atoms 1 box
Created 6912 atoms
  using lattice units in orthogonal box = (-10.259856 -10.259856 -10.259856) to (10.259856 10.259856 10.259856)
  create_atoms CPU = 0.001 seconds
mass 1 1.0

pair_style lj/cut 2.5
pair_coeff * * 1.0 1.0

velocity all create $t 322 mom yes rot no
velocity all create 1 322 mom yes rot no
reset_timestep	0
timestep 0.001

#### Equilibration ####
fix base all npt temp 0.6 0.6 0.1 iso 10 10 1

thermo_style custom temp etotal press density
thermo 100

run 10000
Neighbor list info ...
  update every 1 steps, delay 10 steps, check yes
  max neighbors/atom: 2000, page size: 100000
  master list distance cutoff = 2.8
  ghost atom cutoff = 2.8
  binsize = 1.4, bins = 15 15 15
  1 neighbor lists, perpetual/occasional/extra = 1 0 0
  (1) pair lj/cut, perpetual
      attributes: half, newton on
      pair build: half/bin/atomonly/newton
      stencil: half/bin/3d
      bin: standard
Per MPI rank memory allocation (min/avg/max) = 3.260 | 3.260 | 3.260 Mbytes
Temp TotEng Press Density 
           1   -4.8649635   -5.4090823          0.8 
  0.39069504   -5.4571133   0.81059226   0.89533484 
  0.71640412   -5.3317079    2.9695364   0.96348382 
  0.88140998   -5.3198838    5.1246203    1.0179391 
  0.91797254   -5.4007492    7.1805142    1.0601411 
  0.87352459   -5.5477522    8.6779107    1.0887473 
  0.79982872   -5.7279606     9.423205    1.1054093 
  0.73285985   -5.9069548    9.6541991    1.1153789 
  0.67098234   -6.0559473    9.7925413    1.1223628 
  0.62680688   -6.1694832    9.8571803    1.1273729 
  0.60049751   -6.2478306    9.9149594    1.1313891 
  0.58386299    -6.290601    9.9712368    1.1336969 
  0.58301062   -6.2869126    10.040505    1.1342802 
  0.59141334   -6.2489265    10.081032    1.1328547 
  0.61610145   -6.2065016    9.9792781    1.1306918 
  0.60965152   -6.1934947    10.021524    1.1296549 
  0.62042587   -6.2085172    9.8521982    1.1295594 
  0.59789555   -6.2393773    9.9915937    1.1315359 
  0.59612402   -6.2650546    9.9334471    1.1325541 
  0.59401849   -6.2660403    9.9901294    1.1331506 
  0.60990103   -6.2441563    9.8998443    1.1318762 
  0.61228745   -6.2149735     9.977212    1.1309529 
  0.61238859   -6.2050969    9.9617674    1.1300554 
  0.61376033   -6.2156881    9.8883733    1.1299658 
  0.59970056   -6.2352832    10.002206    1.1315596 
  0.59045752   -6.2564357    10.004226    1.1322654 
   0.5951239   -6.2571726    10.004844     1.132826 
  0.60212714   -6.2456039     9.968762    1.1320708 
  0.60115228   -6.2258398    10.021725    1.1312863 
  0.60679874   -6.2124013    9.9850025    1.1302933 
  0.60127606   -6.2135327    10.038773    1.1306123 
  0.59933069   -6.2321708    10.006075    1.1313674 
  0.59443403   -6.2514724    9.9698094     1.131901 
  0.60003196   -6.2503634    9.9728417    1.1323106 
  0.60445518    -6.238789    9.9821433    1.1319819 
  0.60540102   -6.2274684    9.9525895    1.1308757 
  0.60936547   -6.2164711    9.9888111    1.1309152 
  0.60785722   -6.2256568    9.9505815    1.1309313 
  0.59769748   -6.2420991     9.986224    1.1316351 
  0.59120771   -6.2510621    10.019915    1.1321136 
  0.59977542   -6.2435627    10.000646    1.1320992 
  0.60152253   -6.2352064    10.012844    1.1318116 
  0.59940731    -6.229737    9.9691837      1.13068 
  0.60726105   -6.2165827     10.01281     1.130974 
  0.60063111   -6.2249185    10.026988    1.1312523 
  0.59732972   -6.2430463     9.951753    1.1311934 
  0.59138961   -6.2444958    10.071835    1.1323426 
  0.59479463   -6.2440079    10.039408    1.1321711 
   0.5924445   -6.2382269    10.020882    1.1313209 
  0.60497063   -6.2212504    10.011973     1.131141 
  0.60735438   -6.2189269    9.9704098    1.1306636 
  0.60511257   -6.2262961    9.9550186    1.1309047 
  0.59999618   -6.2386464    10.025754    1.1321342 
   0.5997827   -6.2547399    9.9123913    1.1318258 
  0.59077359   -6.2469736    10.085274    1.1326483 
  0.60263909    -6.236641    9.9294777    1.1309626 
  0.61044153   -6.2153408    10.007362    1.1311522 
  0.61218339   -6.2204537    9.9445845    1.1308812 
  0.59962351   -6.2378468    9.9319331    1.1308242 
  0.59640174   -6.2403062     10.07387    1.1325464 
  0.59725147   -6.2514952    9.9776277    1.1322273 
  0.59442706   -6.2492359    9.9812555    1.1318194 
  0.60817531   -6.2280757    9.9775201    1.1315371 
  0.60083345   -6.2193085    10.007311     1.130569 
  0.60441764   -6.2150419    9.9772631    1.1302174 
  0.60559138   -6.2201881    10.037666     1.131441 
  0.59694638    -6.245961    9.9586923    1.1315059 
  0.59514505   -6.2532418     10.01129    1.1325823 
  0.59533463   -6.2496329    10.022659    1.1324372 
    0.602915   -6.2362332    9.9544182    1.1312377 
  0.60760129   -6.2183864    10.007036    1.1311312 
  0.60534891   -6.2196697    9.9647701     1.130411 
  0.60232212   -6.2279027    10.003526    1.1312184 
  0.60081493   -6.2418803    9.9616533    1.1315485 
  0.60083032    -6.247839    9.9839053    1.1323284 
  0.58990428   -6.2503622    10.061607    1.1324459 
  0.59578224   -6.2427707    9.9921991    1.1315561 
  0.60321409   -6.2238913    10.007773     1.131069 
  0.60806958    -6.216022    9.9644301    1.1304432 
  0.60003822   -6.2207147    10.044043    1.1310403 
  0.59658953   -6.2373942    9.9789586    1.1311103 
  0.60086166   -6.2423504    10.004417    1.1321789 
  0.59357777   -6.2492368    10.061226     1.132749 
  0.59258663   -6.2540077    9.9498918    1.1315358 
  0.59759917   -6.2299097     10.07303    1.1319052 
  0.60971881   -6.2196769    9.9596097    1.1308026 
  0.60886189   -6.2230296    9.9141283    1.1303709 
  0.60313423    -6.227756    10.043069    1.1319073 
  0.60772502    -6.247665    9.8462429    1.1312072 
   0.5865905   -6.2457784     10.11604    1.1325911 
  0.59209311    -6.241065    10.068076    1.1320794 
  0.59838911   -6.2349416    9.9620931    1.1308598 
  0.60711689   -6.2179155    10.037898     1.131373 
  0.60735411   -6.2252815    9.9250052    1.1305187 
  0.59618978   -6.2335494    10.035081    1.1314614 
  0.60147948   -6.2414732    9.9792491    1.1318458 
  0.59589475   -6.2463722    9.9883671    1.1317877 
   0.6044408   -6.2388501    9.9892639    1.1320741 
  0.59972122   -6.2366156    10.007252    1.1317321 
  0.59938253   -6.2349083    9.9585499     1.130947 
  0.60826677   -6.2226916    9.9987818     1.131405 
Loop time of 15.5202 on 4 procs for 10000 steps with 6912 atoms

Performance: 55669.534 tau/day, 644.323 timesteps/s
99.7% CPU use with 4 MPI tasks x no OpenMP threads

MPI task timing breakdown:
Section |  min time  |  avg time  |  max time  |%varavg| %total
---------------------------------------------------------------
Pair    | 12.794     | 12.984     | 13.149     |   4.4 | 83.66
Neigh   | 0.7105     | 0.71366    | 0.71897    |   0.4 |  4.60
Comm    | 0.7816     | 0.94944    | 1.1402     |  16.2 |  6.12
Output  | 0.0017881  | 0.0019484  | 0.0024188  |   0.6 |  0.01
Modify  | 0.74277    | 0.7499     | 0.76455    |   1.0 |  4.83
Other   |            | 0.1216     |            |       |  0.78

Nlocal:        1728.00 ave        1743 max        1706 min
Histogram: 1 0 0 0 0 1 0 0 1 1
Nghost:        3867.00 ave        3889 max        3852 min
Histogram: 1 1 0 0 1 0 0 0 0 1
Neighs:        82708.2 ave       84011 max       81717 min
Histogram: 1 0 1 0 0 1 0 0 0 1

Total # of neighbors = 330833
Ave neighs/atom = 47.863571
Neighbor list builds = 249
Dangerous builds = 5
unfix base


fix start all npt temp 0.6 2.0 1 iso 10 10 1

thermo_style custom temp etotal press density
thermo 100

run 50000
Per MPI rank memory allocation (min/avg/max) = 3.262 | 3.262 | 3.262 Mbytes
Temp TotEng Press Density 
  0.60826677   -6.2226916    9.9987818     1.131405 
  0.60781308   -6.2267328    9.9365636    1.1308408 
  0.60378424   -6.2241235    10.004321    1.1311969 
  0.60639151   -6.2245617    9.9857228      1.13119 
  0.60851087   -6.2263755    9.9417068    1.1309449 
  0.60664257   -6.2224832    10.012617    1.1313774 
  0.61009247   -6.2259788    9.9245036    1.1308211 
  0.60314934   -6.2225761    10.019135    1.1311265 
  0.59894813   -6.2182821    10.094032    1.1314368 
  0.60911395    -6.225257     9.891543    1.1302401 
  0.60900204    -6.216127    10.003993    1.1310609 
    0.617428   -6.2139275     9.948028    1.1309512 
  0.60464196   -6.2135562    9.9943672    1.1303125 
  0.60918558    -6.208421    9.9965717    1.1304556 
  0.61868272    -6.203549     9.974537    1.1306647 
   0.6078638   -6.2056659    9.9838996    1.1299352 
  0.61357977   -6.1955899    10.072787    1.1308611 
  0.61190949   -6.1989719    10.000411    1.1300017 
  0.61258191   -6.1993926    9.9498274    1.1294901 
  0.61335904   -6.1827989    10.173095    1.1312362 
  0.60895298   -6.1985514    9.9115237    1.1285546 
  0.60647241   -6.1849646    10.104317    1.1298176 
  0.62616071   -6.1750169    10.082299     1.130669 
  0.61034798   -6.1817998    10.028496    1.1290126 
   0.6215861   -6.1807268     9.921994    1.1285536 
  0.61932891   -6.1589276    10.226682    1.1307559 
  0.62388672   -6.1771664    9.8531747    1.1276074 
  0.63488378   -6.1622431     9.950339    1.1288794 
  0.63802705   -6.1519681    10.030609    1.1295617 
  0.62807448   -6.1608355     9.911676    1.1275992 
  0.63102107   -6.1445466    10.084276    1.1289487 
  0.63718747   -6.1485137    9.9209715    1.1276312 
  0.63828245   -6.1408019    9.9671037    1.1278325 
  0.63456677   -6.1270262     10.14952    1.1288269 
  0.63063915   -6.1387996    9.9252283    1.1263836 
  0.64359321   -6.1249408    9.9911256    1.1274565 
  0.64415855   -6.1076294    10.187551    1.1288263 
  0.64419227   -6.1310711    9.7561461     1.124844 
  0.64668482   -6.0993346    10.164503    1.1281563 
   0.6566229   -6.0972099     10.06149    1.1275214 
  0.64085359    -6.114356    9.8256953    1.1242034 
   0.6561416   -6.0804279    10.173123    1.1277979 
  0.65535576   -6.0837809    10.060374    1.1263843 
  0.65371381   -6.0956036    9.8040248    1.1237849 
  0.66397218   -6.0590028    10.228551    1.1276711 
  0.66669695   -6.0706641    9.9416635    1.1250372 
  0.66220211   -6.0759711    9.8130339     1.123264 
   0.6728441   -6.0435692     10.16669    1.1265508 
  0.66926282   -6.0486158    10.029805     1.124796 
  0.66475873   -6.0528666    9.9131967    1.1231192 
  0.67846202    -6.027137    10.138421     1.125511 
  0.67821949   -6.0348622    9.9333547    1.1233625 
  0.67719174   -6.0277162    9.9729608    1.1232437 
  0.68576342    -6.009404    10.106858    1.1244837 
  0.68715865    -6.015567    9.9133065    1.1224804 
  0.68324232   -6.0056631    10.012076    1.1226713 
   0.6916213   -5.9936618    10.054238    1.1231416 
  0.69732549   -5.9917565    9.9535912    1.1222237 
  0.69406717    -5.984002    10.002524    1.1220458 
  0.69463605   -5.9744674    10.057031    1.1220821 
  0.69436138   -5.9704839    10.027897    1.1213794 
    0.710438   -5.9636633     9.934937    1.1211682 
  0.70610661   -5.9468157    10.122714    1.1220509 
   0.7059135   -5.9575413    9.8597163    1.1193526 
  0.71736319   -5.9397215    9.9738905    1.1206138 
  0.71878315   -5.9222726    10.138767    1.1216637 
  0.71434729   -5.9374977    9.8457694    1.1183618 
   0.7268676   -5.9167602    9.9872554    1.1199144 
  0.72320249   -5.8974065    10.214958    1.1211443 
  0.71912046   -5.9192966     9.807028    1.1169345 
  0.72719787   -5.8872811    10.145803    1.1198937 
  0.74079966    -5.884193    9.9953891    1.1190078 
  0.72971928   -5.8913895     9.851654    1.1165985 
  0.74056298   -5.8637678    10.103367    1.1189645 
  0.74984038   -5.8639529     9.935892    1.1176853 
  0.74908319   -5.8638327    9.8426172    1.1162692 
  0.75054108   -5.8399951    10.100074    1.1181546 
  0.76018745   -5.8423575    9.9028917     1.116564 
  0.74839687   -5.8363109    9.9816946    1.1159985 
   0.7619171   -5.8188305    10.046736     1.116936 
  0.75101999   -5.8175715    10.038135    1.1156221 
  0.76610119   -5.8175427    9.8430949    1.1143573 
  0.77677115   -5.7862659     10.13365    1.1170594 
  0.76197829   -5.8023967    9.8917845    1.1135725 
  0.76827714   -5.7860341    9.9857863    1.1142812 
  0.77952403   -5.7650906    10.127013    1.1156516 
  0.77777712   -5.7781583    9.8251307    1.1125031 
  0.77439123    -5.753092    10.135705    1.1143828 
  0.77770246   -5.7481833    10.081138    1.1136615 
  0.78265098   -5.7470336    9.9547517    1.1123759 
  0.79475799   -5.7286335    10.048532    1.1133637 
  0.78710464   -5.7290001    9.9902582    1.1119019 
  0.79749654   -5.7202934    9.9427383    1.1116115 
   0.8045178   -5.6979076    10.136146    1.1131994 
  0.80042331   -5.7077322    9.9059378    1.1104417 
  0.79856546   -5.6911353     10.05541    1.1111211 
  0.81524579   -5.6767647    10.060191     1.111611 
  0.81568691    -5.680141    9.8922588    1.1096912 
  0.81855685   -5.6667854    9.9643232    1.1099843 
  0.81596912   -5.6504291    10.124719     1.110659 
   0.8121663   -5.6611876    9.8749427    1.1077517 
  0.82851503   -5.6306913    10.122455    1.1103992 
  0.82979058    -5.624384    10.102698    1.1097023 
  0.81637367   -5.6420588    9.7982648    1.1057639 
   0.8464105   -5.6020856    10.103828     1.109681 
  0.84214309    -5.600449    10.052226    1.1084845 
  0.82761863    -5.612252    9.8693764     1.105387 
  0.85601965   -5.5749645    10.123408    1.1088916 
  0.83774211   -5.5789433    10.085802    1.1068677 
  0.84550154   -5.5885729    9.7798362    1.1041737 
  0.85934617   -5.5416302    10.269404    1.1087301 
  0.85235433   -5.5641711    9.8713952    1.1043513 
  0.85638978   -5.5440465     10.04381     1.105504 
  0.85943938   -5.5280535    10.148622    1.1060502 
  0.86594726   -5.5368444    9.8576208    1.1034023 
  0.87041288   -5.5137704    10.066007    1.1049972 
  0.87891024   -5.5027637    10.063629    1.1049237 
  0.87230213   -5.5064681    9.9453745    1.1028859 
  0.87639374   -5.4928575    10.006272    1.1032028 
  0.87955686   -5.4762982    10.125999    1.1038724 
  0.88351153   -5.4819518    9.9078665    1.1016448 
  0.90184522    -5.465095     9.923494    1.1024088 
  0.88879877   -5.4506647    10.116686    1.1027302 
   0.8893873    -5.460595    9.8620532    1.0999654 
  0.90427339   -5.4317361    10.083728    1.1023308 
  0.90437703    -5.425965    10.058035    1.1015542 
  0.91256085    -5.437546    9.7142408    1.0985355 
  0.90721916   -5.3969369    10.258639    1.1023143 
   0.9130399   -5.4105187    9.9038857    1.0991271 
  0.91125822   -5.4028382    9.9147041    1.0986294 
  0.93042366   -5.3700995    10.169506    1.1013575 
  0.91980619   -5.3861385    9.8939302    1.0977763 
   0.9177117   -5.3771942    9.9264345    1.0974171 
  0.93326753   -5.3453405    10.186972    1.1001002 
  0.92586979    -5.360103    9.9146203    1.0967209 
  0.93314747   -5.3472932    9.9505061    1.0968843 
  0.93411666   -5.3197424    10.232729    1.0989157 
  0.93796498   -5.3364736    9.8559241    1.0953548 
  0.94175305   -5.3127563    10.081333    1.0969677 
   0.9553015   -5.2997581    10.068048    1.0971264 
  0.94702438   -5.3058583    9.9330572    1.0948939 
  0.95363556   -5.2920548    9.9718541    1.0951639 
  0.95308107   -5.2745062    10.130019    1.0959567 
  0.96525741   -5.2764856    9.9094677    1.0942723 
  0.96804587   -5.2617856    10.003387    1.0946609 
  0.96930658   -5.2578076    9.9478172    1.0937096 
  0.97705418   -5.2467652      9.94817    1.0937282 
  0.98287067   -5.2318458    10.030066    1.0941863 
   0.9783946   -5.2370671    9.8710072    1.0920501 
  0.98664047   -5.2181112    9.9901561    1.0930394 
  0.98934219    -5.204335    10.085165    1.0933611 
   0.9898722   -5.2127477    9.8313054    1.0907993 
  0.98292078    -5.190952    10.099423     1.092079 
   0.9998036   -5.1879631    9.9147896    1.0910873 
   1.0020832   -5.1797316    9.9347925    1.0907491 
   1.0052787   -5.1641086     10.02003     1.091232 
   1.0005483   -5.1615894    9.9993202    1.0901546 
   1.0005074   -5.1540527    9.9936734    1.0896158 
   1.0143657   -5.1428079     9.963446    1.0896615 
    1.011857   -5.1359265    9.9807851    1.0891521 
   1.0188683   -5.1209285    10.054796    1.0896203 
   1.0156712   -5.1218548    9.9537731    1.0880258 
   1.0173634   -5.1137381    9.9618586    1.0876499 
   1.0295036   -5.0943382    10.045646     1.088673 
   1.0395466   -5.0921622    9.9018785    1.0875548 
   1.0292669   -5.0823917    10.016079    1.0873604 
   1.0274612   -5.0735484    10.050101     1.087047 
   1.0460487   -5.0687801    9.8996401    1.0863381 
   1.0340607   -5.0543158    10.104829    1.0867315 
   1.0336448    -5.055395     9.996975    1.0852538 
   1.0441212   -5.0415794    10.022956    1.0856042 
   1.0562945   -5.0313028    9.9771053    1.0854694 
   1.0469411   -5.0228943    10.046171    1.0850273 
   1.0607964   -5.0283006    9.7774785    1.0830191 
   1.0638334   -4.9959941    10.126877    1.0856825 
   1.0690604   -5.0059883    9.8468504    1.0830887 
   1.0557819   -4.9968009    9.9670833    1.0827874 
   1.0718347   -4.9622891    10.260988    1.0857591 
   1.0624579   -4.9894315    9.8387662     1.080956 
   1.0671192   -4.9784095    9.8584668    1.0809517 
   1.1152028   -4.9303626    10.114966    1.0856314 
   1.0729687   -4.9563181    9.9442072    1.0810186 
   1.0836414   -4.9639769     9.665705    1.0786343 
   1.0867116   -4.9037719    10.393407    1.0847659 
   1.0821196   -4.9398329    9.8256531    1.0789092 
   1.0881424    -4.922702    9.9260489    1.0796364 
   1.1138474   -4.8915837    10.095959    1.0822101 
    1.092824   -4.9071097    9.9122193     1.078839 
   1.0881548   -4.9029111    9.9121507    1.0779786 
   1.1117776   -4.8708557    10.108273    1.0806285 
   1.1080759   -4.8728704    10.014687    1.0790366 
   1.0960137   -4.8728163    9.9920548    1.0776373 
   1.1154599   -4.8482999    10.119247    1.0793893 
   1.1197371   -4.8543204     9.904485    1.0773198 
   1.1216071   -4.8456939    9.9294749    1.0770459 
    1.101118    -4.825511    10.262274    1.0782187 
   1.1251729     -4.83227    9.8970616    1.0760409 
    1.122967    -4.808791    10.149847    1.0776405 
   1.1295518   -4.8080585    10.024557    1.0763124 
   1.1331575   -4.8102164    9.8598956    1.0747501 
   1.1525454   -4.7834738    10.015161    1.0767329 
   1.1363292   -4.7848004    10.033312     1.075266 
    1.139801   -4.7935455    9.7848105    1.0729223 
   1.1596807   -4.7511832    10.151634    1.0768156 
   1.1382961   -4.7602865    10.074545    1.0743247 
    1.146855   -4.7700079    9.7734786    1.0717768 
   1.1669135   -4.7260851    10.171354    1.0758824 
   1.1454323   -4.7429185    9.9807909     1.072481 
    1.143937   -4.7429827    9.9004711    1.0711604 
   1.1714048   -4.7023338    10.184029    1.0748399 
   1.1544532   -4.7194354    9.9713921     1.071407 
   1.1674352   -4.7200926    9.7825464    1.0699957 
   1.1774153   -4.6719756    10.285919     1.074587 
   1.1554825   -4.6940377    10.049533    1.0705674 
   1.1781801   -4.7009984    9.6982311    1.0684129 
   1.1983876   -4.6445405     10.24899    1.0739493 
   1.1731337    -4.670913    9.9584942     1.069412 
   1.1733446   -4.6750141    9.8031328    1.0675338 
   1.1978472    -4.630336    10.173299    1.0717153 
    1.207641   -4.6423412    9.8478169    1.0690143 
   1.1846938    -4.639103    9.9542656    1.0680239 
   1.2015194   -4.6158666    10.076321    1.0695562 
   1.1981684   -4.6179075    9.9717893    1.0679147 
   1.1873846   -4.6121977    10.025025    1.0672451 
   1.1934923   -4.5971361    10.100374     1.067788 
   1.2063826    -4.595495    9.9342136    1.0666235 
   1.2210771   -4.5741265    10.037859      1.06793 
   1.2125392   -4.5724352    10.015831    1.0667988 
    1.201262   -4.5717639    10.021418    1.0654999 
   1.2139253   -4.5489056    10.161473    1.0669724 
   1.2076065   -4.5607068    9.9695216    1.0643139 
   1.2145333   -4.5603026    9.8191648    1.0630472 
   1.2430178   -4.5014968    10.333874    1.0687499 
   1.2259136   -4.5357874    9.8986648     1.063429 
     1.22867   -4.5365857    9.7855206    1.0619831 
   1.2514707   -4.4899918    10.162612    1.0662384 
   1.2355957   -4.5045827    9.9918772    1.0632271 
   1.2371566   -4.4995701    9.9516948    1.0625036 
   1.2415087     -4.47606    10.163058    1.0639642 
   1.2520363   -4.4937977    9.7480019    1.0605409 
   1.2497678    -4.471003    9.9743385    1.0619631 
   1.2483426   -4.4501567    10.195628    1.0631235 
   1.2496755   -4.4694261    9.8167854    1.0595351 
   1.2583492   -4.4393525    10.086292     1.061749 
    1.256028   -4.4326612    10.101595    1.0612781 
   1.2690836   -4.4391911    9.8349041    1.0592053 
   1.2913907   -4.4148003    9.9208162    1.0607998 
   1.2791169   -4.4108913     9.956398    1.0599319 
   1.2710048   -4.4034741    10.021791    1.0595135 
   1.2792685    -4.404117     9.871051    1.0581714 
    1.279848   -4.3876405    10.001402     1.058758 
   1.2790744   -4.3775462    10.054468    1.0586751 
    1.283374   -4.3769828    9.9342957    1.0574083 
   1.2698176   -4.3564155    10.221709    1.0586377 
   1.2804124   -4.3613299    9.9870438    1.0566901 
   1.2741963   -4.3525121    10.063426    1.0563818 
   1.3006194   -4.3420817    9.9382589    1.0564187 
    1.303622   -4.3172249    10.163603    1.0580138 
   1.3084391   -4.3388043    9.7358146    1.0541243 
   1.2856208   -4.3159907    10.123467    1.0555769 
   1.2958309   -4.2948417    10.237234    1.0566907 
   1.3007779   -4.3074858    9.9352484    1.0539039 
   1.3132946   -4.2892057    10.013589    1.0547492 
   1.3027342   -4.2724489    10.229814    1.0554239 
   1.3074912   -4.3056641    9.6704697    1.0502334 
   1.3225553   -4.2485964    10.244604    1.0556816 
   1.3396012   -4.2508663    9.9988078    1.0541239 
   1.3128434   -4.2664327    9.8856956    1.0509208 
   1.3180723   -4.2350042    10.177033    1.0532961 
   1.3309146   -4.2296732    10.058631    1.0526037 
   1.3398957   -4.2396788    9.7734924    1.0501135 
    1.324379   -4.2132986    10.160188    1.0519014 
    1.345628   -4.2126257    9.9246035    1.0506959 
   1.3510547   -4.2056055    9.8946929    1.0501809 
   1.3416814   -4.2001307    9.9308941    1.0495168 
   1.3658593   -4.1788499    9.9591421    1.0506808 
   1.3473548   -4.1594135    10.253691    1.0516428 
   1.3293826    -4.204039    9.6944898      1.04508 
   1.3711086   -4.1483868     10.05996    1.0502511 
   1.3725284   -4.1393063    10.094553    1.0500502 
   1.3535866   -4.1728787    9.6808925    1.0447461 
   1.3743493   -4.1170029    10.170526    1.0499051 
   1.3901547   -4.1230269    9.9089482    1.0479239 
   1.3654374   -4.1307267    9.8935376    1.0457173 
   1.3514253    -4.108013    10.192042    1.0470425 
   1.3732275   -4.1063923    9.9732146    1.0459643 
   1.3948255   -4.0942339    9.9095774    1.0460944 
   1.3861478   -4.0762209    10.110692    1.0468347 
   1.3760739   -4.0988355    9.8020804     1.042906 
    1.367265   -4.0793317    10.026138    1.0438323 
   1.3954744   -4.0620767     9.950897    1.0444493 
   1.4053249   -4.0404544    10.091548    1.0457296 
   1.3886436   -4.0361283    10.163838    1.0448276 
   1.3863719    -4.062802    9.7486225    1.0404541 
   1.4024036   -4.0186653    10.121974    1.0442522 
   1.4155976   -4.0071724    10.099885    1.0443143 
   1.4033381   -4.0333228    9.7621628    1.0399773 
   1.3934126   -3.9939529    10.246127    1.0431693 
    1.413692   -3.9998139    9.9378106    1.0410957 
    1.406504   -3.9910184    10.017122    1.0408934 
     1.40701   -3.9807192    10.050011     1.040773 
   1.4234634   -3.9711961    9.9979181    1.0405679 
   1.4354807   -3.9631273    9.9258015    1.0401739 
   1.4175026   -3.9538736    10.070616    1.0398827 
   1.4359064   -3.9546602    9.8597212     1.038469 
   1.4199401   -3.9376389     10.08365     1.039111 
   1.4469499   -3.9298707    9.9322276    1.0387461 
   1.4405162   -3.9140268    10.068964     1.039177 
   1.4396991   -3.9218224    9.9004249    1.0370693 
    1.441438   -3.8979541    10.102397    1.0384703 
   1.4480145   -3.9001947    9.9552647    1.0369485 
   1.4381461   -3.8994212    9.9378212    1.0357071 
   1.4624062   -3.8673704    10.096818     1.038067 
   1.4774071   -3.8806196    9.7302343    1.0352438 
   1.4399294   -3.8674067    10.083217    1.0354338 
    1.450942   -3.8658532    9.9245217    1.0342907 
   1.4640603   -3.8424267    10.057405    1.0356231 
   1.4661276   -3.8325002    10.061601    1.0353865 
   1.4632662   -3.8430417    9.8785724    1.0329471 
    1.459352    -3.820225    10.119703    1.0342267 
   1.4937935   -3.8155505    9.8433767    1.0334522 
    1.489946   -3.7940359    10.053791    1.0345655 
   1.4761363   -3.7965701    10.037291    1.0330066 
   1.4688395   -3.8034103    9.9087092    1.0308814 
   1.4835954   -3.7629334     10.24817    1.0342386 
   1.4924817   -3.7680768    10.035337    1.0323744 
   1.4789527   -3.7853841    9.8179091    1.0291269 
   1.4742413   -3.7535331    10.174767    1.0314325 
   1.4873721   -3.7560421    9.9724257    1.0298309 
   1.4781388   -3.7519933     9.982646    1.0289374 
   1.5035236   -3.7333897    9.9559887    1.0296944 
   1.5165156   -3.7135318    10.021011    1.0305389 
   1.5032673   -3.7156039    9.9980723    1.0289704 
   1.4925689   -3.7179732    9.9530943    1.0273284 
   1.5131634   -3.7009574    9.9476864    1.0279173 
   1.5087112   -3.6804142    10.164565    1.0288303 
   1.5140305   -3.7036791    9.7196719    1.0248169 
   1.5264554   -3.6618719    10.062165    1.0281586 
   1.5259388   -3.6555229     10.06143    1.0274947 
   1.5121401   -3.6850531    9.7098037    1.0228424 
   1.5372296   -3.6412203     9.988574    1.0263661 
   1.5351745   -3.6218884    10.146316    1.0271658 
   1.5369652   -3.6472881    9.7397355    1.0229012 
   1.5374651   -3.6081204    10.131441    1.0259351 
   1.5268911   -3.6102905    10.096164    1.0244008 
   1.5288735   -3.6209626    9.8669091    1.0217898 
   1.5574487   -3.5815293    10.082187    1.0248229 
   1.5585267   -3.5741982    10.056374     1.024293 
   1.5297543   -3.5985968     9.868612    1.0202765 
    1.527479   -3.5858729    9.9586759    1.0203494 
   1.5669601   -3.5458338    10.102718    1.0234094 
   1.5881178   -3.5414888    9.9118495     1.022453 
   1.5416695   -3.5621953    9.8835235      1.01884 
   1.5597432   -3.5560213    9.7607807    1.0181663 
    1.570119   -3.5088621    10.173671    1.0219389 
   1.5789551   -3.5139872    9.9504286    1.0199792 
   1.5788777   -3.5065717    9.9435471    1.0194651 
   1.5530993   -3.4983784    10.167101    1.0190245 
   1.5535036   -3.5293424    9.6718378     1.014241 
   1.5906623   -3.4619932     10.18503    1.0202773 
   1.6039435   -3.4569349    10.047829    1.0194534 
   1.5623796   -3.4957445     9.742205    1.0137134 
   1.5623331   -3.4481963    10.261289    1.0175998 
   1.5710357   -3.4405996     10.19611    1.0170146 
   1.5852384   -3.4579808    9.7850976    1.0137123 
   1.6066652   -3.4024824    10.273997    1.0184031 
   1.5950409   -3.4330416    9.8910653    1.0138072 
   1.5808795   -3.4432227    9.7373926     1.011271 
   1.6144813   -3.3646693    10.396593    1.0183652 
   1.6147786   -3.3886231    10.014903    1.0144463 
   1.6026334   -3.4130577    9.7156605    1.0104074 
   1.6082142   -3.3759285    10.050307    1.0131413 
   1.6013662   -3.3708123     10.07377    1.0123312 
    1.585817   -3.3874743    9.8818669    1.0091284 
   1.6080004   -3.3538819    10.026526    1.0112765 
   1.6096791   -3.3130903    10.409217    1.0142735 
   1.6054364    -3.356462    9.8327968     1.008215 
   1.5882818     -3.34296    10.031222    1.0081605 
   1.6259534   -3.3248546    9.8903884    1.0086407 
   1.6319882   -3.3001742    10.068411    1.0097981 
   1.6279957   -3.2953972    10.049044    1.0088644 
   1.6191034   -3.2981469    9.9963021     1.007145 
   1.6257097   -3.2770465    10.104808    1.0079472 
   1.6383344   -3.2677762    10.033047    1.0074153 
   1.6416034   -3.2675961    9.9110675    1.0060031 
   1.6487527   -3.2527931    9.9524215    1.0061049 
   1.6316391   -3.2396738    10.138192    1.0060747 
    1.646409   -3.2511666    9.8020448    1.0034559 
   1.6413637   -3.2176842    10.161055    1.0055028 
   1.6461655   -3.2199089    10.007064    1.0038212 
   1.6334802    -3.216814     10.03467    1.0026626 
   1.6475027   -3.1887367    10.163791    1.0041633 
   1.6422456   -3.1991079    9.9754689    1.0016146 
   1.6434533   -3.1981693    9.8971358    1.0002231 
   1.6707351   -3.1545388    10.112629     1.003312 
   1.6884766    -3.150056    9.9550357    1.0022378 
    1.662626    -3.168447    9.8441891   0.99886453 
    1.658326   -3.1405372    10.100777    1.0003196 
   1.6719326   -3.1157043    10.195099    1.0014513 
   1.6800472   -3.1442773    9.7222819   0.99700013 
   1.6703674   -3.1105038     10.09003   0.99898353 
    1.669797   -3.0976494     10.16733   0.99887171 
   1.6784152   -3.1222023     9.729229   0.99478471 
   1.6875607   -3.0542347    10.347763    1.0003579 
    1.705262   -3.0701175    9.9623694   0.99727644 
   1.6767075    -3.103439    9.6709565   0.99231944 
    1.672988   -3.0583836    10.134718    0.9954332 
    1.699354   -3.0504318    9.9311358   0.99469832 
   1.6788743   -3.0458837    10.060058   0.99362705 
   1.6813473   -3.0436132    9.9364785   0.99223658 
   1.6892795    -3.030898    9.9266359    0.9919877 
   1.7139292   -2.9871418    10.172799   0.99491975 
   1.7110798   -3.0019043    9.9415866   0.99188278 
   1.6911734   -3.0131155    9.8305826   0.98915594 
   1.7313197   -2.9598945    10.082419   0.99297784 
   1.7128199   -2.9717243     9.985217   0.99023808 
   1.6857016   -2.9884406    9.8804881   0.98692441 
   1.7138926   -2.9568986    9.9539851   0.98849826 
   1.7161929   -2.9445862    9.9814734   0.98806951 
   1.7009914   -2.9427794    9.9873097   0.98662598 
   1.6907243   -2.9237343    10.174314   0.98694132 
   1.6988549   -2.9352057    9.8901914   0.98407447 
   1.7025871   -2.8991375    10.170961   0.98607088 
   1.7062803   -2.8953767    10.112757   0.98476942 
   1.6997529   -2.9201517    9.7617202   0.98055853 
   1.7065413   -2.8809573    10.053919   0.98270699 
   1.7176486   -2.8574379    10.116796   0.98329468 
   1.7171316   -2.8742125    9.8280536   0.97983778 
    1.699891   -2.8440435    10.195482   0.98110198 
   1.7031568   -2.8574998    9.8923578   0.97801929 
   1.6706639   -2.8584711     9.989098    0.9760561 
   1.7194215    -2.821007    9.9808244    0.9779152 
   1.7236653   -2.8004732    10.070048    0.9780122 
   1.7095012   -2.8377087    9.6519046   0.97239006 
   1.6987367   -2.7987021    10.029887   0.97439573 
   1.7040907   -2.7530852    10.352021   0.97693879 
   1.6964267   -2.8012936    9.7580393   0.97029626 
   1.6953365   -2.7709158    9.9968946   0.97128095 
   1.6889678   -2.7313326    10.338019   0.97317662 
   1.6802386   -2.7825813     9.729047   0.96614688 
   1.6708945   -2.7494373    10.053937   0.96732556 
   1.6863188    -2.733558    9.9822619   0.96671153 
   1.6911973   -2.7303181    9.8421456   0.96489873 
   1.6829027    -2.684485    10.284219   0.96724892 
    1.643551   -2.7348077    9.8906425    0.9603381 
   1.6342071   -2.7373741    9.7840162   0.95790818 
   1.6694136   -2.6542736    10.323679    0.9635972 
   1.6590282   -2.6869166     9.914157   0.95827605 
   1.6197281   -2.6982098    9.9068992    0.9548552 
    1.621686   -2.6584059    10.186376   0.95627405 
   1.6284444   -2.6598814    9.9859077   0.95375851 
   1.6246911   -2.6537603    9.9525049   0.95198603 
   1.6288152   -2.6314564    10.033228   0.95165053 
   1.6433892   -2.6187571    9.9461117   0.95045545 
   1.6072795   -2.6228915    9.9713937   0.94764752 
   1.6333405   -2.6168744    9.7248024   0.94573431 
   1.6397091   -2.5543465    10.186229   0.94909931 
   1.6202487   -2.5766764    9.9472251   0.94455471 
   1.6115714   -2.5761066    9.8553373   0.94206402 
   1.6296943   -2.5125529    10.254709   0.94543108 
   1.6454107   -2.5213208    9.9115014   0.94205636 
   1.6428635   -2.5141292     9.838053   0.94020063 
   1.6651636   -2.4539078    10.169814   0.94322121 
   1.6628747    -2.471614    9.8232857   0.93908974 
   1.6686877   -2.4551743    9.8061192   0.93800596 
   1.6989503   -2.3805055    10.246304   0.94228445 
   1.6742413   -2.4087469    9.9456549    0.9371931 
    1.690129   -2.3956052     9.855841   0.93580702 
   1.7065829   -2.3490446    10.109736   0.93746029 
   1.6892804   -2.3608322    9.9105003    0.9338014 
   1.7030856   -2.3344315    9.9569352   0.93365693 
   1.7142906   -2.3061263    10.054282   0.93359636 
   1.7004538   -2.3082565    9.9309207   0.93084882 
   1.7362994   -2.2746208     9.902095   0.93133488 
   1.7408624   -2.2435419    10.065319   0.93161755 
   1.7132543   -2.2505514    9.9976036   0.92838074 
   1.7480022   -2.2234547    9.9078438   0.92828634 
   1.7667384    -2.164715    10.218982   0.93097373 
   1.7608944   -2.1806845     9.965605   0.92703684 
   1.7720252   -2.1718199    9.8250906   0.92527745 
   1.7780015   -2.1159917    10.198381   0.92777824 
    1.779506   -2.1383616    9.8379241   0.92328917 
    1.789934   -2.1044118    9.9523789   0.92386253 
   1.8141192   -2.0607649     10.09256   0.92527139 
   1.7978049   -2.0690143    9.9640207   0.92202828 
   1.8130186   -2.0474262    9.9551703   0.92144619 
   1.8278208   -2.0205118    10.004733   0.92140684 
   1.8556258   -2.0151291    9.7204867   0.91942226 
   1.8696989   -1.9630311    10.017564   0.92158735 
   1.8375438   -1.9554119    10.148734   0.91992025 
   1.8319793     -1.99157    9.6932381   0.91443283 
   1.8625476   -1.9149971    10.131662   0.91884971 
   1.8832049   -1.8989998    10.017621    0.9178654 
   1.8670096   -1.9215235    9.7841608   0.91351791 
    1.876187   -1.8837569    9.9530668    0.9145476 
   1.8884053   -1.8437135    10.141062   0.91570232 
   1.8746108   -1.8670886     9.889412   0.91143275 
   1.8849307   -1.8460947    9.8881708   0.91101835 
   1.9053072   -1.7874535     10.20901   0.91382067 
   1.8816726   -1.8148699    9.9246251   0.90924598 
   1.9088377   -1.7959589    9.8170323   0.90867118
