LAMMPS (29 Sep 2021 - Update 2)
variable t string 1

units lj
boundary p p p
atom_style atomic

lattice fcc 0.8
Lattice spacing in x,y,z = 1.7099759 1.7099759 1.7099759
region r1 block -6 6 -6 6 -6 6
create_box 1 r1
Created orthogonal box = (-10.259856 -10.259856 -10.259856) to (10.259856 10.259856 10.259856)
  2 by 1 by 2 MPI processor grid
create_atoms 1 box
Created 6912 atoms
  using lattice units in orthogonal box = (-10.259856 -10.259856 -10.259856) to (10.259856 10.259856 10.259856)
  create_atoms CPU = 0.001 seconds
mass 1 1.0

pair_style lj/cut 2.5
pair_coeff * * 1.0 1.0

velocity all create $t 322 mom yes rot no
velocity all create 1 322 mom yes rot no
reset_timestep	0
timestep 0.001

#### Equilibration ####
fix base all npt temp 0.6 0.6 0.1 iso 10 10 1

thermo_style custom temp etotal press density
thermo 100

run 10000
Neighbor list info ...
  update every 1 steps, delay 10 steps, check yes
  max neighbors/atom: 2000, page size: 100000
  master list distance cutoff = 2.8
  ghost atom cutoff = 2.8
  binsize = 1.4, bins = 15 15 15
  1 neighbor lists, perpetual/occasional/extra = 1 0 0
  (1) pair lj/cut, perpetual
      attributes: half, newton on
      pair build: half/bin/atomonly/newton
      stencil: half/bin/3d
      bin: standard
Per MPI rank memory allocation (min/avg/max) = 3.260 | 3.260 | 3.260 Mbytes
Temp TotEng Press Density 
           1   -4.8649635   -5.4090823          0.8 
  0.39069504   -5.4571133   0.81059226   0.89533484 
  0.71640412   -5.3317079    2.9695364   0.96348382 
  0.88140998   -5.3198838    5.1246203    1.0179391 
  0.91797254   -5.4007492    7.1805142    1.0601411 
  0.87352459   -5.5477522    8.6779107    1.0887473 
  0.79982872   -5.7279606     9.423205    1.1054093 
  0.73285985   -5.9069548    9.6541991    1.1153789 
  0.67098234   -6.0559473    9.7925413    1.1223628 
  0.62680688   -6.1694832    9.8571803    1.1273729 
  0.60049751   -6.2478306    9.9149594    1.1313891 
  0.58386299    -6.290601    9.9712368    1.1336969 
  0.58301062   -6.2869126    10.040505    1.1342802 
  0.59141334   -6.2489265    10.081032    1.1328547 
  0.61610145   -6.2065016    9.9792781    1.1306918 
  0.60965152   -6.1934947    10.021524    1.1296549 
  0.62042587   -6.2085172    9.8521982    1.1295594 
  0.59789555   -6.2393773    9.9915937    1.1315359 
  0.59612402   -6.2650546    9.9334471    1.1325541 
  0.59401849   -6.2660403    9.9901294    1.1331506 
  0.60990103   -6.2441563    9.8998443    1.1318762 
  0.61228745   -6.2149735     9.977212    1.1309529 
  0.61238859   -6.2050969    9.9617674    1.1300554 
  0.61376033   -6.2156881    9.8883733    1.1299658 
  0.59970056   -6.2352832    10.002206    1.1315596 
  0.59045752   -6.2564357    10.004226    1.1322654 
   0.5951239   -6.2571726    10.004844     1.132826 
  0.60212714   -6.2456039     9.968762    1.1320708 
  0.60115228   -6.2258398    10.021725    1.1312863 
  0.60679874   -6.2124013    9.9850025    1.1302933 
  0.60127606   -6.2135327    10.038773    1.1306123 
  0.59933069   -6.2321708    10.006075    1.1313674 
  0.59443403   -6.2514724    9.9698094     1.131901 
  0.60003196   -6.2503634    9.9728417    1.1323106 
  0.60445518    -6.238789    9.9821433    1.1319819 
  0.60540102   -6.2274684    9.9525895    1.1308757 
  0.60936547   -6.2164711    9.9888111    1.1309152 
  0.60785722   -6.2256568    9.9505815    1.1309313 
  0.59769748   -6.2420991     9.986224    1.1316351 
  0.59120771   -6.2510621    10.019915    1.1321136 
  0.59977542   -6.2435627    10.000646    1.1320992 
  0.60152253   -6.2352064    10.012844    1.1318116 
  0.59940731    -6.229737    9.9691837      1.13068 
  0.60726105   -6.2165827     10.01281     1.130974 
  0.60063111   -6.2249185    10.026988    1.1312523 
  0.59732972   -6.2430463     9.951753    1.1311934 
  0.59138961   -6.2444958    10.071835    1.1323426 
  0.59479463   -6.2440079    10.039408    1.1321711 
   0.5924445   -6.2382269    10.020882    1.1313209 
  0.60497063   -6.2212504    10.011973     1.131141 
  0.60735438   -6.2189269    9.9704098    1.1306636 
  0.60511257   -6.2262961    9.9550186    1.1309047 
  0.59999618   -6.2386464    10.025754    1.1321342 
   0.5997827   -6.2547399    9.9123913    1.1318258 
  0.59077359   -6.2469736    10.085274    1.1326483 
  0.60263909    -6.236641    9.9294777    1.1309626 
  0.61044153   -6.2153408    10.007362    1.1311522 
  0.61218339   -6.2204537    9.9445845    1.1308812 
  0.59962351   -6.2378468    9.9319331    1.1308242 
  0.59640174   -6.2403062     10.07387    1.1325464 
  0.59725147   -6.2514952    9.9776277    1.1322273 
  0.59442706   -6.2492359    9.9812555    1.1318194 
  0.60817531   -6.2280757    9.9775201    1.1315371 
  0.60083345   -6.2193085    10.007311     1.130569 
  0.60441764   -6.2150419    9.9772631    1.1302174 
  0.60559138   -6.2201881    10.037666     1.131441 
  0.59694638    -6.245961    9.9586923    1.1315059 
  0.59514505   -6.2532418     10.01129    1.1325823 
  0.59533463   -6.2496329    10.022659    1.1324372 
    0.602915   -6.2362332    9.9544182    1.1312377 
  0.60760129   -6.2183864    10.007036    1.1311312 
  0.60534891   -6.2196697    9.9647701     1.130411 
  0.60232212   -6.2279027    10.003526    1.1312184 
  0.60081493   -6.2418803    9.9616533    1.1315485 
  0.60083032    -6.247839    9.9839053    1.1323284 
  0.58990428   -6.2503622    10.061607    1.1324459 
  0.59578224   -6.2427707    9.9921991    1.1315561 
  0.60321409   -6.2238913    10.007773     1.131069 
  0.60806958    -6.216022    9.9644301    1.1304432 
  0.60003822   -6.2207147    10.044043    1.1310403 
  0.59658953   -6.2373942    9.9789586    1.1311103 
  0.60086166   -6.2423504    10.004417    1.1321789 
  0.59357777   -6.2492368    10.061226     1.132749 
  0.59258663   -6.2540077    9.9498918    1.1315358 
  0.59759917   -6.2299097     10.07303    1.1319052 
  0.60971881   -6.2196769    9.9596097    1.1308026 
  0.60886189   -6.2230296    9.9141283    1.1303709 
  0.60313423    -6.227756    10.043069    1.1319073 
  0.60772502    -6.247665    9.8462429    1.1312072 
   0.5865905   -6.2457784     10.11604    1.1325911 
  0.59209311    -6.241065    10.068076    1.1320794 
  0.59838911   -6.2349416    9.9620931    1.1308598 
  0.60711689   -6.2179155    10.037898     1.131373 
  0.60735411   -6.2252815    9.9250052    1.1305187 
  0.59618978   -6.2335494    10.035081    1.1314614 
  0.60147948   -6.2414732    9.9792491    1.1318458 
  0.59589475   -6.2463722    9.9883671    1.1317877 
   0.6044408   -6.2388501    9.9892639    1.1320741 
  0.59972122   -6.2366156    10.007252    1.1317321 
  0.59938253   -6.2349083    9.9585499     1.130947 
  0.60826677   -6.2226916    9.9987818     1.131405 
Loop time of 15.5677 on 4 procs for 10000 steps with 6912 atoms

Performance: 55499.637 tau/day, 642.357 timesteps/s
99.7% CPU use with 4 MPI tasks x no OpenMP threads

MPI task timing breakdown:
Section |  min time  |  avg time  |  max time  |%varavg| %total
---------------------------------------------------------------
Pair    | 12.804     | 13.012     | 13.182     |   4.7 | 83.59
Neigh   | 0.71041    | 0.71705    | 0.7216     |   0.5 |  4.61
Comm    | 0.79402    | 0.9626     | 1.1643     |  17.0 |  6.18
Output  | 0.0017869  | 0.0019513  | 0.0024299  |   0.6 |  0.01
Modify  | 0.74415    | 0.75213    | 0.75883    |   0.6 |  4.83
Other   |            | 0.1214     |            |       |  0.78

Nlocal:        1728.00 ave        1743 max        1706 min
Histogram: 1 0 0 0 0 1 0 0 1 1
Nghost:        3867.00 ave        3889 max        3852 min
Histogram: 1 1 0 0 1 0 0 0 0 1
Neighs:        82708.2 ave       84011 max       81717 min
Histogram: 1 0 1 0 0 1 0 0 0 1

Total # of neighbors = 330833
Ave neighs/atom = 47.863571
Neighbor list builds = 249
Dangerous builds = 5
unfix base


fix start all npt temp 0.6 1.9 1 iso 10 10 1

thermo_style custom temp etotal press density
thermo 100

run 50000
Per MPI rank memory allocation (min/avg/max) = 3.262 | 3.262 | 3.262 Mbytes
Temp TotEng Press Density 
  0.60826677   -6.2226916    9.9987818     1.131405 
  0.60781259   -6.2267338    9.9365619    1.1308408 
  0.60378122   -6.2241305    10.004313     1.131197 
   0.6063823   -6.2245838    9.9857145    1.1311906 
  0.60848977   -6.2264315    9.9416875    1.1309466 
  0.60660163   -6.2225864    10.012597    1.1313809 
  0.61002249   -6.2261563    9.9244949    1.1308274 
  0.60303916   -6.2228672    10.019087    1.1311365 
  0.59878169   -6.2187221    10.093989    1.1314522 
  0.60887997   -6.2258588    9.8915593    1.1302622 
  0.60869704   -6.2169134    10.004049    1.1310906 
  0.61705163   -6.2148823    9.9481668    1.1309879 
  0.60424238   -6.2146206    9.9943603    1.1303531 
  0.60877223   -6.2094928     9.996766    1.1304976 
  0.61830338   -6.2045566    9.9744338    1.1307016 
  0.60750724   -6.2065928    9.9838288    1.1299689 
  0.61320145   -6.1965078    10.072847    1.1308934 
  0.61155212   -6.1999666    10.000108    1.1300363 
  0.61214043   -6.2005018    9.9501436    1.1295336 
  0.61283623   -6.1841463    10.172835    1.1312826 
  0.60834383   -6.2001415     9.911573    1.1286144 
  0.60577425   -6.1868265    10.104396     1.129889 
   0.6252961   -6.1771444    10.082641    1.1307479 
  0.60947481   -6.1842128    10.027753    1.1290966 
  0.62060893   -6.1832818    9.9226568    1.1286565 
   0.6182538   -6.1617519    10.226173    1.1308545 
   0.6226949   -6.1801552    9.8534448    1.1277175 
  0.63364967   -6.1653611    9.9512567    1.1290045 
  0.63672178    -6.155432    10.029852    1.1296822 
  0.62673732   -6.1644632     9.911255    1.1277347 
  0.62956026   -6.1484317    10.084217    1.1290951 
  0.63558213   -6.1526941    9.9206193     1.127782 
  0.63665863   -6.1452128    9.9671608    1.1280026 
  0.63285373   -6.1318106    10.147866    1.1289931 
  0.62873413   -6.1437142    9.9253165    1.1265689 
  0.64171167   -6.1301062    9.9914495     1.127662 
  0.64201836    -6.113251    10.186331    1.1290205 
  0.64213899   -6.1369253    9.7543914    1.1250569 
  0.64427706    -6.105294    10.167751    1.1284092 
  0.65382219   -6.1038939    10.061045    1.1277391 
  0.63814849    -6.121054    9.8272552    1.1244625 
  0.65374104    -6.087355    10.173464    1.1280835 
  0.65277132   -6.0914326    10.053929    1.1266211 
  0.65068645   -6.1031123     9.807918    1.1241026 
  0.66091974   -6.0671198     10.22756     1.127965 
  0.66332281   -6.0791956     9.940255     1.125328 
  0.65911492   -6.0845782    9.8128986    1.1236085 
  0.66967523   -6.0527472    10.164431    1.1268927 
  0.66517603   -6.0581935     10.03167    1.1251349 
  0.66098925   -6.0626853    9.9138884     1.123495 
  0.67428485   -6.0371986    10.143079    1.1259164 
   0.6742296   -6.0457866    9.9283059    1.1237224 
  0.67299144   -6.0385398     9.975812    1.1236808 
     0.68131   -6.0209057    10.107208    1.1249115 
  0.68208334   -6.0273862    9.9168726    1.1229185 
  0.67876234   -6.0179993    10.009186    1.1231106 
   0.6876552   -6.0063254    10.047843    1.1236114 
  0.69167373   -6.0046085    9.9600505    1.1227265 
  0.68858949   -5.9973639     10.00724    1.1225655 
  0.68988678   -5.9883199    10.053683    1.1225994 
   0.6877869   -5.9850637    10.032257    1.1218909 
  0.70519455   -5.9774186    9.9464218    1.1218429 
  0.70042122   -5.9625376    10.113729    1.1225484 
   0.6997071   -5.9743166    9.8432953    1.1197903 
  0.71172638   -5.9534459    10.005406    1.1215173 
  0.71211048   -5.9400466     10.12266    1.1221329 
  0.70751282   -5.9552746    9.8356331    1.1188934 
  0.72291935   -5.9334215    9.9825666    1.1207094 
  0.71549608    -5.915401    10.220721    1.1218242 
  0.71547974   -5.9396414    9.7512853    1.1173686 
  0.72156873    -5.904145    10.163108    1.1208686 
  0.73202337   -5.9047176    9.9914681    1.1196287 
  0.72055498   -5.9112028    9.8684209     1.117391 
    0.732125   -5.8831661     10.12582    1.1198674 
  0.73862831   -5.8861159    9.9438192    1.1183292 
  0.73952368   -5.8837741    9.8797397    1.1173472 
  0.73960729   -5.8613661    10.132576    1.1190799 
  0.74930456   -5.8651345    9.9115469    1.1173641 
   0.7378998   -5.8595561    9.9834603    1.1167795 
  0.75201758    -5.843543    10.028063    1.1176402 
  0.74419039   -5.8367779    10.086655     1.117134 
  0.75357458   -5.8450559    9.8069877    1.1148527 
    0.763605   -5.8083697    10.202365    1.1184192 
  0.75895379   -5.8266498    9.8620384    1.1147501 
  0.76127966    -5.819455    9.8533601    1.1143526 
  0.77711278    -5.784842    10.185876    1.1176619 
  0.76140066   -5.8083848    9.8307063    1.1132231 
  0.76687075   -5.7892842    9.9882294    1.1144288 
  0.77614972    -5.765643    10.197547    1.1162791 
  0.76657426   -5.7828746    9.8890484    1.1125919 
  0.77708542   -5.7626716    10.031358    1.1139847 
  0.78746956   -5.7465849     10.10886    1.1148349 
   0.7881907   -5.7563461    9.8607496    1.1121945 
  0.78570503   -5.7405695    10.012594     1.112934 
  0.79329833   -5.7274889    10.065482    1.1134253 
  0.79125285   -5.7231997    10.043793    1.1125491 
  0.78798694   -5.7230966    9.9597545    1.1111453 
  0.79893697   -5.7082661    10.006632    1.1117815 
  0.80533144    -5.693923    10.092011    1.1124137 
  0.80362839   -5.6995684    9.9106604    1.1102872 
  0.80621994    -5.681841    10.064525    1.1112268 
   0.8157063   -5.6749434    10.014386    1.1108249 
  0.81476717   -5.6773665    9.8679355    1.1091105 
  0.82229671   -5.6548833    10.072767    1.1108091 
  0.81730686   -5.6501305    10.077891    1.1100308 
  0.81937908   -5.6552186    9.8760841      1.10795 
  0.82927793   -5.6331974    10.038052    1.1094567 
  0.82566123   -5.6260146    10.076235    1.1091033 
  0.83899086   -5.6247229    9.9049931    1.1079282 
  0.82519749   -5.6080175    10.145558    1.1086335 
  0.84095173   -5.6140166    9.8519338    1.1065491 
   0.8410888   -5.5837087    10.204299    1.1091343 
  0.85288269   -5.5930818    9.8740187     1.106563 
  0.84436722   -5.5916765    9.8444921    1.1052857 
  0.84896587   -5.5605469    10.189941    1.1080231 
  0.86368887   -5.5670396    9.8899814    1.1058385 
  0.85463296   -5.5577956    9.9877518    1.1056199 
  0.86725457   -5.5488892    9.9363437    1.1054614 
  0.87101679   -5.5412865      9.91537    1.1050682 
  0.85776108   -5.5257368    10.148586    1.1057214 
  0.86794025   -5.5352672    9.8346682    1.1031279 
  0.88038458   -5.5119656     9.996183    1.1048238 
  0.88054695   -5.4953548    10.143241    1.1055792 
  0.87229076   -5.5202306    9.7238328    1.1009532 
  0.88602071   -5.4817909    10.098896    1.1045996 
  0.87991915   -5.4730424    10.187085    1.1043785 
  0.87954022   -5.4968934    9.7241725    1.0998909 
  0.88368756   -5.4475671    10.340607    1.1049367 
  0.88962958   -5.4619996    9.9853352    1.1017642 
  0.89741234   -5.4600552    9.8506719    1.1005537 
  0.89889395   -5.4356332    10.106206    1.1023704 
  0.90714141   -5.4429409     9.838209    1.1000705 
  0.90946391   -5.4177758    10.098053    1.1019198 
   0.9024925   -5.4249263    9.9325166    1.0995984 
  0.90710587   -5.4176223    9.9191823    1.0992661 
  0.92559077   -5.3872779    10.147476    1.1019226 
  0.91151277   -5.3963011    10.007385      1.09932 
  0.91716481   -5.3983598    9.8345167    1.0977018 
  0.92489299   -5.3624335    10.216561    1.1009251 
  0.93326443   -5.3785036    9.8187949    1.0975563 
  0.91017625   -5.3646158    10.099127    1.0979745 
  0.93958553   -5.3505507    9.9969679    1.0984814 
  0.93853034   -5.3419102    10.031031    1.0982276 
  0.92974186   -5.3480404    9.9029275    1.0960784 
   0.9394207   -5.3291689    10.018079    1.0972389 
  0.94480641   -5.3121993    10.139257    1.0980738 
  0.94459888   -5.3216406     9.905678    1.0954989 
  0.94817122   -5.3076977    9.9784419    1.0959527 
  0.95738294   -5.2855682    10.149067    1.0974406 
  0.94069473   -5.2998733    9.9682469    1.0943127 
  0.96115467   -5.2858297     9.922964    1.0948062 
  0.96379265    -5.259452    10.198136    1.0968046 
  0.94945632   -5.2841465    9.8385725    1.0922867 
  0.96017606   -5.2561167    10.089867    1.0945784 
  0.97310032   -5.2429613    10.090939    1.0949757 
  0.95475316   -5.2515919    9.9949436    1.0925409 
  0.97691199   -5.2312603    10.056026    1.0939186 
  0.98972735    -5.220484    10.017198    1.0939146 
  0.98699104   -5.2303569    9.7973042    1.0913581 
   0.9953568   -5.2046617    10.025076    1.0933263 
   0.9811029   -5.2024027    10.062702    1.0922627 
  0.98382411   -5.2085151    9.8617426    1.0902008 
  0.99705327   -5.1714972    10.218294    1.0936423 
  0.99044939   -5.1891831    9.8934057    1.0899837 
   1.0035608   -5.1878793    9.7373271    1.0889313 
   1.0110879   -5.1434155    10.236939    1.0932747 
   1.0044107   -5.1664665    9.8559025    1.0890817 
   1.0060574   -5.1573901     9.889156    1.0888813 
   1.0179276   -5.1281882      10.1413    1.0913586 
   1.0096956   -5.1348143    10.001794    1.0891326 
   1.0127421   -5.1373695    9.8499309    1.0875536 
   1.0083142   -5.1082154    10.226898    1.0900032 
   1.0229872   -5.1165971     9.899849    1.0876396 
   1.0298869    -5.102189    9.9726077    1.0881655 
   1.0334036   -5.0920431    9.9987044    1.0881795 
   1.0235562   -5.0903633    10.011281     1.087182 
   1.0278038    -5.078175    10.063143    1.0874268 
   1.0377037   -5.0748553    9.9537577    1.0865974 
   1.0306354   -5.0619035    10.086542    1.0869185 
   1.0471588   -5.0594423     9.921409    1.0859689 
   1.0290192   -5.0538468    10.030564    1.0853534 
   1.0587321   -5.0384241    9.9562018    1.0860811 
   1.0595852   -5.0236896    10.067338    1.0866315 
   1.0536106   -5.0514824    9.6230768    1.0819117 
   1.0555046   -5.0032911      10.2242    1.0867254 
   1.0632868   -5.0046472     10.05611    1.0853511 
   1.0602706   -5.0265565    9.6722639    1.0812678 
    1.059397   -4.9708374    10.393421    1.0869932 
    1.070074   -5.0039266    9.7501062    1.0816504 
   1.0542198   -4.9838012    10.059113    1.0828742 
   1.0920314   -4.9623182    10.009803    1.0843336 
   1.0613916    -4.968704    10.043224    1.0822177 
   1.0685739   -4.9718387    9.8615531    1.0805843 
    1.078811   -4.9408862    10.139857    1.0832431 
    1.081386   -4.9446171    9.9851431    1.0815527 
   1.0799442   -4.9365072    10.025894    1.0812935 
   1.0875996     -4.92748    10.009798    1.0811843 
   1.0960479   -4.9223028    9.9194771    1.0805501 
   1.0977382   -4.9022343    10.116935    1.0818222 
   1.0806086   -4.9144286    9.9790715    1.0790713 
   1.1005592    -4.903809    9.9031027    1.0792271 
    1.096008   -4.8755152    10.245043    1.0814557 
   1.0841432   -4.8937926    9.9837188     1.077932 
   1.0967086   -4.8791168     10.01966    1.0785195 
   1.1082358   -4.8610387    10.111736    1.0796304 
   1.1119858   -4.8601426    10.004494    1.0784822 
   1.1048286   -4.8510413    10.105578    1.0782812 
   1.1091446   -4.8560747    9.9026627    1.0764499 
   1.1173654    -4.833411    10.087572    1.0780584 
   1.1228665   -4.8338463    9.9551581    1.0767644 
   1.1191361   -4.8221728    10.056385    1.0769724 
   1.1214819   -4.8110643    10.107455    1.0770777 
   1.1287636    -4.818588      9.86504       1.0749 
   1.1242212   -4.7941779    10.161319    1.0766987 
   1.1425467   -4.7957564    9.9197936    1.0753718 
   1.1372021   -4.7836645    10.044733    1.0755874 
   1.1335397   -4.7866763    9.9372739    1.0739658 
   1.1443525   -4.7761381    9.9165934    1.0741049 
   1.1614473   -4.7486338    10.107707    1.0762479 
   1.1502951   -4.7688586    9.8145582     1.072533 
   1.1438867   -4.7540054    9.9662106    1.0730448 
   1.1649531   -4.7249327    10.155408    1.0754443 
   1.1546551   -4.7465418     9.826251    1.0715534 
   1.1503613   -4.7294912    10.024652    1.0724709 
   1.1764949   -4.7006125    10.157567    1.0748103 
      1.1736   -4.7188258    9.8344195    1.0713717 
   1.1534157   -4.7109906    10.005398    1.0711073 
   1.1749564   -4.6959936    9.9690925    1.0717159 
   1.1771294   -4.6956415    9.8748675    1.0705481 
   1.1686793   -4.6751699    10.142537     1.071838 
   1.1714778   -4.6774962    10.007458    1.0703412 
   1.1556867   -4.6724557    10.108556    1.0697225 
   1.1859094    -4.665978    9.8984134    1.0692798 
   1.1788289    -4.637404     10.25782    1.0714674 
   1.1759484   -4.6623908    9.8446571    1.0672865 
   1.1935789   -4.6338271     10.03631    1.0695709 
   1.2089456   -4.6092316    10.170114     1.071325 
   1.1929789    -4.647017    9.6685108    1.0654431 
   1.1943327   -4.6026679    10.203823    1.0696699 
   1.1929152   -4.6002775    10.149244    1.0686861 
   1.2033681   -4.6279334    9.6112571    1.0641442 
   1.2281813   -4.5643039    10.258372    1.0707516 
   1.2087608   -4.5877159    9.9643334    1.0666755 
   1.2038826    -4.598362    9.7631788    1.0640716 
   1.2169159   -4.5518811    10.230392    1.0685051 
   1.2263247   -4.5666279    9.8847673    1.0656051 
   1.1998774   -4.5630399    10.029434    1.0647409 
   1.2314942   -4.5528277    9.8706018    1.0647954 
   1.2358448   -4.5267858    10.105369    1.0667598 
   1.2432611   -4.5375727    9.8148525    1.0642109 
   1.2214863    -4.524115    10.082352    1.0646634 
   1.2336974   -4.5236411    9.9285348    1.0635375 
   1.2429401    -4.501825    10.080776    1.0649569 
   1.2330592   -4.5030061    10.048519    1.0636262 
    1.230162   -4.5071584    9.9155873    1.0619819 
   1.2567396   -4.4801621    10.030822    1.0640253 
   1.2365817    -4.479035    10.095032      1.06299 
    1.251902   -4.4824716    9.8704194     1.061436 
    1.257174   -4.4566723    10.114796    1.0633647 
   1.2415356   -4.4688804     9.962413    1.0607014 
   1.2520972   -4.4597194    9.9253743    1.0605583 
   1.2614592   -4.4270523    10.229982    1.0633642 
   1.2683505   -4.4471049    9.8204609    1.0596823 
   1.2444296   -4.4352377    10.077105    1.0599191 
   1.2663795   -4.4200131     10.04414    1.0605644 
   1.2825992   -4.4090226    10.003711      1.06069 
   1.2721364   -4.4148037     9.926391    1.0588859 
   1.2627276   -4.4067833     10.00755     1.058621 
   1.2760349   -4.3946845    10.007146    1.0588781 
   1.2776332   -4.3783345    10.113826    1.0596039 
   1.2844059   -4.3844305     9.914498     1.057669 
   1.2738716   -4.3794182    9.9789067    1.0570213 
   1.2722697   -4.3622024    10.128277    1.0579007 
   1.2947997   -4.3503593    10.053014    1.0581281 
   1.2954835   -4.3545289    9.9104226    1.0564193 
   1.3031947   -4.3492741    9.8454266    1.0558028 
   1.3056009   -4.3209528    10.115014    1.0579956 
   1.3136149   -4.3323546    9.8333775    1.0554211 
   1.2914015   -4.3243288    10.015779    1.0552092 
   1.3167915   -4.3026989    10.045297    1.0565871 
   1.3091546   -4.3069348    9.9448678    1.0548437 
   1.3047054    -4.310341    9.8766278    1.0533355 
   1.3135116   -4.2734272    10.212324    1.0563881 
   1.3046464   -4.2924052    9.9192138    1.0529542 
   1.3255902   -4.2753939    9.9388129    1.0537699 
   1.3084227   -4.2497716    10.307787    1.0555853 
   1.3099521   -4.2897194    9.6895053     1.049714 
   1.3255038   -4.2427589    10.128999    1.0540299 
    1.330261   -4.2311521    10.160247    1.0541507 
    1.332903   -4.2574155    9.7046753    1.0498369 
   1.3509907   -4.2173361    10.041996    1.0533913 
   1.3565136    -4.210142    10.029389    1.0530037 
   1.3484223   -4.2346449    9.6538214     1.048903 
   1.3336714   -4.2028259    10.114429    1.0515109 
   1.3390815   -4.1985533    10.053333    1.0508179 
   1.3552237   -4.2010884    9.8171038    1.0493063 
   1.3438908   -4.1701356    10.220065    1.0517225 
   1.3415556   -4.1912468    9.8942992    1.0480701 
   1.3425688   -4.1772381    9.9849081    1.0485044 
   1.3630609   -4.1478346    10.163497    1.0507786 
    1.389375   -4.1571269     9.765795      1.04847 
   1.3559117   -4.1474445    10.055602    1.0483885 
   1.3536337   -4.1576804    9.8390667    1.0459579 
   1.3643876   -4.1116726    10.300647     1.050139 
   1.3691671   -4.1306154    9.9078003    1.0466712 
   1.3578179   -4.1455883    9.7346427    1.0436979 
   1.3765531   -4.0881879    10.272571    1.0491647 
   1.3814196   -4.1043969    9.9450908    1.0460975 
   1.3800824   -4.1238471    9.6064223    1.0425604 
   1.3980834   -4.0569023    10.265094    1.0490679 
   1.3901025   -4.0738695     10.03938    1.0459743 
   1.3673674    -4.102454    9.7273076    1.0413051 
    1.382542   -4.0498186    10.229728    1.0461459 
   1.3988903   -4.0592194    9.8896128    1.0437722 
   1.4016834   -4.0569832    9.8420536    1.0428446 
   1.3978656    -4.036032    10.049169    1.0440138 
   1.4126718   -4.0338622    9.8887607    1.0430613 
   1.4059698   -4.0160569    10.092555    1.0438594 
   1.4000393   -4.0294679    9.8625321    1.0410556 
   1.4037058   -4.0042464    10.088703     1.042782 
   1.4060326   -3.9961517     10.10537    1.0424861 
   1.3986447   -4.0067283    9.9280236    1.0400445 
   1.4056671   -3.9856776    10.087711    1.0412426 
   1.4164532    -3.978566    10.002913    1.0407791 
   1.4150609   -3.9729518    10.003351    1.0401917 
   1.4047458   -3.9638933    10.127185    1.0400271 
   1.4293874   -3.9554381     9.964892    1.0397173 
   1.4298682   -3.9423641     10.05164      1.03999 
   1.4383559   -3.9535217    9.7593663    1.0374753 
   1.4473185   -3.9080925    10.216106      1.04145 
   1.4219992   -3.9197969    10.150836    1.0389482 
   1.4314564   -3.9603181    9.4850732    1.0330492 
   1.4334175   -3.8704301    10.547726    1.0420962 
   1.4462221   -3.9113344    9.8431525    1.0362041 
   1.4219427   -3.9273609    9.7103084    1.0331055 
   1.4570986   -3.8565979    10.307575    1.0399277 
   1.4653529   -3.8660374     10.03362    1.0376313 
   1.4388421   -3.8886365    9.8559006    1.0337969 
    1.451692   -3.8598418    10.070243    1.0358669 
   1.4533219   -3.8496683    10.109625    1.0358292 
   1.4621677   -3.8622733    9.7831797    1.0331531 
   1.4748229   -3.8242579    10.116193    1.0362229 
   1.4626161   -3.8336021    10.000381    1.0339485 
   1.4537377   -3.8408966    9.8744075    1.0319577 
   1.4661481   -3.8039636    10.182219    1.0348684 
   1.4685598    -3.811132    9.9887778    1.0328521 
   1.4877031   -3.8046174    9.8742409    1.0323819 
   1.4876956   -3.7735497    10.184108    1.0345657 
   1.4862192   -3.8002965    9.7764194    1.0304065 
   1.4893821   -3.7792677    9.9427605    1.0315169 
   1.4878457   -3.7621293    10.080094    1.0323468 
   1.4929196   -3.7670585    9.9055367    1.0305157 
   1.4942824   -3.7448406    10.098592    1.0317977 
   1.4978893   -3.7545731    9.8815286    1.0295097 
   1.5016641   -3.7445411    9.9047702    1.0294449 
    1.498839   -3.7137291    10.229644    1.0316802 
   1.4868991   -3.7408171    9.8877847    1.0274365 
   1.4880129   -3.7193311     10.07682    1.0286989 
   1.5123052   -3.6892932    10.189757    1.0308197 
   1.4994948   -3.7166608     9.874827     1.026547 
    1.488867   -3.7041669    10.027188    1.0267185 
    1.516342   -3.6687093    10.194261    1.0293973 
   1.5141691   -3.6755622    10.039025    1.0274446 
   1.5197284    -3.674807    9.9406642    1.0263011 
   1.5251682    -3.662986    9.9594667    1.0263935 
   1.5161505   -3.6612883    9.9584634    1.0253559 
   1.5295666   -3.6375943    10.091885    1.0267167 
   1.5180907   -3.6401932    10.058649    1.0252543 
   1.5211031   -3.6400408    9.9643324    1.0240735 
   1.5537737   -3.6165787    9.9583926     1.025465 
   1.5318829   -3.6094401    10.100072    1.0249505 
   1.5180271   -3.6267885    9.9122838    1.0218727 
   1.5452805    -3.596528    10.019962    1.0239746 
      1.5525   -3.5682038    10.242169    1.0259124 
   1.5210163   -3.6082731     9.873363    1.0202142 
   1.5144215   -3.5847043    10.144935    1.0215515 
   1.5471906   -3.5675098    10.047342    1.0221431 
   1.5337113   -3.5643562    10.094633    1.0212192 
   1.5519698   -3.5648948    9.8816525    1.0199538 
   1.5596746   -3.5295485    10.169873    1.0225051 
   1.6014768   -3.5273483    9.8519162    1.0214838 
   1.5503228   -3.5452194    9.8982927    1.0182774 
   1.5581903   -3.5265101    9.9895399    1.0190809 
   1.5867132   -3.5035954    9.9924288    1.0203705 
   1.5642868   -3.5046139    10.054104    1.0190161 
   1.5737264   -3.4968944    9.9886344    1.0186072 
   1.5732911   -3.4858235    10.053235    1.0185964 
   1.5569556   -3.4924489    10.002741    1.0166054 
   1.5659833   -3.4818878    9.9869034    1.0164714 
   1.5811314   -3.4596645    10.075044    1.0176361 
   1.5822844   -3.4534579    10.053714    1.0170168 
    1.576914   -3.4523633    10.025972    1.0158525 
    1.583938   -3.4453594    9.9900975    1.0153255 
   1.5848808   -3.4386996    9.9803366    1.0147909 
   1.6042709   -3.4051641    10.153242    1.0171494 
   1.5982262   -3.4212049    9.9333501    1.0141625 
   1.5927731   -3.4369686    9.7006101    1.0112038 
   1.6282257   -3.3824496    10.047133    1.0159222 
   1.6364563   -3.3555266    10.233139    1.0174952 
   1.5906779   -3.4156472    9.7243169    1.0097756 
   1.5855272     -3.39653    9.9128028    1.0106161 
   1.6161159    -3.340675    10.315294    1.0153306 
   1.6076005   -3.3696532    9.9188383     1.010892 
   1.6030329   -3.3719545    9.8522776    1.0093506 
   1.6375174   -3.3312725    10.028938    1.0124143 
   1.6112411   -3.3328909    10.099569    1.0109982 
   1.6389197   -3.3527656    9.5708835    1.0076045 
   1.6414304     -3.27251     10.46113    1.0149526 
   1.6393719   -3.3184053    9.8359611    1.0088217 
   1.6265845   -3.3196912     9.852527    1.0074072 
   1.6165555   -3.2887985    10.205512    1.0094553 
   1.6194877   -3.3012657    9.9509413     1.006854 
   1.6333731   -3.2867168    9.9542787    1.0070972 
   1.6536461   -3.2641856    10.015146    1.0081827 
   1.6377587   -3.2680714    9.9851681    1.0064472 
   1.6279819   -3.2651057     9.989546    1.0054447 
   1.6493453    -3.251346     9.914426    1.0055598 
   1.6482037   -3.2360011    10.018174    1.0058283 
   1.6521802   -3.2353463    9.9408211    1.0045792 
   1.6373622   -3.2345305    9.9375976     1.003264 
   1.6623306    -3.216075    9.9136158    1.0038177 
   1.6450624   -3.1937182    10.209156    1.0047992 
   1.6244783    -3.217812    9.9633817     1.000888 
   1.6540532   -3.2021504    9.8724326    1.0011281 
    1.671226   -3.1501359    10.254417    1.0051694 
   1.6842394   -3.1693477    9.8743331    1.0018177 
   1.6870789   -3.1654972    9.7947499    1.0008199 
   1.6671812   -3.1275427    10.320595    1.0035268 
   1.6646448   -3.1618846    9.8292599    0.9985655 
   1.6651496   -3.1439794    9.9609304   0.99914861 
   1.6833878   -3.1165871    10.075029    1.0006788 
   1.6676967   -3.1414449    9.8172623   0.99673086 
   1.6942261   -3.1205981    9.7961516   0.99753084 
   1.6946279    -3.067726      10.3379     1.001636 
   1.7038019   -3.1199734    9.5559634   0.99470108 
   1.6934855   -3.0676831    10.149457   0.99883188 
   1.6974543   -3.0673271     10.05234   0.99752246 
   1.6732722   -3.0999127    9.7291931   0.99270577 
   1.6821149   -3.0521636    10.149234   0.99633936 
   1.6859265   -3.0417947    10.172552   0.99589366 
   1.6774981   -3.0782787    9.6927259   0.99073917 
   1.6902755   -3.0146712    10.267721   0.99582449 
    1.680573   -3.0207614    10.173863    0.9937536 
   1.6441673   -3.0644161    9.8270562   0.98778868 
   1.6871026   -3.0161205    10.007738   0.99118812 
   1.7215994   -2.9888683     9.966287   0.99238417 
   1.6822722   -3.0011616    9.9851376   0.98954333 
   1.6899468   -2.9869976     10.00391   0.98942933 
   1.6772273   -2.9651801    10.241174   0.99005297 
   1.6730083    -2.999789    9.7673173   0.98488753 
   1.6740614   -2.9702205    9.9943776    0.9863295 
   1.7015368   -2.9227986     10.25027   0.98947285 
   1.6575918    -2.965977    9.9814167   0.98352297 
   1.6696614   -2.9876887    9.5321147   0.97953312 
   1.6898139   -2.8775444    10.547858   0.98890933 
   1.6971533    -2.924673    9.8308164    0.9824885 
   1.6715949     -2.92645    9.9228524   0.98055932 
   1.6948832   -2.8845262    10.119863    0.9829729 
   1.6953084   -2.8869625    9.9528673   0.98095206 
   1.6731582   -2.8658459    10.239603    0.9813094 
   1.6765674   -2.8857209       9.9029   0.97765349 
   1.6705404   -2.8835742     9.858749   0.97596848 
   1.6860271   -2.8414237    10.103262   0.97833928 
   1.6925948   -2.8319074    10.063044   0.97739057 
   1.6659683   -2.8447693    9.9680987   0.97428578 
   1.6615726   -2.8495817    9.8226046   0.97189941 
   1.6768838   -2.7883782    10.275319   0.97599073 
   1.6858647   -2.7975334    10.015233   0.97317175 
   1.6350753    -2.822833    9.9479187   0.96864873 
   1.6505629   -2.7940729    10.052206   0.96947364 
   1.6223545   -2.7902059    10.178846   0.96786266 
    1.628433   -2.8039821     9.883496   0.96433365 
   1.6200569   -2.7744336    10.139742   0.96510245 
   1.6316853   -2.7701158    9.9697875   0.96332957 
   1.6430048   -2.7528554    9.9552517     0.962726 
   1.6348079   -2.7407397    10.011463   0.96171873 
   1.5880548   -2.7477081    10.116145   0.95887654 
   1.5847695   -2.7441882    10.018524   0.95693317 
   1.6007772   -2.7141937    10.093346   0.95750922 
   1.6083639   -2.7054044    10.009618   0.95599216 
   1.6041142   -2.6980328    9.9889386   0.95433754 
   1.6033286   -2.6791598    10.051482    0.9537307 
    1.587173    -2.687535    9.9246234   0.95059529 
   1.5926503   -2.6800696    9.8291634   0.94889083 
   1.5987786   -2.6348845    10.126854   0.95067077 
   1.5892815   -2.6290746    10.112177   0.94876856 
    1.598422   -2.6291227    9.9039787   0.94627277 
   1.5925352   -2.5932702    10.186551    0.9470894 
   1.6043122    -2.586894    10.037798   0.94519769 
   1.6401593    -2.574303    9.7840017   0.94387419 
   1.6439717   -2.5171626    10.189985   0.94662014 
    1.623845   -2.5446908    9.9181145   0.94163538 
   1.6118506   -2.5406369    9.8790415   0.93941085 
   1.6422483   -2.4686251    10.279841   0.94350447 
   1.6655168   -2.4947749    9.6701836   0.93855061 
   1.6547725   -2.4389288    10.195455   0.94110761 
   1.6569961   -2.4263051    10.148069   0.93976078 
   1.6597508   -2.4498565    9.7231396    0.9349911 
   1.6936593   -2.3824016    10.075003   0.93862961 
   1.6661883   -2.3678294    10.254782     0.937442 
   1.6824229   -2.4138233    9.5357794   0.93061129 
Loop time of 76.3413 on 4 procs for 50000 steps with 6912 atoms

Performance: 56587.946 tau/day, 654.953 timesteps/s
99.7% CPU use with 4 MPI tasks x no OpenMP threads

MPI task timing breakdown:
Section |  min time  |  avg time  |  max time  |%varavg| %total
---------------------------------------------------------------
Pair    | 61.808     | 62.707     | 63.68      |  10.3 | 82.14
Neigh   | 4.7533     | 4.7979     | 4.8579     |   2.0 |  6.28
Comm    | 3.5231     | 4.495      | 5.3196     |  37.5 |  5.89
Output  | 0.0088937  | 0.0097232  | 0.012161   |   1.4 |  0.01
Modify  | 3.7174     | 3.7522     | 3.7825     |   1.2 |  4.92
Other   |            | 0.5791     |            |       |  0.76

Nlocal:        1728.00 ave        1740 max        1715 min
Histogram: 1 0 0 0 1 0 1 0 0 1
Nghost:        3785.00 ave        3793 max        3775 min
Histogram: 1 0 0 1 0 0 0 0 1 1
Neighs:        72231.2 ave       73293 max       70837 min
Histogram: 1 0 0 1 0 0 0 0 1 1

Total # of neighbors = 288925
Ave neighs/atom = 41.800492
Neighbor list builds = 1642
Dangerous builds = 0
unfix start

fix st all npt temp 1.9 0.01 0.1 iso 10 10 1

thermo_style custom temp etotal press density
thermo 100

run 100000
Per MPI rank memory allocation (min/avg/max) = 3.262 | 3.262 | 3.262 Mbytes
Temp TotEng Press Density 
   1.6824229   -2.4138233    9.5357794   0.93061129 
   1.7338449   -2.2646956    10.028659   0.93209648 
    1.817727   -2.0870405    10.349163   0.93213946 
   1.8412939   -1.9934873    10.303326   0.92606868 
   1.8427514   -1.9579116     9.911441   0.91675513 
   1.9103632   -1.8866148    9.5984207   0.91188111 
    1.884677   -1.8160931    10.100598   0.91215696 
   1.9109468    -1.770855    10.118941   0.91165334 
   1.8993658   -1.8059524      9.94678   0.90996771 
    1.870873    -1.858554    9.7851595   0.90908832 
   1.8627519   -1.8479967    9.9965122   0.91100334 
   1.8964608   -1.8154907    10.130949   0.91379861 
    1.877236   -1.8440013    10.120303   0.91473047 
   1.8706211   -1.9030953    9.9455767   0.91474719 
   1.8404504   -1.9183015    10.027615    0.9148629 
   1.8535448   -1.8626254    10.194658   0.91458683 
    1.882328   -1.8372422    10.046311   0.91309646 
   1.8622581   -1.8619787    9.9552279    0.9112607 
   1.8581816   -1.8889604    9.8378243   0.91089802 
   1.8539208   -1.8958572    9.9626577   0.91331403 
   1.8451463   -1.8910294    10.224605   0.91622763 
   1.8637476   -1.9168888      9.99817   0.91687584 
   1.8199274   -1.9650814    10.047206   0.91674949 
   1.8619951   -1.9319709    9.9324158   0.91646032 
   1.8565831   -1.8886204    10.138871   0.91600514 
   1.8759878   -1.9042355    9.7979555   0.91347912 
   1.8341697   -1.9354828    9.8836139   0.91301988 
   1.8485653   -1.9217394    9.9409404   0.91501248 
   1.8493714   -1.9363854    10.078028   0.91831821 
   1.8313148   -1.9674081    10.165826   0.92048115 
   1.8169717   -1.9630707    10.258425   0.92025708 
    1.838444   -1.9601195    10.002631    0.9172064 
   1.8370747   -1.9684566    9.8261882   0.91478068 
   1.8342804   -1.9395701    9.9243261   0.91432472 
   1.8527674   -1.9047111    10.031382   0.91508995 
   1.8507577   -1.9135513    9.9976002   0.91551194 
   1.8554431   -1.9471622    9.8423523   0.91624531 
    1.824606   -1.9788902    10.029775   0.91819352 
    1.836571   -1.9886435     10.00708   0.92023484 
    1.825797   -2.0138191    10.081547    0.9221604 
    1.805652   -2.0239557    10.187423   0.92258948 
   1.8175859   -2.0197842    10.014397   0.92066439 
   1.8046274   -2.0216905    9.9799367   0.91841303 
   1.8372654    -2.017582    9.7268584   0.91735407 
   1.8218057    -2.014726    9.9524902   0.91952795 
   1.8180351   -2.0194932    10.143837   0.92261501 
   1.8075029   -2.0296467    10.207242   0.92346104 
    1.828175   -2.0467368    9.8704907    0.9216179 
   1.8082848   -2.0615839    9.8556379   0.92036824 
   1.8007782   -2.0396207     10.03124    0.9207571 
   1.8180805    -1.979731    10.241753    0.9212951 
   1.8272713   -1.9792397    10.061208     0.919228 
   1.8125632   -2.0497368    9.6759687   0.91631179 
    1.788484    -2.101181    9.6449254   0.91716899 
   1.7911469   -2.0574656    10.120904   0.92209668 
   1.8004257   -2.0252308    10.344833   0.92472586 
   1.8072202   -2.0675132    10.004462   0.92346265 
   1.7829567   -2.1086404    9.8759193   0.92185094 
   1.7977586   -2.0995996      9.81131   0.92204875 
    1.797556   -2.0734303    10.088232   0.92409883 
   1.7818865   -2.0565233    10.265036    0.9242906 
   1.7905205   -2.0868978    9.9417845   0.92240396 
   1.7388731   -2.1376198    10.003304    0.9221147 
    1.780406   -2.1044229    9.9748074   0.92303711 
   1.7974999   -2.0675977    10.104358   0.92415421 
   1.7861617   -2.1001453     10.02932   0.92422582 
   1.7731173   -2.1354412    9.9475992   0.92434063 
   1.7697875   -2.1319068     10.04967   0.92552164 
   1.7733639   -2.1205563    10.101076   0.92589434 
   1.7787102    -2.126708     9.991233   0.92506017 
   1.7676439   -2.1789517    9.7993513   0.92475348 
   1.7591301   -2.1932813    9.9135103   0.92681504 
   1.7426262   -2.1530443    10.346437   0.92927834 
   1.7597921   -2.1298514    10.240318   0.92750455 
   1.7641477   -2.1735173    9.7847619   0.92353587 
   1.7525623   -2.1893712     9.715604    0.9227491 
   1.7680278   -2.1562447    9.9838904   0.92611744 
    1.738033   -2.1740227    10.287527   0.92974593 
    1.750021   -2.1997474    10.104515   0.92960788 
   1.7457128    -2.218124    9.9205598     0.927797 
   1.7307999   -2.2170125    9.9960057   0.92747305 
   1.7589798   -2.1940525     9.966072   0.92786473 
    1.743429   -2.1937646    10.086707   0.92808434 
   1.7316484   -2.2075485     10.04529   0.92753733 
   1.7375905   -2.2108266    9.9599543   0.92710122 
   1.7593741   -2.1772465    9.9659398   0.92704546 
   1.7801105   -2.1278481    10.083389   0.92708435 
   1.7469803   -2.1951233    9.9296933   0.92657166 
    1.711481   -2.2248771    10.056383   0.92731591 
   1.7619119   -2.2199484    9.8819365   0.92879005 
   1.7213281   -2.2442254    10.100978   0.93053771 
   1.7236814    -2.259032     10.04623   0.93085028 
   1.7281489    -2.265781    9.9555909   0.93031059 
   1.7087628   -2.2644694    10.065943   0.93022049 
   1.7298621    -2.244058     9.995813   0.92995677 
   1.7485939   -2.2462563    9.9187926   0.93001037 
   1.6979113   -2.2916002    10.010247   0.93021123 
   1.7075778   -2.2916883    9.9271511   0.93057187 
   1.7419858   -2.2311113    10.066891    0.9316102 
   1.7303945   -2.2108202    10.245031   0.93130212 
   1.6986145   -2.2816735    9.9729219   0.92907865 
   1.7053812   -2.3057828    9.7699809   0.92832242 
   1.7099946   -2.2862255    10.022638   0.93129461 
   1.7080018   -2.2819297    10.238494   0.93442292 
   1.6988882   -2.3321492    10.037521   0.93469321 
   1.6834649   -2.3508185    9.9988055   0.93344246 
   1.6913342   -2.3413165    9.8778894   0.93217807 
   1.6886175   -2.3130336    10.050994   0.93207071 
    1.724259   -2.2956418    9.8956524   0.93148262 
   1.6907332   -2.3170201    9.9767959   0.93116324 
   1.6752541   -2.3415548    9.9768942   0.93149922 
   1.6619923   -2.3862067    9.9381729   0.93307974 
   1.6666131   -2.3754979    10.093154   0.93590917 
   1.7057118   -2.3311658    10.197572    0.9382085 
   1.6682187   -2.3743694    10.198443   0.93775929 
   1.6516443   -2.4591963    9.7603137   0.93523877 
   1.6534726   -2.4342706    9.9047535   0.93593802 
   1.6911609   -2.3742294    10.140208   0.93839869 
   1.6776208   -2.3695062    10.229284   0.93850289 
   1.6699416   -2.4155839     9.913718   0.93582529 
   1.6498808   -2.4554067    9.7144466   0.93413397 
   1.6615406   -2.4003535    10.049674   0.93608083 
   1.7015136   -2.3337175    10.194382   0.93735002 
     1.67098    -2.382829    10.029957   0.93527332 
   1.6487971   -2.4417019    9.7470779   0.93276126 
    1.657062   -2.4166899    9.8565283   0.93391916 
   1.6756329   -2.3279789    10.398438   0.93724698 
    1.699446   -2.3090134    10.252934   0.93627731 
   1.6672064   -2.4144892    9.7418597   0.93229805 
   1.6422062    -2.439992    9.7401717    0.9316706 
   1.6563831   -2.3996982    10.056455   0.93531211 
   1.6603255   -2.3978072    10.245846   0.93913613 
   1.6820772   -2.4435056    9.9149244   0.93983632 
   1.6288487   -2.4751418    10.090751   0.93997681 
   1.6640596   -2.4696572    9.8812804   0.93936341 
   1.6483139   -2.4703782    10.003942   0.93950603 
   1.6448101   -2.5014963    9.8481333   0.93961899 
   1.6247912   -2.5297198    9.9073917   0.94080312 
   1.6380992   -2.5018995    10.064102   0.94278246 
   1.6551187    -2.444731    10.246343   0.94309058 
   1.6631273   -2.4601354    9.9403962   0.94003497 
    1.635733   -2.5186041    9.7131317   0.93731643 
    1.625356   -2.5220908    9.8295271   0.93838307 
   1.6351889    -2.489323    10.114571   0.94176617 
   1.6331826   -2.4932732    10.182637   0.94357616 
   1.6176535   -2.5335535    10.037494   0.94235704 
   1.6252469   -2.5457244    9.8183617   0.94041009 
   1.6327987   -2.4861931    10.058279   0.94039027 
   1.6421703   -2.4747633    10.016515   0.94007317 
   1.6250009     -2.51832    9.9004487   0.93942691 
    1.615481   -2.5336534    9.9086735    0.9397779 
   1.6138269   -2.5214615     10.05718   0.94112788 
   1.6213215     -2.52544    10.042984   0.94201612 
   1.5976243   -2.5621859    10.018971   0.94198781 
   1.5826223   -2.5913302    9.9545373   0.94190643 
   1.5790464   -2.5957155    10.009914   0.94285636 
   1.6234988   -2.5407961    10.046284   0.94400451 
   1.6315521   -2.5364567    10.042527   0.94436026 
   1.6008682   -2.5940061    9.9076576   0.94351625 
   1.5979516   -2.6085406    9.8687189   0.94343807 
   1.5969185   -2.5840561    10.053821   0.94442817 
   1.6141552    -2.569023    10.012394    0.9446028 
   1.5902991   -2.6014023    9.9789088   0.94436228 
   1.5995212   -2.6631378    9.6633292   0.94489952 
   1.5716218   -2.6500771    10.107282   0.94854913 
   1.5899478   -2.6017353    10.372611   0.95091179 
   1.5898622    -2.624623    10.142892   0.94893266 
   1.5743998   -2.6835234    9.7507147   0.94530976 
   1.5767043   -2.6691068    9.7747137   0.94471415 
   1.6121465   -2.5946023    10.018125   0.94674669 
   1.5967293    -2.593853    10.151496   0.94736726 
   1.5908717   -2.6462702    9.8574175   0.94609318 
   1.5794546   -2.6673409    9.8487924   0.94624911 
   1.5703155   -2.6529019    10.074807   0.94790374 
   1.5946214   -2.6444372    10.002708   0.94873486 
    1.565941   -2.7059937    9.9163048    0.9489189 
   1.5687879   -2.7135118    9.8917486   0.94949093 
   1.5583073   -2.6871148    10.135179    0.9504802 
   1.5868243   -2.6699052    10.016471   0.95041046 
   1.5484251   -2.7193558    9.9934065   0.94968199 
   1.5436638   -2.7535551    9.8401272   0.94918386 
   1.5711537   -2.7181992    9.9320997   0.95085793 
   1.5890272   -2.6767865    10.120003   0.95290323 
   1.5636663   -2.7256492    10.034033   0.95258687 
   1.5220972   -2.7778465    9.9469221   0.95092788 
   1.5599634   -2.7507545    9.8045747   0.95054102 
   1.5644804   -2.7114651    10.092235   0.95214814 
    1.543354   -2.7329017    10.154252   0.95260236 
   1.5136391   -2.8021578    9.9085614   0.95113813 
   1.5400679   -2.7825799     9.773008   0.95069075 
   1.5442267   -2.7386855    10.097666    0.9522968 
    1.573185   -2.7263581    9.9697804   0.95282553 
   1.5399318   -2.7717787    9.9767887   0.95263575 
   1.5325722   -2.7908871     9.890391   0.95234396 
   1.5328647   -2.7816651    10.021472   0.95372573 
   1.5270729   -2.7662651    10.216965   0.95523158 
   1.5225993   -2.7921356    10.102985   0.95451177 
   1.4937789   -2.8684766    9.7700478   0.95245021 
    1.525633   -2.8358106    9.7646631   0.95348516 
   1.5339019   -2.7665533    10.361098   0.95807968 
   1.5276331   -2.7902155    10.313047   0.95882622 
   1.4823542   -2.8770671    9.9520225   0.95498373 
   1.4823942   -2.8630167    9.7975014   0.95152723 
   1.5038238   -2.8161139    9.9448242   0.95240219 
   1.5213804   -2.7659404    10.244155   0.95538021 
   1.5268821   -2.7864912     10.14397   0.95583994 
   1.4991681   -2.8493353    9.9507741   0.95424823 
   1.4981649   -2.8568251     9.874159   0.95345371 
   1.5245792   -2.8226027    9.9313548   0.95447569 
   1.5032265    -2.824811    10.170993    0.9563811 
   1.5086965   -2.8749982    9.9356138   0.95700702 
   1.5047197    -2.875886    9.9658475   0.95732489 
   1.4864252   -2.8594603    10.149734   0.95707431 
   1.5124866   -2.8372792    9.9860487   0.95534804 
   1.5070315   -2.8533335    9.8545397   0.95361073 
   1.4937994   -2.8824472    9.7833382   0.95357572 
   1.4756938   -2.9165695     9.913599   0.95692585 
   1.4999717   -2.8768892      10.2538   0.96200345 
   1.4788473   -2.9003662    10.400374   0.96381215 
   1.4834959   -2.9483947    9.9305486    0.9605483 
   1.4723113   -2.9597235    9.7720496   0.95773635 
   1.4839916   -2.9009744    10.007102    0.9579793 
   1.4965216   -2.8865112    10.043867   0.95834707 
   1.4909241   -2.9067204    9.8887883   0.95752075 
   1.4774799   -2.9292777    9.8399889   0.95724956 
   1.4600807    -2.945026    9.9812839   0.95873235 
   1.4714767   -2.9489574    10.021132   0.96060794 
   1.4637077   -2.9682988    10.018173   0.96172377 
   1.4768421   -2.9886258    9.8673071    0.9625623 
   1.4527668   -3.0063331    10.073565   0.96432684 
   1.4573559   -2.9861955    10.144028   0.96471868 
   1.4748268   -2.9773377     9.982482   0.96312225 
   1.4539232   -2.9950356    9.9262342   0.96168152 
   1.4678192   -2.9936154    9.8975581   0.96180628 
   1.4608708   -2.9777925     10.05516   0.96247398 
   1.4831405   -2.9406017    10.046489   0.96178228 
   1.4631488   -2.9510599    10.000557   0.96016793 
   1.4374892   -3.0122626     9.806344   0.95898684 
   1.4444534   -3.0185264    9.8377658   0.96096954 
   1.4361314   -2.9796062    10.314752   0.96445853 
   1.4692507   -2.9501772     10.20362   0.96406669 
   1.4606933   -2.9780533    9.9678206   0.96097148 
   1.4216852   -3.0519267    9.7259717   0.95912536 
   1.4451428   -3.0285565     9.810499   0.96115214 
   1.4395399   -2.9918678    10.257515   0.96477131 
   1.4424846   -3.0288254    10.084662   0.96532741 
    1.424251   -3.0738836    9.9296286   0.96472588 
   1.4446207   -3.0555574    9.8926639   0.96474404 
    1.448189   -3.0373526    10.017582   0.96539155 
   1.4347766   -3.0658599    9.9512123   0.96558332 
   1.4205453   -3.1006501    9.9129967   0.96608881 
   1.4212935   -3.0832653     10.05019   0.96725602 
   1.4185612   -3.0658474    10.183173   0.96772518 
   1.4115622   -3.0728398    10.133552   0.96644907 
   1.4105251    -3.097518    9.8970145    0.9645682 
   1.4238287    -3.084745    9.8429546   0.96415914 
   1.4244105   -3.0514899    10.079281   0.96532604 
   1.4215913   -3.0752399    10.060579   0.96663364 
   1.4100465   -3.1047771    10.051761   0.96747005 
    1.407413   -3.1102166    10.040653   0.96745322 
    1.418152   -3.1149336    9.9082504   0.96699358 
   1.3990673   -3.1310763    9.9622101   0.96720797 
   1.4029135   -3.1395922    9.9145417   0.96785348 
   1.4065302   -3.1311206    10.022769   0.96916679 
   1.4129377   -3.1267799    10.044701   0.96978567 
   1.3917909   -3.1594431    9.9858337   0.96927597 
   1.3976856   -3.1803865    9.8029168   0.96873843 
   1.4074117   -3.1741311    9.8888498   0.97034398 
    1.368986   -3.1803537    10.249792   0.97273809 
   1.3796805   -3.1832651    10.142497   0.97255505 
   1.3968076   -3.1694353    9.9846149   0.97052816 
   1.4074867    -3.160379    9.8362097   0.96874575 
   1.3886019   -3.1770864    9.9091104   0.96872214 
   1.3758074   -3.2226872      9.84709   0.97024992 
   1.3966222   -3.2028324    9.9999229   0.97358257 
   1.3781295   -3.1924862    10.315522   0.97582774 
   1.3840566    -3.231875    9.9489751   0.97426822 
   1.3435094   -3.2871244    9.8611134   0.97258454 
   1.3710319   -3.2371925    9.9411674   0.97278992 
   1.3889117   -3.2016564    10.047003   0.97348636 
   1.3773994    -3.221615    10.004388   0.97302351 
   1.3625923   -3.2597946    9.8711736    0.9724209 
   1.3489581   -3.2646377    10.007575   0.97357166 
   1.3683162   -3.2236214    10.176234   0.97518836 
   1.3856141   -3.1903069    10.191486   0.97484005 
   1.3684249   -3.2463744    9.8747239   0.97206883 
   1.3350226   -3.2968366    9.7299679    0.9704766 
   1.3672147   -3.2496431    9.9181796   0.97287904 
   1.3860531   -3.2135265      10.1952   0.97660864 
   1.3736554   -3.2504733    10.136783   0.97753427 
   1.3560209   -3.2974907    9.9141176   0.97576916 
   1.3336421   -3.3278617    9.8527045   0.97488954 
   1.3586752   -3.3033718    9.9247367   0.97638924 
   1.3741587   -3.2532018      10.1704   0.97781179 
   1.3637195   -3.2607394    10.034787   0.97579168 
   1.3361936   -3.3460593     9.620352   0.97277056 
   1.3357044   -3.3433552    9.7309561   0.97426749 
   1.3466335   -3.2799556    10.287101    0.9796485 
   1.3356986   -3.2861568    10.481094   0.98196344 
   1.3278241   -3.3548704    9.9934807   0.97878059 
   1.3165015   -3.3846887    9.7111187   0.97565339 
   1.3285528   -3.3492095    9.9152531   0.97716182 
   1.3375224   -3.2888415    10.348562   0.98027992 
   1.3262924   -3.3027539    10.305306    0.9794247 
   1.3147644   -3.3911791     9.715047   0.97573203 
    1.318379   -3.3844613    9.6834641   0.97527457 
   1.3253013    -3.328707    10.171919    0.9789544 
   1.3500896   -3.3278755    10.149918   0.98121676 
   1.3235822   -3.3789652    9.9882564   0.98035649 
   1.2984159   -3.4066261    9.9592619    0.9792476 
   1.3099005   -3.3984913     9.950969   0.97953192 
   1.3302975   -3.3591781    10.048367   0.98014793 
   1.3069015   -3.3733158    10.125055   0.98007169 
   1.3142098   -3.4175546    9.7878181   0.97895907 
   1.3005282   -3.4441685    9.7861266   0.97987723 
   1.2857502   -3.4698002    9.9795435   0.98339195 
   1.2946334   -3.4347609     10.28217   0.98678366 
   1.2899247    -3.438066    10.320446   0.98680522 
   1.2892191   -3.4706466    9.9484646    0.9835419 
   1.2936025   -3.4571411    9.8844406   0.98170682 
   1.3228189   -3.4181594    9.9016744   0.98192291 
    1.306482   -3.4231728    9.9996978   0.98230485 
    1.284853    -3.458139    9.9533563   0.98236836 
   1.2701031   -3.4731002    10.059963    0.9833436 
   1.2999242   -3.4603859    9.9746812   0.98431209 
   1.2775031    -3.463576    10.162405   0.98473737 
   1.2980771   -3.4558621    9.9359631   0.98303856 
   1.3057281   -3.4407689    9.9063748   0.98177262 
   1.2674666   -3.4772013    9.9658569   0.98179392 
   1.2822689   -3.4942471    9.8424471   0.98265883 
   1.2864791    -3.478498    10.013918   0.98481425 
   1.2773725   -3.4835616    10.153424    0.9863799 
   1.2660058   -3.5041647    10.058919     0.985521 
   1.2580714   -3.5154471    9.9455292   0.98374677 
   1.2765195   -3.5089722    9.8149659   0.98320331 
   1.2670902   -3.5092335    10.028293    0.9854775 
   1.2557893   -3.5197206    10.203202   0.98797748 
   1.2647968   -3.5299091     10.11891   0.98819841 
   1.2593631   -3.5527812      9.93859   0.98684313 
   1.2448139   -3.5590162    9.9846745   0.98605517 
   1.2903675   -3.5105115    9.9047699   0.98599482 
   1.2667826   -3.5052431    10.072199   0.98586968 
   1.2558153   -3.5426854    9.8927615   0.98471263 
   1.2394021   -3.5687922    9.9128071   0.98514812 
   1.2386558   -3.5474437    10.127484   0.98700735 
   1.2654598    -3.528757    10.068852   0.98753727 
   1.2567954   -3.5519892    9.9535467   0.98650022 
   1.2525382   -3.5694569    9.8148956   0.98537939 
    1.256587   -3.5672639    9.8519182   0.98616026 
   1.2498109   -3.5717928    10.020148   0.98865113 
    1.241139   -3.5767347    10.185547   0.99039286 
   1.2471682   -3.5939184    9.9673415    0.9892687 
   1.2263588   -3.6247907    9.8735632   0.98828203 
   1.2422049   -3.6127664    9.8817427   0.98882014 
   1.2547655   -3.5493265    10.157586   0.98983669 
   1.2451376   -3.5661142    10.087564   0.98910278 
     1.22389   -3.6165985    9.9328683   0.98835817 
   1.2228843   -3.6297513    9.9486615   0.98938559 
   1.2430238   -3.6270547    9.9192928   0.99124113 
   1.2040362   -3.6428579    10.233686    0.9932391 
   1.2143492   -3.6555339    10.104606   0.99304722 
   1.2250511   -3.6784685     9.853744   0.99200759 
   1.1998902   -3.6989274    9.9299319   0.99208683 
   1.1956413   -3.7043036     9.996197   0.99320447 
   1.2080081    -3.669717    10.172437   0.99475017 
   1.2220647   -3.6452317    10.161725   0.99410391 
   1.2180543   -3.6776779    9.8489246   0.99120783 
   1.1982277   -3.7212582    9.7032086   0.99012101 
   1.2002115   -3.6935545    9.9749269   0.99263539 
   1.2276151    -3.639305    10.263804   0.99573077 
   1.1945825   -3.6887161    10.216061   0.99566846 
   1.1764149   -3.7352639    9.9287489   0.99263642 
   1.1949631   -3.7170696    9.7370648   0.99031806 
   1.1942127   -3.6756961     10.01885    0.9915676 
   1.2095898   -3.6572933    10.170211   0.99363624 
   1.1997582   -3.6988684    10.059761   0.99451953 
   1.1949392   -3.7178567    9.9777793   0.99422848 
   1.1714267   -3.7436524     9.988166   0.99402169 
   1.1761279   -3.7511785    10.010174    0.9952878 
   1.1805755   -3.7407091    10.130738   0.99696614 
   1.1826577   -3.7459791    10.106495   0.99721166 
   1.1714833   -3.7887398    9.9056256   0.99627562 
   1.1703582   -3.7967791    9.8778289   0.99641885 
   1.1690766   -3.7684647    10.162961   0.99837737 
   1.2155132    -3.732968    10.047909   0.99888635 
   1.1705214   -3.7828143    10.020281   0.99785566 
   1.1626501    -3.809282    9.8713524   0.99677045 
     1.17717   -3.7936969    9.9087123   0.99746384 
   1.1789558   -3.7805922    10.066315   0.99919035 
     1.15591   -3.8149358    10.093754   0.99967497 
   1.1609561   -3.8405749    9.8743701   0.99910633 
   1.1518595   -3.8379262    10.022018    1.0000738 
   1.1635626   -3.8183233    10.112103     1.001187 
   1.1676918   -3.8004271    10.135195    1.0008146 
   1.1551783   -3.8171469    10.017583   0.99879075 
   1.1558242   -3.8477109    9.7332426   0.99692491 
   1.1283233   -3.8581195    9.9750526   0.99877198 
   1.1498881   -3.8386107    10.180979    1.0024569 
   1.1422655   -3.8606522    10.209115    1.0039932 
    1.136844   -3.8958702    9.9983558    1.0029985 
   1.1427752   -3.8976211    9.8789976    1.0020326 
   1.1489644   -3.8799879    9.9782465     1.002419 
   1.1482229   -3.8739747     10.04901    1.0031363 
   1.1318201   -3.9160477    9.9505852    1.0033071 
   1.1274545   -3.9231731    9.9698734    1.0037441 
   1.1328398   -3.9057705    10.095699     1.004879 
   1.1323558   -3.8957747    10.162554    1.0049876 
   1.1238415    -3.894587    10.099564    1.0032507 
   1.1250795    -3.907665    9.9071591    1.0013437 
   1.1304832   -3.9212732    9.8248146    1.0017111 
    1.130689   -3.9285961    9.9866888    1.0048713 
   1.1301619   -3.9202782    10.213503    1.0080759 
   1.1233512   -3.9386219    10.182011    1.0081733 
   1.1106247   -3.9749284      9.92811    1.0057448 
   1.1199906    -3.972451    9.7804098    1.0041428 
   1.1248643   -3.9354843    9.9858677    1.0049211 
   1.1224827   -3.9313256     10.08617    1.0061055 
   1.1162427   -3.9563401    10.048654     1.006355 
   1.1129378   -3.9822476    9.8919668    1.0059925 
   1.1125365   -3.9881171    9.9235177    1.0065897 
   1.1139573   -3.9867135    9.9826255    1.0078099 
   1.0929546   -4.0219109    10.035145    1.0095389 
   1.0869042   -4.0183712     10.23725    1.0113965 
   1.1088411   -4.0077941     10.06733    1.0105444 
   1.1034012   -4.0180992    9.9057546    1.0082583 
   1.0993911   -4.0243982    9.8473773    1.0072866 
   1.0977453   -4.0251517    9.9293149    1.0085743 
   1.1017992   -4.0297494    10.035474    1.0107108 
   1.0825971   -4.0445581    10.151715    1.0115462 
   1.0963229   -4.0479782    9.9258999    1.0099773 
   1.1005623   -4.0265903    9.9018938    1.0083758 
   1.0925874   -4.0182691    9.9777243    1.0077566 
   1.0990664   -4.0257161    9.8602295    1.0075466 
   1.0984073   -4.0303892    9.9418048    1.0092077 
   1.0873413   -4.0423358    10.135763    1.0118541 
   1.0743214   -4.0664777    10.160505    1.0128154 
   1.0792771   -4.0915624    9.9181421    1.0117824 
   1.0643334   -4.1019895    9.9104919    1.0110583 
   1.0852638   -4.0695763    9.9808447    1.0115761 
   1.0650342   -4.0471653    10.277384    1.0121112 
   1.0933679   -4.0442248    9.9556288    1.0098249 
   1.0673617   -4.0921552    9.7344716    1.0076695 
   1.0787871   -4.1070076    9.6844912    1.0091425 
   1.0553587   -4.0794441    10.332054    1.0144168 
   1.0758192   -4.0809764    10.312037    1.0163667 
   1.0500761   -4.1314062    10.041821    1.0135786 
   1.0502104   -4.1579903    9.6797588    1.0103768 
   1.0555134    -4.129242    9.8676278    1.0115641 
   1.0679855   -4.0845395    10.236503    1.0148786 
   1.0645446   -4.1203012    10.090485    1.0151516 
   1.0506647    -4.163074    9.8530433    1.0134857 
   1.0345763   -4.1690139    9.9197245    1.0132384 
   1.0535723   -4.1415091     10.02443    1.0146081 
   1.0467857   -4.1329479    10.177683    1.0156238 
   1.0339899   -4.1721028    10.017532    1.0146521 
   1.0441153   -4.1973508    9.7249914    1.0137244 
    1.036812     -4.19057    9.9671247     1.016096 
   1.0226378   -4.1938694    10.228102     1.018823 
   1.0129031   -4.2286881    10.106845    1.0187066 
   1.0299983   -4.2244343    9.9054484    1.0173562 
   1.0319907   -4.2040901    9.9890668    1.0166974 
   1.0320415   -4.2019094    9.9548227    1.0161363 
   1.0252388   -4.2067816    9.9710615    1.0162095 
   1.0246623   -4.2162074    9.9919246    1.0171341 
   1.0139246   -4.2369254    10.021429    1.0182346 
   1.0092783   -4.2472185    10.059616    1.0191737 
   1.0171963   -4.2735012    9.8961378    1.0195686 
   1.0082093   -4.2831923    9.9407924    1.0202128 
    1.014047   -4.2545456    10.134286    1.0214523 
   1.0202453   -4.2320102    10.181956    1.0208598 
   1.0236194   -4.2538403    9.8421469    1.0177516 
   1.0057278   -4.2916004    9.6645092    1.0164527 
  0.99790239   -4.2994781    9.9026075    1.0198692 
   1.0247837   -4.2548566    10.288997     1.024883 
  0.99521848   -4.2758547    10.415535    1.0255817 
   1.0065543   -4.3182708    9.8075165    1.0205598 
  0.98978134   -4.3272641      9.65693    1.0173527 
   1.0009522   -4.2847168    9.9152482    1.0190817 
   1.0155501   -4.2575992    10.126699    1.0220218 
  0.99677861   -4.2843749    10.184986    1.0229154 
  0.97732246   -4.3163244    10.094733     1.021736 
  0.99258349   -4.3274249     9.808714    1.0202895 
   0.9786397   -4.3255864    10.012183    1.0215232 
  0.98432074   -4.3393806    10.057085    1.0240549 
  0.99329913   -4.3391543    10.104537    1.0257443 
  0.98293723    -4.352787    10.062432    1.0252585 
  0.97645684   -4.3745014    9.9163776    1.0240118 
  0.96187163   -4.3818304    9.9688161    1.0239462 
  0.98447299   -4.3431473    10.061217    1.0245124 
  0.98445989   -4.3404014    10.077954    1.0245012 
  0.96967266    -4.371337     9.962124    1.0236972 
    0.968633   -4.3855366    9.8979091    1.0235795 
    0.963822   -4.3778023    10.055142    1.0249763 
  0.98181741   -4.3707864    10.035069    1.0261109 
  0.97719729   -4.3858279     10.01221    1.0263721 
  0.95976444   -4.4104298     10.00289    1.0261398 
  0.96958928   -4.4123357    9.8895236    1.0257468 
  0.96651915   -4.4015581    9.9727761    1.0261594 
  0.96644192   -4.4113945    9.9953104    1.0271764 
  0.95175694   -4.4365591    10.054521    1.0284536 
  0.95672865   -4.4426739    10.039329    1.0292465 
  0.95133111   -4.4566159    10.015711    1.0293901 
  0.93326666   -4.4624172    10.076319    1.0289531 
  0.95297369   -4.4360368    10.011821    1.0279702 
  0.94723343   -4.4410038    9.9955553    1.0274989 
  0.94506653   -4.4523716    9.9713305    1.0277348 
  0.94642893   -4.4613123    10.000013    1.0290086 
  0.94902015    -4.459855    10.064456    1.0303073 
  0.95966521   -4.4747155    9.9372704     1.030705 
  0.93131936   -4.4949877    10.039893    1.0310077 
  0.94313938   -4.4936944    9.9492759    1.0307503 
  0.93161391   -4.4901311    10.037255    1.0304525 
  0.94524103   -4.4702695    10.007801    1.0298454 
  0.96305029   -4.4647575    9.8609491    1.0292269 
  0.93257317   -4.5042997    9.8972425    1.0295811 
  0.92703156   -4.5094663      10.0201    1.0313498 
  0.92712703   -4.5143831    10.102936    1.0332025 
  0.90824564   -4.5311104    10.175118    1.0334361 
  0.91270666   -4.5495193    9.9758429    1.0322526 
  0.91932562   -4.5475392    9.8861601    1.0316529 
  0.93219607   -4.5094393    10.035197     1.032108 
  0.93184273   -4.5161635    9.9889355    1.0320169 
  0.92010693   -4.5478085    9.9058172    1.0319881 
  0.91791496   -4.5551731    9.9655858    1.0331511 
  0.91452834   -4.5592772    10.056276    1.0345672 
  0.90413286   -4.5738158    10.061676    1.0348521 
  0.90124153    -4.597591    9.9395969    1.0346014 
  0.90155693    -4.602253    9.9358414    1.0349289 
  0.92879921   -4.5546527    10.021983     1.035328 
  0.92008216   -4.5652345    9.9931369    1.0347626 
  0.89765759   -4.6036788    9.8891592    1.0337345 
  0.89937053   -4.6136778    9.8569987    1.0344434 
  0.90430712   -4.6092391    10.028728    1.0372346 
  0.89824446   -4.6093315    10.199078    1.0389947 
  0.89007711   -4.6331908    10.057657    1.0379104 
  0.88912997   -4.6515707    9.8342441    1.0359232 
  0.89727725   -4.6477543    9.7895665    1.0360241 
  0.88891744   -4.6377494    10.058747    1.0384327 
  0.87677657   -4.6658107    10.093344    1.0399922 
  0.88780205   -4.6728055     9.994585    1.0401614 
  0.87302206    -4.679659    10.036407    1.0396277 
  0.87178678    -4.677463    10.000821    1.0388956 
  0.88014056   -4.6656952    10.007719    1.0389371 
  0.87726067   -4.6695301    10.022816    1.0390966 
  0.86557161   -4.6954452    9.9723018     1.038981 
  0.86408084   -4.7040098    9.9535755    1.0394386 
  0.86117754   -4.6913838    10.102204    1.0405269 
  0.87946412   -4.6622139    10.143997     1.040493 
   0.8735599   -4.6819813    9.9757435    1.0389144 
  0.85946301   -4.7184855    9.8061335      1.03785 
  0.86543367   -4.7089661    9.9230582    1.0394973 
  0.85898005   -4.6984972    10.203789    1.0421054 
  0.87008534   -4.7188786    10.017581    1.0422493 
  0.84754196   -4.7482004    9.9637277    1.0414742 
  0.84901735   -4.7494329    9.9485878    1.0415115 
  0.85342207   -4.7416522    10.036036     1.042607 
  0.84265373   -4.7545238    10.077637    1.0434749 
  0.84578463    -4.769974    9.9748818    1.0432149 
  0.83639391   -4.7787322    9.9785772    1.0430543 
  0.84737183   -4.7669445    9.9868955    1.0433113 
  0.84859057    -4.756269     10.06074     1.043741 
  0.83858008   -4.7760897    10.022361    1.0434594 
   0.8323193   -4.8007037    9.8950288    1.0431255 
  0.84659977   -4.7925289    9.8928277    1.0439941 
   0.8268758   -4.7866985    10.176305    1.0455794 
   0.8300105   -4.8006128    10.055092    1.0452145 
  0.83492338   -4.8241326    9.8089942    1.0437242 
  0.81793674    -4.824434      9.93461    1.0439806 
  0.82766847    -4.796404    10.114205    1.0456772 
  0.83676617   -4.7872406    10.142202    1.0463061 
   0.8210828   -4.8310811    9.9472937     1.045139 
  0.80803043   -4.8483426    9.9150409    1.0448569 
  0.83432936    -4.835534    9.9296959    1.0466164 
  0.82015938   -4.8413435    10.139168    1.0487554 
  0.81346756   -4.8548924    10.105923    1.0486271 
  0.82508638   -4.8705262      9.80548    1.0469503 
  0.80074693    -4.875117    9.9596082    1.0468069 
  0.81123615   -4.8473512     10.08187    1.0474581 
  0.82405353   -4.8310203    10.046215    1.0472394 
  0.80431379   -4.8509286    10.026308    1.0462789 
  0.81529449   -4.8700524    9.7772045    1.0455808 
  0.81371383    -4.881842    9.9035443    1.0478746 
  0.80449291   -4.8774381    10.222185    1.0513889 
  0.79779245   -4.8930825     10.22613    1.0519701 
  0.79306828   -4.9287072    9.8955639    1.0494696 
  0.78256961   -4.9495117    9.7975657    1.0484826 
  0.79225551   -4.9299392    9.9982725    1.0507784 
  0.79884062   -4.8901061    10.297368    1.0528411 
  0.79446397   -4.8979835    10.143464    1.0507802 
   0.7865725   -4.9422008    9.6992651    1.0467487 
  0.77603988   -4.9639414    9.6595988    1.0467754 
  0.78193949   -4.9415333    10.065157    1.0517435 
  0.78417426   -4.9295788    10.399229     1.055947 
  0.77179566   -4.9506591    10.279142    1.0545188 
  0.77697291    -4.986908    9.7502742    1.0502037 
  0.77077832   -4.9817086    9.7559132    1.0493989 
  0.78645537    -4.939907    10.030989    1.0518144 
  0.77116337   -4.9385652    10.259878    1.0532617 
  0.76758706   -4.9663896    10.025976     1.051832 
   0.7765025   -4.9858859    9.7965156    1.0508348 
  0.77021827   -4.9901447    9.9357864      1.05255 
  0.76606807    -4.984576    10.133574    1.0547762 
  0.77701371   -4.9901838    10.019595    1.0546867 
  0.75337265   -5.0217512    9.9607123    1.0536376 
  0.75589143   -5.0279115    9.8910254    1.0534003 
  0.76901273   -5.0166128    9.9333757    1.0546142 
  0.75080397   -5.0202014    10.163526    1.0561929 
  0.74765564   -5.0318676    10.101738    1.0560028 
  0.74941068   -5.0445112    9.9339713    1.0547788 
   0.7489998    -5.048563    9.9089715    1.0546792 
  0.74787585   -5.0528076     9.993227    1.0559392 
  0.74249394    -5.072138    10.023686    1.0576223 
  0.74494372   -5.0668479    10.115581    1.0587443 
  0.74799637   -5.0699271    10.015511    1.0578654 
   0.7483926   -5.0762877    9.8682799    1.0562884 
  0.73956105   -5.0859062    9.8712386     1.056338 
  0.73939003   -5.0938371    9.9623817    1.0581374 
  0.73140406   -5.0873238    10.172473    1.0597129 
  0.75154824   -5.0908027    9.9508683    1.0588284 
  0.72398548   -5.1218213    9.8786116    1.0573691 
  0.71990167   -5.1422022    9.7920586    1.0573744 
  0.73038659   -5.1102182    10.040646    1.0596788 
  0.73902185   -5.0835932    10.227723    1.0610229 
  0.73997599   -5.1113731    9.9201847    1.0590497 
  0.72298827   -5.1374272      9.78871    1.0573634 
  0.72219203   -5.1324789    9.8852734    1.0583491 
  0.72233969   -5.1250173     10.09978    1.0607164 
  0.71358342    -5.140427    10.115076    1.0613957 
  0.70702052   -5.1547145     10.00961    1.0602714 
  0.71431649   -5.1585178    9.8736962    1.0593551 
  0.71922974   -5.1552501    9.9036899    1.0600681 
  0.71831657   -5.1530066    10.008774    1.0614218 
  0.71008105   -5.1596842    10.075509    1.0619703 
   0.7040745   -5.1707023    10.017611    1.0613379 
  0.69780566   -5.1863113     9.936195    1.0606478 
  0.70269492   -5.1916789    9.8944147    1.0610777 
  0.69335806   -5.1979639    10.026854     1.062747 
  0.68806219   -5.2003222    10.140993    1.0640884 
  0.68907692   -5.2036858    10.100672    1.0638162 
  0.68413659   -5.2138235    10.015212    1.0625637 
  0.69767272    -5.199103    9.9297442    1.0618075 
  0.70216951   -5.1919747    9.9720982    1.0622582 
  0.70142136   -5.2103847    9.9232489    1.0629278 
    0.690178   -5.2235615    9.9928115    1.0639882 
  0.68294055   -5.2357585    10.056496    1.0650283 
  0.67918466   -5.2451923    10.039734    1.0653294 
  0.67641992   -5.2544196     9.998379    1.0650614 
  0.67384432   -5.2640635    9.9610494    1.0649759 
   0.6722375   -5.2793368    9.9440715     1.065715 
  0.66118241   -5.2798373    10.109065    1.0670813 
  0.67790726   -5.2673352    10.065465    1.0671692 
  0.67032806   -5.2778462    9.9916173    1.0662038 
  0.66919974   -5.2861882    9.9108296    1.0654656 
  0.67046649   -5.2853011     9.933291    1.0658772 
  0.65793175   -5.2903967     10.09178    1.0672208 
  0.66575291    -5.296458    10.043928    1.0677592 
  0.65223736   -5.3075858    10.074989    1.0677243 
  0.66249748   -5.3096435     9.938537    1.0671374 
  0.65991474   -5.3130762    9.9486389    1.0671109 
  0.65180855   -5.3231465    9.9867177    1.0676758 
  0.65426291   -5.3339938    9.9554377    1.0685413 
  0.65203608   -5.3321605    10.055649    1.0695878 
  0.64860195   -5.3338181    10.082119    1.0696011 
    0.649458   -5.3410827     9.939192    1.0682434 
  0.64560963   -5.3477816    9.8773923    1.0673881 
  0.64379132   -5.3472991    9.9642352    1.0685123 
  0.64554643   -5.3475644    10.082459    1.0704362 
  0.64428331   -5.3520795    10.090984    1.0709263 
  0.63957705   -5.3678854    9.9776745    1.0699053 
  0.63572174   -5.3814419    9.8755699    1.0691939 
  0.64030364   -5.3798193    9.9212597    1.0701009 
  0.62737664   -5.3897017    10.076514    1.0718818 
   0.6244538   -5.3923278    10.136255    1.0726261 
  0.63229342   -5.3958272    9.9910199    1.0717904 
   0.6190167   -5.4056453    9.9752549    1.0707437 
  0.62114187   -5.3971037    9.9836066    1.0704174 
  0.63667471   -5.3794858    9.9950171    1.0708373 
  0.62604773   -5.3963801    10.020913    1.0714394 
  0.62438227   -5.4082704    9.9876879    1.0717903 
  0.61274155   -5.4214611    10.042438    1.0722865 
  0.61665481   -5.4298253    9.9874916    1.0725682 
  0.60472269    -5.440132     10.04855     1.073017 
  0.60962893   -5.4444806    10.011579    1.0734025 
  0.60418363   -5.4545974    10.010528    1.0738022 
  0.60103517    -5.477866    9.9373435     1.074152 
  0.59795602   -5.4699582    10.056264    1.0748561 
  0.60310334   -5.4604949    10.069722    1.0749515 
  0.60620687   -5.4655573    9.9849086    1.0742585 
  0.59624955   -5.4775434    9.9349138    1.0735476 
  0.59550242   -5.4870778    9.8991001    1.0737351 
  0.59233309   -5.4875383    10.024693    1.0752071 
  0.59727213   -5.4862382    10.087396    1.0764731 
  0.58880226   -5.5025371    10.043259    1.0762818 
  0.57485812   -5.5202991    9.9781645    1.0754031 
  0.59527661   -5.4979608    9.9449095    1.0751397 
  0.58851789   -5.4890847    10.067217    1.0755043 
  0.59223163   -5.5001021    9.9664394    1.0753115 
  0.58548735    -5.515997    9.9116588     1.075344 
  0.58201818   -5.5165109    10.022111     1.076444 
  0.57934855   -5.5140095    10.112427    1.0772073 
  0.58010296   -5.5288646    9.9819869     1.076603 
  0.56919015     -5.55253    9.9185265    1.0764039 
  0.56880359   -5.5414272    10.055601    1.0774845 
  0.57740934   -5.5300542     10.11031    1.0781739 
   0.5717591   -5.5461611    9.9960735    1.0773211 
  0.56586358   -5.5706878    9.8370015    1.0764028 
  0.57369342   -5.5677371    9.8950828    1.0777758 
  0.56790384    -5.554861    10.177571    1.0803368 
  0.56272823   -5.5616798    10.187357    1.0803209 
  0.56207223   -5.5886617    9.8579449    1.0777144 
  0.55849877   -5.6016779    9.7322093    1.0766102 
   0.5533312   -5.5960421    9.9734848    1.0790383 
   0.5601557   -5.5856252    10.185482    1.0819588 
  0.54516967   -5.5968838    10.221498    1.0818074 
  0.54853406   -5.6166709    9.8769699    1.0787815 
  0.55439213   -5.6100439    9.7770992    1.0774039 
  0.55749891   -5.5901438    9.9754152    1.0790019 
  0.55490143   -5.5877318    10.129892    1.0807804 
  0.54702743   -5.6032275    10.091956    1.0806653 
  0.54651865   -5.6272323    9.8778325    1.0795219 
  0.54485826   -5.6385842    9.8350492    1.0797009 
  0.53281188   -5.6342126    10.096138    1.0816978 
  0.53702983   -5.6296198    10.149022    1.0826617 
  0.53311759   -5.6557323    9.9944216    1.0819355 
  0.53564111   -5.6662538    9.8633618       1.0812 
  0.53618323   -5.6621453    9.9314756    1.0819325 
  0.53132572   -5.6612224    10.070137    1.0832235 
  0.52961162   -5.6738284    10.004507    1.0832405 
  0.51728536    -5.692323    9.9713049    1.0829164 
  0.52149008   -5.6892786    9.9649586    1.0831683 
     0.52141   -5.6817232    10.053791    1.0838155 
  0.52576791   -5.6813082    10.016057    1.0836791 
   0.5168933   -5.7056964    9.9159933    1.0831217 
  0.51165225    -5.710546    9.9397431    1.0834248 
  0.51946892   -5.6971764    10.027988    1.0844184 
  0.50852591   -5.7007325    10.122373    1.0848129 
  0.51023088   -5.7222488     9.926042    1.0839398 
  0.50255008   -5.7312823      9.92096    1.0838501 
  0.50762277   -5.7217773    10.025929    1.0850704 
  0.50533519   -5.7197325    10.113672    1.0859967 
  0.50039942   -5.7331011    10.037991    1.0852552 
  0.49652709   -5.7493547    9.8788992     1.083995 
  0.49235523   -5.7645642    9.8580756    1.0845451 
  0.49526324   -5.7518075    10.072944    1.0868898 
  0.49754703   -5.7393308    10.213434    1.0880415 
  0.49310046   -5.7600815    9.9974707    1.0861634 
  0.48331479   -5.7927828    9.7452548    1.0843497 
  0.48451771   -5.7814409    9.9357494    1.0860814 
  0.48852755   -5.7502375    10.263488    1.0886169 
  0.49376862   -5.7549281    10.127451    1.0876273 
  0.48270704   -5.7894817    9.8016037    1.0847555 
  0.48143904   -5.7962405    9.7824534    1.0847937 
  0.48611773   -5.7779679    10.063168    1.0878613 
   0.4753421   -5.7789429    10.284692    1.0899341 
  0.47728576   -5.8000391    10.058085     1.088478 
  0.46624822   -5.8277557    9.8247065    1.0863411 
  0.46581098   -5.8250159     9.894957    1.0869953 
  0.47464795   -5.7994019    10.123049    1.0892833 
  0.46420221   -5.8014652    10.225463    1.0898642 
  0.46576535    -5.833992    9.9110795    1.0880843 
  0.46102929   -5.8463883    9.8577105    1.0876755 
  0.46368375   -5.8360216    10.004639    1.0892738 
  0.46240102   -5.8327478    10.120264    1.0905561 
  0.45756155   -5.8520116    10.016822    1.0900566 
   0.4642168   -5.8647686    9.8378241    1.0893099 
  0.44799988   -5.8630918    10.018298    1.0900641 
  0.45496702   -5.8547918    10.074543    1.0908046 
  0.45241698   -5.8632742    10.026339    1.0906055 
  0.44903061    -5.877693    9.9314372    1.0901032 
  0.45271656   -5.8779537     9.925916    1.0904584 
  0.44463013   -5.8750991    10.068432    1.0912698 
  0.44442529   -5.8807836    10.037412    1.0911864 
  0.43747314    -5.896475    9.9512996    1.0905841 
  0.43888788   -5.9040633    9.9142308    1.0908448 
  0.43358662   -5.9019373     10.05587    1.0920816 
  0.42836245    -5.913626    10.078649    1.0927319 
  0.42993983   -5.9238696    9.9998874    1.0925986 
  0.42877847   -5.9212303     10.00973    1.0923528 
  0.43243257   -5.9137146    10.006383    1.0920814 
  0.43684765   -5.9176873    9.9317122    1.0919208 
  0.42492391   -5.9306647    9.9778615    1.0923658 
  0.42402352   -5.9294124       10.039    1.0931154 
  0.42401957    -5.935975    10.038149    1.0935025 
  0.42100962   -5.9475929    9.9823464    1.0933683 
  0.41916008   -5.9525137    9.9629531     1.093274 
  0.41603863   -5.9560035    9.9980334    1.0936847 
  0.41115795    -5.965815    10.032626    1.0943901 
  0.41212578   -5.9648753    10.048966    1.0947631 
    0.412589   -5.9676787    10.011829    1.0944646 
  0.40733684   -5.9798086    9.9634167    1.0941674 
  0.40513489   -5.9860097    9.9725261    1.0946219 
  0.40531294   -5.9821583    10.060502    1.0954712 
  0.39981721   -5.9845737    10.082788    1.0955036 
  0.39919109   -5.9952621    9.9777179    1.0947788 
  0.39611392   -6.0122595    9.9189313    1.0948305 
  0.39403348   -6.0037282    10.058398    1.0959615 
  0.39846133   -5.9980155    10.090993     1.096567 
  0.39912139   -6.0084565    9.9720277     1.095781 
  0.39009633   -6.0293916    9.8856726    1.0952656 
  0.38849451   -6.0250457    10.007662    1.0963448 
  0.39269414     -6.01909    10.086459    1.0974022 
  0.38329432   -6.0331533    10.047008    1.0971508 
  0.38071562   -6.0453377    9.9572059    1.0963349 
  0.38328008   -6.0459864    9.9278607    1.0964083 
  0.38032048   -6.0433164    10.046032    1.0975931 
  0.38105173   -6.0441991     10.08153    1.0982487 
  0.38013831   -6.0540631    10.007184    1.0978967 
  0.37160535   -6.0667916     9.979066    1.0974808 
  0.37428023   -6.0707161    9.9389394    1.0976051 
  0.37417214   -6.0732814    10.000083    1.0985784 
  0.37402574   -6.0747262    10.046753    1.0993724 
  0.36547883   -6.0807112    10.058356    1.0991251 
  0.36631323   -6.0874489    9.9394711    1.0981113 
  0.37058906     -6.09018    9.8790037    1.0978896 
  0.36123807   -6.0963792     9.990159    1.0990969 
   0.3626422    -6.094445    10.102377    1.1004804 
  0.35551134   -6.1043575    10.101462    1.1005548 
  0.35361819   -6.1179447    9.9635524     1.099476 
  0.35132271     -6.12294    9.9216803    1.0989979 
  0.35800226   -6.1132494    9.9704881    1.0997427 
  0.35396662   -6.1125659     10.08264    1.1007872 
  0.34542608   -6.1258199     10.07955    1.1009422 
  0.34272337   -6.1385161    9.9948696    1.1004385 
  0.34646866   -6.1440143    9.9261673    1.1003365 
  0.34381579   -6.1455528    9.9954676    1.1012167 
  0.34509627   -6.1454698    10.049798    1.1020145 
  0.33675611   -6.1532844    10.053584    1.1017799 
  0.34255165   -6.1632411    9.8932758    1.1009396 
  0.33765497   -6.1658789    9.9371437    1.1013227 
  0.33600621   -6.1620488    10.062835    1.1025667 
  0.33430482   -6.1694331    10.063779    1.1029916 
  0.33060086   -6.1827225    9.9814962    1.1024394 
    0.326481   -6.1911889    9.9420862    1.1020775 
  0.32594638   -6.1909654    9.9730003    1.1025836 
  0.32233339   -6.1941045    10.061553    1.1036671 
  0.32461475   -6.1966845    10.071089    1.1042175 
   0.3194886   -6.2056008    10.021854    1.1036892 
  0.31768417   -6.2166365    9.9106196    1.1028842 
  0.31882924   -6.2205259    9.9166725    1.1033595 
  0.30985118   -6.2179315     10.10458     1.104807 
  0.31231215   -6.2166203    10.113954    1.1051206 
  0.30768339   -6.2296923    10.002342    1.1040499 
  0.31117966   -6.2390522    9.8632781    1.1031983 
   0.3080956   -6.2405774    9.9433138    1.1041583 
  0.30875926   -6.2331139    10.104467    1.1059466 
  0.30295042   -6.2381101    10.146834    1.1062554 
  0.30014425   -6.2583492    9.9398443    1.1048018 
  0.29845625   -6.2684931    9.8605786    1.1042334 
  0.29809116   -6.2635863    10.007649    1.1057172 
  0.29885579   -6.2576916    10.134697    1.1072429 
  0.29542114    -6.266413     10.08388      1.10686 
   0.2924767   -6.2836752    9.8954572    1.1052776 
  0.29317347   -6.2911217    9.8342983    1.1050742 
   0.2857809   -6.2832891    10.072273     1.107014 
  0.28927724   -6.2770418    10.176284    1.1083015 
  0.28322288   -6.2923766    10.059468    1.1072207 
  0.28592326   -6.3112757    9.8043999    1.1054801 
  0.28133984   -6.3121723    9.8893111     1.106249 
  0.28272459   -6.3002243    10.122046    1.1086938 
  0.27909962   -6.3011443    10.201563    1.1094554 
  0.27770962   -6.3243889    9.9371672    1.1075096 
  0.27461603   -6.3398403    9.7739211    1.1061562 
  0.27008462   -6.3322158    9.9648952    1.1076955 
  0.26993888    -6.321767    10.189059    1.1099383 
  0.27149757   -6.3306683    10.105617    1.1098055 
  0.26244198   -6.3501069    9.9369809    1.1079828 
  0.26611208   -6.3575883    9.8080013    1.1071547 
  0.26372056   -6.3517289    9.9804905    1.1088648 
  0.26328791   -6.3443694    10.169827    1.1108329 
  0.25968173   -6.3548628     10.10817    1.1103781 
  0.25365855   -6.3773896    9.8913288    1.1085208 
  0.25670898   -6.3809502    9.8319279    1.1082307 
  0.25035232   -6.3720939    10.058113    1.1101021 
  0.25455437   -6.3698017    10.140286    1.1114201 
  0.25029345   -6.3820061     10.04798    1.1107339 
  0.24688147   -6.3991109    9.8827995    1.1093925 
  0.24531779   -6.4027502    9.8943823    1.1096356 
  0.24285764   -6.3971172    10.072515    1.1114097 
  0.24351807   -6.3959795    10.138908    1.1123942 
  0.24000199   -6.4100714    10.019459    1.1114604 
  0.23788733   -6.4245397    9.8687997    1.1102014 
  0.23893398   -6.4245838    9.8889425    1.1106009 
  0.23422101   -6.4188228    10.076756    1.1123007 
  0.23248564   -6.4192008    10.135485    1.1129952 
  0.22885584   -6.4325935    10.007682    1.1119853 
  0.22705778   -6.4448958     9.882421    1.1109737 
  0.22824563   -6.4448219    9.9252126    1.1116593 
  0.22620764   -6.4389798    10.091614    1.1133481 
  0.22255392   -6.4421533    10.137172    1.1138139 
  0.22012295   -6.4585714    9.9750756    1.1125668 
  0.22097421   -6.4701209    9.8427907    1.1118064 
  0.21287036   -6.4673779    10.018888    1.1130642 
   0.2183892   -6.4606956    10.108275    1.1143265 
  0.21516698   -6.4709613    10.049979    1.1140914 
  0.21209715   -6.4848855    9.9288562    1.1131173 
  0.20947346   -6.4893185    9.9116527    1.1130501 
  0.20944921   -6.4875538    10.008254     1.114188 
  0.20812312   -6.4852999    10.100313    1.1150788 
  0.20576838   -6.4972894    10.010302    1.1146014 
  0.20074858   -6.5072703    9.9374173    1.1138726 
  0.20123421   -6.5112449    9.9240643    1.1141236 
   0.1988519   -6.5087445    10.058417    1.1154147 
  0.19796046   -6.5115592    10.083372     1.115908 
  0.19471418   -6.5239144     9.987999    1.1152493 
  0.19286097   -6.5321726    9.9148297    1.1147031 
  0.19126594   -6.5335108    9.9615748    1.1152624 
  0.18859368   -6.5313236    10.070934    1.1163095 
  0.18678968     -6.53555    10.068731    1.1164712 
   0.1837983   -6.5458163    9.9807388    1.1158011 
  0.18642777   -6.5530361    9.9057435    1.1155632 
  0.18220952    -6.552706    10.002002    1.1165111 
  0.18064986   -6.5530113     10.08599    1.1174413 
  0.17905459   -6.5610751    10.031516    1.1171453 
  0.17552156   -6.5733012    9.9256077     1.116383 
  0.17721951   -6.5758916      9.91342    1.1165682 
  0.17402439   -6.5741503    10.029905    1.1176424 
  0.17092618   -6.5765322    10.077442    1.1182056 
  0.17123577    -6.586119    9.9883188    1.1176516 
  0.16657373   -6.5967085    9.9203552    1.1171384 
  0.16448721   -6.5979441    9.9668005    1.1176969 
  0.16399444    -6.596794    10.059244     1.118751 
  0.16048986   -6.6013033    10.074072     1.118986 
  0.15720974   -6.6129329    9.9810994    1.1183069 
  0.15616092   -6.6205839     9.931332    1.1180964 
  0.15711078    -6.620032    9.9878566    1.1189037 
  0.15472884   -6.6206639     10.06874    1.1197504 
  0.15052521   -6.6277658    10.049047    1.1196345 
  0.15080289   -6.6385381     9.933769    1.1189568 
  0.14620734   -6.6436132    9.9563129    1.1191403 
  0.14556242    -6.642456    10.033002    1.1200472 
  0.14447075   -6.6450767    10.061923    1.1205201 
  0.14237152   -6.6534799    9.9975772    1.1201238 
  0.14070713   -6.6627558    9.9384848     1.119803 
  0.13889125   -6.6641575    9.9772132    1.1202935 
  0.13665825   -6.6646166    10.037838    1.1209862 
  0.13472794   -6.6691207    10.038969    1.1211017 
  0.13277898   -6.6774422    9.9757376    1.1207301 
  0.13150592   -6.6839946    9.9547678    1.1207685 
  0.12945982   -6.6849714    10.011408     1.121428 
   0.1280949   -6.6874946    10.042266    1.1218557 
  0.12717009   -6.6954894    9.9884172    1.1216278 
  0.12363746   -6.7023592    9.9533824    1.1214327 
  0.12096807   -6.7053617     9.989626    1.1218314 
  0.12046859   -6.7062795    10.025724    1.1223746 
  0.11787121   -6.7115013    10.024296     1.122475 
  0.11531005   -6.7191039    9.9861505    1.1222254 
  0.11393022   -6.7244786    9.9626859    1.1222249 
  0.11440813   -6.7263588    9.9857656    1.1227152 
  0.11229934   -6.7287428    10.025152     1.123261 
  0.10703948   -6.7343477    10.037392    1.1233196 
  0.10672422   -6.7429321    9.9695259    1.1230017 
  0.10493819    -6.747811    9.9617209    1.1231359 
  0.10323116   -6.7493177    10.012978    1.1237666 
  0.10029287    -6.752316     10.04831    1.1241796 
 0.099937573   -6.7596669    9.9958752    1.1239706 
 0.096493706    -6.767132    9.9644257    1.1237586 
 0.095508516   -6.7705678    9.9743824    1.1240924 
 0.092467595   -6.7717543    10.038966    1.1247565 
 0.091135254    -6.776296    10.038468    1.1249569 
 0.090767942   -6.7840031    9.9739316    1.1246378 
 0.087452588   -6.7901494    9.9599231    1.1245597 
 0.085399448   -6.7922902    9.9966931    1.1250439 
 0.085161735   -6.7939399    10.029124    1.1255929 
 0.083472599   -6.7992979    10.016215    1.1256543 
 0.079790379   -6.8074872    9.9793197    1.1254036 
 0.077904356   -6.8125627    9.9698839    1.1254502 
 0.076483043   -6.8147579    10.005144    1.1259756 
 0.074960164   -6.8171459    10.040605    1.1264281 
 0.073121381    -6.823884    10.006438    1.1262993 
 0.070910344   -6.8313935    9.9593742    1.1260521 
 0.069869932    -6.835138    9.9659349     1.126362 
 0.066583622   -6.8360488    10.038231    1.1270495 
 0.064770809   -6.8400517    10.044167    1.1272439 
 0.063578117   -6.8483834    9.9805091    1.1269118 
 0.061506599   -6.8545392    9.9607809    1.1268476 
 0.059838984   -6.8565702    9.9901929    1.1273128 
 0.057534628   -6.8581667    10.040117     1.127872 
 0.056228838   -6.8636325    10.021799    1.1279149 
 0.054608793   -6.8714568    9.9702571    1.1276501 
 0.051790065   -6.8765367    9.9713126    1.1277652 
 0.050451124   -6.8781374    10.011592    1.1282909 
 0.048134383   -6.8812995    10.039318    1.1286547 
 0.046394029   -6.8877806    10.003568    1.1285161 
 0.045032627   -6.8946871    9.9633174    1.1283289 
 0.043316446    -6.898018    9.9772995    1.1286195 
 0.040853665   -6.8992049    10.029655    1.1291996 
 0.039502366   -6.9030736    10.031207    1.1293992 
 0.037824761   -6.9102716    9.9845163    1.1291594 
 0.035624748   -6.9163528      9.96529    1.1291085 
  0.03404236   -6.9188876    9.9940525    1.1295395 
  0.03214441   -6.9208114    10.035276    1.1300225 
 0.030474251   -6.9261382    10.015308    1.1300124 
 0.028452289   -6.9331874    9.9697658    1.1297752 
 0.026473158   -6.9375064    9.9731294    1.1299348 
 0.024809215   -6.9392652    10.017557    1.1304745 
 0.023056159    -6.942347    10.035669    1.1307676 
 0.021335464   -6.9489989    9.9952736    1.1305713 
 0.019459425    -6.955079    9.9636013    1.1304344 
 0.017626384   -6.9579453    9.9892353    1.1307959 
 0.016127344    -6.959319    10.031126    1.1313117 
 0.014382728   -6.9638188    10.024527    1.1314019
