ITEM: TIMESTEP
46000
ITEM: NUMBER OF ATOMS
4000
ITEM: BOX BOUNDS pp pp pp
0.0000000000000000e+00 1.7878070701931353e+01
0.0000000000000000e+00 1.7878070701931353e+01
0.0000000000000000e+00 1.7878070701931353e+01
ITEM: ATOMS id x y z vx vy vz
3086 0.875735 0.146573 1.26586 -1.59464 0.993487 0.510431
773 0.741642 0.758488 0.470885 -0.195446 -0.244345 -0.111305
530 2.30153 1.39514 0.746785 -0.134836 0.774529 0.841499
1853 1.78885 0.55416 0.632657 0.0394358 -0.225318 0.39812
2348 2.64454 0.432138 1.24863 -0.300651 0.432035 0.528412
3216 3.13215 0.208443 0.329576 -1.19573 -0.822955 -1.13756
3776 4.37208 0.102451 1.3735 0.994784 -1.3479 -1.56272
146 4.1714 0.82743 0.466549 1.3145 -1.50993 -0.879984
3923 5.06196 0.73406 0.983107 -1.76307 1.73143 0.539485
3608 6.23396 0.652448 0.762277 0.068118 -1.16882 0.383164
2086 7.16298 1.03085 0.771204 -0.810655 0.016923 -1.03295
278 7.17689 0.177412 1.46188 -0.15815 0.569561 1.11153
3048 8.0928 0.985594 1.316 0.441196 0.435283 -0.255192
2246 9.01614 0.798491 0.75383 0.275892 -0.981516 1.37594
2220 11.6151 0.982809 1.45897 -0.948708 -1.04467 0.0744983
63 10.5874 0.736217 1.17562 -2.40126 -1.54467 0.363572
703 12.6026 0.85141 0.971026 0.845615 -0.461378 -1.06495
2571 13.6718 1.35471 0.39056 1.26333 -0.703228 -0.433383
2874 13.6651 0.683778 1.36401 0.241029 0.410511 -0.0588993
528 14.8203 0.789902 0.87396 0.459577 -1.25536 0.0909331
946 13.8861 0.00265153 0.61134 -0.350222 1.45711 0.920227
1438 15.773 0.907669 1.30526 -0.679969 0.653523 -1.84863
1827 15.7111 0.74647 0.255344 -2.16911 0.319928 0.667872
657 16.7241 0.712016 0.295855 -0.94551 0.0194689 -0.27428
2492 17.6574 0.520479 0.730767 -0.731919 -1.41111 0.030771
1878 1.02384 2.70919 0.65454 0.63884 0.562868 0.153251
3023 1.32302 1.65433 0.295116 -0.647336 -2.68423 -0.490915
790 1.52032 2.03828 1.32165 0.670753 0.227247 1.27697
3836 2.09604 2.94544 1.40772 -1.93046 -1.52727 1.67241
2162 2.91325 2.2615 0.650349 0.685091 0.716226 1.84088
389 3.88954 1.92581 0.972768 0.23204 0.135692 0.480683
830 4.8174 1.74284 1.18698 -1.58778 0.048028 0.654772
155 4.50072 2.77177 1.45298 -1.84707 -0.257786 -0.0665087
3074 5.85699 1.57448 1.43148 -0.10821 -1.66222 0.626835
3705 6.59968 1.86444 0.655287 0.280986 0.22118 -1.0384
3036 7.94171 1.83719 0.328274 2.04456 0.0346183 -0.607685
7 8.66 1.92411 1.14546 0.809435 0.728351 0.17123
902 7.54769 2.6859 1.02972 0.646498 0.968795 -0.258758
1428 8.13551 2.92016 0.0598466 0.475091 -0.714782 1.482
1152 9.82498 1.60023 1.44357 0.284286 -1.16864 0.0377606
1390 9.29169 1.86658 0.325899 -0.427155 0.556017 -1.97095
2229 9.35184 2.80177 0.954892 -0.218459 -0.49939 -0.770709
1 10.5763 1.88652 0.543927 0.498612 -1.13275 -1.57997
947 11.4725 2.54755 0.795859 0.619467 1.5921 -0.941071
3034 12.5843 2.96329 0.628108 -0.202878 -0.643509 -1.11466
2668 12.3373 1.69841 0.359684 0.835754 1.60287 -0.898397
2084 14.3417 2.55459 1.32923 -0.11336 0.567493 -0.270074
1427 14.5997 1.92973 0.356874 -1.54841 0.856267 -1.6524
2066 15.6897 1.82457 0.232381 0.191716 -0.445237 0.273127
3600 17.8551 2.11777 1.05837 -1.17692 -0.0835406 -0.114304
1457 16.7272 1.78546 0.774565 -1.29063 1.85265 0.0583969
2056 16.5761 2.78994 1.21487 -1.81393 -0.120829 0.709418
674 17.2553 2.54858 0.285436 0.621802 0.242922 -0.762092
2044 1.18836 3.83936 1.18544 -0.790729 0.8594 1.7829
1801 1.62582 4.42621 0.280183 -0.734793 1.31949 1.64042
2140 2.33896 3.89961 0.93678 -0.298608 -0.603504 0.107886
1326 3.21248 3.30596 0.0505171 -1.13668 -1.04315 -0.728679
3271 3.42688 3.03955 1.18835 0.422604 0.1558 1.01189
1619 4.37002 3.46011 0.624834 1.75728 0.573394 -0.152053
1941 5.68336 3.01177 1.17504 -2.3198 0.173195 -0.0631662
1776 5.03451 3.82692 1.41679 -1.21889 0.847131 -1.815
922 6.66534 4.31722 0.85765 -1.09423 0.760885 -1.71205
3699 8.51143 3.54409 0.774348 -0.542586 -0.380658 -0.402652
919 10.2056 3.3339 0.20002 -0.18931 0.1388 0.21808
3707 9.22007 3.62007 0.0835035 0.0472589 0.630527 -0.153115
1577 11.8339 3.67366 0.464905 0.627076 1.15369 0.23058
2956 11.6434 3.76914 1.45485 -1.46184 -0.177719 -0.262386
2443 13.1863 3.79048 0.623061 0.414068 -0.546575 0.639958
1645 13.8174 4.11408 1.44298 2.56854 -0.44868 0.808176
1446 14.7744 4.22244 1.42526 -1.11479 0.719584 0.332006
656 14.1645 4.0315 0.0980711 -0.69232 -0.75303 -2.48469
747 15.4275 4.19144 0.0608819 -1.74369 1.35636 1.36525
441 15.1685 3.32682 1.07589 1.63462 -0.73456 0.196143
174 16.6388 3.99499 0.134552 0.815705 -3.18758 -1.21016
714 17.0965 3.72179 1.39944 -0.165419 -0.304402 0.185942
1470 17.6964 3.88712 0.469166 1.05089 -0.343401 0.561057
1993 0.568973 4.5042 0.562242 0.819202 0.961188 -0.199179
3991 0.279682 5.44562 1.02751 2.16767 1.18774 0.204345
3336 0.428574 5.93805 0.0340042 0.125048 -0.270849 1.60611
1898 2.56985 5.93752 0.0338279 -0.404751 -1.01099 -1.1494
1963 2.76659 5.11839 0.677215 -1.2455 0.801834 1.53425
1046 1.79735 5.52297 0.787737 -1.97969 -0.033228 0.128568
2308 3.82405 4.82867 0.569448 0.652758 -0.414246 1.49851
292 3.65503 5.68797 0.0298192 -0.71767 -0.348792 0.858454
1175 4.58412 5.56092 0.53635 0.926173 -0.574285 0.819282
1743 5.86684 4.84927 1.21468 -0.615305 1.03115 -0.975729
9 6.60035 5.31334 0.410267 1.06784 0.911008 0.536553
2479 6.89172 5.62218 1.43568 -0.228618 -1.33158 0.264416
2980 8.77958 5.12368 0.986993 1.28447 -2.42181 -0.273155
1019 7.73873 4.64118 0.640523 0.0574543 -0.459201 -0.814404
3455 9.78011 4.67879 0.853472 0.577811 -0.500729 1.35626
3320 10.3863 5.35994 0.336449 -0.58163 -0.50231 -1.30686
279 10.9954 4.49696 0.808536 -0.191908 0.088014 -1.36716
1287 11.4643 5.43185 0.60798 0.351177 -0.0867159 -0.893585
1434 12.8643 4.80177 0.958812 0.0938568 -0.516523 -0.471701
2657 14.7679 4.9377 0.432768 -1.03208 1.11119 0.841943
968 13.7193 5.25029 0.398915 0.102766 1.61824 -0.98963
575 15.5613 4.81297 1.05245 -0.563733 0.531156 0.135112
1768 17.3519 4.86746 0.525933 -0.287411 -0.375894 0.152379
1429 0.168943 6.86235 0.911167 1.04854 -1.4203 -0.308262
241 2.94666 6.99332 0.522273 0.0663996 -1.13976 0.154207
1320 1.67976 6.53134 0.368237 0.205382 0.454607 -2.74188
426 2.43027 6.32331 1.47745 -1.48193 -0.644427 -1.55384
2935 3.20572 6.05547 0.871186 0.127677 0.685522 1.02717
3841 4.07288 6.70348 0.536938 0.105583 1.8952 1.57517
437 4.37221 6.04539 1.47787 0.424676 0.312787 -1.18077
140 5.35554 6.1853 0.459978 -0.476753 0.238765 -0.412633
1241 4.93753 7.06857 1.03061 -0.0598932 0.234444 1.03097
3301 8.32304 6.32118 1.32408 -0.734998 -1.08436 -0.00606
3159 7.52963 6.59239 0.173515 0.914218 1.48489 0.043129
1915 8.71931 6.04042 0.158631 0.299456 0.000270904 -0.0101232
1943 7.51346 7.03499 1.09887 -0.896925 0.368204 1.18415
1907 9.41747 6.984 0.278474 1.38782 0.789706 1.39873
1162 10.0052 6.32167 0.897066 0.810751 -0.80187 -0.139319
2171 11.778 6.87162 0.811897 0.811943 0.689376 0.76821
2289 10.716 7.04652 0.518118 0.466576 0.156634 -1.78252
3364 13.4769 6.40578 0.682068 -0.0211057 -0.757052 -0.706904
1758 14.4264 6.07585 0.940756 -0.925722 0.467472 1.6832
307 13.4746 7.33088 1.41233 -1.37412 -1.17096 1.60232
19 13.9421 7.39386 0.39071 0.769864 0.138377 0.199145
2403 15.5391 6.80982 1.35526 -0.624191 -0.481202 0.0622972
1884 16.118 6.19389 0.576838 -1.70733 -0.366167 -0.956166
622 16.1925 7.26434 0.689313 1.52698 -0.0550108 -0.66891
1705 17.1595 7.35292 0.883551 -0.819374 2.26814 0.48884
3771 1.3794 8.44217 0.884842 -0.54872 -0.448259 -0.601945
1851 0.0143245 7.94568 0.581841 0.915509 1.09448 0.193027
3933 2.34136 8.11236 0.74561 -2.6972 0.47194 0.49007
1926 3.86293 7.58462 1.44605 0.462502 0.40979 -2.19597
1584 5.61327 7.73942 0.648593 -1.57511 0.737501 -0.765326
1607 4.63425 8.21504 0.840327 -0.82502 0.47735 -1.23962
3454 5.54241 8.55704 0.0366699 1.47121 0.321371 0.490479
2053 7.3692 7.67446 0.271898 1.97258 -0.652305 -0.547657
3756 6.66943 8.21096 0.997865 -0.434017 -0.446689 1.74101
2480 7.72363 8.45573 0.969192 0.531782 -0.657723 1.66762
3488 8.5044 7.48694 0.504829 -0.802972 0.709652 1.15587
2803 10.1479 7.70047 1.192 2.30397 0.296003 -0.76996
2948 9.54267 8.53416 0.607517 1.08433 0.51047 0.339111
345 11.8761 8.90185 0.607784 0.804906 0.690887 -0.505661
2936 11.2867 7.96107 1.08115 -1.43571 -3.27112 0.736389
3976 12.6848 8.49309 0.161617 -0.00265353 1.78955 0.603494
392 12.5904 7.78228 0.973054 1.15183 0.166852 -0.0501477
466 13.3821 8.72932 1.33295 -0.792213 1.32189 -0.377265
690 12.6227 7.51678 0.0306444 -0.236916 0.652518 0.609518
1871 14.8374 8.53512 0.19497 0.617593 -0.188942 -0.755332
3878 14.4346 7.9906 1.19003 0.301673 0.893136 -1.18147
3635 13.7384 8.45169 0.401536 -1.86788 0.139408 -0.542402
1355 14.9789 7.56132 0.506999 1.25655 0.603778 -1.01192
1151 15.7665 8.24779 0.903924 0.545272 0.337858 0.87751
3940 17.0971 8.27573 1.48784 0.517398 -0.275382 -2.12713
416 16.727 8.47729 0.506993 -1.42968 -0.904524 -0.953176
1024 0.662646 1.1718 1.60586 2.40083 -0.574081 1.94121
816 0.834417 1.30996 2.61236 0.190609 -1.57637 0.445832
3664 2.40769 0.471434 2.24367 -0.525901 -0.0497905 -1.18569
1128 1.72247 0.766337 1.60558 -1.78815 1.56314 -1.02207
423 1.94992 1.47809 2.31381 0.838199 1.17039 1.15422
3090 3.5215 0.00818078 2.10717 0.361224 0.597578 -2.15676
428 4.34701 1.1404 1.83689 0.683433 0.0264581 0.354547
1715 3.26688 1.13466 1.80552 0.124499 -1.06058 -0.32273
492 3.98411 1.34656 2.93292 0.420314 1.54183 0.766681
2568 4.49967 0.20737 2.88307 0.0602392 -0.0724748 -1.2575
347 5.56853 0.954905 2.25816 0.386955 0.636846 0.0510727
2551 6.7077 0.809295 2.07006 0.484775 0.232916 0.864546
2823 8.40863 0.0448074 1.77238 -0.465517 -0.273481 -0.272006
1899 7.6829 1.0928 2.51723 0.13054 -1.29549 -0.0808119
1631 8.85198 1.19746 2.29046 -2.27943 0.925354 -0.693834
1614 9.6753 0.226912 1.88819 0.0439963 0.836609 -0.466887
1833 9.83102 1.0701 2.41022 -0.989756 -0.532429 1.60833
1026 11.8945 0.549732 2.75224 -0.493909 0.92077 -2.0161
447 10.9321 1.0268 2.33376 -0.932308 0.102006 1.31752
1596 13.0504 0.0180786 2.97283 0.695926 0.182982 -0.683328
3994 12.811 0.797705 2.22145 1.07306 0.223031 1.0527
435 14.891 0.754342 2.50189 -0.175594 -0.743429 0.0751757
114 13.8205 1.03191 2.84315 -0.278201 0.627876 -0.485748
2450 15.7096 1.26261 2.45242 -0.339316 -1.55807 -0.422448
2775 15.9742 0.185899 2.06944 0.503556 -1.43088 -1.78474
2774 17.5307 0.640854 1.74242 -2.0085 -1.2082 -0.242885
1661 17.1035 0.754445 2.64513 -0.226475 -1.42576 -1.44272
3928 1.33107 2.97627 2.07541 0.57475 1.83678 0.757173
3842 0.716158 2.17824 2.00192 0.832868 0.216054 -0.314009
3362 1.39329 2.2919 2.82788 0.313192 -0.127213 0.885324
198 2.83501 2.29066 1.72547 -1.95311 -0.826387 1.1596
1571 2.32617 2.89678 2.43191 0.122136 -2.14316 -0.454867
2243 3.55782 2.97126 2.53448 0.32503 -0.19906 -1.598
3618 3.02673 1.6797 2.70898 -0.569393 0.0516057 0.409142
2163 3.82721 1.97789 2.04681 0.98667 0.480311 0.462504
2160 5.36405 2.12385 2.06643 0.41836 -0.588027 -1.41153
3571 4.61737 2.30787 2.84993 -0.0444066 0.281122 -0.744395
1900 6.69079 2.84261 1.80142 -1.79289 1.86323 1.30172
724 7.38011 1.81497 1.63313 0.210131 0.684181 -0.670417
1956 6.45451 1.93472 2.53296 -0.904883 -0.998517 0.00151121
508 8.40558 2.78992 1.60863 -1.59563 -0.428416 2.07245
3716 9.34837 2.27357 2.2423 2.0342 -1.62053 -0.807724
2105 11.1929 2.23213 2.34796 0.0587867 -0.290213 1.56978
871 12.8664 2.47174 2.71113 1.03315 0.844566 0.117945
3663 12.1975 1.617 2.59942 1.15882 -0.482295 0.198928
498 11.9377 2.79172 1.77913 -2.2493 0.496827 1.6123
1513 12.5336 1.79344 1.53621 -1.52311 0.365964 0.0216534
1025 14.7028 1.52336 1.57701 -1.36744 -1.07143 -1.00671
1452 13.4822 2.58283 1.78575 -0.817534 1.05338 -0.400726
1394 13.6184 1.59978 1.91408 0.154161 -1.1007 1.54366
3698 14.573 2.11558 2.39637 0.78822 -0.920945 1.12626
2314 15.6587 2.15432 1.87214 0.378469 0.802173 -0.646233
3780 16.2373 1.9761 2.90576 0.0299045 0.696963 0.552463
1059 17.4321 1.6695 2.37946 -1.11358 -1.49627 -2.6071
3951 17.7962 2.75263 2.43831 -0.458062 1.45263 -0.277713
2968 0.877062 3.92392 2.38467 1.50568 -0.924164 -0.66515
1741 0.135798 3.35249 1.50919 0.277099 -1.72311 0.464102
3180 0.228848 4.42299 1.6102 -1.56489 0.484731 -0.147248
1805 2.00982 3.97619 1.97335 0.65332 -1.54393 0.149649
2577 2.56952 3.72766 2.95317 -0.141576 -0.545714 -0.888016
3166 3.02199 3.82852 1.84059 1.10513 0.654949 0.4123
86 3.30034 4.45044 2.8281 1.30164 0.0702094 1.07807
2635 4.03736 3.79773 1.86006 0.438777 0.110672 -0.143303
455 5.07316 3.40043 2.82113 -1.33121 0.684053 0.608434
219 5.42341 4.20352 2.24395 -0.553252 -2.06527 -0.105029
3376 7.08479 3.3555 2.77995 -1.09677 -0.213644 1.11013
987 6.57657 4.2285 1.99252 1.26085 -0.646394 1.36149
834 7.69265 3.84486 1.57475 -1.14057 -1.51708 -1.52179
3211 8.09572 3.27469 2.74802 0.686405 0.0645814 -1.69429
3556 9.66636 3.6752 1.49051 0.687339 1.44206 -0.700605
3009 10.3897 3.9087 2.64124 0.610169 0.52313 -1.59229
1905 10.5035 4.35391 1.72291 1.26768 -0.700697 2.06644
3592 10.6325 3.1037 1.75172 2.62118 -1.05077 -0.399861
3585 11.4316 4.24255 2.89048 -0.303316 -0.0138721 0.694055
3613 12.697 3.64047 1.66127 -0.887956 -0.193012 -1.79167
1691 12.03 3.28176 2.68429 2.61571 -0.721374 0.142995
71 14.1226 4.46009 2.39888 1.47906 -0.452011 -0.337627
1674 14.2473 3.34264 1.93576 0.126142 0.288899 1.28091
554 14.0328 3.36503 2.93679 1.06153 -0.972498 -2.33722
1258 16.098 3.92237 1.95688 -1.05641 0.176263 0.392444
2636 15.2521 3.08727 2.22225 -0.268515 -0.753943 0.195291
1733 17.446 4.40223 2.36038 0.636585 -0.633235 0.655123
3154 16.5836 3.03558 2.37576 -0.79859 -1.02064 0.210188
3311 1.26773 4.78391 1.91416 0.869147 0.424402 -0.58064
3182 0.680864 4.97386 2.72142 -0.872556 -0.93753 -0.659752
1611 0.0686115 5.33999 2.01095 2.16378 -0.694935 -0.273162
3690 2.95527 5.71568 2.13474 1.25739 -0.665301 -0.215391
87 1.6223 5.61716 2.26784 -0.254418 -1.29961 -0.33221
1534 2.36749 5.03576 1.6322 -0.620617 -0.374587 -1.67556
440 2.39012 4.83256 2.62273 0.943572 -0.242627 0.297621
3235 3.43607 4.82515 1.75324 0.85471 -0.457518 -0.876201
2873 4.05105 5.14302 2.5374 -1.4893 0.093761 -0.0617631
3482 4.84323 4.94299 1.633 1.43761 -1.31482 0.448524
2746 5.43074 5.17338 2.80742 1.6595 -2.95079 -0.53373
3767 6.37949 5.23842 2.35742 -1.20603 -1.16206 -0.373318
2417 8.36628 5.80167 2.3096 0.492972 0.40368 -0.102077
1164 8.60193 4.47871 2.20802 -0.0235798 -1.29557 0.115914
820 7.6282 5.02827 2.13953 0.042295 -1.22024 0.262159
2366 9.55494 5.09489 2.17732 -2.81722 -1.5342 -0.0554403
2750 11.4693 4.91623 1.67766 -1.56577 0.327628 -0.920311
429 10.4583 5.56401 1.57944 0.516403 0.385013 0.976719
361 10.7027 5.1729 2.56542 -0.447698 0.33145 -1.16522
2068 12.7116 5.75344 2.33153 -0.881885 0.524089 0.793416
271 12.9539 4.59767 2.32795 0.676632 -1.18725 -1.09744
2202 14.8629 5.19757 2.9165 0.00220735 -0.757002 0.839315
465 14.5411 5.43508 1.76811 -1.4114 0.636858 0.488043
1940 15.7052 4.83951 2.36433 0.380344 2.15607 1.2215
1757 15.942 5.74708 1.64236 -0.161976 -0.213422 0.983948
3452 15.6825 5.7727 2.75564 0.1199 -0.846608 -0.526971
2499 16.8095 5.95361 2.47495 0.0103474 0.187228 0.491037
8 16.7801 4.84184 1.78756 0.713946 1.23521 0.0594569
3083 0.619504 6.44326 1.82853 1.01108 0.255467 1.56282
2179 1.91075 6.82553 2.36147 -0.25751 -0.584621 1.45797
3371 3.48197 6.60263 1.79734 0.444937 -1.23561 -1.21314
1710 2.98782 7.0311 2.96008 0.465648 -1.77831 1.33631
1406 4.2943 7.39192 2.81785 -0.397348 0.652115 0.191929
1802 5.31477 7.06363 2.30514 0.395197 -1.32819 -0.676178
752 5.37475 6.14244 1.69674 1.71168 0.200534 -1.74051
1650 4.6585 6.21175 2.55666 1.80363 0.965742 1.90808
738 6.52531 6.62414 1.75328 1.1941 0.878477 0.270712
1309 8.62676 7.1553 2.1028 -0.171829 -0.327452 -1.43852
2335 7.6448 6.60898 2.17484 0.368047 -1.83788 0.180729
420 9.48142 6.67552 1.79628 -0.488269 0.365231 -0.0156908
1475 10.2864 6.49108 2.49459 -1.67748 -0.236523 0.154062
667 11.0633 7.20708 1.75616 0.376129 0.558173 -0.770222
273 11.3057 6.2341 1.93915 -0.204126 -1.45842 0.78298
997 11.165 7.1751 2.78722 0.918449 1.94953 -2.07987
1494 12.5527 6.56292 1.6451 0.076567 0.66447 -0.606188
3414 12.0202 7.38333 2.04004 0.932227 -1.87963 -1.67949
602 12.9206 6.90671 2.57244 -0.717382 0.432094 -0.237441
2002 14.5866 6.1453 2.40237 -0.63922 -0.13177 -0.408656
1834 13.7901 6.25592 1.77054 0.315777 -0.187891 -0.296838
3834 14.1915 7.08633 2.89113 -1.20364 1.27004 3.17633
3560 14.5926 7.03879 1.72073 1.02926 -1.46918 0.112144
2301 15.9963 6.77666 2.23069 -3.12397 -1.46976 -0.915145
368 15.3314 7.4093 2.61108 0.0952938 0.706778 1.26218
694 17.8136 6.97826 2.88138 -1.05857 -0.180952 0.386468
1976 17.0876 7.32827 2.11996 -1.5441 -0.771181 -0.652611
409 17.0265 6.37159 1.57414 0.563854 0.128376 -0.278113
2743 1.13079 7.84111 2.54604 -2.24287 0.108635 -1.72771
2929 0.448201 7.77968 1.59674 -0.321864 -0.226134 1.58334
1869 1.15387 8.68542 1.97976 -0.237465 0.399896 0.892125
2849 0.0692857 8.9188 1.98082 0.715227 -0.440265 0.229885
494 2.75838 7.47108 1.68677 0.279251 -0.737399 0.550012
1115 2.89156 8.07406 2.67241 1.46577 1.04455 -0.118173
903 2.27668 8.69509 1.71304 0.770096 0.755315 0.924226
2230 5.20882 8.07 2.96866 -0.0755318 -0.215814 -0.406687
1902 4.68604 8.17767 2.04309 0.334808 0.10737 0.249097
3416 6.30786 8.66332 1.99932 0.784133 1.40957 0.825085
1640 7.03683 7.95677 1.82407 0.086938 -0.410622 2.07117
3308 6.1441 7.7646 2.49615 0.675353 1.08135 -0.3468
309 8.64692 8.18333 1.6602 -1.97466 0.133247 1.72346
643 9.81734 7.45112 2.67102 -1.2376 2.94437 -0.197189
3401 11.6732 8.1755 2.80874 1.88679 -2.17387 0.134096
1689 10.8429 8.28153 2.11163 0.297633 -1.8561 -0.516904
3267 12.2497 8.48061 1.70138 -0.444084 -1.09619 -0.882073
1159 14.5457 8.1532 2.43774 0.481157 1.53531 -0.215591
3661 13.5412 7.99691 2.51408 0.876759 -0.091786 0.16992
3124 16.234 8.23728 2.05911 -0.548256 -0.58161 0.535129
3033 15.2753 8.76844 2.08871 -0.894118 0.276167 -0.994241
2731 16.93 8.48708 2.9466 -0.363842 -0.971886 0.96774
662 0.14981 1.03959 3.27809 -0.177839 -0.111152 1.14063
1319 0.329906 0.810601 4.30955 0.87573 1.41282 -0.0584524
2345 1.20027 0.961548 3.52074 -0.93935 0.164837 0.189592
857 2.26412 1.20361 3.37952 0.172148 0.401256 0.0551727
2236 2.78853 0.575642 3.94944 0.43431 -1.28437 -0.55628
1055 2.95188 0.132421 2.99107 1.26186 0.623279 0.418683
1263 1.84951 0.182887 3.26485 -0.615958 -0.775964 0.68423
1047 3.70111 1.10942 3.8206 -0.689447 0.0540501 -1.53966
1903 4.85067 1.28501 3.6326 -1.12626 -0.36589 -0.691907
2060 5.77675 0.939114 4.10657 -0.592713 0.321172 0.167048
2320 5.52664 0.0795241 3.33844 -0.226428 1.1446 -1.57768
2159 7.40617 1.37128 3.45368 -0.162603 -0.789212 0.549958
854 6.3445 1.08391 3.19026 -1.17745 -1.74884 0.701883
90 6.5605 0.0658537 3.5339 -0.018507 0.365206 1.02535
1374 7.8216 0.530201 4.35851 0.255235 0.0113615 2.06209
3688 8.64785 1.24874 4.10115 0.991948 -1.09609 1.05447
1341 8.6733 0.551006 2.99924 -0.141359 0.0736339 -0.453945
748 9.56419 0.976519 3.49597 2.00013 1.34172 1.82292
2271 10.4144 0.0426429 3.77517 0.218654 -0.609387 1.19813
3269 11.0227 1.17609 4.28588 1.36592 -0.118887 -1.54651
3654 11.5081 0.424452 3.73425 -1.0715 0.0544662 -0.589038
3739 12.4155 0.898883 3.55736 -1.54514 2.17466 0.264342
3990 12.9506 1.04193 4.42721 -0.609624 -0.153547 -1.42126
802 14.2212 0.833169 3.76879 -0.177142 1.45553 -0.536725
3917 15.0166 0.11781 4.31325 -0.784037 0.320402 -1.26162
1129 15.9677 0.60674 4.12907 1.80431 0.927301 1.74209
1445 16.2794 0.386438 3.08818 -1.09139 -1.59591 0.668825
2191 17.121 0.809321 3.92164 1.14926 0.456737 0.0148157
469 0.729445 1.94583 3.50443 -0.153128 0.510771 2.15987
2710 0.0259719 2.86699 3.82835 0.773629 -1.02114 -1.18332
2925 2.74842 2.1328 3.63773 -1.48076 0.0574183 0.215444
2532 1.61436 2.36295 4.3015 0.431309 1.38149 1.29785
1617 3.61695 2.88669 4.01292 0.632503 0.251635 1.19126
1306 4.32478 1.78411 4.4463 -2.28878 -0.397295 -0.897934
3077 5.55994 1.96391 3.08093 -1.62509 -0.359694 0.826276
2073 5.40143 2.89522 3.72672 1.78256 -0.840829 -1.7215
312 6.17477 1.97966 3.86735 0.578869 -0.995533 0.525491
3049 7.24312 2.32004 3.05854 0.197 2.18739 -0.3865
274 6.2219 2.93362 3.18602 -0.413779 0.0271381 -1.4861
3356 8.3235 1.49721 3.19007 -1.11488 -1.1837 1.15674
669 8.45151 2.43588 3.723 0.744057 0.575775 -0.416087
1500 9.31441 1.97999 3.63568 0.233386 0.800551 0.908052
2716 10.1506 2.49731 4.35604 -0.26389 1.26194 0.887613
2856 10.6359 1.57416 3.25825 -0.342622 1.20046 0.767575
1126 11.1118 2.81853 4.18397 0.936766 0.309811 -0.0326598
950 11.6755 1.68677 3.60851 0.147397 1.98805 -0.428526
1075 12.435 2.35511 3.76215 -2.08806 -0.0322647 -2.22971
75 13.1424 1.67057 3.42784 -0.930168 0.101992 2.03077
1184 13.0632 2.01843 4.42779 -0.54416 0.275525 0.260386
3740 14.0881 2.17121 3.28882 -0.561844 1.34289 1.11345
264 14.0068 2.60047 4.21154 0.152875 0.338736 -0.509455
2329 15.7007 2.79868 3.28652 -1.02835 1.05283 1.90787
3811 15.0132 1.56353 3.50627 -0.42115 0.00118044 0.538887
3605 15.2433 2.48721 4.19465 0.583963 -0.788185 -0.0650834
3156 16.2296 1.64234 4.12115 -0.871683 -0.593936 1.40871
2979 17.3359 1.87794 4.12316 -0.770041 -1.05507 0.22818
568 0.820178 3.1232 3.27262 1.62766 0.137747 -0.2682
718 0.234683 4.11958 3.36502 -1.28049 -1.56759 0.632354
2027 1.40044 4.09586 4.23716 0.206382 -1.13794 0.100644
742 0.180396 3.98018 4.44329 0.901397 -0.215069 -1.00552
3386 1.66563 4.44006 3.24077 -0.28949 -0.468772 -0.27615
639 1.80508 3.24643 3.61702 -0.583433 -1.15451 1.05064
2845 2.5529 3.21367 4.37222 0.362337 0.907767 -1.22465
1517 4.67777 4.13007 3.42348 0.791714 0.0909994 0.447727
3248 6.34263 4.05057 3.05318 0.503964 0.174135 0.202925
3607 6.99047 3.50948 3.86586 -0.316441 0.510215 -0.323686
3391 8.07563 3.90226 4.25469 -0.341134 1.48837 0.699669
3882 8.84682 3.9949 3.50937 0.52097 1.95668 -0.566171
652 9.2853 3.16476 3.02469 -0.644782 1.61476 -0.67369
2698 9.9035 3.67984 3.79628 0.5095 -0.805132 0.601506
1750 8.95293 3.27101 4.3257 -0.538855 0.737955 1.28156
2808 10.9987 3.08998 3.05652 -0.439655 -0.634926 0.201477
3129 10.9815 4.01434 3.7354 0.259231 -1.71082 -1.11723
1199 12.2076 3.70534 3.96274 0.516293 -0.397185 0.563969
1931 13.2135 3.05645 3.64597 1.84465 -0.282983 -1.66133
1403 12.9469 3.93308 3.17387 0.648421 -0.0704204 -1.09027
1866 13.2694 4.2638 4.31999 1.07999 1.01504 -0.623208
579 14.5758 3.31739 3.91039 1.04467 0.383839 0.751994
1474 15.0098 4.15135 2.98063 1.6569 0.718955 -0.341451
2688 15.9528 3.84905 3.22759 0.0104586 -0.110152 0.417589
92 15.5238 3.49428 4.12017 -0.296773 1.1054 -0.341224
3777 17.0805 3.84029 3.19379 -0.528657 -1.12519 1.28884
237 16.7718 3.07322 3.92102 -0.144662 -1.66468 -0.187135
1567 16.4553 4.27068 4.11492 0.16249 -2.42356 0.250477
3329 0.0216983 5.61572 3.1328 -0.507296 -0.15144 -0.244866
1343 1.33533 5.54119 3.29293 0.449239 -1.53639 -0.40893
2596 0.533904 5.0578 3.91316 -1.92711 -0.345542 -0.866639
1312 1.92287 5.09456 4.1547 1.13816 -0.352267 -1.34319
3934 2.33875 5.91107 3.02406 0.0278607 -2.45172 0.541872
511 3.17596 5.32567 3.4666 -0.309711 -0.638059 0.401825
732 3.09576 4.65495 4.22866 -0.507034 1.30826 0.46423
3744 4.03812 4.92516 3.98821 0.782848 2.26494 0.657045
24 4.26137 5.9392 4.39244 -2.19299 -0.168395 -0.721977
3051 5.8295 4.99744 4.17877 0.40553 0.428537 0.153622
2208 5.06346 5.93708 3.59574 1.15423 1.80069 0.0832091
1316 6.1643 5.93594 3.11833 0.150411 -1.29869 1.94203
1763 6.60975 4.88501 3.41786 1.71029 -0.0291171 -1.59128
439 6.83672 5.03596 4.42988 1.4113 -0.977352 0.358322
2472 7.97766 4.68536 3.13464 0.438665 -0.153429 0.932645
708 8.42127 5.65643 3.46793 -0.740823 -0.695597 -0.338774
617 7.77455 5.1294 4.09135 0.19509 -0.556857 -0.527593
2503 9.0793 5.01284 3.04471 0.141699 0.224641 1.09712
1220 8.96258 5.00419 4.0336 0.454509 0.249919 1.12083
3861 9.56302 5.91925 3.10383 0.912685 1.27944 -0.648338
2934 10.0034 4.66451 3.33586 -0.103975 1.46259 0.252248
745 10.0474 5.71197 4.30629 -1.32477 -1.24462 1.17613
2409 11.6628 4.77233 4.03678 -1.22334 -0.187664 -0.553533
2277 11.8125 5.80219 3.63369 -1.06708 0.345438 -0.970871
3809 10.7977 5.28086 3.60781 -0.0806468 -0.0866265 0.162553
2575 12.4161 4.88359 3.23825 0.522929 0.886916 0.239722
166 13.8161 5.87433 3.14087 0.48456 1.63597 0.698726
3742 13.9957 4.56229 3.36907 -0.518376 0.851566 -0.771647
1252 14.8795 5.50904 4.4012 -1.28361 0.81529 -1.20945
1797 13.7643 5.30056 4.20757 0.378766 0.497956 -0.899836
1819 15.5285 4.62548 3.80265 -0.14758 0.244196 0.786993
733 16.0097 5.71539 3.94434 0.218226 -0.688783 1.47298
43 17.2712 5.20719 4.07012 -1.66551 0.981456 -0.904842
415 16.6722 5.0287 3.19319 0.0352915 -2.16812 0.0700836
3461 0.0877548 7.29961 4.44304 -0.167253 -0.367564 -1.09835
673 1.46978 6.23589 4.14774 -0.207049 0.126431 0.605957
3859 1.10171 6.62239 3.04356 -0.355159 0.0300372 -0.531604
2804 3.02338 6.23159 3.93621 0.431299 0.627878 0.781376
2455 3.74302 6.10153 3.11122 1.68854 -0.744311 0.663967
1983 4.12115 6.80529 3.77536 -0.378227 -1.03162 2.12682
1262 5.45809 6.83943 3.39567 0.751208 0.64285 -0.763916
425 6.53684 6.31077 4.16499 -0.861801 -0.409065 -0.973253
3101 6.58706 6.83896 3.07089 -0.112939 -2.65871 0.0625572
3963 7.32699 6.98768 3.79371 -1.4344 0.692195 -1.22475
1967 8.73129 6.63089 3.16066 1.86186 0.874313 0.33736
2497 7.82327 6.23934 4.2075 -1.00317 -0.904744 0.0104837
1687 7.93371 7.41252 3.01031 -0.38925 -0.105157 0.133757
3377 8.40584 7.08305 4.01696 1.36123 -0.914543 -1.06662
852 9.20007 6.372 4.10469 -0.600679 -0.257383 -0.701888
1949 10.4476 6.76468 3.5726 0.472938 -0.241695 -0.797958
556 11.7176 7.37418 3.77953 -0.823562 -2.21688 -0.0222354
2833 12.5565 6.64655 3.64525 -1.24212 0.517822 0.220584
1442 13.5548 6.43439 4.19494 -0.280653 -1.26108 -1.37914
3637 16.1844 6.63964 3.31494 -2.24278 0.993013 0.825577
470 15.5096 7.28298 3.95595 -0.69218 1.20632 -0.865029
915 14.9413 6.16984 3.58682 2.14486 0.578641 -0.956765
135 17.5202 6.36934 3.83018 -0.520046 0.45959 0.542286
778 0.505442 8.8056 3.88987 -0.520978 0.840392 0.12207
863 0.839757 7.46126 3.6971 0.354282 -0.963081 0.384846
3 1.34563 8.67635 3.07957 1.72969 0.321796 -0.705199
210 1.77108 8.25464 4.14111 1.11503 0.0480148 -0.550571
1531 2.03629 7.57822 3.35415 1.68468 -0.809217 -0.285478
2411 3.15753 8.36446 3.99487 -0.258011 0.869764 1.37063
1711 4.13304 7.75129 4.44963 1.61029 0.741882 1.14673
2283 4.16093 8.74373 3.08641 -0.0064753 -0.14111 -1.77548
3715 4.15779 8.81618 4.23 -0.212721 0.160403 0.684013
730 5.78108 7.72479 4.03345 -0.131916 -0.679256 -0.334821
3840 5.17972 8.59444 3.80956 0.231226 -1.46668 -1.78151
3957 6.92167 8.11896 3.15717 -1.59182 1.00793 -1.40822
106 6.10056 8.69357 3.17362 0.877313 -0.747502 0.173071
164 6.70117 8.68324 4.1247 -0.470079 -1.44257 0.0308003
1420 8.87961 8.89638 3.30723 -0.999245 -0.312818 -0.307862
1752 7.85428 8.33643 3.58348 -1.12655 0.280327 -1.94747
1106 8.85897 8.37171 4.23378 -0.0767149 -0.0125597 -1.66123
689 9.37131 7.48508 3.98438 0.374433 -1.06097 1.42106
3884 9.78595 8.37168 3.23946 -0.951389 0.915592 1.09068
3183 10.5952 8.86934 4.21545 -0.652833 -0.789719 0.917665
2797 11.8842 8.47114 3.75367 -0.372244 2.1497 0.268865
1453 10.8191 8.11613 3.58246 -0.684477 -1.3131 -2.67554
1433 13.1078 8.89434 3.13873 -0.263079 -0.234596 0.809687
671 12.5788 7.77871 3.34797 1.18851 -0.424163 -1.37513
2247 13.5013 7.67016 3.92746 0.0632181 1.17724 1.14451
3476 14.0243 8.53578 4.21768 0.434206 0.219504 -1.27006
2752 15.0772 8.1754 3.39503 1.17838 -0.182396 1.13949
2852 16.3126 7.66707 3.12931 -0.818764 -0.641811 0.0904239
526 16.3173 8.54098 4.27337 0.883247 -1.30801 -0.9495
1042 1.42665 0.782771 4.62624 0.409947 0.161438 1.37609
363 0.111901 1.47891 5.04637 -0.941622 -0.925606 -0.673023
3072 2.03451 0.773059 5.77903 1.12223 1.18153 0.493443
1364 2.30238 1.42148 4.83248 -1.50216 1.47209 -0.228768
1550 3.65041 0.743409 5.14948 0.775937 -0.321984 1.27497
3444 4.60306 0.772465 4.59723 -0.190242 -1.20649 -0.0986371
277 5.3247 0.247858 5.15632 0.0650665 0.435989 -1.41062
2972 4.95226 1.16124 5.84912 -2.3803 -0.105192 0.145922
2837 6.44398 0.579444 5.40232 -1.71055 -0.632825 -0.479638
3989 6.6785 1.45883 4.75697 -0.13162 -2.47409 2.65418
2065 7.6694 0.517724 5.38551 1.13351 -1.29101 -0.111905
2535 8.82274 0.751909 5.79546 -0.802262 -1.03756 -0.450044
1604 9.15451 0.595774 4.83405 -0.670978 1.44385 -0.390624
2347 10.0577 1.44456 4.707 -0.951117 -1.73728 0.34763
2270 10.4469 0.409994 5.14824 1.03975 1.73233 0.08275
842 11.8972 0.718281 4.63665 0.906466 -1.87749 -0.030512
2788 12.9995 1.27404 5.80858 1.18964 0.00662288 -1.06231
1486 14.4037 1.39941 5.66161 -0.408558 -2.09468 0.471258
1084 13.8349 0.176914 5.78136 -0.241056 -0.938187 0.186352
2039 13.8612 0.758199 4.98993 1.43353 -1.26248 2.37004
2303 14.8799 0.487857 5.5086 0.428436 0.981941 -0.382076
2917 15.2484 1.12596 4.67667 -0.685453 0.883222 0.859736
1636 15.6651 1.19993 5.75399 0.0444126 0.509479 1.8456
1875 16.9547 1.10518 5.12334 2.15121 -2.28215 -0.070082
1180 16.4026 0.424149 5.77426 -0.4965 0.107396 -0.117303
2242 17.7126 0.328244 5.23552 0.190069 -0.194136 0.295076
1157 1.00953 1.52051 5.42271 1.12431 -0.353529 0.652987
3745 0.597642 2.35988 4.82514 0.467452 0.851932 0.644321
901 2.17822 2.5938 5.07862 -0.0121407 -0.594343 -0.0955279
705 4.15811 2.38818 5.25248 -1.22074 -1.32499 0.39476
2137 3.21076 1.97644 4.65578 0.749682 0.777681 -0.251699
2441 3.20756 2.74442 5.48111 0.422445 -0.422156 -1.4006
2268 5.5367 1.60638 4.87404 -0.441862 -0.106966 -0.264915
2064 5.1328 2.33655 5.76465 -0.0905972 -0.642528 -0.123621
1049 5.71018 2.72028 5.13634 0.406275 -0.878246 0.52504
1657 7.02807 2.66699 4.79978 -1.67037 0.563279 2.48489
1101 6.36085 1.68903 5.65745 0.443357 -1.85352 1.19455
2167 7.48388 1.92798 5.40934 0.0561557 0.745059 0.878488
666 8.31531 2.54662 4.87677 -0.625294 -0.264375 0.482047
387 7.76311 1.578 4.48204 -0.64472 1.45201 -0.134471
2489 8.68683 1.74466 5.38228 -2.00872 -0.831097 -0.202444
1392 9.1927 2.91976 5.40805 0.912463 -0.795445 0.0323475
217 10.1679 2.48251 5.425 0.62665 -1.00585 0.727338
1087 9.58958 1.62973 5.93015 -1.35228 -0.471189 -0.0729442
266 9.24977 2.20081 4.64376 0.571262 -1.13083 -1.6941
1675 11.0718 1.49743 5.78449 -0.192327 0.245694 2.14072
1077 11.2541 2.34799 5.26888 -0.466077 1.14245 0.276705
2840 12.0537 1.74694 4.60007 1.87909 1.24901 -0.428556