ITEM: TIMESTEP
78000
ITEM: NUMBER OF ATOMS
4000
ITEM: BOX BOUNDS pp pp pp
0.0000000000000000e+00 1.7878070701931353e+01
0.0000000000000000e+00 1.7878070701931353e+01
0.0000000000000000e+00 1.7878070701931353e+01
ITEM: ATOMS id x y z vx vy vz
3854 0.959238 1.09999 0.985026 -1.18596 -0.996368 0.116788
834 0.730487 0.0983667 0.309324 1.06662 0.860089 2.56521
2085 2.31243 0.66295 1.38963 0.39819 -0.609256 -0.48796
397 1.66714 0.591341 0.407353 -1.65052 -0.342448 -0.0275136
2044 4.19465 1.11507 0.103819 -2.39749 0.331105 -1.09313
3489 4.04647 1.05169 1.14794 -1.606 0.088922 0.535189
1510 4.35715 0.142373 0.335157 -0.79315 -0.279422 -0.100055
1055 3.2704 0.0749689 0.578155 0.406496 0.829062 -0.260984
3263 5.15483 0.754355 0.988284 0.306063 0.674185 0.40577
691 6.02183 0.745392 0.488768 0.221162 -0.941653 0.445082
3980 6.84285 1.22721 0.899216 -0.454941 0.663004 -1.6842
1694 6.54317 0.134169 1.36105 0.880507 -0.328292 0.391788
3477 7.85286 1.02734 0.906051 1.06372 -0.485854 -1.85472
3342 8.89308 0.574929 0.495932 -1.15333 -1.08748 -0.773761
2646 9.93968 0.482967 0.0188296 -0.814029 -0.350185 -0.364172
2556 9.72313 0.727406 1.08902 -0.839573 -1.24378 -0.887969
2565 11.7147 1.13771 1.3048 -1.91973 1.36703 -0.564645
569 10.9906 0.615487 0.508656 -1.38037 -0.367883 -0.439464
210 12.4005 0.25509 1.16616 0.202935 -0.429661 -0.325808
1100 13.1967 0.891437 1.24275 -0.555552 -1.17356 -1.19048
1651 12.2295 0.723451 0.294067 0.244263 -0.237646 0.136819
3343 14.2017 0.606781 1.46461 0.504215 -1.45385 1.56571
1615 16.075 1.10083 0.241 0.353883 0.986031 0.258451
1475 14.9644 0.808737 0.646996 -0.535683 0.922829 0.71998
638 15.8852 0.0812999 0.724446 -1.14182 -0.718997 0.774201
2199 17.6112 0.648233 0.717163 -0.680839 -0.530036 -0.456512
3175 0.937677 2.09797 0.99723 -0.117316 0.159623 0.706632
3685 2.65699 1.72078 1.32453 -0.910206 -0.142494 0.912302
3761 1.74915 2.82505 0.598564 -0.047974 0.0955557 -0.335198
1459 1.96166 1.67863 0.374826 -0.146484 1.89405 -0.358966
555 2.78481 2.26396 0.292906 -0.761375 1.28076 -0.493422
2154 3.69084 2.2721 1.03603 3.49672 -0.740816 0.363537
2882 4.65991 1.81369 1.38794 -1.33731 -0.0397861 -0.519971
2448 5.67382 1.66776 0.844937 -1.53785 -0.518634 -1.3599
3557 4.94881 2.32767 0.440788 0.899671 -0.102684 -0.46794
1386 5.55657 2.70508 1.35026 0.963463 -0.292205 0.139296
640 6.52157 2.4217 0.230806 0.673595 1.18848 -0.38298
1285 6.48916 2.15319 1.29872 1.26927 1.14285 -0.852191
1234 7.48188 2.28405 0.849031 -1.55768 0.711857 0.553518
177 8.41321 1.65274 0.278711 -2.24901 -0.152489 0.706106
381 10.2154 1.66954 1.18277 -1.1556 -0.167027 0.457137
1666 9.00578 2.64894 0.280341 0.455864 -0.449784 0.52748
2776 9.4113 1.59655 0.434512 0.153409 0.487569 1.33098
2134 10.0801 2.42404 0.121409 -0.493136 -2.0771 1.09358
3264 11.4698 2.47875 0.434004 0.100171 -1.59791 0.581183
1411 11.4101 1.4948 0.292768 1.05178 -1.32728 -1.08207
1758 12.5478 2.75061 0.479488 0.25502 0.388685 0.192602
2730 12.527 1.66644 0.739651 0.337443 0.350701 0.390595
3838 13.5192 2.91265 0.84212 -1.87655 -0.152177 1.62469
3628 13.5497 2.01108 1.45781 0.240699 0.21345 0.837495
3282 14.5163 2.63768 1.14929 0.472989 -0.0319921 0.701346
2585 14.2428 1.80423 0.479123 0.423413 -1.31346 -0.65264
1329 14.4579 2.7941 0.190829 1.08276 0.846029 0.991756
1060 15.3504 2.09492 0.428727 0.284262 -1.59271 -0.511879
883 17.291 2.2432 0.184348 -1.22847 -0.122077 0.442435
1051 16.8718 1.58231 0.89609 0.39457 -0.803262 -0.146924
3305 17.6881 2.87511 1.06999 0.288245 1.5148 0.287893
116 17.8201 1.79169 1.40309 -0.0446039 0.686827 0.469519
1483 16.4702 2.71585 0.737994 1.89848 1.27644 -0.259028
273 0.623423 3.54943 1.3505 0.0521321 1.17722 -0.425832
1725 0.512436 4.44823 0.903834 0.160217 0.321343 -3.17493
2032 0.932609 3.30144 0.0683961 -0.986635 1.37054 -0.50801
699 1.53326 3.86437 0.929966 -0.428619 0.272475 1.72825
2740 3.18071 3.17838 0.731081 0.0580684 1.8303 -2.23575
2870 3.70126 3.92705 1.27326 0.090043 -1.75265 -0.261489
86 4.12029 3.11213 0.331699 -0.391233 1.19585 1.07859
2764 4.51439 3.19734 1.22928 -1.0817 -0.348487 -0.104733
2647 5.32274 3.41371 0.343695 -0.0324916 -0.363311 -2.18765
2238 4.70346 4.42419 0.480683 0.379964 0.31609 0.780932
893 7.21652 3.6668 0.696105 -0.286664 -2.3647 -1.46685
1257 6.25655 3.45318 0.843595 0.21563 0.3695 1.27021
3871 8.21142 3.10666 0.927523 0.483853 -0.721962 0.0298472
963 8.23815 3.99805 0.681067 -1.15265 0.667381 0.0616323
2061 9.56602 3.9157 0.406675 1.51616 0.905091 0.223701
296 9.1811 3.34269 1.28965 0.189713 -1.40688 -0.268373
2910 11.7656 4.04933 0.187263 0.00470204 -0.910952 -1.70089
3882 11.0994 4.19669 1.41795 -0.0791741 -1.20854 -0.795514
2535 10.6583 3.6477 0.652446 -0.381397 0.802446 -1.15666
350 11.7491 3.49482 0.970749 1.21271 1.45491 0.234637
1172 12.8985 3.66798 0.236425 0.751352 0.433354 0.00177558
993 14.0945 3.79083 0.4044 -1.03996 -0.0374265 -0.72419
108 13.5349 4.39597 1.24809 -0.378053 -0.14032 -0.737066
2304 15.441 3.33484 1.01085 1.48637 -1.66782 0.531186
741 15.1622 4.43869 0.499258 0.410067 0.400448 -1.34425
2968 17.8676 3.60114 0.164876 -0.195084 1.68321 -0.348843
3717 17.3823 4.06098 1.04837 -0.57927 -0.244384 -1.18613
1771 16.5032 3.88772 0.533203 -0.0400372 -0.0560645 0.944429
125 1.38988 5.10049 1.38906 1.23763 0.126674 1.88333
3111 1.42917 4.80932 0.276123 -0.991542 2.85264 1.76136
489 2.5764 4.70107 0.0399926 0.92487 1.58973 -0.49207
3587 2.80351 5.76332 0.917302 0.00227699 -1.83702 -1.16779
3727 1.50717 5.89572 0.469471 -1.42712 1.55365 0.681081
3641 3.296 4.81751 0.897415 0.160358 -0.102144 -1.31965
3181 4.07464 5.21158 0.0725612 -0.819356 1.24106 0.632453
1588 5.62359 4.80373 1.26257 0.126121 -0.0531749 0.259317
1192 4.8997 5.4449 0.781319 -0.995906 0.794808 -1.23161
3876 6.33419 5.83131 0.271625 0.890591 -0.634735 0.00987971
10 6.51779 4.77924 0.344534 0.256423 -2.20794 0.299129
2849 7.66604 5.01058 0.646636 1.32807 -0.652819 1.19449
2747 8.90872 4.74309 1.21015 -0.0733235 0.407041 -0.0205095
3092 8.26222 5.3896 1.41312 -0.0628262 1.78388 1.4863
1406 8.47537 5.85802 0.435095 -0.318248 1.91824 -2.19522
256 9.36173 5.01855 0.282048 -0.0210715 -0.959667 0.582542
3416 10.2376 5.62806 0.931155 0.133794 0.432996 -1.25615
2331 9.25247 5.90477 1.3694 0.444865 0.427733 0.589133
2873 12.4953 4.56544 0.871538 -0.217223 0.702959 -1.35191
436 12.4652 5.69912 0.974309 0.632805 -0.335065 0.251987
1861 14.177 5.35385 0.843518 -0.800153 -0.116039 -0.588559
1663 15.1997 5.25517 1.39696 0.236942 -0.512651 -0.230187
2678 15.9746 5.50291 0.197865 -0.147849 1.1652 0.773847
930 16.3449 4.80067 0.792398 0.251032 0.31834 0.905711
690 16.6893 5.89454 1.18974 1.0474 -0.72303 -0.011824
2663 17.3551 5.23185 1.01916 1.51026 0.640752 -0.212352
1393 17.6387 4.54617 0.11759 -0.318767 -0.802782 -0.710106
1983 17.4836 5.72016 0.00811321 0.611467 0.942186 -0.00181567
2007 1.22598 6.9038 0.656743 -0.407493 0.998424 0.363975
2467 0.288123 7.41011 1.46001 0.63599 -0.398676 0.301897
2618 0.499827 6.00245 0.454637 0.0893772 -0.151119 1.6421
1452 2.1302 7.27237 0.99187 -0.161403 -0.779208 -2.19522
1688 2.71163 6.66991 0.466495 -1.02234 1.26467 1.73135
1611 3.90082 7.34118 0.372967 -0.055518 1.75599 -2.22322
591 3.85635 5.97118 0.829209 0.637175 -0.512737 0.860751
276 3.10653 6.91181 1.39515 -0.0347804 0.867677 -1.99525
1972 5.5471 6.37308 0.762096 -0.0951883 0.258732 -0.940285
2852 4.63504 6.33178 0.142217 -1.1818 -1.03654 1.13046
2212 6.60485 6.69261 1.05898 1.10826 -1.48267 1.00819
1309 7.31331 5.96103 1.02694 1.27399 -0.700261 0.00764344
693 8.00382 6.69893 0.106297 -1.14954 -1.52531 -0.306177
20 8.11256 6.87897 1.33743 -0.327805 1.11791 -0.243635
3058 9.26977 6.4086 0.181945 0.582268 0.737734 0.0287522
481 10.1005 6.67711 0.792144 -0.101803 -0.452393 0.224612
2786 11.0415 6.1141 1.3935 -0.538432 0.894535 -0.781229
696 11.6801 6.99065 0.751765 0.908927 -0.346259 -0.410396
3271 13.0631 6.2088 0.110167 0.894826 -0.0929805 0.888932
128 13.1588 7.06039 1.1589 -2.00283 -0.422203 0.146892
1159 13.7579 7.14657 0.13541 -0.424125 -1.37859 -1.40924
167 14.2278 6.86795 1.04137 1.81573 0.460733 -1.66667
3638 15.978 6.90792 0.188063 0.213765 -1.2045 0.265015
181 15.2149 6.23156 0.813318 0.22967 0.183163 0.119667
2752 15.8873 7.41563 1.23543 0.224902 0.303493 0.36564
2602 17.7018 6.82756 0.242262 1.1924 -0.363138 0.849847
95 16.9511 7.35277 0.705098 -0.435923 -0.605317 0.184963
357 17.5938 6.51742 1.26053 -0.577943 1.66086 -0.558751
3777 1.20896 7.86299 0.882189 -1.70757 -0.780982 -0.666772
1992 0.0817789 7.96451 0.518189 0.30311 0.204336 2.3299
2875 0.690827 8.62792 1.04361 0.395984 0.621822 1.47055
1369 1.61113 8.5639 0.0956355 1.09885 0.0833248 0.178069
3682 2.23725 8.38689 0.973089 0.806231 1.0352 0.767173
3159 3.64393 8.30644 0.726957 1.06784 1.27165 0.214199
3322 4.5157 7.96879 1.36913 2.03872 0.461545 0.092739
1876 5.40446 8.51686 0.967255 1.28035 -0.695305 1.70454
885 5.92267 7.63852 0.440172 0.441748 0.129 -1.06519
3820 7.24139 7.6289 0.728289 1.33496 -0.37505 -0.622802
2404 6.32878 8.22842 1.4764 0.837863 1.86004 -0.829417
23 6.16449 8.63787 0.203865 0.345202 -0.629194 0.849665
1440 7.29015 8.44764 0.160473 -0.126643 0.221221 -1.32173
1488 8.31178 8.15856 0.703919 0.358619 -1.02275 0.984418
2453 8.99667 8.49055 1.43298 -0.850596 0.478641 1.22016
3345 9.13261 7.46202 0.712189 -0.4831 0.347784 -0.232668
3866 9.05509 8.31157 0.00113551 -0.389507 1.19227 0.620229
2856 10.9464 7.63507 0.97109 1.08922 2.46081 -0.723433
2187 10.5163 8.81651 1.05619 -0.153197 0.433692 -2.53863
1770 11.5626 8.56146 1.1038 0.0775049 -0.313286 -0.722678
2588 12.7154 8.87306 0.83097 -1.20985 0.094807 0.404389
3931 12.3815 7.87503 0.77301 -0.402248 -1.10062 0.710862
1162 13.5898 8.40237 0.518318 0.0698475 -0.559963 1.1206
3357 14.4357 7.95193 1.23344 0.324 1.29126 -1.09828
1228 15.0568 7.56746 0.54691 0.298311 0.628696 -0.662097
1733 15.2798 8.67313 0.91447 0.449831 -1.21542 0.431853
3278 17.2501 8.35537 1.1125 1.15433 -1.02789 0.221549
1151 1.17747 0.283326 2.73436 -1.24687 -0.172172 2.10374
64 0.251831 0.282276 1.94502 -0.708519 1.20841 -0.116826
3129 1.34886 0.344912 1.67406 1.19399 -1.53521 -1.94235
2209 0.753347 1.23454 2.31975 1.05591 1.17805 -0.000548375
2969 2.32273 1.08202 2.38696 -0.743604 2.01537 0.771306
746 4.09134 0.108231 1.62524 -1.0419 1.15851 -0.613744
3072 3.93165 0.650962 2.64553 -0.643447 -0.574194 -0.0485396
3967 3.28711 0.859766 1.89997 1.20356 0.816629 -1.41923
906 5.93932 1.05262 2.65888 0.956318 0.65223 1.30781
2594 4.91691 0.711839 2.12826 -0.38523 1.19419 1.60788
2435 7.43851 0.370193 1.68921 0.0789267 -1.02286 -0.912132
2996 6.01414 1.13795 1.5851 0.390065 -0.725886 0.539528
465 7.09011 1.31952 1.91339 1.41592 -0.0420648 -1.23718
3130 7.29152 0.419874 2.68647 2.02507 -1.0906 1.08838
3668 8.6714 0.844347 1.64074 -0.29473 0.750795 0.581557
2823 8.18095 1.31124 2.63202 0.82339 0.635151 0.822761
1653 8.22715 0.0104628 2.36876 1.81027 0.0809781 0.417787
3232 9.53568 1.40412 1.97437 1.25978 -0.297158 -1.67188
3658 9.28432 0.23558 2.32658 1.20411 1.96919 0.866693
2927 10.2843 1.1362 2.84367 -0.373194 -1.53954 0.245727
2189 10.5021 0.886425 1.71886 -0.789007 -0.39042 1.09248
3887 11.2255 1.33182 2.40737 -0.392055 0.58768 -0.979722
1545 10.6731 0.0462511 2.69944 -2.08346 0.112514 1.89942
1071 11.5081 0.334279 2.06352 -0.14208 -0.163633 0.235619
2979 12.4288 1.40754 2.11765 -0.54431 -0.540101 0.87715
122 12.4208 0.474834 2.48365 0.820217 0.846967 1.03707
2636 14.6704 0.971968 2.66014 -1.38607 -1.82768 -0.310422
3201 13.9881 0.0361199 2.90149 1.47128 -1.49794 -0.441626
3749 13.6387 1.1403 2.33301 0.867436 0.0193601 -2.16428
2635 16.0047 1.46524 1.57009 -0.930707 0.511745 -0.0147451
2897 15.7139 0.378075 1.74078 1.80859 0.0332824 -1.18409
871 15.2302 0.0207474 2.52449 0.468438 0.343463 -1.59067
904 15.7567 1.07006 2.57326 -1.3705 -0.989449 -1.621
2469 16.4972 0.411098 2.61354 1.19609 -0.345601 0.963858
3785 17.1223 0.800167 1.70517 0.301113 1.11245 0.583891
453 17.6479 0.998031 2.6417 1.78902 -0.682883 -1.272
3300 1.1449 2.74305 1.87016 -0.478458 -1.35207 -0.164813
781 1.43668 2.1711 2.83877 -0.537164 -0.343007 -1.1378
2176 1.58575 1.62647 1.82876 0.134062 -0.573922 -1.77741
351 2.20225 2.62953 1.58233 -0.512893 -0.5224 -1.4825
1014 2.50668 2.1427 2.51418 -0.0469237 1.65381 -1.09047
564 3.50349 2.76554 2.25635 0.043056 0.173032 0.474088
3809 3.44989 1.81112 1.98206 1.35785 -1.17911 -1.57683
3469 4.36376 1.65888 2.72328 -0.943462 0.471956 -0.427306
1589 4.48782 2.80799 2.23971 0.489935 0.566223 0.890303
1948 5.26823 1.93017 2.24808 0.917504 -0.874544 -0.391008
1480 8.41562 2.44636 2.70065 -0.433666 -0.42056 -1.11278
205 7.74099 2.41842 1.98372 -0.703508 -0.1878 2.92485
1115 10.2475 2.10086 2.33021 0.428752 0.643682 -1.42841
898 9.10813 2.45413 1.76162 1.12044 -0.867815 1.15033
501 10.1842 2.95291 1.51849 0.914025 -2.09048 -0.346636
1131 11.6029 2.19246 1.51106 -0.996919 0.394106 -0.155767
1124 11.8501 2.16279 2.81296 -1.73251 1.03462 -0.657004
1279 12.1886 2.96403 2.09486 -0.352297 -1.05819 -1.3806
3081 14.5577 1.56917 1.63905 0.221151 1.4547 0.254098
2695 13.7936 2.87067 1.92153 -1.61222 -2.06183 2.76222
541 14.3397 2.17399 2.80335 -0.4541 -0.494851 -1.02096
226 15.5008 2.34376 1.55429 1.07629 0.852774 -0.931476
2080 15.8408 2.32125 2.74699 0.265825 -0.786039 -1.52973
2407 16.7999 1.70008 2.50308 0.106321 2.02611 0.329806
3424 17.7852 2.05772 2.44135 -1.59833 0.112906 0.94982
1640 16.9488 2.69834 2.86699 -1.74172 1.6062 1.5556
3419 16.5476 2.4423 1.76829 -0.123546 1.04234 0.929551
608 0.958406 3.69864 2.37431 -0.848635 0.235132 -2.03228
2262 0.111531 3.7395 2.86979 -0.456572 -0.240347 0.628605
3260 2.70796 3.9122 1.59572 -0.327671 1.78195 -0.112564
1894 1.67939 4.2091 1.88987 -0.633353 -0.263687 0.951096
2069 2.08777 3.27141 2.3425 0.587374 1.34973 0.479443
2723 3.03729 3.65706 2.68121 0.590849 -1.84574 -0.204284
2713 4.04415 3.76538 2.39022 -1.82554 0.92367 0.944345
3656 5.31083 3.27748 2.48441 0.312845 0.142134 -0.206591
3208 4.94461 4.03897 1.66604 0.911874 0.995348 0.384879
2712 7.02536 4.3443 1.74861 1.87191 -1.53332 -0.310069
3431 7.25414 3.14581 1.52407 -0.837826 -0.30445 0.614547
3721 6.23698 3.0094 2.1127 0.00525783 -0.494005 -0.372547
208 6.0691 4.09465 2.31845 1.83733 -1.12846 -0.304462
3064 7.17628 3.70171 2.72905 1.48709 0.860329 -1.30464
2793 8.02386 3.91729 1.92807 0.522971 0.878056 -0.0829315
2907 8.68889 3.51891 2.61661 -0.158643 -0.383837 0.235144
3476 9.70332 3.53443 2.44656 1.73131 -0.418487 -0.0737362
234 9.91349 4.29611 1.50522 -0.163609 1.47995 1.02368
2060 10.4156 4.23898 2.74347 -1.22573 -2.09836 0.428822
3319 11.143 3.20598 2.01047 -0.318758 -0.445604 -2.12974
931 11.4883 4.12688 2.40192 1.25056 0.118101 -0.936262
667 12.628 3.72068 1.52893 -0.402055 2.08311 0.753501
1313 14.8125 3.00602 2.22374 -1.98726 1.16901 0.345222
2396 14.2569 3.65452 1.49091 0.239737 0.0219291 -0.0592381
3086 14.6879 4.22504 2.83238 0.170809 1.34566 0.64094
585 13.6207 3.87749 2.46109 -0.25314 0.599508 0.512318
1135 15.1748 4.27796 1.50347 0.184646 -0.59001 -0.552116
1937 15.5869 3.92581 2.43024 0.63884 1.96306 0.70222
786 16.3907 3.5366 1.60782 -1.39694 0.51867 0.0656121
2421 17.5837 3.42862 1.97946 -1.35824 -0.518152 0.147339
2624 16.6683 3.98438 2.52685 -0.898249 -1.10238 -1.23109
3355 1.46697 5.31562 2.62916 0.85479 0.0892506 -0.168533
1096 0.41207 4.71392 2.30844 -1.0161 -0.0519895 -0.496103
2147 0.204989 5.77341 2.55003 -0.91518 -0.0105212 -0.43185
1290 2.48442 4.92057 1.74242 0.298813 -0.685684 0.947913
528 2.382 5.67733 2.43016 0.355995 -0.28602 -0.693049
2962 2.33337 4.64375 2.72587 0.439239 -1.45173 -1.18158
1926 4.26793 5.07567 1.62902 -1.18037 -2.03945 0.704729
2433 3.22911 5.91911 1.77691 -0.0338733 -0.585922 0.825019
445 3.26803 4.73155 2.77746 0.850794 -1.39207 0.50234
3907 3.70329 5.82053 2.81361 0.271924 -2.43725 -2.08796
708 5.44636 5.09285 2.2269 -0.111808 0.851102 -0.42782
1550 4.5864 5.33973 2.74442 0.628628 -0.0918567 1.45947
140 5.83123 5.85802 2.97215 1.59693 1.15963 -2.46621
499 6.2562 5.70823 1.8324 -0.137677 -0.304729 1.87719
3084 7.25438 5.42645 2.00933 0.175305 1.08348 -1.56851
343 8.20473 5.43753 2.59127 -0.0767465 -0.806047 -0.320927
120 9.20474 5.17063 2.12506 -1.43307 -0.227675 1.07163
1617 10.2314 5.27469 1.91599 -1.01736 -0.741305 -0.497254
3640 11.6037 5.12558 1.65023 1.44388 2.54666 0.797485
729 10.981 5.16809 2.92365 -0.898752 -0.539151 0.0278846
623 12.1791 4.9959 2.93543 0.319631 0.0907863 -0.36842
1840 12.7029 4.98083 1.97255 0.0270539 -2.23578 1.22902
790 11.9506 5.87187 2.40061 1.80329 0.329703 -1.3074
726 13.4669 5.37767 1.55849 0.790185 0.11778 0.820014
2351 14.2695 5.87077 2.89764 0.806394 1.34019 -0.518387
789 14.2878 4.76597 1.84616 -0.060415 -0.155855 0.809057
2163 15.0935 5.39407 2.36916 -0.00299218 0.212561 1.22187
3388 16.4236 4.89235 1.98693 -0.19077 -0.346464 0.480298
2784 16.968 5.80411 2.36556 -1.22979 0.451086 -1.50431
354 1.28994 6.06008 1.5422 0.47844 0.94186 -0.572338
800 0.828444 6.75257 2.24761 2.55972 -0.999371 1.03529
1892 1.33196 7.40737 2.84609 -0.645161 -1.2424 0.0652144
3156 2.18975 6.55779 1.91603 -1.06419 -0.408834 -0.44461
2892 4.08317 6.73354 1.85851 0.303783 0.103198 -0.25718
1366 2.99682 6.74587 2.68278 0.325297 0.0979448 0.231738
3374 5.07863 6.89277 1.51362 0.527269 0.0573649 0.90931
372 5.21996 6.01119 1.86699 -0.81768 -0.422627 -0.0901714
742 4.94881 6.99648 2.55429 -0.243317 1.23393 -0.326537
2008 7.10531 6.48071 2.06235 1.41042 -1.19924 0.937328
425 6.02972 6.92444 2.06067 -1.01324 -0.839394 0.346171
2402 7.60269 6.21813 2.97571 1.68758 -0.358215 -0.599536
791 9.95992 7.34665 2.95052 -0.0670152 1.01743 0.942519
2949 9.9754 6.75105 2.07353 0.306514 1.45407 -1.30583
405 10.5192 6.01743 2.72124 0.328443 -0.26319 -1.69273
1237 10.9437 7.09851 2.13625 1.66171 2.18052 0.328572
2851 12.0768 7.01523 1.92514 -0.287053 1.73708 -1.70661
538 14.4647 5.96399 1.67174 -0.386149 1.21581 -2.10168
575 13.6613 6.32901 2.08201 0.705734 0.320067 0.481339
2416 13.8125 7.33913 2.00246 0.850687 0.810494 0.989742
262 16.1647 7.33025 2.43875 1.28004 0.501356 -0.0437439
2167 16.1995 6.46966 1.86928 -0.966751 -0.462863 0.841436
3106 15.0526 6.9048 1.66569 1.10325 0.266681 -0.671483
190 15.2262 6.31647 2.74009 -0.155845 -0.275195 1.57061
1616 0.823483 8.31131 2.2846 1.12537 0.506395 -0.534371
1828 1.72466 7.8386 1.84957 -0.0382068 -0.0438085 1.10248
28 2.81663 7.78468 1.94328 1.07382 -0.796395 0.217296
3703 2.1741 8.51606 2.73635 -0.561729 -0.078099 -0.340218
382 3.17395 8.70917 1.95213 -0.128747 1.32293 -0.0322011
1354 3.7532 7.77177 2.27903 0.204851 1.35835 0.687639
3474 4.49979 8.93643 1.65971 -0.116885 1.02075 1.39811
3690 5.35811 7.99921 1.97926 -0.573914 -1.31024 1.38124
2947 7.22273 8.54614 2.82558 0.538491 0.0950215 3.12261
2528 6.94519 7.5374 2.25263 -1.21521 1.36548 -2.20523
3811 6.01886 8.47624 2.83058 0.620477 1.40401 -0.202013
1810 7.75744 8.04755 1.70196 -0.727045 -1.8204 -1.57983
280 9.14797 8.20301 2.36676 -1.46495 -1.0256 -1.24618
3715 10.2964 8.11327 2.03914 -0.533405 -0.580518 -0.105431
3765 10.7589 8.54595 2.83687 0.887644 -2.573 -1.0362
1170 11.8617 8.07484 2.01574 0.0356939 0.526678 1.06264
360 13.2102 8.05963 2.11585 -0.0206812 -0.0321339 -0.622366
669 12.2618 7.48987 2.8208 -0.0155703 0.0400444 -0.788802
1603 14.1398 8.74374 2.63762 -0.725897 -0.180622 -0.897396
3551 16.007 8.18636 1.87158 0.604831 0.26932 -0.894536
3832 15.1534 8.07038 2.38063 -1.4384 -0.199115 2.50844
1636 17.2128 7.45824 2.14206 -0.31135 1.23392 0.964731
423 17.3692 8.5925 2.04138 0.631369 2.05919 -0.00548971
2431 17.8477 8.01255 2.86415 -2.0058 -1.20748 -1.1326
2295 0.501821 1.37703 3.74549 1.76309 -0.448787 0.210202
3109 0.50712 0.117936 3.74147 0.809371 -0.115638 -1.87528
1537 1.57714 1.28381 3.29691 -0.488378 0.980875 -0.0363612
3625 2.4671 0.867972 4.06722 0.322289 -0.749151 1.5933
2868 2.43421 0.451394 3.12919 0.208402 -1.25859 0.108129
159 1.6261 0.312463 3.9346 -0.845076 1.01106 -1.98531
2718 3.44611 0.455417 3.84802 1.2293 -0.0228585 -1.40546
662 3.36084 1.46243 3.06492 -1.01452 0.336538 0.879108
2366 5.1007 0.949363 3.45234 0.235085 -0.181261 -1.25351
1448 4.87175 0.12112 4.08968 0.098527 -1.97342 -0.84005
132 7.15824 0.488528 4.33341 1.6864 1.17108 1.11615
27 6.84379 1.11319 3.2836 -1.17999 -2.00677 -1.9688
3289 6.06541 0.890177 4.042 -0.692495 0.421798 0.791049
524 8.06295 0.046114 3.52765 -0.565157 0.356909 1.23086
823 8.54016 0.46843 4.46744 0.441174 -1.01841 -1.10104
3093 7.78994 1.36522 3.9467 1.33022 -0.609975 1.86375
3333 9.26201 1.19715 2.99293 0.0546077 -1.33818 -1.33531
3754 10.0249 1.33221 3.99769 0.155638 0.778249 0.524823
447 9.22127 0.389738 3.54237 -0.242477 1.2668 0.456414
1069 11.2544 0.999455 3.41255 -1.76279 -1.3412 -0.6529
2552 12.2538 1.16191 3.24499 0.714972 2.24871 -0.957478
3578 13.7694 1.13597 4.01271 1.03141 -0.373625 1.08968
3352 14.7938 0.571033 3.82597 -1.53142 0.178609 -0.177242
2389 15.8068 0.496531 3.57897 -1.6276 1.23455 0.458078
1211 16.2342 1.45054 4.09539 1.46982 -0.0298802 -1.80189
2819 17.5577 1.16784 4.3771 -1.67298 0.269033 -0.168179
2661 16.8591 0.809993 3.57115 0.497192 0.179573 0.0356407
2648 1.23251 2.18013 4.05651 -0.0817916 1.18834 -0.471039
2861 0.254733 2.5078 3.3753 1.74316 -0.00912762 -1.22651
2775 2.60416 1.96083 3.5492 1.15048 0.0834238 -0.210037
2065 4.59965 2.76214 3.36538 0.927914 -0.392103 -0.698916
349 5.75593 2.04095 3.13243 0.0603737 -0.898629 0.587516
395 5.31748 2.54434 4.14306 0.0317625 1.0957 0.784232
1823 6.14718 2.94793 3.67406 0.798592 -1.02997 1.58811
2155 6.80941 2.06633 4.03179 -0.903689 -0.738126 1.45309
1150 7.47451 2.08192 3.04416 -0.186276 1.53728 0.36346
3905 7.85762 2.41488 4.46907 -0.26717 -0.598122 -0.0442935
1259 8.72297 1.93704 3.81839 -1.51177 1.37615 -0.0598243
3089 9.73429 2.25018 3.34892 1.39344 -0.0448089 -1.21812
3361 10.7953 1.95395 3.25752 0.945536 -1.38166 -0.26156
2397 11.1501 1.723 4.26197 0.660701 -0.162714 2.25742
1196 12.5102 1.60671 4.07931 -0.566883 0.888536 -0.734154
3099 12.1179 2.49147 3.78387 -1.41383 0.76384 -0.17722
3046 12.9088 2.34294 3.0174 1.11024 0.456712 -0.697368
1756 13.8061 2.38307 4.11697 0.759716 0.244428 -0.766272
1539 15.748 2.45284 3.83965 0.815905 -0.0337371 1.89463
1862 15.3382 1.55386 3.30102 0.813821 0.675353 2.45256
1438 17.1441 2.00327 3.90719 0.180215 -1.33259 0.700761
1271 1.01733 3.22996 3.43383 -1.32594 -0.36775 0.982587
1907 0.445048 4.03567 3.99449 -0.212162 -1.01522 -0.933058
3167 1.4775 4.27142 3.14595 -0.330552 -0.516727 -0.744989
2227 2.25134 4.22733 3.95387 1.48519 0.0252846 -1.12545
2345 2.01885 2.99039 3.51144 -0.58021 -1.8454 0.631398
1062 1.50244 3.79863 4.41539 -1.10948 -1.0655 -0.364175
2413 2.76423 3.26834 4.25829 0.838944 1.20268 -0.880507
363 3.56656 3.05061 3.33274 -0.263555 -0.693192 0.157333
1870 3.87436 4.09082 3.64868 -0.493815 -1.81032 -0.866873
2671 4.71669 4.18657 3.13543 -1.20238 -2.21152 0.893888
2895 5.63719 4.00494 4.2079 -0.705194 -1.01296 -0.759501
1776 4.54645 3.48474 4.18155 -1.23283 -0.331957 -0.617723
3679 7.1708 3.04843 3.66065 0.853238 0.598067 -1.07562
754 7.09292 4.18327 3.74037 0.552025 -0.327906 0.748561
2374 8.74418 3.03717 3.61212 0.784367 0.727411 1.03326
3033 8.09804 4.18586 3.4932 0.174265 1.1122 -2.49459
434 7.80426 3.62369 4.30499 -0.745279 0.0489402 0.207872
3001 10.3822 3.0698 3.11921 -0.805061 -1.46615 0.305107
3592 9.73784 3.9908 3.66932 0.186166 2.0344 2.29797
1835 11.665 3.17443 3.04433 -2.31691 -0.498194 0.249
2623 11.7409 4.09605 3.56821 0.105435 0.083881 0.568783
1206 11.1345 3.32744 3.94673 0.0531955 -1.44918 -0.240236
2750 10.6332 4.44383 4.10279 0.724679 -0.777988 -0.396717
3995 12.593 3.64678 3.18056 -1.00763 -0.0250835 -0.180464
450 12.8946 3.30192 4.29237 -0.491761 -0.947618 0.177162
725 14.0023 3.0466 3.32332 0.405479 0.211697 0.479964
2666 13.9378 3.70168 4.10574 0.360762 0.2651 0.0820898
1425 15.7274 3.91991 4.46872 2.3051 -0.942541 -0.637054
1650 14.9376 3.25964 3.86713 0.0206487 0.0445779 0.805443
707 16.8907 4.13573 3.61015 0.156569 0.119184 0.051867
522 16.4918 3.36014 4.0713 -1.22677 -0.436158 -1.18296
435 17.6175 3.21134 4.33036 1.28162 -0.492807 -2.58373
392 0.679856 5.90545 3.64372 -0.700769 -0.953877 1.0379
2682 0.12802 4.74061 3.3492 1.53557 -0.394273 0.0512279
3009 1.02478 5.00523 4.25259 2.23125 -1.29111 -1.96539
2198 1.86578 5.37426 3.62799 0.622436 0.9177 1.0412
2078 2.96153 5.09017 3.77551 1.14582 1.66535 1.53224
2914 3.21315 5.92508 4.2855 -0.558114 -1.5492 1.36531
1199 4.06078 5.3245 3.58872 -0.706531 0.474841 -0.894147
1541 5.66597 5.40244 3.85875 0.343317 -0.475819 -0.210701
1803 6.41553 5.03164 3.27785 0.169087 1.21538 1.05245
2972 7.65501 4.79429 4.31235 2.13988 0.808118 -1.05741
3330 8.49006 5.3265 3.84436 -1.19004 -0.264749 0.479574
689 7.50492 4.8342 3.00179 0.505802 -0.710553 1.86634
1820 8.98408 4.56692 3.12967 -2.58239 0.209431 0.102289
536 9.69367 5.1626 4.06008 -0.120388 -0.200602 -0.0968204
3821 11.5752 5.20125 3.89548 0.88463 -0.462205 0.0393527
1023 10.5433 5.68705 3.72751 -0.471982 0.548794 0.254479
222 12.9875 4.67063 4.15935 -0.739872 -0.332569 -0.856133
2141 13.1794 5.71549 2.97988 0.395965 -0.141097 -1.736
102 13.7306 4.51589 3.34745 0.448174 -0.175436 0.76375
3145 15.4056 5.53445 3.45096 0.450448 0.332736 1.14787
153 15.949 4.64254 3.24899 0.634654 -0.994998 -0.0287536
1492 14.9895 4.51787 3.83327 -0.252941 -1.22293 0.820624
684 15.7334 5.09545 4.29624 -0.219091 -0.236059 -0.43008
1024 17.5347 5.91409 3.61623 0.318427 0.920337 1.37815
772 16.9105 5.22561 3.41864 -1.31938 -0.523736 0.136408
279 16.6374 5.93578 4.31243 -0.813515 -0.936881 0.286949
3008 1.30401 6.37355 3.00218 1.74033 -2.86528 1.43677
2803 0.263054 6.98676 4.19085 -1.3841 -0.24317 1.71218
1282 1.15406 6.82356 3.92955 -0.311223 -0.522728 0.351466
2683 2.21372 6.34797 3.52063 -2.97627 -1.69377 0.368144
1084 2.76433 7.24543 4.07146 -1.43469 1.34635 0.542825
2739 4.03302 6.57699 4.06607 -0.0415464 -1.15672 0.632166
2833 5.15043 7.35408 3.70055 -1.67389 0.990469 0.238866
263 5.06541 6.08988 4.38981 0.381528 2.16098 -0.640726
1551 4.62185 6.22647 3.29326 0.813137 -0.757718 0.113482
3971 6.20175 7.00268 3.1548 -1.51394 0.265548 1.81152
109 7.09756 5.98271 3.91432 0.357818 0.130376 -1.18191
2541 7.39783 7.35738 3.51499 -0.599067 -0.160785 -0.55677
1381 6.08366 6.36722 3.98033 0.477314 0.440986 -0.896115
2553 8.1941 6.46372 4.00664 -1.66708 0.959475 1.34192
387 9.33598 6.00051 3.29712 -1.21868 0.638839 0.480005
428 9.20945 6.33343 4.40717 1.13225 -2.53439 1.31583
3835 10.2278 7.29122 3.93933 -1.572 -0.00348617 0.683562
1276 11.4241 6.57616 3.11848 -1.00672 1.54298 -0.793548
765 11.3784 6.38042 4.06084 1.51395 -0.540704 -0.721095
1063 12.6483 6.59009 3.28266 0.873422 -0.420944 -0.0419346
916 13.1493 7.33186 3.95399 -1.28123 -0.284394 1.10757
2516 12.3193 6.79429 4.34808 1.52113 -1.61707 1.27981
3752 13.7183 6.72546 3.32574 -2.71092 -1.32222 -1.59847
2188 14.5772 6.33242 3.80163 -1.25424 1.02733 0.354468
1844 16.3109 6.19303 3.20789 1.76411 -1.0158 1.25404
271 14.9905 7.25403 3.30344 -0.309838 -1.66851 -1.41235
2277 15.5729 6.50579 3.82595 0.719726 -1.37728 0.621915
2881 17.1731 7.14487 3.66322 -0.531927 -1.04721 -0.774939
427 1.02007 8.90858 4.28245 0.341644 -0.0477731 1.0255
337 0.92341 8.14933 3.5669 -1.79213 1.05547 -0.829359
869 1.83004 7.83289 4.02697 1.11213 0.964939 0.0208136
2495 2.61047 7.62143 3.03223 0.420901 0.273752 0.393119
3878 2.08588 8.89016 3.83818 -1.10391 0.174418 0.622466
2813 3.39818 8.61768 3.36738 1.21996 1.06337 -0.623044
242 4.09413 7.50002 3.49235 0.27991 0.199819 -1.20045
787 3.77879 8.16964 4.3367 0.781378 0.40477 -0.250053
2483 4.86802 8.29686 3.08633 1.24942 -0.339045 -0.104131
743 6.65305 8.62908 3.69502 0.182002 -1.38826 0.277932
1284 7.98368 8.44886 3.72481 -1.21401 -0.299087 0.545106
1885 8.35999 7.79939 3.08057 0.0890465 2.13616 1.42764
856 8.93844 7.54052 4.01553 0.0989916 0.280847 -0.320613
3515 9.71455 8.15871 3.746 0.14383 0.469085 -0.439195
2801 11.8768 8.62171 3.02781 -0.53184 -2.04613 -1.5213
2859 11.0583 8.79625 3.79654 -2.26549 -1.20343 0.509229
389 11.3054 7.62692 3.35734 0.305693 0.303142 0.136263
2373 12.1109 7.78539 3.8455 -0.0108952 -1.55637 -0.0872636
3982 12.9903 8.478 3.14072 0.709077 0.835908 1.49197
1422 12.8507 8.44193 4.26366 -0.174673 1.49951 0.960492
3415 14.719 8.38499 3.50756 -0.868801 1.40095 1.75258
2722 13.7373 7.74447 3.15988 0.15507 1.65052 1.62082
722 15.5719 8.06911 4.35187 0.763711 -0.308848 1.24245
3117 16.2075 8.29279 3.05188 -0.171497 0.409161 -2.18773
3124 16.4171 8.86571 3.9154 -1.38252 1.52195 -1.45443
736 17.8413 8.04897 3.99032 0.291114 -1.41899 -0.839292
2405 0.640143 0.709699 4.62688 0.876827 0.127572 2.67808
873 0.997916 1.36771 5.7285 -0.415794 1.25289 0.423739
600 0.702602 0.222847 5.69825 0.223456 0.0178251 0.674916
1690 1.91294 1.32952 4.76656 -2.08425 -1.45541 0.136002
3816 1.61696 0.416441 5.21522 1.01891 1.83179 0.135984
3240 2.90225 0.871628 4.91776 0.585638 -0.0625589 -0.0657793
2414 3.85621 1.43186 4.57538 0.595346 0.873389 0.824002
2876 4.15024 0.105207 4.78402 -0.551439 0.203226 -1.05483
305 3.64753 0.415445 5.71577 -1.05819 1.18511 -0.325519
1301 4.99921 1.29417 4.59145 1.01669 0.101156 -0.688734
311 6.66264 1.33225 4.79807 0.803545 -1.66752 -0.264041
2590 7.77527 0.785791 5.42353 1.12692 0.919797 -0.123801
3015 9.05408 0.13122 5.41514 1.04389 -1.77734 0.515154
1317 9.69528 0.514195 4.56484 0.12258 1.69772 -1.89293
3804 10.2841 0.0723856 5.46983 -2.08157 0.290049 -1.56969
3744 10.2519 1.35227 5.2374 -0.0609538 -0.0177129 0.669088
2657 11.8629 0.755181 4.7175 0.0302155 -0.0793761 0.355728
2285 10.7267 0.69207 4.59999 0.0859202 0.642697 0.678463
1147 11.491 0.852969 5.83407 -0.876404 2.29856 0.182332
1152 13.0217 0.957931 4.66639 0.530177 -1.90629 0.0775167
3986 12.484 0.389956 5.57475 0.931974 -0.179839 -0.478847
2551 14.5572 1.04785 5.77027 -0.342612 -0.372934 -1.29607
3051 13.8164 0.47458 4.99421 -1.20303 0.876708 -0.869226
2631 15.2924 0.999209 4.6783 -0.234066 -0.0132304 -1.03574
2703 16.693 0.508803 5.74739 0.898076 -2.12363 -0.806743
556 17.4957 0.310636 5.03139 0.576406 0.520836 0.98543
446 16.5042 0.707621 4.67132 -0.329779 0.991609 -0.403335
1222 0.309496 2.11009 4.69019 0.876108 0.191314 0.625047