ITEM: TIMESTEP
43000
ITEM: NUMBER OF ATOMS
4000
ITEM: BOX BOUNDS pp pp pp
0.0000000000000000e+00 1.7878070701931353e+01
0.0000000000000000e+00 1.7878070701931353e+01
0.0000000000000000e+00 1.7878070701931353e+01
ITEM: ATOMS id x y z vx vy vz
35 0.0497623 1.21029 1.1078 -0.270102 0.334178 -0.348767
1801 1.01786 0.842084 0.379094 -1.27059 0.633728 -0.339324
1138 2.29178 1.28934 0.931502 -0.433734 1.54416 -0.780962
2572 1.51157 0.487214 1.17252 -1.42278 1.0732 0.2448
3720 2.72123 1.25372 0.0106864 -0.423568 0.192617 1.37343
2756 1.9336 0.43654 0.0183205 -0.880256 0.114554 0.909062
1968 3.27021 0.568343 1.03586 -0.446411 -0.282553 1.39164
411 3.73113 0.715829 0.137877 -0.094936 1.04696 0.724026
3784 4.49185 0.592793 1.46627 0.172892 -1.28913 -1.3688
428 4.71329 0.756957 0.38095 2.38535 -1.4987 -0.163194
3776 5.73594 0.196665 1.19863 0.198346 0.258721 0.739115
1903 5.74156 0.987258 0.402922 -0.102124 0.448608 -0.485028
2086 7.42645 0.224756 1.23402 0.00438405 0.117867 0.60358
1047 6.05866 1.2342 1.46645 -1.29011 -0.29368 0.312113
3248 6.70339 0.606727 0.665913 0.439538 1.19009 -0.739226
2791 7.53608 1.23611 0.765148 0.097813 -0.206903 1.83522
2237 8.42232 0.584629 1.15174 -0.164575 0.913207 -1.55015
312 7.97783 0.172968 0.296658 -1.6543 0.18716 -0.190018
1956 9.15426 0.0974114 0.461716 -0.905865 0.818448 -1.18273
1126 9.38376 0.9942 1.2569 0.143821 0.496073 0.80171
2246 10.6035 0.911597 0.723835 -0.32355 0.743017 -0.00170332
853 11.8481 0.874583 0.547637 -0.606466 -1.80029 0.0303054
1771 13.3339 1.25446 1.23695 -0.936817 1.52471 0.518089
2709 12.5036 0.0804136 0.666085 -1.47387 -0.0279621 0.0884286
348 13.7991 0.422603 0.540629 -1.55607 -0.727689 2.28335
3738 13.7078 0.139474 1.47315 -0.769231 -2.09705 1.16591
2176 15.6827 0.264825 0.416612 0.609631 -1.79311 -0.84659
1081 15.7069 1.1279 1.3627 -0.472819 2.07548 -0.926745
2492 14.9012 0.211133 1.24102 -0.914387 0.745283 -0.496309
1512 16.6867 0.0185288 0.162426 0.654301 -1.58102 -0.256739
2787 16.4865 0.981971 0.691593 0.846703 -1.40739 0.786995
1024 17.3077 1.01181 0.116503 -0.581213 -0.625132 0.208089
2650 1.19117 1.88041 0.851553 -0.847737 -1.25028 -0.835556
1315 0.337331 2.48085 1.03231 1.36814 -1.27291 1.99916
2069 0.925564 2.53964 0.12061 0.744928 1.35686 0.755931
530 2.36145 2.50259 0.498822 -0.413728 0.906105 0.620294
2042 1.4919 2.75674 1.09764 0.0686676 -0.580736 -0.943739
173 4.06133 1.51995 0.813259 -0.867365 0.0349936 -1.36559
1776 4.42568 2.64036 0.843329 -1.27677 0.34189 -0.717812
3216 3.35573 2.46589 1.0127 2.0177 0.571371 1.91418
1941 5.62733 2.63574 0.993573 -1.93333 0.397046 0.480003
3608 5.16348 1.596 0.950754 1.52565 1.01978 0.671444
2160 7.31228 2.17692 1.41843 0.196226 1.69004 0.679753
3852 6.73916 2.67991 0.280957 0.532739 1.64323 0.281294
3090 6.43118 1.85735 0.731795 0.341129 0.60403 1.21717
508 8.25194 2.0466 0.690385 1.17983 0.576107 0.267901
2970 9.23692 1.98295 0.921677 -1.39069 -0.580004 0.215884
2698 10.282 1.89764 1.0633 -0.466351 -0.450277 -0.169928
1900 11.2327 2.58208 0.783 -0.75056 0.968108 1.86137
1026 11.8293 1.8455 0.288578 -0.0644295 -1.88036 -0.0990008
947 10.649 2.09305 0.0565754 -1.05288 -0.570383 1.23711
3941 12.2854 1.80878 1.24588 -1.55468 -1.19242 -0.0718963
3716 12.2422 2.77319 0.622071 -0.269112 -1.67229 -0.0373274
946 12.8729 1.64622 0.346306 -1.20781 -0.35356 1.61531
3780 13.0214 2.60093 1.45655 -0.972817 0.44668 0.288939
114 13.6413 2.38851 0.631264 -0.744944 -0.488035 -0.817291
1356 14.7113 2.55717 0.683597 -0.352319 0.991989 1.64039
2967 14.4013 1.6842 1.26179 1.49605 -0.113436 -0.608993
3364 15.6587 2.88926 1.06643 -1.13247 -1.44843 0.00163032
2066 15.7 1.8689 0.589335 -0.542837 -0.68739 -1.52432
773 16.456 2.66814 0.417696 -0.0144966 0.100343 -0.46207
3951 17.4972 2.60233 0.154514 0.768764 -1.69214 -2.04661
3981 17.1049 1.91704 0.877098 0.824369 1.51346 -2.00085
2968 0.838007 3.79509 0.859656 0.798353 0.795885 0.157063
3836 1.7284 3.32004 0.176495 -1.58922 -0.651137 -1.02168
376 2.62784 3.76028 0.293498 -0.39533 -1.15455 0.605918
1715 3.55148 3.4875 0.622589 -2.02404 -2.41351 -0.615231
3705 5.84054 3.24238 0.236762 1.05682 -2.15187 0.53371
455 5.91054 3.70806 1.07738 -0.429571 0.339274 -0.457978
382 4.94571 3.56138 0.744799 -1.41919 -2.21469 0.747114
2347 7.32834 3.15956 0.949473 0.960463 2.06355 0.162387
1877 6.74101 4.23682 1.19931 -1.63726 0.282248 -1.14787
155 8.04354 3.78369 0.641011 1.48811 1.08008 0.603374
2798 8.69648 4.46001 0.397584 -0.350751 -1.78447 -0.0604983
480 10.1375 3.00218 1.08775 -0.986628 -0.586164 0.623479
2668 10.0536 4.34224 0.767626 3.08758 -0.824155 -0.0639058
2229 9.19269 3.06739 0.41246 -0.386409 -0.892876 1.20429
1500 10.9534 3.59089 0.490884 0.0288681 -0.948905 0.141879
2716 12.0264 3.52718 1.41175 0.974959 -0.581344 -0.098571
871 13.0521 3.44188 0.230068 0.542734 -0.578307 -0.513585
2622 12.3131 4.15976 0.520181 0.00541363 0.848128 -0.292764
1446 13.0793 3.91871 1.45103 0.763011 1.04936 -0.15758
2956 14.1508 3.41907 0.0479253 -0.910904 -0.12129 -0.222572
2056 14.733 4.1825 1.07125 0.352071 0.0128019 -0.479019
370 13.9168 3.25994 1.1335 1.62598 -0.424453 -1.89728
174 15.9293 4.42564 0.387469 -0.123747 -1.19039 -1.16749
575 15.7116 3.95221 1.36388 1.52686 -0.106673 1.08873
2314 15.2732 3.58736 0.424907 -0.293802 1.2687 -2.09844
1688 17.1836 3.45726 0.480095 1.66064 0.530096 0.58887
1754 17.083 4.20563 1.23408 0.00461884 0.118437 -0.694296
1768 0.0981497 4.47448 0.332434 0.389898 1.41839 0.116465
3166 0.729034 5.64174 0.185302 -0.105202 0.623941 0.543405
3841 1.29178 4.88369 0.734557 -2.92992 -1.59124 -0.387949
3336 2.84988 4.47966 1.06631 0.869868 -1.1379 1.58386
510 2.06002 5.16752 1.27956 0.999707 -1.00802 0.174018
732 2.73236 5.68755 0.459941 -1.02976 0.750011 -0.544602
3690 3.78636 5.07077 1.11097 -1.18904 -0.88068 1.80134
2727 3.59292 5.35511 0.1056 -0.24571 0.417644 -0.461135
724 5.77286 4.82007 0.602557 0.772253 -1.14482 -0.879648
3699 4.89811 5.59735 0.41949 0.864891 -0.390223 -1.8497
3767 4.49482 4.66643 0.360432 -0.627135 0.199895 0.31506
1175 5.01084 4.63892 1.42771 -0.869442 1.33788 -1.14366
2514 6.27438 5.78728 0.530379 -0.692624 -1.39118 -0.374118
1019 7.75991 5.86472 0.591579 -0.494863 0.935036 0.819228
2440 7.96279 4.637 1.4734 -1.04968 1.62373 0.307735
3055 7.66107 4.88976 0.304398 0.606857 -1.79462 -0.43926
429 9.0749 5.70846 0.859319 -1.1024 0.540197 -0.318932
279 10.0086 5.56979 1.19588 0.487288 -0.895733 -0.393431
3455 10.3702 5.61904 0.111962 1.22386 1.26876 0.775566
1820 11.5481 5.31863 0.114851 -0.929478 -0.0742868 0.0688353
140 11.0536 4.67245 0.744021 1.88954 0.249087 0.0681415
1434 11.7866 5.54498 1.28357 -1.08752 -0.622794 0.96122
498 12.628 5.23214 0.708642 -0.739862 -0.484866 2.07185
465 13.22 5.20737 1.45329 -0.130725 -0.0906278 -0.353924
1758 13.7583 4.5265 0.817051 0.876902 -1.59334 0.674618
3560 14.3022 5.41126 0.946281 -0.0599084 -1.16532 0.137998
1159 14.5875 5.94856 0.0427249 -1.67711 0.926452 -0.529428
2285 13.4699 5.27224 0.231543 0.837206 -0.253559 -0.0341154
3962 15.1338 5.00054 0.00839977 0.424503 2.06385 -0.302571
2675 15.8014 5.891 0.195023 0.187335 -1.78086 1.51771
2301 15.1969 5.27238 1.3261 -0.238277 1.06764 1.07213
1571 17.6253 5.29003 0.977473 0.817078 -0.129097 -1.02173
1659 16.4222 5.42485 1.15804 0.9486 -0.546438 -1.79776
19 16.7029 5.06048 0.157444 -0.870949 1.24767 -0.15752
409 1.04623 6.63601 0.162632 -1.71847 -0.917818 0.0828325
1429 0.860253 6.10573 1.1901 0.583069 1.13651 0.889386
2429 1.82167 7.21666 0.50427 -0.412016 1.13936 0.470522
369 1.85414 6.06709 0.727152 0.00663688 0.270059 -0.52936
238 2.60369 6.49193 1.2615 0.834888 -0.933893 -0.959349
426 3.39122 7.35625 1.29029 -0.595338 -0.784426 -1.39844
2016 4.03262 6.46364 0.20283 -0.524615 -0.520341 0.372895
1115 3.03745 6.59805 0.129297 0.165642 -0.67805 0.553272
1898 5.22015 7.39219 0.122656 1.61008 -0.0294296 -0.45625
380 4.59023 7.39446 1.24502 0.708791 -0.660011 -0.0845571
1316 4.63191 6.26277 1.17709 1.47865 -1.501 -2.23231
3901 5.92689 6.7459 0.286254 -1.49736 -0.270048 -0.484159
98 7.00235 6.58296 0.0989512 1.50289 -0.459992 -1.62816
1309 7.42971 6.6731 1.22931 -1.0622 1.48247 1.13476
2335 6.12473 6.54035 1.35933 1.01631 0.157727 1.57627
3911 8.36498 7.29065 1.39882 -1.14113 -1.07854 -1.22111
3488 10.4046 6.83828 0.272997 0.543437 -0.786537 -0.0702083
671 9.39126 7.06223 1.01977 1.24116 -0.468934 -0.165504
3542 9.45637 6.46893 0.0708297 -0.0679805 0.760867 3.05752
686 10.6897 6.79349 1.39976 -1.45065 -1.57208 1.2076
1342 11.7246 7.28082 0.314746 0.624809 0.97784 -1.45956
330 11.1978 6.19475 0.583259 -0.60998 -0.000879135 0.379768
3192 13.3626 6.15295 0.741694 -1.72374 -1.2258 0.950008
3912 12.8851 7.30444 0.514059 -0.475423 -0.0692746 -1.24286
1162 12.3403 6.47816 0.720845 0.645875 -1.36962 0.00406784
410 14.1661 7.31714 0.201802 0.000648409 0.482149 -0.134385
1151 14.8705 6.92952 1.37975 -0.839379 -1.67273 0.613794
427 15.5215 6.96055 0.01382 -0.770223 0.524304 -1.6555
466 16.0257 6.52395 1.13114 -0.345683 1.40509 0.12982
1976 17.587 6.22048 0.305237 0.942586 -0.380812 0.4424
1320 0.640908 8.25436 0.861661 0.6375 -1.23837 -0.658482
3033 0.0562534 7.60444 0.319165 0.308079 0.143105 -0.915741
3311 2.01298 8.64243 0.000533351 -1.51329 -0.274448 -1.18142
1735 2.76985 8.0463 0.652717 -0.744846 -0.273415 1.64869
3940 1.55299 8.87019 1.3033 -0.0714123 0.608431 1.06521
2693 4.44256 8.48757 0.81353 0.551623 -0.371008 -0.0338395
77 3.77587 7.53956 0.0174462 -0.969306 1.87236 -1.86672
1710 5.93295 8.44855 1.06596 -0.418054 -0.53798 -0.929008
2230 6.90898 8.6214 1.19372 -0.837092 -0.848778 -0.875601
1802 6.61027 7.63853 0.944658 1.56163 1.77185 -0.110276
3484 7.38547 8.77227 0.0758378 1.94958 -0.871511 -0.502025
1253 6.26559 8.66604 0.12129 -1.19638 1.27635 -0.290916
1650 7.74157 7.49038 0.496425 -0.243768 2.30652 -0.0265928
2503 8.17185 8.91519 1.42975 0.508805 -0.0382745 0.530142
738 8.53908 8.06866 0.638918 0.147247 1.33557 -1.26119
3756 9.48429 8.1172 0.0888457 -2.20836 1.93268 3.11629
955 10.3349 8.78996 0.237355 0.789706 -2.42053 1.04742
1806 10.2025 7.67464 0.960918 0.374762 2.63299 -2.66954
3167 11.2721 8.38888 1.25742 0.215436 0.530061 1.03025
2631 12.9946 8.61881 0.197096 -0.875102 -1.51393 0.859789
2443 12.2352 7.90165 1.09366 0.0745432 -0.649271 -0.0929037
273 13.4567 7.46402 1.41432 -0.379633 0.760724 -0.705681
3435 14.1587 8.37135 0.564507 -0.00427902 0.65745 0.933786
2815 15.3214 8.51053 1.0129 -0.0741044 0.715774 -0.351687
3635 15.2011 7.9014 0.259656 -0.700682 0.794735 -0.692467
1355 16.3374 7.94147 0.737468 -1.84707 0.774456 0.0263273
2004 17.0901 7.99352 0.0180488 -1.05129 0.579 -2.4611
3651 17.6483 8.91333 0.411092 -0.140843 1.07317 1.21357
819 1.30335 0.912717 2.13041 -1.61354 -0.250679 -0.119367
2989 0.611895 0.227144 1.71591 1.33995 -1.18508 0.0923819
2368 2.56095 0.735813 1.84388 -1.3837 -1.3947 0.231861
146 3.61373 0.170627 2.49964 -0.458916 0.982284 -0.00323091
3894 3.54835 1.09737 1.95639 0.0181149 -0.930865 -1.03713
2568 5.38389 0.56367 2.14081 -0.498595 0.247433 -1.26514
2348 4.53448 1.14859 2.41866 1.37143 0.477731 0.586623
1745 7.29431 1.44107 2.80804 0.759339 -0.0665487 0.109908
1631 6.57278 0.30939 1.86286 0.864312 -2.44074 -1.26993
854 5.98528 0.883519 2.92316 -0.236082 0.813387 -0.678146
337 7.60757 0.545314 2.67168 -0.055569 0.062151 0.757927
3938 7.65666 1.17221 1.85301 0.922666 0.421333 0.926738
834 8.37044 0.252355 2.08218 0.127273 0.312912 0.763743
562 8.99761 1.23257 2.41048 -0.452833 -0.624405 0.418063
734 10.3482 0.551068 2.71202 0.273238 0.187819 -0.130328
2856 11.1186 1.14287 1.59137 -0.0426358 1.99555 0.512481
1087 11.2773 0.241204 2.39811 0.766196 0.425758 2.31785
2084 11.1327 1.2792 2.81613 1.4278 0.205647 0.741193
3994 12.2741 0.799678 2.93056 -0.164709 -1.2654 1.64587
108 13.0523 0.170953 2.31719 1.04587 -0.466332 -1.56944
3663 12.3212 0.737137 1.68789 -0.286191 -0.123204 2.6901
435 12.8383 1.41037 2.34441 -0.181457 0.543125 -0.302335
2450 14.4746 0.0873426 2.58165 -0.619856 -0.357063 0.706234
657 14.7973 0.979208 2.15109 1.28494 -0.644393 0.370743
2836 13.8198 1.33532 2.26016 0.835897 0.572294 -0.554445
1445 16.7644 1.00953 1.68071 0.865144 0.132992 -0.341206
1741 17.4141 1.43193 2.42585 -0.505576 0.0718051 -0.770378
2164 17.6466 0.347039 2.78851 -1.24206 0.511085 1.73164
2482 17.388 0.11637 1.80693 0.00315159 0.799742 -0.822648
3089 16.5525 0.570461 2.68458 -0.196471 0.551269 -0.443188
86 0.532244 1.59992 2.58545 -0.175956 1.60347 -0.356131
2140 0.936928 2.17231 1.90698 -1.51878 -1.4649 0.563667
2163 0.96288 2.78127 2.68676 -0.125638 -0.420378 -0.224988
918 2.03473 1.82431 1.75917 0.517722 1.03109 0.0906973
423 1.54093 1.58549 2.93891 -0.540743 -0.541953 -0.307704
2635 1.91689 2.60866 2.55054 0.228551 0.167123 -0.584266
3482 2.90484 2.06489 2.28351 -0.143955 0.186395 -0.312285
2062 2.61074 2.86841 1.65451 1.23397 -1.76862 0.732739
3923 4.19205 1.96024 1.7954 0.0591371 0.143229 1.33463
3271 3.73989 1.74361 2.86142 0.406238 -0.371471 -0.958783
922 4.77201 2.8317 1.95534 0.418472 -1.30988 -0.678596
901 5.23124 1.78377 2.09625 0.0830627 -0.311481 -1.19043
672 6.292 1.87482 2.56302 -0.335452 1.39457 -0.199801
2268 6.36297 2.5179 1.63686 -0.742076 -0.634816 -2.23368
2918 8.7727 2.78376 2.8642 -0.757773 -0.438808 -0.0888724
3356 8.25699 1.91393 2.95433 -0.522592 0.948982 0.68766
1077 8.69973 1.88865 1.68994 -0.401035 -0.396931 -1.43153
1101 7.50146 2.40321 2.43811 0.447475 0.555733 -2.11729
3882 9.47736 2.70169 1.70898 -1.06819 0.790026 -0.246984
3983 10.324 1.58192 2.3499 -0.96157 0.936508 0.943043
1657 11.1956 2.75507 1.89318 -0.810921 -0.387842 -0.658668
1833 11.721 1.89846 2.12286 0.00564568 -0.0119696 1.35479
1452 14.6992 2.22426 2.79968 -0.614833 0.85358 -0.320007
2397 14.1334 2.33485 1.97238 0.156304 -0.197226 -0.365775
2917 16.0715 2.13625 2.57427 0.569563 1.0215 1.38828
2710 16.2103 2.14491 1.53998 0.321801 0.282387 0.157255
474 15.1922 2.16545 1.78033 0.539511 -0.0329536 0.510141
3928 17.8694 2.5844 2.17717 -0.246647 -1.51596 0.171661
1438 16.669 2.95664 2.50389 -0.122602 -0.164319 -0.488902
1853 0.616638 3.36695 1.8121 -0.00434191 0.577615 -1.34846
3023 0.124885 4.28124 1.54777 0.748408 -1.69625 0.906722
3664 0.545646 4.37421 2.51601 -1.24106 1.38799 0.297923
3618 2.85495 3.89369 2.02161 -0.119968 -1.33387 0.982926
350 1.85587 3.58997 1.89021 -0.50211 0.963048 1.006
1623 1.57786 3.639 2.928 -0.764358 1.92819 -0.466393
3362 3.78579 3.09212 1.67547 -0.0698414 1.26545 -0.279026
1743 4.04325 4.20799 1.66776 1.30349 -1.098 -0.613214
387 5.74484 2.98688 2.31319 -0.809883 -0.171493 -0.215735
752 5.13587 3.83983 2.0941 -0.334861 1.63034 -1.3769
274 6.75623 3.35557 2.12735 1.25425 -0.113718 0.884125
2808 6.16951 4.33239 2.22309 0.203257 0.348931 0.984004
2903 7.38144 4.45854 2.30406 0.196685 -0.0187415 0.135698
2535 8.53497 3.53176 1.64528 0.400258 0.53934 1.2366
3301 8.62267 4.36066 2.50442 1.16876 0.681437 0.771506
745 9.9181 4.29827 2.18512 -0.666616 0.165355 0.855371
3048 9.85311 3.2338 2.41187 -1.66278 0.355779 0.472915
652 10.6676 3.75034 1.57648 -0.44959 0.640362 0.397065
1220 10.7801 3.05704 2.91096 1.18568 0.332372 0.799542
1785 11.7164 3.90673 2.40497 0.417415 0.21878 -0.267861
2905 12.4543 3.07169 2.26544 0.516833 0.154516 0.815703
92 14.8164 3.97335 2.80978 -1.70523 -0.0700446 0.560324
1513 13.529 3.19561 2.03446 0.230229 0.513529 -0.288422
3637 14.8534 3.4395 1.74698 0.568143 -0.147928 0.715229
674 15.6635 3.2978 2.36415 0.987308 -1.50444 -0.65771
568 17.0256 3.09921 1.53649 1.1836 1.31954 0.166698
1319 17.5813 3.62133 2.69139 1.97001 0.552527 -1.57863
3777 16.5019 3.98577 2.0757 -0.870218 -0.853166 0.634528
3182 1.2591 4.49616 1.71777 -0.988914 -1.42233 0.543491
3235 0.607883 5.27304 1.84105 -0.872817 -1.01822 -2.40147
3878 1.14311 5.71602 2.95853 -0.844204 -0.223948 -1.79929
440 2.59151 4.77947 2.8584 0.534764 -0.161016 -0.755918
3124 1.69612 5.00316 2.47644 0.882495 -0.978227 -1.1117
492 4.12756 4.76444 2.64599 0.966558 -1.95612 0.0680559
1780 3.06187 5.1963 1.8211 0.166682 0.638826 0.0925598
3449 3.56871 5.75867 2.60915 0.485581 -0.20966 -0.845167
2746 4.52477 5.45167 1.74319 -0.286379 1.48395 -0.847424
3376 5.59893 5.61059 1.98404 2.05631 0.8353 -0.442135
2167 5.31887 5.09408 2.88738 1.5531 -1.23464 0.223992
812 6.5696 5.15778 1.58302 -0.0663291 0.177718 -0.384152
1406 6.67725 5.15939 2.75641 0.459646 -0.335794 2.4287
2289 8.69894 5.39201 2.0354 2.66499 0.269067 1.08817
2803 7.62094 5.50249 1.93373 0.7763 0.317932 0.115007
2409 9.74893 5.32254 2.40364 1.01919 -1.76885 0.64382
2472 9.06155 4.54819 1.49009 -1.01208 0.459829 0.945443
3211 10.7824 4.54966 2.61927 0.540154 0.12674 -0.144804
1897 10.6761 4.862 1.68314 0.371448 0.989856 0.714404
3592 11.7764 4.56385 1.51302 -1.96143 0.0544375 -1.17579
2406 11.3746 5.74374 2.25017 1.69284 0.724682 1.0183
2934 13.0729 4.47693 2.31943 -0.0130385 -0.649517 -0.803392
2750 12.3936 5.21254 2.16446 -0.988783 0.00575445 -0.465791
1489 14.0384 5.06239 2.06294 -0.590896 1.30826 -0.655386
656 13.4873 5.89102 2.94844 0.624624 -1.6388 0.931954
3885 15.0712 5.65438 2.29391 0.677266 -0.205857 -1.71854
2724 15.6467 4.7138 2.18616 -0.104589 -0.739617 0.0583396
1215 17.1624 4.96986 2.51197 0.104413 -0.504597 -1.23559
712 1.15132 7.37504 1.49965 -0.509046 -0.53909 -0.616188
526 0.0169325 6.93721 1.61179 0.774049 -1.34423 -1.34608
2847 0.75857 6.76321 2.51125 -0.174057 -1.73586 0.565277
964 0.0115939 6.04177 2.20344 1.16966 0.905495 -0.839882
694 2.47803 5.97984 2.57692 -0.935186 -0.829433 0.124198
3934 1.58566 6.06603 1.96109 -0.847883 1.62576 -0.246686
3933 4.18406 6.64245 2.00663 -0.905724 0.306481 0.936483
482 3.51589 6.77132 2.79973 -1.5918 0.683266 0.715035
3371 5.1813 6.76937 2.33021 0.370488 -0.991701 1.91956
2417 6.15299 7.02218 2.65447 1.26612 1.30422 -0.222714
1967 6.8354 6.14223 2.13657 -0.58567 -1.84854 0.284528
448 8.67028 6.38305 1.75483 2.57564 2.97628 -0.590532
1262 7.9101 6.75555 2.43994 -0.022718 -0.357409 -0.442003
1420 8.98249 7.3326 2.4755 0.521074 1.13713 -1.13373
3585 8.97876 6.07374 2.83986 0.357782 -0.392823 1.03216
2936 9.77898 6.39006 1.96786 -0.419231 0.755753 0.920588
256 10.0091 6.95597 2.93734 0.372938 0.190824 -0.119188
2068 11.4196 6.50945 2.87874 -0.413982 -0.87768 -0.1698
58 12.7398 6.22306 1.77525 -0.696186 -1.56336 1.43844
3613 12.4691 6.35377 2.94482 -1.29827 -1.58248 -0.494075
1834 13.6483 6.68593 2.3658 -1.37218 2.05474 -0.0391288
3787 14.0778 6.24551 1.60206 -1.35081 -1.14359 -0.508259
1757 14.5081 6.42184 2.96994 0.255089 0.319632 -0.208383
368 16.067 5.99307 2.73833 0.147319 0.930632 -0.382291
525 15.8498 7.05254 2.79233 -0.0677852 -0.368562 0.866518
1004 16.6176 6.75629 1.90547 -1.10599 2.17886 -1.27873
2935 0.834035 7.77854 2.46807 -0.161627 0.367961 -0.4927
1836 0.574792 8.77851 2.76989 0.00498966 1.98286 0.53121
1837 2.22171 7.54413 1.555 0.426161 -1.38107 0.678745
2804 1.8013 8.08802 2.91928 -0.037538 0.66661 1.15735
1286 2.72826 7.80816 2.4399 -1.2834 -0.751135 0.644679
2455 3.79564 7.84754 2.48399 0.70915 -1.66256 -0.89494
3051 5.19106 8.17931 1.77956 0.185187 -0.561656 0.355131
1575 6.56467 7.82048 1.87979 0.414399 -1.03754 -0.480665
1763 7.3101 7.71909 2.63093 -0.112602 -1.96404 0.329297
3308 6.20758 8.59023 2.30012 -1.597 -0.642288 -0.569436
2980 7.63296 8.24141 1.82949 0.16353 -0.170734 -0.0515568
3416 8.85986 8.19646 1.60255 -0.869018 0.0422383 -0.263962
1150 8.37591 8.7298 2.46371 1.75259 0.17002 0.80541
2336 10.0574 7.91947 2.03402 0.255207 0.541121 -1.42473
2100 9.66098 8.71174 2.85102 -0.41705 1.53718 0.184348
1991 10.9314 7.79087 2.67254 1.18417 -1.26981 1.76423
1352 11.9107 8.57667 2.33134 0.0129602 -0.670301 0.482576
1814 12.0277 7.49719 2.89447 0.0364269 0.783815 -0.837954
3476 12.8158 8.15769 2.7096 -1.89254 -0.161663 0.0329288
280 13.0885 8.53686 1.6335 -2.12939 0.724795 0.666117
3267 13.8375 7.97192 2.43482 1.17477 2.15868 -0.168157
477 14.8182 7.4972 2.3967 1.20335 -0.417956 0.100433
139 14.2651 8.26681 1.51952 0.315408 0.609446 -2.72649
1494 15.632 7.58059 1.57705 -1.931 -0.628523 -0.699919
2202 14.9962 8.543 2.25949 0.821037 -0.907582 0.0776857
3650 15.898 8.91758 1.69886 -2.06259 -0.428573 0.941953
2849 17.2289 7.65895 2.04072 -1.3358 -0.800008 -0.818414
1851 17.7797 7.53035 2.95396 -1.10826 0.373187 -1.05273
87 16.6365 7.68894 2.87643 -1.40823 0.377437 0.922888
3075 0.804933 0.357821 3.11044 0.949026 1.0403 0.58655
198 0.158053 1.26138 3.47111 -0.155831 0.218158 0.575301
816 1.49065 0.593525 4.20791 1.69511 1.77457 0.895674
3968 2.16107 1.30786 4.01482 0.37939 -0.140924 -0.755835
973 4.03832 0.8842 3.58548 -0.294667 -0.299733 0.227029
3718 5.5789 0.775971 4.36482 1.23248 -1.80297 0.748135
294 6.88926 0.753845 3.58687 -0.196271 0.707498 1.23628
1930 6.17779 1.4699 3.81455 1.03531 1.18698 0.49002
1614 8.93092 0.38722 3.35778 -0.1074 0.897103 -2.22385
509 8.19205 0.96801 3.75425 -0.54522 -1.49855 0.26107
839 9.85673 0.632906 4.13581 1.32227 0.483189 0.895739
3688 9.74493 1.39316 3.16617 -0.214064 -0.25245 0.420351
950 11.5253 0.787813 3.69616 -0.286573 -0.656933 -0.380566
1075 13.3599 1.06629 3.18218 0.318268 -0.738751 1.01322
701 13.0932 0.201466 4.08381 -0.801536 0.891223 0.374764
3792 12.8573 1.27675 4.04469 0.46036 -0.0597919 -1.71217
3045 13.8873 1.37764 4.37489 -0.0536799 -1.02354 -0.650774
747 14.0901 0.517939 3.78425 -1.25985 0.243399 -1.23233
3842 15.5935 1.28422 3.05847 -1.10588 2.14254 -1.1097
362 15.2229 0.250642 3.67322 1.97778 -0.2545 -1.52235
2313 14.9192 1.26584 4.06743 0.264348 -1.55624 0.19636
1129 16.2159 0.493321 3.95633 0.433922 -1.30983 0.705691
14 17.5371 0.362729 4.20247 0.77402 -0.945889 1.32797
2460 0.925249 2.11767 3.55574 0.0781915 0.0900563 -2.05665
2845 2.56337 1.5804 3.11653 0.82729 -0.367675 -0.161482
2243 1.64359 2.78132 3.57921 0.554396 -1.46099 0.881731
1517 4.46487 2.46174 3.20611 -2.24587 -0.3877 0.412612
3386 3.88729 1.91712 3.94511 1.31342 -0.02559 -1.42591
718 3.03674 2.49765 3.29106 0.602106 0.13308 0.00633701
64 4.99294 2.13426 4.22064 0.353072 0.942005 -0.465389
2137 5.46812 2.8569 3.55077 -0.796166 1.01701 0.470778
618 5.21449 1.78202 3.28485 -0.26313 -1.29359 0.534959
2489 6.40879 2.71601 3.31932 1.01445 1.2998 0.962533
881 6.37185 2.26342 4.37014 0.907392 1.91267 -0.429808
2611 7.46839 2.01078 3.93522 -1.51707 -0.301605 -0.616049
2159 7.97613 2.93277 3.70499 -1.67234 -0.233425 -0.59711
1691 9.85567 1.73554 4.31916 1.32473 1.38032 -0.106276
2838 8.9656 2.0021 3.70561 -0.472232 -0.28601 -1.39982
3049 10.2483 2.74404 3.93279 -1.0719 -1.1213 -1.66821
703 10.5929 1.73061 3.63462 2.16741 0.582335 -1.37796
748 11.3083 2.47377 3.87723 -0.799584 0.494191 -0.361165
2329 12.3721 2.03146 3.45577 1.81242 -0.883055 -1.06748
1457 13.4415 2.19507 2.99584 0.865989 -1.93804 -0.654305
662 13.6183 2.30778 4.05055 -0.548512 -0.571294 0.401079
3605 15.3289 2.39952 3.80639 -1.45069 -0.149156 0.271582
1505 16.0404 1.52011 4.20734 0.680764 -0.617637 0.921863
2909 17.7765 1.95292 4.37459 -0.645053 -0.566953 1.23247
2636 16.651 1.56264 3.46277 -0.227839 0.589504 -1.95683
2282 17.5803 2.13086 3.24369 -0.0701003 0.498348 -0.377672
529 16.9661 2.59841 4.13341 -1.11826 -0.802256 0.166859
79 1.09175 3.68248 3.91043 -1.42315 0.364505 -1.02406
469 0.214254 4.15529 3.84062 0.68784 -0.423107 -0.692601
985 0.323492 3.13074 3.62391 0.483052 -0.129344 -0.0680869
1534 2.45058 3.93318 3.62009 -0.766451 -0.5747 -0.958496
2345 2.8863 3.34239 4.45136 -0.0856563 0.163966 0.377366
2532 4.25764 3.6884 3.04823 -0.371388 1.29174 0.03169
3871 3.40645 4.20467 3.02093 1.35154 0.232978 -1.33227
2025 4.44557 3.28731 4.0528 -1.35045 -0.12123 -0.0860368
3641 5.68917 3.81179 3.09501 -0.140236 0.723477 0.188442
2475 5.39801 3.7327 4.30457 -0.4193 2.95136 1.12142
708 7.22688 3.71446 3.02768 2.42458 1.43699 -0.453235
1910 6.37246 3.64194 4.05089 0.660722 -0.326111 -1.19674
617 9.29654 3.19485 3.77931 0.969054 -0.994289 0.50816
3809 9.99215 3.9148 3.19391 -0.0345453 -1.35556 -0.362181
2659 10.8868 4.26076 3.91393 -1.06347 0.935792 -0.521707
1199 11.5288 3.42135 3.64639 0.783622 -1.04033 -0.929371
3740 12.8234 4.17678 3.2616 -0.143423 -1.33937 -0.65439
3146 12.913 3.11089 3.62144 -0.508788 -0.381469 0.444976
441 13.8526 4.40697 3.14925 -1.43667 -0.338394 -1.0954
2688 14.4423 3.22485 3.54074 1.3599 -0.41401 -0.250374
2833 13.8391 3.88761 4.11451 -0.73737 1.63112 -1.24408
2044 15.5026 3.11934 4.42936 2.81565 0.526252 -0.898496
1878 16.3333 4.34902 3.02056 0.201449 -1.14789 0.880399
2403 15.3006 4.39648 3.78445 0.77446 -0.599562 -0.560876
3154 16.0122 3.1912 3.39096 -1.29485 2.18702 -0.664127
2898 16.3772 4.27181 4.36713 -1.44273 0.122706 1.84398
1157 17.1266 3.63374 3.80237 0.00904083 -0.0110571 -1.98278
1343 0.483622 4.96841 4.35403 -0.144489 -0.20707 0.334022
1611 0.677139 5.90454 4.05787 0.707563 -0.406557 0.179513
1567 2.24991 5.89298 3.70307 -0.307671 0.752102 -0.00660768
3156 1.49943 5.01942 3.67395 -0.882032 -1.03893 -0.659109
2596 2.57298 4.94405 4.02763 -0.602977 0.797099 2.66223
2929 3.70852 4.67056 4.00449 -0.938976 -1.0094 0.818217
183 3.92564 5.62812 4.06049 0.86844 -0.964468 0.616233
907 5.58527 5.69597 4.14049 -1.22736 1.29071 -0.721085
987 4.63387 4.86964 3.66246 -0.568298 -0.991479 0.35978
1409 5.97802 4.74009 3.54053 0.0560789 1.3508 0.923448
3963 7.24748 4.67011 3.91315 -0.440825 -0.753472 -1.40165
439 6.8047 5.83936 4.01363 0.49716 1.06131 0.847423
852 7.94078 5.15053 2.98908 0.795063 -0.590602 1.48811
1972 8.38374 4.90133 3.9311 -0.0881989 0.98483 -1.12695
285 8.07475 5.93214 3.6581 0.992088 0.94034 0.673647
1687 9.09405 5.62004 3.77212 -0.367908 0.609377 -0.346344
1539 10.2542 5.37769 3.30738 1.8319 -0.00385376 0.711927
1475 9.54069 4.53343 3.81851 0.0651346 -0.386005 0.375284
2051 11.8227 4.60649 3.1914 1.17049 -0.759337 0.312077
1674 11.4336 5.62434 3.55862 0.302266 -1.80831 -0.00445116
1258 13.3131 5.27196 3.79796 -1.7293 -0.861535 -0.168964
2660 12.3778 4.84994 4.04999 0.130106 -0.0651869 -0.832168
1733 14.6596 5.52026 3.53654 -1.03803 1.16421 -0.0338567
1524 14.2883 4.88857 4.39663 0.315507 -1.11925 -0.885071
714 15.5767 5.54204 4.34255 1.79378 0.843921 1.54249
2499 16.6466 5.39104 3.33766 0.41451 1.67158 -1.59897
3180 17.364 5.01952 3.84943 -1.7671 -1.72119 -0.935988
3448 16.5736 5.42203 4.37381 -0.820238 -1.50826 0.404077
3329 17.6108 5.80387 3.17837 -0.178244 -2.15628 0.218427
3083 0.234219 6.9339 4.00645 -0.197668 -0.973165 -0.614121
2754 2.0511 7.02419 3.51716 1.52097 0.297524 1.70483
841 3.46912 6.64382 3.78921 -0.812659 -1.0323 0.123138
2179 4.59051 5.96355 3.08703 1.41589 1.72274 0.421757
673 5.18064 6.8831 3.401 0.81698 -0.11236 0.225981
1455 5.97616 6.62881 3.99371 1.14027 -0.747322 -0.526257
2497 6.88604 6.84142 3.44227 0.133014 0.690023 0.0132608
3947 7.20491 5.98156 3.04433 -1.68442 -0.318705 0.369161
1231 6.08654 5.99128 3.16348 -0.0731917 -0.850464 0.0213144
3101 8.58075 6.78247 3.41138 -0.103295 -0.540176 0.197721
3377 9.3011 7.36844 3.96671 -0.180891 0.0641349 -0.148153
164 9.83784 6.36842 4.25741 -0.284439 -2.04106 1.24994
3861 10.6687 6.45803 3.65728 0.930414 -2.03324 -0.489128
2797 13.1328 7.25059 3.22265 0.832544 0.513978 0.180847
1940 12.2129 7.22983 4.03249 -0.0453472 -2.20938 -0.259037
3190 12.2076 6.0638 4.25818 0.584107 -0.156259 -0.200273
166 13.1468 6.73597 4.25478 0.656344 -0.731018 0.611674
3954 13.9639 6.22632 3.93372 0.416831 -0.227058 1.14058
432 14.054 7.28395 4.00947 0.262125 -0.477624 -0.48102
602 15.1833 6.3919 3.98112 -0.78127 0.528977 0.865827
316 16.3724 6.45667 4.13598 1.61153 -1.01535 -0.414269
2521 16.9566 6.89224 3.31943 0.492531 1.01193 0.152182
2731 0.811152 7.9189 3.7183 -0.126128 0.667062 0.0355163
1131 0.587628 8.71751 4.26623 0.48985 -0.0166893 0.378254
661 2.8859 8.46033 3.19398 0.580823 1.32443 -0.587526
778 1.96513 8.30847 3.95099 -0.965993 1.47318 -0.678316
1437 3.47961 8.87008 4.07493 -1.31449 0.553375 1.89371
2999 4.04799 8.77252 3.22064 -0.961692 2.10702 0.627427
2559 3.38281 7.69328 3.77837 -0.804269 0.0975246 -0.788381
2758 4.80986 8.87377 3.83399 -0.189663 0.60403 0.603407
1926 4.87281 7.93792 3.14229 0.898805 0.435279 -0.824426
1301 5.79696 7.87314 3.17282 -0.425884 -0.597064 0.867874
2411 5.28762 7.63792 4.19459 0.0548338 0.789446 -1.3186
1669 7.39462 8.79021 3.21724 -0.0934669 0.378499 0.490917
2227 6.04728 8.88583 3.36028 -0.686102 0.510689 -0.989728
54 6.65488 7.75441 3.80757 -0.151189 1.18551 0.273219
3381 8.76664 8.26214 4.28368 -0.899495 -1.84815 1.31779
1045 8.82657 8.09907 3.1925 -1.85849 0.976068 -0.614516
1106 7.99267 7.74366 3.58439 0.40638 -0.20836 0.755443
3247 10.1055 7.80143 3.45705 -0.927401 -0.75149 0.0580215
1589 11.0439 8.71434 3.4998 1.13686 1.48938 0.280734
3414 11.0693 7.50491 3.73992 0.151336 0.641919 0.314241
3194 12.084 8.32612 3.86225 0.600907 0.484384 -0.431776
1426 13.0906 8.09192 3.98773 0.177545 0.596777 0.00119936
28 13.98 8.89009 4.40233 -0.289497 0.684426 2.32194
1433 14.0796 8.57857 3.52713 -0.222624 0.0407546 0.716833
392 14.8709 7.8502 3.56792 -1.13831 0.728202 -0.468426
2761 16.3877 8.6717 3.91097 0.282122 0.583721 -0.344724
557 15.7289 8.43684 3.12391 -0.283745 0.831562 -1.10356
3834 15.5449 8.14655 4.35805 -0.339352 1.75241 -0.787837
2531 16.1593 7.56933 3.7817 -0.56927 -1.14447 -0.0719277
710 16.9896 8.84973 3.05659 -0.903171 -0.781952 2.40107
3263 17.6324 7.99661 3.91726 -0.54014 0.0951556 0.724265
2383 0.717469 1.27407 5.1939 -0.487896 -1.06949 0.526481
2851 0.570777 0.175501 4.79392 0.881154 0.0167255 -1.30787
2442 0.418588 0.449267 5.91826 0.426479 0.370162 -0.973174
810 1.73843 0.341875 5.31348 0.263881 1.60404 0.305465
705 2.83266 0.947735 5.74356 -0.973826 -1.10939 1.48214
1550 3.45657 0.874496 4.9093 -0.240623 -0.4767 0.637676
1213 5.93087 0.575271 5.45734 0.527625 -0.644323 0.0440962
3989 4.54458 1.15139 4.54934 -1.03052 1.30782 -0.282692
1415 4.6162 0.945568 5.629 -1.4271 0.582824 0.511336
2073 4.83941 0.059981 4.64903 0.0822565 -0.42386 -0.890825
2859 6.84026 1.22665 4.89542 0.487372 0.923055 0.166599
3479 7.10411 0.459499 5.52231 0.912812 -1.343 0.204686
515 7.93132 0.440127 4.92506 0.913454 -1.0866 -0.100538
2993 8.77471 0.0677186 5.78274 0.258412 -0.0723862 -0.12777
2270 9.392 0.607165 5.14589 -1.13672 2.14695 2.13308
3909 10.8621 0.238259 4.72184 0.150284 -0.363092 0.128302