ITEM: TIMESTEP
77000
ITEM: NUMBER OF ATOMS
4000
ITEM: BOX BOUNDS pp pp pp
0.0000000000000000e+00 1.7878070701931353e+01
0.0000000000000000e+00 1.7878070701931353e+01
0.0000000000000000e+00 1.7878070701931353e+01
ITEM: ATOMS id x y z vx vy vz
3854 0.757469 0.725044 1.40253 -1.53568 -1.33988 -1.17943
1931 0.929122 1.38379 0.104518 0.419373 -0.024907 0.229599
64 0.383563 0.230609 0.58314 0.425465 -0.447147 -0.115739
2176 2.47661 0.477707 1.24064 -0.339945 1.8412 -0.803147
2085 1.96112 1.33373 0.73305 -0.312742 -1.65057 0.24641
1459 2.86965 0.653058 0.300264 0.256567 -1.14954 0.0518043
397 1.68272 0.0327222 0.389377 -0.528818 0.871735 1.24122
2740 3.24935 1.23137 0.995326 0.803943 -0.72176 1.6102
3886 3.88834 0.300823 0.159073 -0.800025 1.08144 -0.731225
1510 4.19221 0.81385 1.13785 -1.23493 -0.626203 0.19337
3263 5.42535 0.382164 0.816865 -0.145076 -0.728728 -0.818958
1547 4.65811 1.09794 0.162797 0.664621 -1.7457 0.383123
1536 7.41761 0.482011 0.526977 -0.321738 -0.421713 -1.1923
691 6.41604 1.46249 0.085093 2.05032 -0.396485 -0.257632
1694 6.07839 1.14077 1.23819 0.80857 0.965483 0.135471
3019 6.55361 0.12124 0.854596 0.430803 -0.854275 -1.71337
2435 8.33243 1.0778 1.24412 -0.881043 -1.54515 0.780955
3668 9.7128 1.19903 1.31105 0.282939 -1.7563 -0.385699
3232 9.18567 1.15323 0.270583 -0.814119 0.847994 0.607501
2646 9.76182 0.299161 0.357961 -1.47764 1.01211 -0.0921998
1651 11.7427 0.117047 0.44763 -0.791126 0.846783 0.510135
2189 10.8019 0.24624 1.01691 0.455415 -1.05975 -0.824365
2556 10.9827 0.607935 0.0164479 0.119119 -0.518671 0.219504
2565 12.2638 1.05991 0.729503 0.783366 -1.12126 -0.502398
2201 14.7488 0.771101 0.714598 -0.677495 0.676901 1.50425
719 13.6564 0.870597 0.704722 0.884206 -0.067235 0.453118
2632 15.8478 0.226257 0.512741 -0.82253 -0.0342307 -0.374897
2407 17.0373 1.20372 0.89193 1.18164 -0.24125 -0.548252
3175 0.486516 2.21553 0.770182 0.905151 -0.13498 0.313419
555 1.57118 2.23303 1.09473 0.309047 -1.95958 0.124178
2154 2.55591 2.37692 0.91038 -0.304343 1.85516 1.29823
3965 2.30736 2.78098 0.00717739 -0.79947 -0.929944 -0.952335
2044 4.10566 2.13535 1.35943 -0.362121 -1.30753 -0.259946
86 3.27381 2.92623 0.428977 -0.124631 1.0329 -1.34376
3209 3.55871 1.79694 0.182903 0.869301 -0.83849 0.816108
2882 4.96581 1.64901 0.993157 2.87203 0.716697 -0.00289115
1005 5.43727 2.34318 0.356005 0.179869 -0.688828 -0.0955339
3980 6.81258 2.48013 1.27033 0.461195 0.702525 -1.17338
2607 6.48472 2.70777 0.286981 -1.52539 0.599887 -0.798317
1234 8.10821 2.21379 1.05105 -0.246002 0.937787 -0.891004
309 7.49105 2.17409 0.246647 -1.11884 0.00158944 0.254304
1115 9.95148 2.02371 0.659331 1.07806 -0.175279 0.967786
2823 9.13918 2.50556 1.45256 -1.14305 0.765259 -1.4455
3264 9.29689 2.7457 0.250289 0.0900313 0.672029 0.337393
381 11.089 1.52861 0.608784 -0.189499 -1.04765 0.704801
3001 11.0059 2.60303 1.01291 0.300567 -1.82253 -2.1665
3838 13.4026 2.84555 0.220648 1.24508 -0.471977 -0.192801
3628 13.131 1.70912 1.17279 -0.511613 -0.931964 -1.17565
1758 12.194 2.2085 0.800431 0.603248 0.625221 -0.316742
1313 14.8242 2.7823 1.4864 1.06257 0.403331 0.637095
3343 14.2286 1.9226 1.08641 -1.25194 0.130789 1.56919
883 16.2611 1.80634 0.670901 0.456969 1.18966 -1.09826
847 15.3887 1.81216 1.23446 0.293967 0.441858 -0.0509743
1475 15.0861 2.62725 0.426824 -1.02882 1.47867 -1.40203
2635 17.1005 2.33774 1.26886 -0.0246512 0.153578 -0.00333482
1051 17.4557 2.03517 0.262213 -0.475008 1.55707 0.100493
489 1.41207 3.26587 0.757608 1.32601 0.481814 0.881851
273 0.169441 3.41152 0.891216 -0.972129 0.39259 -2.04949
354 0.722486 4.07789 0.0814589 -0.178481 -0.358082 0.866938
3641 2.19139 4.02353 0.577945 -1.00346 0.727507 -0.245133
351 3.88815 4.00014 0.600049 0.307145 -0.287616 -0.161435
1926 4.92326 3.6156 0.54748 -0.503517 0.972525 1.53782
640 5.8377 3.3631 1.03422 2.39568 0.864867 -0.016223
1541 5.57074 4.37031 0.955796 -0.178819 1.71774 -0.077017
893 7.22803 3.2937 0.847776 -0.997424 -0.458702 -1.00872
2747 6.6404 4.07881 1.34583 -0.415203 0.173221 -1.67529
2793 8.19669 3.10623 0.351375 0.288649 0.527573 0.93931
3390 8.82324 4.31649 0.490959 1.59201 -1.17978 -0.833433
3333 8.15491 3.35362 1.45366 -0.0701819 -0.137756 0.847391
1480 7.85204 4.27474 1.18735 0.303686 1.09078 -0.98315
2061 9.86427 3.20955 1.09865 -1.02152 -0.307631 -0.731109
1131 11.6351 3.17597 0.32304 0.484433 -0.258382 0.240871
120 10.6259 3.42102 0.0618158 -1.35997 0.392757 1.25814
2896 13.1897 4.1002 0.0856105 1.5125 2.83651 0.615293
623 13.277 4.29991 1.12268 2.04366 -0.0495368 -0.33464
667 12.3683 3.55435 0.983967 0.883839 -0.666467 -0.536632
2396 14.0529 3.52896 1.16429 -0.579365 -1.40617 -1.47032
3282 14.8898 3.76155 0.247912 0.808505 -1.4049 1.44004
2304 15.4852 3.77522 1.12594 -0.666392 -0.395141 -0.00901519
2663 16.0681 3.97618 0.189533 1.59511 -1.41789 -0.802267
786 16.9681 3.45966 1.31368 0.323211 2.60524 0.796007
2032 17.4314 3.1048 0.127754 -0.177152 -0.868505 0.83289
2968 16.4357 2.9886 0.583075 -2.48646 1.58078 0.648584
1393 17.2041 4.07373 0.00881675 0.389539 0.0482207 0.0762115
1725 0.316981 4.5027 0.947397 -1.18214 -0.503534 2.2122
3111 0.166065 5.55636 1.14202 0.955688 -0.11943 0.948879
1298 0.656451 5.85345 0.0129349 -0.420897 0.692668 -1.03559
125 1.2941 4.95696 0.484669 0.206811 0.157201 -0.102931
3587 2.51443 5.62657 0.63704 -2.11149 -1.06062 0.239281
2433 4.20219 5.00824 1.04632 -1.16289 0.725827 -0.366351
2892 4.34005 5.93635 1.30783 -0.160446 0.91921 -0.0330469
3260 3.03939 4.67022 0.516322 0.373604 -1.72706 -1.95243
565 5.23167 5.29379 0.821556 -0.0575541 -0.232235 -3.29384
10 6.5718 4.4713 0.274097 1.05358 -0.382284 -2.09992
2849 7.34195 5.28729 0.630361 0.539438 0.0656862 -1.2045
1972 6.31513 5.44021 0.654388 -0.228415 0.769524 -1.11109
256 8.41833 5.39328 0.278531 -0.873615 0.612583 1.75016
3871 9.31338 5.10649 0.954711 0.0378569 -1.04187 0.41673
385 10.0252 4.64055 0.0834498 0.0634703 -1.11681 -0.0416558
3345 10.1417 5.60635 0.536247 -1.6116 -0.0120276 -1.1826
3416 11.3371 5.57832 0.132357 0.0506413 -1.13681 -0.864216
1953 10.5128 4.81276 1.06874 0.490504 -0.103059 0.316828
2873 11.7494 5.60543 1.14007 0.129896 1.95724 2.21019
1943 13.3523 5.25903 0.0416421 -0.986594 -0.130272 -1.5772
808 12.0721 4.62038 0.637557 -1.25298 0.445686 -1.27159
2038 12.8172 5.64152 0.815647 1.16842 -0.89533 -0.226555
1840 14.1175 5.1171 0.818968 0.094046 0.243014 -1.35295
1771 15.6087 4.72298 0.73384 -0.776916 -0.756986 -0.365628
1663 16.3165 5.6389 1.0258 0.758363 1.13196 0.22778
1983 17.1246 5.15658 1.11673 -0.740123 -0.890947 -0.563689
3224 17.0949 5.31324 0.0449822 -0.715275 -0.250754 -0.0301214
415 1.33661 6.81332 0.0821751 0.9013 -0.152524 -0.544555
2007 1.35528 5.97831 0.924178 -0.0731223 -0.960587 -0.312451
1828 0.983297 7.30632 0.968635 1.71351 -0.0861729 -0.493257
3777 0.354698 6.49999 1.06994 -0.565593 0.121005 -1.46208
1452 2.11551 7.01504 1.11724 -0.726431 1.33073 -0.474892
372 3.4235 6.34524 0.786916 0.410991 1.22301 0.721175
3181 4.32296 6.14434 0.151865 -0.056821 -2.2098 0.699192
2890 3.95492 7.12676 0.220368 -0.235415 -1.00154 0.207265
3322 4.91602 6.85584 1.19979 -0.258401 -0.035223 -1.56152
499 5.87876 7.14125 0.788012 -1.03421 -0.358243 -1.1133
2008 6.98765 6.77827 0.780843 0.130428 -2.1328 -1.405
1885 8.53203 6.96085 1.46362 0.259379 -0.841182 -0.00706081
425 8.19901 7.3996 0.473245 0.678505 -0.225671 -1.30734
2331 7.86021 6.26797 1.10693 -0.74415 0.104778 1.28855
2183 8.66917 6.3781 0.349427 0.617772 -0.669961 -0.433913
3866 10.1716 7.11169 0.202165 -0.169276 -1.32323 0.117475
3058 9.15815 6.09709 1.30344 1.33607 -0.203602 0.368864
693 10.2087 6.50672 1.04175 -0.0993147 0.00574688 -0.749578
3640 11.2597 6.81179 0.408294 -0.769104 -0.652251 1.85254
3271 12.1957 6.50813 0.703461 0.849655 1.02422 -0.843959
108 13.2567 6.75841 1.11378 -0.221138 0.176135 -0.856345
1122 14.1844 6.35163 0.915327 -0.14194 -0.969289 -1.05036
690 15.5743 6.34183 0.688292 -0.906531 0.19879 0.431265
2598 16.6206 7.3957 0.798196 0.139619 0.945603 -0.598658
2467 17.6492 7.38486 0.957468 1.02946 0.546796 1.6046
2602 17.0287 6.18774 0.576433 0.322068 1.07666 1.33974
1368 0.486243 8.68348 0.486295 0.184596 0.400548 1.08964
3302 1.78756 8.05021 0.721151 1.88141 2.51992 0.65283
1611 2.87914 8.09735 1.03938 -1.3344 -0.0915541 -0.0905991
1951 2.29444 8.7069 1.46202 0.279108 0.0314969 -0.453851
2151 2.62852 8.90728 0.180816 0.188712 0.962935 0.749605
2502 3.55427 8.50339 0.0257788 -1.5605 0.457789 -0.965504
3191 4.26258 7.99421 0.892514 -1.23339 0.100337 -0.295311
885 5.29871 8.10678 0.446926 -0.878077 -0.631795 0.135358
742 5.53268 8.23117 1.44777 -1.65628 -0.151452 1.31822
442 6.49805 8.38514 0.788522 -0.483813 1.1468 -1.24623
3876 7.27961 7.82276 0.966077 0.154885 0.320088 0.0291491
3589 7.31568 8.85634 0.287421 -0.266017 -0.162009 -0.305543
1810 8.1803 8.57521 0.746572 -0.637113 1.08155 0.426316
791 9.98538 8.27669 1.37188 -0.430485 0.312836 -0.14656
1659 10.2802 8.2205 0.321946 -0.638782 -1.12964 -0.604944
185 8.99118 8.74536 1.34653 -1.47671 1.76092 -0.239483
1376 9.33526 8.80937 0.232797 0.261281 0.457834 -0.789997
2187 9.30792 7.57683 0.747781 1.10477 0.112565 0.371705
1453 10.6491 7.50405 1.14327 -0.187617 0.588002 -0.665403
1490 11.3211 8.51815 0.807957 0.5387 0.746228 0.461622
2588 12.1234 8.80172 1.45381 -2.41438 0.54348 1.03479
1770 12.026 7.62199 0.712594 -0.795582 -1.50271 -1.36764
463 12.4624 8.77613 0.234045 0.0127277 1.37312 0.675843
1901 13.139 7.53542 0.407603 -1.49648 -1.20272 0.656928
167 14.1133 7.46097 1.0664 0.296943 -0.592817 0.251503
360 13.8536 8.33591 0.412015 -0.0934851 0.00887356 1.4756
538 14.0091 8.72894 1.45676 -0.56255 -1.6932 0.125953
95 14.8616 8.8648 0.696548 -0.474623 -0.735424 0.675276
181 15.2237 7.59346 0.69491 -0.00931395 -1.37019 -0.751143
3278 17.4276 8.59552 1.29735 0.998331 -0.448281 0.651182
2850 0.133534 0.0179575 1.82006 0.046122 0.249732 -0.524214
2969 0.278115 1.06576 2.56739 -0.840645 -1.00669 -0.128459
3775 1.19752 0.398563 2.55885 -1.21737 0.355541 0.330262
2106 1.79531 1.00516 1.86999 0.146975 1.15779 0.548331
1537 2.31398 0.573167 2.80779 -1.04972 -0.5432 0.00347893
746 3.23885 0.196171 2.10918 0.710556 -0.777719 -1.58436
1014 3.33686 1.39459 1.99728 -0.624062 0.328199 1.05741
3685 4.44146 1.43797 2.14861 -1.0299 0.415378 -1.30644
2996 5.16393 0.610899 1.91992 0.756887 -0.940068 -1.45528
465 6.43437 1.16123 2.36281 0.452728 -0.645057 1.0829
642 7.35116 0.607504 2.17411 -1.22299 0.623011 -0.456742
1110 6.29667 0.164813 1.94444 0.577314 -1.21462 2.36284
906 6.61844 0.048698 2.93003 -0.307756 1.37971 -0.012491
3003 8.42359 0.843048 2.43284 0.830443 -1.25412 0.754184
1653 8.74019 0.0412379 1.89572 -0.364913 -0.0925015 -0.343593
1071 10.2464 0.797774 2.77826 0.607561 -1.29484 0.0377682
1289 9.7431 0.186367 1.5028 0.618925 0.359097 0.049568
1570 9.28288 0.30929 2.90407 -0.832663 -0.315469 0.106107
3319 10.6726 0.959511 1.7169 0.756287 0.410698 0.995451
3887 11.6892 0.786403 2.35831 -2.00396 -2.44337 0.276302
1279 12.6882 1.3358 2.12566 -0.257474 1.53396 -0.014468
1730 12.6509 0.339213 1.68116 1.60312 1.79384 -0.197896
871 14.5942 0.663509 1.73826 -0.431081 0.335325 -0.194699
2505 13.6914 0.430085 2.55753 0.484432 1.28442 -0.790676
1100 13.9664 1.3831 2.34341 0.330735 1.33982 -1.055
3545 15.686 0.753518 1.57043 -0.988317 0.539639 -0.274668
865 16.1613 0.652237 2.96701 0.766194 -0.798741 0.412173
2636 15.0687 1.33044 2.93753 0.646404 -1.01555 -1.08728
122 15.2286 0.13275 2.61797 0.255672 0.561692 1.61195
258 17.7339 1.20359 1.66004 -0.0545297 -0.811794 1.41687
2389 17.3253 0.606325 2.94343 -2.10016 0.87703 0.0227022
2897 16.7217 0.45306 1.98812 0.866212 -0.162012 0.344032
3129 0.982188 1.72359 1.82366 -0.759832 -0.042429 -1.30247
3424 1.22211 2.09989 2.77667 -0.297756 -1.03461 0.339785
1640 0.297985 2.35117 2.49512 0.454894 -1.89051 1.95034
608 0.922152 2.8072 1.56452 0.625594 -0.0444649 -1.26497
3300 2.35208 1.88581 1.86702 1.31338 -1.67283 -0.346581
1589 3.0878 2.69565 1.94719 -1.19806 -0.386718 0.948383
2065 3.71525 2.17895 2.60459 0.132213 -1.12034 0.191862
1948 5.9446 2.03239 1.95742 0.0845549 0.365242 1.0857
3740 5.15583 2.68873 1.73302 0.0466535 -0.103213 0.166328
3130 7.27708 1.62259 1.78342 0.27715 -0.539355 0.160462
2870 6.37971 2.69278 2.70937 -2.70833 -0.438075 0.231829
1285 7.2534 2.00351 2.74893 -0.504282 -0.0368439 1.01757
524 8.44991 1.79536 2.06885 0.0272671 1.84909 1.03634
205 7.88795 2.95374 2.53774 -0.197581 0.417479 0.857953
3658 9.82717 1.63571 2.55473 1.12283 1.29295 0.725522
3089 10.3402 2.29644 1.79689 0.828572 0.329336 0.805017
1069 10.0569 2.609 2.90531 -0.415566 0.906866 0.633916
2979 11.7169 1.70964 1.53082 -0.439793 1.65949 -0.790253
1835 12.3342 2.25453 2.90546 -2.20566 1.32512 2.54643
931 12.3511 2.88506 2.12639 -0.715787 -0.248156 -0.660027
3081 14.579 2.15104 2.43521 0.082675 -0.426859 0.649329
2695 13.6134 2.55642 2.08296 1.33888 0.326169 0.0923353
3305 15.9985 2.67499 1.66371 -0.0436092 0.607917 -0.363496
2585 15.533 2.02218 2.27499 0.691662 -0.652226 0.024856
2469 16.2108 2.65767 2.89439 1.09237 -0.266548 -0.673878
1211 17.1944 1.62795 2.7218 -1.69492 -1.15448 0.650832
3419 17.146 2.82237 2.16296 0.786 -1.00782 -0.42959
2522 16.4429 1.59631 1.98807 1.05476 -0.690171 0.688467
116 0.753647 3.21124 2.55546 -1.60561 -0.597593 0.177008
1894 0.714743 3.97269 1.78146 0.968813 -0.883647 0.17216
3761 2.0838 3.1214 1.72418 -1.19934 0.356683 0.324102
2069 1.88285 4.25967 1.63851 -1.94707 1.16032 0.563614
2723 2.87422 4.25231 1.7285 -0.988294 -0.330077 0.392686
2775 2.49829 3.8167 2.64696 1.36137 -1.03943 2.11672
1271 1.51402 4.3066 2.6326 -0.957733 -0.228029 0.0327206
3557 4.01642 3.16 1.91126 0.496492 -0.141071 -0.324636
1386 3.76609 4.04807 2.31947 -0.793871 2.29533 0.354714
564 5.49976 3.89803 2.0355 1.38194 2.24663 0.264455
1257 4.7816 3.26231 2.56671 1.2594 -0.164148 1.161
2764 4.52822 3.99771 1.54384 0.174658 -1.11883 -1.46702
1588 7.24011 4.32503 2.28376 0.35082 -0.140735 -0.802194
708 7.07269 3.37542 2.10004 -0.442461 0.282543 -1.75529
2374 8.66317 4.25278 2.37013 -0.484946 -0.0299046 -0.291392
1583 9.40864 4.12471 1.52033 -1.03498 -1.00947 0.619353
898 9.69078 3.26432 2.11147 0.626193 -0.670992 -1.13672
3476 10.9899 3.14747 2.48111 -2.20508 -0.689685 0.789404
3882 11.5672 3.94904 2.64735 -1.12162 1.23574 -0.190999
2535 10.564 3.88415 1.54764 -0.83383 -1.38427 -0.794534
1172 13.084 3.51646 1.77923 -0.78735 -0.702709 0.857396
405 12.6228 3.7209 2.76039 -1.51944 -1.05666 0.837476
2163 13.8902 3.87907 2.42101 0.973059 0.11731 -1.03043
226 15.3158 3.54444 2.34817 0.644979 -1.38016 0.467675
1135 16.4048 4.34514 1.59857 0.60279 0.108897 -0.710987
3717 17.6123 3.74575 2.14853 0.246184 -0.0317634 -0.573485
2080 16.4777 3.54562 2.30472 0.27057 -0.121612 -0.61999
1907 0.718755 4.92169 2.52798 -0.626116 1.70139 -1.87323
1290 1.05792 5.28003 1.67645 -0.178311 0.243563 1.51459
3008 2.19418 5.78964 1.66458 1.37261 -0.0448015 -1.13925
3355 2.68106 5.38813 2.46403 0.842525 -0.187814 0.566587
445 3.84084 5.11435 1.95983 0.502859 -0.553073 0.419723
528 3.14687 5.82983 1.72053 0.000271897 -0.966429 1.36351
2138 3.97728 5.81073 2.65272 -1.73589 0.265906 -2.38161
3907 4.88072 4.88602 1.94837 -2.20999 -0.461356 -0.747426
20 7.0497 5.30126 1.76329 1.91585 0.0658098 0.952361
3092 6.73 5.08239 2.92809 -0.83914 0.45711 1.04207
2712 5.99041 4.94985 1.9861 -0.768501 0.851395 0.557676
234 8.39009 5.36342 1.71248 -0.0900955 -0.530816 -0.730337
296 7.80122 5.33969 2.59923 0.832452 0.756068 -0.178922
3806 9.88512 5.62158 1.66535 -1.80223 -0.78329 -0.525856
1820 10.0834 4.61664 2.0399 -1.24287 0.423871 0.457015
2786 11.6724 4.95045 2.82253 0.642873 0.831019 -0.291953
350 11.4171 4.4836 1.65188 0.25274 -0.609061 -1.15305
790 11.0819 5.54406 2.07251 1.05483 -0.262137 -0.682206
575 12.9532 4.90154 2.72785 0.228282 -0.0816172 -2.10154
2623 12.4332 4.64794 1.9536 -0.110491 -0.88672 1.43076
436 12.3758 5.68932 1.98691 -2.01979 -0.734917 0.671319
1861 14.6639 4.51732 1.71432 -1.0503 -0.447806 -1.47169
726 13.9085 4.95362 2.22349 1.18632 -0.0218171 0.288279
2351 13.8482 5.86729 1.68926 0.14151 0.862252 0.713168
789 15.1022 5.56544 2.48882 -0.320637 1.61322 -0.583404
3145 15.5848 4.5724 2.26905 2.12318 -0.65804 -0.943236
3388 16.2853 5.79052 2.3405 -1.4056 -0.0222298 0.154671
2784 17.7381 4.81761 1.98441 0.734986 -0.32428 0.161851
153 16.9124 4.75831 2.65772 1.68033 -0.539253 2.59635
2262 17.3042 5.74188 2.66572 -0.254268 -1.2223 -1.08078
2803 0.919793 6.28068 1.95986 -0.709878 1.00698 1.14401
2889 1.11507 7.27675 2.59444 1.94795 -0.075471 0.949048
800 0.201146 6.50087 2.76917 -0.29152 -0.968 0.670015
1282 2.14556 6.7196 2.30523 1.68387 -0.786024 -0.633785
1366 3.97174 6.84429 1.95965 -0.0350202 1.38237 1.1348
28 3.03972 6.88935 1.77689 -1.32651 0.426061 -1.97064
1550 5.95335 6.24251 1.52595 0.952742 1.09787 -0.285856
3971 5.92144 6.0161 2.82162 -1.14651 -1.12908 -1.00141
3084 5.64032 7.16989 2.22485 -1.89854 1.03955 0.491129
2553 7.14563 6.60871 1.73385 -0.0868266 -0.868089 -2.0313
2947 6.62254 7.1925 2.80459 0.426831 0.668047 0.51842
2212 6.47597 7.42308 1.66076 -0.394179 -0.804696 -0.291369
856 7.73752 7.1296 2.42874 0.409274 -0.342699 1.37453
387 9.81493 6.78765 1.89315 -0.263807 -1.83847 -0.907983
3820 9.0504 6.26043 2.60083 -1.41338 -1.20919 0.824921
2060 11.1884 6.60749 1.54954 0.91099 0.0730775 1.66858
2949 10.4513 6.64374 2.59088 -0.868928 0.601103 0.00935992
2851 11.5988 6.321 2.57849 0.584758 -0.0886357 -1.06781
2416 12.4532 6.71914 2.12729 0.757268 -0.504955 1.2055
410 12.9755 7.33853 2.96657 -0.128933 0.846019 -1.68644
262 14.7771 6.40952 1.81345 0.784561 0.957204 -0.119835
1063 13.7785 7.03626 2.19886 0.479007 1.07998 -0.488488
859 15.7009 6.70353 2.62929 -0.38917 1.08589 1.50699
2167 15.8221 6.75112 1.63158 0.113922 -1.02118 -0.238752
3551 16.8426 6.98545 2.02327 -0.514515 0.257758 0.0571811
1636 17.267 6.13466 1.56038 0.895724 1.68061 1.66048
2669 0.955294 8.74393 2.84607 -0.353582 2.17264 -2.24045
427 0.792819 8.21371 1.73649 0.468457 0.931637 -0.777818
1892 1.72456 7.95017 2.40385 0.546838 0.203303 -0.145639
1354 2.66803 8.01877 2.25454 -0.328402 0.238835 -0.708877
232 4.37782 8.57421 1.71044 -1.00636 0.466153 -0.282799
2813 3.7735 7.95777 2.58874 -0.902287 -0.108113 -0.274481
242 5.07682 8.43794 2.58139 -0.615193 -1.22969 -0.38894
382 4.60061 7.62026 1.9371 -0.176323 1.94366 -0.219227
2404 7.18203 8.01537 2.61351 0.270212 0.664543 -0.643312
3690 6.59972 8.69072 1.95567 0.81197 1.57347 0.148667
2528 8.19068 8.11478 2.0384 1.36676 -1.38473 -0.80234
280 9.15523 7.75325 1.97859 -0.559227 -0.429076 -0.873595
3715 9.95489 8.9239 2.37626 1.95818 0.0644644 1.67594
696 10.179 7.68028 2.30749 0.195159 -0.637322 -1.08284
549 11.6637 7.46243 1.6154 2.0995 -0.653333 0.905773
2507 11.2298 8.37031 1.93238 -0.46108 -0.797326 -1.72606
128 12.9194 7.67179 1.56619 0.0227568 -0.0838275 0.533971
1170 12.2928 8.04151 2.32845 -0.586589 1.0627 -0.832358
3931 13.4278 8.31337 2.25436 -1.54915 -0.529598 -0.313394
3106 14.804 7.58609 1.98982 -0.342876 -0.80377 -1.82225
3357 14.6665 8.76889 2.53604 0.339698 -1.26051 0.53105
2752 16.0686 7.82084 1.5821 1.63535 -0.32929 0.0185165
3324 15.1501 8.4813 1.63741 1.019 -0.362517 1.49877
502 15.9462 7.91438 2.53435 1.06035 -1.92384 1.0562
2997 15.9898 8.86611 2.25925 0.881358 1.69838 -0.97361
1616 17.8511 7.49115 2.28006 0.386769 0.101219 0.370012
577 16.8333 8.27537 2.15475 -0.944445 0.394155 -0.789896
1903 17.8141 8.45805 2.69803 0.315452 -0.853031 1.11107
1151 0.772174 0.0688001 3.68251 -0.655855 -2.1522 0.268566
1429 0.23699 0.758621 4.13287 1.56778 1.18154 0.871419
2209 1.07966 0.971502 3.39148 0.393981 -0.372617 -0.053461
159 1.93941 0.487125 3.92342 0.222515 0.622333 0.227955
311 4.19849 0.315098 4.08532 1.20795 2.81389 1.30164
3072 3.57986 1.12139 2.99645 -0.195382 -0.573773 0.888778
3967 3.16607 0.464953 3.99488 0.373394 0.136341 0.182667
2718 3.29096 1.45435 4.08369 -1.24921 0.556693 -1.12178
2594 3.75718 0.175368 3.17963 0.825392 0.740462 0.35893
3284 5.63413 1.1148 2.99208 1.18462 0.908047 -0.0646111
3331 5.26628 0.614365 4.15658 0.539566 -0.114215 -0.315429
3489 4.70365 0.693705 3.09234 0.161267 -1.34918 1.55207
823 6.42146 0.753101 4.02423 -1.28935 -0.0954083 3.5219
3744 8.54999 0.134025 3.59826 0.141466 0.127575 0.0513782
3093 7.58902 0.379126 3.46559 2.2982 -0.186555 0.584028
3512 9.34631 0.783666 4.05554 -0.355474 -0.700049 0.169603
3361 11.6297 1.40203 3.78578 0.179209 1.02489 0.0736095
2285 11.1304 0.393035 4.22559 -0.523786 -0.422016 1.60417
2397 11.0797 0.22973 3.24336 0.876495 1.60987 -0.213114
1196 12.3936 0.901152 3.22433 1.21485 1.32617 0.0580497
2552 13.3727 0.338001 4.06711 -1.11935 -0.401012 -0.145747
3099 12.3426 0.901879 4.27647 -1.19195 1.20072 0.756824
3922 13.9944 1.1292 3.73977 -1.22619 -0.502311 -0.436567
3201 14.8921 0.45656 3.63235 -0.832819 -0.95439 0.974242
2551 15.6524 0.982769 4.34743 1.33674 -0.209855 -0.69324
446 16.2034 0.0151456 4.15397 -1.02404 -1.65208 1.32078
1539 16.7809 1.08961 3.79335 -0.248086 -0.372195 0.547777
1605 0.0427028 2.92956 3.41768 -1.22629 -0.367215 1.64433
2421 0.596038 2.46589 4.18368 0.357548 -0.666051 -1.42297
453 0.115415 1.65732 3.56285 -0.319696 -1.45276 0.278637
662 2.25044 1.518 3.56073 -0.566555 -1.51244 1.29747
2648 2.39215 2.82387 4.28385 -0.294173 1.20436 0.25811
3809 4.37774 1.513 3.75338 0.572903 1.36104 -0.914813
349 4.72268 2.37493 3.1144 -0.368253 0.0649948 0.0234926
395 5.0116 2.28485 4.086 0.0037075 0.928215 1.10872
3431 5.90615 2.33535 3.60772 -1.2386 0.527126 -0.669148
27 6.89875 1.77518 3.76064 0.599214 -0.102067 0.157815
825 6.74905 2.79998 4.35623 0.341581 0.00720916 1.08611
2927 10.0688 1.58249 3.58809 -0.407635 -0.392684 -0.215619
2200 9.05407 2.94553 3.35991 0.512574 1.55721 -0.31731
3754 8.94725 1.49327 3.27726 0.104911 -1.3481 0.604439
1124 10.9734 2.29931 3.3379 1.12274 -0.769516 -0.317228
1206 11.8442 2.3698 3.85084 0.429275 -0.180039 -0.456976
2523 10.767 1.98945 4.27123 0.00371208 0.851207 -0.193502
3749 13.2139 1.59645 3.16349 -0.087758 -0.52028 0.757788
3995 12.9173 2.60738 3.60343 -0.357427 -0.00636538 0.313485
1756 12.9795 1.69345 4.16849 1.08854 0.0860592 -0.988631
725 14.0194 2.97354 3.04829 -0.677393 -1.23196 1.08396
3046 13.999 2.14426 3.96159 0.23391 1.06353 -0.466083
2666 16.1117 1.78027 3.45973 -2.71772 1.0442 0.060151
1385 16.3187 1.84705 4.40778 0.0879201 -0.452276 -0.17202
1425 15.1305 2.51176 3.2636 -0.181066 -1.33499 0.255742
3578 15.0123 1.83683 4.05612 -0.974244 -2.8183 -0.939967
1188 17.0002 2.32675 3.65253 2.3595 -0.537054 -0.19639
2227 0.856149 4.0688 3.40728 0.513219 -0.283195 2.77728
1222 0.941412 3.41888 4.12655 0.945583 0.0803873 0.164041
1690 2.88171 3.09292 3.35924 0.311525 0.129684 1.38998
781 1.65963 3.22556 3.21649 0.280246 -0.784914 -1.28366
2345 1.99128 4.20726 3.66874 0.922093 1.28162 0.0247205
2629 4.07819 4.10187 3.78428 -0.138133 1.47014 -0.532365
363 3.0629 4.08536 3.49723 0.0721048 -0.252953 0.640608
2414 3.33746 3.3229 4.24912 1.88789 0.870245 1.06907
3469 3.93611 3.22823 3.31028 -0.517763 0.0243377 1.44807
180 4.84341 3.36227 4.21304 1.07606 1.04082 1.37356
3656 4.83863 4.07335 3.11278 0.859343 0.217525 2.11561
3721 5.42899 3.2659 3.26172 0.706998 1.69326 -0.0476662
3889 5.24561 4.42792 4.20434 -0.6828 0.98039 0.000632614
208 7.08708 4.28864 3.71858 -0.715993 0.845695 -0.160412
3208 7.09309 3.25364 3.45087 -0.761963 -0.425642 -1.67279
3064 6.06373 3.7063 4.06281 0.1353 -1.08397 0.153207
1823 6.30229 3.86478 3.01494 -1.72089 -0.156311 -1.57591
3033 8.88161 3.91216 4.11399 0.41574 1.68572 0.325627
3679 7.79803 3.57513 4.13868 0.495385 0.237233 1.3694
1150 7.98325 3.89187 3.18559 2.76124 0.226116 0.590293
3592 9.72466 4.35992 3.19877 0.81917 0.28172 -0.709205
1358 11.4801 4.42604 3.91931 0.124441 1.79175 0.829381
2750 10.5486 4.30641 4.38221 1.51166 -0.765391 -0.629369
501 10.6122 3.70128 3.43315 0.234035 -1.67615 1.18543
2944 11.7192 3.46211 3.67629 1.1548 -0.0842206 1.05688
222 12.6283 3.35299 4.25984 -0.312354 -0.671678 0.551327
364 13.5935 4.2528 3.90646 0.422096 -1.19721 0.505728
3086 14.7602 3.39155 3.81392 0.370193 -0.570976 -0.17193
32 13.728 3.12652 4.17343 -0.350684 0.674157 -1.72385
1650 15.751 4.07607 3.16885 0.692042 -1.72569 0.923539
904 15.7808 3.33423 4.00587 -0.654871 0.186664 -0.541646
3752 15.3015 4.45663 4.20295 -1.63733 1.9766 0.25221
1937 16.9326 3.63721 3.37516 0.308726 -0.670237 0.392279
1096 17.5871 4.36104 3.22281 -0.590539 0.0694942 -0.939072
707 17.5065 3.82084 4.19844 -1.12621 -0.612771 -0.60398
2861 16.5712 4.42565 3.75777 1.90155 -1.94148 0.207427
2962 1.32401 5.53517 3.04763 1.10188 0.63108 1.49795
3167 0.39667 5.01809 3.7393 -0.675513 -0.0987227 -0.732986
1062 1.14866 5.26643 4.39146 0.628636 1.63309 -2.4859
2198 2.83906 5.15782 3.5608 0.765158 0.839431 2.49942
2716 2.23301 5.83451 4.17281 0.488827 -0.932778 0.579643
2713 3.77753 4.81387 3.07286 0.29828 -2.12303 -0.572539
2427 3.90052 5.55527 3.80881 0.108576 -0.510163 -1.44277
1803 5.81796 4.65164 3.38775 -1.41908 1.53825 1.45585
2671 4.87754 5.30322 3.05256 1.20007 0.798559 0.727364
2895 5.14818 5.62121 4.02837 1.26691 -0.0990259 -0.755112
754 6.49019 5.09078 4.32794 -0.553732 0.645002 -1.47805
2972 7.36067 5.62048 3.67111 0.0114141 1.17681 0.238554
2907 8.13536 4.82776 3.68302 0.124686 -0.345661 -0.233782
3330 8.26986 5.90279 3.44295 -0.170302 -1.03001 0.737885
43 9.00788 5.04205 4.42803 0.381015 0.769209 -0.396355
1617 9.935 5.44754 3.07915 0.017706 1.20302 0.0115281
428 10.0202 5.46703 4.3203 0.0266596 -1.34783 0.200219
1237 10.7395 4.95802 3.37002 -1.48161 0.0585956 0.0203225
536 11.1001 5.49614 4.19654 -0.279945 -1.38223 -0.105871
585 12.6734 4.48808 3.63335 1.19201 -1.36683 -0.415441
729 12.4417 5.66763 3.03905 -2.28571 1.5463 -0.0658222
3821 12.1767 5.5634 4.1189 0.567656 0.427348 0.521492
1492 14.4859 4.87702 3.11432 -0.474868 -0.442752 0.269124
102 13.4325 5.42552 3.61334 -0.366572 1.65086 1.38846
684 15.6123 5.18495 3.34631 0.111522 -0.940025 0.203486
3764 16.1587 5.35366 4.16368 -0.331647 -1.08287 0.830811
2624 17.0613 5.29234 3.66563 1.12769 -1.54173 1.34288
2536 0.766775 6.11578 3.73626 -0.448775 0.431751 0.515033
869 0.752001 7.32965 4.03765 -0.103264 -0.678913 0.101878
392 1.84065 6.49513 3.4652 0.679383 -0.487119 -1.33336
238 1.80538 7.37528 4.24151 -0.35989 0.05105 0.413217
908 3.85806 7.28487 4.12713 -2.29057 0.754954 0.161134
2683 3.8012 6.87846 3.05792 1.48021 -0.353363 -0.161619
2914 3.08775 6.45465 4.14927 1.05864 -1.89314 0.572569
2078 3.02669 6.11341 3.11845 0.038401 -1.8607 -0.860214
140 4.92402 6.52811 3.22554 -0.367947 0.685464 -1.09231
2567 4.82919 6.75447 4.30765 -0.340891 0.652876 -0.244328
109 5.76665 7.39366 3.39436 -0.554393 -2.75556 -1.18621
689 6.00596 6.29857 3.88895 -1.51582 -0.0382578 0.282481
2402 7.08054 6.80016 3.76508 -1.58401 -0.00328545 -0.00623563
2541 8.18202 6.93507 3.65833 1.35349 -0.128277 -0.211138
3515 9.17626 7.39781 3.59055 -0.831833 1.34065 0.880028
343 9.22728 6.48673 4.10776 -0.0717918 1.61753 -0.304707
1276 10.2151 7.38929 3.58863 0.976899 1.60786 0.19678
669 11.1675 7.43103 3.38496 0.281219 0.387071 -1.79391
1327 10.6956 6.43589 3.6823 0.31634 2.10821 -0.033035
2480 11.9967 6.63013 3.50177 -1.11976 -0.540488 1.71397
916 13.1674 6.3845 3.19069 -1.07987 -0.28057 -0.375147
3710 12.7075 6.57526 4.29548 -1.0499 -0.47374 0.161519
1844 14.2883 6.09921 3.72426 0.848911 0.170713 1.55495
2722 13.9004 7.16638 3.55794 0.58826 0.195015 -0.3454
2682 15.734 6.14048 3.7935 -0.147875 -0.564041 -1.55347
190 15.6883 7.4364 3.61088 -0.0814193 -0.205634 -1.75445
2147 17.2702 6.01862 4.31857 0.361702 -0.0855926 0.0451899
337 17.7031 6.84204 3.94495 -0.233922 0.150778 -0.023664
1024 17.022 6.53891 3.11772 2.78317 -0.522652 0.723241
772 16.5503 6.87252 4.15283 0.768191 0.91678 -1.63193
736 0.587209 8.84984 3.75683 1.0277 -0.726819 -0.975701
2495 1.55326 8.04118 3.56033 0.52167 0.365345 -0.547653
3733 2.42498 8.20713 4.27573 -0.130413 1.49499 1.86102
1200 2.51091 8.68176 3.11003 0.0841818 -0.24365 -0.234128
1084 4.10933 8.65487 4.15024 1.60399 -0.292786 -0.290881
3703 3.2879 8.10286 3.61918 0.686075 1.60285 0.233814
1199 4.5727 7.78609 3.5122 0.816228 0.117962 1.71513
2833 5.37087 8.58472 3.61378 0.791318 0.241131 -0.679867
3811 6.23418 8.38677 3.05781 -2.21434 1.92167 0.0173341
2341 6.58808 7.65143 4.00076 -0.447888 -0.189278 0.267436
2068 6.27715 8.66754 4.23952 -1.22357 -0.307197 0.339394
420 8.05957 8.22842 3.1714 -0.364717 0.0207583 -0.597019
1421 8.67802 8.26336 4.11843 -0.531071 1.47803 0.117327
2428 7.6574 8.2106 4.09672 1.03466 0.696358 -0.27029
1691 9.4281 8.82597 3.45289 -0.0565754 1.39306 0.64432
389 11.5246 8.53024 2.9915 -1.24826 0.945537 -0.444968
3982 11.6915 8.33909 4.43067 -0.739426 -0.652863 -0.834664
3765 10.491 8.47774 3.68337 1.62966 -0.999151 0.365988
2373 12.2861 7.88081 3.48565 0.276533 -0.128079 -0.729905
2986 13.3483 7.9905 3.75076 0.864116 1.46949 -1.90197
3832 14.6566 7.97443 3.24633 1.71118 -1.10758 0.948977
271 14.725 8.19395 4.39346 -0.55819 -1.43482 0.0425503
1999 13.7428 8.9243 3.18349 0.348998 0.280268 1.57898
3637 13.8753 8.86034 4.35176 -0.711147 0.877767 1.01796
1813 15.5848 8.61727 3.66536 -0.657693 0.818532 0.303569
978 16.522 8.79672 3.09892 0.0760673 -0.464617 -0.661679
423 16.9164 7.70843 3.01238 -0.332342 0.203393 -0.127219
2431 17.8442 7.73143 3.47308 -1.43085 0.205185 0.554874
3054 17.4353 8.70046 3.66968 -0.356554 2.08462 0.664609
1348 16.4086 8.02212 4.2083 -0.811904 -0.0132329 -0.150882
2295 1.33827 1.2659 4.52912 0.432204 0.553194 -0.623714
3547 0.949664 0.33487 5.69246 -1.71882 -0.555599 -1.43662
2405 2.48467 0.0433472 4.83355 0.421225 -1.37771 0.31556
3625 2.42184 1.27175 4.64214 0.392432 1.6012 0.686254
3109 1.77927 1.45435 5.81432 0.558007 -0.780696 -0.969371
2876 3.25698 0.875744 5.5801 -1.35018 -0.18486 -1.00026
2070 3.77925 0.225021 5.03992 0.601869 -0.0996452 -0.986956
1301 4.47853 0.96937 4.76966 0.430142 1.40943 -0.199431
3816 4.92724 1.00607 5.81536 0.462467 -0.832343 -2.09736
2155 5.56292 1.47839 4.82076 1.32825 -1.01407 -1.22564
607 5.0418 0.191371 5.05645 0.69113 -1.07159 -0.0824355
2352 6.69714 0.0494181 5.95792 -0.231581 1.28784 -0.566761