ITEM: TIMESTEP
40000
ITEM: NUMBER OF ATOMS
4000
ITEM: BOX BOUNDS pp pp pp
0.0000000000000000e+00 1.7878070701931353e+01
0.0000000000000000e+00 1.7878070701931353e+01
0.0000000000000000e+00 1.7878070701931353e+01
ITEM: ATOMS id x y z vx vy vz
2374 1.01589 0.274819 1.40406 1.74339 -0.902134 0.309079
237 0.336178 1.0835 1.4212 -0.869064 0.136575 -0.352285
3216 0.245276 1.10508 0.327851 -1.04127 -0.0146369 0.183583
530 2.41858 0.579204 0.703894 -0.933276 0.367847 0.132547
1128 1.58218 1.05714 0.408134 0.869693 1.57361 1.66227
1941 3.99176 1.01462 0.657384 0.386289 2.08539 0.831198
3556 3.34676 1.38187 1.40677 -0.412878 -0.21408 -0.61665
3440 3.47778 0.226116 1.45976 0.0645549 -1.33922 0.740048
303 3.57024 0.0328469 0.190589 -0.960111 0.240433 -1.77085
3066 5.45475 1.43055 0.407785 0.829937 -0.923577 0.367701
2032 6.33719 0.72929 0.506766 1.22022 -0.682444 0.0623731
1098 7.21492 0.72894 1.021 0.0661096 -1.32271 0.35175
1764 8.19194 0.633523 0.421724 -0.283595 0.504745 0.0281561
1118 9.00923 0.00441839 0.261212 0.734639 -1.26037 -0.0924582
2048 10.2198 0.57239 0.964816 -0.678917 1.16524 -0.561443
3356 9.28149 0.980958 0.545937 1.20603 2.04508 0.284638
1011 10.0482 0.353582 0.0190566 -0.391439 0.557057 -0.58185
1982 11.1913 0.199061 0.758193 2.37006 -0.568604 0.111462
3738 12.02 0.795337 0.762269 0.334287 1.01687 -0.50027
1069 12.1805 0.00741658 0.0956493 -0.367502 1.68204 1.19063
1024 13.058 0.111265 0.600272 1.29763 -1.39422 -0.725298
2450 13.9533 0.889465 1.03653 -0.569849 0.8507 0.240015
3928 16.2781 0.903799 0.770902 -0.183717 -0.252578 -1.38627
474 14.9785 0.946401 0.571369 -0.893206 -0.718745 -0.744272
1853 17.2943 0.628402 0.907548 1.86889 -0.23785 -0.374646
3001 0.8401 2.39627 0.230322 1.58908 1.04507 -0.710268
2383 0.766894 2.06633 1.31285 1.81883 -2.22022 0.646048
1776 1.71311 1.59615 1.34456 0.619795 0.607395 -0.863737
1315 1.57966 2.81304 0.915132 -0.281502 0.135991 -0.256665
3072 2.48943 2.1253 0.886376 1.6533 0.797283 0.0340529
1067 3.54856 1.85403 0.275532 -2.0671 0.0589537 0.950875
2069 3.65072 2.85708 1.1103 -0.56215 -1.14592 1.02154
2278 5.23031 1.77672 1.38776 -0.414135 1.73982 1.29137
901 4.7698 2.95511 1.43403 0.436647 -0.825267 -0.270909
1341 4.5335 1.96746 0.424898 0.937968 -0.344532 0.191858
2308 5.71033 2.59194 0.540318 -1.77062 1.61533 -3.10666
2347 6.7275 2.85019 0.108802 0.160219 -1.12591 -1.00283
1718 6.48594 1.8773 0.64216 1.09262 0.899835 0.871961
3339 6.28688 2.6395 1.45682 0.165182 -1.29455 -2.29338
2159 8.32684 2.69114 1.28597 0.25886 0.187224 0.515781
1333 8.31294 2.51867 0.190396 2.36445 -2.33527 -0.3882
3537 8.28646 1.61154 0.90059 0.154249 -1.78887 -0.00192574
1063 7.58234 1.80671 0.0448809 0.698554 -0.0331897 0.680044
2551 9.28056 1.8906 1.0866 -0.453854 1.56115 0.576883
1374 10.1151 1.54935 0.466383 -2.33997 0.569426 -0.0436043
2489 10.0894 2.48483 1.22918 0.526689 0.404799 0.803745
2284 11.1844 1.50166 0.937512 1.13611 0.609274 0.360899
2716 12.3698 2.64731 0.953071 1.05385 -0.763592 1.03365
3780 12.1 1.78944 0.419123 0.935233 0.579773 -1.04007
2029 13.0084 2.07675 0.0122253 0.195513 -0.0360156 -0.676938
3941 14.185 2.09883 0.845207 1.41466 1.14917 0.0946159
2282 16.3453 1.74706 1.43368 -1.37513 0.149155 -1.98876
92 15.2308 1.94714 1.03485 1.15375 -0.0787512 -2.04827
918 16.1167 2.46739 0.788776 0.0526556 1.66028 -1.27757
3862 15.1142 2.91561 0.31409 0.150291 0.392288 0.582151
3843 17.3737 2.40952 0.909406 -0.826806 -0.954003 -0.894896
423 16.9871 1.55573 0.403132 -0.615448 1.07481 -1.44567
1993 0.654023 4.21767 1.12709 -0.894001 -0.271546 -0.537555
3482 2.68592 3.41833 1.32262 -0.0590665 2.06434 0.556669
3182 1.84176 3.90128 0.869431 1.43738 -1.7824 -1.01624
3386 2.97077 4.04389 0.278801 -0.548438 1.40334 1.87012
455 4.46787 3.43523 0.354995 -0.399553 1.02744 0.460021
2635 4.76117 4.16065 1.28828 -1.39561 0.94914 2.45823
274 6.38336 3.86944 0.786495 -0.301742 -0.293737 -0.676253
902 7.08548 4.02531 0.0151425 -2.11984 0.728596 -0.643404
3055 8.33393 4.22277 0.331687 2.09091 0.887452 -2.15901
73 7.63643 3.27778 0.80378 -0.865597 0.671235 -0.631406
1062 9.26225 2.99171 0.668963 2.42001 0.232135 0.302862
1905 9.39021 3.95554 0.00850747 1.35937 -0.804247 0.237211
3301 9.26438 4.03383 1.13587 -0.800143 1.42195 -0.464862
3592 10.1914 3.54083 1.36424 -1.4035 -0.0085815 0.51334
983 10.3784 3.59196 0.318926 -1.07784 0.97773 1.02687
1820 11.3578 4.01429 1.40931 -0.298789 0.07418 -0.365834
3944 11.349 3.08323 1.28425 -0.705319 0.884045 0.679717
1242 11.6202 3.74314 0.361214 -0.510753 -2.03603 -1.52592
3269 12.6863 3.56736 0.371722 -0.37152 0.769171 0.134974
1470 14.3643 3.09493 1.16973 0.61067 1.76108 0.292943
2140 13.488 4.02168 0.885811 -0.20907 1.17216 0.0573752
1671 14.1128 3.6808 0.249546 2.36571 -2.26316 -0.176901
2521 15.4378 4.15218 0.676132 1.32865 1.10287 -3.49538
71 16.2457 3.36854 0.196515 -0.586973 0.339333 -0.172343
3091 16.7019 4.12162 0.667242 -0.474083 -1.13735 0.151089
1076 17.5104 3.50738 0.933287 -0.497465 1.95821 -1.89735
2657 17.7465 4.40409 0.173236 0.467405 -1.79964 -0.694441
440 1.08001 4.83933 0.0927596 -0.572853 -0.0711438 0.661126
3033 0.571458 5.81141 0.639068 -0.0883211 -0.720012 -1.09667
409 1.04159 5.07897 1.27617 -1.44429 -1.62058 0.00172136
1623 1.80577 5.69154 1.22967 -0.0944813 0.879478 0.793249
3934 3.12915 5.41116 1.02185 -0.60237 -0.68627 -0.571466
2179 4.15177 5.76515 1.38814 0.607408 1.40112 0.342274
3836 4.1349 4.91122 0.787415 -0.474314 -0.323503 0.494759
179 4.3738 5.85644 0.15389 0.0790267 -0.375718 2.42573
966 4.99459 4.80969 0.0469298 -0.704726 0.682376 -0.463768
3608 5.7257 4.75172 1.16615 -1.84974 1.89135 0.463591
2514 6.48645 4.80828 0.27688 0.00194572 0.768504 -0.102586
1047 6.73038 5.38762 1.24214 -0.944349 0.0581295 -1.40086
510 7.47511 4.67287 0.827367 0.422346 0.0597906 0.869512
1500 8.26728 5.32143 0.641602 -1.23099 -0.206402 0.83394
3455 9.97619 4.71999 0.833358 1.1742 0.590005 0.16913
98 9.25466 5.52153 1.05686 0.0918595 0.796782 0.0529749
1099 9.20095 4.86301 0.153781 -1.21838 -0.719075 0.352253
2980 9.13364 5.89575 0.0403133 0.601693 0.946097 0.960112
2366 11.0102 4.53543 0.525347 0.0277597 -2.4826 0.712772
3585 11.5044 5.07611 1.43569 -0.18095 1.60737 1.22387
279 12.2964 5.86846 1.09053 1.01076 -0.771555 0.143896
2244 12.7443 5.43768 0.333058 0.902178 1.05239 0.711253
1228 11.9504 4.91533 0.0591185 -0.00420461 -0.265839 -1.38743
3267 13.3335 4.64794 0.0717762 -0.350971 0.445416 -1.26209
1758 12.4411 4.4704 0.981164 -0.0395061 -0.949406 -0.293742
2143 13.3744 5.19138 1.31061 -1.15407 0.0541918 -0.387784
2688 14.2216 5.01074 0.801786 -2.20197 -1.96209 2.35261
153 13.7227 5.63452 0.0490101 -0.642725 0.7926 2.5593
2301 15.2383 5.27357 0.592867 0.925518 -0.608573 -1.01155
2566 16.0273 5.36585 1.34772 0.726301 1.05191 -0.581168
1151 16.6564 5.15105 0.563566 -0.783303 -0.380338 -1.29454
174 17.7078 4.88711 1.20564 -0.298667 -0.00508887 0.0940101
1159 16.9886 5.91433 1.2305 -0.02987 1.43792 0.0890835
668 17.5648 5.57421 0.0753382 0.446676 1.29148 0.825454
511 1.09324 6.83104 0.761288 1.17039 1.4041 1.11053
3885 0.032111 6.61399 0.864704 -1.5469 0.321693 0.114387
694 2.40747 6.24539 0.622186 -0.62244 0.371188 1.88224
1856 2.71649 7.10264 1.00468 -0.275341 -1.00618 -1.80168
3423 1.95748 7.2491 0.225072 -0.784628 -0.518207 -0.750477
2062 3.65702 6.5735 0.667182 0.68051 -1.02886 -0.451459
369 3.0919 5.98564 0.0009325 0.389034 0.343855 -2.45426
77 3.06519 7.14422 0.056385 -0.30864 0.710561 0.717465
382 5.11118 6.53832 0.545592 0.749843 -0.0781132 -1.16479
1262 5.93293 6.90937 1.15332 0.276026 0.418503 -2.3165
3884 7.39743 7.36118 1.46851 -0.548774 -0.349758 -0.335796
2289 6.67776 6.64756 0.545119 0.131618 -2.18374 -0.107778
1687 7.70944 7.20153 0.448126 -0.182047 -0.272087 -0.647254
464 8.43919 6.73971 1.3407 0.713677 1.40421 -2.59183
1409 8.20121 6.39589 0.436017 0.472582 -0.412309 0.683867
3861 10.1364 6.02764 0.395921 -1.01524 1.30676 -1.13027
448 10.1321 6.09739 1.47464 -0.342545 -0.414937 -1.24199
3756 9.35762 6.81207 0.450668 0.717509 -0.419437 0.942216
1235 10.3098 6.98622 0.856207 0.217918 -0.494576 -0.630944
2430 11.167 6.00704 0.965604 -0.903263 1.05099 -0.285055
1404 11.7593 6.75617 1.46602 -0.763647 0.34562 -1.07137
677 11.2174 7.20429 0.231414 1.70377 -3.40069 1.8437
101 13.2276 6.26751 0.942166 0.654037 0.909138 0.262356
498 12.401 6.88565 0.620496 -1.54849 -0.766221 -0.00936242
465 14.3809 6.34898 0.717877 0.147108 -0.683633 0.0211817
472 13.8049 7.40224 0.868683 0.0534509 1.14653 -0.815033
870 16.1267 6.14547 0.292393 0.666931 0.701294 -0.159137
3629 16.2186 6.76146 1.32649 0.707202 0.372841 0.00946289
1757 15.6467 7.43528 0.782628 -1.27219 -0.561736 1.37221
3199 0.0835792 7.69075 0.639941 -0.800717 0.791612 1.26452
3422 1.12374 8.61027 0.392701 -0.267154 -2.03049 0.238521
241 2.87953 8.10346 0.427542 0.790621 -1.6681 -1.01345
3209 1.95321 7.93225 1.26554 0.601972 -0.135913 0.140337
484 3.63995 8.80317 0.339794 0.517773 0.448537 0.619408
1802 3.8726 7.58481 0.827425 0.71929 0.290696 0.000953941
1115 4.91779 8.5039 0.714376 0.954677 0.284869 0.66913
2167 5.00114 7.52105 0.819832 -0.668741 -1.11001 0.457856
812 6.13438 7.74386 0.551916 -0.909216 0.833904 -0.482334
1892 8.00563 8.6128 0.859277 -0.205649 -0.902514 -1.31371
1303 8.97072 8.14149 0.981844 -2.6716 -1.15171 2.02337
1166 9.79838 7.8189 0.384569 0.642192 -0.69531 -1.99959
1178 10.8049 8.14441 1.15704 0.724471 0.0766631 -1.32047
663 11.0855 8.47695 0.20758 0.239515 1.81296 0.177807
1012 12.6004 7.86956 0.558714 -0.099644 -0.411826 1.85199
2766 13.1263 8.89151 0.961906 0.614877 0.636259 -1.15223
3912 14.6791 7.5715 0.192003 -1.4367 0.419777 -0.497777
2322 14.8859 8.71235 0.0489436 -0.917674 -1.41205 0.421859
2013 14.0328 8.37298 0.878368 -1.00267 -1.11588 -0.0995174
3596 15.5626 8.44595 0.801923 -1.59743 0.344985 0.107655
1851 17.0692 7.62668 1.30247 -0.798102 0.595762 -1.14242
2484 16.6189 8.5097 1.00441 0.767849 -0.578784 -1.83377
3583 16.6429 7.4717 0.368352 2.53427 0.152183 1.46274
350 1.21355 0.942094 2.37238 1.18918 -0.346918 0.315916
2845 0.0355496 1.12761 2.56879 1.08954 -1.03481 -0.507472
2759 2.54685 0.349279 1.79739 -0.750011 -0.190075 -0.956105
2925 2.75266 0.0600236 2.94345 1.13014 0.334878 0.928705
2042 4.34356 1.1836 2.6448 -0.668696 0.321974 -2.62871
3852 3.28144 0.958575 2.61342 0.260689 1.89288 0.237911
1903 4.4906 0.648374 1.82498 -0.97201 -0.00659902 -0.195863
294 5.32987 1.18873 2.24073 -1.31815 0.297252 0.961175
2632 4.66213 0.0485639 2.7879 0.627726 0.0480634 1.11366
2317 6.62766 0.299037 2.82211 -0.0136777 -0.714398 0.0593626
919 8.35773 0.70298 1.63666 -0.163256 -1.26264 -0.890251
2951 8.61697 0.969174 2.82268 0.59355 -1.88028 1.95627
2060 7.47887 0.426323 2.05992 0.911712 -0.946949 0.432835
2970 9.28746 0.924169 1.50365 -0.839886 -0.650246 -0.0319923
1502 9.44744 1.2514 2.39416 -2.26505 -2.28978 0.410016
947 9.48952 0.0360677 2.33152 -0.00336289 0.102621 -1.80367
1126 10.808 0.285289 2.66478 -1.1085 0.650686 -0.599523
1533 11.1443 0.652595 1.68922 -0.55403 0.147534 -0.760289
508 10.8465 1.40288 2.59907 -0.150213 -1.13079 0.0873427
1645 11.8046 1.37427 1.76122 -0.361294 1.26371 -0.818896
3146 11.9742 0.923742 2.86303 0.517535 -1.83004 -0.36803
1446 12.8597 0.927184 1.53887 -0.277519 1.09829 -1.01737
3842 13.6798 0.537279 2.70506 -0.025039 -1.15903 0.276198
747 14.2431 0.229598 1.78246 2.65963 0.0532548 0.00980858
1474 14.7656 1.16702 1.62225 -0.138153 0.691637 2.49736
657 15.7485 0.782399 1.81726 0.868038 -0.415503 0.0696108
1448 16.0379 1.12916 2.95597 -3.59588 0.112799 -1.1963
3076 15.1175 0.186254 2.37603 2.02563 -0.721753 -0.38729
1827 17.1555 1.14401 1.99041 -0.37636 0.66795 0.552205
1081 16.9271 0.532005 2.76536 -0.478025 -0.507821 -0.241882
1138 17.7637 0.27347 2.12248 1.79204 -0.638442 0.458553
1741 0.0495029 2.19939 2.22308 0.146801 -0.881863 1.23994
387 2.61573 2.06717 2.76748 0.104332 0.361772 -0.00167371
1942 2.0198 2.44451 1.97596 -1.06019 -2.26964 -0.67392
376 3.99516 2.17309 1.94774 0.276239 -0.851692 -1.98049
3171 4.94752 2.4029 2.35892 -0.504114 0.638543 0.656927
2075 6.61161 1.64498 2.778 -1.65172 -0.157578 0.473238
1156 6.16515 1.62537 1.79847 -0.854864 -0.806784 1.38757
2568 7.28653 1.67334 1.61073 1.37888 -0.76038 0.741519
3187 7.39295 2.54759 1.92915 1.76696 -0.923711 -0.465348
1833 8.56867 1.80876 1.99582 -1.02642 -2.00594 -0.477524
217 7.96049 2.21512 2.88715 1.53423 0.125642 -0.0475673
2229 9.8756 2.79289 2.67869 1.36055 1.05992 -0.558385
480 10.0394 2.04618 2.10135 0.415183 2.48803 1.18358
2051 11.0265 2.09767 1.87788 1.41913 0.0156193 -0.56911
1220 11.1042 2.37461 2.94778 0.859078 1.09663 0.465414
2905 13.3862 2.78902 1.65881 -0.884534 0.130598 -1.64866
1236 12.4757 2.32671 2.00053 2.43861 0.267905 0.529301
1452 12.2783 1.85156 2.83969 -1.2556 0.418003 -0.384412
2403 14.5863 2.37301 1.82998 -0.170747 0.477383 -1.26307
435 13.8531 1.53068 1.88456 -0.753457 -0.181365 0.385624
2066 15.352 1.67795 2.33386 1.8608 1.38029 0.39587
1025 15.6975 2.42013 1.80933 0.639322 0.0787896 -0.20291
3777 16.1672 2.1062 2.71972 1.51173 -1.59336 -0.1116
1659 15.6684 2.91887 2.66321 -0.465001 -0.154187 0.0929811
2163 16.7306 2.91756 2.46608 0.215758 -0.642821 0.0349134
469 17.0717 1.54154 2.90925 -1.02098 0.724694 2.57758
3720 1.06599 3.39748 2.48462 -0.705805 -0.444434 -1.69284
2968 0.903188 4.35772 2.23549 -0.691464 -0.390844 -1.60068
173 0.337873 3.07619 1.59275 1.89479 -0.1978 -1.11585
920 2.65565 3.24169 2.35827 -0.905453 0.402318 0.700849
1391 3.65591 3.63977 2.21473 -0.867432 -1.47263 0.341876
2345 4.70293 3.84019 2.2617 -0.172704 -0.964319 1.77785
1175 5.64854 3.66783 1.67513 0.391195 2.07336 -0.0733003
2268 7.28845 3.6328 1.91256 -0.00967206 -0.0261495 1.07517
3360 7.38917 3.17831 2.85585 1.166 -0.960215 0.256356
618 6.51005 3.09611 2.37092 -0.0120602 0.814315 -2.21428
1682 6.33334 4.21267 2.2234 0.00707984 -0.882618 -0.366774
2798 8.12939 3.97671 1.49639 -0.0848295 -0.67826 -0.761118
3500 8.65269 3.35408 2.52396 -0.461795 -0.226203 -0.37782
652 8.16762 4.3616 2.58799 -1.11099 -0.435923 -0.48914
1019 9.75396 4.27829 2.748 -1.19184 0.794632 -0.975048
509 10.723 3.13584 2.23224 0.295545 -1.28081 -0.0160855
2397 11.8822 3.35675 2.20229 0.737078 -0.844997 0.304955
2668 10.5066 4.1951 2.1309 -0.842958 1.12413 -0.502181
432 11.4287 4.18077 2.85869 0.693936 -0.497443 0.132437
2329 13.3273 3.9976 2.64557 -0.375395 0.344127 1.71245
3637 12.8415 3.71494 1.81235 -0.169915 0.336288 0.00262486
429 12.0595 4.32326 2.19419 -0.820279 0.424338 -0.592264
1489 14.8154 3.6689 2.83169 -0.160969 0.793867 -0.139369
1657 14.0332 3.3944 2.20499 -2.23787 0.154683 0.430152
557 14.4194 4.23406 1.70503 0.14407 1.10273 0.80769
1215 15.7456 3.88247 2.44526 1.88276 0.676957 0.432103
441 15.1837 3.40336 1.70567 -0.378188 0.00935298 0.873155
1438 16.1918 3.32967 1.50654 -1.16157 0.154311 1.22569
3023 17.8132 4.11126 1.878 -1.34537 -0.420754 -0.312481
1319 17.6743 3.17658 2.88405 2.28598 -0.601073 -0.981708
1571 16.4282 4.46063 1.73249 -2.168 2.92353 -1.40307
319 1.31094 5.30823 2.24329 -0.270222 -0.5102 1.31321
2025 2.4184 4.68914 2.6469 -0.181122 -1.6874 3.02207
3156 2.08631 4.63601 1.56814 -0.99599 -0.835817 -0.614878
752 3.25986 4.61143 1.56287 -0.831125 0.143967 -0.825754
3744 4.43707 4.88095 2.39362 1.0944 -1.33467 0.0712566
3871 3.2234 5.16776 2.43829 0.399079 2.50093 0.318065
2890 5.16292 5.35582 1.85255 -0.914447 0.265985 -0.568812
672 5.40405 4.489 2.37317 -0.76176 -1.5403 0.875693
1949 6.99283 5.91369 2.47528 -0.542097 2.20107 1.60099
1930 7.27558 4.79393 1.86957 -0.414145 -1.26751 0.719717
708 6.06158 5.44068 2.19515 -0.556099 0.849724 0.812504
1403 7.395 4.9803 2.884 0.408281 -0.955513 -0.751822
3705 7.79883 5.75307 1.67386 1.05757 -1.07483 -1.71994
256 8.20696 5.57457 2.80201 1.14402 0.779936 0.0571185
20 9.31095 4.92406 1.99808 -0.663073 0.871225 0.12807
2611 9.88924 5.62704 2.82834 -0.58644 0.0688636 -0.517088
58 11.9004 5.83973 2.22027 1.83006 1.55514 -0.797123
3560 12.724 4.99376 2.6173 -1.15447 -0.134307 -0.582312
1433 13.9678 5.15604 2.13317 0.262234 0.329785 -0.785012
869 13.52 5.82908 2.96528 0.168085 1.4129 0.930847
230 15.9653 5.03359 2.45286 -1.93968 0.352291 -1.15734
1688 15.4023 4.59506 1.59762 -0.772533 -0.148689 0.0840557
477 15.1356 5.66299 1.815 1.06138 -0.956207 0.220222
2710 15.0038 4.64107 2.56279 -1.1308 -1.3572 1.0993
19 17.4447 5.06675 2.60788 -0.00480208 0.0252632 0.910411
3124 0.584549 6.02142 1.8126 0.358217 -0.774203 0.524653
526 0.799169 6.67127 2.53045 1.72498 -1.96737 -0.78902
427 1.59115 6.90073 1.67407 -0.794122 -0.0265961 1.12461
1743 2.84423 6.11428 2.00988 -0.333494 -0.957699 0.136735
1640 2.6114 7.04819 2.16004 0.844024 2.42328 0.986892
425 1.85822 6.76982 2.91666 -0.353186 -1.02085 -0.0949485
2417 3.73336 7.18115 1.87483 -0.899771 -0.107737 0.108986
1455 3.93329 6.27461 2.5141 0.516756 0.971321 -1.84522
3336 5.01396 6.32554 1.53935 0.77631 -0.277535 -0.853796
863 4.88422 7.32311 1.79803 0.500812 -0.755744 -0.686538
1016 5.30801 7.31966 2.8106 -1.16764 0.172603 -0.939036
1406 5.92006 6.58363 2.27077 -1.51796 0.566435 0.468717
2903 6.80912 6.47477 1.51598 -1.83063 0.945889 1.14305
2853 6.7847 7.18271 2.54553 0.236384 -0.732353 -0.00767009
2088 7.7486 6.73897 2.5523 -0.291419 0.598812 -1.4997
1253 8.66833 7.381 2.44676 -0.30601 -0.946115 -0.695794
2808 9.18453 6.26153 2.1143 0.615989 -0.757761 1.53285
1342 9.3802 7.29087 1.6069 -1.49212 1.4151 -0.289467
1420 10.8569 6.59697 2.35252 1.35373 -1.86254 -0.339662
40 12.2179 7.05839 2.48859 0.573315 -0.76546 -0.47659
1814 12.8355 6.22113 1.97755 1.13976 -1.27284 1.49153
2053 13.009 7.12939 1.55135 -1.32527 0.391858 0.684123
2725 14.1727 6.33624 1.76924 -1.30646 0.381977 0.0765916
2130 13.9737 6.73973 2.87158 0.875746 1.66443 -1.22509
1733 15.2163 7.00584 1.66186 -1.6152 -1.07457 1.18038
1426 16.2939 7.14889 2.34306 0.318083 1.74791 -1.45644
3791 15.1475 7.16459 2.61773 -0.125288 -0.254397 1.1208
3787 16.3416 6.04028 2.22932 0.482202 -2.86116 2.25025
1494 17.2969 6.88779 1.89439 -1.35239 -0.3121 -0.275712
3263 17.5307 6.55182 2.92411 -0.629637 0.093461 1.1531
1286 1.25586 7.6283 2.37718 -0.15574 1.42725 1.46323
339 0.440734 8.1922 2.32546 -0.0342018 -0.260858 -0.106039
1799 1.56379 8.92968 1.89836 0.395489 0.203772 0.776089
1280 2.3905 8.30514 2.30868 -0.611988 0.0819963 -1.058
2016 4.2319 8.16808 1.74178 -0.0250021 0.0330366 0.905849
3933 4.35822 7.85649 2.65827 0.294166 -0.530266 -1.4291
3712 3.11892 7.90058 1.52252 0.834849 0.709695 -0.47807
2497 3.35223 8.89547 1.80504 0.83295 0.0583777 -0.484386
2746 5.42053 8.20319 2.29806 1.17635 1.06534 -0.112705
921 6.25192 7.83965 1.71606 -0.132963 -1.62279 -0.73793
1301 6.34571 8.30245 2.71592 0.465992 -0.849929 -0.114999
2134 7.44479 8.84605 1.98892 0.531692 0.604328 0.111135
1703 8.18199 8.10762 1.83471 -2.00687 -0.44902 -0.234805
686 10.1985 7.7629 2.67228 0.109248 0.876284 -0.760062
690 9.85105 8.34026 1.65867 1.33742 -1.59719 -0.0189132
955 10.1835 8.88981 2.52768 0.121359 -1.21603 2.79404
2440 9.30989 8.36336 2.52522 -1.64887 1.1866 -2.3233
1943 11.1013 8.01462 2.36096 1.34285 -0.447158 -1.24
3167 12.1807 8.10274 2.9315 -0.40812 1.03012 -0.100499
1434 12.1391 8.29059 1.83731 0.798462 1.126 -0.850535
2750 13.3305 7.59714 2.85322 -0.241844 -2.85945 0.626276
2801 13.2178 8.28796 1.93737 0.87529 -0.599659 0.303111
1925 14.6986 7.99129 2.09707 1.31487 0.373211 1.12091
139 15.7952 8.02055 1.95474 0.901644 1.13791 -1.23634
1668 15.8617 8.65637 2.81692 -1.06515 -1.80135 1.2618
710 17.6708 8.76757 1.60487 -1.24176 0.491746 -0.290979
2924 0.342294 1.25572 3.91728 -0.102695 -0.456805 -0.887907
2071 0.282128 0.409998 3.31086 -1.31203 -0.0545952 -0.300011
529 1.20548 0.161865 3.79733 0.706392 0.850864 -0.440784
3438 1.81259 0.971725 4.46496 0.109938 -1.44481 0.588219
1479 2.71829 0.603662 3.90939 1.07233 -0.185783 0.195504
2073 2.25782 1.08378 3.03563 -0.357609 -0.218109 0.493586
30 4.02749 0.258894 3.84074 -0.309786 -0.208813 -0.40398
1359 3.68107 1.27405 4.44997 -0.661721 -0.420113 -1.15393
1517 5.48347 0.366609 3.67048 -0.524695 1.28107 0.0892578
1617 4.9261 1.0435 4.18538 -0.00959702 0.0406741 -0.471863
3271 5.12012 1.23508 3.22537 0.781084 0.553225 0.298809
562 7.39767 1.08679 3.20935 -0.02678 0.406567 1.75457
666 7.19897 0.977547 4.37189 0.805939 -1.49695 0.244913
221 6.31704 0.947268 3.72334 -0.225074 -2.73297 0.658746
2508 10.1458 0.781292 3.16596 -0.800789 -1.05946 -0.265552
3888 10.0443 0.937875 4.37814 -1.5524 0.602315 2.03586
3045 11.0773 0.72456 4.00222 0.24147 1.11365 0.749632
3994 12.491 1.33872 3.83566 -0.414672 0.125789 -0.557173
446 13.3811 0.430556 4.38303 -1.48828 -0.92057 -1.26919
3686 12.3577 0.0539659 3.71305 0.101598 -1.76142 -0.645387
229 14.3868 0.583841 3.54065 -1.14167 -0.386083 -0.328095
2201 14.2533 1.09329 4.44137 -1.1842 -1.68127 1.00811
2313 16.0484 0.37323 4.15699 -0.387721 0.960668 1.63826
1505 15.4471 1.2745 3.87368 -0.40999 -0.459111 -0.582118
1129 17.0893 0.365785 3.73649 0.974799 -1.75589 -1.50133
3089 0.419913 2.26071 3.28327 0.372555 1.07558 -0.305406
3619 1.26843 1.49556 3.34458 0.186662 -0.409765 0.465882
2748 2.63794 1.58967 3.86374 -0.788106 1.75388 1.18003
1878 1.71933 1.97542 4.16917 0.83555 1.51659 1.05289
2137 2.26233 2.77701 3.88977 -0.425252 2.89289 -0.729919
14 3.20913 2.94103 3.15525 1.38876 -0.382801 -0.680066
3894 3.5772 1.75795 3.25542 -1.53004 -0.757106 0.423602
488 3.11823 2.31614 4.46885 1.02864 0.66161 0.837993
1805 4.61455 2.26965 3.45757 0.118343 0.788065 -0.894168
705 5.68195 1.94617 3.90193 -0.022383 -1.22882 1.19742
3853 6.71604 2.1987 3.74836 1.67233 -1.02711 -0.196578
1614 8.57295 1.75143 3.83186 0.150989 -0.550137 0.535214
3641 8.49166 2.79234 3.94064 2.17668 0.745251 -1.40577
3248 8.97864 2.51958 3.07221 1.55879 0.620813 0.967582
3688 9.90143 2.78972 3.74845 0.329712 -1.02126 1.61413
3048 9.49568 1.589 3.39024 0.800749 -0.883237 0.209789
1691 10.5849 1.80814 3.6551 0.812012 1.02312 0.5218
3614 13.2483 1.88749 3.47673 -2.27942 1.86863 1.37936
2409 12.3477 2.86174 3.20607 -0.661255 -0.437714 -1.45749
187 14.7013 2.72672 3.33673 -0.18191 0.20087 -0.757596
1636 14.1739 2.38862 4.3567 -0.97498 -0.4473 0.594311
1457 14.4541 1.56523 3.11187 -1.4263 -1.33153 0.116781
674 15.658 2.52118 3.75744 -0.0174303 -1.9856 1.32869
1976 17.4181 2.56179 4.11911 0.120626 -1.40857 0.594289
1074 1.46175 4.43078 3.2759 -0.644472 -1.02018 -1.32812
899 0.872397 3.18924 4.04845 -0.715548 -0.135664 1.161
742 2.39169 3.80889 3.3229 -0.454901 -0.249437 -0.144207
684 2.30335 3.63098 4.37734 1.10598 0.390674 0.284038
973 4.38548 3.1828 3.12344 -0.928176 -1.16444 0.110281
1372 3.49212 3.72548 3.73287 0.564947 0.526403 1.31232
1877 5.06562 3.9965 3.27946 0.957423 1.20482 -0.795599
2342 4.91115 3.86168 4.36892 -0.497942 -0.6581 0.712546
617 5.51563 3.1195 4.01528 0.641143 -0.994775 0.977849
361 6.18103 4.06971 4.17058 -0.577426 0.413402 0.303293
2535 7.02102 4.08334 3.01406 -0.666366 -0.189142 1.05668
997 6.03452 3.51784 3.15095 -0.301823 0.463324 -0.257301
164 7.14362 3.5663 4.20388 0.723615 0.43039 -0.314039
1604 8.15383 3.65212 3.52631 -1.28571 0.816052 -1.90687
3049 9.9001 4.46119 4.36992 0.0975092 -2.35803 -0.11303
745 10.5649 3.65659 3.25072 1.35275 0.521275 0.87499
3439 11.5582 3.37634 3.89552 0.579318 -0.754792 0.145928
1199 12.2937 4.23923 3.36742 -0.986809 -0.945717 0.22676
857 13.9754 3.63228 3.55601 2.71554 1.40098 -0.433619
2044 15.0277 3.49126 4.33731 0.227806 0.232606 -1.60529
985 15.7015 3.82624 3.51844 -1.11767 -2.79832 0.293775
1004 16.6945 4.08151 4.07872 -0.225158 1.3102 -0.875535
3154 16.7229 3.33698 3.40166 0.568455 -0.866741 -0.490673
1550 17.4322 4.26133 3.31745 0.446395 -1.00163 -0.95592
368 17.6946 3.57903 4.17074 -0.432087 -1.60886 -0.153744
2754 0.656615 5.15088 3.05389 -1.21144 -1.43329 -0.0842447
22 1.29972 4.60588 4.44309 -0.10015 -1.54906 -1.00743
841 2.74902 5.05525 3.94449 1.93515 0.737884 1.71948
3664 1.5759 5.61805 3.31399 1.14412 -1.98805 -0.572015
426 1.71272 5.51214 4.39245 -1.77487 -0.515828 -0.673138
1985 3.40789 5.84027 3.34368 0.0185171 0.76238 1.41786
2243 4.06354 4.68308 3.26274 1.37851 -1.19645 1.48715
3963 3.70929 5.19474 4.23687 1.28518 0.94922 -0.53176
320 5.06086 5.07189 3.75484 0.333054 0.308901 1.5356
1815 6.05765 4.71728 3.23877 1.04468 0.437306 -0.566956
2979 7.18182 4.67896 4.11098 -0.580356 0.125067 1.90462
3618 6.29078 5.74713 3.40593 -0.0232971 -0.413295 -0.0831715
2780 8.73265 4.53239 3.82755 -0.0274228 1.3321 -0.40946
341 8.7215 5.72612 4.39601 2.14896 0.927264 -1.61298
671 9.43144 5.15915 3.53946 -0.289988 0.987932 -0.902584
3938 10.7506 4.54068 3.70464 -1.83452 0.39245 0.611263
3613 10.8853 5.39754 3.09219 -0.217849 0.925815 -3.33609
1785 11.2342 5.6387 4.23504 0.357507 -0.731838 -0.964307
1162 12.039 5.48756 3.22016 1.46959 0.29686 0.310576
2056 13.4217 4.85023 3.62094 0.039429 0.661213 -0.436273
473 14.4069 4.86667 3.36722 -0.335517 -0.843338 -0.0044264
3655 15.6959 5.73561 3.11041 0.309106 1.72902 1.18478
905 15.082 4.59749 4.19463 -0.707643 -0.291971 -0.0733287
466 16.6677 5.66995 3.10781 -0.172027 1.68989 -0.00461786
639 17.3685 5.11137 4.44448 1.03055 1.2478 -0.933968
1306 17.8539 5.81194 3.76801 0.671536 2.20033 -0.572598
3449 0.83517 6.4399 3.64292 0.551177 0.265597 -0.92022
416 0.550588 7.37413 3.23497 -0.299521 1.37167 -0.0718441
1761 2.83819 6.83241 3.41845 2.24031 -0.00607251 -0.510155
2610 2.28963 6.4218 4.14137 0.941147 -0.228122 -0.296878
1531 3.38724 6.32916 4.31039 -0.268371 -1.22974 1.70282
297 3.88507 7.00766 3.26424 -0.368195 0.140764 0.522948
492 4.97254 6.18664 2.99832 1.41486 0.0870236 0.708874
487 4.49566 5.97694 4.26962 -0.830376 -0.241948 -0.865507
1710 4.61332 6.97816 4.40667 -0.0761235 -0.469577 0.476227
3818 5.50665 6.7024 3.91611 0.0550467 0.756046 1.31407
2803 6.49161 6.7174 3.59902 0.267512 0.0801169 -0.767598
2910 7.43226 6.79645 4.33593 -0.452739 0.644897 1.24579
1309 8.88936 6.01359 3.42496 0.510128 0.0671063 -0.528215
2472 8.3679 6.92583 3.80285 0.341556 0.698472 -0.0850098
3194 9.39884 7.01055 3.80743 1.48328 -2.04661 -0.922087
3911 10.0711 6.62521 3.08429 -0.0586959 -0.190182 -0.486605
1077 10.3378 5.96189 3.9485 0.927199 1.0044 0.00810943
330 10.4626 7.40598 4.36718 1.91105 0.230642 0.257036
3488 11.5752 6.38437 3.18642 -0.561026 -0.631218 0.0607228
1258 11.2794 7.38711 3.62112 1.3376 -0.442164 0.600748
2544 12.7873 6.46446 3.35025 -0.907235 0.412486 1.22679
2660 12.3124 6.44689 4.38666 0.415323 -0.0966219 -0.911426
3414 13.2138 7.26261 4.16136 0.331717 -0.659925 1.64146
166 14.6339 6.2027 3.30099 -0.951307 0.310735 0.243578
1317 14.1874 6.9661 3.91379 -0.476384 0.682272 -0.102547
889 13.6323 6.07415 4.03004 1.60844 0.714542 -0.119461
3435 15.356 6.12662 4.01281 -0.0684717 1.36242 -0.258808
2002 15.1057 7.17382 3.672 -0.209834 1.00189 -0.66767
714 15.996 6.76503 3.31433 -0.754961 -0.0885251 0.0683918
3004 17.5715 6.75668 4.31126 -2.26708 0.976617 -0.258511
273 16.6987 6.02012 4.07762 0.333203 0.619365 1.2046
3630 0.454565 8.67513 3.36328 0.0280082 0.71449 -0.238663
2849 1.08886 8.03438 3.86488 0.239423 1.43007 -1.06025
2208 2.97476 7.74063 4.20583 -1.16762 0.124038 -1.79236
3087 2.13752 7.64467 3.71795 1.70018 2.52467 0.864727
1460 2.97616 7.80156 3.14842 -0.958544 0.174594 -0.803549
3952 1.60259 8.74073 3.08056 -0.756931 -1.21014 -1.80795
2034 2.54227 8.61445 4.00662 -0.298513 1.684 -0.544568
628 3.85096 8.13997 3.79666 0.0609728 -0.580619 -1.25979
3051 4.24474 8.85007 3.10465 0.390017 -0.687968 -2.79627
1437 4.96973 8.92148 3.90129 -0.324485 0.577865 -0.171751
3371 4.8929 7.81299 3.65244 -0.36564 0.556132 -0.385933
54 5.98666 7.67928 3.78708 -0.682598 -0.406249 0.0193889
1763 6.73871 8.62453 3.93664 -0.554552 -0.641553 0.444832
3684 8.38626 8.93531 3.92149 1.30868 -0.269596 0.810655
2227 7.5304 8.01662 4.14416 0.0419907 -0.927578 -0.926201
1414 7.62085 7.82371 3.02545 0.472671 0.234457 0.016786
1106 8.77265 7.97715 3.3608 -0.411605 0.437699 0.926485
2936 9.86446 8.33305 3.48389 0.733606 -0.0181082 0.24772
1940 11.6009 8.53702 3.72606 0.750297 1.17909 0.0704558
1897 10.5911 8.5887 4.05601 0.561062 1.78499 -0.920969
2797 12.5852 8.16298 4.03928 0.702947 -0.261571 1.75114
897 12.8981 8.80852 3.1405 1.41827 0.111695 -0.393668
1991 13.8639 7.97765 3.62811 -0.531384 -0.452591 -0.188385
28 14.8013 8.22361 3.26925 0.524629 -0.488245 -0.479444
195 13.5626 8.81842 4.11119 0.822257 0.0453958 0.00479655
1352 16.1923 7.9969 3.60675 1.40425 -1.28923 0.095195
1182 15.0592 8.13746 4.32883 -0.0943198 0.911206 0.609424
3940 17.8698 8.5102 4.25248 0.764762 0.423975 -1.59034
3771 16.827 8.35037 4.38049 1.25491 1.70291 -0.55327
1944 17.0988 7.49206 3.55982 1.89433 0.257541 1.4949
790 0.627051 1.16759 5.22158 -0.141489 -0.965577 1.14293
2115 1.93319 0.00530819 4.89307 -0.548138 -0.700603 1.68585
225 2.73243 0.756349 5.10751 0.29747 0.46106 -0.389871
2339 1.61394 1.21117 5.6512 -0.546003 -0.530144 -0.0544004
2561 4.46868 0.829177 5.11802 1.89574 0.390947 0.209455
2369 3.66115 0.212542 5.08216 1.06246 1.25557 1.92043
881 3.63089 1.10062 5.8662 -1.75969 -0.317164 -0.16436
3201 5.60634 0.464458 4.85312 0.389325 0.960027 1.7584
2683 5.38956 1.017 5.86086 1.72595 2.08485 2.19467
11 6.6925 0.0586726 4.88063 -1.71794 -0.351547 -0.757741
3340 6.57645 0.939515 5.65323 -0.773423 -1.46499 1.46094
113 8.69628 0.64126 5.77037 -1.393 1.84904 0.922371
3809 7.75506 0.363345 5.12313 -1.91102 -0.655158 0.126199
2392 9.05823 0.431089 4.48895 0.150702 1.05791 -1.11924
3792 9.82605 0.962708 5.58664 0.584693 0.551745 -0.901693
1685 11.5559 1.32037 4.82499 1.37987 -1.03587 -0.397074
2084 11.2884 0.276891 5.52881 1.17544 -1.13015 0.182584
913 12.3033 0.45169 5.77091 -2.7526 0.648988 0.233228
2288 12.3429 0.595229 4.62279 -0.80601 0.60178 0.229923
2861 13.6482 0.883531 5.40052 0.774096 -1.3581 2.57828
1693 14.6303 0.0415529 5.88623 -0.352723 -1.3887 1.56481
1816 16.0712 1.03898 5.14992 -0.828913 -0.083255 0.87414
1394 15.0392 0.906791 5.34118 0.889396 1.85326 -0.769887
2788 15.1253 0.0372675 4.62958 1.15671 -0.321173 0.990446
2266 16.9461 0.112843 4.85565 0.36199 1.4537 1.41144
2629 17.1589 1.15978 4.47517 -1.88943 -1.08585 0.182428
2375 17.4199 1.05569 5.54448 1.17725 1.2478 -0.675348
268 16.772 0.359973 5.83519 2.00094 -1.34287 -0.705974