ITEM: TIMESTEP
61000
ITEM: NUMBER OF ATOMS
4000
ITEM: BOX BOUNDS pp pp pp
0.0000000000000000e+00 1.7878070701931353e+01
0.0000000000000000e+00 1.7878070701931353e+01
0.0000000000000000e+00 1.7878070701931353e+01
ITEM: ATOMS id x y z vx vy vz
446 1.05854 1.16817 1.42076 1.81062 -0.568734 -0.0346766
49 0.736711 1.06589 0.443921 -0.106783 0.998613 1.10662
3329 1.6927 0.494427 0.778541 1.2418 0.630712 0.508405
330 3.28985 0.430838 1.0501 0.7225 1.03111 -0.645561
2546 4.78945 1.00065 0.534301 0.603432 0.148613 2.19729
3641 5.97762 1.45631 0.455781 1.02114 -0.793662 1.03829
2246 6.84519 0.804841 0.773951 0.0509836 1.46307 0.0162574
3471 5.95984 0.201491 0.789197 0.749783 0.0330692 1.00285
195 8.78802 0.100869 0.97655 1.01938 0.234775 -1.17217
774 8.31545 0.679954 0.345039 0.778336 0.843469 -0.228198
278 10.2575 1.05344 0.465137 -0.62334 -0.496466 -0.934264
812 9.00548 1.33107 1.45013 -0.715896 1.7663 -0.335098
290 11.2127 0.74036 0.757501 0.889165 -0.317684 2.88486
1417 10.7776 1.4702 1.39291 -0.446165 0.259278 0.853092
3284 11.8574 1.27412 1.45143 -1.9048 0.532418 -0.205238
3693 12.4316 1.30672 0.299672 -1.18842 -0.0659008 1.26404
741 14.0829 1.23372 0.446336 0.125016 -0.993279 -2.35222
2584 13.9747 0.254645 0.842408 0.0939446 -1.28498 -0.433102
904 15.0293 0.770818 1.08715 0.457927 -0.766754 -0.0558948
3001 15.8977 1.34767 1.45165 -1.74948 -0.148606 0.35896
3361 16.0786 0.320742 0.848283 -0.371804 0.365074 -0.0904779
1082 15.5328 0.8109 0.0677534 0.276171 -0.505328 0.687886
1393 17.2988 0.999368 0.722765 -0.333804 1.79775 0.715752
3158 0.786613 2.5174 0.96562 0.211655 1.46239 -0.854798
3547 1.90602 2.78694 0.637505 -1.83989 -0.134567 -0.00371313
277 2.91868 1.51739 0.873912 -1.82385 -0.395637 0.331373
186 2.62596 2.63475 1.34504 -0.0454683 0.393842 -2.33084
2172 1.9384 1.59284 0.366035 0.39555 -0.612799 -0.293261
661 3.41116 2.4178 0.545777 -0.629563 1.05401 0.174964
1318 4.45341 2.72305 0.651255 0.643082 0.807059 0.459227
2668 4.19029 1.69354 1.03067 -0.321676 -0.453703 -0.0146585
3611 3.86414 1.50401 0.0113489 -1.19494 -0.262768 1.14838
2159 5.32879 1.89041 1.27303 0.242579 0.774944 1.46324
2143 5.97857 2.47514 0.309361 -0.671051 0.708507 0.178101
3070 6.47718 2.04748 1.3957 0.00977409 0.596025 0.581859
1333 7.438 1.63916 0.990427 -0.0363217 -0.152558 1.37272
2272 7.03458 2.59617 0.503732 1.62587 -0.439711 -0.347266
3435 8.48404 1.75056 0.544028 1.18976 1.19446 1.27441
2232 7.65107 2.70795 1.46526 0.407895 -1.22831 -0.126115
361 10.3766 2.45647 0.493084 0.175969 0.324622 1.00839
1722 9.28612 2.81632 0.546727 0.490446 -0.811446 0.323658
2008 11.158 2.71183 1.39201 0.0408724 0.262113 -1.24967
859 12.0241 2.2711 1.04465 -0.665011 -0.767833 -1.07776
298 13.0112 2.27964 0.862931 -0.367832 0.388327 1.7081
952 13.9638 1.9686 1.21481 0.532281 0.824281 0.368303
1279 14.9156 1.8575 0.460531 -0.68619 -0.340609 0.0945833
1865 16.135 2.18278 0.825064 -0.796742 -0.500196 -0.270223
608 17.5474 2.42663 0.717061 -2.09833 0.710707 -1.09929
2472 0.167895 3.46706 0.871449 -0.254764 -0.35265 -2.28981
2765 0.74677 4.17355 1.44867 1.20785 0.617725 -0.718738
1273 2.03136 3.72342 1.20552 0.0238848 0.315683 0.546065
3720 1.99678 3.71764 0.124592 1.03733 -0.0141846 0.157071
3607 2.98271 3.33986 0.694489 -0.60759 0.402576 -0.350778
3928 3.46956 4.42712 0.597796 0.290775 1.10258 1.4916
1172 4.26013 4.29978 0.0843197 -1.61666 -0.562759 0.17447
3967 5.92931 3.05303 1.25662 1.00786 0.516003 0.419641
1120 4.86449 3.76108 0.994767 -0.0330169 -0.206116 0.277316
1000 7.69645 3.49555 0.706781 0.447342 0.769931 -0.934027
429 8.35705 4.3528 0.0770505 -1.1709 -1.27294 0.0120965
400 9.16895 3.73954 1.01209 -0.859439 -0.61824 0.299292
1376 10.4844 3.9053 0.669104 -0.475714 1.82943 -0.556064
3914 11.4069 3.06175 0.462878 -0.114813 -0.0858736 0.045583
2628 11.4473 4.00375 1.27987 2.11733 -0.0448324 -1.05674
1314 11.6176 4.15877 0.404456 -2.08936 1.00593 1.4002
2142 12.5304 4.42164 1.17939 -0.370958 -0.519197 0.938402
1655 12.8514 3.71831 0.510312 -1.78801 0.175458 0.316886
2374 13.6018 4.42739 1.11516 1.11555 -0.271004 0.45784
2841 13.4251 3.44625 1.35164 0.468701 -0.178949 -1.08565
1329 14.496 3.66267 1.24645 0.386916 -1.50037 -1.25183
3132 14.1158 3.76195 0.0311947 -0.957729 -3.20595 0.662688
1814 15.5291 3.20965 0.872958 0.149231 -0.734308 0.849104
683 15.0738 4.1502 0.190388 -0.0282522 -0.64177 -0.379903
1268 16.558 3.61681 1.47172 1.04344 0.590888 1.17113
2345 16.7232 3.35067 0.464634 1.34141 -1.12561 -0.888329
687 0.31592 5.44627 0.174904 -0.0827779 1.64179 -0.288211
1059 1.11491 5.4856 1.07893 1.06334 -0.72347 -0.321887
276 0.0232852 4.83536 1.06131 -0.248333 -1.98041 0.222918
2078 1.68664 4.74196 0.420598 0.589245 1.22382 0.516285
3336 2.13525 5.72197 0.571138 -0.198155 0.826829 -2.66586
3648 2.77216 5.8655 1.46042 -0.836106 -0.864984 -0.587044
694 2.57765 4.63023 1.21211 0.540065 0.0601675 1.2557
437 2.64051 4.97169 0.00155237 0.83202 -0.507097 2.69509
1014 4.5258 5.1601 0.504427 1.57932 -0.819228 0.17398
3476 5.53228 4.75148 1.04647 2.18474 -1.93595 -1.36161
3835 6.3597 4.51417 0.529633 0.858561 -0.0336537 1.15912
1920 7.29689 5.17658 1.00198 -0.272693 0.105385 0.908545
2441 6.10992 5.7848 1.02398 -0.61439 1.45921 2.39644
1704 8.61564 5.01742 1.03667 2.46753 1.20659 0.810621
1813 8.10087 5.94535 1.35046 -1.94971 -0.144637 -0.289607
211 10.0563 5.58496 0.977618 -0.0650715 -0.183399 0.328372
1806 9.3804 4.50914 0.390187 0.35563 0.454179 -0.146471
1949 9.65972 4.58707 1.39566 0.180589 0.977129 -0.716455
280 10.8877 5.01396 0.721948 1.5916 1.31481 0.704477
1126 12.8242 4.83003 0.0597571 -0.893071 -0.667454 -1.12695
922 12.2061 5.51737 0.509014 -0.0197979 -0.706801 0.994209
3666 13.3503 5.84001 1.09913 1.2716 -0.600891 1.56355
3092 14.7274 5.15276 0.829692 -0.677507 0.521597 -0.274843
2852 13.9403 4.73784 0.126807 0.106983 -2.37667 -0.389234
2634 15.5748 4.6012 1.19763 -0.664817 0.49146 -0.0318374
3156 15.7078 5.11431 0.0959677 -0.502018 0.964954 -0.812582
1157 16.6333 4.63308 0.73818 -0.668981 2.6257 1.79377
1808 16.5096 5.62497 0.604809 1.61317 -0.03995 0.211109
1514 17.534 5.82273 1.19791 0.671839 1.40132 1.32893
1198 0.36999 7.38889 0.220452 -0.60681 0.566879 1.465
538 1.23482 6.27018 0.0182456 -0.280836 -0.914437 0.907663
2283 1.37391 6.69355 0.935396 -0.806224 0.717599 -1.37921
2467 0.463839 6.62277 1.27946 -0.506471 1.58551 0.980035
2510 2.39166 6.78512 1.03705 0.263633 0.00901188 0.524539
2746 3.34784 6.44031 0.475373 -0.335293 -0.299192 2.15771
3920 4.08894 7.37543 0.847258 -0.477203 -2.14038 1.11704
1316 4.50768 5.95952 1.22136 -0.858883 -0.0456279 -0.756366
3653 5.5042 7.3681 0.888747 0.343614 -0.208688 0.163853
1302 6.9855 6.40393 1.00923 0.270388 -0.669812 -1.06422
2179 7.95187 7.12866 0.620282 0.129901 0.618026 1.8569
245 7.87275 5.99929 0.330038 -0.378673 -0.637882 1.02924
234 9.95911 7.0081 0.658974 0.221613 -1.24257 -0.158841
622 9.04154 6.51301 1.18635 0.183518 1.60687 -0.227581
1997 11.6808 6.68498 1.00002 -0.924074 -0.0242548 0.966637
803 11.1836 6.08164 0.361379 -0.607319 -0.340608 -0.492707
1166 13.3539 6.91761 1.15814 0.26513 -1.2718 0.000629961
1823 12.8963 6.50636 0.393205 0.207432 -0.549308 1.46152
1162 14.2147 6.40567 0.501661 -0.872776 1.07762 -1.00657
1165 16.1651 6.98002 0.409721 -1.95806 -0.659035 -0.054348
3573 14.975 6.13794 1.33185 2.28313 -0.299917 0.16562
1217 15.3461 6.16863 0.171642 -0.244283 -0.931166 0.129727
1237 16.4743 6.26875 1.33201 -0.986107 -1.12088 -0.588556
2502 17.2502 6.55573 0.379982 -0.0817295 0.757555 -0.385275
930 0.787901 7.60901 1.18048 -0.38767 -1.12471 0.794335
3111 0.978209 8.60054 0.317837 -0.463611 -0.460121 0.226306
2007 2.32805 8.52013 1.40195 0.0280202 1.5723 0.0279995
3859 1.76268 7.68393 0.751763 -0.0947631 0.887798 -0.108745
295 3.14583 7.66702 0.770803 -0.201873 1.09051 0.269904
1258 3.67165 8.76685 1.03825 -0.654827 -0.808445 0.18692
3301 5.81215 8.60189 0.858378 -2.60865 -0.22807 -0.789508
1763 5.12037 8.27881 0.192385 0.784775 1.46619 -0.462346
130 7.21033 7.47171 1.25495 0.370775 -1.78895 2.06379
3073 7.18217 8.49149 0.458783 0.62701 0.0580888 -0.340708
1781 6.44446 7.76874 0.412017 -0.736044 -0.300691 -1.41548
2769 8.18562 8.41094 0.855115 0.233494 0.686464 1.44535
881 9.01987 7.80128 1.21398 -1.09998 -0.145381 -0.169557
2648 9.94599 8.08355 0.988171 0.844043 1.02587 0.812153
2068 10.3015 8.54228 0.168019 -0.0997051 0.241839 -1.01679
3192 9.16196 8.9038 1.26743 0.232037 -1.19826 2.00435
2696 11.2533 8.86229 0.258325 -2.16902 0.582013 -0.378825
633 11.3813 7.78868 0.723408 0.97433 0.888128 -0.743011
1957 11.6725 8.66889 1.1765 -0.272661 0.221411 1.30126
3409 12.4045 7.57567 0.862303 1.64581 0.583879 -0.155071
2512 13.2954 8.27453 0.894479 0.0344974 -0.0854417 0.746107
3461 14.5952 8.30394 0.206461 0.0708639 0.460259 0.873553
2126 13.9856 7.50941 0.534796 -0.480378 -0.499728 -0.193372
2389 15.6703 8.22729 1.06373 -0.18304 -0.235366 -1.91501
718 15.0938 7.51366 0.606517 0.863648 -0.579411 -0.41168
2925 17.4839 8.40871 0.0140762 -1.22648 1.21745 -1.03045
1573 17.4519 7.53569 0.764346 -0.0164473 1.72726 -0.56601
3224 17.3374 8.68537 1.14181 0.625654 -2.35402 1.59471
2704 16.4875 8.01508 0.259167 1.96997 0.763761 -0.126195
498 0.853827 0.60766 2.92027 -2.36771 -0.327516 -0.682282
1331 0.189606 0.706575 2.02826 0.323059 0.474009 -0.939597
2194 2.33471 0.282773 2.7173 -0.261743 0.0549729 -0.00849653
714 2.01854 0.278303 1.72332 0.0957064 -2.38693 1.46842
979 2.01034 1.39542 1.59991 1.05988 -0.224278 0.850118
3175 1.70751 1.3735 2.55657 -0.167665 -0.476106 0.423618
2854 2.74723 1.29527 2.57349 -0.857825 0.73576 1.11739
2238 4.12989 0.162021 1.73743 1.00693 1.33958 -0.431964
3014 3.10348 0.311336 2.11251 -1.3402 -0.28699 2.30582
1776 4.00959 1.0173 2.39719 0.28802 0.844267 0.812853
3628 4.28413 0.186612 2.94841 -0.0637876 0.342998 -0.0480926
2433 5.22004 0.277304 2.38848 0.585414 -1.47263 -0.522128
2432 4.94317 0.688931 1.51474 -0.809772 -0.620794 2.10284
123 6.07376 1.05744 1.62527 -0.0105883 -0.280281 0.061595
3805 7.06299 1.35199 1.90094 -0.936422 0.39572 -0.00667795
3160 7.34269 0.577534 2.47568 -1.42337 0.899795 0.629435
2331 8.65681 0.583249 2.7216 0.18659 -1.20755 -1.66381
3606 8.1206 0.898374 1.76305 0.0782753 -0.894503 -1.4982
1394 9.99156 1.05299 1.82488 -0.382336 0.491463 0.447487
1436 9.70639 0.199103 2.6416 -0.0394227 -0.758131 2.61198
3330 10.8609 0.350067 1.67767 0.610857 1.38523 0.12382
1481 13.2935 1.11765 2.45666 -0.894185 0.0273279 -0.368058
1803 12.4714 0.377699 1.64101 0.0192505 0.240893 0.322689
885 11.9815 0.903653 2.4043 0.904511 -0.410712 -2.07427
3779 13.2096 0.0562527 2.46799 -1.21216 -0.939211 -0.263847
2636 14.5904 1.42939 1.90812 0.31275 -0.393174 -1.58945
1967 14.1163 0.519642 1.97751 0.561859 -1.36337 -0.181649
3907 15.7529 0.533464 1.85472 1.37353 0.162418 -1.36447
2452 15.295 0.86856 2.86887 1.15079 1.53856 0.450797
773 16.1924 0.20928 2.95917 -0.0255555 0.445241 -0.00301771
1922 17.2829 1.39374 2.6077 0.55457 -0.905047 0.231264
869 17.3674 0.123111 2.74495 0.00119287 -1.12273 1.05995
3300 16.7257 0.747531 1.91265 -0.859966 -0.525427 -0.937319
631 0.941603 2.05679 2.09082 0.640395 0.372682 -0.38451
3545 0.148119 2.68444 2.14771 0.013173 0.116702 -0.804665
3664 1.62253 2.68547 1.58541 -0.949237 -0.300206 1.93755
2979 2.27319 2.18573 2.24104 -0.366724 1.15305 -0.177913
262 3.3172 1.77693 1.7747 -0.598267 0.0519736 -0.573181
371 4.42178 1.86335 2.56709 1.00339 -0.949061 1.89341
3438 3.98461 2.65707 1.61113 -0.141129 1.40614 -2.49755
3363 5.43265 1.51726 2.28235 -0.328814 -0.259495 -0.0593005
196 5.51386 2.5848 2.79348 -1.10357 -1.11958 1.16669
2972 6.41222 1.98209 2.5072 -0.525019 0.199958 0.880618
3724 7.40184 1.49643 2.95028 -0.11184 -0.570908 0.677489
182 8.82868 2.4462 2.23417 0.20313 -0.571801 1.86959
334 7.91481 2.08261 2.26907 -0.612609 2.02576 0.0592182
3289 10.402 1.80241 2.93255 -0.148641 1.32774 -1.6741
810 9.28112 1.53128 2.61923 0.923415 0.345895 -0.904429
296 10.3809 2.85177 2.53373 -1.01551 1.14425 -0.59251
2902 9.70368 2.17997 1.6708 1.45066 1.93478 -1.03853
1773 11.6976 2.82834 2.93386 -1.20517 -1.64174 0.721831
116 12.2687 1.94149 2.44898 0.318886 -1.7476 0.0412928
1170 12.4277 2.86451 1.83192 -0.0672266 -1.00564 0.453958
1343 14.423 2.54074 1.87985 0.301402 0.518179 0.33064
3930 13.5062 2.83733 2.19635 -3.19136 -0.549611 0.282623
1539 13.945 1.99312 2.698 -0.389921 1.44667 2.26328
790 15.0164 2.02929 2.73952 -1.27567 0.230116 -0.186023
249 15.4676 2.34081 1.74776 1.03416 0.231387 -2.10018
2069 16.7848 2.65486 1.78405 1.26864 1.62567 0.392684
1907 17.7788 1.88983 1.55035 1.96808 -0.450719 -0.0830597
681 0.9089 3.31891 2.68499 0.29422 -1.18248 -0.480202
2393 2.64293 3.38547 2.23196 1.10952 0.335624 1.99437
2524 1.80191 3.98124 2.20437 1.18677 -0.0966034 0.832353
908 3.68782 4.2934 1.60677 -0.355106 -0.894326 -0.739064
2620 3.61392 3.26057 2.65856 0.559325 -0.16762 0.589645
957 4.4437 3.68725 2.14405 -1.03362 -0.338172 0.231192
763 5.22685 3.66553 2.84831 0.655351 1.12119 1.05343
2684 5.14779 3.01697 1.88773 -0.79311 1.48536 -2.02934
3992 5.56224 4.0088 1.93987 1.07936 0.164467 -0.897252
966 6.20791 3.13113 2.19087 0.0249205 0.0788387 -0.138082
2384 7.18914 3.01639 2.72907 -0.211947 -3.23517 -1.15359
1767 6.79051 3.74463 1.5582 1.1147 -0.593339 -2.47965
2837 6.60197 3.96922 2.71491 -0.84794 -0.30188 -0.0411143
2055 8.60299 3.18749 1.64536 -0.448692 0.361701 -0.633937
1666 8.70124 4.35411 1.90042 0.705182 0.335502 2.16286
454 7.78312 3.80017 1.74727 -1.19912 0.35152 -0.544641
1442 8.31207 3.06884 2.86583 0.424767 -0.562946 -0.824386
285 7.60371 4.18803 2.75645 0.424982 -0.569364 -0.918671
2716 9.42155 3.76609 2.33072 0.164456 1.03535 0.528595
3048 10.3221 3.67997 1.66519 0.933963 -1.62055 0.182868
2894 11.3608 3.3942 2.13227 0.486716 0.907134 1.92297
1131 10.4824 3.98223 2.93625 0.085842 0.598943 -0.756099
879 12.4211 4.33516 2.25921 -0.806705 -0.223824 -0.0169485
3836 13.2827 3.89408 2.31435 0.996842 -2.42899 -1.40139
1446 14.1591 4.29075 2.03852 -0.812004 -0.957371 0.91844
586 14.0586 3.36242 2.83872 -0.150376 1.40664 -1.13923
2563 14.733 4.18764 2.86878 -0.545057 1.28851 -1.70543
3332 16.2913 3.22141 2.47845 -1.40763 -0.589309 -0.187477
1432 15.1667 3.32264 2.05993 -0.00786844 -0.437017 0.0481469
1437 17.3425 3.26731 2.86255 0.859259 1.02899 0.3125
2751 16.7327 4.09939 2.76244 -0.12942 0.706606 1.8731
2367 17.5146 3.95344 2.00924 -0.64913 0.253706 0.0969301
2473 0.446075 5.20784 2.02606 -0.204219 -1.13635 -0.0605343
3271 1.92885 5.17932 2.30006 -2.37862 0.49632 -0.791666
2859 2.83148 4.53684 2.3089 -0.581421 -0.84356 1.1215
3166 4.40247 5.75155 2.14456 -0.194574 -0.238662 0.836726
1248 3.54198 5.26131 2.03889 -0.0215985 -1.08456 -0.0534286
86 5.4697 5.95653 1.90763 0.963452 0.994215 -2.03753
1282 5.22019 4.7377 2.74554 -0.227307 -0.478652 0.322291
2061 4.663 4.69614 1.68251 0.408295 1.05521 0.586258
2082 6.11358 5.26238 2.96037 0.901411 -0.652613 -0.565307
3402 6.15484 5.2193 1.89514 -0.474532 -1.68402 0.157926
1588 7.16168 5.86176 1.81748 -0.372388 1.34407 0.0482715
1698 7.59811 5.07316 2.09226 0.631744 -0.64658 -0.627327
1289 8.43099 5.01553 2.76641 -0.33678 -0.83846 0.124064
2430 9.07274 5.35566 1.85413 -0.111592 -1.05577 -0.271969
678 11.6663 5.1627 2.09756 -0.180277 -1.67601 1.37532
1303 10.788 4.5804 1.94175 -1.47615 2.94214 -0.335046
1840 10.9269 4.94164 2.91045 -1.59388 -0.958004 0.284569
928 12.7318 5.39617 2.17273 -0.14113 -0.603847 -0.324727
2111 14.0822 5.84337 1.93888 -0.204544 -1.11519 -0.661576
816 14.7076 5.4296 2.59177 0.223191 -1.65262 0.476372
1450 13.6904 5.18406 2.52819 0.576227 1.62888 0.0408892
1211 15.5355 4.72934 2.87602 1.78855 1.32818 2.78656
3109 16.0772 5.66742 2.30056 -1.19796 0.940196 -1.1611
3129 16.7202 4.82675 1.75327 -0.844845 0.155559 -0.483276
3118 16.7622 5.23722 2.92024 0.306793 1.55044 0.579513
110 17.212 5.93663 2.25951 2.11712 -0.61175 1.55774
1221 0.807297 6.23138 2.15174 0.00653682 0.210393 -0.94002
1809 0.0558396 6.12521 2.94243 0.957518 -0.924036 -0.821703
3934 1.81937 6.21581 1.80619 0.413398 -2.15549 -0.753594
557 1.62483 7.42446 1.79788 -1.30957 1.58709 -0.414767
2056 2.9311 7.24999 1.88041 -0.984945 0.130363 0.321886
3571 1.7896 6.32915 2.81905 -0.274247 -0.380719 -1.48702
2243 2.84817 6.32161 2.5166 -0.590135 -1.52236 0.037413
2710 2.75226 7.36385 2.97117 -0.799396 0.82337 -0.277488
1856 3.64934 6.41727 1.54457 0.220019 -2.77332 -0.221914
3374 5.11302 7.27045 2.3971 0.0691248 -1.10759 0.522995
3211 6.35658 6.426 2.67458 -0.21775 0.349522 0.543771
307 6.98182 7.00934 2.12826 -0.890777 -0.682863 -0.579857
1259 7.38419 6.40836 2.8544 0.550588 -1.25292 -0.956074
309 5.97605 6.93832 1.64408 0.917617 -0.986875 -0.00736373
1963 7.99218 6.98133 1.98247 -1.60468 -0.480989 -0.786493
3841 8.61462 6.30383 2.40088 -0.51664 0.123233 -0.87241
3702 9.05326 7.15688 2.08687 -0.549633 0.31539 -0.258671
2768 9.95649 6.28581 2.21983 0.836064 1.56203 -0.225383
3147 9.93839 7.31512 1.62088 -0.920938 0.224407 -1.8338
70 10.8039 7.08904 2.19385 1.11243 0.924319 -0.465323
3008 10.9967 6.0935 2.10706 -0.960631 0.832871 0.15452
2009 11.7454 7.29454 2.21222 0.814989 -1.87128 -0.650938
614 13.198 6.22163 2.65468 1.33379 0.913811 0.535937
2659 14.4345 6.85997 2.27188 0.318742 0.167048 0.750774
1457 16.1147 7.30572 1.57197 -0.232363 -1.05203 0.80644
1844 15.5517 6.50404 2.45662 1.88494 -0.705315 0.754672
108 16.7724 6.99877 2.39375 -0.573816 -1.3663 -0.426481
2572 17.8473 7.40773 2.20902 1.04063 -1.04102 0.845543
13 1.369 8.56595 1.71957 0.652338 -1.29326 1.01093
2724 0.166109 8.36587 1.72834 0.825755 -0.170689 -1.06902
520 0.614654 7.89717 2.94214 -0.240806 -0.895217 -0.703076
1231 1.74068 7.52839 2.77608 -0.578621 0.86216 -1.96011
3376 3.72013 7.69342 2.53959 -1.06769 1.51813 -1.04086
253 3.17975 8.55093 2.1256 2.61995 -1.41631 -1.00743
2813 4.78594 8.20019 2.7719 1.72937 -0.744192 -1.29404
175 5.80425 8.33858 2.58984 0.100126 0.201239 -0.875194
459 4.98854 8.19604 1.54934 0.106015 0.045339 -0.612211
2797 7.38704 8.87874 2.70658 0.234734 -0.420624 -0.745545
445 6.53861 8.22815 1.79161 -0.2476 -1.67363 1.0544
232 8.69067 8.2993 2.86361 -1.77739 -0.801435 0.734193
98 8.30887 8.53728 1.91552 -0.123773 -0.100152 2.5079
3137 7.60173 7.916 2.18769 0.524172 0.888106 0.745767
2890 9.70107 8.30223 2.01939 -0.464807 0.148894 -0.183313
623 9.81674 8.92194 2.7964 1.10859 -0.313157 -0.978158
802 11.7702 8.5348 2.50089 0.200994 0.932811 0.96092
3596 10.8079 7.88355 1.7117 -0.813795 -1.39527 2.07374
3580 10.6574 8.85958 2.16798 0.748364 0.0317018 1.02824
2881 12.9715 8.12651 1.94033 -1.36875 0.0432044 0.385856
1348 13.6906 8.07951 2.8097 -0.817099 -0.447409 1.29967
1340 14.2354 8.24957 1.86402 0.773142 -0.608222 -1.11388
135 15.0256 7.55722 1.83718 1.0531 0.873074 -1.55886
3386 16.1307 8.07166 2.38204 0.0566535 0.804564 -0.538103
360 15.0957 8.74813 2.57405 0.715903 1.1269 -0.171353
3325 16.9608 7.91442 1.61145 1.12468 2.7268 0.802827
2326 0.165968 1.15705 4.32793 1.83257 0.555496 1.56549
3740 0.918593 0.174196 3.90616 -0.215672 0.631988 -0.513039
2080 1.96768 0.903496 3.55179 0.577249 0.708561 -0.964357
950 2.93689 1.1705 3.8969 0.735478 1.44543 -0.650709
350 3.28114 0.548545 3.13223 0.858388 -1.35497 -0.161354
3032 4.04092 1.0479 3.61801 -0.574592 0.121794 1.0315
3025 3.68708 0.127174 3.98566 1.14214 0.415566 -0.280537
1759 4.92471 0.249713 4.31623 -0.462823 -0.675336 -0.868942
970 5.57623 1.11734 4.33411 -0.462597 0.688741 1.03365
2028 5.20029 0.715756 3.42047 -0.185991 0.512985 -1.31552
2278 6.46159 0.699333 3.34405 -0.746996 0.110836 0.70092
1506 7.24214 0.719975 4.3811 -1.307 0.866741 0.739654
3130 8.67438 1.06967 4.01001 0.0798234 -0.646023 -0.110046
1492 9.14994 0.229387 3.60611 1.14739 0.964559 -0.399724
405 9.92512 0.938717 4.15118 0.33704 -0.169151 -1.5478
3876 10.9867 1.08926 3.37864 -1.19454 -1.1841 0.443062
3638 11.138 0.554486 4.39277 0.0644543 -0.83238 -1.91079
2321 11.9795 0.833715 3.8181 -0.294997 0.673094 -1.04525
2065 14.2546 1.02835 3.01129 1.06245 -0.80501 0.528924
349 13.6092 0.990728 3.75625 0.796006 -2.30651 0.990824
697 16.3399 1.29329 3.99945 0.346101 -0.251866 -0.480502
504 15.4656 0.636276 4.12076 1.17676 2.25133 1.22841
2314 17.6533 0.777457 3.46378 -2.0884 0.232223 -0.599049
3551 1.1442 1.61889 3.92474 0.704454 -0.172904 1.9264
3974 0.331564 1.65078 3.09205 -1.36329 0.203329 -1.62594
1452 1.32493 2.22127 3.03846 0.112613 -0.992257 -1.02819
3230 0.456329 2.65444 3.39176 0.661423 -3.08081 -1.51391
1060 1.18674 2.81312 4.18446 -0.697977 -0.39676 0.30674
331 2.32559 1.92815 3.43899 -1.19155 0.877047 -0.251535
792 3.83077 2.65596 3.82205 -0.463327 -0.679337 1.7189
443 3.54946 1.98771 3.00468 -0.457245 0.903342 2.64899
2495 4.68623 2.91162 3.34759 1.25672 -0.429229 0.347188
529 5.69094 1.63229 3.49662 -0.0612192 -0.116687 -0.209078
1362 5.32446 2.7672 4.21971 0.315515 0.0328917 0.617846
393 4.62406 1.83957 4.21721 0.55169 1.46799 0.931483
363 6.65709 1.55471 4.11997 0.210207 1.38582 0.211936
1200 6.57048 2.52392 4.3156 -1.17203 1.19212 -1.21519
2073 7.35361 2.41734 3.64843 -0.458252 -0.386497 0.368432
3569 8.42089 1.99716 3.31551 0.736357 -0.526191 0.744804
2791 7.82773 1.56282 3.9864 0.850693 0.596695 0.778334
3950 9.43696 2.16502 3.55586 0.596309 -0.462256 -1.05675
2750 10.7848 2.14555 3.97851 -0.172616 1.62606 -1.05573
2800 11.8184 1.87646 3.7359 -1.08238 0.844285 0.807848
1023 12.7739 1.65125 3.37681 -0.889951 0.431367 -0.0359991
840 12.9425 2.63247 3.21307 0.384226 -0.670184 0.0883691
2542 14.2948 1.89465 3.86779 -0.776149 0.145478 1.89273
1725 13.4409 2.54507 4.35991 -0.0944455 0.675831 -0.632459
3213 15.2859 1.70219 4.2038 -0.31881 0.294928 -0.273763
431 16.2675 2.17319 3.16328 0.307533 0.249154 -0.665393
534 17.3558 1.99634 3.72746 -1.88191 0.259571 1.02841
3839 1.28787 3.84999 3.47408 -0.0847506 0.332695 0.137758
528 2.13817 3.05164 3.26728 0.0885434 0.297624 -1.17936
2220 2.62711 4.31243 3.73276 1.46088 0.694498 0.456303
1364 2.25954 3.43868 4.33888 -0.191917 0.886405 1.80316
786 3.41993 3.87268 4.42578 -0.418474 -0.971537 1.11728
3908 4.00104 4.17898 3.15384 -0.308778 0.433651 1.12033
595 4.42109 3.45461 4.24329 -0.77094 -2.4234 -0.268616
3009 4.85385 4.1617 3.67489 -1.56817 1.92296 -1.14431
2816 6.16889 3.08231 3.51968 0.373293 -1.40039 0.343882
1319 6.61425 3.59372 4.44389 1.86983 0.313916 1.22472
3217 7.41322 3.56968 3.64486 0.814571 1.431 0.142944
3861 8.38775 3.06109 4.05223 0.622901 0.610323 -1.25032
1024 8.45192 4.05663 3.40461 3.04899 -0.556105 0.496033
1994 9.43191 3.13434 3.21657 -1.19824 -0.848408 1.52893
91 9.53813 4.39259 4.10737 1.04003 0.324011 0.984581
3502 10.6372 3.20572 3.56989 1.73781 -0.984399 0.464525
166 11.0041 4.224 4.06161 -2.09063 0.864504 -1.73717
1829 11.5386 3.04988 4.11586 2.27067 -0.464593 -0.835953
382 11.5052 3.93084 3.13224 0.401562 0.189583 -0.0559069
3107 12.1014 4.26457 4.14993 -0.136342 1.5458 -1.19263
3098 12.6828 3.65319 3.18869 -0.849162 1.20001 -0.291426
748 13.1082 4.14605 4.37137 -0.319283 1.35253 -1.27348
250 13.7829 3.35541 3.89438 0.523603 1.23089 1.24564
177 13.7296 4.37361 3.06191 -0.596902 -2.05425 1.11486
2236 14.6668 3.90145 4.16487 1.45019 0.0583246 -0.301816
1903 16.3131 3.35828 3.47942 2.07302 -0.34784 -1.57059
3575 15.4004 3.11197 3.07991 -0.693134 1.56667 -0.387131
58 15.9777 3.44222 4.42582 0.760668 1.47052 -1.37389
3738 17.6135 3.0692 4.07243 -0.468478 2.12025 -0.380572
229 1.26555 5.49171 3.04418 -0.431762 -0.10072 -0.371187
2084 1.05399 5.60883 4.35023 0.331907 -0.764163 0.141541
1175 1.74045 4.75913 4.15031 -1.57845 -2.31405 0.692914
1321 2.86105 5.30224 3.08696 0.000274585 -0.32996 -2.4857
547 2.83169 5.32951 4.14854 -1.79114 -0.446695 -1.58586
1035 4.2606 5.23998 3.05381 -1.97779 -0.184858 -0.531678
239 3.97553 4.87429 4.03231 1.42871 -1.5979 -0.169505
1761 4.87138 5.47384 3.92247 0.202345 0.442873 -0.359085
1786 5.95662 5.70369 4.13085 -1.27865 -0.532902 -0.288146
3975 5.99797 4.60078 3.72061 0.293876 -0.733205 0.340699
2937 7.1053 4.98651 3.0192 -2.06266 -1.73009 -0.293464
701 7.16278 5.88443 3.84737 0.560041 -0.99958 0.0765762
2653 8.87453 5.59635 3.64956 -0.337062 0.514194 0.0921449
1328 7.85705 4.82776 4.01493 0.150525 -1.28411 0.0444713
385 9.71161 5.53198 3.08864 -0.0203663 -0.180624 1.9318
3388 9.33055 4.51501 3.12379 0.149401 -1.67791 -0.712678
2205 10.3511 5.07578 4.41911 -0.600728 -0.0103627 1.06834
1731 11.6013 5.73974 3.07145 -0.284748 1.10014 0.0655496
1409 11.43 5.17189 3.98192 -0.0706246 1.99962 0.216607
742 10.6516 5.85747 3.67289 1.72965 0.863584 -1.45339
1631 12.9483 5.3085 3.45203 -0.152312 0.0748515 0.372286
2784 12.2308 4.72526 3.18665 0.166688 -0.189628 -1.31767
1096 14.7881 5.00931 3.76807 -0.599521 -0.659257 0.00715545
2313 14.0253 5.68867 3.3635 1.00373 1.461 1.32975
1392 13.8165 4.77544 3.94561 0.841931 2.53036 -2.61653
125 15.635 5.72593 3.43253 0.665232 -0.144487 0.90617
2640 17.7462 4.98645 3.07676 -1.12872 0.253323 0.580477
435 17.7116 4.81257 4.26413 0.621912 -0.513584 -0.0398126
1640 17.351 5.716 3.78844 0.0570761 -0.625698 0.0663251
635 16.3941 5.37549 4.28991 0.091018 -0.578976 -0.852549
153 0.434571 6.45569 4.09179 -0.493662 -1.4587 0.155699
377 1.87246 6.04166 3.86097 -0.575559 -0.700554 -1.1534
1306 2.79728 6.4673 3.60847 0.163554 -0.292591 0.446512
2695 1.90908 7.30471 3.7386 -1.48691 0.0903967 1.3441
2596 3.77866 5.97094 4.11373 0.826952 -0.134438 -1.10516
2613 3.9538 6.24744 3.09636 -0.351697 1.22491 -1.00678
1531 4.10678 7.39888 3.57661 0.446769 0.772196 1.08195
657 3.13509 7.37752 4.18223 0.129146 -1.58454 0.592462
724 5.13361 6.54441 3.24125 0.495811 -0.703244 -0.776926
464 7.17107 7.01827 3.6405 0.826525 0.841405 0.992908
1381 6.07794 6.91472 3.9617 0.418365 -0.626462 -0.83673
238 6.14207 7.43643 2.99052 -1.44813 -0.114819 1.79055
395 8.03714 7.25737 3.03013 1.01842 0.104981 -0.473454
1429 8.88401 7.43729 4.09871 2.14242 1.957 -0.701595
410 8.32054 6.4776 3.71753 0.0947186 0.325655 -2.11889
1451 9.89614 7.3866 3.04249 2.47347 0.651169 0.309297
3190 9.28322 6.55948 3.17952 -0.21327 0.560617 1.00811
789 9.2652 6.48063 4.31807 0.878583 0.13519 -1.46741
444 9.99076 7.18589 4.2602 1.69751 -0.623976 0.246575
3131 11.8987 6.06573 4.20283 -0.473237 -0.371354 1.29216
3852 11.0717 6.85026 3.0898 1.46245 0.366941 -0.879552
2928 11.0427 6.81954 4.20972 -1.85748 -0.518312 -0.762863
3991 12.7625 6.63899 4.0428 -1.645 -0.334282 0.775283
2756 12.3318 6.41424 3.09489 1.71891 -0.00875821 -0.00440438
3054 13.5288 7.25527 3.55958 2.2763 0.79604 0.980144
2709 14.4989 6.66985 3.45018 0.433209 0.865612 0.0435522
1989 13.7975 6.84864 4.43453 0.347345 0.806784 -0.583385
2163 15.6483 6.86451 3.42057 0.362298 -0.602851 0.825681
1976 15.3266 6.76331 4.45167 0.110734 -1.13648 -1.18582
247 16.7363 6.6152 3.37372 0.462569 -1.00897 2.56645
2804 17.5548 7.25219 3.33497 0.901154 0.248131 -0.346716
2808 16.555 6.37065 4.40898 0.983085 0.139185 -0.148556
617 2.26753 8.28937 3.20255 0.176996 -0.878379 -0.347065
2883 4.06618 8.48378 4.28914 -1.06692 -1.76192 -0.419065
418 3.22296 8.2817 3.46755 0.493328 -0.8756 0.535058
7 5.32789 7.95068 3.57883 0.753254 0.779956 0.0207864
2291 8.5007 8.4171 4.16465 -0.284776 1.06401 0.267923
150 7.70329 8.17383 3.49498 -0.866554 0.616793 1.15834
1251 9.66598 8.20511 3.58415 0.761889 -0.829827 -0.357668
3207 10.6505 8.08728 4.21992 1.25369 0.931427 0.323527
126 11.4827 8.73332 4.14487 -0.879584 0.428838 -0.5971
3765 10.8212 7.89659 3.02899 -1.46375 -1.72136 -0.178716
707 12.587 7.46372 3.00912 -1.28408 -0.469993 -0.622013
2801 11.9812 7.54104 4.01568 1.24421 -0.0910068 0.980598
1199 13.2189 7.87424 4.43939 -0.700838 0.0565412 -1.3225
2067 12.564 8.52029 3.54386 0.648884 -0.661708 -1.97156
3833 14.5173 7.7581 4.02381 -0.983418 0.366832 -0.224434
3460 13.7607 8.89607 3.95331 0.00243923 -0.564577 -0.799956
355 16.2468 8.81757 4.27193 -1.53668 -1.0421 0.915348
2983 15.332 7.97554 3.18031 3.48754 -0.11329 0.722848
2234 15.694 7.77988 4.40847 -0.801524 0.179954 -0.568304
3957 16.4997 8.79456 2.99885 1.83222 -0.631667 0.762829
1869 17.2168 8.3155 3.38251 -1.46553 1.73474 -0.0759267
3796 16.488 7.66076 3.49406 -1.3123 1.55302 0.22587
329 17.2807 8.09462 4.4052 0.399807 0.362904 -0.880727
3091 1.01062 0.881404 4.92646 -0.153883 -0.395171 1.18625
3741 2.1529 0.94324 4.71794 2.04449 -0.0397254 0.210154
2600 2.95736 0.523852 5.41684 2.01579 1.54246 2.31457
272 1.72434 0.0534333 4.51704 -0.747978 -0.613905 0.421889
436 4.18852 0.331293 5.33926 -0.28719 1.33393 -2.37037
2394 3.75901 1.21331 4.73395 -0.823789 0.702188 1.34772
115 5.3042 0.629372 5.32095 -1.83383 0.671054 -0.120213
2838 4.79388 1.45165 5.4771 -1.11418 -0.138128 0.643356
973 6.31666 0.485203 5.00443 -0.0281521 0.976061 1.01327
652 6.81732 1.3647 5.19316 -1.07031 0.673672 -0.673077
3145 6.17032 0.97809 5.95391 -1.45634 1.54876 0.104528
3036 6.85686 0.122589 5.84516 -0.215754 -0.983385 -0.736033
2343 7.50052 1.11309 5.87954 0.847467 0.675003 1.37624
2705 8.16632 0.75111 5.0653 1.51772 0.507674 0.027302
1388 9.38179 0.655302 4.99778 1.74561 -0.771758 0.387591
3015 10.4146 0.381003 5.27517 0.858676 -0.810129 -0.950677
27 11.7748 0.161046 5.06157 1.01792 -0.924131 -0.761558
3443 12.6056 1.08548 4.70223 0.680411 -0.617081 -1.04521
1007 13.3686 0.464745 5.00012 1.02695 0.123533 1.49985
3587 14.2897 1.25197 5.52938 -1.43716 -1.62194 -1.26244
682 14.5102 0.549277 4.68979 -0.947459 0.67005 -1.26025
3321 15.996 0.835681 5.03891 0.193675 0.923035 1.487
3351 16.5909 0.0638624 4.91465 -1.06005 0.972775 -0.519437
1669 17.367 0.497331 5.55565 0.0490053 0.286912 0.233873
1160 0.993106 1.98667 4.87324 0.595495 0.224799 -0.847167
2698 0.181783 1.52869 5.64493 0.208084 0.137534 0.371792
589 1.66745 1.76261 5.95527 -1.23231 1.3114 0.589258
3886 1.98285 2.08836 4.51419 0.32793 1.21161 0.23812
1448 2.6997 2.93332 5.43163 -0.498117 0.90793 0.587272
2629 1.60333 2.72669 5.21899 0.92615 -0.0956685 -0.757062
43 3.1027 2.08025 4.56961 1.4781 -0.686116 -0.26417
2352 3.79408 2.92904 4.95188 -0.329337 0.786289 -0.00286435
2818 3.54393 1.84192 5.65499 0.721966 -0.098773 0.677124
943 4.9142 2.61002 5.22691 1.43429 0.283486 -0.296689
217 5.70105 1.84296 5.21264 -0.564109 1.24434 0.780651
2289 6.99066 2.57027 5.36624 -0.825735 0.694108 -1.05541