ITEM: TIMESTEP
69000
ITEM: NUMBER OF ATOMS
4000
ITEM: BOX BOUNDS pp pp pp
0.0000000000000000e+00 1.7878070701931353e+01
0.0000000000000000e+00 1.7878070701931353e+01
0.0000000000000000e+00 1.7878070701931353e+01
ITEM: ATOMS id x y z vx vy vz
2320 1.15543 1.16932 1.28323 -1.66083 1.12033 -0.0645176
2537 1.78305 0.15165 1.16771 -1.02841 0.200743 -1.68386
1538 2.87567 0.583783 0.482589 -0.12996 0.305351 0.692925
2433 2.58265 1.06565 1.46712 0.0368101 0.332823 1.35863
3424 1.66995 1.48033 0.310676 0.566871 0.621343 0.617698
1055 3.94022 0.257464 0.470602 -1.21627 -0.00458366 1.02662
994 3.71973 0.815171 1.42225 -0.75417 0.166519 -0.0874375
3624 3.74081 1.34126 0.343587 -0.0510122 1.05691 -0.955435
812 4.91424 1.29841 1.10299 -1.19426 0.861546 0.231613
1196 5.09161 0.318633 0.908062 0.135073 -0.478587 0.395806
2717 7.06913 0.931339 0.211285 0.723646 -0.151758 0.0783834
3173 7.02737 1.44771 1.19729 -0.165993 -0.95087 -0.827767
1569 6.20365 1.45911 0.632568 0.190567 1.45582 -0.525302
3074 7.93278 0.977591 0.804818 1.14511 0.906724 0.508829
2402 9.15037 1.2616 0.932766 -0.498766 0.455252 -0.290964
2105 10.1712 1.15291 1.42811 0.7431 -0.706316 -0.482214
2523 10.4461 0.273928 0.806318 -0.0374032 0.367819 0.875633
664 11.4314 0.871818 0.217456 -0.141895 -0.315224 0.616907
2270 12.2225 0.400188 0.904264 1.58996 -0.0658243 -1.31389
2666 13.0813 0.968015 1.23509 0.55315 0.54755 1.49612
2154 14.3438 1.39793 1.20092 -0.113142 0.44138 0.634334
795 13.8402 0.813429 0.496602 -0.165429 0.369198 -1.55739
273 14.7377 0.514153 0.722338 0.104184 -0.86415 -0.978781
155 13.9619 0.309705 1.34614 -0.664681 -1.16252 -1.06885
3777 15.7346 0.279406 0.616457 0.422623 0.0925625 0.588055
2065 17.0695 1.18011 0.244228 -1.4917 0.80857 0.197952
3252 16.8647 0.0495822 0.462747 -0.655001 1.89427 -0.726019
1172 17.7989 0.24555 1.03766 0.224941 -1.14658 -0.145212
2452 1.08764 2.39886 0.266051 -0.101966 0.622052 -1.33427
2262 0.458005 1.60491 0.432387 -1.6163 -0.403829 -0.248213
1602 0.700782 2.31638 1.2841 0.249152 0.540574 -0.749676
2191 2.65361 1.72576 0.703579 0.811518 -0.261114 -1.44538
2359 1.7374 2.13656 1.16788 0.542519 -0.36743 1.56729
3633 2.08231 2.45242 0.177105 0.196201 0.609073 1.53965
361 3.63477 2.64998 0.429496 -1.83579 -0.370903 -0.584058
2465 5.37114 2.35264 0.802514 -0.729426 0.489232 1.27841
319 8.12197 2.47636 0.932084 0.417025 1.37312 0.825299
1730 7.67324 1.80114 0.170654 0.692916 0.739557 -0.573475
3882 10.3962 2.73084 0.55501 -1.58011 0.50385 -0.598161
774 9.96717 2.14565 1.41676 0.427935 1.61968 -0.901731
2447 9.18179 2.70346 1.08405 -0.07484 1.71038 -0.596095
803 10.6592 1.69523 0.534154 0.506083 0.421207 0.530668
2114 10.9798 2.36158 1.45919 -1.16237 0.574069 0.986042
819 12.9468 2.09305 0.468296 0.823485 0.451634 0.6053
348 12.7654 2.30497 1.46412 -0.966019 -0.897632 0.155823
690 12.0976 1.66169 0.929771 1.84272 -0.365695 0.898939
3762 11.9314 2.64102 0.881899 0.410377 -0.368397 0.646968
1931 14.8011 2.60539 1.08162 -0.59804 -0.0531937 -0.533398
1950 13.6566 2.23544 1.08217 -0.17689 0.200106 -0.677069
3470 15.545 1.84201 0.187409 1.752 -0.684375 0.419555
3300 16.2049 1.55256 1.10807 0.449334 -0.0533844 1.15676
2598 15.778 2.81621 0.102523 -1.2942 -1.56613 0.0246049
3170 16.5605 2.39412 0.64222 -0.480217 -0.483543 1.9363
349 17.425 2.03705 0.959633 1.56976 -0.287674 -0.828717
1537 0.749822 3.57539 1.05171 -0.401592 -0.822547 -0.762306
232 2.69045 4.42219 1.24599 -0.637801 -1.75134 -0.794435
86 1.70569 4.14861 1.33357 0.276951 -1.16862 0.700089
2803 1.70909 3.34887 0.232076 -0.00580999 -0.760749 0.437241
475 2.92518 3.39108 1.42376 -1.50768 0.686405 1.62672
445 2.77762 3.44388 0.321486 0.223846 0.0461964 1.67199
3721 3.79099 3.63133 0.826842 -0.00848285 -1.23651 0.96822
2155 5.04919 3.65497 0.524296 -0.0406748 0.234363 1.11782
464 6.47833 4.2929 1.12575 -0.514029 -1.10459 -1.20993
3950 6.05896 3.60656 0.150094 0.719316 -1.00322 0.11155
2972 6.43773 3.09779 1.12568 -1.01571 2.08358 -1.28061
1820 7.18603 3.50055 0.503969 0.206993 -0.794494 -0.831527
2667 8.48835 3.1114 0.0321692 1.23923 -1.29621 0.401473
3857 8.39287 3.9032 0.836308 -0.896443 -0.23485 1.6046
3136 9.2887 4.06837 0.208494 1.44699 0.463937 0.0217061
3100 11.3098 3.03594 0.228025 -0.117794 0.521521 0.696187
3638 11.7707 4.07115 1.11601 -0.877429 -0.155539 0.127275
499 10.7082 3.67838 0.945299 0.603719 -0.946159 0.483811
3976 13.3711 3.76129 0.512693 -0.362815 0.312084 0.120747
3545 12.8415 4.44979 1.29925 0.330846 -0.281701 0.00546389
761 12.2302 4.17453 0.0961058 0.785922 0.857483 -0.229629
2663 13.7386 3.75638 1.46083 -0.171906 0.674158 -0.804548
683 14.713 3.71925 0.946485 1.33613 0.391103 -1.37881
2316 15.5041 4.2829 0.150791 0.657339 1.60619 -0.559566
337 16.2323 3.92593 1.27666 -0.333165 0.363284 -1.47012
1298 17.7174 4.14199 1.09735 0.296151 0.650957 0.397105
354 17.7261 3.06681 1.2179 -1.0577 0.560427 -0.226687
1432 17.8062 3.45472 0.143607 -0.295596 0.366649 1.09296
1060 16.6887 3.45001 0.382234 0.160195 0.106223 -0.678274
3129 0.895912 4.79971 1.04145 -0.344938 -0.0619753 0.477675
2622 0.41448 5.7386 1.47076 -0.75968 -0.689516 -0.978427
804 1.19647 5.92243 0.755277 -0.932559 0.328699 1.40242
2624 2.85659 5.63003 1.1731 -0.115717 -1.35508 -0.188472
2028 1.96517 5.13823 0.851133 0.130463 0.335756 -1.13285
3492 3.44939 4.5233 0.395705 1.69338 -0.658229 -0.629951
3092 4.63055 4.61192 0.132654 -0.177724 -1.2614 -1.14213
307 5.11534 4.5012 1.39727 -0.182394 -0.471648 -1.09781
3606 4.59012 5.46652 0.914599 -0.516791 -0.684825 0.360274
2029 7.28695 5.75586 1.26985 -1.51134 -0.792398 -1.3078
3911 7.43803 4.49188 1.39211 -0.193288 1.87831 0.594462
454 6.54097 5.08984 0.61087 1.05655 1.30323 -0.50393
1974 7.94294 5.03247 0.473128 -0.27714 -0.304392 -1.17304
1920 8.55619 5.8329 0.852534 -1.05776 0.418181 -2.08396
1786 8.77941 4.79427 1.20768 0.0640209 -0.5661 0.180874
2456 10.1964 4.51306 0.416767 -0.444046 0.157241 -0.44124
3691 9.18442 5.23127 0.164026 0.345462 1.6403 -0.892046
3515 10.939 5.45197 1.00926 0.0933788 -0.626239 1.72058
3232 11.3215 4.9365 0.207716 -0.845909 -0.04846 -0.784429
1237 13.2479 4.79432 0.340787 -1.41305 -0.397954 -2.16894
1131 12.3313 5.78085 0.845409 -0.115288 -1.15497 -1.29169
2831 13.826 5.64555 1.16255 0.161081 0.00173239 0.859921
2979 14.8295 5.86895 0.855609 0.981946 -0.856395 -0.00214304
3668 14.2977 4.71025 0.840983 -1.07293 0.20427 -1.32096
1967 15.3639 5.03798 1.00148 0.12639 -0.307468 -1.13688
2542 15.6229 5.7104 0.0761435 -1.41056 -0.629675 -2.03311
2421 17.7085 4.64287 0.153031 1.64656 -1.11234 -1.10625
467 16.6588 4.5662 0.585948 -0.441546 -0.865618 -1.10986
3832 16.5731 5.67485 0.862335 0.174434 -0.318389 -0.039128
2007 17.6356 5.64969 0.54586 -1.00202 -1.4896 1.25885
423 0.435909 6.91515 1.31741 -1.50296 -1.25854 0.33854
3111 1.20743 6.9489 0.643513 0.379542 0.115289 1.05737
736 0.362292 6.45072 0.29657 0.0414898 -1.34027 -0.347813
2495 2.25756 6.24495 0.557744 -0.470543 1.74357 -0.63703
2567 3.57012 7.37268 0.654508 0.0514874 -1.40769 1.51004
2302 3.95747 6.36274 0.815867 0.100713 -0.678758 -1.42241
1111 4.82633 7.4053 1.46259 -1.5462 -1.41522 -0.161718
1343 5.46703 6.55326 0.764681 -0.187452 0.900041 -0.021147
702 6.23044 7.44851 0.914286 1.11031 -0.903427 1.20675
508 8.63582 6.98249 0.190197 0.538978 1.3769 -0.838673
1676 7.70434 6.59172 1.43547 0.893735 0.551699 -0.906666
1789 7.65392 6.64312 0.22415 0.495474 0.149188 0.73574
2747 10.0819 6.16904 1.35801 -0.334161 1.12574 -0.72353
1705 9.53965 7.33235 0.788938 -0.209642 1.03641 -0.672867
1558 9.38049 6.37093 0.361461 0.705499 1.25195 0.0410278
2634 11.432 6.94712 1.45084 0.0121832 -0.758592 -0.476074
441 10.4665 7.07157 1.17481 -0.183186 -1.27965 -0.416436
3461 11.4682 6.17152 0.431686 0.503783 0.71649 0.426782
1731 13.2936 6.73336 0.126691 0.588194 -0.550108 0.0489491
663 12.089 7.27632 0.399585 0.644026 -0.993011 1.69036
1827 13.1688 6.6389 1.36488 -0.450137 -0.103083 0.474699
2083 14.3969 6.99425 0.300488 -1.80225 0.916619 -0.166541
1198 17.389 6.80257 0.759529 0.669806 -0.231561 -1.69523
667 0.849778 7.94711 0.8415 -0.449152 -0.96569 -0.540451
3635 1.61162 8.67305 0.978471 0.153905 1.36586 -1.17152
1863 2.70725 7.85702 1.20739 -0.437385 0.385306 0.0186807
3798 2.11871 7.91066 0.309369 -0.642053 1.94151 0.982765
2804 3.52913 8.4859 0.753247 -0.219235 -0.397527 -0.168699
276 5.11655 8.92145 1.29353 1.46278 0.27324 -0.342572
2724 4.61197 8.18076 0.788155 1.69281 2.70023 0.91349
429 5.53579 8.81047 0.0712814 0.632817 0.309183 0.418787
1647 7.2635 8.70287 1.05769 0.612374 -1.5881 -0.395785
3971 6.15509 8.72672 0.928667 -0.931192 0.548349 -1.61935
3984 7.25422 7.62178 0.543972 -0.0744526 1.63965 0.169431
2198 6.34763 8.24364 0.0127265 1.69975 1.05635 1.38265
2404 8.44757 7.97652 1.06093 0.518754 0.924727 0.631301
1053 8.23988 8.93518 0.444074 0.57037 0.106824 0.246921
502 10.281 8.13894 0.273386 -0.343351 0.129227 -0.436948
3007 9.79443 8.45389 1.33019 -0.364932 -1.51949 -1.36733
1022 9.17355 8.08083 0.123926 0.373052 0.574292 1.21376
1025 11.5837 8.40157 1.3717 -0.279462 0.792672 1.48152
1287 11.1349 7.53775 0.0025052 1.49849 -0.968529 -0.270368
2553 11.8531 8.27251 0.0438434 0.355182 -0.624447 -0.447251
222 12.4233 7.53813 1.31248 0.775473 -0.99905 0.627761
1603 13.182 8.77825 0.74284 -2.08027 2.23243 0.962392
3224 12.9466 7.77638 0.32485 -1.19768 -0.152279 -1.04732
332 14.1796 7.97864 0.745645 -0.388842 -0.895872 -1.6161
2756 15.2813 7.64866 0.600778 0.0943922 0.637142 -1.998
2847 16.2923 8.49421 0.845111 0.462783 -1.03931 -0.880874
835 15.169 8.79111 0.578987 -2.10374 -0.309268 -1.3828
2572 16.5745 7.58431 0.363069 -0.118401 0.765113 -0.137853
3747 17.8289 8.15237 0.16621 0.962664 -0.690365 0.15084
1457 17.3617 8.45939 1.32407 -0.369394 0.696199 -1.53458
800 0.601101 0.240155 1.68045 -0.249427 -1.12908 -1.4407
1803 0.420383 1.30087 2.02609 0.196229 0.23229 0.670999
775 1.31152 0.907294 2.36735 1.87595 0.161671 0.156269
2432 2.53347 0.531416 2.44122 -0.683729 -0.577282 -1.16131
1994 3.31736 1.35608 2.37681 -1.49672 -0.808944 0.712759
3734 4.31871 0.89545 2.50479 2.34564 2.532 -0.634745
2044 3.64754 0.107914 2.44686 1.70448 0.199676 0.723093
212 5.26718 0.63589 1.88215 -0.571534 0.0246442 -0.247523
1791 5.80385 0.86938 2.85834 0.350664 0.298635 -0.66594
1150 6.93654 0.877319 2.80779 0.420497 -0.283665 -0.160487
2760 7.46671 0.536737 1.81856 -0.975409 0.269742 -0.9464
2157 8.50494 0.969807 1.98163 0.450473 0.667953 -1.92526
3805 9.62579 1.36641 2.9337 0.248162 0.756357 -0.306924
290 9.64305 0.384008 2.1047 0.00317912 0.0930368 -0.646625
984 10.7719 0.318524 1.97069 -0.00402479 -0.428149 -0.426571
3443 11.4723 1.09021 1.73283 0.652747 0.979142 0.830969
1285 11.6567 0.380372 2.44946 -0.197592 0.0258559 -0.398808
2134 10.6435 1.39346 2.2918 -1.1781 -1.32815 -1.00892
2531 12.8623 0.0344018 2.07112 -0.393318 -1.82002 -1.67087
1480 12.8357 1.02601 2.58783 -1.87707 0.0353521 -0.394045
1703 14.7934 0.323211 1.9396 2.16851 0.343842 -0.501026
3600 13.9756 1.32338 2.28744 0.380132 -2.02864 0.172364
2551 13.7599 0.317641 2.52413 -1.59628 -0.840342 1.43972
3842 15.8588 0.0521367 2.31542 -0.625971 -1.95029 0.0978371
3625 15.4308 1.34298 2.01219 0.050345 0.524267 1.86939
1211 16.7539 0.814084 2.38725 -0.075714 -0.763936 0.0519663
2708 17.3468 1.11634 1.56464 -0.982409 0.810081 2.11749
869 17.5984 0.762712 2.89506 1.20291 0.87902 -0.436693
1438 17.4305 0.128813 1.99768 1.60582 -0.577945 2.14284
2683 1.27442 2.66997 2.90324 0.523371 1.34209 -1.7218
3967 1.58922 1.94114 2.15239 -1.30801 0.485178 -0.189898
3355 2.82619 2.07469 1.77642 1.1293 0.294139 -0.796564
2969 2.1028 2.94341 1.72165 1.7415 -0.11462 -1.61675
3160 2.41919 2.42677 2.66957 1.27472 0.606112 0.259725
1547 3.54915 2.5921 2.81953 1.49989 -0.885059 1.32869
2435 4.06038 1.81383 2.03546 0.0269425 0.511918 1.54357
1271 3.91991 2.87258 1.59784 -0.780493 -0.40662 0.156079
3724 4.91965 2.51334 1.72957 -0.169635 0.118033 -0.729397
1459 4.85634 2.28853 2.81475 -1.17959 0.0537797 -0.803307
3041 7.26636 2.38611 1.53477 -0.426626 -2.34693 0.601103
378 6.29128 1.50308 2.01358 -0.799704 0.203998 0.0870439
331 6.36522 2.77306 2.22506 0.273968 -4.25877 -0.0810965
3402 7.18685 1.85472 2.58419 -0.945923 -0.0431547 0.92812
2823 8.25165 2.32234 2.00471 0.235165 0.95489 0.601738
2403 8.77114 2.89494 2.7831 0.0683576 -0.353463 -0.289197
885 9.29561 2.17271 2.10349 0.968596 -0.453167 -0.271455
1610 10.3656 2.53739 2.53005 -0.582456 0.100921 -0.316025
1069 11.4778 1.88775 2.60694 -0.409198 -0.778087 1.25845
3779 12.7786 2.28125 2.62232 0.643933 0.230585 0.043443
1303 11.9201 2.73234 1.93624 2.18209 -1.8107 -0.174411
91 14.7895 2.28191 2.29087 -2.64497 -0.364018 0.330083
3885 13.687 2.59628 2.17707 1.33576 -0.685873 -0.814908
2032 15.8839 2.74653 1.57098 1.33871 -0.545321 0.337957
1096 15.8006 2.93725 2.6618 0.37719 -0.893264 -1.15096
2069 17.0655 2.11755 1.97432 -0.999259 -0.715008 0.569308
823 0.356766 3.14741 2.17782 0.906348 -0.170369 -0.965263
589 0.469348 4.09254 2.69392 0.228505 -0.232263 -0.942903
1690 2.14213 3.68867 2.49176 0.59498 1.98419 1.5744
3330 3.60465 3.73978 2.26769 0.0622396 -0.0584949 0.672924
1065 3.79756 4.42591 1.53766 1.97186 -1.29809 1.78897
3083 4.35143 4.43187 2.52539 -1.2088 -1.00835 -1.1299
1588 5.54853 3.51275 1.59542 0.521983 0.603999 -1.36613
1310 4.49762 3.71457 1.66061 1.25652 -0.753334 -0.950523
2629 5.11907 3.33895 2.70141 0.150866 0.127227 -1.77046
1674 5.50724 4.27353 2.54455 -0.444611 0.244922 0.381978
3656 6.4693 3.91547 2.15865 -1.45156 -0.653993 -1.85986
2374 7.61908 3.34583 2.55318 0.0661634 1.11048 0.184678
2852 8.8486 3.53934 1.72518 1.39358 -0.164276 0.169921
1376 8.90132 4.08936 2.97612 0.106982 2.23657 -0.399618
3333 9.98381 3.17344 1.53557 -0.15909 -0.680955 -0.235163
2665 9.62562 4.28843 1.81755 0.144761 0.352831 -0.790921
2200 9.61276 3.41947 2.44666 0.14703 0.119671 0.098996
2713 10.9298 3.61374 2.27942 0.437915 0.38582 1.21067
3145 12.954 4.19404 2.39596 0.428971 -0.432199 1.47969
2956 11.9866 3.85616 2.15017 0.451537 0.496275 -0.936025
758 14.5025 3.44323 2.29611 1.5629 -1.85033 0.748851
608 13.5971 3.60977 2.97288 1.44867 -0.90081 -0.114321
2026 15.2661 4.09085 1.84737 -0.32605 1.43994 -0.220364
1725 16.2894 4.1729 2.35925 0.0215471 -0.807005 0.0421813
2345 16.7144 3.16419 2.33064 -0.16625 -0.762463 0.350236
651 17.4189 3.92959 2.05696 -0.291577 0.325045 -0.631671
2563 0.751871 5.42637 2.4759 -1.73239 0.692201 1.08057
595 1.12876 4.51232 2.06788 -0.171473 -1.72805 -0.660342
577 1.69761 5.72721 2.32523 -0.536186 -0.623628 0.34459
3009 2.1878 4.71432 2.17365 -0.577705 1.20818 0.116969
3398 3.33353 4.96305 2.40713 -0.385998 0.969896 -1.43842
3158 4.34199 5.76539 2.57499 -0.932483 0.362682 -0.619474
437 3.94818 5.50263 1.63772 -1.08371 0.165653 -1.24248
887 5.2612 5.95277 1.75285 -0.546688 -0.325206 -1.14622
957 7.23156 5.16614 2.21773 0.217017 0.396959 0.612804
1781 6.05528 5.1106 1.90227 -0.0948908 0.937874 0.105723
3093 8.22662 4.51196 1.98938 -0.35435 0.38018 -0.48806
109 8.29034 5.75103 1.90412 1.08244 1.74584 -0.226913
2205 10.0874 5.43355 2.41697 0.133869 1.71801 0.675539
2910 9.01108 5.05268 2.47841 -0.380141 0.26689 1.70185
1388 10.8289 4.74708 1.75391 0.687626 0.758258 -0.162273
1957 11.8193 5.25278 1.88586 -1.09444 1.1408 0.9426
1170 12.4758 4.99072 2.88434 -0.911796 0.595358 -0.550838
3234 12.9391 5.75787 1.84065 -0.926675 0.0240063 0.111341
3589 13.6914 4.91574 2.06428 -0.750456 -0.179877 -1.44027
2828 14.6724 5.29623 1.93175 -1.01111 -0.552213 0.555058
1640 15.892 4.97118 1.91125 1.19527 0.393227 1.80279
847 15.2671 4.58311 2.71361 -0.480792 -0.88532 1.33094
600 15.4258 5.68158 2.60518 1.16295 -0.968986 2.13017
2723 16.9117 5.00794 1.65199 1.35124 0.383227 -1.48087
2147 16.6281 5.83562 2.71401 1.34288 1.17532 -0.189078
635 17.2311 4.70732 2.73167 -0.0235486 0.26968 -1.34734
2502 1.35858 6.49578 1.63911 -0.987525 0.163979 0.317522
2510 1.1126 6.73257 2.5616 0.568945 -0.360917 -0.391976
3551 0.08805 6.39205 2.34008 -1.41172 -0.878345 -0.195241
476 2.1059 6.96168 2.48288 1.15123 2.37643 -0.775568
1907 2.79319 6.08686 2.17915 -0.640894 0.357831 -0.213865
3560 3.77731 6.47655 1.8241 -1.37926 -0.349699 -0.229831
1595 3.75433 7.01901 2.72018 -0.993001 -0.512101 0.271695
613 6.63209 6.66161 1.69288 1.26561 -0.314602 1.30599
929 6.52529 6.12195 2.69103 -0.0329788 1.37676 1.28765
633 7.44129 7.36402 2.80008 -0.552548 0.572513 0.957302
2739 7.70022 6.32379 2.53365 1.32743 -0.320078 -0.574656
678 8.47573 7.07315 2.91294 0.863017 -1.58178 -0.942427
1617 9.70283 7.29974 2.82777 -0.832203 0.272527 0.128128
3851 9.11533 6.45059 1.60542 -0.78878 -1.53337 -1.43765
3580 9.36178 7.39004 1.88678 0.836064 1.15877 -1.27886
1200 9.2054 6.00875 2.58552 -2.21675 1.25618 0.937196
2833 11.1731 6.05426 1.87538 -0.202047 -0.352952 0.492042
768 10.8704 7.40276 2.47382 0.729825 -0.575976 -0.161276
1840 12.2589 6.10588 2.51918 -0.739931 0.357276 0.339845
77 12.0918 7.36172 2.47864 -0.680494 0.348491 -0.337019
3838 13.1776 6.64965 2.7553 0.364865 -2.58444 -0.241446
1348 14.2016 6.72516 1.72979 -0.97087 -0.0748175 -0.148044
3161 13.895 5.96329 2.39669 1.17459 -1.37795 1.15673
741 15.8021 7.03701 1.64784 0.455326 -0.680955 1.50269
3637 15.0197 6.59112 2.28459 -1.60869 2.33676 -0.830329
3498 16.0683 7.00612 2.64105 -1.63666 0.76985 -0.652989
135 17.5724 7.2801 1.84794 -0.504913 0.499531 -1.14688
3591 16.6628 6.40183 1.744 -0.744365 1.07308 1.38404
3765 17.1112 7.02867 2.68062 1.42563 -0.31237 1.13982
1427 0.495556 7.94203 1.95786 -0.0811049 -1.10206 -0.956092
2354 1.48956 8.04402 1.78827 -0.0142713 -1.82152 1.91175
1903 2.7643 7.57518 2.2765 0.464973 -0.2752 -0.00332518
483 1.9997 8.23159 2.66021 -0.195295 -0.848447 0.890517
3376 4.07041 8.1988 2.0324 1.02339 -1.39974 -0.282869
2078 3.2282 8.73607 2.22971 0.590735 1.9571 1.59509
3917 5.16232 8.84519 2.47293 -0.143675 -0.0154836 0.586813
781 5.8345 7.60563 2.03269 -0.0345333 0.657258 0.463601
3325 5.00372 7.77037 2.76634 -0.192038 0.0590195 1.82319
3190 6.16557 8.69564 1.97211 -0.0108497 0.50119 -1.09457
2068 6.92393 7.92873 1.86726 0.76782 1.85829 0.596381
771 6.42467 8.13388 2.90165 1.57525 0.53961 -0.331118
89 7.72355 8.91615 2.37427 -1.73822 1.01956 -0.345762
3137 8.54119 8.14313 2.16307 0.684744 0.871443 -0.596125
1276 9.83607 8.36064 2.35907 -1.34867 1.29954 -1.05749
428 11.2671 8.36053 2.75036 -0.288688 -0.839107 0.713209
879 10.7096 8.10914 1.69041 0.245174 -0.672905 -2.35018
1251 12.3528 8.59505 2.14224 -0.575376 0.409507 -1.56264
1808 14.8453 8.60028 1.54992 0.111388 -0.0446419 0.435033
2237 13.5219 8.79782 2.56833 -0.693181 -0.710428 -1.01485
3876 13.8472 7.49902 2.41173 -0.177433 1.20416 0.900937
442 13.6163 8.28079 1.7392 -1.35252 0.219985 -0.167391
385 14.6755 7.69823 1.91803 0.757824 -1.06976 -0.451438
3107 15.6433 7.9385 2.33936 0.0228819 0.383345 -0.669428
1770 16.7427 7.90184 1.89679 0.42771 0.55322 -2.03971
2638 16.4028 8.48263 2.88666 0.831479 -1.20776 -0.090313
1062 17.4751 8.41086 2.53691 0.670608 -0.258364 -0.459886
920 0.540981 0.357206 4.18674 0.399945 -0.868826 2.0998
3992 0.539111 1.44793 3.18809 2.03987 0.593254 -1.71487
180 2.12051 0.676418 4.21599 -1.76966 1.50108 -0.509261
371 2.86319 0.967046 3.43237 -1.45398 1.45449 0.888687
2121 1.88046 0.339901 3.24756 -0.920475 0.794373 -1.19198
529 3.02909 0.638061 4.44919 1.59643 0.0499527 -0.506491
3289 4.01936 0.943148 4.38739 -2.78718 -0.30539 0.892826
305 3.91364 0.392829 3.44121 -1.19528 -0.851371 0.497596
1694 5.07962 1.23764 3.47834 -0.677767 1.3004 -0.51861
2655 5.0583 0.311502 4.08833 0.155273 0.407095 0.0602151
3975 6.00766 0.786231 3.87316 -0.365005 -1.82949 1.07328
311 7.07739 0.678996 3.89942 1.02768 0.694754 -0.337406
622 8.22902 1.48857 2.98333 0.227276 -1.69235 -0.888509
256 8.19859 1.35215 4.39754 -0.322144 1.53509 0.668638
411 8.0141 0.278915 3.57017 -0.0367031 0.0873191 -0.0506335
2221 8.90389 0.982626 3.71087 1.27587 -0.216558 0.0661492
1545 10.0548 0.827237 3.99606 1.44645 -0.207498 1.60159
3650 9.35496 0.0485456 3.16995 0.635113 -0.622468 -0.905815
3264 10.442 0.616664 2.99423 -1.89247 0.0364302 1.3978
2189 11.0275 1.42275 3.60596 -0.102018 0.244145 0.234261
2397 11.1687 0.0946013 3.72101 -0.493321 1.04999 0.90858
3836 11.9965 0.869288 3.59635 -0.613949 0.65331 0.0549613
1539 13.3431 1.21672 4.34964 0.0609297 0.947301 -0.196453
405 12.5608 0.0921231 4.20003 -0.588855 0.267532 -0.733516
1555 14.3719 0.292287 4.41343 0.510106 0.747766 0.222981
2348 13.8445 0.791885 3.58573 -0.848511 2.16271 -0.0175483
2657 14.6635 0.158906 3.24725 1.42849 1.11087 0.352826
3151 15.5387 0.548222 4.39376 -0.0875968 -1.6656 1.6636
773 14.9565 1.42396 3.26532 -0.0154928 0.539662 -1.66179
709 15.879 0.553946 3.31668 -0.895667 0.552804 0.239782
3839 17.5048 1.06381 4.00656 -2.0495 -0.883815 2.48952
446 0.721175 1.56313 4.36754 1.27154 -0.450052 -0.695312
3469 0.121752 2.54703 3.07689 0.21498 0.80575 -0.0266175
1213 0.974099 2.43078 3.93128 0.684587 0.467687 -0.60168
1947 1.7968 1.75458 3.4941 1.0504 -1.62057 -0.626375
196 2.06404 2.68695 4.1134 1.52442 0.198434 0.596892
1589 2.97277 1.95766 3.75998 -0.0141212 1.37887 -0.937975
381 4.04971 1.50746 3.39681 -0.375074 -1.51712 1.28354
1666 5.23149 2.00005 4.22093 -0.767447 -1.18864 0.69933
3130 5.77546 2.78004 3.69232 0.285447 -2.04192 -1.75695
3559 6.19811 1.76797 3.38127 1.94278 0.972197 0.64999
2173 7.2442 1.67374 3.78618 0.661888 -0.550993 0.291719
3084 6.90706 2.6901 4.19623 -0.568761 1.47887 0.761886
1124 7.53491 2.53712 3.2444 0.694474 -0.208565 0.36212
1492 8.19286 2.76942 3.93069 -1.45828 2.0085 -0.29486
114 9.08965 2.2251 3.52284 0.512076 -0.82123 -2.22855
725 10.3673 2.01794 4.21605 -0.957842 -0.0910006 -0.380853
3907 11.0118 2.68473 3.5617 -0.558855 -0.217475 0.601594
2662 12.4924 1.78071 3.83601 -0.57866 -1.41648 0.949915
2060 12.0114 2.65582 3.12868 1.28686 0.519573 -0.102
3201 14.4181 1.71991 4.11702 0.365025 -0.743936 -0.072496
2800 13.5654 2.35897 4.33228 -2.18207 0.0854623 -0.521816
3547 15.4563 2.4396 3.5465 -0.503053 0.37232 -0.120461
585 16.7676 1.83112 3.55074 0.729231 -1.05242 0.745623
3098 17.6988 2.14315 4.07525 0.565377 0.601339 -0.240458
1093 16.9613 2.77618 3.27944 0.0680468 0.168433 1.18793
1014 0.529241 4.04275 3.84653 -1.20255 -0.77451 0.207252
1630 0.134016 3.08765 4.11317 -1.04774 0.94729 -0.451934
1248 2.78214 4.28579 2.98997 0.787047 1.6848 0.30386
3740 1.61965 3.70634 3.74574 0.983856 -0.114509 -0.135635
2233 2.87837 3.25746 3.4978 0.895538 1.16827 0.856359
3782 2.54244 4.17006 4.12083 -1.0838 0.120994 -0.482513
3025 4.33899 3.03655 3.54883 0.0789592 -0.970299 -1.46986
465 3.67297 4.31308 3.54364 -0.836579 -0.377536 -0.194199
567 3.83656 3.63257 4.37998 -0.933034 -1.00545 -0.524293
2648 4.83461 4.13972 3.51819 0.389892 -0.152882 0.753593
979 5.85382 3.81033 3.70256 0.997916 2.50207 -0.769689
2384 6.88057 3.45535 3.36971 -0.475998 -0.110035 1.30771
1290 6.62422 4.42733 3.0898 -2.05295 -2.7325 1.00478
448 6.72777 3.89175 4.41255 -1.31928 0.738946 -0.257458
3820 8.54618 4.01411 3.97565 1.12491 -0.976824 0.280105
2866 7.63086 4.46202 3.1256 -0.726828 0.431694 1.02419
3841 7.60293 4.32585 4.24048 -1.43958 0.683959 -0.873334
2331 10.3785 3.465 3.24983 0.115156 -1.00179 0.992294
2995 9.31101 3.24268 3.56672 -0.173023 0.0159757 0.0997387
1487 9.84356 3.97208 4.04957 -0.275795 2.0597 1.31966
790 11.6471 3.21937 4.29581 -0.89029 -0.276902 0.955269
15 11.7421 4.13184 3.13874 -2.22886 -0.776227 0.303876
364 10.7688 4.21444 4.02568 0.728419 -0.80136 -0.794768
400 12.9856 3.02195 3.59727 -0.387605 1.85248 0.103506
2636 12.5876 3.99219 3.8914 -1.55578 -0.997024 0.732334
2593 14.438 3.0073 3.32292 0.169609 -0.190074 -1.1532
2473 14.0964 4.13442 4.00942 0.0928416 0.915131 -0.141283
859 14.9638 3.10025 4.25306 -1.42821 0.414921 -1.14021
2784 15.5056 3.62523 3.48068 -0.403727 1.48585 -0.595711
3154 17.5798 3.54667 3.17711 1.39536 -0.589671 0.882658
2080 16.5508 3.70624 3.39795 0.0434721 -1.43102 -0.56016
3667 0.149747 4.99968 3.20215 -0.783996 1.54983 1.54682
2838 1.4205 4.58007 3.1705 -0.0874186 1.10392 -0.512023
1158 1.02764 5.15457 3.88071 0.684294 0.118423 -0.804558
277 2.25259 5.35369 3.14686 1.86719 0.209856 0.938556
2138 2.42029 5.48626 4.40028 -0.208972 0.991707 0.207925
130 4.36936 5.36214 3.57706 -0.493751 0.845476 -0.717283
2806 3.46509 5.90396 4.45016 -0.646244 -0.0493276 0.00600983
2272 5.36427 5.37475 3.31352 0.221215 0.301654 -0.910391
3326 6.17599 4.76242 3.9566 1.06261 0.156247 0.229394
1698 7.11878 5.48718 4.02539 0.908427 -0.721499 -0.160034
2186 8.27748 5.56 3.9458 -0.139313 -0.878419 -1.98268
1259 9.08855 5.03459 3.51474 2.04257 0.0287151 -0.153979
2793 9.93377 4.6362 3.12963 -0.761496 0.845526 -1.16245
3262 10.1155 5.12642 4.20434 -0.682564 -0.718746 -2.0215
1023 11.0025 5.24632 3.595 0.546011 -0.279783 -0.836604
1279 13.1735 5.64639 3.12038 1.65641 -1.13904 1.49209
930 13.8339 5.21611 4.10161 -0.644223 1.32731 0.716171
116 14.184 4.51986 3.00419 -2.93066 1.24393 0.311734
2201 14.7482 5.82368 4.32063 -0.784972 -0.149926 0.230515
342 14.2969 5.62273 3.27495 -0.184946 -0.60536 -0.0187445
436 15.0736 4.77884 3.85681 -0.508482 0.757099 -0.873359
677 16.1529 4.99818 3.07101 -0.318829 0.987293 0.202006
102 15.7281 5.66742 3.87131 0.166372 0.980257 0.790411
1636 17.059 4.77757 4.40847 0.85825 -0.344216 -0.837111
707 17.7316 5.59107 4.08872 -0.178725 1.70049 0.170013
669 16.8656 5.54116 3.66175 0.405878 0.016848 0.674036
681 0.779203 6.031 3.20502 0.562992 -0.414534 2.21596
3720 1.18506 7.38799 3.77023 0.388983 -0.20716 -0.25564
2313 0.273232 6.85512 3.8309 -0.839202 -0.496153 0.122706
247 2.92504 6.92217 3.62318 0.197645 -0.115689 -0.635169
3690 1.7583 6.46047 3.56186 0.0806836 0.676071 -1.39311
1488 3.66865 6.21011 3.50696 0.883459 2.07202 -0.524388
382 4.76571 6.21758 4.25165 -0.982281 2.34299 -2.13913
295 4.74166 6.48251 3.17821 1.38911 -0.309282 1.0264
415 5.03187 7.4451 4.24815 -0.29896 0.246628 1.33737
636 5.82929 6.85701 3.23576 0.0849173 -0.0377357 0.182233
3418 7.03435 6.42458 3.5112 0.350482 -1.37781 1.40987
3233 6.27133 7.27435 4.04014 -0.701345 0.166703 0.528166
1035 6.11211 6.04103 4.20096 1.90347 0.509732 -1.57625
3217 8.01769 6.58233 3.68583 0.179586 1.56909 0.0680219
856 9.05898 6.06292 4.42005 -1.01422 0.20567 -0.20572
296 9.84971 5.97205 3.63602 -0.10203 -1.17449 1.37041
358 9.49558 7.07528 3.94232 2.17933 -0.694406 0.346995
729 10.8102 6.51405 3.30104 -0.651473 -0.914445 1.32252
1417 12.1625 6.16418 3.69609 1.26702 -2.00898 -0.609602
1953 13.3148 6.34137 3.78231 1.57124 -0.610394 0.51764
3852 12.6599 7.30411 3.34597 1.14313 1.02528 0.291829
695 14.8587 7.17948 4.02542 -0.485481 -2.01511 0.507953
2842 14.1872 6.60561 3.37259 -0.361155 -0.249242 -1.28
3840 14.7062 7.40721 3.033 -0.686453 0.496795 0.039847
2489 13.7491 7.16956 4.33104 -1.38054 2.17745 -0.569426
3752 15.8783 6.90526 4.20312 -1.86722 -0.41045 -1.38943
1327 15.2434 6.4669 3.45901 0.793389 -0.889762 0.419564
1122 17.1799 7.34243 3.79799 0.0291408 0.139123 0.244772
153 17.5541 6.04933 3.24692 -1.63526 -0.153946 -0.0154989
1659 16.472 6.49413 3.41451 -1.06053 0.260923 0.0679125
1282 17.0746 6.39421 4.23367 0.223952 0.311741 -0.0549345
2596 0.429222 8.34957 4.36328 -0.634232 -0.92589 -1.169
3738 0.104455 7.55114 3.04581 0.188547 -0.921148 0.386221
1059 0.955333 8.12451 2.98513 0.993037 -0.309278 -0.88025
3322 2.0881 7.52181 3.60768 -1.97166 0.221408 0.367376
2928 2.79746 7.74514 4.46398 -0.0895875 0.133265 -0.180629
2613 1.80566 8.59363 3.73906 0.324824 -0.261134 -0.0216262
583 3.12731 8.1569 3.16378 -0.675133 -0.864471 1.07174
2939 4.14875 7.89965 3.95247 -0.488495 1.02038 1.2315
3621 4.60369 8.90732 4.28421 1.53356 1.51267 -0.433948
3514 5.72006 8.41045 3.87836 -2.17326 -1.60922 -1.06048
2441 4.77908 8.51659 3.33431 0.405064 -1.46909 -0.440332
3516 7.17863 8.62014 3.55609 0.0301113 -0.869087 0.0133142
3064 7.21945 7.56256 3.98244 -0.319534 0.994011 1.14835
2291 8.36769 7.57114 3.95076 -0.409296 -1.35171 -0.952715
2947 8.41055 8.83593 4.02668 0.0860369 -0.151127 -0.257787
2483 8.00923 8.22322 3.14937 0.65086 1.24964 0.782124
2944 8.96796 8.03759 3.17495 -0.703272 0.798776 -0.0790255
789 9.92439 8.75046 3.25671 -0.434279 -0.461179 0.840196
3294 9.53241 8.16123 4.04096 -0.319673 -1.21247 0.442209
742 11.8682 7.87204 3.70596 -0.820363 0.393671 0.0158006
1442 10.4641 7.5248 3.66637 0.410145 -0.0611858 -0.895638
2851 10.9437 8.22599 4.35795 1.67442 0.465117 0.952058
806 12.2062 8.55427 4.42115 -0.803879 -0.770447 0.344559
2769 12.4688 8.73701 3.18454 0.00508142 -1.19473 0.039937
2013 13.3893 8.40705 4.18898 0.447611 -2.24569 0.123326
696 14.652 8.2192 4.16836 0.430938 1.98816 -0.405289
2528 14.0507 8.13922 3.32762 -0.211784 0.246988 -1.35586
2054 15.4273 8.38848 3.40153 0.339727 0.131871 0.358039
2236 16.1978 7.95422 3.90563 2.00667 -0.0688436 -2.03537
538 17.3493 8.29236 3.50365 1.10288 1.01429 -1.05124
2751 0.757108 1.33898 5.4987 0.0262141 1.13363 -0.588372
3265 2.80105 0.598316 5.53941 -0.317766 -0.844324 -0.742056
1761 1.61708 0.632265 5.29325 0.827706 0.00726253 -1.36938
3886 4.25453 0.597992 5.55439 1.38032 0.750947 -0.484894
3036 3.08028 1.46511 5.03694 -1.61493 0.174232 0.128337
2180 5.4173 1.37235 5.32116 0.399652 -1.44539 0.00613257
132 6.4727 1.16917 5.3103 -1.97014 -0.0946776 -1.51602
350 7.75632 1.13609 5.56557 -0.81594 -0.383921 -0.305254
1506 7.89734 0.383079 4.59896 -0.554809 0.613191 -0.0785975
3390 8.52642 0.0612932 5.88499 -0.869095 1.46605 -2.5215
2468 9.07132 0.411028 4.59967 -0.335391 0.18234 0.562935
2705 9.86924 1.02456 5.18457 0.699069 0.64631 0.0976785
3015 8.96246 0.977282 5.71492 0.923256 -0.189735 -0.373868
166 11.1929 0.517 5.45783 0.567129 -0.485125 -1.06683
554 10.9538 1.15171 4.56928 0.385789 1.00392 -0.665975
1400 12.1034 0.128107 5.17402 1.8354 0.023786 0.538024
1604 13.3105 0.562685 5.21194 0.581876 0.660595 0.371667
865 12.5296 1.47585 4.82606 0.0201422 -0.654798 0.201741
3485 15.2729 1.47313 4.74969 0.061066 -0.540573 0.850893
24 16.3578 0.480626 5.58373 0.640269 0.00858747 -0.563706
3116 16.3596 1.14605 4.75208 -1.13037 -0.262037 -0.718565
2703 15.3361 1.19936 5.82655 1.46991 -0.405853 -0.913155
3361 17.4985 0.653664 5.03395 -0.766284 -0.658246 -0.542357
3673 0.636951 2.63833 4.97066 0.00388483 1.53368 -0.305484