ITEM: TIMESTEP
63000
ITEM: NUMBER OF ATOMS
4000
ITEM: BOX BOUNDS pp pp pp
0.0000000000000000e+00 1.7878070701931353e+01
0.0000000000000000e+00 1.7878070701931353e+01
0.0000000000000000e+00 1.7878070701931353e+01
ITEM: ATOMS id x y z vx vy vz
3300 0.803358 1.00081 0.555322 0.251111 0.181481 0.118744
75 1.24772 0.0479257 1.32652 0.329653 -0.263617 1.1251
446 2.08176 0.967127 1.18193 -1.58162 -0.0381814 -0.370888
655 2.62514 0.0753848 0.762516 -0.125825 -2.22013 0.0583703
3785 1.66166 0.219324 0.34299 0.241758 0.957385 -0.0503452
2320 4.00782 1.08882 1.43158 0.217869 0.0743518 -0.643694
2159 3.92474 1.26427 0.365601 -1.15462 -2.31856 0.444106
1946 4.53778 0.00894958 0.816031 -1.74898 0.516386 -0.974034
2028 5.03605 0.818177 1.24852 0.20386 0.950028 -0.268787
3641 4.77838 0.700004 0.0417365 0.14129 -1.29578 -1.13388
378 6.05635 0.985059 0.698916 -0.889313 0.183354 -0.63798
1333 7.06806 1.00182 0.511089 -0.801506 0.795952 0.193624
2180 7.15127 0.319851 1.2557 -0.0991181 0.356911 -0.606822
994 6.20444 0.0316839 1.30925 -0.776535 -0.86502 -0.0563308
2232 7.96913 1.12451 1.05234 0.428604 -0.0149518 -1.61831
902 8.61095 0.0663936 0.976449 -0.694495 -0.941209 -0.126704
719 7.7827 0.0370565 0.420333 -0.358382 0.881533 -0.0957424
3289 9.61836 0.651155 1.44838 -1.06499 0.160519 -0.541285
1436 9.08322 1.02237 0.496597 0.458197 -1.3995 0.0893221
334 10.2901 0.470159 0.472427 1.27187 -0.263661 0.154875
885 11.1987 0.575937 1.30623 -1.17203 -0.151682 -1.13965
3208 11.901 0.976692 0.429364 0.640214 -0.156685 -0.843372
3779 12.2686 0.269956 1.46056 -1.46872 -0.595075 0.162653
1771 12.9684 0.740389 0.779141 -0.531009 -0.374199 -0.867612
2154 13.9174 1.11515 0.375429 0.0341991 -0.561062 -0.832444
2199 14.0944 0.145119 1.01569 0.257122 2.16878 0.339864
3633 15.4763 0.970115 1.15579 0.409505 -0.765138 0.373786
2681 14.9375 0.37334 0.28673 1.19942 0.347853 1.08641
2176 16.446 0.0926471 0.0531482 1.1395 0.728355 0.27929
2584 16.5109 1.37508 0.415695 -0.0655878 -0.664228 0.785387
951 17.507 1.10951 0.593866 -0.202962 -0.0367069 -1.13234
3907 17.684 0.0308779 1.09485 -0.882535 0.646159 0.214627
1703 16.4171 0.0903779 1.1464 -0.811513 -1.08513 0.646824
3547 0.174253 1.73633 1.27457 -0.847438 0.439196 -0.997466
805 1.22297 2.07507 0.656786 -0.197939 1.40776 -1.27839
2537 2.48637 1.85079 0.49921 -0.530122 -1.24648 -0.901335
1014 2.8757 2.95401 1.34263 -0.206848 1.02724 -1.46955
2165 2.20255 2.95723 0.0351002 0.671081 -0.0335436 -0.605289
2191 3.84032 2.48376 0.716697 -0.641604 0.397936 0.802654
2369 4.88029 2.0527 0.979345 1.30021 -0.613923 0.125299
2278 5.75476 1.51739 1.44528 0.0548881 0.244145 0.0951623
2487 5.57899 2.44988 0.112364 0.479121 -0.860863 -0.259398
1256 6.7925 1.8395 0.902411 -0.351957 -0.209011 2.51023
846 6.00037 2.68521 1.18929 0.590469 -0.631945 -1.76499
2902 8.70243 1.97682 0.608995 0.119381 0.0308699 -0.0371315
182 8.29511 2.32374 1.46154 1.75493 -0.68894 -0.532967
361 7.69966 2.53687 0.283497 -0.929561 -0.692578 -0.689434
501 9.26957 2.58177 1.38012 -0.168774 0.213837 0.133634
3284 9.44296 1.65973 1.28011 -1.49881 2.22166 0.671256
2114 9.98925 2.39931 0.521579 -1.24506 -0.333704 -1.70932
1131 11.4788 2.84481 1.07682 -0.937949 0.981618 0.352842
2008 12.5304 2.53644 1.17516 0.478836 0.37323 -0.463566
2065 13.2233 1.9265 0.733948 0.625198 1.49271 -1.19729
741 14.6357 2.32024 1.2346 0.943606 0.104392 0.621759
2407 15.661 2.33752 0.971305 0.049377 -0.465793 1.34502
2099 15.2893 1.57849 0.316224 2.79779 -1.68881 1.58818
49 17.7386 2.77652 0.813349 -0.0545823 -0.348052 1.18447
3361 16.4117 1.65677 1.4004 2.25723 -0.457141 -0.249082
2765 0.63557 3.62623 1.17684 0.0433868 0.700192 2.11619
2026 0.648276 3.41913 0.137336 0.483542 -0.931712 -2.10945
1065 1.99658 4.09894 0.158635 1.68604 -0.00735479 1.34235
804 2.74928 4.12251 1.07052 0.701606 0.960145 0.741726
61 1.4967 3.08881 0.819978 -0.734606 -1.07223 0.571722
437 3.59065 3.66373 0.544521 0.436345 0.113608 0.347275
3688 5.75862 3.87291 0.80378 0.642298 -0.118231 0.146738
957 4.78319 4.14171 1.13687 -1.16409 0.880044 -2.07637
2816 4.90418 3.08473 0.873401 0.98833 1.07366 -0.189592
2082 4.55093 4.05769 0.0164658 -0.311124 0.15441 2.43383
1655 8.82866 3.92585 0.00823255 -0.246691 -0.99246 1.48701
1417 10.1284 3.37042 1.08845 0.385742 -1.22693 -1.58632
2374 11.8048 4.22958 1.03053 -1.51794 -0.977803 -0.0306388
859 12.7696 4.00614 1.45916 0.528898 1.46606 0.338666
3876 12.908 3.11907 0.296096 0.115482 -0.483511 -0.559271
758 14.8271 4.02737 1.3024 -2.6328 -0.968172 0.986902
1559 14.0067 3.54425 0.990517 -0.551839 -1.00948 0.99367
3132 15.3881 3.23599 0.380568 -1.16043 0.597439 1.34694
3751 16.1648 3.85273 0.772724 0.11072 0.721234 0.93956
683 14.9298 4.241 0.207047 0.266965 0.682606 0.577874
1393 16.7456 3.06349 0.179405 -0.562012 -1.24643 -0.270931
2472 17.3162 3.67061 1.12205 -1.59828 -0.554292 -1.66954
2510 1.28304 5.52341 1.41903 0.82476 1.3775 -0.625747
2345 0.22553 4.61182 1.05155 1.09726 0.770532 0.656224
1310 1.32434 4.49527 0.975528 0.615049 -0.0492114 1.61441
1368 1.07731 5.22023 0.236237 -0.346506 1.64641 2.12156
1059 1.92679 5.80236 0.721324 -2.04339 0.0821679 -0.630483
2061 2.8331 5.86859 1.21007 -0.119729 -1.57084 0.368067
3940 3.57001 4.76781 1.25272 0.0635255 0.924585 1.96732
1172 3.23125 5.0304 0.303333 0.454928 0.484192 -1.15242
309 3.9735 5.59462 0.637635 0.761511 -0.908567 1.65099
3254 5.15756 4.75019 0.378685 0.69629 -0.8696 -1.54097
1588 5.58526 5.52542 1.36569 -0.0544487 -1.67705 -0.499586
295 5.14153 5.77779 0.173655 0.204807 0.991672 1.17189
3686 6.09733 5.84896 0.533038 -0.427697 0.207618 0.359308
429 7.21766 4.64997 1.3126 0.194931 -1.19098 -0.274574
1000 6.19405 4.80616 0.725212 -1.41534 -1.12392 0.434858
1781 7.02353 5.43374 0.470357 -1.17783 0.634549 -1.57115
3809 8.49763 5.58473 0.654547 0.711299 0.818689 -0.0225166
1973 8.22134 4.62197 0.593311 -0.322958 -1.23305 0.922966
245 9.80006 5.66888 0.884734 0.619189 1.13111 -0.194834
1348 11.273 5.56149 1.40294 0.441883 -0.160945 -0.182513
803 11.8323 5.86132 0.298277 -1.0303 0.10739 0.347782
1666 10.7356 5.71539 0.457932 -2.46353 -0.289097 -0.0549936
1820 10.4516 4.83138 1.01361 -0.951784 -1.33345 -0.0296086
1930 12.6902 5.69036 1.10435 -1.4487 -0.148589 0.390437
387 12.623 4.86449 0.443824 1.91833 -0.916851 1.37527
952 13.5414 4.49541 0.885529 0.149453 -0.359617 -1.7259
3976 13.8095 5.25436 0.348098 -0.0894779 -1.58735 0.556414
2473 14.4821 5.00132 1.21339 0.563556 0.131536 1.5291
2563 15.5852 4.80736 1.29068 -1.30973 -0.5159 -0.287703
3129 16.2571 5.54265 0.790788 -0.782358 0.103593 -1.77646
1237 15.0274 5.88768 1.42618 -0.223602 -0.275086 0.419093
3100 15.4996 5.14301 0.0936511 0.716277 0.764102 0.923444
2359 16.7806 4.59962 0.866702 -0.134852 0.469339 0.227003
3721 17.2632 5.88445 0.373032 1.39032 1.17201 -1.578
276 0.542705 6.40127 1.23484 -0.91124 1.91448 -0.017607
1093 1.26536 6.90335 0.476514 0.492017 -1.33246 1.64871
312 2.47444 6.88468 1.06351 2.0163 -2.01804 1.65964
459 4.01288 6.9783 0.383949 -0.36286 0.790008 -0.540738
3967 4.86269 6.40055 0.926968 1.72832 0.412529 0.103001
2465 6.14715 6.66917 1.37215 -1.3561 -0.0493626 -1.43006
130 6.45318 7.03625 0.419403 0.557655 0.0122502 -0.983866
3984 7.44595 6.41361 0.5472 0.793858 -0.41364 1.66917
1459 8.71541 7.43054 0.590886 1.00377 -0.0775885 -0.541176
1259 8.12163 6.63984 1.37369 -2.11876 0.905681 -1.46216
2190 10.3075 6.60535 0.850634 -0.519232 -0.633672 1.34242
286 11.2874 6.69475 0.791309 1.64296 -0.195589 1.03615
502 12.3247 6.99173 0.561076 -0.0432734 -0.393132 0.692992
2126 13.2526 6.46944 0.672707 -1.48765 -0.94598 -1.41335
2723 13.105 7.31966 1.19575 0.30109 0.736104 1.23525
2009 14.293 6.76262 0.438945 -0.679291 0.528804 1.86328
3461 13.9542 5.97617 1.27141 0.48479 0.773488 0.737684
1814 15.537 6.26641 0.0806587 -0.422456 -0.0660655 0.585546
423 15.3401 7.1688 1.16154 -1.57221 -1.44737 -0.54047
2467 17.3048 6.62288 1.17702 -0.14255 1.88819 -0.778932
1274 17.3894 7.25985 0.128204 -0.367359 1.17345 -1.20024
3573 16.6002 6.65449 0.468792 0.0813557 0.37099 -1.99763
3798 1.1173 7.8938 0.715838 -0.348476 -2.3303 -1.27084
2695 1.34791 8.85599 0.598473 -1.06279 -1.08732 -0.814965
3934 0.0322154 7.59226 1.15851 -1.03304 -1.38955 -0.374512
2998 0.221795 8.73006 0.847014 0.0146956 -0.794103 0.139094
3677 0.287557 8.02146 0.0843227 -0.919795 -0.135479 -1.34029
538 2.06957 8.14878 1.17194 1.52959 0.779626 -1.26174
11 2.07443 8.26664 0.0955621 -3.21512 -1.61759 0.327359
2056 3.06462 8.32599 0.537227 -1.14052 0.46376 -0.603563
701 4.40821 7.90314 0.757895 0.644605 -0.62968 -1.6798
3703 3.84304 8.87205 1.01545 -0.379066 1.34703 -1.06612
1395 5.59876 8.00388 0.4527 -2.13145 0.994787 1.27414
3235 6.75495 8.86375 1.15726 -0.711772 -0.00045439 0.258236
1813 6.40873 7.69684 1.17877 -1.2068 -1.31805 1.10356
3063 6.64754 8.016 0.185938 -0.904765 -2.66162 1.28035
2029 7.51868 7.49697 0.68265 -1.90053 1.75476 -0.80014
1657 8.21534 8.28131 0.305057 2.03206 1.29324 -0.204002
210 7.65965 8.17487 1.4894 -0.441653 0.00385069 -0.233566
1342 8.71824 8.84109 1.11991 -0.222007 0.5191 -2.36694
1418 9.62863 7.99765 0.969128 1.29671 -0.887035 0.256137
2769 10.3594 8.65493 0.8685 0.434294 0.533497 -0.292825
881 10.6694 7.70124 0.813923 -0.528368 -1.31256 1.25487
2456 11.2663 8.37457 1.4759 -2.06221 -0.596577 -0.594079
768 11.9184 8.85818 0.662948 -0.997612 0.821121 1.94481
663 13.1632 8.71538 0.699402 -1.61119 -0.487948 -1.64691
2512 13.1408 7.61325 0.187975 1.29843 0.180663 0.221568
2111 14.1361 7.99297 0.637513 -0.248436 0.866424 0.434324
3409 15.0822 8.4163 0.673246 1.10237 -1.23397 -0.340395
1488 15.8883 7.81618 0.482167 1.05095 1.79341 -0.55553
110 16.9319 8.43708 1.13972 -0.562603 -0.18143 -1.3903
1707 16.8363 8.32431 0.0209738 -0.169246 -0.900011 -0.253286
1413 0.275121 0.717499 2.89433 1.80607 -0.721944 0.595389
1160 0.355101 0.71172 1.69012 0.264827 0.411973 -1.02738
2433 2.53515 1.13225 2.09311 -2.02133 0.845748 0.316822
2080 1.57164 0.484074 2.32995 1.29331 0.453223 0.440543
2432 3.52677 1.13835 2.32828 0.441185 -0.0466753 0.733992
115 5.57986 0.721356 2.26751 -0.533509 2.06117 1.32646
1213 4.52283 0.648544 2.33556 -1.21395 -0.651547 0.229102
1791 6.40394 1.08889 2.97023 -0.767912 -0.711797 -0.378344
2835 6.54514 0.976478 1.7616 0.196602 -0.165566 -0.530836
2155 8.60571 0.699053 1.85608 0.810758 -1.25433 0.36542
2331 9.55207 0.61251 2.50757 0.656821 -0.665603 -0.583115
3638 11.7879 1.16067 2.43035 0.0918763 -1.1573 -1.06474
27 10.9698 0.311845 2.38067 -0.119322 0.408465 0.909237
57 10.7541 1.3271 2.32295 1.11536 2.52098 0.895712
116 12.4045 1.42513 1.49378 -1.11881 0.0454679 -0.917552
1890 12.9824 0.326999 2.40661 1.51629 0.792327 -1.58506
3086 12.8857 1.33355 2.67486 -1.16932 0.361263 -0.12496
3762 14.7145 1.22809 1.78014 0.317113 0.467455 -0.77988
2708 13.6835 1.19815 1.65505 0.123941 -0.389183 0.550642
1967 13.8727 0.952418 2.90827 1.5465 1.5763 -0.63562
349 14.6878 0.338775 2.55989 -0.0539316 -0.0208687 -0.32882
156 15.8952 0.701033 2.25203 -0.0837066 0.675417 -2.58412
1859 16.9171 1.1425 2.48662 0.846105 -0.54131 -0.529439
3533 17.2975 1.10902 1.56987 -1.76239 1.94851 -0.568523
1452 1.21011 1.60334 1.66071 -0.436954 -1.6027 -0.977059
3438 0.84396 2.70196 1.59432 -1.795 -0.328997 -0.181495
1060 0.29171 1.5698 2.31311 1.35738 -0.663173 -0.846348
534 0.972475 2.66109 2.82458 -0.781415 -0.762258 -1.05796
277 1.89344 2.77406 1.79135 -0.381459 -0.150381 1.467
2314 1.49154 1.70218 2.7237 -0.283858 0.693875 -0.134648
631 2.97603 2.02277 1.62492 -1.0002 -2.50231 -0.86208
528 2.10254 2.7205 2.84846 -0.130638 1.12095 -0.219521
293 3.02106 1.75447 2.95524 -0.311704 -0.0357264 -0.424863
1776 3.93308 2.84621 1.7853 -1.22008 1.06969 -0.391249
186 3.06843 2.8287 2.41115 -1.06722 -0.498772 -0.235847
331 4.06087 2.14669 2.48212 -0.600441 -0.45833 -3.08375
792 4.88692 1.68396 2.00717 -0.992723 -0.0454937 -1.12731
2972 5.90576 2.88922 2.96461 0.826235 1.22214 -0.740206
2051 7.35771 2.52592 2.48951 -0.680753 -0.990478 -0.653315
2791 6.24945 1.99826 2.34938 -1.16154 -0.115412 -1.58768
3070 7.51793 1.72592 1.67459 -0.785105 0.139615 1.06073
3569 8.13983 1.7784 2.63412 -0.950464 -0.023047 -1.3177
3950 8.61531 2.71743 2.69192 1.46693 -0.862118 -1.29186
1376 9.67874 2.6747 2.42084 -0.661131 -0.644643 -1.07872
400 9.1768 1.56858 2.21462 1.03014 -2.18397 -0.494715
1388 9.93277 1.88744 2.93439 0.286594 0.769544 0.635803
3330 10.333 2.10986 1.58494 0.964382 -0.359384 0.484422
554 11.3476 2.01035 1.83049 0.204272 -0.965638 -1.19576
585 13.5547 2.15262 1.97366 1.31918 -0.290497 0.350485
2636 14.4678 2.30323 2.74884 0.198045 -0.136298 0.971958
431 15.3497 2.15604 1.97065 -1.99907 -0.293923 -1.22808
3697 17.3245 2.12967 2.15732 -2.06376 1.58253 0.0357692
2683 16.6102 2.88104 1.78854 -0.490304 -0.0800866 -0.970943
1537 16.4621 2.46948 2.70277 -1.01781 -2.89473 -0.703485
3992 1.3435 3.51237 2.23801 0.965041 -0.740241 -0.827135
2979 0.176778 3.89642 2.74926 -0.654924 -0.205853 0.887907
3928 1.41658 4.34967 2.79477 1.30667 1.56836 0.198133
43 2.22183 3.90738 2.04486 -1.04159 -0.550545 -0.785075
262 3.37161 4.24027 2.21617 0.916326 0.400346 0.777804
1690 5.39642 3.24162 1.97513 -0.105664 -0.0313164 0.313198
3160 4.72637 4.28614 2.25339 -1.14923 0.447933 2.34159
123 6.23126 4.44966 2.7599 -0.203716 0.485119 0.917296
2837 6.79044 3.20685 1.78749 0.271679 0.298668 -1.54182
454 6.11044 4.17831 1.77402 -0.112782 0.701199 -0.88773
3048 7.37577 4.33516 2.60064 -0.581758 0.447318 2.07521
774 7.78553 3.43441 2.12292 -0.56587 1.62132 -1.2121
1949 8.90522 3.89121 2.94807 0.279609 0.783306 -0.653948
296 10.049 3.8948 2.59794 1.2159 -0.541527 -0.770741
382 9.19319 3.54374 1.68632 0.290299 -1.15253 1.85143
1840 11.0359 3.90377 2.78507 1.2904 -1.05129 -2.79592
1343 10.8869 3.72439 1.77118 -0.261965 -0.92971 0.641303
2841 11.5429 3.03855 2.43566 0.633465 0.673171 0.446126
2894 12.9541 3.18224 2.01003 -0.254202 -0.226394 -1.11657
177 13.0902 4.40098 2.64997 0.203263 -0.793467 0.165991
3882 11.9265 4.00031 2.07132 -0.783932 -1.54847 -0.313958
1279 14.2813 3.10365 2.09567 0.197403 -1.47676 -1.28129
928 13.9412 4.29916 1.83854 -2.11471 1.13583 1.29961
1082 15.0081 4.13826 2.30884 -0.310985 1.2324 -0.761442
2069 15.4235 3.23193 1.73944 -0.188038 1.80021 -0.850916
3545 15.6858 3.47274 2.78709 1.97384 1.09329 -0.449027
2367 16.244 4.23756 1.84183 -0.1001 -0.430761 1.05982
72 16.7157 3.46907 2.79536 0.796955 -0.318439 1.09306
3230 17.8381 3.08884 2.03669 -0.0910734 -0.0544049 0.990446
2751 17.4304 4.33475 1.83348 -1.15266 -1.14661 1.14528
3720 0.584517 4.84766 2.21495 -1.65353 0.38766 0.245567
3607 2.29279 4.99408 1.62399 1.12046 1.65452 0.27038
1427 2.31409 5.46358 2.60428 -0.113434 1.25458 -0.920355
3648 3.53664 5.40833 2.21669 1.38824 0.328739 -0.862138
1856 4.4031 5.43251 1.61234 1.1279 -0.52471 0.950527
3908 4.42317 5.23839 2.73444 -0.448977 -0.338168 -2.42395
2272 5.40769 5.07731 2.44579 -0.20375 -0.0788608 -0.816718
3835 7.20465 5.84533 1.52539 -0.35781 1.01437 -0.367478
3402 6.51116 5.04334 1.94187 -1.46158 0.300885 -1.08616
395 7.03887 5.36286 2.85184 0.785029 -0.0662615 -2.36313
1698 7.85394 5.21824 1.94909 -1.55227 -0.0843246 0.375359
2947 8.35032 4.68803 2.65557 -0.0433656 -0.733713 0.212689
3851 8.57423 5.63941 2.7934 -1.71467 -1.17288 1.24267
385 8.7818 5.89773 1.73655 -1.53681 1.89423 0.385163
3914 9.11521 4.86194 1.55445 -0.648417 0.803695 1.49603
1731 10.2505 5.33302 2.10753 0.818164 0.353024 -0.187206
622 11.2213 4.86734 2.5886 1.31043 -1.42564 1.08973
3092 12.4341 4.98424 1.89652 -1.86782 -0.504039 -1.93427
1303 12.3608 5.89361 2.34489 0.233812 0.574466 -1.33008
2756 13.2361 5.4058 2.75813 -0.0387608 -0.944265 -0.602802
1217 14.4309 5.35626 2.22562 0.34823 1.94087 -0.425811
3575 14.1567 4.59217 2.90051 0.076149 0.299789 0.645112
1446 13.4412 5.20739 1.73848 -0.270826 -0.925044 0.505491
1432 16.3398 5.27533 1.83158 -0.877467 0.482133 -0.512752
3118 15.2992 5.6594 2.89018 0.320799 0.283992 -0.189283
1211 15.7953 4.69309 2.69932 0.601771 0.39307 0.320062
3752 17.6862 5.63118 1.52299 -0.218409 0.635796 0.272859
1640 17.4433 5.13547 2.47064 0.782033 0.473789 2.0574
102 0.828429 7.18687 1.86301 1.15583 -0.169088 0.677709
3158 0.779742 6.11332 2.45883 -1.23202 0.858272 -0.697018
3613 1.19622 6.93449 2.91221 -0.919152 0.183246 -1.47465
3759 2.95656 6.39948 2.10653 -1.10636 0.807963 0.751861
3336 1.99023 7.14369 2.22325 -1.37984 -1.07955 1.1951
1120 3.90589 6.28126 2.62915 0.346107 0.313694 -1.91596
3374 3.91489 6.67726 1.56622 0.912818 1.72135 -0.240688
2441 5.05182 6.09749 2.28967 -1.74859 0.800361 -0.372889
3211 5.22061 7.15282 1.58484 1.58449 -0.462558 -1.09361
2944 5.70347 6.8948 2.48248 -0.7443 0.273273 -2.35965
307 6.41338 6.10089 2.30255 1.49154 -1.73725 0.871801
771 7.36206 6.55639 2.32864 0.38871 0.46486 0.137099
3371 8.73563 6.5865 2.54377 -0.242897 -2.02298 0.228776
1920 9.52798 7.09738 1.67665 0.795257 0.536341 0.257439
3702 9.70612 6.4545 2.88953 -1.04117 0.138254 0.0756467
234 10.6787 6.29049 1.85559 -0.279064 0.18338 1.20806
211 11.3595 6.71527 2.74561 0.460375 -0.0772437 -0.631497
2403 11.2045 7.12826 1.71021 -2.30326 0.385046 -0.324587
1166 13.2145 6.54287 1.95714 0.0677642 1.05961 0.655743
2881 12.2021 6.55518 1.54882 0.943238 1.62936 0.561932
1631 14.1956 6.7467 2.26329 0.7098 0.687132 0.996259
2163 15.3573 6.85925 2.57087 -1.67832 -0.68436 -0.6334
1321 16.0399 6.51078 1.62886 -1.28506 -0.970049 1.58619
2859 17.7561 6.77187 2.09217 -0.914664 -0.116987 0.998113
3271 16.8991 7.09063 2.67795 -0.339777 -0.839113 -0.383572
108 16.7031 6.01454 2.71638 -0.308712 0.331136 -0.785777
2283 0.270512 8.5383 2.86033 -2.74247 -0.663804 -0.627289
2813 1.27423 8.03698 2.38971 -0.975344 -2.39906 0.609757
929 2.71725 7.72371 2.69837 0.766744 0.707777 0.300273
2064 2.24395 8.51838 2.18273 -0.236251 0.661441 0.121745
3653 3.1456 7.58122 1.53893 -0.364757 1.86193 -1.32603
13 3.55433 8.42549 2.18671 -0.679213 0.424964 0.91598
2804 3.97379 7.52657 2.74613 -0.904866 0.673883 0.0302338
1302 4.57538 7.99784 2.12384 -0.846164 -0.839209 -1.68457
86 5.76693 8.27595 2.48857 1.03524 0.166982 -0.379854
3635 5.66692 8.83152 1.56798 1.22182 1.01383 0.183614
2302 4.96147 8.92959 2.95775 -0.611966 -0.60911 0.715152
3656 7.09529 8.53394 2.35876 0.0465701 -0.617562 -0.917533
175 6.7548 7.52434 2.17868 -1.13572 0.75059 0.278936
98 8.13602 8.73197 2.2399 0.809972 1.27184 0.0185111
3137 7.80832 7.6669 2.45392 2.05105 0.517874 -0.305235
1270 8.58029 7.87524 1.64777 -0.320899 -1.53364 0.135708
3454 10.2466 8.28207 1.74897 -1.28286 0.596883 -1.39429
1704 10.3787 7.70763 2.64243 -0.926323 2.15145 -0.516269
2648 9.17064 7.51179 2.78259 -0.829319 -1.3078 0.762407
3556 9.2752 8.75628 2.15272 0.0256733 0.335332 0.0678172
1957 11.4514 7.96719 2.75645 -1.2229 -0.372568 -0.57811
802 12.3087 7.71642 1.64089 2.06754 0.534936 -1.73585
1241 13.3049 8.63636 1.8806 0.577671 -0.70136 0.209442
1276 12.3519 8.90995 2.24033 0.792106 -1.52126 -0.290109
360 13.5202 7.62719 2.24249 1.21252 0.247191 -0.798675
2389 14.662 7.77133 1.85708 -0.827029 0.933374 0.255368
3386 14.8432 8.64738 2.36072 -0.170688 0.538367 0.41034
1016 13.5985 8.64614 2.79114 -0.126643 0.110241 -0.190943
1157 15.6237 8.66528 1.53701 1.5844 0.327016 1.22757
1770 15.6378 7.82673 2.23613 0.0194401 -0.563458 0.414617
2502 16.5228 8.51424 2.07009 2.1104 -0.796771 -0.864096
1869 17.3516 7.85712 2.12952 0.219789 0.580438 0.337938
2572 16.4368 7.51196 1.56284 -1.70613 -0.388617 1.87387
2532 0.0711249 1.01447 3.9316 0.142708 -0.104413 -0.229551
3952 1.23537 0.357296 3.5168 -2.1975 -0.952994 0.00461621
2854 2.10949 0.875298 3.23031 1.03915 1.33807 -0.375633
3740 2.46271 1.42754 4.25173 -0.209248 -1.1988 0.128514
3175 3.30173 0.859718 3.40152 0.693909 -0.303765 2.07996
973 3.31209 0.532448 4.38033 -1.06179 0.280433 0.573644
2326 4.31574 1.23346 3.22926 0.542735 0.6672 -1.28436
443 5.35196 1.1005 4.18763 0.718591 -0.872322 -1.30541
285 6.94372 0.957857 4.15691 -0.81957 -0.616266 -1.54648
1506 7.81534 0.938505 3.32835 -0.921533 -1.12701 0.401763
3615 8.48483 0.725388 4.25827 -0.683038 0.610276 0.34831
3923 7.57837 0.12994 4.36064 -0.364219 1.34718 -0.495306
1361 9.00028 0.0788526 3.69827 0.830678 0.824407 -0.260965
2105 9.03971 1.14225 3.34572 0.51487 0.592831 1.33254
2540 9.61448 0.869705 4.19353 0.197316 1.76501 -0.253767
415 10.646 0.600428 4.06067 1.10952 -0.476729 -1.15476
2321 11.8917 1.29309 3.62939 1.1242 0.713619 0.600639
3214 11.4607 0.106708 3.36091 0.657255 0.0983035 -0.0621185
2800 12.5881 0.510754 3.51218 -0.363939 -0.262147 0.0942694
1650 14.4008 0.0802945 3.61492 -1.11576 1.48336 -0.495115
3549 14.6747 1.38225 3.95942 0.805148 0.102556 1.07886
1170 13.6248 1.09332 4.17788 -1.05568 -0.661194 0.515762
608 16.2959 0.427767 3.22159 0.124842 1.64486 -2.0727
682 15.0945 1.43446 3.06788 0.395053 0.242326 0.746918
709 17.3718 0.361975 3.263 -0.178358 0.86695 1.40903
1638 0.851378 1.57228 4.37684 0.124817 1.52112 1.51515
3839 0.378433 2.54812 4.08315 -0.274776 -0.495286 -1.33636
1907 1.5127 2.20416 3.64734 0.580387 1.15437 0.187557
600 2.54594 2.52557 4.11888 0.140738 -1.61173 0.272489
979 3.44625 2.56896 3.47096 0.157829 -0.962644 -0.554775
196 4.37559 2.96952 3.04778 -0.509894 -0.0831115 1.24766
3212 3.75197 1.50796 4.19554 0.459659 -0.485069 1.20319
2495 5.86318 1.97155 3.70737 0.16571 -1.48665 -0.215251
652 4.6568 2.20972 3.79365 1.23501 0.465702 1.28728
3363 6.88773 2.56973 4.23999 2.0701 -1.20631 1.28514
424 6.98269 2.01334 3.30047 1.10995 -0.231487 0.739091
810 8.63527 2.40319 3.75169 -1.16538 1.83983 -0.497338
1290 7.92133 1.61836 4.28359 -1.04169 -0.210257 0.615305
1994 9.56466 2.81485 3.60286 1.20219 -1.06225 0.0972182
2750 9.87823 1.84144 4.24765 0.543316 0.296265 -1.35141
1555 11.7147 2.29239 4.21496 0.468794 -0.0294661 1.04232
3502 10.6853 2.68752 3.91929 -1.63928 0.350756 0.170292
3130 11.0499 2.07821 3.0547 0.794415 -0.671362 1.06688
1773 12.1903 2.54949 3.38425 1.10104 -0.174247 0.360761
790 12.9858 2.6722 4.1325 0.544296 0.823244 0.0743232
3001 13.2995 2.08771 3.14151 -0.747972 0.485225 0.326303
2593 12.527 1.59817 4.39402 -1.12087 0.833355 -0.572565
1539 14.4365 2.41808 3.8637 -0.368961 -1.93051 0.0501803
773 16.3442 1.51115 3.17372 -0.0322563 -0.578537 -0.535379
3930 15.6125 2.1319 3.82016 0.88407 1.3323 -1.69155
1922 17.5393 1.61579 3.22816 -0.370174 2.11123 -0.710093
3955 17.0232 1.67848 4.10964 1.89213 0.24417 0.58004
1175 17.7242 2.91052 3.10494 -1.27139 -0.127176 -1.47423
3424 0.802366 3.4932 3.4613 -0.93363 -0.459736 -0.260213
2138 0.485613 4.03951 4.24022 0.68192 -2.20896 -2.46904
3091 1.56502 3.17606 4.09723 -0.798338 -0.311861 -0.558045
694 1.99274 3.86059 3.53601 1.81079 1.05136 0.596277
239 2.59865 3.51848 4.35964 1.69268 1.22627 -0.583219
786 4.09375 4.15841 3.2868 -0.470088 -0.422312 -1.27399
3664 3.09646 3.57163 3.26467 0.902128 -0.914921 0.244888
2803 3.38837 4.24574 4.26034 0.345658 -1.35331 -1.05249
3084 5.77276 4.09588 4.38518 0.8607 1.41556 -0.990746
529 4.6325 3.27904 4.14641 -0.110466 1.77804 1.49233
3606 6.70104 3.48732 3.2225 0.742828 1.19151 1.12435
3861 6.87196 4.42797 4.30322 0.0293372 -1.87379 -0.0547247
3173 5.9956 3.04275 4.04823 0.425785 0.491844 -0.943286
3724 7.92295 3.46866 3.33189 -0.943216 -2.57818 1.126
464 8.13234 4.38575 3.8344 0.186345 -0.146396 0.924754
1024 8.76138 3.44706 4.0541 -0.824946 -0.209595 0.00952234
166 10.4074 3.07142 3.01308 -0.390248 0.1208 -2.01237
2793 10.338 3.78983 3.67514 -0.0674802 1.03215 -0.17844
441 11.2939 3.35134 3.61157 -1.14046 0.969431 -0.22971
678 11.2814 4.45027 3.73723 0.141114 -0.884653 -2.41517
2142 13.3681 3.20961 3.07475 0.227803 0.0935341 1.11809
748 12.2684 3.51302 4.01682 -0.584257 0.800242 1.98153
2014 13.3733 4.46043 3.61562 0.0426519 -0.299682 1.0329
3332 14.3665 3.51088 3.31096 0.285094 0.176543 0.823876
273 14.1445 4.19711 4.28122 -0.163829 0.39612 -0.0978179
3551 16.2868 3.0583 3.65521 1.12768 0.274836 0.455293
2833 15.283 3.24728 3.88312 -0.853663 0.3105 1.68633
1096 15.7702 4.18798 3.82574 0.944124 -0.737429 -1.76584
1437 17.5795 3.8113 3.63123 1.02767 -1.10883 0.992445
681 0.167313 4.75382 3.23374 -0.163371 0.0121685 1.22728
1282 1.07145 5.5848 3.3357 -1.32487 -0.435921 -1.68911
3637 1.27551 4.77399 4.24384 0.788068 1.10369 1.02932
1809 0.133066 5.07138 4.35812 1.05837 -1.34829 -0.617906
908 2.46502 4.89538 3.98265 -0.327617 0.414742 1.50466
948 1.86898 5.75395 4.15043 -0.51776 -1.24896 0.541615
3009 4.21039 5.02419 3.79435 -0.934645 -0.668287 0.965183
1364 3.25433 5.62663 3.60929 0.741397 -0.874662 2.10511
2620 3.0544 4.79796 2.98303 0.912294 -1.04176 0.56386
763 5.19554 4.5096 3.28901 1.02286 -0.065046 -0.525773
3166 5.28579 5.61691 3.36796 1.90285 -0.13896 0.703473
1761 5.2718 5.01611 4.28108 0.926061 -1.38182 -1.45675
1442 7.17464 5.439 4.43435 0.411179 -0.330731 -0.481374
3975 6.347 5.27976 3.59238 -1.13401 1.35172 0.52548
3841 8.55099 5.93278 3.9653 0.466187 -0.469491 1.14013
1289 9.3725 4.77539 3.02492 -0.755699 -1.18422 0.420862
2768 9.67142 5.72999 3.50674 0.840605 0.0434627 1.20334
3857 9.19898 4.63554 4.12216 -0.317853 1.35972 -0.131444
3388 10.6281 5.94986 3.19473 0.633634 -0.42812 0.935872
1667 11.2014 5.53126 4.27105 0.457041 -0.0635405 0.87919
1409 11.827 5.7937 3.25378 0.383571 -1.33741 0.540326
3190 10.4955 5.02392 3.66387 -0.96853 -0.441225 0.105175
3852 12.7895 5.88214 3.74877 0.581016 0.274446 1.3357
3109 12.3286 4.86966 3.13819 1.94236 -0.205112 -1.262
827 12.4323 4.71246 4.1571 0.778155 -0.229855 -0.802642
250 14.2149 5.89241 3.17945 2.16164 -0.43848 0.203345
3107 14.1177 5.38873 4.06661 1.16775 0.494556 0.574878
586 14.9829 4.80447 3.65174 -0.229564 0.576184 0.490302
135 16.0822 5.90945 3.62405 -0.936916 -0.376683 -0.455485
6 15.1026 5.89753 4.44398 0.613476 0.407859 0.323746
2078 17.0948 5.46325 3.82193 0.234029 0.416004 -0.268839
1903 16.7351 4.48832 3.21596 -0.33803 -0.607685 -0.760101
3571 0.168442 7.34109 2.99169 0.729679 0.0102424 1.22848
2220 0.905823 6.16265 4.25005 0.333467 1.14158 -0.854001
2313 0.0968567 6.87744 3.98705 -0.00425273 -0.424434 -1.33352
2746 2.0169 7.33642 3.55174 -0.873039 0.4191 1.08367
2788 3.12051 6.60838 3.35654 0.594146 1.63066 1.1124
720 3.83507 7.3793 3.84352 0.307544 0.669542 -0.20908
2198 4.28854 6.05343 3.72428 -0.180635 -0.426948 1.31973
2613 4.97535 7.16904 3.24888 0.928492 0.0568738 -1.79411
1786 6.40193 6.35608 3.42777 0.700604 0.592686 -1.23892
2025 7.42352 6.35701 3.81748 -0.00279693 -1.55956 -0.259519
1647 7.16743 7.17838 3.23242 0.392017 0.304037 -0.0640658
428 6.82634 7.21964 4.20066 1.65918 -1.61637 0.414549
232 8.19629 6.96705 3.36206 0.259475 -0.375575 0.583255
1124 10.2881 6.84237 4.14452 -0.89025 0.71155 1.38
922 9.21731 6.86703 3.76652 -0.19982 -0.383859 1.15802
1913 11.9188 7.14583 3.9849 -0.140201 0.0199175 1.62754
321 12.389 6.77904 3.15034 1.32579 0.341132 1.06107
879 13.0108 6.98359 4.01661 1.71037 -0.920727 0.43444
2236 14.5299 6.78689 3.46765 1.52592 0.339711 1.20915
1340 13.4893 6.56309 3.0921 0.592038 0.679954 -0.869928
125 15.7993 7.10214 3.58884 -0.343352 -0.860621 -0.160951
2524 17.6558 6.28105 3.10711 -0.710819 -0.0541771 -0.510337
377 16.8796 6.59704 3.67298 1.98541 -1.80487 0.788875
2709 0.878024 7.81857 3.52691 -1.2024 0.296157 -0.708169
2685 0.888185 8.81792 3.7582 0.767481 0.621576 -0.392326
3920 1.90488 8.32415 3.42595 2.12328 1.74647 -0.953433
3859 3.0784 8.70493 3.08799 0.274999 1.25858 -0.87653
242 3.49099 8.36492 3.9454 -1.16052 0.990631 2.0068
359 5.42797 8.34296 3.94942 -0.967326 -0.358178 0.204115
7 6.56781 8.38059 3.30327 1.00809 -0.106701 0.695273
1297 6.03315 7.48767 3.33977 -0.19614 -0.0991773 -1.04011
798 7.15745 8.54082 4.30669 1.00007 1.66322 0.0706298
750 8.90109 7.8018 4.27469 -1.40121 -1.39487 -1.06819
2291 8.41618 8.65197 3.98551 -0.462738 1.08412 -0.459066
1544 7.72901 8.05243 3.47864 0.519813 0.657064 0.303577
2890 9.83897 7.82094 3.69095 0.484132 0.0212878 0.296332
1251 10.704 8.66573 3.21527 -0.463668 -0.144037 0.803094
70 10.7755 7.58072 3.54171 0.491021 -1.66867 0.0147068
3192 10.4338 8.4666 4.24847 -0.210531 0.499716 0.0811267
3207 12.051 8.28051 3.83734 1.86762 -1.01202 -0.390104
3008 12.7187 7.84909 3.20743 -0.0212863 -2.01646 -0.11976
3460 13.2436 7.95046 4.40096 1.75564 0.478293 1.07095
2033 13.4184 8.79973 3.7779 -0.0675555 0.39016 -0.251969
718 14.8122 7.78601 3.09171 -1.34225 1.30501 0.0236675
3765 14.1835 8.54589 4.35734 0.699121 -1.83939 -1.18804
3944 14.6341 8.82268 3.36978 -0.203409 -0.422015 0.730302
1122 15.184 8.13269 4.1335 0.509281 -0.49706 0.244229
1457 16.3239 8.00984 3.25461 -0.92273 -0.43586 -0.480239
1165 15.731 8.89688 3.00412 -0.586019 -2.71168 2.22044
247 17.5971 8.0522 3.54622 -1.40337 2.18918 -0.61716
355 16.4689 8.71676 4.07553 1.365 0.847563 2.10727
1844 16.9441 8.79001 2.99984 1.2654 0.00849162 -0.718274
498 0.966114 1.21887 5.41839 1.07375 -0.518921 -0.238713
1589 1.88166 0.576483 5.70138 -0.779652 0.251292 0.225437
2818 2.83567 1.13581 5.39212 0.791813 0.0376166 -0.301877
436 4.12887 0.966931 5.08734 -0.00877343 -0.279279 -1.85815
3025 5.53179 0.657248 5.7332 -0.685044 -0.467449 1.4614
2073 6.52579 0.474573 5.03594 1.36996 -2.6431 0.617994
3627 7.40038 1.20666 5.16878 0.642763 -1.3312 -0.416504
1284 6.40712 1.4658 5.30265 -1.56114 0.837163 -0.834874
2705 8.24281 0.158284 5.16393 -0.30009 -0.880535 -1.56257
217 8.19067 1.34839 5.8039 1.92696 1.24984 -0.819392
2827 9.07348 0.788634 5.10856 0.22109 1.68158 0.709567
1782 10.2071 1.01166 4.96904 0.680844 -1.97688 -0.265172
453 11.6883 0.114813 5.91512 -0.287533 1.16029 -1.06564
3015 10.527 0.288075 5.67037 -1.50209 -1.50298 -0.526019
2996 11.1938 1.12909 5.5723 0.422446 -0.0465028 0.826511
500 11.5641 1.14677 4.58905 -0.243708 1.47756 -0.211826
405 12.7174 0.57456 4.63446 -0.474992 -0.375968 -0.259091
3850 12.1094 0.944185 5.38962 -0.454275 -0.698935 2.37503
3939 14.3515 0.86781 4.92068 -0.793335 -0.0252446 0.100094
337 13.5062 0.820335 5.53013 -0.560128 -0.356602 -0.788278
3155 14.5612 0.0703525 5.62039 -0.833178 1.235 -0.422911
822 13.8242 0.0983243 4.60637 0.0288852 0.812537 0.839465
1135 16.0841 0.6832 4.60308 -0.951182 0.496245 1.72873
2953 17.4583 0.159495 5.33783 -0.581125 0.380823 0.667353
1385 0.0570718 2.79294 5.55742 1.11077 -0.332593 1.40352