ITEM: TIMESTEP
67000
ITEM: NUMBER OF ATOMS
4000
ITEM: BOX BOUNDS pp pp pp
0.0000000000000000e+00 1.7878070701931353e+01
0.0000000000000000e+00 1.7878070701931353e+01
0.0000000000000000e+00 1.7878070701931353e+01
ITEM: ATOMS id x y z vx vy vz
3424 1.07311 0.182428 1.45744 0.689037 -1.71462 0.0572832
3103 0.973372 1.0213 0.165851 1.08631 -1.29173 -1.09859
2191 2.91159 1.09457 0.777556 0.366717 0.406195 -0.0655167
530 2.03036 0.325089 0.927741 0.454799 0.401702 -0.725195
2320 1.57204 1.15296 1.47856 -1.61654 1.23234 -0.0312806
640 4.10851 0.0650049 1.35895 1.49318 -0.011098 2.24734
1333 4.88266 1.07555 0.720286 0.108506 0.451546 -0.856059
120 5.73708 0.0165207 1.43131 -0.124657 1.92865 -1.30631
846 5.76264 0.124593 0.115656 2.01625 -0.600625 -0.0162845
1054 6.98761 0.156227 0.86969 0.61414 -0.946995 0.922901
3284 6.0899 1.06296 1.04526 -0.74155 -0.937897 -0.268862
622 8.41928 0.00950545 0.687897 -1.51414 -0.451674 2.52562
2823 7.71295 0.708705 0.218326 0.54453 -1.11937 -0.147658
3333 8.31454 1.31038 0.828315 0.126462 0.445722 -0.538243
2874 9.39451 0.290297 0.468942 -1.28553 -0.135054 -0.206062
2321 10.2504 0.905121 0.634852 -0.871851 -0.151256 -0.763485
819 11.8719 1.20658 0.932189 0.686929 0.415833 -0.200155
690 11.2315 0.839115 0.180626 0.252078 0.910278 -0.14253
1069 13.4602 0.469567 0.875975 1.04568 -2.13495 0.309358
2396 13.9372 1.35254 0.0355753 -0.701386 -0.427817 -0.315528
3300 15.0774 0.671701 0.872758 1.34785 -0.699441 -2.02581
2065 16.229 0.102707 1.25204 0.75966 -1.46299 -0.733958
1559 15.9669 0.227645 0.0449369 1.25861 -1.48339 -0.981432
1393 17.7622 0.0634538 0.493104 -0.406263 -1.78093 0.291247
2433 17.5793 1.22876 1.27741 -1.10323 0.89095 -0.715763
431 16.754 0.790839 0.657917 2.0567 -0.0581899 1.63413
1452 0.743773 1.82498 0.883907 0.689678 -0.381566 0.826085
181 0.48297 2.76902 0.550819 -0.73237 -0.199931 -0.594498
1060 0.000217839 2.28012 1.38357 -1.18463 -0.430624 -0.496767
2359 1.94127 1.49343 0.572247 -1.03577 -0.437856 -0.00985625
156 2.96721 2.13071 0.724874 1.80795 -0.187096 0.277357
3624 4.00187 2.06685 0.796604 1.20073 0.394606 0.588009
464 5.78355 2.24382 0.9148 -0.956824 -1.69016 -1.36941
3363 4.77127 2.68721 0.737651 -0.431999 -1.17295 -0.458197
1588 6.54476 2.46816 0.136939 0.836143 -1.75296 0.151602
3559 7.13447 1.4902 1.00353 0.564489 0.629271 -0.346199
2374 8.16251 2.1601 0.348092 -1.62322 0.0916516 -0.90332
2852 9.05109 1.85304 1.26824 0.133021 0.315531 0.806457
177 11.8954 2.3938 1.02324 1.3288 -2.00125 -0.329005
2662 12.8367 2.90057 0.707095 0.401173 0.220522 -2.17938
3201 12.8506 1.61112 0.62478 -1.00796 0.318538 -0.199915
2154 13.5633 2.22762 0.281908 -0.535521 -1.14747 2.06268
3762 14.5336 2.94516 0.998568 0.843157 -0.810807 1.00278
2032 14.5449 1.54543 1.07627 1.45427 -0.391199 -1.45926
952 14.6132 2.15636 0.145842 2.16705 -0.593552 0.170347
1771 13.5574 1.5361 1.34684 -1.09945 -1.96587 0.338308
3419 16.155 1.58046 1.05342 0.569043 1.73303 -0.667018
3610 15.6184 1.8016 0.215965 -1.77737 -0.232668 0.211642
354 15.2289 2.3563 1.23719 0.675146 0.463283 0.00158131
714 17.2663 2.05095 0.550343 -0.713066 0.100287 -1.07559
3721 16.5344 2.9336 1.01511 -1.01172 0.612324 1.52646
1537 0.135871 3.44452 1.29203 0.768935 -0.762848 -0.498146
3129 0.140368 3.78602 0.247593 0.00070062 0.420399 -0.109849
1031 1.14697 3.45525 0.837727 0.306174 2.28722 -0.505279
2532 2.59243 3.19663 1.16019 2.33738 0.241686 0.975963
3398 2.46628 4.09814 0.611275 0.687584 -0.319734 2.23953
2367 1.53126 4.34 0.202587 0.701343 -0.793975 -0.771507
465 3.32869 4.19112 1.23164 0.752074 0.432616 -0.141445
2495 3.77991 3.19559 0.351285 0.258135 2.31845 0.380829
2804 4.41355 4.36791 0.105995 -0.434127 2.107 -0.283922
1000 5.79491 4.01645 0.0731434 0.233023 0.181219 -0.0119332
2837 5.07895 3.79999 0.73037 -0.514243 -0.995824 -2.17638
361 6.3491 3.33536 0.677429 0.575281 -0.719032 -0.694982
3911 7.30042 4.00939 0.0608098 -0.191132 -1.67406 -0.371439
245 8.50689 3.54267 1.08449 -0.632229 0.50379 0.277944
1418 7.69529 2.99502 1.28307 -0.163383 0.774798 0.846087
3402 7.48128 3.93733 1.1447 2.73942 2.36011 0.554351
1149 9.84152 3.35892 0.548757 2.54752 -0.703454 0.372754
1617 10.3438 3.90921 1.30396 -0.992131 1.74209 1.33871
501 10.2675 4.33551 0.170452 -0.11592 -1.39378 -0.181781
2403 9.41847 4.21347 0.814319 0.582957 0.184866 -1.04982
1131 11.1486 3.54942 0.27562 -1.50162 -1.31117 -2.22631
827 12.1107 4.22132 0.774407 -0.366229 -0.366589 -0.576845
1731 12.4808 3.6021 1.48315 0.314809 -0.4726 1.31467
337 13.6572 3.64447 0.760139 0.105049 0.117344 -1.09419
125 14.6247 4.07972 0.705475 -0.448858 -1.20193 0.875064
1950 15.4482 3.35887 0.739937 1.04804 -0.445309 1.74566
1432 16.1579 3.81508 1.45133 -1.29756 -0.361297 1.43952
2026 17.2032 3.9769 0.848301 -0.549671 1.90137 -0.375211
3832 0.854233 5.07944 1.26462 -0.609076 0.214511 0.920223
2147 0.675701 4.86122 0.10788 0.623452 -0.871227 0.70688
476 1.97656 5.17612 0.728432 -0.566552 1.47654 1.27562
694 3.21163 5.20571 0.950607 0.162073 -0.0499316 0.388249
1747 4.29021 5.92752 0.249227 0.303762 0.378773 -0.107291
957 5.06803 5.32754 1.12007 -0.428563 -0.124774 -0.877633
3173 5.85688 4.50672 1.21355 2.22499 0.391836 -0.0794536
43 5.61717 4.97126 0.281957 0.176972 0.0304332 1.79782
3136 6.84814 4.70191 0.669218 -1.04909 -1.11245 1.79053
1111 6.17385 5.36599 1.39028 1.1164 0.139361 0.201136
1676 7.58876 5.79407 0.12151 0.37313 0.289721 0.653183
3851 8.65299 5.69993 0.258211 0.858494 0.911434 -0.0545248
1820 7.90709 4.78049 0.237055 0.799319 0.643342 0.633996
3809 7.59387 5.35412 1.20801 -0.753838 1.1985 -0.844212
1840 9.64338 5.23674 0.774867 -0.340945 0.858464 -0.238332
678 10.6533 5.34252 0.158797 1.07047 0.571457 0.754191
2205 11.3682 4.89356 1.22062 0.513344 -0.141207 0.593077
2142 13.0753 4.66188 0.829327 -1.12339 1.05019 -0.58485
758 14.0233 5.45794 0.931694 2.25637 -1.84795 0.644135
1640 15.2901 5.05193 0.725269 -0.618955 -1.19105 -0.0290864
110 17.7104 4.82367 0.589708 0.06042 1.09739 -0.988145
577 17.6178 5.84519 1.00958 -1.4791 -1.01911 -0.20083
2109 16.5803 4.71079 0.220062 -0.424954 0.318587 -0.492511
2316 16.8613 5.36664 1.40855 2.62368 -0.854222 -1.36969
1198 1.47872 7.12852 0.798963 1.34711 -0.524114 -1.18358
3591 1.03568 6.09571 0.592299 -0.886937 1.35448 0.896232
2622 0.199398 6.87017 0.0453569 0.852803 -1.66948 -0.809459
2783 0.451923 6.85384 1.06759 -0.214969 0.0500737 -1.15917
887 2.34238 6.55135 0.831683 -0.838539 -2.03942 1.11615
2302 4.12081 6.64981 1.16268 -0.388499 -0.118249 0.986735
3940 5.13669 6.88082 1.00833 0.615816 -0.130156 0.498029
3607 5.4366 6.09335 0.441304 -0.0791033 -0.622995 0.576442
892 7.38055 7.10712 0.12066 -0.56473 -0.179636 -1.60922
1789 6.75308 6.62734 0.718573 0.141494 1.1481 0.5472
3702 8.38616 6.82059 0.430534 1.06562 1.08852 -0.978119
1217 10.3486 5.99368 0.990998 -1.07602 0.332354 -0.18455
3190 9.3169 6.28533 0.955476 -0.0959739 -1.36956 0.856751
2183 9.48826 6.90383 0.123363 0.62393 1.4898 0.452714
3580 11.2489 6.52272 1.29162 -1.47259 -0.233683 0.258001
228 10.9404 6.7223 0.188077 0.183393 -0.103436 0.687531
1514 13.2997 6.85452 0.350244 -0.359081 -0.70386 -1.03818
77 12.0429 6.84702 0.215774 -0.293295 -0.146559 1.2238
2634 12.7355 6.02115 0.992624 -0.541564 0.926918 -1.09921
3502 12.5791 7.21553 1.0323 0.946477 0.277151 0.248994
2831 14.3215 6.51847 0.839675 -0.759809 1.6201 0.27328
3668 15.2172 6.07972 0.317036 -0.0724204 0.468202 0.336751
1157 15.3698 7.25328 0.645578 -1.63062 0.29204 1.01983
2723 16.9039 6.19935 0.306697 -1.41866 -0.15698 -0.43605
2542 16.6271 6.68322 1.44546 1.34449 -0.131348 -0.551475
1059 16.9975 7.37673 0.68457 0.894237 0.0279161 0.282269
3798 0.22921 7.98971 0.397406 0.039087 -0.779393 0.455754
1488 0.798637 7.81753 1.44118 0.380132 -2.14512 -0.516511
1427 2.40573 8.80851 0.594352 0.0458898 -0.489779 1.47929
3667 1.65689 8.44169 1.1841 0.802987 0.326001 -0.192522
276 3.47836 8.82818 0.903697 0.873711 0.760905 0.572609
1437 4.34019 8.62691 0.348664 1.08638 0.42661 -0.797738
582 3.24345 7.80294 0.492577 -2.06885 -1.7933 -1.23325
702 4.32964 7.63542 1.4679 0.675853 0.969707 -1.26176
2089 4.79578 7.63471 0.285188 1.76283 -1.90104 -0.67031
2747 5.85866 7.62191 0.53378 -1.26518 -0.634884 0.498
1270 5.8409 8.83598 0.539771 0.0512363 -1.13301 0.449518
3556 6.95376 7.78977 0.776004 2.17036 1.04844 1.69697
1396 7.56628 8.63298 1.17521 1.68499 1.60622 0.864224
2336 8.47314 8.33504 0.317979 -2.03249 0.46427 -0.424632
210 8.09582 7.62327 1.04121 0.309185 0.630897 0.563651
1241 9.18509 7.57982 0.955306 0.370144 1.84321 -0.418329
3873 9.50123 8.37111 0.31513 -0.492768 -0.78089 -0.119198
3137 8.99525 8.47038 1.41746 0.737747 -1.24263 -0.0562023
1287 10.2112 7.52866 0.589463 0.398118 -0.684308 0.108273
3876 11.3397 7.49821 0.834684 -1.82742 -0.531808 0.50421
663 11.8016 8.33178 0.193858 1.14682 0.130507 -0.123575
89 10.839 8.679 0.884252 0.883863 0.228787 0.125766
1392 12.8912 8.26993 0.343415 -2.01165 0.0103617 -1.0049
444 13.939 8.59851 0.270649 2.54713 -0.570916 0.595758
222 13.5269 7.80183 0.978316 1.33995 -1.01159 -2.29919
930 14.3891 7.45563 1.48271 -0.153648 -0.168382 0.622518
2572 16.0166 8.13196 0.510832 -0.456749 -0.768607 0.0241252
3666 14.902 8.18373 0.8067 0.237425 0.873299 1.85587
1808 17.6079 8.41011 1.41087 -2.34873 -1.02007 -0.174046
1386 1.30633 0.676746 2.48238 1.41324 -1.18275 0.536056
3785 0.695919 1.38462 1.93772 -0.20668 0.427516 2.5456
186 2.39341 0.451995 1.79659 -0.812871 1.3522 -1.10942
475 2.90829 0.978835 2.73925 -1.04209 0.0723704 -0.101175
371 4.38963 0.990566 2.24335 0.214883 -0.977311 -0.288173
2432 3.42863 0.691152 1.7881 -1.1253 1.06593 1.43056
1589 4.10135 0.018091 2.56445 0.591361 1.75726 1.40528
812 5.43944 0.872554 1.84129 0.281589 -0.421998 0.315691
2042 5.25964 0.258344 2.7525 1.33396 -0.30519 -0.0422128
2173 7.12273 0.657697 1.6626 -1.09381 0.379435 1.16875
378 6.51465 0.10714 2.46723 -0.232642 1.99499 0.39669
3263 8.67195 0.575574 1.62848 -0.50854 -0.707751 0.24232
1694 8.04396 1.00364 2.54524 1.57692 0.348336 0.526406
1610 9.92824 1.31272 2.55324 0.513242 -1.57203 0.972625
885 9.2115 0.5786 2.77216 -0.871066 1.49216 0.215933
400 9.78724 0.414568 1.52661 -0.283543 -1.19982 -0.715313
1285 11.7672 0.388641 2.77431 -0.835069 -0.0692291 0.275585
2995 10.9422 1.29889 2.4632 -2.06558 -1.05699 0.797386
3638 11.1172 0.901362 1.5221 0.184202 1.12839 0.437684
2861 11.9734 0.258651 1.65482 -1.74259 -2.33597 -0.282473
3836 13.0484 0.722948 1.95053 -0.529255 -0.18843 0.245475
3443 12.1995 1.39068 2.14595 -0.825109 0.224291 0.350531
3777 14.0292 1.14498 2.21389 -1.43311 -0.0539323 1.54395
1539 13.5382 0.508172 2.86748 -0.584975 0.169952 0.216802
3600 15.1175 1.18019 1.99094 -0.281155 2.04671 0.523802
1931 16.0717 1.11745 2.77145 -0.937381 -0.294392 1.29507
1803 15.7306 0.104135 2.1392 -0.328762 -2.0536 -0.721199
3116 16.7268 0.331079 2.66616 -0.997234 0.24458 1.53318
3361 17.4987 0.737221 2.32512 -0.902385 0.789835 -1.23236
1172 1.12395 2.41869 1.80997 -0.1982 -0.25899 1.9627
2751 1.72226 1.73793 2.34487 -1.05824 -0.987587 -0.744967
1690 2.78124 2.83932 2.1041 0.181768 0.401414 1.22041
3967 2.57664 1.63273 1.85815 -1.34684 -0.354627 0.0613274
3355 2.78907 2.0402 2.92357 2.03939 0.146895 1.41718
331 3.67966 2.89684 2.81187 -0.660924 -1.69896 -0.850979
2393 3.59915 1.85189 2.0953 -0.425081 -0.798105 -0.113839
2051 4.95828 1.70003 1.594 0.510338 -0.444643 -1.05848
792 5.31021 1.49321 2.60825 -1.17657 1.3342 -1.16542
1934 4.61201 2.77485 2.28436 -1.10195 0.938859 -0.193477
1459 6.35399 1.49662 1.92419 -1.25051 1.32117 0.516017
2155 6.56732 2.16048 2.66658 0.965045 0.550714 0.433324
564 6.45401 2.58932 1.61151 -1.95315 -0.991008 -0.194182
2200 7.78177 1.96377 1.64166 -0.674541 -0.703394 0.802013
774 8.73512 1.69473 2.28522 0.563144 -0.0865701 -2.0731
3975 7.60423 1.93126 2.97586 -0.149888 -0.368434 0.194345
3145 8.57191 2.80847 2.47991 -1.96938 -0.294245 0.178391
3882 10.1383 1.8165 1.50099 -0.956309 -0.402482 -0.943063
3569 9.63952 2.41143 2.9374 1.79695 -0.0468939 -0.284939
1289 11.6375 2.39867 2.25228 0.455824 -0.0637787 0.067242
2665 10.8154 2.31335 2.83453 -0.158996 1.43834 1.03296
273 12.8052 2.37028 1.6309 -0.354632 1.51807 -0.210673
2956 12.6616 2.39116 2.6583 -1.42939 0.152637 0.529387
3842 14.6351 1.64834 2.83858 -2.319 0.157872 1.70693
91 14.0251 2.32214 1.94074 -0.917018 -0.919564 -1.44669
2784 14.4548 2.97226 2.64746 0.908437 0.244094 0.458457
2345 15.6247 2.42907 2.90081 0.543714 -1.12416 1.44422
2683 17.4866 2.66687 2.33995 2.39926 0.635106 0.0725377
349 16.5707 1.57955 1.96343 1.89105 0.965934 -1.28537
72 16.6475 2.22239 2.8982 -0.295013 -0.516556 -0.60948
1014 1.40267 4.02712 2.96647 0.282934 0.930971 0.0229849
3637 0.0414724 3.978 2.40505 -0.788753 -1.39159 -0.609726
2452 0.625582 3.12979 2.44394 -0.56917 -0.0261756 -2.34043
2979 1.05321 4.13205 1.64758 0.113518 -1.38209 1.50036
1547 2.82519 3.72526 2.68941 -1.42247 -0.500823 -0.498873
2028 1.63961 3.29529 1.93117 -1.2 0.35787 0.62673
1310 2.13823 4.19968 1.89977 0.5224 0.272999 -0.375254
2803 3.89858 3.47167 1.84774 -0.539645 -1.19072 -1.04425
3330 5.45463 3.36743 1.62964 -0.311741 -0.577758 2.35753
2629 5.48317 3.18147 2.73245 -0.135675 -0.194216 -1.08973
3908 5.07645 4.40727 2.12379 1.1764 0.302239 -0.624063
1698 5.95259 4.18115 2.47706 -0.934779 0.0600046 0.0444463
2972 7.30065 3.18842 2.25207 -0.0303878 2.29806 -1.35172
1343 6.49806 3.72727 1.6637 -0.0117603 0.677002 0.181113
3041 7.31283 4.44505 2.22887 -1.05504 1.8159 0.586944
1124 8.33188 3.93539 2.35137 0.321624 2.34562 -1.70173
1376 9.4926 3.65823 2.64769 1.42197 -0.260811 0.0948061
1303 10.4265 2.99448 2.04825 -0.242575 -0.476842 0.443329
3857 9.69257 4.46513 1.77017 -0.694295 1.41554 -0.158046
2331 11.8363 4.26126 2.20575 -1.7397 -0.0562302 -2.54094
1388 10.4402 3.80484 2.71235 1.57155 -2.55721 1.42046
2841 11.4059 3.40238 1.66511 -1.35711 0.507623 0.0593371
859 11.7779 3.32488 2.65658 0.69911 1.97271 -1.52807
1953 13.3809 4.2612 1.66853 -0.607402 0.4001 -1.23676
1237 13.1127 4.0206 2.81744 1.73461 0.914297 -1.56263
3086 13.4239 3.16833 2.18707 0.477697 0.328558 1.08587
847 14.2634 3.64134 1.6402 -0.957273 0.399168 1.23818
608 14.3824 4.11073 2.65628 0.110753 0.288637 0.974762
1211 15.2227 3.31868 1.85118 -0.433445 1.16136 -0.0945398
3589 16.3727 4.34568 2.39106 1.12793 -0.283469 0.146117
3154 16.0724 3.38652 2.79368 -0.0816879 -0.778529 -1.22556
2069 17.0952 3.55586 1.96833 0.592093 0.220895 1.66807
2563 0.635878 4.95961 2.66152 2.37976 -0.575091 -0.684803
595 2.83304 5.03437 1.98793 -0.125159 1.92683 2.19405
1093 1.89867 5.26336 2.05424 1.3578 -2.05856 0.602799
115 3.44471 5.82035 1.71902 -0.638122 -0.89698 1.36714
232 3.87996 5.75988 2.62049 -0.44031 0.559869 0.232135
3606 4.1354 4.85175 1.6041 -0.0137907 0.985092 -0.988218
3322 3.86683 4.52917 2.48898 0.902589 -0.385175 -0.516597
1762 4.56837 5.91633 1.80253 0.746945 0.658922 -0.364418
382 5.71183 5.27843 2.62781 -0.284819 0.0168442 -1.74318
1781 7.65404 5.37163 2.26987 -0.569206 0.108089 1.52253
2029 8.50394 5.85883 1.51309 -1.05463 -0.189872 -0.217841
2456 9.80699 5.69598 1.86649 0.592284 -0.27212 -0.727876
3835 9.17149 4.90446 2.79724 0.336908 1.48223 -0.608786
2833 11.2571 5.89843 2.24811 -0.143281 0.11966 0.18781
2793 10.9682 4.83886 2.42064 -2.38685 0.0139964 -0.258172
2593 12.4381 4.97432 1.48999 -0.267741 0.0741574 -0.0839352
2009 13.3455 5.49624 1.90005 0.922469 -0.181489 -0.897199
2237 13.1453 5.64819 2.88965 -1.00233 -0.201922 -1.06815
928 14.4015 4.75053 1.87849 -0.000950798 -0.479716 -0.724894
3234 13.6057 4.83628 2.56837 -0.539782 1.35799 1.08146
3107 14.9533 5.25057 2.63265 -0.772733 1.02589 -1.22408
3545 15.3891 4.5223 1.72727 0.711344 0.0295167 -0.317891
2518 15.0611 5.67088 1.53286 -1.13274 1.85342 -0.633876
1967 15.966 5.5868 2.21319 -0.661449 1.90637 -0.629786
741 17.5627 4.66028 1.65632 0.125308 -0.0227661 0.364598
423 17.6875 5.58417 2.0621 0.17615 -0.282828 -1.06012
600 17.3403 5.02299 2.85029 0.643396 1.01801 -1.48451
321 16.8196 5.89064 2.52314 0.510364 1.73469 -1.82888
823 1.33696 6.2997 1.54006 0.51423 -0.249886 1.52766
277 0.682069 6.91307 2.10599 -1.08538 0.669799 0.96156
86 1.25628 6.00827 2.67385 -0.0644923 -0.537687 -0.677978
1065 2.20502 6.20841 1.94556 -2.49824 0.599233 0.0476736
1903 2.95461 6.89538 1.63303 -0.537293 -0.565581 0.526714
2502 2.16463 7.27924 2.80325 0.378025 -1.51012 1.64105
3009 2.95369 6.5116 2.71813 -0.550344 -0.559103 1.45131
429 4.10174 6.78154 2.32096 0.243889 1.44911 -1.32678
3984 5.74331 6.67813 2.1293 0.457625 1.35785 -1.3523
3686 6.93844 6.0836 1.83266 0.749613 0.461411 0.222184
3093 6.71453 7.23491 1.74709 0.110583 0.880839 -0.638951
929 6.75619 7.03347 2.81746 -0.741619 -1.53388 -1.04069
2739 7.98259 6.75691 1.50475 -0.634334 1.70724 0.892221
1974 8.88872 6.60829 2.29145 1.09401 -1.23359 -0.806093
771 7.81478 6.88242 2.57373 0.681755 0.645516 -1.67947
109 9.98456 6.80937 1.81227 1.1372 0.192137 -0.453244
2291 9.71095 7.19224 2.97528 0.415436 -0.47641 -0.0554525
2453 10.8913 7.272 2.37114 0.0675663 1.26337 1.24971
441 12.262 6.33444 2.88838 -0.97076 -0.705861 0.194965
442 12.8528 7.36979 2.37489 0.659105 0.72747 -1.40574
3752 14.7296 6.27661 2.35029 -0.213807 -1.96062 -1.0334
2054 14.1209 6.98892 2.64677 -1.15099 -0.421059 -0.0132048
2756 15.618 6.81325 1.66198 -0.609142 -0.256148 1.0916
135 15.7976 6.56449 2.62235 0.836271 -0.283198 1.49983
2847 17.5641 6.52274 1.95658 -1.19189 -0.29856 0.625993
3431 16.7189 7.12544 2.48832 0.629772 0.304028 -0.481481
2813 1.09487 7.76367 2.54458 0.0823139 -1.26849 0.322286
1770 0.236821 8.4741 2.60045 -1.48084 -1.72877 -0.181397
787 2.11965 7.56374 1.67578 0.0730123 0.342893 0.744718
3560 1.90214 8.43728 2.51644 0.113019 -1.61205 0.596172
53 4.31564 8.67485 1.49979 1.06023 0.350986 -0.326401
3405 3.31937 8.05323 1.61784 0.0552391 1.0658 0.0691555
763 3.27024 7.57869 2.51044 -0.533971 -1.04732 -1.11611
671 4.36471 8.12299 2.34617 -0.329365 -0.411728 -0.749375
1647 5.44473 7.73087 1.62149 -0.177673 0.267937 0.823713
307 5.37288 7.55822 2.72864 -0.65909 -2.66343 -0.607118
3759 5.534 8.81155 1.70607 0.816162 -1.70169 -0.996236
3516 7.33164 8.27376 2.23252 0.800987 -0.411961 0.37604
781 6.25913 8.17307 2.1661 -1.56163 -0.603231 0.775643
3694 8.34187 7.6606 2.22502 -0.179534 -0.0323102 1.65685
3064 8.01649 8.51629 2.93482 0.152961 -0.939725 -0.706899
2404 9.37882 7.61816 2.0373 0.946821 1.8995 0.671688
1276 10.3779 8.22215 1.98849 -1.34854 -1.06194 -1.85577
633 8.979 8.43578 2.58635 1.62732 0.0862333 -0.802929
428 11.2205 8.17491 2.77739 -0.261108 1.47053 0.0285562
95 11.9009 7.68339 1.88014 -0.0606331 0.57848 0.3005
3147 12.7062 8.28362 1.55428 -2.77031 0.260231 0.500909
623 12.1837 8.62822 2.35557 -3.11894 -0.0267652 0.436706
2925 14.1188 8.5024 1.6099 -0.812924 0.106299 -0.876258
385 14.4329 8.42688 2.6131 -2.45137 -1.38138 -0.163021
1062 16.0419 8.45889 2.40164 0.356548 -0.100503 1.25005
3161 15.2937 7.67597 2.23235 -0.199953 0.87852 0.65525
3207 15.2133 8.63402 1.69831 -1.55467 0.170301 -0.00275062
1409 17.0351 8.4001 2.58801 -0.0846405 0.366945 1.55675
250 16.5338 7.82795 1.7007 -1.6488 1.02542 -1.64919
262 17.5428 7.54425 2.14269 -0.080873 -0.437355 -0.982334
2576 0.25619 1.25635 3.17442 1.50869 -1.36935 0.404659
443 1.48413 1.42343 3.49042 0.970984 0.261087 -0.253235
1638 0.845491 0.72997 4.23093 -1.81369 1.83857 -0.813699
3740 1.81415 0.289095 3.36484 -0.333079 1.00553 -0.0674404
90 2.74125 0.175861 3.79917 -0.703153 1.06821 -0.517311
196 3.50291 0.899049 3.93777 0.666975 0.550956 0.192032
2073 4.62368 1.29878 4.1328 -0.112052 0.71383 -0.397327
1654 4.63787 0.503933 3.52749 1.46696 0.110814 -1.26767
3543 5.98113 0.880088 3.25058 -0.622448 -0.544835 -0.89464
1791 7.09483 0.794054 3.02108 0.144789 -0.216146 -1.21839
381 6.62374 0.895307 4.14037 -0.819278 0.488304 0.168292
1256 7.62697 0.232055 3.90327 0.550878 0.342052 -1.17564
256 7.65237 1.25418 3.77253 -1.76701 1.468 1.02803
447 8.53331 0.896241 4.34289 0.79953 0.114565 0.314134
725 9.71391 0.85925 4.03938 0.0601661 -0.164354 0.461011
2134 11.0655 0.930945 3.41514 -1.16027 -0.430338 0.814298
2402 10.4766 0.0734594 3.8333 -0.62098 -0.440226 -1.0544
1604 12.1612 0.230462 4.24391 -0.474802 1.46341 0.128665
405 13.2101 0.43408 3.91527 -0.836101 -0.669574 1.45214
2551 11.9612 1.28226 4.14466 -1.42944 -1.14354 -1.37476
1480 12.5351 1.0209 3.12642 1.94793 1.108 0.472135
1650 13.8942 1.26361 3.62985 -0.602612 0.0517573 -1.53674
869 15.037 0.864129 3.41073 2.6685 -0.729853 0.700445
3469 17.5298 0.632429 3.862 -2.27003 -0.346355 -1.75722
1636 0.450294 2.04653 4.21219 0.0965399 2.36501 -1.11663
2969 1.06227 2.95178 3.69242 -0.199552 0.661736 -1.00195
3673 0.972914 2.16515 3.01018 -0.728388 -0.787283 0.161321
1213 1.88265 2.93313 3.03363 -0.418654 -2.355 0.0124605
2838 2.69651 1.52195 3.76604 -0.912 -0.152288 0.100876
589 1.87986 2.28813 4.40527 1.35099 0.0586198 0.554419
994 4.07111 1.65447 3.2066 -2.59964 2.46639 0.134295
979 4.06534 2.46053 4.01317 -0.507433 -0.737086 -1.79633
2640 3.12708 2.18907 4.41897 -0.20246 -0.280434 -0.816533
1972 5.58841 1.78559 3.72079 0.0604654 0.489628 -0.618226
28 4.78702 2.46431 3.33143 0.812877 0.0395798 1.33903
950 5.85828 2.92294 3.86336 -0.49717 2.50703 0.283038
114 7.25219 2.08534 4.32149 0.769247 1.36686 -0.26173
1492 8.61595 2.17255 3.28364 -0.406524 -0.0354665 -1.47757
1150 9.37245 1.92889 3.99985 -1.189 0.414913 -1.9246
2397 11.8634 1.9996 3.44169 -1.10378 0.51639 -0.631432
3710 10.4321 1.90501 3.78001 0.190977 0.480795 0.468386
2653 12.6082 2.70276 3.6835 -0.603784 -0.0424648 -1.11294
2469 12.8949 1.68497 3.97716 -0.508239 -1.51162 -0.570888
116 14.5353 2.40239 3.55413 0.379008 -0.753836 -1.06161
3907 13.5594 2.12458 3.19935 1.13725 1.90865 -0.572955
1555 13.6679 2.39908 4.2166 0.90742 -0.524836 -1.47304
585 15.4604 2.37752 4.13415 0.974811 0.218597 -0.623368
1007 16.0302 1.49396 3.96653 -0.7351 2.23033 0.965674
3549 17.3928 1.70543 3.88924 -1.16801 -0.557456 1.50166
2828 17.7036 2.92617 4.09544 0.969581 0.554002 0.136261
2288 16.5594 2.57569 4.02893 1.45113 0.499489 -0.350757
635 1.03952 3.94631 4.09717 -0.454 0.562176 -0.968087
3160 2.82948 4.41723 4.06094 -0.105907 0.609543 -0.14118
2233 1.99212 3.34533 4.01177 -0.98726 0.898741 -0.407789
2238 4.22886 3.68285 3.27166 0.0727667 0.284752 -0.617911
529 3.35448 3.41604 4.22026 -0.505683 0.0916844 -2.11925
567 4.9297 3.2328 4.03635 -0.505363 -0.605851 -1.20696
786 5.6541 3.96098 3.6065 -0.36833 0.299589 -0.0578142
1394 7.42716 3.20912 3.2469 0.971597 0.451714 -0.0576587
1666 7.36351 4.20039 3.49202 -0.592829 -0.227313 -0.756982
3656 6.4512 4.45991 4.09308 0.2443 -0.895599 0.693265
3724 6.52256 3.60576 3.42418 -1.57132 -0.0159464 1.1242
3130 8.6284 3.38062 3.4443 -1.02037 -0.548361 0.522314
810 7.81512 3.54557 4.26626 -0.49711 -0.292607 -2.12898
3820 9.97512 3.27522 3.78995 -0.739445 1.1661 1.25292
2910 9.13285 4.38579 4.12456 1.89595 1.05643 0.24602
15 10.4129 3.96913 4.46763 -0.374652 -1.10608 0.337092
2060 11.2169 3.02045 3.46567 2.32371 0.96862 -1.39846
2541 11.1967 4.19872 3.47444 -2.48318 -0.428025 -0.611454
729 11.4223 3.62946 4.30877 -0.511368 1.25274 -2.58141
2842 12.4776 4.07778 4.01231 0.287914 1.60867 -2.34404
1170 13.8866 3.51534 3.53993 2.42703 -0.218532 -0.82885
1922 14.8675 3.99083 4.20639 -0.12355 0.110391 -0.249149
1096 15.4308 3.31955 3.6366 1.00088 0.5325 -2.29138
1025 15.4322 4.30961 3.15113 1.05808 -0.742732 1.10182
153 16.2219 4.137 3.62476 -0.235825 -1.86869 -0.59622
436 17.0373 3.80233 3.10291 1.29932 -0.371907 0.428444
377 17.7894 4.33502 3.82216 -2.13553 1.31854 0.0686127
651 1.25584 5.23923 3.4649 0.505395 -0.24158 -0.478381
1158 0.327204 5.70364 3.86545 -1.13738 -1.44052 -0.550863
2510 2.34341 5.95638 3.43844 0.333025 2.03353 -0.64102
2138 2.0941 4.78262 3.02061 -0.142626 0.396179 -0.373072
454 3.28699 5.25094 3.2622 -0.568502 0.0565721 -0.628657
1362 3.16988 5.53338 4.37997 0.195818 0.939114 0.132029
395 3.91528 4.735 3.97549 1.12994 0.426893 0.266112
130 4.74763 5.92696 3.21785 -1.90787 -1.34298 1.53467
2648 4.69525 4.76968 3.23773 0.0597776 -0.360349 -0.132351
247 4.74815 5.47105 4.15902 -0.201938 -1.55521 -1.23005
3083 5.7478 5.19363 3.80751 0.674192 -0.327955 -0.424749
3092 6.74764 4.99831 3.03875 0.0611688 -0.31752 0.257048
2435 6.6001 5.78487 3.95671 -1.72208 -0.0108952 0.481623
1786 8.25017 4.56043 3.17893 1.50069 -0.476086 -0.883185
2068 8.3647 5.64773 3.09533 -0.23742 0.207158 -0.814914
98 7.90078 4.77212 4.19945 -0.849266 0.104779 -0.415504
3371 8.78025 5.43211 4.03221 1.18458 0.86285 -0.0846513
2014 9.98829 4.65119 3.54848 2.77308 0.650776 0.666047
856 10.042 5.80577 3.66637 1.26822 1.72795 -2.00697
1417 11.1313 5.52553 3.87116 -0.28839 0.573185 -0.442577
2274 11.9749 4.91173 4.03266 0.282599 0.729869 0.094899
2636 12.3964 4.76399 3.06175 0.603323 1.84231 0.489417
3838 13.2312 5.52435 3.98131 1.13953 0.351671 -0.562911
1024 12.269 5.89967 3.80531 0.730117 0.37289 1.00707
3001 14.3501 5.5695 4.00913 -2.21161 0.316158 -1.5586
742 13.6145 4.51259 3.5871 0.407444 -0.00399921 -2.5108
2201 15.243 5.00753 3.95402 -0.288834 0.0201827 0.351671
677 16.2325 5.22428 3.50341 1.51073 -0.823855 -1.68446
1659 17.1271 5.84563 3.7108 -0.872274 2.12544 0.403667
2078 1.31939 6.67808 3.47455 1.89908 0.778409 0.628772
528 0.319871 7.33674 3.28306 -1.3408 -0.484033 -1.20635
3928 0.630094 7.16999 4.30097 0.816047 0.140016 -1.13091
681 2.29499 7.11582 4.16884 0.474372 0.0892883 -0.380774
3158 3.74204 6.40877 3.50857 0.736048 -0.0458311 -1.30916
1259 5.92662 6.23791 3.16569 0.565969 -1.26177 -0.375329
2806 4.92146 6.89879 3.61733 0.405267 -0.0274469 2.22824
2867 5.93889 7.43469 3.61439 1.07528 1.80876 0.059076
3869 6.65734 6.80364 4.19054 1.07409 0.0476476 0.0407495
1113 7.78937 6.0821 3.85612 -0.0947838 0.35785 0.238692
722 8.83918 6.55225 3.36906 1.03671 -0.434166 0.0709489
3217 8.03801 7.29013 4.2988 0.511425 0.186044 0.355072
789 9.72266 6.92058 3.97581 -1.06355 -0.292745 0.705641
768 11.0582 7.21627 3.47484 -0.0168445 -0.151117 0.241498
2937 11.4554 6.80582 4.40138 -0.967388 -0.189476 0.215845
3498 13.328 6.6011 3.73107 -0.921186 1.39274 1.07018
3852 12.0706 7.22863 3.51268 0.316884 0.109698 0.921647
1279 14.0344 6.0105 3.06895 -0.552261 0.112317 -0.860235
2489 14.7624 6.94545 4.07506 -2.02755 -0.807095 0.379885
2881 15.0058 7.19085 3.14805 0.47369 -0.68639 -0.40892
2473 15.3021 6.10562 3.50675 -1.77711 -1.37034 1.74972
667 17.6895 6.54482 3.22334 -0.352119 1.12228 0.99756
2928 17.3553 6.85504 4.24825 -0.0871227 -0.272064 -1.36596
3738 16.4188 6.92453 3.66416 0.801334 -0.808213 0.168046
2313 0.664852 8.42524 3.71224 0.654741 -1.02772 -0.120824
1907 1.6879 8.06455 3.63433 0.667306 2.04755 1.04372
1244 2.61889 8.70829 3.85721 -0.854342 2.58109 -1.13812
437 2.80393 7.67887 3.48434 0.454314 -1.39267 0.58122
2596 3.1521 8.62244 3.06702 2.64513 0.937009 -1.41382
2613 4.04618 7.46702 3.56229 1.61213 0.178419 0.336617
3621 3.34498 7.95724 4.35866 0.0800981 -0.569667 -0.462263
2441 4.48536 8.59381 3.42002 -2.19782 -0.372091 1.68012
3325 4.8911 7.94054 4.07829 1.25662 -0.945901 -1.40244
3233 6.55529 8.40366 4.39165 0.811864 -1.04175 -1.35874
2483 6.49776 8.36244 3.32673 0.292112 -0.978086 -1.3712
60 7.49871 8.66284 4.01352 1.1298 -0.475903 -1.21038
2866 8.75407 7.74306 3.27939 1.21887 -0.0614232 2.23268
1440 7.45235 7.68105 3.2854 1.6967 0.354191 -1.63398
2890 10.1937 8.14005 3.34625 -1.16383 0.567398 -0.168256
689 8.95387 8.71404 3.77613 1.3149 -0.682953 -0.377283
3316 9.55581 7.88858 4.23276 -1.10294 -0.232726 -0.230073
1297 10.6403 8.84892 4.01299 1.89783 1.21168 -0.0348475
1549 11.1744 7.91973 4.3994 1.62742 -1.11783 -0.970047
1381 12.0131 8.21692 3.72666 -2.16562 0.446425 -0.372424
1451 12.9197 7.81094 3.30002 1.25518 0.744445 0.301191
1251 12.6821 7.60911 4.42588 0.642309 -0.995602 0.0504102
922 13.0724 8.5694 3.94327 0.0760583 0.193093 -1.25888
2769 13.732 8.85315 3.19601 0.450794 0.727854 -0.412812
320 14.0226 7.74175 3.46774 -0.981698 -0.20619 0.625384
3109 14.6833 8.04605 4.35921 1.52279 -0.332039 -0.667995
2524 15.6986 8.75859 4.34514 -0.330797 -0.0483331 -0.347272
1798 16.0315 7.63787 3.05249 2.01865 0.255249 1.40474
1340 15.6827 7.63583 4.11974 -1.21925 1.49461 1.62355
1496 15.3763 8.48483 3.18142 2.49213 -0.244262 -0.938621
2859 17.5329 8.75726 3.51164 -1.67337 0.65919 1.13686
1457 17.2538 7.76258 3.50429 1.66727 -0.103357 -0.252714
1122 16.4349 8.54921 3.6388 -0.0721359 -0.389077 0.628935
283 1.07569 1.35451 5.31578 -2.03448 -0.130428 -0.213948
647 0.344518 0.257947 5.23047 0.799084 -1.03316 -1.2565
3091 1.90541 1.14344 4.54508 1.09228 1.22275 0.9494
494 2.22262 0.692964 5.58201 0.617538 -0.474161 0.433732
2637 2.9588 1.0709 4.83461 -1.33588 0.0788431 -0.365107
2326 4.42657 0.969536 5.26409 -0.4475 -1.56251 0.502266
3886 4.99737 0.201648 4.65706 -0.39319 -1.01157 0.0683125
350 5.57099 1.05305 4.58627 1.83081 1.5306 1.32847
2180 6.11594 0.093319 5.05858 1.48236 0.900581 -1.6492
607 7.13738 0.676977 5.15511 1.48631 1.70632 1.12064
3959 7.99675 1.42577 5.22451 -0.387282 0.103651 -0.33215
2782 8.97259 0.223195 5.15089 -1.18438 -0.00863723 0.655355
205 9.50638 1.09355 5.23638 -0.867309 -0.590059 -1.04945
1152 11.1885 0.499564 4.47622 0.0191803 -0.820443 1.73525
2370 10.4335 0.530588 5.09372 1.24913 -0.383072 0.352485
2285 13.3241 0.308104 4.92876 1.51296 -0.340335 0.365158
949 12.244 0.831429 5.07462 0.310108 -0.322503 -0.992037
2657 13.7361 1.39428 4.75628 -0.485142 -0.508097 0.156404
1188 14.768 1.20454 4.58043 -0.136974 1.44335 -0.87258
3151 15.3227 0.328978 4.48625 -0.647194 -0.362845 -0.744095
504 16.212 0.811252 4.96604 0.948568 -0.368508 -2.08395
2219 15.4893 0.330507 5.66481 -0.0664461 -0.593718 0.480601
3351 17.2515 0.795232 4.7959 0.18347 0.93233 2.55157
2953 0.0921651 1.53372 5.16173 -1.09775 -0.0131561 0.232641
2347 1.78149 2.06671 5.58418 0.66083 0.438665 -0.991712
1361 4.03962 1.81284 4.81415 -2.27415 -0.573746 0.952388
3664 3.1984 2.12958 5.59133 0.0319169 1.06192 -1.95892
3265 4.18369 2.24444 5.73793 0.364564 -0.287284 -0.946046
1373 5.06022 2.12723 4.58052 -0.406743 0.173977 1.03822
168 5.368 1.78074 5.90174 0.153822 -0.340429 1.04959
3084 5.79986 2.70996 5.02213 1.55463 -2.38152 1.00141
3627 4.64421 2.97717 5.21532 -1.37264 -0.0600853 -0.758583