ITEM: TIMESTEP
60000
ITEM: NUMBER OF ATOMS
4000
ITEM: BOX BOUNDS pp pp pp
0.0000000000000000e+00 1.7878070701931353e+01
0.0000000000000000e+00 1.7878070701931353e+01
0.0000000000000000e+00 1.7878070701931353e+01
ITEM: ATOMS id x y z vx vy vz
1027 0.718287 0.565258 1.42242 -0.315657 -0.347433 0.28151
3610 0.0401764 0.542728 0.551148 1.43192 1.17339 -0.291697
3965 0.966681 1.08329 0.497693 -0.622235 -1.03421 -0.156895
3329 2.08442 1.48774 0.902852 1.44116 1.1281 -0.540156
775 1.76803 0.21334 1.05193 0.279893 1.82253 -0.647011
2683 2.44246 0.393914 0.260506 -0.722094 1.61007 -0.608544
2361 2.5445 0.63932 1.46507 0.898675 -0.0601476 1.2672
10 3.95635 0.962404 0.559522 0.218516 -1.33037 1.37609
1968 3.39141 0.129373 1.07155 1.47264 0.997153 -0.656124
2482 4.97214 0.186688 0.344758 -0.0851167 -0.508215 -1.02647
2537 4.92215 1.26311 0.278098 -0.136053 -0.232329 -0.9578
120 6.10843 0.531489 0.168019 1.10452 -0.188714 -1.84172
2487 7.15702 0.92566 0.771627 0.303265 2.22594 0.462849
123 8.2118 1.48097 0.595859 -0.548801 -0.671598 -0.385052
3435 8.29614 0.349019 0.653662 -0.40293 2.59666 -0.0735261
679 9.32033 0.739713 0.379236 0.157285 0.229779 -1.30173
278 10.1182 0.718659 0.962608 0.740625 0.26328 0.517388
2823 11.0859 0.483325 1.34752 -0.606182 -2.17696 1.59444
2562 10.7451 0.711788 0.174669 -1.32867 -0.519238 0.105871
2171 12.1932 0.823131 0.523284 -0.656013 0.359669 -0.115153
2551 12.8701 0.839872 1.30882 -1.13185 0.314638 -0.578804
2663 13.2603 1.35855 0.197197 0.569354 -0.840902 1.23796
3264 12.8448 0.108325 0.0436843 -0.299493 0.829654 1.76572
3996 13.6779 0.122031 0.594888 -0.804058 1.59164 0.284686
1020 14.8302 0.822787 0.135116 -1.08808 0.508444 0.578843
2099 15.3795 0.57156 0.973306 -0.815287 -0.585412 0.746163
2154 15.8307 0.424332 0.0473975 1.01624 -1.20416 0.764926
441 16.4201 1.38829 0.932154 0.607167 -0.0462693 0.985355
3907 16.6369 0.371119 0.845132 0.386698 -1.89721 0.12336
387 0.512069 2.86883 0.787732 -1.71234 -0.00108521 1.80732
631 1.37299 1.97917 1.40647 -1.205 -0.400434 -0.369976
3158 2.19886 2.51796 1.29375 0.727993 1.01779 2.90128
277 1.51162 2.6002 0.50689 1.65572 -1.1344 -0.240448
330 4.18486 2.02616 0.476592 0.772198 -2.0255 -1.32472
1369 4.41664 1.57083 1.48458 0.352707 0.555499 -0.246566
1985 3.09337 1.70014 0.449147 -3.1782 1.20064 -3.10774
3471 5.27137 1.96409 1.21178 -2.68654 -0.270012 -0.320028
1318 5.19289 2.22814 0.00434289 -1.1715 -1.41 2.09072
966 6.06213 2.62673 0.511504 -0.358928 -0.567885 0.758722
2972 6.84563 1.89292 1.4457 -0.16267 -1.28378 -0.152684
3070 6.21913 1.61365 0.556936 -1.79527 -0.848002 -0.497035
2055 7.72109 2.67503 1.25454 0.933547 -0.826722 -1.38937
429 8.65838 2.35262 0.707904 0.607027 -0.592134 1.36017
3339 9.68049 1.67085 0.652657 1.42306 -1.28402 -0.464287
361 9.98258 2.72809 1.08722 1.37935 -1.66722 -0.374162
1394 11.118 2.29091 0.299878 1.50762 0.484288 0.814676
1481 11.6952 1.60882 0.956353 0.825705 0.403078 1.41426
290 12.8239 2.00502 0.964717 -0.797451 -0.0280493 -0.255154
1417 12.1032 2.68666 0.471158 0.276362 1.14748 -1.69099
859 13.708 1.53551 1.17391 -1.22201 -0.315187 0.905745
632 13.8398 2.27136 0.319626 -0.630572 0.373018 -2.47232
2636 14.6208 2.58286 1.34565 -2.04982 -0.79956 1.1574
904 15.4776 1.93029 0.800156 0.783856 -0.179535 -0.269576
741 14.9583 2.89985 0.346424 0.398397 0.383653 1.37822
1279 16.37 2.46547 0.406976 0.549479 0.14134 2.15149
446 16.8008 2.65829 1.42587 -1.33441 0.569043 -0.797879
790 17.6117 1.50634 0.923949 -0.734828 -0.689431 -1.99228
1564 17.4269 2.4805 0.520707 1.66187 0.998594 0.528337
1859 1.22787 3.70142 0.69408 -0.0735344 0.4401 -0.840949
538 0.345052 4.34191 0.701412 0.580161 0.708968 -1.35367
3547 2.00831 3.66087 1.44685 1.39613 -0.496175 -1.48984
880 2.35026 3.34356 0.344001 -1.94304 0.0182776 -0.942599
661 2.14252 4.45831 0.123762 1.18594 -0.18529 -0.501489
3607 3.46424 4.46044 0.214629 -1.49762 0.314624 -0.373397
2668 3.69389 3.10312 0.895413 0.159221 -0.54495 -1.1673
908 3.66706 4.31117 1.2526 -1.00782 0.463523 0.840935
3611 4.36558 3.81865 0.511969 0.464412 -1.35793 0.241337
2495 5.44478 3.60966 1.01595 -1.58573 -1.13909 0.109403
1801 5.64187 3.39619 0.0472239 -0.382719 -0.423682 2.11618
182 7.43708 3.98005 1.42959 0.342232 -0.524584 -1.00597
3967 6.51242 3.52913 0.747646 -0.460526 0.226783 -0.0362343
400 7.49461 3.27787 0.439447 0.130879 0.317516 0.486882
1963 8.24558 4.28356 0.509511 0.13388 -0.252332 0.202684
559 10.2498 3.23771 0.024242 -0.203766 0.370633 -0.960931
1267 9.36849 3.70606 1.06186 0.465066 -0.698096 -0.014604
1376 10.9059 3.29848 0.847312 0.274634 -0.364062 0.0684527
643 11.8222 3.78637 0.119161 0.719598 -1.31367 -1.63144
3515 11.4726 4.25386 0.943275 0.425504 1.02037 1.92074
2190 10.64 4.1653 0.120415 -0.59852 0.473864 1.26166
952 13.1718 3.051 0.92054 -0.207886 -1.24677 -1.421
1655 12.8219 3.97135 0.397427 0.632418 -1.36001 0.541984
1126 14.2002 3.92543 0.874124 -0.251795 0.786201 -1.24025
585 13.8877 3.26979 0.0191508 0.745142 -0.744086 0.814824
1814 15.8255 3.44365 0.469103 1.13601 1.48723 -1.18354
474 15.1286 4.1895 1.23467 0.275803 -0.26818 -0.847659
102 16.8574 4.23115 0.342783 -0.56417 1.15386 -0.19495
2069 17.4014 3.46079 0.886833 -0.499123 0.231094 1.28354
1273 1.33226 4.75264 0.985101 -0.341881 -1.00561 0.694279
276 0.598021 5.36143 0.0904429 1.18292 -0.661432 -0.156896
2078 2.66053 4.47978 0.983865 -1.4623 0.389393 0.521753
3336 2.08162 5.64688 1.15912 -0.893505 -0.0766967 0.239214
1014 3.30075 5.49011 0.641267 0.289109 -0.44036 1.04331
1172 4.29188 5.06481 0.6289 0.368911 -1.64193 -1.03012
1120 5.52383 4.70194 1.23715 0.453944 0.705437 1.02394
2739 5.07528 5.70351 0.973349 -1.42474 0.332762 0.43884
2994 5.65336 4.48839 0.298051 0.838123 -0.174716 -2.33106
3835 6.74591 4.56499 0.681971 -0.199113 0.272644 -0.798344
1920 6.07303 5.33883 0.624685 0.603104 -0.946317 0.494678
3702 8.53429 5.27708 0.501933 -0.119361 0.168019 0.270284
2179 7.45044 5.5984 0.828992 0.723341 0.874748 -0.646983
2430 10.2326 4.9677 0.806339 -0.260363 0.42262 -0.203173
2768 9.41289 5.86303 0.774811 1.40586 -1.17337 0.241862
280 9.36967 4.56048 0.215874 -1.78512 1.19071 1.30595
1704 9.23531 4.68584 1.34948 -0.380156 -2.8038 -0.931213
1166 11.1658 5.60003 1.43061 -1.11322 0.915729 -1.0691
803 11.1212 5.07987 0.394532 -1.16531 -0.0443197 -0.400029
2374 12.1651 5.09295 0.677493 -0.631707 1.32914 0.26475
2111 13.2588 5.33954 0.830352 -1.22935 0.857428 0.727374
2659 14.2244 5.28221 0.519744 -1.75864 1.02018 -0.96783
1211 16.1269 5.54802 0.8728 -1.00277 -0.620456 1.23323
3573 15.2426 4.96629 0.609257 0.878433 1.21556 -1.04748
2473 17.3973 5.51737 0.50589 0.978926 0.878754 0.756297
1059 17.7307 5.28508 1.35293 -0.710864 1.4597 0.951144
13 0.723351 7.34916 0.490427 -0.516356 0.686978 1.05352
2283 1.31464 6.57252 1.28839 -0.829345 2.51888 -0.285191
930 0.274619 6.54895 0.926634 2.21306 -0.970702 0.749097
2746 2.91119 6.51641 0.698815 -1.23752 -0.739253 -0.473121
2510 1.97957 6.30966 0.235834 0.286912 -1.10712 1.02736
3759 3.40492 7.31859 0.187324 0.971695 -0.14606 -0.548085
2082 4.87919 6.71927 1.05605 1.93971 -0.984999 -1.37584
3653 5.81547 7.42292 1.42811 -0.80292 0.648696 0.163918
1316 5.13611 6.17539 0.0116693 0.967149 0.227642 -0.437029
3476 6.99096 6.65149 1.37062 -1.62603 1.0245 -0.190093
3686 6.08582 6.74963 0.175946 0.976553 -1.40847 0.304935
3371 7.2002 6.74834 0.383168 -0.262745 -0.291204 -1.66454
395 8.50305 6.28469 0.64524 0.754482 0.26963 -0.984924
633 10.3092 7.04394 0.954557 0.049881 -0.511194 0.701528
1731 11.5463 6.59623 1.00421 0.573596 1.14792 1.11881
928 10.4975 5.99075 0.666899 0.40667 -0.275437 -0.617053
3666 11.2794 6.1413 0.105195 -0.00503591 -1.31936 0.915377
1162 12.2758 5.96868 0.293675 0.777876 2.4092 0.252077
3054 12.4547 6.22855 1.40931 -0.19567 1.89131 -0.203267
2512 11.9743 7.05237 0.00438211 1.24481 -0.734678 -1.22336
718 13.7849 6.27371 0.970281 0.399343 -0.501474 0.0189291
2756 14.0093 6.94425 0.0368204 -0.0441472 -1.08996 -1.34617
1217 15.079 7.31472 0.543349 0.248385 0.813128 0.978785
1457 16.1197 6.69452 1.139 0.311917 -1.99783 -0.34045
2634 15.0346 6.08382 0.433922 0.584549 -1.87727 0.0976007
2502 16.1439 7.4016 0.26391 -0.459576 -0.642122 0.137149
2467 17.033 6.46663 1.46023 -0.142158 1.08573 0.348255
3677 17.4638 7.33831 0.249691 -1.43643 0.236938 1.53074
687 16.7911 6.45285 0.370723 0.283873 -0.0734031 0.158075
2925 0.130636 8.17773 0.53227 -0.327449 -0.542485 -0.997105
295 1.34639 8.14145 0.841635 -0.605704 -0.473596 0.0538617
3934 2.1906 7.48771 0.720452 0.877425 0.480581 -0.400106
752 3.0386 7.90505 1.19009 -0.730365 2.15566 -0.272936
1395 3.72335 8.63003 1.12576 1.16735 1.00743 0.424123
3618 3.05322 8.84138 0.110242 0.325844 -0.958013 -1.84966
1763 5.6854 8.68739 0.563937 -1.69354 -0.906157 0.589827
2962 4.95607 7.98301 1.04653 0.650542 -1.22439 -1.63636
738 7.07134 7.83317 1.48288 -0.362327 -0.295985 -1.45825
1781 6.55593 7.89304 0.703335 -0.812205 1.91611 -1.62702
2769 7.11637 8.92684 0.30116 1.3739 0.0539441 -0.309242
130 7.77217 7.81665 0.492663 -0.87815 -1.47252 0.648164
232 8.52217 8.89544 0.298099 0.081091 -1.17764 0.000704236
70 9.26839 8.8377 1.08103 0.712992 -1.22336 1.29837
1429 9.04017 7.47612 0.807161 0.226522 1.52378 1.14396
2648 9.85055 8.0052 0.477828 2.01915 0.632342 -0.248427
2068 10.3373 8.78476 0.812255 1.58477 0.538645 -0.461573
1930 11.1549 8.14577 0.426686 1.19182 -0.0794145 0.651133
3596 12.0668 8.88794 0.664033 -1.41149 -1.42237 2.0221
1957 12.0434 7.61549 0.920326 -0.16102 -0.952891 1.53475
2723 13.0684 7.51266 0.544819 -0.331862 0.275198 2.21662
1308 13.1039 8.88231 0.0274234 1.99558 0.958031 0.19996
3167 14.5233 8.15005 0.160869 1.78639 -0.285406 -1.2506
3461 13.5795 8.47029 1.0615 -1.48628 0.374886 0.488753
1340 13.9892 7.45072 0.98697 -1.59559 0.0826453 0.996608
2126 14.7015 8.1838 1.32041 0.597152 -1.39202 0.0861223
135 15.7384 7.67477 1.32329 -1.29042 1.40607 -1.08703
1982 15.584 8.25876 0.430274 1.33232 0.182131 0.0291339
1573 17.6574 7.5048 1.28403 -0.766114 -0.243798 0.314615
1165 16.8742 8.26451 0.570617 -0.393061 -2.29519 0.124974
2080 1.90938 0.688968 2.8949 0.606838 -2.08235 -0.27839
3014 1.78067 1.06109 1.91506 -0.472252 -0.580328 -1.47563
2258 3.39862 1.28535 1.49244 -1.5571 -0.732785 -0.67696
350 3.09771 0.758137 2.54461 0.373322 -0.17552 -0.481352
1776 4.06419 1.16764 2.54524 0.807388 -0.728966 0.431032
2238 4.39938 0.0507895 1.98781 0.774038 0.835051 0.334049
1639 5.10623 0.669957 1.5044 -1.79853 0.9313 -0.0452638
2433 5.89098 1.34101 1.84834 0.294424 0.850847 -0.795809
529 5.13466 0.831047 2.52065 -0.537012 0.980987 0.0862014
1690 6.26251 0.856613 2.73449 0.812103 -0.127608 1.16995
2278 7.03209 0.616776 1.9863 1.18302 -0.633709 0.0987785
2246 5.96616 0.147764 1.52185 -0.671072 0.710499 0.18851
3805 8.46593 0.409001 1.94376 -2.39835 1.18468 -1.58816
3289 10.2734 0.61345 2.09736 1.06756 1.69215 -1.5257
3569 9.18081 1.17311 2.64956 -3.90994 0.0482497 -0.0383448
195 9.22778 0.839916 1.53106 1.46436 2.21081 -0.766728
2861 10.9709 0.822822 2.8165 -0.0732575 1.12168 -0.174397
3779 11.8531 1.00684 2.17057 0.196726 -0.681364 -0.498828
2466 10.8701 1.45405 1.76799 0.644646 0.258949 1.37489
116 12.844 1.44227 2.07006 -1.63847 -0.671337 -1.74046
2396 11.9556 0.00787088 1.59097 -0.578522 0.701967 1.69748
2452 14.0528 1.01118 2.14548 0.310136 0.925929 0.300061
3419 14.3277 0.179575 1.49686 2.26254 0.647335 0.927342
3533 14.7356 0.0728755 2.59301 -0.17691 -1.65216 0.313814
2065 13.666 0.100335 2.40495 -1.08212 0.608275 -0.45097
2630 15.0191 1.31771 2.59646 -0.182908 0.816695 1.2138
697 15.947 0.328015 1.82543 -0.257282 0.969948 1.12415
1393 17.3519 0.776961 1.54252 -0.765669 1.01557 0.442041
3551 17.765 1.14474 2.60163 -1.04806 -0.155502 -0.655082
773 16.7 0.670951 2.50897 0.315439 0.503765 -0.877467
2314 17.7043 0.0427382 2.52523 0.106799 -0.00511798 -0.314839
3129 0.66039 2.76212 1.85654 0.691174 -0.858942 -1.91464
608 0.443792 1.58597 1.66142 -1.70276 -0.936448 -0.948097
498 1.13387 1.53196 2.47828 0.26202 0.675298 -0.131738
714 2.5472 1.6763 2.06329 -0.761405 0.653961 -0.609876
528 2.65448 2.59213 2.54269 0.528893 -0.43283 0.0180837
3664 1.59125 2.66439 2.46098 0.202521 -2.04048 -0.203726
979 3.3383 2.29379 1.5012 -0.154526 0.997502 1.1093
262 3.93972 2.40132 2.44471 1.28826 -1.27163 0.766221
2159 4.5307 2.64263 1.57038 0.866942 -0.668303 -0.149372
3363 5.78236 2.75359 2.12171 -0.273757 -0.973328 1.45694
371 5.00274 1.79781 2.57483 0.613699 -1.33719 -0.428419
363 6.85156 1.72404 2.59864 -0.304823 1.88277 2.44167
810 7.81768 1.87769 2.55911 -0.332853 0.919011 -1.37978
1666 8.71761 2.72335 1.79932 0.00851561 -0.358839 -0.705317
2750 8.89477 2.2037 2.86299 0.0129755 -0.155945 -0.786958
812 8.4224 1.8269 1.76268 -0.247964 1.39406 -0.00861215
1722 9.49139 2.08352 1.66581 -0.179658 0.435599 -1.77738
2716 9.71486 2.96664 2.14944 0.209766 1.58739 1.2724
3391 10.1164 2.08027 2.78311 -1.15334 0.0085875 0.555522
3914 11.8739 2.56285 1.58181 1.24174 -0.251577 0.452553
3330 11.2617 2.05403 2.57891 -0.630599 -3.06449 0.25062
296 10.8458 2.86916 2.18517 -0.403392 0.820838 -0.223634
1170 13.2399 2.6623 1.87632 0.87198 -1.86453 0.146568
2800 12.5518 2.36979 2.7906 0.191206 -0.276034 0.7774
2542 13.6657 1.90669 2.64282 -1.55807 -0.850096 1.50355
3762 14.792 1.493 1.50973 -1.86898 -1.23141 -0.53174
3332 15.8249 2.13604 1.90089 -0.247368 -0.257076 0.959084
1907 16.8695 2.65768 2.77256 0.189303 -0.566982 -0.510549
1331 16.8762 1.70325 1.86947 -1.58473 1.11201 -1.87215
3974 17.8014 2.10301 2.53783 -0.431806 0.0792282 1.64483
2472 1.1547 4.09263 1.81979 0.183865 -1.45115 -0.96722
681 0.817215 3.58294 2.62574 -0.351389 -1.48318 1.13289
2393 1.93208 3.74059 2.65814 0.21399 -0.338472 -0.689096
186 4.39815 3.66415 1.59675 0.100161 -1.38173 0.515328
2220 3.47815 3.23962 2.05087 -0.179043 -0.395126 0.22999
2620 3.0126 3.75231 2.91971 0.146189 0.534976 0.395866
1035 3.57316 4.35916 2.29367 0.089013 1.21493 0.485178
763 4.96508 3.38757 2.41248 -1.23424 -1.14167 0.343584
2684 5.77927 4.07813 2.37538 0.782713 0.648383 -0.604494
2232 6.75375 3.20572 1.7047 -0.957722 0.0425901 1.36904
2816 6.43387 3.35295 2.91997 -1.23044 2.51237 -0.426526
1949 8.79026 3.83933 2.0949 -0.197866 0.961319 1.1284
1994 7.82497 3.15075 2.28272 1.52336 0.554866 -0.730718
2902 10.2827 3.77463 1.64625 -0.203641 0.660099 -1.24144
3048 10.1427 4.34127 2.83532 -1.53629 -0.627598 1.322
1303 11.8336 3.07755 2.58477 -0.748536 0.637193 0.465928
1314 11.4038 4.03762 2.473 0.0368792 0.388807 -1.22187
2841 13.9111 3.40244 2.0412 -0.288155 0.75798 0.07616
1967 13.6159 4.14775 2.69788 2.64378 1.01656 -0.75367
249 14.8177 3.97997 2.16362 -0.215663 1.21147 -0.814541
3001 15.8262 3.19301 1.52321 0.50553 -0.648097 0.76651
1343 15.9474 4.16702 1.97387 -0.625724 -1.21984 0.111924
1437 15.1871 2.97979 2.38727 0.5469 -0.430155 0.551846
1865 17.3431 4.14866 1.67884 -0.869178 -0.1188 1.03285
1268 16.666 3.64431 2.57741 -0.453515 0.351269 -0.762538
2640 17.7212 3.36223 2.26904 -0.701855 -1.50582 0.124552
1221 0.843714 5.5722 1.74755 0.0106004 -0.116587 -1.16611
2765 0.31725 4.7963 2.26575 0.00598314 1.06732 -0.629866
1157 2.00995 4.61478 2.11899 -0.524993 0.292712 -1.58968
2524 2.72401 5.41969 2.64256 -1.4228 0.98148 0.22931
3648 3.07827 5.87093 1.7736 0.820251 -0.672398 -0.377257
86 4.22881 5.51275 1.70002 -0.309057 0.793913 0.0262506
3992 4.81297 4.61416 2.0161 -0.567253 -2.51293 -0.489878
1282 5.87582 5.11914 2.34954 0.690091 -0.579508 -0.406612
3402 6.50229 4.53294 1.72603 1.10009 -0.484065 -0.555788
1698 7.44257 4.99868 2.1223 0.0164704 -0.531095 0.537622
2441 6.47598 5.7058 1.6502 0.723501 0.516298 -0.817771
1813 8.48563 5.48545 1.58191 0.342377 -1.96794 0.874023
385 10.0932 5.31942 1.76575 0.209972 -1.79447 -1.57539
2653 9.32906 5.1937 2.78409 1.18204 -0.123272 0.61659
3131 10.0761 5.86163 2.76016 -0.905061 0.129128 0.972068
3008 11.1149 5.09778 2.51751 1.61067 1.02428 -0.318489
2628 10.8624 4.59642 1.69339 0.0198041 1.21967 -1.63964
879 11.9884 4.91427 1.90376 -1.26819 -0.596225 0.930433
1329 12.9114 4.47907 1.59769 -1.13649 0.584399 0.323393
3991 12.6809 5.95059 2.51001 0.796692 -1.95255 -1.45551
2894 12.8556 4.83611 2.56047 -0.40289 0.53472 -0.122269
2142 13.5866 5.6243 1.85302 0.241252 0.121623 1.65586
1446 14.0854 4.71114 1.72592 1.16192 -0.228891 -0.213243
816 14.2731 5.02645 2.77406 -0.455788 -0.422109 -0.753138
1808 15.4142 5.28806 1.84559 1.61951 1.03082 -0.297635
153 17.0426 4.49419 2.63218 1.39226 1.32975 -0.213157
2751 16.4829 5.24043 2.11809 0.497397 -0.902709 0.299983
997 1.87042 7.34885 2.38323 -0.46223 -1.19588 0.37891
3271 2.71906 6.92404 1.69042 0.185791 1.51236 1.33914
694 2.02819 6.06165 2.23118 0.0280146 0.238876 0.157238
3920 3.89573 6.90791 1.72864 -1.13809 -1.15437 0.448236
3166 3.76997 6.21648 2.81079 0.906702 0.395657 -1.1458
7 4.9989 7.29227 2.1853 0.439725 1.02821 0.286011
2446 4.96879 6.26064 2.3486 -1.00064 1.00821 1.44443
3975 6.97887 6.00237 2.92451 -1.17351 -0.0167891 0.545576
3211 6.01123 6.58014 2.11315 0.461354 -2.21076 0.188484
307 6.76265 7.27369 2.3964 0.830549 1.59302 0.506972
1588 7.49803 6.12817 2.01527 -0.213039 -0.600435 0.124528
1302 8.22676 6.8315 1.5271 -0.631949 -0.101753 0.527932
3841 9.61303 6.40614 1.67615 0.878268 0.526654 -2.17965
464 9.03982 7.44002 2.13605 -1.87061 -0.792461 0.104426
1259 9.01728 6.36914 2.51634 -0.0817253 -0.893598 1.65243
3409 11.4277 6.45757 2.16838 -0.315457 -2.49257 0.455364
410 10.5609 6.94454 2.61571 -1.47641 -1.05716 -0.896461
2890 11.1164 7.41186 1.5269 -0.833213 -1.01858 -0.507863
2881 11.8854 7.33498 2.37781 -0.854195 -0.873927 -0.472717
1844 13.2924 6.70326 1.94143 -0.256732 0.282026 -0.174717
1450 14.6068 5.96876 1.50789 1.04999 -1.01537 1.53704
2709 14.2241 6.30596 2.53438 -1.01276 0.26466 0.959371
2163 14.7356 7.03029 1.61206 -0.920129 1.44347 0.271692
1631 14.3252 7.41676 2.7038 -1.02578 1.63202 0.957264
108 16.178 6.54608 2.39062 1.18859 0.995344 -0.153023
3109 15.1727 6.01727 2.5092 1.21645 -0.514779 1.75511
1237 1.10598 7.59133 1.59564 0.140057 -1.12915 -0.619672
557 1.32417 8.22221 2.92262 1.10181 -0.269388 -0.754919
2724 0.856036 8.67596 1.55801 -0.413641 -0.617224 0.822601
1869 0.349305 8.59622 2.85433 0.0892219 -0.0836837 -0.815874
1258 1.92565 8.17991 1.78781 -0.570721 -0.0970118 2.32366
2007 2.94177 8.84034 1.85666 1.01831 0.395822 -0.607697
2056 2.62104 8.61508 2.85838 1.07327 0.720508 -0.746327
2061 3.06046 7.64685 2.40509 1.79613 -0.395169 -0.936703
3376 4.17535 7.87878 1.75985 -0.502917 -0.534936 1.10739
2813 5.45902 8.57852 1.6671 0.270805 -0.395725 1.36275
1856 4.9658 8.50016 2.57125 -0.504543 -0.209547 0.837658
309 5.67809 7.80789 2.89532 1.53699 -0.396179 0.623738
150 7.33365 8.71159 2.05711 1.24671 0.367597 0.865443
3301 6.27456 8.18868 2.13733 -0.589079 0.527017 1.24719
2247 8.08778 7.59823 2.39691 0.0364437 1.72885 1.41274
2291 8.21712 8.0861 1.5021 -0.194211 -0.331444 0.738388
3147 10.0623 7.97551 1.77183 -0.537035 0.295189 0.757172
1622 9.195 8.64497 2.11667 -1.10397 0.427696 -0.996743
3190 9.59418 8.08115 2.82875 0.10948 -0.434575 1.73676
3852 11.1075 7.96883 2.69334 -0.334147 1.06251 -0.0739241
1451 11.1237 8.4391 1.55748 -0.0379631 0.0574449 0.116791
707 12.8118 7.79705 1.55409 2.30639 1.85867 0.494068
2009 12.0753 8.37556 1.84727 1.18059 1.22917 -0.303256
2801 12.6541 7.81237 2.93362 -1.35174 -0.801015 1.19549
1016 13.8066 8.4589 2.67834 0.0367909 -0.349723 -1.26805
3325 15.6236 8.70653 1.51586 0.730978 -1.63059 -0.516471
3386 15.9193 7.88081 2.36989 -0.526816 -0.291693 -0.642516
2983 15.5029 8.80318 2.49329 -1.53451 0.0141883 0.788171
2123 17.8651 7.74128 2.4191 -0.660174 0.862396 0.361744
3957 16.7376 8.09335 1.63027 -0.00302413 0.0176574 2.0116
1122 17.069 8.45594 2.66318 -1.68735 0.710309 0.242868
3741 0.755333 0.612625 3.00636 0.440105 0.734108 -1.00642
2463 1.1432 0.12402 4.41508 -0.323358 -0.808493 -0.520997
3154 0.442914 1.26808 4.15983 -0.99082 1.97326 0.0564168
1138 2.53931 0.0324572 3.99115 -0.843483 0.356967 -0.145648
331 2.60926 0.987343 3.58778 -0.225655 -0.957043 1.13233
950 1.66328 1.30417 4.13323 0.613753 -1.60471 -1.09136
1438 3.91081 0.646973 3.61119 3.20685 0.88561 0.170553
196 5.55069 1.31666 3.40436 -1.70968 -0.849328 -2.03088
3025 5.12478 0.271064 4.28508 -0.651152 -0.140876 -1.39472
334 7.64523 0.886175 3.17927 0.842146 1.28325 -0.167225
405 8.53983 1.3148 3.50261 -1.62779 -0.237764 -0.994223
3130 8.53458 0.174254 3.1346 -0.383245 -0.33952 1.26371
1290 7.76759 1.07472 4.21555 -1.65913 1.06279 0.517428
554 9.40169 0.777812 3.72097 0.0131329 -0.42677 -0.344131
1480 9.77036 1.39448 4.45386 0.897341 -0.518111 -0.243312
370 10.317 0.254781 3.96435 0.579827 0.396557 1.34668
885 11.9051 1.45844 3.22965 -0.487107 0.20816 0.270479
2288 11.4274 0.784465 3.99236 -0.54082 -1.34007 0.965566
349 13.0384 1.00478 3.03593 -0.0298463 0.412826 -0.565706
677 12.575 0.971096 3.94408 0.210486 0.0285047 1.33498
656 13.3509 0.00948258 3.40236 1.42051 -1.37911 0.469004
1931 13.5617 0.316024 4.34239 -0.13913 -1.27967 -0.864596
3697 14.2563 1.37799 3.39355 0.865871 -1.95648 -0.492628
3321 15.1227 1.06003 3.77538 0.777404 0.369516 0.244184
2326 16.3771 1.24192 4.35498 1.06238 -0.396416 -0.897313
2285 15.7859 0.542498 3.07862 -0.602692 -1.57489 -1.15783
3116 16.6192 0.282401 3.89081 2.00129 2.23218 0.749102
3740 17.4354 0.795195 3.5243 0.0409647 0.272777 -0.245718
1452 0.719443 1.92539 3.32008 2.34277 -1.37832 1.00679
3230 0.384122 2.43836 4.42557 -0.796866 -0.101998 -0.431783
3175 1.8291 1.98946 3.2123 -0.977325 -0.707126 -0.462376
2854 2.42556 2.56965 3.78061 1.77397 -2.9778 -1.08442
2979 3.15016 1.89145 3.29831 0.97751 0.125479 0.745
792 3.40202 2.86619 3.90708 0.251636 0.783999 0.349146
443 4.2245 1.74516 3.4966 -1.39192 0.0550597 -0.545821
1200 5.91753 2.22909 3.10993 -0.336541 -0.878237 0.457813
943 5.08536 2.16468 3.76334 -0.39171 -0.47334 -0.032559
2384 7.20735 2.60114 3.02434 0.956752 0.588915 -0.71989
217 6.92149 1.58241 3.65909 0.0544121 -1.20364 0.0986566
2073 7.21303 2.49421 4.16605 -1.43558 1.38965 1.41682
3950 8.21874 2.41501 3.73229 0.00082248 -0.403517 -0.739508
2321 9.20872 2.46044 3.85617 3.28151 2.43388 1.39786
2008 11.6508 2.54009 3.6655 -0.340317 1.13342 1.32507
3107 10.5146 2.67639 4.21107 0.33252 1.43148 -0.318536
3443 11.157 1.76159 4.17572 2.05083 1.09263 -0.811484
2833 12.5968 2.77626 4.29892 -0.156563 0.101648 0.464586
180 13.3547 1.79627 3.9171 -0.0173964 0.381015 -0.83444
1023 13.4109 2.76265 3.40651 0.2681 -0.962295 -0.837215
586 14.6151 2.48027 3.08814 -0.704824 1.30027 0.52714
1432 14.4524 2.38044 4.08751 0.66252 -0.290254 1.86195
2367 16.3338 2.62049 3.91598 1.68633 -1.37665 -0.418925
431 15.478 2.06566 4.31647 -1.13432 1.56451 -0.413895
1922 15.7377 2.1147 3.11239 2.76723 -0.24075 -2.2774
504 16.7381 1.68537 2.99883 1.1167 -0.477922 -1.2879
534 17.3449 1.96912 3.821 1.20021 -0.180879 -1.26932
3545 17.807 2.96319 3.48033 -1.15702 -0.743165 -1.27579
3613 1.05843 3.01445 3.67287 0.556559 1.38936 -1.81512
3839 0.849561 4.33864 4.10058 0.821647 1.70019 0.600357
2859 2.24448 3.81787 3.59754 -1.41436 -1.81943 0.68169
786 2.86233 4.26076 4.46793 0.773103 0.635928 -1.39761
1248 3.93644 3.24983 3.00987 -1.08554 -0.569542 -0.811848
3009 3.72769 4.04393 3.90139 1.8483 -1.48965 -1.70468
3851 4.40096 3.067 3.96692 -0.475256 0.160101 -1.13315
3084 5.32589 3.39281 3.37534 -0.0166274 -0.0692403 1.10543
957 4.60672 4.18318 3.12711 2.44186 -0.943707 -0.187251
2167 5.03538 3.83012 4.43951 0.753433 -0.0159788 -0.445919
2289 6.28686 3.09132 4.0885 -0.598664 0.000289931 0.747152
3861 6.82818 3.98818 3.71197 -0.102484 -0.378749 -0.789013
454 7.61718 4.37661 3.07968 -1.05112 -0.872617 -0.542099
3502 8.74773 3.56882 4.12151 0.451782 -0.990582 1.13957
1442 7.7261 3.31447 3.52212 1.8728 -1.74942 -2.38527
1131 8.85418 4.28923 3.00125 0.806973 0.523419 -0.376612
3876 8.99351 3.15918 3.04531 0.127958 -0.681004 0.71407
166 9.83723 3.34907 3.64044 -0.0495128 0.783897 0.740247
3930 11.8493 3.58202 3.68035 0.511769 0.572856 -1.00403
1829 10.8551 3.15802 3.22845 -0.0158388 -1.30594 -1.69878
382 10.7822 4.35136 3.77394 1.02322 -0.623273 0.435303
1539 12.7697 3.4785 3.1577 -0.4196 0.833838 0.487223
3836 13.1797 3.6535 4.07749 0.161032 0.219722 -0.091789
1096 13.9851 4.35542 3.67778 -0.0279929 -0.00458693 0.0582945
2313 14.3352 3.50459 3.1177 -0.989809 -1.57075 0.22004
250 14.638 3.70175 4.31536 0.583555 0.498508 -1.13091
1903 15.3909 3.35418 3.74462 -0.696498 -0.390803 0.510363
177 15.168 4.45749 3.17592 0.513056 0.55246 -1.19798
3118 16.3719 4.44186 3.49463 1.09122 1.48742 0.492397
435 17.6608 4.02313 3.33384 -0.331813 -1.92461 0.856541
2420 17.1496 3.70185 4.40894 3.14031 0.234255 0.242067
2572 0.161629 5.08336 3.44662 1.84753 -1.35166 0.445132
1809 0.121217 5.65783 4.4312 0.348607 0.596855 1.69167
1175 1.19453 4.62699 3.01873 0.956163 1.87315 -0.462117
1032 1.1964 5.30134 4.17087 -0.607861 0.50316 0.216139
229 2.91327 4.7479 3.49161 -0.813804 1.2295 0.525535
2084 1.79626 5.73174 3.44819 -0.986066 -0.590713 -0.344134
722 3.73746 5.33685 3.26047 0.504205 -0.705452 -1.48316
1761 4.32701 4.95748 4.11498 1.01462 -0.21672 -0.0285811
3908 4.89066 5.48756 3.16112 0.831929 -0.423789 -0.0937144
1319 5.63489 4.58606 3.57262 0.59395 0.927315 0.923851
1767 6.65735 4.88584 3.04686 1.76602 -0.198201 -0.544926
2155 7.16058 5.12962 3.93538 0.125596 -0.471194 0.16909
2837 5.98329 5.61704 3.50307 -0.538748 -0.597473 0.968302
2937 7.9898 5.39896 3.02669 -0.734341 -0.973662 0.580509
1289 8.40907 4.9703 3.9585 0.266728 0.800618 -0.495239
1124 9.06901 5.94147 3.53961 -0.473797 -0.93817 0.830844
91 9.73664 4.74144 3.69644 1.56305 -0.871067 -0.902949
1773 11.6412 5.38281 3.34714 -0.0194123 0.051319 -0.484589
1840 10.5194 5.42401 3.70891 -0.429697 0.73475 0.676089
3385 11.0574 5.81508 4.40085 -0.414622 0.230592 -1.76271
2784 13.0446 4.778 3.5933 0.594758 0.195237 0.121595
1989 12.9284 5.80504 4.05185 -0.565196 1.12673 -0.218456
1409 11.9895 5.05794 4.32932 -0.120271 -0.709825 0.383005
247 14.0447 5.39738 4.29581 0.741117 2.24114 -0.666613
2804 15.8753 5.38167 3.107 -1.81108 0.635998 -0.5056
2563 15.2502 4.67196 4.28727 -2.06542 -0.64685 1.20732
125 14.9853 5.59451 3.69204 -0.704014 0.905902 0.538071
110 16.9446 5.28078 3.14922 -0.460235 -0.906185 -2.89944
2808 16.9674 4.9816 4.14806 0.0256086 -0.965316 0.115283
520 0.675283 7.27042 3.09587 -0.888277 -0.0524744 0.339673
651 0.599313 6.07984 3.59607 -0.135244 1.34316 1.40439
1321 2.36046 6.39611 4.16265 0.450836 0.143568 -0.500453
3571 2.59139 6.97195 3.08074 0.307457 0.0165599 0.148085
3796 1.60136 6.75646 3.44007 -0.587254 -1.48054 -1.6878
2596 3.07015 6.15294 3.54343 -1.62115 -0.54084 -1.71002
2613 3.71174 7.18586 3.1301 -0.724019 -0.253584 -0.239425
1647 4.14175 7.24743 4.12724 -0.104542 0.400769 0.0400156
724 4.00692 6.14925 3.96073 0.461043 0.544824 1.17042
1531 4.8353 7.24872 3.25791 -0.714579 -0.546986 -0.0349771
1786 5.23325 6.07501 3.97426 0.986402 1.85 1.29479
16 6.34498 7.38093 4.32754 1.62757 -2.01695 0.688452
3234 7.14792 6.40323 3.99215 1.71804 1.78893 1.33922
701 7.15093 7.24607 3.319 -0.170205 -0.546321 -0.0832755
1885 6.26996 6.66891 3.45114 -1.0689 -0.0214489 0.0407129
1328 8.24834 6.8052 3.60395 1.03041 -1.57582 0.579381
666 9.92316 7.39497 3.93681 -0.709377 -0.44263 0.119877
1953 10.3002 6.50621 3.78601 0.0177319 1.42312 -0.84875
742 10.9905 7.40437 3.57977 -0.186156 -1.40142 0.849338
3498 11.1919 6.19996 3.1353 -1.01092 -0.390638 0.588367
614 13.1121 6.72422 3.35911 -0.582547 0.683706 0.234708
3110 11.9711 6.17028 4.15923 0.21363 0.972552 -1.49954
1199 13.0122 6.90187 4.38575 -0.275464 0.509245 -1.1906
2928 12.0344 6.83854 3.43853 -0.342101 0.827656 -0.302484
3833 13.9482 7.346 3.86666 -0.799215 -0.210936 -0.00749649
2234 15.6885 7.01188 3.22895 -1.00669 -1.81777 0.702772
329 16.7504 7.08061 3.9868 -1.73176 0.125615 -1.13824
1640 16.5571 5.98441 3.84974 -0.869602 0.932462 -0.546815
3745 0.819416 8.15658 4.0797 1.63126 -0.0111033 1.88066
377 2.14811 7.96353 3.67001 0.747659 -0.348537 -0.0905903
418 4.33863 8.13391 3.3832 -0.684087 -0.321501 -1.22418
2243 3.29043 7.90382 3.98889 -0.619663 0.791227 0.101131
2710 3.10085 8.90059 4.42319 0.581043 -0.365242 -1.08396
175 5.61864 8.75685 3.31968 -1.20581 -1.0371 0.307647
1381 5.11309 8.22362 4.10783 1.36969 -0.702808 -0.586532
14 6.58857 8.4185 3.07419 -0.882397 0.387188 0.42593
789 8.18789 8.21111 3.45336 -0.383207 0.186906 -2.002
1327 9.1201 8.1969 4.31536 0.161373 -1.12666 1.35616
1477 10.3226 8.66222 3.53316 -0.367439 0.971585 1.80946
926 11.5074 8.48994 3.48755 1.57438 0.543372 1.49985
126 12.1463 7.67378 4.0183 -0.586921 -0.63466 -0.430176
3944 12.6654 8.63178 3.92045 0.422973 0.746366 -1.84985
3153 13.4307 8.11088 4.4625 1.1628 -1.92208 0.970498
360 16.3416 7.91875 3.51869 0.388957 -0.572792 0.572017
227 16.0627 8.59079 4.21998 0.336128 -0.145487 0.206908
1976 14.9169 8.04982 3.45576 -1.75574 -2.73248 0.782732
3169 15.4691 7.58894 4.27362 -0.180759 -0.569465 1.00757
3582 17.6147 7.85149 4.0927 -0.88599 0.677938 -0.769893
1160 0.350685 0.804122 5.55879 0.0433524 0.37175 -1.1768
2600 1.42266 0.692206 5.91753 -0.789223 0.994472 2.37578
2840 2.499 0.721665 5.54991 1.6563 -1.49403 0.768986
392 3.01591 0.714802 4.65389 -1.20008 0.892993 -0.772564
3032 4.2903 1.10017 4.50137 0.389892 -1.68633 0.176638
2394 3.26918 1.46337 5.54184 -1.94898 -0.465352 -0.78956
3628 4.06049 0.0665917 4.64479 -0.9225 -0.789502 -1.22152
3018 3.36348 0.189363 5.62978 2.27936 1.40613 -1.24514
1362 5.44063 1.47368 4.6047 0.328885 0.682225 0.102039
2838 4.9985 0.647727 5.26318 -0.0844043 -0.425181 0.225252
652 5.6605 1.12858 5.83558 -2.53524 0.77828 -0.467486
453 6.40859 0.419192 5.69339 1.75606 -0.560427 1.24624
578 6.8965 0.359718 4.6404 0.242187 0.257165 -0.207298
1506 6.6833 1.384 5.09937 -0.635329 0.0515715 -0.330365
1782 7.53003 0.126233 5.48933 1.13502 -0.0374735 1.32477
1388 8.93777 0.734691 5.51108 -0.345167 -1.86361 -0.0483111
2705 7.58151 1.15516 5.76156 0.357408 -0.573017 -0.638588
2793 10.1684 0.72474 5.67284 -0.350446 0.288484 0.281342
57 9.69143 0.313944 4.83504 0.0495936 0.872553 0.410888
3214 11.8308 0.549222 5.58412 0.337455 0.233175 -0.376461
3638 10.9038 0.905892 4.95351 0.315652 1.42597 0.392376