ITEM: TIMESTEP
80000
ITEM: NUMBER OF ATOMS
4000
ITEM: BOX BOUNDS pp pp pp
0.0000000000000000e+00 1.7878070701931353e+01
0.0000000000000000e+00 1.7878070701931353e+01
0.0000000000000000e+00 1.7878070701931353e+01
ITEM: ATOMS id x y z vx vy vz
3603 0.611235 1.46514 0.285612 -0.0211034 1.00898 -0.887803
638 1.45677 1.43517 1.10519 0.380452 1.36984 0.442349
2353 0.0596668 0.812938 0.960885 1.18887 2.33692 -1.18099
706 0.903811 0.66474 1.45044 1.17575 -1.89751 -0.849661
2085 1.66935 0.590187 0.33912 0.679108 1.15681 1.52371
1643 2.12393 0.19401 1.17369 0.961908 -1.30624 1.12025
714 2.67937 1.06454 0.738984 0.695875 -0.248873 -0.776797
837 3.83979 0.689947 0.702647 -0.185053 -0.968828 -1.68204
1510 5.57083 1.14959 0.960039 1.64935 0.626307 -0.37992
2840 5.85541 0.119651 1.10023 1.31236 0.316874 -0.991358
3477 6.69082 0.998017 1.08734 -0.311178 -0.123562 0.422058
3235 7.29085 0.00388798 1.1918 -1.12339 0.63432 0.494376
3130 8.02429 0.727496 0.985694 -0.288947 1.80862 -0.236743
2435 8.69443 0.23287 0.180972 0.214807 -1.03872 1.19761
2556 10.003 1.10918 0.165835 -0.537232 -0.19088 -0.703605
2468 9.01613 1.11439 0.772551 -0.967567 1.46292 -1.1768
1289 9.74348 0.0970795 0.271731 0.622688 -1.95864 -0.523409
1651 11.7042 1.32643 1.24551 1.2814 -1.05741 -0.910184
3168 10.9461 0.678861 1.00196 1.61227 -0.255611 0.0531061
2730 12.8488 1.12293 1.38374 -1.35938 -0.299796 -1.29193
1411 12.0954 0.284368 1.28358 0.622435 -1.50693 0.0892552
3523 12.7843 0.0253157 0.527204 0.519755 1.82377 2.02178
3443 12.1096 0.776018 0.17327 -0.827332 -1.9545 0.566485
1292 14.806 1.2924 0.00333642 1.12437 1.18717 -1.59314
1730 13.7665 0.796664 0.699151 0.763052 0.260282 -0.625867
2080 14.8152 1.01199 1.39123 -1.20333 -0.540967 0.298791
2473 15.8289 1.14028 1.27816 -0.024292 0.00139972 -0.855935
3343 15.872 1.46779 0.123135 -0.858798 -0.520145 -1.80525
2429 15.0225 0.146652 0.755899 -2.62613 -0.45789 -0.192035
2632 16.095 0.22215 0.431501 -0.879321 0.441283 -0.197115
2692 16.9243 0.881133 0.761094 -1.08561 -0.0192095 1.60052
2172 0.0140167 2.93142 0.695181 1.28515 1.0749 0.742669
2522 0.948639 2.61689 0.420941 0.624872 0.220037 -1.33796
3489 2.47934 2.21562 1.0621 0.020667 0.293047 -0.567559
3329 2.21655 2.97263 0.449099 -1.04485 1.24338 0.00930403
3854 1.84231 1.95118 0.210607 1.59807 -1.35128 -0.879247
2870 3.54574 1.8112 0.983936 -0.787637 -0.37772 -0.51028
1290 3.39324 2.4011 0.100708 -0.103338 0.324521 -0.628584
691 5.81405 2.07458 0.697519 -0.221273 -0.0629092 -0.806638
640 4.50989 1.95095 0.720965 1.10964 0.649602 2.60204
205 6.22235 2.80318 1.41794 0.120526 0.0846641 -0.394139
1973 7.2541 2.97476 0.147003 1.00069 -0.937572 1.25055
2735 7.07869 1.89753 0.463535 -1.16606 -1.14342 -1.33646
1926 7.24665 2.85613 1.16846 1.31577 -0.0556604 -0.376265
3914 8.53543 1.95089 0.0324584 0.768317 0.136687 -0.100519
1666 8.47126 1.90784 1.23696 -0.285507 0.184084 -0.503856
2452 8.40258 2.81693 0.743689 1.00268 1.40986 0.571383
3093 10.0073 1.51009 1.32173 -0.85454 -0.350628 1.85367
1131 10.1515 2.42364 0.712894 -1.72263 -0.0611765 -1.31557
913 11.8307 2.40173 1.07261 1.37641 0.912648 0.842371
1279 10.8157 1.61455 0.51947 -0.918454 -0.638202 -2.02023
3264 12.6 2.1967 0.360458 0.0637256 -1.61975 1.4333
1149 13.8527 1.72987 0.107475 -0.871799 -1.3851 -1.88389
3046 15.2077 2.01941 0.799344 0.0451267 -0.865878 -0.637839
3706 15.7789 2.95007 0.353479 1.65892 1.79549 1.0559
1329 16.5414 1.98022 1.40498 1.30408 0.400406 -0.47647
930 17.4355 1.82814 0.895691 -0.100579 0.168682 2.01806
3140 16.8431 2.37139 0.32603 -0.11948 0.0168451 0.826543
1096 1.01039 3.57626 1.02708 -1.70688 0.487018 -0.607845
2154 2.04266 4.06826 0.433466 -0.736966 -1.06467 0.609144
1894 2.89101 4.06571 0.934235 0.485955 1.82733 0.295955
2882 3.65263 3.2708 0.871785 -0.963255 0.319143 -0.455511
1038 4.12116 4.24081 0.150364 -0.522425 -0.903522 1.60723
3685 5.08881 4.42546 0.987742 -0.700617 -0.322726 -0.668701
2713 5.18014 3.01708 1.43782 0.582845 -1.06542 0.123586
2027 5.71544 3.34701 0.589269 -0.983032 -0.825533 -0.248741
2110 6.63823 4.00309 0.0974448 -1.79874 -1.18148 -1.02078
425 6.81033 4.20712 1.18767 1.91916 1.31138 0.707067
963 7.56983 3.71156 0.804881 0.527887 -2.13626 1.77829
3740 9.05488 3.81043 0.702383 -0.643704 0.495016 -1.78743
898 10.2172 3.42628 0.112173 0.0157248 0.419002 1.94774
3416 10.0678 4.40451 1.01286 1.48646 1.05681 -0.129447
3754 9.90812 3.36693 1.37761 0.471124 1.12486 -1.19351
3053 11.3614 3.03242 0.436575 0.709011 0.794227 -0.216234
3838 12.4493 3.41759 1.1912 1.6085 -1.21449 0.497528
1771 14.4307 3.43623 0.0111253 1.25223 0.388223 -0.783773
2979 13.6449 3.13818 0.579055 -1.09411 0.386805 1.13496
1060 13.9778 4.17731 0.639017 -0.146716 0.834498 2.25909
1313 15.0034 3.61922 0.930426 -0.646747 -1.1463 -1.54632
477 15.9255 3.11005 1.36054 -0.300115 0.56979 0.407866
2635 16.3364 4.15416 0.719582 -0.382208 -0.440268 1.83391
2968 16.9064 3.336 0.872437 0.247932 1.36635 0.0211054
883 17.6774 3.96345 0.349548 0.146487 1.23593 -0.267434
3300 1.09974 4.81166 0.192887 -0.111596 -0.272557 -1.62892
273 0.149687 5.03122 0.713446 -0.363903 0.276974 0.230459
699 0.911191 4.84367 1.41916 -0.348871 0.989634 0.561671
2147 1.17921 5.92002 1.08097 -0.404346 -0.343334 -0.455063
668 2.0929 5.14738 1.11389 -0.933263 0.183489 0.207339
1931 3.11172 5.70045 1.33551 -1.84456 0.6742 -1.41214
2852 3.16506 5.36045 0.1022 -0.254049 -0.822609 -0.302312
2723 3.75657 4.86415 0.875041 0.114843 -0.0630398 -0.997424
1366 4.10907 5.76944 1.03876 -0.70427 -0.691694 -0.0433072
1111 6.79745 5.61 1.43658 -0.134158 -0.268965 0.122304
3345 7.34438 5.85166 0.362834 0.146697 2.19675 -1.82669
2196 6.02949 4.70455 0.421783 1.39863 0.165988 0.546816
1611 6.27151 5.80097 0.136712 -0.800754 -0.911751 1.5903
256 8.78296 5.29405 0.838143 -0.608356 -0.32203 -1.18869
1972 7.85266 4.73436 0.894033 2.06485 0.261569 -1.18778
1406 10.1993 5.43685 1.01999 -0.890488 0.453637 -0.143687
1953 10.3626 4.8133 0.0115965 -0.673681 0.152666 -0.414978
1488 9.58764 5.48338 0.056154 -1.05913 -0.221808 0.0464954
501 11.2055 4.53619 0.559945 -1.46135 0.906609 -0.272842
549 11.377 5.56053 0.147183 -0.663076 -0.844 -1.74073
535 12.0185 4.8836 1.40836 -1.21041 1.98408 0.407152
1840 13.3823 5.14564 0.706931 0.182609 -0.367687 -0.888719
3478 12.3681 5.3201 0.546935 1.03414 0.731678 0.889192
1863 14.6983 5.48447 0.903499 -0.22199 1.1019 0.710201
789 15.0953 4.56622 0.530257 1.3454 0.0570469 -0.754113
181 15.5624 5.62043 1.37275 -1.06865 0.439367 0.792674
2396 16.049 5.12673 0.368791 -2.03898 -0.886935 0.0509214
2262 17.2174 4.90486 0.164995 1.8949 0.847828 -0.425923
2784 17.2453 5.91798 0.0213738 0.562659 -0.223559 -1.42201
3156 2.27219 6.15769 0.198742 -1.14008 1.7325 -0.104861
3574 1.79168 7.38102 0.834475 0.955225 0.886022 1.61187
3907 3.84094 7.0826 0.774474 -2.20599 0.296023 -0.374367
3587 3.47416 6.35128 0.201864 0.905028 -1.95844 -1.57845
3374 5.29674 6.052 0.554699 -1.23047 -0.315323 -1.35383
1354 4.93344 7.1258 0.756748 0.272568 2.24936 -0.555297
444 6.67155 6.62562 0.711463 0.0950387 -0.0164636 0.775802
1810 7.75931 7.40507 1.48562 1.0464 0.970171 0.182319
2847 7.78014 7.02328 0.604464 -1.29074 0.736752 0.440398
2212 8.43692 6.28825 0.57906 -0.213804 0.467904 2.10637
536 9.82792 6.8651 1.20873 1.68485 0.978475 -0.15286
544 10.0868 7.13279 0.129669 -1.15814 -0.875201 1.72136
385 11.3075 6.07101 1.0705 -0.294466 0.534899 -0.797956
481 10.4934 6.07854 0.147422 -0.0349115 -1.64575 -0.521419
2548 11.7611 7.19126 1.27563 -0.439086 -1.99001 0.631678
2187 11.0522 7.24987 0.495685 -0.499791 -0.688911 0.636504
1122 12.912 6.12099 0.373195 -0.260025 0.075636 0.283944
108 12.8182 7.33879 0.701413 1.27115 0.805725 0.597883
1388 11.9596 7.11061 0.220493 -0.545689 2.50326 -0.93158
3271 13.8928 6.45102 0.668309 0.566054 -1.11855 -1.10634
2038 15.1357 6.49714 0.766765 -1.40709 0.851463 0.162942
413 16.097 7.23153 0.953965 -2.2239 -2.2556 0.357731
2663 17.8262 6.11385 0.850811 1.9547 0.0246383 0.323098
2163 16.9268 6.68547 1.31539 -0.0937902 -1.37403 0.309933
2018 16.42 6.21869 0.55869 0.33969 0.0757411 0.125705
2167 0.341988 8.348 1.19356 -0.678962 0.538615 -0.241241
690 1.00234 8.24236 0.248444 1.05389 -1.37254 -0.0758674
3624 2.47831 8.21259 0.0688143 0.218248 0.206553 -0.284236
67 2.83359 7.89846 1.22055 1.06196 -0.240356 -1.22368
1992 1.72819 8.39998 1.16459 -1.01045 0.171672 0.465259
2813 3.3503 8.6907 0.692427 0.524699 1.50712 0.133037
28 5.90503 7.95665 1.17419 0.504975 -1.37049 2.18187
896 4.86897 8.08805 0.576616 0.669871 -1.63877 -1.03202
2482 5.7685 8.86053 0.519213 0.645402 -0.215457 -1.03907
1197 6.67036 8.51789 0.688021 -1.69195 0.271683 -1.55295
441 7.54952 8.83516 0.947993 -0.172347 0.939971 -2.33471
602 8.64572 7.71037 0.913548 -0.112857 -0.166817 1.59451
1659 9.64719 7.82916 0.878727 -0.369525 0.612385 -0.547013
1814 9.4639 8.77323 0.772415 1.66142 -0.589713 1.09128
128 10.6148 7.626 1.39233 0.803738 -0.683236 0.704518
3738 11.0057 8.23519 0.240128 0.160388 0.61442 0.11318
2851 13.4063 8.61769 0.224063 2.0018 0.123139 0.453476
1723 12.0627 8.09809 0.824692 1.15639 0.0488228 0.778938
2875 14.7227 8.58723 1.1945 0.04734 -0.425657 0.580667
3931 14.7597 7.66645 0.44255 -0.532464 -1.69166 0.946292
3573 13.8244 7.88731 0.837314 0.627246 1.23181 -0.39764
3357 15.5879 8.22377 0.800997 -1.44452 -3.94071 -1.56051
538 17.3644 7.7993 0.580511 -0.217342 -1.0066 -1.83282
3551 16.7134 8.4834 1.20719 -0.580415 1.01207 0.0743283
3109 0.103707 0.353677 1.9965 1.09628 -0.0204875 0.851475
3129 0.960757 1.11562 2.48753 2.01797 0.022006 0.476865
2604 1.90905 0.594931 2.17585 0.235548 0.261798 0.301352
363 2.06808 1.26412 2.94686 -0.227571 -1.48252 0.804536
2044 3.99766 1.03865 1.63707 0.109158 -0.396775 0.715454
3469 4.07095 0.384758 2.5696 -1.0356 0.67668 0.17872
746 2.9908 0.254011 1.96036 0.327281 -0.0527917 1.66557
1948 4.64063 1.21471 2.51929 1.58946 -0.371333 -0.614457
1919 5.02158 0.357583 1.86125 -0.60114 0.221859 -0.337276
1285 6.09207 0.793205 2.12831 1.1092 0.0630505 -0.724606
2823 6.96026 0.0626718 2.20061 -0.996142 2.26846 0.00955095
3019 7.94285 0.619231 2.3903 0.732335 1.69955 -0.380057
1694 8.69674 1.16377 2.00801 -1.78515 -0.563449 -0.568943
3668 8.66997 0.0728503 1.55401 -0.0476647 -0.407618 -0.158743
3232 9.59068 0.493038 1.54086 0.694539 -1.2929 -0.737574
3089 9.40411 0.487682 2.58265 2.70704 -0.777726 -0.332351
1480 9.36404 1.42951 2.91646 1.0277 -1.47542 -0.0048502
1115 11.1174 0.355949 1.92599 0.70189 -0.86711 -1.36429
2565 11.5737 1.16621 2.35314 -0.161213 0.719341 -1.26295
2927 10.5282 1.1694 2.11597 0.544745 -0.597163 -2.43807
1400 10.4743 0.0734603 2.80296 1.64146 1.41891 0.771251
2552 13.0358 0.812927 2.83961 -0.372664 1.67334 0.856198
1594 14.4119 0.091445 2.57136 -0.171041 0.450892 -0.573637
725 14.1232 1.10021 2.55022 -1.14777 0.948144 1.35144
719 13.5611 0.344294 2.00953 0.98208 -0.242875 0.186698
3379 15.6863 0.0570572 1.65448 -0.532832 -0.35266 0.0614132
64 16.1522 1.13399 2.33367 0.654754 -0.192251 0.22527
1483 17.2211 1.13331 1.80187 1.05185 -0.591123 0.588349
608 0.213942 2.867 1.64809 -0.79226 -0.554785 0.0690798
1271 1.24804 2.50832 1.88565 0.723816 -0.131807 0.194815
2775 0.0142761 2.64196 2.71819 -1.10809 -0.460507 -0.310691
3785 0.542986 1.84193 1.58512 -1.48315 -0.584609 0.146484
1055 1.93895 1.69931 1.94579 1.39196 0.694797 -0.92546
2740 2.40267 2.26156 2.87782 -1.67654 -0.951637 0.663759
1386 4.09964 2.45947 1.60228 -0.401912 0.396978 1.06024
3656 3.09402 2.68859 1.97872 0.165982 -0.741235 0.977787
1589 3.17673 1.63546 1.89275 -2.06538 -2.49745 -0.141238
2849 5.35315 2.13401 2.10729 0.621679 0.210339 0.167214
10 6.41257 1.9011 1.80643 -0.921295 -2.25096 0.802168
2671 6.9228 2.85416 2.28006 0.671887 -0.162224 -0.48472
1150 7.17483 1.77384 2.68032 0.720071 -1.8103 0.622023
906 7.52539 2.10754 1.74134 -1.02133 0.830766 1.34438
1918 8.28813 2.15672 2.44628 0.171342 -0.867822 -1.54498
465 10.0936 2.29884 2.21996 -0.757025 -0.753318 0.510298
2996 9.09688 2.719 1.77848 -0.771563 -1.6129 -2.31571
2535 11.0072 2.02337 1.678 -0.216754 -0.252632 0.0672472
1196 11.9078 2.24136 2.19355 -1.3441 -1.57757 0.0170973
2134 12.9486 2.43486 1.60019 0.476758 0.598319 -1.50896
1124 12.8095 1.66978 2.39739 -0.750411 0.637986 -0.258105
1539 12.5816 2.5801 2.88393 0.800312 -0.610109 0.556294
2907 14.3675 1.99082 1.552 1.72294 -0.435816 -0.831864
1640 14.6403 2.57377 2.5824 -0.00697545 1.28617 0.589043
3081 15.6069 1.96689 1.94567 -0.469444 -0.854105 -0.121496
2421 15.8257 2.95045 2.48515 -1.0485 0.197638 0.310703
1051 16.801 2.1753 2.61659 1.13496 0.392696 0.537225
3965 1.34567 3.09988 2.90197 -0.410997 -0.128962 2.2841
3717 0.00792075 3.68959 2.34383 -1.13757 0.455868 0.05284
2345 1.07041 3.85861 2.07541 -0.712333 0.314031 -2.15199
1537 2.24376 3.06379 1.61161 -0.869098 1.38122 0.0988486
1014 1.97113 4.09444 1.5408 0.349496 0.0796617 -0.367383
2295 2.34105 3.3571 2.93261 1.42195 0.784336 -1.58351
3975 3.16524 3.81349 2.31791 -0.241557 1.92445 0.976414
555 4.4052 3.11216 2.39506 1.16996 0.377896 -0.870034
3208 4.10057 4.24214 1.99423 -0.588293 -0.281379 -1.47206
125 5.78548 4.32621 1.69258 0.0816433 0.546213 -0.42193
2895 5.89388 3.28951 2.49301 0.104141 -2.36227 2.09713
3679 6.92036 3.89508 2.67864 0.532724 -0.902391 0.852018
1192 7.60568 4.3752 1.83718 0.840961 0.541782 0.919577
3431 8.08349 3.38684 1.878 0.535026 2.03311 -0.355721
2793 8.5431 4.19642 2.53213 -1.31525 -0.11432 -0.39216
434 7.72015 3.22937 2.86276 -0.979319 -2.06006 1.07666
823 9.58564 4.19237 2.87438 -0.986688 0.508837 0.750853
3361 10.1423 3.16043 2.89334 0.122358 -0.260802 -0.859049
1756 8.95626 3.2865 2.63389 -0.256753 -0.0568274 0.0573586
296 10.5582 3.91994 2.04095 0.950148 -0.0215921 0.533729
1259 11.5391 4.29557 2.1865 -0.581588 0.14897 -1.54922
3319 11.0778 3.02248 2.02797 -0.85035 -0.636185 -0.89901
3995 12.0447 3.30304 2.18756 -1.92156 0.103211 0.28038
102 12.7257 4.14666 2.14108 -0.603675 0.232609 0.100722
3419 13.4973 4.14357 2.82461 0.351673 -0.0992715 -0.45395
786 14.3047 3.12199 1.57673 0.119037 0.458596 -1.20282
3145 14.3456 3.5923 2.49237 0.614158 -1.41971 -0.441762
1617 13.4135 3.10562 2.34772 -0.663506 -0.951741 0.959256
2910 13.4312 3.84329 1.54382 2.01427 0.446158 0.997433
1135 15.4977 3.97343 1.98922 1.27345 0.412516 0.760862
1074 16.7806 3.08615 2.01901 -0.280482 0.0907033 0.766807
800 17.8083 4.27036 1.52461 -0.988309 -0.134729 -0.869823
3388 0.488691 4.5644 2.79811 1.17279 0.58311 2.19147
3641 2.11347 4.66037 2.35926 1.33705 -0.355526 1.16469
3727 2.33932 5.92745 2.67093 1.64336 -0.102853 -0.813498
1550 5.74146 5.90294 2.25833 -1.34893 0.152594 1.27681
2138 4.87664 5.13723 2.36007 0.485414 -0.9418 -0.316144
140 6.55602 5.01881 2.2443 1.48967 -0.723626 -0.491919
2712 7.63618 5.34266 2.37541 -1.39737 -0.341048 0.969843
3064 8.68802 5.23836 2.74097 0.398987 1.08348 -0.663936
2374 9.21779 4.61682 1.8493 -0.547454 0.0337782 0.0861609
3084 9.57922 5.75126 2.33236 -1.25512 -0.61007 0.446624
893 10.68 5.63589 2.2605 -0.361262 -2.27579 1.73567
1820 10.6971 4.57443 2.90952 0.440609 -0.286348 0.07757
2747 12.2733 5.93063 1.52403 -0.920183 1.0528 0.339424
2873 12.9878 5.02822 1.64598 -0.147085 0.294817 -0.840422
729 12.2625 5.04514 2.46274 0.209439 -1.7905 2.21685
1861 14.2541 4.51705 1.63719 -0.994655 0.185423 0.518729
3640 13.991 5.72979 1.57943 -1.43696 0.258645 0.0624222
667 13.7933 5.14853 2.46659 2.48359 -0.433421 0.211661
2881 16.1225 5.00234 2.06339 0.820837 -0.28562 -0.365829
575 14.9643 5.12412 2.10812 0.111032 0.188512 0.84136
741 17.2201 4.72153 2.54525 -1.02869 -1.52245 0.199488
3976 17.2752 5.36557 1.50548 1.09047 1.03035 -0.196871
3886 0.914069 7.27904 1.5813 -0.21259 -0.277415 -0.782052
354 0.975217 6.07144 2.03847 0.307451 1.06728 0.246322
869 1.4529 6.76053 2.8185 -0.294153 -0.848616 0.616681
1828 2.3438 6.75282 1.61013 -1.90308 -0.318214 -1.06761
528 3.86111 5.98775 2.06039 -0.26137 0.881559 0.843064
2780 3.99563 6.94142 2.02268 0.85795 -0.509567 -1.82339
1892 3.07668 7.44399 2.10807 0.866547 0.352047 -1.20425
708 4.89247 6.31795 1.57641 0.593938 0.656006 1.6206
499 5.73548 7.37808 2.09839 1.60983 0.678359 0.984892
2205 4.77547 6.2082 2.65067 -0.691229 -0.46078 -0.169279
1803 5.74108 6.76608 2.86719 -0.286244 -0.686479 -0.401699
1309 6.81655 6.60912 2.46433 1.22395 -0.414858 0.807728
420 6.78077 7.33058 1.63768 0.325202 -0.616317 1.34909
3820 7.86077 6.56293 2.2406 -0.903812 1.01356 0.192316
3092 9.23502 7.10673 2.46095 -0.290991 -0.470714 -1.71911
280 11.0707 6.83921 2.2023 0.552985 0.112267 0.555172
791 12.0909 7.07497 2.70341 1.65065 -0.860642 0.758705
436 12.6191 7.10427 1.76631 -1.92844 -0.603529 0.407627
234 13.1807 6.0936 2.01166 -0.672384 -0.0930031 -0.782985
696 12.1652 6.07723 2.82041 0.481713 0.735118 0.455122
1095 14.0647 6.94509 2.36098 0.944573 0.853834 -0.566867
722 14.7983 6.27644 1.98035 0.282369 -1.68363 -0.961657
262 15.8483 6.521 1.86965 -1.58575 -0.540146 0.576142
3637 15.2092 7.28279 2.30886 0.343445 -0.776507 0.369842
2803 15.9735 6.54817 2.93989 0.736741 -0.71394 -0.696808
392 17.7398 6.72282 2.04592 -0.960761 1.92242 0.0925489
1663 16.8099 6.02984 2.28867 0.582513 0.237405 -0.443987
2431 16.7776 7.10366 2.76505 -0.731435 -0.919592 1.02337
489 0.884473 8.51418 2.12841 -2.25233 -0.86524 -0.0713449
3777 0.640902 7.52748 2.49398 -1.60527 0.0164769 1.71426
740 2.11193 8.05457 2.69242 -1.22747 -0.41163 -0.319641
908 2.78006 8.67917 2.16718 -1.2065 0.500633 0.24987
3159 3.79256 8.21432 1.76064 -1.11317 0.557067 1.11927
3759 3.43918 8.07306 2.78468 -1.03649 -1.74268 2.06484
3971 4.5396 7.61815 2.61562 2.01736 0.361904 0.328866
742 4.89917 7.90655 1.53257 0.829652 -0.72761 0.418996
1233 6.44943 7.70132 2.80005 -0.740044 -1.1878 0.919185
2947 6.58044 8.87976 2.21889 -0.347823 0.682806 0.645185
3866 8.87688 8.00331 1.87515 -0.800851 -0.873888 -0.469606
20 7.5267 7.50957 2.75931 0.409851 0.860963 -0.460806
936 7.82575 8.33148 2.15821 -0.063912 -0.75566 1.8824
3696 9.73239 8.51495 1.8853 0.111746 0.201188 -0.191632
405 9.58791 8.046 2.92831 0.412914 0.84931 -1.25739
1908 10.7186 8.06361 2.42887 -1.21362 -0.854886 1.34684
1770 11.7381 8.19193 1.99147 -0.54236 0.154726 0.562316
1022 10.7942 8.69184 1.4933 -1.90648 -0.414163 0.152332
3106 13.3958 8.69086 2.35302 -1.62115 -0.62679 -1.21726
318 12.6597 7.99454 2.74251 0.584235 -1.89353 0.179693
808 13.5135 7.6824 1.97335 -0.225788 -0.911786 -0.509324
502 14.5682 7.60378 1.56906 -0.907825 -1.21453 -0.48561
3324 15.476 8.37261 1.86571 0.244573 -0.251382 1.42935
2416 15.0798 8.40645 2.87287 -0.243201 0.512336 1.83584
95 16.4055 8.501 2.46956 -0.630041 0.242421 -0.723884
3008 17.4817 8.07605 1.97759 -1.09511 2.05641 -0.645926
3117 16.4522 7.58234 1.95963 0.568654 1.78222 0.963881
258 0.223608 0.0725821 4.16978 0.31141 1.21186 0.453279
2303 2.22153 1.14199 4.29835 -0.863359 0.844648 -0.245246
662 2.88892 0.460934 3.32858 -0.767404 -1.02228 -0.400884
90 1.73963 0.131553 3.3022 0.0954271 0.208877 -1.51335
2594 3.48872 1.27376 3.08844 -0.274578 -1.32961 0.450979
1213 3.71615 0.21414 3.62574 -1.27394 0.395665 0.535215
2718 3.50205 1.12828 4.12693 0.676838 -0.970624 -0.960024
1234 5.0764 0.204938 3.03688 0.460942 -1.60619 0.721639
395 5.93953 0.778707 4.15113 0.768 0.297899 -1.53213
1291 4.63536 1.08128 3.51585 0.713017 1.02612 0.818387
177 5.96027 1.33583 3.15631 0.258473 0.963402 -0.40371
1776 6.13161 0.129678 3.32411 -0.328801 -1.53707 -0.347334
3905 6.92758 0.771893 3.16547 -1.13131 -0.422433 -0.360569
2065 7.90558 1.27083 3.29997 -0.650101 -0.281771 0.93967
1286 8.42977 0.392888 3.76717 -0.4722 -0.0892202 -0.674288
604 7.66147 0.507255 4.45456 -1.32461 0.41192 -0.64061
554 9.6461 1.00148 3.82284 -0.462612 0.899089 -0.564692
3749 11.5472 0.039492 3.17349 0.654938 0.39896 -1.63457
3015 10.8325 1.01432 3.1658 0.578609 -2.15275 0.190226
3377 10.5068 1.3198 4.3548 -0.0580942 -2.27687 -0.541265
1100 13.3677 1.29934 4.43104 1.02131 0.498515 1.49797
686 14.6714 0.442467 4.39945 0.0970778 -0.222634 0.694252
3201 14.6149 1.27842 3.70487 -1.11373 1.39346 0.477156
2897 13.8362 0.365025 3.8133 0.558143 0.0539715 -1.45701
2469 15.112 0.670658 3.02246 -0.193075 1.99048 -1.69513
446 15.6669 0.838065 4.14223 -1.27995 -1.82509 -1.44769
3762 16.9963 0.0340293 4.00071 0.472139 -1.07758 -1.79606
2199 17.1159 0.720936 3.2597 0.100426 1.64693 0.410353
3167 1.19458 2.04716 3.09334 -0.835758 -1.35547 -0.149596
556 0.773309 2.17907 4.25818 0.401833 1.15369 0.512676
3967 2.8111 1.82987 3.6882 -0.360738 1.54486 -1.62901
781 1.90123 2.12683 4.09691 0.831947 -0.276048 1.55178
2969 3.24678 2.91846 3.19564 0.75032 0.934467 0.600891
564 3.89803 2.20881 3.95143 0.304061 0.690992 0.670942
1610 5.27459 2.12983 3.31906 -1.8189 -0.656214 -0.896943
583 4.81088 1.77822 4.16622 0.160613 -3.02463 -1.64068
2238 6.93768 1.75035 3.93809 1.99778 -0.577108 1.17666
1241 6.69419 2.67777 3.35672 -1.97425 -1.15013 0.197938
349 5.98414 2.23829 4.06901 0.724434 -0.450455 0.0915316
498 8.30877 2.49184 3.69116 -0.481824 -0.0153165 -0.919702
2157 10.0868 2.12982 3.44858 0.182706 0.245948 0.625947
3821 10.1877 2.87838 4.3882 1.56392 1.33184 1.23427
3033 9.55013 2.08147 4.43416 -0.101149 -1.28382 -0.301243
2623 11.0262 2.06386 2.98106 0.154843 -0.726794 -0.536798
222 11.0464 2.67234 3.90547 -0.396247 -0.688586 -0.801562
3099 12.2619 2.61699 4.0306 -1.62728 0.507238 1.2546
350 12.0765 1.67668 3.35758 -1.51203 0.0829555 1.50104
3282 13.7355 1.71264 3.22521 -0.708262 -0.749632 0.149351
3086 13.8469 2.9494 3.52116 0.695677 -1.26055 -0.743716
3578 14.2836 2.15268 4.3284 0.61852 0.409243 -1.74701
1475 15.2799 1.80529 3.15815 -0.359577 0.143618 0.633077
226 15.0401 2.80125 3.52741 0.390114 0.188836 0.716075
435 16.3244 2.54109 4.45804 -0.452685 1.17354 -0.240103
1742 15.4313 1.84792 4.23114 -1.10007 1.49642 -2.12049
3510 17.7972 1.63252 3.12306 0.988474 -1.00292 1.04746
2201 17.479 2.51013 3.90869 1.14501 0.115506 1.38922
3625 17.3834 1.652 4.29488 0.136679 -0.51012 0.979162
3164 16.441 1.75561 3.81431 0.7191 0.247792 1.43914
351 0.157047 3.55419 3.74831 0.920353 -2.7299 -2.34654
2618 1.31469 4.09355 3.34204 0.0266808 -1.10986 0.396165
1762 1.41172 3.39176 4.10841 -0.263728 -0.187481 -1.53032
3009 2.89479 3.71777 3.98394 -1.12434 -0.426974 -1.21239
2078 2.4199 4.3936 3.30778 -0.0635131 -0.177761 0.00262372
3260 4.06328 3.88636 3.13291 -0.852299 1.89195 1.1247
3226 3.71203 4.32798 4.1036 0.727093 0.355825 0.815965
2227 4.69305 3.82877 4.30269 -0.675914 0.207351 -0.560425
3721 4.71403 3.14159 3.49311 1.19941 -1.52601 -0.469267
462 5.54346 3.1602 4.11521 0.658139 -0.205901 -0.808631
3809 6.28713 3.68174 3.70999 0.688927 -1.72128 -0.330615
1262 7.29785 3.28208 3.86081 -0.303784 0.358615 -1.18978
3333 8.29918 3.67014 3.70159 -0.0175991 0.544997 -0.75683
3476 9.64782 4.21352 4.05839 0.145716 1.45575 -0.581601
2553 9.17282 3.21724 4.08521 0.605395 0.0960934 -1.23142
3001 11.6243 2.99355 3.11408 0.21473 1.19058 -1.7411
2060 11.8221 3.73033 4.12494 1.89738 0.346941 0.152104
1023 10.9006 3.65705 3.79087 -0.414224 0.0402904 0.82701
2786 13.2817 3.47968 4.26624 -0.347828 1.20889 -0.79738
1835 12.5286 3.79535 3.09435 -0.110887 -0.430875 -0.602931
34 13.882 4.20622 3.79619 0.89125 -1.72803 0.111821
2209 16.0069 3.36232 3.74811 1.35868 0.0521788 0.123043
1211 15.1482 3.84039 3.15743 0.867332 1.71316 0.129095
2624 16.0797 4.31523 3.01588 -1.63711 -0.750168 0.69666
3424 16.8272 3.10083 3.0534 -1.57402 0.629963 0.0322443
1438 16.6988 4.15475 3.87614 -1.35259 1.23622 -0.490067
1605 1.44063 5.03271 3.23947 -0.509089 1.18824 1.23728
1387 0.49396 4.58662 4.16932 -0.800507 1.26874 0.299594
2962 2.13419 5.57928 3.76761 0.593864 0.114044 1.18372
1062 1.50506 4.5853 4.29123 0.380496 0.105478 -0.568814
2629 2.89927 4.78577 4.33619 0.844336 -0.418318 -0.101491
242 4.13712 5.43938 3.00316 1.77765 -0.746215 0.184424
3371 3.11688 5.04766 2.99509 -1.04251 0.586 0.861112
1257 5.27495 4.47456 3.09439 -1.86948 0.83536 -1.17514
1823 4.60249 4.93598 3.83182 -0.428903 0.00471153 -0.016192
2683 5.41051 5.77613 3.33837 1.27892 -1.21504 0.608906
3889 5.57787 4.47533 4.10629 0.850873 -0.480518 -0.519681
343 6.43077 5.82396 3.27778 0.894169 -0.221606 0.941439
825 7.10762 5.8771 4.25836 1.21716 0.538206 0.815496
220 6.40134 4.66405 3.39297 0.0972197 -1.4049 1.13314
689 8.0876 5.66409 3.55409 -0.537221 2.25685 -1.02061
208 7.75139 4.60191 3.01761 -0.697196 0.890989 1.32554
754 7.45234 4.88195 4.03208 -0.0115621 -0.650321 -0.482772
428 8.78369 4.92327 3.85734 0.822197 -1.01433 -0.860249
1358 10.3344 4.92654 4.38353 0.115152 -0.863292 0.91397
2972 9.86679 5.1788 3.20317 -0.255189 0.727891 1.12263
1381 9.10863 5.86713 3.4954 -0.713036 0.85355 0.620187
1802 10.2734 5.79746 3.89726 0.814348 -0.36905 -0.625783
120 11.6659 4.47791 3.21911 0.218008 -1.72989 -0.667017
3592 11.3521 5.30727 4.30688 0.726305 -2.15641 0.48087
3882 12.7533 4.56832 4.0085 0.759171 -0.242788 -0.236781
2949 13.0065 5.62669 3.09016 0.89238 1.61936 1.59396
2088 13.363 5.91076 4.15043 -0.221767 0.644578 0.80129
1237 14.1392 5.59726 3.57084 1.29884 1.53806 0.802451
279 14.5656 4.67582 3.07985 0.0147583 0.869628 0.264868
364 14.7955 4.75658 4.12046 0.954437 -0.816238 0.00110042
190 15.9824 4.90542 4.16893 -0.542599 -0.347947 0.360068
2277 15.6951 5.84284 3.91394 -0.39264 -0.862336 -0.707394
153 15.5601 5.24756 3.06654 -0.332675 0.084672 -0.922451
2682 17.6633 5.55881 3.69947 0.151428 0.382652 -1.26386
697 16.6937 5.08248 3.40995 0.748323 -0.891366 -0.836845
522 17.2764 4.87639 4.40878 1.85433 0.149221 -0.122946
1844 1.09517 6.10563 3.90867 -0.184346 -0.759447 0.547532
1636 0.10505 7.42505 3.68126 -1.10276 -1.05686 0.529081
736 0.474444 6.46255 3.11814 -2.02148 2.10786 -2.78293
2669 1.24681 7.17934 3.91135 -1.2195 0.268644 -0.644735
3703 2.38237 6.74057 3.62769 -0.443257 0.356609 -0.0244397
2739 3.51938 7.07243 4.36265 0.545275 1.72561 -0.325493
2495 3.33721 7.15246 3.31296 -0.716466 1.1687 -0.100641
2198 3.32415 6.17294 3.05795 0.742707 0.0466084 -0.396421
1541 4.29438 6.4274 3.70018 0.289603 -0.627147 0.26158
427 3.16509 5.96726 4.07293 -2.40937 -0.0626045 -0.482365
372 4.7896 7.32566 3.62691 0.703848 -0.157121 0.844535
1282 5.6447 6.91248 4.12743 -0.318554 0.335506 -1.21807
43 7.26365 6.59811 3.49785 -0.847997 -0.265123 0.362101
3927 8.51256 6.79423 3.23084 -0.565195 -0.18376 -2.68459
3898 8.21908 6.30047 4.35564 -0.639677 2.83423 0.0821746
2331 9.97153 6.45895 3.12329 0.156292 0.0825679 -1.24839
856 9.61458 6.76705 4.20709 -0.625933 -0.452508 0.0386926
3330 11.1013 6.11567 3.07354 1.32529 0.210556 1.59163
389 10.8792 7.32989 3.12999 1.30844 1.23035 0.890374
2801 11.5425 7.22843 4.05147 -0.161635 0.812782 -0.59091
3266 10.7553 6.61016 4.33946 -1.68961 -0.707515 -0.848154
271 13.2817 6.82492 3.38553 -0.687486 1.30058 0.581975
790 12.2817 6.50848 3.78978 0.588716 0.6187 0.807492
2270 12.9476 6.99595 4.41018 0.651842 -1.31966 0.524285
772 14.7632 6.36241 4.33816 0.764164 0.237582 -0.393262
2141 13.8516 7.41429 4.16061 0.228716 -0.945823 1.06394
2351 14.9908 6.46358 3.06253 -2.60193 1.55889 0.478796
1109 15.7026 7.01548 3.76532 -1.14078 -1.4271 0.638579
1248 16.9287 7.03255 4.18504 -0.297914 0.96076 1.12627
1907 17.8148 6.38344 4.40845 -1.45762 -0.314731 -0.0795102
2014 17.2204 6.47055 3.39715 0.895258 -0.258543 0.442607
2563 16.7706 5.97209 4.17806 1.74781 1.16944 -1.11671
1392 1.01894 8.04465 3.3376 0.0676146 0.758943 0.545828
2467 0.348519 8.87012 4.40663 0.312477 0.195126 -0.0898538
1084 2.78911 8.06385 3.63779 0.225125 -0.53657 1.01022
3150 1.68368 8.07962 4.34765 0.301611 -0.64672 -1.09044
1134 1.91473 8.87612 3.47241 -1.06761 0.38385 -0.442669
2341 4.02084 8.33542 3.65618 1.1795 0.10159 0.521461
2833 5.904 8.01988 3.81426 -1.11355 -1.28461 0.231048
717 5.05068 8.47815 3.50752 -0.775738 0.442558 0.3476
1876 5.99717 8.84851 3.14256 0.916736 0.726004 0.297242
3811 7.15849 7.70914 4.27071 0.460204 0.235819 -1.23554
96 7.30785 8.55172 3.15383 -1.26497 -0.664253 -0.598581
2402 8.17544 8.57958 3.8255 -0.663449 2.35399 1.23425
2829 8.7391 7.7813 3.48981 -0.580972 2.08534 0.322967
955 9.68452 7.89119 4.45355 -0.269805 1.01328 -0.649993
3515 9.2084 8.69238 4.00726 0.691689 0.690093 1.15958
1801 10.2847 8.93067 3.73546 0.504115 0.919686 0.508201
1276 11.3089 8.40094 3.20991 -0.456987 0.185381 -0.477029
2373 10.7536 7.75518 4.22895 1.20455 0.364497 -0.623256
1077 13.1167 8.33948 3.8017 -0.926747 0.83793 -1.23312
669 12.4868 7.52409 3.6483 -0.244499 -0.862258 1.21048
360 14.8743 7.50943 3.2562 0.246183 1.26866 -0.244745
3982 13.8797 8.08202 3.15957 -0.55551 2.35376 -0.880708
1913 16.3505 7.93096 3.47225 0.462109 -0.0445862 1.085
2722 15.6685 7.98361 4.31957 -0.058736 -1.04369 -0.688601
337 17.3241 8.01687 3.10044 0.0677952 -0.737671 -0.585791
1690 1.8977 0.546711 5.78324 0.0587535 1.30709 0.363952
2965 2.96452 0.222976 4.73871 -0.680844 -1.19418 0.652425
3687 3.83499 0.370555 5.27739 -0.434435 -1.2311 -0.999523
873 3.02599 0.18275 5.79576 -0.129994 -0.169726 1.47636
2876 2.9945 1.38576 5.60866 -0.196464 0.34146 -0.207744
1054 3.96975 1.40804 4.93612 0.887164 -0.686006 0.44196
1070 5.52869 1.33573 5.57922 0.409158 -0.135883 -0.633813
311 4.66582 0.651096 4.50476 1.64036 -1.17234 0.148468
730 5.89623 0.325558 5.54832 1.59733 0.598552 1.1047
2590 6.76491 1.39477 5.71202 -1.94547 1.05254 0.610498
902 6.82448 1.11632 4.82356 -1.25327 -1.4381 -0.666934
2173 7.86703 1.47743 5.14773 0.0855693 1.66131 1.38147
2626 8.73556 1.08829 4.70596 -1.4038 -1.58144 0.457909
2662 9.01877 0.0489705 4.60224 -0.0458087 0.165435 0.0720028
2349 10.1595 0.0623166 5.83074 -0.570478 -0.773954 -1.3743
1303 9.12045 0.470312 5.75841 0.144132 0.00822808 0.672959
923 9.75391 0.815715 4.89923 0.57802 -0.929037 0.188643
1099 11.9126 1.18577 5.68863 -0.00753356 1.90122 0.0834147
3283 10.691 0.135364 4.79826 0.369335 -1.38264 1.11259
2136 11.4976 0.807378 4.52221 0.308418 -0.54014 -0.175398
2221 11.3641 0.06236 5.74951 1.05531 0.995542 0.647317
122 13.2111 1.28421 5.70293 -1.79095 -0.293874 -0.0382478
3468 12.503 0.544612 5.08126 1.02815 -3.21706 0.256787
1152 12.3368 1.39526 4.55373 -0.862572 -1.52752 -0.175063
904 14.1686 1.27693 5.2153 0.668344 -2.03115 -0.687118
3992 15.2413 1.03833 5.30716 0.505546 -0.100582 1.61541
871 16.5615 1.02162 5.12598 1.61373 1.29827 0.523491