ITEM: TIMESTEP
62000
ITEM: NUMBER OF ATOMS
4000
ITEM: BOX BOUNDS pp pp pp
0.0000000000000000e+00 1.7878070701931353e+01
0.0000000000000000e+00 1.7878070701931353e+01
0.0000000000000000e+00 1.7878070701931353e+01
ITEM: ATOMS id x y z vx vy vz
446 1.96791 0.551469 1.14423 -0.958235 1.72048 0.78124
3329 2.05329 1.37226 0.511406 1.3714 0.553832 -0.182162
330 3.33417 0.0635338 0.818365 1.02618 -0.954033 0.268252
661 3.40311 0.989751 0.114426 -0.179702 -0.0293927 0.372024
2537 3.72401 1.26356 1.01242 1.13267 -0.820953 0.764552
2320 4.72602 0.935915 0.186491 -0.543623 -0.0866865 1.68205
2433 4.52649 0.54561 1.32752 -0.255065 -0.852116 -1.29284
2369 5.6083 0.318268 1.22557 -1.41654 1.67917 -1.44586
2246 6.01613 1.30449 0.39651 0.222218 0.0688443 -0.749004
2487 7.04698 1.44745 0.892866 -0.275358 1.49304 -0.907709
1791 6.66851 0.314395 1.10484 1.09033 -0.0615418 0.708517
1333 8.90922 0.207953 0.471733 0.833282 0.326266 -0.372533
235 7.52848 0.168996 0.560462 -1.26725 -0.013815 0.0571236
2902 8.06459 0.88379 1.425 -0.305328 0.408429 -0.565994
1417 9.62628 1.18279 0.6988 0.229197 -2.28909 0.712475
3435 9.94414 0.288886 0.32103 0.806979 -1.21761 -0.439352
585 11.7642 1.37683 1.30384 0.261664 -0.448177 -0.745652
3289 11.4019 0.47681 0.72433 -1.25463 1.63124 -1.03961
3693 12.6914 1.12297 1.10309 1.07049 -1.03086 -0.793213
2870 13.342 1.27642 0.234641 0.168514 -0.131579 -0.594973
2535 12.1398 1.43345 0.166131 -1.96413 -0.139662 -0.944712
290 12.756 0.440204 0.210058 1.8225 0.867128 0.999318
741 13.697 1.38027 1.25095 0.184463 0.780621 -0.424219
156 14.6172 1.03098 0.411677 -0.0490091 0.617947 0.333368
3762 13.6559 0.414739 0.967229 2.31971 -1.29924 0.67152
2584 15.1141 0.833912 1.26829 0.0209495 0.724871 -1.45997
3697 16.3678 1.37283 0.920344 -0.624948 1.17943 0.0470933
3832 15.5806 0.487627 0.358059 0.254205 1.12746 1.07142
3300 16.6263 0.318846 0.675239 1.60126 0.355852 -1.36351
3784 17.3576 1.13066 0.534992 0.573921 0.204508 0.632403
3547 1.27059 2.60524 1.28177 -0.123644 1.3872 -2.69521
1985 1.05169 1.77859 0.715463 -1.23998 0.701807 1.49253
3751 0.659728 2.86515 0.14096 0.686007 -1.68299 -1.20395
277 2.44675 1.99711 1.2144 0.631092 0.503121 -1.33132
880 1.78684 2.30415 0.147587 -1.59048 -0.260836 -0.279682
2159 4.18432 2.38017 0.327452 -0.529173 -0.0849765 0.243195
3103 3.08986 2.04447 0.382534 -0.725743 -1.32627 -0.142394
3471 5.04737 1.73147 0.818413 -1.06841 -0.344428 -0.299675
2684 5.09218 2.93127 0.538993 0.180895 1.45929 0.358458
966 4.51761 2.50081 1.32284 -1.72177 -1.6163 -1.77991
774 6.75165 2.69665 1.14187 1.42339 0.927725 2.09892
3688 6.70219 2.20554 0.102388 -2.73272 -0.513276 -1.56334
3070 7.91742 2.78996 0.994321 1.0097 -0.228604 -1.06538
2232 8.43208 1.91913 1.33226 -1.29275 -2.67262 1.00407
1256 7.80842 1.77977 0.110909 -0.145935 -0.0110284 0.377397
182 9.4976 2.68611 1.27033 -0.186323 -0.115373 0.248761
2187 10.2964 2.96408 0.611682 -0.632197 0.254137 -0.391477
2051 9.01278 2.50218 0.35367 -0.668474 1.10554 0.358158
501 8.95517 1.49457 0.00429168 -0.21513 0.0258663 0.53992
859 11.3585 2.42905 0.010321 0.815349 1.32998 1.36525
3836 10.9115 1.9152 0.970866 0.883054 -0.103149 0.55733
298 12.9535 2.12825 1.12888 0.287622 -0.60069 -0.726976
3132 13.4796 2.46153 0.317439 0.145274 -0.320131 0.976072
952 14.0264 2.6022 1.24601 0.567272 0.584133 -0.805598
608 16.1755 2.3076 1.24395 -0.745879 0.523845 2.08871
1082 15.0726 1.99603 1.11907 -0.47105 0.0812303 0.315701
1865 15.8878 2.81042 0.32823 0.0265155 1.5678 0.927858
49 17.3708 2.64917 1.24591 -0.591931 -1.1757 0.252776
1393 16.8914 2.21456 0.313387 0.802006 1.61342 0.206937
2765 1.28704 3.86587 1.29856 -0.674264 1.28339 -0.131148
1031 0.457763 4.32593 0.731939 -0.36889 0.598988 -0.270813
1273 2.85201 4.0126 0.225275 0.290533 0.653427 0.0477584
804 1.96958 3.26278 0.434902 0.543052 -0.691734 0.521181
3405 1.91602 4.3259 0.622863 0.751458 -0.970271 1.73086
3607 3.50867 4.16076 1.47649 -0.0286434 0.169783 1.85016
3992 3.09046 3.32523 1.00859 -1.44408 0.603547 -0.52395
1014 3.57506 3.19166 0.0367674 -1.08384 -0.419121 0.0932068
1767 4.53331 3.73661 0.995335 -0.467476 0.860723 -1.28784
2143 5.81184 3.82002 0.624932 2.01091 -0.755624 0.771139
3254 7.0362 3.71544 1.04902 -1.20702 -1.25914 1.18295
429 8.2195 3.76884 0.705192 2.04374 -2.08501 -1.0474
1376 9.99736 4.04849 1.20041 0.224678 -0.214893 -0.129985
2716 9.50354 3.57163 0.422005 -0.617522 -0.0940707 1.43017
1655 11.2972 3.79279 0.458781 -0.11752 -1.15601 -0.20339
2628 11.971 3.10608 0.861159 -0.570693 -0.285796 -1.63827
2374 12.6798 4.19576 0.746885 -0.622343 1.26201 -0.229669
474 13.1578 3.35233 0.775662 -1.08266 0.74586 -0.0447246
387 14.3448 3.86506 1.35531 -2.08822 1.17065 -0.54009
683 14.6141 4.26608 0.429902 0.711736 -1.26741 -1.15481
758 14.8291 3.11159 0.758292 -1.2449 0.599644 0.416586
3747 13.9023 3.29966 0.0288689 0.659176 1.71556 1.68479
2069 15.9765 3.30599 1.17354 -1.09902 -0.491118 0.879504
2473 15.7945 4.39682 1.16204 -1.56009 -1.84568 -1.88011
2359 16.0886 3.80752 0.0195668 -0.577037 0.392351 0.179668
61 17.5469 3.38653 0.640459 -1.28282 -0.93373 0.721119
2472 16.8603 3.59756 1.43519 0.503453 0.91359 0.486113
102 17.5515 4.28284 1.47236 -1.04915 1.13882 0.377615
3752 16.9689 4.45544 0.30781 0.589286 0.326756 0.471131
1059 0.812323 5.84335 1.30591 -0.962454 -0.0722947 -0.183241
276 1.06662 5.14117 0.0135054 1.3296 1.09779 -2.18877
3720 1.29032 4.929 1.17568 0.641954 0.961472 0.0503303
538 1.95032 5.60373 0.464262 1.12475 0.165232 0.704156
2510 2.50599 5.61942 1.3872 -0.459681 -1.43108 2.0971
3759 2.94461 5.92925 0.0304694 -1.33962 1.56057 0.831354
1318 4.1882 4.62459 0.655741 -1.12141 0.583975 -1.43217
1316 4.27328 5.67629 0.552066 0.321416 0.53646 0.290893
3940 3.21059 4.98315 0.739322 0.301487 0.792005 0.43616
3476 4.97933 5.54585 1.33445 -0.826309 -0.0500947 -1.16123
309 5.10737 4.94373 0.454869 -0.305721 -0.371148 0.0190924
3809 7.00568 4.84126 0.559263 0.53501 0.129243 0.222456
2029 7.13004 5.61223 1.34419 0.944895 1.43297 0.619571
3967 6.35933 4.47439 1.23073 0.527588 -0.0896478 -0.0294173
3081 7.99607 5.32733 0.894667 1.8371 0.526479 -1.14437
3914 9.2861 5.45159 1.28563 -1.00202 -0.0919066 -0.564671
1806 9.99349 5.23145 0.236862 -1.70833 1.01731 -0.538435
1348 11.8104 5.59611 0.987351 -0.360246 0.502103 -1.12262
1731 10.5454 5.50199 1.01345 -1.46218 -0.127389 0.149506
1823 11.2443 4.84264 0.625736 -1.87461 0.662143 0.460566
3092 12.9154 5.49862 0.800234 0.153572 -0.449851 1.40414
1126 13.6784 4.48944 0.636056 0.951738 0.0348815 -1.61641
2009 13.9294 5.59491 0.766167 -0.323048 -0.253589 -0.116984
2563 15.5057 5.62443 1.24074 1.34915 -0.510962 0.355771
2345 16.074 4.93061 0.0263268 1.08019 0.0809639 1.48409
3129 16.5629 5.21489 0.898678 0.539356 -0.611406 0.542517
3721 17.7108 5.0602 0.758194 1.04045 0.341946 0.178088
2622 0.919861 6.76349 0.0350184 0.55451 -0.464234 0.458583
2467 0.193826 6.63787 0.780356 -0.203021 0.496994 2.8445
3798 1.18903 6.76266 1.08113 -1.30001 -0.0141482 0.742251
1427 2.3398 6.53446 0.83283 0.546836 0.312224 0.00128027
2056 3.17217 7.20612 1.2029 -1.57086 1.88988 -0.0188361
2962 3.95532 6.70102 0.354555 -0.163872 -0.975407 -1.62046
295 5.6203 6.12641 0.558219 0.95683 -0.0182461 -2.58203
445 5.25336 7.0265 0.877956 -0.733089 -0.181882 -1.40749
2465 6.26476 7.18202 0.621055 0.349056 1.34831 0.624901
130 7.30697 7.26344 0.978136 -0.921337 -0.677529 -0.636183
2179 7.62013 6.13569 0.170264 0.227304 0.397586 -0.667204
3454 8.26471 7.01813 0.824131 0.457157 -0.99045 -0.311683
1704 9.47379 6.4721 1.30903 0.756651 -1.05848 1.96808
2190 9.3499 6.11636 0.299335 -0.634811 0.987545 -1.0931
499 9.67877 7.24672 0.682063 0.14339 0.869358 -1.03272
280 10.5305 6.54874 0.900229 -0.701757 0.352347 0.0779557
803 11.3136 6.60338 0.144437 0.403159 -0.597042 0.982837
1997 13.2267 6.67592 0.921531 2.71911 0.637007 0.564679
2881 12.3077 6.44872 1.24671 -0.564159 -0.602669 -1.59055
1057 12.4007 6.10956 0.0796419 0.269079 -2.30734 -0.187911
1217 14.2926 6.77428 1.44026 0.00144537 -1.21986 -0.85441
77 14.4886 7.35628 0.301253 0.521158 -1.05264 -0.800443
1814 14.9454 6.48861 0.610035 1.31076 1.24422 -0.0969374
3573 15.8173 6.05551 0.240863 -0.306547 1.36686 0.366087
1237 16.2307 7.05249 1.21758 0.00378284 0.718473 -0.522682
2283 0.87475 7.74221 0.791055 -0.515806 1.51191 0.127986
930 0.998207 8.85914 0.324996 0.403315 0.897355 1.45071
2572 0.191621 8.3196 1.2425 -0.469758 0.848942 0.888408
1231 2.44864 8.55343 0.510172 0.636236 0.272233 0.415679
1626 2.25601 7.53478 0.802407 0.115132 0.244005 2.15879
2695 1.55488 8.5927 1.10548 1.15194 1.88263 0.548479
1395 4.32859 7.99362 0.640182 2.62437 0.459611 2.55784
3591 3.45637 8.58361 0.551611 1.07822 -1.57554 -0.510109
3235 5.69887 8.1722 1.12676 0.437122 1.26591 1.09749
3337 5.16128 8.70644 0.25429 -0.502117 -1.91804 -1.13675
738 6.6867 8.13959 0.455671 0.176216 -1.28956 0.161561
1657 7.97098 7.92933 0.0972395 -0.594505 -0.627031 -1.00528
1186 8.54277 8.68298 0.445135 -1.96428 -0.673146 -1.09828
1977 8.82938 7.87073 0.928806 -1.79286 0.342489 0.797679
2648 9.6356 8.82485 0.373048 -1.05117 1.2755 0.106776
633 10.594 8.18463 0.495042 1.80393 0.374642 -0.0424646
286 11.8241 7.75609 0.140046 -0.142622 0.853802 -0.534927
844 13.391 8.14332 0.199422 0.1905 0.418566 1.65789
502 12.6537 8.32824 0.961508 0.635171 0.0853123 -1.21468
2389 14.8426 7.66265 1.4645 0.304816 -0.839668 1.73656
3666 13.7086 7.83121 1.22476 -0.104005 0.884954 -0.773468
2512 14.3936 8.43592 0.476889 0.60504 1.65455 -0.858685
1165 15.9078 8.0646 1.35351 -0.304152 0.364468 1.96014
63 15.7806 8.80111 0.715594 1.24372 0.389081 0.972902
1808 17.2279 7.53583 1.33926 2.43268 -0.0590228 1.1623
2502 16.6115 7.91533 0.443893 1.35606 -0.27018 0.355718
271 17.6778 7.67431 0.273074 -1.02063 0.211301 0.342512
1982 17.0921 8.62691 1.0271 -1.71187 0.618446 -0.997225
2683 0.452221 1.1805 1.52677 -0.502693 1.41638 -0.151148
293 1.4679 1.42954 1.69061 -0.605239 -0.838436 0.047026
2080 1.26953 0.289838 1.99164 0.628935 -0.783836 0.40831
3014 2.7751 0.159192 2.20178 -0.994299 -0.914713 1.30182
1452 2.57527 1.28152 2.3861 1.01247 -0.207361 -1.21824
1776 3.57528 0.864188 2.54353 -0.290716 -0.724034 -1.03407
2432 5.26575 0.774316 2.37112 -0.405872 -0.343895 -1.4876
3805 7.38557 0.222314 1.77622 0.202405 -1.9651 -2.03756
1690 6.4096 0.629722 2.20547 0.581046 0.80673 0.396402
3606 7.66026 1.23625 2.45776 0.46493 0.248558 -0.0978793
902 8.56299 0.180606 2.02958 0.736858 -1.89943 -0.267009
400 10.2826 0.91669 1.74122 -1.0168 1.67886 1.40481
334 9.64552 0.192874 1.79972 0.397685 -0.554212 -0.0391633
2331 9.17903 0.889294 2.62215 1.05512 1.15795 0.905595
810 10.0783 1.25099 2.89498 -0.972429 -0.0504806 0.302525
885 11.3822 0.135518 2.06978 -1.81553 0.511167 -0.447774
554 11.1542 1.13281 2.62916 -0.451074 0.940369 -0.909645
1480 10.4839 0.293256 2.52629 0.476554 -0.193525 0.43025
441 13.3147 0.838563 2.0077 -0.421406 -1.4593 0.406571
116 12.0768 0.900506 2.16057 0.0875541 0.626434 -0.8101
2708 12.3585 0.115389 1.51146 0.127687 1.89625 1.56935
3638 12.6175 0.0490349 2.57023 0.532731 1.29175 0.577638
1967 14.211 0.443513 2.53122 0.57699 2.40088 0.720169
904 15.9915 0.336372 1.61122 1.74213 1.05764 0.344975
3361 16.1281 1.1341 2.37249 1.70395 0.663696 -1.49197
1413 16.0934 0.425699 2.95406 -0.433842 -0.407646 -0.012959
682 15.2811 0.275155 2.31348 0.731636 1.77775 -1.28647
3974 17.2049 1.38406 1.73109 0.81606 -1.03867 -0.977178
869 17.301 0.446836 2.79332 0.984753 -0.517034 -0.142093
75 17.027 0.152354 1.7337 0.33794 -0.0741581 -0.411648
1859 0.381654 2.24671 1.61578 -2.71212 0.300328 0.210543
1907 0.514666 1.9529 2.52478 -0.0262142 1.34395 1.44768
631 1.61352 2.06013 2.49205 -0.114785 -2.09917 -0.835862
186 3.3176 2.16643 1.82424 -0.461302 0.186063 1.46328
262 4.22977 2.53675 2.41845 -0.562006 0.927153 -0.334858
331 3.42116 1.81548 2.84572 -0.531201 1.8692 -0.423822
979 4.56698 1.51691 2.94415 1.83529 1.13034 -0.484498
196 5.80828 2.00099 2.52765 0.603066 -0.31378 -0.972469
2191 4.55383 1.5909 1.75049 -1.50854 -0.832023 0.868465
3160 6.75006 2.26562 2.5928 -0.655208 0.254144 0.991914
2278 6.20792 1.66389 1.59638 -1.00947 1.32089 1.03473
123 7.49999 2.17048 1.97261 1.04891 1.16656 -0.527834
2055 8.68766 2.88656 1.96145 -0.0985819 0.687216 -0.196021
2008 10.1412 1.86898 2.06101 0.0659758 0.497616 -0.676106
3569 9.0166 2.00294 2.15647 0.976497 1.52059 1.04062
3950 9.76322 2.91665 2.32609 -0.292723 -0.594619 0.739265
3284 11.2827 2.06086 2.12396 -0.443164 -2.25727 -0.356926
1773 10.6447 2.68639 2.68783 0.205712 0.0481317 0.58526
1131 10.5753 2.76968 1.56961 0.467331 -0.95068 -0.33882
2142 12.9346 2.68975 2.49397 0.237257 0.0505814 -0.231984
2065 12.4623 1.83732 2.09054 -0.334165 -0.501242 -0.772588
2636 14.8188 1.50737 2.17334 -1.50793 0.938516 -0.428199
790 13.7166 1.91128 2.30584 -1.5655 1.90671 0.691514
3575 14.0318 2.96028 2.4415 -0.382056 -0.105845 -0.255037
431 15.5235 2.89424 2.84066 0.73589 0.268966 -0.125686
1537 17.3263 2.29293 2.32817 -1.29817 -0.772725 -1.0262
3545 16.4539 2.91265 2.23861 -0.433898 1.9112 0.734973
72 0.366991 3.3944 1.58687 0.802859 0.0631041 -1.01454
681 0.93814 3.77908 2.58184 -2.39182 0.829773 1.03797
437 2.94605 4.4105 2.44475 0.505175 -0.394449 -0.612851
2979 1.98294 3.47546 2.66279 0.321585 1.42372 -0.0987025
3438 2.28609 3.39608 1.63181 -0.777975 -0.339683 0.491093
957 4.60865 3.64827 2.11159 -0.859848 -0.354446 1.00884
763 5.20482 3.07265 2.84684 -0.390922 0.472482 -0.371712
2837 5.62077 4.1305 2.03318 0.36578 -0.856738 0.183658
2816 5.43061 3.19191 1.6631 0.995846 0.39607 -0.995951
2272 6.45761 4.28186 2.81351 -0.115894 -1.67673 1.1668
454 6.8673 3.64545 2.0985 1.12392 2.44019 -0.328937
1000 7.93134 3.67906 1.81197 -1.74367 0.491815 0.623667
1442 7.58665 4.31673 2.67951 -0.0887132 0.585859 -0.164862
3048 7.95798 3.14443 2.80249 -0.255356 0.425071 -1.56335
1973 9.33077 3.80348 1.93359 -0.703024 0.161535 1.1427
296 10.4972 3.86719 2.54926 0.201486 0.340869 2.06395
2894 11.3638 3.30225 1.91932 -0.227933 0.119769 -0.114703
1840 11.0053 4.25725 1.71687 -0.314769 -0.462684 -1.76696
249 13.3492 3.46872 1.81233 -1.91807 -0.774694 -1.62156
3876 12.0027 2.98305 2.75198 -0.455334 -2.01417 -1.18054
177 12.1308 4.42989 1.71627 0.461891 1.10487 -0.648178
1279 14.904 3.06187 1.86145 0.301802 -0.656272 1.21056
3332 15.6814 3.6859 2.10642 -1.50722 0.373578 0.805235
2367 16.9383 4.11698 2.38104 0.00914226 0.511022 0.393964
3230 17.7229 3.3258 2.62257 0.387672 0.296736 0.942737
3158 0.562483 4.64548 1.90329 0.395761 0.920689 -0.106694
2859 0.883169 5.67891 2.60357 -1.3506 1.46524 0.723561
3928 2.19263 4.67155 1.71668 0.271458 -0.66559 0.206449
3648 2.69356 5.40705 2.39963 1.92636 1.05097 1.04622
1120 3.76275 5.51983 2.59381 0.460904 0.784812 0.114515
2061 3.97942 5.14422 1.55215 -1.14423 -1.40384 -0.0485702
2082 4.71229 4.72227 2.14787 -0.376315 -0.653287 -0.881502
1856 4.69622 5.89514 2.28586 0.40244 -0.324701 0.0522851
3009 5.48313 4.94662 2.83901 2.0497 -0.435685 -0.678655
2441 6.317 5.37883 2.29376 -1.411 -1.31302 0.647965
3835 7.95549 5.44339 2.52962 1.7579 0.326687 -0.0536106
245 8.44588 4.63734 1.63297 0.984557 0.650089 -0.938574
1698 8.68147 4.66293 2.7325 0.503793 -0.889939 1.63335
1920 9.3572 5.40091 2.36761 0.766357 1.84124 -0.153425
1666 10.0681 4.65974 2.19433 1.26383 2.04124 -0.0706001
1957 11.1656 5.91891 2.95976 -0.392069 0.0852057 0.51453
1303 10.8468 5.34637 2.05485 0.918992 0.851123 -1.65965
1343 12.3393 4.77476 2.72229 -2.65356 -0.0666454 1.22858
928 13.3319 4.51956 1.75397 1.08691 1.00484 0.220718
3852 12.4981 5.70962 2.27164 0.0583418 0.505386 -1.54757
1446 13.8784 5.72171 1.90145 0.115274 0.539388 -0.623811
250 14.4667 4.8642 2.91888 -0.421831 0.526557 -0.678395
1432 14.9488 4.86953 1.79205 0.10851 1.5536 -0.349709
2078 17.4551 5.33307 1.88187 0.0270905 -0.306145 0.671763
2751 16.4092 4.87795 1.99106 -1.12964 -0.388154 -1.39803
3271 17.5831 5.91602 2.8901 -0.170322 0.471689 0.657234
3336 1.27192 6.55654 2.06178 1.26892 1.24543 -0.383834
3934 0.207922 6.38394 1.95471 -0.649088 0.860496 -1.06484
2746 2.0236 6.28676 2.64743 0.341207 0.976193 -0.969036
3920 2.44995 6.88391 1.86408 -0.76307 1.59836 -0.0459052
1248 3.49275 6.55415 2.74656 -0.832877 0.345452 -0.0642463
3376 3.52976 7.39289 2.19776 0.305304 -0.110289 -1.52306
929 3.47105 6.20562 1.49167 -0.129565 -0.444914 2.09113
3166 5.57271 5.96476 2.90644 1.01955 -0.252889 -0.449526
1588 5.59649 6.34173 1.87899 0.383222 -0.0133942 -0.373269
3374 4.63629 7.01656 2.06245 -1.83748 0.339486 2.1468
1302 6.13839 7.2935 1.77576 -0.598737 -0.643577 -0.558325
307 6.78162 6.34587 2.58186 -0.542243 0.333705 0.348867
3371 8.74829 7.13664 1.84595 -0.153776 0.110362 0.211311
1813 7.62599 6.44908 1.82619 1.95184 -0.699995 0.743961
1459 8.59967 6.0562 1.92204 1.62093 -1.41622 0.269081
232 7.91726 7.39983 2.47807 0.565215 -0.75304 0.515374
234 9.89985 7.22475 1.83033 1.44239 -1.02671 0.426106
622 10.2445 6.26812 1.93747 1.18074 -0.87819 -1.15057
2430 10.0964 6.0709 2.94846 0.418832 0.732191 0.196901
3702 8.95539 6.37721 2.77703 0.157874 1.20022 1.82567
211 10.9481 6.88526 2.52431 0.658661 0.993946 0.0475916
2126 13.0645 6.55517 1.97243 0.273144 -1.46152 -0.930241
2403 12.0524 7.05419 2.42349 0.3867 -0.258663 -0.324068
3461 13.9428 6.69608 2.738 0.323083 -1.43015 -0.20562
2704 15.1194 7.35813 2.66109 -0.822185 -0.161243 2.25025
2111 14.9848 6.10236 2.08508 -0.0336368 -0.0474549 0.17706
3118 15.9773 6.07147 2.11786 -0.314593 -0.770477 0.885901
108 16.101 7.32006 2.5496 0.365435 -1.53786 -0.0353254
110 16.9605 6.27762 1.55017 -1.50608 -1.23488 -0.232641
3859 1.47076 7.53766 1.99183 0.611528 -0.862325 -0.310285
3571 0.492867 7.77234 2.00519 -1.26242 -0.39804 0.246372
1951 1.15775 8.57694 2.20246 -0.802074 1.05807 -0.140466
3745 2.08604 8.17094 2.74087 0.99512 1.38867 0.969181
13 2.56298 8.15579 1.57068 0.0426651 1.22423 2.06575
459 4.39539 8.19586 1.80502 -1.85691 1.14372 0.495854
2710 3.40635 8.72285 1.71231 0.448144 0.124377 0.162216
2813 3.46552 8.3042 2.77981 -0.787045 1.73455 -0.704884
2302 5.17172 8.8918 1.65001 -1.81168 0.844103 -1.64576
86 4.61791 7.6637 2.95191 -0.482039 2.29175 -1.22354
175 5.66232 8.01293 2.56018 -1.36702 0.723582 -1.68281
771 6.78532 8.21966 2.73134 -2.77763 2.04948 -0.313859
98 8.44374 8.57444 2.36718 -1.53408 -0.628376 -0.198294
881 9.56594 8.32375 1.65351 0.892465 0.0288239 -0.794374
2890 9.19223 7.69676 2.46772 0.180244 1.96788 -0.26189
1251 9.9691 8.2293 2.84468 1.74212 3.03772 -0.55808
3147 10.6787 7.86469 1.68707 -0.910775 0.0632363 -0.145161
70 11.1265 7.90786 2.59124 2.14887 1.29188 1.8426
1166 13.321 7.59518 2.23514 1.16448 -0.0832071 0.0398028
3596 12.496 7.45172 1.61904 1.509 -2.35802 -1.81074
321 13.1339 8.38754 2.93633 -0.229222 -1.38163 0.435582
802 12.1076 8.41795 2.44501 -1.37687 -1.53672 -0.778972
2983 14.1171 7.79468 2.82905 0.968337 -0.134941 -0.643702
2723 13.5068 8.64863 1.96172 -1.27142 -1.79662 0.332317
360 14.2 8.90533 2.79985 -2.06015 -0.547663 -0.583247
2163 15.1844 8.36386 2.22749 -0.21051 0.222031 -0.673096
1844 16.9501 8.35693 1.94329 0.00370212 1.32575 -0.503678
1321 17.1564 7.46573 2.36336 2.21204 0.583373 -1.47997
2314 0.725774 0.631449 3.02353 0.0881623 -0.359637 0.179796
1638 1.00132 0.604519 4.35021 0.702645 -1.17379 -0.699118
3543 2.27682 0.321442 4.17994 1.03292 -1.06119 -0.779222
950 4.39641 0.308706 3.25386 0.258068 0.0675048 -0.346493
3886 3.95287 0.681796 4.07817 0.0428277 -1.07245 1.07486
1547 3.29017 0.219797 3.26545 -0.0393165 -0.308765 -1.79322
1506 5.621 0.100505 3.01515 1.38093 -0.134226 -0.246794
792 5.43826 1.31849 3.45002 1.96211 -1.05475 0.356541
973 5.18285 0.160838 4.08322 -0.929628 1.20555 -0.907172
3363 6.39389 1.38424 3.10829 0.286819 1.5261 0.353778
2791 7.262 0.83755 4.23824 -0.978245 -0.0783435 -0.434943
424 7.06328 0.697496 3.24459 1.41358 0.798184 -1.53278
578 6.178 0.601467 4.00293 0.934089 -0.594964 -0.654719
2705 8.89935 0.593892 4.22211 1.77852 -0.947051 1.53542
2155 8.23106 0.801142 3.40981 -1.72109 -1.30316 0.0628157
1388 9.74105 1.15476 4.22615 -0.585499 1.78462 0.246987
2105 9.80225 0.331716 3.50284 -2.83558 0.644871 -0.28659
57 10.9226 0.727031 3.56672 0.393003 -0.702264 2.87803
2321 11.8444 1.30533 3.21737 -1.39551 0.180114 0.266998
3214 11.5713 0.127827 3.12428 0.103101 0.38829 -0.860006
2800 12.3478 0.673625 3.98756 -0.505974 -0.427348 0.92082
840 13.4777 0.975867 4.38127 -0.302203 -1.28648 -0.721616
1650 13.4644 0.501147 3.41148 0.271056 0.324161 1.05764
3549 14.5951 1.25198 3.3637 -1.4228 -0.690819 -0.254881
349 14.8977 0.222818 3.38304 0.094521 -0.723112 -0.213876
2452 15.7264 1.39021 4.15732 -0.0766936 0.299355 0.52547
1931 15.6916 0.297174 3.95462 0.103335 0.659876 -0.195938
709 16.6593 0.138199 4.00554 -0.953748 -0.123467 -2.05406
773 16.5789 1.43293 3.43336 -1.27445 1.07269 0.705366
1922 17.6651 1.41492 3.1008 -0.616612 -0.334037 0.19842
3955 16.8113 1.28609 4.34224 0.139993 1.44136 -1.29266
3952 17.8402 0.306913 3.73805 1.01528 0.341919 -1.70023
1060 0.68734 2.75626 3.08177 0.667519 2.3163 -1.20175
3091 1.15792 1.94904 3.58091 0.0360413 0.9373 -0.279874
1160 0.106837 1.49107 4.07292 -2.43906 0.282992 0.665195
3154 0.455491 2.47657 4.42373 0.428432 -0.438498 -1.08618
2854 2.36877 1.61227 3.70186 -0.624164 0.961957 0.470646
528 2.33349 2.72564 3.18869 2.46617 -0.525462 0.241753
3212 1.90458 2.41725 4.19029 0.502395 0.705459 -0.331293
2393 3.13687 2.84462 3.98964 0.319262 0.327197 1.18835
1364 4.25064 2.91267 3.48952 -0.751514 -1.05427 0.182825
43 3.80252 2.01556 3.851 -1.17708 -0.570236 -0.345901
443 4.67309 1.69378 4.22736 -0.667444 0.910359 1.17141
786 5.24754 2.28634 3.55966 -0.180257 1.04541 -0.111023
2972 6.08417 1.67675 4.38807 -0.279345 -2.60719 0.61622
2495 6.46088 2.43553 3.64717 0.684298 -0.375461 0.61235
2384 7.6088 2.25215 3.2558 -0.0986532 1.50711 0.227148
3861 7.66188 2.17712 4.32494 0.751419 0.345953 -0.191197
3977 8.59615 1.67627 4.44926 -2.41961 0.467315 -0.993785
1994 9.87695 2.60419 3.55118 0.713303 0.661707 0.109154
1290 9.31363 1.78638 3.25215 -0.621138 1.0786 0.128206
3330 10.685 1.81884 3.58259 -0.0942331 -0.341896 0.116868
2750 11.2365 1.65051 4.45176 0.0959973 -0.935967 1.53159
1170 12.8995 1.7568 3.07173 -0.168604 -2.89448 -0.843144
3098 13.3761 2.34298 4.32255 -0.228286 -1.16663 1.1649
1555 12.0342 2.24884 3.78962 -0.570194 0.314379 -1.54356
15 12.502 1.54963 4.45314 -1.17386 -0.27447 -2.10718
3930 13.7604 2.32252 3.28002 0.950403 1.12546 0.338749
1023 14.7721 2.15667 3.95081 0.775128 -1.68697 0.328806
3001 15.4953 1.5895 3.04604 0.55544 -0.324539 0.0323009
1385 16.311 2.24975 4.10312 -0.782952 -0.0700496 0.408718
3551 16.4645 2.40109 3.1669 -1.4227 1.04472 0.4379
3269 17.4956 2.3692 3.4688 -0.664927 1.36337 -0.40441
694 1.48905 4.36362 3.3322 0.41803 0.0543595 0.855662
534 0.0732359 3.43749 3.7845 -1.36084 2.50366 1.80406
3839 1.2475 3.18354 3.67317 0.0361088 0.550329 0.489586
3664 2.4119 3.69741 3.69876 0.969973 -0.725961 -0.193474
908 3.10928 4.44008 3.45866 0.646292 -0.910217 -1.35501
2620 3.29667 3.45916 3.16592 1.04373 -0.376174 1.62777
3908 4.31654 4.31189 3.01622 -1.48231 0.640595 -0.126217
2803 3.73252 3.83837 4.15492 -0.910412 -0.142647 -0.313381
393 5.947 3.42196 3.45697 -0.720933 0.327763 0.26281
3084 4.90273 3.6694 3.98819 0.138345 1.49406 -0.540491
3724 6.99293 3.2186 3.10258 0.565119 0.164902 1.03776
363 6.80779 3.17294 4.3997 2.14603 1.16837 -1.07626
1319 6.38445 4.2178 4.46668 1.36878 0.790608 0.834886
464 8.29307 4.01527 3.61361 0.0334625 -0.631561 -0.752142
2947 8.43556 3.0005 4.06879 0.512622 -0.371419 -0.877672
1949 9.39425 4.20117 3.36771 0.191614 -1.44307 -0.412661
285 8.96443 3.19214 3.14891 2.36544 -0.606116 -0.635077
1024 9.28224 3.51687 4.12497 -0.215996 -0.0852173 -1.25392
166 10.3445 3.86851 3.61716 -1.86344 0.015883 -0.849334
678 11.6084 3.89865 3.18572 -0.194996 -1.6753 -1.30552
3502 11.0668 3.04894 3.54825 -0.993972 -1.93306 -1.06623
1829 11.4754 3.94156 4.36679 2.27488 0.00780509 -1.3918
1539 12.6191 3.38817 3.63716 0.856301 -0.748434 -1.03165
2784 13.0912 4.40476 3.87438 0.200781 0.882062 -0.325633
748 13.4859 3.38199 4.41166 -0.471954 -0.0644661 0.633882
2014 13.8068 3.87376 3.15271 -0.273932 1.56353 0.496037
273 14.1097 4.27136 4.25081 0.263806 -0.232605 -0.0896793
586 14.9331 3.8066 3.06448 -1.31685 0.535281 -0.230227
1211 16.0207 4.37875 3.26182 -0.688295 -0.385034 -0.966466
3213 15.3371 4.26211 4.06613 0.361614 -0.692849 -0.137804
2833 15.3322 3.01633 4.07284 0.959372 -1.00062 0.597617
1437 17.6701 4.2957 3.21744 0.00764116 0.880764 -0.609059
1903 16.4268 3.57838 4.08821 -0.252073 0.468002 -0.196614
2640 17.6858 4.35855 4.46375 -0.0105168 -0.626522 -0.175286
2524 0.448107 5.13942 3.46153 -0.403394 1.23445 -0.190722
1175 0.961877 4.49302 4.26214 -1.43739 -0.255977 -1.77661
1282 2.5908 5.45173 3.6177 -0.33061 -0.0467205 -1.00852
239 2.5883 4.64455 4.33873 -1.25592 -0.771372 -0.394159
3613 1.69926 5.39233 3.27099 0.159654 -1.96054 -0.268223
2352 3.97493 4.88422 3.98144 -1.16212 0.500356 -0.159755
3211 4.54765 5.80057 3.43445 -0.0307919 2.1819 0.801017
2596 5.01142 4.77002 3.77657 -0.0737816 0.721932 -0.354561
3961 5.50417 5.83277 4.03749 -0.411245 0.383799 0.203334
3402 7.17197 5.58427 3.33749 -1.24199 0.215004 0.0667861
3217 7.16442 4.55796 3.67206 -0.830661 -1.54883 -0.575867
1761 6.22126 5.05147 3.67065 -1.33419 1.46965 0.917155
3975 6.74949 5.79794 4.36442 -0.462956 1.43062 0.174305
3851 8.05582 5.64507 3.98397 -0.638485 1.68849 0.513877
1289 9.08389 4.57457 4.26505 1.12257 -0.439763 -0.924435
385 10.1293 5.21364 3.73626 -0.305969 -1.3604 -0.537816
3388 9.1047 5.66246 4.22176 -0.0531685 0.453925 1.19533
382 10.7563 4.71185 3.01701 1.37404 0.8344 -0.887377
1667 11.6398 4.94594 3.73084 -0.0123103 1.88049 -0.17381
1124 10.8112 4.61531 4.18833 1.01998 0.488685 -0.117497
1409 12.7404 5.55915 3.87646 -0.587598 -1.26147 1.39
816 14.7817 5.15585 4.10779 -0.755571 -0.875931 -0.21459
3109 13.734 5.19179 3.51997 2.55394 -0.0482267 0.1267
1631 14.6932 5.93377 3.17463 0.628927 1.26778 -1.20186
2236 15.6372 5.2955 2.99166 0.819929 -0.776301 0.573336
3663 16.0176 5.67303 4.39331 1.61186 -0.845461 -0.355532
2220 17.4159 5.40808 3.94013 -0.583224 -0.490989 -0.00946127
1640 16.9836 5.05843 2.98656 0.0566373 1.83985 0.405627
635 16.5665 4.62575 4.23668 -0.952119 -1.47142 -0.858502
377 0.416067 7.06776 3.84837 0.224191 0.390351 -1.28183
3424 1.1186 6.51578 3.23459 0.006013 0.366967 0.0497172
3621 1.80411 6.34601 4.02003 -0.898476 0.255141 1.78865
2613 4.24415 6.62867 4.44822 -1.43972 0.0342959 0.299847
2804 3.70992 7.39781 3.53992 0.155649 -0.0326662 0.554857
2064 3.25895 6.60928 3.91726 1.47303 -0.784741 -0.31509
701 5.13174 6.73303 3.49272 -0.812408 -1.50053 -0.303363
2446 5.81509 7.32649 4.17073 -0.547173 0.884636 -2.29621
1786 6.37945 6.44575 3.66467 -0.567354 1.08337 -0.262371
2944 6.30045 7.43812 3.20026 1.62634 0.991376 -0.36668
1259 7.98974 6.28102 3.17465 0.649165 -1.24594 1.76516
3841 8.71791 7.33298 3.25089 0.356933 2.45631 1.33846
2768 8.88744 6.6244 4.14585 -1.56198 -0.600074 0.731887
395 7.64285 6.90395 4.32927 1.00166 -0.0215686 -1.18987
922 10.0256 7.13623 3.12531 -0.114647 -0.041386 -0.85942
3008 10.8695 6.06592 4.07571 -0.259868 2.18906 -1.57575
2928 11.6566 7.33414 3.98221 0.42776 -2.50749 0.591991
1340 13.1852 7.28264 3.284 -2.07406 -0.135737 -1.02436
3107 13.0628 6.91738 4.26558 0.195033 -1.36054 -0.0834568
742 12.025 6.49541 3.15276 -2.30688 0.896023 0.404124
2756 13.0509 6.25559 3.12092 1.6871 -0.139376 -1.20035
718 14.5839 7.06313 3.469 0.367426 -0.830395 0.465154
1450 14.0211 6.21941 3.99294 -0.171195 -0.647425 -0.294799
125 15.6634 6.69514 4.13055 -0.265107 -0.965773 0.0334648
135 15.5599 6.41447 3.08786 -1.04705 -0.71349 -1.4335
557 16.6385 7.11706 3.58235 -0.486066 -1.28737 0.216313
1096 16.5976 6.06942 3.36767 1.16077 -1.47052 -0.0198181
2243 0.77835 8.32056 3.96832 -0.608764 -0.490317 -0.0181731
1306 1.41874 7.53832 4.26038 -0.227631 0.379736 1.057
247 1.71975 8.84089 3.40817 0.892487 -0.46113 -1.03986
1035 2.61939 7.61543 4.04595 0.634899 -0.355615 0.870706
242 2.73091 8.65735 3.74124 -0.369136 0.737132 0.430597
1297 3.88889 8.42078 4.04004 1.00267 0.926179 -0.797438
724 4.84202 7.67342 4.21158 -0.842247 -1.38916 2.20611
1898 5.2028 8.36197 3.44705 -0.144102 0.422603 -0.840977
617 5.02642 8.5916 4.41105 0.397628 0.402382 0.237948
1080 7.24554 8.79421 4.25605 1.12436 0.861253 -0.342163
7 6.43548 8.30291 3.73652 -0.0493992 1.58603 1.7646
3137 7.29118 7.50391 3.40031 0.484239 -0.579902 -1.00283
2291 8.00717 8.35371 3.82732 0.847635 -0.328335 0.344308
750 8.9271 8.10349 4.44916 -1.07195 -0.992857 0.548528
1429 9.84706 7.47318 4.3655 -0.307518 0.387949 -1.23339
14 8.95865 8.30611 3.46672 -0.0890867 0.227928 0.653367
1451 10.6986 8.01328 3.92334 0.342665 -0.200297 0.763062
623 11.1758 8.79174 3.13866 2.20199 -1.07948 -0.991514
2801 12.1703 7.72868 3.20007 -0.0479076 -0.764552 -0.77944
3460 12.6163 7.83724 4.45295 -0.212378 -0.0294648 1.82507
3765 12.3888 8.65461 3.67648 0.866598 0.654117 -0.236189
696 13.4481 8.67108 4.16071 0.939722 0.116662 -0.571156
2659 15.0763 8.36762 3.44399 -0.620649 -0.574275 0.296451
3833 15.3493 8.66971 4.42043 -2.70704 1.22135 -0.230553
355 16.6861 8.25407 2.98271 0.16251 -0.773156 0.802491
1869 17.4371 7.68458 4.03594 -1.12695 -0.542541 -0.693805
1589 1.23229 1.12496 5.31547 0.151357 -0.894331 0.624001
3355 1.86217 0.214915 5.28418 1.84311 0.818603 0.658365
3025 4.29826 0.835335 5.10601 1.13737 -0.415476 0.802435
2576 3.0225 0.87171 4.92827 -0.522343 -0.180078 0.161319
1759 5.32247 0.0192629 5.14517 0.657 -2.11179 -2.51355
322 5.63652 0.967675 5.07491 0.406623 -0.704386 -0.305057
2394 5.08314 1.4662 5.86647 0.898885 0.218821 0.398083
3348 7.08595 0.294207 5.91833 -0.607458 -0.441796 -0.584839
2073 6.63823 1.33231 5.2587 0.794327 -0.606655 -0.0441929
3980 6.7595 0.167792 4.77701 0.0849698 -0.184207 -0.0847851
3923 8.05342 0.52548 5.04183 -0.0367314 -0.352091 0.979636
728 10.0327 1.43574 5.29099 -0.850441 0.675601 0.381868
2827 9.12768 1.01476 5.53133 -0.105491 0.0170502 -1.07091
3015 9.91821 0.415457 5.66419 -1.87854 1.92118 1.28612
405 11.6637 1.01299 5.26997 -0.0398742 -0.772076 -0.905551
1782 10.4621 0.471142 4.60673 1.97559 1.02214 -1.60898