ITEM: TIMESTEP
41000
ITEM: NUMBER OF ATOMS
4000
ITEM: BOX BOUNDS pp pp pp
0.0000000000000000e+00 1.7878070701931353e+01
0.0000000000000000e+00 1.7878070701931353e+01
0.0000000000000000e+00 1.7878070701931353e+01
ITEM: ATOMS id x y z vx vy vz
2071 0.305584 0.140063 0.907998 -0.924595 0.734547 -0.828289
423 0.702117 1.21794 0.345184 1.13746 -0.84125 1.14816
819 1.46912 0.719014 0.876544 0.149032 -0.453636 1.6772
35 1.14219 0.105518 0.0774067 -0.155931 -0.218621 -0.73251
641 2.28445 1.09681 0.406065 -0.07942 0.127677 1.26775
3216 3.92845 1.32531 0.622962 0.862198 -0.0951191 -0.0747878
1138 3.02641 0.959056 1.00754 1.91766 0.0379557 0.200752
1938 3.82684 0.248605 1.05992 1.90207 -0.0338371 -0.677078
1968 3.36807 0.409078 0.131625 0.660745 -0.44821 0.136266
530 4.74335 0.953379 0.0977955 0.366393 -0.0298321 -1.47201
1718 5.62348 0.285905 0.346431 -0.342388 0.275543 -0.737576
1903 4.89858 0.749954 1.11496 -0.575688 1.33847 -0.312064
1341 5.77436 1.36318 0.475411 1.11142 0.0343284 0.912247
1063 7.33957 0.985198 1.25825 -1.91285 -0.140784 1.53427
3776 6.58223 0.514457 0.733156 0.71352 -0.665244 -1.31793
1156 8.46908 0.903904 0.634557 1.09756 1.60381 2.15724
1098 9.88972 0.355591 0.633452 0.984194 0.119783 -0.0402042
2737 10.1563 1.39853 0.0559518 1.01021 1.47639 -0.299078
2237 10.61 0.739035 1.44862 1.13461 1.33342 -0.496671
75 10.9924 0.54833 0.530575 -0.0941409 -0.536696 -0.464611
701 12.9418 0.82344 1.14752 2.13047 0.735052 0.418453
2709 12.1933 0.163253 0.631074 -0.0874682 -1.23974 -0.550075
971 12.504 0.973545 0.0829504 0.612896 -0.849631 0.835711
1771 14.1637 1.13726 0.887575 0.733898 0.643281 -1.02234
853 13.9039 0.503173 0.0252441 -0.714594 0.423132 0.516507
33 14.263 0.223987 1.22928 1.85348 -0.440262 0.382832
3226 15.0948 0.0503641 0.136613 0.602479 -0.773275 0.815064
2176 15.1959 0.84956 0.791395 0.720121 0.0143576 -0.96369
198 15.5328 0.0122731 1.38119 -0.570076 0.0719078 1.4829
6 16.6569 1.13803 0.0720649 0.716351 2.70211 0.252154
3789 17.0324 0.573115 1.08983 2.06452 0.0974929 0.614953
3075 17.5736 1.14037 0.454382 -0.923915 -0.0913495 -1.03709
3843 0.114547 2.11664 0.174246 0.494605 0.179622 -1.06154
173 1.46352 1.98493 0.608586 0.322074 -1.9261 -1.74411
3442 0.521042 2.93129 0.717936 0.621895 1.07999 -0.148794
1776 2.92597 2.25635 0.649966 0.0229639 0.402697 -0.763885
2845 2.04328 1.71884 1.47447 0.282547 1.24807 -0.469068
1942 2.15135 2.71541 1.15741 -0.73064 0.339775 0.382936
3923 3.88187 2.55637 0.907671 0.794949 0.260659 -0.333886
2278 4.85208 2.61418 0.533404 0.200745 1.30867 -0.170845
3852 4.85965 1.89429 1.28249 0.891279 2.30197 0.173255
2317 6.64407 1.7969 0.790723 -0.458938 -1.54125 -1.03518
1374 8.09688 2.03278 1.46241 -0.0947049 -1.05716 -0.42398
155 8.70708 2.668 0.894715 0.388743 -0.247312 1.15434
2160 7.67493 1.61475 0.422386 1.4235 -1.67121 -0.712821
1764 10.0962 1.91368 0.968354 -0.513724 1.05088 1.51455
3105 9.96336 2.72518 0.291757 -0.847007 0.395024 -2.55974
2716 10.7918 2.73347 0.958761 0.188012 0.946089 -0.487634
3780 11.6334 1.93549 0.59093 -0.074776 2.22398 0.234788
2029 12.686 2.41938 0.133898 -0.5969 0.519921 0.604894
474 14.7765 2.00467 0.798084 -1.45322 -0.484095 0.342039
2140 14.4159 2.82743 1.45885 1.64721 -0.425673 -1.2526
1900 13.5457 1.57991 0.0465422 0.418216 1.95895 -0.497976
1075 13.5847 2.42662 0.787495 -1.38507 0.956714 1.14338
2967 14.4296 2.95538 0.24387 -0.825414 1.88068 -0.220453
2917 15.8281 1.72682 0.589415 1.33495 -0.518914 1.67179
3954 15.6173 2.69769 1.11637 -0.402726 0.836608 0.0392128
1853 17.8484 1.83839 1.31175 1.39951 1.65028 -1.01001
918 16.9387 2.86253 0.880274 1.30054 0.283691 -1.78136
3928 16.8931 1.82688 0.807667 -0.0784225 -0.683592 0.756189
1128 1.48134 3.40519 0.326454 0.907164 -0.808624 0.121525
3001 0.798466 4.12143 1.22827 -0.91057 0.767558 1.46875
2069 1.96661 3.79642 1.43523 -0.113985 0.634524 0.95027
3086 1.86086 4.29832 0.514534 0.879269 1.39152 1.45147
2635 3.22272 4.22257 1.34793 -1.49109 0.119845 -0.0662588
376 4.37385 3.54236 0.320902 1.21437 -0.453426 -2.28458
3720 3.11575 3.2251 1.42923 1.79476 -2.2039 -0.326241
1391 3.11596 3.51332 0.390029 -0.0859317 0.581574 -2.22469
752 4.33561 3.83625 1.20776 1.31422 0.0696997 -0.800085
3386 3.71051 4.39918 0.369495 -1.07784 1.05841 1.5068
1047 5.53997 4.38579 1.14473 -0.349225 1.92222 0.347713
510 5.34935 3.2578 1.27209 -1.44542 0.477405 -0.0883496
3705 6.54193 4.20075 0.661825 0.702562 -0.181391 -0.544366
2347 6.5493 3.11628 0.546152 0.839554 -0.100178 -1.25726
3171 7.69671 3.08216 0.624971 -0.213076 -0.184083 -0.258904
20 7.87682 3.94969 1.26837 0.655556 -0.814663 -1.8858
564 8.73618 3.84927 0.677195 0.478534 0.265301 1.2124
983 9.52804 3.343 1.07304 0.605173 -1.71325 -0.487863
1973 9.97552 4.2454 1.04337 -0.369373 1.16966 -0.465583
2905 11.7805 3.08674 0.689299 0.808637 0.625034 1.73284
429 11.7252 4.45353 1.15336 0.406983 -0.0253222 1.3153
2622 10.6791 3.48035 0.196048 0.290111 -0.840512 1.44585
2430 11.6648 4.04844 0.252034 1.99094 -0.31094 -1.67192
3560 12.5292 3.68384 1.07182 0.0219453 0.552493 -1.5173
3637 13.8793 3.75189 0.608767 0.520706 1.09807 -0.362717
1470 14.9424 3.65446 0.865423 -0.9612 1.01473 -0.207514
3364 16.2361 3.31067 0.0406198 1.38134 0.0786613 -0.957627
3862 16.7683 4.11982 0.587626 -0.525831 1.5234 -2.1237
1571 17.5773 3.94944 1.20379 2.98456 0.968548 -0.346972
440 0.771365 4.7986 0.186028 1.2442 -0.403427 -0.651011
3023 0.0805682 5.02814 1.33474 1.0505 1.37488 0.0649314
2179 2.69905 4.90655 0.809422 1.09319 -0.540867 -0.548134
369 2.29227 5.90805 0.727362 0.410979 -0.340766 -0.437664
3836 1.7035 5.07015 1.19079 0.800717 0.688647 -1.24833
2062 4.27101 5.28122 0.498194 0.112888 -1.34602 -0.317345
3336 5.26223 5.63497 1.12613 0.70273 -0.427997 -0.383274
179 5.04393 4.6138 0.197526 0.341747 -0.549211 1.18846
1409 6.37669 5.90263 0.919866 0.702649 -0.665333 -0.481713
966 7.078 5.06022 0.772806 0.777067 1.74324 1.12982
1500 7.84438 4.50909 0.128957 -0.3632 0.241122 0.777265
3455 8.35934 4.86319 1.04013 -2.22804 -0.442259 0.0845222
1262 7.85919 5.71585 1.02053 0.337119 0.216181 -0.37031
1420 10.1139 4.95502 0.159156 0.282854 -0.33444 -0.760164
1099 8.93944 4.85705 0.16549 -0.2547 1.45717 0.104617
2171 9.34908 5.69563 0.618327 -1.22925 -1.30994 0.527789
2366 10.5978 5.15393 1.02527 -0.517963 0.442712 -1.18989
279 11.3719 5.45947 0.254771 0.205422 -0.0899138 -1.74451
1758 12.5448 4.87941 0.161382 1.65242 1.493 -1.86533
2688 13.0511 4.67459 1.03873 0.306526 0.423237 0.661117
58 13.6855 5.80097 1.18015 -1.85366 0.481939 -2.85685
3267 14.4802 5.02831 0.43864 0.897164 -0.918681 -1.37421
946 15.7655 4.71975 0.0262867 -1.10312 -2.25419 -0.289633
2521 16.0053 5.87774 0.72043 0.378906 0.246965 1.08795
1076 17.484 4.77776 0.319765 0.67889 -2.4481 0.528105
1754 16.4288 4.87598 1.31631 0.332141 -1.70845 0.836176
1884 17.3599 5.88455 1.06448 0.0504008 -0.367695 0.193688
114 16.6435 5.39382 0.119758 -1.57369 -0.346385 1.23339
409 1.11466 6.05178 0.708413 0.658503 -0.99442 1.54014
2216 0.843017 7.18504 0.888357 1.38823 -1.26477 -1.79775
3651 1.76253 6.72068 1.12388 -1.61574 0.252909 -1.00216
1780 2.93547 6.72252 1.19605 0.544386 0.3742 0.240648
1861 1.6449 6.87032 0.0585578 1.12658 1.02078 -0.0845634
3423 2.29345 7.38242 0.640298 1.28341 -0.466257 -0.0940964
1802 3.99252 7.39655 0.997799 0.521878 0.0147597 -0.729941
1316 4.01137 6.35573 0.421809 1.59092 0.501334 0.182912
2167 5.51739 6.88674 0.874565 -0.252871 -0.0322588 -1.15449
2230 6.75147 6.64913 0.390289 0.494804 -0.188276 -0.249216
812 7.20612 6.77885 1.28574 0.864734 0.556478 -0.018399
2980 8.89732 6.58601 1.1462 0.317004 1.87547 -1.18792
1150 8.08841 7.38209 1.25901 -0.255082 -0.137901 0.315781
2289 8.01911 6.67623 0.513766 -0.0650601 -1.58791 2.04074
3756 9.69802 7.1406 1.3643 -0.179091 1.3249 0.226979
738 9.8524 6.83996 0.250516 -0.89759 0.514965 0.606442
3861 10.7958 6.33222 0.221407 0.397654 -0.418707 -1.42537
1235 11.696 7.16291 0.335256 -1.07339 -0.334705 -1.02737
1342 10.9329 7.16667 0.961701 0.421264 -0.00206383 -0.859474
2634 12.584 6.13106 1.37373 -0.225754 -0.737179 -0.664996
465 13.2551 6.11448 0.350976 -0.87245 1.1444 0.534582
2053 12.9851 7.08317 0.67491 -1.21885 0.0230519 1.50265
2631 14.4463 6.82646 0.207443 -1.15841 -2.00675 1.23779
3091 16.4875 7.11027 1.17946 2.07915 -0.230031 -2.3205
174 16.5724 6.761 0.147175 -1.20237 2.22285 0.279284
3885 17.6198 6.80619 1.42717 -0.431344 1.09696 -1.71251
870 1.10545 7.95464 0.189921 -0.784219 0.0525553 -1.45912
427 1.20116 8.72508 1.01005 -1.44919 -1.61464 0.0817507
1837 0.057797 7.92773 0.948685 1.71637 0.159475 0.584526
2202 0.219035 8.9181 0.502431 0.117946 -0.0740976 -0.37091
2016 3.07426 8.03195 1.01332 0.824066 -2.67277 1.40987
903 5.03249 8.52495 0.634039 -1.05505 -0.660027 -0.0766213
2335 6.44997 7.64329 0.453377 1.02884 0.593382 0.700085
1892 6.17705 8.4431 1.08339 0.569895 0.534564 0.233037
3901 7.19772 8.26111 0.917958 -1.35174 0.520288 1.46875
1303 8.25044 8.79514 0.810735 1.09213 0.676986 -0.683716
3607 7.61741 7.62023 0.116948 -0.110784 0.553278 -0.922269
3258 8.8462 7.5115 0.642488 -0.990445 -1.94767 0.432051
690 10.3177 7.90199 0.661705 -1.22739 1.14022 -1.91181
590 9.17639 8.42622 1.05867 0.531039 1.09701 0.590196
663 11.5242 8.29597 0.173275 0.686159 0.474421 1.07122
3167 11.1593 8.25063 1.0791 0.0592991 -0.0816382 -0.397015
2013 13.0201 8.40978 0.98795 0.171434 -0.940047 0.65537
1434 12.193 7.72565 1.20262 -1.11076 0.541715 -0.263135
472 13.7717 8.83748 0.144514 0.427372 1.54438 1.41105
101 14.099 7.72421 0.753155 -1.12778 -1.60176 -0.807221
139 15.9926 8.50424 0.52202 0.166256 -0.151203 0.541466
3683 14.9033 8.7487 0.719775 1.00928 -1.43364 -0.524344
811 15.9775 7.50677 0.240716 -0.663 0.978392 1.27707
1355 17.1802 8.66113 0.822942 -0.3398 2.72444 0.158414
3583 17.0412 7.79892 0.399352 0.0335788 -0.723036 0.426634
237 1.11884 1.41143 1.64953 0.529242 -0.475041 -0.529203
2460 1.25246 1.43688 2.80283 0.92061 -0.912888 0.173763
2164 1.11976 0.446418 2.30673 -0.638613 1.03167 -1.69284
3072 2.19041 1.00771 2.45561 0.994536 1.14406 0.0222233
2638 2.12485 0.212926 1.98135 0.579119 -0.193701 -0.349255
2073 3.75255 0.83904 1.99039 -0.751248 -0.7451 -3.30382
3894 3.23749 1.38139 2.65878 -0.764023 0.64669 1.51462
91 5.05317 0.757643 2.66904 -0.114304 -0.930746 -0.31173
1941 6.05631 0.735135 1.65067 0.0410145 -1.33007 1.59562
2568 6.45967 0.678272 2.5854 1.01281 -0.369846 -0.942079
3356 8.72168 0.680416 1.85036 0.365303 -0.487845 -2.14627
1333 7.72492 0.777098 2.34429 0.133577 0.023235 -0.0626498
2551 8.84632 1.4156 2.72099 0.167151 0.0631 1.226
508 9.84966 0.921884 2.3959 -1.07016 0.518808 -0.289002
1833 9.25611 0.339341 2.92574 2.1856 0.283235 0.147642
1533 9.34133 1.46654 1.58906 -0.275088 -0.713332 -0.986938
2970 11.2737 1.2423 2.90495 -0.89417 1.6739 -0.593361
3146 11.7541 1.00899 1.63711 0.720529 0.386719 0.715478
1452 12.7995 0.989207 2.2253 0.97865 0.0588338 0.183912
3994 12.0052 0.399554 2.6895 0.660002 -1.31863 -1.35147
2450 14.7304 1.03274 1.75663 -0.720479 0.656926 -1.56575
3842 13.7205 0.849314 2.07227 2.1248 1.47718 -0.932602
3076 14.5447 0.0194865 2.23105 0.278796 -0.186102 -0.583654
2492 15.5434 0.540325 2.71362 0.742596 -0.850025 -0.609186
1827 16.2465 1.04623 1.87142 1.00528 0.236953 -1.76093
1445 17.8362 0.444596 1.92048 0.00811542 -0.736645 0.359564
1081 17.1899 1.22263 2.29951 1.41096 -0.998369 -1.23519
286 16.7537 0.331054 2.42132 -0.567801 -1.33281 1.16539
2383 0.22575 2.8558 2.51729 -2.52775 -1.0475 -0.266415
3482 1.19039 2.49431 2.96745 0.412896 -0.57953 -2.21396
1741 0.179698 1.74682 2.29483 -0.153513 -0.215955 0.700537
319 1.93244 2.71882 2.25662 0.933774 -1.10274 0.684935
2042 3.69669 2.58118 2.47047 1.21147 0.569051 -0.62535
387 3.1304 1.92899 1.81876 0.117572 0.278432 -0.344501
1805 4.44423 1.53388 2.6557 1.85858 -1.02222 -1.8537
455 4.56863 2.81766 1.87585 -1.04709 0.0576744 -0.695582
1682 5.33802 1.61746 2.25926 -0.783156 1.07371 -0.685285
1905 7.14577 2.43133 1.49707 -0.901089 -0.153758 0.530325
3608 6.02429 2.09436 1.60069 -1.92377 -0.82865 1.11378
2268 7.1126 2.38103 2.8227 1.77542 -0.00932887 -1.68663
618 6.92801 1.52032 2.01158 0.910233 0.124159 -0.62495
2798 8.05882 2.79313 2.12929 -0.0559524 1.13037 -0.564586
1062 9.28213 2.74014 1.98122 0.65247 -0.579027 1.52885
480 10.0358 2.02755 2.49324 -0.958265 0.396856 -0.943777
1645 10.8274 1.69 1.89137 -0.42955 -1.03979 -1.15811
2051 10.5636 2.95907 2.73576 -0.494049 0.968782 -0.956041
1236 11.4838 2.22029 2.54242 -0.0924794 0.883203 -0.895139
3941 12.9476 2.91827 1.61277 -0.167672 0.0330832 -1.1908
1446 12.1226 1.90085 1.70883 0.347091 1.0444 0.3372
435 12.6084 1.8845 2.85493 -0.955566 -0.542837 0.491806
657 13.6622 1.92616 1.89021 -0.0589433 -0.425469 0.564947
1025 14.8327 2.1801 2.11799 2.02327 0.622171 -0.765662
2282 16.3241 2.7705 1.81532 -1.63393 -0.664052 -0.779556
2066 15.7406 2.5566 2.65443 1.06109 0.849099 0.277011
2163 17.4801 2.73288 1.66599 -0.0815306 -1.07229 -0.323949
469 17.1953 2.19739 2.87856 -0.196817 -1.02207 1.01562
2968 1.0178 3.10939 1.65406 0.634745 -0.174884 -0.0782028
1319 0.567167 3.95572 2.25004 -0.455424 0.0361754 -1.34243
3934 2.51911 4.23349 2.20873 -0.923628 -1.20198 1.45485
1550 2.84673 3.27126 2.61438 0.706455 -0.079196 -0.562703
1175 3.95296 3.57923 2.28659 -0.965531 0.0439287 1.90721
3156 3.65822 4.42508 2.78165 -0.149489 0.229133 0.489619
2890 5.76979 4.15154 2.27227 -0.426096 -1.65816 1.58863
672 5.51942 3.1543 2.44694 -0.477151 -1.18963 -0.280048
1815 4.88685 3.78161 2.93611 -0.706619 1.10909 0.89482
274 7.18788 3.49158 1.81484 -0.965971 -1.50469 0.513679
1019 7.12964 3.97358 2.87761 -0.826285 0.268082 0.384438
2535 6.2504 3.10111 1.49423 -0.731591 -1.06001 0.613194
3301 8.91636 4.1225 1.69834 -2.62564 1.18793 -2.37796
2611 8.19269 3.88379 2.52879 -0.692504 -1.41584 0.0522274
2284 9.98544 3.61231 2.08981 -0.430158 -0.94791 -0.478433
3592 10.6952 4.14741 2.59097 0.240492 1.80185 0.112486
1820 11.041 3.84521 1.66228 -1.79294 0.619967 -1.09749
3740 11.5969 3.50547 2.76532 0.954254 -0.104403 -0.223056
2397 11.9604 3.16054 1.87732 -1.60381 0.728068 1.2272
432 12.9557 4.16896 2.09134 -1.523 -2.52198 -0.53629
1154 12.1086 4.37029 2.66172 -0.0873839 1.18628 -0.4073
2403 13.8141 3.56762 1.88764 -0.167627 -0.488311 1.08577
1657 13.5157 3.06049 2.74896 -0.629802 0.425259 0.410078
441 14.2959 3.80862 2.74926 1.50198 0.316941 -0.473058
92 15.1309 3.27692 2.12808 -0.488406 0.76295 1.4134
2301 15.0583 4.41681 1.67271 -0.715605 1.10761 -0.84757
1438 15.991 3.57207 2.82974 0.564391 -0.645262 -0.328182
1688 15.2145 4.208 2.74217 -0.933284 -1.98511 0.69516
2710 16.0331 4.08646 1.90549 -0.222035 -1.4716 0.407603
230 17.1428 3.16777 2.58786 0.166322 -0.187686 -0.114944
3787 17.075 4.19542 2.2615 1.72707 -0.061683 -0.919103
3182 1.42918 4.62271 2.13875 -0.649529 0.613286 -1.66339
19 1.05603 5.70168 1.96455 0.918134 0.438589 0.22024
238 2.26866 5.21763 2.23547 -1.65541 0.237874 1.28714
2025 3.2735 5.39442 2.60382 -0.878872 -0.579646 0.44727
1985 4.34742 5.10787 2.96889 0.718128 1.17132 0.692595
1743 4.67875 4.64388 1.89133 1.86266 -1.02165 -0.102368
3618 5.30786 5.02812 2.58309 0.158832 -1.57307 0.743041
492 4.68011 5.70053 2.03387 -0.150962 0.646341 -0.817008
1967 7.32089 5.869 1.95165 -0.707286 0.770781 0.160531
1930 6.88575 4.48037 1.72551 -1.17531 -0.216847 -0.796536
1406 5.97802 5.91656 2.91324 -0.235147 0.128587 1.50283
2808 7.81694 4.7943 1.88287 0.0913756 0.543744 -0.0737805
1309 8.55204 5.66106 1.87845 -0.06008 0.153712 -1.34865
2668 9.85266 4.72996 1.89517 -0.405157 -0.62324 0.0816395
1077 8.98987 4.78774 2.65772 2.31034 -0.442985 1.06187
330 10.4571 5.64861 2.6291 0.238871 -0.213516 -0.522037
3211 11.1759 4.99392 2.01814 0.556207 1.66325 -0.841464
1516 13.1649 4.4721 2.9758 -0.460755 -0.403478 -0.269565
2934 12.6504 5.51444 2.92301 0.798555 -0.0521181 -0.598194
1733 14.767 5.61127 1.78564 2.35843 -0.798945 0.218983
1162 14.0914 4.89572 2.58156 1.33651 0.415666 -2.27015
602 15.9199 4.99769 2.41654 2.26353 -0.676147 -2.01411
3435 17.8188 5.06493 2.35885 0.655309 -0.212893 0.014449
526 0.930437 6.74871 1.89992 0.0767532 1.05942 0.985711
661 1.30549 7.07215 2.94919 0.767828 0.550113 -0.189011
466 0.733557 6.15042 2.83338 -1.33765 1.29933 -0.327454
511 2.35087 7.27362 2.01843 2.00833 0.547911 -0.504885
2935 2.03881 6.30858 2.70182 0.73647 -0.330026 -0.582775
694 3.03676 6.40344 2.14595 1.31549 1.00427 -0.526795
2417 4.01824 6.34313 1.61752 0.0413182 -1.66012 1.65878
863 3.56462 7.19371 1.94607 -1.54092 -0.0656643 -1.2289
426 2.98575 7.25825 2.82546 1.38077 -1.28547 -1.72706
425 5.03553 6.36104 2.96167 1.44968 1.48517 0.216303
1455 4.92132 6.88625 1.78848 -0.375392 0.0601163 -0.36914
1761 5.01177 7.37497 2.76633 0.605693 0.455889 -1.03771
1687 7.0686 6.80169 2.82392 1.00249 0.302523 2.00888
1016 6.10062 7.38493 2.77908 0.204167 0.874766 -0.0473457
3947 6.0858 6.76157 1.78587 0.740591 1.45496 0.96798
1253 7.90032 6.90989 2.19524 -0.840395 -0.643025 0.556145
2803 8.0104 6.05925 2.70473 -0.27669 0.638087 0.38779
448 10.2264 6.68688 2.16569 0.430514 -1.41481 -0.655916
2440 9.15992 6.94427 2.45309 0.0382084 -0.891333 0.709639
3585 11.2698 6.08082 1.63405 0.525721 0.105268 -0.217685
3613 11.7242 6.11848 2.70032 1.39752 0.13148 1.66139
3911 11.2235 7.2416 2.0979 -0.775635 -0.423658 -0.175641
1814 12.0909 6.83558 1.85162 0.931761 0.43718 0.0253958
1433 13.6764 6.97304 1.49976 -0.701403 -0.880088 1.14368
869 13.7262 7.2382 2.63198 0.541337 -0.113772 1.84958
477 14.8629 6.76186 1.76254 -0.796907 0.0456679 -0.103693
273 14.6537 6.87724 2.84466 -1.23628 -1.02382 -1.07306
3192 13.5179 6.17578 2.4504 -0.0125 1.12551 1.2111
1159 15.6434 7.40192 2.53629 -0.342345 -0.390931 -0.134538
557 15.8822 6.07157 2.22102 1.44516 2.73792 0.665696
3422 17.5237 6.97557 2.48434 0.43353 1.05645 -0.609273
1494 16.7435 6.56288 1.89857 2.3634 1.15 -2.16078
3940 0.896946 8.08963 2.83905 1.85608 -0.966545 -1.13743
3199 0.377625 7.56128 1.93348 -0.704778 -1.15608 -0.161824
3952 0.554176 8.64697 2.00437 -0.567014 -0.117172 -0.234407
416 1.31311 7.87058 1.61474 0.686254 -0.332523 0.720194
1856 2.69683 8.33598 1.92771 -0.711927 -1.8419 0.578707
2034 1.97249 8.71707 2.78325 -1.88697 1.51192 0.206507
1640 4.11913 7.65752 2.72695 0.956579 -1.09945 -0.608053
921 5.37097 8.07826 1.78751 -0.568784 0.497774 -0.173787
2497 4.49278 8.40404 1.53775 1.11443 0.717135 1.53449
464 6.83363 7.60189 1.97825 0.0717338 0.361215 -0.966995
1703 6.49126 8.91179 1.84337 -0.715364 0.470744 -0.603596
2336 8.90786 7.76265 1.86922 0.566314 -0.912111 0.589036
2853 7.47046 7.75602 2.78684 -0.146797 0.416405 0.115662
3308 8.3373 8.78411 2.85142 1.38554 -0.681165 0.899705
1806 7.84723 8.23141 1.91014 1.4022 -2.30003 2.00327
2936 9.92783 7.7939 2.73712 0.715625 -1.3141 -0.952626
916 9.93366 8.88509 2.10535 -0.540529 0.540151 -0.981386
686 10.7468 8.33928 2.39596 -0.259729 0.737572 0.561593
2750 13.054 7.65101 1.85561 -1.02589 1.75436 -1.18388
2797 12.0639 7.82769 2.23704 -0.210061 0.874802 1.41939
1991 11.9473 8.72326 1.54962 0.374994 1.91606 1.00585
280 14.0792 8.68752 1.55924 1.27188 -0.361568 0.0458615
2725 13.8527 8.52689 2.88085 0.915598 -0.527603 1.29693
588 14.6999 7.87481 2.60742 0.232225 0.0311166 -1.0506
392 15.8651 8.56783 2.61672 -0.324448 -0.290079 0.770445
1757 16.0757 8.1499 1.6492 0.44962 1.98143 1.79724
3912 15.0594 8.1586 1.67828 1.08876 -0.246992 1.41262
3629 17.1334 8.06261 1.7912 -0.12205 1.82526 0.367821
3263 16.6195 7.84833 2.66983 -0.861812 -0.342482 -0.940603
3601 16.8374 8.84945 2.71204 0.0382891 0.900411 -0.65681
529 0.851294 1.15697 4.23961 0.0352323 1.31787 1.64745
79 0.517433 0.580417 3.28632 -0.288118 -0.952616 -0.698904
3271 2.63805 0.0503702 3.18717 0.15281 -1.51497 -0.0585991
2348 2.0928 1.01828 3.51022 1.07479 1.73715 -0.520666
2759 3.57106 1.29966 3.59833 1.76804 0.231218 1.2763
3438 3.29542 0.357022 4.15019 0.364852 -1.15117 -1.36991
1517 3.72035 0.461108 3.02649 2.17937 -0.370628 -0.249535
2075 5.464 0.817613 3.58133 0.662278 1.63954 2.11284
705 4.54532 0.987882 4.19943 -0.262169 0.28685 0.954366
562 7.23813 0.277668 3.41324 0.720786 -0.598211 -0.421861
11 6.62439 0.688105 4.27422 -1.45883 0.687841 0.71163
1101 7.16247 1.40433 3.52091 -0.825509 -0.81393 -0.319629
347 8.14208 0.25789 4.36554 -0.494319 0.143276 2.15432
217 8.32171 0.772752 3.41685 1.34818 -0.650077 -0.971694
2951 9.24871 1.19481 3.68285 1.15382 1.32907 -2.43664
221 9.1547 0.0946561 4.09777 0.92256 0.855725 -0.153188
2698 10.3881 0.884365 3.67009 -0.85144 -0.407346 3.0541
1685 11.1009 0.195295 3.34175 -0.313932 0.541553 -0.254397
2836 12.6029 0.795173 3.40291 1.74044 0.0896064 0.222396
2508 12.0633 0.419753 4.33161 0.67922 0.18985 1.00134
3045 12.6066 1.37367 4.44814 -0.255277 0.540761 0.0197477
2861 13.0427 0.357317 4.35979 -0.00349517 -0.632584 1.00733
446 13.4193 0.24513 3.01989 0.340659 -0.806207 0.798862
1505 13.4823 1.22617 3.78113 0.451981 0.057257 0.171466
3870 14.2988 1.12119 3.01867 -0.646338 -0.672538 -1.78579
747 14.4182 0.0119082 3.32482 -0.499488 0.687232 -0.474546
2636 15.6719 1.46489 3.13467 0.774702 0.413521 0.242946
1816 15.7618 1.46695 4.22668 0.217408 -0.322178 -0.13289
2774 15.0722 0.775936 3.77436 -0.965537 0.328479 0.286233
3089 17.0124 0.90343 3.33981 0.376912 -0.26292 0.576084
2266 16.9151 1.36716 4.36687 0.924934 0.611716 1.0949
2446 17.0159 0.202679 4.37589 0.992521 1.56568 0.183564
350 0.931542 2.62886 4.08391 -0.593939 0.47004 -1.10584
3154 0.243744 1.65846 3.36653 -1.76508 0.949378 -1.51397
2748 2.95226 2.25545 3.17161 -0.478182 -0.194563 0.478565
14 2.46745 2.08305 4.39209 -0.172693 1.33671 -0.953454
3871 3.60109 2.27554 4.02268 -1.19447 -0.300084 -0.640823
901 4.71338 2.46108 3.11918 -0.861826 1.27843 -0.169815
2345 5.49378 2.23276 3.91773 -0.654088 0.407758 0.934212
294 6.05461 1.57261 3.06729 -1.13612 0.0329532 -0.779855
617 6.30053 2.49797 3.45964 1.07319 1.57532 2.13517
493 6.97353 2.76246 4.40519 0.722238 0.245777 0.0626194
2159 8.53465 2.3712 3.00653 -1.51631 0.665556 0.575259
3187 8.001 2.05168 3.90319 0.90826 -1.3202 -0.873477
2489 9.5777 2.49857 3.30767 -0.443909 -2.00212 0.838858
652 9.09011 2.9561 4.20226 0.0240373 -1.24996 0.669169
3048 9.60501 1.86955 4.33986 -1.18872 -0.158601 -0.233129
509 10.522 2.29734 3.59815 0.648773 -0.882098 -0.212636
3688 11.0648 1.58385 4.44215 0.154793 -0.698435 0.00785468
1691 11.8818 1.65922 3.80495 0.27527 0.632501 -0.642094
3614 13.0944 2.67075 3.78096 -0.371164 -0.379001 1.91986
1474 13.6594 1.97365 3.01358 1.88095 0.924372 -0.374432
2313 14.7651 1.82881 3.62652 -2.58605 0.685155 -0.43115
2044 14.5522 2.6358 3.08765 0.608678 -0.482371 1.22485
3698 14.2541 2.80721 4.21403 0.265552 0.346016 0.226223
3460 15.5532 2.43397 3.82399 -0.679946 -0.0472332 -0.0438266
1074 1.31889 3.59033 3.14986 -0.600576 0.0164751 0.709247
3664 0.596481 3.72197 4.11955 -0.821082 -2.91882 -0.00363711
1623 2.37444 4.2458 3.31214 -0.582301 -1.4899 1.35757
742 2.56796 3.46398 4.20855 -0.822974 0.696041 0.266824
2243 3.61151 3.12037 3.29918 -0.8582 -1.7784 0.296533
1534 3.3717 4.21575 3.85037 -1.02179 -0.778516 -0.59611
3744 5.06572 3.21295 3.90167 0.272249 1.51819 1.70939
907 4.87765 4.35552 4.24708 0.11713 -1.50756 0.250071
1877 6.0582 3.77743 3.10377 -0.0373521 0.134709 0.526119
852 6.03297 3.19974 4.1039 -0.988433 2.409 -0.486805
2229 7.94654 4.06636 3.527 1.66865 -1.07958 1.12593
1604 7.52508 3.0618 3.3694 0.0804644 0.700888 -0.161611
366 8.09808 3.12271 4.17995 0.781483 -0.659373 0.0387816
3248 9.09884 3.79653 3.02293 -0.412984 0.591274 0.00782194
3049 8.94945 4.00673 4.23137 1.24158 -1.34853 0.450184
745 10.1703 4.37059 3.48814 1.24467 -1.31807 0.251804
3938 10.3253 3.31767 4.01446 -0.0966496 1.93918 -0.323955
1220 11.4374 3.18616 3.85552 0.106983 -0.55724 0.630137
1199 11.2125 4.31127 3.54729 -1.32691 0.192133 1.90483
2409 12.5958 3.30675 3.00429 -1.1299 -1.06614 -0.686843
1513 12.8088 3.7921 4.02743 0.235864 1.66936 0.486088
1489 14.578 4.44593 3.67302 0.24755 -0.411072 1.74413
3605 13.8701 3.77524 3.78355 -2.41806 -0.791482 -0.595154
3777 15.2482 3.29269 3.61227 -1.15841 -0.468937 -0.0891217
3235 16.1571 3.21721 4.392 0.505778 0.783118 0.789313
1659 17.8348 3.43644 3.38328 1.09526 1.24372 -0.649816
674 16.6596 4.19223 3.21618 -0.0442406 0.279253 -0.464568
1976 17.3989 3.65234 4.28893 -0.160188 2.51794 -0.0826396
568 16.9005 3.04295 3.55807 -0.777362 -0.442245 -0.704797
3124 1.25609 4.64181 3.2184 1.6125 0.436159 1.52672
368 0.4009 5.46563 3.87602 0.659171 0.53993 -0.777389
2754 1.98202 5.40524 3.91203 0.831191 0.544207 0.554553
3963 4.46085 5.84587 3.75404 -0.954312 -0.979866 1.26558
3571 3.5545 5.23164 3.60834 -0.212392 1.28837 -1.02036
2903 5.92132 5.64035 3.8763 0.703259 -0.560808 0.800318
2342 5.65512 4.62086 3.7258 -0.972501 1.01593 1.11502
3884 7.18636 5.61393 2.98862 -0.264747 -1.32962 0.522955
1949 7.20559 5.93991 4.0944 0.140049 0.161154 1.08753
708 6.41419 4.79019 2.99034 1.05804 -0.0699909 -0.258693
2205 6.92296 4.6507 3.94589 -1.63969 0.335882 -0.330668
256 8.13072 5.1109 3.34303 0.926146 -0.202085 1.65533
1403 9.28235 5.09843 3.68563 -0.125582 -2.37688 1.52204
2472 9.40964 5.94162 3.04942 0.798671 0.685823 -0.469546
1539 9.68915 5.87642 4.10127 -0.550625 0.980593 -0.0928725
3488 11.5199 5.28893 3.20729 -0.0754744 0.672253 0.126748
1897 10.7181 5.51496 3.78272 -1.24688 0.124381 -1.86931
1785 12.4021 4.83098 3.7329 0.239875 1.14317 2.27875
2056 14.4328 5.59344 3.26217 -0.396581 0.893027 0.209587
473 13.5107 5.25158 3.70962 0.133397 -0.826938 1.36619
316 14.8693 5.28607 4.37128 -1.06205 1.72656 -2.36097
1524 15.6053 5.78712 3.52912 -1.38565 -0.39607 0.12967
2724 15.8558 4.76318 3.60356 -0.675057 -1.93196 -0.16066
1215 17.58 4.55566 3.60114 -0.301248 0.0463409 -0.252392
525 0.495012 7.02194 3.77726 0.085795 0.0945347 -0.0139564
2610 2.72093 6.32246 3.70662 -1.02736 1.65481 -0.735444
2847 1.67082 6.6567 3.89713 0.975581 0.29972 0.776836
1286 3.60558 6.41375 3.00002 0.190751 -0.0668736 1.17937
3449 3.20422 7.19801 4.30371 -0.973588 -1.11189 1.14907
2505 4.29005 6.87262 3.65071 0.113486 -0.543587 1.52351
3009 5.27018 7.18996 3.81239 1.68823 -1.25639 -1.11154
1124 6.36515 7.02712 3.84545 1.14953 0.634128 -1.34609
3416 8.16876 6.91312 3.29129 -0.57502 -3.0218 -1.57159
2088 7.49173 7.10186 4.0231 1.3279 -0.0399389 -1.32067
671 8.56808 6.01089 3.91555 -0.164863 0.56533 0.728079
3194 10.385 6.61337 3.60577 -0.862873 -1.17039 0.156558
3247 9.58322 7.07471 3.97817 0.529938 0.728692 -0.176905
1258 11.3973 6.80324 4.10637 1.18284 -0.226507 2.19463
2544 12.0921 7.21248 3.46621 0.538303 -0.609822 0.121215
166 12.5408 6.16722 3.66878 -0.299492 0.516749 -1.08622
1426 13.7844 6.46214 3.52223 -0.22521 0.422641 0.168061
889 14.1723 7.27903 4.092 0.276732 0.853584 0.4158
1851 16.2238 7.27325 3.87199 0.910589 -1.62483 0.445842
3742 15.2024 7.26418 3.87218 -1.01707 -1.26138 -1.0752
3630 17.3424 7.29046 3.73689 1.07531 -0.585666 -0.760339
714 17.5468 6.4098 3.30457 -2.60773 0.79242 1.29895
3771 0.230524 8.20327 3.90968 -0.13639 0.665628 -0.765747
2849 1.18765 7.81873 4.19392 -0.067214 -0.757925 -0.554731
1320 1.86592 8.64443 3.96864 -0.691243 0.0351832 1.49054
1306 2.2292 7.59997 3.9524 2.05391 -0.602669 0.402209
2208 3.56286 8.30054 4.15714 -0.595164 0.0190144 -0.550146
3087 3.37596 8.37195 3.16639 -0.764118 -0.332555 1.11624
1301 5.54561 8.4698 3.04726 0.488899 -0.732221 0.48014
1710 5.85774 8.18664 3.99582 -0.197421 -0.0763942 -1.20662
3051 4.54216 7.91602 3.58633 -1.1786 -1.20366 -0.327908
297 6.86645 7.8956 3.5008 0.214567 -1.21325 0.682597
1763 7.10846 8.92732 2.99933 -2.03919 -1.07368 0.276971
2227 6.85925 8.61132 4.17514 -0.619691 -0.210908 -0.754758
1669 7.97232 8.1385 3.79452 0.143977 1.87876 -0.998007
3661 8.91976 8.53824 3.9581 0.205533 1.38887 0.237904
439 9.87857 8.4833 3.50964 -0.813696 0.21904 -0.246609
1940 11.3018 7.77246 3.03605 1.55072 -0.319032 0.491246
3967 11.04 8.84378 3.3514 0.279643 -0.618264 0.214112
3190 10.849 8.32919 4.26805 -0.0552606 0.979446 -0.603403
656 11.9152 8.04369 4.15248 -0.37021 0.0589101 -0.642784
195 12.9376 8.87114 3.58761 1.29636 -1.81866 2.22245
2130 12.9039 7.90352 3.00731 -0.355766 -0.29133 -0.462219
1317 12.9075 7.56952 4.29286 -2.32783 -0.00097641 1.20161
182 13.7288 8.118 3.88323 0.881637 0.295321 0.357612
1352 14.8069 8.5206 3.48825 -0.632699 0.427727 -1.30826
307 15.7767 8.29202 4.09737 -0.510828 0.482081 -1.81999
1925 16.6985 8.33426 3.5873 -0.273693 -0.254724 -0.102733
1263 0.82415 0.488748 5.67384 0.445561 -0.336998 -0.378224
2924 0.097494 0.0275654 5.01079 -0.950868 -0.0305538 1.02263
2115 2.34294 0.299279 5.37029 -0.599538 -0.759145 -0.267662
3968 2.92119 1.12161 4.77206 0.397325 -0.330225 2.47795
488 4.14298 0.525753 5.73886 -0.810001 -1.8532 1.86993
973 3.92232 1.04404 4.93924 0.1639 -0.931243 1.41348
500 5.69348 0.357258 4.91284 -0.0962902 -0.196371 1.24211
2859 5.27554 1.11894 5.52187 0.854174 -0.637684 0.123557
3641 6.44256 0.861194 5.30245 -1.03929 -1.76357 -1.5569
3882 7.56074 1.09315 5.41611 -0.320017 0.455097 1.51054
3809 8.85683 1.36553 5.64499 1.05027 -0.254526 1.47657
113 8.57493 0.348142 5.44901 -0.0300002 0.148026 -0.895276
666 8.45196 1.24691 4.66103 1.49733 -0.862149 2.65428
1962 9.79814 0.269575 5.9179 0.682659 -0.46394 -1.55989
2993 10.1301 1.14417 4.8752 -0.897675 -0.487241 -1.79402
3888 10.8807 0.448277 5.58222 -1.55716 -0.77905 -1.93097
734 12.8191 0.501031 5.39439 0.234608 0.563013 -0.406815
53 11.9225 1.05151 5.87073 0.125957 -1.33742 0.250244
1448 13.8999 0.957178 4.66138 -0.475458 -0.20448 1.52725
362 15.7877 0.54449 4.74998 -0.164879 -0.308106 1.42639
1394 14.9719 0.0143395 5.54674 0.0936749 -0.450123 0.83689
2629 15.0827 1.11975 5.53377 -1.39216 -0.655548 -0.418311
1661 17.7131 1.07293 5.00565 -2.09158 -0.302865 -0.321594
3619 1.33615 2.47643 5.14007 -0.824014 1.21312 -0.751213
1190 0.704675 1.6026 5.28254 0.744701 0.352927 -0.0263524
920 1.69939 1.54009 4.94862 -0.866449 -0.554953 -0.766824
3492 2.44242 2.51119 5.52631 0.873442 -0.424675 0.246338
1617 4.41849 2.43787 4.8264 -0.74438 -1.72715 1.40118
2137 3.38298 1.87353 5.06789 1.39325 0.150675 0.444292
881 3.78482 2.64072 5.72795 -0.0239367 -1.0778 0.668187
1359 4.47717 1.71874 5.76329 1.67203 1.50359 -0.965005