ITEM: TIMESTEP
73000
ITEM: NUMBER OF ATOMS
4000
ITEM: BOX BOUNDS pp pp pp
0.0000000000000000e+00 1.7878070701931353e+01
0.0000000000000000e+00 1.7878070701931353e+01
0.0000000000000000e+00 1.7878070701931353e+01
ITEM: ATOMS id x y z vx vy vz
1501 0.763192 0.0188919 0.621758 1.62494 -0.451191 -1.51001
3854 0.436944 1.457 0.526408 0.64174 2.09814 0.913173
2452 2.73244 1.39517 1.43826 -0.861712 -1.02121 0.812847
2176 2.5277 0.0402414 0.879663 -1.80844 -0.713178 0.581554
2070 1.7513 0.839145 1.12382 -2.09244 1.62257 1.07917
1171 2.38402 1.01949 0.328919 -1.17779 -0.782534 0.215295
823 3.36483 1.20552 0.403251 -0.486643 -0.80477 -1.63307
2740 3.37646 0.552146 1.31546 0.299318 -0.029777 -0.197389
395 5.66371 1.12702 0.872577 -1.51503 0.0136278 -2.21623
2435 6.81154 0.634362 0.727889 1.04768 -0.0730307 0.51602
1480 7.85459 0.636324 1.24889 0.644482 -0.0274078 -0.377118
1091 8.66036 0.995655 0.288002 0.585446 -0.523713 -1.09638
3657 7.79779 0.279657 0.22286 0.227446 0.688001 0.344025
3668 9.3078 1.32894 1.18697 1.23756 -0.454964 -0.932018
3173 9.85425 1.47734 0.139678 2.15529 0.925601 -1.03391
3264 10.1547 0.689429 0.796847 0.886077 0.4392 0.496679
3319 9.40433 0.228502 0.0117875 0.0728382 -0.873037 -0.794422
2105 11.846 0.0125528 0.138113 0.524683 -0.398337 -0.183401
687 12.9704 0.954932 0.859683 -0.192858 -0.699491 0.718803
1640 14.6316 0.663802 0.582909 0.845677 -0.33659 -1.7672
1172 13.9269 1.13606 1.45956 -0.734047 1.23645 -0.458781
2784 15.2086 1.28518 1.40629 -0.0488608 -0.169211 -1.04733
3379 15.6501 0.339204 0.29552 0.158455 -0.0247678 0.180798
3785 16.2032 0.890176 1.25713 0.501093 1.07241 -0.425167
198 15.7439 1.44458 0.100645 -0.609518 -1.39808 1.39699
608 17.4395 1.2015 1.24788 1.22972 -0.273044 0.0118806
2389 17.5588 0.116121 1.0562 0.669329 0.0526431 1.75527
155 16.8602 1.01098 0.273601 -0.190718 1.25039 -0.244459
1465 17.8119 0.147362 0.0155155 -0.0298362 0.28311 -0.0952919
3777 0.713435 2.50237 0.752556 2.37 0.484209 -0.37011
273 1.39801 1.82816 0.251732 0.879976 -0.465062 0.054284
1947 2.55167 2.10903 0.422767 -0.73878 0.890408 0.403687
2969 1.59543 1.86546 1.3741 -0.309095 -0.154045 0.403321
1694 3.42294 2.74705 1.18065 0.780497 1.71914 1.21922
3809 4.36342 2.42371 0.375732 -2.12613 0.110325 -0.337908
2433 3.29584 2.87383 0.0833505 0.626226 0.803605 0.766954
445 4.88647 1.64218 1.27537 0.346275 -0.568974 -0.358812
195 5.07998 1.66855 0.274591 1.45111 1.22421 1.32599
256 5.6159 2.4832 0.500954 0.819525 0.0568366 -1.12616
2402 6.6567 1.79593 0.888876 -0.405467 -0.0529025 -0.720006
1974 7.04002 2.75821 0.569642 -0.0641509 -3.05502 0.236558
1791 7.81255 1.68749 0.82863 0.330197 -1.48726 -1.04448
1289 7.8035 2.93099 1.39243 -0.871118 0.953972 1.28437
544 8.71711 2.92603 0.899677 -1.2406 0.198471 1.30204
381 9.06966 2.06309 0.23467 1.83529 0.289155 0.530933
2134 9.63397 2.25615 1.01211 -0.0641985 1.14937 -0.386528
1126 10.6538 2.06805 0.435641 -0.219037 0.923283 0.75933
3476 11.7455 1.81444 0.932644 -0.945284 -0.636265 0.149146
474 11.8617 2.7196 0.232023 -0.0213276 -0.980365 -0.265826
1655 12.4712 1.93375 0.249368 1.25664 1.52521 -1.50463
3836 12.349 2.68953 1.19025 1.04549 0.00929945 0.88099
883 14.7101 1.88548 0.314825 1.39347 0.208207 0.119785
924 13.7297 2.44543 0.691521 0.672232 -0.771533 0.353304
1060 15.7809 2.3806 0.939615 -1.4355 0.0478874 -0.848515
951 16.6957 1.8857 0.985439 1.10316 -1.36196 -0.476024
1096 17.4604 2.61977 0.621549 0.0189523 -0.373131 1.14928
3717 16.5193 2.34738 0.0882446 -0.478243 0.80942 -1.23842
2723 0.0554142 3.40394 0.178831 -1.90332 0.382975 0.210308
49 0.375883 4.21222 1.06695 -1.37165 0.78486 1.89416
2683 1.70731 3.02295 0.763876 -0.281648 1.40986 -0.420069
1537 2.60203 3.33043 1.31905 -0.010769 -1.67656 -0.313341
1690 2.44575 3.52808 0.125243 1.57569 1.77434 2.23025
86 4.41323 4.29242 0.196918 1.95768 -0.258193 1.86004
3424 3.76335 3.8153 1.02352 1.8266 -0.633937 -0.105568
3130 4.90182 3.36354 0.602591 1.02369 -0.892812 -0.472093
2866 5.10892 4.09329 1.43959 -2.77326 1.34191 -0.294707
2972 7.12002 3.7742 0.10965 -1.94296 1.35425 1.149
2629 6.09717 3.36599 0.986224 0.041868 -0.00950135 -1.44566
1820 7.93757 3.21081 0.135243 1.48352 -0.219694 -0.915538
3161 8.60082 3.94567 0.905909 1.51964 -0.3688 1.62013
309 7.8954 4.44159 0.282383 -0.376097 0.221493 -0.233937
1814 9.1348 3.48615 0.0625348 -1.23055 0.725277 -1.15379
2793 9.60432 3.76545 0.987597 -1.3014 -0.807273 -0.694431
719 10.31 3.07724 0.398213 -0.743216 1.77617 1.01507
322 10.4193 4.45509 0.0240582 0.739954 -0.229035 -0.625636
501 11.3826 3.05752 1.15895 0.755463 -0.339909 1.45306
385 10.9664 4.00281 0.775405 0.0274248 1.33703 -1.59767
758 12.853 3.00395 0.334502 0.461752 1.10407 -0.450786
3224 14.7347 4.17542 0.232592 -0.487497 -0.104779 0.929767
1861 14.7851 3.16989 1.01997 0.792332 -0.593322 -0.335489
690 13.6068 3.9405 0.98832 -2.14476 -0.247077 0.519023
930 14.8199 4.14197 1.35517 -2.40835 -0.385866 1.08655
3419 13.8225 3.69383 0.0273093 2.24948 -0.427606 0.570182
3976 15.6441 3.32315 0.469837 0.556395 -0.088608 -0.962476
1298 16.4425 3.85184 0.966776 -0.496199 -0.191907 0.0732276
1432 0.686303 5.37074 0.560399 0.111151 -2.56593 -0.0392847
2922 2.03782 5.39224 0.144069 -0.617541 -0.969003 -1.36773
465 2.75888 4.68603 0.284694 2.31584 0.221352 0.363941
804 2.81639 5.74371 0.90868 -0.759991 1.62117 -0.923196
528 1.79243 4.75796 1.16693 -0.707541 1.47091 1.22226
2313 3.67579 5.0343 0.886296 -0.844744 -0.538271 0.778116
232 4.84868 5.13453 1.01667 0.121645 0.845748 -1.02878
3592 7.24133 5.62042 0.759768 0.831657 0.046719 0.909334
3656 6.01416 5.13471 0.928505 0.0674719 -0.411623 -0.424883
3907 7.54328 4.52099 1.29464 -0.306543 1.25257 -0.264877
3325 8.47472 5.50622 0.136085 0.337112 0.181021 -1.05117
2183 9.04085 4.63033 0.195958 -0.432369 -1.27512 -0.525871
3515 9.16061 5.84988 1.16287 -0.591624 -0.178842 -0.183857
1259 9.39583 4.67296 1.33054 0.666549 -1.88946 -0.998899
827 10.3629 5.05728 0.934189 0.87579 -0.396612 0.154539
1957 11.1491 5.90746 0.724365 0.862754 0.716246 0.376259
2008 11.8545 5.26085 1.02806 -0.436352 -8.9317e-06 1.11801
768 11.3662 5.01205 0.105982 1.18485 0.663742 -0.676405
3416 12.7543 5.95274 1.15739 1.48297 -0.818347 1.27269
1279 12.7244 4.48364 0.693182 0.598185 1.21806 0.123712
808 13.937 5.19614 0.163709 1.58223 0.65162 0.0503566
667 13.7991 5.54605 1.07098 0.63096 -0.937444 1.14005
108 14.737 5.16299 1.00189 -0.224694 -1.04671 1.01524
1937 16.3749 4.85839 0.341147 -1.87797 -0.132538 2.24843
1631 15.8361 5.03493 1.2204 -0.759972 -1.13659 -0.329037
342 17.2101 4.74656 0.98951 0.660615 1.01437 0.890569
1282 17.5912 5.88538 0.785234 -0.208477 2.20347 -1.34747
3118 16.5376 5.94333 0.500742 0.564321 0.211514 -1.65588
2495 1.04386 6.39516 0.91747 0.00219005 1.09501 -1.54848
1813 0.223937 6.93159 0.884124 0.714579 -0.758331 0.185596
2421 1.9678 6.52845 0.246724 -1.87082 0.148628 0.890648
787 2.05981 7.20072 1.24226 -1.60829 0.387857 1.26811
2813 3.51364 6.21685 0.269925 0.111143 1.36973 -0.272715
1111 4.16243 7.22967 0.263525 1.50376 0.532235 0.573003
372 2.99163 7.37428 0.365472 -0.798147 -0.248584 -0.238367
3465 5.01909 5.99241 0.0762259 0.383921 -0.199624 -1.46135
1588 6.23765 6.08445 1.35486 -0.236124 0.176843 -0.992627
3688 6.17203 6.121 0.117856 -0.985246 1.3214 -1.40168
420 6.77675 7.00519 0.545177 -0.194664 -0.0479676 0.994482
1595 7.63175 6.39744 0.0594152 -0.586664 -0.842854 0.889698
77 8.91875 6.82754 0.398425 1.37689 -1.17675 0.112603
2852 8.11875 6.39737 1.01591 0.300598 0.240085 0.105611
2910 10.2155 6.21343 0.977607 -0.568402 0.687388 1.13992
2083 11.3594 7.41726 0.88323 0.581184 -0.33647 -0.27955
387 12.043 6.65473 0.201577 -0.830177 -1.17751 -0.444656
2992 13.8636 6.9729 0.76144 -2.24911 0.225259 0.933706
2163 15.1307 6.35957 0.367483 -0.1324 -0.116198 0.384902
1157 15.567 6.61379 1.32506 -0.379007 0.470491 0.978521
3111 16.162 7.23971 0.486117 0.214596 -0.373901 -0.425047
3551 16.9009 7.02132 1.21254 0.0630576 -0.103298 0.00249288
423 17.1768 6.74553 0.286238 0.809717 -1.71237 -0.366226
2914 1.42768 7.78864 0.656697 -0.203536 0.0617836 0.383971
295 0.734438 8.54148 1.02648 -0.205543 -0.656088 0.614482
119 2.63951 8.26707 0.824245 0.911781 -0.45967 0.882373
2997 1.80465 8.86386 0.842563 1.08567 1.02808 1.12275
3532 3.61354 8.30492 0.233431 -1.15486 -1.17312 -0.614521
1762 3.24678 7.71381 1.46705 -0.397764 0.04372 1.8862
276 4.73146 8.61787 0.981767 0.723233 0.112641 -0.0452926
2890 5.45209 7.47292 0.770214 0.0397878 -0.932737 0.122997
2724 4.70977 8.03417 0.0152517 -0.983259 0.301381 2.51926
2441 6.04599 8.53321 0.459989 0.956404 2.29627 -0.853889
3083 6.48704 7.78889 1.26364 1.03435 0.985573 -0.247866
3556 6.96984 8.21259 0.463002 1.22903 0.833791 -1.43286
2272 8.93307 7.64566 1.04535 -0.21264 -1.09783 0.747766
1705 8.76522 8.70595 0.596756 -1.55848 -1.20954 1.30102
2918 7.60404 8.0652 1.30634 1.36678 1.23816 -1.0068
3911 7.91691 7.59596 0.16364 0.650016 1.37015 -0.426187
1376 9.58259 8.62903 1.36249 0.478849 1.47085 1.50038
3871 10.004 7.60831 1.04907 1.18627 -1.79524 0.127683
2205 10.8137 8.49054 0.971091 0.23173 -1.38496 0.43464
693 12.4568 7.58041 0.538895 0.199619 -0.711575 0.669347
2453 12.2663 8.86667 0.766463 0.214517 -0.893111 1.29783
95 13.3593 8.88614 1.15236 -1.53333 -0.0272527 1.04353
3271 13.8849 8.0317 1.06506 0.674371 2.22083 -0.915319
726 14.877 7.54248 0.566327 -1.42104 -0.214986 -1.04124
2028 15.9146 8.09522 0.992901 0.0504369 -1.0899 0.570757
3324 17.5647 7.89298 0.927968 -1.74119 -0.514753 0.913755
2669 17.8123 8.71593 0.0133814 0.667752 -0.754273 1.1301
3641 0.823576 1.34761 1.84526 -1.09618 -0.20482 -2.28863
2032 0.167623 0.304227 2.12162 -0.4854 -0.210535 0.102041
589 0.20537 1.38035 2.57481 2.17101 0.120915 0.461377
3072 1.34176 0.177892 1.8023 1.41327 -0.280128 1.68696
3992 1.12256 0.387001 2.76937 0.837988 -0.99468 2.43583
90 1.75216 1.21634 2.23276 2.1051 0.376656 -0.0151396
2209 2.40829 0.499615 1.99182 -0.516913 2.22912 0.252288
1459 3.89383 1.33252 1.79234 0.189325 -1.02368 -0.477355
3289 4.29072 1.37986 2.7231 -0.272449 -1.09846 0.840097
2359 3.12747 0.500338 2.64784 -0.10561 -1.17525 -1.40433
3144 5.85408 0.806904 1.92283 -0.402228 -1.30458 -0.193817
1803 4.76411 0.615083 2.08218 -0.506597 -1.70981 0.757543
1150 7.42745 1.42402 2.84824 0.47127 0.225459 0.453633
411 6.7348 0.207742 2.87356 1.55842 0.997289 0.180209
1536 7.00578 0.111425 1.76082 0.335972 1.06134 1.17119
1196 7.08266 1.20289 1.70832 2.35011 -0.598101 1.30194
3477 8.64316 0.977737 2.80275 1.43063 -0.219202 -0.555377
2823 7.71878 0.196752 2.56062 -0.742228 -1.26546 0.582883
3559 8.69165 0.101531 1.86208 0.80474 2.31689 -0.358981
3339 10.2673 1.43689 1.60611 -0.114003 -0.853709 0.710337
1730 9.65532 0.690246 2.09446 0.776962 -0.445946 -0.0294415
2189 10.8531 1.07819 2.96043 -0.521924 1.2959 0.270839
2948 13.3434 0.236122 1.69591 -0.225751 -0.0174355 -1.9623
3443 12.1213 0.672869 1.64182 -0.587636 -0.733599 2.50244
664 13.4179 1.38164 2.49699 0.792425 -0.304482 0.641135
2473 14.3805 1.08677 2.94165 -0.148743 -0.170304 0.620715
3887 13.7123 0.0148818 2.58546 -0.572462 -0.00762819 -1.52117
2304 15.8918 1.24927 2.27113 -2.12618 0.408259 -1.20639
2522 14.9706 0.524325 2.27872 -1.08708 0.218 -2.02193
1605 15.8967 0.126124 2.1312 -0.0761165 -0.956512 -0.0463485
819 17.0304 0.692698 2.3084 -0.418721 -0.427351 -2.32779
2868 0.488645 2.46066 2.3176 1.62843 0.549061 0.0646301
3967 1.08937 1.80714 2.85679 0.185009 -0.365499 -0.548912
180 1.92821 2.34107 2.23621 0.79006 -0.0207535 0.200169
3170 3.003 1.75419 2.43884 1.0438 0.218174 -0.451522
1589 3.28613 2.96842 2.29904 -1.16006 -0.252418 -0.194398
2155 4.35022 2.69375 2.60979 0.106094 0.543918 0.83332
208 5.28128 2.79456 1.60324 1.50498 1.32792 -0.547461
1978 5.91577 2.6402 2.92563 -0.164829 1.4737 -0.209749
3084 5.17103 1.83514 2.2097 -0.769342 0.340075 1.41636
898 6.27429 1.77883 2.16036 -0.19779 0.422043 -0.294571
1241 6.43596 2.5855 1.50858 1.65883 -0.126231 -0.790332
1054 6.91274 2.68832 2.47217 0.907666 1.49797 0.334935
2535 8.07158 2.24987 2.27821 0.0369683 -1.32574 -0.819983
902 9.41182 1.65472 2.19106 0.921727 -0.638194 -0.800133
2540 8.9411 2.74993 1.88868 -0.91663 -0.0408301 -0.492233
2114 11.2387 2.16859 1.93172 0.532817 0.97412 1.03477
3882 10.644 2.69478 2.59689 -1.12219 0.985475 -0.456962
2869 11.88 2.76351 2.59624 -1.26007 0.436737 -0.370239
2927 12.1401 1.85937 2.38004 -2.39954 0.296543 -0.781063
1487 13.0365 2.51714 2.36172 -0.715127 0.0760865 -1.2464
670 12.7698 1.74941 1.51411 -0.51131 0.245954 -0.0930274
3081 14.2852 2.45969 1.59939 -0.262022 0.497388 -1.6941
1387 14.0375 2.31084 2.6718 -0.694579 -1.44745 -0.220125
337 15.3089 2.64967 1.75948 0.0867325 0.284867 -0.395222
1650 14.9495 1.71176 2.41027 1.89378 -0.453361 0.7295
555 16.1713 2.83324 2.74653 0.14643 1.15399 0.694431
3625 16.5184 2.04751 2.07068 0.114389 0.609207 -0.0336397
3300 17.5077 2.1312 1.85498 0.715489 -0.310858 1.34161
15 17.2163 2.85347 2.59134 -0.258364 1.14007 0.24099
2007 1.07284 3.73658 1.84044 0.518353 -0.584106 0.29222
2624 1.62719 3.24116 2.71669 0.195545 -1.17224 -0.00169653
3009 2.19676 4.24303 2.05338 0.774673 0.685169 -0.192407
2227 3.27327 3.91455 2.09513 -1.06036 1.34117 0.345888
3431 4.449 3.43589 1.89632 0.300171 -0.758425 0.708451
3721 5.23518 3.99189 2.78478 -0.50092 0.596618 -0.785104
307 6.55891 4.39939 2.22526 -0.719079 -0.685636 2.63073
1610 6.0158 3.33895 2.20646 -0.345618 -0.563231 0.589561
1972 7.00419 3.54626 1.63687 1.52795 0.478477 -0.475164
1290 7.92047 3.40875 2.66595 -0.818336 0.35494 -0.409045
754 7.5573 4.4321 2.37084 -2.01271 0.624572 0.071672
3066 8.7634 3.76678 2.15394 -0.983982 -1.11623 0.120208
2730 10.0217 3.01535 1.57919 -0.987867 -0.554644 -0.00633332
2565 9.50413 3.24458 2.86788 -0.219352 -1.57028 -0.884766
2200 9.62128 4.33802 2.58082 -0.104855 0.3543 0.0157349
2157 10.517 3.96175 1.8602 1.40687 -0.0276695 -0.380341
1953 11.3289 3.5953 2.20556 -1.68503 0.0692222 -1.02244
222 13.2103 3.95572 2.23392 -0.720745 1.36395 -1.84631
623 12.1381 4.38548 1.77608 0.758097 -1.35166 -2.0191
1170 12.1414 4.04842 2.83687 1.02842 0.559082 -1.34571
2800 14.7898 3.07374 2.62109 0.120045 -1.77166 -1.91237
725 13.5104 3.19569 1.73004 0.158408 -0.409558 0.0275347
1840 15.6852 3.67319 2.03175 0.0790906 0.615158 -0.48219
2598 16.542 3.07728 1.6446 0.838875 1.35793 0.259179
116 16.8428 3.84635 2.68155 -0.608561 2.58998 1.0841
3129 17.7045 3.22476 1.6444 0.444063 0.213277 1.15005
600 17.7683 4.33393 2.31776 -1.38021 -0.107411 0.882814
2502 1.48908 5.70635 1.53495 0.416796 0.0446868 -0.31153
707 0.761952 4.74848 1.95796 -0.0618821 2.13132 -0.810433
153 0.378413 5.69128 1.53762 -0.493808 -0.660222 2.78724
1062 0.836442 5.59727 2.59522 1.34271 1.06635 1.45075
415 2.85133 5.42082 2.18198 -0.411531 0.986019 0.612818
28 4.00012 4.74706 2.0409 1.11042 0.895997 -0.0566407
1907 3.64414 5.87839 2.88134 -0.633937 0.868381 -2.15223
781 4.20167 5.7831 2.02275 3.05333 0.459282 -1.85086
424 5.93335 5.27682 2.35967 -1.38476 -1.54597 1.12978
2827 5.07352 4.97592 2.63893 0.762863 -0.391111 -0.210295
2374 6.93079 5.09946 2.80488 -0.717767 -0.861913 -1.35574
2713 7.68394 5.60382 1.84729 -0.505043 0.958593 -0.630057
689 8.83188 4.98533 2.24838 -1.29453 0.393592 0.0148185
790 9.94784 5.37142 2.68709 -0.373317 0.284499 -0.492001
3145 11.2413 4.62519 1.58081 2.13382 -0.378073 -0.176507
742 11.5842 5.81293 2.90188 -0.262197 0.825517 1.0345
2842 11.4133 4.77346 2.62147 1.1634 -0.244086 0.256878
1659 12.4863 5.30557 2.41906 1.06479 -1.48905 -0.0124355
2786 13.0576 4.9032 1.54994 0.689037 -0.278653 0.348332
3832 14.3008 5.63223 2.9037 0.170516 -0.0944127 -1.87354
847 13.9778 4.83164 2.0857 -1.00098 -0.820797 -0.307426
2201 14.9476 4.516 2.54696 0.337169 -0.0596901 1.23739
298 16.0087 4.63298 2.22558 -0.285233 0.344152 0.908681
3587 16.1771 5.92021 2.81584 0.910067 0.171263 -0.54513
759 15.2412 5.50108 2.06986 -1.21962 -0.645436 -0.967189
2838 0.276371 6.61161 1.99025 -0.758295 0.320974 -2.05338
3296 1.20185 6.61251 2.62743 -1.17812 1.22709 0.915346
577 1.0231 7.20619 1.61349 -0.0481904 -0.174817 0.831685
1894 2.28907 6.32156 1.88087 -0.61759 -0.414988 0.141414
1257 4.27973 6.64235 1.56584 -0.02327 1.15401 -0.253556
2198 4.45692 6.50767 2.76428 -0.613224 0.0600417 0.41499
2078 3.34053 6.86466 2.07183 -0.121526 0.228506 0.349014
3322 5.08511 6.1367 1.60932 0.715422 -0.665081 -0.134313
130 7.13103 6.59185 1.58383 -0.023952 -0.129863 -0.310781
885 6.73006 6.37419 2.47762 -1.04685 0.943837 -0.92693
109 7.4167 7.30083 2.35591 -0.402613 -2.64392 -0.601686
2949 8.39617 6.31023 2.07216 0.778823 0.484827 -0.0567139
428 9.1899 6.97041 2.74349 -0.420922 -1.63142 -0.304761
2331 9.62954 6.83936 1.65214 -0.720905 -0.415244 0.731373
3001 10.1297 7.41157 2.85784 -1.45495 -0.158963 -0.813602
2623 11.7613 6.47733 1.58982 -0.444311 0.755113 -0.436153
844 10.9773 6.44654 2.20816 0.654484 -1.47866 -1.67693
669 13.1451 6.17382 2.11551 1.67226 0.432021 0.439809
1827 12.9866 7.25709 1.75252 2.00006 0.00617549 -0.347871
2440 14.2899 6.63917 1.59182 -1.36983 0.0523188 1.33666
467 16.3296 7.06928 2.14274 0.868809 -0.468092 0.937368
1636 16.309 6.09484 1.64888 1.48014 -1.002 0.145102
3838 15.1095 6.51592 2.8932 -0.0712259 -1.03194 -1.06948
736 17.2231 5.97741 2.48372 -0.630172 -1.23705 0.0927923
3637 17.0303 7.05354 2.94544 -0.385892 0.47355 0.764347
981 0.659043 8.30173 2.14613 1.91783 -1.11205 -0.683402
1343 0.671396 7.48456 2.97816 0.177807 -1.06852 0.0680565
3703 1.82258 7.86453 2.0546 -0.627466 0.68313 -0.265884
483 2.76042 8.07915 2.48109 -0.430612 0.535903 1.09185
3971 3.78064 8.38159 2.29964 0.836354 -0.601748 -1.08723
2068 4.83963 8.55439 2.49675 -0.53831 -0.193753 -0.720328
476 5.88797 7.49001 2.14017 0.140323 -0.261333 -0.283294
908 4.53426 7.49455 2.12801 -0.235826 1.60367 0.0189293
2833 5.41109 8.29318 1.64769 -0.547096 0.390432 -0.698534
1611 6.47453 8.12152 2.71199 0.392108 0.114403 1.75104
3191 8.46607 7.5225 2.11257 1.92494 -0.424923 -2.15356
3007 8.79072 8.55225 1.97611 -1.25154 -0.766186 -1.52265
2404 7.59911 8.4096 2.44343 -0.804814 0.373153 -1.95257
442 9.46593 7.84961 2.06369 0.695545 0.0697694 1.06579
671 9.83197 8.8718 2.34249 0.840484 0.8802 -0.966501
1327 11.0133 8.44263 2.87744 -0.0996937 0.067944 0.592716
1778 11.7779 8.19598 1.70655 -0.92122 0.774889 -0.272834
2013 10.5532 8.24219 1.95449 1.71909 0.904971 0.892581
502 12.1281 7.49157 2.23974 2.18374 0.782432 0.911392
425 12.0016 8.67301 2.61679 -1.49418 -0.99215 0.00288073
2416 12.7603 8.40845 1.97653 -0.174274 -0.897129 -1.17909
1442 14.1994 8.72322 1.86395 -0.761732 -0.767118 -1.20457
1059 15.2597 7.60202 2.84664 -0.736713 1.79099 1.3026
3591 16.1253 8.8507 2.54284 -0.333901 1.24323 -0.112416
3158 17.7939 7.58423 2.04123 0.360928 1.13908 0.98186
2542 16.4292 8.07912 1.8579 0.141341 -0.229854 -0.347336
1348 17.3427 8.37589 2.77038 -0.65636 -0.568586 -0.199633
2510 0.50545 0.994102 3.60957 -1.40585 0.457204 -0.976506
2195 1.29271 0.606999 4.39336 1.55787 -0.370558 1.18863
2191 1.91908 0.649055 3.40174 0.516988 1.57995 -1.04381
1213 4.32632 0.432642 3.75816 -0.194881 -1.48372 -0.463669
1021 3.03788 0.78092 3.70975 -0.143478 -0.245528 0.446512
3543 5.18474 1.26406 3.51477 -0.100749 1.38662 0.185682
3816 5.87766 0.754237 2.99969 -1.17397 0.442171 1.32433
3015 6.52148 0.629557 3.83144 -0.129752 -1.08752 0.377583
205 8.17497 0.901652 4.05973 -0.741696 -0.0124506 0.625318
2840 7.48096 0.0783123 4.29068 0.611212 -0.193606 -0.851933
2468 8.32886 0.103218 3.49769 0.674132 0.923896 0.318897
1671 9.69794 0.891451 3.26763 -0.157401 -2.12007 -0.389348
319 9.14969 0.403627 4.45712 0.248191 -0.45529 -1.22937
3343 11.8751 0.973161 3.26341 1.11602 0.58779 0.229208
2285 10.8061 0.414732 4.41617 -0.458707 -0.0375162 1.30537
1890 12.2635 0.0467883 3.74139 2.09227 0.987869 -0.431687
3545 13.2603 0.51435 3.46461 -0.0622619 -0.275223 -0.52121
3086 12.7653 1.14833 4.38365 1.19111 -0.0632613 -0.165791
2469 14.2809 1.47763 3.89803 0.27294 0.954548 0.616161
3468 14.3445 0.16078 3.67011 0.686302 -0.761115 -0.255021
713 16.1171 1.41226 4.31978 0.0643068 1.00541 -0.341458
3361 15.0469 0.865147 4.22252 0.203963 -0.722515 2.14547
865 16.0901 0.150637 4.13701 -0.0104384 0.253499 -0.378989
871 15.3769 0.502928 3.23496 0.439268 0.265138 0.86719
1703 17.5905 0.464424 3.13473 -0.308821 -1.25458 1.90261
1211 16.62 0.826618 3.27066 -0.309426 0.125436 -2.81789
2891 0.92408 2.54238 3.63063 0.418235 0.00677787 -1.68863
1158 0.486863 1.92149 4.27227 -0.0529407 1.21246 1.92832
349 2.73333 2.60613 3.51668 -0.138681 1.77018 1.81207
792 1.71508 1.54498 4.17508 0.54696 3.22032 -0.907756
915 2.73569 1.87816 4.20433 0.760662 -0.174597 0.420329
2640 2.2242 1.68531 3.28613 1.40785 -0.434274 -0.560468
453 4.08208 2.07396 3.53384 -1.26311 -0.709129 -0.848471
2648 3.78075 2.89647 4.24987 -0.539596 -0.532927 -0.588083
3724 4.89894 2.83416 3.42614 0.0862995 -0.185626 -0.661442
212 7.25787 1.70068 3.77204 0.284164 1.67994 0.138216
2403 6.28708 1.70015 3.27585 -2.0958 -0.966845 -0.549586
3805 7.53911 2.59143 3.25225 -1.92129 -0.150583 -0.676653
2173 8.73866 1.91522 3.18131 1.47123 -0.330346 0.31966
3208 9.4748 2.5708 3.71564 -1.05704 0.064887 -0.609873
1303 9.50376 1.52597 4.20115 -0.900275 -0.728092 0.60075
114 10.2519 1.84494 3.35384 0.241155 -0.608707 -0.983231
1411 11.2479 2.04049 3.15656 0.521324 0.595081 -0.189033
1358 11.7312 1.67901 4.10467 -0.0831809 0.0860075 0.370148
166 10.5145 2.7119 3.83873 1.23803 -0.0469833 -1.38882
554 10.6086 1.71756 4.28172 -0.573706 1.02552 -0.254635
2505 13.2544 1.55214 3.51118 0.514757 -0.15379 -0.524606
177 12.4026 2.16053 3.49791 0.458111 -0.350322 1.24889
2666 14.6985 2.41829 3.50997 -0.505896 -0.155875 1.86702
348 15.5449 1.56496 3.33538 -1.68486 -0.151034 -0.548288
800 15.7891 2.56607 3.62494 0.617035 0.426335 -0.432575
2080 16.797 1.87445 3.22067 -0.518543 -1.35683 -0.752296
709 17.11 2.04149 4.23605 0.808703 0.174075 0.695573
3154 17.8732 2.28097 3.39053 -0.452918 1.92708 0.280499
354 0.580171 3.69957 3.71434 0.456066 0.549097 0.366309
3885 0.751992 4.41179 2.98549 0.0977749 -0.382703 2.1198
651 1.79196 3.20569 3.95258 -0.645845 0.250235 0.157902
662 2.79488 3.60017 2.98565 0.339126 0.354361 -1.29918
873 1.83205 4.43411 3.1065 -0.909503 -1.1042 -0.730244
3160 2.95295 3.49314 4.10801 0.596295 -0.897207 0.943765
435 2.36222 4.31492 4.03 0.806334 -0.352638 -0.102072
1310 4.39647 4.16962 4.13528 0.466593 0.564127 0.963973
3175 3.91014 3.832 3.20607 0.0646206 -1.61992 1.03813
3371 5.21732 3.59014 4.26351 -1.18736 0.295635 0.696075
812 6.11202 4.06145 3.12607 0.425393 0.580563 -1.02407
3283 6.20994 3.02647 4.38128 0.182338 -1.08635 0.84069
722 6.99614 3.90816 3.71298 -0.630384 0.496852 1.18017
3333 8.29638 4.3221 3.35277 -0.19798 -0.00969729 -1.72483
43 8.56661 3.20769 3.50471 -0.0870726 0.8851 1.20599
957 7.50122 3.0168 4.46269 -0.999223 0.25395 0.549491
3064 8.25054 4.4275 4.38357 -0.160994 -1.60034 0.0654312
1069 10.2664 3.76345 3.4454 -1.35712 -0.122551 0.474467
3835 9.31717 4.43612 3.57918 -0.769441 -0.223244 0.871458
2712 9.44141 3.58639 4.10208 0.900674 -0.691643 1.25424
3851 11.3684 3.5183 3.44117 -1.77935 -1.85072 0.0365568
729 11.5527 4.17373 4.2406 0.993835 -0.328516 0.820367
2396 13.149 3.10404 3.31246 0.795751 0.180428 2.21365
1492 12.4708 3.51879 3.92482 -1.94966 0.780663 1.06365
916 13.3757 4.31968 4.10176 0.468401 0.318732 0.380227
2270 14.0689 3.47451 3.18416 0.194297 -1.92856 -0.367431
3752 13.603 3.26345 4.33814 -0.245626 -0.0461228 -0.185856
2861 15.5625 3.79929 3.03098 2.34091 1.60565 0.213751
859 15.9595 4.25318 3.97774 1.58651 1.16027 -0.613966
1725 16.423 3.40693 3.62797 0.630092 -0.707145 0.161518
3547 17.545 3.03595 3.97292 0.490129 -0.745974 0.648804
786 16.9856 4.14119 4.37865 -1.59134 -0.962415 0.404935
3469 0.186977 4.93506 4.25216 1.65065 0.553033 0.199873
2345 0.634574 5.80355 3.71244 -0.740023 -0.336451 -1.26003
1386 2.89248 4.68822 3.07924 -1.13918 -0.920559 -2.38442
1271 2.85936 5.51201 3.8125 -0.26805 0.165084 -0.0803713
2536 1.73916 5.62365 3.28405 -1.06031 -0.517569 -1.84958
3740 4.06726 4.89393 3.23578 0.231096 0.286355 -0.154357
2478 4.8406 5.40161 4.06901 0.162551 -0.984847 0.310131
2995 5.91842 4.90448 4.40613 -1.00617 0.423732 -0.959684
642 5.35057 4.56342 3.58652 -0.368836 -0.527717 -2.42426
1569 6.98263 4.95949 4.07375 -0.193517 0.0186741 0.509891
2447 6.16972 5.15441 3.44476 0.560816 -2.77816 0.513275
2667 7.97278 5.25972 3.42055 0.987404 1.18511 -0.479284
382 9.00105 5.36869 3.86342 1.6483 -0.263665 0.553065
2944 10.0761 5.72832 3.66735 1.26229 0.0725281 1.20883
2373 10.3525 4.73817 3.64751 0.34594 -0.48677 1.71682
1514 11.1004 5.79074 3.99723 -1.49325 -1.32466 -0.373246
677 12.0405 4.73852 3.64296 -0.579829 0.48204 -1.95832
2236 12.3752 5.86783 4.0445 1.65401 1.5938 -0.499416
2060 13.6723 4.4929 3.14469 0.58263 -0.233248 0.232026
2695 14.4883 4.48178 3.98927 0.494812 -0.511441 0.263839
2983 14.6253 5.81239 3.96701 -0.286225 -1.62695 -0.78546
575 13.6238 5.38706 3.6724 2.78759 -0.7153 0.503638
1135 15.2759 5.0873 3.32311 -1.7309 -0.130685 2.28414
869 17.517 5.33553 3.4936 -1.46245 0.365005 -0.915221
1667 16.4479 5.04943 3.46721 0.387563 0.610814 -1.83764
1248 1.1082 6.7662 3.63657 -0.661923 -0.586359 0.773927
1188 0.1422 6.51118 3.05477 1.55232 -0.895066 -1.88457
3025 2.57197 6.23661 3.02999 -0.870005 0.320742 0.247321
1870 3.84662 6.03949 4.03039 -0.967447 -1.14455 -0.0968128
3585 3.82476 7.07888 4.06548 -0.582233 0.193803 -0.666281
3811 3.27008 7.34074 3.14542 0.599013 -0.424348 -0.128907
2928 4.73367 6.47039 3.81723 0.882446 0.477739 0.912045
2483 5.02577 7.42736 3.87322 -0.364101 1.16212 -1.14739
2716 5.82074 7.24939 3.09524 -0.891545 -0.33408 0.369873
499 7.10593 7.07001 3.44419 -0.796809 -0.0890498 0.416574
331 6.27425 6.84904 4.34128 -0.367349 0.601419 -0.449466
1674 6.20159 6.15598 3.45445 -0.324034 1.58457 1.0637
358 7.42203 6.02437 3.83001 0.333723 -0.544582 -0.884807
2947 8.27226 6.311 3.14879 -0.168701 0.310285 -0.72669
296 8.22402 6.62735 4.12852 -0.287685 -0.824003 -0.310994
1422 9.39514 6.4124 3.50751 0.0337642 -1.58483 -1.0397
2341 9.40527 7.42577 3.6999 -0.937751 -0.763979 -0.128442
3640 10.5584 6.80202 3.81483 0.299236 -2.50353 -0.0352112
191 11.3806 7.44303 4.26843 -1.56538 -0.399048 -0.951234
1122 13.0784 7.43826 3.0594 1.11816 0.418178 0.270837
2480 12.1244 6.93941 3.58861 0.489164 0.744851 2.69433
2507 12.9648 6.07073 3.16603 -1.63214 -0.968169 0.88322
1087 13.5277 6.74068 4.15563 -0.309221 0.0910331 1.27779
102 13.8727 6.78763 2.99733 0.518338 -0.0457275 -0.84733
695 14.5346 6.93405 4.00714 -0.764431 -0.74466 0.550693
2831 16.2857 7.39623 3.87517 -0.539882 -0.180998 -0.0935442
436 15.6978 6.2982 3.74428 -0.0314114 0.0161907 -1.22517
3388 16.9063 6.24842 3.8012 1.64311 0.924717 -0.225773
2881 17.7206 7.38761 3.81333 -0.584744 0.500383 -1.16443
135 1.12096 8.42747 3.28606 1.58963 -0.297428 -0.589024
3386 0.309382 8.62212 3.96506 -0.730641 -0.532746 0.136544
3106 1.2931 7.92087 4.24244 0.130107 -1.12333 -0.193761
1903 2.49357 8.89146 3.16455 0.567756 1.44164 0.177884
3008 1.94011 7.4829 3.14965 -0.23105 -1.36483 -1.25805
2796 2.20337 8.17696 3.88532 -0.0821604 -2.39745 0.032767
2807 3.28288 8.23058 3.68697 0.219668 1.09635 -0.600445
215 4.2818 7.95332 3.20154 1.27887 -1.19474 -1.58745
1200 4.17847 8.46868 4.10191 -0.236627 -0.391589 0.132594
3690 5.16787 8.50527 3.68247 -0.149807 -0.39015 -1.16098
929 7.4416 8.19808 3.52206 0.265748 0.0260707 -1.88911
791 6.75487 7.90148 4.26467 1.45359 1.08577 0.857825
1597 6.1802 8.75898 3.98677 -2.01403 -0.613465 -0.596492
1451 7.64902 8.80206 4.46215 -1.05268 0.606484 -1.22499
1035 8.49838 7.77871 3.16129 -0.799524 -0.712243 -0.415426
3226 8.18384 7.53749 4.399 -1.83575 -0.784835 1.65771
2696 8.95259 8.39712 4.06131 0.411027 -0.642862 -1.31082
2704 9.62028 8.36392 3.2372 -1.98658 -0.674125 1.58144
1276 10.4373 7.91903 3.80869 0.403328 -1.77261 -0.970842
2528 11.2592 8.54818 4.31967 1.2421 -0.875251 -0.458019
538 12.9777 7.9449 3.99017 -0.598084 -0.669847 -0.654363
536 11.9208 8.14229 3.44992 0.374934 -1.30313 -0.583711
1283 14.8866 8.17559 3.68998 1.12328 1.06938 1.25721
609 13.9392 8.63791 3.54414 0.808202 0.893992 0.157049
2354 15.9849 8.74611 3.64985 -1.3946 -0.0995411 -0.479249
2431 16.2698 7.92353 3.00407 0.586612 1.50021 -2.07068
2898 17.1971 8.29563 3.81854 1.32547 0.179571 -0.317947
223 1.33152 1.03001 5.4568 -2.13747 0.491874 -0.977766
904 0.354397 0.981704 4.76861 0.315421 -1.11206 1.55098
2876 2.31417 1.13656 5.90984 0.186721 0.217339 -0.981334
3955 2.44201 1.02129 4.81441 0.320134 -0.519083 0.0426814
3355 3.85777 1.42279 4.59534 -0.198568 -0.624404 0.90682
3847 4.42755 0.577688 5.44885 -0.383057 -0.74427 -0.62294
3489 3.23367 0.60489 5.16185 0.617812 -0.39394 -0.254781
2129 3.38498 1.42246 5.68307 1.24644 0.191294 0.716106
93 5.73917 0.817208 4.49227 0.891074 -0.875757 1.28857
1418 4.9525 0.176335 4.64524 -2.03108 -0.489828 -0.904112
239 5.59093 1.21867 5.7627 1.31686 -2.24786 1.09991
1047 5.81937 0.177058 5.62673 0.785753 -0.287741 0.34339
3980 6.7361 0.0133686 4.99513 -1.00702 0.350293 -1.90648
179 7.24397 0.875614 4.80186 0.549824 0.291968 1.15996
2626 8.28264 0.542982 5.23792 -0.45736 -0.458431 0.741481
3650 9.80112 1.3836 5.14061 -0.444588 -1.71732 -1.16232
3525 10.1907 0.475502 5.27891 0.0790643 -0.450016 0.469636
2705 11.4133 1.09877 4.99003 0.471008 -0.638143 -0.371338
2662 12.3755 0.245125 4.76246 1.25979 0.219547 2.03235
400 11.9879 0.780045 5.74638 0.146961 0.856879 -0.568243
2551 13.0137 1.03618 5.51312 -0.819909 1.36366 0.391778
1756 14.8058 0.903736 5.47717 0.62014 -0.0449218 3.09853
2141 13.9057 0.992453 4.93678 0.232863 -0.661698 0.612
1950 15.6171 0.266941 5.0539 2.72505 1.21905 0.312009
985 17.222 0.690029 4.89222 -0.381747 0.526001 -0.39876
2631 17.3581 0.291813 5.84788 -1.42953 -0.84611 -0.251925
446 16.4038 0.409721 5.75357 -1.70107 1.81721 -1.14846
862 0.52017 2.76207 5.4185 0.874155 -1.03889 -2.37355
1438 1.39789 2.21433 5.12465 0.901274 0.288604 -0.647995
2594 2.57001 2.05686 5.40936 0.0613419 -0.476448 -1.20285
2233 3.35546 2.67442 5.1102 1.24806 -2.67444 1.28926
3036 4.90269 2.13754 5.46977 0.923924 -0.729475 1.78295
3326 5.17029 2.51919 4.56658 -1.30249 -0.201748 -0.442502