ITEM: TIMESTEP
79000
ITEM: NUMBER OF ATOMS
4000
ITEM: BOX BOUNDS pp pp pp
0.0000000000000000e+00 1.7878070701931353e+01
0.0000000000000000e+00 1.7878070701931353e+01
0.0000000000000000e+00 1.7878070701931353e+01
ITEM: ATOMS id x y z vx vy vz
834 1.39391 0.643301 0.94258 -0.0497004 -0.1343 1.02272
714 1.38725 1.02216 0.00272458 0.594895 -0.62335 -1.05533
3123 1.88803 0.0439526 0.265621 2.29553 0.417533 0.258809
2176 2.3748 0.859689 1.00027 -0.481895 0.841997 -1.85391
3489 3.38028 1.23243 1.21273 0.353117 1.07702 -2.29204
2044 3.88103 0.571999 0.541021 -0.113379 -0.604314 0.798237
2448 4.67011 1.47912 0.574035 -0.526186 0.403816 -2.12409
1510 4.83842 0.26131 0.176025 -0.282155 0.646642 0.561846
3469 4.95775 0.493628 1.39082 -0.901058 -0.911614 -1.40006
691 6.08683 0.670332 1.05627 -0.529236 -0.26561 -0.761476
177 7.0219 0.386818 1.37813 -0.375343 -0.85303 0.996352
2435 8.44735 0.28281 0.189412 0.627906 1.3321 0.310796
88 8.49425 1.46014 0.717735 0.0293161 0.0358763 -1.37557
3130 7.97037 0.632578 1.07972 -0.147796 -0.225805 0.427594
2189 10.2682 0.542397 1.25538 0.046038 0.492882 -1.23325
1325 9.41091 0.832828 0.656313 -1.88273 -1.58069 0.5369
1651 11.3106 0.280107 1.21396 -1.52887 -0.283793 0.815851
3342 10.9579 1.41298 1.01654 0.94286 0.328772 0.443668
569 11.7761 0.998922 0.511973 0.0528027 -0.393711 1.26403
3523 12.8494 0.673992 0.816421 0.445213 -1.01117 -0.498348
1292 14.018 0.902252 0.59842 0.256171 1.15761 0.206298
2473 14.5416 0.17718 1.07487 -0.46836 -0.0715509 0.368852
3343 15.514 0.816992 0.74773 0.017101 -0.236782 0.774995
2692 16.4419 0.459322 0.341775 -0.167935 -0.358861 0.387699
3510 16.9992 1.22939 1.38156 1.38412 1.68072 0.465583
3603 0.0982473 2.62359 0.644701 1.67136 -1.97526 0.250803
2111 0.303891 1.62446 0.166653 -0.650725 -0.486957 0.0791181
3774 1.16742 2.88513 1.0584 -1.32161 1.00897 -0.465055
2154 2.36538 2.54227 1.25766 -1.54334 -0.2579 1.45919
3329 1.72277 2.01173 0.473874 0.531743 -0.112002 -0.360325
2085 3.08795 1.60723 0.321358 -0.0850694 0.441837 1.17228
2870 3.79528 2.23772 0.85407 0.412662 -0.104198 0.0630405
2882 5.10966 2.42992 0.292706 -0.268832 -0.468957 0.275429
1386 5.37829 2.05164 1.29497 -0.341719 -1.64205 0.982421
3657 5.90373 1.61473 0.316985 -1.41074 0.915953 -0.116296
1257 6.18635 2.52955 0.704255 -0.590862 0.815898 -1.54387
3929 7.12308 1.6522 0.889561 -0.710334 -0.545521 2.15696
3914 8.27914 2.61733 0.529639 1.54664 0.457952 -0.224686
465 8.00376 2.15631 1.37866 0.597063 -0.703211 0.692043
2556 9.89768 1.66138 1.14595 -1.03983 0.981016 -2.73501
1666 9.27545 2.54936 1.44848 -0.216447 -0.938161 -1.17475
3953 9.07368 2.34421 0.0518392 -0.209795 1.53994 -0.142076
501 10.8704 2.83942 1.29131 -0.547752 1.42427 0.251503
381 11.788 2.93518 0.52539 1.7028 0.152741 1.81983
913 11.1458 2.0094 0.236458 -0.0961362 1.55056 -0.991112
2730 12.6663 1.73116 0.449868 0.320079 0.422305 -0.510942
3046 14.2451 2.6623 0.943484 0.894212 -1.46837 -0.130205
1329 14.7721 1.59715 0.512843 0.951361 0.783876 -0.504509
1149 13.5873 1.55786 1.29414 0.632602 1.20106 1.08294
3305 16.1401 2.54589 0.350747 0.581326 -0.244687 1.38075
1483 15.6231 1.87488 1.22526 -0.986387 0.351463 1.59472
2304 15.0309 2.61804 0.0239635 0.502018 -0.518211 -1.2799
1615 16.9246 2.34984 0.957208 -0.095094 -0.724573 0.137494
3300 0.519641 4.1766 0.512217 -0.80465 3.02157 -1.10914
3975 2.22153 3.41366 0.594615 -0.00302205 1.45521 -1.03703
1931 1.68256 4.28439 1.18028 2.59246 -0.596856 -1.69191
668 1.52575 4.13523 0.0965468 -0.482807 -0.271434 1.46832
3656 3.48828 3.20665 1.11 -1.5344 -0.530681 1.32561
1290 3.00552 4.36058 1.30123 0.646704 -0.0637883 -0.0691132
1038 3.81565 3.54741 0.0404594 0.182184 0.753343 0.111859
2764 5.25541 3.14908 1.42714 0.764827 0.531986 0.977116
1926 4.59262 4.10855 0.436827 1.92685 -0.221996 0.585735
2238 5.58915 4.27451 1.07391 -0.233281 -1.56398 -1.44192
10 7.31558 3.56717 1.26602 0.193302 1.18956 -0.88105
2849 6.27924 3.50758 1.32488 -0.188051 -1.00629 -0.977117
3740 7.10538 4.30173 0.539512 -0.228992 -0.374448 0.837287
309 7.27231 3.15117 0.27185 1.58515 -0.0620595 0.410857
3871 8.47598 3.74412 0.390763 -0.215956 0.292248 -1.00732
296 9.40518 3.50783 0.795077 0.400114 3.04395 -0.0113804
2134 11.4916 3.92231 1.17756 -0.392088 1.11309 -0.415879
2747 10.4587 3.74867 1.04032 2.16024 -1.09977 0.160068
2910 11.832 4.16012 0.146607 1.75744 0.76634 -0.275897
1771 14.6409 4.1918 0.972388 0.795463 -1.20611 1.09791
585 13.4529 3.91203 0.442561 -2.32225 -0.755772 -1.96478
1943 14.4532 3.34938 0.208683 -1.78617 0.217543 1.96904
477 15.5324 3.4795 0.739904 0.113354 -0.297344 -0.131933
116 17.7589 3.26472 1.46208 0.756426 -0.296832 -1.25182
930 16.9695 3.34681 0.571606 -1.02584 -1.41973 0.47642
608 17.2873 4.1536 1.08986 -0.660935 -0.0310764 -0.148983
1074 16.5449 3.61853 1.48823 -0.7148 -1.18418 1.14578
3355 0.630488 5.3238 0.77797 -0.972141 -0.204097 -1.30275
3886 1.97819 5.26619 0.794862 -1.61143 2.40218 -0.613443
2852 2.90986 5.91499 0.0706756 -1.39091 -0.732595 0.539403
125 3.6237 5.47677 0.722401 -0.423908 -0.691304 1.14511
1192 5.71172 4.647 0.0845997 -0.698383 0.213566 -0.747942
3374 4.90669 5.33903 0.722793 0.396304 -1.91691 0.247875
3876 7.12349 5.35602 1.07951 -0.915582 1.14311 -0.868596
425 5.99933 5.60974 1.20546 0.561185 -1.04312 -1.25601
1111 6.18947 5.89008 0.245474 1.39992 -0.871968 -0.198426
893 8.02312 4.52453 1.37269 -0.212282 -0.336606 -2.56887
280 8.82619 5.48096 0.759912 0.741114 1.50681 0.41069
1974 8.04903 4.95261 0.450008 0.24819 1.24928 -0.175777
1406 9.316 4.53475 1.27144 -1.97834 1.58861 -0.918452
3416 9.96716 5.05606 0.508796 -0.0189385 -0.0423173 -0.854408
256 9.09998 4.60841 0.184695 0.230289 -0.540644 0.879283
1814 9.68569 5.88872 0.133316 1.15494 -0.121006 1.55665
1953 10.9129 5.71092 0.262855 -0.719461 -0.957425 0.19256
385 10.9421 4.70533 0.220783 1.57529 -0.233604 0.0671198
2873 11.4329 4.93803 1.10163 1.41244 -0.567298 -1.03038
535 11.9968 5.18131 0.204722 0.217615 -0.652671 1.69381
808 12.971 5.25879 0.558675 0.517454 0.589243 0.4188
1861 14.1318 5.91668 0.750745 0.578111 -0.417442 -0.600305
789 13.7746 4.95414 1.23666 -0.17388 -1.01401 0.602357
741 16.1157 4.54587 0.814181 -0.110928 0.316512 -0.431468
181 15.7556 5.48776 1.34457 1.54625 -0.459678 0.532226
2396 15.087 5.43204 0.52522 -0.847836 -1.23817 0.762618
2262 16.9391 5.27029 1.08318 0.479768 1.33166 1.75557
1254 0.436397 7.24294 0.944195 0.432949 -0.747057 0.916194
3008 0.435947 6.20031 1.34029 0.942634 0.737979 -0.175352
3587 2.67637 6.87104 0.495657 -0.660953 1.12664 0.0195666
1828 2.48934 7.21889 1.43717 -0.190796 -1.99529 0.131429
489 1.61348 7.372 0.623048 1.52062 1.33837 0.31157
1688 1.7119 6.27685 0.773082 -0.177765 -0.12655 -1.04709
342 4.35003 7.3236 0.252472 -0.839448 0.259087 0.247235
1611 4.28805 6.12778 0.205084 0.505634 1.56208 1.09065
591 3.47086 6.76857 1.21345 0.244343 -0.723318 -0.482509
2892 5.02093 6.89092 1.02781 -0.380213 -0.592955 -0.544802
444 6.46303 6.62358 1.05527 0.112016 1.58883 -0.131215
1309 7.55754 6.41716 0.942804 -0.515633 1.09962 0.843025
1488 8.70043 6.91323 0.329081 -0.95604 0.0512792 0.771936
3345 8.41001 7.36596 1.33288 1.1012 -0.848448 -0.410683
1920 9.92315 6.51972 0.826272 -0.925327 -1.31893 -0.142073
481 11.0824 6.79709 0.636878 -0.131853 -0.563135 -0.523211
2548 11.8157 7.42334 1.08927 1.16039 -1.82442 0.320258
1122 11.9464 6.3576 0.400614 -1.33338 0.697911 1.48265
1840 13.0115 6.82549 0.543399 1.75377 -0.694582 -0.959456
108 13.9619 6.94518 0.106774 1.65622 -0.944462 0.615486
3106 14.542 7.20131 1.39518 1.11678 0.981687 0.0534316
1863 15.1801 6.43427 1.0195 0.969294 0.0731859 -0.00364679
2784 15.7834 6.09665 0.240088 -0.408629 1.45418 -1.06789
538 15.6888 7.30708 0.598803 0.843194 -0.201434 0.909295
273 17.4009 6.14648 0.888926 -0.361531 1.47369 0.858496
2663 17.4583 7.17542 0.372834 0.435208 1.56198 -0.908759
262 16.5602 6.87045 1.12933 1.27509 -0.56234 -0.889793
690 16.5221 7.07222 0.031768 -0.0188449 -0.341935 2.01696
1369 1.08862 8.31069 0.683476 0.700854 -2.56699 -0.0484182
3159 2.28057 8.23368 1.28173 -0.907941 0.657291 0.18934
276 3.28802 7.88392 0.66649 0.438811 1.23233 0.701133
3398 3.51283 8.93529 0.552117 -0.145942 -2.0154 0.137129
28 4.35649 7.69729 1.27458 0.421848 -0.79109 -0.213296
3322 5.16833 8.06482 0.73375 0.126339 -0.25783 0.771681
693 6.32987 7.6755 0.869276 -2.16529 0.468432 1.79879
3690 6.18768 8.6861 0.700324 -0.555667 1.07523 -0.442123
2404 7.40686 8.56072 0.622586 -0.757322 -0.582823 0.0365925
602 8.39008 8.48075 1.48276 -1.4695 0.229463 -1.00586
3866 8.73764 7.96299 0.595794 0.979802 -1.6218 1.42892
1197 7.62086 7.46018 0.553199 0.00515633 -0.323122 0.588435
3715 10.2672 7.55641 0.577193 0.359946 -0.386373 0.790878
325 9.74527 8.33127 1.12302 0.437079 1.01093 0.948683
791 10.9188 7.87629 1.31857 -0.696914 0.0193138 -0.509613
2187 11.2287 7.73264 0.00521576 -1.44905 0.343689 0.0188097
1908 10.547 8.44567 0.05499 0.0271786 1.20035 1.06503
1453 12.0754 8.34841 0.43809 -0.423245 0.0701386 -1.28787
3931 13.8273 8.27259 0.191895 0.547622 -0.292307 -0.199946
436 13.4099 7.81205 1.14367 0.901099 -0.738643 -2.0283
3271 14.7943 7.92564 0.667691 0.536126 0.811935 0.359952
3324 15.9642 8.24685 0.440842 -0.266445 0.498188 1.49086
2020 15.0137 8.71817 1.44999 -0.786827 -0.207618 1.21194
2875 16.1417 8.68007 1.40333 0.534892 -0.179719 -1.56979
95 17.8293 8.05384 0.966441 -0.13226 0.14504 1.52564
3551 16.8252 7.84475 0.991928 0.274108 -0.354306 -0.775384
3775 0.0212847 0.760497 1.493 0.446129 0.510792 -1.07711
3129 0.236164 0.747221 2.80362 1.80708 -1.96899 0.0139732
1151 0.934153 0.155581 1.97806 1.44798 0.385099 1.46176
1055 2.92795 0.818616 2.12264 -0.175136 0.762906 -0.120969
2604 1.93105 0.365551 2.0229 0.974244 1.06356 1.47359
3072 4.13276 0.695556 2.1551 0.36797 -1.94557 1.39274
1285 5.87244 0.396349 2.0863 -0.0768287 -0.402142 -0.198954
1234 6.151 1.48023 1.73442 -0.195816 -0.526642 2.75347
498 6.54122 1.0696 2.74819 1.49451 0.429958 0.552096
1694 7.94168 1.07714 2.15795 -1.53609 0.409436 -1.56877
3232 8.88719 0.463842 2.57408 -0.872924 1.26244 0.333388
3668 9.16545 1.12691 1.79007 0.413761 -0.00267328 0.0103609
2468 9.55202 0.12011 1.77325 -0.000508587 -0.310696 1.7708
2565 11.4456 0.867996 2.14449 -0.0490323 -2.06257 1.47307
1100 12.417 1.2487 2.86564 -0.189498 -0.69486 -0.517665
3612 13.2569 0.0404015 1.79267 0.333152 -1.39033 0.608001
2080 13.0645 1.02244 2.04788 -0.0459277 -0.603743 -0.513677
1632 12.6122 0.228872 2.95625 -0.180716 -0.0900275 1.51319
3201 14.1868 0.451369 2.27346 -1.49757 0.118085 0.26046
2201 16.2423 0.51516 1.61455 -0.715889 0.476768 0.43236
1475 15.3224 0.583828 2.03033 0.968481 -0.375305 -0.0392436
226 15.0034 1.31434 2.7792 -1.43309 -0.80772 0.930298
2199 17.1619 0.313 1.9984 0.479695 0.281343 -1.1149
1051 16.627 1.03803 2.8032 -0.896573 -0.338406 -0.586715
3854 1.0458 2.00162 1.54021 0.159063 0.124517 -0.207615
3167 0.778788 2.86246 2.07385 1.31197 -1.14324 -0.799799
3967 2.93936 2.18931 2.67481 -0.206695 -0.937535 2.27554
351 1.81755 2.76357 2.26322 0.991335 -0.163963 3.74861
1537 2.53527 1.68466 1.75527 -0.249665 0.175934 -0.0461489
1271 1.69057 1.7409 2.95476 1.3784 -1.58552 0.347177
3685 4.39009 2.67174 1.84758 0.759827 -1.53358 -1.01311
555 3.26906 2.38306 1.68386 -0.551412 0.737407 0.265249
1589 4.21228 1.67498 1.99684 -0.792187 -0.307745 -0.678041
2594 4.67245 2.01608 2.81711 -0.105776 0.220026 -0.658169
1948 5.65629 1.84504 2.60922 1.09619 1.05305 -2.0597
2996 7.17255 1.67951 2.11261 1.15104 0.0916375 -1.9646
205 6.22385 2.66955 1.91101 0.31068 -0.411068 1.51629
3431 7.40237 2.71165 2.00537 -0.124281 0.471163 -0.186944
3093 8.7471 1.62905 2.93801 0.384539 0.562834 -0.194037
3754 9.67829 2.66344 2.56618 -1.64482 0.960055 0.479004
3089 9.86223 1.49615 2.3976 -1.04597 0.840343 0.431017
2535 10.6663 1.8473 1.88717 0.499199 -0.210483 -1.99022
1124 11.2677 2.03181 2.7968 0.656659 0.0206859 0.365582
2907 10.6927 2.82872 2.3244 2.04972 -1.34954 0.176958
3282 13.1549 2.45335 2.85865 1.41909 -0.324176 0.255973
2979 12.1726 1.77804 1.51347 -1.19304 1.39303 1.47575
3081 14.6723 2.01484 1.68007 0.0973134 -0.771829 0.855107
1640 14.6651 2.3183 2.81885 -1.13575 -1.14696 0.0389294
3419 13.8424 2.59758 2.05147 0.884282 -0.476405 0.851762
725 13.8027 1.62284 2.61422 -0.0888102 2.30416 -0.756366
2635 15.438 2.65346 1.96522 0.272488 -0.52275 -0.917795
2407 15.9145 2.10203 2.81301 0.688074 1.89841 -0.2464
2209 16.7631 2.45265 2.13063 -1.31363 0.593716 0.18161
2444 17.5469 1.61289 2.26548 -0.991038 1.89909 0.200428
3965 17.839 2.07488 1.52168 -2.25392 -1.13043 -0.0374113
1605 17.5064 2.80645 2.87236 -0.367621 1.28177 1.08177
699 1.1837 4.30449 2.57125 -0.347286 -0.454339 -1.67758
1096 0.429836 4.11516 1.72386 1.21516 -0.968434 0.662498
2740 2.72161 3.55253 1.86148 2.32002 -0.927129 -0.170709
1014 2.35815 3.30577 2.80933 -1.05472 1.0765 -2.01682
1894 1.53268 3.6245 2.00564 0.997088 2.55431 0.269223
2723 3.15869 3.9616 2.76356 -0.493936 0.386666 0.0445943
2713 3.52265 3.06964 2.28754 2.86053 0.934244 0.786367
3809 4.53626 4.12054 2.7495 -0.978083 0.654968 0.00830712
3208 4.71467 4.06713 1.63376 0.863713 0.620387 -0.852375
708 5.676 4.44687 2.20071 -1.78344 0.780088 0.675993
2671 5.6479 3.41128 2.54831 0.729431 0.36601 -0.370462
3679 6.70944 3.91631 2.45985 0.526984 -1.03123 1.04544
2793 8.42054 3.17396 1.67913 -0.0382649 0.429232 -0.406901
2374 8.9347 4.33902 2.22711 -0.209499 -0.133533 -0.975266
1241 7.75314 3.58513 2.58428 -0.143958 0.79282 -2.1711
898 9.84933 3.8739 1.97618 1.43772 1.05822 0.290187
729 10.6302 4.0188 2.87649 -1.29373 -0.321478 1.90326
3995 11.4025 3.56854 2.12853 0.111805 0.104369 0.532498
102 12.5302 3.5058 2.32905 0.722136 0.272026 -0.715787
1060 14.6495 3.53632 1.79915 -0.505575 1.25662 0.989272
786 13.6391 4.12636 2.15326 1.02107 1.18148 0.023263
1211 14.3694 3.54171 2.78037 -0.824265 -0.602661 -1.5601
2968 15.5443 4.24293 2.04226 0.270565 0.886016 0.682882
2421 15.455 3.36907 2.74943 -0.0426899 0.43509 0.437518
3717 17.5828 4.18855 2.42974 -1.99376 -1.56363 -0.320799
3424 16.5006 3.36862 2.53978 1.75952 -1.43285 -1.21052
2147 1.27138 5.02145 1.78253 0.517059 0.160254 -0.493539
800 0.00715584 5.33578 1.60109 -0.278918 -0.557429 0.640094
3641 2.18011 4.59183 2.17666 -2.19008 -0.29629 1.13398
354 2.10475 5.60248 2.37466 0.471099 -0.0784633 -0.807027
528 3.39688 4.74866 2.11179 0.636997 -0.841295 1.12168
3907 4.0975 5.82835 1.53388 -0.563092 1.97138 0.0217005
1366 3.26296 5.73886 2.16067 0.656371 -1.01908 0.495761
242 4.26241 5.59704 2.61799 -1.62687 -0.17331 -1.25524
499 5.92698 5.51531 2.58725 -0.480819 0.615774 0.0809135
2780 4.81345 5.00142 1.91013 0.682245 0.189601 -1.31403
1972 6.64681 4.71423 1.70496 0.280175 -0.334235 -0.687833
689 7.27074 5.74636 2.93035 0.370577 0.213284 -0.276781
2331 8.93523 5.37998 2.19089 -0.334732 -0.198946 -1.6541
2712 7.61548 4.8344 2.56326 1.35701 -0.309679 -0.979471
3084 8.098 5.72919 1.66297 0.620257 1.54143 -1.01145
234 10.4187 4.69832 1.51051 -1.86669 -0.984095 0.239864
1820 9.84611 4.95895 2.43373 -0.580561 0.952361 1.43209
536 9.72949 5.66018 1.54874 0.515791 -0.528115 0.0188342
2061 11.7523 5.91166 2.67933 0.688923 0.601717 -0.235316
3882 11.5462 4.65547 2.43232 0.476805 -1.59529 -0.677362
120 10.747 5.48838 2.27196 -0.733602 0.0361772 -0.0617962
2786 12.8162 4.77891 2.54365 1.1521 -1.47808 0.950436
3640 12.7957 5.75907 1.93286 0.893372 -0.67452 1.23604
667 13.8357 5.53018 2.15448 1.50997 -0.735389 -1.9438
1135 14.8029 4.95513 1.63704 1.82795 -0.848403 -0.0277584
2351 14.6528 5.82788 2.90348 0.920557 0.51759 -1.17265
3145 14.3055 4.70158 2.68667 -1.37761 0.380306 -0.60943
34 15.3793 4.73908 2.86997 -0.38978 -1.96583 0.880029
3388 16.4671 4.99988 1.97547 2.10568 1.38031 -0.326276
1844 17.6636 5.16333 2.67503 0.502968 0.659472 -0.294415
392 0.849655 5.99837 2.49369 -1.09933 0.662803 -0.972524
337 0.639179 6.95465 2.25627 0.345276 0.987326 0.0977193
3727 1.70512 6.64457 1.88304 -1.40399 -1.40064 1.61694
1892 2.90031 6.66149 2.7767 -0.6203 1.57381 0.731179
3156 2.5795 6.2135 1.54676 -0.388612 1.0419 -1.24794
2739 3.92326 6.52553 2.8413 -0.476797 -0.925494 -0.271558
1550 5.12095 6.10764 1.63921 0.909945 1.89008 -0.420342
372 5.51662 6.40779 2.74289 -0.21105 0.419465 -1.02302
1354 4.58215 6.96636 2.20277 1.30688 0.143784 -1.24129
343 6.85362 6.22311 2.0288 0.50134 -0.137379 0.952264
2528 6.40119 7.16722 2.1194 0.877832 -0.697538 0.316176
3092 8.79499 6.53057 2.20147 -0.663604 1.12276 -0.142041
3820 7.74065 6.89442 2.24164 0.330682 -2.15397 0.133864
3330 9.87888 6.26761 2.33951 -0.0355746 0.651467 -1.61637
185 9.5745 7.34302 1.97001 -0.130228 -1.125 -0.248605
696 11.875 6.56191 1.79423 0.675732 0.112327 0.872847
2949 10.7559 6.34611 1.50831 0.336724 -0.573516 -0.963164
387 11.4513 7.30595 2.30507 0.249262 -0.151126 -0.796155
3515 10.6084 6.95389 2.7188 0.0585243 -0.663872 -0.299433
1237 13.2579 6.2278 2.75401 -0.781481 -1.18827 1.20767
726 13.5115 6.48949 1.49316 -1.89196 -0.815587 -0.842624
271 14.1147 6.82975 2.53084 -0.0739312 1.61528 -0.946021
2163 15.0777 6.00376 1.94984 0.635223 -0.228177 1.1917
1095 15.0293 7.31433 2.57251 2.0434 0.302911 0.899918
1663 16.6746 6.12972 1.88708 0.479038 -0.0598261 -0.761855
2167 17.453 7.1193 1.54267 1.0557 0.951945 -1.55523
1636 17.6884 6.23892 2.21709 0.627286 2.03768 -0.119775
2881 16.5599 6.50793 2.77914 0.6355 0.566217 -1.30965
1248 17.2763 7.29016 2.82888 0.863706 -0.0778119 -0.590673
1392 1.0769 7.78 1.74208 0.0698051 -0.154686 1.11244
869 2.10662 7.59621 2.36784 2.11888 -0.392075 0.46326
2495 3.34508 7.50012 2.23751 -1.28636 1.67143 -2.11851
2813 4.22571 8.06255 2.61911 0.606806 0.557666 -1.41168
382 2.99104 8.78668 2.28413 0.541827 0.986444 1.31627
3474 3.83407 8.5416 1.71382 -0.145659 -0.404716 -1.51425
3971 5.28016 7.82903 2.2703 -1.06209 0.735934 -0.813999
2483 4.81721 8.86264 1.98772 0.0184961 -0.987533 -0.618387
420 6.86755 7.9991 2.73736 -0.124133 1.06733 1.10529
1876 6.28062 8.27759 1.70117 0.183041 0.731562 0.452619
1233 7.21715 8.7984 2.11832 -0.152112 1.80641 -0.202222
2503 6.00218 8.71699 2.65793 -0.647985 1.38308 1.49709
20 8.65213 7.62478 2.75172 -0.213056 0.403523 -0.566916
936 8.85695 8.66166 2.3147 0.847638 0.328895 -0.0533399
1810 7.77944 7.8932 2.15698 1.25874 -1.33049 2.20766
2859 9.97514 8.79345 2.91601 0.919622 -1.28591 -0.0934699
2507 10.8828 8.8249 1.83397 -1.22507 -0.259019 0.360869
3765 10.652 8.08505 2.4747 -0.838794 1.64755 -0.680957
1770 12.5689 8.36316 1.74528 -0.370487 0.530196 -0.807754
2856 13.0246 8.80773 2.65783 -0.0113133 -1.81022 -0.241614
2986 12.0268 8.00447 2.91624 0.88784 -0.337417 0.878625
790 13.048 7.73609 2.49241 -0.67182 -0.435973 0.954775
2851 14.0209 8.33504 2.21938 -2.2249 -1.22479 0.809499
3117 15.586 7.70394 1.56244 0.602683 -0.955773 2.67949
502 15.2963 8.54944 2.46988 1.74546 -0.0532347 1.19028
2467 17.8262 7.93863 2.11879 1.87844 0.0122858 1.5418
2431 16.5884 7.58047 1.98017 1.51048 -0.496015 1.06399
3278 16.628 8.76198 2.33219 -0.711652 0.886263 -0.00703125
413 17.2318 8.79098 1.51771 1.84085 0.977906 -0.765079
3839 1.15572 0.36026 4.3567 2.57452 -0.158711 0.704627
453 0.327785 0.661959 3.89733 0.577513 -0.153173 0.580917
2303 2.51512 1.28921 4.34468 1.99852 2.02537 0.962856
781 1.49309 1.3832 4.04836 -0.766538 0.0232207 -0.84965
3625 1.52042 0.517199 3.10189 1.59665 -0.238245 0.710642
2775 2.86864 1.07543 3.14521 -1.71804 0.346356 0.608195
1448 4.05742 0.0862101 3.37191 0.686347 -1.50558 1.20076
1398 3.10301 0.377573 3.90222 0.500662 0.753577 -0.214354
2868 3.93824 1.46428 3.25062 0.0884717 1.86821 0.0376036
662 4.09801 1.1603 4.25488 1.01992 -0.354872 -0.741365
2065 5.30292 0.497703 3.57006 1.21797 -0.0864333 1.57405
2823 6.42506 0.932289 4.30742 -1.56099 -1.00988 -0.540077
521 6.86785 0.0593854 3.95932 -0.565477 -0.296603 -0.0858097
2135 8.52197 0.89058 3.78212 -1.04018 -0.390727 1.25649
906 7.51181 0.692789 3.08757 0.993155 0.235331 -0.049908
524 7.94748 0.0962729 4.14672 1.7232 0.117466 0.676265
1115 9.56858 0.270418 3.87441 -1.90286 0.804789 -0.302378
2927 10.5205 0.926651 4.12431 -0.845318 1.7052 0.451587
3887 10.7962 0.941188 3.13189 -0.959064 -0.250494 1.66627
3749 11.6062 0.398792 3.63567 1.89387 -0.392073 2.22121
2552 12.5173 0.888849 3.88178 -0.620105 -0.0198127 0.373912
122 13.4916 0.68909 4.2766 -1.11865 0.0182902 0.839296
686 14.3182 0.794237 3.29778 0.278807 1.45995 0.275039
904 14.7079 0.484931 4.16559 -1.49524 -1.56248 0.662887
1862 13.4309 1.47374 3.66195 -0.0648044 0.498576 0.678693
2469 15.5135 1.27232 3.71365 0.964355 -0.280608 -0.219597
2897 15.4211 0.219675 3.25334 -0.691289 0.395382 0.760041
2661 16.4381 0.181811 3.5308 0.544843 -0.472336 -1.2635
446 16.9512 1.32256 3.77823 0.0696583 0.764969 0.641939
2087 17.2375 0.553936 4.39227 -0.102906 1.66615 0.570338
2861 0.131649 1.60566 3.34334 -1.23527 0.795285 -1.08601
1222 0.642698 2.55033 3.25251 0.25919 1.04705 0.327208
2969 2.22113 2.59532 3.87588 0.730539 0.198422 1.09834
363 3.13722 2.14377 3.73463 -0.17731 -0.319246 -0.892688
349 5.78317 1.85204 3.76323 0.805139 0.239731 -0.0519895
1776 4.63573 2.04335 3.94029 0.3067 -0.335752 -1.94892
1150 6.56189 2.36975 2.99313 1.84377 0.432281 -1.71682
1480 7.57395 1.77086 3.08516 -0.956407 -0.597341 -1.53255
823 8.32765 1.97657 3.93856 0.134435 1.62341 -1.49058
3333 8.28267 2.7833 3.04344 -0.0796478 2.26762 1.56384
2173 8.68086 2.88518 4.20212 0.0522766 -1.29107 -0.302238
1259 9.42111 2.63838 3.57955 0.92086 -0.696264 -0.897083
3001 10.3426 1.94764 3.18753 -1.07099 -1.52816 0.0107063
1286 9.46638 1.50457 3.76099 -0.490865 -0.476533 -0.227767
3099 11.8529 2.54619 4.32147 -0.884096 0.536267 0.973742
2523 11.4141 1.69856 3.81476 1.17199 0.485442 -1.2335
350 12.086 2.58538 3.02588 1.79838 -0.695844 0.825944
1196 12.3965 1.92057 3.66315 0.445648 -0.157496 0.620404
3922 13.108 2.12347 4.36028 0.773662 -1.51388 0.253885
1937 14.1004 2.79674 3.49691 0.757017 -1.17549 -0.489792
2389 14.4541 1.67269 3.80209 -0.103145 -0.206713 2.50152
3992 16.1485 1.90395 4.38145 -1.815 1.06359 0.194999
435 16.2237 2.80657 3.52941 -1.13134 -0.714494 1.42367
961 15.2435 2.54382 3.88971 -0.165123 -0.240433 -1.92017
2405 17.6799 1.52847 4.39685 -0.176464 -0.893245 -0.933127
1703 17.3039 2.6074 3.85809 1.97792 0.710443 -0.164228
2069 0.419604 3.12741 4.13397 -0.971083 -2.82588 -1.4662
2345 1.35246 3.32954 3.16683 -0.0228245 -0.464137 0.629475
2682 0.609757 4.14868 4.33882 2.04647 0.646692 -1.54957
2227 2.52211 3.70962 3.8846 0.262044 -0.527561 0.23119
3009 1.59423 4.46655 3.83757 -1.44903 1.06063 -1.48146
564 3.21414 3.16984 3.418 -0.670793 0.029943 -0.356331
3260 4.10241 3.76223 3.78989 0.380892 0.559033 1.06559
3721 5.87692 3.05439 3.64626 0.327436 -0.683983 0.370467
1823 5.4353 4.27866 3.24804 1.34523 0.194572 -0.991006
2895 4.82187 3.11196 3.30676 -0.51631 -0.370169 -1.03011
1610 4.76603 3.23694 4.38646 0.98218 -1.89382 -0.11193
434 6.97994 3.25887 3.71425 1.23529 0.121941 0.606424
1262 8.02053 3.6278 3.78655 0.866684 -0.759506 0.636118
3476 9.08537 3.60597 3.1486 -1.20661 1.58961 1.07453
2060 10.1928 3.31995 3.64142 -0.254357 -1.42927 -1.13862
3319 11.2034 3.1968 3.3507 0.0709958 -1.55313 0.458368
1358 10.9594 4.00255 4.22875 -1.11425 0.0757256 0.949593
2695 12.7535 3.02189 3.67552 -0.667168 -1.50536 0.0352908
3086 13.3455 3.8785 3.22787 -0.989418 0.523677 -0.197849
1835 12.122 3.86374 3.65081 -0.205929 0.818635 0.870974
2666 13.4844 3.42403 4.23667 -1.4541 0.078462 0.837591
2624 16.2837 4.17078 3.02241 -1.06689 -0.0941978 -1.41445
1539 15.1313 3.89348 3.55064 -1.12314 -0.745406 -0.244961
1438 17.4196 3.81444 3.68383 0.235515 -0.827879 -1.73884
707 16.5577 4.25113 4.21056 0.334035 -0.529424 0.389715
2618 0.723279 5.50543 3.89458 1.3429 0.736528 1.1139
2962 1.39695 5.19615 3.05388 0.195617 2.38816 0.968751
2078 2.65597 4.85242 3.94873 -0.195048 1.23579 0.305136
2198 3.0156 5.2812 3.09764 0.754466 0.0823436 -1.0112
1541 3.636 5.5328 4.02603 -0.963039 0.73494 0.084279
2138 3.76149 4.65221 3.55871 -0.577732 0.833849 -0.0314968
1588 4.76397 5.15532 3.48844 -0.818599 1.31094 -0.202872
307 4.67639 4.72653 4.36133 -0.164231 0.330341 2.32978
825 6.41046 4.48357 3.47249 -0.44659 -0.638522 0.351388
3927 6.69306 5.40431 3.84786 0.938547 1.21756 -0.177909
208 7.49289 4.57275 3.93169 1.9631 -0.477688 0.206816
3064 8.40593 4.47818 3.18007 1.17938 0.0172641 0.395584
2553 8.09642 5.4182 3.57788 0.898803 -1.19115 1.38776
2972 9.29445 4.75741 3.99083 0.415063 0.15984 0.247507
1023 10.1193 5.34823 3.59259 0.330655 -0.308537 0.534274
1617 11.2894 4.72769 3.45727 1.41478 -1.24808 -0.948619
389 10.9805 5.91283 3.50461 0.1761 0.274262 -1.60092
931 13.0348 4.66383 3.82331 0.351958 -0.571066 -1.43841
1063 12.2019 5.19833 3.43483 -0.0397225 -0.0686043 -0.16396
2088 14.0015 5.36473 3.67303 -1.08346 -0.190551 -1.3248
772 14.9678 5.09093 3.95074 0.970802 1.12541 0.582868
697 15.973 5.88861 4.32336 0.927098 -0.847329 -0.0340633
1907 17.509 4.65895 4.28572 0.220024 0.593765 0.338872
279 16.4496 5.37562 3.0662 -0.0407056 -1.12324 0.0161954
2014 17.2297 5.45721 3.6207 0.125802 -1.86348 -0.0977489
2914 0.8556 6.4508 4.4293 -0.775192 1.38167 -1.27489
1024 0.202172 7.16909 4.16906 -0.824151 0.178962 -0.747596
736 0.793715 6.79831 3.37847 0.187469 -1.84836 0.581952
3703 2.49468 7.3083 3.51946 -0.291046 1.24182 -0.164805
1282 2.83245 6.17252 3.6914 0.529132 0.531046 -1.63941
427 1.73536 6.28936 3.44271 0.4767 -0.407031 -0.186476
2683 4.43657 6.23179 3.78869 0.120349 2.17594 0.254661
1084 3.72954 7.244 3.76123 1.01422 -0.466696 -0.670017
140 5.85896 6.08833 4.30655 0.0175864 0.374234 -0.213544
1551 4.48741 7.18054 4.40234 1.89263 0.931985 0.798272
2205 5.67147 7.33735 4.44586 1.13296 -1.1634 0.310539
1803 6.34853 6.22808 3.27471 -0.66526 -0.876664 1.12493
263 6.58205 6.84139 4.12181 -0.141127 -1.66363 0.732521
43 7.13479 6.97364 3.08863 1.25832 0.763955 0.877493
2008 8.89542 6.75585 3.70397 0.728175 0.606386 2.1916
1381 7.80364 6.50473 3.98728 -0.111487 0.575398 -0.110017
856 10.0373 6.36684 3.47137 -0.600059 0.567458 0.793449
1802 9.14018 5.96319 3.14101 0.76469 -1.60659 -0.664433
1801 9.68238 6.96141 4.45436 -1.46507 0.543847 -0.727751
405 10.8814 6.87922 4.30597 -0.376254 0.956685 -1.0765
2188 11.8803 6.81844 4.14359 -1.25526 -1.13925 -1.15495
2141 12.9 6.35728 4.03418 -0.834172 1.07847 0.944072
2801 12.4937 7.01032 3.02455 -0.0180374 -0.881855 -0.489368
360 13.9443 7.03139 3.52905 0.225083 0.884079 -0.191409
684 14.6542 6.32722 3.97977 0.745763 0.0841391 -0.542565
190 15.5277 6.21857 3.24013 0.0980544 0.450087 0.258378
2277 15.2936 7.39536 4.4594 0.245895 -0.656076 0.82131
722 16.3773 7.42672 3.19535 -0.47204 1.32359 0.722541
1205 17.8309 6.15393 3.24552 0.0604212 -0.48302 -1.12322
1738 16.9113 6.50417 3.74589 1.76908 -0.831853 0.27811
229 0.328668 8.13927 3.80139 -1.72944 -0.377665 0.038863
3777 1.14978 8.10087 3.15261 -0.507274 1.28095 0.11723
2669 1.32104 7.48761 4.08918 0.875804 -0.0444722 -0.511602
3878 2.37084 8.50577 4.22013 0.55272 0.635965 0.744864
3150 1.96479 8.81819 3.33042 0.624958 -0.722158 0.0445443
2833 4.71854 8.93822 4.34182 0.43273 0.0759811 -0.681629
742 4.82333 7.5265 3.20105 -0.451555 0.33393 -0.201337
740 5.46585 8.48952 3.60642 0.856939 -1.5374 -0.150833
2704 6.27753 8.44354 4.33901 0.329993 0.415349 -1.63252
3811 5.99245 7.48789 3.35195 0.0620141 0.579389 0.203788
743 7.21859 7.73175 3.87342 -0.371478 0.189029 0.922034
2569 6.88625 8.84364 3.39873 0.035545 0.489539 0.330725
2947 8.01773 8.77947 3.2006 -1.06864 0.7259 0.0627627
2402 9.67634 7.53009 3.06526 -0.961315 0.262966 -0.391471
109 9.15731 7.82814 4.19451 0.230876 -0.311219 0.7391
3835 9.90345 8.64454 4.31454 -0.0558627 0.570059 0.343947
1421 9.03696 8.80852 3.4554 -0.671732 0.772119 -0.0190483
2440 11.1818 8.55186 3.49614 -0.546922 1.41532 -1.70306
2940 11.6563 7.7704 4.08478 -0.615466 0.430723 -0.893653
2676 10.7171 7.56293 3.51093 -1.02283 1.01665 0.114425
3196 12.1242 8.81585 3.7647 0.478613 0.149181 -0.604302
318 12.6183 7.67414 4.1021 0.484489 0.474769 -0.943561
2416 14.4261 8.11016 3.33365 0.264388 -0.103392 -0.212954
3982 13.4959 8.15653 3.81617 1.25897 -1.08352 0.718489
2722 14.4575 8.12726 4.40415 0.964588 0.912325 1.8374
575 15.3803 7.63051 3.5051 -0.416772 -2.93063 -0.124217
3710 15.1568 8.66634 3.9042 -0.670621 1.80943 0.0171281
3429 16.1196 8.15234 4.03436 0.439016 0.778055 -0.680213
1109 17.0778 8.41091 3.48178 1.44297 -0.296855 -1.2942
1449 17.3043 7.88518 4.37579 -0.509507 -0.100166 0.721934
1690 0.863718 1.18429 4.95614 -1.33368 -1.16541 0.331822
556 0.908419 0.174686 5.42786 1.5353 0.0995506 0.678107
873 1.98639 0.620141 5.08296 1.54082 0.320864 1.04026
2876 3.16279 0.551326 5.11545 0.154171 -0.201017 -1.06978
642 4.80203 0.587478 4.77825 0.404919 -0.653814 1.44494
1396 5.38721 1.25803 4.47437 -1.95742 1.01767 1.5618
3920 5.29563 1.19409 5.51949 0.584609 -0.629687 -0.400391
3687 5.90351 0.216368 4.95219 -1.5324 -0.213232 2.26175
3905 7.33882 0.746676 4.87739 2.23538 1.45678 0.345686
2590 7.64949 0.878091 5.87596 0.546471 -0.196861 -0.705771
3805 8.60778 0.772784 5.75722 -0.663632 1.9105 1.46914
1743 9.08715 0.908835 4.76335 0.169122 -0.87776 0.610801
2221 10.8567 0.172337 5.49427 -1.51826 1.65817 -2.19854
1069 11.3973 0.672988 4.70493 -0.41281 -0.0872055 -0.403606
2434 10.8695 1.18935 5.94806 0.321352 0.625335 0.485104
2657 12.6494 0.31522 4.68718 -1.46661 0.356819 -0.330017
2397 12.4826 1.21043 5.61089 -0.111082 0.559108 -0.385234
1099 13.203 0.453869 5.61836 -0.645931 -0.0119348 -0.0336015
3352 14.2655 0.854052 5.34123 2.04338 1.69889 0.816569
1742 14.9239 1.37145 4.73872 0.17795 -0.780275 -0.627028
3957 15.4419 0.488778 5.2262 -1.20659 -1.61736 0.770885
2703 16.5914 0.13756 5.71439 0.608704 -0.249901 1.57325
2819 16.6866 1.25793 5.15617 0.112267 0.251617 1.03654
589 17.3392 1.17353 5.86673 0.916484 -0.872603 0.631972
2295 0.685493 2.07076 4.50799 2.0064 -1.08359 0.125419
3667 0.258537 1.93432 5.78586 -0.608529 -0.913617 0.0223151
2814 1.21683 2.72098 5.32958 -2.23901 -2.99934 1.31171
2648 2.93026 2.62677 5.72132 2.09318 0.06247 0.825812
2413 2.93993 2.92413 4.6648 1.48214 -1.00591 0.601245
1193 2.1178 2.33357 4.9552 1.27384 0.298594 -0.718793
1845 1.71654 1.60673 5.54358 0.148404 0.545149 -0.137165