ITEM: TIMESTEP
59000
ITEM: NUMBER OF ATOMS
4000
ITEM: BOX BOUNDS pp pp pp
0.0000000000000000e+00 1.7878070701931353e+01
0.0000000000000000e+00 1.7878070701931353e+01
0.0000000000000000e+00 1.7878070701931353e+01
ITEM: ATOMS id x y z vx vy vz
2172 1.33346 0.44952 0.405175 0.074128 -0.283016 0.0719506
3965 0.227704 0.946987 0.292544 0.144044 -0.9354 0.105463
2683 0.317814 1.23605 1.44233 1.88162 -0.289777 -1.46108
3610 0.342013 0.144443 1.1865 -0.927631 1.49046 -0.471562
3329 2.43272 0.552106 1.06917 0.087061 -0.5567 -2.17408
2482 4.04565 1.39841 1.41816 -0.264682 -0.065264 -2.25783
1739 3.7683 0.414307 0.541279 -0.0626345 -0.597966 -0.231306
1065 3.05523 1.28808 0.680564 -1.64623 -0.387026 -0.590209
1639 5.11451 0.707633 1.21387 -0.766228 -0.834913 -1.23544
3128 5.74547 0.487459 0.218639 -0.0949336 1.53156 -0.873598
2433 6.82162 1.45477 1.45561 -1.26515 -0.706831 -1.17024
3070 6.56763 1.18787 0.34397 -0.117685 -7.14872e-05 1.48039
120 7.13262 0.193625 0.718401 0.0493949 0.0107534 0.476935
1690 7.82343 1.06115 0.787659 -0.827805 -0.0565331 1.31304
2055 8.8696 0.732616 1.03516 -0.774343 0.139623 -1.13446
2278 10.3964 0.513073 1.45672 -1.41827 0.971424 -0.694111
679 9.81349 1.06343 0.54604 0.0238767 0.383664 1.71207
2823 10.9182 0.631874 0.206673 0.824281 0.875321 0.492017
2396 13.1007 0.793894 1.05449 1.58994 -0.453091 -0.970804
1991 12.0464 0.5187 0.465724 -1.15012 0.0515785 -0.35693
290 14.0349 1.30398 0.437504 -1.55665 1.01593 0.406379
2663 13.4642 0.249341 0.254464 -1.23871 -0.79649 0.101619
3907 17.0654 0.552897 0.645935 -1.1379 1.83706 -1.1201
1445 16.3924 1.25213 0.0841759 -0.133823 0.856394 1.08496
277 1.02623 1.8068 0.708138 -1.07365 -0.0344856 -0.463199
3001 1.23937 2.78041 0.449289 -0.272927 -0.257742 -1.7145
1859 2.13142 2.56965 1.18576 -0.216427 -0.0644773 0.896562
387 2.00306 1.74703 0.380294 -0.220765 -0.285837 0.733055
2078 3.15606 2.83738 0.231547 -1.09853 0.260804 -0.475199
3158 4.19733 2.4723 0.712934 0.350352 1.34716 -0.242161
3547 3.20089 2.21642 1.1906 -0.43091 1.76394 0.0147286
2546 5.00168 1.67406 0.634864 1.34492 0.201552 0.717935
3471 5.89002 2.07681 1.46678 0.018604 -0.937672 0.20974
363 6.96908 2.82889 1.09063 -0.0918675 -0.89215 -0.840766
1000 7.39852 1.96913 0.663634 -0.532663 0.722947 1.25827
2309 6.10774 2.14292 0.465438 0.484554 -0.788144 1.05493
1722 8.50253 2.39026 0.944739 0.0424829 1.04008 -0.659567
1634 8.65748 1.58599 0.262627 0.40409 -0.150929 -1.36661
3339 7.85916 2.79119 0.0369729 -0.562837 -1.67213 0.393858
278 9.45837 1.89263 1.25424 -0.104086 0.861711 -0.724715
2902 9.73941 2.34301 0.259899 -1.02917 0.433431 -0.41015
3289 10.62 1.59131 0.981146 -0.497843 -0.470059 -1.34434
2199 11.8022 1.97288 1.13726 -1.07001 -0.424123 0.739357
2716 10.5411 2.56167 1.38533 -0.698373 -1.57419 2.02787
1376 11.0082 2.2696 0.278096 0.606691 1.64599 0.645557
2452 13.3219 1.87755 1.17262 -0.787234 0.60467 -1.66308
1481 12.6194 2.01018 0.38621 -0.877168 0.449336 -0.0530014
859 14.6485 2.35439 0.256165 -0.229926 -0.177803 0.472314
3332 15.7412 2.61045 1.22018 0.768472 -0.59195 1.5121
1393 16.3809 1.83023 1.20873 0.705838 -1.09186 -0.922176
632 15.427 1.65648 0.871692 -1.85894 0.41094 0.87733
1020 15.7697 2.10715 0.0498349 -0.444838 0.062148 -0.837415
441 16.7317 2.43518 0.408662 -0.546972 -1.35334 -2.34164
790 17.3479 1.73632 0.0625667 0.368301 1.61545 -0.182525
1027 17.2449 2.44626 1.44883 1.43162 -0.0380691 1.95937
153 1.13044 3.78357 0.920311 0.223035 0.78083 0.30715
1865 0.462801 3.68401 0.0992382 -0.147567 -1.21488 -0.412442
110 0.0451303 4.24523 1.1826 1.80685 0.0722748 2.78769
446 0.30058 2.99641 1.01525 -0.232312 0.390644 -2.06221
538 2.84816 3.48056 1.22688 0.167372 1.06473 1.87421
1081 2.13344 3.30577 0.173579 -0.462476 -1.02635 -0.386684
3607 3.38595 4.43202 0.780989 -0.830454 -0.0961227 1.04412
3254 4.00356 3.4284 1.10024 -0.525334 -0.331503 -0.0402621
3438 4.1295 3.92885 0.00799379 0.36356 0.498475 -1.34553
2272 5.86345 3.24753 0.826063 -1.69237 -0.841678 0.503079
330 4.91718 3.36984 0.321496 -0.139386 -1.46471 1.4363
2143 4.76254 4.23501 1.26854 0.642823 -0.325496 -1.25413
3611 6.23646 4.26456 0.985051 -1.25249 0.0394165 0.462296
1806 6.94188 3.64653 0.320015 0.971467 -0.580161 0.80343
454 8.39385 3.76766 1.33013 0.724951 0.502619 -0.661456
2768 8.56331 4.45456 0.521071 1.03332 -0.379732 0.979569
3048 9.30581 3.62112 0.888514 0.738911 -1.32438 -0.483421
1166 9.98873 4.29666 1.20295 -0.816463 0.574276 1.75048
2861 11.676 2.99943 0.759316 -1.29077 0.836424 -0.0917788
928 10.9531 4.05894 0.516648 1.4632 0.796735 0.553324
429 10.4928 3.16254 0.521228 -0.427644 -0.426333 0.713311
3914 12.87 3.37141 0.209938 0.596645 -0.502078 -1.11014
298 12.8173 4.33667 0.722854 -0.598368 0.425092 -1.52713
3976 14.0097 4.08707 0.41482 -0.325736 -0.412153 -0.587757
585 14.6014 3.30343 0.786117 0.0669706 -0.655665 -0.475929
2636 15.5252 3.21676 0.190972 2.26045 -0.230129 -0.82628
3226 16.0461 3.81728 0.90513 -0.280028 0.657218 -0.513502
1814 15.0505 4.34891 0.805406 -0.129648 -0.184858 -0.360439
474 16.7666 4.45375 1.16956 0.651623 -0.483631 0.348994
2099 17.1872 3.4906 0.593338 -2.81222 1.2957 -0.277059
1273 0.898558 4.95656 1.41692 0.939726 -1.91189 0.0356462
276 0.65738 4.79732 0.320041 -0.959633 1.16052 0.133931
1573 0.256003 5.79611 0.0900517 -0.280562 -0.108772 -0.58626
3336 2.72245 4.92175 1.48748 -1.85918 0.0851238 0.64954
2473 1.9961 4.56519 0.508594 1.21336 1.25149 2.19122
3271 1.58096 5.61212 0.846972 0.783194 0.783646 0.761753
2082 3.23555 5.52937 0.854975 -1.37861 -0.0896542 0.932238
2746 4.18462 5.72485 0.247204 -1.95454 0.0414508 0.730832
1038 5.82777 5.10565 0.273297 0.425171 -1.69943 -1.21484
3648 4.47051 5.20194 1.01738 -0.439999 -1.63274 -0.279099
1316 5.4389 5.52292 1.25611 -1.52142 -0.589249 -0.924108
2399 4.81138 4.78187 0.163362 0.889067 1.14524 0.18914
3967 6.97149 4.94742 0.0791163 -1.16707 0.150421 -2.16204
2495 6.59314 5.25953 1.12516 -0.106884 -0.878149 -0.92756
2232 7.40504 4.49438 0.96226 -0.161016 1.1195 0.5385
1949 7.91043 5.37453 0.603784 0.43422 -0.514235 1.14249
1963 10.1344 4.71833 0.310135 0.0188929 1.1041 0.604592
1813 9.39589 5.44775 0.585269 0.000931583 0.121957 1.37046
3008 10.4078 5.95061 1.04467 0.0832773 1.36274 1.46759
3841 9.13128 4.72232 1.32987 -0.31798 -0.894234 0.327955
1162 11.0315 5.06734 1.0665 1.0522 -0.403742 -1.51934
1655 11.9001 4.78917 0.626396 0.465593 0.483788 -0.971042
1704 10.9802 5.64272 0.0592487 -1.45668 -1.31785 1.31374
2512 12.465 5.66061 0.0614114 -0.498357 0.960029 0.515562
2111 13.7081 5.54143 0.0537695 -0.495623 -0.0792965 0.86965
1450 13.9081 4.75587 1.28722 -1.70946 -1.24401 -1.07335
2659 13.8283 5.84098 1.44662 0.915442 -1.45383 0.141339
3092 15.5901 5.82397 0.509769 0.325282 1.6393 0.0396311
3573 15.9352 4.6833 0.405229 1.46805 1.71228 -1.37352
2751 16.4467 5.42161 1.23919 0.942806 -0.0297265 0.380871
2467 17.4363 4.98674 0.404622 -0.773989 0.398736 0.308349
1059 17.5576 5.15466 1.39843 0.0438712 0.469683 0.128945
13 0.618859 6.71221 0.567862 -0.708188 -0.845052 0.0566325
329 0.0136238 7.42103 0.984036 -1.77098 -0.151489 -0.643938
1237 1.6748 6.69086 1.18449 0.122139 -0.174747 -0.248589
752 2.24342 7.38133 0.552217 -1.79398 0.520788 -0.286753
694 2.3984 6.30012 0.455092 -0.609236 0.981678 0.724075
2061 3.0521 7.16194 1.43714 -0.649251 0.660979 -1.13004
3258 3.92179 6.77882 0.699156 -2.71972 1.15416 -1.80222
3653 5.6466 7.17375 0.336881 1.45416 -1.08743 0.257987
7 5.03328 6.67812 1.22177 -0.574081 -1.46866 -1.01964
395 7.10692 6.13374 0.749762 -0.388233 -0.994583 -1.00349
738 6.88082 7.07142 0.742734 -1.69906 0.0852381 1.46504
1920 6.10702 6.23561 0.910028 1.15065 0.55998 0.606715
3702 8.52184 6.43241 0.695505 -1.30949 0.286561 -1.57164
1159 8.72689 7.31395 1.44781 2.00999 1.3184 -1.62138
3371 8.37704 7.37031 0.0538183 1.39336 -0.973715 0.574491
234 9.67049 6.64652 0.349336 -0.46985 -0.0907327 -0.23726
464 9.40416 6.46889 1.27351 1.16345 0.292957 -0.051856
3409 11.7443 6.20109 0.697215 -1.07865 -0.876922 -0.546099
633 10.7971 6.80163 0.551303 -0.635214 1.0996 0.0707303
1731 12.1901 7.32291 0.817558 -0.872445 -1.27541 -1.10058
1997 12.8254 6.23548 0.975224 -0.0838283 0.881057 -0.346714
1217 13.9759 6.81496 0.710903 0.282583 -0.373623 0.0720997
1165 15.9068 6.48912 1.3215 -1.31698 -0.743903 1.4134
1808 15.9159 6.93158 0.0688147 -1.09264 -0.0813054 0.317274
2852 15.1228 7.05884 0.931789 0.772237 -1.52119 -0.356009
1457 17.503 6.46373 0.749701 0.965565 1.02824 0.785398
687 16.7784 7.11056 0.805671 -0.752353 0.237174 -1.25624
2634 16.6801 6.07297 0.377241 -0.626157 0.394427 -0.285415
295 0.243704 8.427 0.0184731 1.13878 -1.91308 0.310921
3111 1.16892 8.84599 0.942455 -0.428037 -0.527409 -1.15387
3934 1.01251 7.6621 1.38572 1.30775 -0.35093 1.28252
2510 0.773214 7.5359 0.0881078 0.554521 1.76293 1.3903
2847 2.59637 8.17628 1.23269 0.419881 -0.675274 -0.100774
3618 2.93291 8.43265 0.257718 -1.71443 0.819323 -0.370341
1258 1.86997 8.37672 0.325016 -0.914317 -0.571774 -0.0198351
2813 4.65818 7.54601 0.557202 -0.0830039 2.85602 0.0612984
771 5.69438 8.77321 0.463278 -0.182384 0.110984 -1.00677
1856 4.56174 8.48643 0.995011 0.848034 -0.0811821 0.0767169
3476 6.04585 7.9338 1.16139 -1.41719 -0.143981 -0.267593
150 6.98022 8.42008 0.95975 0.934504 -1.12309 0.0923292
881 7.94906 8.90607 1.0216 -0.256053 -0.354258 1.93384
1429 7.68455 7.52138 1.28666 2.35905 1.17461 -0.311485
2648 8.80707 8.28189 0.691414 0.904519 0.959108 1.51853
1942 9.75277 7.7142 0.886779 -0.629622 -1.91212 -0.02907
1270 10.9174 7.73272 1.07879 0.322841 -0.87785 0.594445
2980 13.2767 8.65245 1.28314 0.899364 2.40848 -1.83884
1057 11.9246 8.50125 0.622319 0.940668 -0.424528 -0.091882
3461 13.2311 7.54722 0.656451 -0.292 0.587065 0.763438
3167 14.8478 7.8799 0.371467 -1.33458 -1.16892 1.52839
665 14.2682 8.76962 0.421089 -0.573469 -0.598684 0.119541
3325 15.4989 8.05766 1.1327 -1.0295 -2.3862 0.0794025
1532 17.0549 7.83936 0.0807375 0.528902 -1.54898 2.19345
3777 0.927435 0.563717 2.24588 1.08942 -0.128873 0.981162
714 1.79264 1.06092 2.3669 -2.13014 0.424494 0.22388
631 2.69036 1.23368 1.82165 0.0456602 0.894337 1.30028
392 3.15556 0.567203 2.77166 0.390896 1.83365 1.2618
350 4.03431 1.40723 2.41345 -0.616572 0.138391 1.30595
10 3.51968 0.607097 1.686 -0.0593058 -1.52314 -0.871883
1369 5.05145 1.48795 1.85801 0.643116 0.183901 -0.938374
1776 4.529 0.575159 2.18924 -0.403252 -0.207281 -0.329281
2238 6.38465 0.640153 1.83806 -0.254022 0.258468 -1.33685
196 6.73586 0.433303 2.76139 0.340584 1.151 -0.0394441
334 9.99752 0.971288 2.6577 -0.964545 -0.129218 0.781778
3779 11.8382 1.26329 2.05759 0.943979 -1.92831 -0.0333102
3733 11.2938 0.30889 1.996 2.24661 -0.192366 -0.96114
370 11.132 0.775055 2.84149 0.204261 -0.0764199 2.25357
3937 12.2132 0.00553962 1.50319 0.889891 -0.776106 -2.84932
2580 12.3128 0.34874 2.581 -0.574094 0.451389 1.20375
853 13.2526 0.155672 2.01136 -0.528104 -0.150432 0.189821
2551 14.2949 0.770262 1.69424 0.596362 0.610919 0.106835
1513 14.4314 0.12797 2.44905 0.91567 0.976979 1.03377
3894 15.7383 0.905662 1.98841 -0.827194 -0.308485 0.185598
3832 15.3206 0.0348061 1.55616 0.151326 -0.68582 0.276898
773 17.6272 0.710993 2.24571 2.22125 -2.07464 -0.272437
1464 16.538 1.31554 2.40797 -1.68252 -2.51037 -1.07758
2314 16.4889 0.0753336 2.39633 0.00996338 -0.345817 -2.31186
3225 1.01655 1.7592 2.24585 -0.0314862 -1.74088 0.872366
3842 0.295029 2.53893 2.44241 1.01789 0.554657 -0.568271
3014 1.00624 2.54403 1.65016 1.67572 -0.250647 -1.07023
641 2.05361 2.17426 2.16929 -1.58902 -0.923205 -1.21904
528 2.80865 1.55409 2.9575 1.01509 -0.890026 0.536989
979 3.9319 2.71181 1.82308 2.11399 -0.00923221 1.85479
2537 4.96745 2.77096 1.69133 -1.49264 -0.192411 -0.787965
529 5.60915 2.21274 2.51453 1.02044 -0.979724 0.444025
405 7.05231 2.18575 2.21608 2.55588 0.387268 -2.70713
2835 6.35589 1.49346 2.58032 0.806402 0.521775 -1.9044
3950 8.87535 2.96803 1.76517 -0.746846 0.163586 -0.465775
810 8.39301 1.63057 1.66985 1.10049 0.716367 -0.809876
1666 7.82944 2.59912 1.74416 1.39094 0.342417 -0.454164
2384 8.28536 2.04638 2.84432 0.045381 0.443265 1.05354
3805 9.361 1.75511 2.26685 -0.594496 -0.687072 2.88896
3502 9.89939 2.46864 2.56893 -1.62557 -0.430258 -0.0614485
2466 11.5145 2.2693 2.02825 1.14439 1.00489 -1.17928
3330 10.7234 1.54394 2.09644 -0.0625004 -1.19425 -0.445636
349 12.7361 1.49782 2.46425 -0.652287 -0.566666 0.0347736
1023 13.3162 2.5341 2.15851 1.20066 0.962574 1.11495
2542 12.2491 2.58772 2.65931 0.607775 1.00987 -1.66159
1907 14.1809 2.81316 2.70971 -0.624981 -1.26765 0.258805
2841 14.4432 2.02819 1.5959 0.724403 0.469709 0.0977263
586 14.4807 1.74848 2.90453 -0.47003 -1.02274 1.65723
2630 15.6398 2.45087 2.44724 -0.10141 0.102362 0.242835
2069 17.1072 2.60224 2.47492 1.23836 -0.689757 -2.97588
1221 0.678477 4.44461 2.36947 -0.400389 1.5358 0.418151
3129 1.16797 3.14011 2.46304 0.313651 -0.658507 -1.94311
2472 2.04128 3.95348 1.75892 -0.857877 0.0961299 1.20406
3664 2.20659 3.11545 2.8265 2.15943 -0.68948 1.14766
229 2.6836 4.22259 2.68875 -0.377418 -2.11981 1.23919
2393 1.63272 3.91836 2.97257 -0.416099 1.42357 -1.54007
2668 3.19431 3.28804 2.34912 -0.96954 -0.0898086 0.651046
908 3.73854 4.20476 1.85644 0.750948 1.72607 1.45398
186 4.22015 4.05989 2.77298 -0.128105 0.0993099 -0.525287
2159 4.77254 3.10782 2.71257 0.324493 -1.98181 0.135509
3363 5.44643 3.86278 2.93835 0.596501 -0.455357 -0.516199
1318 5.59727 3.88222 1.89976 -1.84979 0.245502 -0.692956
1200 6.14798 2.98999 2.05329 -0.258152 -0.478395 -0.825263
966 6.90936 3.75384 1.64569 -0.560541 -0.304018 1.1583
2289 6.52371 4.34407 2.95001 0.496695 0.473531 -1.08563
1994 8.20637 3.18452 2.56518 -0.282948 -1.53318 -0.0484639
385 10.0759 3.35258 1.97898 0.197429 -1.20653 -0.514179
1170 11.1506 4.05111 1.64054 0.193943 0.0836428 0.262857
1303 11.0805 3.08926 2.35237 0.614815 -0.537157 0.125683
116 11.9798 3.22893 1.92776 0.640159 0.214349 -0.38295
2142 13.108 3.434 1.51542 0.740887 -0.55217 -0.509997
1967 13.3102 4.34824 2.16496 -0.677106 -0.0764152 -0.497044
879 12.3144 4.2052 1.76868 -0.994316 -0.00881279 -1.50518
1329 12.9042 3.3939 2.74851 -0.487513 -0.0240678 -0.467903
922 14.2077 3.82704 2.2365 -0.479537 -0.387702 1.12206
3762 15.0408 3.29932 1.71714 -0.182571 -0.781262 0.236404
1268 15.181 3.33826 2.78816 -0.227079 1.16496 -0.188734
1343 15.7359 4.29791 2.06455 -0.969838 0.421257 0.382239
2640 16.2471 3.2704 2.54629 -0.119638 -1.21836 -0.343181
2572 17.8749 3.41187 1.95713 -1.70232 0.0758817 -0.121862
1437 16.5886 3.3866 1.57785 1.11623 0.617413 2.13716
435 17.2327 4.39995 2.22265 -0.350133 1.23756 1.32687
2952 0.319509 5.35778 2.238 -1.15377 0.786778 -1.68668
1809 0.998033 5.8281 2.84988 0.337179 -0.0118727 0.943575
1321 2.53936 5.53481 2.76063 -0.832619 -0.314428 -0.301756
1157 1.72089 5.07601 2.44301 -1.85287 0.895683 0.958787
2524 3.52954 5.18871 2.31005 0.754367 0.480403 1.05571
86 4.2982 5.37756 2.94614 1.09167 0.881966 0.480096
1172 5.14741 4.95543 2.0647 1.05971 0.662846 -1.32521
2446 4.54766 5.80402 2.04668 1.50313 -1.67569 -0.473036
3402 6.56875 5.90311 1.95011 0.364119 -0.35559 -0.382876
2816 7.26557 4.68122 2.09161 -1.29058 -0.356127 -0.191381
1120 6.22193 4.79226 2.05467 -1.28372 0.253513 0.151296
182 8.36725 5.15827 1.84694 -0.169018 -1.52429 0.265797
1698 9.49116 5.04466 2.57614 -1.40362 -0.95456 1.38844
1124 10.3254 4.84554 1.96136 0.425872 1.99204 0.283716
1588 8.97605 5.95254 2.3446 0.571971 0.135949 0.456051
3991 10.8982 5.85131 2.25307 1.4281 -0.0428514 0.33504
614 11.9004 5.45509 2.74948 -0.674156 0.123596 -0.618658
1844 12.8506 5.20814 1.53062 0.0630205 -1.25845 -1.49467
2894 12.9061 5.53051 2.6438 1.20218 -1.44255 0.0551843
2709 14.537 5.92554 2.49076 -1.16663 0.402071 -1.46501
1126 14.615 4.99139 2.09446 0.375742 -0.835323 -0.619573
1096 13.9097 5.16307 2.88636 -1.28977 1.02808 -0.146103
2367 16.3187 4.71445 2.95684 -0.661703 -1.25385 1.12127
1446 15.3475 5.43436 1.60596 -0.163358 -1.78649 -0.154575
3787 16.09 5.86957 2.38752 -0.801978 1.72806 -0.383982
249 15.3024 4.71458 2.79599 -0.154904 -1.15858 0.946075
2804 17.2705 5.81618 2.09301 -0.49508 0.412081 -1.11545
1640 0.106906 6.66214 1.68166 -0.479296 -3.0284 -1.10788
2925 1.04035 7.05551 2.32693 0.168757 1.57629 0.430261
520 0.96872 5.99221 1.65364 -0.163185 1.41954 -0.00354907
2596 2.7958 6.95267 2.62025 -1.37315 1.34063 -0.510692
3571 2.95291 6.11068 1.68069 -0.600431 1.32955 -0.469522
651 1.86531 6.04659 2.16473 -0.930471 1.1804 -0.934497
3920 3.7738 6.54656 2.25487 0.99945 -0.426521 -0.549706
3809 5.5973 6.10895 2.18415 0.14528 -1.00008 -0.0921979
3376 4.78559 7.21553 2.43191 0.184295 0.231768 -1.91391
3975 6.54382 7.07475 1.74909 1.3183 -0.36555 0.502689
2739 6.32869 6.52846 2.74937 -0.163211 -0.135165 1.08194
1328 7.1649 7.26165 2.6824 -0.0694531 -2.16901 0.432576
2441 7.84805 5.98926 1.61331 0.409431 -0.212892 -1.09631
1259 8.31679 6.72271 2.66448 0.539484 0.0657053 0.621672
410 9.89976 6.19422 2.7124 -1.3283 1.45983 -0.356395
1930 9.84824 7.36889 1.83278 -0.694925 0.446902 -0.802496
2890 9.95663 7.44727 2.83219 1.93796 0.0422395 0.483451
3852 11.4036 7.05728 2.46975 -0.659038 0.10078 1.29904
707 10.8917 6.68535 1.68948 0.929651 -1.23747 0.798899
742 12.4904 6.65371 2.66471 -0.0570135 0.0933652 -0.664674
2881 12.0123 6.45401 1.82714 1.02341 -0.327723 -1.01196
1340 13.1066 6.9231 1.88971 0.532144 -0.349479 0.579268
1773 13.6225 6.34408 2.7708 -0.368385 1.39029 0.591755
2696 14.207 7.04671 2.36221 0.350423 1.35253 0.833535
2234 16.1743 7.22426 2.21986 0.0737642 1.41381 -0.818471
2163 15.07 6.51586 1.8157 1.24426 -1.53889 0.42837
3122 17.4523 6.64956 2.75153 -0.379251 -1.29945 0.385612
108 16.9428 6.79733 1.83962 0.76867 0.181315 1.77456
3386 0.0463759 8.70147 2.59366 0.57465 -0.0345614 0.461854
360 0.0350341 7.61853 2.18536 2.0884 2.46628 1.09937
3248 0.809205 8.19977 2.87649 0.570545 1.42465 0.819847
1896 0.8909 8.67092 1.89285 0.183244 -1.15892 -0.743284
2724 2.03068 7.45657 1.83377 0.853016 2.43207 0.0256087
2605 2.16614 8.76283 2.95715 0.465966 0.597083 -0.305985
2613 3.9888 7.6929 1.55824 1.17962 0.339878 0.344858
16 4.35311 8.44736 2.34659 0.814943 -1.8717 0.431714
997 3.08282 7.95183 2.27865 -1.94669 1.31825 1.12168
2056 3.11484 8.87878 2.91677 -0.480115 1.61464 0.792393
1898 3.83132 7.53403 2.89605 0.060045 -0.844084 0.869266
3591 3.57041 8.66623 1.54441 0.841938 1.26222 -0.246557
3211 5.07796 8.04101 1.74368 -1.37449 -1.87062 -0.416144
3301 5.80431 7.47998 2.35275 -0.785087 -0.805208 1.01498
418 7.35958 8.82962 1.77711 -0.55403 -1.05829 0.246898
130 8.35996 8.20418 1.79292 0.701885 -0.439969 0.253071
14 8.06477 8.44293 2.74541 -0.0970992 1.51583 -1.51341
3695 10.3105 8.77481 1.60662 -1.44277 -0.27935 -0.64103
3137 9.3084 8.75531 2.39491 0.383913 0.397484 -1.27111
1302 9.0276 7.5879 2.42598 0.408638 -1.07366 -1.67799
2391 11.0272 8.23785 2.13773 0.0739155 -0.48875 -0.312869
3596 11.8927 8.88105 1.67943 1.38236 1.47639 0.485715
2723 11.9058 7.7056 1.72313 -0.397535 0.712753 -0.578171
926 12.6081 8.84869 2.76154 0.0202298 1.21581 -1.38947
3944 13.6225 7.93024 2.40646 1.18255 1.39111 -0.355092
3470 14.5541 8.60015 2.28139 -0.42283 -0.116865 -0.726947
802 14.3055 8.0485 1.51472 0.807984 -0.290757 -1.57111
1976 15.4274 8.36924 2.66436 0.159617 -0.97071 -0.0389291
1990 15.1524 7.49032 2.20863 -0.373761 2.44048 -0.976247
1286 15.9018 8.85297 1.76126 -0.128086 0.770967 0.310118
135 17.0778 8.08729 1.61349 -0.531376 0.153692 -1.28474
2563 16.4468 8.18096 2.46962 0.595832 -0.266649 1.88116
1452 0.157926 0.641229 3.84166 1.78162 -1.01495 -1.44878
3613 1.25295 0.784625 3.315 1.61484 -1.48677 0.113712
3741 0.387541 0.0199732 3.057 0.794079 -0.135209 -0.895106
3175 1.06274 0.586828 4.38855 1.10379 0.47602 0.416394
1138 1.71399 1.39961 4.17197 0.906404 -1.53377 0.86863
331 2.90095 1.11625 4.45583 -0.83392 0.853579 -0.174815
1972 2.30808 0.391495 3.31046 -0.409589 -0.687684 -0.183696
2576 3.2777 0.364161 3.79521 -0.222331 -1.21387 2.22017
2854 4.18487 1.43702 3.67503 0.774444 -0.603823 1.28766
2394 4.19351 0.695404 4.46472 -0.754397 -0.989244 -0.0176886
2979 4.99155 0.525754 3.30498 -0.603862 0.385741 1.26968
322 5.21975 0.0124279 4.40138 0.67672 -0.635766 1.0515
3032 5.94461 0.903771 3.30228 0.540752 -0.54998 0.759447
393 5.18385 1.32869 4.31349 0.331381 -1.47035 1.09581
943 6.80196 1.13272 4.09359 -0.159026 -0.954068 -0.926251
2791 6.52496 0.193028 3.9467 -0.300402 0.148113 2.26701
1759 7.62807 0.988869 3.23177 0.0815501 -1.6365 1.04908
217 7.86859 1.32864 4.18993 -0.830821 -1.075 -1.49617
3130 8.52468 0.261336 3.71041 -0.552314 -0.0682618 -0.428828
1150 9.85915 0.0102425 3.52621 0.231682 2.14013 1.23644
57 10.3682 0.936086 3.73244 -0.937533 -1.58372 0.801095
554 9.44597 0.595114 4.44151 -0.530021 -0.609606 1.14206
1480 9.07194 1.36747 3.47427 0.877387 0.81417 -0.161864
79 11.4043 0.560676 3.89973 -0.642768 0.171892 -1.61387
677 13.1508 1.04238 3.27261 -2.53878 -0.37289 0.839663
2274 12.4215 0.0708237 3.55312 0.940727 -1.14682 0.496064
885 12.0644 1.28818 3.27404 0.677976 -1.06173 -0.29323
2422 12.4592 0.833888 4.40917 0.127396 -0.165267 -0.930496
647 13.3743 1.21739 4.249 0.603037 -1.53257 1.42071
3697 14.1603 0.940235 3.52827 0.976743 0.071066 -0.726295
1433 14.3598 0.0331844 4.15375 1.05761 0.60378 -0.867463
3321 15.5312 0.536966 4.4406 -1.80216 1.29074 -1.15693
504 16.1583 0.572116 3.26647 0.333406 -1.59705 0.00410243
3116 15.2507 0.184285 3.50447 1.02463 0.940468 -0.330516
1636 14.9569 1.31565 4.04185 0.913593 0.616478 0.0703147
851 17.2036 0.257799 3.45497 0.370237 -0.144522 -1.26073
3738 17.1514 1.25324 3.48939 -0.166296 -0.0895805 1.26874
2698 16.6951 0.69663 4.36683 -0.967769 -0.216318 -0.291906
3163 0.525735 1.94102 4.23543 -0.237109 1.18768 0.207186
3551 0.342393 1.71061 3.20045 -1.18904 -1.18655 0.819583
608 1.2594 2.12588 3.13253 0.343289 0.362112 1.57746
498 0.601769 2.84951 3.58742 0.311454 0.91869 -0.926719
950 1.63898 2.42249 4.13995 -2.33602 0.18055 0.311508
792 2.79371 1.9963 3.82746 0.0287383 0.488355 -0.48287
262 4.05124 2.29034 3.03143 -0.968022 0.540611 -0.991464
2220 3.07185 2.92548 3.32861 0.112109 0.650433 0.438674
443 3.6296 2.8369 4.38278 -0.0189602 -0.42323 0.622112
3084 5.82208 1.99612 3.69818 0.345364 0.244854 -0.893153
400 7.23217 2.9142 3.02551 0.602574 -2.41611 -1.69511
3217 6.94435 1.98239 3.44317 -0.453472 0.878471 -0.142541
1244 8.06435 2.33888 3.7768 -0.374237 -0.736457 0.846821
2750 10.4176 1.87447 3.2019 -0.994609 1.08668 -0.387049
2321 9.76894 1.95184 4.12604 1.24334 0.372694 -1.82713
166 8.99503 2.60057 3.24397 0.623091 0.138774 -0.45248
3015 9.30056 2.93576 4.24232 -0.650039 1.72777 -2.40632
2008 11.3627 2.2486 3.08561 0.254614 -1.47226 1.38232
3569 11.1091 1.73794 3.91515 0.631307 1.82849 0.573234
3930 12.0034 2.81941 3.81397 -1.01507 -0.423192 0.250037
1940 13.1038 2.60709 3.31006 -0.658824 -0.172402 0.242779
2288 12.9301 2.32067 4.42801 -1.50877 1.25231 -1.15151
697 15.7111 1.60557 3.13011 -1.34051 -0.498452 -2.61506
431 15.4604 2.45806 4.22548 -0.216762 0.34657 1.43098
1331 16.5616 2.16069 3.41153 0.571683 1.22482 0.2372
3230 17.0137 1.74384 4.40983 0.153489 -1.75083 0.209825
3974 17.4944 2.6293 3.56546 2.23836 0.0691143 -0.69549
1175 0.267118 3.84048 3.22852 1.31447 0.207296 0.0586617
3637 1.48752 3.44527 4.01914 1.42684 -0.299517 -0.0640855
2084 0.334892 4.44754 4.12966 0.642861 0.922292 0.840223
722 2.47729 3.81293 3.94202 1.26991 -1.96841 -0.879495
763 4.39879 3.20218 3.63746 -1.05115 -0.25954 -0.758184
1248 3.67452 3.91367 3.74499 0.869947 1.19119 0.335705
936 5.47879 3.20578 4.17425 -1.03535 0.299256 0.0631582
3861 5.93751 4.43925 3.86735 0.654053 -1.57667 0.519637
2972 6.28459 3.33315 3.47112 1.74689 -0.880027 0.290502
3388 7.32644 3.60412 4.18195 0.0392774 0.0314432 0.386576
1442 7.81743 4.15189 3.03176 0.595261 1.19396 -0.295021
1829 8.6125 3.76317 3.79385 1.16998 0.927009 -0.639453
2653 10.364 4.43876 3.03945 -2.33691 1.48542 1.50139
91 9.34878 4.11543 3.14663 1.19475 1.4974 0.392881
296 10.0631 3.26024 3.16276 0.384745 -0.670002 1.64189
382 10.3649 4.43714 4.26925 0.0347007 1.68029 0.13722
3515 10.8694 3.79981 3.63731 -1.1583 -0.214076 -1.42309
2784 12.4213 4.45627 3.11551 0.338138 -1.20321 -0.950387
2833 13.0734 3.62004 3.70024 -1.10881 -0.913431 -0.626863
2313 14.3184 3.65752 3.46632 1.4743 -0.609381 0.333883
3554 14.5956 3.84725 4.45346 -0.380954 -1.75892 -0.502404
1903 16.0343 3.61473 3.54445 -0.688539 0.181732 -0.263414
2765 17.0321 4.10314 3.57722 0.481983 -1.82244 -1.50161
1364 1.02063 4.923 3.33873 -0.811064 -0.0410241 0.267844
48 0.552886 5.89564 3.83725 -1.4628 0.613783 -0.374889
1306 2.77118 5.31537 4.23825 0.414329 0.582102 -2.21715
2620 2.0421 4.68575 3.43681 1.50234 -0.692612 -0.240993
547 1.52299 5.4909 4.39189 -0.246832 -0.0508079 1.23615
1035 3.34579 4.94289 3.37216 0.869204 1.25451 -1.4945
957 4.08001 4.68251 4.46193 0.913905 -2.24704 0.256668
1647 4.0217 5.73505 3.9498 1.1974 1.51382 -0.760549
2684 5.61952 4.97501 2.99808 -0.162185 1.08915 -1.39976
3992 4.78109 4.6941 3.61568 1.14826 1.08604 0.25239
3908 5.53398 5.7485 3.56854 -1.43025 -1.056 0.609769
2167 4.94929 5.34577 4.33496 -1.47341 -0.451707 0.63639
1767 7.33705 5.16095 3.043 -0.751021 -1.05949 1.19384
2155 7.187 4.5523 3.9286 0.624387 1.32311 0.48089
2837 6.50238 5.29489 3.92607 0.032577 -1.66196 -0.233018
1131 8.5518 4.9142 3.32244 -1.33399 0.258875 -0.0822465
2937 7.50855 5.61028 3.91152 0.546048 0.318672 -1.04346
3234 8.51137 4.77266 4.31249 -0.593469 1.45805 -0.176337
1840 9.47977 5.55247 3.55174 0.510121 -0.440754 -0.332703
3131 10.7029 5.40649 3.41742 -0.0235363 -0.838721 -1.11958
1539 11.9545 5.1632 3.91438 0.435016 -0.467146 -0.0251065
1989 13.0873 4.81099 3.78874 -0.913123 -1.28936 -1.31125
3836 14.5461 4.64647 3.71154 2.0366 1.91466 -1.17558
635 16.0946 5.87765 4.08161 1.69678 -0.955652 -0.26595
250 15.6126 4.75484 3.77032 0.471076 0.238568 -0.845482
177 14.9211 5.5883 3.30632 0.561559 -1.32554 0.678326
1032 17.6117 4.94044 3.07654 2.2157 -1.71929 -1.49016
3839 17.3448 5.87872 4.061 -0.674645 2.00752 -0.874113
2808 16.7776 5.03652 4.07107 0.433779 1.24555 1.13801
816 16.7405 5.63735 3.15395 -0.931425 0.191355 1.97823
3745 0.812492 6.93854 3.37808 1.40147 1.27054 -0.215062
617 2.9748 7.25632 3.8789 -0.628458 0.0140776 -1.88667
2283 2.16087 6.42695 4.08579 0.190317 -0.20265 -0.555776
3796 3.27951 6.09402 3.33838 0.636063 0.20821 1.67408
1531 4.00975 6.99404 4.19848 -0.536215 -0.309166 -0.132158
724 4.18387 6.45904 3.21464 1.0937 -0.681283 -1.10137
1282 5.10752 7.13234 3.59226 -0.515516 0.893171 -1.59373
1974 6.10869 6.74241 3.71138 0.66699 -0.704393 -1.10306
701 7.31172 6.21521 3.13869 -1.78794 0.00382305 0.622583
285 7.46518 6.62745 4.05721 -0.102493 -0.126313 -0.0269472
669 8.41587 5.98009 3.62254 -0.40967 0.147131 0.37839
3190 8.52051 7.00117 3.78432 -0.0985848 -0.512676 0.268616
666 9.51412 6.64097 3.66771 -0.542801 -0.415015 1.73398
1289 9.23036 6.01995 4.44631 1.58063 -1.21519 -0.0115233
1953 10.2455 6.04576 4.13848 -0.2218 -0.754022 -1.56413
3110 11.6902 6.10672 4.28111 -0.150545 -1.32187 -1.17466
1154 11.5302 7.16889 3.89044 -0.650709 1.37574 -1.28082
696 10.7731 6.4525 3.29316 0.444956 1.01131 -1.44992
1409 13.0289 6.17892 3.82735 -1.3416 -0.484898 1.86397
125 14.0954 6.3695 3.81788 1.29959 1.07451 -2.44746
1199 14.1677 7.33945 4.33829 1.1494 0.225534 -1.15583
3109 15.9059 7.19323 4.24334 -0.38012 -2.48147 -0.0928607
3655 14.9202 6.71381 3.18873 0.778516 2.76027 0.906217
2867 16.2051 6.70752 3.19285 0.509399 -0.552173 1.48609
3582 17.1536 7.0123 3.75514 -1.4783 -0.987085 -0.174869
919 0.549436 8.47662 4.00803 0.543928 0.864356 0.967748
3651 1.37896 7.77067 4.24246 1.70072 1.801 1.03294
1231 0.111791 7.5556 4.03417 -0.840098 0.638367 -0.678132
377 1.99016 7.48923 2.98766 -0.326962 -0.473403 -0.336871
1951 2.34078 8.11571 3.82446 0.596376 -0.0649055 -2.37964
253 2.67587 8.83505 4.46624 -0.780315 -0.421955 1.50085
3744 3.57075 8.19056 4.13702 -0.369145 -1.2349 -1.15066
210 3.94445 8.8586 3.40602 -1.72683 -0.700631 0.958133
3166 4.63295 7.99904 4.07799 1.66037 1.78923 -0.0775812
175 5.14867 8.05825 3.12579 -0.0833026 0.213067 0.427248
1885 5.77557 8.46558 3.9981 1.21564 0.357845 -1.00384
307 6.71868 8.1312 3.19611 1.55706 1.07207 -0.4394
3237 6.98201 7.68928 4.10991 0.184259 0.883193 0.070836
2411 6.88545 8.8078 4.15465 -0.452459 -0.502192 0.440164
2291 8.86937 8.28113 3.54614 -0.0819975 -0.952606 -0.411326
358 7.82349 8.44443 3.71202 -2.12002 2.12651 -1.22752
3147 10.0743 8.61272 3.02996 -0.712398 0.195971 -0.0903648
425 9.52898 7.67435 4.07365 0.507237 1.23864 -1.75902
648 9.54341 8.88923 4.04884 0.245864 0.947655 -0.266508
2033 10.9676 8.88628 3.57968 0.129165 -0.961252 -0.506933
817 10.8544 7.59132 3.26834 -2.57935 0.467919 -0.48309
2766 10.7078 8.07736 4.09113 -1.05983 1.10048 0.193576
126 12.0276 8.03789 3.29032 1.0048 0.0675947 -0.995163
2928 13.2329 7.75383 3.52794 0.342833 0.34548 0.599496
2929 12.0218 8.69962 4.41532 -0.784671 1.80941 -0.572966
1799 12.6771 7.63916 4.45907 0.0834998 0.439105 0.872493
1631 14.3817 7.68575 3.27049 0.466373 -1.42864 0.0749237
3153 13.8989 8.73532 3.15111 -0.972702 0.758823 0.303984
1260 14.6338 8.75687 3.81919 -0.48172 -1.27025 0.0903024
2898 15.5947 7.50026 3.33906 0.908806 0.625992 -0.774018
2908 15.093 7.8481 4.19437 -1.49727 0.558967 0.599864
609 15.8025 8.92869 3.76543 0.662923 1.1685 -0.552355
2544 17.3076 8.47506 4.02729 1.2607 1.82828 -0.42123
2843 17.5036 7.80703 3.13328 -1.76583 0.927144 0.277388
3169 16.5385 7.88148 3.58228 -0.853143 -1.21957 -0.393955
1914 0.808362 0.21568 5.33718 -0.72636 -0.407799 0.998423
1448 0.195682 0.996334 4.9972 0.406361 0.7016 0.936702
43 2.36243 0.253794 4.50656 0.0684601 -1.81881 1.26703
2840 2.95368 0.684139 5.56696 -0.479877 1.18861 -0.768894
2818 1.98277 1.07547 5.16966 0.0256704 0.509647 -0.0806102
2587 1.84491 0.15603 5.72247 0.285402 2.98022 1.06458
2838 4.27429 0.0727243 5.53754 0.000558215 -0.561626 -0.016372
1362 5.02914 0.670756 5.27473 -0.62196 0.715916 -1.29169
3628 6.04017 0.727201 4.71613 -1.73886 0.642154 1.16513
578 6.90235 0.497326 5.33689 -0.47097 -0.838406 2.2549
1492 8.81127 1.40477 4.75977 -0.445714 -0.787551 1.67299
54 8.24407 0.396198 4.98296 0.136163 -0.586002 0.952005