ITEM: TIMESTEP
54000
ITEM: NUMBER OF ATOMS
4000
ITEM: BOX BOUNDS pp pp pp
0.0000000000000000e+00 1.7878070701931353e+01
0.0000000000000000e+00 1.7878070701931353e+01
0.0000000000000000e+00 1.7878070701931353e+01
ITEM: ATOMS id x y z vx vy vz
631 0.0264669 0.979075 0.743657 -0.427966 0.507619 -0.00518369
3855 0.633577 0.0923341 1.2524 2.29172 -0.947138 1.84787
1020 0.160441 0.0605936 0.247084 -1.26373 1.13586 1.52039
2884 1.58303 0.0728978 0.237735 0.831645 -1.49334 1.31016
3843 2.07712 0.754588 1.19314 0.179454 -0.258835 -0.5751
3419 2.18026 1.14868 0.144379 -0.810045 -0.287474 -0.4317
1319 3.05331 1.1875 1.00416 -0.471954 1.07216 0.488324
2407 4.18049 0.730936 1.33444 -0.201551 0.230918 0.249986
1055 3.87081 0.901773 0.316786 0.68441 0.00561929 -0.363396
2160 4.75688 1.41103 0.423068 0.662526 -0.0594119 0.447198
1038 5.36779 0.590108 0.268227 0.720116 0.867586 -0.48627
1739 5.19584 0.665089 1.33912 2.0502 0.698961 1.33183
2061 7.11752 0.988485 1.41287 -0.0902615 0.493476 0.742008
1963 6.91939 0.194397 0.53969 0.372193 -0.768915 -0.76257
1326 7.24243 1.2283 0.143707 -0.63127 0.206407 0.214099
3851 8.2178 1.3762 1.3433 0.251804 0.376189 0.291398
1244 8.3476 1.06499 0.305889 0.804917 0.0946975 -0.297334
1318 8.036 0.186257 1.10726 0.187039 0.346578 0.333139
2293 8.23713 0.0197659 0.121902 -0.458084 -0.307379 -0.928174
3217 10.3611 0.0638599 0.217286 1.91052 1.08619 0.417845
2820 9.23722 0.488555 0.709823 -1.01608 0.296415 -2.19049
2055 11.1245 0.730357 0.102007 0.128745 0.633191 -0.0266699
1207 11.0103 0.605359 1.31834 -0.307279 -0.690503 -0.203265
2305 12.2408 0.899378 0.663123 0.225841 0.585305 0.555105
3264 13.3435 0.810507 1.08992 -0.979028 -1.6315 0.894535
1152 12.6514 0.117951 1.38728 -0.236576 -0.428534 1.04562
75 13.811 0.802105 0.143118 -0.508699 -1.66469 -1.01602
3086 14.6149 1.41424 0.184277 0.519899 1.85469 1.53778
2775 14.3561 0.0557993 0.623577 0.772555 1.92057 -1.37679
290 15.5582 0.201235 1.37177 0.902536 -1.06108 0.335118
3143 15.473 1.41579 1.16625 0.703795 0.269226 0.16369
2194 17.0343 0.17248 0.701534 0.854549 -0.263483 -0.126528
2861 16.4035 0.955661 1.35174 1.08011 -1.013 0.713521
1445 0.676414 2.4008 1.003 -0.59884 -0.883038 1.05327
3745 2.22573 2.89692 1.08137 0.295818 -0.209158 -1.15985
360 2.82584 2.13728 0.601015 -1.78482 1.80073 -2.14462
3777 1.77038 1.7388 1.09937 1.46532 -0.0736837 -0.680626
2873 4.04948 2.19683 0.572371 2.12401 -0.030496 -1.19357
1941 4.64119 2.94189 1.18551 -0.749807 -0.65109 -0.911164
724 5.86939 2.61738 0.942581 1.93034 0.798973 1.84335
319 5.05442 2.5321 0.253474 1.10128 0.392003 -2.03583
1639 6.25064 1.52678 0.0910603 -1.48247 0.808226 -0.917724
387 6.83471 2.33664 0.064565 0.841073 0.941896 -2.00139
1920 6.12689 1.5743 1.10101 0.287131 0.352031 -0.347753
278 8.54068 2.34714 0.742524 -0.363813 -0.805867 -0.677889
501 7.56925 2.01442 0.893193 -0.583236 -0.988301 -0.579675
2008 9.55763 2.90889 0.311073 -0.42298 -0.708385 0.444307
1162 10.2981 2.49586 1.06723 -2.08641 1.20016 1.11455
3648 9.17152 1.57782 0.589133 0.443712 0.14224 0.128304
2532 9.33873 2.82285 1.44636 -0.562764 -1.36156 -0.822205
2285 10.634 2.4475 0.0674007 -0.875322 -1.81292 0.0575185
1394 11.4085 1.72182 0.808523 0.0975868 1.48827 0.695561
504 12.4865 1.96804 0.755868 0.853048 -1.11275 -2.18593
3169 13.3332 2.56555 1.2546 -0.448855 -1.27691 -1.08308
71 13.5502 1.82018 0.473616 1.795 -0.00730052 -1.10614
586 14.3958 2.65421 0.296372 -1.4579 0.799196 0.79284
3132 15.493 2.46479 1.48149 0.743405 0.873722 0.987183
3109 15.5468 1.98504 0.118381 1.23745 0.861741 0.239046
3884 16.253 2.78445 0.321237 -1.0626 0.944076 1.21366
1011 17.1641 2.08286 0.368794 3.04028 -0.348403 0.335374
2709 17.5016 2.81988 1.02549 0.305017 -0.673856 0.427022
2572 16.5091 2.74318 1.4422 -1.92639 0.196477 -1.1672
229 17.3542 1.78162 1.29676 0.407281 -0.025695 -1.14821
790 0.395247 3.61526 0.711593 0.233521 0.583737 -0.653195
2683 1.35614 3.19497 0.587994 0.869736 0.827737 1.88735
2069 1.77607 3.90574 1.16518 -1.39872 0.707125 -0.950663
3842 2.81311 3.01721 0.168204 0.615866 0.370211 0.438036
2132 3.23941 3.79328 1.25958 0.630369 1.04823 -1.44915
804 3.94867 3.33711 0.383283 -0.0241223 0.740842 0.866637
1248 5.56022 3.64453 1.17432 -0.194489 0.450647 -0.783294
312 5.16349 4.45859 0.00507443 -1.7115 1.85762 -0.870668
437 6.57359 3.7817 1.45007 -0.288093 -0.809287 -0.05493
738 6.10327 4.25045 0.388538 -0.212665 -0.084758 0.116398
3211 8.60016 3.5833 0.83585 -0.0526304 -0.154856 -0.422632
2441 7.86234 3.11485 1.32277 -0.389279 1.21729 -1.09795
1374 7.48912 3.76033 0.476739 -0.707493 -0.0412179 -1.64388
1994 9.99237 3.62711 1.01649 2.85804 -1.35984 0.430389
2452 11.7212 4.09842 0.47156 -0.566107 -1.27496 -1.0322
1513 11.0859 3.10568 0.924838 0.815979 -0.191521 0.621133
349 12.486 3.16174 0.871807 2.24652 -1.77849 -1.60711
969 13.0926 3.91998 1.20495 1.03014 -0.0604034 0.411469
174 14.0787 3.42642 1.06773 0.343269 1.67993 -0.603005
2634 13.5934 4.02268 0.397136 0.774372 1.11838 0.210029
718 15.2611 3.36793 0.616463 -0.198338 0.456104 -1.13394
2563 16.358 3.67783 1.00134 0.247147 -0.96578 0.717739
1754 14.9303 4.21149 1.16019 0.809875 -2.22406 0.229066
3944 17.3023 4.06028 0.821148 0.440341 0.0491498 -0.0582307
851 17.3244 3.1878 0.0505099 0.293626 2.25989 -2.51598
715 0.467173 5.51841 0.631723 -2.63987 -0.498155 -0.459673
2724 1.84142 5.04265 1.12979 -1.64318 0.142623 2.12391
908 2.6087 5.0236 0.345546 -0.0368329 0.626624 0.898094
3767 4.09121 4.47226 0.50939 -1.10369 -0.383376 0.58708
673 3.51559 5.3228 0.687398 0.219173 -0.879463 1.64329
55 4.28194 5.63725 1.43386 -0.340886 -0.045946 -1.4125
3402 5.03632 5.94256 0.72787 -0.730501 0.215199 -0.141662
3258 4.89118 4.91102 0.950698 -1.85758 0.650955 1.58989
3618 4.55102 5.36004 0.0314321 -0.0410926 -0.0944385 0.641016
1801 6.22978 5.72729 0.968534 -0.0309109 1.08363 0.866243
395 6.97347 4.6834 0.951109 0.146491 -0.606779 -2.07426
2926 7.69345 5.31648 0.52485 -0.332843 0.847712 0.749349
3876 8.5718 4.65869 0.837804 -1.00017 0.127508 1.0794
1949 8.86924 5.34438 1.44048 1.40835 -1.91984 0.54972
3439 9.71413 4.67935 0.879028 0.669603 2.10418 -0.797912
564 11.266 5.29352 0.61998 -1.53018 -0.638268 -0.117595
1442 10.6929 4.55598 0.643815 -2.29163 0.569677 1.0066
1659 13.0374 5.03565 0.701172 0.844454 -0.437157 1.21074
1698 12.3027 4.79736 0.0297296 0.159399 -1.11109 -2.89156
1555 12.2306 5.78945 0.469595 -0.447195 -0.122198 0.729519
2833 13.1048 5.88413 1.21513 0.426418 -0.545841 1.15332
1023 14.7875 4.64437 0.0111346 0.0271638 -1.91193 -1.22229
2756 14.0214 5.06503 0.614881 1.91686 -0.706121 -0.0597489
3787 16.2843 5.41231 0.970105 0.00657788 1.57032 1.70243
816 15.9133 4.59854 0.428514 2.18333 -0.877928 -0.390096
1875 15.2655 5.42605 0.449638 0.898192 -0.281276 -0.0807706
1573 17.8398 4.48733 0.0895232 0.184532 -1.0622 -0.16079
441 17.8343 4.72506 1.42363 -1.42696 1.6261 1.25809
802 16.8471 4.7275 1.38372 0.616055 -2.22026 -0.732766
2804 17.2742 5.22754 0.353009 -0.0408537 3.06781 -0.529161
1671 1.09575 5.96454 1.45031 -0.566145 -0.791842 0.144959
3940 1.28904 6.7945 0.48791 -1.01278 0.598995 -1.00614
8 0.385932 7.42497 0.534888 -1.37444 -0.719583 0.0165404
784 0.604203 6.88092 1.35264 -1.54561 0.903883 -0.992446
1905 2.29989 6.03362 0.574345 0.0657985 0.394706 -1.19298
2577 1.94273 6.75164 1.22784 -1.18056 1.20288 -1.23654
3482 3.28512 6.33388 0.860313 -0.635849 0.139788 0.0316475
1923 4.12882 6.56583 0.217526 1.04217 -0.860449 0.260381
3400 4.9278 7.21416 0.987154 0.292491 -0.640874 -1.32063
2539 6.17372 6.74494 0.897396 -0.0217552 -0.870908 1.53734
508 8.31028 7.04371 0.978085 0.265281 0.629928 -0.141345
296 8.75532 6.08504 0.230829 -0.52466 -0.863725 -0.175322
3686 8.09283 6.10473 1.13775 -0.0082537 -0.325203 0.422603
1588 9.5338 6.39856 0.861483 -0.809533 1.30763 -0.140166
701 9.78198 7.15113 1.45998 0.515681 -1.04863 0.309842
3580 10.5078 6.06462 0.405969 -1.2059 -0.146924 -1.94697
1414 11.1877 6.52965 1.07489 -1.09698 -0.968285 1.51332
914 10.5018 7.16399 0.485899 -0.51845 0.261512 -0.715432
1814 12.2631 6.7881 1.2807 -0.0550243 0.746896 -0.527226
410 13.3552 6.94605 0.858001 -1.65952 -0.921326 -0.305818
1314 12.0269 7.07655 0.34149 0.520374 -0.840978 0.36405
513 14.1764 6.22339 0.983548 0.246642 -1.07499 0.835498
247 14.8186 7.24236 0.348911 -0.127329 -1.55212 0.232418
1758 15.3653 6.46693 0.805275 2.40114 1.09943 1.2651
3721 16.6139 6.59078 1.27595 0.494137 0.325284 0.860845
3156 16.7423 6.17025 0.311714 -0.968124 -0.522597 -1.5014
3444 17.7045 6.28641 1.2519 -0.578028 0.316674 -0.569584
2141 0.994229 8.69407 1.27964 1.16594 -1.45559 0.924116
3539 1.57726 7.74865 1.06034 -0.622571 -0.715469 0.805447
2622 2.19471 8.57832 0.668584 1.82793 1.8948 -0.248752
140 2.80725 7.4858 0.970179 -1.42227 0.325709 -1.17759
852 2.79772 8.15223 0.0154481 0.539904 0.000338643 -1.04807
1856 4.39755 7.64061 0.12204 0.754836 -0.868859 -0.434659
3224 4.16842 8.60038 0.330018 -1.85382 -0.18057 0.183758
1607 5.03032 8.60891 0.995935 0.648747 0.122634 1.36801
1395 5.565 8.36871 0.00320478 1.62406 -0.624489 0.716488
1786 6.35487 7.92482 0.531999 0.444337 -0.604981 1.56062
3096 7.66915 7.92178 0.999379 -0.0618094 -0.631531 -0.812551
3371 8.55096 7.75698 0.125175 1.29586 0.14114 -1.38507
1713 8.23466 8.90172 0.382985 0.195604 0.772661 0.712674
2966 9.97968 8.41447 1.35279 -0.941752 0.131816 -0.702876
2068 8.99485 8.59275 1.19615 1.12454 2.388 1.38645
1535 9.65593 7.9308 0.370187 -1.36415 1.14998 1.2157
1871 11.5369 8.05787 0.509205 0.870501 -1.01398 0.549999
2902 10.5756 8.60901 0.333307 0.216575 -1.08993 1.00953
3656 10.9812 8.61894 1.35019 -2.32145 0.576282 0.858948
3852 11.9515 7.82688 1.48769 0.365389 0.754943 -1.77291
250 12.9638 8.04412 1.25828 0.287474 -1.16624 0.284003
2114 12.7049 7.84622 0.26183 0.0522498 -0.237551 0.292715
3579 13.7917 7.73644 0.137041 1.04737 -1.33326 -1.55888
3383 13.9817 8.70936 0.799947 -0.498329 0.0637819 0.576053
733 14.5601 7.83136 1.21691 -1.05557 0.848883 1.99757
1016 15.1548 8.13332 0.453418 -1.0763 0.4967 -0.976741
1689 16.2922 7.49034 0.284059 -0.376568 0.338831 -0.465151
1990 15.8468 8.74781 0.825064 1.97798 0.657458 2.06698
2161 15.9244 7.53477 1.22599 -0.915038 -1.02153 1.28607
295 17.8223 8.28482 0.925461 2.81771 1.28953 0.0787842
1474 16.6117 8.45834 0.151057 0.554409 -0.40936 -0.126056
110 0.0534788 0.827688 2.88585 0.39419 -0.222894 -1.15286
773 1.33538 0.589987 2.07741 -2.68301 -0.0856389 0.226424
1859 2.96525 0.769991 2.88729 -0.0654621 -0.186586 -0.05721
951 2.35224 0.290624 2.07424 0.164533 3.80927 -1.58081
2482 3.36107 0.841725 1.88383 -0.485928 -0.315382 1.32531
1969 4.42641 1.18882 2.25877 0.744559 -0.964064 1.25763
2321 5.06589 0.0357259 2.42644 1.42931 1.52783 1.42307
1172 6.06469 0.118331 2.07638 0.421315 0.518506 0.388686
1634 6.98263 0.683154 2.44064 -1.14296 -1.11079 -1.05814
492 6.05192 1.24244 2.35131 1.63747 -0.131734 -1.56594
2716 8.82951 0.577962 1.74148 -0.349193 0.277641 0.130137
3471 8.04978 0.354594 2.42007 0.525902 -0.534396 -0.84636
42 8.66859 1.43833 2.30908 1.18344 -0.343002 0.633113
2288 9.91149 0.526103 2.26644 0.403785 -1.90262 1.11353
1487 10.5837 1.20661 2.95799 0.781851 -1.48846 0.196683
3875 11.785 1.32243 2.85298 1.40278 -1.54771 0.0832653
1722 11.9274 0.898348 1.77389 1.19764 -0.00946513 -0.627355
2200 12.8281 0.612913 2.46992 0.235212 0.305185 0.297187
79 13.8033 1.10291 2.2137 1.23268 0.096815 -1.36413
2086 14.5475 0.238451 1.86899 -0.653507 -0.0807499 -1.14714
1432 15.9174 0.824463 2.42253 -0.600897 0.0206575 1.12048
2630 17.3252 1.0724 2.1137 1.38458 0.661313 -1.45877
2154 16.8684 0.544943 2.81849 -0.530403 0.210581 0.11503
248 17.4928 0.064831 1.96249 -0.61968 -1.09726 0.582855
1065 0.775936 1.51024 1.50854 1.46334 -0.631524 -0.977186
1081 0.902027 2.46289 2.5951 0.263349 -1.473 0.810237
39 0.11082 2.09253 2.07057 -0.871855 0.125181 -0.895649
1221 1.92033 1.53091 2.26735 2.51867 0.394966 1.37338
3664 2.77618 1.84632 1.78069 -0.0573878 0.460995 -1.2241
1531 2.14915 2.57579 2.44044 1.30581 -1.31416 0.510038
3720 3.94536 1.74879 1.59652 -1.31466 -0.370224 -0.573122
1157 4.02817 2.76024 2.06573 0.168171 0.960797 -0.0875473
3329 3.48593 1.77874 2.60798 -1.80584 -2.40213 -0.937105
1470 5.59432 2.19498 2.9614 0.362146 1.81952 0.868587
1657 5.05392 1.96088 1.62389 -0.203593 -0.430649 1.86384
3083 4.74069 2.88302 2.95196 1.39058 0.0568663 0.256498
2597 7.03338 2.73531 1.49949 -0.766162 -0.884527 -1.34144
1776 7.14671 1.65746 2.27891 -1.13472 0.393612 0.249901
732 6.25253 2.16663 1.91104 -0.0927432 0.814697 -1.10249
1666 7.91055 2.2439 1.91974 -0.240794 0.160989 -2.35259
3578 9.76396 1.58163 1.87975 0.359513 0.21467 0.34925
1035 9.49363 2.52608 2.72323 -0.621484 -1.9108 -0.410578
1773 11.3664 2.62936 2.6131 0.114005 0.661336 0.771208
274 11.2178 1.71385 2.0988 -0.348742 0.359232 -0.455292
861 10.4678 2.43027 2.17647 -0.586473 -1.12071 -0.352682
266 12.869 1.75563 1.79621 1.15066 -1.29516 -0.469843
1329 12.0168 2.36319 1.79953 -0.772687 0.813557 0.780826
3330 13.9634 2.16556 2.42035 -0.183248 0.740276 0.656003
414 14.7066 1.68657 1.85597 0.435561 -0.58992 -2.11848
392 16.0715 1.90851 2.09769 0.158612 0.818408 -1.31548
3739 15.1391 2.34689 2.60939 0.924227 -1.05078 0.309467
2366 16.8497 2.63027 2.43559 -0.813149 -1.03528 -0.650812
3166 0.239462 3.41863 1.70009 1.49396 -0.580059 -2.29965
1760 0.828597 4.38885 2.06672 0.515004 -0.448411 0.343435
2605 0.513412 3.38569 2.90741 -0.377136 -1.56306 1.8044
1175 1.35579 3.55793 2.20943 0.388142 -1.05823 1.10473
2935 2.62528 3.99664 2.7803 0.80522 0.835142 0.322849
857 3.46311 3.70478 2.21165 0.753419 -0.912798 -0.297918
2746 5.59499 3.04629 1.95427 -1.75871 -0.437462 -0.159554
3366 4.85508 3.9628 2.81608 1.04005 -0.680967 0.922856
3607 5.95725 3.94856 2.42678 1.54047 -1.43007 -0.43815
2283 4.51616 3.89844 1.75221 -0.992784 -2.37833 1.17232
1312 6.34558 3.00425 2.75681 0.875739 0.545486 -0.0939974
1406 7.07573 3.65348 2.34061 0.1963 1.08209 1.38363
7 7.52259 4.27908 1.74898 -0.221468 -0.395996 0.649111
425 8.8565 4.26443 1.72505 0.909437 1.22313 0.519741
91 8.59634 3.44691 2.69437 -1.28243 0.452073 -2.8587
2423 10.3167 4.37987 1.67613 0.0663733 -0.962683 0.364888
2289 9.61932 3.56794 2.12303 0.715148 -0.692908 -0.916334
834 10.9851 3.44663 2.15072 0.0558416 0.196573 -1.57854
3982 11.8776 3.74803 1.77219 1.26852 0.501843 0.0466014
34 10.4417 3.10182 2.95757 -0.633868 -0.245017 0.0674007
1725 12.8393 4.21075 2.22452 -3.05584 1.6342 0.641195
2657 13.1914 3.18888 2.11729 0.142136 -0.275949 -0.939264
2111 12.2584 3.23877 2.89944 0.994965 -0.167752 0.48376
2640 14.633 3.07598 2.01357 1.0476 -1.04936 0.983583
1199 13.9094 3.90207 1.99343 0.400356 -0.577533 0.284653
2314 15.9568 3.48351 2.01109 -0.468971 0.102345 1.20159
1452 17.0608 3.61495 1.90671 -0.460952 -0.132564 0.0814867
2143 17.5136 4.44187 2.33024 0.467344 -0.911031 -2.22329
210 0.269753 5.30839 2.22 -1.54029 0.277392 -1.41098
13 1.49545 5.33623 2.60939 -0.706731 1.1762 1.19041
1266 2.15528 4.66818 2.01038 0.390047 -0.738002 1.25555
3093 2.53769 5.25766 2.92465 0.714444 0.475621 -0.466575
2710 3.1966 5.47818 1.76051 -1.35796 0.713842 -1.55168
2613 4.34581 5.7849 2.5235 0.331314 -1.6174 -0.310729
1647 4.06557 4.83964 2.14794 0.0430041 -1.24343 -0.592427
2937 5.46987 5.71964 1.60693 0.399039 -1.59524 0.310983
2179 5.95089 4.6767 1.53971 1.36501 -0.127951 0.850511
881 5.03483 4.92435 2.27286 1.1868 -1.17448 0.100654
3374 7.01038 4.77833 2.41285 -1.26749 0.331275 -1.34361
3611 7.20107 5.65814 1.99436 1.13792 -0.420183 -0.688108
1642 6.23162 5.53133 2.46864 -1.26469 -0.654426 -0.0525512
2291 8.09767 5.24676 2.15023 0.570082 0.602309 -0.410079
180 9.80122 5.76449 1.63597 0.767402 1.74161 -0.414085
2801 10.2484 5.38639 2.50618 0.946248 1.3832 -0.375891
3385 11.6194 4.77048 1.65869 1.48219 -1.07457 -0.334616
429 10.8754 5.5442 1.71124 -0.140452 0.214185 -1.8533
760 11.9233 5.70908 1.505 -1.0177 -0.739743 -0.504824
1539 12.6547 5.2549 2.40853 0.0187821 0.153725 0.596811
3122 13.8506 4.8435 1.78194 -0.75894 -0.93841 1.44231
1799 13.5961 4.75063 2.84487 1.25366 -1.53114 -0.0333945
879 13.7486 5.84405 2.12306 -0.161649 0.186854 -1.07657
1217 14.8655 5.48868 1.96522 -1.19961 0.505108 1.09972
1631 14.732 4.52717 2.61269 0.182044 0.848581 -0.75586
1004 15.8325 5.01544 1.92852 -0.35679 0.167101 0.634334
2614 15.4347 5.64369 2.97072 0.385622 0.511756 0.762647
2137 17.0891 5.70081 1.81298 -0.230165 0.152012 0.831485
2659 16.4208 5.60511 2.5959 0.0250393 1.809 -0.0630993
2751 1.23492 6.69273 2.33857 -1.28148 -0.558586 -0.214611
546 0.357769 6.90683 2.82885 0.426027 1.1052 -0.262148
2056 2.90737 6.80739 1.73494 1.36214 -0.428414 -0.19316
929 2.11118 7.44853 2.20764 0.283819 -1.07546 0.902432
1983 2.15777 5.98048 1.96865 1.177 -1.40968 -0.62853
3967 3.93561 6.61222 1.61452 0.184052 -1.07133 -2.1918
903 4.15168 6.92917 2.79124 -0.951892 -0.37928 -0.468366
2758 2.98205 7.35732 2.92004 0.452234 -0.0267541 -1.23918
1898 3.29419 6.29657 2.5798 -0.116371 1.37375 0.033756
730 5.65795 7.21674 2.2596 1.05257 1.30782 1.62124
14 5.26853 6.2972 2.91622 0.224061 -0.686418 0.84604
3 4.82386 6.59661 2.0567 1.05916 1.96025 -0.291062
238 6.65371 6.31255 2.84263 0.416802 -0.419945 -0.0713122
1743 6.49801 6.37468 1.7944 -2.40923 1.00294 0.413466
2109 6.76105 7.34385 2.64883 -2.14772 -1.38759 0.163708
1251 8.92274 6.13977 2.04344 -0.398729 -0.264596 -1.58224
1298 8.40077 7.08647 2.16286 -1.72019 0.82032 1.92651
2183 8.06453 6.24905 2.6799 1.32472 -0.586135 -0.405798
2813 7.54206 6.7448 1.76576 -0.499026 -0.508194 -0.85524
3301 9.05755 6.9142 2.97201 1.21631 1.33085 1.99106
1426 10.2612 6.69481 2.27935 0.326396 0.108127 0.68937
1131 11.4867 6.68471 2.23145 -0.656239 1.19742 -0.0820865
466 12.8054 6.42731 2.06078 0.354967 1.52204 -1.36552
707 12.3872 6.63925 2.97635 -0.545062 -1.4205 -1.34463
1154 13.9677 7.00529 2.02442 0.636876 -0.851891 0.384467
1409 14.8421 6.41162 2.52534 0.64449 -0.12158 -1.72052
2163 15.8531 6.57622 1.96561 0.698356 -1.2201 -0.789618
742 16.291 6.93045 2.95027 -0.235219 1.46814 0.241207
3833 14.9884 7.43385 2.24992 -0.472739 -0.893336 -2.00973
1567 17.1432 6.66903 2.42141 -0.500657 0.885355 0.0294375
3336 0.421591 8.18153 2.52645 -0.285473 0.146399 -1.69378
1872 2.70833 8.31615 2.56454 -0.180682 -0.408469 -1.45247
1544 2.78012 8.49684 1.55626 0.85487 -0.335211 2.62792
2230 1.658 8.46283 2.16858 0.352174 -0.710334 -0.690093
2943 3.49033 7.7129 2.04261 0.11455 0.764975 -1.12455
127 4.58412 7.8938 2.22498 -0.116138 0.627919 -0.511458
2764 5.74153 8.06437 2.8646 -0.122073 0.564879 -0.830145
708 6.02479 8.71076 1.55956 -0.425718 -0.519803 -1.27693
1802 6.39096 7.47224 1.5215 -0.724434 0.666901 0.159803
1575 7.11221 8.25051 2.14544 0.620774 -1.54631 -1.33696
3294 6.59541 8.77632 2.80535 1.04909 -0.110548 0.152377
671 8.20048 8.25257 1.94107 2.24583 0.161211 1.50118
2247 9.30168 7.70035 2.26152 0.170898 0.956848 1.12317
1302 10.2364 8.56285 2.30873 -0.964906 -0.149461 -0.497453
581 9.24073 8.8267 2.44568 1.16022 0.690044 0.762702
2890 10.7395 7.60471 1.64381 -0.529289 -1.6667 0.0541886
3716 11.7008 8.65382 2.46353 1.468 -0.654934 0.877078
750 10.8768 7.88983 2.72616 0.60682 -0.988502 -0.398363
1989 12.9471 7.52266 2.41574 -0.803672 -0.790735 0.944578
3183 12.8784 8.68973 2.81261 0.62911 -0.327315 -1.28015
3110 11.985 7.55518 2.78906 0.641212 -0.176287 -0.120346
3470 12.2818 8.72255 1.65406 -0.624325 -0.0393958 0.389209
2856 13.5071 8.71223 1.84925 -1.14563 -1.21935 1.7699
45 14.4796 8.77697 2.12874 -1.36465 1.58468 1.22336
2766 14.0829 7.9735 2.51796 -0.18083 0.803934 -1.01606
665 15.767 7.87715 2.77784 0.0109941 1.18443 -1.32805
3991 15.5029 8.36048 1.8948 0.0507658 0.273858 -1.13448
694 16.8914 8.04116 2.68802 0.760732 -0.650068 -0.00146367
1926 17.6263 7.50077 1.8598 -0.81284 0.129189 0.867869
329 17.5912 8.8899 2.10481 -0.133491 1.15846 -2.04433
1286 16.6998 8.2229 1.63096 0.793474 0.0694568 -0.723325
2313 0.385251 0.0131082 3.64999 -0.491334 1.20774 -0.195721
1448 0.0363024 1.01565 4.39057 -1.55133 0.871126 -1.29981
2620 2.44897 0.349083 4.16669 -0.689255 -0.691912 -0.0819571
2155 3.31593 1.1612 3.77317 0.22249 -0.11041 0.681105
763 3.95381 0.269246 4.28941 -0.812335 -1.97602 0.122538
371 4.3122 0.496737 3.26456 0.251621 -1.25936 -1.95962
1964 5.56052 0.278891 3.59503 0.784851 -0.463439 0.0249764
1022 4.70308 1.2577 4.08292 -1.08565 -2.06933 -0.918595
1032 5.13505 1.25319 3.13475 0.384265 0.737155 -0.731439
2972 7.26205 0.146792 3.23115 0.0101042 -1.3624 -0.633279
1049 6.40828 1.03587 3.42724 0.223452 -1.11105 0.0971216
3131 8.85844 0.739764 4.20785 -1.26604 1.53449 -0.0487151
1150 7.66095 0.882878 4.03547 -0.590591 -0.89272 0.438641
810 7.51973 1.48268 3.17108 0.0618328 -0.65628 -1.31967
2122 9.0192 0.482451 3.00846 0.16771 -1.67513 -0.495112
3042 9.46688 1.38711 2.99626 0.850621 0.810925 1.43668
2028 9.89393 0.683432 3.80107 -2.21285 2.47648 1.09192
2466 10.8832 0.247919 4.09792 -1.5998 -0.243116 2.58535
554 11.422 1.43713 4.30292 0.406812 -2.46043 0.193177
2993 12.6203 1.21703 3.47238 1.32675 -0.994046 0.386644
1956 12.0172 0.558151 4.3403 -0.792361 -0.533315 -0.672545
1669 13.1754 0.599313 4.05411 0.759435 1.4278 -0.910702
656 14.4017 1.36992 3.14805 -0.129908 0.922698 0.00595889
3129 14.8165 0.391337 3.25116 0.426421 -0.599894 0.900302
3575 13.9745 1.36236 4.31735 0.211555 -0.463959 0.58527
1816 16.0604 0.709423 3.5283 -1.09062 -0.798224 -0.816779
2084 15.2519 1.44082 3.97257 2.05036 0.583292 -1.0281
3613 15.6585 0.166877 4.36515 1.09998 -1.39803 -0.700077
957 17.0483 0.779151 4.04424 0.0248086 -0.699362 0.0161864
3300 1.14634 1.72363 3.44167 0.687568 -1.52606 0.0610771
2243 1.23592 2.89514 3.5824 -0.119745 -0.180737 0.546162
1658 0.936043 1.62231 4.45891 -0.0619727 -1.49072 -1.22138
2159 2.89561 2.03193 4.36773 -1.36978 0.281128 1.50161
1517 2.40511 2.88933 4.00065 0.833572 -1.11855 -0.259294
1364 2.34315 1.57389 3.37663 0.218302 0.477285 0.48895
363 4.39852 2.0247 3.33172 -0.104833 2.36739 -0.61016
3571 3.71873 2.65838 4.05054 -1.00757 0.821196 -0.260344
2495 5.85066 1.77782 4.01135 -0.188278 0.516655 0.298332
1840 5.65006 2.83333 3.83158 -0.169937 -0.619784 1.26146
1200 7.28529 2.42043 3.93225 0.208107 0.105014 0.463118
2816 8.59647 1.49566 3.41432 -0.00499401 0.84356 -0.29536
2027 7.59845 2.86509 3.00664 1.59676 0.41082 -0.464739
3937 10.2319 2.2073 3.37198 -1.3386 0.0261683 0.980891
3882 9.6547 1.75496 4.05213 0.845547 0.49899 -1.40038
1829 9.88954 2.88921 4.09631 1.27984 -0.758506 0.952989
876 10.5893 2.0349 4.4138 -0.496033 -1.65819 0.346045
669 11.1598 2.57409 3.79915 -0.460961 2.6442 0.0812297
703 12.2686 2.27201 3.24591 0.66207 -0.233626 -0.570336
3194 12.1425 2.50861 4.26906 -0.654245 0.270305 1.29043
3930 13.0802 2.82027 3.70654 -0.254149 -0.871364 0.421107
853 13.5601 1.9193 3.50794 0.115281 1.87277 0.0991943
97 14.714 2.66101 3.37924 -0.609262 1.26727 0.118748
1133 14.2529 2.40754 4.33195 -1.094 0.637187 0.251827
2765 15.8312 2.36953 3.46113 -0.0519648 -0.383441 1.67707
2668 16.2712 1.57153 4.14281 0.63343 0.393292 2.42626
435 17.7093 2.62029 3.00661 0.979967 0.0749214 1.29056
1231 17.7645 1.73242 3.47717 -0.251879 1.35448 0.239663
3515 16.7821 2.8043 4.42322 0.515806 -0.28531 0.171169
198 16.7347 1.70273 3.14581 0.0421122 -0.79834 -1.39963
1619 0.723271 3.86938 3.83822 0.446642 1.48104 0.976827
3934 1.09914 4.46551 3.13205 -0.70993 0.0434357 -0.320026
3836 1.81065 3.70949 3.36351 0.0448292 0.297651 1.54267
2837 2.93122 3.74788 3.7378 0.188446 0.689598 0.321006
428 3.42492 3.09442 3.04593 -0.960849 -1.4293 0.519015
2115 3.81631 4.10202 3.12817 -2.26329 1.58471 -1.04361
1289 5.0206 3.73495 4.15696 -0.0972417 -0.619352 0.218206
382 7.00778 3.60573 3.47474 0.419572 -0.761409 1.54349
3861 6.18446 3.58962 4.25826 0.930618 0.763657 -0.153905
1316 8.16952 4.33594 3.02335 -1.73373 0.517485 -0.604698
1767 8.67768 2.99822 3.64137 1.90504 -0.880558 1.36193
666 9.56997 3.69371 3.29086 -1.05919 -0.0677717 -2.3075
2384 10.2706 3.95327 4.32349 0.266875 -1.39742 0.710282
2227 10.8386 4.08378 3.02506 1.13156 1.68143 -1.4449
1516 11.2746 4.38683 4.0404 -0.93807 0.131687 -1.14017
3878 13.0687 3.79224 3.19489 0.0932961 1.86386 0.266407
1098 12.0906 4.45426 3.05705 0.879425 0.180041 0.701404
1852 12.4084 3.70219 4.02922 -1.27779 -0.447457 0.57198
413 14.7842 3.78227 3.93566 -0.113361 0.265437 0.283099
3920 14.2148 3.50108 3.08848 0.532316 1.25228 1.33652
48 16.3179 3.33792 3.00719 -0.892424 -1.76698 1.27422
3118 15.968 3.55124 3.97149 -2.67415 0.762165 0.204553
1922 15.4879 4.4332 4.34183 0.506618 0.466755 1.64689
125 15.434 4.08665 3.22784 -0.214522 -1.3371 0.529807
175 17.7724 4.20498 3.35522 1.27166 1.32243 -0.117713
135 16.7995 4.26803 4.24064 -0.584651 -1.34261 0.200305
2588 17.7143 4.36266 4.4457 0.0731866 -1.18939 0.287369
919 16.5673 4.31393 3.07324 2.47738 -0.833127 -0.639782
1128 0.729952 5.18949 3.762 -1.19763 0.688638 0.846658
1222 0.0504938 5.87553 3.06391 -0.52111 0.65447 1.65306
431 1.92978 4.83934 3.94703 1.63385 0.476874 1.09123
43 3.04247 4.90855 4.20533 0.244687 -1.6118 2.01583
3424 3.68936 5.44143 3.34227 -2.05082 -1.01398 0.551596
937 3.94719 4.62234 4.14084 -0.758147 -0.0251924 -1.48114
3376 4.6646 5.02927 3.3534 1.22508 0.718627 0.641667
2453 4.54261 5.38775 4.30082 -1.76461 0.0203703 -0.950007
2082 5.89972 4.94722 3.3274 0.159312 -1.8516 0.0932624
1650 6.68688 4.67912 4.18823 0.503386 1.21935 -0.950872
1328 6.91475 5.40489 3.38784 -0.109304 0.566755 0.373196
3476 8.75261 5.52663 3.16389 -0.494022 0.860188 1.4105
3090 8.35734 4.47666 4.22011 2.45383 -0.448539 0.0486811
3841 9.17654 4.5472 3.0051 -0.109624 0.0664338 -0.292076
1930 10.1878 4.80579 3.38839 0.366002 0.102362 -0.282184
1500 9.36006 5.23319 4.11102 -0.0372433 -1.21858 -1.47465
1515 11.2292 5.16445 3.10936 0.422279 -0.721946 0.261142
1480 11.772 5.48145 4.26985 1.75535 -0.885892 -1.10476
3107 10.5476 5.12495 4.29011 0.301204 -1.50237 0.879748
3585 12.0701 5.61384 3.34756 -0.266143 -0.421247 -0.759935
3549 12.8847 4.7875 3.92481 -0.535629 -0.356991 -0.893672
1943 14.3739 5.47134 3.11355 -1.1304 1.8593 -0.490017
2750 14.0206 4.554 3.86297 1.82653 -0.644332 0.428733
108 16.1994 5.17892 3.57152 -1.15981 0.55956 -0.412028
227 15.2023 5.49067 4.02135 0.0523147 -1.47571 2.2005
1343 17.2679 5.0863 3.01205 -0.430358 -0.353296 -0.0275637
1674 17.5454 5.24825 3.97687 -0.623184 -0.181213 0.505411
1993 0.963144 6.17745 3.41158 0.510359 -0.327489 -0.617627
1896 0.0938207 6.60105 4.13304 0.753834 0.732387 0.120153
1836 1.10098 7.04205 4.08167 0.303887 -1.01202 -1.55403
377 2.29872 6.79565 4.15196 -0.303826 0.337598 -0.309658
2596 2.11516 6.67477 3.07648 -0.0721046 -1.77761 -0.909688
3651 2.87526 6.04589 3.52682 0.833997 0.873036 -0.750199
93 3.45247 7.32625 3.83453 0.119707 -1.01329 0.51185
2480 4.48566 6.33735 3.60137 -0.887253 -0.897245 0.366997
2036 5.00198 7.27408 3.40003 0.4974 0.224266 -0.596893
2186 5.69905 6.07373 3.89657 -1.87495 1.03611 -0.79227
3190 6.99248 6.85241 3.66264 -0.597607 0.109718 1.90729
3377 7.50969 6.02252 4.01217 -0.0473121 -0.190008 -0.033107
3614 9.91139 6.20948 3.1493 -0.486546 0.15914 0.916344
2797 9.8656 7.25824 3.71791 0.201996 0.943205 -1.7933
2536 8.99667 6.44852 4.15504 -0.187044 -1.43552 -1.24949
166 10.1208 6.24139 4.32346 0.634525 -0.595238 -0.717401
997 10.8594 7.15454 4.37434 0.335979 0.567083 0.371515
2846 11.3734 6.36674 3.82883 -1.14968 -1.15204 -0.760961
2033 13.0809 7.02743 4.26883 -0.854764 1.30922 0.596867
3153 12.5357 6.04007 4.40165 -0.849123 -0.4027 -0.194989
2116 13.9025 6.00426 4.21423 -0.243931 -1.19765 -1.91389
2784 13.5042 6.57017 3.03765 -2.42496 -0.623093 0.246441
3989 14.7252 6.37856 3.51893 0.304583 -1.63513 1.00243
1883 14.3245 6.98349 4.40425 1.38722 1.17202 0.0996694
3834 15.9535 6.15812 3.80423 1.58606 -0.271081 -0.617499
2983 17.4683 7.32292 3.31099 -0.694486 -1.35483 -0.336479
373 16.6695 7.00353 3.94034 -0.321994 1.03537 1.55567
687 16.9513 6.06552 3.5325 0.817463 0.121717 -2.26236
1381 1.40478 8.70347 3.35275 0.399136 -0.657063 -1.57252
2521 0.659027 7.76017 3.59384 0.486651 -0.488932 0.847988
1765 1.74417 7.66696 3.15995 -0.0788028 -0.708987 -0.494076
1597 1.53458 8.03368 4.23297 1.51997 -0.0945393 0.14704
3449 3.19507 8.58141 3.83939 -0.386973 -0.526739 1.21407
2900 4.05848 8.0291 3.31411 -0.00106729 0.190421 0.806961
956 4.99973 8.47621 3.81561 -1.42657 0.598999 -0.445724
2404 6.20071 8.91346 3.78377 -2.20993 -1.93835 -0.103892
1282 6.9874 8.11768 3.47615 -1.11845 0.707787 2.00772
1798 6.86829 7.73572 4.44061 1.03897 0.550995 -0.665518
2918 6.121 7.62037 3.63755 1.14975 -0.37022 -0.0156224
1346 8.12907 7.92669 3.04167 -0.396605 -0.39733 0.317492
394 8.9199 7.71033 3.66091 -0.789488 2.07918 0.431915
3426 7.88962 8.08604 4.08206 0.213885 -1.86115 1.26764
2009 10.9811 8.77861 3.2726 0.239022 0.148917 3.09726
686 10.7745 8.20961 4.1726 0.637372 -0.534062 0.702654
2684 11.7109 7.82984 4.13547 1.99666 -0.203773 -0.62394
2695 12.5492 8.08271 3.56706 1.37527 1.50631 0.998178
1392 13.3534 8.40785 4.33896 -1.0107 -1.15988 -0.401933
6 13.7553 7.63807 3.68908 -0.229754 -0.634973 -0.634039
2182 14.879 7.53332 3.39271 -1.9759 -0.433043 -0.0890872
1260 14.5912 8.27504 4.07912 -1.09647 -1.35792 -0.135462
609 14.9812 8.82351 3.01836 -0.178 -0.702012 0.255211
241 16.163 8.73082 3.29518 -0.878274 -0.958783 0.770037
1787 15.8818 7.84696 3.96539 1.50048 -0.0741212 -2.49985
3064 16.909 7.96318 4.15955 0.774844 -0.797774 -0.702784
2783 17.3843 8.51695 3.47449 -1.48907 -2.7514 -0.412789
3023 0.524672 0.280015 5.78747 -0.145619 -0.577536 -0.615458
219 1.05064 1.10865 5.66683 0.830407 1.06554 0.763368
1138 0.809848 0.343734 4.67961 0.91499 -2.00306 0.610832
3690 1.97507 1.22125 4.51207 -0.623418 0.14217 -1.70866
657 2.38564 1.38868 5.80802 -0.133585 0.801754 -0.80243
608 3.29291 1.04248 5.30121 1.23735 1.52737 0.881246
3019 5.01494 0.0734827 5.78787 -0.769187 -0.838521 2.37633
1249 5.50092 1.47185 5.07945 1.39505 -0.197134 -1.43555
1306 5.43113 0.247421 4.57905 -2.59459 -0.0723345 -0.0704001
262 4.54602 0.836 5.08962 -0.3679 0.0412651 -0.434234
115 7.2026 0.313454 4.76787 0.331502 -0.286431 -1.03006
3992 6.20387 0.870851 4.4923 -0.508416 0.504871 0.0038554
3443 6.81071 1.22669 5.69159 -1.57428 -0.771635 2.18099