ITEM: TIMESTEP
76000
ITEM: NUMBER OF ATOMS
4000
ITEM: BOX BOUNDS pp pp pp
0.0000000000000000e+00 1.7878070701931353e+01
0.0000000000000000e+00 1.7878070701931353e+01
0.0000000000000000e+00 1.7878070701931353e+01
ITEM: ATOMS id x y z vx vy vz
258 0.571319 0.406945 0.462482 1.05225 1.29273 -1.25169
2850 1.36894 0.268661 1.25741 0.675238 2.03632 -0.0638218
1211 0.482261 1.00161 1.3097 -0.696966 0.123493 0.697761
2176 2.90956 1.13715 0.696606 0.178027 1.28983 1.01809
834 2.14494 0.831628 0.0388825 0.551644 0.0587577 0.782403
3707 3.8059 0.257782 0.0981563 0.938256 0.600889 -1.0381
2367 5.17826 0.678413 0.640189 -1.22707 -1.74783 -1.46119
1547 4.60423 1.42298 0.0065983 0.989238 -0.238858 1.65992
1536 6.8652 0.82302 0.962112 0.547507 -0.643316 -1.09174
3477 8.43676 1.34089 1.20352 -0.281549 1.69872 0.081111
3929 8.48894 0.701194 0.179355 1.1757 -1.30511 -1.46032
511 7.74672 0.231732 1.12528 0.990579 -0.357799 0.766234
3342 9.50026 0.988225 0.577121 -1.15492 0.770762 -0.400653
3668 9.96052 1.46759 1.4557 -0.350386 -0.136222 1.5936
1071 10.5121 1.19998 0.578061 0.240725 0.679654 0.878017
3476 11.149 1.46625 1.38815 1.61324 -1.19549 -0.272149
2869 12.2267 1.40259 0.927275 0.80266 0.498672 -0.0487157
2800 12.9594 0.232639 0.50508 -0.64181 0.665278 -1.08387
1758 11.9315 0.608777 0.246229 0.544306 -0.756438 -0.217413
2948 13.8497 1.14412 0.517229 -1.07628 0.291996 -0.246632
2473 14.2886 0.108484 0.897557 0.118084 -0.72054 -0.138875
2632 15.604 0.483154 0.650142 1.87107 -0.462778 0.548602
1051 17.4398 0.634631 0.472049 -1.16992 -0.302531 -0.390579
819 16.5775 0.744712 1.18327 1.44109 -0.130115 1.35448
2407 16.6852 1.24359 0.347444 -0.591396 1.18809 1.62302
3854 1.08623 1.7922 0.967175 -2.03865 -0.289692 -0.490863
3129 0.132321 2.36303 1.26769 -2.65789 -0.962883 -0.155704
3175 1.28587 2.93694 1.04897 1.67853 2.11313 -1.10168
2968 0.543969 2.72219 0.302468 -0.540396 -0.171175 -0.392587
1589 2.43448 2.58653 1.41841 -0.2221 -1.35754 -0.29113
555 2.22367 2.23448 0.256515 -1.02998 -0.659522 0.524575
2154 3.42841 2.96306 1.22322 0.089361 2.11113 -1.09807
3209 3.98591 1.90186 0.870259 -0.948323 -0.968452 -0.858976
3761 3.27151 2.42138 0.20643 0.102159 -1.50609 -0.69273
606 5.67293 2.57606 0.0460288 -2.08979 1.1393 -1.07803
1038 4.65298 2.65186 0.609201 0.24609 -0.438342 -0.580367
3975 5.62661 2.95132 1.09121 -2.04622 -0.219401 -0.845298
1694 5.32337 1.84804 0.925591 0.867826 -0.206268 -1.05718
309 7.31034 2.87964 1.11292 -1.46252 -1.13517 0.740587
2607 6.4239 1.71356 0.305062 1.32435 0.99038 1.83464
1666 7.59443 1.85617 0.884164 0.56224 -2.43909 -0.420684
535 8.33483 2.68322 0.494133 0.964818 -1.019 -0.450305
2061 9.30972 2.5327 1.25544 0.773342 -0.734663 -0.861692
3232 9.00896 1.83858 0.207179 1.00114 0.68185 0.486912
2134 10.6798 2.69289 0.0311949 -0.166943 1.0829 -0.14083
381 11.4736 1.94889 0.257624 -0.0246089 1.07094 -1.25138
1289 10.6165 2.38386 1.05495 0.7546 1.13158 -0.822094
1835 13.1515 1.90012 0.985402 -0.488773 -0.90092 0.475664
2979 12.4055 2.78014 0.895941 0.128136 0.45218 -0.248189
2540 12.5145 1.98281 0.084464 -0.477648 -0.43515 -0.328803
226 14.6836 2.93396 1.04306 1.26208 1.41379 0.468891
2201 14.148 1.85463 1.01359 1.07735 -1.30544 0.116702
883 16.051 2.0368 0.437729 0.259191 0.497514 -0.777497
871 15.5244 1.78827 1.34405 2.29552 1.94029 0.16428
1475 14.9051 2.17225 0.282532 -0.2251 1.40209 1.03705
2635 17.1041 2.61782 0.505575 0.904443 1.1143 1.364
2032 17.8255 1.76292 0.491372 -0.521438 2.61653 0.412683
3419 16.7194 1.83477 1.39916 0.964935 0.51033 2.06894
273 0.606049 3.82207 0.616008 1.10782 -3.25944 -1.39953
354 1.78271 3.9468 0.876397 -0.118223 -1.89045 1.03176
489 2.42417 3.13317 0.633344 0.924794 -0.96766 1.36066
2433 4.26296 4.42817 0.124492 -2.1877 -0.538838 2.0858
2069 3.3933 4.06057 0.699166 -1.00269 -1.22054 -0.448948
2027 5.20465 3.80761 0.213386 -1.04439 -0.351092 0.521319
1681 5.89963 4.34438 1.16906 -0.643912 1.41079 -0.0433911
351 4.90395 3.7739 1.46168 -0.626716 -0.975603 0.374896
2849 7.35459 4.00016 0.190365 -0.386577 0.62432 -0.11367
10 7.29679 4.32013 1.38815 0.0682125 -1.00546 0.105429
565 6.60612 3.50344 1.40711 0.0508227 0.250476 0.712162
1005 6.48053 3.43083 0.358448 -1.3037 1.51895 -1.72782
256 8.71475 3.53813 0.843547 -0.169995 0.471541 -0.452941
693 9.87907 4.30461 0.710753 0.170066 -0.718433 0.443449
544 9.68937 3.23518 0.286536 -0.194772 0.417392 0.307266
2910 11.3317 3.0703 0.822301 1.81394 -1.20572 -1.24865
1115 10.4422 3.38278 1.39954 -1.21035 0.0380812 -0.538518
3838 12.0309 4.41866 0.911213 0.28235 1.20475 -1.49327
1279 12.8503 3.77997 1.07273 -0.0260185 0.369423 -0.530172
2396 14.3059 3.6264 0.326599 1.60887 -0.0209251 0.599329
847 13.6383 3.12204 1.14632 -0.306317 2.04553 1.10999
1827 13.4288 4.36903 0.431324 0.812011 0.373509 0.444677
1135 15.042 4.07382 1.18451 0.346459 0.576908 0.684119
2784 16.1449 4.19305 0.811057 -0.624896 1.04727 1.29339
1313 15.879 3.09856 0.62999 -0.289946 0.149929 -0.0758597
1937 17.4461 3.63165 0.72213 0.0295838 -0.655723 1.13005
1298 0.403046 4.8108 0.326194 0.488431 0.10514 -1.24695
2803 0.534145 5.82857 0.818592 -0.824185 -0.327771 -0.0321236
3587 1.61228 5.35439 0.953074 0.127335 -0.797205 0.0597524
1452 2.48064 5.00529 0.477189 -1.3788 0.267221 0.345763
140 4.46574 5.77039 0.648131 -0.516413 -0.50841 1.06438
2723 3.69861 4.98586 1.07533 -0.597479 1.25042 -0.758544
3322 5.1201 4.99751 0.067961 -0.814872 -0.643403 -0.504947
3907 5.66121 5.42215 1.05232 0.244434 -0.392656 1.51773
1926 4.81242 4.78325 1.03912 -0.918293 1.43736 0.394745
123 7.20714 5.32726 0.695089 -0.299242 0.429939 0.323557
884 6.21698 4.64052 0.238013 0.730848 -0.787371 -0.305923
2331 8.29976 4.56303 0.762506 0.336411 0.770105 -0.0247037
1588 8.20188 5.40234 1.37076 0.228799 0.696364 -0.647478
3806 10.3164 5.79673 0.923071 0.595695 1.05385 1.84882
3325 9.49126 5.44689 0.278252 -1.30246 0.359719 0.246455
1885 9.29234 5.44709 1.42246 -0.437384 -0.314603 -0.369898
3001 11.068 5.26294 0.87211 0.995752 -1.01545 0.358927
2873 11.5971 5.86647 0.179922 0.661132 -1.06307 0.690109
3345 10.5927 5.06114 0.0551322 0.985873 -0.600558 -0.376182
808 12.22 5.44568 0.932993 -0.644176 0.278541 0.312188
2109 14.5419 4.70385 0.429977 0.0537808 0.408637 -0.038515
623 13.4326 5.3518 0.767743 0.307317 1.36155 -0.560768
786 15.1491 5.41774 0.934273 -0.862517 -0.536544 0.112765
153 16.2962 5.23408 0.855218 -1.1216 -0.383654 -0.491429
1771 15.4805 4.72568 0.0385609 0.211107 0.698989 2.88788
1725 17.2712 4.96513 1.1268 0.684493 0.423045 -0.225338
3614 17.3657 5.57737 0.0918566 -0.405154 -2.77144 -0.735927
2889 0.528508 6.95386 0.933289 -0.764653 -0.214955 -2.40342
415 1.90134 6.4238 0.976111 -0.0788886 1.75845 0.410397
2892 2.37526 6.33071 0.0907052 -0.502777 -1.74317 0.535044
342 3.25375 6.97834 0.413076 -1.45758 -0.102112 0.327777
2866 4.20825 6.81763 0.915568 0.89919 0.594085 -1.41654
372 2.98755 6.51611 1.4887 -0.730363 -2.60172 0.42577
1366 3.71003 5.99799 0.0413385 -0.195473 1.05102 1.17119
1111 5.39563 6.31283 0.415477 0.539035 -0.579613 -0.904567
885 6.90455 7.29702 0.836065 0.519314 -0.452041 0.219659
3191 6.19592 6.44539 1.38518 -0.875943 -0.677266 0.242349
2852 6.44413 6.20598 0.107823 -2.24732 0.347329 0.774389
2183 8.85567 6.1263 0.600786 -0.345411 0.249666 -2.3686
2008 8.5381 7.0748 0.82146 0.0408772 -0.153237 0.24359
20 7.65567 6.37991 0.896189 0.464209 -0.750387 0.377302
128 10.146 7.43038 1.4118 0.386893 -0.286786 2.09685
387 9.66018 6.54995 1.18785 0.700118 0.277128 -0.89693
1659 11.8667 7.28829 0.824424 -2.47339 -1.00649 0.746918
2060 11.1198 6.50842 0.984221 -1.46654 -1.04245 -0.531124
2992 11.0246 7.17607 0.0427969 -0.544693 0.580055 -0.828942
3271 12.5307 6.33839 0.450009 -0.534987 1.4352 0.550753
2416 13.1875 7.21701 0.933113 -1.82197 -0.290754 -0.739867
690 14.1408 6.43722 0.816059 1.04679 -2.46679 0.596118
192 15.9852 7.11738 0.526695 0.475416 1.44166 1.06714
1983 15.2155 6.46432 1.08614 -0.41771 0.262232 0.223792
2598 16.3024 6.79985 1.38362 -0.58096 -0.0789547 0.325769
3224 16.3256 6.30972 0.0176597 1.65484 -0.605694 -1.43191
1282 17.2956 6.04328 1.41203 0.971921 0.580044 0.603854
3111 17.0618 6.87111 0.488645 0.506306 0.894157 2.29044
3228 0.399451 8.65458 0.128196 0.179605 -1.00193 0.760621
2669 0.0295935 7.88021 0.757827 0.0646986 -0.157969 1.70653
1892 0.998205 8.14357 1.14185 -0.0649915 -0.0691692 -0.73191
1992 1.0039 7.79143 0.119089 -2.24066 -0.491127 -1.51814
3682 0.293449 8.87056 1.16742 1.65045 0.31761 0.00937576
2502 1.98071 7.59242 1.27663 0.457586 0.372744 0.737936
1951 1.92152 8.55989 0.665863 0.418352 0.282269 -0.664175
2483 3.99908 8.49747 1.456 -0.252264 -0.691044 -2.82157
3159 3.72061 7.89595 0.626802 -0.22942 -0.984328 -0.0855071
3398 5.08438 7.76156 0.557279 -1.42313 0.984342 0.850531
2724 5.86777 8.37886 0.260976 1.52623 1.37327 -0.508499
3304 5.2245 8.4516 1.36896 0.059885 0.633165 -1.14516
3589 6.93628 8.35846 0.983802 -0.543516 -1.00766 -0.0304053
442 8.10855 8.20833 0.816506 1.18894 -0.92365 -0.175696
1876 7.50847 7.85212 0.161091 0.0946512 0.53013 -0.798996
3416 10.1033 7.7359 0.332818 -0.135578 1.28704 -2.1575
2453 9.14923 8.13902 0.44409 0.548801 -0.332237 -0.400878
425 10.041 8.7883 1.34185 1.26242 -0.588219 0.0168869
2588 11.8981 8.80947 1.12456 -0.748114 0.898726 -0.593504
1122 12.9848 8.40609 0.362478 -2.39066 0.208082 0.324771
1388 12.1238 8.87015 0.144568 0.175399 -0.143279 -1.94748
262 13.0257 8.15481 1.40034 1.16115 1.02097 -0.572316
95 13.9683 8.29729 1.0869 -1.34228 -0.739657 0.387667
2752 14.7465 7.52196 0.588196 -0.590733 0.364391 1.19926
3503 16.1183 8.19646 0.562468 0.0953006 -0.390755 0.0204378
3931 15.0208 8.5142 0.680971 0.848657 1.21383 1.67276
1616 16.993 7.67731 1.16895 1.63397 -0.43943 -1.42798
3635 17.0455 8.73224 1.10669 -0.746129 0.0399867 1.15849
1151 0.832749 0.705657 2.26123 -0.400949 2.01152 -0.121394
2106 2.20866 0.0434397 1.93052 0.140055 0.800841 -0.070684
2085 1.8368 1.06517 1.58187 0.451421 -1.28543 -0.317672
3300 1.65813 1.08553 2.68362 -2.15235 -1.24183 -1.04332
1171 3.28769 0.269522 2.24688 1.38886 0.992732 -0.682037
2740 4.00721 0.88923 2.80672 -0.720088 2.06552 -0.264875
2044 4.60242 0.457998 2.01326 -0.322125 -1.19812 -0.375715
640 5.58293 0.973333 1.70421 1.60576 -0.472164 -0.0494753
465 5.35553 0.327355 2.62024 0.359622 1.18619 -0.00143698
3003 6.58181 0.629201 2.11694 0.330583 0.839873 -0.140454
1234 7.62736 1.11394 1.93002 0.0519723 -0.0259991 -0.553462
2823 9.94196 1.2758 2.42915 1.40974 0.251286 1.00215
1653 9.38138 0.014482 2.52523 0.155448 -3.17448 0.729705
2435 9.05543 0.91146 2.13702 -1.24879 0.301869 0.907871
931 11.3458 1.3098 2.51485 0.379561 -0.394681 1.80867
524 10.4686 0.567995 1.80844 -1.35511 0.190215 -0.174833
1411 11.8642 0.7439 1.80078 0.904039 -0.718786 -1.01389
3468 12.8437 0.594781 2.31223 -2.26605 -0.0451967 -0.298847
1487 13.5804 1.30649 1.82467 -0.0656362 0.669066 0.200155
2730 14.6127 1.01116 1.55082 0.634777 -0.767731 1.31566
1100 14.1276 0.714202 2.90564 0.581783 2.83541 0.19405
348 13.8067 0.29919 1.8842 -0.775227 0.0119068 -0.585345
2666 15.8403 1.23186 2.79897 0.987833 1.42121 0.194625
865 15.1483 0.379727 2.94123 1.2363 -0.197635 -1.39367
3545 15.4695 0.23926 2.02399 0.00737732 -1.1997 -0.995999
2389 17.4116 1.06525 1.83084 0.53257 -0.110433 0.385233
1429 17.7878 1.34305 2.97947 0.464343 -0.38205 -0.903488
116 1.2288 2.66749 1.98151 -0.651631 -0.475007 0.831743
2969 0.409483 1.7083 2.04265 -0.24604 0.548915 -1.32015
3424 1.93029 2.69784 2.97228 -0.259712 0.326597 -0.484052
3072 2.23599 1.85105 2.20635 0.325812 0.399207 -0.595265
2065 3.62093 1.88969 2.52727 0.508432 0.465937 0.424396
3809 3.14828 2.78493 2.22458 -0.923871 0.104411 -0.580362
1014 3.14206 1.85134 1.60281 0.81186 0.561917 0.599985
86 4.32075 2.74902 2.07987 0.132034 0.181557 -0.67122
1948 5.5559 2.15522 1.9408 1.196 1.36338 0.729909
3685 4.85512 1.60147 2.69179 -0.577573 -0.880818 0.407495
180 5.00706 2.64315 2.94294 -0.360966 1.42421 -0.557466
893 4.56177 1.71141 1.68932 -0.862879 1.82634 -1.25538
3130 6.34617 1.65725 1.50699 -0.854674 -1.10906 0.0519507
642 5.98124 1.56385 2.77556 1.04241 -0.752028 -0.218146
3656 5.97391 2.67409 2.80202 0.257757 -0.361683 -0.851823
3980 6.71391 2.60639 1.97023 1.5087 -0.303882 0.426209
2793 8.55689 1.94402 2.08339 0.782316 -0.294013 -1.42229
3264 9.20753 2.76661 2.3002 -0.130189 0.19786 -0.641143
2157 10.4888 2.15759 2.86291 0.0612809 1.0172 0.0733787
3658 10.857 2.75734 2.11475 0.469549 0.586063 -0.016292
2565 11.7138 2.25484 1.50315 0.484821 0.967232 -0.717001
3089 11.934 2.94806 2.53066 0.122484 -0.98201 -0.159014
1172 13.0397 2.87189 2.07378 1.45966 -0.486473 1.03587
2505 12.5044 1.95623 1.95762 2.47071 -0.279761 -0.110379
2585 14.3298 1.61237 2.49178 -0.294979 -0.403941 -0.0236846
3081 13.9954 2.67071 2.17412 0.607501 0.0663714 -0.653312
3749 13.441 1.93013 2.82773 -0.979429 0.564669 2.28291
2522 15.3481 2.27874 2.41947 -0.0563156 -0.482334 -0.424953
1640 15.9859 2.82964 1.62759 -0.172251 -0.828032 0.133756
1605 17.5478 2.4612 2.14292 -0.0505443 1.84865 0.261088
589 16.7069 1.79543 2.38344 0.307707 0.7771 0.51346
1096 0.0166035 3.36242 2.51625 -0.67187 -0.847887 -0.674912
608 0.393127 3.25959 1.57828 -0.106957 -0.0351704 -1.23737
2421 0.814621 3.98274 2.27426 0.58923 -0.218305 0.478682
3641 2.6131 3.70932 1.58666 -0.339275 2.0031 1.53977
1690 2.77625 3.80382 2.62535 0.428738 0.221482 0.598643
1907 1.82407 3.48737 2.22957 1.40578 -1.29818 -0.275972
3557 3.64658 3.94013 1.78706 -0.0682857 0.44535 1.58944
1541 5.47723 3.27591 2.06335 0.783792 -1.10204 0.70976
3740 4.76283 3.71407 2.65911 -0.337053 2.21399 -1.12234
1803 6.85967 3.86685 2.26894 -1.02157 0.339622 0.555932
2747 7.99445 4.46569 2.233 0.501186 -0.906228 0.326878
3592 8.76432 3.71713 2.73557 -0.270221 -0.212212 1.21431
3390 8.08882 3.46629 1.76436 -0.94564 0.588534 0.0630365
3871 9.0082 4.41821 1.94714 -1.1585 -0.541609 -0.277727
1583 10.0076 4.11218 1.95113 -1.68369 -0.783484 -1.08511
385 11.4228 4.00138 2.40342 2.26214 -0.635811 0.65579
3628 12.0577 3.4457 1.66978 -0.0891325 -1.07245 -0.836322
2695 12.7783 3.81756 2.45308 -1.91739 0.276023 1.24313
1861 14.044 3.67423 2.2019 0.830921 -0.0564571 -1.80755
1650 14.9942 3.21853 2.00436 -0.122187 -0.416319 0.228823
904 15.8364 3.14425 2.73231 -1.47181 -0.992261 -0.656253
859 15.3516 4.13415 2.24025 -0.171024 0.299856 -0.479734
2304 16.8109 4.02564 2.24506 0.220663 -0.0480176 0.0662326
3717 17.7021 4.04141 1.66335 -0.618268 -0.920665 0.633881
1894 0.709067 4.60851 1.50534 0.0973319 1.15444 -0.860642
2495 0.252358 5.4444 1.92452 0.0373566 -0.118481 0.811571
2227 1.05114 4.97047 2.5543 0.871022 1.57636 -1.34934
2775 2.94585 4.81752 1.84736 -0.502101 -2.65394 -1.60433
2007 2.44026 5.69583 1.53647 0.194824 1.3589 2.25255
1290 1.84578 4.57315 1.92547 -1.05811 -0.670923 -1.0988
1271 1.97402 4.9782 2.94354 0.776295 -0.77241 -0.372191
2962 3.1145 5.8137 2.41374 0.321915 -1.7233 2.2314
445 4.20778 4.62528 2.46103 -0.648093 1.16617 -0.429756
528 4.65517 5.38945 1.93562 -0.251873 -0.74887 -0.676652
564 5.45696 4.55223 2.15963 -0.555257 -1.24206 -1.86636
908 5.81896 5.59104 2.17398 -0.355388 1.21183 -0.0968673
2713 7.26829 5.03065 2.84371 0.169634 -1.05739 -0.788866
3092 7.28335 5.74399 2.07531 1.38915 -0.049728 0.804162
208 6.50243 4.88619 1.91924 -0.866689 -0.540748 -2.06436
3333 8.54401 5.28758 2.41696 -0.412486 0.0916523 -0.799898
1953 10.127 5.06181 1.97385 -1.625 -0.196386 -0.98292
2949 9.39943 5.91325 2.35665 0.309948 0.577278 -0.0351856
2038 13.0681 5.57799 1.69163 -1.00536 -1.74691 1.34146
3882 12.1558 5.64204 2.38603 0.655292 -2.3852 0.398973
667 12.8388 4.58655 1.68041 -1.0518 -2.55569 -0.190813
726 14.2721 4.60303 1.55915 0.299858 -0.128029 0.653706
2167 14.592 5.84389 1.97032 1.21003 -0.824929 -0.822951
789 13.7302 5.42215 2.57787 -0.349063 -1.11859 0.747552
1663 15.7896 5.83008 1.98539 -0.0294808 0.726943 -0.275591
800 16.4945 5.12195 2.13951 2.39492 0.137117 -1.58525
2262 1.07841 6.07791 1.90537 -1.47695 -0.511552 -0.261492
3167 0.828269 6.41622 2.90032 -0.323161 1.41466 0.0655254
3733 0.535985 7.30862 2.59052 -0.710214 -0.154666 -0.0484131
3008 2.2617 6.95224 2.0235 0.257891 1.22929 0.191683
392 2.35439 6.37918 2.93979 -1.68061 0.156579 -1.05429
3260 3.85868 6.12206 1.69033 1.28739 -0.354789 0.618279
2683 3.6375 6.69476 2.68366 0.0295851 -0.448756 0.238808
2890 4.87654 6.46357 1.95254 -0.34873 1.00264 0.592193
1597 5.4441 7.44551 1.66525 0.485153 0.838811 -0.566497
232 5.60968 6.91776 2.60729 -1.18108 0.1675 -1.16441
3971 6.71236 6.60328 2.80414 1.62791 1.17159 1.25944
234 8.51097 6.40906 1.67219 -2.59628 -1.03319 -0.816514
3515 7.65927 7.12107 2.54183 1.30186 -0.655017 0.184718
3058 9.56544 7.30246 2.31001 0.74577 -1.28807 0.138121
2786 11.7396 6.63297 1.97677 0.240325 1.80086 -1.1058
669 10.6368 7.35489 2.33018 0.763091 -0.638816 0.803186
3640 10.5639 6.14702 2.33388 0.263123 0.134504 -1.44697
1063 12.9071 7.14703 1.94376 -0.543126 -1.79752 0.496667
108 13.717 6.41214 2.07898 0.219482 0.325237 -0.570562
3324 14.7727 6.82123 2.2034 0.735326 -0.222217 -1.60027
3551 16.2358 7.07443 2.40778 -1.40579 1.09139 -0.0343391
1813 15.5747 7.44489 1.77358 -1.52498 0.76514 -0.300442
684 15.3147 6.44473 2.97447 -0.392797 -0.845889 1.81994
1636 16.4532 6.15189 2.88558 -0.944799 -0.447559 1.2949
577 17.3314 6.92511 2.15513 1.26894 1.18305 -0.791057
3302 1.27316 7.74913 2.08522 2.10677 -0.618276 -1.38071
1457 1.70449 8.38541 2.88619 -1.08279 0.527889 1.07163
2914 2.36377 8.10843 2.09451 0.208744 -2.25946 0.98884
2078 3.26387 7.47342 2.0587 -0.313945 0.701941 -1.18298
1611 4.46116 7.66948 2.13455 -0.199996 0.569272 0.399995
1134 3.19937 8.71764 2.11021 -1.21313 -1.6036 0.0251145
1199 4.17505 8.77047 2.59017 -1.02205 0.687291 2.72305
2503 5.25798 8.27432 2.52622 -1.21186 -0.576345 -0.779831
2456 6.19738 8.16089 1.77425 -0.515439 -0.143978 0.765664
2404 6.80861 8.83602 2.83083 0.153617 -0.631333 -0.30816
742 6.42723 7.75996 2.7321 -0.297143 1.52239 1.0262
2553 7.6681 7.65041 1.54692 -0.0671913 -1.11247 0.223443
280 8.50952 7.95919 2.49776 -0.69553 -1.06237 0.400205
3474 7.58238 8.67512 1.82023 1.07823 -0.29164 -0.0748383
185 9.17324 8.85988 2.72707 0.912807 -1.42665 0.108587
3876 9.26212 8.21102 1.59269 -1.29097 0.435432 1.09485
549 10.0434 8.22522 2.45946 -0.0407387 -0.923278 -0.31897
1453 11.1963 8.66512 2.13449 -0.806018 0.211739 0.01524
2351 12.8376 7.50135 2.92703 0.67964 1.13387 -0.690474
2386 12.3113 8.83616 2.62934 0.986894 0.0143389 1.00167
2507 11.9941 7.64163 2.13385 -0.692329 -0.156663 1.17516
502 13.9074 7.56323 2.3202 0.643699 0.955579 0.801941
181 14.7413 8.08003 1.78855 0.280074 -1.20895 0.304755
2028 13.8958 8.78098 2.14451 0.97799 -0.101699 0.237475
3357 15.3787 8.55495 2.47491 -1.7675 -0.568021 -0.328482
3798 15.9034 8.56077 1.6387 -0.511741 0.0783812 -1.88692
2431 17.3127 8.32592 2.76989 0.25281 -0.742313 -1.00775
635 16.6741 7.98242 2.03861 -1.31935 -1.56692 -0.565426
978 17.8101 8.06173 1.83325 -1.11124 -0.665061 1.339
2049 0.0478645 0.34623 2.99174 -1.02801 -0.641007 -1.53863
3625 1.05514 0.410378 3.41597 0.217735 0.249925 0.588091
3992 0.461879 0.482514 4.24221 -0.805755 0.780067 0.967441
3547 1.17693 1.2359 4.01821 -0.184557 0.222287 1.76301
3967 2.58526 1.01224 2.99369 -1.65102 -0.56386 0.771812
2868 2.28018 0.00392187 3.14638 -0.723324 -0.380643 -0.0888394
1537 1.95878 0.530067 3.96328 -1.08669 -0.0670448 -1.24417
662 3.10533 1.39969 3.93118 0.470152 0.236221 -1.95406
3284 4.69352 0.39683 3.35934 -0.0326066 0.918333 -0.26301
2870 5.15555 1.3084 3.64942 0.818026 0.682536 -0.825339
823 7.41327 0.327683 3.08371 2.13238 -0.522841 0.682075
708 6.48593 1.44135 3.7361 -0.00999971 0.428401 0.243692
3512 8.38331 0.635721 3.02893 2.15487 0.308539 -0.141357
1285 7.70156 1.26626 3.65783 -1.05737 -0.842557 0.248836
2927 10.2138 0.517924 3.07547 0.164411 0.902139 -1.11274
3033 9.17335 0.983564 3.53913 0.55746 -0.542974 0.666149
319 10.1909 0.551148 4.12211 1.01964 1.48505 0.67801
2200 11.0221 0.952868 3.40422 -2.14075 -1.06926 -1.26101
3836 13.0733 0.0114576 3.35296 -0.441519 0.101635 1.70413
1196 12.1609 0.650139 3.3226 0.17617 -0.1514 -0.46386
2136 13.2408 1.04591 3.50707 0.129956 -0.942107 -0.0590979
3361 12.4702 0.30797 4.30095 0.122212 0.784988 -0.49153
1206 14.3352 0.250992 3.88071 0.0326892 0.184693 0.512361
2636 14.5033 1.40518 3.68689 0.156969 -0.114867 -0.459858
446 15.8603 0.959373 3.91759 -0.971199 -0.623432 0.360014
2510 16.7402 1.36573 3.59305 -1.85362 1.24916 -1.14984
2661 17.2056 0.940929 4.37059 0.107429 -1.97123 0.0365375
2897 16.6161 0.195609 3.50217 1.85974 0.0809108 -0.115643
1845 0.959412 1.82215 2.99704 0.289698 0.927395 -0.371225
1438 0.391609 2.70517 3.29447 -0.767752 -1.06301 -1.48017
1385 0.170104 1.73016 3.94816 0.553778 1.34673 -0.909832
453 1.80283 1.9359 3.65995 0.23581 0.0060701 -0.136289
3240 3.48719 2.83187 3.39539 0.904006 -0.645055 1.69879
349 4.3359 1.99605 3.66871 1.4598 -1.53663 -0.899709
3144 4.95858 1.89102 4.45019 0.129024 1.26995 -0.0312734
3208 7.22391 2.29629 3.21 0.226163 -0.374464 0.0196778
205 8.12133 2.88225 3.00632 1.25967 -0.701227 0.942269
3754 8.42852 1.79349 3.13959 0.527462 -0.894357 -0.172423
27 7.84324 2.3514 4.15531 -0.296765 -1.23358 -0.450176
2523 9.65228 1.92264 3.37855 0.360804 -2.49971 1.38617
898 9.14279 2.94932 3.34711 1.41826 0.131557 0.516984
1241 9.03456 2.09255 4.27914 -0.884744 0.960487 0.875324
1259 10.0099 2.76718 3.92601 -0.113475 -0.672639 0.743011
1069 11.3062 1.90002 4.40347 -0.882272 1.23777 0.169814
1358 11.67 2.76401 3.84141 -1.28526 -1.36207 -0.488048
222 12.4219 1.94469 3.22145 1.93402 0.379727 -0.743336
364 13.0561 2.89202 3.06888 -0.408577 0.342505 0.931347
586 12.7969 2.92977 4.12203 -0.119736 -0.500537 -0.729094
725 14.4437 2.55349 3.0775 -0.0204858 -1.71159 0.542977
1425 13.4335 1.99397 3.97636 1.07407 1.35112 -1.07266
3201 14.5719 2.3651 4.28093 -0.170065 -0.868682 -1.07268
2469 16.2113 2.32218 3.30706 0.109143 -0.943584 -0.245111
1950 17.0046 2.34034 4.20882 -0.319722 0.292663 1.40793
1188 1.06596 3.57861 3.22616 0.654575 -0.798894 0.25881
707 0.552841 3.66589 4.34229 -0.641403 1.06921 0.616302
3009 0.0822231 4.27324 3.07024 -0.0867708 0.688181 0.244229
435 1.713 3.07105 3.89082 0.430267 0.325375 -0.0337756
781 2.13247 3.95357 3.35316 0.251747 0.318688 0.808701
1386 3.80448 3.8283 3.08989 0.090607 -1.7038 1.03074
1257 3.30459 3.77916 4.08585 1.70315 2.35031 0.4678
2764 5.76328 3.75637 2.99289 1.0497 -0.40096 0.592987
2629 5.3824 4.40851 3.77859 -1.11181 -0.4793 -1.34487
3721 5.58422 3.14182 4.40367 0.938385 0.010109 -1.44569
812 4.75613 3.43346 3.76292 -0.408789 0.372111 0.88408
689 7.22534 4.46073 3.98879 -0.377276 0.513016 -1.45361
2712 6.56428 3.03364 3.54101 -0.401534 -0.515659 -2.84827
3064 6.20564 4.14671 4.34416 -0.869686 1.02205 0.998961
1823 7.48719 3.58729 3.59801 0.252422 -1.66169 -1.08287
2907 8.51424 3.39285 4.03752 -0.341564 1.23882 -0.364727
1237 9.86727 3.59761 2.98386 -0.028744 1.04219 -1.09953
43 9.56351 3.64385 4.06657 0.439411 0.337447 1.21619
2535 10.8939 3.27829 3.03181 -0.937949 -0.426073 -0.690014
350 10.83 4.30961 3.30418 0.199916 -1.03284 -0.406243
1514 11.7822 3.86084 4.34126 0.03968 -1.39941 2.41154
2750 10.6794 3.66307 4.06141 -0.596291 0.178825 -0.192906
405 12.3921 3.6778 3.49751 0.395183 0.444288 0.0326413
585 13.3871 4.17265 4.35925 -1.35973 0.462884 0.338647
575 13.6628 3.922 3.06826 -0.730304 0.872078 -2.54024
2163 14.7887 3.60832 3.1946 -0.0335352 0.29423 0.306361
1492 14.637 4.15444 4.10708 1.74483 1.29066 -0.709135
3995 13.905 3.09244 4.04813 -1.22141 -0.387891 -0.215449
3752 15.8102 4.00799 3.50511 -0.979971 -0.161113 0.128045
3086 15.3803 3.00601 3.83979 0.451517 1.57636 -0.253858
2861 16.8021 4.12029 3.34442 -1.09064 1.0407 -0.495221
2080 16.7831 3.1304 3.05487 1.61103 0.857339 0.0109375
713 17.529 3.40126 3.91735 -0.530047 -0.552441 1.86759
34 16.5297 3.32261 4.17747 -0.886078 0.112817 0.699847
298 0.262521 5.54191 3.27047 0.754205 0.0234531 0.985324
1062 0.2309 5.62398 4.43278 -0.595986 0.0703942 0.661273
3110 1.34102 5.83944 3.81238 -0.359328 -1.89032 -1.46439
2624 1.05568 4.54356 3.69091 -0.696357 0.512204 -0.708926
1870 2.2784 4.52052 4.31664 1.21784 0.436551 -0.940985
363 2.80545 5.66306 3.60406 0.12025 -1.70928 -2.48573
2198 3.07041 4.52588 3.33904 -0.413907 -1.57488 -0.978497
142 4.2417 4.85778 3.60936 0.941911 0.14491 1.63591
2138 4.04681 5.86743 3.20311 -0.245836 -1.45224 0.483115
2671 5.19515 5.40291 3.01234 -0.704345 0.786701 -0.145364
3465 5.26992 5.24594 4.27374 -0.247814 -1.47281 -0.0313655
3355 6.46825 4.49647 3.20397 -1.27413 1.58498 -0.217197
754 6.26013 5.29171 4.15499 1.26439 1.43701 -2.00338
2972 8.22075 4.60904 3.24152 -0.342777 2.36121 -0.386132
2374 8.40734 4.57618 4.32104 -0.823592 -0.510748 0.732913
2205 7.82436 5.4435 3.71593 -0.182313 -0.929487 0.45566
1820 9.74302 4.76968 3.00968 0.476244 1.03505 -0.17168
1778 10.3932 5.55528 3.38587 -0.440022 -0.426097 -0.169642
3820 10.206 4.60461 4.07892 0.201668 -0.54644 0.51282
1617 9.25961 5.71822 3.59891 1.20308 0.54746 1.80186
501 11.5116 4.73903 3.92929 -0.627691 0.193891 -2.23431
790 11.4424 5.40344 3.21273 -0.203902 2.62509 0.722544
536 10.7919 5.41776 4.45476 -0.359612 -0.913151 0.435472
2623 12.7576 5.86212 3.26187 0.255379 -1.62689 0.0331201
2944 12.1516 4.56887 3.08969 -0.265473 -0.371778 1.34118
729 12.6648 4.92714 4.18001 -1.38 1.11629 1.77193
1327 11.9218 5.68674 4.19035 -0.436402 0.609095 -1.01232
102 13.9509 4.89905 3.4935 -0.858912 0.345656 2.16877
2147 14.3531 5.84877 3.52882 1.14209 -0.0859768 0.628883
3145 15.7161 5.27757 3.20516 1.21348 1.15172 -0.300485
2983 14.9813 5.2916 4.15519 1.37394 -0.362162 -0.0168248
3388 16.361 5.94628 4.1475 1.01147 -0.562228 0.218179
337 16.7315 5.11082 3.57491 0.759413 -0.150439 1.67744
1762 17.6136 4.53515 4.30091 0.59195 -0.635745 0.320015
2536 1.61049 7.12806 3.17624 0.0512522 1.42936 0.530351
2345 2.08629 7.13111 4.23587 1.76112 0.507256 0.32798
787 3.00997 6.66849 3.7187 2.37103 -0.288325 -1.11792
2813 3.69827 7.3999 3.35166 1.26842 -0.945884 0.384252
3226 4.41204 7.25221 4.00008 -0.0300512 1.00991 -2.17593
3084 5.65031 6.36934 3.69683 0.460868 0.104677 0.481644
2567 4.63671 6.79228 3.05946 -0.121431 -1.39426 -0.467017
424 4.54969 6.09014 4.24114 -0.991158 -1.41651 0.744374
499 5.33668 7.42159 3.66497 -0.113044 0.251749 -0.393491
296 6.71608 6.12285 3.95928 -0.247461 -0.387789 0.686104
3330 8.55207 6.57108 3.30722 -0.612256 -0.733298 -1.01393
1381 7.49616 6.53948 4.43803 -0.349533 -0.142942 2.06813
343 8.47983 6.17322 4.25089 0.51575 0.777354 -0.839309
856 9.74245 6.52624 3.1166 -0.177609 0.156114 -0.220311
3835 10.4278 7.20901 3.38378 0.654215 -0.207148 -0.300778
2714 9.21956 6.95348 4.13997 0.367016 -0.564041 0.944043
2373 11.1562 6.46301 3.80632 -0.794322 0.503448 -0.649246
2516 11.9137 7.21606 4.35434 -0.217891 -1.71917 0.191357
1170 11.948 6.52148 3.2046 0.270016 0.164419 1.3687
2480 12.724 6.83264 3.80012 -0.0311604 0.826249 0.931209
916 13.4356 6.03465 4.15808 0.361903 1.46453 0.456404
436 13.7049 6.55087 3.18443 1.38505 0.452246 -1.01661
2682 14.8388 6.75629 3.99796 0.361324 -0.676592 -0.0171284
1024 16.1912 6.95915 3.47197 0.555541 0.825774 -1.59848
783 17.5484 6.35107 3.63577 -2.25209 0.374473 -0.674725
869 17.0165 7.31181 3.00834 -0.70231 0.444934 -0.801771
3025 0.388681 8.32437 4.34181 -0.815913 0.859991 -2.19222
736 0.53515 8.57634 3.09737 0.450605 0.947454 -0.103305
759 0.229229 7.55884 3.58152 -0.0434046 2.0971 -1.86103
2547 2.63043 8.10763 4.22922 1.02069 -0.155772 0.36014
377 1.55299 8.07483 3.85349 -0.521083 -1.23678 0.201268
2068 2.61359 7.76937 3.21335 -1.33839 -1.04032 1.19931
3811 3.61561 8.46021 4.24526 0.00518746 0.216038 -0.114992
2013 5.739 8.33209 3.48891 -1.24717 -0.0748292 0.701109
242 4.50415 8.19209 3.49798 0.718711 1.76586 -0.122413
109 6.37159 7.48726 3.95809 1.40103 -0.585989 0.286758
2947 7.46727 8.02146 3.02626 0.271904 -0.183858 -0.426639
2341 7.45017 8.04419 4.13415 -1.52106 -1.59172 -0.830626
1421 8.39259 7.51505 3.71912 1.13698 0.318449 0.766087
2528 8.75034 8.53094 3.73421 -0.42383 -0.278736 -0.218387
1276 9.37931 7.62269 3.18057 0.0811442 0.500455 -1.90203
2851 10.9573 8.5587 3.27281 1.20478 -0.544442 0.228196
389 11.5068 7.54418 3.37888 -0.694188 -0.184918 1.12281
410 12.4292 8.26272 3.58582 0.761391 -0.920676 0.514606
3832 13.6924 8.35191 3.04726 -1.4335 0.676055 0.752799
190 14.8763 7.51465 3.10504 -0.37178 -1.76018 -0.687766
3106 13.6426 7.56605 3.82016 2.06956 1.18802 0.410632
1866 14.437 8.2453 3.6984 0.827278 -0.0637791 -0.204103
423 16.2964 7.96402 3.06387 0.114028 1.40255 0.0572879
1248 16.2128 7.56454 4.42154 0.151553 -0.684753 -0.319496
3415 15.1125 7.65659 4.44541 0.870236 1.22206 -0.91436
3054 15.456 8.33189 3.53358 -1.12617 -1.32255 -1.36441
467 16.8767 8.29476 3.96658 0.54255 0.941369 1.87569
556 0.757148 0.925836 5.117 -0.892577 0.999171 1.04881
1476 1.52416 0.416181 5.85422 -0.815564 -0.497623 0.922023
3032 2.07808 0.853101 4.95583 -0.068318 1.07993 0.0885476
2876 2.99214 1.2571 5.36591 0.695377 -0.521632 -0.178959
2209 2.9905 0.536044 4.52985 -0.198953 -1.1532 -0.340149
3955 3.9254 0.833565 4.82423 1.06336 2.23855 -0.0489991
886 3.14438 0.130061 5.52487 -0.9201 -0.547959 -0.737671
1301 5.15251 0.514598 4.50314 -1.19591 1.43037 0.0290222
1070 5.32321 1.07694 5.67073 -0.65334 1.063 -1.8371
3289 6.89232 0.676567 4.53181 1.06025 0.665295 -0.663696
2352 6.13099 0.0030768 5.20765 -0.00603662 -0.686872 0.383047
114 7.41453 0.0200227 5.91542 0.365844 1.00976 -0.636299
2155 6.06086 1.30705 4.84143 -1.5632 -1.17174 0.313885
2434 7.25251 1.33524 5.45239 0.603057 0.692428 -1.39707
3283 8.45508 0.667754 5.78709 -0.64137 1.19417 -0.598489
3744 8.27236 1.28659 4.56945 -0.229466 -1.10876 -0.503754
1317 9.01908 0.315768 4.5882 0.553971 0.43886 -0.786283
3392 9.49023 1.08295 5.00568 0.608059 -0.134006 0.456908
3197 9.58765 0.40062 5.86539 -1.55089 -1.0889 0.137816
2384 11.3041 0.328596 5.80061 -0.892067 0.24221 0.44651
1481 11.546 0.745496 4.48692 -1.36095 -0.69752 -0.271834
2534 10.8597 1.41818 5.45147 0.0875138 -0.338725 0.342613
3851 12.2234 1.38656 4.92623 0.0196169 -0.172579 1.1572
2653 12.2863 0.832487 5.79275 -1.53932 -2.14215 -1.20293