ITEM: TIMESTEP
51000
ITEM: NUMBER OF ATOMS
4000
ITEM: BOX BOUNDS pp pp pp
0.0000000000000000e+00 1.7878070701931353e+01
0.0000000000000000e+00 1.7878070701931353e+01
0.0000000000000000e+00 1.7878070701931353e+01
ITEM: ATOMS id x y z vx vy vz
773 0.532846 0.194167 0.635981 0.0911428 1.01855 -0.381836
114 1.13139 0.787764 1.40899 -1.04229 -1.00038 1.81877
2492 2.14078 0.527432 0.759499 -0.587962 -1.58686 -0.942215
2160 3.45095 0.750486 0.223818 0.732553 -1.16545 0.542332
2061 3.18891 1.35402 1.39875 0.855846 0.552073 -1.58632
1654 5.45238 0.641409 0.156942 -0.15772 0.748983 0.0318681
3077 7.03844 0.192581 1.24783 2.29945 -0.215531 -0.794279
825 6.21573 0.78169 0.981948 1.82287 0.297043 -1.45842
2497 7.03037 0.56707 0.00537859 -0.378626 -0.380754 0.138719
3648 7.48229 1.22604 1.22888 -0.0791287 0.130764 0.11804
1419 8.33078 0.273519 0.111314 -0.463308 -0.340948 0.589762
1900 9.8215 1.26148 0.959236 -1.17268 -0.219743 0.212695
1061 9.2833 0.295079 0.686707 0.29357 0.275986 -1.93303
3455 10.4656 0.424215 0.742413 -0.793963 -0.583401 1.21698
63 11.5679 0.286111 0.33214 0.0437715 0.941016 -1.45255
2571 12.9718 0.820469 0.102008 0.530049 -1.12521 0.72763
3330 12.175 0.475455 1.47184 0.995041 0.425408 0.421061
1691 13.2306 0.655959 1.42134 -0.123746 -1.04399 -0.255212
2048 13.9978 1.00702 0.71229 0.102825 2.5785 1.22483
2667 14.7457 0.993525 0.0470513 -0.959922 0.811706 -0.0848911
2882 15.2722 1.22795 1.07105 -0.375128 -0.836741 1.47583
2765 16.1674 0.477976 1.18276 -0.172226 -1.13201 0.437591
2630 15.8495 1.36477 0.225793 0.980596 -1.20459 -0.049397
3843 15.8657 0.218467 0.25601 1.00856 -0.25736 0.432717
1432 15.0413 0.0238451 1.05237 0.173161 0.162368 -1.54428
1638 17.8225 0.997709 0.193358 0.159914 -0.32928 -0.799646
3034 16.7668 1.07221 0.614276 -0.983599 1.41505 -1.10592
2155 0.840771 2.56162 0.989921 -0.535453 1.50944 -1.47503
1619 1.13073 1.594 0.661019 0.539784 0.563016 0.323241
1081 0.0786891 1.79649 1.19742 0.372528 -0.663852 1.07522
2546 0.302912 2.12854 0.221076 -1.81515 -0.0400196 -0.723042
2407 2.00601 1.50165 1.1945 0.356388 0.907593 0.850101
2069 2.86216 1.81341 0.412051 0.573297 -2.00067 -1.03479
1733 1.77227 2.6591 1.33854 0.438456 0.801367 0.861751
3836 1.53977 2.44613 0.0660737 0.830843 2.64699 0.0960378
1318 4.05817 1.52447 0.119718 1.09666 -0.760273 0.38576
3618 3.31269 2.3994 1.1483 1.20757 -0.590581 -0.64766
1862 4.65148 2.39533 0.929639 -0.370025 -1.13157 1.41836
2791 5.22751 1.52204 0.915491 0.102813 -0.100032 -0.0397405
1657 5.82351 2.67495 0.348797 -0.509011 -0.766449 1.12522
2716 7.03994 1.97069 0.374713 -0.161926 -0.445228 0.498811
1776 6.23601 1.91962 1.12948 0.995648 0.876953 0.344988
1722 8.10616 1.51986 0.0195043 -0.967001 -0.573532 -0.0444431
278 8.6705 1.95428 0.85385 0.314182 0.239782 -0.197108
3211 7.79778 2.58945 0.740135 0.300836 -1.31714 0.353198
2663 8.63686 2.68698 0.112071 1.61463 -0.822294 0.482061
2305 9.71898 2.48061 0.651256 2.4951 0.300905 -0.435595
3475 9.20781 1.70213 0.00465433 1.8406 -0.721266 -0.528976
2466 11.8002 2.2398 1.00626 0.416988 0.463218 -2.14268
679 10.7511 2.20663 0.896003 0.280686 0.171942 -0.285918
564 12.7925 2.64176 0.782945 0.376502 0.857365 1.58159
2823 12.4132 1.89337 0.159125 -0.306146 1.29998 -2.34192
2634 13.7291 2.93306 1.075 2.23578 0.164992 0.586879
71 13.4745 1.94622 0.13671 -1.18447 -2.60414 0.00290465
290 14.6208 2.15296 0.505094 -0.184727 1.67893 -0.566606
2194 14.8233 2.96087 1.37741 -1.16921 -1.34841 -0.621996
1065 15.5428 2.34577 0.875252 1.25868 -2.27068 -0.410629
1452 16.5046 2.87357 1.25123 1.19259 -0.303571 -0.488145
1059 17.4908 2.91488 0.601445 0.0365118 0.0151724 -0.799693
441 16.7414 2.09069 0.219671 -0.599019 0.0291667 1.36338
1993 0.87211 4.45087 0.138858 1.28086 -0.833978 -0.285021
198 0.288267 3.67693 1.26423 -0.901355 -0.666553 -0.0857985
2935 2.32279 4.09154 0.364858 0.426113 -0.632246 -0.646506
1819 1.50322 4.35169 1.12564 0.655119 -0.591545 -1.13284
528 2.44905 2.99162 0.454172 -0.0364342 0.623123 0.466463
3664 2.10259 3.59871 1.4398 -1.08789 -1.23897 -0.433123
3182 3.16328 3.62226 1.00615 -1.50811 -1.54991 -0.664774
1923 4.29139 3.88558 1.41172 0.25387 -1.28294 -0.531857
2231 4.17818 4.21914 0.246762 -0.484831 0.570896 -1.06132
1941 3.59451 3.39548 0.0558595 0.335311 -0.363985 2.37191
2873 4.80738 3.35882 0.571729 0.108072 -1.11728 -0.107961
3641 5.41264 4.15687 0.0983951 -1.02479 -1.01285 -0.85701
2423 7.25164 4.36255 0.915453 -1.11259 -0.0776332 -1.03527
455 6.47443 3.55666 0.666293 1.53319 0.686546 -1.81226
834 8.95126 3.40421 0.710367 0.687906 0.0296275 0.0436791
1903 10.2067 3.36383 1.06094 -0.832359 -0.892117 0.14295
2356 11.7483 3.66898 0.467277 0.35626 0.0815231 0.001407
3982 11.2356 3.2453 1.44854 1.15139 -1.57933 0.469305
2756 12.7898 3.76413 0.814901 -0.508684 -0.24046 0.571373
1403 14.5029 3.23188 0.253284 0.0575041 0.759741 -0.740615
1940 13.9546 3.93062 1.11482 -0.697387 0.893355 0.721986
3885 14.44 4.36174 0.164094 0.313431 -0.698213 0.90104
1808 15.4528 3.63995 0.740601 -0.259168 -0.37859 -0.761114
946 16.3848 3.46843 0.365484 1.91068 0.383725 1.71596
1128 17.0065 3.99676 1.10267 0.149445 0.803962 0.908875
2769 0.489012 5.89941 1.08986 -0.23991 0.327327 -0.354433
2968 0.900306 5.73537 0.200491 -1.73429 -1.31529 -0.169913
2731 0.411927 4.77412 1.41302 0.968732 -1.29935 -1.71318
238 1.97001 5.1402 0.549253 1.50313 0.745246 -0.157484
3083 3.21601 5.55893 1.47672 1.10719 1.31304 1.3208
730 2.9811 5.51662 0.25223 -1.24869 -0.19513 0.416028
1801 4.05344 5.28195 0.912725 0.714177 0.29077 0.0876744
1640 3.21427 4.63427 0.638245 -0.673995 -2.26833 -0.779608
2179 5.93813 4.56159 0.913713 -0.728712 -1.79102 1.27993
2472 4.92425 4.67809 0.820094 -0.567978 0.568283 0.115116
1561 5.60602 5.4226 0.482549 -1.07034 0.180951 -0.615445
3474 6.72447 5.42281 0.960925 0.325049 -0.679774 -0.747785
508 8.20218 4.57888 0.655779 0.193256 -0.251252 -1.26309
1235 8.61225 5.87863 0.434505 -0.879456 0.258333 -0.394827
3876 8.93395 5.3516 1.17686 -0.706611 -1.04437 1.68661
1539 9.9023 5.29922 0.802556 -0.178737 -1.61115 0.414814
7 9.19033 4.87582 0.157796 1.1998 -0.270668 0.918451
2053 9.51884 5.91787 0.0229517 -1.2012 -0.610971 1.19197
556 11.5256 5.50462 0.457632 0.845498 -0.190759 -2.08265
1515 11.0332 5.92552 1.41405 0.133594 0.708778 0.147687
2285 13.349 4.67209 1.05688 -0.347065 -0.0670503 -1.34852
1943 13.0929 5.88526 1.08722 0.22033 0.22964 0.767075
714 12.2076 4.86599 1.06291 0.263956 -0.403632 -0.564133
2657 13.6695 5.36935 0.303567 0.506155 0.147463 0.226652
6 14.5777 5.57427 1.01121 0.284099 0.949769 -1.4879
816 15.1726 4.71826 1.27768 -1.87537 -1.2822 -0.248966
423 16.2556 5.79036 0.896177 -0.520453 0.89121 0.0576986
975 16.2438 4.80598 0.704365 -1.65052 0.0276436 -1.69102
1731 15.2928 5.19236 0.286456 0.594246 -0.756372 0.109393
2345 17.7914 4.57646 0.517802 0.420637 0.273488 -0.707174
1343 17.1653 5.09194 1.2131 -0.00254758 0.790046 -0.531901
19 0.158323 6.58335 0.0197637 -0.821836 -0.378349 0.252332
3940 1.44058 6.5422 0.684543 0.43873 0.909587 1.04069
8 0.427529 7.01984 1.17174 -0.167858 -0.432759 1.02698
1115 2.60855 6.99975 0.794511 -2.28736 -0.618759 -0.927314
1222 2.25705 6.09699 1.24573 0.754952 0.205574 0.983795
1316 3.6572 6.31819 0.884127 0.442847 1.23745 -1.61615
1687 4.31487 7.20719 1.38101 -0.457145 -0.454495 -0.155615
123 4.59782 7.21838 0.048535 0.149819 -0.942121 -1.37908
2596 4.99704 6.32824 0.769593 1.27554 -0.0612523 -0.9118
2926 6.72961 6.85768 0.404302 1.24755 -0.123041 -0.263759
1588 7.7473 6.5383 0.416301 -0.0128544 1.64399 1.80447
2291 8.57784 6.50435 1.41868 0.845541 -2.26836 1.21884
496 8.327 7.44682 0.511175 0.074359 -0.730199 -1.15377
2980 9.28838 6.9052 0.631905 1.25079 0.524156 -0.58043
1725 10.3286 6.47795 0.539541 0.917278 0.769238 0.119829
2068 11.0768 7.21592 1.15515 -0.6687 -0.268157 0.263842
3976 12.2989 6.28928 0.222664 -1.87738 -1.45697 2.79323
3573 13.1152 6.77589 0.468155 -0.389343 -0.204233 0.153401
3364 13.9068 6.55781 1.27989 -0.71473 -0.654892 -0.635518
2450 14.6031 6.22208 0.164114 -1.08457 -0.880474 0.343775
2622 14.9967 6.73699 1.47909 0.444683 -0.521701 -0.413319
3560 15.8686 7.14999 0.459258 -2.41676 -0.54336 -0.660326
3235 17.0915 7.08222 0.43472 -0.33851 -1.48606 -0.0379686
3619 16.6071 7.30024 1.39391 1.04603 -0.255149 0.37654
1905 17.3176 6.12207 0.795365 -1.4036 0.545409 -0.0183069
1355 0.813564 8.26454 0.940708 0.769702 1.62997 0.172314
2914 0.166904 8.0674 0.0735434 1.13222 0.574991 1.37321
1198 2.64461 8.86841 0.952596 2.54362 0.400978 -0.0378459
3450 1.90717 7.75738 0.697698 -0.20222 1.33287 0.107665
860 2.66964 8.17251 0.00923116 -0.736319 1.65001 -0.0120524
3395 3.70026 8.85889 1.06603 0.222677 0.112765 0.527843
1192 3.98006 7.80544 0.618843 0.788798 1.56684 -0.441069
2317 5.63568 8.88343 0.833737 0.22614 0.664041 0.4521
1743 5.22379 7.76336 0.909637 1.61657 -1.0298 -0.10217
2007 6.54885 8.28913 1.2265 0.801692 -0.149505 -0.17123
2539 6.17122 7.95828 0.219482 -0.187794 1.33582 -1.83885
3832 7.54296 7.48022 1.385 -0.472601 0.266092 -0.429553
3984 7.60623 8.49397 0.881337 1.15864 -0.949562 0.471979
1094 8.56507 8.55743 0.443743 0.68047 0.110125 -0.759891
1298 10.245 7.54053 0.566766 0.514559 -0.793285 0.780791
2406 9.62543 8.91145 0.548113 -0.112534 -0.857389 1.48808
1426 9.26653 8.09575 1.05224 0.712646 -1.24096 0.392081
2624 9.43843 7.86784 0.0140934 -0.942552 -1.75141 2.01989
1159 11.8542 7.57887 0.251514 -0.190937 0.980473 0.385582
3422 10.7707 8.58692 0.757813 -0.507599 -0.84369 0.0457269
643 12.9084 7.79238 0.728093 0.715093 0.031459 0.152544
579 13.0055 8.7313 0.214536 0.36732 0.307107 -1.71118
1016 11.9721 8.44636 1.02129 -0.0358016 1.26791 0.18681
3878 13.7628 7.56257 0.170563 1.21928 -0.997891 0.790661
513 14.8667 8.70338 0.97309 0.18951 0.69035 1.42288
2467 14.7533 7.57596 0.441333 0.116253 -0.694303 -1.20276
307 13.9416 8.32538 0.803632 -0.785636 -1.63943 -0.888979
1474 15.5747 7.83122 1.27873 -0.429248 -0.0538137 -0.447754
3765 16.2838 8.31319 0.599416 0.424242 0.995722 0.414779
149 17.3792 7.91873 1.25476 -1.18399 1.18527 -1.71185
2572 0.289391 0.681499 2.0551 -0.70871 -1.55443 -0.455239
1055 2.89191 0.370349 1.5011 -0.834342 -1.10005 1.27268
3016 2.73983 0.857224 2.59837 1.40702 1.02816 0.465484
2042 1.80245 0.0687217 1.79511 -0.640443 -0.820339 -0.260342
2495 3.61978 1.4618 2.56923 0.523857 -1.90489 -0.314839
1049 4.40148 0.704072 2.54446 1.4746 0.107166 -0.610665
538 3.58468 0.048136 2.23785 1.08796 0.732093 2.05553
1639 5.24332 0.747644 1.69131 0.242039 0.153399 0.583647
1387 5.76992 0.789149 2.53367 0.310647 1.82273 -0.327535
902 6.73188 0.990696 2.28713 -1.89271 -0.409141 -0.0310354
437 7.72715 0.566845 1.94964 -0.646925 0.000143762 0.214997
79 10.1031 0.650415 1.80582 0.300947 -0.838385 -1.29967
3502 9.07627 0.427976 1.84508 -0.204796 0.914444 -1.82709
2452 10.9949 0.95497 2.49996 0.141135 0.447929 0.468657
1803 11.2232 1.45141 1.5915 0.569273 1.07607 0.366885
2060 13.3085 1.24249 2.74994 0.738925 0.392133 -1.46079
647 12.2619 1.20804 2.60686 0.580172 0.704719 0.487219
3739 14.0608 0.285441 2.60851 0.6464 0.492711 -0.884752
1524 14.4409 0.830427 1.68441 0.839226 0.628484 0.567366
2279 15.4073 0.466357 2.01103 -0.0881303 1.65832 0.938652
1199 15.5785 1.40818 2.53847 0.18989 0.641417 1.52953
2242 17.2302 1.22524 1.69686 0.669701 -0.704381 -1.52595
2313 17.2001 1.19583 2.91342 -1.33554 0.0964323 1.20433
1438 16.4787 0.781724 2.29949 0.449338 0.292651 0.215842
305 1.20269 1.51476 2.38153 0.669414 0.440465 -0.00818166
3300 0.968206 2.3668 1.94309 -2.31691 -0.788764 -0.519664
1479 0.109438 1.75302 2.45731 -1.07903 1.36338 1.62136
2482 2.70559 2.21973 1.97979 0.941694 0.431046 1.44838
1920 4.0667 1.97594 1.58497 -1.51602 -1.0517 -0.202439
2368 4.46002 2.7482 2.81515 0.290915 0.184166 -0.295357
3851 5.70446 2.54992 2.96991 0.850257 -0.966842 0.168394
1651 4.7441 1.78384 2.69588 -0.820441 -1.58151 0.173144
312 6.19231 1.84941 2.21077 -1.26859 -2.04893 -0.536761
1374 7.42457 2.07956 1.75626 0.787226 -0.627692 0.479301
3439 6.03453 2.6949 1.79398 0.611572 -0.773662 1.11887
880 6.98723 2.54003 2.58497 -1.1304 -0.171168 -0.614828
1773 8.45329 1.63933 2.66474 -0.0526288 1.11127 -1.94604
1614 7.92239 2.52118 2.57228 1.48417 0.00880652 -0.30562
3090 9.28159 2.54604 2.63978 0.276039 0.519448 -0.564257
1833 9.42821 1.68226 1.90729 -0.131288 0.802099 0.0234109
669 9.12606 2.75456 1.53273 0.855285 0.229675 0.918307
266 10.233 2.59714 1.72778 -0.617631 -1.00673 -0.265892
3989 10.7094 2.04197 2.4594 3.01861 0.302888 -0.462965
2289 12.8203 2.86038 1.85986 0.603864 -0.092425 -0.852482
75 12.8896 1.64735 1.59932 -0.927852 1.63315 0.511789
414 11.9381 2.24803 2.11272 -0.315971 1.74785 -0.491798
919 13.5293 2.74761 2.83232 2.43706 -0.919912 0.108553
2084 13.9184 1.92386 1.69117 -1.08743 -0.350315 -0.57588
1394 14.5007 1.95741 2.73326 0.293302 0.628871 1.14569
1890 15.4012 2.42314 2.91006 0.337829 0.842661 0.523721
435 15.7018 2.9119 2.05733 -1.82779 0.205999 0.986314
718 15.0372 1.94846 1.81058 0.153458 -0.320371 0.321069
39 16.3307 1.77528 1.89272 1.42631 -0.448652 -0.0910535
2640 17.862 2.72465 1.74809 -0.76313 -0.741952 -0.843859
3093 16.4952 2.86703 2.6412 0.624427 -1.85724 -0.8439
1364 0.970775 4.14271 2.02247 0.941134 -0.504574 1.43893
3777 0.459005 3.36425 2.42105 0.630737 -0.106322 -1.19367
363 2.72291 3.29144 2.60995 -0.682453 -0.418311 -0.618011
2243 1.59326 3.25217 2.37056 -0.673688 -2.91242 -0.225454
1157 2.0344 4.37323 2.45792 -0.441041 -0.256628 0.1531
360 3.59549 3.12112 1.79024 -0.400281 -0.226617 1.15017
3934 3.22955 4.0501 1.93325 -1.32933 0.542221 0.386275
529 3.64728 3.43074 2.87053 -0.251921 -1.14356 -0.520988
2532 5.55992 3.77485 2.66361 -0.101141 -2.22644 -0.467465
2159 4.96674 3.09487 1.75565 0.554311 -1.00885 -0.239025
3607 5.0393 4.39554 2.14825 -0.826149 0.244571 -0.63448
810 4.59901 3.88911 2.94209 0.542503 0.0254178 -0.909781
3841 6.40809 3.88328 1.94692 1.63958 -2.90684 -0.420651
1763 7.1431 3.11999 1.55626 0.927696 0.0514802 -1.07218
2027 6.77532 3.50758 2.8599 0.687977 0.0700202 0.562195
3882 8.25588 3.21768 1.75623 1.32578 -0.216164 1.13295
3686 7.65374 4.0925 2.47104 0.435025 0.323819 1.80988
91 8.53146 4.33252 1.83722 -1.48629 -1.32464 -0.575279
3391 8.6788 3.57187 2.7541 -1.47496 -2.55178 0.116161
3578 9.4696 3.68912 1.72385 -1.24973 2.15276 -0.470553
724 10.4034 4.40028 2.4029 0.845038 -0.884786 -2.729
1098 11.7459 4.37714 2.77797 -0.524367 -0.968299 -0.59787
274 10.5754 3.26762 2.43667 -0.547211 0.0880735 1.44885
3950 11.5728 3.13469 2.59798 0.440205 -0.983509 -1.19318
429 11.999 3.91058 1.82591 -0.623515 0.370078 0.520943
1513 12.5604 3.40983 2.70206 1.01285 1.06491 -0.0832495
2856 13.0944 3.93116 1.89403 -0.722646 1.2378 -1.01288
1754 14.6992 3.42731 2.22751 0.855089 -0.772734 -0.725271
2366 14.1652 4.42723 2.25611 -2.12574 -0.982338 -1.54439
1875 15.4631 3.86613 1.78173 -0.453886 -1.7803 1.64574
2314 15.5971 3.42954 2.88837 -0.760839 -0.293247 -0.633924
1231 17.1313 3.31255 1.94247 0.696855 1.73229 0.639141
2137 16.4352 4.06024 2.29077 2.0373 -1.2251 0.48224
715 17.4651 4.41377 1.98885 0.0807829 -1.99705 1.20069
43 1.40509 5.36549 1.58076 -0.43018 -1.11405 0.610969
673 0.405676 5.5294 2.18524 -0.334973 0.0300391 0.931705
3444 1.09697 5.16064 2.92095 -2.3428 -1.01571 0.406099
1470 2.40118 4.82009 1.564 1.20405 0.504147 1.03971
1266 2.00393 5.68898 2.68149 -0.885096 -0.424372 -0.554321
3329 3.16164 5.36367 2.82011 -0.185991 -0.997771 0.172343
3258 4.06492 4.82606 1.88086 -2.63857 1.78726 -0.220941
2503 4.28414 5.95024 1.93946 -1.6452 -1.61031 -0.443792
2746 5.9009 4.90713 2.61815 0.66009 0.405091 0.316009
3304 5.66764 5.41549 1.58759 0.171625 -0.723273 -0.0438325
2147 4.86059 5.21226 2.80394 -0.580611 -0.762482 0.784751
881 6.63352 5.90273 2.33358 0.633837 1.52909 1.32692
425 6.81522 4.86899 1.93636 0.0988248 1.14475 0.779554
1164 7.91035 5.16426 2.05454 0.890911 2.14438 0.326742
997 8.6965 5.90894 2.4264 0.166888 -1.94509 0.533701
2227 8.72239 4.69225 2.90264 0.651872 -0.519433 -0.739453
2417 9.74254 4.77312 1.82034 -0.476776 -1.02597 -0.19288
1475 9.68064 5.89278 1.63621 1.14472 0.55042 -0.0866534
1500 9.56654 5.34507 2.73664 -1.1661 0.658859 -0.0218072
3852 10.8675 4.85961 1.53186 1.47691 -2.5155 -0.397279
3585 10.5669 5.44868 2.4171 -1.30547 -0.581822 1.96766
3194 11.5851 5.36102 2.75831 0.266156 -0.430243 -0.373142
3884 13.1841 4.95216 2.06275 0.567383 -0.923426 -0.100157
1154 12.5875 4.95949 2.90506 -2.54 -0.410434 -1.28643
1689 12.3339 5.6743 1.8448 0.58836 1.51038 -0.925706
2510 13.8509 5.63922 1.87211 -0.057963 1.43522 -2.41585
1217 14.5686 5.32743 2.80534 1.35557 -0.0799552 1.65687
392 15.3208 4.76891 2.39362 0.764263 -0.596939 1.09707
135 16.2361 5.37127 1.79991 2.2852 0.572014 0.528242
1004 15.1059 5.6353 1.86251 0.100445 0.346529 0.0431233
2163 17.049 5.3783 2.36787 -0.0817197 -0.95874 -2.44058
2056 1.09346 6.39686 1.81776 -2.04157 0.167466 0.704232
784 0.972103 6.28832 2.77256 -0.211664 0.246653 -0.900607
3376 2.3713 6.93991 1.98798 0.218155 0.412728 -0.834383
771 1.83271 7.05484 2.85513 1.28275 0.134225 1.97559
2614 1.49533 7.40177 1.51654 -1.01701 -0.138968 2.06505
2283 4.26083 6.39935 2.85571 0.956638 0.06814 -0.193474
2613 3.38071 6.37611 2.10279 0.0165539 0.340846 -0.401924
3715 3.86793 7.40152 2.70669 -0.771543 -0.728903 -0.936737
9 4.80779 7.39199 2.24407 0.035712 0.641224 -1.03536
2183 5.24954 6.39135 2.10362 0.138265 1.56844 -2.01403
3861 6.54198 6.81689 2.89324 0.141601 -0.56587 0.826066
708 6.30854 6.94174 1.73033 1.25805 0.949663 -0.217674
3374 7.27703 6.29916 1.4916 0.876088 1.51504 0.631065
3301 7.48545 6.96099 2.35325 1.56259 0.555739 2.79436
3653 10.3321 7.32231 2.36782 -1.12295 -0.512373 0.362809
2130 9.51614 6.97555 1.75365 1.67664 -0.0225748 0.165899
2801 8.96651 7.01521 2.73434 0.653004 2.02529 0.90938
3476 10.0304 6.48098 2.8936 0.484422 -0.156124 0.0143959
2277 11.8564 6.83433 2.49332 0.674547 0.0668802 0.264119
968 10.9307 6.38941 2.3758 -0.528571 -0.111911 0.249549
1433 12.9902 6.55799 1.9616 -1.11387 0.84511 -1.23406
3073 12.248 7.31522 1.59344 -0.187605 0.614132 1.20147
466 12.7955 7.19009 2.9381 1.55945 -0.445557 1.00517
2033 12.5355 6.05595 2.86979 0.998332 0.6008 -0.248994
733 14.2344 6.41831 2.67664 0.152045 0.0893743 1.13725
3156 15.6067 6.08387 2.73827 0.62717 0.343513 -0.310073
3742 16.0371 6.48795 1.75567 -1.32316 0.603357 -0.907932
2234 16.0606 7.29121 2.58423 -0.314785 1.70041 -0.534496
48 14.9841 7.3338 2.18727 -1.4304 -1.33912 -0.488472
1258 17.4143 6.38084 1.85246 -0.536226 -2.11798 -0.231755
3482 17.7927 6.59722 2.94477 -0.169607 0.139316 -1.96454
742 16.7621 6.54447 2.60873 0.115756 1.39447 0.741458
1758 17.2859 7.39364 2.41896 0.54366 0.542848 0.222146
1896 0.0237884 8.58592 2.5959 -0.516707 -1.36368 0.369415
1567 0.627467 7.81848 1.95354 -0.180185 1.20832 -0.472002
3967 1.3433 8.70547 2.13246 -1.76725 1.3347 -0.0251627
2937 2.14753 8.1891 1.57335 -0.878355 -0.400753 0.174259
3 2.58853 7.9149 2.54039 -0.921491 -0.852848 -0.694419
1898 3.37859 8.00958 1.79871 -0.813378 0.0742065 0.264145
3416 4.33444 8.20423 1.78218 -1.50939 -0.465006 -0.290348
3371 5.67647 8.15909 1.86655 -0.544531 1.73857 0.472798
3911 5.72747 7.64366 2.91299 0.226996 -1.44558 0.591242
3454 6.73187 7.84691 2.39808 0.844275 -0.96105 0.17111
1949 6.04604 8.63541 2.88808 0.937374 -0.645738 -1.40619
1282 7.56241 8.56772 2.00761 1.9513 0.816274 1.728
2422 8.42412 7.71323 1.91549 -1.29169 0.226699 0.0705183
3694 8.69416 8.56556 2.69157 0.27285 -0.596981 1.56939
2797 9.77276 8.46757 2.56797 0.260211 2.3164 -0.229076
1414 11.1131 8.60782 1.78759 0.81146 -1.3196 1.40503
2846 11.738 8.79151 2.71506 -0.923627 1.01853 0.925068
1814 12.4792 8.37232 1.93846 0.509732 -0.901046 -0.717346
2752 13.2831 8.64436 2.97627 -0.76627 -0.418109 0.327114
2750 13.4938 7.60616 2.2151 1.7987 -0.863817 0.736047
247 14.4437 8.63215 2.33808 2.35522 -1.87251 -0.465108
747 16.2161 8.22831 2.01808 -0.767605 0.308729 0.186921
1951 0.287671 0.512175 3.05743 -1.0656 -1.94478 -1.45504
1859 2.01339 0.261654 3.0721 0.24579 0.929319 -0.697606
492 1.81375 1.36453 3.42888 1.41579 0.474994 -0.898345
469 1.83954 0.584561 4.3301 -0.29235 -0.198955 0.573798
819 3.14482 0.692831 3.58555 -2.10683 1.31872 0.939872
1022 4.04694 0.199361 3.40999 -1.04548 0.195981 -0.237675
3992 5.64847 1.12117 3.54498 1.24272 0.646311 0.69301
1499 5.19393 0.125791 3.48491 -0.302893 -1.10953 1.139
2818 5.01033 0.667582 4.38014 -0.260353 -0.582355 0.489018
3379 4.51092 1.23599 3.64623 0.527075 0.340184 0.897642
1964 7.28466 1.36238 4.11385 -1.18182 1.31192 -1.2251
1306 6.53817 0.580392 3.82135 0.127834 0.48219 -0.935016
1617 7.38024 0.177089 3.2954 -0.403333 0.0981127 -0.632393
3021 8.03191 0.118921 4.31072 0.450396 -1.78411 0.485043
2067 7.60914 1.08851 3.08842 -0.0615914 -0.104096 -1.17103
666 8.4455 0.750229 3.54632 0.232365 -0.321641 -1.03609
554 9.37178 1.21226 4.23022 2.35486 -0.121378 -0.500871
1852 9.49159 0.729502 3.22057 -1.80125 0.534225 0.125047
1956 10.5987 0.750914 3.40272 -0.86022 0.461362 -1.57286
1669 11.6338 0.765451 3.57546 -0.604856 -0.633241 -0.904855
1434 12.6167 1.2254 3.73417 1.35297 0.311025 -0.0292864
3255 12.4499 0.14653 4.16384 -1.40164 1.02892 0.349057
2086 14.7058 0.838885 3.16864 0.708486 -0.488672 0.230543
3269 13.9978 1.38933 3.61409 0.698735 -1.55089 0.735547
2105 13.7394 0.416336 3.80394 1.60432 1.42853 -1.2713
1816 16.2175 0.121816 4.1949 -0.855548 0.453462 -0.314564
2861 15.7661 0.592638 3.28319 0.655052 -0.0166145 0.487023
3994 16.9261 0.302261 3.33776 0.0120784 0.415543 0.544472
1042 16.7541 1.1111 4.16821 -0.0855152 0.838363 -0.455968
2688 0.240537 1.58739 3.67956 -0.56665 0.867309 -0.392467
3839 0.0797734 2.89224 3.76335 0.979686 -0.648344 -1.18793
2710 1.29439 2.47992 4.3652 -1.22666 -0.514695 -1.98795
1060 0.817497 2.56449 3.13376 -1.46062 -0.283615 1.49685
3690 2.06539 2.47545 3.46177 -2.12473 0.187835 1.66271
1319 2.12434 1.6986 4.38729 0.0642836 0.51452 -0.521233
86 3.39399 2.38265 3.23822 -0.0490883 -1.32387 0.266321
1024 3.98667 2.16432 4.33503 -0.544445 1.46059 0.877875
2837 4.86065 2.18713 3.79445 -0.177023 0.516569 0.0281425
428 5.69847 2.6323 4.27339 0.998896 1.33421 0.619411
732 6.65861 2.5306 3.6509 -1.48913 -1.74608 -0.543711
1101 6.27611 1.759 4.35307 -1.74764 1.14058 0.171891
501 6.65248 1.5345 3.26281 0.450356 1.33129 -2.00348
15 8.69956 2.73375 3.67643 -0.63408 -0.814494 0.828023
2816 8.15326 1.90793 3.52141 -1.25722 0.354412 0.494019
390 9.401 1.90671 3.52549 0.0459076 1.39692 -1.33599
3569 10.0353 2.86833 4.39632 0.199214 2.43405 0.893556
1185 10.4978 1.65327 3.95448 -0.94471 -0.595701 1.53256
1112 11.64 1.75653 3.82611 0.389392 1.40087 0.635291
2535 10.9466 2.36722 3.3215 -0.127261 2.56138 0.770814
703 12.5624 2.07672 3.20894 0.530936 -0.128484 2.38643
3663 12.5718 2.16811 4.45951 -0.761866 0.087551 -1.31272
413 14.4162 2.72148 3.40601 -2.71423 -0.861966 -0.449617
1189 13.4335 2.22206 3.9515 -1.43779 2.35406 -0.00547931
3023 16.3509 1.66246 3.31956 0.11561 -1.91007 0.630794
520 15.225 2.93203 3.93434 1.37273 -0.282979 -0.868629
415 16.1821 2.62783 3.74162 -0.461892 -1.03703 0.961406
110 15.0594 1.69729 3.72521 -0.357299 -0.647134 -0.810006
2952 17.1539 2.05754 4.1025 0.568961 -0.824494 -1.52696
802 17.2994 2.29238 3.05725 0.224843 1.10786 0.183623
13 1.03811 3.62649 3.36556 1.20111 -0.597067 -0.767828
1517 1.47984 3.49234 4.39138 1.01066 1.24615 0.535743
1262 2.9551 4.33659 3.11617 -0.219491 -0.383823 -1.19487
1531 2.29951 3.54552 3.63752 0.436841 0.417843 -2.05037
382 4.31094 4.02991 4.29498 -1.20115 0.0515327 -0.768344
219 3.34015 3.60848 3.856 -1.58003 0.284441 1.10844
3248 4.86609 3.26544 3.947 -1.01296 0.850232 -0.682355
2441 6.06261 3.49637 3.72191 -0.582367 -0.816225 0.29956
3066 6.91628 4.16865 3.82756 -1.52387 -0.653335 0.149369
217 7.55521 3.23068 3.90103 0.765943 0.427255 -0.378169
2111 8.87818 3.95071 3.92481 -0.772783 0.871382 1.27834
2271 10.3883 3.93064 4.2889 -0.0863998 1.28476 -0.237927
2449 9.7553 3.17753 3.48702 0.69845 0.288824 0.114968
34 11.4569 4.05928 4.25454 -0.77846 0.33478 -0.761238
2803 10.8637 3.48839 3.43152 -0.706097 1.7113 0.510504
3452 11.8989 3.045 3.5924 -0.107141 -0.206383 0.283401
656 13.0145 3.18556 3.69431 1.02587 0.0416834 1.62796
58 12.5162 3.89488 4.21039 0.114716 -0.45145 0.15961
1931 14.0194 3.41265 4.09085 -0.378858 -0.861368 1.32285
1133 14.8228 4.44462 3.30137 1.16978 0.0997409 0.883973
1631 13.4248 4.14955 3.07277 -0.198347 0.321922 -0.4809
175 14.9982 3.85826 4.39415 1.17839 0.860868 0.0459442
177 17.2631 3.76408 3.03234 0.161786 -1.02037 -1.18754
657 16.9134 3.36388 4.27994 -0.653065 -1.05475 0.495398
205 17.7775 3.96551 4.14056 -1.69393 1.10577 0.20273
2577 0.0189498 5.26515 3.0567 0.255922 0.630647 1.5214
24 0.719145 4.49556 4.12706 1.21715 -0.82178 0.0485966
3859 0.778186 5.78138 3.75022 -0.548077 -0.265945 0.056197
2925 1.88543 5.50952 3.60391 0.100749 -1.01005 -0.327583
87 1.86 4.48852 3.44678 -0.898583 -2.47189 0.186806
389 2.97565 4.54156 4.16347 -0.491733 -0.118568 2.69584
1312 3.75815 4.82662 3.57999 0.636845 -0.177866 -0.332537
1406 5.2985 4.63774 3.55037 0.599957 1.06167 -0.362251
1647 4.47313 5.64309 3.78488 -0.882499 -0.416686 1.53527
2739 5.79728 5.66657 3.29797 -1.26167 -0.607533 -1.51136
3237 6.27368 5.44641 4.20121 -0.330867 0.244859 -1.01107
1767 7.95877 4.50183 3.64149 1.11476 0.157909 -1.59144
3377 7.95501 5.37258 2.9991 1.50194 -0.0728517 0.243247
3614 9.95254 4.69666 3.65449 1.89076 -0.466404 0.280709
2793 9.00107 4.99505 4.1376 1.2687 0.473452 -0.486587
2489 10.5129 5.10124 4.46291 2.15144 0.437067 0.846805
1392 10.9955 4.60985 3.35403 0.105023 -0.714754 0.0306065
861 10.5189 5.57012 3.49234 0.829055 0.179618 0.198814
1656 12.0772 5.18267 3.8925 -0.45829 -1.72616 0.0725742
3169 13.5175 5.44755 3.15034 0.56959 0.248816 0.79811
1674 14.6743 4.83924 4.3625 -2.07434 -0.432601 -0.251952
2116 13.7584 4.77261 3.89136 0.383798 0.165686 0.500213
2236 15.6894 4.62917 4.25932 0.643384 1.12727 -0.0469195
2588 15.9522 4.78304 3.20436 -0.427978 -0.0354891 -0.344536
3637 15.4742 5.56242 3.813 1.11623 -0.444077 -0.113207
2804 16.4716 5.74342 3.11904 -1.81695 1.10472 1.08982
2751 17.0356 4.64712 3.24865 -0.401948 0.385494 0.0318253
915 17.0143 4.57946 4.44092 -0.0211249 0.325128 -1.09078
1780 17.2659 5.51907 3.82609 0.33721 0.186807 -0.355434
694 0.520477 7.35087 3.14155 -2.1585 -0.182458 1.05317
377 0.723254 7.06879 4.11625 -0.457736 1.60495 0.465326
140 1.77207 6.67353 3.95494 0.0520482 -0.691305 -1.2579
778 2.77199 6.33617 3.1663 0.429868 0.546431 -0.90479
2318 2.87491 7.35759 3.44573 -0.372801 -0.131577 0.60077
2480 4.14642 7.01134 3.87127 2.13275 1.86807 0.350647
3424 3.2611 6.84848 4.29267 0.446074 0.116225 -1.07308
883 5.44885 6.90019 3.64927 -0.692302 0.68539 2.07964
3556 7.35935 7.24297 3.42737 1.21579 0.0681699 0.455153
3809 7.31929 6.18533 3.86942 1.17649 -1.14429 0.716114
1289 6.38075 6.86057 4.46472 1.478 -0.64929 0.678097
745 8.375 6.34446 4.09001 -1.01973 0.373568 0.620457
794 9.8971 5.9905 4.31603 1.29402 -0.487127 0.519093
1516 9.01894 7.11812 3.7923 -1.77629 0.0302688 0.0876103
1782 11.3555 6.05622 3.865 0.593266 -0.280039 0.682792
701 11.5738 7.02659 3.53708 -0.450697 -0.697054 -1.048
2182 13.0391 6.03708 3.88947 0.456813 -0.857704 -1.07416
2247 12.5153 6.89208 4.04924 0.705051 0.2714 -1.20236
1442 14.1108 6.49162 3.82694 -0.69928 0.285227 2.95464
2766 15.2177 6.95887 4.11276 -0.166042 0.677308 0.0628736
2025 17.6958 6.46974 4.19028 0.767963 -1.64261 -0.654835
903 0.882429 8.06698 4.01925 -0.369394 0.0213114 -0.487451
2943 1.42335 8.92073 3.19005 -0.687349 -0.296829 -0.328355
546 2.55931 7.95102 4.17288 -0.160666 -0.930396 0.321531
665 1.77719 7.95766 3.28256 -1.57328 2.03773 0.683453
2699 2.92328 8.80667 3.20912 1.04056 1.57209 0.935374
1328 3.85203 8.3298 3.38885 -0.0708029 -0.838771 -0.597775
347 3.98515 7.79512 4.46551 -1.01036 2.27663 -0.180206
1402 4.45091 8.70815 4.37301 1.05158 0.0335919 -0.339824
2302 4.92781 8.6615 3.16022 -1.07655 0.0190138 -0.0192207
3224 4.80471 7.75404 3.71145 1.63325 -0.727882 -3.07776
1765 5.54597 8.68688 4.15317 -1.93133 1.57141 0.313015
2853 7.25465 8.53453 3.04846 -0.678777 0.129429 1.56411
3308 6.12576 7.91837 3.87495 -1.35122 -0.872259 -0.0201898
2540 8.74302 8.14258 3.75502 0.8366 -0.595814 -1.17796
576 10.4211 8.72436 4.37113 1.04793 -0.338196 2.20224
255 10.21 7.48144 4.3289 0.0514673 -0.184903 0.513818
2536 9.65942 7.62757 3.16242 -1.35665 0.315777 -0.0658062
2175 10.8492 8.01584 3.07651 1.77261 -0.138952 -0.727208
3107 11.891 7.98799 4.3997 -0.51778 0.311494 0.379254
180 11.9728 7.81364 3.07366 -1.09367 -0.443368 1.14913
2142 13.259 7.68992 3.59895 1.45039 0.950559 0.486079
2842 12.5023 8.56986 3.69752 0.238977 1.64962 -0.603163
1480 14.8411 7.75946 3.29701 -0.596352 1.11705 2.05078
3834 14.7099 7.90605 4.45448 0.0648312 -3.8591 0.834895
639 15.7885 8.35776 3.20984 -0.478779 -1.3376 0.0589878
210 17.1887 8.70791 3.4269 0.509799 -0.286196 0.0074919
3273 17.0166 7.64985 3.81434 -1.0568 -0.165239 -0.699781
2519 17.7532 8.18069 4.28094 -1.2552 -0.950138 0.0321629
2460 0.292077 0.0742816 4.79351 1.59832 -0.0195073 0.448077
1550 1.52058 0.503124 5.48228 0.224023 0.15537 0.842229
2355 2.76013 0.727517 5.05032 -0.128238 0.33688 0.903215
948 3.76603 0.454796 5.31379 0.517889 -1.05798 0.546528
277 3.30069 1.39051 4.48344 -0.269461 -0.160518 -0.15354
3173 3.34288 1.29222 5.87823 -0.387961 -0.106892 -0.309423
3388 6.78737 0.70135 4.89865 0.401272 -0.3612 -0.734868
2972 6.07459 0.693949 5.74488 0.652425 0.701791 0.31393
3612 8.33425 1.29604 5.80194 -0.214702 -0.390033 -0.558665
652 9.41014 1.30469 5.5404 1.35563 -0.0541507 -0.175656
711 10.0518 0.302329 5.80503 0.469995 -0.573574 0.32887
136 9.12066 0.348396 4.80861 0.456773 -0.631328 0.543164
2325 11.3693 1.13807 5.66986 -0.739368 0.188675 1.2386
3187 11.6111 0.223976 4.89312 0.432493 1.15684 -0.510053
3575 10.6093 0.706456 4.47552 -0.459731 -0.383945 -0.0228675
2303 12.8067 0.291198 5.50356 0.133003 -0.132569 -0.61047
3792 13.235 0.810976 4.54914 0.520565 0.545119 -0.319351
3920 12.0089 1.20133 4.70083 0.800563 0.200724 -0.765475
839 13.7978 0.121575 5.19795 0.596656 0.801061 0.73227
3129 14.463 1.25234 4.51532 -0.896209 1.43029 1.36285