ITEM: TIMESTEP
72000
ITEM: NUMBER OF ATOMS
4000
ITEM: BOX BOUNDS pp pp pp
0.0000000000000000e+00 1.7878070701931353e+01
0.0000000000000000e+00 1.7878070701931353e+01
0.0000000000000000e+00 1.7878070701931353e+01
ITEM: ATOMS id x y z vx vy vz
2176 0.955077 0.985288 1.03912 0.215379 0.620389 -1.04196
1501 0.33824 0.39867 0.0539604 -0.498089 -0.692627 -0.554064
31 2.85806 0.698671 0.868389 -0.0184462 -1.06661 -1.48657
2320 3.83381 0.998095 0.472215 -1.32562 0.713968 -0.783057
2452 3.8822 0.0303871 1.24374 -1.23465 1.15649 -1.0722
395 4.65406 0.656716 1.11117 -1.77524 1.45174 0.525719
898 6.08349 1.18442 1.09958 0.380896 -1.1006 1.25415
1480 7.86609 0.740714 1.11815 -0.426687 0.254629 -0.453699
3232 8.75593 1.45259 0.454898 -2.0823 -0.835541 0.768988
501 10.3031 1.45902 0.380023 0.710784 -1.65259 0.364119
1126 9.61159 0.413619 0.864255 0.29418 1.05758 0.466114
2927 11.3128 1.07491 0.99001 -0.106552 -0.148601 -0.297861
3476 10.5998 0.409849 1.33989 0.0359398 -0.64917 0.0307018
2105 12.108 0.262458 1.33786 0.976563 0.978079 -0.00852759
1800 13.0964 1.4263 0.39414 -0.751592 -2.69085 1.72909
2407 13.3267 0.459534 0.82063 1.06614 0.10371 0.696458
3762 11.9732 0.965665 0.26054 0.498833 1.20558 1.26014
3670 14.2272 0.855239 0.304756 -0.694284 0.267261 0.280112
883 13.9277 1.44509 1.27434 -0.0236483 0.420475 -1.00246
2635 15.7658 0.136279 1.25055 -1.51853 0.14969 -0.102432
819 15.8862 1.00335 0.482275 -1.10468 0.239129 -0.451027
3641 17.6321 1.19109 1.06954 -0.231705 -0.788479 0.016932
2389 16.9942 0.471483 0.279102 -1.05954 -0.853596 1.54461
1093 17.5322 0.140997 1.00914 2.67501 -1.77329 1.52967
349 0.944224 2.66368 0.88439 0.558547 -0.154153 -0.721786
3170 1.55809 1.85174 0.344884 0.530311 -0.972015 0.167039
1947 2.51724 1.79041 0.824281 2.85238 -1.59707 -1.00931
1694 3.05976 2.69045 1.12647 -1.39671 0.941695 -0.766871
3130 3.89263 2.86457 0.53657 1.11161 0.0281194 1.24742
1459 3.67127 1.87864 1.12051 -0.197694 0.0929027 1.91446
256 5.72471 2.2802 0.377375 1.27864 0.54563 -1.39188
208 4.85071 2.60702 1.25024 -0.11051 1.27571 0.436521
823 4.57151 1.88602 0.465432 0.47145 -1.99129 0.787916
3809 4.91784 2.80924 0.0415934 0.125271 -0.384097 0.292046
2402 7.0261 1.52334 0.646611 -0.127869 1.01492 -0.556512
2972 6.97133 2.34129 1.20809 1.0259 0.408109 -0.24956
381 6.95841 2.65763 0.298378 2.57921 -0.591342 -1.24635
1820 8.19373 2.24649 1.33247 -0.726519 -0.628785 0.634432
3339 10.0872 2.84652 1.10426 0.353574 -1.5399 -0.667803
2730 9.43894 2.21378 0.634949 -0.803904 0.156464 -0.16673
687 13.1968 2.51388 0.488277 -1.2632 1.09157 1.01006
2396 12.7489 1.94795 1.2491 -0.318275 0.560268 -0.368429
3836 11.9587 2.81879 0.0269158 -1.46127 -0.916588 0.848129
3123 14.2655 2.35711 0.500843 -0.485887 -0.0155663 -0.267533
337 14.8507 2.94172 1.15486 -0.92082 -1.66045 0.808731
2800 13.7871 2.39334 1.45735 -0.731308 1.37539 -0.350147
608 15.9268 2.09685 0.25888 1.16474 0.272159 -0.81271
3625 16.0011 2.64724 1.25658 -0.902993 -0.710061 0.00950575
951 15.2108 1.59976 1.08322 0.0867397 0.854832 1.0768
2868 17.7878 2.15837 0.439398 0.856538 0.931339 1.75602
1096 16.4704 1.6174 0.978623 1.92103 1.24989 -0.272656
651 17.2036 2.59761 1.26913 -0.382176 -0.0154786 0.225586
465 1.24263 3.98775 1.31304 -0.304698 -0.514399 0.0624498
357 2.17136 3.20668 0.198111 -0.356695 0.0973685 -1.03536
351 2.73015 4.46776 0.151567 0.378126 0.95483 -1.98002
3721 3.17676 3.89602 0.964112 -2.10799 -0.32697 1.06101
464 5.19513 3.76746 1.09662 0.766932 -0.958793 1.42087
3592 6.78772 4.02543 1.34332 -0.667281 2.41889 0.255998
307 7.18535 4.25226 0.409762 -0.179224 0.46641 0.389541
1241 6.22214 3.32327 0.56965 0.547966 0.0438751 1.01208
1974 7.72806 3.37299 0.0121574 1.92636 -0.971935 -1.65655
3907 7.81816 3.81535 1.2467 -0.206356 -0.0766052 -1.40419
3668 8.885 3.1223 0.966592 -0.23483 0.522905 1.16251
803 9.7806 3.66944 0.473852 -0.0345775 1.19434 0.877193
3333 9.02051 4.43291 0.657977 -0.492722 0.166025 -0.278686
1487 11.648 3.47222 0.843755 1.07448 -0.481016 -0.435381
1957 12.31 4.3344 0.47967 -0.843075 0.997946 1.08315
924 13.3439 4.39822 0.0294912 -1.61321 -0.133417 0.242943
1861 14.1162 3.77576 0.424487 1.52323 0.213757 0.191793
3081 13.4218 3.28465 1.34666 1.10698 -0.605608 1.77055
2163 15.8831 4.39055 0.678275 0.821347 0.041655 0.389864
3600 15.822 3.53593 0.0741195 0.397043 0.0169582 -0.589703
2007 17.5043 3.45992 0.395903 -1.99789 -0.179718 0.265433
1298 16.6508 3.46901 1.16172 0.223681 -1.32904 -1.33552
2421 1.05795 5.27173 0.825139 0.850551 0.790167 0.0285182
2922 2.1188 4.60638 0.934878 2.4166 -0.688051 -1.34611
475 2.22361 5.52552 0.359349 0.349503 -1.85618 -0.667674
1949 2.93868 5.40096 1.39761 0.685046 0.196734 -1.15661
2962 4.25352 5.15055 0.351102 0.115117 0.602219 1.36736
1488 5.35603 5.0822 0.501391 -0.258624 -2.38364 -1.06606
232 4.78261 5.32365 1.29223 1.40563 0.303894 -1.06331
1823 6.59075 5.12694 0.192162 0.766524 1.22552 -0.503851
3656 6.03377 4.74735 1.46245 0.120639 -1.54788 -1.27901
43 7.50496 5.09944 1.05231 -0.923676 -0.714266 -0.42897
3092 9.19359 5.61623 0.533676 -0.351121 0.430347 -1.02945
3161 10.7795 4.62645 0.962191 -1.07599 1.38913 -2.1701
387 10.7923 5.64319 1.26927 0.525332 -0.287867 0.464259
1814 11.5409 5.41596 0.535468 0.06808 -2.22157 0.785859
2183 10.67 4.90703 0.0366155 0.494487 0.301116 0.484958
2201 12.9066 5.11428 1.20888 0.0531241 0.252716 -0.326955
3224 14.8814 4.54147 0.651888 -0.625897 -0.154662 -2.11961
222 13.7761 4.68922 0.932393 -1.07294 0.722108 -0.499675
3107 13.7542 5.84075 0.931583 0.50151 -1.08553 -1.53935
3976 14.5251 5.44019 0.132502 1.01288 1.3176 -1.32568
298 15.6197 5.33806 0.319203 -0.448181 -0.132183 0.865357
3118 17.6038 4.53498 0.00719881 -1.86506 2.05901 0.523734
1631 16.5394 4.77434 0.0634688 0.331784 2.03159 -1.02045
3551 17.6702 5.41469 1.20128 -0.659864 0.105156 -0.152619
342 16.6849 4.70838 1.14401 1.41091 -0.200287 0.728899
635 16.5422 5.70165 0.842745 -0.834414 -1.02754 -0.319027
591 0.00924196 6.1533 0.414031 -1.06124 0.589077 -0.647923
1282 0.906782 6.30241 1.05364 -0.263073 0.628592 0.130431
1254 0.800715 7.27842 0.762003 -0.426562 -0.659918 0.274432
1894 2.19445 6.32579 1.08957 -0.512792 2.4434 -0.23351
3374 3.95916 7.09542 0.17397 0.496592 -1.57044 -0.956118
3398 3.03124 6.32456 0.459378 -1.1717 0.0261929 -0.463709
2671 3.74715 6.77903 1.16104 -1.3966 -1.62298 -1.27191
1065 5.82846 5.97791 0.0918331 -0.0310864 0.615292 -0.109499
1588 5.0897 6.64088 0.631021 0.769301 -0.770738 -1.03961
499 6.69525 6.09118 0.574204 1.76484 0.65408 -0.800358
2198 5.98876 6.29523 1.33019 -0.897357 -0.721148 0.291714
1885 7.89914 6.2045 0.333155 -1.10552 0.679715 0.169516
2272 7.93517 7.16356 1.04418 -0.682201 0.115896 -0.878787
2910 8.93274 6.74143 1.01327 -0.964628 0.705943 1.35804
3911 7.74045 7.17562 0.00328555 -0.393164 2.32816 1.27838
2553 9.90678 6.38971 0.749499 -0.374558 -0.947774 -0.726691
2873 11.2821 6.7154 0.298147 -1.46551 0.473976 0.955617
3416 11.8862 6.67751 1.31614 -1.92328 2.2878 -0.295663
3461 10.8551 7.31184 1.06518 0.841875 -1.35402 -1.03767
2008 12.6357 6.06947 0.777519 -0.408389 0.631179 0.192862
847 13.3395 6.419 0.102602 1.46774 -0.591158 -0.662203
625 12.8517 7.22147 0.66848 0.245935 -0.782285 -0.958214
667 13.935 6.89462 0.818434 0.477897 -0.32782 -0.525235
467 15.947 6.67648 1.12084 1.00541 0.815301 -0.437502
1059 15.0475 7.36772 0.90227 -0.606896 -1.1228 -1.10789
2992 15.1481 6.2101 0.44165 1.66832 0.271645 1.34162
2028 17.0712 6.80123 1.37652 -0.63671 -0.677883 -1.51869
938 16.7009 6.60234 0.272907 -0.0940189 -0.936847 -0.0450952
981 1.00218 8.74611 0.811193 -1.40393 0.0776247 -0.3379
3324 0.259385 8.23466 0.057305 0.575236 -1.3627 1.69092
3407 1.66835 8.15711 0.148086 0.489552 -0.722976 0.806672
119 2.97428 7.54185 0.714202 0.897004 0.194607 -2.05238
2997 1.97537 8.34693 1.34039 0.576126 0.36389 0.414147
67 3.68308 8.24485 0.137775 0.483841 1.88224 -0.506378
787 3.14181 8.86076 1.2498 2.21519 0.472753 -0.601772
2532 4.46936 8.92418 0.699197 -0.680477 -0.823394 -0.342265
3083 5.58695 7.57201 0.379944 -0.242021 0.823244 -0.53502
2029 5.54857 8.6895 0.952423 -0.104415 1.30055 -0.240954
276 4.80661 8.19973 1.38744 -0.231441 -0.231166 -0.756501
3465 4.6452 7.88824 0.4179 0.40147 1.65947 0.0704179
130 7.03339 7.9556 1.09072 -1.29006 -0.583649 -0.0672358
1114 6.98045 8.14763 0.0375273 0.466362 1.29117 0.287733
879 8.64356 7.69166 0.457205 -0.433832 -0.616187 -0.201629
3696 8.11459 8.51232 0.261434 1.99795 0.579383 0.0892466
3280 9.9194 7.80948 0.547787 -0.544519 1.44758 1.31098
2205 10.2086 8.52504 1.41436 0.633522 1.09021 -0.440245
3638 9.38828 8.84225 0.296986 -0.156847 -0.938844 -1.72705
2083 11.8512 7.6959 0.750802 -0.51669 -0.586169 0.625684
1567 11.0771 8.68868 0.435611 -0.521772 -0.691103 1.46186
2453 12.7822 8.27317 0.716324 0.20258 0.428272 0.658355
192 13.9838 8.87279 0.113894 2.31502 -0.118158 0.576876
538 13.8108 8.07019 0.928141 -0.0447414 -1.32858 -0.228233
3635 14.7899 8.52691 0.843672 -0.575046 1.68482 0.563084
481 15.723 8.15784 0.0168566 1.11885 1.46627 0.05039
3111 16.3781 7.64337 0.996665 -0.839321 -0.328579 1.59747
2568 17.3704 7.69839 0.808853 -1.02065 -0.461676 -0.74996
344 17.8702 8.74879 0.962757 0.250531 0.585698 -0.701728
2070 0.520676 0.956636 2.14275 0.636686 -0.877161 0.647888
1021 2.60716 1.0819 1.94972 -0.984485 1.38638 0.197046
2191 2.31463 0.132656 2.60779 0.929564 1.71226 -0.829836
3967 1.56809 0.709097 2.60348 -1.0922 -0.268518 0.227985
2044 2.95791 0.055763 1.68934 -0.151481 -0.175737 1.7108
1803 3.89576 1.06014 1.67879 0.29153 0.625004 -1.0561
2969 3.45067 0.403751 2.54077 -0.568777 0.200317 -1.09516
2432 4.47921 0.517227 2.62161 -0.569865 -0.0999703 0.334778
1730 6.91838 1.17796 1.84587 0.714822 -0.352961 -1.94252
1978 6.9719 1.28237 2.9225 0.700261 0.858671 0.820443
1150 6.5525 0.15999 1.76661 -0.519019 -1.39873 1.33959
3477 8.84093 0.811946 2.66154 -1.18638 -0.668987 1.33342
3559 8.09769 1.33803 2.07654 0.00740848 0.22561 0.563579
622 8.74255 0.254042 1.72404 0.0667727 0.409256 -2.45817
1671 10.0316 0.455245 2.16566 -1.71148 0.895005 -0.917671
3545 11.2715 0.713912 2.04681 0.407803 -0.709405 0.900885
1411 11.5931 1.39454 2.90473 1.96948 -0.560466 0.210544
670 13.0736 0.847709 1.77699 0.0394478 0.973789 -0.544972
1462 12.107 0.625759 2.40239 1.07098 1.10017 -0.57926
3779 13.0385 0.357135 2.86562 1.19805 1.11662 0.709936
3443 13.9614 1.2035 2.25111 -0.618163 1.03686 -1.15938
2304 14.4425 0.404835 2.65333 1.09371 -1.34462 0.56841
1650 14.785 0.401679 1.63443 -1.35333 0.968915 1.05921
1211 15.589 1.03666 1.81059 -0.509121 0.754395 -1.29429
713 15.5113 0.903207 2.80692 -0.379095 0.851475 0.582256
2522 16.0503 0.148817 2.37312 -0.165912 1.16596 1.7613
2032 16.8127 0.795607 1.68311 -0.0363794 -0.800882 -0.932042
589 16.8137 0.90375 2.8046 -0.814271 -1.58687 1.16283
1703 17.4575 0.0589733 2.34911 1.55093 0.264931 3.48119
2510 0.933685 2.20039 2.86332 1.61372 0.486049 -0.719282
2683 0.763297 2.10818 1.85604 0.0573759 -0.0391494 -0.294618
1589 1.90402 2.24581 2.02475 0.692952 0.218875 0.615871
1386 2.05253 2.96549 2.89995 0.915931 -0.101376 1.34143
3355 2.98413 2.45336 2.3337 -0.139285 -0.683531 0.913715
3289 4.12052 2.11119 2.40685 -1.06832 -0.787803 -0.701641
445 4.89077 1.62239 1.63273 -0.309471 -0.610856 1.17531
3724 4.95773 1.58151 2.80849 -0.839298 0.238436 -0.1057
1610 5.82763 2.49915 1.57034 0.00192059 0.734418 1.36767
3084 5.91957 1.58572 2.28705 0.713334 0.978174 1.18387
1310 5.08035 2.65342 2.29749 -0.256141 0.634287 -0.105763
1290 6.83643 2.19986 2.28952 -0.686463 -0.105755 1.96378
3805 8.52427 2.94144 2.09191 -0.617025 1.84142 0.287617
1791 7.81176 2.31475 2.41723 1.00509 -0.262961 -0.848185
902 9.23173 1.98793 2.29746 0.202733 -0.379543 0.309826
1285 10.156 1.77527 1.53526 1.49251 -1.25897 2.18233
2114 11.1023 2.49762 2.31474 -1.33008 -0.310467 0.0339425
2189 10.5481 1.65481 2.55974 0.911432 -0.495832 -0.639568
664 12.663 1.91023 2.22534 -0.904264 -0.0675326 -0.724666
3882 11.9997 2.60034 1.58287 -1.20475 -0.339027 -0.256038
2060 12.898 2.90152 2.72565 0.659504 1.11164 0.809242
2270 13.8639 2.19094 2.55471 0.47038 0.57384 -1.88238
2666 14.8337 1.60911 2.0697 -0.140776 -0.565163 -0.821156
555 14.8036 2.64938 2.68131 -0.332822 -0.357012 -1.0284
2080 15.6334 2.26717 2.29077 0.211727 0.1763 1.15214
354 16.5723 2.81365 2.3327 0.817214 0.575975 0.182682
709 16.4803 1.89893 2.96051 0.211715 1.16756 -0.22271
3300 16.9465 1.92248 2.03837 -0.328152 0.36879 0.146101
3154 17.6157 2.7083 2.35371 -0.359744 -1.2425 1.57969
180 17.6885 1.61083 2.70038 2.08032 -0.943737 0.851905
3175 0.164733 3.22738 1.49529 -0.797733 -1.05516 0.490516
3098 0.397705 4.01941 2.63505 -0.153246 -0.493203 1.77841
804 0.77963 3.09086 2.52354 0.958319 -2.55315 -1.09833
2624 0.180315 4.42844 1.57068 -0.465966 -0.265189 -0.626792
2313 2.02887 4.3921 2.34314 -0.67625 1.2214 -1.31299
2155 3.04701 3.79667 2.13445 1.01755 -0.635019 0.00360925
2629 4.11306 4.22077 1.63719 0.220888 1.2826 -0.624769
28 4.11057 3.11217 2.08878 0.18368 -0.215061 -0.514229
1972 5.65543 3.54342 2.08496 -1.74025 -0.633851 -0.636568
415 4.69066 3.58698 2.94203 -0.0954569 0.100345 0.590208
812 6.32425 4.33611 2.61451 0.35371 -0.238518 0.341616
331 6.76771 3.13732 2.853 -0.9317 1.47831 2.2916
754 7.31164 3.01392 1.91731 0.00707948 0.376307 -0.149194
212 7.80639 3.67396 2.63339 2.44117 0.0335678 0.958043
1289 8.7166 4.19227 1.75807 -0.62235 -1.94047 -1.23575
2540 8.75386 3.94877 2.89686 -0.761487 1.88814 0.0900743
3066 9.47909 3.52246 2.04117 0.639104 1.07893 0.287626
2157 10.6222 3.72893 1.56933 -0.172802 -1.46281 1.69434
3145 11.4683 4.25992 1.76613 0.855565 1.23586 1.53386
385 11.9182 3.16501 2.48372 1.67425 0.972037 -1.13241
725 12.405 4.11944 1.62976 1.13377 -1.14605 -0.727545
1953 13.3072 4.45509 2.17277 -0.0165709 0.236913 0.909668
1840 14.386 4.03015 1.86252 1.38749 -2.00595 0.242269
2861 13.8353 3.45058 2.81421 -1.41529 -0.860922 0.594449
116 14.9751 3.76152 2.64272 -0.147548 1.06045 0.629962
15 15.57 3.40937 1.94321 -2.13866 -0.401092 0.144135
3129 17.1572 4.05903 2.06616 -1.13774 0.0940314 0.253785
2495 0.00688838 5.95626 2.60981 -0.804135 0.846042 1.1231
2502 0.612509 5.36246 1.91987 -0.146396 0.174168 0.718977
707 1.31224 5.14106 2.75682 0.571066 -1.19963 -0.395574
3703 1.73933 5.65206 1.8146 -1.13668 0.689255 1.87664
662 2.74521 5.2581 2.63045 -0.694194 -0.416244 -0.207082
2813 3.68407 5.94919 1.85563 0.0771363 0.585557 0.0295899
1907 3.66764 4.90609 2.41808 -1.03706 -0.173827 -0.320224
3025 4.56359 5.55128 2.387 0.329475 1.35582 -0.16805
3322 4.82613 4.4827 2.30005 0.436409 0.134183 0.552583
424 5.51286 5.26113 2.76305 2.25771 1.41101 1.14113
3325 7.04149 5.65752 1.81738 -1.01126 -0.279732 1.1132
1569 7.57666 4.57552 2.0646 0.653688 -0.958507 2.0093
885 8.42055 5.24494 1.72987 -0.059784 -0.563897 -0.599233
957 7.91625 5.22845 2.97522 0.415829 -1.5318 -1.84862
3515 9.74431 4.70502 1.60141 -0.206871 -0.333177 2.74993
2374 9.00729 4.99241 2.71874 0.434135 0.327661 -0.174016
2793 9.49234 5.8114 1.7772 0.522685 0.362302 -1.29111
623 11.7934 5.64919 1.67173 0.626838 0.231397 -1.24151
742 10.6818 4.9809 2.1685 1.18111 -0.831377 -1.28606
2623 11.596 5.3908 2.97441 0.613842 -0.0838673 1.31248
2842 12.4154 4.95693 2.25712 -0.814981 -1.28007 0.404097
1659 13.0265 5.83621 2.3554 0.370446 -0.485133 0.272503
108 14.5678 5.31137 1.50267 -1.44134 -0.98099 -0.315098
1725 15.4765 4.50338 1.55515 0.0233247 -0.466875 -0.39752
1636 16.2067 5.09134 1.93309 0.791282 -1.93164 1.54933
3587 15.018 4.97558 2.40253 -1.14002 1.1604 1.15915
153 17.3669 5.08782 2.40577 1.43022 -0.256374 -0.617437
3158 0.186356 6.88197 1.49023 0.616825 -0.403589 0.609396
736 1.07168 6.15672 2.49394 0.246339 -0.278523 0.363796
1343 1.02461 7.21721 2.82256 -2.15842 -1.36517 -0.956183
1813 1.54662 6.81124 1.75314 -1.15398 -0.138192 1.28886
528 2.71043 6.2055 2.04672 0.0809186 -0.930014 -0.279599
3790 2.5698 7.40723 1.95383 -1.02252 -0.49752 -0.773784
476 4.35702 7.35519 2.02883 -0.964578 -2.45486 0.214389
483 3.45082 7.00588 2.31595 0.767299 -1.09498 -1.59577
781 5.27973 6.30061 2.29636 0.597015 -1.62339 -0.724221
908 5.65993 7.22475 1.93779 0.620758 -1.0389 0.151994
3690 5.13821 7.18365 2.93523 0.285824 -0.752188 -0.198945
1674 6.27707 6.11754 2.36176 -0.148901 1.4088 0.566007
109 6.63426 7.22659 2.38324 -0.227605 -0.387738 -0.765146
2713 8.37788 6.0944 2.52261 -0.264782 -0.597912 0.233364
1376 8.8213 7.20501 2.29369 0.545461 -0.357217 1.32026
77 9.99432 7.26365 1.56085 0.679732 -0.565366 -0.330153
502 10.9702 6.49961 1.95929 0.197854 0.310099 -0.423649
1276 11.2391 7.13747 2.93272 -2.44893 0.106084 2.289
2786 13.0952 6.80586 1.72519 0.944017 0.120838 -0.764547
1327 12.418 6.86125 2.59715 -0.252474 0.113719 0.203269
1514 13.5445 6.97828 2.61476 -0.562133 0.579677 0.748907
3832 14.0128 6.27767 1.94682 1.50372 -3.5688 1.33031
669 14.4946 6.36782 2.92404 -0.649964 1.39872 -0.437913
1157 15.5645 6.42729 2.57727 -2.48214 0.0884756 -0.239188
2831 15.1307 6.2348 1.6058 -0.00662301 -1.32441 0.764751
3591 15.404 7.3048 1.89777 -0.384873 -0.146597 1.26872
3637 16.6881 6.0856 2.05468 0.575408 1.31268 1.81111
1457 17.2778 7.33125 2.72104 0.244657 -0.78241 -1.81415
1427 0.963788 8.74981 2.64719 -0.671906 -0.111846 0.614182
2914 1.53418 7.84954 2.21455 -1.29879 0.966087 0.541264
135 2.03048 8.78204 2.28342 -0.261281 0.91459 -1.186
1111 3.88313 8.24574 2.50156 0.885992 0.53784 0.628563
372 3.4936 7.86735 1.55339 -0.0766558 0.440073 1.21749
3971 5.74842 8.41238 1.97929 -0.382227 0.259215 0.990892
1903 4.7706 8.68031 2.82961 -0.127427 -0.521897 0.79416
2833 7.06297 8.38718 2.59487 -2.37456 -0.294804 -0.656158
2890 7.30343 8.82575 1.63936 -1.79153 -1.01641 0.382815
3191 8.27491 8.2658 2.65156 0.0807811 1.1572 1.57851
2949 7.80282 7.45588 2.019 0.409034 -0.0702973 -0.677328
1705 8.13373 8.29039 1.51167 -0.921107 -2.21308 0.18468
3007 9.17136 7.87249 1.50036 -0.859106 -1.03616 -0.51586
2404 9.62911 7.74328 2.49604 0.902367 -1.75081 1.02532
286 9.54365 8.90309 2.49992 1.17066 -0.486396 -0.953574
442 11.546 7.67211 1.9721 0.385371 0.578824 1.56746
428 10.4854 8.36478 2.57727 -0.957042 -0.695593 -0.879044
95 11.6019 8.42704 2.76435 0.699366 -1.15282 -1.1735
1827 12.6696 7.67467 1.83026 -0.870276 0.782864 -0.232407
1122 13.1221 8.68864 1.53352 1.25257 1.44226 -1.36997
1778 12.0122 8.53776 1.49293 0.653674 -0.275097 -0.189062
2440 14.7686 8.41988 1.94456 -0.763133 -0.118776 -2.05015
2704 13.5382 8.06474 2.61636 0.728363 -1.36617 -1.03852
741 14.324 7.50465 1.62844 -0.0219127 1.06642 1.23502
1442 14.7113 7.4497 2.63424 0.857607 1.1772 -0.714841
726 15.9502 8.5398 1.88074 -0.169196 -0.516863 -0.834105
2542 16.63 7.5797 1.97347 0.00261736 1.85735 0.922718
2354 16.3966 8.30625 2.79902 1.3984 0.955289 0.206026
312 17.0001 8.64669 1.96318 -1.75735 0.365869 -0.0941447
3992 0.79375 0.738462 3.57254 0.931885 -0.774094 -1.64235
2876 1.99326 0.625467 3.52339 -0.258105 -0.0560731 0.335537
792 2.65398 1.36491 3.09332 -0.410518 0.300523 0.469945
3543 4.46766 0.643134 3.67883 0.257513 0.786535 -0.196156
1862 3.30629 0.353444 3.57858 1.29115 -0.807537 1.58107
453 3.66765 0.975937 4.26529 0.924309 0.895026 0.123251
196 3.76527 1.37395 3.08745 -0.363009 0.0802276 0.117659
93 5.87512 0.713749 3.33492 -0.61423 1.42203 0.264514
411 7.20084 0.335533 3.45645 0.680293 -0.484022 -0.119287
3093 6.92926 1.44336 4.14674 -0.603501 0.672648 2.05411
3015 8.05957 0.982052 3.45416 -1.71664 0.499694 -1.03789
319 8.43719 0.482403 4.29419 -0.264363 -1.71756 0.0174296
1303 10.0643 0.92708 3.57053 1.04176 -0.517975 -0.415813
1358 11.0418 1.07435 3.94072 -0.374018 -1.12813 -0.92703
2583 11.7964 0.291171 4.37362 1.03914 0.72352 -0.646856
51 10.9344 0.459079 3.19469 -0.108534 0.590897 0.860562
2141 13.1286 0.429974 4.05788 1.13021 -1.1123 0.867051
931 12.1835 0.0657847 3.41852 -0.462405 -0.409482 1.29741
2662 12.3561 1.00209 3.46604 0.944856 -1.7448 0.0458486
1890 13.8953 0.30891 3.46767 0.214708 -1.5999 -1.72715
1387 13.4275 1.33805 3.28909 0.472737 -0.227761 0.521071
3468 14.3939 1.10086 4.12738 1.79635 -0.0808794 0.511021
871 15.9788 0.701544 3.80913 -0.257447 -0.341542 1.78521
3578 17.5747 0.775809 3.69947 -0.887315 -0.445592 -1.06145
3469 0.308296 1.71208 3.64054 0.326445 1.0292 -0.787644
2227 0.234361 2.72265 3.73051 0.36353 -1.05977 -1.50293
2891 1.35245 1.74493 3.92245 -1.35275 1.29562 0.0113794
3036 2.34827 1.71718 3.98356 -0.127115 -0.0602493 -0.0419434
2233 3.3888 2.30715 4.16938 -0.210871 -0.323104 0.0312882
2648 4.07435 2.53203 3.38361 -0.395495 -0.3297 -0.51793
979 4.37161 1.72889 3.92744 0.478129 -1.24441 0.186219
2866 5.57392 2.92253 3.14011 0.591361 1.89535 -0.536801
3371 5.24773 2.51213 4.3374 -0.876769 -0.707196 0.786069
3326 5.73526 1.86791 3.56863 -0.390337 0.364523 -0.207462
3283 7.37144 2.69158 3.66207 -1.70203 -0.39946 -0.343586
724 6.40592 2.53819 4.18747 0.140598 0.142258 1.74954
2535 8.44591 1.89204 3.36394 0.197019 1.10162 0.364031
114 9.27739 2.76753 3.14566 2.27349 0.549395 0.008034
3851 10.3924 2.66148 3.40343 0.296904 1.19945 -0.219398
2565 9.55226 1.76946 3.33269 0.669439 -1.165 0.225813
205 9.20573 2.26855 4.11445 0.112401 -2.22313 -0.154299
166 10.1242 2.04163 4.38143 -0.154523 -0.466264 0.0574583
2869 11.2749 2.16947 3.831 -0.372751 -0.889987 -1.33936
3086 13.0109 2.25094 3.60897 -0.440888 1.17089 -0.657355
2505 12.0824 2.21634 3.08181 0.777395 0.413193 -1.78571
554 12.2509 2.11188 4.24451 -0.314746 0.443676 -0.797562
348 14.7896 1.61888 3.13631 -0.535711 0.132969 -1.21026
2552 13.4605 2.77771 4.37388 -0.578325 -1.1216 0.66043
1756 13.4588 1.55753 4.27027 0.866784 -0.313826 0.807511
2469 14.2075 2.42576 3.54392 -0.148784 -0.286586 0.0358921
2473 15.4998 1.99493 3.85256 -1.42026 -0.109339 0.89735
3201 15.091 2.94137 3.59203 -0.125708 -0.057896 -0.601227
3547 16.4293 2.73532 3.51765 0.144729 0.790516 -1.44989
3667 16.8444 2.30132 4.44024 0.980586 0.173912 1.05945
1798 1.31112 2.98531 3.76657 0.118358 -1.2463 1.22143
3431 1.2307 4.06807 3.22176 -0.893071 -0.261001 -1.14056
3009 0.522658 3.76057 3.99271 1.38601 -0.254895 -0.161644
873 2.44501 3.01913 3.97827 0.160707 0.896121 0.277813
361 4.31667 3.33924 3.89959 0.0422505 -0.0660217 0.430978
3160 3.21848 3.14032 3.12557 -0.652826 0.859006 0.971738
1271 3.73331 4.03338 3.13828 -1.15699 -3.33572e-05 -0.0472345
3740 3.16117 4.32969 4.04679 0.895003 -0.802193 1.34256
2447 5.93663 3.44993 4.04261 -1.19266 0.00558999 0.210601
1364 4.95934 4.06865 4.21847 -0.575076 0.824619 -0.382469
2384 6.86483 3.97073 3.58751 1.61041 1.79305 0.071072
2173 8.2882 3.03416 3.37214 2.66726 0.0314489 1.98411
2403 8.00722 3.55376 4.31117 -2.52557 -0.748007 1.65455
447 9.17728 3.47662 4.0552 -1.20874 1.63814 -1.30927
2200 9.99286 3.61848 2.99725 0.32083 -1.3675 0.604801
1492 10.3155 3.61293 4.13522 1.76466 -0.723628 -1.1947
1069 11.9179 4.1257 3.08805 -2.44209 -0.111656 -1.16152
1170 11.2658 3.2681 3.55871 0.187702 -2.75242 1.96908
405 11.7152 4.08649 4.18449 0.581503 -0.168981 -0.826135
586 13.0141 4.09987 3.4745 1.32942 1.47661 2.3793
177 12.4814 3.2599 3.71656 0.687206 0.653427 -0.982491
3752 14.0176 3.56054 3.88879 -0.342383 -0.627619 -1.4225
2348 15.9825 3.48039 3.01046 -0.839023 1.15616 0.509874
585 15.3134 4.07433 3.64832 2.30436 1.07384 -0.211608
869 17.2145 3.46259 3.0703 0.484926 0.029028 1.30212
3885 16.6608 4.45161 3.00971 -0.88655 -0.522726 0.559723
2345 17.56 4.37042 3.59462 -1.40611 0.0700524 0.336725
786 16.434 3.81057 3.94941 0.781554 1.9142 -2.77527
1062 0.315191 4.96284 3.08237 0.74193 -0.447517 1.06173
2536 1.06255 5.32644 3.69656 0.226209 0.567433 -0.032076
1248 2.02405 5.86018 3.22699 -0.0151712 0.694057 -2.49109
2838 2.03795 4.86086 3.55494 -0.605399 2.52035 0.193895
3330 4.37665 4.8797 3.33442 0.538204 -2.01304 -1.01353
2478 3.51492 5.48252 4.18598 -1.06203 -0.0720325 -0.469982
2928 3.80193 5.78989 3.04915 0.260389 0.772226 -0.698677
2827 5.55595 4.60047 3.38674 0.214236 -1.44035 -1.25517
1850 5.18203 5.34093 4.04554 0.16536 -0.416167 -0.199215
2667 6.64855 5.49179 3.10061 0.961737 0.151027 -0.321618
2806 7.39191 4.60751 4.41542 0.949073 -1.18521 0.552191
2739 6.11021 5.7497 4.01091 1.01952 -1.59235 -0.149395
2995 6.06227 4.56313 4.30693 1.26031 0.545268 0.100368
2852 7.33719 5.69646 4.1872 -1.24423 1.85933 -0.453841
722 8.80618 5.6092 3.85657 -0.650825 0.495072 -0.134545
3871 10.1778 5.17409 3.08808 -0.342918 0.831776 0.626097
1259 9.91402 5.72885 3.91209 0.321425 -1.6302 0.853839
3064 9.63148 4.51902 3.66907 1.48611 1.82601 -0.546809
3835 10.8915 4.53206 3.64514 1.4469 -1.15146 -0.728566
2268 12.0948 5.73581 4.20855 -0.139089 0.704413 -1.21231
677 12.6202 5.10384 3.35735 -1.66862 -0.31662 -0.544142
2236 13.2139 5.50653 4.4107 -0.261762 1.61821 -0.223197
2695 13.782 5.67093 3.15591 0.746063 -1.17342 1.47956
930 14.0176 4.68205 3.19492 2.56342 -0.321651 -0.117959
916 13.7026 4.54688 4.21546 0.0753902 -0.620199 0.0371579
1087 14.523 5.40798 3.98623 -1.32145 -0.474461 -1.02728
600 15.6155 5.10149 3.417 0.838339 -0.434682 -1.13035
102 16.4086 5.73347 3.01161 -1.11295 0.613998 -0.0693673
1188 16.5671 4.84834 3.91695 0.841571 0.860263 -0.113885
3388 17.3201 5.50443 3.59755 0.607374 -0.16081 -0.390731
3928 0.179122 7.0963 4.33406 0.767584 1.78486 -0.221743
3296 1.25579 6.56111 4.33048 1.08819 0.203766 -1.83375
2431 0.570157 6.55012 3.61639 -1.74341 0.537516 -0.605924
3008 2.5349 6.82455 3.17059 2.97772 -0.159936 0.912639
1869 2.50211 7.26435 4.22912 -1.31919 -0.221289 -2.02181
1870 2.22249 6.28926 4.27612 -0.093156 -0.855363 -1.12546
2807 3.45276 6.70409 4.06425 0.66271 0.743359 -1.67599
215 4.20508 6.80271 3.29854 -0.206353 -0.510752 2.24469
2567 4.90123 6.14087 3.40138 0.411886 1.2303 0.808134
3585 5.26615 6.87659 4.00791 1.51212 0.897451 0.17291
326 7.23147 7.25889 3.23068 0.354983 0.317075 0.348849
1035 7.23179 6.20081 3.0711 1.00042 -0.0633252 1.03446
3569 6.93377 6.86961 4.29831 -0.0514214 0.714434 -0.00290172
2483 6.15989 6.57676 3.20836 -0.261008 -0.488781 0.631654
382 8.27137 6.60588 3.51528 0.0294671 -0.493486 0.392978
358 9.49095 6.33506 3.21027 1.4253 0.226239 -1.19475
689 9.07731 6.89036 4.18332 0.062784 0.0262511 0.947251
2947 10.2057 6.99111 2.9874 0.152251 0.162105 -2.99338
2944 10.359 7.08003 3.97996 -0.422819 -0.426628 0.386637
2331 10.772 6.09523 3.04284 -0.897493 1.11496 -0.600356
3821 11.6257 7.36421 4.33711 0.614749 1.24968 -0.774931
790 11.7245 6.47493 3.56297 0.261591 -1.1729 -1.00732
2480 12.9654 6.22628 3.60613 0.765718 -0.0800478 0.107938
191 12.3347 7.32656 3.62171 0.619426 -0.847387 0.562763
759 13.8568 6.40581 4.26579 0.0740667 -2.01041 -1.54885
1348 16.0514 7.04148 3.19428 0.0906651 1.12641 -0.792434
436 15.3107 6.15369 3.76661 -1.41784 0.312446 -1.46939
2881 16.7737 5.96214 4.27089 1.47438 -1.57242 0.479539
2563 17.2585 6.56533 3.64078 -0.405682 -1.14466 1.46996
3554 1.03295 7.62713 4.16363 -0.338036 1.10453 -0.381019
1999 0.17469 7.61926 3.40212 2.15064 -0.355023 -0.734752
570 2.0103 8.22932 4.18659 -0.555828 -0.658092 -1.04615
2796 1.87932 7.70436 3.22762 -1.09645 0.262234 -0.177318
2078 3.06848 7.85581 3.08701 3.92953 0.501492 -0.0895861
1200 4.26628 7.93415 3.42985 0.402364 2.01975 0.797975
3153 3.73137 8.54491 4.13264 0.396338 0.518331 0.8152
3934 5.38335 8.00765 3.56496 0.488483 0.0342469 2.54195
929 6.952 8.02636 4.30476 0.452724 -0.917748 -0.436156
2716 6.29092 7.60268 3.42225 -0.399138 -0.666866 0.327039
296 8.45549 7.76257 3.63872 -1.86585 0.0967393 -1.2309
1417 8.07388 8.50886 4.36221 1.60101 -0.730112 2.23874
1422 9.84496 8.05751 3.52287 -0.849561 -1.22873 -0.440992
3001 11.8221 8.40755 3.82462 0.712298 0.43681 -0.522724
844 10.9141 7.89643 3.76509 0.299486 0.114719 0.218998
2528 13.2945 8.12664 3.60956 -0.181435 -0.546243 0.61069
2054 15.0548 8.50413 3.09643 0.599708 1.21562 -1.441
695 15.6436 7.75007 4.25476 -0.44798 -1.35812 0.540949
271 15.2859 8.71475 4.29991 -0.202866 -1.83662 0.472535
2875 17.6393 8.59398 3.00966 -1.49071 0.670039 0.166565
3909 17.0219 7.96481 3.77029 -0.33044 0.103363 0.0744453
985 1.31672 0.78365 4.48482 0.292476 2.1838 -0.0954962
1638 1.72717 0.605938 5.49091 1.75777 -0.0354249 -0.391208
283 2.61238 1.0498 4.83728 -1.35183 -0.257666 0.382805
1418 4.44313 0.521577 4.9452 0.0855797 -0.290253 -1.17508
3847 3.02097 0.290698 5.21046 0.679665 -0.793494 -0.643151
132 5.59304 0.834376 4.63118 -1.22358 0.247891 0.159812
2434 5.89972 1.31569 5.83816 -0.730761 1.90768 -0.175801
2840 7.07985 0.223263 4.59213 -0.966716 0.792664 -0.896675
1047 6.84592 1.17077 5.3285 -0.917124 -1.13005 0.178239
2655 6.37796 0.16868 5.36607 -0.80962 -0.746983 -0.200092
2626 7.94939 0.845802 5.42058 0.0946959 -0.397553 1.20853
3208 9.32611 0.129427 4.99561 -0.774746 -0.577067 -1.11977
607 9.03388 1.29854 4.90757 -2.07623 -1.08252 0.427618
3390 9.13585 1.12431 5.92186 -0.0304221 1.13633 0.785113
3099 10.3154 0.700112 5.91341 -1.27441 -0.541789 -0.491393
3525 10.3861 0.848984 4.69241 -0.77034 0.773588 0.712734
2285 11.3206 0.596596 5.38118 0.956805 -0.233635 1.61045
3749 12.4981 0.0589756 5.83548 0.561191 0.95812 -0.304162
3089 12.6548 1.09846 4.62384 0.178125 -0.804957 -1.35108
1950 14.3902 0.029721 4.86122 -1.17023 0.324252 -1.85386
400 13.5995 0.645338 5.0777 0.66776 -0.346597 0.802135
1742 14.6959 1.18867 5.23963 0.0966011 0.173842 0.342962
3361 15.3319 0.372183 4.59521 -0.264462 0.16056 1.65265
443 15.3693 0.521532 5.87856 0.378567 -0.723816 0.288021
3351 16.3454 0.605052 5.62423 0.476746 -0.386355 -0.652041
446 16.6078 1.10132 4.5647 -0.936575 -0.0741177 1.17119
904 17.6849 0.399597 4.73674 -0.129528 -0.172255 0.3557
1761 17.2292 1.19174 5.56626 -0.0782662 0.437897 0.25475
2929 17.2947 0.0527829 5.57255 0.83144 0.110195 0.204915
3109 0.167577 2.76756 4.72186 0.0745907 -1.45117 0.605013
3240 1.42183 2.51195 5.93325 -0.327878 -1.72974 -0.0948864
1776 0.794732 1.82571 4.92819 -0.947377 0.0385746 -0.88424
1175 0.291788 1.94388 5.94431 1.18445 -1.71372 -1.17709
1014 1.7838 2.41797 4.80131 -1.26375 -0.406452 0.427324
915 2.08759 1.73993 5.55164 -1.20315 0.639147 -0.0636002
2818 3.59505 2.54489 5.49529 -1.62192 0.940962 -1.1169
3955 3.98971 1.63369 5.10696 -1.18263 -1.25519 0.37461
3213 5.01271 1.58184 4.84278 0.411128 -0.135918 0.285956
3627 4.90013 2.62478 5.36204 -0.0761856 1.24036 -1.4508