ITEM: TIMESTEP
55000
ITEM: NUMBER OF ATOMS
4000
ITEM: BOX BOUNDS pp pp pp
0.0000000000000000e+00 1.7878070701931353e+01
0.0000000000000000e+00 1.7878070701931353e+01
0.0000000000000000e+00 1.7878070701931353e+01
ITEM: ATOMS id x y z vx vy vz
3419 0.141681 1.2912 0.854255 -1.43707 1.82499 1.11056
1020 0.852254 0.365656 1.22551 2.03204 0.78042 1.23618
1878 0.848361 1.34931 0.117713 -0.461313 0.147287 -0.0127069
3843 1.90506 0.408454 1.1942 -0.61918 -1.77911 -0.162958
528 1.69074 1.36534 0.719457 -0.43681 -0.433041 0.00542216
723 2.25565 0.481106 0.130424 1.07831 1.09734 0.661202
2873 3.79419 1.24756 0.464775 0.722309 0.860902 -0.49713
1319 4.48987 0.893283 1.29864 1.62285 -1.853 -0.803369
1739 5.59294 1.30088 1.36856 0.317578 0.0998975 -1.46799
3329 4.55675 0.703502 0.100544 0.402575 0.0902396 -1.36533
1369 5.35247 0.0376319 0.385448 0.158335 0.973265 0.6468
1172 6.79781 1.32681 1.43486 -0.281664 0.490564 -0.0399304
492 6.15521 0.647186 0.526053 -0.52365 -0.936322 -2.61055
1776 7.22976 0.813179 0.371801 0.859784 -0.769624 -0.220578
3851 8.7392 1.47307 1.09303 0.275704 0.802094 -0.616131
1963 8.1836 1.34822 0.238989 1.56397 1.6213 -1.62962
3217 9.69346 1.2243 0.45893 2.09666 -0.0850453 -0.168828
1318 9.59828 0.644232 1.26763 0.234028 0.227785 0.847115
1152 11.6825 1.4358 0.800464 -1.65258 0.145764 -0.530835
2293 10.8404 0.903623 1.11636 0.00968597 1.43753 0.309846
2278 10.4681 0.00499268 0.23964 -0.29864 -0.0229918 1.66653
196 10.9907 1.39758 0.0609973 0.688636 0.291673 2.80153
2823 12.4131 0.775363 0.560483 -0.660808 0.341154 -0.600159
79 13.8815 1.22727 1.43509 -0.596455 -0.906196 -0.2568
1082 14.4632 0.635744 0.191458 -0.123534 -0.890484 1.06223
2194 17.2327 0.426655 1.06152 -0.0966562 0.300379 0.0476775
585 16.6344 0.58665 0.129999 -0.503532 -0.612493 -0.0356246
635 0.238172 2.16354 0.229484 0.644495 -1.50012 0.684537
2630 0.320753 2.35756 1.31377 0.0289048 0.274591 1.11566
360 2.70472 2.90874 0.306039 0.919773 0.691714 -0.673468
2473 2.76752 1.69983 0.381097 0.754713 0.700914 1.01481
1011 1.79637 2.46315 0.973565 1.38908 0.679187 -0.460893
804 4.02959 2.66499 0.774484 0.673089 -0.745914 -0.469716
3225 3.33045 1.60349 1.46481 -0.178513 0.0205575 0.956691
1941 4.72268 1.79958 0.837795 1.53157 -1.40923 1.03263
724 5.79543 2.2552 1.20785 1.46181 0.527967 1.28732
1920 5.54008 2.31372 0.0832689 -0.128748 0.25602 -0.59095
2160 6.42328 1.74278 0.43121 -0.101436 0.54797 0.151546
1374 6.42981 2.87653 0.587018 0.589354 -2.76692 -0.0553001
1312 7.33825 2.22269 0.209857 -1.70174 1.588 0.246363
1666 8.76617 2.74386 1.03224 -0.199979 0.305842 0.421235
2027 7.63397 1.88139 1.13185 -0.176105 0.43205 1.6188
2820 10.312 2.00946 0.905219 1.58074 -0.317995 -0.101924
1394 11.3458 2.28073 0.260225 0.878264 0.487172 -0.665436
703 13.1631 2.07176 1.3526 2.04262 0.667008 -0.355101
1403 12.3135 2.35964 1.00036 -0.391874 1.10005 -0.358622
504 13.6616 1.74541 0.347949 0.894241 -0.76963 -0.924106
3832 13.4338 2.81377 0.55976 0.444789 -0.930518 -0.229501
75 14.3903 2.26948 1.0503 0.792437 2.48698 0.365147
3332 15.5833 1.98969 0.731962 0.257848 1.40659 0.872178
290 16.5078 2.65754 0.432306 0.256772 1.65051 -1.08429
2099 16.9559 1.55057 0.74254 -0.317729 -0.0386033 0.275244
790 0.992199 3.35614 1.30191 0.913373 -0.797297 0.605845
474 0.561077 3.09502 0.402365 -0.176517 0.034148 0.79085
2563 0.547154 4.08774 0.161967 -0.181732 0.60555 0.536864
431 0.779093 4.43832 1.11065 -0.642971 1.16496 -1.07366
2069 1.5261 3.18772 0.276701 -0.888792 -1.35779 1.06191
1640 2.30884 3.97223 0.34153 0.819203 -1.64319 -0.412786
3767 3.06596 3.98323 1.00951 -0.785588 -0.976686 -0.580487
312 4.12025 3.49586 0.0533276 0.0372026 0.556083 0.187141
2597 5.37251 3.38782 0.237284 -0.0872345 -0.243858 -0.682859
437 4.93424 4.33959 0.608235 -0.578931 -0.808939 0.130536
3607 4.70444 3.40334 1.25571 -0.290027 -0.55022 1.78199
2937 5.83469 4.38523 1.33606 -1.24767 -1.21564 0.471
395 6.47191 3.9295 0.281455 1.09013 -2.00206 -1.01886
3876 7.39526 4.04441 0.664249 -0.672218 -0.048869 1.79895
91 8.3888 3.81265 1.22263 -1.53601 0.651466 0.731807
1442 9.49684 4.00511 0.753282 0.00626135 -1.5018 0.507235
278 9.62343 3.04482 0.0679587 1.17341 0.619713 -0.630642
2008 10.6184 3.45943 0.882967 -0.598868 -2.19459 1.70002
2452 11.6334 3.54608 0.475228 1.31782 -0.875013 0.934763
3439 10.8239 4.43043 1.15976 -0.142968 1.99542 0.254585
1513 12.7634 3.38434 1.35344 -0.201649 -1.32712 0.150166
349 13.1934 4.34051 0.787366 0.0238038 1.60888 -0.924136
3132 14.3181 3.95097 0.675596 -0.210368 2.19118 -1.91027
586 15.145 3.00903 0.787914 -0.388738 -1.68654 -0.901413
3944 16.3122 4.04011 1.04276 1.89971 1.08986 -0.577338
1433 15.4142 4.26191 0.416822 -0.803127 0.459891 0.317236
3109 16.9679 3.86862 0.278428 -1.09457 1.89914 -0.155203
39 17.8643 3.73216 1.07309 -1.33854 -0.821647 -0.188506
715 0.57275 5.46716 0.829225 0.673234 0.231252 -0.179747
1198 2.65097 4.87404 0.441694 -0.235835 -0.584479 1.47046
2724 1.59603 5.48297 0.609402 0.105767 -1.49913 -0.963947
771 2.40587 4.78945 1.45827 -0.0936972 -0.745357 0.583633
2613 2.88574 5.76705 0.976836 0.339229 0.23667 0.510143
857 3.85235 5.2706 0.684322 1.04766 -0.0701957 -0.551787
738 4.88489 5.5082 0.0221266 -0.806053 1.90077 -1.89782
3258 4.60704 5.90543 1.2505 -1.72257 -0.442612 0.230926
3611 5.64639 5.80198 1.18392 1.39918 0.294258 -0.507977
3374 6.81339 5.03232 1.1239 -1.42303 -0.614005 -0.614663
1267 7.46505 5.45792 0.442689 -0.503689 1.24977 -0.257793
1763 8.67791 4.95814 1.43415 0.675384 0.126325 1.12845
2053 9.12957 5.37574 0.577946 -1.80742 0.799594 0.0846633
425 9.82584 4.82728 1.27212 -0.561897 -1.2587 1.40685
2171 10.5664 5.32732 0.508228 -0.621429 -0.668659 1.06782
429 11.4507 4.49699 0.127905 -0.0367694 -1.60185 0.102846
2833 12.0075 4.57838 1.07061 1.90202 0.628849 -1.08014
1170 13.2701 5.88555 0.212956 0.22541 1.33853 1.1678
3122 12.7297 5.34868 0.946885 0.00863605 1.3855 0.468232
1814 12.0132 5.32924 0.0735743 0.268819 0.324354 -1.02499
2634 14.0722 5.16544 0.999155 2.01063 0.856527 -2.24995
247 13.4421 5.92118 1.37801 0.783386 -1.52199 2.06823
718 15.0259 4.71066 1.42026 0.049876 -0.271607 -0.339989
513 15.7964 5.50281 1.44621 -0.623406 0.341164 -1.57585
2894 15.0033 5.56406 0.669321 0.301756 1.88095 1.01127
1446 17.4469 5.64808 0.249249 -0.762763 -0.929674 0.416105
2756 16.6387 4.94784 0.497247 0.534084 -0.243046 -1.33028
2804 17.5869 4.92494 1.20974 -1.25886 0.254061 -0.374364
1671 1.28941 6.42887 0.121205 1.26308 -1.03208 -0.340559
1926 0.710598 7.17619 0.707268 1.02787 1.0137 -0.484893
2577 2.97709 7.15247 0.733791 -1.29406 -0.641821 0.640309
140 2.06307 6.54109 0.916971 1.06487 0.782042 -1.77291
3482 3.98051 6.22438 0.263316 0.241725 -0.500081 1.8571
3158 3.79497 7.26689 0.0362769 -0.275619 -0.491263 2.04437
2813 5.66818 6.92435 1.3197 -1.52655 1.16701 -1.70472
3402 5.32163 6.62417 0.272386 1.38111 -0.671954 3.36624
1856 4.69809 7.35274 0.802461 -0.487462 -0.244393 -1.76304
3653 6.61502 6.11316 0.84207 0.610129 2.36969 -1.38859
2926 6.71956 6.88654 0.11577 0.529015 -0.344291 1.52256
3686 7.62476 6.89645 0.663541 -0.395857 0.694633 -0.0468874
130 8.84286 7.26962 1.33833 -0.431812 0.735968 0.728947
418 9.05756 7.15764 0.23374 1.40143 0.0655994 0.168902
280 10.072 6.83799 0.0588393 -1.22847 -0.632406 -1.38325
3580 9.77525 6.45392 1.25707 -0.822561 0.305735 1.33868
2980 11.8973 6.21755 0.59011 -1.65811 -1.12844 0.849393
2902 10.9113 6.28517 1.07577 0.398303 -0.215447 1.01129
1409 14.4164 6.53085 0.911122 -2.85905 -1.21165 -0.470499
1875 16.3489 6.68739 0.619136 -1.1725 1.03955 0.0213286
1217 15.397 6.44138 0.409805 0.20744 0.0957173 -1.39506
742 15.6137 7.3496 1.03869 1.74436 0.355825 -0.654461
3787 17.2752 6.36666 1.23102 1.16765 0.354047 -1.38945
8 0.39968 8.06383 1.17465 -0.557438 -0.114296 2.20762
1923 2.58051 8.28403 1.00064 1.49955 0.135474 -0.917206
784 1.49998 8.1257 1.02679 -0.357054 0.38609 -2.11679
3940 1.63824 7.47754 0.252159 0.733812 -0.0220366 -0.464663
1707 2.89431 7.98991 0.135911 1.99662 -1.85466 1.65389
2302 4.30026 8.30311 0.00772878 -0.923577 0.791843 -0.815252
55 3.79961 7.85495 1.05221 0.156248 -0.0853643 1.50435
708 4.97541 8.42182 0.985962 -0.682959 1.82878 0.645118
508 7.05879 8.26911 1.20177 -0.264983 1.32654 -0.430576
238 5.96207 7.86994 0.698537 0.41697 -0.0072627 0.565652
1644 6.39756 8.80258 0.173983 -0.192012 0.653078 -1.32047
1622 8.84935 8.82386 0.474984 -0.394344 1.56821 -0.0663006
2188 7.6644 8.83682 0.0453525 -1.70515 0.290689 -1.98587
3371 8.31468 7.776 0.540046 -0.233892 0.325526 0.971314
3147 8.07099 8.70507 1.10503 -0.399179 0.544129 0.944431
180 9.83713 7.83269 0.86319 1.2583 -1.39078 1.45458
761 11.2248 8.00471 0.376409 -0.918692 -0.928949 -1.76475
2696 11.2444 8.78645 1.10176 1.71887 0.122174 1.07062
3981 13.3661 8.12519 0.0488652 1.67638 -1.5908 1.2
2856 12.8177 8.52801 1.06478 1.36126 -0.454116 -0.0209048
1450 12.7529 7.49646 0.905734 1.27424 -0.606715 2.98594
3833 14.2502 7.49428 0.255478 0.283146 0.216499 -0.0754685
3991 14.8767 8.35615 1.37878 -0.0945259 -0.591578 -0.803082
1990 15.9692 8.34125 0.612839 0.800765 1.26485 0.347075
3721 16.7799 8.85606 0.333361 0.0404869 0.0942202 -0.73015
2137 17.5006 7.50846 0.666466 0.683158 0.555555 -1.02126
687 16.6269 7.5817 1.19514 -0.568745 0.750634 -0.718525
1286 16.6699 7.83932 0.087563 -1.75222 -1.01051 0.5631
2546 0.578637 1.04856 2.15013 -0.111442 0.41692 0.541698
2683 2.36354 1.29639 1.67305 -1.66764 -1.34116 -0.0516555
773 1.57849 1.24717 2.59476 1.07313 0.382723 0.10578
1065 1.60831 0.270976 2.40029 0.647901 -0.10843 -1.0375
3777 3.2603 0.427049 1.55645 0.225208 -0.160947 0.0981577
2155 4.62437 0.542981 2.32201 0.164852 0.61975 1.25879
1022 5.62285 0.0323826 1.79689 -1.04491 -0.155172 0.666853
1032 5.59779 1.48622 2.33885 0.260239 1.36597 -1.22738
2321 6.52926 0.840008 2.84425 -0.643621 0.414179 1.48289
2272 6.58828 0.214175 1.90168 -0.377773 1.61414 -0.989977
2972 7.50055 0.577216 2.53243 0.420251 -1.29984 -0.31288
1634 7.89812 0.850656 1.56746 0.0963825 -0.057484 1.30808
3648 9.84236 1.46665 1.98844 -0.782063 -0.345575 -0.150299
400 9.305 0.918044 2.68079 -0.827307 1.6124 0.376412
2238 10.362 0.0501205 1.49766 -0.549862 -1.13179 1.09832
2716 10.6538 0.122069 2.61343 0.850491 -0.360656 0.181904
3875 10.8138 1.26045 2.64812 -2.37986 0.796865 1.40707
2200 12.8379 0.983 1.56257 -0.695144 -0.796563 -0.403093
554 11.9781 0.912033 2.8096 -1.74992 -2.02685 0.556326
853 13.0409 0.965718 2.58155 1.83398 -0.510463 -1.49698
414 14.8476 0.791205 1.70421 -0.301184 -0.143621 -1.41826
338 16.1095 1.0846 1.76094 -0.939068 -0.0832763 0.437538
1968 16.1073 0.72184 2.82858 1.55509 1.13114 -0.983289
2861 17.1834 1.09233 2.01767 -1.85769 1.77223 -0.405434
392 16.7558 0.0716601 1.85264 -0.477508 0.229431 0.247009
631 17.7432 0.2297 2.46574 1.72324 1.0061 0.466684
229 1.42778 1.84096 1.63581 2.00378 -0.95776 1.76387
1081 0.720362 2.17368 2.85657 0.444251 0.114636 -0.934036
1266 1.863 2.76487 2.85721 0.751786 0.775446 1.69209
3745 2.9975 2.83977 2.18233 -0.109428 -0.274168 -0.574581
1157 3.9472 2.87009 1.91447 -0.470053 -0.631714 0.906509
732 4.87289 2.46558 2.005 -0.694968 1.47427 1.1635
1470 6.41754 2.65215 2.57573 -1.11243 -0.304414 -0.858538
1657 6.80334 2.3515 1.48989 -1.4427 0.06312 -0.387242
1200 7.11492 1.66934 2.54045 1.51587 -0.380412 -0.682348
3471 8.04529 1.52581 2.44612 -0.598306 1.48614 -1.42343
42 8.54991 2.3255 2.00678 -0.0408714 -0.164469 -1.2493
1035 7.86345 2.77904 2.55582 -2.00639 -0.211518 0.358638
2289 9.66959 2.52155 1.55355 -1.43232 0.197295 -0.152711
3042 10.2579 2.51166 2.48286 1.89025 -1.01798 -0.769869
2532 10.9822 2.46028 1.67799 -1.25042 0.511929 -1.60226
2288 11.5106 2.20405 2.63972 -0.673912 -1.55109 -0.76684
266 12.0696 1.6423 1.98053 -0.348002 1.4943 -0.106085
1329 11.9848 2.9018 1.90074 1.61699 0.587448 -0.791025
2657 13.0653 2.83447 2.44875 -0.271186 0.286208 1.07482
1432 14.6984 1.84476 1.8475 -0.777358 0.70174 0.541002
2314 13.7722 1.94751 2.3677 -1.73182 -0.934587 0.334041
656 13.8238 2.93676 1.63863 1.26419 -1.7279 1.59921
1445 16.3298 2.03072 2.14163 -2.12434 -1.11566 1.19412
2640 15.155 1.90408 2.86927 -1.54489 0.680825 -0.561083
3129 17.4411 2.14154 2.96717 0.652192 1.24461 0.659847
1175 0.84203 3.25396 2.55566 -0.48913 1.15728 1.23669
908 1.96317 3.43763 1.60155 1.84645 0.453321 0.695038
1531 2.66545 3.82108 2.79447 -0.563055 0.222582 0.345957
1248 3.6383 3.96486 1.99077 0.0851417 0.0660183 -1.41475
3083 4.57799 3.05566 2.86153 -0.274871 -0.000297204 -0.297631
3366 5.78788 3.98123 2.9689 1.42891 -0.213342 0.0831076
3376 4.80669 4.39016 2.43761 -0.615405 1.24356 -0.536176
2746 6.21346 3.24253 1.69689 -1.35566 -0.19454 0.338872
881 6.67126 4.16424 2.03314 1.33038 1.13506 -0.41121
1406 7.65353 4.43064 1.6432 -0.792124 1.70583 -1.1888
2082 7.47633 3.28464 1.69357 1.38367 0.142647 -0.647332
3975 7.48246 4.02793 2.84553 0.0233086 -1.29115 -0.224803
1650 9.22004 3.16681 2.35739 -0.256983 0.384249 0.832856
1162 11.5956 3.87722 1.73071 -0.107645 -0.558588 -0.527287
1994 10.6024 3.45073 1.98517 0.483226 -1.21839 1.41216
2111 12.9747 4.03271 2.82725 0.0693275 0.498667 -1.90736
3169 13.9531 3.94325 1.65463 -0.845692 1.32561 1.11279
1199 13.852 3.52479 2.9072 0.0771088 -1.31129 -0.130951
2709 15.9809 3.08146 1.61634 -0.989793 1.01429 -0.99594
2366 16.2554 3.9371 2.85129 0.653169 0.0838675 0.240746
1452 15.0091 2.99272 1.92024 0.794375 -2.09827 1.725
125 15.1568 3.91482 2.32223 2.74662 0.865182 -0.526849
2572 16.9951 3.1239 2.80372 0.270079 0.790984 -0.344472
802 16.8311 3.82881 1.90079 2.32571 1.29379 -0.485541
435 17.854 3.70495 2.27441 0.653812 -0.164343 -0.0819662
2143 0.338285 4.62385 2.12273 1.01184 1.06117 -0.925494
1567 1.20933 5.32483 2.20047 2.30052 -0.649473 0.401797
3166 1.89398 4.76823 2.77433 -1.08632 1.48417 -0.293178
13 1.84506 5.81164 1.5768 -1.48936 0.788018 0.479192
2710 4.15038 5.17485 2.66598 0.638178 1.35473 -0.0171447
1647 3.20464 4.72271 2.45467 1.38739 0.108674 0.557335
2179 4.23676 4.80293 1.54755 -0.316274 1.29039 -1.45989
2056 3.60924 5.49267 1.85458 1.16847 -0.331676 0.920788
3 5.08769 5.46276 2.27441 0.910625 -0.277344 0.346303
1642 6.90845 5.3876 2.09127 1.04453 -0.320685 -1.37275
14 5.97898 4.87474 2.31658 0.360601 -1.73694 0.998203
16 6.17581 5.8868 2.82665 -0.799142 0.949918 0.755092
7 7.79417 5.60993 1.5134 0.596257 0.868262 -0.668315
1316 8.03004 5.31569 2.77565 -0.137847 0.0199953 1.97155
1414 10.0689 4.53763 2.44509 -0.777693 -0.897867 1.50302
2423 9.07286 5.52441 2.50518 -0.958087 -0.451215 -2.35759
666 8.9536 4.49557 2.3276 0.296942 -0.535868 1.20255
182 10.389 5.65361 1.64959 -1.15324 -0.104586 -0.0124801
760 11.5922 5.59262 1.49785 -0.533458 -0.0227957 -0.362812
1131 11.1284 5.50999 2.42999 1.83654 -0.466513 -1.77385
1515 11.2229 4.52984 2.91615 -0.252348 0.25654 -0.170396
1555 12.326 5.83346 2.35833 -1.50058 1.26352 1.87488
834 12.3938 4.86351 1.90977 -0.80088 -1.2585 0.877819
174 14.7654 5.69081 1.8587 -0.996056 -0.203571 1.2135
3982 13.421 4.81429 1.93725 -0.0495921 0.174327 0.333991
1799 13.7998 5.73612 2.54707 1.37253 -1.4833 -0.563129
1631 14.0721 4.73625 2.70575 -2.23441 -0.803551 -0.197027
1754 15.1802 4.86572 2.68718 1.11962 1.3277 0.517747
816 16.137 4.58757 2.08028 -0.364934 0.330326 -1.08817
108 15.9394 5.76362 2.68923 -0.0620711 -1.96583 -1.27431
1760 17.8359 5.78165 1.97767 0.371413 -0.29378 0.0801459
2659 16.7744 5.80757 2.01027 -0.12597 -0.561814 0.444798
2751 1.19935 6.97594 2.00339 0.744949 -1.20542 -1.36436
3336 0.746546 6.17596 2.60918 1.08254 -0.2064 0.621528
694 0.526789 7.30439 2.8021 0.317656 -0.167391 0.252596
210 1.75717 6.00077 2.90425 0.510639 -0.619724 -0.982248
929 2.71872 6.12641 2.10739 -2.02907 -1.17343 -1.69888
1761 2.30693 6.9715 2.77024 -0.313761 0.0172982 0.0661446
1905 3.49207 6.50109 1.51781 -1.56064 -0.455842 1.64306
2943 4.02135 7.31457 2.23491 -1.44453 -0.69722 -0.735731
377 3.49667 6.33168 2.80177 1.26742 0.524205 -1.34144
1786 4.83253 7.39612 2.85601 0.309787 -0.583184 -1.91213
3093 4.48931 6.35962 2.41714 -1.06522 -0.691978 1.08406
1743 6.39083 6.39778 1.94724 1.96916 -0.474836 -2.64437
2183 7.42273 6.64062 1.66498 -0.286817 2.07063 -1.13429
1328 6.9605 6.87151 2.86619 0.316129 0.504977 -0.312243
2291 7.90602 6.40847 2.48234 0.402886 0.277797 0.550473
1251 8.65851 7.30793 2.74963 1.68027 -0.0904211 -1.53497
1871 10.2581 6.50965 2.86139 -0.440741 -0.895952 -1.21006
3656 9.96339 7.35461 2.31343 -1.37222 -1.5809 0.519663
466 11.5616 7.23077 2.95255 -0.945868 -2.0285 -0.855758
410 11.5683 7.02844 1.56306 -0.319595 -1.48799 2.52744
1989 12.4835 6.48377 1.50053 0.960959 -0.356951 1.01504
2784 12.6854 7.285 2.34494 -0.322401 0.0951291 -0.156263
2234 14.4614 7.41099 1.77953 0.284604 -0.441388 -0.0297111
879 14.0488 6.86694 2.53926 1.1894 0.946639 -0.324988
3383 13.5088 6.99811 1.56277 -0.98024 0.0584119 2.21613
2614 16.2955 6.93436 2.33332 0.0568144 -0.0490271 -0.521272
2163 15.3237 6.56933 1.92714 1.94638 1.5144 -1.06849
2116 15.2383 6.72756 2.95058 -0.153569 -0.387725 -0.597225
329 17.3692 6.79044 2.08253 1.03746 -0.127217 0.283806
295 1.1122 8.93049 1.56002 -1.60561 -1.87418 1.48556
2524 0.955402 8.07755 2.12803 -1.19616 -0.0750358 0.166259
1297 0.311658 8.81533 2.21416 0.453479 0.0775826 1.08603
2596 1.60953 7.82903 2.97469 0.416325 0.278726 0.931465
2230 2.23311 7.45241 1.68337 -0.0530195 -1.41088 -0.392073
2847 2.02393 8.64272 1.92493 1.46095 -1.00243 -1.01509
1544 4.23074 8.76135 2.97726 1.05956 -0.925985 0.440716
2900 3.35262 7.9511 2.76185 0.477661 -0.439609 1.34006
2141 3.78829 8.54525 1.84984 1.52051 1.20658 0.401877
1395 5.92585 8.46478 1.95082 1.08327 2.09417 0.468621
2764 5.10463 7.67187 1.80695 -0.596235 -0.768389 -1.14657
358 7.04883 8.09976 2.61959 -1.70553 -0.471593 -0.832594
730 6.56597 7.47512 1.65919 -0.888571 1.89251 -0.493926
1298 6.0445 7.67286 2.74222 -0.535553 0.528534 -1.36242
701 8.9234 7.96497 1.97151 -0.738095 -0.221505 -1.29161
3096 7.89627 7.8108 1.98398 0.984322 1.34233 -0.219202
2966 7.98828 8.44038 2.91973 -0.750545 1.2784 0.128143
1159 8.64384 8.89024 2.29386 1.38118 -0.55426 0.410596
1588 9.68176 8.71256 1.75759 0.24847 -1.96397 1.72689
3852 11.7069 8.19101 2.11136 -0.288054 -2.11566 0.0249623
454 10.7317 8.72374 2.13966 -0.59346 -1.32012 -1.167
2182 12.8909 8.6609 2.36744 -0.267405 0.372816 1.24192
3847 14.6253 8.50737 2.4191 -0.62107 -0.109628 0.843279
1154 13.5572 8.13696 1.73726 -0.374104 -0.55846 -0.0135499
2161 16.0831 8.76403 1.52382 -1.46287 -0.891544 0.172456
2983 15.2978 7.6373 2.22958 1.04517 0.83857 -0.715618
1787 16.383 8.45912 2.75891 0.683774 -0.00607528 -0.143875
2783 17.2308 8.18464 1.91881 0.565194 -1.02807 0.0460688
1658 0.0909888 1.18214 3.17892 -0.406008 0.210901 0.659538
1859 0.916112 0.426605 3.03466 -0.983901 0.242991 -0.366685
1437 1.88932 0.623044 3.43659 -0.247291 0.687173 0.791311
277 2.71854 0.0983147 3.49429 1.00554 -1.05692 1.15186
2620 2.67647 1.1919 4.18449 1.08522 0.0806406 0.742813
86 3.59172 0.694295 3.40967 -0.519619 0.767782 -0.996958
363 4.54318 1.29593 3.47131 2.64776 -0.795927 0.393768
262 5.78725 1.35113 3.71008 2.87247 -0.929061 0.00404758
1284 6.11679 0.50367 4.25578 0.982714 -0.57145 0.687262
1150 7.86259 0.458183 3.76952 0.387811 -0.65848 -1.38163
810 9.08166 0.823243 3.74066 1.13411 -0.955938 -1.32401
2122 10.0611 0.689229 3.36146 -0.114983 2.62367 -0.0915189
274 11.0173 0.191419 3.51719 1.29785 -0.687797 1.67317
2996 11.8038 0.517187 4.33715 -1.4988 -0.800505 1.16178
2466 13.3548 0.620073 3.50749 0.403859 -1.00973 -0.599795
2993 12.3918 0.0992834 3.5847 0.0553456 1.89765 1.21532
3575 14.0782 1.38287 3.26044 -1.17891 0.128298 -0.326934
97 14.8163 0.978782 3.84957 1.68182 -1.07005 0.614658
3733 13.7789 0.957259 4.40497 0.749065 -1.42866 1.21987
3034 16.2114 0.104963 3.76681 0.62514 0.529878 -1.19034
2765 15.6862 1.30142 3.52985 1.8921 -0.868073 0.36286
2084 15.2225 0.126451 3.13306 0.155859 0.861952 -0.992327
498 17.2022 0.446238 3.26195 0.294057 1.99483 0.679338
2313 16.8007 1.48588 3.57231 -0.145924 0.505872 0.0226013
3613 16.7521 0.826708 4.45621 0.0566483 -0.00598539 -0.27927
608 0.583838 1.87658 3.89306 -1.28283 0.455171 -1.85987
1221 2.71816 1.70554 3.16978 0.108939 1.72576 0.316303
3664 1.63428 1.65528 3.55006 0.526066 1.14484 1.07003
2159 2.93938 2.73773 3.34192 0.715433 -0.481953 0.339266
430 1.62614 2.81199 3.92436 -0.144956 -0.938202 1.57842
1364 3.77225 1.93089 3.28679 0.52014 0.275785 0.102167
3571 4.37063 1.97721 4.36858 1.2784 -0.777141 0.436329
3839 3.02141 2.23219 4.2947 0.120223 -0.105747 0.668891
1249 5.49783 2.23295 3.08182 -0.10674 0.978287 -0.326148
2791 5.48118 2.392 4.27784 -1.04586 1.4283 0.266005
2495 6.34466 2.65131 3.73283 -0.947833 1.58133 -0.17641
382 7.33895 2.68072 3.50063 0.826705 -1.39025 0.576179
1359 6.99079 1.71874 3.64203 -0.267063 0.53319 -1.92023
2816 8.58164 2.70181 3.30252 -0.631365 0.286425 -1.87494
3388 8.10655 1.93313 3.81383 -0.833412 -0.534555 -0.0845149
3391 8.01199 2.85083 4.39965 -0.557836 -0.565845 0.57428
3131 9.08321 2.21189 4.06175 0.0403334 0.0176815 0.661179
2028 9.89212 1.5992 4.14975 -0.875975 -0.383122 -1.89045
1767 9.50062 1.87714 3.2128 0.66156 -1.85351 1.31853
1487 11.4504 1.64562 3.58107 -1.44483 -0.508269 -0.0819012
669 10.5812 2.24241 3.59551 -0.822413 -1.07607 0.142224
2060 11.4909 2.65594 3.76968 -0.944639 -0.382361 -0.648753
3578 12.6307 1.57849 3.28623 1.03839 -0.615321 2.12297
3937 12.287 2.66462 3.09055 0.331769 -0.466075 0.215869
3930 12.5059 2.84088 4.14291 1.24696 -0.827743 1.731
3330 13.4195 2.27361 3.59289 -0.303922 0.439285 -0.833967
1133 14.2947 2.50398 3.94297 1.27031 0.15294 0.711738
3920 14.7791 2.94935 3.02519 0.103565 1.43282 1.39544
3118 15.397 2.14347 4.02872 0.301089 -0.0887724 0.0234097
3023 17.5233 1.61548 4.44897 -1.00681 1.77161 -0.408596
957 16.4725 2.52739 3.5573 -0.783242 -1.38383 0.421351
2668 17.1604 2.63507 4.42722 1.00401 0.364327 -1.97398
1231 17.8762 2.73972 3.68106 0.515709 3.07913 1.54318
2605 1.27245 3.69274 3.494 3.38676 -0.404816 -0.350552
2935 2.57342 3.61064 3.83484 0.54737 -1.48481 1.52854
2283 3.86492 3.87298 2.99991 -1.67567 0.226886 -0.812134
428 3.79789 3.12885 4.03701 -1.02746 0.187727 -1.13072
2115 3.69442 4.2306 4.33265 -1.2262 -1.01077 -1.44396
937 4.66315 4.04659 3.91102 1.29576 0.208896 -0.245245
186 5.3087 3.25629 3.65307 -0.654652 0.788901 0.0615223
1974 5.72988 4.14185 3.98074 1.75685 0.480406 -0.538073
1840 6.75829 3.48222 3.28925 0.336838 0.767756 2.6414
1289 7.15865 3.42196 4.29931 0.289489 1.89007 -0.0372709
3841 8.28508 4.43105 3.38692 -0.679488 -1.66612 0.720616
34 9.83724 3.28297 3.26636 -0.594401 1.12938 -0.434648
2384 9.30014 4.36137 3.491 -1.07747 -0.818078 0.237515
2227 10.297 4.09573 3.89156 -2.39027 1.09231 -0.0531006
2739 9.24734 3.21691 4.31304 0.460724 0.379184 0.0768572
861 10.8945 3.5536 3.15454 0.259678 0.2161 -0.190488
3882 10.6394 3.1156 4.42703 -1.02294 -0.0556093 0.610546
1773 12.2109 4.11904 3.7604 0.321884 -0.0768059 -0.701653
3878 13.3704 4.10807 3.80923 1.61787 -2.05311 -1.16363
2750 14.6464 4.12258 3.34166 -0.995399 2.18578 1.52357
3909 14.0942 3.63063 4.35047 -0.718099 -0.8857 -0.570489
3739 15.5288 3.5821 3.63241 -1.56192 0.665475 -1.68577
1004 17.8677 3.67003 3.39729 1.4311 -0.846999 0.64168
3934 1.07671 5.18918 3.80039 1.05329 -0.277711 0.00907936
175 0.0370932 5.28 3.09291 0.631565 -1.46904 2.16766
2588 0.143825 4.65948 4.13866 -1.30394 0.778118 -0.641694
1517 2.18212 5.54116 4.20172 -0.849275 -0.32073 -0.697919
1993 2.80128 5.48763 3.12472 1.75466 1.22782 -0.708704
3651 2.91169 4.6908 3.61414 -0.31074 -0.576754 -0.750795
2925 1.90023 4.5004 3.83656 0.454514 0.610261 -0.36045
3424 4.13447 4.96141 3.69763 -1.06585 0.754593 -0.273433
22 3.45531 5.797 3.82594 -1.04093 -0.708107 -1.2862
903 4.6442 5.88484 3.47625 0.459213 1.1519 1.13886
1898 5.40435 5.14903 3.4018 0.087883 -0.642227 1.18902
3861 6.78154 4.80713 4.35871 -0.646643 -2.03263 -0.0351901
2453 6.61695 4.53819 3.22635 1.91784 -0.990997 -0.0395789
3476 7.13119 5.73363 3.34257 1.48386 1.87919 -0.756692
1949 8.76249 5.90922 3.76195 -0.150332 0.0558327 -1.10285
3385 10.4177 5.17437 3.51511 -0.696649 0.310452 0.659904
1930 9.68369 5.16872 4.37448 -1.59219 -0.231918 0.562048
1516 11.3933 4.87427 3.97644 -0.653689 0.139644 -0.242917
969 11.9832 5.35799 3.27053 2.24923 1.27185 -0.953996
1725 12.366 5.15643 4.28549 0.456333 1.33515 -0.185679
3585 13.2252 5.05794 3.31797 0.650718 0.083454 -1.38765
413 14.1888 4.78635 4.00499 -2.31277 2.71463 -1.05667
1943 14.75 5.75875 3.04538 -1.39611 0.529275 -0.174291
1922 15.9614 4.7116 3.49597 0.159433 1.44285 1.66358
135 15.3281 5.00274 4.41217 -2.17842 -0.40297 -1.81563
48 17.0443 4.6154 3.20718 -1.50556 0.9292 0.507822
919 17.7908 5.83702 4.15754 -0.0346409 1.64693 -0.8231
373 16.7246 5.44357 4.13828 -0.0271047 0.496177 1.2559
2952 16.8775 4.50993 4.25593 0.197228 -1.32924 -0.824946
546 1.30258 6.7824 3.49864 -0.468395 -0.576882 -0.179364
1896 0.280873 6.91152 4.12168 -0.493002 1.40711 0.433827
1836 2.72376 6.49654 3.82576 0.013035 1.09777 -0.487453
2480 4.04916 6.79073 3.8763 1.21633 1.45484 -0.385682
2186 5.54588 6.66308 3.16193 1.23089 -1.44223 -0.354329
1282 5.90994 7.44906 4.1584 -1.16785 -0.847316 1.9145
1429 5.47009 6.02996 4.43287 -0.643982 -1.416 1.56368
3190 6.52723 6.60066 3.81804 0.191047 -0.286843 -1.13827
2503 7.43352 6.06166 4.30124 -1.47142 0.488892 0.38483
1713 7.68356 7.40533 3.31743 2.01353 0.737625 0.135335
671 8.11231 6.56693 3.48388 -1.28737 0.313919 0.141361
1798 7.54756 7.0259 4.36222 0.453018 1.42504 0.153762
2801 9.54216 6.18618 4.35906 0.636597 0.460033 -0.52542
1426 9.20992 6.42027 3.00209 -1.17674 -0.620886 -0.192162
2890 9.63669 7.34584 3.32564 -2.29887 -0.757229 0.547815
750 10.6451 7.39644 3.56768 -1.7109 -0.64014 0.110038
2684 11.3983 6.22812 3.25309 -0.308205 -0.322682 -0.932792
1667 11.1284 6.35393 4.3301 0.831797 -0.435592 -1.79736
1539 12.6259 6.04187 3.76403 -1.37848 -0.686649 -0.489968
707 12.111 6.86921 3.96403 0.983863 -0.00430364 0.20944
2695 13.174 6.94755 3.51977 0.230862 0.0668397 0.431812
6 14.0384 6.44167 3.533 -0.138615 0.485597 -0.143265
1273 16.0931 6.14224 3.82052 -1.82148 0.822936 1.49659
1343 17.0151 6.01377 3.05706 -1.637 0.419771 1.89691
1674 17.1379 6.79347 3.79797 -0.172711 0.194551 -1.54359
2521 0.75182 8.52455 3.16006 -0.803262 0.966293 0.303579
1398 0.801846 7.73928 3.77266 -0.0570894 -1.32729 0.638833
1872 2.38386 8.57003 3.12173 -1.36708 0.951171 0.0192281
93 2.78194 7.61067 4.29356 -0.814702 -0.423174 2.58515
1765 1.82206 8.08865 4.02508 -0.14578 0.200377 -1.78193
2758 4.15818 8.01159 3.67114 -0.159878 0.411695 0.578144
3449 3.37243 8.65215 3.65613 0.188086 -0.529187 0.270375
2411 4.51772 8.84322 4.12235 1.10552 0.423248 2.78436
1802 5.19476 8.14954 3.50923 -0.791795 -0.0802771 0.282871
2918 6.53724 8.26301 3.72438 -0.80119 -1.42593 -0.617329
2247 8.53339 7.55676 3.84619 -0.434057 -0.58231 2.04811
581 8.64445 8.77773 4.06628 -0.452467 1.18346 0.618449
2964 9.00743 8.19955 3.18906 -0.727656 0.926257 0.0598683
2797 9.66632 7.68164 4.44966 -0.0754198 0.452114 0.761274
614 11.5496 7.77343 3.92076 0.959911 1.61451 -0.855195
2009 10.8485 8.38867 3.13284 0.873433 0.820995 1.48709
686 10.5369 8.17389 4.35591 0.92595 -0.748428 -0.717168
2494 12.1781 8.24234 3.10873 1.11627 -0.275969 -0.967209
609 14.1382 8.01072 3.16574 0.97662 -1.35121 0.461087
1490 13.59 8.3578 3.9424 -0.0663554 -0.603672 -0.549534
1241 14.6137 8.62947 4.02317 -1.46441 -0.00740473 -0.383066
3989 14.9601 7.517 3.98195 0.383848 0.341228 -0.863822
3834 16.2561 7.50067 3.71882 0.0858575 0.393832 -0.860373
3791 15.3919 8.22056 3.07719 1.00551 1.14421 -1.14914
3401 15.6889 8.46948 4.18953 1.18421 0.320917 -0.0715981
339 17.4775 8.65745 3.02232 -1.31984 0.738211 0.898785
665 17.3752 7.83957 3.55317 -0.449868 0.302716 -0.137383
1165 16.565 8.48075 3.81161 1.62801 1.40792 -1.6316
1138 1.20053 0.796275 4.52685 -0.992106 -0.160925 0.729185
3551 1.098 0.684516 5.76456 -0.115819 -0.551104 -1.55789
646 2.16994 0.367507 4.52161 -0.844569 -0.298271 0.942014
589 2.11869 1.45219 5.43801 -0.143182 -0.129732 1.61541
2818 2.7984 0.680964 5.41176 -1.42666 -0.993956 -1.11114
1306 3.84556 0.209728 5.34792 0.75971 -0.604049 -0.899672
2903 3.88148 0.961179 4.71743 3.36145 -0.946243 0.369057
1576 5.23209 0.675354 5.08997 0.345936 0.534457 -0.58431
1063 4.50099 1.35145 5.73296 1.60698 1.7197 0.0951272
10 5.67904 1.34075 5.79201 0.459692 1.78252 -0.170389
870 6.5568 0.644812 5.86136 0.167741 0.00724583 1.04886
2157 7.32433 0.0202943 4.71191 0.514108 -0.938173 -0.0566664
2655 8.51038 0.0774069 4.99571 -0.495851 -1.43916 -1.9645
3443 7.49724 1.3617 4.47432 -2.02967 -1.25138 0.368723
2615 8.61795 1.45051 4.54018 1.06271 1.70588 -1.22777
3628 7.7109 0.777479 5.29813 -1.25688 -0.088006 0.335121
1303 9.65218 0.274627 4.50437 0.54376 -0.850553 0.123429
825 9.36868 0.470075 5.48271 -1.71574 1.05822 0.360451
1206 10.2595 1.41978 5.6508 -0.809826 -0.0619914 -0.89988
500 10.5614 0.255327 5.81425 -0.438398 0.240697 0.307173
876 10.4437 0.887811 4.68551 -1.09502 -0.234635 -2.09224
2274 11.2362 1.44587 5.63779 0.050853 1.06075 -0.241714
973 11.5402 0.22077 5.27016 -0.494898 -0.785213 -0.201483
970 12.8014 0.187131 5.93321 -0.831701 -0.914354 0.294746
3951 12.886 0.350786 4.50076 -0.475993 0.493354 1.14477
3587 12.5686 0.94366 5.32355 -0.940792 -1.09701 1.12185
1434 13.6402 0.220099 5.21939 0.0233806 0.0721142 -0.275482
1675 13.833 1.1326 5.55891 0.317326 0.823393 -0.346674
1331 14.7435 0.169439 4.47144 0.976576 0.869681 -0.853701
3314 14.9586 0.533028 5.41659 -2.4059 -0.511287 -0.451186
1033 16.2096 0.766844 5.53753 -0.505761 -0.392742 0.560916
1189 15.6602 1.15666 4.55553 0.500464 0.812903 -0.818825
3872 17.2672 1.32774 5.32235 0.162199 1.28675 -0.499158
1464 17.8653 0.183811 5.06142 0.0487633 0.511123 -1.57485
2840 0.576111 1.73721 4.96976 0.692748 -0.412936 -0.463228
3248 1.1654 2.29677 5.78938 0.876521 0.251541 0.747465
898 0.0926202 2.4692 5.45882 0.202117 0.0613678 0.342012
3154 0.88197 2.65327 4.5995 -1.36567 -2.39403 -1.10755
2243 1.63107 1.93347 4.61761 0.841833 0.118586 -0.214087
443 2.54512 2.41479 5.20831 1.08135 -1.8735 1.64949
3690 3.31997 1.52697 5.56164 -1.28199 0.915624 0.753457
657 3.82557 2.41407 5.24626 -0.0148151 -0.542501 0.131685