ITEM: TIMESTEP
47000
ITEM: NUMBER OF ATOMS
4000
ITEM: BOX BOUNDS pp pp pp
0.0000000000000000e+00 1.7878070701931353e+01
0.0000000000000000e+00 1.7878070701931353e+01
0.0000000000000000e+00 1.7878070701931353e+01
ITEM: ATOMS id x y z vx vy vz
773 0.0946068 0.473359 0.575273 1.47912 -0.5865 -0.590093
790 1.05133 1.23798 0.837184 -2.04688 -0.212361 0.942819
142 1.10924 0.303561 0.0441888 -0.562826 -0.388092 0.325333
530 2.12936 1.20637 1.00063 0.00613451 1.41382 0.703346
2348 2.08981 0.15763 0.667218 1.89682 -0.480554 0.599363
3720 4.24819 0.772108 1.21102 1.0009 -0.486202 -0.0908258
2162 3.04718 0.952464 1.43511 -0.678931 -0.0873699 0.427812
3498 5.81501 0.628019 0.0447181 -2.27839 -0.0478316 0.983135
2546 4.89544 0.0390345 0.383001 0.401715 -0.668108 0.367094
1533 5.26756 1.02047 1.02061 0.720999 -0.429487 -0.673554
3356 6.649 1.04847 0.390645 -2.15058 0.160087 0.176954
2823 8.00128 0.211407 1.32772 0.956734 0.306542 -1.19943
2055 8.67345 0.165813 0.220507 -0.376937 0.374407 1.15343
3333 7.47232 0.0121407 0.163314 -0.606358 0.788056 -0.0656916
3686 10.1404 1.15928 0.17065 -0.291931 1.30941 0.623392
1189 9.27304 0.786582 0.817928 -0.102736 1.74666 -0.786775
1513 11.6378 0.973705 1.33225 -0.612513 -0.558197 -1.67428
2020 10.8726 0.102436 0.989119 -0.625954 -0.324284 -0.190172
1577 11.46 1.435 0.00417976 0.415418 -0.338832 0.344859
1356 13.2645 1.02545 0.25095 -1.2211 -1.59135 1.5072
3143 12.1245 0.628138 0.326675 0.153135 -1.78524 -0.29081
1662 13.1853 0.947792 1.36996 -2.18058 0.952085 -0.891569
2571 14.2438 1.46269 1.2353 0.385275 -1.41696 -1.46649
946 14.4872 0.414918 1.34994 -2.15821 -0.312629 -2.17505
657 14.2213 0.671301 0.26739 0.634049 -0.64629 0.0348977
2084 15.2116 0.960424 0.936385 -1.02672 0.760351 -0.68349
1439 15.7931 1.02395 0.00350702 0.60446 -1.07478 0.0057922
3086 16.1327 0.0255742 0.674266 -1.50356 -0.313639 -0.404739
3842 17.613 1.35592 1.22703 0.715755 -0.0776232 -0.361488
1081 17.0131 0.913432 0.0873873 0.193673 1.59508 -0.0850705
1470 0.65085 2.54982 0.592675 0.463302 0.432572 1.06193
1326 1.54649 1.9767 0.308303 -0.81158 0.26596 1.45496
3664 1.73429 2.09639 1.31774 -0.833594 -0.282101 -1.11242
389 4.37293 2.83251 1.40828 1.00534 -0.960235 0.447976
1136 3.4286 2.57133 0.469793 0.21388 -1.66376 0.741479
3271 3.27798 1.54959 0.630992 1.75202 0.124337 0.469984
1840 4.67927 1.93365 1.00287 -0.0573779 0.920717 0.584613
3971 5.83783 1.77603 0.558097 -2.08186 0.466381 0.169784
902 6.87599 2.72935 0.227628 0.264946 1.7481 0.486111
2160 6.35279 2.11088 1.37491 0.825089 0.300632 -0.474251
7 8.56824 2.49212 0.911421 -1.41476 0.431363 -0.16132
278 8.20148 1.56427 0.245287 0.0535957 -1.37504 -0.150521
724 7.62862 1.83379 1.03972 0.374674 1.24957 0.361434
63 9.27844 2.89437 0.2252 0.935477 -0.0587898 -0.666918
2816 9.99644 2.48551 1.25455 0.619324 -0.194986 -0.755322
1069 9.32921 1.74667 0.442544 -1.14318 1.10229 -0.490247
1152 10.7703 1.82861 1.35864 -0.688417 -1.63076 -0.39915
1691 11.6218 2.51533 1.46635 0.13917 0.924737 -0.76807
349 11.6319 2.69338 0.356248 0.0903796 0.434948 -0.394806
647 10.4798 2.45736 0.303345 0.318762 0.588088 0.418663
919 12.352 1.77533 1.09017 0.346137 -0.62462 0.119421
2668 12.7592 1.98654 0.242666 -0.691335 1.74782 0.281441
674 14.553 1.65189 0.272515 1.17132 -1.28666 1.03219
1452 14.6158 2.4355 1.38113 0.230753 1.17332 0.770213
2194 13.8107 2.14186 0.552922 0.549175 0.259095 0.995065
6 15.5988 2.19476 0.744911 0.825368 1.11342 2.29527
3023 16.6561 1.672 0.998824 0.995445 -0.968882 1.03671
3600 17.3525 2.49405 0.500257 -1.00795 -1.27534 1.04352
198 17.5622 2.92764 1.48843 1.24201 0.252545 0.855955
1741 17.7963 1.64149 0.27505 1.48717 0.715845 -0.997582
1993 0.880619 4.3994 0.742156 -0.0182113 -1.73452 1.15364
1571 0.709887 3.45272 1.2207 1.6256 2.18258 0.413755
2140 2.13543 3.21096 0.737313 0.446189 0.354985 -0.705261
3311 2.24338 4.23755 1.05754 0.965276 1.30213 0.816995
1179 3.91178 4.39836 0.408274 -0.269172 1.18769 1.43254
2635 3.10262 3.73566 0.431896 -0.690742 0.584108 0.679743
1175 4.59581 3.82977 1.06393 -0.387557 -0.060225 -0.33627
922 5.18739 4.28137 0.259407 0.611318 -1.26031 -0.159395
1923 5.02063 3.21539 0.391602 -0.968249 -0.513301 0.65325
1428 7.23133 3.88161 0.405233 -0.310309 0.263982 0.387432
3705 6.10913 3.07411 0.804769 -1.02984 1.37617 -1.57616
1019 6.68989 4.25455 1.24288 -1.3684 0.0922456 0.534049
812 6.34403 3.72663 0.019485 0.783505 1.44787 0.245088
1390 8.33436 3.37665 0.0708311 -1.02128 -0.152761 0.0646913
1631 8.86527 3.45705 1.19545 -0.164406 -0.0504914 -1.8878
508 7.58748 3.08679 1.00729 -0.351705 0.255662 0.554324
2229 9.94591 3.83185 0.712299 0.276723 0.576472 0.742436
1905 10.8522 3.50921 0.115349 -0.919725 0.61934 1.41788
3592 10.8696 3.26987 1.13088 -0.0128821 0.501306 1.31802
1427 12.3504 3.44232 0.83224 1.1831 -1.4239 -0.282798
1645 14.2193 4.22173 1.34955 -1.17336 -0.14505 0.981756
3613 13.5115 3.21179 0.315589 -0.716297 -0.803293 1.16663
3897 15.3353 4.11002 0.455706 0.976421 -0.783517 0.944207
1457 16.3411 3.05588 0.355834 -0.348648 0.986089 -0.241638
441 15.0849 3.19105 0.821032 -0.503273 1.31735 -1.01218
2968 17.8574 4.08328 1.44989 -0.587696 -1.00148 0.0851428
1733 16.7751 3.99942 1.09801 -0.617109 0.665959 -1.04522
2967 17.7174 3.60561 0.470625 -0.884533 -0.328457 0.174023
1884 0.158588 5.78586 0.303131 -0.331716 -1.13185 -0.404979
1320 0.984729 5.4744 0.995052 -0.537885 -0.349384 -0.165196
1805 1.91712 5.50512 0.512746 -1.66412 -0.358453 0.383349
1941 4.16682 5.40441 0.931563 0.502323 -1.90165 -0.606446
1222 3.09077 4.99688 0.739728 1.35071 -0.824847 -1.69887
360 5.09232 5.55357 0.599612 1.01839 -0.966119 -0.0784659
2479 6.15175 5.47907 1.01087 2.19329 1.32132 -2.30487
2225 6.86771 4.80573 0.364088 0.52295 -0.692789 1.01815
3366 7.06673 5.80043 0.665634 -0.345714 0.217473 1.25547
3055 7.61175 4.79469 1.08756 0.943433 0.0797104 -0.083828
3556 8.67377 4.6227 0.898262 -0.598662 0.286053 -0.840554
689 8.5079 5.88226 0.972781 -0.488911 -1.57419 0.751153
429 9.74339 4.96772 1.2148 -0.579768 1.31875 -0.0719874
420 9.48754 5.80767 0.574477 -0.661884 1.01773 0.072004
3455 10.6872 4.66481 0.594903 0.806268 1.24726 0.0875864
2289 11.5366 5.59527 0.0475314 1.12923 1.04994 -1.29663
667 11.8784 4.59302 1.06545 -0.532098 0.00724079 -0.0447076
2750 12.7048 5.19367 0.12101 0.623479 -1.90592 -0.410906
1434 12.6674 5.39828 1.36911 0.978237 -2.1079 -1.36845
465 13.7791 5.16422 0.550342 -0.937475 -0.287822 0.379585
1446 15.6861 5.73308 1.43722 -1.65318 -1.68676 2.31182
714 15.7004 4.59044 1.3165 -0.341264 0.356746 -0.117798
2657 15.0002 5.18246 0.564955 0.0637256 0.384728 -0.918712
575 16.3282 4.74981 0.481502 0.0753263 0.275856 1.08608
2056 17.409 4.95106 0.349524 -1.03286 0.788223 -1.72424
3329 17.8234 5.24639 1.40714 1.11823 -1.05829 0.53711
174 16.6658 5.71337 0.0167943 0.117331 -0.829445 -1.8229
2847 0.0169774 6.74637 0.786567 -0.032795 0.796187 0.389748
426 2.38278 6.45617 1.44536 -1.3106 -1.13037 1.94898
665 1.924 7.01539 0.709159 -0.20965 1.14517 0.407787
1898 3.20456 6.08357 0.824185 -0.444714 1.98903 0.669951
1211 3.37428 7.41906 0.289644 0.294374 -1.18245 1.01208
3841 4.35472 6.38223 0.572637 0.267003 1.98786 -0.616042
1812 2.98575 7.33616 1.47125 0.838107 -1.55086 0.909095
9 5.90473 6.65832 1.07228 -2.69673 -0.688225 -0.653504
140 4.96164 6.2192 1.43417 -0.137527 -0.00794122 -0.0478746
1584 4.95286 7.21044 1.01541 -0.103193 0.232634 -0.579115
395 4.54895 7.41374 0.116263 1.49083 2.06331 -0.13243
2423 5.19029 6.59433 0.0633103 0.0440628 1.18091 0.604588
3304 6.76526 6.89144 0.369496 0.0333828 -0.140836 1.01159
1743 6.07411 6.0845 0.0281608 -0.311458 0.0687819 0.873465
3159 7.61759 6.70745 1.22542 -1.04618 -0.136842 -1.09502
3488 8.54592 7.14079 0.777028 0.851666 0.59645 0.0885092
1640 7.91609 6.67319 0.132982 -0.119368 -0.815265 -0.480273
1309 9.82407 6.86604 0.888278 1.00734 -0.342369 0.226785
1236 9.06355 6.72344 0.0581485 -0.0631821 1.84909 -1.05249
3832 10.3058 6.56424 0.0665382 -0.707633 0.156531 0.521991
1943 11.2728 6.912 0.640478 0.0252007 -1.32221 -0.471562
1907 10.7735 6.00275 0.991957 -0.665305 1.03463 0.640595
3364 12.8438 6.69741 1.08778 0.461233 0.0140635 0.397256
3976 13.1678 7.31711 0.309814 1.41336 0.344607 -0.822579
1004 12.2742 6.31706 0.224961 0.209198 -1.66711 -0.616475
392 13.3447 6.23165 0.261861 1.62563 1.05216 -0.565258
513 14.0987 6.2528 1.08774 -0.0917496 0.0342421 1.56932
2244 14.5444 7.26874 0.808268 1.09879 -0.00105658 -0.621109
19 15.5185 7.07934 1.1479 -0.00552772 -0.214412 -0.184776
525 15.8758 6.36104 0.373806 0.24662 -1.6385 0.0927304
250 14.9047 6.22612 0.117891 -2.38175 -0.926376 1.06565
8 17.1035 5.96216 1.14256 -0.205038 0.401358 0.527113
2731 16.6807 7.08686 1.35447 0.228561 0.347249 -0.835612
622 16.9243 6.77925 0.155088 -0.62926 -0.497427 3.47677
2849 0.708401 8.10133 0.598484 -1.01834 0.548022 1.13008
1837 1.36925 8.84811 1.08506 1.63406 0.599756 -0.133031
1851 1.85874 7.98212 0.408916 0.257868 -0.530446 0.679929
1926 2.81709 8.15052 0.799554 -0.378764 -1.18966 1.62363
344 3.6447 8.6244 1.34969 -0.0840978 -0.648585 -0.0359669
3450 3.3665 8.59341 0.0516534 -0.0140592 0.450899 0.544532
1192 4.50062 8.3528 0.823522 -1.5488 0.202235 -1.63963
2228 5.3913 8.03438 0.299219 -2.07783 1.01533 -0.412601
3967 5.68241 8.59376 1.24479 0.0565331 -0.332319 -0.885984
1902 6.26088 8.80261 0.352087 0.225238 -0.413946 -0.943846
3402 6.77233 8.36281 1.18295 -0.0324049 0.281739 -0.408596
3416 7.45855 7.77776 0.683369 0.556386 0.598039 -0.795801
1588 7.59942 8.79654 0.179983 0.359362 1.22715 -0.279028
2097 7.77598 8.87759 1.30408 -0.407614 -1.30365 0.522948
590 9.25686 7.90307 0.332555 -0.204682 -0.581987 0.159309
2948 10.2688 7.69438 0.0197125 0.585398 1.46458 -1.15361
1235 10.09 8.78472 0.357703 0.889236 -1.95578 0.088849
2624 9.96943 8.08478 1.05727 0.463667 -0.173957 -0.341197
643 11.2463 8.07053 0.663622 0.208163 -0.468677 -0.489892
2936 12.253 8.29512 0.0499682 0.802771 -0.330694 0.078961
2171 13.3897 8.00733 1.28289 -0.253724 0.85227 0.52917
3635 12.5359 8.62919 1.12772 0.278246 -0.371405 -1.6993
245 12.2814 7.6953 0.945927 0.777532 -0.0206348 -1.30709
690 13.3065 8.40091 0.374477 1.08399 0.368383 0.0156653
2076 14.5189 8.59531 0.879702 -1.07535 -3.09583 1.07025
2301 15.4889 8.16414 1.03714 0.66127 -0.160189 1.82769
1355 15.6185 7.46415 0.239261 -0.982007 1.26915 -0.458783
1705 17.4168 7.69344 0.616872 -1.50506 -1.32965 1.10218
3940 16.9618 8.18394 1.48781 -1.83689 -0.280303 0.0117679
1280 17.6005 8.89054 0.973625 1.40861 0.368069 -0.00604066
2009 16.4322 8.08925 0.249206 -2.17805 1.08468 0.838339
1024 1.42164 1.20323 1.99558 -1.58879 -1.87277 1.23051
1128 0.525033 0.387375 1.56897 -0.447159 -1.23948 -0.535695
1862 1.24143 0.173424 2.54411 -1.9719 2.95309 -1.48201
1263 2.13072 0.351073 1.66808 1.08245 0.036587 0.220038
857 2.45522 1.30091 2.22183 0.837008 -0.785237 -1.06065
428 3.73418 1.12352 2.13015 -0.406313 -0.362477 0.683496
1055 3.24505 0.640173 2.78892 0.0350654 -0.693726 -1.05978
221 4.30881 0.526928 2.8155 0.185672 0.28811 0.551059
1903 4.91784 0.69189 1.9515 -0.341331 -0.807896 -0.824311
1956 6.5643 1.48979 2.4143 -1.34573 -0.337122 -1.52303
2320 6.13002 0.469706 1.5581 0.745789 0.311435 1.21511
2159 7.27127 0.393148 2.51274 -0.687985 1.6048 -0.0697084
1899 7.47696 1.01908 1.54976 -0.663007 -0.689288 -0.473637
3982 8.69786 1.44468 1.50689 -0.662603 0.642203 -1.99966
3264 9.43827 0.109344 1.65225 0.701532 0.12357 0.0553059
422 10.3965 0.416778 1.80953 0.366683 0.884384 0.577494
1656 9.68972 1.33942 1.54013 -0.220074 -0.454821 -1.74335
3950 10.3165 1.3961 2.36181 1.32595 1.30268 2.66486
703 11.178 0.690815 2.57829 -1.56434 -0.874557 1.49046
498 12.3898 1.38973 2.18233 -0.598159 -0.765891 0.412973
2861 13.2136 0.104417 2.57404 0.444468 0.203232 0.442465
3040 14.1734 0.503921 2.67083 0.836073 -0.74466 0.523175
1025 14.8913 1.48004 2.21457 1.00913 0.150469 0.65613
108 15.9682 1.16275 2.96319 -0.178422 -0.0492196 -0.414953
528 15.5443 0.275654 1.53808 -0.624151 0.852763 0.786766
913 15.2193 0.27037 2.68443 0.318864 0.116758 0.38787
1438 16.389 0.259631 2.3248 1.29409 -1.90577 -0.36842
2242 17.718 0.168709 2.83502 1.69107 -0.520701 -1.0537
1217 17.4892 1.05288 2.45709 0.514064 -1.03656 -0.150944
2756 17.0307 0.497598 1.58702 1.99215 -0.63176 -1.12228
816 0.635163 2.10778 1.59905 0.398047 -0.947078 0.449688
3362 0.476594 2.96027 2.31703 -1.11518 -2.50876 -1.39228
2345 0.210489 1.96404 2.5015 -0.402768 0.552758 0.698316
3166 2.53132 2.21991 1.83482 0.203501 -0.214402 0.286824
2925 1.53635 2.26627 2.32415 -0.181504 -0.196713 -0.166376
830 4.31054 2.23469 2.27382 -2.08092 1.08078 -1.48
3618 3.17893 1.75681 2.72869 -0.621321 0.344453 0.593801
2163 3.48039 2.18364 1.57842 0.139919 -0.53227 -0.858403
3074 5.43929 2.86682 1.56007 0.6315 -0.0261195 0.646795
347 5.40721 1.80273 1.85937 -0.0626745 -0.301582 0.32126
3077 5.88184 2.6003 2.47655 0.912656 -0.804145 -0.656291
1500 7.36589 2.47474 2.16173 -0.244613 -0.64357 -1.43573
652 8.1955 2.20652 2.7517 0.171616 0.547152 -0.203217
3882 8.98477 2.97231 2.92741 0.822994 -0.369192 -0.302447
2105 11.4337 1.85419 2.2901 0.509367 -0.128513 0.408108
3663 10.5067 2.49831 2.77265 0.768861 -1.12341 -1.22581
3034 13.293 2.11117 1.53192 0.220706 0.666806 1.67321
1199 12.9445 2.33574 2.58176 0.515924 -0.995521 0.12433
2636 14.1596 2.04327 2.56394 -1.66318 -0.589473 -0.757509
2450 16.2922 2.32822 2.84349 0.528612 2.10163 -0.175866
2774 16.1165 1.60525 2.00649 1.44427 -0.655082 -0.337997
1819 16.1646 2.69815 1.74296 -0.271191 0.219087 -0.710828
3951 17.2657 2.5868 2.61287 0.358957 1.52963 -1.17893
3928 0.782441 4.04908 2.46276 2.23 -0.0690847 -0.660498
238 1.31419 3.19818 2.79814 -0.7751 0.78519 -1.37444
2577 2.14349 3.16656 2.04028 0.0229681 1.33065 0.489166
440 1.86525 4.28098 2.15011 -0.579503 1.55956 1.95113
1312 2.7565 4.12863 2.83275 1.10949 2.163 -1.29927
1963 3.3178 3.43381 1.49438 0.778205 0.17122 -1.05064
2243 3.05683 3.0801 2.64723 -1.11851 0.380829 0.765885
3235 4.07379 4.12657 2.27878 0.506551 -0.434935 -0.112908
3376 5.07515 3.47532 2.5189 1.51824 1.19002 -1.22082
1900 6.55669 3.05823 1.76715 0.303045 -1.04392 0.0357464
834 7.07363 3.91246 2.23614 -1.22939 0.180282 -1.33668
3049 6.02767 4.04469 2.40892 -1.60847 -1.11874 -0.849328
274 6.8158 3.09276 2.78897 1.00975 1.37703 2.14309
3699 7.86714 3.91063 1.53401 -1.38245 0.905612 0.444194
1164 8.53836 3.95785 2.38463 -0.348669 -0.363331 0.0131915
2956 9.38408 4.159 1.7689 -1.30557 -0.189505 -0.659893
1614 9.82387 3.0954 2.25454 0.647541 0.18767 0.774354
3716 9.7306 3.88937 2.93355 0.56414 -0.535537 0.110796
947 11.7368 3.75166 1.79897 -2.09135 1.73178 0.863774
279 11.0807 3.53436 2.71603 -0.530115 -0.794759 -0.971298
3585 13.2024 3.98062 2.48866 -1.19752 -1.18581 -0.613167
71 12.6611 4.29065 1.61994 0.012102 -0.232754 0.516841
554 12.3576 3.47326 2.79796 -1.16701 -0.147667 0.363572
1403 12.571 2.9979 1.80057 0.884697 -0.26177 -0.283222
656 13.6406 3.08873 1.82073 -0.506904 0.263149 2.5464
2314 14.7121 2.99338 2.42489 0.153806 0.384844 -0.485185
3452 14.305 3.89617 2.73448 0.997335 -0.337182 0.237894
1258 15.2903 3.82263 1.97479 -0.324941 1.22194 -1.93301
1940 16.2509 4.06253 2.2819 -0.507616 -1.68148 0.106631
568 17.2872 4.20017 2.2791 -0.217382 -1.03086 -1.32373
1801 0.346482 5.7232 2.5717 -2.08386 -0.998532 -0.958426
3182 0.996454 4.90207 1.84314 0.861231 -0.145902 0.379016
1343 1.46809 5.41139 2.64635 -0.894805 0.16408 -0.687008
1534 1.99787 5.26702 1.57196 -1.03928 -0.476901 1.20302
2935 3.00297 5.70934 1.91185 1.01187 -1.15714 0.268419
3690 3.21221 4.52302 1.80655 -0.64998 -1.1278 0.859819
1710 4.04097 5.23054 2.22155 -0.698822 0.527886 -0.384103
437 4.91304 5.82153 2.56346 -0.200355 0.812614 1.84844
2873 5.07921 4.80343 2.53671 -1.26759 -1.21163 0.089987
752 5.72065 5.48706 2.10439 0.0712678 0.715857 -1.56536
3066 5.41519 4.58652 1.49867 0.439729 -0.206659 -0.839005
3301 6.81159 5.13871 2.23159 0.97224 -1.4095 0.88261
2980 7.62081 5.73561 2.1437 -0.63233 1.92027 0.808636
987 7.68068 4.6923 2.86275 -2.47318 -3.21118 -1.68868
708 8.43572 5.62624 2.7782 -0.986283 -0.514462 0.356466
2503 8.44374 5.02099 1.90613 0.577471 0.93524 -0.0345607
2417 10.372 5.70697 1.90962 0.483237 0.472445 0.0935719
2366 9.23693 5.73975 1.90249 -1.12896 0.459605 0.952513
745 9.37777 4.77721 2.52962 -1.98007 -1.93179 -1.01816
1475 11.3267 5.40039 2.57573 1.03899 -2.60125 -1.38154
273 11.0074 4.7956 1.65907 -1.71537 0.169815 0.573303
1689 11.709 5.68703 1.61333 -0.756839 0.560426 0.0217733
2934 10.4862 4.59878 2.62402 -0.395848 -0.923697 0.852014
2575 12.3522 4.90179 2.41544 -0.279472 -0.0838968 -0.218397
747 14.662 5.24681 1.60483 -0.66595 -0.66751 -0.627259
2202 14.8953 4.94202 2.59425 1.25368 0.447354 -1.86218
1474 13.4431 5.48023 2.05357 -0.863919 -0.785695 -1.80599
1797 14.1982 5.85622 2.79311 0.305371 -1.13999 0.918323
1758 15.2252 5.94695 2.95149 -0.890363 0.551916 0.726174
1757 15.9406 5.08943 2.19619 -0.169679 -0.92397 1.62135
3180 16.7454 4.95501 1.50565 0.965882 0.468873 1.20181
1611 17.0493 5.30787 2.74566 1.31378 -1.02327 -0.599158
3991 1.21462 6.27416 2.06362 1.05592 0.724374 2.54919
3651 1.10365 7.35336 2.73087 -0.785051 0.152639 -1.07207
1429 0.906694 7.24432 1.52681 0.573646 -0.703143 -0.0568147
1266 2.37796 6.23594 2.70087 1.58602 -1.97382 0.052742
2613 1.84479 7.16578 2.05297 1.66334 -0.823553 0.709409
241 3.27864 6.68914 2.26198 0.35826 0.0230022 0.879499
87 4.18056 6.32253 2.9222 -0.408423 -1.55626 -1.98532
3482 3.89888 6.20832 1.56768 -0.42864 -1.30605 0.300616
3371 4.34963 7.11059 2.02747 0.398374 1.32065 0.0199562
738 5.61824 6.62954 2.26484 -0.243563 -0.521252 0.730974
1802 6.78427 7.30014 1.53469 -0.0411397 -0.551198 -0.368536
2335 6.62834 6.21681 2.04501 1.19278 0.287607 -0.659832
1687 7.54893 6.82476 2.43933 -1.19137 0.946723 -0.02754
361 10.0934 6.37168 2.80943 1.41371 1.27158 -1.0592
3861 8.96604 6.76371 2.4581 0.401922 0.277014 -0.16847
1967 9.71594 7.26868 1.98287 -1.12782 1.10154 -1.37017
2803 11.7338 7.09222 1.83107 0.434989 0.599921 -0.995785
556 10.7199 6.67339 1.78246 -1.37785 -0.591477 -1.3621
2068 12.0014 6.88609 2.81069 0.165027 0.810303 -1.85398
1494 12.5844 6.24994 2.11684 1.1601 0.601931 0.0518085
3199 12.723 7.40814 2.134 0.599811 -1.49576 -0.132098
1489 14.7768 6.22297 2.06896 0.967322 0.652368 0.764564
968 13.7362 6.76358 2.09168 0.260337 0.533893 2.55975
2403 15.9298 6.72894 2.00792 -0.535153 -0.638706 2.81266
3083 17.6789 7.34836 1.76751 0.588216 -0.142103 0.528053
409 17.4687 6.40883 2.41849 2.54787 -1.03218 -0.252303
2929 16.7824 7.24805 2.7226 -0.925032 -1.24059 0.262875
3771 1.20093 8.66338 2.93557 0.965603 -0.0153783 -0.101111
416 1.1564 8.13631 1.95881 1.81549 0.219355 0.778528
3933 2.13769 8.20688 1.78249 -0.108339 0.457799 0.856288
3 2.90161 7.99268 2.72926 -0.0637639 1.09284 0.0663663
1241 3.89499 8.10297 2.25571 0.617661 1.89164 0.776003
3542 5.31358 7.60085 1.9485 -0.284464 -0.572214 0.316763
3394 5.10293 8.33354 2.5832 0.41116 0.806604 -0.14665
2480 6.04812 8.42133 2.27932 -0.813661 1.17775 -1.09816
3963 7.22397 7.82282 2.47395 1.12995 1.61486 -0.233355
3308 7.95779 7.5129 1.73986 0.75747 1.08511 -0.496538
1420 8.84483 8.03759 2.94391 0.485646 -0.461359 0.691796
3911 8.6056 8.8538 2.30767 -0.79014 0.791416 0.599333
1752 9.16389 8.017 1.67852 1.17214 1.54243 -0.470634
3183 9.68512 8.66246 2.54319 -1.0437 -0.419188 -0.693511
3414 11.7366 8.47561 1.90232 0.23733 -0.450412 -1.41264
3884 10.9987 7.73355 1.76022 2.56133 0.344637 -0.832514
671 10.7007 7.53706 2.8826 1.41338 -0.203933 0.348393
2926 10.4677 8.84064 1.63093 0.487041 -0.613818 0.825919
1433 12.8149 8.56288 2.23186 0.426285 0.649256 0.214761
307 14.5737 8.51756 2.21861 0.447153 0.0713444 -0.659438
3878 13.7123 8.02552 2.4346 0.923727 -0.620629 -1.26602
3560 14.6464 7.47815 1.86885 0.543871 0.295387 0.780787
2002 15.2043 7.84431 2.97496 0.086527 1.23235 0.73757
1976 15.6324 7.82415 2.03541 0.059433 1.51131 -0.406231
3263 15.5121 8.91133 1.9298 -0.947249 0.843665 0.736035
993 17.5865 8.37658 2.35009 -0.623226 -0.368864 -0.727896
1319 0.989615 0.74007 4.08897 -1.2768 -1.04745 1.4014
1364 0.325228 1.46267 4.12758 0.251764 0.79182 0.561473
2482 0.624145 1.05761 2.98644 0.700021 0.629478 -1.05093
985 2.35666 0.325559 3.03472 -1.05108 0.0961843 0.232873
1047 1.88825 1.2708 3.03235 0.252358 1.33991 -1.64329
1063 4.07766 0.271308 4.02706 -1.35709 -0.445124 -0.871589
3851 3.40717 1.24415 3.71135 -0.110492 -0.603236 0.599309
2060 5.54629 1.15402 3.28145 -0.728714 0.34326 1.29944
2167 5.1975 0.809712 4.18886 -0.667994 0.130975 -2.41837
854 6.32456 0.545327 2.98827 0.420345 1.4446 0.804825
1374 6.98295 1.18778 3.67169 -1.74543 1.23889 0.779912
90 6.49365 0.6303 4.34145 -1.23117 0.237233 0.891413
3688 7.46191 0.268167 3.83351 -0.464224 0.135972 -1.00252
1341 8.64125 1.38915 3.61094 -0.262952 1.10693 -0.678815
337 8.49742 0.337371 3.00769 0.691331 0.222262 0.549815
447 9.75634 0.812456 3.06763 0.0692986 0.568254 -0.690754
672 9.22254 0.147278 4.09012 0.00683008 -1.11533 0.987327
414 10.3949 0.277616 4.23521 -0.519919 -0.575035 1.68324
1833 10.7647 1.26712 3.39958 -2.49226 0.0837264 0.3473
2270 11.448 0.437066 3.62783 0.424221 1.18374 0.630606
2874 12.9844 1.05259 3.0027 1.27436 0.323922 -0.0481284
871 12.0391 1.40062 3.18875 -0.607928 -0.395283 1.15163
1075 12.0618 1.15783 4.45091 -0.433937 0.242245 -0.105732
75 12.7259 0.586363 3.95462 0.233493 0.0178876 0.149831
3685 12.2393 0.381241 3.00079 -1.42777 0.627753 -0.824616
3994 13.6327 0.134245 3.51763 -0.333272 0.510859 0.564062
435 14.7322 0.963703 3.73721 -0.482546 0.528294 0.297546
2508 13.4694 1.12282 4.42743 -1.14892 -0.0320028 0.351814
2775 15.6393 0.453322 3.77364 0.296899 -0.628422 0.886299
2279 15.848 1.33506 4.42515 0.1283 1.2145 -0.697042
3917 16.7012 1.23103 3.97737 0.572969 -1.22764 0.024779
2191 16.6182 0.501575 3.29596 -1.67565 -0.217255 -0.186939
3780 0.221131 2.55917 3.51375 -0.538778 -0.623713 -1.78397
1760 1.05983 1.81425 3.47129 -0.869976 -0.711556 1.58869
423 2.48945 2.06804 3.53608 -1.21676 0.166702 1.07417
492 4.0766 1.91654 3.50947 0.597057 -0.0543358 0.733989
2845 3.50013 2.6675 3.94445 0.142471 -1.5166 0.227025
1617 5.03006 1.90973 4.41642 1.10688 0.118785 0.678489
312 5.07806 2.10788 3.1132 0.441266 0.314722 0.924867
669 7.27415 1.89956 3.02339 0.656025 0.146238 -0.181852
1657 6.87513 2.6902 3.94309 -0.376355 -0.264265 2.06983
666 6.18989 1.58127 4.46344 -0.347787 -1.0758 -0.982898
387 6.15898 1.97595 3.39382 0.352979 0.91294 0.973452
3989 8.00372 1.80103 4.24935 -0.822433 0.258437 -0.288529
2220 9.43298 2.09714 3.75301 -1.7054 -1.83964 -2.08882
2856 11.0577 1.88637 4.44299 -1.06037 -0.255992 0.22938
2808 10.6251 2.93086 3.75087 -0.938667 1.07374 0.0580408
3009 12.1981 2.4097 3.68064 0.518251 0.700522 -0.591881
3698 13.5543 1.96927 3.47631 -0.741402 0.0583226 1.28103
1674 13.8193 2.86253 3.10535 -1.42054 -0.966763 -1.89987
1059 15.2252 1.85418 3.30652 -0.117463 0.113748 -0.957079
3154 15.4055 2.45501 4.30531 -0.370418 -1.15585 1.00434
662 17.2148 1.72867 3.26404 -0.371138 0.58581 0.459155
742 0.693174 3.78694 3.66372 -0.808852 0.15964 -0.330108
2236 1.91121 3.03356 3.77466 3.32127 -0.690914 -0.93181
2027 2.91757 3.66695 3.87633 -0.126709 0.777946 0.287385
2640 1.84829 4.06441 4.17231 0.808335 0.88734 1.323
3571 4.11084 3.21407 3.08392 -1.18562 1.27586 0.682752
455 4.21783 3.86213 4.16754 0.6093 0.908484 -0.338151
1517 3.68569 4.27953 3.28468 1.30222 -0.287573 -0.13439
1776 5.85644 3.29775 3.23032 -1.22253 -1.26617 -0.654328
86 4.7597 4.04432 3.16802 0.664104 1.09517 -1.03297
2746 5.70698 4.22221 3.70583 -2.67236 -0.773967 -0.230549
1306 5.01478 3.07367 4.00562 1.20245 1.55344 0.667097
2472 6.67639 4.08902 3.75368 0.0269758 0.404305 -1.2448
3211 7.67823 3.61232 3.16176 0.253067 -0.282552 0.0253409
3391 8.42299 3.55049 4.08599 0.726367 -0.712252 0.233999
2716 9.47082 3.44211 3.81697 -0.721538 0.192202 0.791305
3129 11.5154 3.21487 3.85529 0.10308 -1.30296 0.900696
2201 11.4592 4.39902 4.27816 0.768936 0.13665 -1.22571
1539 10.7135 4.06136 3.64356 1.13381 0.839297 0.0594681
1866 12.5805 4.44779 3.58747 0.551689 0.924817 0.373814
2182 13.3222 3.58183 3.54636 -0.660854 -0.649346 -0.434393
1910 12.4842 3.58433 4.46433 -0.455128 -1.46633 0.720622
2329 14.6042 3.244 3.58105 -1.33274 -0.911489 0.333836
1567 14.7543 4.21366 3.71389 -1.03251 0.521813 0.0257156
1972 13.6754 3.42695 4.45271 1.44289 -1.67295 0.999003
1661 15.7761 3.65738 3.63337 -0.606574 1.63999 1.81134
413 15.5695 4.31271 4.41223 0.0497292 -1.57338 0.76687
718 16.935 3.00107 3.56471 1.35223 0.71282 -0.305726
639 17.5792 3.80007 3.35649 -1.3664 1.0667 0.71698
2688 16.7531 3.98521 4.44885 0.474918 -0.936957 1.76432
3745 17.7401 3.39288 4.33607 -1.03451 1.01923 -1.56678
149 17.8642 4.40407 4.42386 1.01874 -0.341226 0.10704
3386 1.3607 4.57144 3.38214 0.888041 1.44144 -0.171532
43 0.170776 4.90448 3.11752 -1.22063 0.706133 1.44013
673 0.742384 5.40253 3.89639 -1.1146 -1.28519 -0.41099
3934 2.53148 4.88282 3.4549 0.0552423 -1.07851 1.02661
1983 2.62323 5.92172 4.10476 -0.420382 -0.386111 -1.2608
1381 1.69216 5.52094 3.79208 -0.677271 1.17577 0.293929
2179 3.33488 5.50604 3.18962 -0.170587 0.019375 -0.217967
1531 4.19254 5.72407 4.14127 0.377737 0.27763 -0.590858
792 3.39642 4.60615 4.41317 -0.382774 0.712808 1.27914
1262 4.90614 5.14855 3.61657 0.780175 0.652738 -0.0341643
820 6.02361 4.98338 3.09741 -0.149829 0.545605 0.0846144
3607 7.08782 5.40308 3.20857 0.723199 0.881792 -0.122002
1316 6.00058 5.73128 3.75581 0.484654 -1.74772 -0.99741
91 6.72295 5.08086 4.36417 -0.867813 1.81901 1.00119
617 8.06595 5.71743 4.12756 0.0233509 1.82269 1.84291
3641 8.54698 4.52948 3.47519 -0.175116 -1.19802 1.16194
881 7.64002 4.51109 4.29053 -0.989292 2.22589 -1.13719
997 9.8561 5.45517 3.0047 1.02528 -0.850228 1.60094
1220 9.82219 4.54642 3.875 0.118854 -0.463481 1.10448
1725 9.08225 5.37283 3.93764 -0.335842 0.0435751 1.11799
3809 10.7449 5.15363 4.27576 -1.08769 0.549407 -0.238167
2833 10.8411 5.84136 3.47762 -2.14377 -2.1438 0.324138
1154 11.8954 5.34945 4.12823 -0.980666 -0.428175 -0.330458
701 11.6173 4.62376 3.15596 1.18252 -0.36775 0.430051
1834 12.3739 5.62515 3.16315 0.529369 2.06439 -0.33592
579 13.3769 5.68642 3.3648 1.25999 1.33879 1.44675
3697 12.9939 5.4354 4.25584 -1.31388 -0.0357655 -1.56388
3742 13.989 4.71725 3.26141 0.0249869 0.72251 1.28469
1296 14.2711 5.61798 4.00562 0.684996 -0.356566 -0.0702947
733 15.6364 4.96781 3.42808 -0.486373 -1.17279 -0.502476
2588 17.4535 5.55185 3.62785 -0.880061 1.56163 -1.1254
2743 0.368002 6.41165 3.32417 2.52907 -0.542738 0.185674
776 0.883179 6.35554 4.43107 0.616881 0.025159 0.67546
2025 1.55071 6.59762 3.44499 0.225709 1.62027 0.151313
1406 4.32913 6.88453 3.87147 -1.54808 -0.446142 0.912182
3859 3.32436 6.52419 3.53086 -0.869197 1.28623 3.02401
1650 4.98658 6.15789 3.56171 0.338378 0.680382 2.50354
425 5.77755 7.27691 3.9086 0.462447 -0.230116 -0.321122
2147 5.03279 7.07868 3.06972 -1.0629 -1.0417 -0.904718
3767 6.37925 6.67866 2.98715 -0.460413 -0.667003 -0.713596
3101 7.41461 6.43588 3.54799 -0.00928496 -0.330794 1.84709
2227 6.89805 7.23432 3.83681 -1.39136 0.441185 0.569534
439 8.32226 6.73299 4.46229 -1.25182 0.0250331 0.0182003
3377 8.91848 7.42383 3.94341 1.43129 -1.09238 -0.250442
2853 8.73214 6.39258 3.50732 -0.694891 0.951355 -0.241273
2277 9.78867 6.37612 4.09785 -0.784805 0.400145 0.160979
1453 9.67471 7.43145 3.24344 0.355682 0.0662651 -2.40725
2797 10.5839 6.85304 3.66715 -1.22971 1.25278 -0.768011
1516 11.1981 6.22303 4.4434 -1.55776 0.662013 0.473159
602 13.1091 6.88789 3.09813 1.87511 0.0801443 1.44139
166 12.283 6.42272 3.90589 0.0596026 -0.129384 0.02972
135 14.555 6.74711 3.51576 -0.670195 -0.994877 0.406233
3637 14.9991 7.43917 4.03012 0.309598 -1.39011 -2.13483
915 15.4836 6.39258 4.0005 -0.541596 -0.677238 0.282851
247 16.1614 7.006 3.60139 1.81533 -0.385796 -0.889604
694 17.8729 7.39252 3.0044 1.72794 1.08559 1.25939
2142 16.3974 6.03914 3.16975 1.22632 0.845777 0.690919
2807 17.1904 6.64119 3.93731 0.208291 -0.479637 -1.91022
210 0.181548 8.45519 3.44337 -0.828801 0.729395 -1.86859
2802 1.13062 7.6112 4.31296 0.0712736 0.684842 -0.629716
863 1.71497 7.99317 3.45789 0.470195 -0.245886 -1.81682
2411 2.72462 8.77129 4.44596 0.941096 -0.580544 -0.601155
1810 4.38084 8.87187 4.38582 -1.48868 -1.27568 -0.346041
1115 3.64175 8.68517 3.1566 0.840197 0.720014 -0.266976
494 3.15083 7.99893 4.09862 0.685488 -1.0734 0.565454
2283 3.7809 7.49771 3.27181 -1.04038 0.993706 0.763226
3840 4.5348 8.14321 3.68783 0.55441 -1.08231 0.339189
907 5.46464 8.37497 4.26597 -0.738925 1.41343 -1.19268
2230 5.97754 7.65647 3.06439 0.340734 -1.77724 -1.28862
730 6.66239 8.31153 4.00825 0.0550154 0.212751 -0.681906
3957 7.15251 8.69316 3.08641 1.14976 0.710284 -0.285391
164 7.77426 7.93126 3.55413 -1.02637 -0.169956 -1.95462
2318 8.33369 8.93763 4.15791 -0.517338 -0.19363 0.234613
1949 10.1209 7.59868 4.27797 0.204567 -0.543445 -0.303244
1728 10.1499 8.9267 4.22543 -0.19243 1.46498 -0.236559
3661 11.846 8.45716 3.06066 0.612845 -0.721428 0.376365
3476 11.5579 7.65535 3.66456 -1.06258 -1.35681 0.0662919
3984 10.5367 8.3644 3.5302 0.121327 1.6319 2.23337
3221 12.5588 7.82826 4.40504 -0.365346 -1.22658 -1.50681
2116 12.8709 7.8838 3.21216 -0.325917 0.14596 0.560278
182 13.2088 8.71838 3.70885 1.59291 0.310421 -0.242947
3448 14.8062 8.4802 4.41824 -0.411381 -0.448622 0.848884
368 14.1276 7.91519 3.64933 1.59552 0.555053 -0.222733
2852 14.9974 8.82128 3.09577 -1.90659 -0.0361515 -0.696292
526 16.2646 8.30331 3.209 -0.203267 0.00928219 1.27557
3630 17.5425 8.77385 4.32857 0.30417 0.688439 0.801762
1480 16.4469 8.18659 4.34669 -0.637923 0.262321 -0.50964
771 17.3494 7.78595 3.98578 0.842145 -1.02776 0.31704
305 0.325051 0.246436 4.68326 0.672386 1.24382 -0.45891
1042 1.27231 0.281175 4.91423 -0.811636 -0.173733 0.0721079
2164 0.488192 1.2805 5.29648 0.665025 0.200939 0.567151
13 1.96306 1.03453 4.94622 -0.841465 0.778546 -0.881105
3072 3.47611 0.275765 5.05817 1.12698 -1.18689 0.494035
3444 3.17203 1.33494 4.76812 -1.25937 0.0459652 2.02541
2620 3.40613 1.33078 5.74999 -0.272719 -1.46877 -0.564305
277 4.46579 0.462267 5.42485 -1.15384 0.488106 0.550209