ITEM: TIMESTEP
45000
ITEM: NUMBER OF ATOMS
4000
ITEM: BOX BOUNDS pp pp pp
0.0000000000000000e+00 1.7878070701931353e+01
0.0000000000000000e+00 1.7878070701931353e+01
0.0000000000000000e+00 1.7878070701931353e+01
ITEM: ATOMS id x y z vx vy vz
1717 0.466161 0.160576 0.220896 -1.07495 0.254792 -0.572266
641 0.8099 0.2188 1.40924 -0.315324 -1.8568 -0.996905
1315 0.697778 1.08364 0.756652 -1.52035 -0.960804 -0.638348
3720 2.85885 0.57278 1.29913 -2.33224 0.314802 0.753559
2638 2.54951 0.373933 0.291937 -0.77969 -1.02035 0.35956
530 2.86792 1.46359 0.181451 -1.20195 0.351352 0.19583
1179 4.04956 0.824255 0.612367 0.609285 0.395899 0.379209
146 4.81914 0.037784 0.504774 -0.105345 -0.776405 -0.507061
1533 5.77482 1.3274 1.30727 0.791489 0.355239 1.74302
972 4.98956 1.05295 0.179195 -0.138704 -0.0481801 1.60948
428 6.66317 0.469391 0.832102 -0.553642 -1.79018 -0.141871
3077 7.21529 1.39167 1.42412 -0.488676 -1.61505 -0.0920423
2327 6.3663 0.974073 0.00857573 -1.01126 1.23983 -0.0556101
3036 7.6221 0.858048 0.384472 -0.62264 -1.65444 -1.69125
7 8.57921 1.05121 0.0172148 -1.26557 0.273256 -0.15199
1614 8.56751 0.62394 1.02439 0.765458 1.2597 -1.50086
2246 9.48802 1.42423 0.501904 -1.49914 0.289135 0.51571
1390 9.74343 0.388316 0.413188 -0.243879 1.29581 0.358516
1152 10.5172 0.999608 0.526264 -0.152227 0.73532 0.516977
3779 11.132 0.560643 1.30574 0.382068 0.172025 -0.431515
3143 11.4961 1.1821 0.290585 0.00905595 -0.28212 -1.51537
1771 13.2873 0.366429 0.470436 -0.684985 1.07131 1.61183
2905 13.1533 1.31677 0.965706 0.899655 0.709592 1.31162
559 12.0779 0.261119 0.873024 -0.658454 0.399872 0.821479
1025 14.7248 0.430925 0.694589 0.155374 -0.148691 1.96785
528 14.0007 0.0195277 1.38509 -0.931797 -0.887457 -0.318103
1438 15.5203 1.06013 0.982567 -0.429158 0.958613 -0.422583
657 16.161 0.233271 0.892542 1.38883 0.148247 -0.308867
2787 16.367 0.964022 0.0296929 -1.06271 0.757468 1.67675
474 17.6628 0.330571 1.14681 0.0941289 0.902211 0.239483
1024 17.5963 1.37313 1.4214 -0.705567 -0.0944483 1.29733
790 0.146192 2.26322 0.920775 -0.19313 -0.60333 -1.50243
3664 1.2192 2.29022 1.18081 -0.678985 -1.03819 -1.32414
1876 0.874871 2.23308 0.132116 0.314052 0.167069 0.222121
3086 1.76397 1.62643 0.0619641 -0.294442 0.0483948 1.11894
2160 4.26582 1.9358 1.42636 -0.739681 1.06415 -0.111542
389 3.41071 2.48702 0.857914 0.204929 -1.57712 -1.04457
1326 5.06761 2.52797 0.740888 -0.330608 0.427583 1.6657
830 6.78528 1.86983 0.534938 1.19674 -0.223636 -0.572281
155 6.0871 2.97854 1.0249 1.12543 -0.220971 -0.66052
3852 8.09634 1.77255 0.838955 0.748066 -1.15626 0.281754
508 8.159 2.73803 0.558377 -0.484474 2.06885 -0.667604
1333 9.16499 2.855 0.66182 -0.471454 1.37046 -2.195
1900 9.52916 2.2202 1.40225 1.11917 0.937561 -0.719093
3716 10.7507 2.17868 0.809207 -0.411933 -0.0425265 1.12922
1 11.6168 2.277 0.385789 -1.59428 0.598322 1.38588
1202 13.1421 2.2766 1.31214 1.17295 -0.0385222 -1.77491
2220 12.094 1.50841 1.01808 0.0119478 0.48259 0.8137
1645 12.2465 2.88395 0.995988 -0.937058 -0.223136 1.25114
1488 12.9017 2.30165 0.225804 -0.521821 0.166699 1.93504
747 14.7461 2.18035 1.01363 0.948758 -0.517491 -0.513472
2571 13.8998 2.04318 0.408291 -0.63188 0.123897 0.288721
2066 15.7003 2.23177 0.623067 -0.301737 0.0317633 0.334595
2492 17.1137 1.83096 0.146662 -0.570244 -0.820869 0.129376
851 16.8857 2.24037 1.15545 0.926435 -0.304569 0.168252
2650 0.487486 3.31843 0.864377 2.17104 1.03643 1.08098
3166 1.44573 4.12423 1.10915 -0.406138 -0.142921 0.812745
1801 0.558845 4.39091 0.4328 -1.92134 -0.53352 -0.541595
230 2.18482 3.02383 0.18003 -1.01444 0.538266 -1.19055
3836 1.77045 3.25294 1.37461 -0.0204311 1.15996 0.803847
2140 3.44228 4.25189 0.497977 -1.33578 -0.37862 -1.07515
3482 4.50284 3.52812 0.487421 -0.921285 1.05298 0.405049
455 5.36815 3.86442 1.44051 -0.0821074 -0.74675 0.920981
382 5.74209 3.95146 0.464785 1.92532 1.36078 1.97929
3705 6.59982 3.23544 0.0743525 1.22982 1.25765 -1.00433
724 6.56594 4.2301 1.20509 1.61395 1.36382 0.194086
3556 7.19634 3.03868 0.900042 0.600753 -1.67376 1.04111
812 7.67794 3.63714 0.125999 0.0925598 -0.96137 -1.24573
1905 8.03102 3.72317 1.17019 1.19669 -0.387407 -0.245918
1577 9.7374 4.08043 0.64368 0.635374 -0.976424 0.505673
349 9.97424 3.06699 0.147796 -0.532369 -0.113602 0.339555
947 10.7758 4.02296 0.840937 1.68613 -0.462784 0.45185
667 11.5863 4.44998 1.40108 0.174784 1.23941 0.446908
2341 11.1481 3.30112 0.297131 0.877982 0.183121 -0.107114
71 13.0056 4.38078 0.358289 1.89086 2.64207 1.42487
3034 12.5769 3.33586 0.0676169 0.377257 0.696662 0.850521
1356 14.2877 2.98947 1.45948 -0.273477 1.21944 0.314805
1688 14.8328 3.89409 1.18787 -0.121663 -1.63313 -0.229975
2874 13.513 3.1472 0.758612 1.68432 0.278482 -0.237393
250 16.3462 4.40984 0.828731 -1.56211 1.55828 0.218179
2314 15.3945 3.06027 1.03015 0.230432 0.689446 0.78211
3023 17.1358 3.76225 0.631736 -0.52199 1.21526 -2.42704
674 16.4386 3.09313 0.735269 -1.84615 -0.248982 0.999244
1320 1.12848 5.82823 1.03099 0.481543 0.0990528 -0.0274824
1733 0.177846 5.48084 1.26517 0.903111 -0.35743 0.197332
2847 0.225892 5.53425 0.310995 0.000869673 0.942109 1.05458
1993 1.30133 5.09336 0.242744 -0.590836 1.76223 1.14724
3336 2.49569 5.08535 0.642404 1.04324 0.157814 1.47084
3235 2.04789 5.67985 1.34779 0.434325 3.15135 0.246377
1743 4.23447 4.95796 0.212195 2.29826 0.829869 -0.0349424
3690 3.41401 5.50952 0.968195 -0.644534 -0.886574 1.12704
3767 4.96643 4.81311 1.31084 0.285919 1.17919 2.0432
219 5.77159 5.10142 0.336435 -0.682 0.614917 1.04624
1247 6.96585 5.25048 0.615141 -0.355368 -0.704938 0.125748
1236 8.58224 5.6146 1.23915 -0.786779 0.42701 -1.65848
9 8.73635 4.5732 0.294694 -0.369487 -0.986712 0.0198704
1175 7.8785 4.66547 1.04074 -0.391835 1.36129 0.736547
2225 8.44782 5.75673 0.124364 -0.999547 0.950449 -0.254672
1162 10.8322 5.08484 0.973403 -0.28939 1.5546 1.55491
58 11.8294 5.21111 0.638285 -0.886132 -0.491728 -0.041922
871 12.9133 4.56976 1.4011 -0.114857 0.600602 0.66694
2051 12.7902 5.57753 0.914276 -1.00107 -1.24593 0.899676
2233 13.8866 5.7781 0.97407 0.115878 -1.76479 0.432564
1758 14.1085 4.52196 0.809205 -0.125737 0.993207 1.71248
2657 16.1608 5.25522 0.107039 -2.08712 -0.23273 0.0842814
2403 15.2495 5.85648 1.31333 -0.65361 0.470369 1.07515
174 14.9224 5.69335 0.316408 -0.7479 1.65234 0.747956
1470 15.185 4.5803 0.305943 1.72853 -2.06889 -1.24508
575 17.14 4.9554 1.48095 1.03428 -0.296591 0.203519
2301 17.0977 5.787 0.558845 -1.0048 0.348588 -0.115071
3981 17.3692 4.80112 0.535921 0.45132 1.03382 -0.0785785
409 0.708694 6.66374 0.57403 0.600757 0.870089 -0.037451
3311 1.87796 6.16474 0.366066 0.868955 -1.01039 -0.100804
77 1.69965 6.78747 1.46511 0.746827 0.142861 -2.41305
87 2.61863 7.40343 0.719813 -0.739798 -1.41399 -0.418701
241 2.87261 6.35114 0.307899 -0.421579 -0.830863 -0.393615
369 1.57002 7.34882 0.333081 0.194697 -1.12201 -0.0365184
1963 3.54117 7.00505 0.963141 -1.2896 -1.847 -1.17106
1031 5.50892 7.29174 0.336593 -1.28474 0.526435 0.932375
511 4.6165 6.03461 1.11681 0.462529 -1.1237 -0.519998
1802 5.59088 6.25293 0.280972 0.669346 1.33462 1.33716
380 4.54356 6.15168 0.157851 0.363581 -1.80101 -0.614664
1607 4.5546 7.10763 1.07482 -0.027021 0.246373 0.511229
2479 7.40597 6.4257 1.36999 -0.865753 0.36947 -1.82776
2980 6.49288 6.93998 1.32186 0.996413 0.104682 0.318613
1019 6.46427 6.08318 0.889918 -0.33278 1.22371 0.650346
3911 8.4179 6.5727 0.790334 0.134494 1.96237 0.235728
3542 7.52982 6.74849 0.0159605 0.291556 0.640308 0.964599
2803 10.384 6.02026 0.781507 -0.482247 0.0738858 0.575645
3320 9.53446 6.72142 0.17691 1.01652 1.00654 -0.368208
3301 9.51495 6.59897 1.33261 1.24794 2.35611 0.168792
2171 11.2964 6.44609 0.587196 -0.121208 0.183459 0.834648
309 10.5088 7.03196 0.249948 -0.395011 0.751281 0.308134
1434 12.3711 6.88684 0.301637 -0.139357 -0.0602223 -0.842178
2202 12.7608 6.54951 1.19914 -0.265201 0.968298 1.40816
1494 13.8161 7.15517 0.510107 -0.937969 -2.17257 1.16391
1884 15.8557 6.28086 0.525425 0.215109 -0.0554135 -1.18227
307 14.9018 6.91632 1.02929 -1.17202 0.865893 -1.71128
525 15.8774 7.41926 0.909187 1.31243 -1.24033 -1.10878
1429 17.5935 6.38608 1.40331 -0.93431 0.850781 -0.247989
3940 17.4532 7.39922 0.829541 -0.66019 1.3299 -0.927019
622 16.8202 6.95645 0.0370508 1.24219 -0.554475 -0.914711
1837 0.654476 7.67586 0.88434 0.791826 0.449673 -0.677717
1851 1.48202 8.41208 0.730816 -0.455024 1.8144 -0.229956
482 2.09524 7.9371 1.46555 1.18234 -0.573938 -1.61976
2613 2.50509 8.57618 0.808648 -0.958004 -0.323602 0.0750866
3224 3.79896 7.88164 0.403943 -0.277507 -1.0916 1.7827
3771 3.36694 8.81702 1.47151 -1.61309 -0.808772 -0.756645
903 3.75915 8.91716 0.170679 -1.1863 -2.16658 -1.91725
2230 5.23228 7.89559 1.28109 -1.17828 0.157731 -1.34324
1926 4.52537 8.57436 0.856562 1.14572 -0.170151 1.10746
3416 5.97586 8.68354 1.17921 -0.826846 -0.0930891 0.457613
3756 7.18137 8.38261 0.0715594 0.627282 0.555219 0.0225736
3258 6.8154 7.90235 0.968115 -1.36795 -0.416714 0.554249
3474 6.26789 8.68969 0.12109 -0.429782 -1.33497 0.0390259
1640 8.03857 7.55535 0.697788 -1.2863 0.649275 0.811425
1187 8.0693 8.77856 0.498459 -0.273495 -2.43192 0.49743
2100 7.6266 8.50651 1.4512 -0.161301 0.786843 1.72845
2053 8.84582 7.79719 1.38214 -0.412548 -0.454403 -0.382581
1915 9.88264 8.58163 1.0768 -0.356013 -1.56953 1.09253
686 11.5468 7.55208 0.307403 -0.938622 -0.786558 -0.530253
345 11.0405 8.36465 0.791723 1.79446 -1.03383 1.39334
1004 12.8557 7.7978 0.959337 -0.228518 1.12492 -0.8464
3650 14.3513 8.06485 0.582366 0.695428 0.926635 0.0898247
3912 13.4194 8.50298 0.492109 -0.70336 -0.10671 -1.10286
1151 16.278 8.42395 0.984893 0.546516 -0.243878 0.676558
2002 15.1861 8.70021 1.47096 -0.658984 0.51361 0.571022
1355 15.3512 8.32655 0.38129 -0.0189955 -0.522846 -0.0379483
3629 17.6484 8.36067 0.500706 -2.50634 -0.423422 0.380148
416 16.7801 8.21738 0.0600715 -1.04355 -0.486942 -0.754668
3075 0.757024 0.420035 2.64697 -1.8735 0.182046 -0.751014
3928 1.39502 1.44494 2.6449 -0.524958 0.142268 0.402952
1853 2.45818 0.832314 2.45045 1.43259 0.821147 1.12904
350 1.78622 1.30586 1.55202 -0.439777 -1.3174 0.304056
173 3.88569 0.336465 1.66871 -0.410727 0.116029 0.266653
1118 4.28446 1.16544 2.46189 -0.727175 0.0413976 2.207
3776 4.85772 0.845963 1.60067 1.21099 -0.0101637 1.25409
2568 5.68973 0.0948534 1.77692 -0.149928 -0.878685 -0.674532
1063 5.71977 0.699978 2.86642 1.24603 -0.152896 0.838543
3695 4.75724 0.233545 2.86986 0.904358 1.04155 1.25384
312 7.21402 0.880725 2.62803 0.812738 0.881954 0.669773
347 6.70167 0.210757 2.148 0.616876 1.28572 1.33645
3074 7.53012 0.455871 1.54689 0.31344 -2.24505 1.32856
3048 8.17805 1.35643 1.82753 1.60373 0.745939 1.71441
3663 10.1517 0.885 1.85073 -0.0346369 -0.120245 1.51172
2856 9.05251 0.322018 2.01052 -0.271675 -0.79088 -0.309914
734 10.2151 1.23649 2.94669 -1.88065 -0.314251 0.344395
63 11.1892 0.902075 2.46917 2.45381 -0.0773252 1.4376
703 12.4409 1.23262 2.133 -0.162403 -0.204088 0.70175
946 12.8998 0.462953 1.79989 -0.872632 -0.227023 -0.428668
3994 12.3396 0.268944 2.75328 1.21419 -0.107139 -1.38484
435 14.0776 1.0874 1.64718 -0.880193 0.923296 0.257619
108 14.4775 0.0629191 2.23114 -1.34913 1.79966 -0.381501
2084 14.7365 1.046 2.68875 0.82441 -0.146854 -0.905923
1596 13.5588 0.331459 2.70918 0.766985 -0.372465 1.52605
2450 15.4482 0.190662 1.61249 0.785425 0.405504 -0.561135
2836 15.7236 1.15229 2.14686 -0.2909 0.35537 -0.807598
2774 17.2926 0.958517 2.65567 -0.513682 1.49226 -0.0318653
3842 0.60049 2.55611 2.16412 -0.766093 -1.16489 -0.369674
3780 0.14507 1.80119 2.6168 -0.244945 -2.07231 -0.701355
2482 0.707445 1.52616 1.65941 -0.612173 -0.582655 -0.541885
423 2.55303 2.55983 1.5462 0.909602 -0.606079 1.15063
3182 1.66978 2.65165 2.2128 0.500241 1.29765 0.314358
857 2.70123 1.81039 2.78833 0.644652 0.27676 -0.673828
2348 3.21381 1.77838 1.85199 0.0128976 0.096095 -1.13108
198 3.69969 2.13366 2.88795 -0.362399 -1.08609 -0.378121
3090 4.72658 2.35174 2.44247 0.392997 -1.31277 0.698616
3248 5.40444 2.51456 1.66305 -0.126303 1.55836 1.01695
1941 6.40142 2.20935 1.66434 0.534815 -1.19601 -0.485076
1903 6.17165 1.63106 2.5096 0.48454 -0.574234 0.486844
1956 7.21927 1.90558 2.29005 0.271384 0.593257 0.14813
834 7.77568 2.70223 1.77135 -2.44124 -0.123064 0.986006
3391 7.67321 2.60968 2.96751 -1.23599 0.00106508 1.60351
3211 8.47267 2.02589 2.72121 -0.648177 -0.839775 0.756112
1833 9.48877 1.76047 2.30422 0.435836 -1.26446 -1.54676
652 9.07306 2.8186 2.21659 -2.11388 -0.96647 0.766571
3592 11.5257 2.60448 1.77504 1.29972 0.160524 -0.468278
1500 10.4501 2.35885 2.47564 -2.13412 1.45357 1.13052
3269 11.6482 1.94469 2.42639 0.635707 1.52755 0.5068
1075 12.6699 2.36468 2.37593 -1.1559 1.56884 0.369579
2724 14.5671 1.93081 2.04904 0.959797 -0.938758 -1.52818
1457 16.0409 2.31926 2.03793 1.9781 1.03845 -1.36674
2968 0.676035 3.66819 1.75719 -0.767838 0.532421 -1.49587
568 1.40078 3.49494 2.94927 -0.212593 0.611718 -0.788945
2243 2.92585 4.20678 2.52376 0.540807 -1.25885 1.39567
1805 2.31008 3.47354 2.38967 2.11799 2.02739 0.490305
376 3.08924 3.63068 1.53176 1.1914 0.989108 0.352323
3271 4.43163 3.08391 1.69794 2.18804 -0.397962 0.215175
3386 3.28797 3.00863 2.62403 -0.312843 -0.522269 -0.798191
3066 4.20048 4.10543 1.566 0.227954 0.146141 0.406599
3607 6.82133 4.00341 2.90426 -0.973683 1.02194 0.886244
492 6.98521 3.28962 1.89128 -1.03546 -1.57198 1.16965
922 6.01087 3.2314 2.21003 0.456745 1.96037 0.670191
3376 7.69856 4.10203 2.24448 -1.26159 -0.253917 0.923992
2472 8.65672 3.8734 2.81573 1.89334 -1.01006 0.77699
2698 10.3453 3.2303 2.93675 -1.45784 0.405873 0.457086
3882 9.79405 3.92325 2.40085 -0.228813 -0.777427 -0.426589
2105 10.0632 3.10881 1.7866 -0.654632 -0.502807 -0.161778
498 11.4208 3.01335 2.76045 1.22906 -0.112988 0.74569
2668 11.0388 3.68795 1.96027 0.416287 -0.72369 -0.909439
2622 12.3021 3.68193 1.77831 -0.432151 -0.504831 0.838899
1513 13.1347 3.85556 2.53666 -1.67007 -2.682 1.19215
3613 11.9455 4.36933 2.73325 0.00222097 -0.570746 -1.81182
1446 13.2004 3.35165 1.70493 -1.24632 -1.10788 -0.713424
656 13.9261 4.31242 1.85099 -0.0705531 0.93097 0.975159
1452 13.9049 3.09332 2.40501 0.328284 0.908699 -0.533914
441 15.4543 3.43196 2.40816 1.1256 0.424643 2.16125
2056 16.5593 3.36697 1.76487 0.514833 0.39511 -1.36738
1878 17.473 3.16506 1.67822 0.129418 -0.235468 -0.705511
3154 16.6159 3.66092 2.83666 1.2561 -0.689996 1.80414
1741 0.138102 4.64079 2.01858 -1.27951 1.41781 0.636686
1534 1.10618 5.09912 1.79359 -0.725687 1.83478 0.366948
3180 0.791676 5.05679 2.71713 -2.68118 -1.28284 0.543457
1571 2.23952 4.53352 1.78168 -0.223448 0.364051 -0.289758
1312 2.13063 5.36664 2.71963 1.26551 -2.40167 0.894332
2577 2.8371 5.51851 1.92801 1.97643 1.32193 2.13902
86 3.85916 5.12392 1.96383 0.989248 0.143216 -0.731849
2635 4.25224 4.59946 2.82872 -0.264872 0.901982 0.342799
2873 4.15317 5.69515 2.92823 0.71424 0.975121 0.84133
752 5.28287 5.27533 2.18555 -1.47412 0.235433 0.400798
987 6.42509 5.29869 2.77612 2.16768 -0.760165 -0.309774
1776 6.08331 4.48336 2.067 0.904403 -0.750387 0.356849
3699 6.94751 5.01093 1.83647 1.24836 0.555208 1.2948
2417 7.16907 5.91622 2.46252 0.350952 -0.404838 1.54521
2808 8.15643 5.53302 2.28931 -0.351342 -1.08228 0.320134
3055 8.91894 4.57061 1.98265 -0.0190805 -0.10557 -1.89288
279 10.1472 4.5602 1.70339 -1.22824 -4.07817 0.0372588
2503 9.95914 5.35414 2.6637 0.233595 0.166988 -0.208293
3707 9.61486 5.60682 1.63667 0.761831 0.108999 0.42818
2750 11.4029 5.38253 2.68551 0.620075 -1.44089 0.902621
3585 10.6404 5.44985 1.86738 0.00416471 1.60386 0.296939
1691 10.6322 4.47639 2.69013 0.143611 -0.431439 0.0150592
1164 12.0502 5.74433 1.79015 0.10326 -1.39759 -0.28096
2956 13.3868 5.75144 2.04833 0.150077 2.00221 -0.172948
1674 12.4445 5.51158 2.89048 -0.701683 0.945821 -0.178007
3364 14.2768 5.27234 1.97961 0.597272 0.126926 0.931357
1940 13.5279 4.97348 2.85269 2.36635 -1.57626 -1.27078
1258 15.3378 4.78966 2.00628 0.00969175 2.86217 0.678209
1757 16.3627 5.93552 1.7427 0.963027 -0.161586 -0.0488324
2499 17.2865 5.73636 2.12878 -0.673668 -0.928378 0.29817
714 16.6173 4.70125 2.47143 0.534895 -0.0480002 0.0933775
1942 0.375286 7.04656 1.74491 0.277988 0.310056 0.213668
1611 0.501998 6.08518 2.07431 -1.98881 0.982705 -0.275409
3448 0.369393 6.94897 2.69889 -1.51155 1.3743 0.528735
2754 1.29315 7.19311 2.43692 0.475817 0.447395 0.00502637
2743 1.22421 6.24036 2.75639 -0.297704 1.57833 -1.72265
2804 2.27071 6.60259 2.79351 0.208955 -1.11875 0.169637
694 2.622 6.95129 1.90183 -1.94424 1.1033 -0.194771
3933 3.78225 6.31233 1.70499 0.34326 -0.915006 -1.22469
2455 3.44753 6.51568 2.66749 0.432524 -1.01581 -0.8202
3371 4.1797 7.19124 2.07139 1.19929 1.29908 -1.57736
1316 5.43902 6.87491 1.67001 0.54987 1.25934 0.847895
1902 5.50817 7.04028 2.87671 -1.25313 -0.487149 -0.806552
2746 4.72338 6.29773 2.26765 0.244504 1.39527 0.747649
3051 6.06965 6.02504 1.90316 0.367492 0.19046 -0.823535
1763 6.7223 6.94204 2.40596 0.118322 -0.450775 -0.734319
820 8.04703 6.74441 2.1633 -0.423807 -1.05834 -0.721682
429 9.02087 6.2442 2.64753 -1.52619 1.41956 0.547428
2366 9.93648 6.80083 2.35322 -0.937139 -0.896876 1.19207
420 9.04283 7.14288 2.09085 1.39704 -1.5155 1.82957
2936 10.82 6.78104 1.51272 1.28903 -0.330168 -1.1491
273 11.0696 6.41 2.64656 -0.864563 -1.62103 -0.020637
2289 11.8205 6.99688 1.52295 -1.5633 -0.324665 -0.548502
1834 14.2225 6.29558 1.81537 0.72473 0.815189 0.779154
671 13.6651 7.14117 2.54762 -0.556636 -0.758944 1.39387
3878 16.2645 6.97537 1.74562 -0.322442 1.81074 -0.244158
3637 15.4884 6.14502 2.45571 0.1587 1.74632 0.271133
2752 15.2772 7.21423 2.77222 -0.735683 2.19531 1.03624
368 16.8543 6.54035 2.61 -1.62331 0.206945 0.404489
2849 0.832378 8.08584 1.92685 0.46566 -1.67272 2.99218
2731 0.11758 8.85331 2.61329 0.59749 -0.0344399 0.485624
2929 2.32924 7.77864 2.88997 -1.01037 -0.776877 -0.725493
993 1.835 8.52997 2.45872 0.315617 2.21589 -0.35658
1869 3.92773 8.85928 2.70385 -0.891682 0.159789 1.23015
426 3.24711 7.69899 1.58925 -2.22622 -0.764224 0.215048
1710 4.28208 8.17723 1.79831 -0.207228 1.32743 0.70706
2179 3.61189 7.87272 2.70223 -0.0219997 0.0228425 0.349427
3308 5.88593 8.01963 2.17462 -0.569869 -1.1146 -1.68449
890 5.22352 8.77311 1.84 -0.805012 0.7708 1.30517
1301 4.89597 8.71407 2.81197 1.74843 -0.663292 -0.366397
1309 7.4402 7.51565 1.92526 -0.331683 -0.101046 -0.148624
106 6.04759 8.92079 2.68922 0.00519557 -0.669233 1.97832
1420 7.49487 8.76031 2.49068 -0.197108 0.893565 -0.918004
1150 8.61964 8.64511 2.15455 -0.63511 0.575852 0.660835
643 10.0647 7.66018 1.66994 0.0221822 0.431257 1.39853
3401 10.4088 7.75822 2.71747 -0.886429 1.36457 0.815178
689 9.4262 8.07409 2.6733 -0.378112 -0.453805 -0.204146
1169 10.4357 8.64852 2.04902 -1.03262 -1.75546 -2.39407
2406 11.2266 8.02128 1.81185 0.513699 -0.404702 -1.41515
2068 11.8389 7.5813 2.54118 0.0298609 0.18723 -0.477774
1991 11.1757 8.53179 2.67367 -0.264573 1.09227 -0.496009
2336 12.3873 8.55404 2.64744 1.01994 -1.06383 0.15143
3976 12.199 8.52099 1.58935 -1.08149 -0.336848 0.681455
3414 12.8895 7.63434 2.03783 2.27868 -0.806489 -0.252789
195 14.1716 8.81881 2.44182 -0.629194 1.00052 1.17633
392 14.5782 7.99545 2.01732 0.999236 -1.65877 1.36731
477 13.6391 8.43873 1.5735 -0.918112 0.0710407 -0.214935
1159 16.14 8.24717 1.88576 -0.745069 -0.414982 -3.02528
2610 15.9664 8.1224 2.90366 0.260824 -0.588369 -0.0241536
1976 16.8306 7.57155 2.39561 -0.295492 -0.163904 -0.0181617
2766 17.2654 8.19359 1.63762 -0.363018 0.00275917 0.389355
1042 0.839908 1.11278 3.54688 0.314378 0.0149027 0.807602
985 0.517708 0.0967257 4.00143 -2.0072 1.70732 2.00655
2282 1.70898 0.587692 3.38639 -0.693494 0.249848 -0.216635
2236 2.08263 0.449668 4.46675 -0.822895 1.4031 0.028817
816 2.7194 0.913883 3.42147 1.47634 -0.00975014 0.706659
2925 4.00433 0.874086 3.41599 -0.84911 -0.22685 1.88231
1985 3.89056 1.00736 4.4389 2.00819 -0.482622 1.07743
1263 3.25759 0.0164545 3.61455 -0.254576 1.74831 0.973423
2703 4.50133 0.0368733 3.89449 -0.0103995 0.271226 -1.04448
2268 5.92452 1.22183 4.08155 -0.982965 -0.750806 -0.506441
1055 5.05155 1.00009 3.71048 0.0798706 -0.837913 -0.0762407
854 6.97044 1.06783 3.70803 0.124434 0.40006 0.780065
2060 6.58044 0.282503 3.1486 0.750907 2.06917 1.90632
2065 8.13058 0.753685 3.56817 1.56987 -0.851572 -0.38762
2270 9.41892 0.388418 4.32198 0.339886 0.510813 -0.580576
3688 9.09552 0.0332284 3.07569 2.16285 0.486919 0.236296
1126 10.2416 1.23897 4.01898 -0.968344 0.539496 1.74206
2434 10.3651 0.21649 3.8388 0.810578 1.03319 -0.909867
748 8.98204 1.09016 3.05407 -1.29909 1.78433 -0.971757
3930 11.2224 0.735375 4.45376 0.971158 -1.00102 0.0210411
3792 11.7847 1.12723 3.4716 -0.942074 -0.261803 -0.607927
950 11.433 0.104929 3.4481 -0.576107 -0.929677 -1.53211
114 12.7982 1.29371 3.10617 1.96889 -1.46706 0.28937
75 12.5151 1.25908 4.21051 0.922669 0.196242 -0.106147
3739 13.1157 0.184908 3.67333 1.59355 2.37055 -1.02549
1129 14.0536 0.594224 3.70959 0.212909 -1.55484 -1.25898
2039 13.4422 0.983206 4.46061 -0.575763 -0.768962 -0.889764
662 15.524 1.42013 3.33682 0.127125 -1.0325 -1.4104
644 15.0867 0.684741 3.99813 0.470656 1.18511 0.412056
2191 17.5137 1.13884 4.13165 -3.16521 0.146288 0.84262
3089 16.401 0.492894 4.08945 0.13798 0.40217 1.52283
1319 1.05223 2.14653 3.35242 0.266082 -2.79962 1.39036
1059 0.411326 2.93452 3.65426 -0.232185 -1.82743 -0.488047
1157 0.560503 2.09699 4.28413 -0.0974124 1.40853 -0.791149
3362 2.47768 2.75301 3.17918 0.168515 -1.32645 0.939895
1364 2.08137 1.86088 3.50126 -0.0122232 -0.432357 1.17993
639 2.34951 2.92735 4.35545 1.15739 -0.896693 0.691979
2345 3.08914 2.04928 3.74714 -0.799763 0.102682 0.137255
1617 3.59013 2.96625 3.5901 0.661305 -0.648439 0.741966
2845 4.50252 2.53875 3.7857 1.41371 1.55819 1.21141
1047 5.27689 2.05289 3.15273 -0.435175 -0.129747 -0.200404
1550 4.75747 1.64256 4.41728 0.0494153 0.343817 -0.464312
294 5.32627 2.71672 4.46431 0.431902 0.175556 1.14071
3049 7.30093 2.68515 4.13319 1.10419 0.596076 -0.406849
2167 6.74159 2.95985 3.1653 -1.2462 1.39946 1.35281
2073 6.22271 2.15168 3.57598 0.355266 0.0826753 -1.38549
1899 7.73966 1.74332 3.46243 0.458034 -0.0807191 1.07139
3641 8.41728 2.66055 4.06526 -0.7112 0.826833 1.03657
3356 9.52965 2.21568 3.36753 -1.14839 0.958034 -1.56785
1657 10.2239 2.69669 4.05746 -1.13814 -0.322365 -0.83659
1604 9.06721 1.51587 4.08318 1.30524 -0.520761 -1.5881
2716 10.9878 2.06057 3.49834 -0.712104 -0.1 -1.71112
1675 11.4142 1.75508 4.35985 1.50915 0.650034 1.2067
3740 13.2012 2.91191 3.29378 -0.795479 -0.564275 -0.613744
1199 12.2687 2.3812 3.58769 -1.04318 -0.551658 -0.987288
1931 12.9857 2.23083 4.30399 0.752649 1.05574 0.414113
2329 14.8148 2.34677 3.11008 -0.219765 1.32927 -0.209443
1394 13.6781 1.95623 3.71883 0.578284 0.0348177 -0.507626
2508 14.9555 1.83788 4.11162 -1.51969 -0.00691984 -0.26527
2201 15.8681 2.39157 4.45316 0.203908 1.07407 -0.621452
2636 16.4527 1.80206 3.37632 0.526958 1.03801 -1.84561
3811 16.4744 1.51391 4.37465 -1.70667 -1.51735 1.29831
2044 17.2632 2.56902 3.31087 0.359055 1.66279 -0.604473
469 1.39787 2.98378 3.97674 -0.711979 -1.95597 0.460134
238 2.4452 3.8744 3.68258 -0.130441 0.162049 1.85601
1780 3.69183 4.14248 3.60418 -0.336143 0.109481 1.86258
3618 4.34943 3.46648 3.10152 0.019739 -2.16281 -0.294449
2163 5.3854 3.1272 3.04855 -0.875472 1.51418 0.201633
3438 4.74542 4.44356 3.84528 -0.160358 -1.23873 0.553398
1517 5.38754 4.4552 3.03984 -0.252961 0.610899 0.617105
1101 4.87446 3.56131 4.29921 1.16314 0.0330116 -0.801172
274 6.58723 3.78635 4.18076 0.194364 -1.20173 0.325272
3009 7.62708 3.69159 3.53954 2.27543 -1.28625 -0.442546
361 8.80933 3.95639 4.32914 -0.838056 -0.660489 -0.63406
1750 9.52002 3.3661 3.37167 -1.25517 0.0348963 -2.07086
2409 10.3015 3.96526 3.86629 0.482108 -1.70625 0.244658
1785 11.143 3.37719 3.68645 0.67371 -0.678931 0.0402764
842 11.7889 3.04603 4.34704 -0.254405 -0.582844 0.413981
1782 11.5906 4.33443 4.43139 0.799663 0.441244 -2.37093
370 12.1959 3.47587 3.21541 -0.461183 -0.156624 0.785431
3698 14.7198 3.10103 4.08471 -1.34577 -1.11539 1.33636
1524 13.8547 4.12511 3.34302 0.560452 0.631033 0.238712
1296 14.3708 4.38115 4.34789 0.689684 -0.124506 0.40917
1474 13.432 3.54835 4.33158 -0.873863 -1.6233 -0.719148
3146 15.2575 3.92018 4.31074 2.19848 -1.71545 -0.962464
3605 15.7048 3.01292 3.31885 -0.120294 -1.71575 -1.87167
2688 15.5084 4.09527 3.24394 0.915404 0.636012 -0.217971
2710 17.6619 3.71303 3.20398 0.402253 -0.294462 0.00343173
3777 16.8274 4.46699 3.58532 1.36871 -0.284411 0.91291
3156 17.3588 3.73766 4.27039 -1.78855 -2.02444 -0.0220309
3083 1.07976 5.47955 3.77254 0.518252 0.509638 -0.57926
1623 0.583848 4.58028 3.6569 -1.83397 0.306503 -0.394626
440 2.45123 5.08051 3.8607 -0.228442 0.555062 -1.43291
718 1.53018 4.67408 4.33649 0.0330366 0.357547 -0.459603
732 3.13057 5.09244 3.13218 -0.329424 -0.459752 -0.198088
3032 5.91919 4.56831 3.92857 0.210681 0.682157 0.923766
1761 4.85461 5.51226 4.41585 -1.1556 2.67854 -0.403991
439 6.97599 4.87631 3.77149 -0.607237 -0.000102699 0.490583
1967 8.52929 5.73881 3.43837 -0.786582 1.32167 1.8977
708 8.31638 4.5787 3.52674 -0.55114 1.91856 1.53543
1220 9.67799 4.56178 3.43663 0.566327 0.270842 -0.874157
1539 9.68776 5.55433 4.08664 0.859353 0.92672 -0.637883
1475 10.8377 5.68874 3.65543 1.21299 -0.363654 -0.513713
1403 10.6679 4.78944 4.1746 -0.162821 -1.00453 -1.71488
2575 12.8641 5.80447 3.89573 1.45458 0.655308 -0.467702
3452 14.2863 5.57855 3.20305 0.692494 -0.284788 -0.131331
554 13.4924 4.84272 3.9332 0.00856029 0.363542 0.0863849
2234 16.006 4.4837 4.23475 -0.701117 0.285216 0.541111
1819 15.0437 5.01108 3.83369 -1.69452 1.62583 -1.00627
2852 15.6667 5.23745 3.05193 1.87738 -0.542544 -1.06107
3951 17.6224 4.78742 3.08927 0.697929 -0.0474557 0.812978
3124 17.8477 5.95347 3.08559 -0.214473 1.93793 -0.215749
3329 16.5386 5.60484 3.1903 -0.177977 0.471214 -0.226351
43 17.7015 5.24405 3.97926 0.518312 0.626781 0.04778
8 16.4199 5.46544 4.17963 0.0911142 -1.01259 -1.65986
3461 0.714469 6.38514 4.07698 -0.447753 1.12125 0.858661
2588 1.03638 7.27562 3.63601 -1.05 1.8748 -1.40953
3934 2.58038 7.26298 3.7128 -0.750095 0.796246 -0.145535
1343 1.77796 6.44347 3.87341 -0.951232 -0.578476 -0.280673
1231 3.83964 7.17759 3.49858 0.602488 0.233162 2.206
2596 2.99088 6.14725 3.58104 -2.23067 -0.583858 -0.930788
425 5.42836 6.04642 3.02265 0.999275 -1.39893 -0.762951
730 5.86548 6.78084 3.7486 -1.34754 -0.405164 -1.58393
1983 4.55265 6.37386 3.71907 1.8985 1.39762 -0.74468
1455 6.93426 6.97541 4.04476 -0.833332 -0.940951 -0.671038
2497 6.86644 5.96391 3.6405 2.2125 0.833206 -0.440732
3749 6.1764 6.03858 4.45392 -0.386415 -0.536471 0.588918
3101 8.72656 7.20915 3.09116 -0.342709 -0.83427 -1.93307
2918 7.96044 6.73771 3.60321 -1.60515 1.18172 0.35124
1687 8.94392 7.0112 4.06721 -0.96132 -1.28695 0.753894
3884 9.94073 7.39588 3.67956 -0.41267 1.72339 -0.189123
3861 10.0368 6.45186 3.38975 -2.32764 -0.0765419 -0.449899
997 11.4141 6.5465 4.16633 -0.70807 0.434458 -3.03279
2443 13.3951 6.0325 3.00589 -0.256583 -0.970696 -1.37612
2833 13.0895 6.91447 4.32158 -0.588718 0.087551 0.413785
2934 12.309 6.78305 3.40716 -0.0542424 -0.690658 -0.309034
2797 11.9924 7.30263 4.46294 1.31613 1.1531 -0.658242
166 13.7741 6.43249 3.87187 0.870984 1.01656 1.20775
3834 14.5008 6.66617 3.10364 -0.232367 -0.1319 -0.344415
3742 14.7521 6.62944 4.42447 0.84074 0.29699 0.0159196
526 16.1832 6.67103 3.74367 0.00730723 0.46682 1.03044
470 15.2938 6.12347 3.66032 0.989693 1.16979 -0.750288
715 17.4693 6.50924 4.05071 -0.415086 -0.347491 1.20664
778 0.936423 8.21421 3.25128 -1.28746 0.549991 2.0504
2521 0.046778 7.56348 4.29346 -0.864299 0.801805 0.932621
2123 0.0180449 8.60018 3.71585 0.455548 -0.234393 -1.11489
210 1.92728 8.62286 3.76308 -0.315138 1.34548 0.595047
673 2.1674 7.904 4.46244 -0.107654 -0.438329 -0.6288
863 2.92829 8.71522 3.22886 0.231174 0.478856 -0.507143
1544 3.94912 8.16787 3.56644 -0.368493 -2.26198 0.118686
3859 3.32591 7.86255 4.32165 0.201767 0.134215 -0.63341
3901 4.96656 7.74429 3.92956 -0.414516 0.805944 -0.413668
1406 4.70842 7.63585 2.9888 -0.762815 -1.62525 -0.53741
3840 5.73235 8.58856 3.58273 -2.77841 0.667271 0.0797165
3963 6.78732 7.96791 4.09283 -0.477414 0.594264 1.71801
2335 6.36594 7.69834 3.07474 1.52522 -0.847389 -1.79418
448 8.6791 8.20087 3.69145 -1.05088 -0.156108 1.49497
1262 7.60826 7.81727 3.13384 0.328175 -0.0318268 0.276858
1752 7.80971 7.82947 4.14845 0.585781 0.895311 0.451762
1045 10.2456 8.60697 3.33464 0.441335 1.0784 -0.595034
1426 11.791 8.83886 3.46835 -0.0782599 -0.639385 0.139845
280 12.4541 8.17062 3.9069 -0.672386 -0.161552 0.443921
3267 13.0392 7.47321 3.33213 -1.8313 -0.881928 0.165371
3661 13.5602 8.42492 3.11279 0.311678 1.06781 -3.28209
3190 13.4577 8.05054 4.29611 -2.18272 0.571224 -0.223678
602 14.0861 7.59104 3.49707 -0.968822 0.860943 1.82354
733 15.388 7.53861 3.73124 -0.981704 0.216008 1.6587
1433 14.9872 8.34359 3.06504 -2.23301 0.904759 0.927812
1131 16.3444 7.79593 4.4168 0.020238 -1.06677 0.700928
2761 16.9796 8.47152 3.07857 -1.48677 0.31011 1.6188
2531 17.4196 7.55385 3.37659 -0.353544 1.12132 0.903195
3619 1.4204 1.40048 5.55785 0.252869 -0.384582 -1.15838
408 1.14887 0.966729 4.5479 -0.108993 -1.23691 -0.315677
2164 0.775232 0.539406 5.61204 0.472033 1.31349 -1.72517
2759 2.15967 0.623567 5.65316 -1.11611 0.743467 -0.0875136
2748 2.70714 1.31804 4.51033 -0.549781 0.774203 -0.779618
901 3.91243 1.41673 5.32716 -0.688409 0.412677 1.06223
2683 3.687 0.331956 5.21805 0.158924 -0.0181526 -0.956028
3388 5.55054 0.57458 4.6797 0.26315 0.137941 -1.20117
2064 4.81823 0.866967 5.60183 -1.10655 0.830685 0.408808
277 6.81334 1.17277 4.88766 0.0951679 0.319251 1.76923
1598 6.99412 0.285727 5.43752 0.208899 0.183071 0.0326003
2837 6.00619 0.998431 5.9161 -0.42904 0.521799 1.30006
2535 7.70741 1.4861 4.52708 0.393427 0.510398 0.404926
2611 8.67333 0.864137 4.93569 -0.0600489 -1.24308 2.42225
2838 7.60247 0.434177 4.58494 1.90746 -0.276946 1.33989
2859 7.91723 0.5232 5.91397 0.736607 -0.954635 0.354453
3718 9.29326 0.160508 5.6657 1.55431 1.4078 0.426827