ITEM: TIMESTEP
68000
ITEM: NUMBER OF ATOMS
4000
ITEM: BOX BOUNDS pp pp pp
0.0000000000000000e+00 1.7878070701931353e+01
0.0000000000000000e+00 1.7878070701931353e+01
0.0000000000000000e+00 1.7878070701931353e+01
ITEM: ATOMS id x y z vx vy vz
431 0.303512 0.972919 0.605326 0.813396 -0.242034 -1.51106
1051 0.815152 0.173575 0.593905 1.30259 -0.385733 1.11458
1968 1.8711 0.643998 0.511157 -0.721175 -1.23886 1.55634
156 3.06122 1.07861 0.240117 -0.487175 -0.551468 1.10969
3363 3.87736 0.691488 0.87763 -0.469193 -0.333877 1.14713
1835 5.40183 0.599567 0.111988 -1.32822 -0.998444 -1.22911
3096 4.9935 1.41802 0.625379 1.14827 0.165309 -2.85555
212 6.47459 0.938996 0.832944 -0.098421 -1.02441 -0.50341
2760 8.57862 0.0345935 0.755391 0.203239 1.46415 1.61249
622 8.19636 1.13734 0.955569 0.172321 -0.183031 0.207811
2730 9.69696 0.425417 0.497023 -0.100877 -0.160956 0.356185
2874 9.25913 1.36176 0.767433 0.673655 -0.109588 -1.24664
2666 11.5754 0.560097 0.662295 -1.40722 1.15593 -0.963093
2270 10.6154 1.03549 0.746335 -0.898254 -0.617369 -0.190248
819 12.9367 1.37921 0.544784 -0.559637 1.08279 1.09307
3033 12.4145 0.475381 1.19466 -2.00319 0.520091 -0.00191705
1771 13.8649 0.735548 0.391821 -0.885405 1.05282 -0.310555
3470 14.6662 1.39793 0.71949 0.0629229 -1.23871 1.87301
2181 14.6575 0.280974 1.2639 -1.10594 -0.56819 -0.557871
2674 15.6745 1.05956 0.840049 0.71143 -1.11016 -0.956699
49 16.6969 0.698845 0.242536 -1.24837 -0.212916 0.776436
2262 17.212 1.47093 0.598624 1.01635 -0.270813 0.428091
2065 17.4199 0.0201212 1.00845 0.420642 1.352 -0.299155
2320 1.11719 1.97094 1.10254 0.45537 -0.564198 -1.33769
2433 1.45943 1.63254 0.0451786 0.0484222 2.38941 0.237314
3721 1.42534 2.66617 0.288103 0.514254 0.859561 -2.12353
2452 0.565865 2.79769 1.17178 -1.11959 -0.826167 -1.2415
3633 0.506023 1.97124 0.128829 1.54277 -0.168473 -0.10204
2191 2.43319 1.89142 0.970197 1.20347 0.535173 -0.625302
2367 2.6677 2.75868 0.364453 0.288794 -1.54969 1.54993
1994 3.57889 1.69594 1.35094 -0.276516 -0.297771 -0.226665
1934 4.10506 2.4666 0.524405 -1.354 0.589633 -0.0489044
464 5.64844 2.30756 0.688378 -0.0504685 0.0896063 -1.3295
2823 7.18767 1.68481 0.521888 0.276014 1.08561 1.05145
1588 6.99697 2.53654 1.1369 -0.567635 0.279564 0.0824994
2465 6.51069 2.44912 0.0520979 -0.617262 0.163235 0.0127281
3173 7.83623 2.56593 0.119845 -0.105367 0.38906 0.989819
2667 8.95989 2.33713 0.476202 0.352106 0.493045 -0.355515
3055 9.81543 2.909 1.03529 -0.491455 -0.73131 0.921011
1149 10.4528 1.80968 0.13872 -0.634993 0.979196 1.07933
3882 10.9424 2.86088 0.359482 2.26757 1.14986 0.587501
2114 11.8584 2.76808 0.891273 -0.415072 0.13583 -0.599808
2154 13.74 1.80807 0.962137 -0.873583 0.303171 0.109196
2032 14.0434 2.84461 1.14467 0.198374 -0.455238 1.28976
1950 14.0642 2.41127 0.147302 -0.864626 0.422291 0.616461
125 15.6117 2.96165 0.896861 -0.0572001 -0.151056 0.497102
3419 15.3541 2.19923 0.25036 0.770665 -1.07815 0.290177
3300 16.2695 1.94909 0.404718 -0.734043 1.43338 0.397279
1931 15.3056 2.03434 1.31798 -0.654604 1.12404 0.00642819
1432 17.3159 2.55551 0.928748 0.13866 -0.506047 -0.449483
3129 1.23533 3.67127 0.427894 -0.79724 -0.447329 0.836188
2723 0.378104 4.09544 0.88019 0.106421 -0.368127 1.24561
232 3.7886 3.77228 0.297489 0.526953 -1.22026 1.8081
3330 4.02518 3.53528 1.312 -2.36266 1.63487 0.337603
3950 5.87014 3.71161 0.817028 0.18252 1.43791 -1.33552
361 4.95273 2.98184 1.3614 -0.966162 -0.245544 0.274204
564 4.86912 3.59556 0.222037 1.11734 0.618048 0.295218
2972 5.12599 4.28208 1.37971 0.562931 0.838274 -1.24026
1961 7.04626 4.36058 0.826502 -0.298897 0.961067 0.158903
2143 7.04414 3.48798 0.190955 1.42039 -0.252478 -0.7738
1820 8.47007 3.39092 0.494709 0.667601 0.947258 0.535657
1217 7.96878 4.23371 1.3067 -0.218785 1.07436 0.499463
3041 7.90123 3.23349 1.36136 0.210094 0.341281 -0.69974
1446 8.91707 3.80144 1.45945 -1.18605 0.252336 0.459688
3515 10.4053 3.95941 0.588577 -0.683067 0.980835 0.123182
3136 9.22777 4.2787 0.590971 0.0662362 0.0663981 -0.188101
3884 11.3637 4.16889 0.133301 2.71719 -0.213931 -0.441925
3976 12.9368 3.18993 0.725033 -0.398132 -0.251936 -1.55752
2331 12.0513 3.68693 1.47251 -1.4059 -0.234107 -0.675395
1388 12.4498 4.17338 0.446327 -0.289296 1.44638 -1.08802
2663 13.8563 3.8212 0.680253 -0.654659 0.37666 -1.74692
687 14.7445 3.25304 0.266449 -0.292407 0.117027 1.09123
2316 16.3741 4.25236 0.882596 -1.29492 -0.702699 -0.130374
683 15.0485 4.20568 0.717281 -0.66882 -0.384641 0.814185
140 17.841 3.29351 0.281222 -0.262117 -0.870827 0.181492
110 16.4901 3.10001 0.233753 0.998693 -0.279925 0.523104
694 1.27995 5.74961 0.106677 -0.232907 -1.98172 -0.0994029
476 0.914308 4.8969 0.610895 0.348261 -0.521768 -0.322654
1271 2.41074 4.66583 1.01553 0.956229 -0.999564 -0.498503
277 1.54215 5.42622 1.15995 -0.0536766 0.581577 0.0660339
86 2.64523 5.68613 0.795597 -1.04989 -0.147237 -1.07455
445 1.76687 4.64614 0.0920547 -0.139755 0.781061 -1.71167
3398 3.72532 4.72165 0.695764 -0.18937 -0.743283 0.429466
1343 4.4584 5.66173 0.853214 -0.868434 -0.327303 0.563471
3809 6.13931 4.81703 1.0829 -1.11909 -0.748772 0.0153485
2029 7.41878 5.38951 1.30428 -1.70136 0.0692398 -1.76227
1038 6.56237 5.68244 0.449031 -0.5641 1.01192 0.827159
1676 7.99396 5.17116 0.222991 -0.00237529 -0.130066 -2.16455
1617 10.3463 5.01657 1.07057 0.022323 0.455805 -0.21206
1974 9.02121 5.25718 0.767968 -0.179109 -0.319466 0.640831
3232 10.7723 5.87562 0.539031 2.07125 0.482546 -0.344319
827 12.1869 5.78318 1.04492 0.42046 -0.891254 0.559749
1731 13.2247 5.38267 0.483668 0.0374583 -0.715211 0.634011
1237 13.9647 4.85037 1.01703 -1.10468 0.881831 0.260528
2142 14.8143 4.99806 0.0355986 1.61835 0.707655 -1.4344
2831 14.1274 5.91097 1.08997 0.686062 2.24118 1.18926
2752 15.3267 5.86067 0.193241 -1.42476 -1.69586 0.254842
1640 15.9382 5.18599 0.815413 0.176909 -0.32942 0.105562
1967 15.0139 5.32581 1.22207 -0.63327 -0.813181 0.225102
2147 17.7504 5.06024 0.926872 0.572383 -1.37367 0.445284
823 16.644 5.12087 1.45937 0.716167 0.0807091 -0.630358
3667 1.47001 6.9307 1.10723 0.599929 -2.24746 0.414123
667 0.715846 6.13097 1.03699 -0.758196 2.03691 0.179618
577 0.0533769 7.21115 0.284034 0.959532 -0.991655 -0.9116
1863 2.38505 7.40928 0.642714 1.09553 -0.195924 0.551842
2624 3.12438 6.44055 0.288073 1.14723 0.433754 -1.00438
1488 2.99166 6.7145 1.38774 0.116109 -0.18872 0.00819487
1813 3.93459 7.09196 0.0463837 -0.558206 -0.363309 0.899022
887 4.55912 6.65747 1.17517 1.29396 0.31417 0.649805
702 5.0289 7.1379 0.184918 0.394313 0.244713 -0.4866
1762 5.72417 6.47549 0.571892 0.127534 0.76287 -0.0164397
1111 6.52429 6.52028 1.24413 -2.24911 1.20541 1.53835
3984 6.05526 7.33259 0.911568 1.2706 0.275633 -0.0851753
1053 7.35297 7.3812 0.898277 0.800957 0.347942 -0.227084
3702 8.60617 7.20649 0.689874 0.805121 0.528883 1.06622
2747 8.14804 6.19808 0.799635 1.23332 -0.616475 2.20439
3851 9.23964 6.50103 0.344522 1.15978 -0.861351 -1.13925
2634 11.0921 6.09449 1.46489 0.531907 2.2893 -0.914085
663 11.1446 6.69551 0.204563 0.253569 1.07191 0.836454
3502 13.1716 6.42416 0.685047 -0.194169 -0.166811 0.418671
3876 12.33 6.88429 1.34317 0.499041 -0.293652 -0.0930107
222 12.2938 6.81056 0.130767 -0.470795 1.01912 1.53201
2518 13.3516 7.23479 0.0170502 1.37891 -1.34148 -1.32999
1025 14.5598 6.90576 1.27116 -2.35255 1.14282 0.422043
3668 15.7959 6.79726 0.00744175 -0.900849 0.5308 -0.6097
2756 15.5737 6.69473 1.14882 -1.1625 0.79633 0.368348
3832 17.5608 6.24011 0.874841 1.53584 0.917058 0.208448
2542 16.8191 6.5477 0.146558 -1.03224 -1.37934 0.00857015
1427 0.92382 8.52403 1.12083 -0.161088 0.981314 0.510441
2783 0.2144 7.70073 1.30227 -0.851033 0.109256 -0.338875
2622 1.27783 7.77635 0.546154 0.548712 1.74157 3.61667
3703 2.13058 8.46166 0.614661 -0.585105 0.45379 0.374568
3405 3.37165 8.91188 0.103293 -0.112899 -2.52756 -0.0462867
1903 3.37927 7.53189 0.942389 0.556854 -1.29585 1.56946
763 4.10625 8.20737 0.512868 1.37185 0.861171 0.427676
3376 3.45655 8.49161 1.43489 0.85069 0.882504 0.778435
429 4.72272 7.70437 1.2061 0.324263 -0.629517 1.52454
1647 5.64518 8.219 0.78009 0.751595 0.258497 -1.16447
671 5.87088 8.87319 1.47582 -1.26241 -0.906588 0.315331
3190 7.28392 8.32106 1.39525 -0.447363 2.50885 -0.145292
3686 7.42527 8.91264 0.541731 2.03854 1.14594 -0.816007
1270 6.73373 8.08096 0.0362556 -0.553787 1.68832 -2.01416
3556 8.23727 8.28491 0.786164 -0.0106069 -0.775207 0.201244
339 10.124 8.86084 1.02081 -0.143716 -1.54002 0.153483
3226 9.99926 7.91346 0.206735 0.705764 -1.23162 -1.78254
1287 11.3956 7.71871 0.580979 1.4336 -1.06937 -2.49292
879 12.0508 8.55924 1.40186 -0.251686 -0.801352 -1.01493
3207 12.806 7.81869 0.833377 -0.804994 -1.21935 1.92791
3666 14.0122 7.58944 0.867358 -0.674754 -0.117855 -1.45329
332 15.3446 8.79321 1.09991 -0.331232 -0.919684 1.11819
318 16.2549 8.64705 0.177519 0.0419097 -0.210704 -0.100604
250 15.3281 7.79609 0.421286 -0.627168 -1.75761 0.518082
1253 17.3432 8.14007 0.549418 -0.97016 -0.0858844 0.0428627
321 16.5482 7.45588 0.576092 -1.30866 1.00997 2.24502
2572 16.5164 8.29802 1.37171 -0.62758 -0.146395 -0.308985
1059 17.5534 8.7083 1.48253 0.0462573 -0.877181 0.338857
1386 1.04532 0.463669 2.80909 -0.222751 1.28376 0.967232
2432 2.82301 0.550375 1.62696 -1.32867 0.997731 0.291934
994 2.71901 1.20032 2.93692 -0.289159 -0.374013 -0.190014
75 1.81475 0.0355484 1.61769 -0.677185 -1.20326 -0.127952
800 1.96396 0.820719 2.37345 1.79641 -1.00704 -0.963154
3624 4.32847 0.447321 1.81515 0.413691 -1.36914 1.26178
371 3.52673 0.706507 2.4389 0.112361 1.2597 -0.485247
2764 5.23539 0.263472 2.93041 0.0946105 -0.106199 0.183583
2155 5.35344 0.893905 1.74101 -0.0438824 -0.0163663 -0.388038
28 4.68165 1.30558 2.7037 0.298006 -0.247424 0.347878
3559 6.98558 1.42807 1.57034 -0.08759 -2.57028 1.4999
378 7.18282 0.314875 1.63723 -1.06303 -1.15484 -0.806174
1694 7.316 1.48365 2.56002 1.31797 -1.03701 -0.728921
3975 6.19378 1.25183 2.96461 0.0062489 -0.413164 1.36212
1791 6.21803 0.480985 2.21255 -0.2511 -0.615926 -0.287496
3263 8.30734 0.304539 1.89518 0.0687298 1.11068 -1.47194
1256 7.62515 0.493548 2.86948 -0.0266863 -0.784215 -0.463341
2402 9.90975 0.164523 2.04642 -0.240662 0.386209 -2.54476
885 9.09848 1.22056 2.53038 1.02385 -0.527092 -0.459997
2105 9.86251 1.3775 1.90377 0.518664 0.494 -0.0231601
3836 11.824 1.20418 2.82342 1.73382 0.498696 -0.208453
3443 11.3712 0.454391 1.92261 -0.571738 1.50193 0.438536
348 11.056 1.41624 1.97102 0.118112 -1.12665 -0.847123
290 10.6218 0.314352 2.96392 -0.902547 -0.77331 -0.246052
690 12.3194 1.47345 1.66082 -0.675185 1.06346 0.324949
1069 12.7175 0.686706 2.2639 1.23122 -1.79361 -0.169408
3777 13.642 0.747423 1.68092 0.227942 -0.153117 1.42604
1555 13.6943 0.355877 2.8005 -0.952077 0.764946 -0.0109994
3842 14.9611 1.08349 2.02224 -0.78198 -0.697671 1.18529
349 16.0302 0.83501 1.75332 0.365558 0.627327 0.92826
1703 15.1463 0.608942 2.97824 -1.0365 -0.170232 -1.06031
1602 17.8317 0.900809 2.82808 0.456703 1.23423 -0.522137
1803 16.8653 1.11134 2.89981 -1.34611 1.8252 0.964099
2445 16.958 0.165068 2.19968 0.987979 -1.55598 -0.0909842
2598 17.783 0.843404 1.68832 -1.0398 1.03433 0.496448
3967 1.32743 1.98246 2.49195 1.34219 0.319714 0.251265
2683 0.516652 2.6563 2.60205 -0.519009 -0.808015 -0.14463
3355 2.75249 1.76251 2.04086 -0.30098 0.733457 0.0886049
1547 2.44471 2.51988 2.77949 0.974898 0.993551 -1.10901
2803 2.88085 2.93262 1.73409 -0.869393 0.53764 -0.865279
2359 1.89237 2.54783 1.81765 -0.570788 -1.57251 1.34755
475 3.71758 1.65964 2.87062 -0.672255 -0.321785 1.66141
395 3.9935 2.57345 1.86878 2.53602 0.425817 1.64218
2051 4.65752 1.72695 1.62793 1.13279 0.441162 0.517941
3724 4.88692 2.4001 2.41011 -0.424575 0.427232 0.794047
1459 6.00863 2.80454 1.73744 -0.606909 1.69125 -0.215459
1124 7.3944 2.59724 2.26415 0.348286 -0.156455 -0.259025
2374 8.03457 2.09685 1.49838 0.353287 -0.184608 2.44217
2852 8.61155 2.91753 2.13504 0.990696 -0.57099 -1.08847
3333 9.07211 2.08064 1.67034 1.28723 0.602099 0.492007
1610 9.99349 1.91801 2.7777 0.456295 -0.95385 -2.14546
2665 9.7982 2.85806 2.12733 0.538718 0.268939 0.681758
400 11.8345 2.60068 2.19165 1.51277 2.17992 0.405576
774 10.5326 2.24399 1.61615 -0.55899 1.36928 -0.343329
2662 13.4024 1.77383 1.99514 1.27336 0.745712 -0.618517
3907 12.4618 2.21517 2.93477 -0.57176 -0.862886 1.37871
3779 12.7784 2.63537 1.64424 0.471346 -0.9396 -1.19884
3201 13.6647 1.55942 2.9787 -0.646573 1.2023 0.0525444
3600 14.4219 2.06963 1.88599 0.0335384 -1.21111 -0.554765
273 14.8208 1.67246 2.83986 0.43689 0.770915 0.634608
91 13.7547 2.81667 2.09337 1.48915 1.18364 -0.592851
354 15.9436 2.79282 1.77944 -1.87314 -2.11457 0.0164259
2345 15.9138 2.0956 2.52732 1.08048 0.856937 -0.513475
847 16.3486 2.97768 2.91655 -0.560982 0.825102 -1.15691
1211 14.9906 2.66489 2.45757 -0.0159262 -0.184616 -0.813544
2708 16.3644 1.84001 1.5073 0.62849 1.92357 0.108874
1172 17.6099 2.22019 1.86212 0.79092 0.399874 0.389983
2069 16.8752 2.93555 1.93762 0.802561 0.0721563 0.965318
3469 17.4571 1.99281 2.9588 0.491402 -0.441931 -0.424411
1690 1.43935 3.37809 2.42196 -0.100461 1.5572 -0.135686
2969 0.251758 3.49014 1.93546 -0.991816 -0.628908 0.845386
2028 1.91166 3.63372 1.51835 -1.26981 -0.061457 -1.87323
331 4.38181 3.3683 2.36788 -0.651017 0.495741 1.5137
2648 3.71494 4.20048 2.28519 1.82847 -0.00951999 0.591258
3911 6.67415 3.6005 1.59503 0.916171 -0.716056 -1.14814
1666 6.57262 3.07081 2.97894 -0.789368 -0.71289 -0.124865
3092 6.30413 4.33953 2.44125 -1.10707 -0.58865 -0.223473
1786 7.13501 4.44833 1.92917 1.32298 -0.257867 -0.716434
2403 8.06804 4.4574 2.40789 -0.353379 -1.04434 -0.634788
3402 7.88884 3.47719 2.77008 1.00142 0.342558 0.82808
1303 10.2571 3.79348 2.64564 0.611769 0.309796 -0.0416679
3857 9.10736 3.6049 2.64012 -0.142347 0.598956 -0.435466
2456 9.87884 4.24406 1.61724 -0.216656 0.71769 0.817566
3145 10.9679 3.14006 2.03513 0.745598 -0.626866 -0.00589475
3762 13.302 3.63101 1.755 -0.438001 -1.64662 -1.70399
859 12.8337 3.6439 2.68453 -0.651793 -0.688217 0.270653
2593 12.3449 4.45675 2.34807 0.421698 0.497117 -0.453747
758 14.3622 4.0107 1.61885 -1.60033 -0.337863 -0.867471
608 13.7666 4.40186 2.31508 -0.95969 1.30172 -1.64826
1096 13.8646 3.55249 2.9034 2.26196 -0.707079 1.07049
337 15.2914 3.56613 1.84487 1.31266 0.400566 -1.16702
3589 14.9077 4.44003 2.31607 -0.0247643 -0.366826 0.334017
2026 17.0752 4.09269 2.16698 -0.0153899 1.15182 0.058841
3154 17.4247 2.98423 2.80761 0.852407 1.36501 -0.0237221
1537 0.795565 4.85534 1.67259 -0.0703485 -1.00868 -0.429067
2563 0.428835 5.51069 2.42036 -0.485212 0.181868 0.945712
651 1.18337 4.47043 2.5266 0.449157 -0.56357 -0.65857
595 2.08633 4.9665 2.08275 0.0625505 -0.227316 0.522775
2138 2.89561 4.98096 2.90897 -0.868446 -0.366711 -0.240936
2302 4.01107 5.58803 1.78858 1.8873 -0.260429 0.137739
1065 3.10082 5.0731 1.79042 -1.26857 1.991 -0.568218
1248 3.35711 5.95388 2.53534 -1.14251 -1.24109 0.365079
2435 5.13562 4.93118 2.42835 -0.544005 -0.550282 -0.854447
3083 6.54484 5.39443 2.03684 1.58296 -0.293967 -2.9786
856 8.59312 5.70144 1.69659 0.938617 1.20228 0.222679
2205 9.45781 5.17227 1.82453 0.558297 -1.18008 -0.19853
2910 9.30702 4.6147 2.8462 -0.140628 0.128322 1.13798
1957 9.97783 5.52666 2.90265 2.10203 -2.07257 0.292892
2833 10.5916 4.97785 2.00882 -0.899223 0.430171 0.157318
1417 11.188 5.21042 2.88571 -0.499777 0.0646046 -0.253597
1131 11.6617 4.8048 1.66845 0.965184 -1.22054 -0.0126092
2841 12.9227 4.79101 1.52607 -0.0340834 -1.87851 1.04518
1953 12.197 5.40552 2.42535 0.527187 -0.610962 1.2492
3545 14.2755 5.67864 2.2238 1.18307 -0.55376 -0.633335
741 15.7804 5.85541 1.69764 0.418586 2.21634 -0.550156
2828 15.9429 4.53515 1.967 0.545203 -0.274606 -0.562267
2979 17.0053 5.08038 2.67504 0.014571 0.657959 -0.320377
423 0.386368 6.9186 2.06456 -1.58119 0.225731 1.34249
2502 1.12749 6.12084 2.02746 0.0379119 0.859456 1.50717
3009 2.09879 6.24144 1.53388 0.192535 1.78107 -1.6384
2078 1.93056 7.01671 2.19064 1.26346 0.974213 -0.241166
681 2.15664 6.09738 2.8262 0.234045 0.102089 0.0149601
3158 4.11077 6.73529 2.32075 2.04564 -0.298505 0.0374672
437 3.33166 7.38548 2.11712 0.684889 0.863812 -0.358589
781 5.09964 7.0376 1.98622 -0.622528 0.767747 0.520932
454 5.35797 6.13803 1.58028 0.935236 -1.05572 -0.543721
130 4.80728 5.97425 2.49069 1.49083 -1.1314 -0.691082
957 6.37079 7.1441 2.18773 2.11051 0.388929 -0.542526
3093 6.0749 6.37386 2.80357 0.17671 -0.193705 -0.98085
3516 7.028 7.02705 2.89924 1.29136 -0.401847 -0.427806
1259 7.11719 6.08017 2.47375 -1.65573 -0.364377 0.0184106
2739 8.87423 7.39918 2.04474 -1.32536 -0.0912515 0.978778
2068 7.86365 7.08917 1.75201 0.546298 1.26261 -0.808365
689 8.11612 6.55423 2.664 -0.958624 -1.16212 0.789736
678 9.06431 6.63814 1.52225 -1.28273 -1.57813 -0.573262
1840 9.9784 6.21473 1.58208 0.0184633 -2.44259 1.03137
3580 10.3581 6.81029 2.38111 0.174766 2.19266 -0.229196
109 9.24991 6.3746 2.65055 -2.14529 -0.441635 0.560466
77 11.6875 6.47575 2.27094 -0.303912 0.408592 -1.10149
623 12.2031 7.4294 2.24163 -0.902039 -0.058288 0.51551
3838 12.8902 6.18599 2.6825 1.43755 1.23379 0.437898
1348 13.6779 6.49093 1.8147 1.55671 -0.197106 0.437315
2054 14.4154 7.40905 2.31681 0.271063 -0.202837 1.60925
930 14.9697 6.60822 2.14397 -0.648805 0.149908 -1.39086
3637 16.0403 6.2099 2.70785 1.62452 0.777365 0.594908
3161 15.959 7.38813 2.83372 0.327852 0.0983542 0.656889
1198 17.3481 6.45438 2.29157 0.50148 -0.93035 0.738473
3107 16.4711 6.95924 2.06376 1.76535 -0.461163 1.07964
1770 0.251538 7.59787 2.7192 0.123486 0.635276 0.55524
483 1.04385 7.87093 2.094 -1.15052 0.901897 0.546315
2596 2.58129 8.7913 1.76175 0.0889355 -0.466759 1.4058
787 2.52916 7.7567 1.56461 -1.77622 -0.474809 0.740575
2613 3.33818 8.45991 2.41862 -0.350604 -0.137468 0.0701538
307 4.43308 7.78846 2.4758 -0.737806 -1.61075 0.000841627
929 5.63407 7.73388 2.57484 -1.1343 0.38792 -0.898278
1626 4.54412 8.61804 1.69869 0.123728 0.372043 -0.684997
3971 5.43225 8.6743 2.35998 0.130511 0.570763 0.646919
3694 6.63675 8.23456 2.62572 0.02798 -0.0710912 0.693055
1440 6.32933 7.99721 1.60429 -1.34205 0.687059 -0.0579581
89 8.75426 8.43228 1.92545 -0.0335415 0.249623 -0.0472202
633 7.77182 7.81984 2.52489 -0.075007 0.519847 1.10856
2404 9.86703 7.7683 1.50572 -0.543412 -1.32575 0.915272
3137 9.49194 8.06551 2.57777 -2.16165 -0.546189 -0.216306
441 10.6702 8.11053 2.85618 0.0458378 -0.131239 1.37572
2553 11.2179 8.59329 1.96781 -0.0774095 -0.854009 0.389655
442 13.2839 7.46863 1.78268 -0.0724806 0.658635 -0.326773
1451 13.2684 8.59525 1.71496 0.229032 1.48151 -1.13625
1808 14.7552 8.10809 1.64703 -0.439528 -0.0342919 0.310454
928 13.6598 8.14642 2.65827 2.18524 2.2075 -0.716593
385 15.9597 8.59501 2.67423 0.853145 -0.383173 0.543876
1827 15.7268 7.72012 1.70554 0.802927 0.24938 -1.33765
3498 14.9818 8.14147 2.89115 -0.822581 1.55689 0.243108
2847 17.2164 7.61304 1.78931 -1.41606 -0.080962 0.862291
1409 17.7068 8.64155 2.61513 -0.378235 1.75129 -1.04447
2751 0.60682 0.578625 4.15043 0.0326783 -0.274581 -0.638793
196 1.79573 0.626373 4.00619 -4.16449 -0.388998 -2.42684
2640 1.73333 1.45941 3.4443 -1.63252 -1.83608 0.78701
1361 2.76177 1.17827 4.09357 0.222765 0.724492 -0.70067
1589 3.68699 1.46549 3.84575 -0.347106 0.0626365 -1.13669
1972 4.17219 0.595228 3.33007 -1.173 -3.17888 0.0170396
3265 3.62032 0.51926 4.3701 0.27591 0.749296 -0.937532
792 2.99322 0.353526 3.49473 -0.0315417 -0.0352158 -0.949874
2073 5.18333 0.0908743 4.07302 -1.03514 1.43343 -0.198399
381 5.28857 1.2671 3.72778 0.822849 0.488623 -1.39873
256 7.23497 1.27603 3.74363 0.957733 0.105351 0.211996
2180 6.31696 0.702892 3.8965 -0.697901 0.0678101 -0.780301
1150 8.41732 1.1975 3.44551 -1.47557 1.40099 0.498326
3477 8.11754 0.383195 3.98293 -0.0626613 -0.412739 0.690458
447 9.9023 1.09724 4.06794 0.800501 -0.626759 0.606876
411 9.36072 0.408805 3.23761 2.32484 -0.0118145 1.8403
2221 10.6333 1.24973 3.19836 -1.06079 -0.547625 1.70268
1285 11.8776 0.298946 3.72478 0.0769722 -0.322516 0.202416
2134 10.8534 1.26659 4.30009 -1.41493 -0.561346 -0.0635165
3805 10.6616 0.243472 4.07758 0.209238 0.177214 0.418777
1539 13.1604 0.636982 4.20258 2.44544 0.489566 1.62261
1480 12.7307 1.467 3.49209 -0.707457 -0.202936 -0.262661
2551 14.144 0.72223 3.81702 0.369501 0.042541 -1.26749
2657 15.0609 0.139961 4.00141 1.22 -1.80022 -2.27478
3151 16.0861 1.23479 3.76447 1.27218 0.296103 -0.916219
3939 14.9952 1.39485 4.21566 0.539071 -0.106278 1.64601
3485 17.3385 1.2874 3.94739 -1.19872 -0.362592 -0.0401032
3625 16.5747 0.328246 3.5567 0.179519 -0.0162674 0.238553
3839 17.6199 0.333315 3.74227 -2.9847 0.567911 0.784125
3740 0.809648 2.02123 4.37816 0.708062 0.254576 0.547546
1213 0.530221 1.60639 3.20094 -0.85959 -1.09752 0.171993
3160 2.70992 2.04799 3.62792 0.449453 -0.225862 1.71751
2233 1.71192 2.77337 3.45625 1.63281 0.987732 0.72007
1310 3.59951 2.82126 3.21342 -0.134776 1.22443 -0.752847
3025 4.4364 2.13641 3.34082 0.400751 1.79262 -0.0657883
1394 5.68846 2.68029 3.85732 -0.101014 0.235294 2.5533
1418 6.54505 2.11958 3.37166 0.786861 -0.640784 0.564304
3130 6.72051 2.88632 4.2102 -0.710049 -0.0251416 -0.558733
2173 7.53821 2.47705 3.49284 0.939081 0.849887 0.0631838
2200 8.48875 2.65322 3.33917 -0.711736 -0.344788 -0.539566
166 8.30379 2.02332 4.3091 0.311007 0.396908 -1.10147
2995 10.3411 2.34 3.83649 -0.346762 -0.251891 -0.513903
1376 9.71649 2.9563 3.27415 -0.323836 1.59206 -0.0109275
114 9.06032 2.80062 4.25812 -0.343364 0.143041 1.31678
3710 9.33002 1.87825 3.70597 -0.654343 -0.0476882 -0.106924
177 11.3924 2.34254 4.1041 -0.558927 0.293518 1.43449
2189 11.328 2.02586 2.98327 0.157018 0.400945 1.022
790 12.8582 2.54565 4.0458 1.52037 0.513505 -0.330663
2784 14.2272 2.51397 3.0346 0.67209 1.05101 -0.119678
773 13.753 1.73703 4.02565 0.324837 0.791851 1.50325
585 15.272 2.25551 3.53595 -0.450476 -0.938525 0.833631
869 16.4746 2.16012 3.91848 -0.750627 0.581673 1.39004
3673 17.8589 2.49437 3.80709 -0.522479 -0.185779 1.57588
2838 1.02237 3.03294 4.36477 0.924553 0.500079 -0.426678
589 0.704378 3.71113 3.73555 -0.325834 -1.32443 0.0452048
1014 1.86718 4.10771 3.37647 0.244359 -1.20889 -0.708967
529 2.77282 3.2212 4.02692 -0.378939 -2.44428 0.889661
3782 1.82743 3.84821 4.32898 0.784608 0.528512 0.886299
465 3.03623 3.91104 3.14367 0.0660062 -0.884839 1.01771
979 4.0987 4.14985 3.30687 -0.366721 0.71066 -1.1888
2629 5.06183 4.18912 3.18962 0.363443 -0.41389 0.322926
567 4.56769 3.33959 3.59699 -0.63443 -1.77695 0.640752
2384 5.07662 4.00095 4.25132 1.6196 1.00929 -0.349188
3656 6.03276 3.7945 3.71997 -0.352903 0.932987 1.48783
27 7.3784 3.83591 3.74906 0.622427 0.558698 2.55239
3569 8.06321 3.20427 4.35436 -0.669191 0.407952 1.06917
3835 8.26395 4.45871 3.46562 0.677577 0.124586 0.302938
3820 8.77849 3.64943 3.68989 -0.669549 -0.0349333 0.226335
2793 9.8409 3.73677 4.14988 0.247526 0.532324 -1.03194
15 10.222 4.43721 3.40075 0.0241797 -0.507379 -1.31735
3638 11.3246 4.03717 3.16974 1.29625 0.180088 -0.556396
1289 10.9408 3.05331 3.09498 0.383848 -0.713567 -1.01594
2060 11.021 3.56971 3.94385 0.0850456 1.52129 0.870273
2956 12.2031 3.44284 3.61615 0.391948 -0.643319 -1.70905
3086 13.3134 4.11234 3.64562 -0.378185 0.371318 -0.648787
116 13.9503 3.13139 3.84532 -2.26197 -0.582869 -0.329932
2080 14.6721 3.86737 3.96393 -0.256212 0.110186 0.946799
1725 16.2319 4.09116 3.40287 -1.04285 0.771405 0.841454
3098 15.2374 3.62833 3.04467 0.520311 -0.665233 0.55666
72 16.8158 3.08456 4.08775 -0.962487 1.72268 -0.107899
635 17.5622 3.80245 3.76148 -0.298668 0.300203 -0.477818
1093 0.285996 4.56718 3.13543 -0.978917 1.56314 -1.05238
1158 0.971118 4.8197 3.90704 0.696871 -0.988964 0.562237
3213 2.06008 4.8737 4.15386 0.750468 -1.53502 1.01087
786 3.13205 5.04118 3.96969 1.09769 0.0780919 0.667609
2806 3.99668 5.24385 3.13353 -0.427527 0.776951 -0.471002
3326 4.65609 5.00904 3.89723 -0.579074 -0.45772 -1.2811
2272 5.7345 5.03609 3.55036 0.681495 1.56022 0.423533
1781 7.01127 4.85969 3.14252 -1.86146 -0.79472 -0.842817
810 7.39144 5.03779 4.09434 -0.425175 1.13526 -0.361257
2291 8.92694 5.77821 3.71304 0.190006 -0.704101 1.34004
2866 7.92276 5.40732 3.00826 -2.40086 0.788349 -0.142166
1200 9.89774 4.79323 4.46894 0.755094 1.35013 1.3225
1170 10.8701 5.01097 4.07007 1.94951 1.72836 -0.666248
3234 13.0925 5.14887 3.00425 0.0352722 -0.379809 -0.985619
2842 12.6112 5.75166 3.70838 -0.963217 -1.12152 -0.651996
2636 11.9689 4.81227 3.67193 0.99339 1.20195 -0.151899
1922 13.6732 5.42621 3.99779 -0.123303 -0.749627 -0.321269
436 14.1952 4.98607 3.18987 1.15963 -2.45234 -1.68253
2201 14.8836 5.71629 3.14453 -0.907975 -1.0459 1.61392
677 14.7223 5.18678 4.12442 1.04492 0.716892 -0.663065
600 15.1829 4.70224 3.34345 0.509588 -1.45261 -0.146049
1636 15.8365 4.5563 4.31187 0.251578 1.17675 1.42944
2881 15.5455 5.72861 4.43106 -1.08572 -0.462298 0.277076
342 15.9393 5.33816 3.45456 -0.000719615 0.274147 -1.37454
153 17.6489 5.38556 3.48605 -0.0416643 -0.410345 -2.2941
1659 16.9299 5.45864 4.23155 -0.132116 0.508639 -0.888257
2813 1.21996 7.32649 3.36684 -2.11451 0.338663 -0.812246
1457 0.237339 6.4022 3.0009 -1.30583 0.351051 1.53138
3322 2.76313 6.00575 4.34111 -1.56155 -0.941228 0.0691618
2510 1.90711 6.58113 3.7451 -0.366513 0.156591 0.769219
247 4.29291 6.03129 3.70481 0.0367586 0.108148 0.262552
3690 3.30835 7.06547 3.2075 -1.04246 1.42756 -1.46646
3418 4.46521 7.43229 3.80357 1.84788 0.959645 -0.0607553
382 5.33474 6.00284 3.96322 -0.383516 0.756787 1.54431
1674 5.15322 6.90412 3.21122 -0.725292 -1.35286 -0.0506601
1698 7.22787 5.97827 3.60535 -0.208866 -0.092661 1.35826
1113 7.19465 7.18623 4.1679 -0.777113 -1.22813 2.21015
1290 6.31654 6.41608 4.10554 -0.473511 -0.518442 0.363953
722 8.1095 6.61287 3.68609 -0.313724 1.62084 -0.252497
1885 8.03748 6.02169 4.45774 -0.368579 0.474263 0.629214
2944 8.23028 7.38492 4.34917 0.854272 0.164303 0.280539
1276 9.88369 6.78602 3.33551 -1.49668 -0.879697 1.64818
3217 8.96756 7.34074 3.22355 0.242328 1.91397 -2.36477
789 10.3417 7.36264 4.4281 1.30239 1.69117 -1.1281
2186 9.04382 6.69174 4.15661 0.778515 -1.79766 0.250097
742 11.551 6.67102 3.934 -0.155594 0.162231 -0.057256
768 10.5896 5.9653 3.65973 0.891203 0.693878 0.684238
2237 12.9101 7.29402 3.18151 -0.410438 0.219748 -0.40516
3840 13.3501 7.28818 4.10159 -0.0671332 0.963315 -0.600107
1279 14.882 7.30146 3.41072 -0.738839 -0.700536 0.44044
3752 15.992 6.46912 3.71561 -1.79412 -0.477581 0.265637
135 17.1314 6.67851 3.27397 0.507587 -1.21972 0.500949
3720 17.8629 6.46611 4.07089 -0.873102 2.62527 1.15166
538 0.822457 8.67338 3.06852 -0.290628 2.47018 -0.133536
2313 0.489374 7.79453 3.97766 0.446473 1.39788 1.71833
1907 2.39853 7.70895 3.38692 -0.40811 1.4375 0.239973
2889 1.68013 8.40979 3.62152 0.516179 -2.07512 0.499997
1368 2.16911 7.93991 4.45416 2.71453 0.383414 -0.296147
1244 2.81579 8.80722 3.32266 1.52225 0.250155 -1.01206
3560 3.60082 7.99318 3.38823 0.892228 -0.977053 -1.35227
2084 3.37237 8.6567 4.20242 -1.36063 1.47435 -0.540059
2503 3.34511 7.60295 4.2384 0.427859 1.35941 0.741945
3917 4.5941 8.43605 3.23464 -0.431428 0.36189 1.29793
2441 4.58433 8.85094 4.33683 0.383458 1.94041 0.214335
3325 5.53477 8.37153 3.75961 1.69115 -0.488013 -1.32958
771 6.59699 8.0732 3.67747 0.309969 0.00661933 -2.68053
3233 7.6413 8.23698 3.43911 1.64325 -1.05374 1.02727
3294 8.11861 8.747 4.42658 -1.31909 0.782849 0.112399
3064 8.53169 8.67482 3.35969 -1.23342 -0.433811 -0.663131
428 9.75221 8.07469 3.58611 1.76017 0.0972287 -0.421324
95 11.7974 8.40267 3.80166 0.181766 0.556549 0.150572
3852 10.9602 8.39518 4.3965 -1.11905 0.147073 0.191372
1251 10.943 7.52917 3.59207 0.726541 0.703018 -0.0469137
2769 13.2076 8.52917 3.68703 -0.509643 1.31542 -2.18103
922 12.5045 7.88985 4.4408 1.42991 -1.09045 -0.0743119
806 14.0189 8.09135 4.26901 -0.344033 -0.207763 1.26371
320 16.3419 7.73473 3.89011 0.531434 -0.462008 -0.395499
3738 17.3118 7.47175 4.05823 -0.537611 -0.654774 -0.948352
3765 16.975 7.97378 3.11024 -1.35499 -0.158822 -0.876093
1122 16.9765 8.64619 4.01143 0.156991 -2.00997 0.0757443
3578 1.15705 0.134057 5.8793 0.295364 -0.726356 0.836219
2637 1.41301 1.14821 5.90948 -1.50903 -0.901303 2.25672
2953 0.276126 1.0065 5.24111 -0.00724765 0.269096 2.1431
3860 1.87777 0.66528 5.03219 -1.494 1.9608 1.00359
1761 2.75107 1.38039 5.32569 -1.61878 -0.189594 -1.55815
3289 4.46552 0.969256 4.5368 -1.03749 1.02206 -0.0118616
2343 3.67712 0.727711 5.63218 -2.51603 1.74582 -0.902548
3886 4.69341 0.471015 5.92649 -1.21499 -0.211775 0.159318
311 6.99222 0.087424 4.52923 0.176336 -1.36318 -0.595779
350 6.30361 0.693749 5.42734 0.550529 -0.5475 0.0623914
607 7.17466 1.09321 5.02417 -0.378516 -0.67844 0.98032
3428 7.19733 0.464175 5.90703 -0.938453 -0.727527 0.966736
1506 7.95333 0.0125775 5.47978 0.277597 -0.775744 0.765048
3208 9.27721 0.231314 5.62503 -1.20283 -1.36526 1.89966
179 9.0434 0.89461 4.78567 -0.701835 1.23491 1.0253
851 10.1519 1.11068 5.20619 -0.0177482 0.049371 -0.512587
2397 11.1217 0.558094 5.23974 -0.220976 -1.37694 0.377871
1604 12.184 0.40599 4.94427 0.850292 0.560917 2.3547
2469 12.9499 1.39475 4.93348 -0.434053 1.68162 0.203161
931 13.2122 0.199676 5.1157 0.416239 -0.286007 -1.66946
949 14.0592 1.23828 4.87674 -0.824076 -0.736518 0.68606
3996 14.3701 0.678754 5.65744 -1.26923 -1.49531 0.575542
24 16.3587 1.37412 4.98168 -2.42657 0.333915 0.392603
3480 15.3797 0.387466 5.80885 1.36587 0.2851 0.516951
2610 15.4012 1.48421 5.55203 -0.361686 -1.62721 0.730246
1007 16.3481 0.376602 5.21826 0.292625 -0.304186 0.651713
3351 17.2187 0.67843 4.71152 0.440111 1.53089 1.44352
283 0.962979 1.99726 5.41008 -0.503226 1.97796 -0.161117
239 2.12093 2.19675 4.65314 -1.22732 0.683844 0.00281174
576 1.8145 2.58404 5.57084 0.0383169 -1.05255 -0.575647
3664 3.76993 1.68394 4.95833 0.979316 -0.12259 -0.211905
2463 3.04631 2.47533 5.17617 0.874044 0.303296 1.38281
363 3.89773 2.46991 5.68934 -0.0514992 -0.026142 -0.450891
1373 4.52943 2.49395 4.70109 -0.296436 -1.59736 0.154515
132 5.46442 1.90817 4.64143 0.113838 -0.0166271 -0.214274
3036 4.61138 1.63672 5.74558 0.504639 1.76448 1.5862
1262 5.03454 2.51061 5.51557 -0.137011 0.472042 -0.00389844