ITEM: TIMESTEP
64000
ITEM: NUMBER OF ATOMS
4000
ITEM: BOX BOUNDS pp pp pp
0.0000000000000000e+00 1.7878070701931353e+01
0.0000000000000000e+00 1.7878070701931353e+01
0.0000000000000000e+00 1.7878070701931353e+01
ITEM: ATOMS id x y z vx vy vz
2500 0.682944 1.17176 0.896832 0.823387 -1.2392 0.587082
75 1.46177 0.320127 1.14838 -0.0710263 0.450134 0.3848
446 2.51479 0.161387 1.01334 -1.27855 0.844155 -0.282705
2537 1.99064 1.1324 0.702445 1.29175 2.71621 -1.2318
2320 3.9417 0.446178 1.19996 -0.847572 -2.63877 -0.470648
2191 3.02563 1.20085 0.981831 1.7677 1.24903 -0.918913
3641 3.77441 0.882729 0.223405 1.1438 -0.422924 -0.0523425
1946 4.83078 0.407323 0.740971 -0.287657 0.213973 1.89806
10 5.81968 1.09889 0.482591 0.136749 0.167615 -0.528626
1934 5.54222 0.802249 1.46494 -0.715089 -0.172583 0.941863
2809 5.74614 0.0639634 0.648522 -0.806855 -0.60276 -0.343818
2232 7.08152 0.666518 0.444517 -1.0069 -0.921134 0.245996
902 8.10417 1.09191 0.701095 -0.745076 0.217169 0.530849
1207 8.92182 0.349965 1.09365 -0.282427 -0.861343 0.701532
2155 9.57918 1.12628 0.461499 0.198975 0.702747 -0.105758
411 10.027 0.324985 1.00292 -1.96729 0.451581 -0.180475
3208 10.9653 0.735597 0.264157 -0.0504746 -0.0915955 0.774259
3283 11.0104 0.685439 1.397 2.00512 1.50312 -0.21924
1771 12.9923 1.27264 0.0472613 -2.62829 1.75206 -0.63879
2628 12.1412 1.06117 0.723304 -0.218151 0.981819 0.511624
3419 13.1736 0.468853 1.15991 1.43952 -0.631343 -0.0740157
3633 13.8194 1.33975 1.16501 -0.353102 0.253968 1.39632
1658 14.7484 0.133274 0.127644 1.57681 0.563206 0.750961
2674 13.5276 0.298131 0.119957 -0.83993 0.968568 0.457026
2407 15.361 1.1251 0.365771 -0.789759 -2.67136 1.45235
3697 16.2552 0.762744 1.16951 1.5859 -0.58165 -0.959599
3879 15.6848 0.0361927 0.729537 -2.33099 0.837738 0.0797648
354 14.9405 0.709822 1.18067 1.23144 1.35259 -1.02641
3361 16.7595 1.21752 0.322477 -1.07828 0.336827 0.3234
156 17.498 1.15533 1.05558 0.312921 0.278773 -1.43633
951 17.6288 0.526629 0.222357 -0.545684 -1.38415 -0.795887
3547 0.199109 2.1084 1.0076 1.49635 1.9695 -1.4276
880 1.20507 1.82299 0.00247967 -0.206896 -0.211099 0.0724812
1452 1.19558 1.96278 1.29394 -0.295706 -1.06259 1.24033
2751 0.711901 2.9017 1.43303 -0.039272 1.15074 0.0733172
1985 0.882781 2.9373 0.268759 -0.758248 0.361836 -1.24276
805 1.96776 2.35111 0.579302 1.24973 -0.822875 1.30709
43 2.82553 2.84108 0.859225 -0.112087 -1.61979 -1.3615
1273 2.72219 1.77115 0.10055 -0.710568 -0.818146 1.13512
2816 3.81478 2.05509 0.804538 -0.460882 0.155372 0.864934
2278 5.34668 2.18065 0.7402 -0.242943 -0.668859 -0.404704
3688 4.7638 2.80995 0.0672498 -0.666685 -0.823818 -0.439486
378 6.59232 1.74854 0.79972 1.09602 -0.678077 -0.274746
182 8.3397 2.14058 0.358882 0.723371 -0.204717 -0.896614
810 8.05352 2.35033 1.38258 0.540081 0.41841 1.15976
3289 8.97958 1.61836 1.20311 -0.119419 0.464565 0.716928
57 10.1026 1.57222 1.31224 -0.234529 -2.82908 -0.656465
400 9.46409 2.37901 0.512678 0.0309123 0.481936 -0.791298
3779 11.5178 1.66034 0.310415 -1.73577 -0.236712 -0.281538
1131 11.8256 2.91754 0.832507 0.0788665 -0.569339 -0.0989244
554 11.9111 1.99226 1.36187 1.13827 0.487332 -0.200256
177 10.9632 2.46249 0.890673 -1.30425 -0.944097 0.835323
1394 10.4906 1.98691 0.0387284 -0.942482 -0.267142 1.20024
2841 12.9792 2.19691 1.13434 -0.694971 0.15327 2.9308
1559 14.7672 2.04682 0.690745 -0.194735 -1.02141 0.623938
3877 13.787 2.38333 0.303395 0.643744 0.244763 -0.237459
741 15.4382 2.86751 1.17363 1.63145 -0.0827624 -0.589977
1393 15.9784 1.85212 0.739156 -0.779536 -0.942223 -0.821433
2870 15.4329 2.45539 0.0793587 0.155505 0.314006 -0.606582
49 16.5199 2.38141 0.067219 -1.10498 -1.75172 -0.336328
3230 17.1108 2.17258 1.35884 -1.44687 -2.32417 -1.75666
3405 1.00967 4.08344 0.834317 0.141893 -0.419676 0.384191
804 1.84107 3.46367 0.449644 -0.701696 0.244768 -1.44321
1310 2.03452 3.78448 1.43599 0.904922 -0.830743 0.628463
1014 3.86545 4.0504 1.28262 -3.04251 0.756133 -0.348746
2061 3.23294 4.09711 0.426338 0.724499 2.3258 -0.739235
792 4.42257 4.03198 0.0244338 0.792861 1.10298 -0.919061
1172 3.87565 3.11637 0.687389 0.142865 0.284174 0.229405
957 5.05862 4.2661 1.13129 0.943767 -0.614491 -0.212714
2791 5.55227 3.2334 1.3514 -0.816502 -1.08801 0.394999
218 7.34567 3.94803 0.0815306 -1.33342 -0.523874 0.0436443
2972 6.41264 4.34793 0.797178 -1.19878 -0.338839 0.569954
2051 6.57015 3.16052 0.468242 -1.71108 -0.498456 0.99489
3724 7.35578 3.73131 1.1379 1.14429 1.73016 -1.7085
3950 7.58368 3.01736 0.295278 -0.48822 1.67897 1.08657
774 8.44658 4.07316 0.892779 -0.150371 -0.384652 0.262548
1343 8.67737 2.98495 0.903465 -0.0720204 0.501306 0.43801
3330 10.0326 3.2897 0.337639 0.0305591 1.1887 -1.25028
1417 9.45126 4.25054 0.263698 0.325788 -1.39517 -0.480951
387 11.8341 4.05521 0.938203 0.997856 0.194676 2.70917
166 10.5228 3.46662 1.22768 -0.692689 0.792252 -0.24211
249 11.027 3.75904 0.169347 0.378541 -0.368149 -1.7304
952 12.8861 3.39892 0.793602 0.97198 1.77844 0.108025
2008 14.175 3.2729 0.667349 0.372232 -0.152847 1.12024
683 13.7842 4.25946 0.443645 -0.390089 0.853278 -0.799338
1279 14.4965 4.04079 1.35169 -1.41048 -0.468431 -0.921741
3132 15.1511 3.45577 0.307427 0.705599 -0.125678 -2.4775
3751 16.205 3.37837 0.662416 0.0959104 -1.01058 0.113831
2367 17.0977 3.93719 1.1594 0.724725 -0.0228308 1.14044
1031 17.8674 4.20417 0.528893 -0.966903 0.240963 -0.762372
1564 17.0706 3.5372 0.0138498 -1.62316 -0.277557 0.0721896
2026 17.7072 3.07306 0.829086 -1.96278 -0.232647 0.665548
3721 0.101119 5.57277 0.787893 0.490255 -0.923448 -0.652372
2847 0.959143 5.47377 0.0187397 -1.24547 -0.534634 -0.595304
3940 2.7337 4.70007 1.29122 0.211248 -1.02676 1.53183
787 2.33126 5.84502 0.262017 -0.915868 0.224337 -0.683496
3607 1.60657 5.24473 1.10336 -1.35587 -1.37928 1.85945
3324 2.04513 4.57679 0.375775 1.83936 1.81598 -0.0804465
1093 3.00019 5.72351 1.46082 0.294111 -0.172098 0.319601
3967 4.14869 4.98932 0.701528 0.285824 -0.313922 -0.0698177
1856 3.23077 5.67879 0.50165 -0.473892 1.63685 0.875878
2962 5.22454 5.2068 0.298937 -0.304004 1.03831 1.1996
1000 5.64385 5.18751 1.33777 0.241011 2.82503 -0.947217
3048 6.67495 5.49598 1.28032 0.0651546 -0.00924418 0.449269
3809 7.62018 4.92322 0.813333 0.842658 -0.514727 -0.509145
1459 8.27332 5.90931 1.01511 -1.45903 -2.65914 0.767931
1287 10.3778 5.542 0.772621 0.0385108 0.277655 -1.24778
234 9.18122 5.21815 0.93954 0.456646 1.03646 -1.04784
3092 11.1411 4.81693 1.14185 -1.7726 0.00762373 -0.198971
1348 12.11 5.22858 0.204418 0.728477 0.767285 0.577326
3976 13.0167 4.72277 0.0529157 0.66376 -2.40395 0.985247
1997 13.0584 5.83281 0.545373 1.35106 -0.849484 1.00981
3876 13.5037 5.13053 1.40891 -2.34364 0.502347 0.0589602
758 14.8669 5.01639 1.22657 -0.277267 0.657862 0.404193
663 14.0597 5.90723 0.251109 0.961628 -0.75646 -0.417341
1514 14.2029 5.76286 1.28449 -1.60057 0.83648 0.43512
1814 15.9955 5.50315 0.706106 -0.258907 -0.571544 0.722748
1115 15.519 4.4775 0.46493 -0.361388 -0.141818 1.58428
3129 16.5144 4.54863 0.482214 0.177054 -2.62606 -1.4791
1432 17.0683 5.15438 1.15292 -0.264652 -1.48505 -1.13326
577 0.927988 6.4282 0.707964 -0.767893 0.193283 -0.609452
1368 0.352725 7.44842 1.30914 -0.482471 1.49945 1.92992
3336 2.88501 6.70444 0.912548 -1.62006 -0.0275053 -0.681096
3431 1.75702 6.80789 0.299153 1.44788 0.338611 -0.00268248
1038 4.24797 5.98109 0.177536 -0.210143 0.0862975 -1.0141
1120 3.81111 6.18654 1.1354 0.379513 -2.7025 0.311459
3374 3.78688 7.23339 1.12614 1.75067 0.65156 -1.1421
1781 5.86976 6.11589 0.34699 -0.772507 0.215568 -0.755258
2465 5.57888 6.52086 1.43752 0.332867 1.19562 0.599814
130 5.62258 7.17573 0.443719 1.60033 -0.3338 -0.772922
1053 4.874 6.04256 0.922186 -1.13249 -0.335696 0.660489
295 4.94095 7.42471 1.18974 -0.633622 -0.873344 0.552166
701 4.50838 7.03157 0.17364 1.24515 1.12965 0.425998
2716 7.16918 6.28992 0.81283 -0.853278 0.840439 -0.0498108
3694 6.66918 7.41574 0.104938 0.613703 1.25915 0.282939
2029 7.82971 7.00148 0.724291 -0.548968 -1.05103 0.204711
1418 8.68038 6.86049 1.37001 -0.227865 -0.934292 0.495
2747 7.95613 6.14241 0.0258525 -1.13303 -1.09531 0.892183
1920 9.34216 6.26074 0.791468 -1.01389 0.656838 -0.237729
280 9.55586 7.41142 0.323524 0.19562 0.628775 0.442129
881 10.7822 6.92854 0.500721 0.105855 0.312266 -0.797756
211 11.0338 6.17761 1.32026 0.531815 -0.71969 -0.725303
1930 13.297 7.43695 0.487487 -0.536284 -0.429594 0.215892
2126 12.122 6.35809 0.569816 -0.879829 0.204474 0.0682351
3461 13.6951 6.64712 1.1129 0.43874 0.580435 -1.45572
2163 14.9321 7.03028 0.635054 0.131173 0.838577 -0.585458
1321 15.3038 6.20579 1.26764 -0.679773 0.152014 -0.980332
2389 15.9444 6.7018 0.278024 -0.246708 -1.3908 -1.11577
423 16.7738 6.30813 0.845016 -0.232499 -1.36066 1.49466
3934 0.78389 8.52067 1.46268 -1.35907 -1.18231 0.15915
459 0.83586 7.66877 0.213956 0.891639 -0.488702 0.664374
3337 2.56617 8.6523 0.807124 -1.98254 -1.78588 -0.0869325
3798 1.5522 7.6507 0.953439 -1.25047 0.832136 1.67791
2622 1.49624 8.42757 0.202983 1.47667 0.907109 -0.527414
3376 3.17708 7.66079 0.422262 -1.27823 1.93264 1.20424
1395 4.14361 8.05166 0.514093 0.244771 -0.012929 -0.598345
3211 5.05868 8.32984 0.12773 1.29863 0.238956 -0.302617
210 6.78768 8.83896 0.986084 -0.0855408 -0.208334 -1.17082
1813 6.03909 8.21557 0.173721 -0.326312 -0.842276 0.269968
3063 7.03614 7.65409 1.33672 -0.0501917 -0.434343 0.706866
1657 8.76351 7.80446 0.99942 -2.09608 -1.21055 1.34118
633 8.64627 8.89345 0.160167 -0.394041 -0.599012 -0.111827
2954 8.04498 8.90019 1.0631 -1.45188 -1.9985 -0.684936
892 7.62642 7.9701 0.265511 -0.990363 -0.362922 1.0302
1342 9.71652 7.53241 1.42109 0.41344 -0.40715 -1.0768
856 10.0005 8.30044 0.69421 -0.770643 -0.484305 -1.24026
3454 10.9502 7.93017 1.15907 0.0979255 -0.424138 -1.67353
2245 11.3156 8.09206 0.215828 0.598907 -0.902648 -0.440428
768 11.7125 8.833 0.888109 -0.452908 1.25923 0.784362
95 12.521 8.27689 0.89019 0.634886 -0.81351 1.65965
1241 11.943 7.48969 0.587616 0.101439 -0.605985 0.412123
3409 13.6776 8.76031 0.637972 0.196851 -0.493664 -0.184013
2752 14.2818 7.92398 0.912904 -0.282744 -0.295295 0.270427
110 15.7276 7.96403 0.133767 0.667521 -0.554623 -0.159445
1157 14.9552 8.70259 0.745511 0.496382 0.396571 -0.34221
1122 15.9873 7.97285 1.39906 -0.226875 -0.62707 0.269121
1567 16.6493 8.73132 0.706637 0.691675 1.44537 0.908462
2998 17.7699 8.32599 0.813351 0.853926 -0.900671 0.513947
1488 16.7842 7.55677 0.687496 -0.669597 -0.489388 0.47018
3300 0.331221 0.621194 1.80237 0.493983 0.555939 -0.334423
714 1.22094 1.21053 2.12155 0.331064 -0.767378 -0.379344
3175 2.66572 0.536932 2.76589 -1.46808 -0.704422 1.84234
2433 2.21055 0.813571 1.80348 -2.38221 -0.279722 2.25784
2432 3.37698 0.119142 2.05543 -0.784293 0.417675 -1.37601
331 4.25898 1.41783 2.78882 1.31248 0.68264 0.550572
436 3.87273 0.412305 2.95402 -0.127865 0.62899 0.161417
2028 4.79296 1.47848 1.50088 -0.613932 0.422531 0.533545
3726 5.65219 0.392322 2.60313 0.284412 0.772398 1.51783
1213 4.63611 0.489518 1.94246 0.104418 0.827595 -0.313309
1256 6.40854 1.46113 1.8228 0.277535 0.253857 -0.32059
28 7.19937 0.869486 2.45029 0.648892 -0.02753 0.567622
2326 6.28364 1.4099 2.89881 -1.55298 0.315181 -1.56587
424 7.30355 1.17346 1.4935 0.0568121 0.408061 1.41562
3070 8.47818 1.01963 2.1985 0.946123 0.847336 1.41394
3959 7.70044 0.00747108 2.32958 0.577661 -0.857004 -0.375588
3569 9.84661 0.481547 2.08387 0.182615 -0.601164 1.25182
447 9.48538 1.41072 2.38691 0.939716 -0.241487 1.67762
2321 11.4105 1.11852 2.2196 0.185006 0.169526 -0.855581
2580 11.6207 0.344737 2.85425 -0.162006 -0.391645 -0.790028
1890 13.1333 0.469759 2.2578 0.244388 1.09404 -1.00845
3638 12.8111 1.30897 1.53792 1.26109 0.639256 0.151794
2800 12.5721 1.40376 2.72987 -0.044312 0.283512 0.0682985
2199 14.3072 0.206641 2.06116 0.291246 -0.0308526 0.921016
116 13.9577 1.31109 2.29357 0.0901373 -0.134497 1.39476
2894 14.8655 1.18809 2.78718 1.256 -0.72708 1.60563
2065 15.5965 0.893448 1.98529 2.26243 -0.317402 1.95708
3839 17.7934 0.568881 2.76439 2.03041 1.81003 -0.700356
2333 16.8935 0.457722 1.98307 0.32126 0.136379 -0.297401
2080 0.18579 1.62008 2.20698 -0.476964 0.832765 -1.2777
1907 1.03742 2.62162 2.45697 0.490889 0.049712 0.62199
2314 1.93953 2.11179 2.27568 -0.772909 -0.238051 0.944303
293 2.96715 1.81753 1.86576 1.63973 -0.126372 -0.445392
115 3.33749 2.74158 1.89809 -0.296819 -1.32944 1.06093
2532 3.15564 1.51966 2.91289 -0.630602 2.75744 0.330665
652 4.43919 2.75952 1.56491 0.746315 -1.11937 0.682754
1791 5.89849 2.25744 1.70512 -1.58808 0.54762 -0.412252
1972 5.28396 1.77489 2.34703 -2.20828 0.421615 1.0452
3363 6.36204 2.60627 2.93225 -1.53862 -1.08319 1.18031
464 7.26461 2.08887 2.22983 -0.838884 0.104814 -0.217412
1994 8.23382 2.12477 2.63025 -0.350809 -0.239987 -1.22471
27 10.4177 1.88218 2.2531 1.60213 1.28133 -0.759698
3130 10.3014 2.91568 2.3578 0.82998 0.291727 -0.0470024
3882 11.5559 2.43265 2.27523 1.13866 -1.16095 -0.258642
2593 13.3755 2.18089 2.45534 0.222494 -0.541052 0.0140094
3762 14.894 2.05717 1.7665 -1.45363 -0.192269 0.458359
431 16.1009 2.20027 1.84628 -1.23238 -0.815214 0.438878
3907 16.797 1.7085 2.75082 2.70404 1.62237 0.347551
3438 17.6107 2.40762 2.81681 1.55159 1.39565 0.13355
2510 0.298157 4.0973 2.53229 -0.212543 -0.882794 0.277306
277 0.994213 3.75915 1.82158 1.59401 0.175329 1.56593
528 1.78717 3.912 2.84717 -0.790031 -0.775187 -1.39759
437 2.99992 3.74825 2.38444 -0.0510087 1.61227 2.43694
429 3.76861 4.45891 2.37652 -0.985081 -0.0526822 0.0631229
2393 4.04865 3.16134 2.60612 0.313553 -0.397658 -0.291789
529 5.14295 4.20945 2.32225 -1.09301 -0.231051 0.951052
3173 5.10067 3.21839 2.76118 -0.464447 -1.25733 1.07811
3914 8.8539 4.46462 2.25992 1.18149 0.755819 1.67136
2374 9.06228 3.55292 1.83084 -0.549481 -0.858297 1.0095
1376 9.93495 4.28382 1.68595 0.468316 -0.0683408 0.279641
3371 9.36614 3.47635 2.85712 -1.28931 -0.330313 1.60356
1666 10.9208 4.46255 2.29362 0.240768 -0.624763 0.557825
622 11.891 3.3869 2.16686 -0.280669 0.179094 -0.0510124
859 12.8003 3.12441 2.78108 -1.23731 -0.888438 1.39935
1237 13.0508 4.23602 2.3389 -0.255288 -0.58618 2.34229
928 13.0914 2.99939 1.83797 0.266809 0.19303 -0.690762
2014 12.021 4.35672 2.40016 -1.24977 0.386544 -0.494835
2473 14.819 3.70438 2.62518 -1.14619 0.639423 -0.00897797
1840 13.5405 3.84413 1.49427 1.14476 0.207211 -1.04279
2154 14.3141 3.03401 1.86314 0.671837 1.28876 -0.574692
2683 15.7206 3.79426 1.68219 -0.542569 -0.245459 -0.59036
2069 15.5377 3.12188 2.85517 -0.879422 -0.43787 0.103558
3545 15.8485 4.25265 2.71524 -0.347034 0.382484 0.0336689
2345 17.6213 3.12228 1.98264 1.02912 -0.441812 0.0738342
72 16.5619 3.10377 2.06933 -0.476692 -0.619762 -0.456069
697 16.9386 3.93579 2.83434 -0.0293022 -0.372639 -0.15476
2359 0.154834 4.79918 1.50281 0.475415 -0.754424 -1.4406
3752 0.860759 5.79155 1.66321 1.90622 0.774558 -0.929694
681 1.28801 4.79055 2.25702 1.48114 0.0407709 -0.056667
1903 0.297236 5.21318 2.38652 -0.494559 0.282485 1.66341
3160 2.84814 5.30915 2.42283 0.0427618 -0.935723 -0.674969
1690 4.48599 5.22263 2.68632 0.137075 1.15329 0.83285
123 4.66663 5.1559 1.63492 -0.386808 -2.30116 0.190541
3908 5.18191 5.88075 2.27841 -0.891705 0.499664 1.12158
1698 7.32624 5.01103 2.82413 -2.45268 0.554061 1.59314
3851 7.0098 4.55731 1.79806 1.74451 1.28153 -1.36272
3606 6.28959 5.33268 2.76187 1.27124 -0.907385 2.2517
245 8.90955 5.94024 1.918 0.841935 -0.126081 0.60188
3984 7.54438 5.61098 1.78094 0.695219 -1.22228 -0.226592
2768 8.48736 5.39992 2.70917 -0.224411 0.0889373 -0.229575
678 11.585 5.3734 2.00836 -0.666805 -0.662685 0.504138
1289 10.6392 5.82095 2.37335 1.08689 -0.846085 0.941763
1303 12.0753 5.92703 2.78614 1.92749 0.635288 0.28227
1446 12.4031 4.84984 1.56353 0.99778 0.811778 0.317744
1217 13.7977 5.59856 2.3657 -0.796468 2.46337 -0.219432
1082 16.1409 5.34242 2.9499 -0.0852741 -1.73607 0.960386
3575 14.9123 5.56716 2.1702 1.60814 1.94677 -1.23344
1616 15.859 4.96036 1.57282 -3.02455 1.19982 1.74247
1211 16.6366 4.67511 2.22768 -0.0326774 -0.828315 -1.44828
1640 17.1494 5.42943 2.72079 0.889791 -2.01205 1.78743
108 16.439 5.91837 1.97499 0.0398413 -0.700927 -0.627225
3158 1.01762 6.83756 1.9064 0.952347 -0.618672 -1.7058
2524 0.67291 6.40377 2.81252 -0.108341 -0.927277 -0.684618
276 2.15363 7.33883 2.06604 1.47781 -0.172918 -0.619405
262 2.92539 6.45157 2.20519 -1.24179 0.745585 -1.54748
2313 1.89412 6.52693 2.95428 1.19067 -0.966497 0.316834
3648 3.86834 5.99753 2.23432 -1.27384 -0.38638 1.35861
2804 4.48585 6.82997 1.90679 -0.0527693 -0.117498 -1.15292
2613 5.10126 6.99278 2.81974 0.535879 -0.970345 0.310329
2272 7.15762 6.11186 2.759 1.3754 -0.131703 -0.364346
3402 6.41754 6.09884 2.01529 -0.907835 0.479795 -0.596243
3686 7.38027 6.65421 1.79169 0.515013 -0.709124 0.521205
2648 8.12031 6.46384 2.61759 1.13606 -0.17306 -0.856473
3702 9.72151 6.02095 2.97666 -1.82534 -0.568649 0.541575
2403 9.9769 6.52622 1.56566 -0.284157 -1.62827 0.904015
1704 9.17697 7.2101 2.28055 -0.553614 0.117565 0.146233
922 9.87071 7.08763 2.9434 0.251228 0.693229 -0.211031
2456 11.3245 6.51772 2.29915 0.547137 -0.212578 -0.309876
385 10.6053 7.39554 2.04122 1.39284 0.638281 -0.0407781
286 12.2719 6.76247 1.73015 0.379167 -0.733378 -0.637135
2009 13.1747 6.43191 2.03715 2.04733 0.658033 -0.231757
2756 14.5243 6.21085 2.86647 -0.561361 -0.9463 -1.00373
1631 14.5953 6.77907 1.9912 0.264192 -0.47158 0.21003
1409 14.141 7.42646 2.67529 2.03601 0.0373475 -0.505731
3271 15.6475 6.74978 2.08814 0.780081 -1.7907 -1.06842
2563 17.5633 6.00664 1.6348 0.432822 -1.59857 -0.521021
2859 16.7032 6.91806 1.78106 -1.1058 1.06344 0.940612
1869 17.0607 6.89807 2.91293 0.8467 -1.03993 2.33335
3571 17.7045 7.03536 2.17716 1.12126 -0.450346 1.59614
11 0.0614362 8.2493 2.12011 -0.789574 0.275338 -0.506707
3613 1.52306 8.06726 2.49034 0.0374176 1.84629 -1.10839
3759 2.50884 8.59443 2.48498 0.796971 1.60985 0.0369589
3703 1.83613 8.752 1.74313 0.513119 -0.933498 0.213461
312 3.11731 8.42661 1.69489 0.481431 -0.131262 -0.354303
1427 3.42503 7.83861 2.66147 -2.03223 0.419859 -0.500385
3653 4.25215 8.23005 2.97531 -2.03825 -0.866997 -0.222323
3635 5.33697 8.76487 2.39683 2.21467 -0.766949 1.3345
1302 4.55325 8.51261 1.50341 -0.803436 -0.0620135 0.825848
175 4.8617 7.77793 2.20401 -1.03332 -0.239239 0.624909
3691 5.73784 8.15797 1.56832 -0.976992 -1.1461 -1.36377
1270 7.21898 8.16446 2.15579 0.347472 0.548638 1.91903
3656 6.33795 7.58257 2.67895 0.970668 -2.05876 0.969803
771 8.21572 7.58279 2.36263 1.38521 0.389733 0.846939
1705 10.1211 8.41635 1.94815 0.563565 -3.23816 0.599571
3556 9.03294 8.59824 1.79419 -0.0265799 -0.734814 -0.447876
3147 10.4278 8.5212 2.94803 0.670412 -0.642898 0.608102
442 11.7098 7.83552 1.87012 0.565979 -1.16641 0.567884
2881 12.1318 7.60859 2.75101 -1.797 0.384946 -0.821596
2336 12.266 8.66776 2.24733 -1.39403 -1.98414 -0.0106745
3580 12.7802 7.78677 1.92702 1.98682 -0.538565 -1.06964
718 14.4076 8.61749 2.22289 2.00808 -2.10931 0.899039
1166 13.7503 7.94658 1.83409 -0.601979 1.93022 0.603384
1276 13.6269 8.25508 2.87999 -0.461088 -0.346878 -0.967407
2723 14.9201 7.73445 1.67429 0.128595 -0.787412 -0.13804
2704 16.2891 8.66103 2.45986 0.801352 0.986221 -0.539285
1340 15.1465 8.11122 2.93049 0.810283 0.682604 0.823406
125 16.2801 7.48546 2.7435 0.778088 0.740121 0.691606
1770 15.3881 8.82463 2.03301 -0.979565 0.775215 0.0442078
2572 17.0079 8.02763 1.63602 -0.969699 -1.25069 -1.62272
1060 0.943489 0.80395 3.25854 0.737555 0.418805 -1.28445
2598 1.16477 0.202579 4.38973 -1.35943 0.200784 0.931699
1931 0.0642525 1.33058 3.68161 -1.24411 0.572623 1.59346
498 2.59061 0.96647 3.96341 -1.08694 2.31766 0.0130695
2576 2.09679 1.41306 3.24051 1.20957 0.200711 0.568001
3664 3.65013 0.834574 4.08976 1.01553 -0.263009 -0.863064
3860 5.21498 0.0357562 3.69368 -0.586183 0.243976 0.512623
443 5.29302 1.2333 3.24443 -1.16569 -0.917144 -0.283025
979 4.69202 1.3096 4.02204 -1.34883 0.767352 0.183245
285 7.38536 0.345411 3.4866 -1.42523 -0.0792386 0.395584
3025 7.0291 1.03211 4.2156 0.261256 0.478259 -0.0777475
2394 6.24853 0.61476 3.59585 0.457022 -0.530601 -0.0652323
3615 8.82367 0.0534226 4.21825 -0.613321 -1.84815 -0.981269
2167 8.26913 1.48023 3.42698 -0.352451 -0.720367 1.17008
235 9.50811 0.932154 4.00234 -0.97117 0.116153 0.0818725
1506 9.13852 0.152412 3.2753 -0.123199 0.598417 1.10192
2665 10.2969 0.114033 3.55699 2.2552 -0.381462 -0.653472
3805 10.4128 1.03741 3.05492 0.81221 -1.45318 -0.653576
1150 11.0484 0.951742 4.11976 1.02925 -0.274567 -0.0931445
405 12.5789 1.37375 3.79927 1.64689 -2.5509 1.24474
1756 11.9214 0.244759 3.81841 0.253888 -1.02714 0.386302
3086 13.8975 0.490051 3.15362 0.755554 -1.06979 2.00428
1170 14.627 0.65295 3.87391 2.89647 2.06639 -1.40481
585 15.8931 1.29197 3.16268 -0.41476 1.52247 -0.240358
1650 15.3302 0.37891 3.24726 -0.437837 -0.325231 -1.7041
608 15.7677 0.665763 4.23646 -0.362923 0.064539 -0.386312
647 17.5227 0.35942 3.74859 -0.743449 -2.11364 1.99473
349 16.6223 0.594294 3.33319 0.569879 0.110484 -0.342914
1638 0.76592 2.07992 3.27931 0.376331 -0.389828 0.188725
2953 1.3687 1.99529 4.30014 0.760905 0.204678 -0.117992
600 2.43694 2.71096 2.99822 0.443782 1.36774 -0.258241
3154 2.7343 2.19075 3.83621 -0.0876203 -0.55628 -0.364577
196 3.79907 2.51999 3.26099 -1.09177 0.0878958 -0.500387
1961 5.54897 2.88336 4.18375 -1.42922 -0.767898 -1.2485
2629 5.43597 2.28009 3.31695 0.607511 1.37462 2.11777
3212 6.29758 1.99929 4.00434 1.67812 1.75545 1.39007
2495 7.23336 1.77578 3.43536 1.5139 0.141426 -1.54113
3856 7.17441 2.73904 4.08112 -1.17514 0.0650699 -0.346799
2384 7.79437 1.96558 4.45744 -0.965191 1.20846 0.944007
2105 9.51812 2.3474 3.02282 -1.5718 0.32328 -0.342965
415 9.14812 2.30517 4.03404 -1.12008 0.258614 1.06588
54 10.1899 1.69347 3.7863 0.680406 1.22679 0.113826
1388 10.5986 2.5877 3.36577 0.667143 0.964378 0.0568257
500 11.7243 1.78735 4.25688 1.13214 1.88757 -0.0455494
1773 12.0526 2.29346 3.22692 0.14049 0.779097 1.20162
790 13.2316 2.51488 3.45065 -1.07605 -0.0794545 -0.515714
2142 14.1288 1.73789 3.23871 1.20851 -1.26827 -0.360588
3332 14.6219 2.67001 3.26283 -0.860709 0.314842 -0.670268
337 14.1604 1.90644 4.32685 0.498757 2.35231 -0.377834
3001 15.9072 2.64498 3.81155 -0.293671 -0.68019 0.402746
1967 16.7751 1.71387 3.85747 0.751853 -0.731326 0.115313
534 16.7986 2.82163 4.42638 0.558182 -0.47977 -0.100791
1537 16.7201 2.9131 3.24263 0.318193 0.79566 0.51777
3424 17.6487 2.33105 4.03981 -0.443546 -0.997103 -0.988757
3992 0.321071 3.07103 3.25711 1.12867 0.659316 1.25121
3720 0.875905 4.46673 3.23548 1.85514 -3.69806 -0.383537
186 2.96767 3.59651 3.53085 0.863041 -0.254172 0.28846
3091 2.43326 3.08298 4.26234 0.473838 -0.527689 -0.0190459
3269 1.80716 3.75857 3.94664 0.54103 -0.427523 0.560119
2803 4.34211 3.61061 3.74007 1.3639 -1.36552 -0.496913
454 5.40946 4.16455 3.45545 -0.193241 0.0840923 -0.48709
395 6.52183 3.72169 3.84686 -1.05604 -1.31759 0.746373
1290 7.35479 3.54283 3.05039 0.541915 1.27292 -0.504727
1949 8.16245 3.14808 4.37912 -0.73528 0.9037 -2.0933
296 8.58515 3.05674 3.30834 0.0655305 -0.927947 1.04963
3083 7.98669 4.21621 4.10028 -0.79277 -0.0387022 -0.631377
2750 9.07108 3.86006 4.18924 1.20068 0.249689 0.653308
2541 10.1405 3.17415 4.11938 -1.31921 -1.43629 -0.151025
1731 11.0597 3.3759 3.02719 -0.0927602 0.783636 1.46019
3502 11.3691 3.24792 4.38637 -0.873208 0.684332 -1.30309
729 10.9932 4.05804 4.02509 -0.427423 0.118133 -0.757495
1555 12.2342 3.17639 3.78193 0.752476 0.604332 -0.118713
441 12.0363 4.20047 3.43397 -0.0720413 0.493589 -0.939309
1953 13.1448 4.20336 3.75502 0.254179 -2.8949 0.875267
2636 14.571 3.09707 4.46422 0.393392 0.598285 -1.67505
748 13.915 3.48943 3.28974 2.05054 0.582888 -0.461509
273 13.4525 3.2295 4.1801 0.305079 -1.49666 1.71747
2833 15.0012 3.6962 3.78051 -0.797086 -0.180917 1.58385
1096 16.0115 3.8451 3.65352 -1.34067 -0.283083 -0.429125
1175 17.478 3.64322 3.75427 0.565552 1.52809 0.209546
1437 1.07863 4.7776 4.16018 -0.488972 0.373118 1.01933
1282 1.02242 5.60401 3.38262 -0.698554 1.29806 -0.956573
2078 0.0478676 5.6942 3.75536 0.0821769 -1.50388 -1.11725
2979 2.32178 4.76013 4.20673 1.16113 1.53443 0.987064
3928 1.96475 5.10294 3.11298 -1.19744 0.265433 0.775284
786 2.70099 5.91977 3.44614 0.295713 1.67585 0.155031
1776 3.00605 4.63408 3.46053 1.68913 1.09801 0.278773
694 4.21692 4.61221 3.66714 -1.88672 0.00459713 -0.751829
3009 3.62105 5.42603 3.17116 1.62716 -2.10264 -1.06692
2596 5.31826 5.65342 3.43785 -0.0276202 -0.14211 -1.53914
943 6.25845 4.79705 3.6602 -0.47788 -0.0294049 -1.77588
382 8.82307 4.62318 3.66268 -1.03867 0.0623053 0.229501
232 7.99686 5.33984 3.82547 -0.286123 -0.524546 0.533525
2947 9.74022 5.77236 4.29245 -1.31505 0.762328 -1.58259
1024 10.2343 5.07232 3.50925 0.326946 0.562846 -0.0253594
3975 8.94653 5.7362 3.55368 -0.114172 0.475684 0.0841262
2793 10.6812 5.38875 4.36654 1.08202 0.85149 -0.584117
3857 11.2523 4.95906 3.30963 -0.985446 -2.16983 1.69087
2784 12.7535 5.31923 3.25226 0.256814 -1.7832 -0.160846
2205 12.1604 5.20606 4.20751 0.222872 1.77146 -0.746084
3852 14.6861 5.77775 4.18443 -1.1597 0.181293 -0.135112
827 13.729 4.71528 3.03372 1.26077 -0.22013 -1.16269
3107 14.8261 5.14505 3.19374 0.00573035 1.58251 0.778294
1392 14.2228 4.63976 3.97518 0.847889 0.620459 0.0338223
1451 13.7984 5.77917 3.49 0.171633 1.43431 -0.55156
3118 15.4388 5.959 3.54791 -0.269945 -1.07328 -0.354387
586 15.3663 4.73442 3.9636 -0.367622 0.617293 1.38245
135 16.5021 5.91356 3.77327 0.813192 1.20331 0.244852
3213 17.7746 4.72443 3.26713 -0.227691 -0.61457 -0.367031
635 16.7654 4.80796 3.7759 0.366143 1.07416 0.347894
1809 1.2042 6.37839 4.02557 1.82653 1.19436 -0.653626
2709 1.28782 7.36999 3.6126 0.905371 -1.11087 1.48165
229 0.178161 6.72929 3.82768 -0.172634 -3.107 0.314207
2746 2.40036 6.72505 4.37508 -1.91931 0.391902 -1.31653
2302 3.92235 7.20629 3.26562 -0.911268 -0.859077 -1.01881
2620 3.64011 6.20466 4.06245 0.964286 -0.202455 1.27442
763 4.41769 6.21901 3.17978 -0.883147 0.239763 0.676492
1364 5.52303 6.62017 4.24756 0.179088 -0.0763157 1.09002
1259 7.07057 7.19023 3.30768 -1.08529 -1.64134 -0.962006
2441 6.08162 6.53142 3.10644 -0.393987 -0.761131 0.399408
1786 6.61432 6.0486 3.98037 1.10809 0.0225643 0.930103
3917 6.27962 7.37246 4.20255 1.50486 -0.0249238 1.0065
307 7.98625 6.41885 3.91795 1.38351 -1.36355 1.15397
3190 9.09326 6.68237 3.9385 1.1631 -0.500971 0.230178
3388 11.7926 6.82725 3.83234 0.379102 -1.09057 -0.840304
2890 10.8667 6.83308 3.32551 -0.986468 -1.18842 0.192847
789 10.7008 6.35167 4.20735 0.679565 -0.547034 -0.311278
3498 12.7148 6.16726 3.83424 -0.910028 0.101128 -0.797344
3109 13.5226 6.70328 3.05024 1.01761 0.755751 -1.79993
250 16.0079 7.13082 3.89729 0.660417 0.614575 -1.33729
321 15.2727 6.95855 3.04106 1.18054 -0.3982 -0.17934
377 16.9608 6.6732 4.40308 0.345211 -0.321131 0.179292
2283 0.409549 8.76463 3.91382 0.818967 0.588281 0.697408
271 0.44037 7.73016 3.12307 1.02314 -0.695178 0.049413
538 1.72783 8.34533 3.52877 0.150732 -0.676111 -0.662421
2198 2.67701 7.89257 3.28839 -0.157094 -1.48381 -1.12454
2944 4.46736 7.73599 4.08609 1.57024 0.720821 2.00509
929 4.05192 8.83194 4.44078 1.82873 0.491779 2.47451
1319 3.26681 8.16336 4.11569 0.351794 -1.13183 1.98664
86 5.28967 8.00493 3.30674 0.541333 -0.198149 1.54874
3531 5.97626 8.38532 4.15018 -1.11187 0.305426 -0.569765
428 7.37306 7.76888 4.38423 -0.101049 1.13424 -0.577537
3835 8.23214 7.53451 3.56017 1.60521 -0.791527 0.479608
1186 7.53743 8.8426 3.14078 -1.56713 0.481639 0.694843
3137 9.33615 8.24417 2.99843 -0.519471 -0.113839 0.17418
150 10.2735 7.90485 3.86538 0.324252 -0.715769 0.105534
1251 11.411 8.26744 3.29331 -0.935762 -2.38554 -0.764123
70 11.3427 7.78379 4.31125 -2.58094 -1.0011 -0.126063
1957 12.7508 8.75209 3.58092 -0.983291 0.555316 0.102417
2054 13.0358 7.58594 3.50598 -0.538038 0.856474 -0.423782
2453 13.2386 8.22467 4.35831 1.43123 1.05478 -2.6292
879 14.06 7.69642 4.0441 -0.583223 1.1026 -0.495996
444 13.9234 8.78294 3.69335 0.407039 1.83509 0.327204
3460 15.0113 8.75715 4.19021 -0.714966 -0.037367 -0.729871
1062 16.2106 8.109 4.2211 -1.03358 0.255205 -0.113232
3765 15.8319 8.76585 3.58427 1.83079 -0.816914 -0.721684
3796 17.2124 8.57864 4.40071 0.00858291 1.07096 -0.101948
102 17.4069 8.3825 3.04384 -0.836446 -0.0421022 0.0955636
1457 17.2964 7.68554 3.82213 0.751075 -0.688798 -0.838909
869 0.232447 0.0529437 4.88473 -0.26208 -0.428801 -0.799615
3955 1.39766 1.27595 5.53632 0.252632 -0.812989 1.92448
180 0.0613361 1.10779 5.81493 -0.366077 -0.878757 0.724618
3952 0.939105 0.29451 5.73636 -0.794842 -0.0923933 -0.825748
1602 0.720224 1.1562 4.81652 -0.560992 1.53194 0.801308
2303 2.0479 0.380637 5.26651 1.01899 -0.698912 -1.0569
168 2.93979 0.865602 5.09508 -1.27546 -1.02054 -1.37381
239 4.06559 0.112556 4.9173 -1.63229 -0.308634 1.03662
392 4.41969 1.20954 5.08325 -0.787712 -0.653449 -0.746304
548 5.48213 0.375983 5.40417 1.34446 0.534136 -0.423759
2238 5.75841 0.985561 4.48207 0.286267 -0.521981 -1.88148
1361 6.72549 0.0659396 4.67399 0.514439 -1.35165 -0.20392
970 6.69161 0.860024 5.46903 0.165724 -2.60915 1.3672
448 8.69953 0.794869 5.4279 -0.807205 -0.507893 -1.29225
3627 7.88973 0.652188 4.49855 -0.535771 1.32206 -0.538273
949 9.62986 0.072828 5.22364 -0.348045 -0.167033 1.13293
1782 9.88733 1.00244 4.92472 -1.44439 -0.236949 0.143137
364 11.1237 0.692051 5.43188 -1.13522 -0.280456 -1.19345
1347 12.1471 1.26975 5.27944 0.132382 -1.01557 -1.26401
822 12.7915 0.540405 5.45015 -0.00748397 -0.177194 -0.204487
2288 13.186 1.42163 5.46135 -0.888071 0.0426666 0.480748
2219 14.8085 1.46494 5.58676 -0.926452 -0.212685 1.5586
3996 13.8607 0.336578 5.52442 -0.991832 0.643719 0.767088
2956 14.7482 0.41855 4.87618 0.271114 1.80845 -0.145658
3214 13.5936 0.964487 4.61413 -0.523627 0.118762 0.775626
3930 15.7044 0.858062 5.18053 0.0947403 -1.24784 -0.0535049
1007 16.1776 0.419185 5.93875 -0.0619979 -0.583627 1.1418
773 17.3811 0.78855 5.07151 -1.05813 1.07807 -1.05793
3351 16.7227 1.26806 5.91844 1.00352 -1.0721 -0.769955
1385 2.4183 2.1951 4.86732 1.01296 -0.670513 -1.5697
90 2.51579 1.57927 5.76562 -0.861527 -0.393514 -0.908462