ITEM: TIMESTEP
52000
ITEM: NUMBER OF ATOMS
4000
ITEM: BOX BOUNDS pp pp pp
0.0000000000000000e+00 1.7878070701931353e+01
0.0000000000000000e+00 1.7878070701931353e+01
0.0000000000000000e+00 1.7878070701931353e+01
ITEM: ATOMS id x y z vx vy vz
1878 0.0499174 0.604776 1.2767 1.14937 3.19417 -0.0826886
1081 0.718003 1.0258 0.440845 -0.449129 1.63249 1.04558
1602 1.62901 0.819474 0.743387 2.63532 -1.70459 -0.212637
387 5.37119 1.27171 0.649156 -0.135419 -1.23991 1.41367
2716 7.33812 1.26143 0.653313 -0.406743 0.467065 0.22328
1318 6.22201 0.716514 1.01418 -1.03514 0.535227 0.146435
1654 6.02376 0.117905 0.141707 0.693583 -1.28888 1.06342
3648 8.30266 0.862491 1.19069 0.150934 1.31525 0.236778
2497 8.64936 0.126918 0.136261 1.28835 1.43199 1.00243
3077 9.40809 0.139746 1.25812 0.576276 0.317036 -1.90679
196 9.23516 0.899548 0.601356 0.650853 1.56246 -0.0888251
3264 10.0224 1.04558 1.32413 0.562064 0.263461 1.65532
2028 10.0705 0.000724858 0.422218 0.102436 0.195692 -2.1291
2466 10.9399 1.3328 1.00126 0.0149223 0.634257 0.924543
3078 10.9071 0.663998 0.0568965 1.71621 0.0509762 -0.564538
2055 11.9534 0.651087 0.758304 1.40124 -0.354258 -0.000392009
2667 13.3786 1.35921 0.622024 0.0821267 -1.32927 0.701214
1524 14.2987 0.807271 1.25163 0.916382 -1.35065 1.14582
2882 15.0532 0.245722 0.807316 -0.0539441 -1.03579 0.0576491
3034 15.395 1.32439 0.960447 -1.40536 1.15101 -0.48548
102 16.5287 1.31921 1.16775 -0.25665 0.841696 0.304844
1221 17.3974 0.0432318 0.475315 3.36542 1.30412 0.471907
3843 16.3902 0.189234 0.701257 1.05724 0.790095 0.283123
2155 0.915322 2.27169 1.23039 1.49703 -0.374071 0.718093
528 1.25561 1.97253 0.360006 -0.103154 1.11495 -1.66591
2935 2.63574 2.61866 1.48737 0.327648 -0.765711 0.0548653
3182 2.81523 1.65493 1.06344 -1.10036 1.64656 0.82729
3166 2.66544 2.434 0.376516 0.897533 -0.745213 -0.173107
3745 1.71867 2.83093 0.858028 -0.497592 -0.293509 0.388262
3618 4.07477 1.51184 0.807873 -1.40453 -0.830637 -1.46957
2873 3.80879 2.43762 1.41354 -1.44059 0.887632 0.902273
1248 4.59962 2.62623 0.608929 0.508835 1.48219 0.605829
1963 5.61776 2.43915 0.888608 -0.841736 -1.84052 0.503755
42 7.04882 2.55572 0.200909 1.54055 -0.694709 -1.28913
278 8.13481 1.94869 0.565115 9.7806e-05 -0.299372 0.334931
1722 10.2265 2.07484 1.46522 0.937653 -0.265353 0.454007
669 9.16853 2.24044 0.964069 -1.53334 -0.997384 1.17664
2663 9.87201 1.572 0.0230759 -1.44801 0.943467 -0.168287
679 10.9114 2.30904 0.616249 -0.11507 0.218938 1.68297
1803 11.9839 2.4933 0.459196 -0.704442 -0.268005 -1.028
75 12.4576 1.79631 1.07206 -0.752479 -1.57354 -0.914697
1513 12.5089 2.94025 1.40346 -0.72266 -0.508614 -0.678619
266 11.9252 1.51157 0.13924 -0.572064 -0.11563 0.171355
718 14.4971 2.01403 1.27968 0.462668 -0.290886 0.361945
504 14.4037 1.54942 0.372146 0.47749 0.783035 -1.05006
71 13.619 2.30166 0.991279 -0.764636 -0.802569 0.425971
3086 16.1537 1.86206 0.142037 -0.797505 0.554297 0.381368
2194 15.9207 2.80722 0.35728 -0.0323829 0.0684473 -0.516214
198 17.797 1.6243 1.05832 0.875777 -0.339464 -0.544028
2630 16.9894 2.15215 0.683787 1.03405 0.93767 0.949259
2640 17.7427 2.61192 0.226237 -0.261036 0.895538 1.29939
2968 1.23637 4.2026 0.896592 0.269238 -0.190855 -0.604678
2345 0.609036 3.31719 0.920448 -0.647125 -0.408648 0.810642
857 2.90228 3.36633 0.539597 -1.80719 -2.57413 -0.0201472
1923 4.10102 3.60038 0.871665 0.548216 -0.719198 1.85458
2472 4.96823 3.96524 0.46348 -0.0261277 -0.0934493 -0.726127
1561 4.75744 4.27981 1.37269 -0.222357 -0.472906 -0.107093
1994 6.95255 3.64461 0.183571 -0.698448 0.168412 1.11622
2746 6.67578 3.31568 1.09094 -0.998245 -0.38049 1.40935
3366 5.98658 3.94895 0.428972 -1.21838 -0.538743 0.789594
7 8.50953 3.79286 0.838694 0.87214 -0.0594095 0.423891
3841 7.77552 2.99016 0.828267 1.23396 1.57979 0.521729
3578 9.92338 3.5105 0.999778 1.53313 -1.03066 -1.7479
1903 11.3229 3.32022 1.30184 0.436392 1.68367 0.335349
564 10.8303 4.2075 1.15745 0.280174 1.01684 -1.09636
1967 11.0193 3.38067 0.324419 0.958527 1.01936 1.04438
349 12.4216 3.4777 0.367236 0.0998959 2.11592 0.594832
2285 12.2691 4.34278 1.3143 -1.3346 1.20088 -0.384531
1689 12.9208 4.31163 0.566138 1.98956 -1.90549 0.693318
2634 14.2374 3.15131 1.35017 0.00622398 -0.615614 0.486049
290 14.8869 3.15819 0.377111 0.120257 0.596141 -0.82122
3122 14.4986 4.10342 0.787096 0.126926 -0.380749 -0.134524
1403 13.4319 3.36402 0.789856 0.996098 0.869146 0.251095
816 16.3604 4.20616 1.30897 0.932184 -0.0351966 -0.469333
1875 15.4738 3.61634 1.05535 1.33479 0.635138 -0.173827
3944 15.6747 4.23012 0.12218 -1.20742 -1.21264 -1.32583
441 16.7369 3.63268 0.22271 -0.632756 -1.99283 0.398597
1343 17.5273 3.55037 0.918678 -0.496289 -0.751834 -0.733044
2731 1.12066 5.29001 0.125134 0.597692 -0.661314 1.09774
1993 0.321458 4.73568 0.658462 -0.862368 -0.285312 0.627499
3482 1.21635 5.50441 1.1359 0.0743616 -0.881287 -0.0506485
1671 0.106636 5.78904 0.240928 2.01619 0.609818 -0.146667
908 2.0348 4.58384 0.372286 -0.661148 0.0804174 0.209597
238 2.41945 5.60316 0.632429 1.41252 0.804437 -1.42178
1801 4.29122 4.8712 0.489556 1.006 -1.61206 0.512986
2147 3.04523 4.54409 0.85995 -0.514385 0.813663 -0.295218
622 3.45291 5.63249 0.266268 0.837956 0.176456 -0.206916
730 4.70382 5.27568 1.38577 0.522515 -0.245458 0.0863812
3607 5.70966 4.62891 1.35105 -0.196812 0.155805 -0.790069
395 5.94656 5.61836 0.0211547 0.623689 1.50369 1.57183
3474 6.61214 5.85703 0.745912 1.76507 1.26928 0.415338
1236 6.59303 4.81675 0.102537 0.481565 0.272382 0.39062
2053 8.36644 5.6545 0.513223 0.0057708 0.669906 -0.207062
2926 7.53007 5.11412 0.699039 -0.651191 -1.15012 0.9582
425 8.65858 4.88722 1.13935 0.293788 -0.420937 1.86785
556 10.1963 5.19248 0.197459 0.814884 0.696897 -0.0301149
2291 9.40809 5.86386 0.929859 -0.896376 -0.112999 0.838622
1475 9.60571 4.54162 1.29463 -0.902496 -2.1968 0.41854
1539 10.9205 5.27747 1.10908 1.62394 -1.09796 0.255147
1659 11.1127 5.52295 0.0222199 -0.65723 -0.2415 -0.456278
3852 11.6749 4.57208 0.297709 -0.0387089 -0.316256 0.174472
429 11.9723 5.36225 1.07595 -0.876513 0.0202948 1.46295
1698 12.2487 5.38557 0.0683818 -0.0710745 0.663251 0.614715
1731 14.7226 5.0329 0.237197 1.22899 -0.51573 0.713612
1943 13.7572 5.90473 0.962079 -0.573251 1.12241 0.760959
2657 14.8939 5.67431 1.15415 0.104833 0.857758 1.07433
3884 14.1482 5.02657 1.13258 1.89612 -1.86543 1.34171
3885 16.2155 5.05432 0.46152 2.38984 -0.114347 -0.872438
3721 15.5225 5.8142 0.366524 0.654159 1.28202 1.14443
2137 17.2862 4.88242 1.27045 -1.52919 -0.2318 0.0432799
3156 16.4849 5.47728 1.44704 -0.863512 -0.281925 0.522899
3235 0.70798 6.67759 0.725177 0.321729 -1.20358 -0.153061
1905 0.0976579 6.04508 1.34653 -0.323122 0.901344 1.8136
2769 1.6646 6.19412 0.335943 0.505933 -2.22831 -0.792071
771 2.50616 6.61503 0.71361 0.771957 -1.13529 -0.263142
1115 4.35165 7.23594 0.755832 0.386753 1.29715 -0.36703
1898 4.15258 6.24844 1.40631 -0.662742 -2.34434 0.253867
3112 3.41669 6.83318 0.283042 1.0202 0.282278 0.656024
3402 5.59843 7.25597 0.874539 1.0953 1.10039 -0.859644
2613 5.00439 6.19576 0.801779 0.751762 1.38964 -0.110362
123 6.65946 7.10814 0.263822 -1.21288 -0.515879 0.473636
1743 6.76028 7.38512 1.33854 -1.12609 -1.79748 -0.514425
3374 7.6482 6.13959 1.16791 -0.269347 0.0499026 -0.230666
3653 8.60741 6.68544 0.384502 0.493092 -0.283837 0.603466
2068 9.4148 6.98969 0.998575 0.0700252 -0.691471 -1.05446
1752 10.4489 7.26361 1.45229 -0.62226 0.469181 0.149008
3976 12.1546 6.44428 0.739441 1.89904 1.33765 -0.806137
1433 13.1223 6.57058 0.129561 0.569267 0.393088 1.42061
513 14.0894 7.07639 1.07834 -0.118222 -0.0372185 -0.381721
423 16.1021 6.84622 0.145346 2.18583 0.18278 -0.709568
3364 15.3675 6.83779 0.912766 1.41787 -0.821922 0.200453
3619 16.3541 7.32934 1.05131 0.725552 0.287927 -0.00911742
2622 17.0339 6.21887 0.39194 0.698402 -0.672469 0.688309
1258 17.632 6.97093 0.82244 0.797359 1.86509 0.668557
2141 1.08159 8.55922 0.042243 0.0339151 0.112621 -0.073031
1661 0.804961 7.88155 1.05857 0.24545 0.638007 -0.118379
3450 2.31408 8.49506 0.558027 -0.109517 -0.0152724 -1.00421
2056 2.82079 7.56829 1.26324 0.443058 -0.763129 -0.788505
3966 1.69189 7.47513 0.346845 0.897535 -0.539777 -1.64635
1544 2.77534 8.70769 1.39387 0.365321 0.56322 1.21573
3958 3.28692 8.02004 0.243663 1.05694 -1.19388 0.88079
1198 4.20295 8.5458 0.384942 -1.31979 -0.0940347 -1.46835
3224 4.42518 7.95092 1.4454 -1.5747 0.093826 -1.98885
1644 5.43207 8.25016 0.908001 0.275958 0.0787379 0.00586862
708 6.41726 8.67449 1.01392 0.704806 -0.795022 0.212859
2539 7.10975 8.49769 0.107137 -1.31113 8.02761e-05 0.274798
1892 6.08931 8.79232 0.0465116 0.0487706 -0.108084 1.42745
671 8.80326 7.9168 0.562622 0.0372015 0.772609 -0.31048
3371 7.72609 7.60456 0.747101 1.14357 0.982219 -1.37051
170 8.6542 8.89929 1.43438 -0.747673 0.455917 0.299969
464 8.24123 8.86966 0.411695 0.0977974 -1.55048 0.628765
1588 9.94672 7.76281 0.342915 0.401279 0.0997007 0.207865
1298 9.55366 8.18875 1.32632 -0.524082 0.394734 -0.625703
1159 11.1554 7.54815 0.382139 -0.86622 -0.268319 0.0907531
3073 11.5149 7.64736 1.407 -0.448572 -0.620083 -1.81246
1314 11.7127 8.92536 1.37403 0.237093 0.391272 0.305457
1016 13.2942 7.55329 0.27709 -0.0174718 -0.156752 -0.128627
250 12.9059 8.74041 1.21422 1.06042 -1.85638 0.187418
3765 14.5698 8.09883 0.361068 -1.42673 0.754758 0.682233
1871 13.5706 8.66742 0.276082 0.26089 -0.725826 -1.09436
1989 14.0578 8.20657 1.33736 -1.46916 -0.985601 0.163653
3742 15.4815 8.5599 0.84096 0.0152467 0.455614 -1.59317
2142 15.1055 7.73648 1.47608 0.220589 1.16014 -0.55784
3539 17.4127 7.90562 0.722517 -0.914927 -0.012876 -0.384188
2524 16.5852 8.58428 0.773651 0.599686 0.947991 0.22576
3300 1.35701 1.40281 1.53884 0.317418 -1.52282 1.2096
1619 1.06926 0.250296 1.5669 -1.03894 -0.578325 2.10891
2572 0.823798 0.846648 2.41067 -2.16857 0.206985 1.24722
2492 2.03135 0.826965 2.58502 0.688559 0.402516 -1.00427
2407 2.65949 0.698172 1.49636 0.604549 -0.723576 1.27749
3016 2.69806 0.0208176 2.24927 0.772592 0.449081 -0.690381
360 3.55808 0.978514 1.87997 0.712521 0.0741291 -2.11794
492 3.1108 0.856769 2.78871 -1.62451 -1.27231 1.27635
1862 5.29327 0.633328 1.75584 -1.04738 -0.109623 0.193156
2791 5.16226 0.853775 2.8214 1.06679 0.914208 0.970516
1049 6.85454 0.322633 2.11513 -0.118351 1.65847 -0.162764
501 7.15949 1.33854 2.31652 0.534971 0.378777 -0.325991
902 8.30984 0.571896 2.45178 -0.460211 -0.373341 -0.372983
969 9.96264 1.32076 2.89562 -0.897167 0.896852 0.241149
3042 9.16594 1.33923 2.0998 -0.375965 0.325429 0.611152
437 9.23764 0.330028 2.76676 -0.881575 -0.389053 0.510564
79 11.8931 0.554057 1.84087 1.11248 -0.680743 1.29275
2993 10.8823 1.29083 2.1506 -0.405172 -0.805673 -0.0319091
348 11.5163 0.438095 2.92932 2.09111 0.765962 0.966561
853 10.9871 0.140528 2.15412 0.186735 -0.726095 0.570164
3330 12.6077 0.971867 2.67644 -1.39303 -0.403305 1.26672
1691 12.8521 1.06002 1.7244 1.31283 0.824762 -0.65176
842 12.4092 0.00441421 2.62767 1.41141 0.330475 -1.17289
3739 13.7502 0.0312758 2.51569 0.551238 0.152307 1.13383
2086 13.7068 1.1417 2.57828 0.318414 0.792982 -0.447701
2861 14.661 0.368726 2.78179 0.792284 1.53131 0.307985
931 14.7094 0.00253349 1.87017 0.259902 -1.21214 0.576588
2279 15.2643 0.831062 2.00049 0.375053 -1.64899 -0.20219
39 17.1883 1.34519 2.38653 0.371999 1.4799 0.233701
1445 17.7109 0.372443 2.37721 0.377056 -1.62566 -1.3559
1364 1.45871 2.25729 2.3527 -0.374397 -0.41142 1.31774
3777 0.274369 1.84952 2.31687 -0.438478 1.10605 1.17333
1733 2.56103 1.7981 2.19253 0.372609 -0.777733 1.81368
1157 3.59403 1.83791 2.91165 2.50048 0.283561 -0.147565
1470 4.03301 2.78128 2.56423 1.84702 -0.760918 0.895373
1657 4.83654 1.79873 1.75458 -0.146142 0.483412 -0.254861
3851 5.83209 2.07243 2.58829 0.774304 -0.0335313 1.06253
312 5.16365 2.72391 2.27259 1.85353 -0.191134 -1.73236
2597 5.98054 1.49698 1.71497 -0.548236 -0.857575 1.48846
1374 7.10459 2.471 2.83006 0.936971 1.58812 -1.18973
880 6.20325 2.43731 1.7315 1.87681 1.07085 0.85203
825 8.2053 1.71385 2.46896 0.284633 -0.29261 -0.690714
1776 7.50814 2.10021 1.64921 -0.960698 0.0553333 0.700339
1773 8.31959 2.82303 1.85489 1.7283 -0.801109 0.321387
3882 8.05735 2.96636 2.83291 0.277264 -0.868205 1.36143
2305 11.6888 2.13715 1.77785 0.709519 1.68799 -1.82535
2452 11.6325 1.49663 2.86642 0.00777032 1.08431 0.22907
3385 12.7866 2.36705 2.49184 -0.235012 0.89076 1.59211
1394 13.5805 1.96987 1.90594 0.51922 -0.722972 -0.667212
1754 13.9855 2.83933 2.41129 0.876908 0.313602 -0.283834
110 14.5001 1.70494 2.51067 -1.29062 0.61485 -0.149973
1065 15.83 2.42729 1.5099 0.408749 1.53582 0.834734
1199 15.1946 2.61794 2.40638 0.283208 0.281129 1.10699
229 16.2028 2.53733 2.64876 1.93373 -0.435051 -2.17058
2765 15.5406 1.72976 2.42231 1.09992 0.659902 -0.0761449
802 17.0693 2.24626 1.82695 -0.96691 0.837827 -2.10272
1128 0.34598 3.04262 1.89004 -0.0650961 -0.0576031 -0.863843
3093 0.452168 4.36178 2.8527 -0.297713 0.385393 0.168354
2143 0.43018 4.03912 1.60184 0.352524 -0.228337 0.992386
13 1.4515 3.21244 1.84009 -0.329547 -1.37937 -0.682456
1517 1.27677 3.69577 2.80757 0.167872 -0.847988 0.226988
43 2.32201 3.7224 1.51274 -0.466781 1.99752 1.41361
1266 1.55021 4.36768 1.87873 -0.731039 -0.39239 -0.315992
3083 3.45828 3.71448 1.81189 -0.925584 -0.44284 1.04611
2159 4.44279 3.36951 1.82636 -0.613816 -1.46377 0.588122
3329 3.04915 3.4481 2.83869 0.414345 -0.00192467 -0.273187
2179 5.86652 3.69342 1.74404 0.915938 0.725497 0.587717
1312 5.17852 3.78595 2.61296 1.31109 -1.02869 -2.17442
2532 6.17626 3.03755 2.89669 0.335831 0.525427 -1.62119
2027 6.55978 4.30362 2.28129 0.142074 0.826594 -0.0135362
3686 7.07337 3.19154 2.05375 -0.821155 0.0263932 0.793988
1500 8.21266 4.10223 1.92221 0.262986 -0.428497 -1.03734
834 9.5189 4.35463 2.31601 -0.708494 0.417809 -1.69021
3502 9.32482 3.42196 1.80177 -0.575319 0.543778 1.04071
1833 10.6179 3.08335 2.01041 -1.12153 0.0479373 0.517701
2289 11.9028 3.22597 2.35138 1.26337 -0.782174 0.783287
3950 10.7185 3.85101 2.87079 0.928746 0.606701 -0.123572
2756 13.3759 4.25408 1.60251 0.927387 1.42931 0.520953
656 13.4371 3.79557 2.53896 -0.00653495 -0.400742 0.513967
879 14.3748 3.85505 2.10317 0.11314 -0.0413419 -0.608713
392 15.8066 3.67894 2.01339 0.403388 -0.866922 -0.705239
715 17.1711 4.24805 2.32794 -1.42672 -0.29121 0.621853
135 16.6842 3.17291 1.55312 -0.888239 0.84866 1.30718
177 17.1114 3.12789 2.58448 0.706173 -0.821943 -0.035592
3444 1.33929 5.22953 2.29071 2.09493 -0.778749 -1.81791
2577 0.0844698 4.97693 2.13832 -1.30621 -0.438616 -1.38127
673 2.25874 5.22541 1.51769 -0.00526479 -1.66039 1.22918
55 2.05242 5.92569 2.21388 0.301419 1.49618 -0.90342
3376 3.39029 5.44194 1.51693 0.269158 -1.19297 2.20658
2283 4.14642 5.75148 2.32037 2.36022 -1.24195 -0.926267
3258 4.47917 4.6164 2.45376 -1.10512 -0.286343 -0.535293
2739 5.72694 4.91193 2.40065 -0.938948 1.02983 -1.39051
2423 7.01145 5.23515 2.05118 0.928899 0.341505 0.975721
1316 6.13102 5.56079 1.63849 0.573422 1.03922 0.526704
3861 6.37101 5.87719 2.5327 0.806198 -0.951818 0.811203
508 8.03502 5.43344 1.90862 -0.695768 2.50502 0.979959
91 7.63484 4.48657 2.59317 -0.943055 1.27111 1.63771
3476 9.147 5.4095 1.86187 0.602236 0.254677 0.597531
861 9.7189 5.70201 2.83542 0.174553 -1.72828 -2.01843
1098 11.808 4.8992 2.09884 1.09273 0.492616 0.877398
3614 10.4798 5.04538 2.15876 -0.402799 0.6782 0.641727
1154 12.8917 5.36648 1.61814 0.637244 0.197381 0.768071
1631 12.592 5.43201 2.71507 -1.73011 1.29791 0.0553213
3169 13.8322 4.96821 2.52898 -0.598147 -0.445427 0.180109
2856 15.094 4.57512 1.6309 -1.10431 -1.57782 0.0566231
1217 16.1715 4.74505 2.14171 -0.417122 1.37193 -0.159388
1004 15.2505 5.12329 2.43257 -0.731126 -1.66069 -0.0972077
210 17.0937 5.21899 2.8722 0.389722 -1.34255 -0.495939
3940 0.314022 7.1716 1.93339 0.576621 0.284419 1.80687
784 1.11294 6.4153 2.68218 -0.829455 2.57691 0.978559
2614 0.0420651 6.75603 2.89726 2.20002 0.987574 -1.4695
2937 1.37383 6.6621 1.63817 0.770345 -1.7156 0.307335
778 3.10577 6.66837 1.74787 -0.768693 -0.335818 -0.256185
2318 4.02711 6.99965 2.12911 -0.820592 0.141885 -2.46839
3424 3.35213 6.32456 2.95832 -1.24161 -0.576631 -1.05166
1687 5.00457 6.9482 1.5378 1.35516 -0.374993 0.627052
2596 5.93001 6.93276 2.08644 -1.06545 2.574 2.53333
2183 5.32031 6.08497 2.08697 0.857813 -1.15186 -1.32715
881 7.31276 6.45015 2.16561 0.533836 1.54713 0.129504
1786 8.62313 7.21128 1.66646 0.276175 -1.38641 0.0543826
3301 8.6429 6.17135 2.74752 0.729085 0.410565 -0.480527
2540 8.04989 7.26108 2.97358 0.317061 -1.23296 -0.0188643
2801 9.05761 7.15202 2.58365 1.13247 -0.0537733 0.945679
701 10.0725 6.7555 2.55526 -1.44875 -0.735326 -1.72766
1515 10.676 6.223 1.53419 0.331935 -0.773881 0.348345
1442 10.9296 7.11262 2.28215 -1.85821 0.373052 0.144536
3585 11.9646 6.25492 1.73619 0.548704 2.76183 0.859822
2277 13.3513 6.82553 2.13553 0.453654 0.451 1.07566
2033 12.3626 6.68379 2.78821 0.161615 -1.02967 -0.538989
2510 14.1469 5.97766 2.0534 -1.77949 -4.06077e-05 -0.17035
466 14.1687 6.76778 2.88969 -0.107818 0.702506 0.164885
6 15.2427 6.3089 2.14416 -0.449818 0.771856 0.930997
1474 15.9054 7.17064 2.00853 0.901726 -0.308737 0.659002
2163 16.3857 6.23736 2.13585 -0.164825 -1.96732 1.34292
2750 15.056 7.31787 2.95591 0.896394 -0.630755 0.17126
742 17.4378 6.16053 2.31276 -0.799169 0.757434 -1.22137
1758 16.8643 7.06797 2.94169 -2.03754 -0.170838 -1.43499
1567 17.1296 7.12996 1.90798 0.585272 0.224678 -0.626412
3967 1.08295 7.65754 2.15332 1.15218 -1.88424 -0.866917
3336 0.699373 8.68311 1.88401 -0.150004 0.522541 0.411558
1355 1.85458 8.16777 1.49375 -0.723265 -0.769815 -0.107563
603 1.71588 8.35755 2.86093 0.719647 0.271431 1.51485
903 2.54246 7.51608 2.52192 -1.09989 -1.11623 -0.0715355
3715 4.21588 8.35558 2.87599 1.00272 0.460743 -0.592497
3 3.52966 7.98445 2.01015 -0.587012 -0.337175 -1.11845
3963 5.56638 8.54205 2.76233 1.15582 -1.7317 -0.722954
2302 5.2635 8.71987 1.82737 0.511897 1.5669 -0.733546
852 4.88016 7.5486 2.35899 0.0698914 0.0830625 -0.902647
3911 6.60999 7.47496 2.65345 -0.73274 -1.28023 1.17936
1949 6.65526 8.34776 2.00754 0.504171 -0.149259 0.419953
2422 7.47494 7.57748 2.08566 -0.243671 0.837232 -0.0434371
3694 8.91179 8.44611 2.58552 0.594015 2.1156 0.29944
2797 9.82157 7.75733 2.28157 -0.497205 -0.906986 -1.69055
1062 10.652 8.62696 1.73349 0.154933 -1.64095 0.894371
180 11.4532 8.30955 2.31727 0.111965 -0.862076 -1.13766
1414 12.3206 7.49355 2.21199 -0.340862 0.212179 1.92111
1814 13.1677 8.09785 2.06175 -1.03948 0.129976 -0.214739
247 14.1869 7.63159 2.29793 0.546574 -2.5393 -0.0152119
3661 13.8192 8.931 2.05291 -0.618495 -0.339465 -0.866665
45 15.2374 8.63136 2.13103 0.247011 -0.151496 0.809693
8 17.8139 8.03333 2.42972 0.345717 0.191705 0.832252
639 16.556 8.05793 2.89231 0.139671 0.758562 2.35709
3206 16.7309 8.22831 1.90786 -0.783527 -1.0679 0.345011
2243 1.06509 1.38506 3.35049 1.22173 -0.908539 -1.42229
2688 0.370342 0.720712 3.83868 -1.15517 -0.381068 -0.211153
305 1.81503 0.78815 3.75529 0.089876 -0.443604 1.09569
1319 2.9598 0.177512 3.54393 0.0257545 0.0472959 -0.756553
2482 4.1096 0.788652 3.30888 -0.378942 -0.541729 0.406212
363 3.04302 1.29601 3.77552 -1.57396 0.583997 -0.577872
86 3.71445 0.653569 4.25382 -0.597323 -1.70423 -0.775558
2495 4.92861 0.317441 3.63035 -0.792081 -0.477643 0.219168
3992 5.61059 1.02842 3.91477 -1.27221 1.02919 -0.0598061
1840 6.01998 0.411574 3.2266 1.6274 -0.784254 -1.21628
1964 6.36014 1.26968 2.98148 2.54938 0.916527 0.302431
2972 6.74748 1.17286 4.18791 1.13248 -1.19283 -0.616324
2288 7.41925 0.576451 3.09836 0.81538 -0.475348 0.0274595
304 8.67048 0.0688501 3.93287 1.45733 -1.09728 0.585085
1150 7.89072 0.842158 4.11186 -0.611389 -0.346455 -0.648448
3406 10.0775 0.653097 4.4354 1.18621 0.0957514 -1.21447
3529 9.31738 0.757066 3.71964 -0.500798 0.100013 -0.791662
2325 11.3412 0.299487 4.18646 0.98759 -1.3789 -2.53229
414 11.8623 1.07434 3.73471 -0.262117 1.75452 0.33532
554 10.874 1.34306 4.35727 0.544599 0.804647 -0.800419
57 10.6336 0.695354 3.46448 0.112101 2.2261 -0.0112274
573 13.189 0.590159 3.36892 -0.853901 -0.880019 0.0584992
3575 12.3093 0.0733706 3.62717 0.469961 0.626449 -1.22392
2060 13.9372 1.46652 3.76056 -0.963369 0.493116 1.67562
3252 14.9513 0.0996092 3.77204 1.27081 -0.447415 -0.679019
2313 16.7107 0.22922 3.32864 -0.695745 -0.0149637 -1.71905
1042 17.1521 0.640798 4.20936 1.60001 0.181974 -0.9201
1452 0.154546 2.41245 3.53661 -0.24739 0.871029 -0.886595
1479 0.188089 1.61905 4.40082 1.11301 -0.0884424 3.34836
3839 1.19721 2.35304 4.0237 -0.370032 0.793049 0.801574
3664 2.71496 2.4955 3.1506 0.5963 -0.439192 1.54241
1531 2.00116 1.71442 3.13219 0.712854 0.140316 -0.0616894
219 2.2801 2.08215 4.36126 -1.28766 -0.142192 -0.761501
2368 3.517 2.76379 4.09599 0.263314 0.138498 1.07769
2837 4.29639 1.78704 3.98316 -0.980919 -1.01329 0.216179
529 4.78642 2.70737 4.0162 0.00091195 0.663082 1.2923
810 5.53051 1.97158 3.59269 -0.205158 -0.392216 -1.73358
732 6.61432 2.2728 3.83979 1.42302 0.654252 1.21352
666 8.81643 1.49355 3.27512 -0.301768 -0.222827 -1.43094
2816 7.62379 2.66009 3.72313 -0.778151 -0.00785726 -0.00255479
2615 8.71383 2.76193 3.74987 0.341611 1.16747 -0.76527
724 10.0537 2.94731 3.61318 -0.290005 -1.40198 -0.288292
3500 9.47392 2.0848 4.15836 -2.13563 -0.247176 0.542707
274 11.0769 2.47385 3.15419 -0.288243 -0.576335 0.869393
1185 10.9091 2.39827 4.27321 0.107413 0.740157 -1.77572
647 13.3797 2.30639 4.33219 1.99451 -0.232707 0.290782
2084 13.2671 1.97917 3.31734 -0.436282 0.939605 2.016
1956 12.2266 2.47031 3.47038 -0.982214 -2.42251 0.405402
1669 11.9386 2.126 4.39058 -0.747524 0.529017 0.631314
703 12.7761 1.50952 4.0904 -0.16466 -0.649851 -1.97956
3269 14.1703 2.48557 3.35647 0.398763 0.0189366 -0.780677
1816 15.2077 1.53003 3.34857 0.0761128 0.179224 0.408663
1033 15.9571 2.27883 4.38993 -0.546271 -0.977372 0.461033
3613 15.1826 2.63663 3.65189 1.32485 -1.08513 -0.749279
2242 16.4001 1.61826 3.89027 -0.631714 1.0493 0.372542
435 17.2329 2.08919 3.01172 0.99092 1.10943 -0.698659
1231 16.9688 2.66154 3.87544 1.15503 -0.727243 -0.160384
2710 0.936429 3.6649 3.76542 1.36517 -2.61488 1.94787
2952 0.2139 3.13573 4.30677 1.86103 1.69839 -0.16996
3690 2.17061 3.1775 3.94571 -0.159608 -0.126381 0.813709
2925 2.21585 4.20412 3.44052 -2.45795 -0.647175 1.82768
87 1.61741 4.25268 4.30754 0.522875 0.419216 0.826983
3934 4.12209 3.74613 3.05318 -1.136 -0.68906 1.5246
1262 3.14759 3.69233 3.90645 -0.527382 0.767428 0.218448
389 3.28081 4.4339 3.21727 0.091112 0.619051 1.08905
382 4.89673 4.40512 3.86548 0.624161 0.484804 -2.02895
1406 5.95543 4.16153 3.26924 0.477217 -1.37972 0.598001
1200 5.62053 3.56896 4.11689 -1.81779 1.46044 -0.630734
2067 7.14795 3.51051 3.25286 1.19954 -0.248533 -0.128433
2441 6.63052 3.29698 4.07239 -1.08943 -0.256455 -0.676154
3377 7.10315 4.28432 3.7372 2.39478 0.239334 0.434455
3391 8.03936 3.73654 3.68778 -0.715741 0.0142211 -0.0329919
2449 8.80688 3.8067 3.01161 1.35819 1.02072 0.822283
2227 9.14179 4.07499 4.32647 -1.61927 0.0464673 0.776485
1852 9.78298 4.02636 3.39466 1.48654 0.584309 -0.661699
2535 11.5944 3.36073 4.13241 0.527296 1.30824 -0.0698726
2111 10.6904 3.9677 3.93649 -1.11392 -0.59496 -0.880584
3982 12.3633 4.14318 2.98972 0.0463025 0.663881 -0.995119
3663 12.5559 3.72024 3.99586 -1.57466 2.06068 -1.29704
919 13.4526 3.24158 3.58636 -1.06254 -0.214044 -0.0208676
2314 14.4964 3.53584 3.69286 0.826035 -1.55478 -0.330212
413 13.4425 4.39875 3.55636 -0.832459 1.27348 0.109069
520 15.3035 3.67719 2.99368 -0.58677 0.808558 0.603645
175 16.0973 3.05375 3.56495 0.46986 -1.93125 0.355682
2804 16.3098 3.94623 2.98435 0.993075 -0.323356 -1.33451
97 15.7264 3.83779 4.16469 -0.419698 1.36016 -0.138098
3118 17.1765 3.65986 3.8008 0.779035 -0.251154 -0.0278943
24 1.19298 4.769 3.50525 0.464118 0.401094 0.789953
2751 0.556527 5.71245 3.01196 0.51183 0.335602 -1.28904
1222 2.55501 5.41445 3.09401 0.982356 0.229601 1.45814
3859 1.57502 5.80887 3.39546 -1.06803 0.896083 0.711186
3233 2.88857 4.81487 4.0922 0.364235 0.728603 -0.632301
431 1.69639 5.64683 4.44375 0.450652 0.406591 0.249133
2480 3.76616 5.4218 3.43194 -0.656904 -1.54963 -1.65783
2503 5.82742 4.92271 3.94085 0.0637548 1.27006 -0.948532
285 4.95858 5.37439 4.35783 -0.958746 -0.0228672 0.416333
14 4.88019 5.40285 3.34259 -0.781379 -1.28843 -0.613135
1767 6.82992 5.30513 3.24791 -0.937536 1.02354 0.988763
3809 6.74868 5.29007 4.36594 1.42817 -0.300363 0.599374
1289 5.98564 5.89467 4.37183 0.932737 -0.128673 -1.37165
997 8.88865 4.82309 3.04792 0.0339893 -0.924381 1.92494
2793 8.054 5.48601 3.64183 0.210703 0.275161 0.436238
3090 10.2863 4.91797 3.17481 -0.517699 0.414483 0.733139
34 9.83259 4.90332 4.26331 -0.767364 -0.626114 -0.352953
1516 9.05371 5.58035 3.71967 2.18827 -0.0686547 0.495255
3194 11.4041 4.60736 3.07534 0.842296 -1.05463 0.509325
968 10.631 5.69176 4.14111 -1.09819 0.72337 -0.21585
2803 11.5225 4.66059 4.21077 -0.151904 0.570332 0.951248
3989 12.4756 4.81798 3.76625 0.159952 -0.476826 -0.387708
1392 11.9898 5.83162 3.58772 0.245601 -0.707686 1.51639
3433 12.9406 5.7579 4.30877 1.14608 -0.619358 0.294449
48 14.537 5.65715 3.11578 0.327522 -1.40868 -0.0231929
2116 13.4548 5.57484 3.46996 -1.63017 1.70933 -1.08862
2366 14.9032 4.66412 3.79698 0.6441 -0.579449 -0.827159
2588 15.8667 4.77037 3.51114 1.01006 -0.462364 -0.448911
2182 15.1985 5.68939 4.01163 -0.66957 -0.0518529 1.10983
1780 17.0525 5.05613 4.10877 1.06488 -0.708008 -1.36226
1409 17.6236 5.90808 3.82012 0.612311 -0.944192 0.846531
3101 1.12959 6.52501 3.97733 0.12719 1.96207 0.411564
3386 0.0948036 6.95106 3.96158 0.981603 0.158555 -1.20948
1896 0.934656 7.16892 3.27178 0.719074 0.457659 -0.580624
2025 1.99757 6.80423 3.08866 -0.411869 -1.2649 -0.962167
1983 2.82368 6.01028 3.94507 -0.0746117 -1.12917 -0.728763
1647 4.37144 6.51333 3.17395 0.212984 -0.486233 -1.29817
140 3.62234 7.43544 3.01318 -0.594338 -0.369815 -1.15528
1650 3.54576 6.79071 3.79471 0.925832 -0.75963 -1.51075
3744 4.1535 6.10371 4.208 -1.06355 1.25072 -0.979473
3308 5.33204 7.40506 3.24803 -2.16726 1.29934 -0.232475
2036 5.61448 6.18555 3.28386 -0.544112 0.352706 0.173352
3975 6.7067 6.49932 3.35709 0.961515 1.2692 -0.030972
2454 6.33192 7.11652 4.42275 -0.713787 0.359271 0.656346
3237 7.89716 6.39429 3.52126 -1.24848 -0.0534413 0.643862
2536 8.92552 6.71559 3.67307 1.0495 1.54515 0.0393363
1750 8.46293 6.11056 4.45009 0.783745 0.477405 0.898535
3107 10.1551 6.7638 3.9061 -1.25814 1.66063 -0.176512
1782 11.1582 6.61153 4.3646 -2.06697 -0.366448 0.15716
2247 10.8198 6.33738 3.08605 -0.221857 -0.845212 1.09367
1480 11.4606 7.29012 3.32641 -0.476942 -0.600838 -1.46766
733 13.2682 6.78099 3.44647 -0.633638 1.54566 0.550706
1656 12.3215 6.74679 4.02486 -0.0864886 -1.10551 -0.553685
2784 14.0471 6.08112 4.20139 0.951114 -0.348162 -0.960831
1674 15.5054 6.63188 4.43673 1.13224 0.529828 0.617775
3637 16.2985 5.99759 3.60047 -0.576755 -0.0153368 -2.40578
3991 16.3727 7.29214 3.77224 -0.74939 0.406529 -0.00720224
373 15.5248 6.33612 3.15632 -0.707453 0.206209 -0.155295
665 1.32747 7.48513 4.30514 0.0371134 0.504944 0.189294
1398 0.441385 7.94193 4.0328 -1.7255 0.380748 -0.537701
2521 0.739637 8.13962 3.06818 -0.496159 0.0485479 -0.186009
546 2.40399 7.63481 3.69598 -0.787902 -0.823691 -0.854617
1836 2.91173 8.34953 3.05898 0.707188 -1.22626 -0.164765
929 1.66158 8.66058 4.0624 0.707233 -0.125769 1.27126
3908 4.03716 8.68458 3.893 -1.21906 -0.163188 0.853448
2699 3.30043 7.94155 4.1492 1.39516 -0.920693 0.403528
3651 4.38742 7.46573 3.68292 -0.59493 -0.174208 -2.70842
3207 5.18409 8.47401 4.2425 -0.330068 -1.59013 0.0938621
3556 7.23002 7.84681 3.54181 0.850555 -0.310988 0.78723
1328 6.06743 8.01008 3.75323 0.68399 -0.512841 0.611278
3611 6.58365 8.78647 3.02502 0.566685 -0.613972 -0.0788388
2853 6.45286 8.82324 4.1923 1.28116 1.25765 -1.96609
2900 7.65478 8.24241 4.44127 1.67283 1.88548 -2.16327
1302 8.34964 7.53552 4.0931 -0.669673 -0.953 1.79758
2813 8.33621 8.57262 3.4128 1.00455 0.431341 -1.95841
1426 9.75911 7.69485 3.39166 0.165404 -0.00478348 -0.417089
750 9.1619 8.42006 4.08077 0.359057 -0.947791 -1.06248
2846 10.6894 8.24367 3.02621 1.96556 1.27365 1.4188
686 11.1541 8.82507 3.88365 0.464027 -0.270825 -2.15731
2175 10.5666 7.83219 3.96658 0.517101 0.677709 0.0867346
3549 11.9372 8.34625 3.48397 1.82766 -0.343838 0.805434
1273 12.6845 7.77521 4.43711 -1.24365 -0.41284 0.845581
2842 12.6649 7.70116 3.20702 -0.941497 -0.673971 0.193176
795 13.2136 8.64085 3.18328 1.13754 0.241149 -0.193774
1469 13.7549 8.80818 3.98188 1.07935 -0.685071 -0.986295
2766 13.8544 7.55751 4.38965 -0.360367 0.214222 0.129729
885 14.2619 7.84137 3.51077 -1.69872 0.300158 -0.907169
1490 14.8487 8.81102 3.984 -0.130946 0.141845 0.562656
2929 15.1489 7.68852 4.05089 1.02873 -2.25463 0.314237
3383 15.6205 8.38461 3.06028 0.170541 -0.403115 -0.429462
1926 16.426 8.31711 3.92356 -1.35897 -0.446308 0.244494
694 17.3526 7.75196 3.53688 1.01802 1.21526 -1.41798
2460 1.24953 1.1882 4.91136 0.0964252 0.856944 -0.262052
1060 0.690086 0.736093 5.69711 -0.336953 0.553193 -0.118598
1438 0.119673 0.587663 4.91904 -0.45167 0.413686 0.490201
469 2.40113 0.965776 4.63404 0.996327 0.55997 1.01847
3403 1.87847 0.263251 5.20853 -1.21482 -0.801842 0.0990614
1742 3.30252 0.594103 5.31481 1.83146 -0.493503 0.0113653
1499 4.35979 0.262978 5.83042 1.18682 -0.2045 -0.750496
2818 5.33367 0.359105 5.2366 -1.06232 0.0371279 0.111465
1101 4.75573 0.837457 4.47999 -1.13053 1.00775 -0.807054
3363 7.06018 0.819504 5.76753 0.998851 0.320046 1.62911
3388 6.3557 0.356752 4.73557 0.425654 -1.19642 -0.345611
2859 6.06557 1.19766 5.27781 -0.936837 -0.766411 0.684992
3021 8.78178 1.31109 4.65791 1.31355 1.64312 0.0259831
2878 8.21909 0.769467 5.83276 0.967013 -0.195771 -0.633097
1598 7.6262 1.19755 4.97052 -1.59897 0.26746 0.485368
2626 9.81053 0.156555 5.66485 -2.6958 0.756839 0.105995
1087 8.96528 0.276898 5.11308 1.77921 0.887288 0.722104
3187 11.7263 1.43987 5.25899 -0.764186 -0.16193 -0.0892839
3045 10.6911 0.810684 5.35838 1.1265 0.48579 -0.556843
2200 11.6648 0.138641 5.40282 1.37966 -0.303859 1.37877
3733 12.61 0.983665 4.95725 -0.578507 -0.306246 1.32529