ITEM: TIMESTEP
71000
ITEM: NUMBER OF ATOMS
4000
ITEM: BOX BOUNDS pp pp pp
0.0000000000000000e+00 1.7878070701931353e+01
0.0000000000000000e+00 1.7878070701931353e+01
0.0000000000000000e+00 1.7878070701931353e+01
ITEM: ATOMS id x y z vx vy vz
1537 0.910692 0.325435 1.38882 1.40621 -0.299312 -1.43007
2106 0.788292 0.158967 0.188983 1.5192 0.0013847 0.0451307
3641 0.583911 1.20595 0.66046 0.474097 -0.08655 -0.330663
1021 1.89281 0.849497 0.991883 1.05004 -2.76702 0.0530551
2320 3.28216 0.904409 0.610872 0.748078 -1.54294 1.22982
2969 2.99175 0.128929 1.17678 1.21818 -0.873564 -1.62406
395 4.41643 1.19837 0.758129 -0.389384 -0.49186 0.730548
2435 4.62167 0.236497 0.391432 1.15278 0.902968 1.94988
2061 5.738 0.836528 0.443804 1.4648 0.242307 -1.27135
1835 6.72437 1.01159 0.984009 -0.0745279 0.0323995 -1.39709
1973 7.19706 0.050687 0.305226 -1.12745 0.814858 0.298392
2823 8.68937 0.410826 1.34809 -0.200348 -0.782306 1.30236
2402 8.10691 0.752816 0.26008 1.55171 -0.194902 1.3234
1730 7.70618 0.781976 1.27462 1.32268 -1.20155 -0.428003
902 8.96868 1.40444 0.757349 -0.136677 0.857215 -0.350694
3592 9.01875 0.244766 0.310738 -0.572035 0.951484 0.443212
3339 9.90957 0.818517 0.441756 0.215292 0.612804 0.0261035
2105 11.2036 0.651099 0.345961 -0.955101 0.309562 0.295381
853 11.5133 0.170237 1.30167 0.448995 -0.28882 -0.409836
2927 11.4082 1.13811 1.34302 -0.932329 0.708436 -0.538506
1800 12.3602 0.344879 0.585066 0.580851 -0.876405 -0.701865
687 13.2198 0.674515 1.37299 -0.687703 1.23409 1.60426
3123 13.4153 0.246761 0.311639 -0.225052 0.344675 1.77116
155 14.7956 0.389646 0.022302 0.561194 0.254151 0.038636
2868 15.9727 1.02884 0.628472 -2.38529 -1.26566 0.82522
1393 15.8645 0.0931103 0.175376 -1.19594 -2.0269 -1.94167
2708 17.5601 0.764502 1.0427 -1.91296 0.758677 -0.994698
3777 16.9734 1.02299 0.286899 1.25896 -0.609297 -1.012
3175 0.793033 2.60209 0.339642 -0.416174 1.28229 -0.665755
3170 1.59031 1.93939 0.579411 0.102124 -1.29629 1.39339
349 2.58711 2.31303 0.52336 -2.06164 0.955584 0.15741
1694 3.84547 2.00833 1.05949 -1.29691 0.934877 0.517812
2155 3.5615 2.95755 0.653983 2.57868 0.922964 0.461733
2764 5.78035 2.7979 0.472843 0.821837 0.568377 -1.84742
381 5.24714 1.82789 0.656023 -1.59134 0.724046 -1.50946
1547 4.63665 2.67884 0.588089 -0.322232 1.10483 -1.20164
378 6.85524 2.07426 0.909266 -1.95924 1.00288 -0.310655
2972 7.69957 1.74751 1.47119 -0.289174 -0.507955 0.246036
1820 7.57384 2.89811 0.446842 1.75079 -0.0668727 0.20767
3041 7.59716 1.67552 0.344825 -0.769745 -0.357173 -0.875166
3232 8.7191 2.32917 0.386314 1.37203 -0.662817 -0.938329
2157 9.50671 2.25704 0.986519 -1.80013 1.01379 -1.42285
2134 10.323 1.63799 1.20565 -1.22509 -0.828333 -0.174615
2874 10.3707 1.89633 0.245782 1.39878 0.557446 0.773306
1671 10.5749 2.74322 1.0499 -0.366556 -0.762219 -1.19505
3762 11.8192 1.76418 0.312531 -0.163127 -0.648002 1.29645
758 11.8065 2.78604 1.02674 -0.66969 0.606252 -1.50057
819 12.6645 2.12207 0.986135 0.191709 -0.181158 -0.557209
1640 14.5906 2.6879 0.665669 0.0863992 -0.14065 -0.51766
1967 13.528 2.5621 0.0605454 -1.23586 0.67329 -0.96791
1096 13.9776 1.71974 0.908604 0.997527 -1.85046 0.105781
3600 15.36 2.00024 0.966674 -0.0231377 0.243645 -0.839846
2598 16.3239 1.9795 0.395445 0.290378 -0.239031 -0.0867388
2032 15.8135 2.75961 1.47094 0.741222 -0.893517 -1.37196
2389 17.6062 1.85636 0.977153 0.582371 0.977656 -1.45759
2007 17.256 2.84336 0.927695 -0.47925 0.0531379 1.68538
2922 1.3126 3.88314 0.794536 1.41347 -1.40718 0.378395
2500 0.221004 4.21289 0.680553 -0.277258 1.71358 -0.135591
1690 2.07899 3.37278 0.403104 1.42505 0.318086 -1.01384
475 2.30715 4.42536 1.12426 0.673721 -0.0519762 -0.948315
465 3.5682 4.25163 1.4157 0.294133 -1.35312 1.37261
823 4.2065 3.59248 0.0355613 0.455881 0.00152924 -1.59526
3721 5.05849 3.49555 0.901747 0.161107 -0.887465 -1.78483
3809 5.56214 3.96285 0.141916 -0.0264599 0.481027 -0.722341
2629 5.63639 4.31372 1.27926 2.53773 -0.172328 1.45599
1569 6.61086 3.35372 0.809259 -0.523545 2.17234 -0.148909
1974 7.51714 3.9469 1.06593 -0.595735 0.312547 0.156393
803 10.2118 3.90007 1.12923 -0.0762624 0.506242 -1.63239
499 9.06999 3.83011 1.42676 0.317997 -0.10602 -0.331546
2730 9.33113 3.41605 0.424312 -0.680728 -0.492709 1.34403
1388 11.2414 3.67734 0.726849 0.0670226 -0.824103 0.494344
532 10.7019 4.42139 0.26838 -0.940927 0.395008 -0.974371
3100 12.1749 3.50048 0.398604 1.63384 -0.95566 -1.78863
1840 12.7682 4.13426 1.13026 -1.2814 -1.22928 0.171266
1861 13.0248 3.12234 1.16755 -0.579206 -2.45496 0.353298
1279 14.0136 3.53153 0.749555 0.132175 -0.707722 0.0395509
2956 13.9184 4.41129 1.43361 -1.05414 2.28164 -0.994295
1060 15.9066 2.98287 0.288549 -0.837878 -0.288143 0.800744
337 15.0272 3.67145 1.12398 -0.421712 0.754057 -0.919033
153 17.1649 4.46844 1.44836 2.20752 -1.47413 -0.798383
2723 16.4306 4.23683 0.010212 -0.382334 -0.301415 0.176279
3551 0.633523 5.31277 1.12559 -0.924855 -0.223564 0.0921737
1432 1.62479 4.59569 0.0136875 0.274502 -1.91482 -0.305516
3158 1.88055 5.50857 0.369517 0.132116 0.339335 -0.86512
2962 4.43698 4.50005 0.316491 1.13672 -1.76038 -0.940512
1488 3.89152 5.32801 0.708451 0.772689 -1.16059 0.00912043
1781 5.85307 5.51538 0.30114 -2.35956 0.685653 0.368513
1595 4.90522 5.39117 0.840976 -0.107084 -0.00847656 0.728892
464 6.47873 4.72211 0.782729 -0.423259 1.28334 -0.941309
3136 7.19683 5.70284 0.0490864 -0.933781 -0.159177 -0.873741
2747 8.53952 4.91022 1.02389 0.277884 0.785055 2.06743
3668 10.1826 5.49344 0.0380035 -1.30946 -0.927255 -1.34651
1558 9.48627 4.5044 0.418553 0.98248 0.235784 0.415561
3515 10.2519 5.39112 1.22056 -0.0872366 1.10632 -0.91144
1131 11.6189 5.59776 0.701183 0.498989 0.23844 -0.556651
725 11.0073 4.64425 1.25279 -0.74308 0.446807 0.72237
690 12.1222 4.74178 0.36658 -0.663414 -0.34329 -2.87373
3976 13.31 4.87939 0.401799 -0.32329 -0.145726 -1.38719
3224 12.5754 5.817 0.740599 1.27193 -0.376545 0.873291
847 13.9763 5.93618 0.263118 0.00143104 -1.101 -1.59707
600 14.8969 4.72789 1.29585 0.444815 0.248195 0.0357299
2542 16.113 4.94655 0.856099 -0.479602 1.53901 0.879928
108 14.9171 5.79952 0.557865 0.108982 0.186006 -0.465837
1725 15.2562 4.5108 0.335776 0.228189 0.84548 0.479549
2624 0.970585 6.22622 0.720102 -0.0542031 0.942768 1.19476
2495 0.740434 7.24192 0.998713 -1.17513 0.905718 0.548299
577 1.96465 6.83083 0.806758 2.10674 -0.297156 0.471198
3703 2.68774 6.30552 1.38414 -1.20016 -0.00395259 -1.52081
3560 3.52526 6.24427 0.762189 0.975787 -0.610228 2.58382
3083 4.38746 6.93525 0.669321 -1.11576 1.27566 0.828615
130 5.82112 6.07935 1.28957 1.35681 1.36777 0.67726
3688 5.43289 6.96041 0.320709 -0.191238 -1.44389 0.750951
3325 6.6486 6.55536 0.942639 0.138506 -0.427468 -0.942906
2029 7.49138 7.09201 0.746523 -0.446113 -0.788436 0.337788
3007 9.0158 6.71353 0.573574 0.144076 2.84188 1.76013
77 10.0839 6.65163 1.41016 1.30452 -1.86973 -1.51776
2183 10.3584 6.40776 0.32477 -1.15656 -0.358448 1.75249
3161 11.349 6.58721 0.747946 -0.352885 -0.173946 0.386065
2553 10.6403 7.3788 0.53172 0.497978 -0.852357 -1.0255
1827 12.5337 7.063 0.386932 -0.463792 0.247221 0.376098
3589 11.9855 6.26688 0.00211955 1.13713 0.19975 -0.648114
2786 14.1935 7.04963 0.899911 -0.428746 -0.363871 -1.6806
467 16.3511 6.51831 0.0219605 0.228849 1.74912 0.147058
2831 16.1185 7.11548 0.921896 0.417718 -1.74028 0.371709
342 15.1613 7.00096 0.671983 -0.944075 -1.4523 -0.730474
2695 15.5763 6.22896 1.366 0.38308 0.988688 0.314441
3798 16.7665 7.41781 0.140068 0.696442 -1.11925 1.20793
2028 17.555 6.31521 0.333339 1.27475 1.73073 -1.33209
3637 16.5534 6.17 1.15499 -1.1071 -1.54879 0.244699
2804 1.32451 8.82135 0.26735 -0.397728 0.839717 0.240921
1863 0.13043 8.00732 0.598468 0.487453 0.508082 0.127353
344 0.728669 8.91373 1.25269 -1.51622 0.0746163 0.0270072
1369 0.266386 8.84738 0.209177 0.261176 -1.07065 0.703568
119 1.744 8.44279 1.25884 0.325059 -0.36635 0.302123
1894 2.7688 7.68387 1.45455 -0.188875 -0.890248 -0.291098
3374 3.45358 7.61222 0.597008 0.260375 -1.64488 1.13538
2532 4.29869 8.16946 0.847979 0.297343 0.61644 -0.254743
295 3.50877 8.82007 0.961872 0.750223 1.47269 -1.78061
2198 5.69365 8.65962 0.894638 0.284454 -0.110141 -1.29241
3940 5.33119 7.94977 0.00258573 1.32824 1.20229 -0.989558
508 7.12599 8.02217 0.676744 0.525846 0.34783 -0.944624
3638 8.86315 8.4617 0.571442 -0.113624 -1.16716 0.514396
3580 7.81071 8.47556 1.31332 -0.0427833 -0.459795 -0.502371
2833 8.48422 7.55276 0.902263 0.0199893 0.0983502 0.365196
150 7.78804 8.38984 0.0160768 -0.053224 2.62288 0.919548
3280 9.67137 8.78732 1.24096 1.01707 -0.799274 -2.53749
3416 10.8254 8.2137 1.38117 -0.206919 -0.224482 -0.403363
3461 11.2748 8.57023 0.0745887 -0.178023 -0.646291 -0.0807007
625 13.3694 7.74661 1.47209 -0.744361 0.818973 -0.664414
1770 12.5114 8.10432 0.73882 0.529732 -0.836569 -0.0159358
741 14.2984 8.06878 1.04843 -0.278558 0.913076 1.78084
1514 13.5237 7.89485 0.464701 -0.0676704 0.496321 -0.809404
726 15.6509 8.13175 1.39032 0.155175 -1.15476 1.10468
667 15.5386 8.14783 0.359317 0.222407 -0.39898 1.36905
262 14.9606 8.84937 1.47949 1.3248 1.69891 -0.178134
3357 17.2488 8.52578 0.0099341 -1.59278 -0.519931 -0.967856
2914 17.4914 7.45736 1.36843 -0.387448 -0.500405 0.0953676
1457 16.5956 8.28026 1.06141 -1.84097 0.589136 1.07889
1093 0.795525 1.35604 1.95681 -1.5861 0.392146 -1.41591
3967 0.859902 0.640031 2.66289 1.99471 -0.695344 -1.07314
1803 1.85838 0.995618 2.12215 1.09312 -1.49194 0.611252
775 2.84586 0.594707 2.3428 -0.387232 0.700762 -0.479494
1947 2.56824 1.3557 1.50643 -1.57679 -1.44334 0.176019
3036 2.63714 1.47842 2.83641 0.693971 -1.08785 0.195716
3724 4.3551 0.0748676 1.51056 -1.14774 0.0935731 -1.98134
2432 3.92965 1.01723 1.7056 1.57883 -1.53655 2.03089
3543 3.83005 0.646695 2.7981 1.58231 -0.981045 -0.671487
3975 5.81642 0.794329 1.50564 -0.954631 -1.11186 1.45509
1978 5.23732 0.582517 2.34434 -0.873437 0.625897 -0.0698597
3074 6.45806 0.00921542 1.53605 0.733346 -0.46907 0.34009
898 6.20296 0.880279 2.58337 -0.329128 0.700247 -1.59192
256 7.29847 0.915704 2.3711 -0.135847 -0.0745679 -0.080635
1610 8.35616 1.33461 2.05206 0.789903 0.73495 0.575192
248 8.13761 0.0220206 2.31941 -0.6904 -1.62148 -1.27891
1480 10.1133 0.404886 1.56452 -1.62726 -0.0372436 0.184183
1285 9.44252 1.40301 1.78133 1.26082 0.347284 -1.28757
3477 9.7533 0.339563 2.51549 -1.24325 1.30112 0.993944
3264 10.607 1.13333 2.50313 1.29686 -0.142091 0.160137
3545 11.5728 1.28298 2.51628 -1.69094 -1.32685 1.41366
1411 10.8013 0.0619046 2.34884 -1.41305 0.60384 -1.36459
2270 13.2397 0.817058 2.45203 -2.55836 -0.258578 0.257161
664 12.3764 1.19968 1.82366 -0.436483 -0.0569233 0.483232
2407 12.4844 0.00311879 1.80944 0.00566907 1.30042 0.620994
670 12.2648 0.355206 2.82339 1.11772 1.19221 0.751007
348 14.2819 1.10603 2.45751 -1.07571 -0.306916 2.23952
1740 14.7183 0.228948 2.42955 0.901329 -1.29291 0.816084
1890 15.1862 1.05791 1.70685 0.57982 -0.443514 0.890338
1211 15.7656 0.287496 2.76756 -1.09354 -0.047107 0.613767
2473 15.3534 1.39755 2.68054 2.1395 1.02867 -1.30292
2635 16.5097 0.698705 1.65187 -0.374995 0.799412 0.379862
3785 16.6357 1.01182 2.78955 0.392848 -2.66948 1.07836
589 17.7203 1.34109 2.63233 -0.767127 -1.01294 0.297483
1703 17.5897 0.315953 2.11321 -0.431879 0.191873 -0.528891
354 0.0515197 2.32242 1.99271 -1.64713 -0.499895 -1.35368
2510 1.01877 2.1793 2.6544 1.11808 -0.292446 2.68982
1589 2.74689 2.53653 1.934 0.7264 2.05019 -1.14862
2683 1.59054 2.15847 1.79216 -0.422146 0.548741 1.02366
3355 3.53085 1.79482 2.29536 -0.0531491 0.0803467 -0.714214
812 5.91575 2.55034 1.53091 -0.704688 2.19857 -0.567153
28 4.58659 2.79819 2.65747 -0.683131 -1.11326 -0.426327
3130 4.68352 2.33719 1.71543 -0.751651 1.58587 -0.377487
3084 5.47207 2.19402 2.43889 0.917095 0.643348 -0.0163485
1241 7.28319 2.89451 1.6099 -0.0688737 1.7592 -1.42529
331 6.74094 2.60579 2.4872 -1.00535 -0.694047 1.15445
1972 6.53748 1.61496 1.89244 0.452111 0.724111 0.79779
774 8.44022 2.62025 1.7441 1.15764 -0.549817 -0.281194
212 7.80656 2.05048 2.69435 -1.15364 0.887329 -1.88222
1149 9.35091 2.95726 2.25991 -0.559946 -0.333681 0.675994
114 9.12145 1.85346 2.68974 0.371397 -0.452314 -1.47088
3805 10.2358 2.08315 2.4092 0.449473 -0.791419 -0.662499
2114 11.5135 2.28871 2.89537 -0.326582 -0.134051 -0.123609
3836 11.1114 2.20139 1.86233 0.367058 1.23995 0.713631
2861 12.5342 1.76696 2.74498 0.780661 0.0993171 2.46293
3443 12.2028 2.48179 1.79893 0.39906 -1.68254 1.5229
2800 13.122 2.72731 2.12795 0.542144 0.688294 -0.715577
608 13.2767 1.75811 1.80201 0.229486 0.544989 -1.27104
2666 13.5599 2.03535 2.90253 -1.47949 1.18556 -0.340499
2784 13.8756 2.65234 1.51344 0.817443 0.829991 -0.856935
116 14.1487 2.90211 2.62871 1.34281 0.228684 0.982964
2080 14.7635 2.11039 2.08498 1.96215 -0.0595728 -0.929594
709 16.2637 1.8279 2.17668 1.4359 0.227009 0.208521
3625 15.5219 2.86272 2.52548 -0.00887423 -0.523813 -0.211721
3098 16.9173 2.63422 2.29718 -0.212147 -0.237406 -0.870381
651 1.06946 3.36657 1.67478 -0.293203 -0.043847 -0.74799
804 2.04404 3.30207 1.97575 0.273793 0.334461 0.0616839
361 4.27482 3.76347 2.43991 0.472642 1.28649 0.313577
3160 3.14372 3.39668 2.61813 0.972566 0.0857897 -0.948726
1459 3.87319 3.03075 1.69769 0.243534 0.513679 -1.43319
1271 4.68064 4.35713 1.52928 0.233643 -0.187151 1.469
1310 5.28357 3.28475 1.97262 -0.706946 1.19306 1.2206
1290 5.82996 3.0213 2.91773 -0.73986 -0.15183 -1.5585
2667 6.77872 4.07372 1.82361 0.206304 -0.209749 -0.70512
2866 6.0186 4.4466 2.32408 0.291431 0.344325 -2.07145
2384 6.72572 3.77473 2.83106 1.02731 0.521135 1.75395
3092 8.12961 4.40141 1.77519 -0.619642 0.202891 -1.90915
885 8.02254 3.53946 2.34434 0.728912 1.18441 -0.822064
3907 10.1606 3.6346 2.16117 -1.26797 0.526058 -0.405268
1289 9.24082 3.96238 2.76172 -0.0133706 -0.0558508 1.20674
3882 11.1419 3.20875 1.76964 -1.75628 -1.82183 0.561271
3145 11.0377 4.33312 2.2719 -0.990275 0.258599 0.638253
3851 10.9793 3.18694 2.85217 1.57475 -1.88958 -1.62711
2663 12.2616 3.502 1.82878 1.1039 -0.51435 0.33495
222 12.8366 4.35259 2.1531 -0.0222768 -0.484865 2.59776
2060 12.1686 3.12979 2.85616 0.703014 1.19738 -0.19599
15 13.6511 3.7247 2.12236 2.06214 0.522474 0.241965
869 16.3804 3.67945 2.71894 -1.84874 0.137409 1.88114
1636 16.0598 4.23703 1.58774 -1.8077 -0.199339 -1.68791
3885 15.0254 3.94761 2.24637 -0.403676 -0.157889 0.118245
1298 16.7495 3.45964 1.66655 -0.0836302 -0.635766 1.38446
635 16.9552 4.45243 2.5165 -2.18644 -1.31733 0.545939
2345 17.623 3.38836 2.29274 -0.0172153 0.132182 0.0962565
2502 1.21736 5.61913 2.16292 0.424338 0.539536 -0.859062
1248 1.46498 4.62016 2.71467 0.100349 -0.18398 1.17319
1798 0.163421 4.64636 2.26679 1.74811 -0.427822 1.38426
1282 1.22155 4.64625 1.59419 1.28586 1.07854 0.210086
2313 2.37435 5.47809 2.50386 -0.0573805 -0.363788 -0.260081
232 4.1058 5.39316 1.82935 -0.159968 -0.0258496 0.841806
3398 3.74336 5.82093 2.71585 -1.62186 0.0337544 -0.664817
415 4.46377 4.98975 2.83778 0.943702 -1.11119 -0.634557
3025 3.30442 4.67705 2.71172 0.966128 0.526065 0.0675388
1949 3.06695 5.3315 1.51394 0.0994691 0.034429 -0.415418
2806 5.86131 5.74192 2.83653 0.455472 0.628384 -0.959529
208 5.19408 5.20661 1.87506 0.646358 0.00212538 0.246482
2374 7.36746 4.60889 2.38862 0.316608 1.24119 0.457324
1885 6.86558 5.10218 1.69136 -0.611599 0.572863 0.00136033
3911 7.68767 5.51757 1.97831 -1.40992 -0.359635 0.274596
3333 8.80256 5.14517 2.2053 -1.91661 0.074098 0.518768
1487 10.0255 4.66401 2.02152 -1.70245 0.282041 0.571847
2793 9.62 5.9073 1.98332 1.2622 0.179115 -1.71501
623 11.8658 5.83464 2.13961 -0.880411 -1.49985 0.365986
742 10.7367 5.84 1.90669 0.335731 0.548962 -0.247883
1957 11.9759 4.87238 1.86422 0.865695 -0.0210186 0.467488
3107 13.3095 5.27255 1.79077 -0.251111 -0.631695 0.46584
385 12.6077 5.18753 2.81652 -1.93167 0.0758682 0.837047
1953 14.2964 5.30932 2.25177 -0.921223 -0.0927528 0.315205
2842 13.5683 4.62237 2.73629 0.164747 0.386809 0.232735
102 15.458 5.027 2.18277 0.0237315 -0.749211 -0.0184029
1062 17.4581 5.47318 1.62725 0.399679 -0.0628617 0.320666
2881 16.6563 5.63757 2.43751 -0.272074 0.568859 -1.15091
3431 17.7374 5.84147 2.62508 -0.348057 0.291732 -1.42882
736 1.29494 6.48934 1.62189 -1.40412 0.723025 -0.851266
3111 0.678313 7.19435 2.11508 0.140288 -0.136522 0.853334
2563 0.0511999 6.44572 1.65336 0.355126 1.27874 0.055919
528 1.46007 6.51958 2.89911 2.30437 -0.27846 -1.59153
2078 2.38369 7.03574 2.59633 -1.81719 -1.20306 2.20872
2671 3.45232 6.58444 2.14672 -0.269119 -0.411333 -0.627091
476 4.09243 6.87535 2.94991 -0.929974 0.763247 -0.687484
1674 4.88743 6.72801 1.6861 -0.307035 -0.109198 -2.04024
3322 4.78118 5.98864 2.42574 -0.270656 0.051392 -2.58772
2567 5.32581 7.10223 2.79462 1.11348 -0.979541 -0.370249
3971 6.57971 6.94067 2.69337 1.4963 0.762064 1.20133
2272 7.40522 6.50795 1.64056 1.54399 0.138318 -0.384554
636 6.644 6.05089 2.10249 0.456201 0.786878 -0.361
1588 6.27781 7.18781 1.62874 -1.18326 0.27941 -0.198766
2739 7.88289 6.72461 2.76248 0.626664 -0.404511 2.37547
879 8.6466 6.43766 1.61892 -2.01691 0.375931 -2.97496
3191 9.347 6.8561 2.19891 -2.10816 -1.11298 0.206596
502 10.7283 7.1185 2.11774 0.220527 -0.192601 0.271978
2331 11.5057 6.5021 2.96829 0.395417 1.27429 -1.41933
2201 12.5739 6.56613 1.49706 -0.566865 0.998282 -0.0260108
1327 13.0417 6.64794 2.43643 -0.173446 -0.0393632 0.290004
1276 12.1676 7.22363 2.38151 1.27725 0.10153 -0.573402
3832 14.0731 6.40269 1.78506 -1.25287 -0.598321 0.218491
538 14.8266 7.27162 1.74535 0.544742 -1.11633 0.468907
1348 15.6654 6.96567 2.23173 0.0455343 -1.33487 0.582255
669 15.194 6.03085 2.38289 -0.139312 0.481674 2.00433
1059 16.6669 6.98493 2.01098 -2.02396 0.0706197 -0.24358
1427 1.29844 8.46653 2.17317 1.24179 0.259736 0.878243
2596 0.335236 8.64114 2.88582 0.123908 0.253466 -0.39363
2354 0.934547 7.84412 2.94084 -1.40627 -0.0671914 0.539726
1343 1.67116 7.50615 1.76238 -0.24079 -0.827263 -0.362501
2997 2.6467 8.85165 2.89577 -1.69682 -2.31467 -0.535911
1111 3.24628 8.11332 2.58072 0.847299 1.11339 -0.358186
781 3.84677 7.59305 1.58517 2.51568 -0.459915 2.56761
276 4.93275 7.74807 2.03222 0.0904304 -0.769987 -0.473077
787 4.47353 8.61215 2.46296 -0.231317 0.630582 0.946047
1762 4.78279 8.89912 1.50739 -0.94656 -0.259541 0.188154
3217 7.06933 8.15399 2.83812 -0.0923491 -0.441666 -1.02581
2441 5.96681 7.91746 2.87508 0.954922 -0.115147 0.0347933
613 6.79742 8.14239 1.8127 -1.37003 -2.23199 -1.21768
2949 7.67522 7.5606 1.95794 -1.34539 0.126925 0.633193
1705 8.80696 8.10469 1.63462 -0.873672 -0.411949 0.630214
326 8.45349 8.61688 2.43948 -1.06394 0.473894 -1.12304
2404 9.74514 7.67545 1.49159 -0.442211 0.218021 1.35198
2205 9.64472 8.14619 2.48212 0.653282 0.466598 -0.388109
844 10.8166 7.82597 2.82546 -1.30077 -0.542482 -0.272375
442 12.1061 8.12007 2.00056 0.269262 -1.14581 0.833317
2480 13.2141 8.33422 2.29798 -0.710037 -0.523515 -0.776332
3765 14.334 8.60864 2.79703 -0.288752 -0.169187 -0.369365
2054 14.0794 7.5207 2.82879 0.0372316 -0.384125 -0.0770697
3591 16.1582 8.03278 2.36789 0.839261 -0.515494 0.450124
2440 16.3028 8.9295 1.84317 0.0185362 -0.8554 0.129904
312 17.5325 8.01975 2.49809 -2.07959 0.862181 0.498785
3578 0.163277 0.198678 3.9513 -0.648043 -0.190504 2.21861
3992 0.777735 1.40001 3.72719 -0.513771 0.211327 -1.47613
1438 2.61655 1.03698 3.93801 -1.22185 -0.0398515 0.396077
2876 1.56892 0.537475 3.44772 1.54875 -0.627989 0.426463
792 2.42358 0.0760814 3.46036 0.448657 2.45781 -0.422259
1213 3.51654 0.538906 4.38339 -0.820752 -2.57027 -0.818134
2655 4.59093 0.614067 4.38306 0.207291 -0.783677 0.808328
93 5.58194 0.389243 3.43597 0.182311 -0.267308 0.294123
567 5.44444 1.3024 4.2022 -0.785185 -0.86474 1.55434
2740 4.61412 0.0575093 3.12375 0.620177 -1.34961 -0.557003
1791 5.12176 1.36837 3.18714 0.910101 1.12241 0.316675
1666 6.91306 0.376847 3.64213 1.32726 0.183007 -1.44268
2933 8.5186 0.614873 4.35756 0.785214 -0.934097 0.354526
411 8.70181 1.1078 3.09328 -1.20402 -0.769727 0.895768
447 10.1698 1.48829 4.24203 -0.503449 1.84656 -1.48207
1545 9.87765 0.885491 3.55305 1.52079 1.46666 -1.83667
1462 11.3209 0.543297 3.3024 0.768467 0.629164 -0.60178
1358 10.5749 0.437024 4.2828 -0.843796 0.156914 0.270223
1303 10.9728 1.46057 3.49581 0.449779 -0.649579 -0.146922
2662 11.7695 0.655155 4.36944 1.15091 2.10608 -0.732631
3779 12.1158 1.1896 3.49313 -0.464939 -0.317916 -0.651983
1387 12.9992 0.669342 3.45043 -1.0034 -1.24554 -0.302883
2304 14.1098 0.132635 3.27941 -0.847321 0.647804 1.49026
3089 13.8001 1.2361 3.62164 0.372519 -0.366698 1.18626
1950 14.7617 0.286367 4.12376 -0.670489 -0.726783 0.231645
713 14.9807 1.34704 3.63776 -0.391293 -0.0940148 -0.524504
3547 15.9556 0.977298 3.59278 0.578814 0.683651 0.0916931
446 17.3705 1.04437 3.62965 0.0949144 0.628981 1.23055
1605 16.8231 0.00246195 3.10808 -1.86339 1.9996 0.519177
1386 1.30781 2.66244 4.02684 -1.28913 1.04399 0.856006
1362 1.8521 2.39412 3.16701 -3.16076 -0.479941 -1.86489
2640 1.93247 1.92857 4.38286 1.01936 -0.0764585 -0.408381
453 4.15452 2.93283 3.74905 0.810474 0.564119 -0.155727
1418 4.45555 1.68443 4.23682 -0.111623 0.301279 1.04591
2233 3.30565 2.4938 3.12706 0.00557895 -0.0339433 0.0384693
196 3.00209 2.08038 4.30179 0.473971 -1.75436 -1.72932
3289 4.14381 1.91538 3.11132 2.01277 -0.615896 -1.54967
311 5.09424 2.39214 3.45634 0.204741 0.221031 -0.860986
2535 6.86616 1.5253 3.55607 1.12646 -1.08571 0.182376
2540 7.23996 2.58516 4.03526 0.318201 -0.357754 -2.34093
3015 6.04421 2.13824 3.69217 -0.175012 1.60202 -0.457318
3559 8.1148 1.79315 3.77754 0.188753 0.202636 -0.497121
2173 8.51043 2.8293 2.99526 0.524922 -0.672755 -0.533112
2189 10.5688 2.41686 3.66439 1.18952 0.16789 -1.79408
1069 11.8374 2.83877 3.89481 0.335047 0.149981 -1.93802
2552 12.5796 2.13819 3.88644 -0.526079 -0.256193 -0.116319
3201 14.1423 2.58741 3.7873 2.77707 -0.353949 -1.77558
555 16.1753 2.12962 3.27838 0.261672 -1.65386 1.26815
773 15.3867 2.02035 4.38809 -1.64249 -1.5488 -0.703214
2348 15.1958 2.31824 3.3023 0.417603 -0.356946 -0.535618
859 14.9854 2.97045 4.09136 0.190732 -0.226167 0.289497
3300 16.658 1.77732 4.19555 1.44215 0.0728396 -1.31239
3673 17.0938 2.69042 3.45659 -0.534908 1.45299 -0.785861
800 17.8195 2.13315 3.79577 0.425445 -0.345207 -0.165218
3469 0.504224 3.22505 3.00916 0.164305 -0.00279692 0.302238
3667 0.575367 3.45008 4.02025 -1.0659 0.872655 0.827653
3009 0.437415 4.42096 3.32577 -0.610531 1.2747 -0.0703646
1014 1.64299 3.57725 3.07488 1.07557 1.36075 -1.57726
873 2.71718 3.9146 3.48074 0.959773 0.891605 -0.576186
2838 3.37943 4.46926 4.07913 -0.299288 -1.64739 -1.13287
2352 3.86494 3.94519 3.26808 0.50144 -1.7575 -0.783876
2648 5.20794 3.99787 3.03571 -0.0996264 -1.66462 1.17719
979 5.52576 3.3194 3.93027 1.38188 -0.152749 0.0183564
3093 6.19565 4.28414 3.64536 -0.214603 -0.259292 1.07226
2403 7.3075 4.35785 3.67993 0.491974 -1.93224 0.042818
3283 6.542 3.24741 3.6659 1.52172 0.966043 0.302277
2665 7.64018 3.26919 3.51025 -0.0338229 -1.0772 0.084075
3871 8.60677 3.97535 3.72141 -0.408677 0.494257 0.0974693
322 9.94641 3.19615 3.0922 0.8734 1.32356 -0.519769
2200 10.3526 4.30497 3.13904 0.51949 0.125709 -0.957884
2869 10.3752 3.44631 4.43485 -0.193415 -1.01075 1.28424
3066 9.27032 3.00135 4.05559 -0.110611 -0.458247 -1.62522
1170 11.7093 4.3135 3.11266 -0.856883 1.20784 0.107344
405 11.9705 3.88102 4.19349 -1.17424 0.136522 -1.20436
586 12.9398 4.16772 3.6546 -1.38331 -0.202255 0.086058
3086 13.2875 3.07859 3.3618 -0.569056 1.47983 0.225775
1756 12.8328 3.24579 4.33262 -1.53697 0.508309 -0.616872
2469 13.9786 3.52799 4.26657 -0.217823 0.318403 -1.92711
930 14.4989 3.92144 3.32864 -0.81371 -0.64675 -0.153878
585 15.4241 3.58342 3.28498 0.436485 0.568492 -1.25945
3154 17.3986 3.52063 3.80806 1.04812 -1.478 0.0211284
1322 16.4043 3.60413 4.03119 1.21373 0.57074 -0.473721
707 0.685907 5.58055 3.41687 1.18493 0.595304 0.354428
662 1.43515 5.95826 3.87633 0.542707 1.15961 -1.20134
3782 1.35846 4.84281 3.98428 1.25406 0.729288 -0.716839
2813 2.33963 5.44708 4.01107 0.213706 0.0501948 -1.08578
3740 4.37004 4.98339 4.19659 -0.523124 0.444819 0.141981
3330 3.46857 5.53233 3.72166 0.12077 0.751861 -0.183297
3371 5.33873 5.03952 3.55733 -0.249634 -0.572039 1.09205
2827 5.77775 5.83954 4.09388 1.97122 -0.484952 1.51513
2447 6.8239 5.21958 3.13417 -0.667804 -1.88025 0.851963
2995 7.17714 5.34855 4.06975 -0.763904 -0.61986 -0.145316
957 7.93266 5.13545 3.24576 1.92098 -0.417971 -0.834192
2852 8.20502 5.61811 4.14964 -0.0248342 -0.293582 0.209141
2910 8.6638 5.84676 3.2269 0.342788 0.316619 -0.748374
2713 9.70506 5.62521 3.1196 -1.84796 -1.41175 -0.221715
2623 9.7218 5.11087 4.31318 0.0122728 -0.525333 -0.982375
1259 10.7368 5.86891 3.87786 0.986247 0.141959 0.474214
2505 10.6554 5.33106 2.98831 0.395251 -0.217557 0.363664
177 11.7398 5.28469 3.72184 2.05214 -0.383276 0.512613
3835 10.9464 4.68019 4.14003 1.15723 -2.19733 -0.0718171
436 14.8236 4.92294 3.05103 0.41592 -0.400183 -1.74886
3838 13.4569 5.74235 4.19775 -0.159061 0.917104 1.22764
1429 14.8173 5.95233 3.42653 1.81814 -0.0299833 1.52023
2268 13.8965 4.60967 4.12137 1.07785 -0.704982 0.734008
677 14.9694 5.28017 4.20469 -1.4945 0.119725 0.314393
1188 16.1289 4.73784 3.2798 0.334387 -0.466095 -0.912496
2983 15.9116 5.89403 3.13081 -0.420418 0.973239 -0.166899
2227 17.3049 4.71917 3.6546 -0.000168719 0.331042 -1.72223
3388 16.5633 5.45964 4.08021 -0.669125 -0.823819 1.24493
3109 17.5016 5.74973 3.8604 1.86838 0.0277492 -0.23468
3554 0.376145 6.66476 3.11065 0.408056 -1.37665 0.560418
3008 1.46934 7.30439 3.87239 -0.00923393 0.696954 -1.35397
2536 0.446302 6.47595 4.20507 0.798641 -0.748274 0.22743
483 2.89359 6.32326 3.19922 -1.10326 1.46019 0.390701
247 3.91901 6.50323 4.22586 2.3604 -0.407511 -1.13514
424 4.6975 6.06409 3.53584 -0.856667 0.000893885 0.305073
583 4.79756 7.37232 4.14148 -1.85269 -0.1143 -0.0130011
382 7.26089 7.14179 3.4105 2.09119 1.00699 -0.648383
1035 6.72891 6.26232 3.48717 -0.619569 -0.0272005 1.34575
908 5.96229 7.03439 3.77264 1.71081 1.04105 0.05347
109 8.28591 7.01698 4.11109 0.0351479 0.748646 2.00758
1376 9.0713 7.33016 3.05905 1.59376 1.35439 0.679566
296 10.2539 7.44467 4.30912 -0.174296 -0.88522 0.352671
358 9.5239 6.45935 3.61344 0.037617 0.189926 -1.81577
1993 9.19562 7.31317 4.19227 -0.126712 0.759336 1.15107
689 10.6952 6.8946 3.35411 -0.650263 0.790519 -1.54975
500 11.5893 6.76058 4.14551 -0.328672 -0.74548 0.629208
1023 12.6056 5.97516 3.5763 -1.31141 -0.448038 -0.851481
2528 12.3266 7.19091 3.61097 -1.04791 0.00520228 -1.22646
2236 13.3057 7.28154 3.78436 0.610145 -0.420005 -1.70703
1659 13.7273 6.14175 3.04943 1.83435 0.0389221 -0.103839
3021 14.3406 6.15374 4.41827 -0.333399 1.92381 1.67665
2147 15.0885 6.94966 3.18218 -0.345089 0.821307 1.01161
3498 15.7782 6.19601 4.06588 1.44728 0.78314 0.676812
3928 17.7718 7.35936 3.81367 -0.83122 2.76572 0.180478
3401 16.9217 6.29996 3.21989 0.557136 -0.517039 0.775466
3909 16.4072 7.08227 3.70885 -1.29468 0.535488 1.49978
3720 0.766537 8.04234 4.11518 -1.38679 -0.00401566 0.404138
372 2.82548 7.60607 3.52967 0.681818 -0.587774 0.0485658
2503 2.80928 8.87605 4.13053 0.344282 -0.899955 -1.87165
3790 1.88235 8.28344 3.70987 1.22585 -0.363093 -1.40478
1903 3.68481 7.97178 3.98131 -0.662326 1.21105 0.987879
491 5.0142 8.8432 4.34891 -0.991402 -1.2019 -0.329964
3418 5.15596 8.78296 3.37961 2.94704 0.154054 -1.69255
3934 4.52976 7.8519 3.18072 0.715829 -1.74392 0.785235
1200 6.05464 8.2181 3.88315 -0.750487 -0.571961 0.554144
3409 7.09701 8.75845 3.75358 -0.434669 -0.465151 0.775783
2716 8.04189 7.85715 2.9846 -1.27431 -1.6288 1.53479
929 7.89209 8.07558 4.1838 -0.433675 0.999613 2.05136
3137 8.53913 8.56833 3.61593 0.22617 -1.21382 -0.31122
3226 9.48839 8.91017 3.32549 0.0499391 -1.26913 -0.942279
2947 9.9208 7.77481 3.36176 -0.420763 0.82943 -0.947847
1417 9.59994 8.29742 4.23917 0.592838 0.860343 -1.08922
428 11.4349 8.7166 3.16299 0.383501 -0.868036 1.52549
2944 11.3789 7.61906 3.73777 -1.18929 1.00223 0.869171
127 10.7956 8.47905 4.05073 -1.1895 0.918389 -0.252936
789 12.4525 8.92637 4.40705 -0.0246038 -0.0904378 0.0764442
3821 12.5875 8.36957 3.31647 0.392561 -1.06494 -0.831578
1122 14.8744 8.01938 3.61657 -0.816175 -0.490337 0.614126
191 13.7714 8.16876 3.67942 -0.712267 -0.481058 0.389329
425 15.8244 8.61278 3.58412 -0.214535 -2.38107 -1.16674
681 17.2606 8.2629 3.45441 0.209157 -0.770222 0.514935
920 0.256642 0.554182 5.57459 -1.17273 0.936048 -1.15558
1638 1.26749 1.01471 5.72319 0.0405302 -0.42537 1.30815
985 0.826856 0.718779 4.68626 1.07771 0.578895 -0.943489
2182 2.38311 0.543449 5.76579 1.08821 -0.50915 0.450347
2521 1.9049 0.736722 4.61949 -0.434462 0.51877 0.761234
371 3.44706 0.576512 5.60079 -0.358858 -0.390746 1.35899
2840 5.86045 1.13428 5.49527 -1.17255 0.428606 0.709252
239 4.84965 1.30148 5.36679 0.711678 -0.214231 0.283115
2180 6.55509 0.155373 4.94668 0.3418 0.190745 -1.68161
754 7.69714 1.40524 4.7029 0.234391 0.457797 -1.74804
607 8.47011 1.30002 5.43951 -0.251565 -0.00598715 0.261685
3208 8.65367 0.181524 5.25919 1.487 -1.16652 -0.00832369
2626 7.46003 0.564734 5.44949 0.196372 1.45819 -0.825766
1492 9.31517 1.2155 4.76119 0.82327 -0.581475 0.928731
3525 9.66472 0.376706 4.73511 -0.265064 0.524225 -0.899965
2705 10.4335 0.796352 5.28815 0.454598 -1.09417 -0.406875
2565 10.9968 1.47056 4.76128 -1.29118 -0.402901 -1.37738
2583 11.8248 0.460828 5.37143 -0.00828771 -0.00417587 -1.39242
705 12.6875 1.2457 5.24593 1.26035 -1.73746 0.54282
2531 13.6154 0.948538 4.60732 -1.28928 0.0340416 -0.84444
3116 13.6158 0.49623 5.60508 -0.671808 -0.00910342 -0.290732
3939 15.6095 0.897137 4.61808 -1.54857 0.783254 -0.418552
3361 15.9671 0.483114 5.61441 -0.427389 -0.439297 -0.233665
904 17.6998 0.867344 4.57644 -0.877181 1.24229 1.02822
865 16.6794 0.664439 4.68489 -0.460027 0.636624 -0.184647
1158 0.64182 2.97952 4.94595 -1.63554 -1.96123 -0.637168
408 0.0640471 2.74491 5.68322 -0.404117 -0.113576 -0.753049
2935 0.59821 1.80862 5.87288 0.108263 0.973836 -0.65476
180 0.890727 1.96788 4.84483 0.770154 0.928517 -0.242585
1394 2.81272 1.52013 5.23294 1.34133 -1.52755 0.818384
283 2.05326 2.87123 4.81024 0.0873679 -0.387819 1.60151