ITEM: TIMESTEP
65000
ITEM: NUMBER OF ATOMS
4000
ITEM: BOX BOUNDS pp pp pp
0.0000000000000000e+00 1.7878070701931353e+01
0.0000000000000000e+00 1.7878070701931353e+01
0.0000000000000000e+00 1.7878070701931353e+01
ITEM: ATOMS id x y z vx vy vz
3329 0.635001 1.44829 0.0659233 -1.34458 -0.388776 -0.874475
3785 1.75348 1.25738 1.14262 -0.399471 -0.5883 2.38674
75 1.61028 0.612219 0.228005 -0.53865 -0.377845 1.40473
2278 3.42107 0.446746 1.16012 -0.575885 -1.52401 -0.270647
3641 4.39361 1.00707 0.36264 -0.00214034 0.650446 1.45867
2191 4.37398 1.47358 1.47413 -0.736227 1.27916 -2.38582
812 4.83176 0.0112173 0.166796 0.0978232 0.818363 -0.0456066
2809 4.94791 0.576639 1.25485 0.00101739 2.84309 0.981117
2232 7.42708 1.46168 0.852102 -0.0373419 0.433102 0.84985
1256 6.25401 1.28754 1.35747 -1.39262 -0.852408 -2.34662
2647 7.19496 0.293066 0.00722495 -0.414511 -1.17683 -1.34564
2835 5.99857 0.771554 0.415738 1.75836 -0.101851 1.37496
2173 6.79487 0.35246 1.05927 0.102727 0.30533 0.936285
378 8.36905 0.901914 0.460833 -0.237218 -0.682022 1.69651
3333 7.76418 0.546204 1.38394 -0.065744 1.31064 -0.866844
902 9.22131 0.443601 1.18536 0.907399 1.59651 0.340361
3208 10.1999 0.801012 0.334019 -1.2935 -0.943471 0.0581545
1394 9.68351 1.37795 1.42149 0.522065 1.03483 1.83568
2628 11.2624 1.01669 0.456775 0.498507 -0.949206 -0.0404311
3264 12.8729 1.37134 0.321064 0.918441 0.352763 0.846783
1069 12.9119 0.263103 0.880532 -1.15033 0.0883348 1.37421
3419 13.7343 0.831925 0.59402 -0.121388 0.431299 1.4278
3230 16.2166 0.495246 1.28853 0.0998608 0.653612 1.23108
1393 16.1363 1.26791 0.641602 0.160278 2.47519 0.72946
2584 17.2532 1.2597 0.869161 -0.129648 1.03642 -0.915405
530 17.7104 0.303776 0.836237 -0.15658 1.09909 1.03828
2500 0.872132 2.20505 1.42028 1.29933 0.241942 -1.31575
156 1.39822 2.12543 0.392045 0.139975 1.54091 0.567033
1564 0.106784 2.04656 0.708962 2.38466 -0.457319 -0.088226
2537 2.70001 1.55967 0.944342 0.697571 0.40329 -0.981883
3103 2.82257 2.55849 0.540894 -0.59839 -0.257145 -0.54504
2816 3.57261 1.81019 0.367913 1.37076 -0.960027 -0.981935
3688 4.61962 2.43035 0.753581 -2.02946 0.647821 -0.5363
2369 5.58467 1.9799 0.329236 -0.604614 0.0830839 1.23336
1791 6.86423 2.22928 1.34348 0.837884 1.00714 1.93232
361 7.38152 2.47174 0.39004 -0.440426 -2.49462 0.862086
622 10.1823 2.59415 1.08807 -1.9441 -1.55795 -1.06535
3779 11.1058 2.01874 0.0253282 1.23471 -0.252079 1.09549
177 10.6992 1.56874 1.0231 1.43003 -0.269337 -1.00032
554 12.1249 1.7741 0.919844 -0.787224 0.534783 0.024189
1771 13.2657 2.2354 0.706413 0.0583745 0.569557 -0.46724
3201 12.2678 2.65714 0.200156 0.27269 -1.13968 1.25708
3633 14.1783 1.6778 1.2307 -1.45232 -1.37639 -0.492307
2870 14.57 2.47625 0.431659 0.586196 0.664472 -1.72732
3762 13.9888 2.83724 1.46476 0.100509 1.08287 0.262048
354 15.7864 2.2835 1.0303 -0.0908817 -0.0818356 -0.275383
1559 15.1579 1.50155 0.499993 0.906033 0.41118 -0.891826
140 16.8938 2.36944 0.289742 0.724853 -0.124497 0.0778034
2367 17.8441 2.79335 1.35863 3.06892 -2.39984 -1.07857
2683 17.0532 2.16971 1.42538 -0.479841 -0.811465 1.23459
3832 0.780945 4.13141 0.0135344 -0.313576 1.87714 -0.508164
1031 0.662672 3.28144 0.786212 0.420207 0.789951 -0.0166971
804 1.28843 3.17237 0.100402 0.599148 1.64106 1.51369
2061 2.5863 4.21869 1.07331 0.521625 -0.301265 0.5058
1537 1.59709 3.13547 1.03144 0.213872 -1.18278 1.13009
3324 1.70178 4.23698 0.654334 1.4571 -0.531093 0.738095
3967 3.55359 3.75737 1.13497 -0.707861 -2.17628 2.26317
1120 4.36683 3.572 0.061021 0.753096 0.772006 -0.250377
805 3.0149 3.53073 0.163939 0.20539 0.587886 0.371555
2051 5.49508 3.15983 0.851063 -1.52829 0.157475 -0.38987
1781 4.62528 4.05168 1.00702 -0.00313333 0.585078 0.0612235
1747 5.89197 4.44333 0.630983 1.05567 -1.05041 0.343344
2791 6.39916 3.52329 1.19883 -1.58285 1.14028 -1.6068
3809 6.57376 3.84451 0.0799795 -0.57268 -0.11576 0.804973
564 8.17907 3.5577 0.553508 -0.164825 -0.0155225 0.564915
1459 8.01254 4.45279 1.04455 0.10107 0.683103 0.623422
501 9.24804 4.03413 0.521363 -0.203537 -0.964327 0.967199
3284 9.07871 2.98237 0.992462 -0.953341 -0.288466 -1.18258
3820 10.0894 3.90623 1.11688 0.00403353 -1.07148 0.0298025
20 10.138 4.3774 0.115466 1.73881 0.689915 -2.18297
1131 11.1678 3.0424 0.86217 0.361624 0.670226 -0.129657
387 11.0395 4.27901 0.876505 0.0956767 1.11299 -0.346596
2841 12.0725 3.98756 0.656865 0.736442 0.790797 0.0497136
952 13.2807 3.67091 0.814672 0.97087 1.5777 0.782046
2593 12.3863 3.23022 1.27126 1.77271 0.280912 -0.13684
2154 14.6957 3.6168 0.362813 1.18395 -0.319156 1.70612
1950 15.6131 3.16886 0.442182 -1.05832 0.0802721 0.539321
1211 14.9315 3.43152 1.33406 -0.618515 0.574645 0.365749
1115 15.3874 4.40595 0.334568 0.174993 0.15344 0.446732
3721 17.6606 3.73969 1.41553 -0.722852 -1.21022 -1.45387
3129 16.7297 3.32279 1.09719 -1.91459 1.82662 -1.3516
1432 17.5176 3.20037 0.333541 1.25624 1.56616 0.733398
3398 17.404 4.3396 0.453499 1.21185 -0.644847 0.2589
465 1.3703 5.18551 0.757755 -0.172099 0.54907 0.384784
787 2.49038 5.65066 0.672832 -0.256542 0.388933 -1.1374
1065 2.67921 4.72824 0.087223 -1.12299 0.181584 2.06743
123 4.84779 5.1556 0.342611 0.534056 1.64178 1.75157
3686 5.82172 5.83545 1.15728 0.488136 1.06584 -1.64224
2972 7.0178 4.81391 1.0302 -0.306495 -0.648146 -1.49516
3656 6.09951 5.32709 0.160906 -0.236174 0.286115 -1.58484
3911 8.26636 5.38684 0.427477 0.207179 0.707052 -0.814565
3914 7.811 5.45986 1.48166 -1.07086 -1.10946 -0.915364
245 8.79415 5.22073 1.20412 -0.208691 -1.78027 -1.11471
2447 7.62373 4.6293 0.0297677 0.529317 -1.51333 1.68209
1287 9.29371 5.07735 0.355329 1.81695 1.87389 0.386592
2890 10.2366 4.98621 0.953419 -1.25922 -0.310736 0.416801
678 11.3794 5.88459 0.913351 0.901235 0.441993 -1.56267
1446 11.2631 5.03197 0.200531 -2.05125 -0.80697 2.31284
3876 12.5409 5.76667 1.01604 -2.07057 -0.904184 -0.794459
827 13.1465 4.69864 0.848843 0.558361 1.82453 0.247511
1997 12.2906 5.02491 0.0954679 0.363567 0.292487 1.11114
758 13.6371 5.35805 0.200727 2.07024 -0.438768 -2.38278
1217 13.6035 5.68832 1.10569 -0.248477 0.199575 0.599082
3575 14.6166 5.4897 0.283324 1.13347 0.14462 -0.317915
108 14.8084 4.53181 1.36157 -0.81719 -0.545779 -2.85101
3118 14.863 5.6343 1.35266 0.37922 -0.114329 0.0661613
1814 15.9099 5.50002 0.265286 0.150893 1.05939 0.211423
2847 17.8591 5.75518 1.40311 1.21909 0.420085 1.29474
2563 16.5061 4.53874 1.18871 1.2057 -0.871344 -1.04694
924 16.9153 5.3146 0.711999 0.426761 -1.56199 -3.48139
1316 0.648069 6.20615 0.567189 0.697231 0.326239 -0.0145288
3376 1.49028 7.20852 0.247993 0.68883 -0.218914 -0.976075
3703 2.49704 7.19894 0.679994 1.44015 -0.854809 0.161586
1059 1.80817 6.4749 1.13542 -1.76336 2.49937 1.16406
3336 4.07101 6.05512 1.21258 1.42844 0.201121 -0.483673
312 3.08127 6.39524 1.17609 2.15391 -1.01564 0.234099
2089 4.25274 6.83453 0.505216 -1.65956 -0.247686 -0.223502
2465 5.11784 6.20163 0.260094 0.905714 0.265582 -1.70229
1053 5.16787 6.74769 1.11555 1.58122 -0.241086 0.0903866
2747 7.01479 5.98722 0.873463 -0.476711 -0.409663 -0.163998
1704 7.37976 7.03697 1.20473 -0.977336 0.537287 -1.56333
1111 6.28078 6.80598 0.74285 0.0739146 -1.72311 0.415888
3041 7.1765 6.54601 0.12361 0.980455 -1.54995 1.6699
2029 8.58235 6.51438 1.27596 0.396396 0.492887 -0.753745
1920 8.37196 6.39831 0.153732 -0.322833 -0.0951591 -0.453387
234 9.68147 6.25742 1.04817 -1.38586 1.38431 -1.17633
211 10.6225 6.65547 0.733815 -0.781674 0.024196 1.22854
2126 11.8903 6.21877 0.0474925 0.292386 0.427756 -1.07171
1241 11.9741 7.24151 0.800515 0.694388 0.587187 0.674749
3580 13.1431 6.63654 0.610825 1.1014 -0.547575 -0.277737
1514 14.0016 6.79106 0.047613 -0.693484 0.829218 0.217308
2009 14.1853 6.54254 1.06253 0.143196 -0.513048 -0.00437497
2752 14.9296 7.22567 0.964775 0.698003 -1.26162 -0.25288
110 16.0162 5.98155 1.39665 -0.142365 -2.6044 -0.357221
3271 15.1948 6.30806 0.414902 1.1938 -0.480661 -1.50269
577 17.5934 6.52195 0.303602 0.935915 0.366164 -0.99624
181 17.7438 6.76554 1.2888 0.457451 1.25433 -0.829817
2389 16.4018 6.6127 0.254711 0.795316 -0.312485 -0.242299
2723 16.8659 7.20927 1.11435 -0.4667 0.0457887 -1.08356
459 0.730833 8.43645 1.20979 -0.932603 -0.417174 0.189977
3560 0.493593 7.56016 0.60494 1.77806 -0.921928 0.487852
3798 1.85351 7.78667 1.26176 0.164658 0.310069 1.25138
3503 2.97797 8.67985 0.680244 -0.204072 1.10962 0.0798708
3063 3.54304 7.55663 0.957095 -0.651491 0.328833 -0.051848
1302 4.20276 8.27422 1.20361 -0.369811 -0.00305396 0.699485
2954 5.82547 8.52806 0.622255 -1.78161 0.194278 1.93494
726 4.77294 7.85578 0.416215 0.531258 -0.324031 -0.62747
175 5.1707 8.89836 1.27849 -0.60606 0.787626 0.783631
210 6.9944 8.65652 0.156609 0.0771207 -1.15266 1.42627
3556 6.57508 7.81797 0.887563 -2.05392 0.403281 -0.73104
1705 8.74161 7.59563 1.38229 -1.59011 -0.454013 0.0991799
1942 7.84566 7.96175 0.846577 -1.04778 -1.41815 -0.986102
2183 8.64213 8.28844 0.406341 0.163411 -1.30408 1.30331
633 9.93982 8.48443 1.48692 -0.641451 1.5442 -0.357996
3137 9.94779 7.46219 0.973792 1.13708 0.525221 -0.545128
228 9.94502 8.57057 0.343037 -0.561958 -0.00812002 0.0771369
3409 11.7278 8.43557 0.109188 -0.584186 -1.77005 -1.53235
2336 11.1419 7.63109 1.31077 -0.56413 0.955886 1.28131
844 10.7632 8.6199 0.932518 1.26224 0.0994535 0.484756
856 10.8457 7.81751 0.205187 -1.07652 0.320784 0.120856
95 12.9941 7.72827 1.02448 0.430823 0.345054 -0.364907
286 12.0505 8.41529 1.17973 -0.614754 0.54362 1.68859
1930 13.4645 8.4268 0.23349 -1.0114 1.57157 0.845984
2925 14.5902 8.67578 0.517214 -0.435231 -0.510838 0.472404
222 14.1125 7.83705 1.12667 0.591313 0.77019 0.852908
1567 15.7237 7.88501 0.558974 0.570999 0.419206 0.524695
1157 14.9956 8.1699 1.41334 0.990273 -0.183335 1.23974
3677 17.0678 8.77995 0.465548 1.06121 1.45811 0.140604
1488 17.1849 7.70426 0.197315 0.571823 -2.24598 -0.314488
3361 0.119184 1.09517 1.55272 -0.47712 -0.680054 -0.0430674
714 0.937672 0.472002 2.14772 -0.631197 0.693259 -0.478332
446 2.23201 0.471514 2.90019 1.13425 0.71424 0.775323
2320 2.4358 0.209119 1.84161 1.27056 0.213032 -0.378198
3355 3.26677 0.743164 2.40198 -0.125686 -0.539937 -0.905192
920 4.15919 0.0529354 1.71228 1.14781 -0.210654 -0.308364
1972 4.69529 0.640153 2.52886 0.574491 -0.230518 -1.63295
2180 6.95868 0.649985 2.85361 -0.490369 -0.6351 1.36326
994 6.38649 0.113734 2.13935 1.91786 0.338279 -0.819955
2155 7.58502 1.3305 2.32115 0.23578 -1.10567 2.79705
182 8.50977 1.04273 1.99586 -0.480909 -1.0785 -0.956118
2764 7.97508 0.325266 2.47909 0.47906 0.428444 1.13143
3289 9.09388 1.36839 2.90806 -0.65849 -1.03012 -0.302362
57 9.45308 0.581153 2.19964 0.352074 -0.68768 -1.1038
2105 10.1229 1.48224 2.31034 0.225105 -0.580308 0.595614
2331 11.5067 0.123357 2.60005 0.174328 1.89128 -2.05029
1756 11.5234 0.940935 1.50653 -0.723866 0.925566 -1.63219
2321 10.6144 0.414198 1.75789 -0.342987 0.584903 0.717384
27 11.0962 1.16976 2.74446 -1.43896 -0.636669 2.61971
1890 13.3942 0.157611 2.65545 -1.20748 0.876867 -0.875654
3638 13.0584 1.36382 1.53202 0.662624 1.25781 0.824042
2956 13.3644 1.42299 2.76343 0.292325 -1.38692 -0.550646
847 12.344 0.661195 2.92462 -0.256115 -0.0712419 -1.3564
2397 12.6809 0.324551 1.89987 0.453507 1.02145 0.852681
116 14.3825 0.752622 1.52206 -0.742523 -0.665369 0.354457
2199 14.2901 0.88537 2.73297 0.51539 -0.421035 -1.14048
431 15.7343 1.4401 1.51173 -0.300125 -1.35512 0.779332
3777 15.4574 0.723251 2.22959 -0.684088 -0.358677 -1.05683
2065 16.6273 1.36064 1.92912 -0.14664 -1.05419 -0.152525
2333 17.7432 0.436054 2.29629 0.468245 -0.0369741 1.18819
3894 16.5783 0.321073 2.32753 0.815816 0.503271 0.0029403
3547 0.0545284 2.10007 2.20275 1.70188 1.23745 -0.236138
2751 2.10724 2.19746 1.65566 -0.26117 -0.218226 0.399799
2532 2.5362 2.11676 2.82375 -0.423837 -0.555101 0.153455
2314 4.01251 1.58734 2.43289 -0.167766 -0.596198 0.962076
115 3.39695 2.3742 1.65887 -1.78033 -0.559166 -1.34962
1934 5.20187 2.09312 1.59857 -0.69509 1.25835 1.19706
652 4.59825 2.94644 1.75672 -0.0432743 -0.23352 -0.992777
2837 5.0063 1.85411 2.55371 0.802094 0.586306 1.30245
464 6.16613 2.5419 2.26409 -1.24994 0.0884418 -0.611131
567 6.37295 1.66849 2.68814 0.256068 0.836501 0.00456025
3724 7.49895 2.52618 2.31239 0.781365 2.58206 -0.377438
400 9.18009 2.18128 2.27903 -0.270368 -0.977562 1.38088
3882 10.9699 2.14354 2.0656 -1.25752 0.61856 0.968608
1773 11.7325 2.88404 2.02756 -0.58365 -0.623944 -1.46543
3836 12.9283 2.28498 2.10472 1.53988 -1.29192 1.20018
2800 12.0164 1.89734 2.47347 -2.60611 1.54421 -0.766625
337 14.0432 2.28138 2.30813 -1.24194 0.523462 -0.34444
741 15.1448 2.82188 2.29627 -0.351507 0.756708 -0.0469379
2026 16.2813 2.83841 2.042 -0.84413 -0.236738 0.469257
2894 14.932 1.5801 2.27491 1.40155 0.600311 -0.248368
3907 16.944 1.94518 2.8952 -0.914389 -0.713563 -0.98161
1907 0.963463 4.13593 2.22173 -1.0337 -0.318793 -1.2073
2359 0.254875 3.22524 2.27224 -0.619743 -1.76778 -0.8617
1310 2.62827 4.25272 2.36221 0.146031 -0.577495 0.319249
3720 1.7617 3.96677 2.91818 -0.302341 0.861005 -1.98656
3269 1.52901 3.15501 2.14561 0.752407 -1.19389 -0.784398
43 3.41398 3.10542 2.72254 0.69084 1.66875 -0.260986
1172 3.00591 3.40569 1.87791 -0.718205 0.305051 0.674828
694 3.83248 4.02416 2.28533 0.191302 1.3444 0.743008
957 5.04263 4.23677 2.26924 0.383155 -1.16939 -0.361392
1994 5.56405 3.37196 1.9531 -2.75777 -1.75988 -0.383942
529 4.83417 3.13551 2.79148 1.40116 -1.61738 0.221483
1000 6.08434 4.32757 1.76028 1.24478 -1.00466 0.166355
3851 7.21879 4.44782 1.93386 1.81905 0.0661062 0.429816
2495 6.9576 3.48756 2.3506 -2.11295 -0.563959 0.624936
810 8.53791 2.99833 1.94569 -1.55709 -1.03222 0.912593
3950 7.6457 3.52134 1.52784 -0.296194 2.04902 -0.96895
774 8.79084 3.75858 2.49258 0.0909286 1.50191 0.020206
1343 8.77229 4.01922 1.51767 -0.0242099 -0.0776843 -1.4476
1290 7.83604 4.17773 2.79829 0.8548 -0.0490317 -0.659582
166 9.5924 3.48439 1.94267 0.761559 1.89198 0.76958
1666 10.0423 4.19693 2.89953 0.725078 -0.405719 -1.39631
1237 11.0716 3.66362 2.74045 0.0534243 2.30362 1.35634
1388 11.6221 3.8752 1.64715 -1.33577 -0.395188 0.498852
3502 10.6105 3.39748 1.83002 -1.02488 -0.156617 -0.358469
3857 10.6877 4.43438 1.88888 0.965852 -0.10467 1.90627
748 13.0366 3.71086 2.04743 -0.314455 1.30422 -0.785575
273 12.084 3.35942 2.86136 -0.452293 -0.437322 0.633616
928 13.4879 2.9817 2.8763 0.332601 -1.84735 0.187679
2473 14.3151 3.53444 2.16676 -0.743547 -0.505027 0.161694
1392 13.7591 4.42822 1.756 0.761229 1.12558 0.00288398
2069 15.9133 3.80087 1.65024 -0.753701 -0.623585 0.0589934
3545 15.2997 3.9911 2.53003 -0.777591 -0.078474 -1.20508
72 17.1586 3.15248 2.23429 -0.171587 0.523605 1.12298
635 16.5235 4.2374 2.38636 0.705816 -1.18054 -0.281877
3940 0.507792 4.67474 1.49116 0.168169 1.06374 -0.885564
277 1.21302 5.66546 1.78235 0.332326 -0.744856 0.258992
2078 0.315211 5.25528 2.51092 1.52327 -1.42564 -0.116652
1014 1.97144 4.85843 1.53253 -1.78969 1.15419 -1.71395
3607 2.42555 5.76875 1.7745 -0.332507 0.185812 0.817648
1437 2.48263 5.26106 2.67258 -0.152079 -1.92129 2.05033
1093 3.54091 4.67757 1.6747 0.0314568 -0.911561 -0.0499474
130 4.11063 5.65718 2.40366 0.693984 1.57163 0.339553
3908 4.61873 5.23397 1.49441 -1.82406 0.318749 -0.249075
3402 5.5231 5.23213 2.20595 -0.714096 0.231754 -0.667338
2768 6.54595 5.29178 1.81351 -0.817921 -0.546968 -0.112292
2272 6.418 4.50684 2.89697 -0.278478 0.168828 -1.19686
1270 6.45632 5.86905 2.58189 0.324 -0.38016 -0.640201
2374 8.35903 4.80617 2.11315 -0.434456 2.22018 -0.643121
3702 7.59052 5.51874 2.5236 -0.0354516 -0.152141 0.776717
1417 9.4498 4.66381 1.8953 -0.594885 0.170572 0.173958
3092 9.00283 5.35721 2.79507 -0.365914 0.386288 -0.864742
2014 11.6245 4.94716 2.82698 -0.571333 0.98678 -0.703239
1840 11.6503 4.81626 1.53769 -0.255716 -2.07721 0.839656
2403 10.4318 5.29069 2.8798 0.728485 -0.0234248 2.21253
2205 11.1853 5.64763 2.10526 0.295627 0.338276 0.0750345
2456 12.7338 4.96601 1.74499 -0.546761 -0.610312 -1.2593
2142 12.9884 4.63985 2.70459 -0.845483 -0.232011 0.440201
2054 12.211 5.75075 2.3914 -0.280019 -0.232692 -0.354411
1279 13.5548 5.60986 2.1946 -1.48638 2.28875 0.278417
1640 14.4496 5.03398 2.32332 -2.32422 0.692624 -0.47059
321 15.8783 4.98295 1.86293 0.424 -1.47801 1.4144
423 17.4118 4.71573 1.77603 0.740848 -2.61579 -1.21898
2542 16.8797 5.37701 2.51985 0.107874 -0.22037 -0.972367
3431 0.892936 7.28016 1.55194 -0.250111 0.227304 0.225775
262 0.00087605 6.25152 2.5245 1.08196 0.445163 -0.302002
3648 1.22555 6.52968 2.28912 -0.720043 0.628023 -0.0763073
2859 0.383399 7.2766 2.77148 0.868933 0.723118 -0.715219
3158 2.27175 6.34962 2.67145 1.04089 0.541654 0.0313015
2302 1.93365 7.36196 2.2974 -1.39415 -0.708856 -1.22961
429 3.34571 6.23936 2.19938 0.0540385 -0.526992 -0.274255
763 3.31134 7.34884 2.48814 0.331589 -0.841043 -0.708546
2198 4.06054 6.97353 1.69862 -1.75865 0.372028 1.2344
295 4.88316 6.50979 2.09101 -0.507761 0.695903 -1.54855
1786 5.51512 6.25654 2.75852 2.01167 0.148609 -0.95541
3048 6.29836 6.93344 1.94825 -2.61702 -0.85006 -0.0860298
3984 7.28784 6.21589 1.87556 0.351925 0.237675 -0.232085
428 7.21387 6.70488 2.96416 -0.407416 -0.787124 0.131078
771 8.51619 6.87242 2.38867 -0.316234 1.65945 0.489661
1418 9.61684 6.275 2.11708 0.941483 -1.59088 0.358503
2291 9.56266 7.39454 2.1439 0.408774 -0.775884 0.266171
768 10.4699 6.87611 1.81265 -0.610002 -0.241088 0.138477
1276 11.4152 7.12527 2.19426 1.39338 0.683641 -1.21283
1124 10.5553 6.53396 2.81258 0.690424 0.819419 -0.554479
442 12.1422 6.57918 1.65395 -2.07272 1.91885 0.367411
2881 12.6988 6.78668 2.71281 -0.375831 0.181848 0.8752
2756 14.5133 6.13477 2.33225 1.69985 -0.44359 -0.973053
3109 13.532 6.79841 1.97209 -0.273501 0.682993 -0.189157
1409 15.1854 6.89562 1.97455 -0.97659 1.59038 0.113948
125 16.307 7.38085 2.59905 -0.712251 1.40018 -1.38705
135 16.0934 6.37394 2.36195 -1.12165 -0.322462 -0.597445
250 16.0282 6.98573 1.50266 0.10723 -0.0604961 1.18675
1368 17.2522 7.25173 2.14812 0.161463 0.886395 -0.862959
3752 16.9083 6.27059 1.70394 -0.2688 0.0223605 -0.574849
1808 0.488329 8.86737 2.28274 -0.619215 0.394201 1.40592
2695 0.101316 7.84113 1.74559 -1.08626 -0.314719 -0.750393
3613 1.43503 8.23713 2.43466 0.155851 0.927454 -0.755157
3759 2.36105 8.76797 2.68458 -0.848019 1.46064 -0.85324
702 2.78042 7.77172 1.69222 1.00655 -0.821783 0.503306
2613 4.25274 7.8213 2.1982 0.468957 0.0890266 1.11485
1427 3.26426 8.92905 1.86464 0.884798 1.74705 -1.76376
3531 4.03473 8.66267 2.64199 -0.667228 0.113894 -0.988441
2716 5.44163 7.73492 1.58347 -1.56468 -1.40556 -0.50465
671 5.74203 7.48597 2.63886 1.33737 -0.0865502 0.723362
3418 5.23539 8.57985 2.33367 0.604212 0.147154 -0.386635
1710 6.1652 8.48428 1.85168 -1.14103 0.39394 2.71111
1711 6.73985 7.89276 2.57656 1.24234 -0.704422 1.43102
3516 7.07873 8.40134 1.67749 -1.23887 0.56985 0.956862
3381 8.80455 8.51867 2.84172 -0.773478 0.729391 1.8698
3093 7.79104 7.73083 2.37027 0.154363 0.675466 -0.997443
2068 10.9489 8.40849 2.15454 1.17481 -0.545611 -0.303563
1957 10.7571 7.6603 2.90641 -0.606861 0.107954 1.03622
2696 12.8217 8.69071 2.00453 -0.455146 1.14502 0.222006
3147 12.3872 7.60241 1.86901 1.09175 -0.269092 0.250297
1166 13.3471 7.75095 2.32998 -0.521456 -0.539663 -0.585107
2453 12.4781 7.94885 2.84106 -1.15739 0.407815 0.681299
3582 13.5393 8.86883 2.88018 -1.44163 -1.28497 -0.564467
718 14.4076 7.69219 2.42589 -0.985475 0.877004 0.464679
2067 13.8895 8.52444 1.7719 -0.971373 -1.82045 -0.918891
1122 16.0933 8.35652 1.49166 -0.254145 0.714627 0.272982
2236 15.467 8.00842 2.60068 -1.35912 1.60188 -0.393774
2572 17.0199 8.18495 2.02172 0.187851 0.554582 -0.399916
2502 17.7291 8.13994 2.88589 0.23645 0.593088 1.23802
2433 1.33417 0.172327 3.39059 0.593404 -1.67047 -1.53032
2080 0.736604 1.16958 3.09537 1.91096 -1.44598 -0.626203
1931 0.202194 0.286515 3.60738 0.162969 0.125295 -0.344263
2953 0.963781 0.837747 4.36074 -1.28 0.122179 0.464894
498 2.01068 0.505887 4.41257 -0.384621 0.272921 -0.721776
1638 1.89807 1.24295 3.67051 -2.17326 0.0926111 0.639316
3624 4.4473 0.391164 4.01049 -0.559471 -0.467937 0.362529
3860 4.11361 1.43443 3.90276 -0.63538 -0.773506 0.568893
1547 3.04026 0.957462 3.48407 0.607675 1.10352 -0.407506
331 5.39036 1.24626 3.34546 -0.915992 -0.458835 -0.0927639
2326 7.15715 1.16614 3.81318 0.295266 -0.700205 -0.039325
2394 6.24249 0.685094 4.05899 0.879982 1.9534 0.00276707
3569 8.07912 1.03279 3.26725 -0.746339 1.17266 0.72155
2712 8.77662 0.253622 3.49728 1.1147 -0.794358 -0.569898
3283 9.85165 0.691887 3.516 -1.77071 0.0320416 0.701703
447 9.58695 0.307494 4.42063 -1.03949 -1.33027 -0.582633
2750 11.1168 1.35298 3.75845 0.44172 0.281886 0.514108
1492 10.912 0.205186 3.57256 1.43069 -0.558333 1.50333
2580 11.8804 0.883871 4.23229 0.104306 -0.850026 -0.955569
405 12.707 0.277477 4.27903 -1.16346 -0.796892 -2.0478
2469 13.6253 0.0208609 3.78566 -1.24338 -0.291737 0.000363936
3443 14.0868 1.12423 3.7482 -0.496142 0.541931 -0.571951
869 16.1009 0.431158 4.15451 -0.81379 0.973159 -0.239481
585 15.6774 1.26664 3.71634 -0.448084 -1.89457 0.900916
1703 15.0415 0.53562 3.81625 0.738096 0.784926 -1.77518
3697 16.9785 0.301815 3.42016 -0.388252 -3.08521 0.841669
349 17.6143 1.08159 3.1065 -0.452366 1.83262 -0.198075
773 16.6273 1.38571 3.93719 -0.00598393 0.280131 -0.888551
1452 0.56083 2.84014 4.02378 0.543833 0.827201 -0.736254
2345 0.0322241 2.69318 3.10053 -0.850029 0.000241796 1.35757
2576 1.38655 2.51059 3.04706 2.02022 -1.47376 -0.497279
3154 1.05859 1.95078 4.06757 1.12319 -0.492682 -0.213035
3424 0.0307596 1.53494 4.14557 -0.838594 -0.104768 1.13839
2432 2.81339 1.70165 4.27448 -0.181277 0.306546 1.35546
436 2.41102 2.62169 4.25107 -0.413907 -0.649393 -1.31162
1213 3.56563 2.10524 3.29161 0.0328973 0.316693 0.554675
2393 4.48623 2.64784 3.64578 0.0605106 0.37628 0.873479
3173 5.56094 2.92212 4.03049 0.70961 -0.696949 -0.244914
2629 5.59576 2.38738 3.16087 0.663922 -0.142687 -0.731556
28 6.54603 2.29385 3.54949 -1.5639 -0.839263 -0.0948672
3025 7.31981 2.52518 4.23902 -1.95519 0.812614 0.94381
2238 6.52728 1.6374 4.46533 -0.259396 0.516509 -0.404113
424 7.51066 2.03514 3.21468 0.988646 -0.287139 1.59737
1376 8.73844 2.51242 3.18415 -1.35223 -0.571616 -0.413495
729 8.6522 1.67382 3.91612 1.0757 -0.0162513 1.27004
3130 9.32322 2.49503 4.35109 -0.0418104 -1.13352 -0.356886
415 9.76893 1.81677 3.61593 0.0253504 -0.273328 0.825536
859 11.7658 2.11528 3.95984 0.932537 0.35483 -0.183454
2541 10.613 2.09903 3.06511 0.647091 0.880795 0.596819
3986 10.7644 2.82079 3.83245 1.35086 0.0311325 0.649012
3086 12.5041 2.46153 3.2016 0.147135 0.759295 -0.976038
1555 13.3335 2.8477 3.98729 0.416849 -1.32527 -0.651088
91 14.1268 2.37072 3.47167 -0.676545 -0.261104 -1.37235
1096 16.0882 2.70189 3.89855 0.684035 -0.390124 0.984981
1539 15.3401 2.50371 3.22303 1.92926 -1.25838 -0.461737
1967 17.4572 2.51351 3.99847 0.579139 -0.458442 1.74845
2510 0.621616 3.60636 3.10966 -1.19954 1.52065 -0.0428375
1175 0.352786 4.43713 4.18038 0.36498 0.0880669 1.15853
600 2.48742 3.17788 3.22738 -0.43892 0.00692911 -0.252007
186 1.59459 3.21066 3.86909 2.18882 0.726093 0.910832
2028 3.38174 3.0105 3.82232 -1.38721 -1.69542 -0.997544
437 3.28317 4.06551 3.63394 -0.194306 0.80185 -1.16933
2803 4.33984 4.06822 3.47625 -1.5582 -0.898242 -1.85377
1961 5.5189 4.36842 3.28586 0.786255 1.31159 -0.0651325
3363 5.975 3.45258 2.99068 -0.818499 -0.0714437 -0.297087
2384 6.97818 3.62211 3.489 -0.433297 -0.628691 1.32646
395 6.13239 3.82076 4.04137 1.25462 1.86655 0.889518
296 7.88601 3.19949 3.22011 0.454683 1.88129 0.505589
382 8.06941 4.17493 4.09506 1.39252 -0.563283 0.114354
2540 8.15298 3.12364 4.39576 0.569813 0.577557 0.262595
3841 8.87602 3.42939 3.72059 0.357028 0.0655245 -0.530421
1289 9.91495 3.20215 3.1463 0.690287 -0.585742 -0.967865
2488 9.15551 4.38362 3.71307 -1.93264 0.888412 -0.104258
1303 11.8879 4.10653 3.48516 0.205358 0.417549 -0.549282
3234 11.4521 3.7623 4.31483 -1.34397 1.24359 -0.424903
1731 12.3395 3.20319 4.13794 -0.135445 1.73944 -0.584296
1953 12.5114 4.39903 4.29604 -0.837434 0.864215 0.669533
2784 13.0346 3.71466 3.42732 0.0440301 -0.968045 1.1784
3332 14.6897 3.32128 3.12392 1.64424 -0.0956252 2.47713
2636 14.0856 3.65448 4.08514 0.577186 -1.27697 -0.153503
2833 13.966 4.22964 3.07935 -0.68541 -0.568336 -0.782025
1170 16.189 3.31708 3.02131 -0.143672 -1.48021 1.25741
3001 15.4878 4.08521 3.65796 0.383104 0.917344 1.82843
2201 15.2039 3.12601 4.22087 -1.76551 -0.4319 -0.46827
697 17.5182 4.27299 3.17809 0.116042 -2.10507 -2.06779
1082 16.5092 4.32618 3.66601 -2.18227 -0.0132793 0.318368
1659 17.1691 3.58466 4.0355 -0.796456 -1.16685 0.102007
528 0.891222 5.90932 3.41172 -3.32067 -0.164901 1.86691
1903 1.07268 4.71359 3.40563 1.60753 -1.38792 -2.53342
1282 0.049366 5.19113 3.58515 0.809916 1.54473 0.0729795
3213 1.07381 5.20729 4.28141 -0.552653 0.399253 0.67475
681 2.0062 5.56352 4.1162 0.846835 -0.834746 -1.64052
3160 2.31455 4.69494 3.47869 -1.99914 -1.3555 -0.658985
1776 2.80016 4.74742 4.46232 -1.8254 0.505368 0.40626
1690 3.85511 4.99471 3.17231 1.71255 -1.45888 0.266354
3009 3.64945 5.42209 4.21382 0.149531 0.540593 0.219125
3606 4.89303 5.57347 3.68446 -0.347712 1.88809 -0.0520924
1244 5.07413 4.64154 4.191 -0.580761 -0.775307 0.318061
1698 6.97827 4.49507 4.19197 1.03825 -0.0986662 -0.583201
2648 7.04553 5.23034 3.38481 1.81541 -0.200937 1.36379
454 5.98978 5.58801 3.47553 1.27511 -0.468991 -1.15142
1762 6.04518 4.94909 4.25602 -0.480642 -0.0114186 -1.16234
3975 8.22004 4.96415 3.42513 -1.81115 0.94477 -1.40711
943 9.07528 5.60255 4.24279 -0.0416464 2.22103 -0.0761701
922 11.5053 5.33575 3.86764 0.76821 -0.474242 -2.54825
441 10.951 4.55552 3.39715 0.0646741 -2.05906 0.0242659
1451 12.4771 5.28795 3.5006 -1.05259 1.14738 -0.0513254
3107 14.194 5.59684 3.28959 -0.409447 0.44576 -0.517891
586 13.4853 4.90661 3.97661 -1.07091 -0.526218 -2.4543
2227 14.7076 4.61433 4.28453 -1.32943 -0.482209 0.658575
2819 14.9999 5.89761 3.88071 0.187763 -0.783397 -0.166901
3554 15.9312 5.54267 4.3062 1.16092 0.279071 -0.881694
2928 15.5582 5.04308 3.35067 0.319748 -2.27942 0.561269
667 17.2376 4.99439 4.26307 0.497789 0.362936 -1.86932
2518 16.754 5.75582 3.45029 1.57386 1.20012 -2.09576
229 1.19314 6.19151 4.37716 2.61224 0.199921 -0.182844
1457 0.430561 7.12413 3.83149 -0.331014 -0.989291 -0.954319
2313 1.90057 6.6269 3.76919 1.8256 -0.110784 0.31708
1319 2.90959 7.20568 3.40377 0.688708 1.42645 0.370581
2596 3.95579 6.46032 3.14676 -2.38931 0.7019 1.0461
1364 3.83346 7.01827 3.99709 -0.0233809 -0.362434 0.903984
3637 3.07632 6.02197 3.41602 -1.28012 -0.372586 1.22405
2441 4.84356 7.19162 3.46171 -0.535339 -0.457976 1.30937
595 4.59876 6.31167 4.3641 -0.0768769 0.184538 0.540668
98 5.70139 6.40879 4.20889 -0.580229 -0.730188 0.843621
232 6.73641 6.97481 3.94217 -0.611831 -0.408012 -0.90536
3190 8.79 6.26163 3.34301 -1.55903 -2.14851 0.184875
1647 7.89077 6.30364 4.13064 0.134677 -0.533286 -1.50325
3371 10.1559 6.00649 3.8656 -0.50168 -0.19097 -0.783464
2947 9.51808 6.77858 4.20633 -0.64451 0.0814132 1.09599
385 11.497 6.17624 3.11728 1.28939 -0.149057 -0.00617493
789 10.58 6.90243 3.85641 -0.916515 -0.261912 -0.417048
1251 11.6321 7.19196 3.65554 -1.4508 -0.483289 0.744991
3388 12.3207 6.16562 4.0419 0.195161 0.657929 0.407865
3498 13.3218 6.05673 4.11429 0.516549 0.291949 0.686151
879 12.6193 7.20432 3.68662 -0.761554 0.537853 -0.696665
3852 13.7914 6.90042 2.99614 -1.73431 -0.528358 -0.273651
1798 13.5807 7.09107 4.22651 0.282791 -0.530543 1.72016
2983 14.6427 7.03448 3.88949 -0.907887 0.674015 0.0248643
1869 16.3504 6.85886 3.88243 -0.260168 0.626012 0.857767
1340 15.2709 6.63215 3.11502 0.0438926 -1.98618 0.457708
2524 17.1742 7.24833 3.25568 -0.542434 -2.00615 0.156044
377 17.6649 6.17422 3.79506 -0.215782 -0.4082 -0.114008
271 0.844598 8.16787 3.37001 -1.66835 0.735743 -0.43462
102 0.285453 8.21281 4.24799 0.842517 -1.48207 -0.541597
2813 1.36032 7.88819 4.16634 0.25538 0.335595 -0.190007
2330 2.7203 8.09856 4.30357 1.61896 -0.465328 0.91192
3663 1.97159 7.61247 3.32576 -0.799416 0.608768 -0.925394
13 1.60321 8.91624 3.62487 -0.654632 -1.57592 1.53691
3653 3.19199 8.2281 3.23879 -0.862302 0.0226107 1.7219
2243 3.71082 8.88841 4.3728 -0.484891 -0.349421 -1.79098
724 4.18723 7.98773 3.62001 -1.14795 -0.121726 -1.54663
307 5.41281 8.18366 3.45178 1.91511 0.959846 -0.184144
781 6.54394 8.29004 3.68242 -0.390261 0.87412 1.34331
3835 7.61068 7.71633 3.62536 -0.390407 1.01052 0.740201
3422 7.49988 8.63346 3.05632 -1.91152 -0.484039 1.79841
689 8.27246 8.75105 3.71862 0.126251 0.0193334 1.30363
2186 8.60087 7.64966 4.31072 1.02014 -0.803326 -1.55701
1342 9.43147 7.5723 3.31875 0.436776 1.03216 -0.308314
2025 9.50158 8.76473 3.50009 -1.34618 0.82222 -0.894071
1381 9.82221 7.73344 4.28431 0.659727 0.729113 -0.871149
3715 10.7978 8.82331 3.55317 0.322173 -0.961738 -0.871116
2801 10.8981 7.92431 3.98793 -2.13274 -0.560536 -1.56463
3192 12.0656 8.22007 3.84705 -1.59007 0.891434 -1.18571
783 13.1819 8.07683 3.69599 -0.131992 0.677622 -1.6111
1667 14.1943 8.19283 3.85449 -0.373192 1.28315 0.44388
3207 14.488 8.90476 3.18008 0.54409 0.00847225 -1.59935
11 16.2576 8.48934 4.20511 -0.430304 -0.260623 -1.27428
1062 15.2755 7.78454 3.83631 0.385369 0.969488 -0.0818629
3367 15.2454 8.86463 4.14389 -1.22562 -2.0888 -1.3008
3571 16.9709 7.73377 4.24253 -0.916903 -0.501577 -0.85344
2283 17.244 8.89925 3.66151 -1.42593 -0.718961 -1.58772
609 16.6804 8.26332 3.03375 0.0363637 0.211015 0.454075
1602 0.572959 1.46259 5.25483 -1.1386 1.57289 0.0803283
180 1.71687 0.201482 5.42095 1.84775 -1.31875 -0.598773
90 2.68021 0.628665 5.59589 0.301151 0.324988 -0.0343475
3664 3.79057 1.21697 5.47378 1.52095 0.358778 0.97702
443 3.48816 0.559635 4.50579 -1.20057 -0.936583 -0.522817
168 4.50646 0.265714 5.50438 2.67836 0.747768 -0.631436
1361 6.0508 1.0301 5.30036 -0.370678 1.20265 -1.43671
322 7.10702 0.609689 5.58657 2.5361 0.142885 0.990665
285 7.53952 0.564588 4.54002 -0.00395278 -1.31253 0.0165731
3959 8.75456 0.753065 4.87739 1.17151 0.78278 1.20897
2705 8.26604 0.0932276 5.56207 -0.989624 -0.806049 -0.691277
3070 9.59083 1.36459 4.84074 0.830926 0.643869 0.0251631