ITEM: TIMESTEP
58000
ITEM: NUMBER OF ATOMS
4000
ITEM: BOX BOUNDS pp pp pp
0.0000000000000000e+00 1.7878070701931353e+01
0.0000000000000000e+00 1.7878070701931353e+01
0.0000000000000000e+00 1.7878070701931353e+01
ITEM: ATOMS id x y z vx vy vz
714 0.555434 1.2453 1.09296 1.61026 1.0105 0.496718
3894 0.531379 1.21561 0.0974699 1.78173 -0.380344 -0.161406
277 1.42982 0.804391 0.684955 -1.02009 -1.74672 0.229125
2172 2.43283 0.807821 0.110547 0.860943 -0.548317 -0.911399
392 2.89017 0.457223 1.16793 -1.41108 1.12862 0.991691
2482 3.99634 0.714871 1.47343 -0.149274 0.282431 -1.08432
3329 3.77164 0.118651 0.649181 -0.308425 0.305021 0.67678
1739 4.85958 0.0918862 0.68714 -1.71263 0.806344 -0.164929
1369 4.51544 0.991571 0.112355 -0.423197 -0.069005 2.18417
1639 6.32115 1.29146 0.669072 -0.205695 -2.47443 1.52641
2238 6.78347 0.575886 1.31905 -1.41471 0.961468 0.292138
3128 6.88198 0.0568242 0.33507 0.893214 0.0351497 -1.02763
1690 7.98517 0.792409 0.660085 0.371778 -0.392003 0.629467
2055 9.31803 0.989313 0.528873 0.123186 -1.47879 -0.229989
3289 10.2433 0.865614 1.03456 -0.562598 -0.239632 -2.07879
3950 11.3564 1.38733 0.824406 0.792221 0.272042 0.173548
1376 10.5962 1.00379 0.0528784 -0.642053 1.45352 2.44721
2823 12.1846 0.192779 0.578957 -0.259951 1.19543 0.676763
2293 12.7109 1.06966 0.0942116 0.346717 0.310194 0.6978
2663 14.5613 0.910084 0.75294 -0.352434 1.28242 0.0868526
266 13.484 0.949084 0.750602 -1.16094 -0.030177 0.481076
2551 13.6578 0.0767587 1.4834 0.195046 -0.145914 -2.35416
1445 15.3664 1.31839 1.46122 -0.00395958 -0.40935 -1.98277
1658 15.8256 0.822313 0.173143 -1.65028 -0.142569 0.415671
3419 16.0245 0.0586288 0.911833 1.16039 -0.876028 0.164727
3907 17.6589 0.520261 0.852036 -0.963014 0.963907 1.18303
1827 17.0764 0.801853 0.0993663 -1.16163 -0.63601 1.66275
641 2.06395 2.36161 1.22843 0.234906 0.450275 -0.548663
2473 1.66841 1.84953 0.035841 -1.25939 2.81792 1.52314
387 2.76848 2.22029 0.347473 -0.137005 0.230272 -0.246347
1271 2.03776 2.90287 0.0126117 2.29216 -0.0418695 0.414552
538 3.67848 2.71885 0.579842 0.0588607 0.685304 0.274134
262 4.15559 2.3995 1.38189 -0.807701 2.27641 1.09992
631 3.25385 1.52884 1.05382 -0.887545 -0.0272185 -1.15176
3254 4.66156 1.92161 0.507111 -1.19515 0.560149 0.842385
363 5.46999 2.90659 1.0853 -0.567591 0.00702711 0.0124959
1000 7.25267 1.6994 0.590627 -0.607968 0.327124 -1.02194
1359 6.3799 2.23694 0.98728 1.64726 0.0802844 -0.596763
1722 8.4079 1.73156 1.07261 0.195264 -2.53091 -1.25111
1634 8.02373 2.3476 0.190394 -1.23289 0.718847 1.76661
400 7.62301 2.45028 1.24333 0.742864 -0.772789 0.580698
2902 9.12812 2.23735 0.70829 0.463637 0.520506 -1.16738
3048 10.0136 2.81811 1.14042 0.549745 -0.260272 0.927017
2171 10.0819 1.88565 0.673174 -0.264285 -1.5414 -1.94784
3805 10.7565 2.12101 1.4681 0.107486 0.411454 1.04605
3820 12.3166 1.84936 0.573102 -0.0780906 -0.262157 -0.899616
2861 12.247 2.46661 1.43122 -0.312033 -0.483722 -2.14559
290 14.7789 2.14546 1.05737 0.633468 -0.0259418 0.627521
3914 13.6794 2.00047 1.02427 1.14978 0.119325 0.513673
1803 15.5332 1.75683 0.414438 -0.547145 -0.99319 1.21
3332 16.2613 1.83216 1.11518 -0.245909 -0.0315844 -0.16729
1865 17.4124 2.42711 0.401137 -0.276873 -1.55613 0.669755
585 16.4677 2.14976 0.108292 -0.817405 -0.147221 -0.871656
474 0.998526 3.04065 1.05186 0.880803 -0.0537054 0.683118
1640 0.471676 4.18261 0.329713 0.330724 0.118248 1.16648
3225 2.06821 3.24694 1.05556 -0.76568 -0.0380585 -0.476909
3720 2.49581 4.23717 1.23679 -1.30884 1.30217 -0.609532
1221 1.49465 4.29919 1.00872 0.931336 1.02167 0.354945
1859 3.05851 3.43309 0.33227 -1.85586 -1.0195 0.806004
2472 3.51191 4.0616 1.12188 -1.55465 -0.126932 0.490524
3402 5.75399 4.33383 1.39747 1.3489 0.716523 1.24355
1172 4.5206 3.61062 0.94751 -0.598416 -0.439175 1.39753
1038 5.17486 4.28404 0.597011 0.291302 -1.19312 -0.597461
3648 6.4301 4.2553 0.592631 -1.16588 -1.10124 -0.612246
2272 6.28701 3.19318 0.432073 -0.000529943 0.645423 1.00857
834 8.67957 3.25371 1.25287 -0.998953 1.20695 -1.16462
454 8.666 4.30219 0.983885 -0.986977 1.10302 0.310914
245 7.74971 3.41922 0.672382 0.769828 0.385686 -1.7282
2768 9.68699 4.33173 0.240026 -0.0660816 0.428115 0.123365
3876 9.22454 3.19729 0.344689 2.363 -0.21692 0.601233
2423 9.60986 4.011 1.30487 1.07329 0.55796 -0.683898
1963 10.6222 3.93105 0.829025 -1.89772 1.31861 -1.29576
1162 11.2906 3.01969 1.18003 -1.02551 -0.206371 -1.93205
2466 11.9169 3.98233 1.41159 -0.882639 0.155828 -1.63012
361 11.1961 3.44185 0.13939 -1.84489 -0.729332 -0.169549
1170 12.1697 3.71451 0.442173 -1.19133 0.169487 0.175949
116 13.1404 4.09329 1.37293 -1.07352 0.45375 -0.0877262
2142 14.2185 4.33223 1.26559 -1.15926 1.26257 1.11347
39 13.5962 3.76851 0.526536 -0.480648 -0.821498 1.67427
1907 14.2895 3.13473 1.27095 0.391758 -0.395309 -2.42423
3762 14.348 4.23397 0.15338 -0.833021 0.125739 2.22678
3226 16.2524 4.01303 0.0651135 -0.845703 0.420782 0.364237
153 15.1094 3.34822 0.470505 0.429252 -1.8637 -0.381024
2467 17.282 4.44287 0.264714 -0.243963 -0.943326 -0.583625
110 17.5839 3.34333 0.688282 2.26482 1.65196 0.0150841
2841 16.4904 3.13196 1.09878 -0.847619 -1.13853 0.31604
360 0.778864 5.92362 0.749526 0.212041 -0.421337 0.71155
1364 0.716317 4.98107 1.25665 -3.21205 -2.16168 -0.723478
13 1.35038 4.92954 0.165022 -0.651077 0.950667 -0.899536
3336 1.79703 5.3482 1.08039 0.374617 1.49164 -0.570023
804 2.84753 5.71288 0.944804 -0.598828 -0.0793597 0.102545
2143 3.79469 5.31315 0.467564 2.03168 0.258538 0.337375
3547 3.51647 4.5231 0.0133907 1.18707 -0.797542 -1.7024
2082 5.67279 5.3537 0.226911 -0.0835917 -0.15282 3.43791
2061 4.73759 5.14196 0.89168 -0.28701 -0.307017 2.04507
3967 7.09423 5.57606 0.861061 1.70692 -1.14773 1.00425
3611 7.61844 4.59623 0.788183 0.17462 -1.5694 -2.30473
2465 8.53708 5.29286 0.284185 1.74992 -0.151789 0.851108
3702 9.16301 5.72069 1.08427 0.484959 0.101051 -0.847598
1949 10.2903 5.06174 1.14852 -1.12508 1.08996 0.439767
678 10.048 5.32713 0.184795 -0.63809 -1.47125 2.19283
1704 11.3232 5.68237 0.922176 0.91832 -0.20303 -0.558639
385 11.285 4.74273 1.28256 -0.465106 0.536179 -0.0206745
2494 11.229 5.00687 0.186444 0.44524 -0.641038 -0.0962048
928 12.2801 4.87129 0.772185 0.186407 -0.258665 -0.286648
2111 13.2669 5.27073 1.0764 0.462009 0.735984 0.00276943
1814 13.1733 4.72776 0.0849485 0.445454 -0.165248 1.13773
1450 14.6056 5.87726 0.221021 0.276712 -1.84392 0.683386
1268 15.6577 4.50355 0.806335 1.6927 1.20176 1.81605
2367 15.0797 5.57506 1.28469 2.45776 0.9432 1.10653
1446 15.7691 5.40436 0.157624 -0.142578 -0.900697 2.13741
441 16.5916 4.83805 0.878498 -0.302687 -0.776783 -0.769222
3248 17.7001 5.38975 0.843544 1.07575 0.234343 -0.0420541
3132 16.8783 5.67637 0.106201 -0.228022 -0.397875 1.06498
752 1.34676 6.62512 1.42905 -1.0525 -2.02576 -1.07191
2873 2.11916 6.68822 0.0142401 -0.590791 1.56523 0.176144
1237 4.39933 7.27841 0.811723 -0.145647 -0.983188 0.869252
2524 3.83944 6.17828 1.20312 -1.82223 0.472442 -0.804864
2724 3.12782 6.8306 0.867119 1.21491 -0.313496 0.00218858
2147 5.08507 6.15246 0.608926 0.39725 -0.321933 0.0928277
7 5.92149 7.26335 0.615334 1.08772 -0.265896 0.305117
395 6.95645 6.99496 0.830316 -1.21417 -0.721548 -1.81855
1022 6.27472 6.25199 0.0838988 0.762812 -0.135013 0.986603
1763 8.06673 6.05525 0.964552 -0.990687 0.120638 0.473287
1813 8.8865 6.72384 0.214241 -0.677029 -0.136996 1.29688
3984 8.13538 7.3359 0.748588 0.518711 1.02162 0.261305
633 10.0434 7.21355 0.69567 1.44374 -1.63685 0.487086
464 10.2967 6.04218 0.93814 -0.140966 1.65399 0.337053
1159 9.07454 6.76882 1.29164 -1.20384 -0.89975 -1.02344
211 11.0863 7.29021 0.100835 0.732407 1.51243 -0.071927
3008 11.2427 6.7115 0.951752 -0.605994 1.19541 -0.116413
2980 13.1546 6.47578 1.45639 1.9012 -0.341919 -0.255818
1844 12.4484 6.81494 0.701161 0.394429 -1.10201 0.228827
1217 14.8147 6.98456 0.884409 -0.0262402 1.3206 0.707152
718 13.4856 6.55085 0.240613 -1.07535 -1.06554 -1.13295
3787 15.9935 6.65474 0.888318 1.3217 -0.77748 0.536665
2804 17.1062 6.26598 1.07892 -1.80046 0.583943 -1.98537
2751 16.83 7.30562 0.745839 -0.760267 -1.34565 0.598006
1457 17.8012 6.18033 0.304536 0.564466 1.78214 -0.4017
930 1.25312 7.61734 0.853148 0.00785564 -0.23768 0.0959632
3111 1.0441 8.6899 0.816027 0.290555 0.606 -0.663623
3677 2.19549 8.53204 0.750085 0.571536 -0.253554 0.175171
694 2.45049 7.5453 0.661236 -0.875812 -1.6062 -0.428455
2613 4.41002 8.55701 0.553582 -0.549127 0.556615 0.387096
2847 3.62682 8.34801 1.42522 -0.182345 1.64577 -0.159249
3618 3.27318 8.31328 0.408578 0.497438 -0.547605 0.103559
2746 4.83211 8.08318 1.42116 1.63066 -0.51809 0.0697794
2813 5.77716 8.66501 0.411868 1.99491 -0.672285 0.959938
2302 5.90686 8.11111 1.36661 -0.333379 0.787641 -1.13225
1429 6.80912 8.24098 0.53395 -0.142966 -0.387131 -0.092029
1622 8.89562 8.50974 0.80753 0.150701 2.03765 1.8826
3081 9.93438 8.42756 0.341321 1.25987 -0.324218 0.122722
1270 10.7643 8.17228 0.845112 -0.175064 -0.627107 0.318606
3765 12.1623 8.93664 1.12795 0.657254 0.933494 0.0619388
3596 11.9267 7.81337 1.05203 1.50762 0.775833 0.677829
409 12.3946 8.83369 0.137549 0.313306 1.54447 -0.00281955
2512 12.762 7.85738 0.431897 -0.798872 -2.03416 1.72326
1057 13.2981 8.54488 1.2128 -0.360181 0.0275687 0.553319
3944 13.8724 7.46254 0.945504 0.106684 1.28133 1.04702
1957 14.7446 7.95329 0.649333 -0.298465 0.63658 0.31325
3885 15.6817 7.62706 0.942647 1.05071 0.0871173 0.100446
802 15.6036 8.77023 0.799206 0.278512 -0.274394 0.998813
329 17.8476 7.80743 0.836624 0.317215 0.132299 -1.41748
2234 16.8028 8.43173 1.19089 0.121729 0.753342 1.07042
2681 0.998511 0.487839 1.86663 -0.598898 -0.820225 -1.31351
2683 0.577341 1.3561 2.81136 -0.982422 -1.44834 0.236852
3777 1.4888 1.33303 2.34446 -0.0166368 -1.06307 1.96481
3163 2.38978 1.07761 2.7667 -0.945652 1.91829 0.938181
2500 2.36428 0.259954 2.07134 -2.25963 -0.999754 -1.10201
350 3.10236 0.956632 2.10348 1.39377 0.0514419 1.45399
2576 3.57612 0.363385 2.78156 0.859854 0.533157 -0.851121
2979 4.34282 1.32443 2.94979 -0.0854029 -0.265892 0.962885
1776 5.87759 0.45399 1.85723 -0.139154 -1.87314 1.22344
2972 4.99006 1.2136 1.75468 -0.540943 -1.39949 2.03795
2791 4.61637 0.401856 2.2913 -0.971621 0.172038 -0.64535
1759 6.76733 0.469372 2.46251 1.01321 -0.0256862 0.961424
405 7.59114 1.45857 2.13669 0.498882 0.175255 -0.824401
2278 8.62287 0.944719 1.76023 1.58972 -0.646955 -0.342441
812 8.50065 1.03979 2.88095 0.511885 -0.705238 1.51591
235 8.03606 0.121362 2.26951 0.859831 0.823562 1.23372
3391 10.2348 0.281867 2.08092 1.24589 0.543519 0.101691
3435 9.04596 0.0211234 2.01108 -0.317048 0.0901055 -0.587759
57 10.4831 1.18064 2.92396 -0.0367561 -0.0202045 1.03699
1403 11.2463 0.539921 2.69076 -0.439285 -1.86026 0.0707569
2060 11.9168 0.141321 1.86614 0.46428 -0.498557 0.581657
3779 11.7977 1.46312 1.78438 0.0667244 0.284081 1.89908
3937 10.9237 0.980936 1.76872 -0.082266 -1.11495 1.17671
3733 11.8833 1.41386 2.88757 -1.84927 -0.0153036 -0.396191
79 12.602 0.342213 2.63615 1.16923 -0.761446 -0.0166768
349 13.1094 1.48772 2.43779 -1.23672 -1.247 1.37415
2396 12.8114 0.794159 1.69438 2.01573 0.402879 -0.840126
853 14.7628 0.0133482 1.58254 -0.0407449 -1.46392 -0.209756
2285 14.0024 0.041963 2.56635 0.680504 -1.75324 0.404208
1513 14.472 0.819444 2.94855 1.51249 0.203869 -0.99849
1991 13.9612 1.11353 1.79567 -0.854499 -0.49015 0.127435
3832 15.6915 0.439674 2.597 0.451313 0.595915 0.231078
773 16.8393 0.524099 1.54184 0.39048 0.276883 -0.96866
3842 17.3061 1.44541 1.98634 -0.58125 0.659602 0.209891
3091 17.6319 0.278504 2.2749 -0.604046 2.02299 -1.20432
3001 0.759352 2.17782 1.80775 -0.0198748 -1.014 -0.623168
3129 0.273298 2.52093 2.76303 0.787578 -0.804055 0.778661
528 2.70644 1.94692 2.05098 0.290598 -1.58298 0.00130101
3014 1.93649 2.79767 2.1788 0.48845 1.09501 -0.754267
2854 3.81588 1.74799 2.10404 0.389435 2.123 1.97611
1200 4.98212 2.42089 1.95179 0.820683 -0.141159 -0.666362
936 4.77247 2.28568 2.89489 -2.05733 0.0705463 0.433035
966 6.07928 2.45502 2.23777 0.78467 1.33756 -0.408583
2433 6.87129 1.81674 2.73249 -1.14193 0.45404 -1.17123
2309 6.33089 1.53106 1.75189 -0.223451 0.801141 -0.641568
1767 8.12025 2.93898 2.23425 -1.4928 -0.638769 -0.438036
810 8.55673 1.90907 2.19598 0.412884 -1.06169 -2.0732
3502 10.3125 2.65992 2.3861 0.450616 -0.768597 -0.177671
334 9.53247 1.82797 2.58735 -1.18173 1.54309 -0.0013511
278 9.54167 1.62647 1.55585 -0.870746 -1.36834 1.0378
1666 9.23556 2.69937 2.02035 0.290213 -1.51675 -0.113554
2716 11.3714 2.84761 2.3892 0.442441 -0.404136 2.0591
3930 12.4209 2.28915 2.60639 -1.17204 0.987949 -0.865257
1433 14.7885 1.86993 2.48214 0.774541 -1.79219 1.49591
1023 13.8856 2.43857 2.03328 -0.484134 -0.111372 1.00864
1940 15.6147 2.33233 2.92019 1.94208 -1.07685 1.05214
2069 15.897 2.52678 1.88383 -0.393409 -2.685 -0.682431
851 16.222 1.52725 2.20851 -1.72844 0.263694 1.66472
1027 17.2122 2.42928 1.55287 -0.734843 -1.78494 1.0941
1032 0.231407 3.57754 2.66327 -1.27752 -1.26828 1.35635
3664 0.622674 4.10464 1.79258 2.12294 -1.13915 0.0684489
3745 1.25834 4.40951 2.82604 1.74947 0.978264 0.317072
229 1.77743 3.77736 1.99047 -0.857969 -0.531457 -0.0271212
1306 2.69607 3.31834 2.77752 1.00677 1.11891 0.154056
763 4.37947 3.40287 2.0508 -0.151541 1.78907 0.473175
2668 3.20883 3.08995 1.49352 -0.515844 0.701486 0.226094
908 3.53426 4.141 2.31173 0.573555 -2.63783 0.883472
186 3.60567 3.27125 2.9643 0.989149 -0.250857 0.938723
86 4.66239 4.2274 2.70313 -1.29593 -1.18019 -0.425058
1120 7.30701 3.78669 1.6466 -0.819355 -1.18756 -0.30881
2159 6.26488 3.6277 2.21731 -0.980845 -1.08253 -0.937361
1316 8.41222 3.96403 2.18555 -1.38534 -0.271682 -0.250871
3851 7.54451 3.5332 2.90125 0.0264762 1.69139 2.09318
1994 9.40982 3.68774 2.38411 -0.159985 -0.0473369 0.518766
1698 10.51 4.01168 2.9564 -0.639013 0.343572 0.703952
2653 11.8093 3.90471 2.43309 -0.129684 -0.858072 1.89675
3841 10.7843 3.72521 1.92799 0.0167168 -0.169484 0.270786
1967 13.1429 4.36216 2.52042 1.04051 -1.33056 -0.660182
2784 12.8106 3.30298 2.13162 -0.465359 -0.785639 0.084628
677 13.9006 3.47733 2.21622 -0.378838 -0.0418755 0.188016
1343 15.2875 3.40408 1.55589 0.762609 -2.43529 -0.943841
3836 15.9415 3.45466 2.52045 -1.64532 0.785338 -1.0003
1175 16.4866 4.06309 1.93322 -0.651315 -0.298832 1.32408
2572 17.8704 3.24156 1.68609 0.341063 0.357613 0.194994
1437 16.9071 3.25056 2.2524 0.068885 0.111085 -1.71364
3839 0.110537 4.71492 2.80123 0.260093 0.649983 -0.331722
2925 0.573068 5.53114 2.23061 -1.48828 1.004 -1.12472
1321 2.77033 4.75126 2.76029 -1.33051 -0.115934 -1.37928
3271 1.83985 5.44939 2.23318 0.770388 -1.44243 0.729082
1157 2.72518 5.18128 1.78538 1.16746 2.22771 0.996966
2596 2.43149 5.88831 2.96921 1.02282 1.03678 -1.46274
2027 3.85679 5.23095 1.60677 -0.120034 -1.24279 -0.502834
3796 3.62644 5.21767 2.67496 1.55089 0.801557 2.41605
3571 4.4642 5.76504 2.26194 -2.15629 1.62896 -0.954979
3258 4.58188 4.47458 1.56231 0.0932156 -1.35037 0.263298
1657 5.79099 5.45169 1.6322 0.706631 2.48152 -1.08643
2289 5.84145 4.53987 2.9469 -1.48963 0.613758 1.33784
2441 6.71788 5.87864 1.82038 -0.673506 1.07773 -1.4892
2495 6.7784 5.68235 2.84401 -0.0375656 0.743551 0.582777
3476 6.76151 4.7964 2.09395 0.848545 -0.400474 -0.460576
182 7.71442 5.06821 1.7099 -2.02201 1.30789 -0.676479
1442 8.47228 5.9117 1.96705 -0.547414 -0.426013 1.71576
1840 8.57802 4.84528 2.70756 -1.19852 -0.695831 0.777487
3809 7.63603 4.47713 2.73795 -0.0486503 0.400637 -1.57197
1131 9.02541 4.91166 1.70121 -0.395979 0.0186398 1.98071
666 9.76797 4.84223 2.69846 -0.0976677 0.247658 1.00181
1124 10.7136 5.3178 2.19939 -2.48186 1.03902 -1.36064
879 11.4225 5.41086 2.95333 0.0282432 -2.20014 -1.41053
3884 12.2698 4.84571 1.93687 0.547331 1.49729 -1.61629
1773 12.8588 5.58292 2.31972 0.963939 0.788549 0.0851858
2709 14.3144 5.02164 2.10662 -0.94658 0.353793 -1.4819
922 15.8386 5.23586 2.36458 -1.0912 -1.81189 -0.300854
435 17.4255 4.49016 1.51057 -0.399743 -0.270685 -0.754417
2952 17.0689 5.30933 2.62563 -1.25874 -1.75558 -0.535459
919 0.245935 6.7624 1.51313 -0.0623486 1.06407 -0.317679
520 0.620557 6.76788 2.54126 0.645416 -0.591259 -1.66133
651 1.643 6.43561 2.45822 0.238499 -0.135538 0.203201
3934 2.50763 6.42637 1.79085 0.128234 -1.4052 0.54296
210 4.22244 6.7986 1.85077 -1.47775 0.75177 0.572495
3166 4.65062 7.33765 2.92055 0.965797 0.690386 0.700613
16 5.42564 7.29694 1.77487 -0.558865 0.914349 0.384451
3975 5.38 6.35492 2.49506 1.09377 -0.214109 -0.803883
307 7.13895 7.33447 2.76512 -0.195179 3.05019 -0.475944
997 6.3089 6.67889 2.80237 1.09314 -1.03756 0.529196
2684 7.61348 6.4836 2.53576 0.35079 -1.06409 -0.159681
418 7.80286 7.22186 1.75051 -0.673988 -0.940931 0.872723
410 9.61541 6.02924 2.17079 0.404428 1.07068 0.790822
1588 10.311 6.89945 1.74063 -0.364541 -1.44684 -0.411849
1930 9.60082 7.03227 2.85041 1.50757 0.242198 -0.267321
3852 11.0419 6.25264 2.398 -0.333933 -0.23652 0.413244
2894 11.9652 6.04336 1.99344 -0.513302 0.728773 0.623155
1409 12.9138 6.61845 2.49507 0.769177 0.837813 0.638251
742 13.7266 7.1383 1.99039 0.836948 -0.567795 0.163619
2696 13.9074 6.3022 2.47448 -1.08544 -0.717005 -1.57092
2163 14.4033 6.32464 1.62624 0.185407 2.32038 1.41815
635 16.2106 6.11102 2.03004 -0.0380055 0.507743 1.64991
1976 15.2332 6.14415 2.35623 -0.119831 -0.0401151 0.0580342
3109 16.0034 7.05257 2.78616 -2.18161 1.57999 -0.414417
2659 15.3647 7.00314 1.72518 -0.794956 -0.0664985 0.49889
1297 17.0727 6.89952 2.38861 -0.508651 0.417969 0.720158
3582 17.6272 6.12924 2.11078 1.37115 1.60491 -0.828036
1567 0.571526 8.03025 2.38424 1.33203 1.66461 -2.33345
1896 1.3993 7.57101 1.84999 -2.71501 -0.322561 -0.0535001
3957 0.201908 8.42603 1.53705 0.0248408 -1.45153 -1.26639
377 2.86038 8.34159 2.92098 -0.185226 1.45373 -1.34186
2914 2.46877 8.0071 1.9984 -1.39607 -1.09176 0.0542092
3386 1.64635 8.25537 2.57687 0.365314 1.54237 -1.08317
242 2.02235 8.89953 1.71329 1.12574 -0.199035 -0.481314
2056 4.21561 8.27547 2.4123 -0.0716575 0.112969 -0.963462
1898 3.47487 7.58821 2.40484 -0.0388322 -0.529893 -0.498364
3376 5.86549 7.54858 2.75023 0.879218 2.76981 -0.412411
3211 5.42004 8.44344 2.29937 -1.36861 0.275821 -2.40274
466 6.82435 8.13194 2.12522 0.250267 2.09958 0.726918
881 8.32234 8.20262 1.56383 0.339108 -1.14101 -1.60257
130 8.12442 7.67964 2.5432 -0.83047 0.507769 0.554934
3137 7.77674 8.66694 2.70384 0.402842 -1.22157 -0.282111
1942 10.2884 8.2219 2.11592 0.00249126 0.74805 1.2714
1302 9.17852 8.08693 2.50245 0.552246 0.605991 -1.13933
1642 9.58668 8.83988 1.54345 -0.780208 -0.913508 0.335342
2801 11.2677 8.32876 2.80552 1.10135 0.822406 0.151041
707 11.1844 7.64181 1.98961 -0.968661 -1.13788 -0.295152
2881 12.3124 8.01803 2.18262 -1.13179 -2.29589 -0.564988
3409 12.8438 7.50506 1.59624 0.662437 -0.89608 1.52335
2928 13.2697 7.69232 2.88048 -0.367128 0.197534 0.0865412
2704 14.235 8.21442 1.61959 -0.0899746 0.510904 1.13756
1758 14.7808 8.70527 2.81646 -1.67986 0.336683 1.47577
3122 14.6254 7.49058 2.57748 -1.79496 0.259896 -0.800956
3470 13.8217 8.82137 2.54768 0.0500454 -0.648967 -0.149348
665 15.185 8.06348 1.81172 0.650093 0.30241 -1.9695
2563 15.7171 8.19271 2.79119 2.00461 0.612752 0.444239
135 17.5137 7.78365 2.85246 1.55126 -0.800469 0.619416
1165 16.4351 7.61218 1.95066 0.339878 -1.97133 1.01136
1438 1.4493 1.44872 3.43212 -1.64607 0.367575 -0.131008
2600 0.924412 0.411555 4.14739 -0.396244 -0.544221 1.31048
3551 0.607663 0.293785 3.15033 -0.943725 1.6746 -0.109955
1972 1.99518 0.468698 3.51241 -0.752442 -0.61444 0.232681
124 2.44906 1.3579 4.2154 0.537713 1.1564 -0.431256
2835 4.35756 0.306005 3.40656 -1.52598 0.551279 0.141162
1049 3.39389 0.875614 3.76269 0.267905 -1.51678 1.40442
3032 5.16784 0.150649 4.00717 -0.049324 0.358605 0.679374
2537 5.3587 0.506385 2.99725 0.488102 1.55395 0.787371
529 4.7002 1.44136 4.09502 -0.489022 1.21696 -0.912516
3217 6.4801 1.04947 3.45975 -0.630792 0.624336 -0.731585
2028 7.3093 0.289612 4.16012 -0.482968 0.850869 0.223973
1969 7.46351 0.894576 3.16238 0.463789 0.591813 1.95336
2384 8.22807 0.985745 3.85845 0.103793 -0.708576 0.0343544
1150 9.22855 0.728529 4.43304 -0.670215 0.223445 1.19693
3082 10.2731 1.30694 4.18272 0.625771 -3.17138 2.89307
2601 11.2823 1.16243 3.8195 0.185865 -0.156016 0.478007
1487 11.6932 0.0611696 3.57756 -0.479123 0.0492452 1.03809
2657 13.3382 0.953115 3.25236 -0.742732 -0.288415 -1.73793
3875 13.0767 0.919586 4.37881 -0.0399621 0.187318 -0.9219
2580 12.3458 0.940281 3.64751 0.490243 0.606924 2.22337
3697 14.1972 1.41036 3.95239 0.0598799 -1.30921 -0.47831
1669 13.7645 0.101896 3.66058 0.295475 -0.33273 -0.151097
632 15.3709 1.40196 3.2863 -0.344542 0.0808632 0.786115
2326 15.7734 0.830214 4.02745 1.06227 -0.256867 0.136026
504 17.2433 1.47829 4.12314 -2.1777 1.28934 -0.149726
338 17.226 0.0125555 3.76451 1.57381 1.41029 1.33639
1452 16.6032 0.729211 3.0975 -1.2826 -0.237439 -0.761257
1464 17.5531 0.955896 3.03932 -0.434154 0.542002 -1.73011
608 1.32593 2.40643 3.11599 0.574547 -0.0887349 -0.0335481
3613 0.338559 1.70558 3.74938 0.262864 -0.187634 0.328419
3637 0.801613 2.83586 3.92769 0.374489 0.341062 -1.73459
2220 2.55859 2.32296 3.15749 -1.18124 2.48343 -0.478854
43 2.49815 2.52711 4.15992 -0.232143 -0.418393 -2.17109
371 3.35191 1.65545 3.04569 0.140093 0.525361 1.15232
1319 4.00813 2.22279 3.6566 0.664712 -1.40315 -0.268328
3084 5.51984 1.66035 3.41356 -0.144049 0.346741 -0.53208
3992 5.2046 2.28733 4.34592 0.0925561 0.739923 -1.28455
3363 6.45772 2.33082 3.64208 -0.678085 1.65236 1.81708
217 7.33577 1.61297 3.89296 -1.56712 0.0727992 1.35112
2073 6.96851 2.68032 4.43297 -0.290568 -0.0595215 -0.671156
91 8.83841 2.74536 3.04629 0.595521 2.27696 -1.14605
1492 7.5915 2.59057 3.29079 -0.101557 -1.95351 2.17377
1244 8.5555 2.02866 3.76835 -0.257796 -0.717609 0.071231
554 9.43805 2.0163 4.37135 0.104033 -0.638445 -0.597864
1480 10.1903 2.15772 3.42227 -1.86207 1.79192 0.300046
3330 11.1808 2.2111 3.26408 0.3794 1.58456 0.400853
2008 11.4356 2.58079 4.18198 0.648121 -1.49399 0.952179
370 12.2433 2.07227 3.64083 -0.688101 1.09062 -0.357498
586 14.594 2.39629 3.42552 1.67764 0.953517 -0.938506
656 13.4748 2.10742 3.4698 -0.557907 -0.910504 -1.70241
2084 16.1394 2.90302 3.6579 1.17278 -0.41275 -0.933121
3738 15.5764 1.99485 4.14916 1.77661 0.375449 -1.11111
2630 16.4076 1.67496 3.38615 -0.195082 -1.02718 1.3164
498 17.2095 2.24103 3.25629 0.249059 0.347683 1.14439
2393 1.41531 3.75784 4.31728 -0.717049 -0.506749 -0.474986
2620 2.49235 4.1443 3.99195 0.45264 -0.268666 -1.61275
722 1.54504 3.41367 3.22018 -0.893669 -1.82453 -0.193698
1248 3.20401 3.2958 4.05355 -1.17035 0.986289 0.586933
3840 4.43446 3.70716 3.66174 -0.0225332 -0.532491 -1.28215
2155 5.35028 3.40498 3.07436 -0.0751649 -0.13362 0.666846
1318 6.39512 3.67664 3.51425 -0.549484 1.58303 -1.58034
1829 8.52224 3.59126 3.76294 0.583843 -0.54263 -2.40464
2750 9.7728 3.03682 3.95557 -0.0403303 -0.429116 0.698767
3131 9.43468 3.91545 3.47336 0.914315 1.24556 -0.883804
1303 10.6227 3.06962 3.36181 0.698869 -2.17328 -0.126545
1314 11.3683 3.80072 4.11225 1.06488 1.58845 -0.297474
3498 11.6982 3.21325 3.28753 0.623413 0.457078 -0.318424
180 12.613 3.68177 3.17424 0.353122 -0.408819 0.697536
2288 12.6099 2.99002 3.99296 -0.221647 0.215972 -0.126888
1329 12.9015 4.35634 3.85507 -0.359845 -0.198188 -0.399271
2452 13.6966 3.26634 3.53006 0.541864 -0.632133 -1.1383
2313 14.177 4.28279 3.02084 0.786819 1.00423 -0.547996
1725 13.8329 4.00477 4.29408 -1.58507 -1.88675 -1.20644
2640 15.507 3.78016 3.63979 -0.506439 -0.740938 -0.286175
1903 15.2117 3.10737 4.45979 1.63656 0.998017 1.72736
3739 17.851 4.45228 4.17685 -0.483135 1.81494 2.06437
1126 16.6638 3.72779 3.25016 -1.22625 1.13926 0.0106766
2808 16.7835 4.20739 4.22362 0.131992 1.47038 -0.814681
2366 17.6459 3.23805 3.82991 -0.484889 -0.795327 0.791759
48 1.07044 4.6144 3.83205 -0.153441 -0.359759 -0.380229
1266 1.25947 5.50238 3.04543 -0.394676 0.033997 2.10746
1531 2.91375 5.68325 3.93404 1.08732 -0.931085 0.116912
3651 1.75588 5.4201 4.17983 1.56317 -0.836221 -1.73179
1561 3.51464 4.77651 3.74121 -0.291637 0.400844 0.115984
2937 5.67355 5.46085 3.55958 -0.0260603 0.170714 0.912871
1035 4.76352 5.12378 3.18201 -1.22063 0.446317 -2.04599
3908 4.78987 4.79195 4.10401 2.19093 -1.01357 0.391002
3234 6.92231 4.82726 3.5342 -0.741915 0.757375 1.25568
285 7.05781 5.84384 3.95096 -0.312763 0.146322 -0.731954
296 8.07502 4.6512 3.91976 0.904076 -0.848937 0.199177
1289 7.7543 5.44579 3.32821 -2.10121 -0.408913 0.163518
1953 8.53893 5.49627 4.24298 0.853965 0.220415 1.04053
3991 10.2386 5.6493 3.0775 -0.263645 1.00722 -0.598231
669 9.31544 5.0563 3.67702 1.04736 1.48309 -1.49252
2542 11.764 4.51775 3.38412 0.29883 -0.029462 0.640197
1539 10.7467 4.83153 4.27948 -0.892606 1.26835 -0.172525
1989 11.3267 5.69169 4.02634 -0.713891 -0.765295 -0.626956
2067 12.5658 5.33315 3.48708 0.360329 -0.422571 1.35562
3515 11.954 4.90647 4.46794 -0.430884 1.85111 -0.632488
250 14.2355 5.05069 4.30339 0.044755 -0.330614 -0.985438
125 14.6255 5.66926 3.21187 -0.029602 -1.67052 -0.648317
1096 13.5596 5.10486 3.09238 0.14377 1.10138 0.115363
1659 15.3008 5.4885 3.97692 -0.657805 0.183151 0.0259556
1754 15.2061 4.67061 3.14326 -0.240574 -0.335822 0.368721
816 16.3005 4.90351 3.4011 1.11559 -1.25347 0.53966
249 16.3833 5.74445 4.17511 1.33151 -0.387882 -2.17037
2544 17.5866 5.55372 3.99908 -0.398314 0.628095 -0.556546
1273 0.169453 6.03822 3.19049 -1.89854 -2.97727 -0.780028
2843 1.10694 6.47206 3.57543 0.0391327 -0.334215 -1.26992
1809 2.37935 7.38882 3.26557 0.635334 0.131198 -0.385053
546 2.04864 6.54631 4.03867 -0.131253 0.688128 -0.914347
3920 3.97109 6.04932 3.67736 -0.265597 -0.65469 -1.12678
724 4.00885 7.05208 4.26587 1.33493 0.522469 0.385675
617 3.05915 6.91809 3.76983 -0.685669 2.10516 -2.38853
1974 4.88158 6.41751 3.67949 -0.0421594 0.353433 -0.547921
2453 6.10749 6.4476 3.7676 -0.373454 1.26685 1.25481
3237 6.87011 7.34699 3.71121 -0.291521 -0.037509 -0.0875474
701 8.82499 6.0608 3.30739 -0.461263 2.8065 0.366854
2739 7.72247 6.64744 3.7886 0.0400897 0.66738 -1.86625
750 9.91181 7.05745 4.07627 -0.091294 -0.295991 -0.0368517
2890 10.4522 6.63293 3.26705 -0.865038 -1.63931 1.13462
425 10.7024 6.49296 4.30154 -0.0218345 1.69697 -0.265453
614 11.7548 6.45566 3.29581 2.16839 -0.653386 -0.778413
817 11.7425 6.6976 4.28304 0.590463 0.733339 -0.139985
2929 12.6876 6.73313 3.63243 -0.0270022 1.15065 -0.263118
3655 14.0479 7.09376 3.34663 1.13555 -1.59994 1.16529
1199 13.425 5.98124 4.0136 -2.60862 0.0226087 0.404063
1631 14.2868 6.45301 4.4098 0.322543 -1.04444 0.268576
2898 15.1635 6.73959 3.35365 -0.359441 1.94379 0.432616
177 15.8402 6.04888 3.31855 -1.11498 -1.23226 1.95866
2908 15.35 6.5105 4.37902 0.570982 -1.02398 -1.8674
2588 16.7146 6.65803 3.57615 -0.624618 -0.150948 0.0693154
1231 17.7999 7.02993 3.50137 0.341723 -0.386464 -1.78533
1869 0.832029 8.80494 3.35455 1.25383 0.189182 1.11726
3989 0.931651 7.5748 3.15521 -0.46717 -0.444597 1.7699
583 0.281575 7.99532 3.90756 -0.00666634 2.29007 -0.776415
2074 0.431463 8.83883 4.46544 -0.873891 0.55028 0.897554
2123 2.12789 8.41995 3.95898 -0.4472 0.107334 0.529588
903 3.80127 7.79915 3.38799 -0.316145 2.0384 1.41906
937 4.36738 8.55794 4.46348 -1.0123 -0.890124 -0.420767
1951 3.10229 8.63697 4.05011 0.844529 0.629207 -0.541906
3374 4.93139 8.20712 3.22261 -0.673195 -0.772878 -0.42538
175 5.06247 7.57044 4.16222 -0.92571 1.77416 1.34778
3301 5.99607 7.94263 3.80176 0.292632 -1.26703 1.192
1798 6.46405 8.39318 3.03792 -0.468466 0.976367 0.154347
933 8.63284 7.9519 3.95878 -2.47169 0.254833 1.65047
1328 7.63474 7.98298 3.46521 -0.0628837 -0.73936 -0.180302
3147 9.89029 8.02717 3.2512 -0.112081 -0.635391 0.394536
2742 10.3009 8.68983 4.26014 0.730583 0.826962 0.825687
1259 9.25022 8.83383 4.31752 -0.177512 -0.278247 -1.18407
2009 10.8251 7.6372 3.7685 -1.23695 0.321477 -2.4325
1283 11.6529 8.32521 4.1846 -0.86514 1.30715 1.23091
926 12.0758 7.52656 3.21934 -1.86761 0.7358 0.602165
3550 12.8187 7.98804 3.91331 -0.0672901 -0.682333 -0.165625
1340 12.5005 8.69812 3.09333 -0.309313 -0.417873 -1.06904
3833 13.902 8.24537 3.47845 0.402333 0.897956 -0.479782
3169 15.9396 7.60672 3.65591 0.604322 0.976224 1.46402
2695 17.7295 8.92792 3.41931 0.982826 0.785274 -0.640607
3273 16.7789 8.41239 3.24568 -0.693595 1.0672 -2.63918
2761 17.0536 7.47012 4.23718 -0.157589 0.582514 0.0253638
3331 0.719997 0.0668932 5.17784 -0.985426 0.0772509 -0.690409
1138 1.37567 1.1436 5.25966 0.793357 -1.79976 -1.23274
2828 0.103376 0.753278 4.70166 0.390022 1.13953 0.700058
3173 2.61971 0.158165 5.33751 -1.6993 0.704774 2.22333
1934 1.87629 0.277016 4.63634 1.25579 -0.394487 -2.28226
2394 4.24722 0.632741 4.73268 -0.545336 0.470405 1.01381
2840 3.34463 0.918126 5.32764 0.195488 1.43798 0.271198
578 5.93551 0.660206 5.52149 2.23415 0.360879 0.308798
322 4.76076 0.877574 5.70185 -0.881123 0.877447 0.625626
3923 6.85656 1.25117 4.72459 1.18258 0.120108 0.795067
1290 7.27742 1.39539 5.69095 -0.320467 -1.51148 -0.219297
54 6.28649 0.245715 4.59729 -0.580161 0.58502 -0.734453
2655 8.01825 0.693469 4.88996 -0.547193 -0.412302 -1.64725
500 10.2359 0.511171 5.28325 0.345312 -0.696704 0.692492
364 9.06575 0.199859 5.31093 0.731183 0.530488 0.615931
3654 11.0774 0.306469 4.51506 -0.565642 2.00859 0.433015
2996 11.097 1.19974 5.0764 1.07472 1.02755 0.473165
1650 12.0481 0.649947 4.57472 -0.529664 1.40256 -0.101348
2274 12.705 1.31178 5.42465 0.701512 1.21712 0.195339
3587 13.3136 0.371216 5.64861 1.04531 -0.642108 0.933154
2236 14.016 1.27142 5.13381 -0.0164908 -0.289097 -0.523219
1432 15.1205 1.0806 4.91572 -0.267245 0.576379 0.958658
3269 15.6497 0.547691 5.70693 0.088663 1.39477 -2.51325
2698 16.0698 0.37331 4.8708 -1.26592 0.763796 0.61114
2765 16.4013 1.39789 5.06084 -0.540766 -0.281923 2.26022
1448 17.3232 1.3202 5.46304 -1.07453 -0.702326 -0.0194057
1042 17.2348 0.13773 5.54019 -1.61206 -1.50773 -0.492368
331 1.30421 1.84882 4.50727 1.24267 -0.690612 -0.435898
3009 0.196183 2.88825 4.87157 0.617809 0.932187 1.03668
589 0.198411 1.8271 4.80355 -0.852418 0.555441 -0.969282
305 1.05081 2.09585 5.67422 0.744897 -1.32699 0.454779