ITEM: TIMESTEP
70000
ITEM: NUMBER OF ATOMS
4000
ITEM: BOX BOUNDS pp pp pp
0.0000000000000000e+00 1.7878070701931353e+01
0.0000000000000000e+00 1.7878070701931353e+01
0.0000000000000000e+00 1.7878070701931353e+01
ITEM: ATOMS id x y z vx vy vz
1021 1.15189 0.221978 0.489968 -0.318682 0.212319 -1.01569
2432 2.19429 0.437317 0.783462 1.00213 1.31936 -0.980845
1803 1.97045 1.35566 1.44972 0.302419 0.359016 -1.50493
3355 2.58281 1.45071 0.598098 0.103077 -0.332108 2.03205
3363 3.59885 1.17102 0.671459 0.0813882 2.78157 -0.696484
2760 5.66318 1.25543 1.20643 -0.0549872 -0.347269 -0.548014
2435 4.73818 0.713238 0.695242 0.0358981 -1.08819 0.760702
1538 5.72221 0.657381 0.289771 1.41492 -0.991384 0.784658
3173 7.35456 1.21391 0.58285 -0.609219 0.233699 -0.281761
1835 6.49461 0.542603 0.950317 -0.0588905 -0.730056 1.57057
2402 8.33554 0.562343 1.18617 0.64408 1.06414 -0.986424
902 8.37184 0.63143 0.105579 0.484485 -0.362055 -0.165756
2255 7.52045 0.160378 0.380722 -0.368261 1.53578 0.777724
2157 9.43856 1.10456 0.171531 1.28885 -1.84246 0.204963
2823 9.56884 0.887284 1.34587 1.03346 -1.05297 -0.767838
2105 10.5805 0.929126 0.365646 -0.166005 1.88967 -0.776986
664 11.5399 0.807733 1.11989 -0.535508 0.525291 2.11467
401 11.5221 1.10792 0.00583474 0.313393 0.0265554 1.86075
3714 13.2524 0.0198041 0.191916 -0.458913 -0.23995 -1.89059
1773 12.6362 0.934973 0.58865 -2.33668 0.632128 1.15086
273 14.5164 1.29563 0.81651 -0.334276 -0.695251 -0.74616
2407 13.4221 0.155581 1.33716 -0.036433 -1.32782 -0.171152
1890 14.4534 0.243936 1.25097 0.231305 1.54096 -0.100485
2396 14.413 0.00948351 0.0214157 0.373719 -1.14751 0.376108
795 15.2043 0.777247 0.244827 0.911116 0.0558153 -0.126817
3600 15.6366 1.03875 1.13858 -0.278651 0.172044 0.35063
3252 17.5182 0.145878 0.624983 0.52701 -0.219332 0.761857
2708 17.8197 0.846034 1.36424 -0.799029 0.568794 0.799354
2389 16.9596 1.18048 0.805345 0.0553957 -0.300082 0.957076
2635 16.4126 0.279101 0.966537 2.026 -0.110448 -0.225678
3170 0.206952 1.84538 0.591014 -0.232808 0.263833 -0.450637
2433 1.67549 2.38719 0.0881206 -0.215957 1.19282 -0.406215
349 1.61659 2.39371 1.20926 1.02964 -0.740262 0.0131343
445 3.77762 2.33902 0.681043 -0.966318 -0.228557 0.18575
395 3.05492 2.9428 0.0467396 -1.43547 0.051409 -1.66546
2465 5.56954 2.81005 0.647895 -1.1241 -0.518349 0.435736
3734 5.69415 1.75413 0.234338 0.788312 -0.404083 -0.529611
3724 4.81301 1.97114 0.953138 -0.923457 -1.27752 -0.129542
2791 6.79114 1.97955 0.154051 0.138105 -0.996066 -0.907577
1720 6.18924 2.087 1.01093 -0.0928332 0.216133 -1.46076
2972 8.51977 1.70128 0.125683 0.718453 -1.06107 0.660096
1671 10.048 2.09025 0.344056 -2.85985 0.686413 2.85869
1610 10.2145 2.08496 1.42358 0.754391 -0.105497 1.52502
1730 9.01072 1.73088 1.39706 0.384952 -1.34234 0.162997
1149 11.055 1.67823 0.866878 1.41992 -0.432972 -0.856394
3882 12.384 2.74673 1.35324 0.921806 1.77631 1.26591
3081 12.352 2.0328 0.344608 0.521191 1.84829 -0.528183
2593 13.3756 2.8705 0.813406 -0.160945 -1.52972 0.00576382
819 13.5101 1.56733 0.860719 -1.33192 1.09688 0.324082
91 14.6114 2.3792 0.426626 0.493661 0.165157 -1.65729
1931 15.5921 2.89411 0.634563 0.855109 0.347927 -0.547964
2868 15.5219 1.75868 0.343424 -0.526058 0.255797 0.612048
2069 16.8213 2.37812 0.930145 0.4227 0.250805 1.07783
49 17.4779 2.8385 0.298469 1.1705 -0.92977 0.473299
1432 0.656628 3.9454 0.895902 1.31536 0.895111 1.32343
3633 1.62589 3.48381 1.1386 -0.963436 -0.576294 -0.913692
1257 1.98465 4.38996 0.0545991 0.145243 -0.390256 0.291695
3624 4.19748 3.26407 0.579647 0.251105 -0.838954 -0.243678
3721 3.91631 4.42278 0.360372 -1.33349 -0.599999 0.328142
1271 3.95701 3.76493 1.42409 -0.646811 0.572574 1.5821
361 4.85033 3.15174 1.28809 -0.689318 1.41637 1.0942
464 5.68506 3.85754 0.535883 -0.541174 0.717536 1.17701
1065 4.80765 4.22358 0.807405 -0.0694525 0.4269 -0.0274424
1569 6.45964 3.59286 1.20255 0.840314 -1.53701 -0.00527132
1820 7.04057 3.01978 0.578517 0.55288 0.383877 -0.695652
3092 6.74135 4.39861 0.0316617 2.80626 0.0916496 3.97137
3911 7.61731 3.85573 0.355533 1.65211 -0.871746 0.122072
774 8.99266 3.48601 0.587058 1.10029 -0.52991 -0.00814995
803 9.9381 3.01168 0.800745 -0.624825 0.23574 -0.269123
3333 9.149 4.39766 1.47148 3.1737 0.0106908 0.198325
1241 9.30677 4.41425 0.172615 0.460009 -0.511983 1.06686
924 11.7386 3.2041 0.253213 1.05842 -0.483877 0.957357
2114 10.9882 3.35421 1.1032 0.396073 -0.231097 -1.02026
3100 10.9121 3.94875 0.136254 -0.258211 -0.718447 -1.22174
1388 11.3115 4.36229 1.03009 -0.692038 0.617167 0.600672
690 12.1544 3.73386 1.066 -0.197039 -0.396715 -1.53011
2663 13.2534 3.72171 1.37444 -0.298927 -0.0708269 0.957764
2979 13.0045 4.44743 0.716924 -1.38425 1.30111 0.561513
1967 14.3446 3.11081 1.12963 0.746826 0.517988 0.348767
2828 13.7546 3.67067 0.415928 -0.413231 -0.0113924 -0.860225
1640 14.8434 4.1839 0.531323 -0.962548 -0.239344 1.98698
1279 14.0992 4.24454 1.24072 0.149591 0.839948 -1.31956
1060 15.9464 4.08421 0.758952 0.928604 0.655885 1.03694
2598 16.4675 3.39918 1.45651 -0.441029 -0.0212488 0.169844
2007 16.9511 3.80568 0.591762 -0.541117 -0.416143 0.910463
1298 0.0164402 4.77373 1.31054 0.585243 0.420291 2.04222
2028 0.805371 5.32988 0.786393 -0.538892 -0.211702 -1.58227
86 1.99193 4.61379 1.18767 1.29079 -0.158332 0.184513
2624 1.94943 5.38126 0.403474 0.517471 -0.0765759 0.228594
577 1.85127 5.62187 1.40929 -0.237065 2.05743 0.1351
465 2.95953 5.21104 1.02086 -0.285078 0.680853 0.0157979
1595 4.13636 5.22532 1.39523 -0.53398 -1.6456 -1.45273
232 5.62536 4.83305 1.18848 0.26197 2.20135 -0.246882
437 4.68929 5.2466 0.218961 0.502466 -0.237287 -0.36559
307 6.61909 4.83827 1.40745 0.378999 0.592016 -1.36264
1588 6.62211 5.7931 0.177821 -2.88356 1.08224 -1.42893
1974 8.17358 4.71238 1.00704 -0.634895 0.250791 -1.05865
1786 7.82889 5.49671 0.465763 -0.20779 -0.557789 -0.558401
499 10.2303 4.51392 0.770867 -0.742333 1.0416 -1.24118
2747 9.27581 5.18945 0.812518 -0.202169 0.470334 1.41873
1131 10.6894 5.37154 1.06728 -2.8773 -0.493135 1.54832
768 11.6061 5.91827 0.635399 -0.722452 -1.43305 0.903367
761 11.1058 5.07353 0.175607 0.252499 2.67038 1.14638
3976 12.0337 4.65653 0.206646 0.710604 0.245962 -1.47315
3589 12.6986 5.52708 0.776181 0.0693584 -1.5457 -0.36472
1157 13.6397 5.85549 0.0525329 -0.000458467 -0.745911 0.380028
3637 14.0282 5.94398 1.24051 -1.0235 0.0082808 -0.0451662
2163 13.8945 4.73398 0.0966895 -0.447286 -2.48138 1.36824
1198 16.0085 5.43967 0.125347 -0.935045 0.00045527 -1.30883
847 15.129 5.12805 0.824294 0.242029 -2.77828 0.0472728
2147 15.8211 5.82303 1.2847 -0.194796 -0.298507 1.21745
804 17.8476 5.44491 0.0937127 -2.32623 1.20801 -1.23746
2723 16.7024 5.27386 0.967137 -0.237277 -1.32713 -0.726174
423 0.0481296 7.13385 0.967485 -0.641531 0.619527 1.01364
3703 2.79905 7.01371 0.581116 -0.00527701 2.05153 0.409879
736 1.60739 6.66796 0.522024 1.10155 0.0715409 1.24604
1111 3.31245 6.23445 0.877641 0.0634229 -0.336695 0.603416
115 4.23416 6.61536 0.146606 -0.148338 0.23295 -0.273027
3325 4.43124 6.25664 1.38242 0.0873613 -0.211123 -1.70683
2532 5.95762 6.56712 0.291489 0.219801 -0.0422361 1.35841
1674 5.71094 6.11999 1.26001 -0.174998 1.89094 -0.045838
3560 5.35743 7.13607 1.14481 -0.352025 1.49612 -0.299193
1781 7.0622 6.3795 0.854861 -0.346443 -1.99453 -0.84676
2739 8.01691 6.70172 1.1518 -1.38228 -1.0874 -0.291367
2186 8.82412 6.20322 0.758652 0.373287 0.0510524 -1.38196
2029 7.8567 6.53217 0.106688 0.195684 0.097152 -0.102646
508 9.49169 7.29034 1.27047 -1.70335 0.266437 0.175998
1789 9.17147 7.05387 0.0288882 0.566228 -0.0705423 0.234309
2833 9.81715 6.42536 0.519615 -1.65906 0.59667 -1.09753
663 10.9273 6.78094 0.756187 -0.940248 -0.130786 -0.493585
1827 13.1603 6.47306 0.946528 1.12175 -0.853328 0.0248325
3876 14.6463 6.78945 1.11266 -1.95795 -0.134182 0.265645
3813 13.7116 6.8874 0.0801211 -0.819615 -0.795066 0.231536
1348 15.9761 6.82502 0.839774 -0.485119 -0.25582 0.313581
2542 15.1699 6.13781 0.310961 1.26399 0.876248 -0.976293
312 17.3269 6.15735 1.11211 1.20244 -0.147531 1.31168
135 16.9516 7.28757 1.37456 0.606388 0.0315152 -0.767945
1062 17.0352 7.35561 0.21621 2.33062 -1.12725 0.198794
667 0.694042 8.17953 0.54798 -0.899733 -0.11985 -0.251165
1863 2.43769 7.97931 0.336795 -0.859558 0.115289 0.418229
1369 1.74394 8.23086 1.18289 0.64877 -0.318436 -0.229909
2671 4.04838 7.48146 0.916466 -1.41462 0.600619 0.235442
1343 3.4278 8.39235 0.869358 -1.31162 -1.31806 0.792201
702 4.8403 8.18078 0.66597 1.16041 -2.42787 -0.994207
1676 7.32285 7.45606 0.587393 0.950588 1.59531 -1.02627
1647 6.61289 8.42316 1.26385 0.44519 -0.568962 1.39852
295 6.30276 7.77188 0.604202 -1.45712 0.559232 -1.07147
2716 8.21458 7.74384 1.22657 -0.193512 1.91663 -1.68453
1022 7.60606 8.79845 1.16583 0.476398 -0.44994 0.482039
1705 9.34838 8.30439 0.619289 -0.27344 1.72798 1.09327
1197 10.2212 8.77714 0.230441 -1.23129 0.130995 1.05697
2553 11.697 8.73532 1.1193 -0.0269815 0.246829 1.82669
502 10.7128 7.78853 0.276054 -0.532448 -0.358027 1.50754
286 10.6242 8.00764 1.39057 1.88575 -0.149743 0.272343
3461 12.3029 7.65769 0.531641 -1.46735 0.00281614 0.125832
3224 13.1771 7.85345 1.25461 0.589784 -0.0998527 0.87462
1490 12.9106 8.61338 0.336036 -1.38887 -0.139244 0.457214
623 12.727 8.71561 1.46312 -0.85984 -0.38486 -1.29436
318 13.9022 8.2157 0.559617 -0.0946742 1.01198 -1.60118
1514 14.6776 7.46018 0.230603 0.34148 0.933262 0.432439
3416 15.2503 8.89694 0.1679 0.502212 0.327425 0.369439
262 15.7805 8.87853 1.36266 0.0654755 -0.634184 -0.734367
2440 16.1907 8.39086 0.336759 -0.472726 0.63775 -0.0940412
693 15.4741 7.83472 0.942883 1.40106 0.432623 -0.666495
741 16.4443 8.14743 1.33727 -1.73743 0.976678 1.29926
1059 17.6018 8.08535 1.2317 0.4477 0.64173 -1.63944
800 1.1423 0.0074977 2.49164 0.881671 -0.406176 0.201543
2359 2.15283 0.491193 2.01654 -0.843685 -0.713111 0.679436
775 2.60587 1.19449 2.70381 1.2492 0.537975 0.606497
2191 3.07156 1.0281 1.70897 -0.63432 -0.925116 0.732638
1994 3.22528 0.0556209 2.04774 -1.72058 0.344278 -0.703617
2764 4.11309 1.01746 1.52328 1.14622 -0.4233 1.15488
3543 4.14885 0.103388 2.92005 -0.510087 0.991095 0.0505822
812 4.73607 0.159435 1.91548 -0.592227 0.622415 -0.462978
1694 4.6007 1.06042 2.70214 -0.532562 -1.1569 0.296976
319 7.26282 0.760237 2.5958 -0.295723 1.01636 0.0526994
3074 7.36675 0.0954777 1.81847 -1.37437 0.514029 -1.14909
1150 6.27643 0.541835 1.96522 -0.26002 0.105236 -1.61695
885 7.91845 1.36982 1.78631 -0.308741 0.611683 2.226
622 8.82687 1.2228 2.23021 -1.30927 -0.168465 -0.676705
290 9.30386 0.0924834 2.0526 -0.130922 1.21518 -1.15659
1285 9.95858 0.955233 2.52928 0.313549 0.275955 -0.979311
1480 10.6409 0.360924 1.66661 0.145937 -0.443705 -1.93861
3836 11.2427 1.24388 2.02346 1.624 1.37331 -2.01414
2397 10.9597 0.177951 2.85287 -0.369696 1.45308 0.0484135
2927 11.6355 0.310285 2.05588 0.884786 -0.4171 0.0633275
713 12.8581 0.691991 2.67757 0.0387733 0.919134 1.50964
3779 11.9658 1.11683 2.7072 -2.47893 0.119888 -2.06546
2270 12.5454 0.540381 1.58412 2.07935 0.13509 0.672229
2666 14.0611 1.09838 2.9424 -0.506262 0.0554334 -0.921997
348 13.6701 0.980443 1.98267 -0.144446 -2.39354 0.17273
1950 14.7599 0.454315 2.23126 0.933391 0.742797 -1.50199
1539 13.8869 0.0456892 2.45637 0.836671 -0.0308478 1.57941
3547 15.671 1.02137 2.71929 1.12394 -0.61233 0.715517
3785 16.7734 0.160935 2.59821 1.37799 -1.35023 0.682024
3300 17.546 1.08849 2.63394 -0.618644 0.408193 1.49657
555 16.5 1.02013 2.08442 1.46107 0.365749 -0.651136
1537 0.620855 2.92721 1.52686 -0.237857 -0.429814 0.08486
3469 1.05583 1.89955 2.76835 1.39393 0.890349 0.119817
2320 2.705 2.07386 1.50768 0.780844 0.00896005 0.311832
823 1.7199 2.63049 2.22561 0.0203537 0.846227 0.0809367
1589 2.80234 2.54861 2.77181 0.289381 -0.115642 -1.70484
2969 3.7247 1.76639 2.18377 0.102268 -1.39067 -0.100319
381 4.36835 2.46874 1.81421 -0.715873 -0.0157594 -0.161228
378 5.48302 2.56198 1.90868 -0.0830559 1.54965 -1.42727
3041 6.49812 1.67879 1.96709 0.374775 0.305887 -0.433269
331 7.12119 2.17591 2.9197 -0.79849 -2.25249 0.288743
3656 6.65558 2.97813 2.04414 -0.710091 -0.526799 0.0285879
256 8.32349 1.88709 2.95009 -1.28682 0.913773 0.394342
2667 7.76405 2.85575 1.4984 -0.325947 -0.247919 -0.0474803
114 9.60926 2.28452 2.46415 -0.288881 -0.498587 -0.861687
3907 10.2008 2.95898 2.95647 0.780646 -0.202752 -1.7087
3805 10.524 1.8289 2.44703 0.741601 -1.12298 -1.02256
3443 11.1544 2.39694 1.75443 0.482562 0.945009 0.752737
3762 12.0235 1.69238 1.51296 1.81822 -0.360156 -1.30462
3545 12.5561 2.64916 2.50733 -1.84051 -1.24665 -0.154677
2552 13.0445 1.78698 1.75722 -1.52664 -1.35736 -0.66076
1096 14.6866 1.51704 1.85093 -1.62543 -0.24863 -0.64153
2800 13.5327 2.20614 2.90522 0.691223 2.09804 0.707996
2784 13.5034 2.92279 2.0292 0.242774 -0.689675 -0.147978
2032 16.0381 2.74462 2.47519 0.683566 0.30857 1.03733
608 14.9509 2.52653 1.6253 -1.50699 0.724127 -0.256382
709 15.6835 1.8344 1.8845 1.72503 0.44249 0.0886858
2473 15.0937 2.05602 2.77709 0.109438 -0.969158 -0.695611
354 17.0505 2.70945 2.28552 -0.972658 -0.546019 0.416738
869 16.6171 1.75658 2.70062 -1.94975 -1.22445 0.106152
3098 17.8522 2.20163 2.82494 -0.59609 0.458324 -1.47432
1690 1.48344 3.76901 2.17661 1.39066 -0.346699 -1.62656
1093 0.202444 3.3313 2.66326 0.288337 0.100861 -0.155574
3160 2.66764 3.75558 2.33191 0.327467 0.596154 0.698992
2155 3.44632 3.00991 2.00884 1.74226 -0.676979 -0.12468
1459 4.42008 3.47534 2.37214 -0.185779 -0.216076 -0.952825
2629 5.53958 3.8936 1.64984 1.15486 0.988673 -0.327603
3093 7.27973 3.58174 2.69993 0.0731622 1.79077 0.592139
2447 8.30243 4.37058 2.28201 -1.8287 1.66581 0.225886
2535 8.8793 3.161 1.54598 0.431418 -0.630112 0.422945
2374 8.23969 3.14185 2.38867 -1.45436 1.91053 -0.56838
957 7.49156 3.95614 1.53276 1.07051 -0.865291 0.348403
2665 9.57023 4.44498 2.51328 -0.700963 -1.06116 0.110858
725 10.1272 3.06957 1.884 -0.268688 1.96811 0.651094
1289 9.21829 3.54124 2.5346 0.0283869 -0.267941 -1.32982
1170 11.18 3.4049 2.22281 -1.29439 0.0803871 0.274826
3145 12.1904 3.88934 2.46757 1.44858 3.46995 -0.829984
116 13.3904 4.12927 2.51693 -0.774396 1.62635 -0.830013
2080 14.3385 3.52844 2.23605 -0.195118 -1.54783 0.42472
337 15.4997 3.49734 1.98468 -0.367973 0.827412 0.00555162
436 15.5263 4.17066 2.93278 0.396412 -0.475563 -0.6505
589 17.4977 3.40489 1.52702 0.558266 0.3221 -1.11938
651 17.0783 4.29746 1.66148 1.28222 -1.65289 -0.362284
1636 16.7816 3.66369 2.67222 -0.467847 -0.236985 -0.356375
2922 17.6612 4.25989 2.57596 1.16376 -0.111794 -0.646951
2510 0.760043 4.5264 2.88029 -1.47135 -0.0470097 1.12386
3551 0.898487 5.38502 2.23382 0.959172 -0.269465 0.114841
475 1.87592 4.88358 2.26728 -0.547791 0.149832 0.019544
3398 2.75582 5.93226 1.86377 0.422958 0.638781 2.09405
3158 3.91174 4.53962 2.44787 -0.839499 -0.673926 -0.558945
1488 3.9688 5.80429 2.39078 -0.249547 -0.493984 -0.843694
3083 5.00964 5.60395 2.16872 0.260227 0.0148031 -1.12521
2648 5.67561 4.75266 2.72537 1.72228 0.347637 0.359784
130 4.85353 4.61679 1.95115 -0.323922 -0.168821 -0.916446
2866 7.22936 4.92698 2.36097 0.136903 -0.900655 0.477159
1885 6.17897 5.52677 2.21331 -0.461671 -0.827214 -1.18272
3136 8.70614 5.53431 1.58444 0.540739 0.839574 0.397116
2852 8.68953 5.40556 2.75568 1.09727 0.907206 1.72567
109 7.5774 5.56438 1.50147 1.29615 2.36445 1.23656
2910 9.83672 5.35275 2.27938 -1.1709 -1.0039 0.778697
222 11.7758 5.8991 1.63737 -0.221725 0.250744 0.544786
2713 10.482 4.48587 1.94696 0.853206 -0.986647 0.0984389
2956 11.5188 4.70776 2.84509 0.693923 -1.53895 0.425009
3851 11.3021 5.16446 2.03132 0.730994 -1.82711 0.407331
1957 12.3305 4.783 1.54255 0.954441 0.261136 -1.07014
1840 12.4629 5.16445 2.64428 -0.111237 -0.416764 2.17576
600 14.5879 5.295 1.77817 1.5458 -0.916278 0.78992
2201 14.1008 5.26568 2.69202 -0.46433 0.746018 -1.19186
342 13.4296 5.09745 1.62368 0.757902 -0.296747 0.0500857
1725 15.9201 4.63739 1.7038 -0.337744 -0.437172 -1.44289
2881 15.3686 5.53578 2.47821 -0.0332299 -1.92111 -0.194348
635 16.5186 4.709 2.75603 -0.483717 0.0223926 -0.185302
707 17.6994 5.72376 2.91917 -0.326761 -0.610271 0.614894
153 16.4829 5.58442 2.04616 1.6762 -0.750289 0.121127
3111 1.08302 6.28393 1.52443 0.758046 0.606413 0.91624
1427 0.825639 7.04091 2.1289 -1.83279 0.674312 0.034027
2502 1.63429 6.27098 2.49289 -0.857651 -1.20836 0.0396902
2354 1.85058 7.35892 2.28912 0.970027 -0.0774066 -0.786791
3322 3.33975 6.51272 2.88738 1.51761 0.160747 -0.256697
3971 5.20456 6.66545 2.17377 0.737916 -0.735325 -1.2665
2272 6.30624 7.24851 1.74676 2.39951 1.28135 0.23141
415 6.08675 6.73951 2.77499 1.34768 -0.732212 0.381981
3217 7.24579 6.906 2.24155 0.292697 2.61337 0.0137781
929 8.04899 6.24795 2.27761 1.6916 1.00852 -0.285801
3137 8.40533 7.25268 2.263 -1.14986 -0.305932 0.251528
1376 9.25861 6.55378 2.17814 1.21696 0.126998 0.75721
879 10.2094 6.3895 1.91617 0.171385 -0.979694 -0.739358
742 11.4912 6.71388 2.38726 -1.10884 -0.890242 0.0426083
3838 12.5133 6.48768 2.57447 -0.0555235 0.21505 0.544143
3161 12.3774 6.92388 1.62089 0.0624636 -1.52539 -1.1156
3832 14.7902 6.33317 1.96198 -1.91545 2.19147 -1.01215
3107 13.8252 7.15048 1.86536 0.365816 0.616099 -1.0284
1327 13.5584 6.09133 2.23149 0.645318 -1.33601 -0.892452
1659 14.3266 6.77996 2.80058 1.50868 -0.730338 0.378962
2563 16.1692 6.69068 2.18448 1.192 0.684865 0.677495
3591 15.4219 7.23485 1.88951 0.114533 1.8166 -0.722183
2622 17.8117 6.3428 2.07949 -0.370428 2.58222 -0.27021
681 17.1532 7.12325 2.41649 -0.389471 1.1596 0.639671
3738 0.193615 7.94143 2.38828 0.582116 1.54327 -0.316663
3153 1.37154 8.32895 2.26088 -1.01607 1.2989 -0.477535
2495 2.90052 7.72682 1.65844 -1.5428 1.24831 -1.95232
119 2.45581 8.21551 2.64726 -0.539605 0.901106 -0.30894
2078 3.39282 8.52097 2.12194 -0.477681 0.204617 -0.574904
781 4.3078 8.18568 1.79298 1.20974 1.38406 0.00242078
276 4.95953 8.34584 2.70515 2.4481 -0.983456 0.903369
3514 5.68474 7.66953 2.7873 0.131527 -0.0593258 -0.532516
2198 5.34145 8.14556 1.67984 0.0867363 -0.750486 -0.231724
2068 6.00152 8.65719 2.3973 -0.443036 0.132634 -0.227157
1173 7.37351 8.01069 1.88441 1.15776 -0.620505 0.189075
1830 8.3228 8.35159 2.26052 0.0220469 -1.49176 -0.778094
1422 10.2855 8.90571 1.74309 0.964615 0.457665 0.0174332
2404 9.26708 8.76307 1.64156 -0.124723 1.27485 0.0195717
3007 9.28713 7.82638 2.21851 -0.00829618 -1.21693 0.081695
428 10.3626 7.65217 2.67105 -1.3777 0.469658 0.370298
3226 10.0042 8.65725 2.69074 -1.54795 -0.352579 0.553336
77 11.8953 7.80484 1.5908 -1.78877 1.08971 0.342479
844 11.6278 8.78568 2.26633 0.464539 -0.899466 0.978649
1251 12.8366 8.80551 2.9258 -0.861883 0.808159 2.42993
442 12.7812 7.9523 2.34526 -1.48012 -0.45187 0.536752
2013 14.6145 8.0392 1.61783 -1.30374 0.381216 0.229878
1770 13.7094 8.50239 1.99883 -0.271784 -1.28226 -0.642493
1122 16.2872 7.59427 2.95598 -1.57237 0.857079 0.771201
538 15.4702 8.29426 2.2901 0.628446 0.270164 0.713534
2596 16.5783 8.52785 2.26644 -1.09317 1.27368 -2.11494
3992 0.82373 0.862608 3.1349 -1.32046 -2.08427 1.02788
180 0.941783 0.226278 4.08734 -1.38314 -0.889118 0.816208
1213 1.47559 1.19687 4.0885 1.44595 -1.75621 0.994033
1438 1.75278 0.350509 3.3156 0.356747 0.693374 1.2172
792 2.78925 0.157902 3.10346 2.13181 -1.21107 0.484583
1947 3.47821 1.3216 3.31055 0.905028 0.600849 0.951404
1394 3.59896 0.680434 4.25891 0.742193 1.44054 1.80837
2655 4.52645 0.298962 3.88309 -0.0667515 1.86664 1.94076
311 5.87025 0.967525 4.21138 0.582062 -1.1851 0.890675
1972 5.50018 0.705883 3.07653 -0.294806 0.585117 0.761171
212 6.35812 1.41488 3.0595 2.00227 0.5436 1.55283
3559 7.12566 1.00203 3.70964 -0.482341 -0.194242 0.63502
1124 7.61225 0.197079 4.46508 -0.197143 0.892273 0.0567185
2468 8.26581 0.676036 3.16633 0.189378 0.261453 0.128171
3477 10.1582 0.519774 3.90848 0.405569 0.26215 -2.45933
3525 9.08439 0.357127 4.02782 0.821322 -0.215775 -0.182831
3650 9.19197 0.0256087 3.08112 0.235811 2.02439 0.034751
447 11.0667 1.38331 3.2171 0.237999 -0.942177 -0.827158
2531 12.2552 0.696218 3.75082 0.254235 0.345303 1.77183
3201 13.0474 1.27109 3.47039 -0.644146 2.07368 0.963779
2861 13.0534 0.0377683 3.64967 -0.854389 0.134726 0.785123
773 16.4216 1.07659 3.61603 0.101347 1.09483 0.333764
446 17.7189 0.272177 3.43398 0.493102 -0.349391 -0.730589
1761 17.815 1.17375 4.25247 0.126678 1.05331 -0.297989
904 16.742 0.192113 4.09183 -0.465818 2.01193 -1.411
2683 1.04037 2.60991 3.54597 0.954084 1.09207 0.373374
1386 0.511979 1.83802 3.71942 -1.94922 0.412405 -1.03942
3967 1.95236 1.79294 3.40316 -1.22185 -1.13942 -0.259563
28 2.97023 2.46353 3.97044 0.623871 0.384305 -0.27599
1547 3.76071 2.41898 3.03239 -0.430656 -0.536232 0.350233
1666 4.06433 1.98448 4.0658 3.16615 -0.553262 1.46154
3975 5.72283 2.14187 3.02076 -0.775022 -1.65877 -0.941133
3130 4.7693 2.81478 3.33046 1.71003 0.0480542 -1.18957
453 5.30222 2.57432 4.18794 -0.6082 -0.357205 -1.00856
1418 4.96678 1.65624 3.58498 0.0957983 1.73142 1.44074
3084 6.25456 2.15914 3.89194 -0.632362 -0.532357 0.31119
2173 7.71151 1.7912 3.93368 -1.40594 0.318593 0.78528
2384 7.94294 2.85301 3.50332 1.91553 -0.544791 -0.390342
3710 8.8135 1.60859 4.09277 0.119412 0.425511 1.13708
2221 9.72036 1.6091 3.36341 0.347512 -0.592872 0.907588
825 9.17541 2.95582 3.48852 -0.275494 -1.82341 -0.594443
322 9.55122 2.40215 4.24784 -1.29462 0.094233 -0.0773055
1303 11.3438 2.44201 3.07966 0.320238 0.801835 0.269233
2189 10.5575 2.21835 3.85489 0.376692 1.12343 -0.706865
405 11.485 2.008 4.21956 0.809095 0.0431678 0.265804
1069 12.333 2.25951 3.38541 -0.0934647 0.326799 0.464837
400 13.3658 2.19649 4.15506 -0.742004 1.29923 0.725435
2469 12.4168 2.79218 4.29987 -2.35203 -0.258887 -1.07878
3468 12.5269 1.5382 4.3494 1.08717 0.947426 0.48248
3625 14.6873 1.50323 3.65542 0.430898 -0.544094 0.515538
2348 14.3249 2.39274 3.97721 -0.455149 1.16214 -1.12099
585 16.0371 2.35931 3.46175 -0.153178 2.51601 0.377786
3673 17.0186 1.97207 4.02698 0.0703571 0.828545 -1.63438
1014 1.28756 3.61628 3.39777 -0.708839 -0.59829 -0.737148
1630 0.0642442 3.23388 4.43318 -1.38556 -0.650144 -1.13672
3740 2.10589 3.01248 3.44854 -1.08273 1.25682 0.661646
1362 2.29853 4.07567 3.93509 -1.47135 -1.14374 0.952279
2233 3.31138 3.49632 4.14542 0.222279 1.3238 0.13563
3025 3.78166 3.77499 3.22465 -2.56213 -1.4703 0.325585
979 4.34311 3.32469 4.19311 -0.11885 0.220806 -0.319487
1310 4.95973 3.99669 3.34067 -0.0494459 -0.164063 0.437615
1290 5.79226 3.16077 3.02478 -0.905936 -0.628722 0.175177
3326 5.93996 3.81958 4.40253 0.0246207 0.127631 0.348112
3841 6.88283 3.2885 3.76668 0.609534 0.902123 -0.688063
2403 8.29026 3.84854 3.27363 -0.944133 1.37295 0.500315
1492 8.05165 3.76085 4.34484 -0.624575 0.782411 0.561363
2200 9.92079 4.11493 3.34561 -0.300056 -1.30378 -0.270685
2869 10.1739 3.36013 4.40161 0.0860524 -1.15717 -1.74958
3191 9.10429 4.33911 4.16662 -1.88634 0.605701 0.109799
2060 11.8074 3.25512 3.15306 2.96185 -0.337523 -0.011922
3729 11.3199 3.29333 4.05028 -0.166522 -0.0647514 0.480353
586 10.9233 3.988 3.32434 0.0926172 0.738303 0.720138
3086 12.7361 3.45431 3.47491 -0.133172 -0.089525 0.758998
3885 13.8157 3.17915 3.36186 -0.278082 0.645747 2.20242
2636 13.4243 3.25884 4.35699 0.514726 -1.07578 1.67601
102 14.5388 4.38771 3.1216 1.41114 0.0121664 1.02295
1953 13.5534 4.33671 3.48544 0.0197907 -1.35908 0.633533
2430 14.4451 3.84353 4.34464 -1.15211 -0.607156 -0.32783
2345 16.1558 3.37055 3.47526 -0.476062 0.818359 0.0292589
930 15.1025 3.16357 3.30366 0.569767 0.163812 1.17029
677 15.6296 3.80937 4.24584 -0.25504 1.50344 -0.635992
3154 17.2427 3.03062 3.67189 2.33864 0.514446 0.330624
3667 17.8336 3.93145 3.62222 0.760549 0.356855 -1.18111
2227 16.6406 4.40891 3.75455 0.647927 0.942291 0.79677
1158 1.06678 4.60227 3.8304 -0.420097 -0.797565 0.554384
3720 0.921481 5.95656 3.26151 -0.857218 -0.839927 1.98933
3009 2.06246 5.48176 3.18574 -1.44187 -0.127846 1.25484
1907 1.55979 5.58055 4.1565 0.160257 0.9208 -0.371442
1248 2.95438 4.58163 3.14767 1.0196 1.5689 0.00322336
2838 2.62875 5.2651 4.3385 0.751949 -0.580937 0.513281
3330 4.02749 4.50946 3.9682 0.139078 -0.254047 0.136306
2806 4.17289 5.84995 3.89485 1.48552 0.349189 -0.304459
424 2.98587 5.74848 3.49312 0.332535 -1.07406 -0.450743
2352 5.01554 5.21705 4.13921 -0.581515 -1.53514 -0.592782
208 4.60657 5.07514 3.20687 -0.885006 -1.46464 -2.88959
1949 5.66141 5.68766 3.26283 -0.952671 0.650546 -2.21527
2540 7.42578 4.83695 4.45408 -0.0421845 -1.23488 -0.207271
2712 6.69606 4.60829 3.20017 0.865358 -0.159122 1.19282
3371 5.99285 4.85185 3.95255 -1.52223 -2.29332 -1.11108
3585 6.76138 5.78268 4.30859 -1.93467 1.39523 -2.02666
2995 7.68142 4.71873 3.44954 0.322373 -0.809244 -0.457571
1487 8.93096 5.40826 3.72589 -0.0886818 2.40036 0.954368
3064 7.81496 5.74906 3.85493 1.97139 1.1681 0.361669
790 10.4646 5.42699 4.07072 0.211172 0.387687 -0.895364
2793 10.7867 5.83237 3.13069 0.342974 -0.959204 0.790514
15 12.0188 5.06549 3.83392 0.755481 -1.29864 0.626333
2842 13.1514 5.87183 3.44081 -0.59784 0.73744 0.479617
1429 14.7261 4.78068 4.38595 0.810344 -0.44264 0.702223
1798 17.7628 5.23944 4.45678 -1.32244 0.443634 -1.42325
2313 0.212048 6.78874 3.02279 0.448539 0.0603781 1.01991
662 1.30788 6.81998 3.3227 0.786538 -0.0357042 0.332654
2813 2.3224 6.7088 3.66741 1.10711 -1.22004 0.727347
2567 4.1762 6.91153 4.0714 -1.32082 -0.52403 -0.134151
476 4.15345 7.35275 3.00093 1.05878 0.479674 1.16106
3690 3.19715 7.23013 4.21991 0.682045 -0.0254712 0.874109
382 5.16868 6.69162 3.56 -0.115882 0.0756609 -0.878537
633 6.73521 7.39109 3.53083 -0.145912 0.579057 -0.0761598
636 7.03856 5.99745 2.98796 -1.24463 1.19482 -0.0597804
1035 6.19048 6.75236 4.20776 -0.129372 -0.305925 0.274861
3820 7.79513 6.77568 3.7737 -1.64993 0.320888 0.97927
1259 8.63193 6.49924 3.25022 -1.4572 -1.15244 -1.75358
722 8.64859 6.56228 4.39693 0.224069 -0.645399 0.487697
2205 9.51528 7.26847 3.17193 0.680114 -0.0379485 -1.23427
2331 9.66759 6.2099 3.21907 -0.714628 -0.673135 -0.660014
689 9.49741 6.09404 4.46083 0.813968 -0.19304 0.350736
1276 10.5294 6.8232 3.2268 0.907563 1.96916 -1.53554
3234 11.7355 7.04799 3.3463 0.577106 -0.0376655 -0.00260565
1023 11.8626 6.04303 3.24038 0.330818 0.75691 0.566805
729 10.908 6.53748 4.06096 -0.478812 -0.273905 1.15474
3840 13.2881 6.82139 3.17827 -1.42901 -1.22336 -0.276097
3001 12.1947 6.26906 4.1765 -0.56271 2.09446 -0.290002
991 12.6726 7.34855 4.37462 -0.802381 -1.43038 -0.940112
3498 13.7259 7.27857 4.28728 -0.318201 0.0182195 0.309776
3752 14.0168 6.37041 3.71644 -0.876991 -1.78193 2.29042
271 14.7629 7.36703 4.06671 2.19513 -0.869349 0.283257
3431 15.3286 6.40298 4.00718 0.173341 -0.0829198 -0.0694294
669 15.548 6.9224 2.98155 -0.697038 1.34944 -1.05837
1282 17.2031 6.60195 3.44202 -1.12145 0.265514 -0.59821
3554 16.6226 6.31662 4.42662 -0.457021 -0.0103493 -2.52291
3928 16.5877 7.25618 4.05357 -0.833598 -0.773804 -0.708881
3008 0.979525 7.74163 3.0265 0.782975 0.504467 0.379748
2536 0.796836 7.82445 4.25851 0.842976 -0.165747 -1.06715
1368 2.59926 8.4201 3.7692 0.023087 -0.590349 1.07542
483 1.99474 7.69376 4.23604 -0.222959 -1.67407 2.35514
247 2.92163 7.4764 3.07992 0.00347838 0.0153335 -0.0862611
1903 3.81231 8.35068 3.25994 -1.51889 0.861991 0.75739
583 4.0173 8.07924 4.40911 2.54243 -0.199611 -0.220029
3917 5.43905 8.74048 3.67032 -0.068954 -0.347005 1.36017
3418 5.832 7.9421 4.17508 0.463192 1.7313 -0.522511
2441 4.85503 7.80346 3.72094 -1.98764 0.0452396 -1.19959
23 6.56304 8.43543 3.40089 -1.01972 -0.5154 0.384406
678 7.6111 8.29466 3.47736 0.167861 1.26152 0.888759
1200 8.50667 7.61106 3.28478 -0.825127 0.354875 0.424069
2483 8.06953 8.05667 4.38887 0.108346 0.0201303 0.512991
1617 8.99685 7.51502 4.23584 -2.0203 -1.53705 0.106411
3580 9.06388 8.70186 3.18132 1.46819 1.10376 0.0513549
2947 9.15506 8.6628 4.26691 -1.5321 -0.7472 -0.374983
2944 9.94286 7.92177 3.69901 1.08958 0.593364 0.252967
2851 10.8758 8.39781 3.47022 -0.507187 0.0282969 1.29661
1442 11.5828 8.41895 4.35323 1.22771 -0.398755 -0.0785429
2769 10.9113 7.59051 4.18465 -0.579274 0.237757 0.650719
789 12.5314 7.98571 3.50792 -0.242269 0.246949 0.947186
385 14.8068 8.85046 2.99593 0.269665 -0.126709 2.02217
2528 13.76 8.87126 3.47788 -0.575979 0.253478 0.270575
3765 14.9556 7.74622 3.00719 0.33075 0.0365042 -0.372879
2236 15.6791 7.87509 4.07024 2.59041 -1.23475 0.364103
413 15.8636 8.63093 3.53937 -1.1409 0.862147 0.0082448
3386 17.6199 8.35387 4.45331 0.474299 -1.15923 -1.84979
1869 17.1131 7.91013 3.43889 -1.14299 0.354176 -0.114777
860 17.5273 8.92174 3.28068 -0.372563 -1.0949 -0.199446
920 0.456318 0.345385 5.83918 -0.649718 -1.49943 1.13361
2751 0.896698 1.17643 4.98761 -0.00400737 0.106388 0.398635
3351 0.0618227 1.29098 5.7536 -1.25676 2.32512 -1.90257
3955 2.38676 1.14568 5.57318 1.25802 -0.238438 -2.41258
2640 1.74606 0.544874 5.1028 -1.79919 0.924809 0.169695
1560 3.45891 0.229389 5.59263 1.18766 0.838132 -1.98737
2820 4.77073 0.796477 5.18858 0.434635 -0.631488 -0.522471
3754 5.61655 0.280002 5.61359 1.75876 -1.12991 1.61
2840 5.71702 1.36617 5.20572 -1.32161 -1.16004 0.234615
2180 5.39495 0.125079 4.56872 -1.63596 0.124818 0.169175
132 6.94002 1.19235 4.93968 0.953078 0.69814 0.219225
2959 6.81573 0.667708 5.81282 -0.363731 0.148433 0.0419612
248 6.52681 0.201394 4.78602 1.2371 1.63799 -1.51673
2706 8.47354 1.21977 5.84611 0.0726953 -0.0291687 -0.881824
2933 8.63824 0.163115 5.72774 -1.24654 0.0330654 -1.81934
411 8.081 0.963976 4.90892 -0.827736 1.18755 -0.890982
1545 10.0421 1.3929 4.54 1.41834 -0.851037 -0.524693
688 9.26216 0.75166 5.02679 0.754426 -0.21742 -2.15639
2705 10.5558 1.33752 5.41475 1.91984 0.692704 -1.01171
1411 10.6443 0.144394 5.22851 0.15605 0.132533 -1.44183
3341 11.8605 0.771177 5.50935 -0.466109 0.239532 -0.100246
2565 11.105 0.926765 4.58448 0.897002 1.3386 -0.214299
865 12.9387 0.458326 4.90757 -0.559832 0.753183 -1.60245
1462 12.018 0.081148 4.67232 -0.20217 0.607919 0.00831394
1400 14.3045 0.306852 5.02432 -0.152987 1.29378 0.986966
3939 14.1983 1.44838 4.66746 -0.640223 -0.255596 0.103022
1604 13.7335 0.0274726 5.79173 0.361156 0.286811 0.368189
2929 15.7657 0.369701 5.78532 -1.57052 1.59672 -0.592554