ITEM: TIMESTEP
53000
ITEM: NUMBER OF ATOMS
4000
ITEM: BOX BOUNDS pp pp pp
0.0000000000000000e+00 1.7878070701931353e+01
0.0000000000000000e+00 1.7878070701931353e+01
0.0000000000000000e+00 1.7878070701931353e+01
ITEM: ATOMS id x y z vx vy vz
1878 0.228526 1.15601 1.27738 -0.578977 -2.20759 0.209779
2348 0.754704 0.143983 0.715306 -1.41567 -0.443881 -1.6253
3836 1.17788 1.45081 1.23707 -0.765035 0.12192 1.57871
528 0.932215 1.42844 0.187706 0.0570958 -0.0163989 0.917436
585 0.0527103 0.70105 0.240256 -0.78695 -0.616565 1.05258
1319 2.19615 0.516543 0.896147 -1.14311 2.90876 0.808913
2884 3.01052 0.988597 0.216414 0.222234 -1.42694 0.730934
164 4.15257 1.25952 0.166261 0.792732 0.44906 -0.296704
1055 3.53054 0.395011 1.10806 -2.22316 -0.692484 -0.807928
3720 4.06782 1.26526 1.3659 0.974118 -1.2587 -1.29321
2061 5.21828 1.35086 0.847912 -0.411626 0.950035 -0.71963
3225 5.92272 0.775028 0.0380148 -1.333 0.0967135 -0.508194
1639 4.97482 0.188894 0.442625 0.837386 -1.65862 0.222329
1963 6.44779 0.699072 0.926693 -0.726595 -1.33669 -1.00568
437 7.29221 1.43041 0.657054 -2.10117 -0.058503 -1.7877
2716 8.37712 1.43139 0.714644 0.298301 -0.154249 0.479869
2497 8.71919 0.105909 0.740749 -0.57944 0.867821 0.17337
196 9.45916 1.20796 0.262803 1.8021 0.112008 -0.833216
1722 9.19426 0.785526 1.28678 -0.313436 -0.0777834 -0.468659
266 10.3791 1.00273 1.11482 1.9674 -1.92857 -0.821189
1487 10.1043 0.0595248 0.607841 -1.39199 -0.328472 -0.21258
1152 11.1785 0.74808 0.464665 1.79254 -0.041172 0.0453175
2396 12.9679 0.712863 0.305197 0.173898 -0.876184 0.367857
504 13.6645 1.3988 0.767845 1.05849 0.877043 1.77703
3779 14.8312 1.06555 0.284702 -0.445644 0.06294 0.396625
2882 14.7647 0.0276681 0.8098 1.36529 -0.366211 -0.82292
354 13.8749 0.362469 0.159738 -0.0955042 -1.40584 0.174429
3204 13.8928 0.446233 1.19715 -0.534056 -0.968145 -1.42908
3034 15.0749 0.76144 1.3956 0.557628 -1.3454 0.44092
2630 15.6842 0.197647 0.378758 1.05209 -0.699974 1.00234
1065 16.1724 1.32738 0.510239 0.315594 -1.67475 -1.59012
2154 16.9258 0.463348 0.776948 0.75998 0.15734 -0.00493791
1081 0.430204 2.32476 1.14775 -0.658473 -0.335083 0.00469762
3842 1.05118 2.8821 0.25495 -0.759316 -0.644591 1.31898
3745 1.72877 2.8099 1.46448 -0.554758 -0.411539 0.767626
2873 2.97152 2.90337 1.38268 -0.936549 0.0274176 -1.09964
2132 2.73494 1.91451 0.524041 1.01717 0.926862 -1.16167
3894 2.22828 2.95164 0.387003 -0.373531 0.644884 1.10139
2069 1.63498 2.09508 0.675593 -0.60589 3.01614 -1.12168
312 5.74023 2.74267 0.145338 -0.640626 0.276538 -0.894495
2159 5.66508 2.55971 1.3957 -0.01738 1.14288 -1.41435
2160 4.98634 2.26806 0.529975 -0.36388 0.735797 0.0230583
387 6.0016 1.72707 0.129789 -0.268952 0.190299 -0.61729
2746 6.63885 2.27552 0.979101 -0.636963 2.70617 2.07441
278 8.48297 2.26236 0.159858 0.137063 -0.85148 0.605857
3648 9.53862 2.13452 1.04329 1.39855 -0.230468 0.837759
1903 11.8722 2.51883 0.241111 0.698442 -0.0680853 0.682343
2305 11.3947 1.54791 1.23319 -0.900051 0.969831 -0.284004
2663 11.0587 1.89278 0.175448 -0.286918 0.469113 0.108665
71 13.3582 2.38936 0.861462 1.72712 0.777456 -0.019512
349 12.421 1.56624 0.798895 0.437588 -0.544912 0.178543
3330 12.4693 2.70371 1.4798 0.918978 0.760454 0.16558
392 14.577 2.92148 0.958982 0.83583 0.734987 0.333198
3132 14.4913 2.06365 0.514186 0.404059 0.154294 1.41746
2194 16.2599 2.50605 0.284446 -0.577039 -1.1722 -0.691443
290 15.5389 2.21511 1.07236 -0.123286 -0.141599 -0.316517
2546 17.1319 1.82436 0.520892 0.0555521 0.830472 1.1161
3166 0.241423 3.27347 0.814281 0.225569 0.4918 1.5039
13 1.26285 3.64109 0.994616 -0.820858 0.242133 -1.69539
2968 1.67701 3.98783 0.177846 -1.48806 0.11546 1.05158
857 2.48486 3.90589 0.881603 -0.629275 0.34483 -1.00688
3618 4.37839 3.24155 0.674923 0.52968 -0.911541 0.195104
3767 3.26008 3.20171 0.395157 -1.14027 0.604456 0.401734
1941 3.92486 4.22335 0.572869 -1.23849 0.477361 0.04366
2231 5.283 3.64501 0.583731 -0.100243 -0.228075 0.417003
3304 6.52815 3.56935 0.0924871 1.39396 -0.552737 -0.0239112
7 7.96307 4.19037 0.543412 -2.17366 -0.283923 2.43268
3211 8.65401 2.99307 1.23039 -0.502935 1.24706 0.0663842
834 9.88594 3.07883 1.35857 0.911792 -0.0409239 -0.977345
3502 8.96896 4.18124 0.791222 -1.28511 1.69657 -1.07527
1162 9.5195 3.00117 0.451433 -1.28865 0.733775 -0.467678
2285 10.4442 4.08679 0.950005 -0.97874 -0.147519 -1.32848
1403 11.5499 3.61509 0.518993 1.03132 -0.364991 1.38231
3950 10.7208 3.01102 0.688294 0.492353 0.546507 -1.79894
174 12.5687 3.33655 0.747703 0.420199 0.560541 0.327256
718 13.6205 3.66781 0.815713 -0.499355 1.45059 -0.822806
631 16.0705 3.3025 0.990399 1.17784 -1.22105 -0.431793
1446 15.3126 3.93764 0.569865 0.70657 0.890549 -0.95751
975 16.2998 4.20348 0.33898 -0.970124 1.78956 -0.00358776
1059 17.769 4.24381 0.821607 0.670093 2.75476 -1.66672
2563 16.9863 3.48827 0.689023 1.39269 1.69111 0.262963
1760 0.93762 4.55266 0.595781 -0.139831 0.50858 -1.18858
715 0.198044 5.5535 0.924093 -1.22175 0.987079 1.26411
1905 2.56719 5.13848 1.22973 0.32777 -0.384449 2.53853
1266 1.5816 4.69653 1.33143 0.557062 -0.570592 0.940447
908 2.70036 4.53244 0.0822319 -2.44209 2.16897 0.427931
1671 1.90609 5.20914 0.275605 0.149124 -0.00175241 0.348698
238 4.39124 5.91949 0.948139 1.04583 0.376919 1.42463
3482 3.74913 5.24342 0.275722 0.0729948 0.476876 0.51967
2472 4.85261 4.78873 0.160475 -0.20093 -0.846759 -0.51328
1801 5.72505 4.66102 1.31214 -0.0910232 0.0138236 -0.452117
2147 4.6081 4.81168 1.11863 0.109212 0.757525 -1.38212
395 5.90722 5.93641 1.42375 0.649626 -0.864763 1.24552
738 5.84901 4.65329 0.056477 0.743101 -0.283485 0.349275
3474 6.64806 5.37902 0.643157 0.965998 -0.0764352 0.674666
2179 7.14944 4.71288 1.23095 0.458169 1.15194 -0.236471
3686 6.9759 4.65198 0.148776 -0.844485 -0.597501 0.576832
2926 7.77159 5.37626 0.801876 -1.21459 -1.29315 0.209088
564 10.0002 5.00376 0.845685 -1.36059 -0.189928 -1.09853
3876 9.13034 5.12606 0.426594 -0.51418 -0.21994 0.599868
1251 9.85267 5.91131 0.0263384 -1.68145 1.89962 0.121934
3852 11.4854 5.86449 1.4442 0.217068 0.765974 -0.0607914
1539 11.2459 5.91238 0.0881923 -0.6729 -0.85673 -1.50083
1659 11.5492 4.76237 0.520801 -0.1093 1.58602 0.689494
2634 12.9724 4.50348 0.213187 0.0100052 1.89034 -1.48406
1698 13.0742 5.52369 0.54504 0.459739 1.39179 0.430723
3122 14.4649 4.58426 1.0636 1.29205 -1.46021 -0.146909
3976 14.2978 5.90858 0.909496 -0.449552 -0.86076 0.222255
2322 16.2476 5.53026 0.488702 0.74491 -0.378366 -0.182969
3787 15.7012 4.68559 1.12376 0.56672 0.201086 2.49767
1023 15.2468 5.10546 0.0668935 0.378861 0.331902 0.859867
441 16.8759 4.91174 1.1532 -0.953994 1.08917 1.10818
1808 17.2096 5.19108 0.109092 0.640324 0.411904 -2.22606
1993 1.42224 6.008 0.731692 1.11234 1.89904 -0.858458
2622 0.50035 6.78547 0.483494 0.452734 1.53488 -1.94775
2577 1.31021 6.88597 1.40728 -0.436972 -0.0876705 1.01698
771 2.96328 6.05463 0.533121 -0.288521 -0.624736 -0.855709
3450 1.73997 6.83671 0.208435 -0.179782 -0.789916 -0.957441
3966 2.41286 6.8594 1.23473 -1.0504 -0.123999 -1.13052
140 3.57035 7.01242 0.947803 -0.146379 -0.282824 -1.59391
3402 5.40775 6.15853 0.445786 -0.422807 1.01503 -1.21592
1687 4.67317 6.85372 0.550575 0.647983 2.05587 -0.419595
1743 6.81455 6.74928 1.0067 1.84594 -1.31018 0.255889
2539 6.42453 6.35184 0.0546968 1.3081 1.10875 -1.17783
1786 6.89395 7.28583 0.0252192 -0.0627357 1.40294 1.53402
123 7.79749 6.37286 0.664795 -0.583628 0.174603 -0.119828
1298 8.65547 7.03481 1.46484 -0.695237 -1.26197 0.450555
3096 8.22206 7.31642 0.465557 0.32314 0.518066 -0.594429
1588 9.61841 7.18411 0.886291 0.330553 -0.608601 0.853026
701 9.67167 6.26805 1.31494 -1.17178 0.00775827 -0.169499
1752 10.6128 6.54335 0.978131 -0.12835 0.0790066 -0.26096
2756 12.2097 6.21384 0.562693 1.19916 2.37677 -0.590719
1799 13.3195 6.57649 0.515496 -0.75246 -0.953414 1.92522
1814 12.2038 7.27333 1.13763 1.54074 -2.23747 -1.85831
513 14.359 6.78062 0.36219 1.35324 -1.05906 1.67349
1989 13.9428 7.39927 1.37533 -2.57331 -0.385726 0.561431
3721 16.0116 6.26913 1.21186 1.30796 0.91101 0.673346
3364 15.2429 6.09632 0.577826 0.620408 2.01521 0.202143
639 16.171 7.35526 1.00706 -1.66111 0.655014 -1.67397
410 14.9714 6.92044 1.23091 -0.200084 -1.76699 0.310358
3206 15.382 7.06266 0.119281 0.731665 -1.50902 -0.403011
3156 17.1577 6.26673 0.884193 -0.31064 1.072 -1.90259
2510 16.4922 6.71234 0.25818 0.570763 -0.189441 0.581563
3539 0.20674 8.3531 0.254639 -1.29452 0.272823 -0.621866
3940 0.755175 7.79173 1.17039 -0.965632 -0.916328 1.27114
2056 2.93226 7.73788 1.22045 0.901649 -0.592791 0.803548
1544 2.71676 8.76735 1.44733 -0.573087 0.502203 -0.268508
1355 1.81979 8.02541 1.28993 -0.727368 -0.0508216 -0.176172
852 4.36691 8.05482 0.876211 -0.140506 1.56601 -0.131217
1877 3.009 8.30941 0.236405 -1.04548 0.809694 0.971016
730 5.338 7.73953 1.41678 0.712935 1.05278 -0.234385
1607 5.23627 7.75449 0.251886 -0.232201 0.479791 0.281346
1856 4.8537 8.88373 0.300461 -1.06341 0.993097 -0.598716
708 6.19715 7.98491 0.599179 0.87801 0.828142 -1.48105
1949 7.4633 7.76991 1.05894 0.963573 -0.129109 0.932478
1802 8.11403 8.61726 0.866341 -1.16793 -0.750616 -1.35654
2068 9.14821 8.0719 0.646718 -0.124556 0.884768 0.11039
2966 10.303 7.95517 1.39949 -0.376088 0.409424 0.547235
2890 11.2906 7.61877 1.11123 0.104083 1.01345 0.416089
3073 11.9263 8.71752 1.0767 1.0222 -0.721501 -0.521209
1314 12.5848 8.05854 0.279025 -1.82253 1.59697 1.81912
2456 13.0617 8.05341 1.24279 -0.272046 0.643139 -1.09286
247 13.5491 7.62774 0.478713 -0.406849 1.62306 -0.422264
3579 14.3587 8.24537 0.700076 0.598168 0.644049 -1.65293
3092 15.9618 8.63629 0.275242 -0.369047 0.0577165 0.416289
3383 15.4085 8.08476 1.30996 0.858432 -1.43731 -1.07458
1869 17.71 8.37979 1.42048 -1.76176 1.86696 -1.47478
1474 16.7531 8.27909 1.01996 -0.597671 2.25862 1.67854
8 17.43 7.4956 0.639523 -1.0475 -0.0746726 -0.413062
1221 0.559264 0.931455 2.22425 0.983879 -1.12288 -0.171185
2935 1.73567 0.751584 2.11999 -1.20004 1.51718 -0.443118
360 2.74375 0.856657 2.23267 -0.165688 -2.29134 -0.855409
2407 4.01782 0.348595 2.06562 0.481103 0.285036 -1.23465
1157 3.55446 1.44512 2.4626 -1.85402 -0.0647659 0.163303
1634 5.74947 0.173584 1.86994 0.400033 0.819763 -1.89645
1969 5.02872 1.07933 1.9471 0.138017 -0.0979374 3.02948
2791 4.83071 1.47007 2.88264 -0.113198 -1.33731 1.10888
2597 6.02833 1.40478 1.49458 1.16391 -0.268717 -0.195499
1964 5.98175 0.934682 2.74174 -1.52736 0.649097 -1.37769
3471 6.85409 0.80849 2.10231 -0.656701 -1.32627 1.06643
1776 8.0932 1.1542 1.64254 -0.879464 -0.607151 0.345296
2809 7.76509 0.493014 2.67177 0.416413 -1.36177 -1.03941
2288 9.197 0.587342 2.48034 0.957913 -0.648749 -0.405658
1329 10.1656 1.25713 2.22777 -0.691565 1.86333 0.684461
79 11.7679 0.408733 2.79608 -2.16002 0.731625 0.0522002
2993 10.8246 0.525698 2.34058 -0.949599 -0.975875 -0.742276
75 12.0711 0.737481 1.52779 1.15093 0.210574 0.628201
2086 13.0202 0.771615 2.45227 -0.421526 0.931276 -1.92105
1524 13.968 0.667137 2.24969 -0.345052 -0.269973 0.146282
2765 14.7491 1.35095 2.70171 1.19467 1.59345 0.313526
1432 14.8653 0.181058 2.33964 -0.759319 0.645975 -0.0653971
3843 16.1469 0.701219 1.60493 -1.24838 -1.67163 0.400282
110 15.863 0.0151846 2.57766 0.930475 -2.39772 -1.03317
175 16.0552 1.09741 2.97414 0.667948 -0.00644005 -0.422782
2605 17.2024 0.787312 2.19018 -0.270042 2.22786 -0.782596
1128 1.14652 2.77782 2.40533 -0.179164 1.92195 -1.09621
3777 2.56573 1.85133 1.60312 2.54193 1.47581 0.0680779
1248 4.1848 2.95592 1.60505 0.744566 -0.462531 -1.34242
3329 3.03682 2.69238 2.33639 -0.418937 -1.96826 -0.0541251
492 4.71357 2.54531 2.68945 -1.33981 2.01871 -0.10424
1470 5.68965 1.95568 2.25624 0.126292 1.18097 -0.891557
1657 4.64383 1.98398 1.73509 0.676341 0.312781 0.53891
501 7.05868 1.85202 1.86756 -0.66551 -0.434916 -0.117596
2441 7.38114 2.46878 2.7554 -0.0559136 0.882307 1.73145
3042 7.77961 1.54679 2.68298 0.663745 0.49754 -0.607011
42 7.96175 2.31705 1.81008 -1.11927 0.0739791 0.296105
3578 9.05393 2.25377 2.05597 0.582397 -1.01445 1.08064
1773 9.53488 1.63777 2.97494 1.48169 -0.183426 -0.590587
274 10.1755 2.4346 2.55402 1.38464 0.736728 -1.63917
2452 10.9885 2.05249 2.04906 0.35324 0.889128 -0.163834
1394 12.2637 1.74986 1.83833 -0.0943293 -0.90294 -0.949416
414 12.6665 2.45619 2.45046 -0.706636 0.0318973 0.536201
3739 13.7557 2.80188 1.9229 0.673258 0.436265 -0.540957
2861 14.305 2.3898 2.68512 -1.92597 -1.06097 -0.71272
2279 14.5782 1.76183 1.62516 -1.04271 0.0663802 -0.564337
2640 16.3425 2.65727 1.90924 -0.677393 0.376246 -0.0690149
39 15.9659 1.6147 2.11463 -1.39497 -0.410033 -0.689601
48 15.2419 2.5173 2.03547 0.174933 0.499386 0.302553
1619 17.8089 1.8126 2.24103 -0.267935 0.324599 -0.63863
2572 17.3958 2.45592 1.62839 -1.15427 -0.162863 -1.15896
229 16.7221 2.69342 2.82872 -0.375199 -0.0658731 0.433529
1452 17.7868 2.91518 2.71526 0.4449 -0.683617 0.0335843
435 16.9421 1.7412 2.91529 0.202825 -1.33474 0.767233
2143 0.617375 4.03393 1.74616 -1.25722 0.919474 0.123316
135 0.588554 4.029 2.79183 1.94516 1.58975 -0.295549
1175 0.375062 3.08807 1.75283 -1.06164 2.0664 -1.17974
3093 1.50595 3.89309 2.19217 1.57851 -0.813126 0.640618
1517 2.08832 3.02187 2.90484 -0.830589 0.177015 -0.194075
43 2.68817 3.86753 2.11091 1.19166 -0.981178 2.24677
1923 3.92377 4.02056 1.6481 1.5723 1.79731 0.359289
3083 4.26087 3.52345 2.53377 -0.0333868 0.766358 -0.593279
1312 5.57359 3.21779 2.4205 -1.41818 0.224393 -0.716184
3376 4.71486 4.42584 2.65808 -0.614889 0.474999 -0.196353
3258 5.08484 3.84401 1.61889 0.413715 0.588281 -0.248233
3366 6.18752 3.79007 1.54457 -1.35677 -0.648995 0.736275
3607 6.01536 4.23307 2.65867 0.0811007 1.16348 1.80813
732 6.72178 3.49859 2.82502 0.651616 0.346319 0.0349465
724 6.80156 3.03545 1.89285 1.43617 0.715448 -0.535857
1406 7.27801 4.13139 2.04149 -0.524944 -1.59657 0.389332
3841 8.24814 3.85474 1.62839 0.311688 0.0751905 -1.11734
2532 7.70581 3.41048 2.66249 -0.192801 -2.81157 0.534699
425 9.80671 4.088 1.88312 -1.17 -1.43417 -1.57362
1374 9.21691 3.27658 2.11023 1.46504 -0.621797 -0.412301
969 11.6216 2.98913 2.3505 -0.916644 1.25968 -0.772097
3385 11.2526 3.67642 1.61388 -0.549561 0.128606 0.3401
861 10.6173 3.37244 2.59209 -0.599188 -0.386096 -0.442657
656 12.8993 3.47462 2.12023 1.16778 -0.245531 0.524962
1754 14.4411 3.5993 2.94343 1.02052 0.197208 1.72056
1199 13.6892 4.20014 2.00229 -0.598054 1.32298 -0.169793
879 14.5991 4.41653 2.34054 -0.313772 -0.785701 0.98235
816 15.0066 3.81662 1.55084 -0.2397 0.00595688 -0.492973
1004 16.0757 3.67818 2.67065 -0.0625071 1.29053 -1.58085
1875 16.4663 4.28446 1.80062 -1.47677 1.04407 0.325988
802 17.4458 3.59901 1.57117 0.607213 0.00518078 0.38373
2804 17.2448 3.83523 2.532 -2.16916 0.121485 0.0352848
210 0.721518 5.2789 2.21018 0.169325 2.08892 -0.783141
2710 2.07062 4.95456 2.3018 0.0384104 0.184594 0.332214
673 3.29667 5.08941 2.09472 0.0651446 -0.464187 0.0775363
2283 4.87638 5.95773 1.87835 0.0192633 0.0429116 0.474781
14 5.27546 5.18245 2.55702 -0.543213 2.11897 0.0142059
3374 7.08574 5.92598 1.57987 -0.0182152 -1.08529 -1.38852
1316 6.34839 5.16942 2.00574 1.09385 -0.382839 0.536614
2291 8.73892 5.63819 1.63281 0.408419 -0.741736 0.224438
91 7.88074 5.04275 2.11284 0.11599 0.502703 -0.24341
2423 9.14796 4.58528 2.44417 -0.022201 -0.864303 -0.755213
3614 9.64101 5.2234 1.86025 -1.42269 0.360041 -1.24302
429 10.6381 5.09849 1.66968 0.411954 1.29778 -0.516701
1515 10.4844 5.08683 2.86203 0.308572 -1.54379 -0.0980046
1725 11.5975 4.63039 1.56859 0.284255 0.691159 -0.102636
3982 11.5652 4.65814 2.7296 0.0602403 0.619216 1.01784
3878 11.7509 5.62924 2.33622 -0.716896 -1.49579 0.0150059
2657 12.6386 4.5291 2.01292 1.02764 -1.25719 0.498363
760 12.7282 5.88455 1.58185 -0.372432 0.867056 0.110239
1943 14.8809 5.69752 2.71068 -0.335506 0.167799 1.17322
733 13.947 5.23346 1.91949 -0.376238 -0.446655 1.80598
1689 15.0959 5.41444 1.65016 1.15823 -0.0388717 -0.704086
1217 15.6162 4.98632 2.50443 -0.704869 0.026968 1.19753
1343 17.6756 4.58339 1.88291 -0.135185 0.259324 1.30431
2137 16.4544 5.28794 2.05575 -1.58088 0.437525 1.12408
3444 17.4557 5.70108 1.7551 0.188044 0.981937 0.694473
784 0.18052 6.72403 1.51128 1.04448 -0.90555 0.0227716
2751 0.0534689 6.30655 2.5369 0.480573 -0.319861 -0.476394
1222 1.28904 6.01986 2.06756 1.32584 0.915146 1.56794
3967 1.50925 7.27145 2.74616 0.111644 -2.09814 0.675137
3859 2.57842 6.19468 2.03459 -0.312174 -1.36742 0.143114
2613 4.42471 7.20243 1.52481 2.95406 -0.0998142 0.503158
55 3.57185 6.1912 1.66157 -1.47422 -0.985837 -0.664825
903 3.28885 7.00458 2.39987 1.58327 0.279575 0.889658
1647 4.96888 6.64093 2.9132 -0.607841 -0.290006 0.640563
3611 5.83198 7.09538 2.35463 1.35001 -0.0380853 0.901713
2183 6.84502 6.82953 2.88122 0.449492 -0.78383 0.394066
881 5.96538 6.13517 2.90657 -1.73186 0.407274 -0.00584873
2813 6.6774 7.44076 1.88023 -2.03157 1.76365 0.0837512
508 8.13323 6.82897 2.62385 -1.43759 -0.369234 -0.190088
3476 8.78417 6.06751 2.87925 -1.07707 0.0117141 -1.1565
2801 10.2617 6.83125 1.92475 2.30521 0.527976 1.17561
2247 9.5566 6.87653 2.72424 0.018768 -0.769157 -1.74351
1414 10.7817 5.99106 2.43362 0.280146 0.178968 0.58465
2009 11.5862 7.14634 2.21406 -3.01759 -3.22251 -0.0418395
466 12.8306 6.38639 2.84634 -1.00935 -0.268741 1.08132
2842 12.7575 7.06988 1.92671 0.667264 -0.805815 -1.87739
1154 13.4951 6.41608 1.93903 0.436973 0.159745 0.936571
2856 14.4441 6.23671 2.00368 -1.05207 2.25985 0.105648
2163 14.605 6.72785 2.95974 0.742846 -0.513747 -0.217593
2750 13.8131 7.27418 2.37236 0.653056 0.279815 0.591183
1758 15.7574 6.59855 2.40076 -2.46424 1.01136 -0.287285
45 14.9991 7.415 2.07155 -0.327568 0.469658 -0.974769
1567 16.9865 6.50942 2.12956 0.562586 -0.0813936 -0.390154
665 16.8276 7.36279 2.92403 0.550308 -1.28497 -0.0101402
3336 0.568797 8.14304 2.19536 -0.674055 0.525215 0.00457262
2521 1.3575 8.73356 2.61409 0.588098 2.00867 1.63283
929 2.40015 7.93773 2.21412 0.0142329 -0.965665 0.616605
3 3.6437 7.91131 2.04004 0.214978 -1.05862 0.288803
2758 3.16804 8.37119 2.85632 -0.437123 -1.65316 -3.09451
1282 5.9257 8.46642 2.11423 0.023142 -0.70382 -1.35903
2109 6.89099 8.54615 2.01424 -0.112645 -1.01325 0.968118
1302 8.584 7.76493 2.8024 0.504466 0.33923 0.0410624
1346 8.85439 8.46728 2.02625 -0.517477 -1.51536 -0.299917
1535 9.5232 7.55621 1.84554 -0.817111 -0.583684 -0.967867
3585 10.6127 7.55414 2.79565 -0.0839492 2.12592 1.67002
1062 10.5144 8.66227 2.96533 1.5552 -0.282681 1.31935
3650 11.1809 8.33263 1.97872 -1.94212 1.45287 0.406937
795 12.4383 8.71746 1.96794 -0.540924 -0.464081 0.131778
3183 12.88 8.69129 2.92893 2.51799 -0.938168 -0.701072
1450 14.3249 8.33789 1.90672 1.70046 -0.592501 -2.03626
3991 15.6954 7.49646 2.97455 -1.27262 0.666477 0.0945597
694 16.1908 7.45837 1.98973 -1.34029 -1.3768 -0.736663
409 15.4444 8.77319 2.72735 -1.4617 -0.68116 -0.0798806
426 16.2058 8.76417 1.93462 0.606903 -0.144095 -1.73318
1926 17.5112 7.52472 1.90307 0.517064 -0.774355 0.789536
295 17.5302 8.41602 2.59015 -0.479154 0.877685 -0.757306
3300 0.94893 1.19097 4.17528 0.623966 -0.341695 -0.189816
1914 1.37198 0.216078 4.27681 1.11391 -0.503639 1.57304
2243 0.104303 1.26141 3.26134 0.790007 0.206352 -0.482127
957 0.450906 0.360172 3.12184 -0.822948 -0.13721 0.708916
248 1.35897 0.946604 3.13573 -0.326835 0.312507 -1.70609
2155 2.9292 1.40633 3.40134 0.251335 -0.86695 2.20611
773 2.19241 0.40682 3.01919 0.770953 0.265379 -0.718341
3176 2.90224 0.450015 3.95987 0.845073 -0.673897 -0.95989
1658 2.09512 1.04332 3.85506 0.502077 1.77522 -0.440557
2492 3.75407 0.740436 3.22556 0.575149 0.515197 0.753802
277 3.83496 0.565965 4.26217 1.0336 0.728679 -0.578136
363 4.67539 1.36827 4.17673 0.920223 -0.0384086 -1.70012
2495 5.01198 0.559792 3.48237 1.24183 -0.214747 0.0516543
3992 6.48805 0.323235 3.46465 0.214185 0.465206 -0.773225
2972 7.21827 1.09359 3.54727 -0.57988 -0.610617 -1.05124
1022 6.87532 0.248123 4.391 -1.59553 1.01425 -0.0296999
3131 8.76368 0.0027536 3.39885 -1.26648 0.0901908 -0.575531
1150 8.55394 0.977455 3.24845 -0.531182 -1.61658 -0.886097
2816 8.13808 1.42493 4.12889 0.725175 -1.156 2.20316
304 8.11105 0.340929 4.39723 -0.461902 -0.296267 1.17835
115 10.275 0.999575 3.16882 -0.716387 -0.919012 0.953998
2325 10.5779 1.45336 4.26586 0.740613 0.890725 -0.868464
3937 11.1017 0.767753 3.77349 -0.437959 -0.23622 1.47878
1956 12.0122 1.27344 4.2641 -0.376925 0.397013 1.53611
2200 12.6837 0.813177 3.55991 0.804378 -1.70838 2.05593
3269 13.8523 0.65867 3.41232 -0.658584 -0.650636 2.58104
573 14.3804 0.105181 4.21625 -0.321417 0.288965 1.04739
1816 15.1202 1.21456 3.75964 0.438283 1.03389 1.31212
839 16.0891 0.977759 4.03478 1.39623 0.806816 0.285619
3252 14.9845 0.199581 3.36217 0.363959 -0.151965 1.24922
2313 16.9293 0.140849 3.74814 -1.00547 -1.50943 0.565953
1231 16.9653 1.45721 4.18121 0.853208 -2.06834 -0.110658
3839 1.16497 2.37947 4.0055 0.456902 0.704552 1.42849
1364 2.40243 2.12106 4.29823 -0.736082 1.59615 -0.131165
3690 2.73277 2.37306 3.33577 -1.05039 -1.29845 -0.439466
3934 1.61215 1.99399 3.01709 0.620251 0.653912 -1.75723
3664 3.93994 1.76807 3.45013 0.230667 -1.35084 -0.366708
428 3.71719 2.92284 3.24713 -0.477423 -0.0441258 -1.01421
3571 3.3578 2.55663 4.12145 -1.62169 -0.457385 0.1386
1840 5.68857 1.52257 3.82066 0.0403903 -0.344307 1.38742
2837 4.6105 2.43094 4.00709 1.26575 -0.498498 2.06722
1200 5.80126 2.49516 3.23158 -1.43064 -0.810841 1.12269
3234 5.64313 2.55373 4.20583 -1.42459 -1.77446 -0.720308
810 6.72822 1.97378 3.30519 1.57811 -1.17087 -1.7717
2503 6.88818 2.94367 3.68336 0.195854 -0.991248 0.495481
3809 7.72988 2.45404 4.20736 -0.53361 0.428333 0.711055
3612 8.85487 2.41733 4.37996 1.67769 -0.645985 1.26569
1035 8.61231 2.34042 2.99087 0.910517 -0.667083 -2.50463
825 9.55913 1.64541 4.14278 0.857322 -1.1575 -1.13834
3882 9.67216 2.82651 3.57954 -0.873212 0.267254 -0.00385571
554 11.4878 2.32558 4.36476 0.817345 0.148306 0.359403
57 11.2685 1.65303 3.25636 0.0562422 -0.298077 0.64744
1829 10.8023 2.55594 3.40804 1.07546 -0.0832897 -0.248484
853 12.199 1.64865 3.05649 -0.577736 -0.138952 0.279719
1691 13.2365 1.77787 3.3467 -1.28111 0.804196 0.0850026
2060 13.3858 2.75915 3.16642 1.90288 -0.467864 0.600872
2535 12.5954 2.34884 4.011 2.07171 -0.514237 -0.563306
703 14.1412 2.23927 3.91172 0.641468 -0.0660826 0.0596857
2084 15.113 2.06365 4.33666 2.77509 -1.00928 -1.54532
2366 15.9728 2.09757 3.47453 -0.904893 -0.0418967 1.26644
2588 16.8053 2.58962 3.86352 0.465755 0.402124 1.60746
1951 17.8208 2.21674 3.5552 1.26445 0.615712 -3.496
177 0.761262 4.284 3.78979 -1.57961 -0.0549054 -2.06468
1479 1.2814 3.35649 3.52594 -1.29216 -0.0580781 0.334849
87 0.439674 3.04055 4.22347 0.451203 -1.14693 0.860812
2925 2.26782 4.27356 2.99577 1.07053 -1.25175 0.681283
2979 2.20808 3.29338 4.04153 0.943944 0.696887 0.926314
389 3.07771 3.73372 3.53836 0.992608 1.27726 0.639416
2115 4.13256 3.95614 3.6108 -1.11487 -0.932648 0.560925
1561 5.00865 3.43433 3.27165 -1.72753 -0.378515 1.00002
529 5.15649 3.49466 4.42693 0.115448 -1.1881 1.22535
1289 5.19646 4.39389 3.81395 0.970255 2.55392 -0.238937
382 5.97663 3.56184 3.5934 1.3294 -0.901807 1.01502
1767 6.67804 4.29653 4.07071 0.875157 -0.833492 0.186381
2027 7.4822 3.87497 3.56849 -0.414422 0.426037 -0.218401
666 8.66545 3.67356 3.10865 0.342223 0.0893616 -0.338239
2067 8.35456 3.50726 4.30809 -0.0713245 1.6144 -0.959406
2227 9.955 4.07035 3.44575 0.275865 -1.10192 1.10992
1930 9.21062 3.89669 4.37198 -0.819624 -0.629093 1.5597
2289 11.4692 3.75567 3.10829 0.0321026 1.0973 -0.071804
34 11.0741 4.32259 4.10514 0.338165 0.919023 -0.281145
3169 12.4887 3.1646 3.35513 1.00043 -1.04115 -0.725161
2111 12.2827 3.74468 4.22721 -0.862214 0.869866 -1.4086
413 13.2027 4.37713 3.99668 -0.337656 1.77006 1.53939
3194 12.552 4.28793 3.0958 -0.798392 -0.677752 1.94101
1631 13.5928 3.8674 3.23221 1.07404 0.664198 -1.93008
3920 14.1546 3.24237 4.01531 0.00150631 0.90589 -1.35424
919 15.4387 4.27193 3.37319 0.144372 -1.17764 1.21898
2314 16.2824 3.60067 3.78293 0.15184 -0.340946 -0.927138
97 15.4871 2.99595 3.1308 -0.395204 1.13914 -0.996019
3930 15.2727 3.55314 4.1643 -0.423365 -1.21695 0.759523
3118 17.7463 3.64903 3.58869 -0.707627 0.821041 2.22508
1674 0.532944 5.35715 3.58851 1.02145 0.474608 0.639943
431 2.23031 5.58755 3.31513 -0.150521 0.28259 -0.621594
1761 2.27254 4.7524 4.13871 -0.0662938 0.719113 0.713899
778 3.66861 5.89889 4.10257 -0.55 -0.474587 1.05386
3424 3.20376 5.84025 3.24346 0.708779 -0.605628 0.537073
3233 3.3829 4.73492 4.26963 1.13873 1.6893 1.83916
1983 3.17486 4.73697 3.16414 0.753777 -0.08404 0.14853
2480 4.53951 5.24221 4.17136 1.03933 -0.244187 -0.844587
3861 7.13344 4.64381 3.03356 -1.01882 -1.00582 0.381271
1650 6.01603 5.07617 3.60184 1.09822 0.346961 -1.21808
3975 7.04991 5.47632 3.81545 0.638461 -0.318393 -3.43451
2739 8.33235 4.81359 3.09888 0.535187 1.19994 0.138945
3377 8.07311 5.93355 4.28037 0.099873 0.699695 0.747997
16 7.63027 5.61177 3.01577 1.99223 0.0697054 -0.0605226
1500 9.35941 5.01719 3.48474 1.38103 0.478898 0.824964
2422 9.14758 5.82539 4.14677 1.30005 -0.175915 0.864573
2449 10.2343 5.1298 4.04554 -1.34136 -0.733503 0.180471
1098 11.2502 5.4223 3.97221 1.5573 -0.756803 1.92187
2277 12.1366 5.79163 4.42427 0.225409 -0.382794 -0.531713
1852 12.1762 4.83523 3.90782 -0.882993 1.03699 -0.563247
885 12.4369 5.39365 3.00412 -0.263534 -1.29018 0.433206
2116 13.755 5.27926 3.0158 -0.911457 -0.904015 -1.40716
2784 14.1956 5.86357 3.77692 -0.676073 0.133801 0.254675
108 14.4148 4.6788 3.80769 -0.850174 -0.912917 0.076581
520 15.611 5.03234 4.08478 -0.136451 -0.178259 0.328748
2614 16.3982 4.52919 3.1899 0.141963 -1.46212 -0.958078
742 17.3909 5.49013 3.0256 1.79686 -0.336788 1.34507
3009 17.5671 4.69031 3.79483 1.51902 1.67498 0.612949
2236 16.434 5.61588 3.82022 0.0359025 0.237829 0.262047
1780 0.793078 6.46559 3.27146 1.19275 2.15276 -0.372199
1896 0.020613 7.31757 3.01892 0.632272 -0.988094 -0.130711
547 0.960622 7.08057 4.06475 -0.402373 0.537665 0.302833
2025 2.49754 6.6634 3.33921 -0.727306 -2.17429 -0.440268
92 1.79294 6.11152 4.22538 0.0706852 0.333471 0.208505
617 2.83494 6.49353 4.28551 0.152779 0.875715 -0.339239
377 2.03758 7.42236 3.71948 0.321095 0.28758 -0.369551
1898 3.95422 6.53558 3.10142 1.47416 -0.489497 -0.634651
2596 4.58874 6.92404 3.74764 0.435003 1.02003 -0.462033
2900 5.63661 7.25073 3.43988 0.354079 -0.319254 -0.391537
2036 5.10897 6.17747 4.31693 0.142289 1.52324 -1.0299
1328 7.14978 6.49239 3.83261 2.26479 -0.519856 -1.63351
1642 6.7233 7.24838 4.36632 1.27707 -0.96759 -0.0672906
3556 7.88154 7.17466 4.37052 -1.86588 1.75476 -0.05665
3301 9.33635 6.74373 3.92159 1.34427 -1.50032 -0.614927
2797 10.4275 6.62441 3.72877 -0.501179 0.497746 1.86059
3090 9.73335 5.981 3.34556 -0.580074 0.01301 0.502988
1480 11.3577 6.93199 4.42059 1.80642 -0.687777 1.38762
2033 12.4432 7.43743 4.01545 -1.54629 -0.379826 -0.395522
3989 13.1625 6.00914 3.7996 -0.192316 0.755066 1.32419
3549 11.9248 6.4412 3.39732 -0.830838 -0.411827 -0.774011
6 13.8097 6.83565 4.07651 -0.593745 -2.16538 0.642605
2182 15.2038 6.02812 4.18791 -1.75773 1.99653 0.973482
373 15.1596 7.26828 3.89133 0.767833 -0.912229 1.26547
2659 16.0486 6.53792 4.22973 0.283895 0.539671 1.27671
1409 16.4834 6.36727 3.18743 -1.98596 0.512834 0.770689
3386 17.1605 6.95559 4.30033 -0.0906162 1.11457 -1.43856
24 0.113086 7.68204 4.09779 -1.26031 1.57156 -1.17062
546 1.05044 7.96633 3.55187 0.915354 -0.234643 -1.29926
1872 2.20286 8.42186 3.29989 0.0627137 2.11508 0.614475
3449 1.56626 8.828 3.9967 -1.03614 -0.453863 0.372515
1765 3.24947 8.22417 4.22898 -1.42559 -1.1084 0.341793
1836 3.31508 7.51459 3.51675 -1.03746 -0.200186 -0.248588
2699 4.34562 7.85814 2.9819 -0.491131 -0.695762 0.45618
127 5.15653 8.81922 3.35093 0.567408 -2.29406 -1.61922
3542 4.81143 7.91031 3.98369 -0.15792 -0.0170829 0.314202
956 5.87462 8.31915 4.31867 -0.722889 -0.629219 -0.261332
2764 7.13402 8.58757 4.22991 -1.21963 -0.994562 0.672003
3400 6.62395 8.31567 3.26152 -1.38954 -0.502309 0.297956
345 8.52387 7.7609 3.91909 -0.746566 -0.626971 -0.221091
1798 7.75725 8.26257 3.45262 -1.00129 -0.549602 1.19173
3190 8.50337 8.81962 4.0071 -2.09574 0.0215113 -0.889175
2536 9.88371 7.54923 4.35413 0.433978 0.746715 -1.56265
750 9.48893 7.7354 3.33168 -0.765826 0.107185 -1.38738
2391 9.60627 8.5952 4.17119 0.609326 -0.126594 0.195732
3110 10.8911 8.66381 3.95577 0.498571 -0.154876 -0.768755
1426 10.8512 7.70898 3.92663 -0.3819 -1.334 1.35229
2766 13.2937 8.12659 3.97622 -0.922936 0.395078 -0.940882
707 12.083 8.72305 3.97537 -0.740191 0.16993 0.622637
1131 11.9799 7.79072 3.07114 1.14304 0.298012 -0.867224
2695 14.5995 7.96861 3.09381 0.128407 0.786333 -1.5017
1909 14.5119 8.03453 4.30125 -2.99409 1.61802 -3.40474
2983 17.6721 8.65687 4.36791 -1.26597 2.60618 0.393485
3834 16.6844 8.07797 3.97807 -1.04016 0.105555 0.191575
1438 0.00276406 1.20657 4.66055 -0.0611242 -0.0375254 1.62964
657 0.178853 1.38777 5.74929 1.44982 -0.0461939 -0.106116
589 1.40363 0.59512 5.86594 1.18944 -1.53855 0.904179
3968 2.47548 0.789114 5.83885 0.0846602 -2.778 -0.566978
1733 2.36943 0.0529335 5.06545 -0.864293 -0.235735 -1.70288
305 1.91254 1.35502 4.90546 -0.109564 1.38193 1.29936
1531 3.09771 1.44685 4.60355 0.14265 1.85396 -0.673357
1284 3.48495 0.763936 5.4128 0.971574 -0.294794 -0.859941
3019 4.87189 0.310326 4.60528 1.20037 -1.11351 -0.317471
2818 4.62965 0.694067 5.78816 0.760783 -2.12795 0.314024
1101 5.25136 1.35486 5.13462 0.26217 -0.141302 1.74657
1359 5.67092 0.545469 5.65363 -1.42903 -0.847695 -0.669482
3388 6.51281 1.12907 5.62421 1.90268 2.02794 -0.386857
1130 8.66626 1.4114 4.96567 0.0504224 -1.45668 -1.20128
1032 7.62187 1.25255 5.19871 -2.77886 0.152455 -0.416856
3658 9.97589 0.194235 5.45284 0.288141 -0.490984 -1.4582
2615 9.33577 0.593817 4.48359 -0.465032 -1.13836 -0.395539
1087 9.22401 1.01475 5.86697 2.25004 0.366427 -0.830818
3045 10.9542 0.245443 4.97423 -0.371059 -1.19719 -2.69658
2996 11.6203 0.864732 5.82924 0.343685 -1.26623 -1.22458
2427 10.4949 1.1662 5.42735 -0.151555 0.389112 0.364667
3590 12.6943 0.136944 5.56312 -0.670603 1.26394 -1.07954