ITEM: TIMESTEP
42000
ITEM: NUMBER OF ATOMS
4000
ITEM: BOX BOUNDS pp pp pp
0.0000000000000000e+00 1.7878070701931353e+01
0.0000000000000000e+00 1.7878070701931353e+01
0.0000000000000000e+00 1.7878070701931353e+01
ITEM: ATOMS id x y z vx vy vz
2989 0.989203 0.00351687 1.27586 0.130666 0.476092 0.650688
2448 0.578663 0.0756288 0.205787 -0.764528 0.413672 1.0026
35 1.34068 1.0147 0.865807 0.32509 -1.43003 0.214158
819 2.23312 0.564635 1.38607 0.530648 1.4501 -0.527333
530 2.83269 1.25218 0.401061 -0.352209 -2.14635 0.637387
1138 3.14275 1.06028 1.40633 1.09517 -0.135919 1.25559
1968 4.20094 0.603033 0.467584 1.51368 -0.62039 0.0720022
146 3.59105 0.101501 1.27694 -0.243556 0.209546 -0.0765942
1341 4.50273 1.32949 1.24976 -1.2639 0.946801 0.344712
1718 4.66413 0.218097 1.36978 -0.215164 -0.346086 1.85918
1941 5.57911 1.42661 0.778474 0.734357 1.1899 1.0627
2740 5.9057 0.442089 0.565794 -2.05193 1.1988 0.466188
2160 6.9954 1.11653 0.788508 -1.17902 -0.463365 -1.04546
1333 8.11383 0.456826 1.23985 -0.344506 0.493812 0.0617404
508 8.80956 1.30953 1.37565 -0.413874 -0.00404064 0.730259
3248 8.25224 1.35843 0.49147 -1.38086 -1.16035 -1.51348
1156 8.68992 0.456473 0.1619 -1.5504 -0.880518 -0.40315
919 10.9512 1.28589 0.795403 0.784555 0.88663 -0.885908
947 10.6742 0.10601 0.131181 0.0199523 1.43964 -0.815822
971 12.0633 0.626433 0.890361 0.336855 0.912786 0.53675
2176 14.0346 1.30339 0.627498 -0.860855 -2.19375 -1.88774
3870 14.1523 0.212399 0.634708 0.713922 0.305303 -1.33332
1512 15.4866 1.06935 0.866617 -0.600168 0.829074 -0.167335
2650 17.7718 1.29398 0.743877 0.333684 1.20736 0.285443
6 16.5749 1.08034 0.662545 -0.0573669 3.17213 -0.337779
713 17.6379 0.292149 1.05299 -0.427072 -0.0298578 -2.22677
3075 0.77689 1.89699 1.03998 0.333146 0.157838 -0.92604
918 0.134505 2.55506 1.41378 -1.95589 0.260618 0.172667
423 2.19146 1.61717 1.24955 -1.79179 0.497814 2.44176
173 2.58703 2.69132 1.07239 -0.480115 0.549006 -0.168915
1128 1.51662 2.69798 1.02379 2.1254 -0.0284623 0.0645229
1776 3.81925 1.61072 0.30516 0.577779 -0.499264 -1.07256
3720 3.79859 2.50729 0.915249 -1.24541 0.794761 0.622006
387 5.82969 2.41093 1.34682 0.931342 0.964314 -1.37471
2347 6.94722 2.35585 0.863425 -0.0909712 -1.35074 0.256895
3608 5.97624 2.19275 0.204373 -0.367155 -1.10848 0.599249
1905 8.14142 2.17443 1.2058 2.4378 1.67945 0.955631
1533 9.06723 2.38342 0.510199 0.0381404 0.744611 -0.319786
1764 9.93258 2.63624 0.0551654 -0.0415859 1.0974 -0.921648
480 9.5903 2.37381 1.45602 0.464996 -1.24042 -0.835917
1900 11.9093 1.74473 1.21654 -0.473523 -1.37973 -1.39113
1645 11.4167 2.48264 0.579976 1.95788 -0.738559 -0.380538
1771 13.0025 1.54581 0.902603 -1.16549 0.389188 -0.984201
3941 12.4084 2.59316 0.795221 -0.510229 -1.31981 0.562375
2450 14.6799 1.6285 1.3475 -0.596038 0.514179 -0.723032
1202 13.4362 2.55758 0.666403 1.89972 -0.157368 0.981469
3962 14.4602 2.77971 0.409294 0.372152 2.14905 0.466948
2917 15.4863 2.83478 1.20144 0.780894 -0.594295 -0.531958
1025 15.2406 2.02074 0.568615 -0.859321 0.911006 -1.72881
198 17.2289 1.95217 1.35489 0.470941 0.00283631 -0.192185
773 17.859 2.35827 0.352085 -0.893683 0.894643 -1.53855
2710 16.7494 2.49398 0.688102 0.19206 1.52384 1.08361
1571 1.12253 3.91154 1.20597 0.106988 0.149091 -0.547714
2069 1.46399 3.37072 0.125356 -0.10137 -0.70925 -0.943166
1768 0.605646 3.17549 0.567399 -1.06071 0.16903 1.07552
319 1.99352 4.21368 0.5829 -0.619536 1.13693 0.035543
2042 2.09609 3.62689 1.44677 0.9901 -0.592326 0.735844
1312 2.9529 3.53681 0.447726 -0.228963 -0.609281 -0.691913
2546 3.43729 4.45962 0.173949 -0.178481 0.256505 -0.61294
3216 4.17292 3.28681 0.194019 -0.790931 -1.42242 0.756822
3923 3.87467 3.66238 1.2146 -0.558703 0.198208 1.42005
455 5.82762 4.27957 1.32634 1.59458 1.00854 0.625659
672 5.12956 3.05709 0.385393 -1.68313 -1.1114 -1.24866
2890 6.25441 3.31608 0.832088 0.683756 -0.061738 -0.863855
274 7.13159 3.95917 1.0907 -0.573218 -0.532613 1.37994
20 7.07229 3.6504 0.0206547 0.54686 -0.728296 -2.06362
1500 8.73638 3.75474 0.882681 1.09948 -0.489928 1.4946
1745 7.73487 3.18875 0.775152 0.485394 -0.925386 0.17219
1099 9.77354 4.39699 0.306031 0.319897 -0.663375 -1.48617
1236 10.0479 4.22202 1.26652 0.70518 -0.00810841 0.569589
2716 10.5873 3.201 0.747716 0.556025 0.983244 -0.326013
418 11.5467 3.62275 0.200197 0.19875 1.90877 -0.137669
2905 12.1247 3.96299 1.3443 -0.815058 -0.814854 -0.848244
2634 12.7557 4.3834 0.364767 1.76862 -0.17991 -1.9232
114 13.4964 3.60577 1.2862 -2.56599 -0.468424 -0.236623
2675 14.5959 3.92608 0.454037 0.336568 1.59671 0.929293
1356 13.4516 3.63372 0.168906 0.381047 -0.662108 0.777996
3364 15.4581 3.80638 1.0564 1.24146 0.577136 0.487724
1470 15.856 3.79211 0.00569831 0.539746 0.157084 0.601743
3862 17.713 4.31423 0.109783 0.870345 0.788117 0.595458
1688 16.5191 3.80003 0.83692 -1.02222 -1.40538 -0.747557
1942 1.23787 4.9365 0.630764 0.254729 0.473931 -0.579524
3086 2.69372 5.0697 1.28099 0.552601 1.39113 -2.21863
369 1.77722 5.87296 1.24191 -1.30716 -0.447843 -0.0921762
732 2.38144 5.23195 0.281899 0.150611 0.292231 1.77216
922 3.99759 4.8584 1.43222 0.480593 -1.76565 -0.943443
376 3.80495 5.54149 0.462674 0.310209 -0.666164 0.342629
179 4.41458 4.51927 0.439966 -0.382503 -1.07521 0.252506
3362 5.12845 5.13281 0.985715 0.29381 -0.24125 0.406921
3336 6.23345 5.49185 1.47428 -0.199385 -0.571761 -0.0987137
1577 6.55296 4.74558 0.753141 -0.362977 -0.595609 -1.1391
9 6.21531 5.43273 0.188937 0.897552 -0.39397 -0.0919758
2289 8.05497 5.55652 0.850434 -0.606913 1.75855 -0.731321
3455 9.76214 5.44476 0.509029 0.918287 1.29264 0.220487
2798 8.95746 4.97222 1.04303 -1.57263 -0.107031 -1.14744
429 10.6502 5.21617 1.29137 -1.02357 1.22097 -0.00565573
1820 10.8994 5.40886 0.231488 1.97501 1.29712 -0.083182
2622 11.0841 4.50221 0.806738 -0.298649 -0.182318 -0.289888
1758 13.151 5.37171 0.366151 -1.6885 -0.526791 -0.0651664
465 12.1346 5.3649 0.998118 -0.82404 -0.633695 -0.346967
2430 13.9446 4.64681 0.100202 2.02507 1.30626 -0.186741
1834 14.1379 5.04238 1.10994 0.184437 -2.24614 1.90152
575 15.9785 4.68847 0.851923 1.3357 -0.430483 1.09435
3560 14.9495 5.62347 1.41926 -0.852293 0.293143 -0.730078
2322 15.3237 5.84708 0.398359 0.985771 -0.199111 0.752519
1754 17.1605 4.89916 0.702069 -0.275892 0.919614 1.48284
174 16.524 5.7712 0.975425 -0.748387 -1.07278 -1.90029
3033 0.832504 7.22341 0.379476 0.279842 0.801147 -0.613704
1076 0.930858 6.03287 0.564833 0.202635 0.272146 -0.0302498
409 0.875762 6.59665 1.3904 -1.07419 0.829453 0.391105
427 0.0196633 7.33997 1.0132 0.0403975 -0.391067 0.186538
712 1.98961 6.55116 0.291478 -1.1877 -0.325215 2.1378
2693 2.75897 7.05526 0.958386 -1.53147 0.35045 -0.618756
2016 3.85237 7.01321 0.556777 -0.221027 0.387357 -0.395082
77 3.00367 6.05128 0.777896 -0.69286 0.261503 0.465153
2746 5.18886 6.41425 0.75934 0.0490555 -1.14723 -0.893563
812 7.19353 6.08541 1.09317 -0.834892 -0.147818 1.39851
724 6.29175 6.41734 0.468326 -0.23226 0.510109 -1.82333
2503 7.10283 6.98056 0.547822 1.89991 0.434492 1.14031
2980 8.22984 6.60071 1.37492 -0.893482 -0.421052 0.117199
448 8.9307 6.15655 0.418479 -2.36627 -0.606936 0.471785
98 7.9988 6.7092 0.285563 0.226222 0.566267 -0.422023
3756 9.86788 7.43013 0.689803 0.389665 1.47809 0.305941
330 10.2854 6.40366 0.586773 0.739645 0.0807662 -0.00963694
3911 9.07555 7.01345 1.0873 -1.85137 -0.728071 -0.655481
279 11.4277 6.24024 0.52653 1.3561 1.87009 -0.140322
3585 10.921 7.26655 0.864753 1.46606 -0.446355 1.38608
2631 13.3537 7.22501 0.0127707 -1.00777 1.6534 0.499113
1162 13.46 6.43855 0.739238 -0.979304 -0.550006 0.687672
1159 15.1439 6.96061 0.670814 -0.285826 -0.477587 0.338742
466 17.5329 6.25657 0.905559 -1.54269 -1.96114 0.235424
3885 16.6254 6.91742 1.02257 -1.09853 -0.516675 1.534
1837 0.788077 8.21246 0.638272 1.03937 0.116145 0.129583
2216 1.77859 7.68819 0.246028 -0.270093 0.112476 0.295469
3712 1.87437 8.54963 0.838754 0.81277 -1.16054 0.349139
2519 3.16557 8.79437 0.438187 -1.59798 0.853456 0.382863
3371 3.40558 7.77794 1.32756 2.51883 -2.14286 0.590871
1856 3.02496 7.86539 0.369176 0.950353 1.15371 0.0543159
380 4.25624 8.65507 1.02393 0.0287855 -0.385816 -0.904281
1892 5.29045 8.4429 0.35569 0.0120074 -2.15291 -0.919299
3376 5.69394 7.46326 0.76202 -0.0459813 -0.0622636 1.13823
464 7.37225 8.65253 1.08147 -0.146709 0.788409 0.224668
3901 6.60546 7.903 0.538543 0.878968 0.395923 -0.654723
228 6.19589 8.47826 1.22019 1.15516 1.29393 -0.511212
2230 8.31485 7.69003 0.585701 0.0834079 -0.503133 2.13342
2479 7.52481 8.27017 0.126011 0.264986 -3.02526 -0.583981
3258 9.63046 8.49659 0.90064 0.38163 -1.60481 -0.254895
2949 10.3565 8.43695 0.0847881 -0.570696 -0.242004 0.872788
3167 11.4963 8.0379 0.332444 -0.828554 0.61259 -0.0115227
1404 10.6992 8.2456 1.232 -0.792044 -0.500639 1.30086
2566 13.0824 8.28554 0.141505 -1.36091 0.508275 -0.225463
58 12.4151 7.45587 0.788848 -0.296249 -0.547852 -1.66047
2013 12.6212 8.37374 1.28822 0.520775 1.01519 0.987001
3267 13.8095 8.1832 1.29163 -0.740426 0.100889 -0.53237
588 14.5212 7.91812 0.539136 -1.09063 -0.290162 0.616894
139 15.0638 8.87804 1.07544 0.294655 1.67164 0.726398
513 15.7194 8.23898 0.0104122 -0.666013 -0.753359 -0.0385357
1151 17.226 8.00939 0.415115 -0.980999 -1.14556 -0.0101987
2071 1.342 1.07782 1.97703 -0.0111997 -0.00593727 -0.218451
86 0.451837 0.824031 1.65111 0.205871 -1.13311 -1.09516
2909 0.312026 1.48367 2.40683 -0.00099864 -1.26724 1.08578
816 1.25325 1.01592 2.97268 -0.904102 0.720871 -0.602995
2638 2.79462 0.512083 2.55754 0.182814 -0.334602 -1.4228
2845 2.18257 1.42743 2.31074 -1.2955 0.0140433 0.801529
3894 3.72153 1.14907 2.43947 -0.56729 0.483787 -1.13471
944 4.17379 0.364541 2.92026 0.101651 1.93042 -0.933057
2925 5.64039 0.850668 1.91004 0.396607 0.496784 0.394974
2568 6.18298 0.616443 2.89187 -0.567782 1.32374 -0.32651
2551 6.54986 0.230155 1.90387 -1.11928 -0.0518111 -1.69849
3187 7.60088 1.25304 1.83881 -1.04248 -1.23569 -1.25175
2086 8.011 0.510202 2.41785 -1.0635 -0.484408 0.0345017
2237 10.0285 0.0718136 2.01341 1.06937 0.762779 0.943315
3882 9.2456 0.760883 2.58236 0.205417 -0.559813 -0.219039
1126 11.3701 0.793059 1.64406 -0.213023 -0.14491 -0.128684
3686 10.4856 0.921338 2.63471 -1.532 1.28663 0.106686
75 12.8007 0.116691 2.02538 -0.397542 -0.170081 -1.45155
2709 12.1289 1.16079 2.4621 1.66614 -0.267623 -0.946917
3994 13.8306 1.03985 1.81161 -0.225778 -0.305734 0.475878
1075 14.692 1.043 2.70693 -0.502458 0.57363 -0.713559
108 13.869 0.204601 2.53513 1.10747 0.926308 0.508598
3842 14.7856 0.563771 1.65602 0.589215 0.0971853 1.53535
3789 16.1415 0.505617 1.56134 -0.930878 -0.51704 0.7385
3928 16.6399 1.25067 2.67093 0.285107 -0.919772 0.843229
1034 16.4388 0.204237 2.58362 -0.420187 -1.35731 -1.95106
1853 1.01015 2.67721 2.06777 -0.497017 0.345625 0.078646
2460 1.89513 2.39008 2.67979 -1.2209 -0.166383 -1.64161
901 3.50037 2.11953 1.91092 -0.228326 -1.36578 0.427393
1682 5.17587 1.72758 2.17702 -1.01424 0.00894917 1.85591
2348 4.51629 2.01744 2.87212 -0.0956236 -0.182519 -0.549126
1374 7.25364 1.52248 2.85012 -0.706392 -1.42393 1.80864
1047 6.85585 2.89421 1.81432 0.179813 -0.598193 -1.35544
2268 6.34688 1.55457 1.96634 0.319986 -0.504453 1.72618
1517 6.56127 2.35864 2.96638 -0.629465 0.600305 0.455403
294 7.68721 2.58992 2.83652 0.915783 -0.0031746 1.48189
2489 8.31851 1.50687 2.74818 2.11069 1.48997 2.43828
3938 8.80418 2.32264 2.17373 -1.6436 1.05337 0.549008
2970 10.3368 1.63063 1.69823 0.404072 -1.25033 -0.847014
2918 9.64713 2.7035 2.80802 0.196813 -0.0388936 -0.234927
3356 11.042 2.01737 2.46156 -0.47029 -0.514056 0.969949
3983 10.6153 2.69157 1.71994 1.42737 0.154911 -0.339608
3780 12.1806 2.1673 2.08317 -0.0984182 -1.32839 -0.126842
657 13.0914 2.33702 1.58139 -0.282878 -0.611541 -0.864147
1657 12.4358 2.91079 2.86752 -1.82893 -0.573072 -1.26333
1452 13.6832 2.71726 2.63012 1.12484 1.04242 -0.189558
2836 13.4463 1.49281 2.89089 0.0883489 0.769985 0.259559
2066 15.5048 1.71148 2.62385 -2.73188 0.832445 -0.310897
1024 16.058 1.69371 1.57409 2.02754 -0.271753 -1.35081
1438 16.5175 2.31358 2.4768 -0.0998631 -1.4902 -0.396489
568 17.367 2.84476 2.27988 0.31297 0.426984 -0.550298
3442 0.718736 4.38641 2.16601 -0.79379 1.55008 -1.54447
2635 2.8309 3.95389 2.57624 -0.0668284 -0.371188 0.229107
3482 2.56511 2.98729 2.22743 0.305516 2.36184 -0.277818
2968 1.55819 3.72779 2.45446 -0.744801 0.405217 -1.45483
3386 3.82838 2.98517 2.49784 -0.044692 -0.279243 0.231756
3618 3.69566 4.27562 2.23685 1.88116 -1.21727 -0.79056
752 4.85914 3.08749 2.67761 -0.715333 0.711486 0.0480973
2532 4.57071 4.05819 2.84222 -2.12242 -1.63616 1.63804
1743 6.59148 4.12296 2.18177 -1.95377 -2.37063 1.24869
1930 6.03461 3.32035 2.3956 -0.172971 0.358061 -1.58381
2535 8.56379 3.44817 1.88298 -0.752011 -1.28749 -0.733834
3301 7.57061 4.30467 1.94813 1.34076 -0.0568266 0.954719
852 8.12663 3.61205 2.74996 1.2835 -1.21949 -0.460112
745 9.62553 3.42371 2.03819 -1.42606 -0.57718 -2.63907
3740 11.6722 3.70951 2.50508 2.10354 -0.925327 -1.43952
3211 11.1943 4.42422 1.99449 0.497301 1.00653 -0.385776
2409 10.6439 3.53743 2.3719 0.822561 -1.78474 0.501848
1446 12.2426 3.05698 1.76198 0.267715 1.08594 0.893364
2397 12.7863 3.80865 2.27901 1.62073 0.248493 -0.0247633
474 14.6252 3.55315 2.10483 -0.0463123 0.550727 0.142551
2967 13.6272 4.33827 1.95933 -0.168606 0.212114 0.0578671
1474 13.6789 3.86336 2.87989 -0.968749 0.207134 -0.504121
2140 15.9514 3.10986 2.07144 1.97422 -0.325562 0.307931
1489 15.6159 4.08747 2.48128 0.863267 -0.806231 0.494766
1319 17.6848 4.164 2.77651 -1.554 1.92279 -0.507564
230 17.5512 3.55245 1.54155 0.574587 -0.260944 0.111084
1659 16.8531 4.39465 1.76491 0.00144692 0.166484 -0.521545
2724 16.6851 3.43588 2.69073 -1.21977 1.37716 1.25729
3182 1.28218 4.87146 2.79065 -0.0980066 0.396085 2.08068
19 0.732025 5.58146 1.74768 -0.655895 -1.06027 -0.0476799
3841 0.556275 5.68072 2.75491 -0.395547 -1.18332 0.265702
3836 2.11102 4.82504 2.06515 -0.642422 -0.605179 -0.586015
238 1.67811 5.69099 2.30098 -0.644133 0.209412 -0.383773
440 3.11878 5.10406 2.50024 0.803587 -1.1196 0.225864
1175 4.30685 5.4552 2.86521 -0.660879 -0.71847 -1.61006
510 5.13391 4.6224 2.07301 -0.468819 -0.556101 0.377958
2062 4.57564 5.60859 1.79477 -0.234449 0.665159 -0.654251
492 6.20319 5.08766 2.49079 1.08875 -0.698361 -0.0578551
2808 7.37045 5.26509 1.68011 0.293252 -0.210971 1.43864
1877 7.17343 5.51354 2.88781 2.04065 1.80365 -0.994558
1019 7.95606 4.93504 2.73859 -0.0986576 0.102827 -1.04893
1309 8.37016 5.6679 2.04939 -1.03035 1.13774 -1.27781
1077 8.89848 4.74567 2.45563 -0.506118 0.198657 -0.260921
2440 9.42135 5.75606 1.51079 0.0286418 -0.723616 -0.0327364
1897 9.99812 4.66221 2.14414 0.457329 0.0223727 1.22495
2051 10.7182 5.23623 2.77797 1.15377 0.166129 -0.0996239
3592 11.4057 5.52911 2.17142 0.452249 -0.830385 -0.609724
2934 12.4713 5.01808 2.00233 -1.00593 0.413835 0.179143
441 13.986 5.18789 2.24351 -1.52256 0.747602 0.93268
2056 14.6815 4.72178 2.94576 -0.309483 0.670252 -0.322539
3954 15.014 4.59858 1.74366 -0.283437 0.283414 -0.0876114
92 15.2378 5.41004 2.36726 -0.269498 0.449936 -0.931014
2301 15.9767 5.00602 1.77077 -0.536415 1.60783 1.47212
3023 17.6117 5.19472 2.13802 -0.496083 -1.20991 -1.87408
602 16.61 5.8635 2.40371 -1.85728 -0.985152 0.579224
674 16.7761 4.84581 2.80538 1.24203 1.21741 0.227333
526 1.00976 6.97973 2.62744 0.164261 1.63954 -1.89699
3651 1.88256 7.00052 1.52256 -0.0660134 1.47045 0.225691
2935 2.32556 7.15384 2.47514 1.10515 -1.55732 -0.126078
694 2.72881 6.14048 2.32348 -0.244234 1.51417 -0.187231
1780 3.6259 6.16066 1.75796 -0.629934 0.246335 1.90306
3933 3.37011 7.21165 2.11537 -1.63904 -1.20289 0.188809
2417 5.46578 6.19595 1.70143 -0.391944 1.42537 -1.26752
1455 5.20492 6.16078 2.75285 -0.590752 0.180468 0.480571
2497 4.80951 6.96001 2.03821 1.55342 0.0590245 2.71835
1409 6.41914 6.51202 2.77904 -1.0781 0.287344 0.280655
1802 6.24314 6.74394 1.49355 1.51005 -0.314554 0.864104
2167 7.25025 6.29861 2.11067 0.531462 -0.186215 0.61136
3947 7.03202 7.32269 2.87415 1.30321 1.24497 2.0715
1262 8.19712 6.61688 2.67423 -0.687371 -0.167373 -0.964944
2335 7.4993 7.29409 1.52556 0.500025 -0.506148 -0.53327
2336 10.1004 6.99802 2.57295 0.482799 -0.611328 0.865612
2936 10.2167 6.77816 1.57899 0.250285 1.35711 -0.225335
2472 9.3665 6.04352 2.67654 -2.01572 0.438675 -2.0961
3488 10.2589 6.02681 2.20847 0.463396 0.518486 -0.994054
3416 9.12389 7.04825 2.11167 -0.812476 -1.05021 0.557591
3861 11.3193 6.48841 1.61604 -0.777582 -0.212184 0.41611
686 11.1377 7.36238 2.24727 0.876367 -0.810612 -1.71854
3194 10.9768 6.37013 2.73273 -0.0187402 0.0921017 -0.789146
3613 12.309 6.19007 2.43151 0.894979 0.289424 0.335928
1814 13.2103 7.00928 2.56672 0.962899 0.690993 1.62671
2797 12.2167 7.20258 2.30589 2.00386 -1.73889 -0.177873
3192 13.9522 6.07136 1.64575 1.24127 0.365437 0.926138
3912 14.1483 7.06457 1.51402 -0.248612 -1.42534 0.0854535
811 15.9592 6.30029 1.73713 -0.62495 -0.0057607 0.632146
477 15.8944 7.30018 2.90647 1.70785 -0.358546 0.221328
273 15.043 6.73169 2.46079 -1.05588 -0.223455 0.36253
3787 17.0412 6.57486 1.88367 1.27565 0.87544 -0.643971
368 16.8764 6.76307 2.92825 -0.709947 0.163466 0.77058
416 0.570945 8.71786 1.89171 0.495193 0.0865556 1.7943
1320 0.867182 7.71832 1.63773 -0.289509 0.412468 0.808765
3218 0.845161 8.56849 2.89204 -0.558158 -0.501899 1.08567
426 2.52145 8.3065 2.54526 -0.182608 1.37462 0.146949
3209 2.45055 7.87681 1.53651 1.30211 -0.0820201 0.596582
993 1.58139 8.42631 2.1219 -1.18995 -3.28967 -0.126002
1710 5.91399 8.77505 2.16618 -0.253921 0.314069 -0.238448
1902 5.19656 8.04406 1.69157 0.0200643 0.223927 0.0260463
1301 5.0885 8.08557 2.75253 -0.628702 -0.994924 1.46423
1316 6.53122 7.71422 1.95287 0.35538 -0.360036 -0.344907
921 6.98155 8.66311 2.13067 0.481245 -0.811543 -1.91546
1150 8.186 7.6258 2.24521 -0.558318 0.579575 0.0710939
1253 8.08899 8.68254 1.97094 0.65825 1.25346 -1.80926
1806 9.24343 8.10579 1.73306 0.789219 -0.149594 -0.416631
637 11.7858 7.77847 1.62567 2.04048 -0.0403034 0.0706255
1991 11.6568 8.24002 2.97655 -0.798208 -0.581943 -0.55694
2750 12.6893 8.05465 2.71622 -0.0999127 -0.359238 -0.466657
1352 13.2996 8.81471 2.59629 0.535528 0.347299 -0.820243
1433 13.7854 7.89555 2.4808 0.0363738 0.92202 0.475926
1757 14.8883 7.98356 1.61573 -0.411484 -1.33843 1.3748
2116 14.3401 8.78714 2.09161 -0.802451 -0.327951 2.2045
3435 16.175 7.91037 1.96971 -2.02645 1.14985 -0.221962
3422 15.3749 8.89473 2.29299 0.544957 1.61995 -1.69581
1494 17.2145 7.68237 1.79709 1.47282 1.40572 -0.246393
3263 17.5273 8.6225 2.21284 1.35009 -0.134449 0.468273
525 17.0664 7.81772 2.84538 -1.0255 0.830665 -1.91322
2383 0.439116 1.10692 3.60553 -1.17093 -0.806613 -1.64689
825 1.05056 0.678932 4.26699 0.836546 -0.485658 -0.653144
3271 2.91318 1.42586 4.34045 0.59228 -0.183831 0.502337
920 2.00489 0.22852 4.0127 -0.537598 -1.24784 0.668144
3989 4.44504 0.556202 4.12996 -0.4688 1.46985 -0.145425
3072 3.48542 0.465566 4.10025 -0.155412 -0.148126 0.688053
3016 3.57986 1.36258 3.52531 0.942814 -2.32328 0.580784
64 5.23534 0.990506 3.21873 -0.57434 0.0485592 0.307868
618 5.42267 0.0247585 3.66061 1.4904 -0.42381 1.35504
1252 6.62616 0.427389 3.97067 1.28669 1.05726 -0.846701
509 7.72886 1.06543 3.78898 0.375732 -0.869232 0.655633
2270 8.72646 0.091138 3.57269 0.691024 1.0458 -1.56453
2698 9.9536 0.805411 3.61656 0.385635 0.113524 -1.42277
2084 11.3989 1.21151 3.41936 -1.54371 -1.02674 0.26492
839 11.0666 0.170627 3.30687 -0.963096 0.386343 0.20787
701 12.7319 0.509437 2.97987 1.27996 1.86594 -0.400584
520 12.5608 0.0463747 3.92317 -0.736722 1.56261 1.48519
1685 11.9453 0.782417 4.24638 -0.572976 -1.70918 0.465526
2201 12.9138 1.21948 4.06317 -0.37875 1.78363 0.747654
1816 13.8851 0.87373 3.56768 0.26841 0.242932 0.80981
2774 14.803 1.38365 3.74293 -1.36213 -0.653735 0.226163
790 14.8232 0.332097 4.17223 1.5009 -1.41016 -0.578994
2636 15.97 0.729572 3.30293 -1.05379 0.108682 1.12426
3007 15.9442 0.950034 4.40237 0.0360408 0.42983 -1.0033
644 17.7062 0.101517 4.11946 0.368142 -1.0406 -0.567232
1741 17.1804 0.652053 3.28465 0.251997 0.34163 -0.781781
2163 0.703289 2.21088 3.1607 0.591577 1.13891 -0.649534
79 0.278628 2.63266 4.29992 -0.355212 2.36842 -0.766371
1805 2.72514 1.99073 2.99337 -0.621286 -1.19001 -1.12806
2748 1.83239 1.89262 3.64289 -1.18214 0.743671 0.120632
718 3.58381 2.35081 4.25317 0.472425 0.229511 0.408772
2137 4.6725 1.88267 4.00154 0.857741 1.02501 -1.38444
3201 6.12314 2.27322 3.98461 0.285588 -1.65341 0.714188
2611 8.66284 2.64908 3.13143 -1.14277 -1.05987 -0.709958
617 7.61071 2.18477 4.2889 -1.03483 -0.867485 0.997022
3809 8.62339 2.54113 4.12045 -0.484655 0.956413 1.64891
3048 9.31516 1.74119 3.0451 1.86148 0.755251 -0.0272471
1691 10.2248 1.99928 3.49914 -0.679914 -0.550494 -0.89024
3500 9.07653 1.6452 4.17585 1.23488 -0.482259 -0.138154
3146 11.3212 2.75755 3.03845 -0.332777 0.648174 0.76283
1457 11.5669 1.72859 4.36876 1.59842 0.709567 -0.790187
435 11.9937 2.05254 3.0944 -0.664505 -0.701703 -0.326585
662 13.0475 2.49626 3.63446 0.212322 -1.37424 0.313681
2313 14.1108 2.29717 4.08905 -1.00506 0.680772 -0.904658
3605 14.663 2.50542 3.02078 -0.874843 0.360471 0.469377
2044 15.211 2.32831 3.95479 -0.283517 0.329999 0.79905
3777 15.6951 2.76731 3.09262 -0.434638 -0.383171 -0.924995
1129 16.1721 1.87835 3.51259 1.05541 -0.200477 0.0446869
1059 16.0594 2.15135 4.4611 2.30741 -0.545394 -2.44693
2282 17.4605 1.81289 3.19087 0.434549 0.0816031 -0.843294
469 16.9247 2.88784 3.72808 0.855096 -0.875469 1.23805
14 16.9723 1.54178 4.09402 -0.117932 -0.545014 -0.233742
350 0.566125 4.15285 3.53546 0.366702 -0.58265 -0.77803
3871 2.31364 3.07842 3.404 0.249158 0.425785 -1.39689
1074 1.53436 3.61393 3.99293 -0.606631 0.866552 -0.34151
1623 1.88422 4.2099 3.33106 0.310487 0.623596 0.146338
1534 2.43903 4.13244 4.27214 0.27562 1.25119 -0.912179
1550 2.99525 3.211 4.32139 0.449597 0.601076 0.376951
2243 4.05169 3.59024 3.99412 -2.60148 0.26395 0.748058
2345 5.79513 3.22754 4.43053 -0.820538 0.591906 0.506574
2929 4.8032 4.20464 3.78074 -0.22191 -0.223594 1.15904
708 6.94923 4.36762 3.06982 1.10911 -1.2753 -0.698513
1910 6.7745 3.35715 3.15193 -1.55697 -0.920603 -1.36896
3032 6.41214 3.95439 4.13562 -0.230786 -1.44364 0.563977
1101 7.78635 3.09075 3.75566 -1.36721 0.341502 1.25932
2159 7.74406 4.192 3.79593 0.428616 -1.40988 -0.0374226
652 9.4624 3.17288 3.7436 1.94934 0.0429254 0.0109645
2229 9.15694 4.19941 3.37676 1.04299 0.361993 0.164356
554 9.66079 4.3097 4.31563 0.19492 1.00576 0.560603
1220 10.5011 3.30024 3.67301 -0.818793 -1.12368 -0.721663
1785 11.4642 3.80098 3.78271 1.00074 0.585273 0.249496
2659 10.8427 4.23137 3.07989 -0.962319 2.1773 0.617596
2688 12.7409 3.80988 3.45753 -0.341255 0.327781 0.837278
1513 12.0071 3.00457 3.88126 -0.226945 -0.319967 0.956752
3637 14.8438 3.49951 3.30611 0.971118 -0.339644 -0.761126
3698 13.4904 4.2992 3.98605 0.0944179 -0.346407 0.774819
3460 13.5421 3.2468 4.3368 -1.16915 -0.0685033 0.539279
430 14.7149 3.74836 4.46184 -0.909558 1.56159 -0.0415601
714 15.4266 4.38288 3.6943 0.402363 -0.497759 1.35464
1878 16.0515 3.51424 3.88561 -1.48083 1.02705 -1.61835
985 17.2543 3.91984 3.693 -0.392049 0.406934 0.360218
3124 1.48782 4.73128 4.27202 0.269191 -0.788492 0.254626
1215 0.140332 4.86828 4.30647 0.201107 1.4909 -1.88105
2804 0.717947 5.65337 3.8948 0.415936 -0.686693 -0.843176
3934 2.33415 5.12286 3.17567 -1.1902 -0.0630903 0.218924
1567 2.73204 5.1516 4.34742 0.187058 -0.584326 0.0752682
2179 3.35556 4.69037 3.55426 0.411517 0.0621351 0.8748
907 4.18464 5.22479 4.10514 -0.794109 0.941338 1.22259
3449 3.35121 5.81122 3.29015 0.0463961 0.377099 -0.550662
2025 5.82589 4.6275 3.40368 -0.633324 1.39221 0.689393
3963 5.25843 5.46518 3.49196 1.62646 -0.609957 -2.07291
2903 6.7288 5.34411 3.84716 0.315222 -1.69283 0.336864
2803 8.34059 5.81277 3.23395 0.0886532 0.160636 -0.647672
256 9.02267 5.23832 3.87296 -0.698795 0.680637 -1.28443
2406 10.0496 5.25058 3.8379 -0.551911 -0.970826 1.02066
1199 11.009 4.8933 3.90133 -0.425333 -0.466086 -0.0787058
656 11.6026 5.63248 3.29299 0.681964 -1.81498 -1.49161
432 12.649 5.35408 4.29993 -1.21296 -1.83117 1.63235
2833 12.0335 4.61436 3.31943 -1.10776 0.884506 1.38576
2403 13.6041 5.14126 3.13822 1.74853 -1.61716 -0.617343
43 14.7734 5.43161 3.59353 0.4707 -1.49382 -1.58154
1733 16.0099 5.36286 3.36345 0.35945 0.0814339 -0.4562
2499 15.5602 5.1084 4.44397 -0.0222928 0.178776 -0.805231
3664 16.8623 4.80734 3.93319 -0.202087 -0.0899369 0.127534
1976 17.4747 5.51658 3.14986 0.826885 -1.47094 0.469467
290 0.135089 6.67529 3.19384 -1.49718 -1.30753 -0.240146
2743 1.23719 7.42016 4.02067 1.31674 1.01216 0.0297205
2754 2.45959 6.44312 4.21155 2.14601 0.0935814 0.916201
2610 1.79561 6.69479 3.42707 -0.328748 0.446598 1.64426
1286 2.98729 6.83579 3.1951 -0.0183071 -0.576896 0.0938544
1306 3.43192 6.45754 4.08714 0.180724 -0.614144 -0.923144
2208 4.37498 6.39016 3.73463 0.680451 -1.71706 -0.702485
1231 5.07158 7.09503 3.58312 1.52378 0.920722 -0.0242445
1967 7.16152 6.45039 3.54258 -0.424202 1.07106 -0.337513
1406 6.04038 6.15738 3.7712 0.229792 -1.18472 -0.826435
1687 8.05663 6.57069 4.07524 -0.198064 0.0962701 -0.0436924
671 9.12362 6.88741 3.87325 -0.455468 -1.62075 -2.341
3247 10.1981 6.24879 3.44642 -1.07247 0.924044 0.100218
3101 10.1227 7.22113 3.84358 0.119248 0.338822 0.537088
1940 11.7133 6.71233 3.26623 1.36593 1.08005 -1.44183
3190 11.0173 5.99881 4.19555 -0.750805 -0.514325 -0.178007
3414 11.0726 7.1042 4.16099 0.0664821 -0.430108 0.782025
2544 12.3167 7.43465 3.80112 -0.63473 0.334863 -1.97058
166 12.6423 6.23328 3.53285 -1.3823 0.334203 0.447479
2130 13.3633 7.32075 3.6847 0.958445 0.856602 2.08834
1797 11.9599 6.56576 4.29281 -2.41791 -0.366815 -0.959447
1426 14.2541 7.33258 3.15502 1.16446 -0.176256 0.321094
3742 14.161 6.15518 4.38245 0.157365 0.226505 1.54176
2521 15.7873 6.23866 2.99545 -0.363779 -0.0563566 0.416451
557 16.2882 6.69014 3.89607 2.01584 -1.45268 2.74554
1429 17.4351 6.38303 4.19485 -0.573654 1.3784 -3.03014
2849 0.265976 7.70954 3.03002 -0.836341 0.196501 0.0309032
3771 2.31551 7.58158 3.98308 -0.250444 1.26939 -1.45648
661 1.67844 7.81534 3.09493 -0.239492 -0.771055 -1.58621
2123 1.72117 8.52107 4.09016 2.61564 -0.513259 -0.232318
863 3.98083 7.5731 2.99826 -0.447158 -0.030994 -2.38041
3051 3.30614 8.14967 3.56037 0.591189 -0.461872 0.276231
2758 4.32638 8.60177 3.66438 0.490345 1.9364 0.295506
2455 4.38412 7.61219 4.09451 1.45241 0.602891 -1.40042
2875 5.46642 8.52266 4.37975 0.735915 0.496258 0.511643
1575 5.8832 7.62898 3.16022 0.581605 -1.38663 -0.0570523
1763 6.4386 8.504 3.01044 -1.19199 0.739134 0.243224
2853 8.56709 7.57874 3.23144 0.0800891 -0.577902 0.259804
439 7.65319 7.53538 3.90107 -1.44646 -0.127583 -0.114478
916 9.79214 8.05285 2.9959 0.0811318 -0.285424 -0.962382
923 10.3761 8.31287 3.87597 1.77863 0.783392 1.44943
3967 10.5564 8.85625 2.98229 -0.658629 0.149001 -0.702243
2525 11.4466 7.98874 3.93804 -0.303137 0.936157 0.465446
2725 12.3886 8.78554 3.45995 0.0931502 0.77075 1.33031
195 13.4401 8.32654 3.49358 -2.02231 -0.295454 -1.52262
2889 14.2572 8.0528 4.20039 -1.07534 0.709702 -0.80289
3583 16.1488 8.30847 3.22076 -2.1115 0.584775 0.635119
392 15.0212 8.42921 3.3002 0.481061 -0.346756 -0.366712
3655 15.4557 7.74626 3.90119 1.78745 -0.295066 0.13102
2002 16.3367 8.71808 4.27541 -1.33003 0.371043 0.380214
2847 17.6278 7.45831 3.94917 1.35289 -0.513002 0.0532317
1851 16.5492 7.65606 4.22041 0.964046 -0.583435 -0.113505
2731 17.477 8.60852 3.45403 1.09511 -0.760248 -1.2438
529 0.0294672 0.995197 4.88128 -0.610197 -0.422123 1.36793
2851 0.994548 0.741492 5.42138 -1.39472 -1.31412 -0.995965
810 2.9513 0.751365 5.82595 -1.71987 -0.0727667 0.437628
3175 3.78732 1.06024 4.85422 0.0478457 0.355362 -0.41071
13 3.00226 0.00296429 5.12268 -0.686638 0.40283 0.0352162
91 5.62439 1.15902 4.59314 -0.480705 -1.2604 0.0181337
2859 4.84785 0.843823 5.16394 1.44646 0.509125 -0.680691
3718 7.36615 0.287765 5.72926 -0.187464 -1.13665 -0.956844
500 6.13448 1.11958 5.60712 -0.559852 0.203433 -2.3405
666 8.8587 1.22408 5.71565 -0.513133 0.804208 -1.32578
515 8.12535 0.155909 5.04763 1.35688 -0.0525617 -0.325028
2993 9.52555 0.434851 5.14081 -0.0520534 0.636742 0.170392
2288 10.6111 0.461164 5.75823 -0.731373 -0.741756 0.019814
703 10.855 0.617889 4.56918 -1.10481 -1.88298 1.49379
2508 11.821 0.449144 5.29675 1.46014 0.0185467 -1.67768
3045 12.3734 1.45013 4.95968 -0.000453047 1.00841 1.18565
1448 12.9934 0.746004 5.46227 -0.0597503 -0.0665775 -0.479481
264 13.785 0.201653 4.50219 0.000483624 -0.0887864 -0.360329
1505 13.8277 1.36312 4.56175 -0.720598 -0.198505 0.465972
2629 14.1189 0.81428 5.66058 0.83388 -1.39267 0.418633
3961 15.6178 0.000907865 5.30529 -1.35846 0.231818 -0.686886
2828 15.0882 1.31215 4.91557 -0.761655 -0.897515 0.726373
2242 16.1759 0.91473 5.41298 -0.755881 0.715107 -1.31828
225 17.1411 0.327542 5.52981 0.0338083 -0.968033 0.91871
3492 0.784516 1.97582 5.26476 0.822092 -0.0887683 1.4777
237 1.75252 2.74097 4.76991 -0.154089 1.65742 0.792353
3968 1.91939 1.52605 4.77659 -1.81734 0.387168 0.541864
3766 2.72964 2.28313 5.15767 -0.676309 0.595459 1.39087
639 1.62313 2.88854 5.87094 -0.395253 0.785416 0.41853
705 3.53493 1.67437 5.62535 -1.07815 0.995094 0.381905
15 3.71478 2.82116 5.22798 1.96799 1.14146 -0.369055
3438 4.7987 2.96279 5.34301 -0.03652 0.665207 -0.497771
1415 4.99477 1.90965 5.19115 -0.400261 -2.36389 -1.04244
2075 6.27705 2.15841 5.01446 0.098696 1.36002 1.0138
3641 7.25808 2.16705 5.40812 0.641963 0.0171096 0.805355
217 8.31808 1.82036 4.92244 1.0172 -0.509952 -1.03111
997 8.2297 2.83828 5.59966 -0.27501 0.396031 -0.0879465
2987 8.1329 1.86654 5.94439 -0.535213 -1.14672 0.330018
3688 10.1623 1.7568 4.64204 -3.25172 0.7001 0.783281
2838 10.0659 2.84507 4.63953 2.70527 0.105378 1.5972
2939 9.4452 2.45937 5.4389 -0.571065 0.502898 -0.257809
734 11.0549 2.10277 5.43434 0.980435 -0.242105 1.15689
950 11.0949 2.80779 4.61319 1.79642 -0.607583 -3.34032
1750 10.4721 2.91442 5.62511 1.77182 1.54229 0.614428
3614 12.3951 2.94189 5.88133 0.376077 -0.140598 1.4838
187 13.2524 2.14097 5.00032 -1.46159 -1.62845 0.901856