ITEM: TIMESTEP
74000
ITEM: NUMBER OF ATOMS
4000
ITEM: BOX BOUNDS pp pp pp
0.0000000000000000e+00 1.7878070701931353e+01
0.0000000000000000e+00 1.7878070701931353e+01
0.0000000000000000e+00 1.7878070701931353e+01
ITEM: ATOMS id x y z vx vy vz
2199 0.847937 1.17546 0.511901 0.339024 0.549998 2.13279
64 1.41485 0.141347 0.0327557 -1.5499 -0.442178 0.499304
2635 0.209782 0.208018 0.596999 -0.522869 0.158533 -0.117322
1501 1.80228 0.461394 1.04171 -0.474685 -0.750085 0.842927
1377 2.30737 0.736251 0.0955687 0.758489 -1.38779 -0.387342
1171 3.03588 0.559211 1.07247 1.61337 -0.944566 0.152878
1694 4.0237 1.22112 0.390564 1.31521 0.212398 0.906269
1459 3.72174 0.114247 0.297999 0.0906034 1.79161 0.670659
3263 5.6952 0.659825 1.32367 -0.406692 -0.277148 1.20138
640 4.61046 0.699372 1.34748 -0.0577369 -1.29813 1.38018
3019 5.43624 0.176809 0.23501 -1.02103 0.813205 -0.0651966
837 5.9169 1.35933 0.116462 2.43478 0.440068 0.695873
2607 6.55742 1.32664 1.03705 -1.82115 0.00398773 0.765779
1091 7.99317 0.63897 0.173734 0.201451 -1.27248 -0.120286
1536 7.46465 0.799327 1.20103 -1.01073 0.0356156 0.680813
622 8.54854 0.152198 1.10319 1.65692 2.15912 0.375273
1480 9.18637 0.936032 0.793514 -0.628746 0.720383 0.176324
558 9.87846 0.511495 1.36535 -0.279651 -0.632025 0.997668
3559 10.1837 0.640184 0.228543 -0.834284 -0.304669 -0.0421435
2189 11.8441 0.43338 1.23774 0.219169 1.74364 -0.507431
3476 10.8615 1.4121 0.0691926 -0.302322 1.59774 -0.608457
3264 10.8085 0.0749173 0.759421 -0.915241 0.155597 0.66812
3443 13.1049 0.525346 0.98011 0.143318 0.224345 -1.07105
2948 12.3239 1.10968 0.703372 -0.19018 -0.785597 1.085
1397 12.5967 0.0463893 0.219678 0.477483 0.913012 -0.431322
2522 14.6263 1.48827 0.888926 1.45327 1.00167 0.221675
1640 15.8282 1.47775 0.439526 -1.05026 -0.668493 0.504984
2585 15.9241 0.0939444 0.904984 0.252363 -0.401258 -0.668513
1859 15.0036 0.476988 1.17546 2.6755 0.00590863 -1.97315
714 17.3681 0.194533 1.23158 -0.274846 -1.0007 0.621955
1605 16.854 1.16893 0.898272 -0.480139 0.196079 -0.830494
3854 0.0142468 1.75705 0.853985 -0.379273 -1.30869 -0.450104
3965 0.858913 2.61301 0.146133 -0.00853993 -1.01234 1.07803
2452 2.73047 1.80501 1.09343 -0.80509 -0.333912 0.172851
2111 1.64188 1.5236 0.00438811 0.495409 0.446039 -1.43798
2367 2.95841 1.6191 0.0810682 0.0939754 0.0651292 0.653454
3557 3.32794 2.97246 0.364272 1.9254 2.1458 0.0969862
3809 3.83411 2.42081 1.05793 1.19771 -0.502356 1.05105
10 5.87221 2.44969 0.501299 -0.987547 0.973594 0.192475
1948 4.84628 1.91358 0.519627 -0.613638 0.234688 -0.327006
2402 6.10805 2.29792 1.44453 1.65248 3.02142 -1.27333
1974 7.26867 2.16338 1.10172 0.392041 -0.573258 -1.99132
2764 6.88076 2.91511 0.502491 1.48116 0.576966 -0.000542363
3929 7.04225 1.5643 0.0979159 1.11433 -1.12535 0.332298
1835 8.24456 2.80838 1.2328 -1.16963 -1.30606 1.64051
2061 8.06391 1.70977 0.835217 0.870854 -1.08873 -0.803011
544 9.72946 1.99249 0.814252 0.529087 0.598687 0.0070662
3339 10.2715 2.86819 0.553646 1.58991 1.88511 -0.373282
2134 11.0252 2.23346 0.622567 -0.333313 0.686937 -0.302314
177 11.778 1.54352 1.35174 1.47302 0.971268 -0.281696
1172 12.0858 2.36369 0.530196 -0.777046 -0.375793 1.47104
664 13.4061 1.83974 1.25456 -0.523269 1.12724 -0.406059
162 13.3851 2.36545 0.176532 0.215519 0.646921 0.118172
883 14.5523 2.55365 1.16976 0.936041 0.413687 0.730795
1475 14.6052 2.90959 0.0932606 1.14689 0.0491352 -0.912904
2784 15.5862 2.26684 1.32129 -0.345642 0.00378394 -1.94503
608 16.7803 2.20143 0.718602 0.792819 -0.478068 -0.0432393
354 17.8426 2.88671 0.643995 0.795826 0.314873 -0.671417
3777 0.872022 4.30837 0.594491 0.605541 0.0972201 -0.743003
2683 2.24709 4.41842 0.790354 0.292508 0.5948 -0.5775
1038 2.12548 3.06163 0.600255 0.376072 0.838308 0.723799
86 3.70655 3.57173 1.19586 -2.16115 -0.683103 0.530674
3656 4.19611 4.40432 1.37678 0.704086 -0.763812 -1.49803
2027 3.19419 4.04731 0.389522 0.184365 0.07139 -0.0697892
142 5.15514 4.08627 0.839094 -0.26648 -0.309937 2.2171
140 4.60387 3.23071 0.489504 0.1675 0.411712 1.36241
3624 6.02702 3.51108 0.686781 -1.39039 -0.19756 -0.557082
689 8.3271 3.91803 1.09558 0.185453 -0.688135 0.227594
1823 7.69238 3.45413 0.488543 -0.150974 -0.283653 0.24845
827 9.58124 4.27073 0.0858054 -0.457503 0.23711 -0.278715
2540 9.30752 3.31298 0.697772 -0.503122 -0.738313 0.0897356
501 11.4897 3.99878 1.47302 -0.210421 -0.433793 -0.313613
385 10.8068 3.75784 0.563108 0.452908 -2.4488 0.698056
474 12.683 3.03796 1.13325 0.218409 -0.41626 -1.5531
2114 12.0427 3.5808 0.480821 -0.0785399 -0.418088 -0.0598887
623 12.4843 4.09847 1.31406 -0.203137 -0.00252661 0.797387
1115 13.1302 4.31246 0.409085 1.73007 1.73709 0.527642
1861 14.5835 3.83748 0.782232 -0.0553406 0.238706 -1.30121
2979 13.6799 3.4141 0.47095 -1.19625 -0.451685 -0.467369
3976 15.5485 3.21619 0.268125 -0.624376 -1.12075 -0.675453
2598 15.7066 3.74582 1.45584 0.815175 -0.805798 -0.286215
1937 16.2083 4.19912 0.427962 -0.822721 0.278943 1.90825
49 17.4455 4.44857 0.303006 -0.412457 0.336952 -1.12431
1298 16.9902 3.74388 1.39897 -0.813477 1.00939 -1.40014
15 17.7822 4.38015 1.26219 -1.86498 -0.886397 -1.1731
3717 16.8044 3.15378 0.501494 -0.0592098 0.0312472 -0.217157
1894 1.35879 5.62329 1.34617 -0.823074 -0.375364 -1.64249
3614 0.306479 5.14685 0.602161 1.08036 1.04892 0.406819
342 1.62927 5.1203 0.311772 -0.0177797 0.30232 -0.598052
2007 2.34212 5.75157 0.841902 0.229305 0.548731 -1.11831
528 3.29983 4.90288 1.157 0.749074 0.0878251 -0.497727
2775 4.40572 4.97335 0.251487 -1.545 -7.5636e-05 0.18805
2671 4.28038 5.51413 1.35235 -0.0123505 -0.689346 0.207517
357 3.35601 5.61794 0.463859 0.6075 -0.277158 -0.82452
307 5.23915 5.15378 0.805238 -0.665153 0.339411 1.20168
464 6.15283 5.47057 0.491529 1.11243 -0.477977 -1.30609
564 6.33617 4.48949 1.08656 -0.414801 0.0714313 0.321465
2972 7.73705 4.93191 0.632508 -0.989377 0.460065 -0.155702
1972 7.99048 5.67089 1.45333 -1.22315 -0.198871 0.449733
3592 8.82546 5.32967 0.682127 -1.02765 0.482845 0.299023
1885 9.38436 4.5562 1.07463 1.62183 0.496968 1.4449
2747 9.82999 5.4619 0.116383 0.878338 -1.74207 0.450757
1131 10.6139 4.86141 0.239902 0.405618 1.41294 -0.557
2008 11.6732 5.46223 1.04054 1.73099 0.297905 -0.22203
1279 11.8588 4.61071 0.42086 0.0652098 1.04501 -0.511268
930 12.6474 5.09577 0.976719 -1.22703 -0.521139 -0.104961
1388 12.2506 5.73924 0.0880307 -1.36181 -1.36924 0.284998
808 13.8508 5.71912 1.03496 -0.0347302 2.068 -0.172566
690 14.0214 4.74328 0.602783 -0.659589 0.0528643 -0.758065
3224 15.2455 4.75009 0.602266 -0.0747369 0.103595 -1.05335
1840 14.9383 5.53212 1.12264 1.37391 0.122486 0.370791
3587 16.1264 4.94046 1.32168 0.676478 0.321696 -0.458457
1282 16.5111 5.25413 0.133832 1.68171 0.652125 0.827709
1432 17.1242 5.31876 1.38189 -0.522119 -0.533151 -0.737432
2421 0.340303 6.05564 1.12678 0.563121 0.399461 1.01739
3167 1.30584 6.21844 0.260133 -0.832375 0.0212501 0.7785
2262 0.393258 6.88396 0.569445 0.468318 1.06805 0.3557
2502 1.94826 6.96487 1.08996 -0.708492 -0.195685 -0.994671
2078 2.9062 6.90119 0.723763 0.457947 0.802151 0.16806
2892 3.73125 6.57359 0.202937 0.798489 -0.277782 0.370238
2313 4.81777 6.90632 0.0331016 -0.392317 1.29504 -1.36235
3322 5.73048 6.6841 0.451811 -1.1719 -2.91269 0.112127
3907 7.0712 6.13886 0.908617 -1.90867 -0.663664 -0.106966
1588 6.65914 7.14862 1.32941 -0.436288 -0.540072 0.0404308
2404 7.43213 7.34439 0.666232 -0.386863 0.322114 -0.400277
1625 6.6838 6.8347 0.0074929 0.640546 1.00886 0.06162
3515 8.43667 6.73922 0.94356 0.844979 0.633976 0.165321
693 10.3568 6.01454 0.861455 0.828926 0.734542 1.44735
442 10.1759 7.07983 0.889523 -0.559429 -1.30296 0.396134
3876 9.34817 6.58516 0.243977 0.442141 0.921083 0.0709494
3461 11.1659 7.44862 0.343331 -0.284277 0.0932433 1.76001
2453 11.3592 6.55278 0.823536 -0.869915 -0.359993 1.09048
2873 12.2679 7.08276 1.30897 2.02886 1.83917 0.803689
2992 12.2187 6.93665 0.185497 1.86015 1.00975 0.191318
2786 12.831 6.15376 1.02685 0.288685 -0.26816 1.32438
485 13.2853 6.65019 0.199629 -0.512757 0.917636 0.562893
2956 14.3634 6.36565 0.238385 -0.284049 0.696183 -0.175684
1827 13.5303 6.82194 1.2098 -0.0321823 0.0554205 -1.15185
108 15.2473 6.84116 0.995405 1.47663 -0.292852 0.198122
1631 15.7334 6.45308 0.0450082 -0.457749 -0.31797 -0.536607
153 16.1125 6.20516 1.00265 -1.691 1.4019 0.125983
3111 16.1571 7.41205 0.634945 0.349294 0.202547 -0.0105201
3778 17.7236 6.04684 0.146424 0.346144 -0.068546 -0.204142
3278 17.1336 6.34384 1.01214 -0.365984 0.561504 0.372549
2997 0.97632 8.7627 0.833179 0.765953 1.50744 1.11772
181 0.0815202 7.90572 0.787459 -0.336446 -0.849887 0.729097
372 2.89522 8.25913 1.20764 -0.997367 -0.760734 0.908051
369 2.97065 8.17369 0.227039 -0.380071 1.45139 -0.447436
2914 1.95939 7.96882 0.683893 -0.210632 1.07717 -0.433041
3532 3.56464 8.87825 0.695187 -1.35146 0.296561 -0.34688
1111 3.6992 7.64423 0.754627 -2.86546 -0.501801 -1.72779
3556 5.66787 7.60889 1.15034 -0.396163 -0.395215 -0.645519
276 4.78839 8.71278 1.08711 0.04295 0.0589737 0.559719
2890 4.7104 8.04677 0.231793 0.178887 0.490965 0.667583
130 6.2409 7.76271 0.27786 1.63033 0.531702 0.370424
420 7.42925 8.64404 0.994799 -0.362849 -1.73088 -0.503832
1739 6.2525 8.71428 0.589329 -0.478402 -0.91819 0.954575
3191 8.27407 7.8209 1.16598 -1.38513 -1.2014 -0.115053
2272 8.87981 7.75064 0.133155 -0.446975 -0.109753 0.983214
1197 7.78068 8.2023 0.166463 0.640785 0.712553 -1.00061
1376 9.78022 8.01689 0.93019 0.301084 0.389032 -0.131205
128 11.0573 7.60266 1.39729 1.63277 1.96137 0.457565
1770 12.0389 8.36059 1.07272 0.535372 -1.14072 -0.141365
192 13.014 7.80512 0.929949 -0.681371 0.763161 -0.379044
1275 12.863 8.77474 0.483446 -1.7014 0.644887 -0.966615
1198 14.4286 7.61174 1.29029 -0.935694 -1.15149 0.273545
1442 13.905 8.45373 0.861438 -1.00054 1.54612 0.286144
635 15.9012 8.57445 0.4755 -0.0431599 -2.02176 -0.383164
2038 15.2536 7.78115 0.50706 0.791019 -0.183801 0.369138
3635 15.6831 8.81958 1.40971 1.65596 -0.26155 1.22287
467 16.6005 8.14614 1.23252 1.68847 0.874011 -0.971995
2669 16.8658 8.26337 0.253138 0.500778 -0.546528 -0.308923
2085 0.120255 1.05169 1.56671 -1.29277 -0.432936 -1.77156
589 0.215556 1.09232 2.62854 -0.758423 1.18424 -1.18145
2209 1.66334 1.44977 2.97399 0.955854 2.35927 0.233815
3967 1.71139 1.03937 1.87872 -0.588373 1.24245 0.208236
3170 2.80088 0.821721 2.16905 1.36127 -2.02145 1.20362
2303 2.11786 0.462035 2.72933 0.313686 -0.502432 0.940007
2155 3.97481 1.45877 2.79713 -0.386014 0.0413292 1.04914
1803 5.53986 0.387468 2.22412 -0.662294 -0.0809696 -1.31732
1666 6.53992 1.11689 2.40169 0.62805 -0.952431 -0.0820898
535 6.58716 0.00536482 1.9326 -0.389153 -1.48316 0.739962
1196 8.00013 1.15439 2.68596 -0.949348 -0.710955 -0.393732
2823 8.79023 0.684772 2.1106 0.291866 -1.15072 -0.28382
3093 7.78189 0.180719 2.22318 0.229966 2.0222 -0.9425
1653 9.82948 0.615955 2.69148 -0.398759 2.09519 1.25015
3836 11.0123 0.650558 1.96599 2.07656 -0.452367 1.37254
1671 11.7764 0.231812 2.57959 -0.105203 0.557393 0.162489
1487 12.2012 1.08341 2.18464 -0.946813 -1.87854 0.150358
3343 13.3978 1.27033 2.7208 -0.00187098 0.381385 -1.44868
51 13.0187 0.120186 2.40836 -0.179584 -0.48646 -0.537958
2473 13.633 0.83569 1.7977 0.648624 -0.248626 0.904044
2505 14.2269 0.634516 2.91589 0.756472 -0.261597 0.293855
2708 16.1378 0.707217 2.73362 1.74437 0.52231 -0.311101
871 15.9381 1.06367 1.49589 -0.098782 -0.257043 0.681909
348 15.1898 0.828336 2.42277 -1.16829 0.919549 -1.76685
1211 16.9089 1.34541 2.05731 0.991781 0.899895 0.106343
2070 0.587261 2.10077 2.7205 -1.95103 1.06802 2.24618
2389 0.876545 1.80929 1.50405 0.244493 -0.00162935 -0.322073
3641 1.08287 2.80705 1.57982 1.30689 -0.960186 -1.70901
465 2.80066 2.81617 1.59836 0.91638 -0.411433 0.193357
1589 2.09964 2.95406 2.34082 -0.493292 0.0581248 0.396304
1014 2.5883 1.74938 2.55344 -2.93011 -0.232371 -0.768958
3424 4.02138 2.51563 1.99744 -0.393968 -0.886388 -1.01007
3431 3.06656 2.61582 2.70728 -0.876801 1.14436 0.162784
2870 3.57905 1.62731 1.85493 -1.08749 1.1218 0.46503
395 5.88118 2.50318 2.61877 -0.589022 0.159714 0.550604
445 5.04229 2.45013 1.65851 1.31369 1.0352 0.436851
3130 4.95658 1.54464 2.12667 -1.51729 0.583041 -0.368226
898 7.21345 1.86466 2.1004 -0.20197 -0.447694 -0.284734
43 7.01934 2.72958 2.56154 -0.0676205 -1.96774 -0.307915
3333 8.48236 2.4836 2.44725 0.785825 -0.962205 -0.785524
1289 9.69315 2.59863 2.57045 -0.52125 -1.72099 1.96578
3477 9.53049 1.67641 2.04424 0.340114 2.07657 0.0821496
2535 9.12442 2.69101 1.64945 -0.897848 -0.101023 -0.388137
2565 10.2696 1.74972 2.76294 -0.278081 -0.770371 -1.50631
3628 10.4324 2.2165 1.5657 -0.501899 -1.75445 1.23031
2927 11.1086 1.74764 2.17475 -0.959884 0.837645 0.140728
2730 11.5714 2.77093 1.63197 0.135453 -1.21716 1.01145
3851 11.7928 2.63989 2.79174 0.462033 0.49002 0.572622
2869 12.3832 2.08395 2.06712 1.74032 -0.23332 0.0825632
3081 14.6807 1.7658 2.10293 0.771845 -0.61078 1.63454
2396 13.9707 2.69864 2.33793 0.786311 -1.14045 0.0749483
951 15.8449 2.67654 2.60668 0.115969 -0.528592 0.800896
1650 15.7409 1.70746 2.25291 0.962707 -0.912807 1.12281
2304 16.8101 2.44693 1.8235 -0.105194 -0.426615 0.293864
819 16.4435 1.97735 2.97647 -0.550352 0.0275192 0.551369
3129 17.8464 2.51563 1.83887 -0.0308682 0.378805 -1.58229
273 0.898712 4.42082 1.64354 -0.229512 0.819592 0.654027
3300 0.743663 3.62826 2.97834 -0.864662 -0.354198 -0.223579
116 0.0736491 3.71344 2.08475 -0.86507 0.0439908 -0.0860201
2969 1.58888 4.20917 2.44682 -1.2837 0.90599 0.091145
2227 3.08249 3.64666 2.48504 1.29142 -2.61064 0.0346946
3721 4.15344 3.69273 2.32925 0.226479 -1.30318 2.48543
195 4.78987 3.46834 1.61424 1.53342 1.67352 3.39079
2629 5.76097 3.69323 2.7055 0.181821 0.152606 0.355027
642 4.9528 3.06092 2.74328 -0.294061 -1.12666 1.23824
256 6.23339 3.23529 1.92187 0.111676 -0.553846 -0.519692
3161 7.10006 3.79333 2.94268 0.0651517 -0.452326 0.959002
1241 7.39668 3.41837 1.50108 1.69214 0.997686 -0.675337
1820 8.52059 3.58598 2.27614 0.653186 -0.722073 1.18119
2157 9.5981 3.8352 2.17229 -0.552222 1.06538 -0.150024
3882 10.7592 3.10185 2.40475 0.634103 -0.066672 1.31519
844 10.5121 4.12241 1.68655 -0.838046 -1.83737 -0.974481
729 11.4637 3.88174 2.59921 -1.3758 0.255426 -1.99916
1492 12.3835 3.17389 2.0349 -1.39585 0.180228 0.28968
586 13.3407 3.35685 2.90239 -0.709104 1.08981 -0.737066
1387 14.8179 3.70393 2.48955 -0.576417 -2.60982 -0.813693
725 13.7857 3.72516 1.75908 0.28461 -0.0350949 1.48229
337 15.9528 3.65023 2.58595 0.775017 -1.42887 -2.32908
555 17.0442 3.355 2.41538 1.2105 0.936358 2.25659
2495 0.283003 5.62924 2.13568 -0.715715 -0.822624 0.107949
707 1.29948 5.24935 2.68452 2.57467 -0.949934 0.140552
3547 0.444418 4.65703 2.54874 -1.23778 -1.21658 0.310043
1947 2.10171 4.85311 1.84884 -0.110037 -1.3013 -0.851908
1690 2.88079 5.50979 1.79325 0.677539 0.895047 1.45321
1907 2.87248 5.82301 2.74882 -1.57326 -1.1483 -1.08779
1611 3.88601 5.77969 2.83138 1.57002 0.365779 -0.578021
3175 3.32281 4.65039 2.20136 -0.782407 -0.768318 0.541777
208 5.51949 4.58991 1.88543 -2.3481 1.19375 -1.00139
1290 4.64234 5.14255 2.28334 -0.0870397 1.03421 -0.308961
781 5.08277 5.80707 2.9688 -0.660481 -0.333333 -0.547863
3465 6.41781 4.52826 2.35878 0.572219 -0.769058 0.424335
1610 7.29188 4.82609 1.61273 0.207207 -0.0898393 -0.174074
754 6.94017 5.65897 2.87456 -0.573608 -0.408255 -0.623543
476 6.44675 5.40813 1.61751 1.1247 -1.40695 -0.348714
215 5.98217 5.42258 2.63468 0.507921 -1.6339 1.44199
2374 7.84301 5.46378 2.53277 0.295056 -0.524347 -1.0732
2949 8.72575 4.7817 2.50825 -0.257214 -0.100125 0.269993
790 9.85456 4.8681 2.27693 -0.757448 0.342231 0.681169
2331 9.55166 5.54871 1.50909 0.492123 -1.2337 0.167542
2910 10.624 5.23211 1.52277 1.50734 0.850921 -1.73324
3145 11.8433 4.9263 1.85354 -0.708911 -0.459775 0.396894
3001 10.7286 4.64148 2.6296 0.618917 -0.135054 -1.65104
222 13.0338 4.75078 1.99769 0.0620064 0.237052 -0.358775
2060 12.9627 5.33955 2.92845 -1.69645 2.12011 -0.429593
847 13.5969 5.52413 1.96584 0.306056 -0.719882 -1.76218
2201 14.5717 4.49461 1.79276 -0.431237 -0.678956 -0.0329365
3838 14.6444 5.58374 2.35784 -0.0590824 0.637697 1.16907
1135 14.1307 4.61011 2.79594 1.22415 -2.07231 1.03436
298 16.3793 5.38879 2.54019 -0.124548 0.838778 -0.601019
2861 15.3598 4.79497 2.39142 0.51551 1.61013 0.399263
3296 17.0357 4.57065 2.19276 -0.903802 -1.06517 0.926143
1762 1.07821 6.91761 1.72223 -1.34194 -0.420565 -0.27969
2536 0.523954 6.63535 2.551 -0.702185 1.18437 0.769992
3008 0.00816515 7.07031 1.67133 -0.568416 0.0270445 -0.176951
415 2.76023 6.65517 1.80763 -1.39966 2.11333 -0.705472
28 2.7243 7.42722 2.41259 -0.200614 0.682111 -0.603926
2866 3.87954 6.50986 1.53527 0.0897483 -0.679714 -1.37957
2198 3.42329 6.67321 2.65319 -0.112744 -0.292739 0.382699
232 4.63597 6.91925 2.33698 -1.0357 0.244325 1.06871
885 5.01881 6.01848 1.79906 0.417076 1.59323 -1.39554
358 5.59325 6.73731 2.80515 0.442794 -0.164179 -1.6565
3083 6.01242 6.20352 1.86936 -0.87302 -0.0985754 1.5398
2947 6.74626 6.58762 2.48219 -0.0804861 0.530217 -1.43435
3871 8.73612 6.27773 1.89844 1.11613 -0.550662 -0.215574
2713 7.70401 6.84135 1.8714 -0.932406 -0.173691 0.113122
742 9.71936 6.02506 2.42112 -0.173137 0.455558 -0.388902
280 9.48516 7.18573 2.17281 0.0687006 0.718132 -0.0145702
387 11.7407 7.09408 2.32527 -1.12631 1.00124 -0.485886
2623 11.4057 6.00462 1.86841 0.0780029 -2.12674 0.367786
1778 10.8344 6.04928 2.74655 0.224573 -0.790222 0.449701
1659 12.663 6.62323 2.21189 0.972961 -0.935275 0.337577
667 14.4278 6.49297 1.65357 0.550458 -0.793327 1.88893
575 13.676 6.41604 2.59855 2.17098 -0.620539 -1.59158
726 15.397 6.07406 1.92948 -0.304897 0.213028 1.65196
3832 14.9009 7.07971 2.27245 -0.616752 0.59496 2.43103
1636 16.2874 6.44398 2.50114 -0.20948 -0.134699 0.134796
1813 16.7935 7.1194 1.86733 1.16501 -1.22548 -0.741979
577 17.302 6.17377 2.13404 -1.51042 0.73811 -1.20955
736 17.5031 7.31957 2.77783 -1.22933 -1.30542 0.799877
295 0.658256 7.7692 2.57203 0.710571 0.857359 1.23843
2796 1.13434 8.91596 1.93475 0.11396 -0.60765 2.35799
787 1.93452 8.24676 1.65567 -1.39843 0.796504 0.721565
483 2.71945 8.41729 2.54667 0.813683 0.956912 -0.785131
3025 1.69063 7.75 2.81987 0.340117 -1.68976 0.394798
2813 3.90998 7.5766 1.83919 -0.811094 -0.0957609 -0.587792
23 3.75372 8.55371 1.90414 1.0396 1.82153 -0.22622
3971 4.47858 7.77961 2.82867 1.17476 1.25041 0.975117
908 5.24587 8.4659 2.47671 -0.0444711 0.86505 1.17971
109 7.30088 7.7878 1.84717 -0.775589 -0.20246 -0.277551
499 6.0103 7.48222 2.11882 0.12338 0.212137 0.052304
1035 7.09692 8.41146 2.84463 0.633529 1.31053 -0.306534
1597 6.41963 8.22439 1.57087 -0.489418 0.243269 -0.755577
929 7.53962 7.47149 2.93964 -1.21614 0.464609 -0.112124
3474 8.08151 8.45208 2.42599 0.385141 -1.55393 0.494548
3058 8.60386 7.63029 2.81109 -0.664083 0.485751 -0.191071
185 9.17702 8.84778 2.49988 0.967698 -0.842038 -0.429308
549 8.96395 7.98071 1.86127 0.675592 2.04107 0.665593
1122 11.7586 8.83458 2.09414 -0.467926 0.692087 -2.00654
1381 10.5421 7.53575 2.82446 0.756361 -0.342389 -1.54065
2386 11.3755 8.20752 2.88961 -0.0868678 0.568863 -1.63521
1421 10.7017 8.49765 2.09724 -1.35025 0.0580626 -1.09316
2507 12.5679 7.71084 2.05219 -1.84926 0.918184 -1.41885
95 13.4465 8.3418 1.81481 -0.848056 2.0862 0.435641
1157 14.6664 8.15203 2.19079 -0.841953 0.705483 1.1974
3271 13.7989 7.45901 2.09419 1.30615 -1.30688 -0.657389
538 13.6173 8.48503 2.81878 0.0432568 1.68802 -1.90425
1663 15.7822 7.67278 1.63034 1.64434 0.262858 1.33395
3637 15.7042 7.84336 2.86806 0.183168 0.0551294 -0.126379
2838 17.7589 8.613 2.96072 -1.37929 -0.953502 -3.46218
2859 16.926 8.06793 2.31546 -0.961033 -0.0492615 0.155071
2032 0.0983376 0.00505899 2.99351 -0.375445 -0.855591 -1.95417
3072 1.0856 0.491848 3.84906 0.384736 -0.691993 0.199959
1213 2.45163 0.41934 3.98004 -0.863965 -1.35651 0.504696
1418 4.40309 0.190719 4.45686 -0.690653 -0.0191148 -0.117452
915 3.77644 1.07553 4.2311 1.08816 0.715317 0.0423603
453 3.04049 0.841459 3.21467 -1.83374 0.420124 -0.653317
3289 4.81318 0.95111 3.76888 2.59538 -0.344804 0.5721
411 6.3654 0.177784 3.98708 0.120172 -1.00493 1.93721
3208 7.35417 0.671758 3.45295 0.0577317 0.136644 -0.45852
179 7.44741 0.24479 4.44625 -0.219579 0.451268 0.251694
1110 6.01101 1.03838 3.39396 -0.163587 1.47154 1.16265
1150 7.70633 1.20927 4.17082 0.70196 -0.390123 -0.109762
1303 8.73768 0.660258 3.25824 1.32465 0.69506 2.0155
114 8.45628 0.455997 4.22715 0.0782132 0.841681 -0.80271
615 9.4467 0.923359 4.40403 -1.15381 -2.1944 1.09276
1730 10.9606 0.0256587 3.64449 0.304305 -0.650684 0.774969
1411 11.6107 1.4817 3.17181 0.285899 0.776416 -1.02373
2534 10.5231 1.14271 3.6611 2.12758 0.188254 0.322063
931 13.1587 0.591306 3.41887 0.10737 -0.458832 -0.873354
3612 14.1977 0.232851 4.02144 -0.674555 0.813676 -0.796882
3361 13.7439 1.26762 4.28525 -0.0957375 2.54804 -0.448897
865 15.626 1.23664 3.4125 1.31019 -0.606624 0.358836
3468 15.0095 0.509528 3.5227 -0.388272 -1.06922 -0.569253
1539 16.0072 0.00652979 3.59246 0.603588 0.790426 0.98257
2510 17.8162 1.13578 3.83772 -1.7379 0.87452 -0.487794
3578 16.7445 0.565612 4.44921 -1.03323 -0.12321 0.00449406
1845 16.8049 1.01331 3.49339 -0.361921 0.0797395 -1.04039
3992 0.92641 1.6158 3.65435 0.771593 2.21518 -0.824195
3154 0.5527 2.55832 3.86025 0.0713617 0.543409 -0.251671
1537 2.34272 2.77369 4.31909 -0.808726 -1.23192 0.872432
90 2.29998 1.49579 4.01349 0.112795 1.25941 1.23906
180 1.59607 2.42222 3.26832 -1.45068 -0.188977 1.33849
349 4.09985 2.77815 3.13615 -0.468873 0.510547 -0.947796
792 3.16228 1.94752 4.24087 -0.267621 -0.940498 1.13748
3355 5.44356 1.87609 4.09635 -1.20776 -0.205276 -1.13225
3144 6.42607 2.33889 3.54312 0.962241 1.16937 -0.763142
1054 7.35123 1.81592 3.40035 -0.46406 0.332314 -0.448728
902 8.89922 1.94731 3.30901 -0.518777 0.216545 0.0489397
2712 8.56014 2.54484 4.29173 -0.0326063 0.0471596 -1.04776
1156 8.68545 1.5241 4.45212 1.16567 -1.47637 -1.19232
2200 9.66136 2.5197 3.67119 -0.211777 0.763354 -1.28393
3658 10.8818 2.40097 3.29649 -0.0423116 1.46797 -1.16395
2750 11.296 2.4045 4.23002 -2.51818 -0.521875 1.40915
1425 12.4649 2.41279 3.95518 0.729431 3.00763 -1.70041
364 12.8655 2.38716 3.01319 -0.401385 -0.263486 -0.359729
2800 14.6402 2.71858 3.04864 -1.23477 -1.33519 0.166516
3086 13.5535 2.77926 3.91738 1.14238 0.709189 1.88765
2469 14.5676 2.07777 4.17275 -0.980559 2.0042 0.478721
2666 14.6537 1.58687 3.21294 -0.756174 -0.00285196 -1.86867
1703 16.299 1.97071 4.31028 0.304579 0.771038 -1.15009
2080 15.5626 2.26943 3.62763 -1.00662 1.01499 -0.743421
3625 17.4653 1.82566 3.1034 -0.00402231 0.390513 -0.862258
904 16.4915 2.82361 3.68037 -0.115432 -0.666854 -0.726645
1158 0.393753 4.01927 3.93455 0.295112 -0.236278 0.307094
1438 1.27408 3.07199 4.45573 0.787917 0.999523 -1.35148
2624 2.14434 3.96406 4.40657 0.677031 -0.0674674 -0.290734
435 2.39988 4.05718 3.11175 -1.68087 0.446027 -0.551967
662 3.06817 3.14962 3.73832 -0.881536 -0.159861 -0.340214
3160 4.45029 3.86791 4.40209 -1.30634 -0.440376 0.587035
1386 3.38818 4.17813 3.52932 -0.45665 1.5552 0.369622
1978 4.97371 3.18269 3.89492 0.532724 -0.0200376 0.472862
3084 4.89686 4.24468 3.07778 0.0758067 0.650907 -0.92901
2648 6.02408 3.50014 3.66049 1.38503 -0.318685 0.301062
2403 6.97566 3.11372 4.1328 0.0843376 2.05615 0.153581
3066 8.39236 3.45686 3.67532 -0.89172 -0.559087 -0.333795
1259 9.11933 3.95362 3.22439 0.671017 -0.710305 -0.493999
1953 10.1914 3.75449 3.12841 0.337342 -0.412944 -0.224878
1069 11.0799 3.60015 3.60263 -0.0692598 -0.873317 0.760484
916 12.6703 4.37597 3.02723 1.16894 -0.682794 1.55782
2270 13.3612 3.88565 4.24758 -1.56062 0.280276 0.693099
405 12.1841 3.39464 3.29732 -0.325181 -0.830537 0.0629993
3710 12.0663 4.10225 4.16854 -1.21404 -0.373698 1.48443
3752 14.3476 3.69395 3.30347 0.1756 0.9121 1.53849
800 15.6189 3.57321 3.82613 -0.639884 1.27128 1.1673
786 15.1295 4.30954 3.24874 -0.421745 0.499601 -0.475992
3201 15.2328 4.44742 4.21032 0.841547 0.637909 -1.81724
1725 17.7914 2.9931 3.15098 0.697462 -1.2142 -0.414077
3109 17.3985 3.18865 4.37774 0.364592 0.323884 2.27516
34 16.8557 4.04315 3.279 0.667643 -1.9921 1.00954
1062 0.220053 5.57212 3.16495 -1.32538 -0.42346 0.92002
2891 1.39394 4.54853 3.54406 0.239197 1.64338 -0.192555
2345 1.10691 5.495 4.12664 -0.341183 -0.412793 2.18911
3009 2.12409 5.20296 3.75433 0.188307 -1.23765 0.164215
1870 3.13011 5.35846 3.71681 0.668615 -0.991277 -1.04397
3740 4.62454 4.91338 3.84748 -1.30662 -1.19445 0.393189
2928 5.71512 4.90609 3.42252 1.57646 1.10893 0.879022
3326 5.78428 4.96388 4.42569 0.99015 -0.0928838 0.445997
1674 6.84825 4.69092 3.38869 0.103051 0.93382 0.315374
3310 7.1467 4.76548 4.4056 0.588488 0.188598 -1.10336
2827 7.51954 5.48683 3.68335 1.87057 -0.067763 -0.231795
3064 8.51877 4.95184 3.76418 -0.0030075 0.310891 -0.491483
3835 9.5189 4.47655 4.14137 1.11346 1.58015 1.24923
1569 10.3042 5.31296 3.52494 0.726491 -0.2564 0.579801
536 9.29298 5.57796 3.42195 -0.185832 -1.22923 0.976556
2944 11.2623 4.80384 3.53646 -1.41206 1.6447 0.430947
2373 11.3915 5.89594 4.11453 -0.185052 0.110916 1.75932
2842 12.2005 5.32545 3.76648 2.17271 0.125905 0.793852
2695 13.9455 5.58974 3.13206 -0.292167 -0.361593 -0.565915
3183 14.6952 5.21433 3.98836 0.0734451 -0.755721 -0.00590133
859 16.2453 4.77592 3.67091 0.192096 0.539055 -0.762507
585 15.5449 5.56812 3.1828 1.97476 -0.623826 1.64173
600 17.4977 4.91073 3.84304 0.000287183 -0.0985598 0.69612
684 16.5631 5.70072 4.25388 0.313637 -0.166898 -1.06845
1188 1.19169 6.19227 3.29292 0.318072 1.09939 0.859906
3110 0.895569 6.81007 4.32129 0.122031 -1.7778 -1.20038
1271 2.53767 6.17046 4.06045 0.556769 0.967724 0.358532
2889 2.17343 6.5993 3.07311 -0.474997 1.65468 -0.475731
3782 1.94208 7.32492 3.79647 -0.974602 -0.901645 -0.671752
3811 3.65213 6.2858 3.70717 1.9144 -0.830018 1.53756
242 3.42394 7.17868 4.27997 -1.52892 0.76779 0.752803
2716 5.37015 6.00757 3.98409 -2.22993 -0.317011 0.466472
1134 4.74401 6.8081 3.48855 -0.111645 -0.49668 -1.23258
424 6.32346 6.32572 3.41359 -0.241178 -1.45072 -0.185082
3330 7.39735 6.4991 3.55891 0.196249 -0.748063 0.123504
1993 7.40935 7.39161 4.31472 0.816779 0.442291 -1.05324
2205 8.37361 6.13029 3.28307 -0.401411 -1.18726 1.2981
1276 8.92057 6.20188 4.27016 -1.42719 -0.44098 0.797239
1327 9.67338 7.22132 3.33303 0.321066 -0.677871 1.06919
3640 10.1673 6.28581 3.80453 -0.135837 -0.556858 0.443295
669 11.3632 6.94138 3.32715 0.633476 -0.458991 -1.36876
3765 10.4699 7.35729 4.00591 -0.0516368 0.24384 0.748302
1170 11.9388 6.09168 3.01502 -0.550113 1.10546 -0.553482
502 13.1697 6.36939 3.54697 -0.176162 0.134693 1.57924
2416 12.2929 7.40004 3.30958 0.289954 0.32874 0.195533
2480 12.1478 6.64779 4.00707 0.470248 -1.17303 -0.37928
436 13.361 7.31258 3.22372 0.221176 -0.700094 -0.777026
410 13.0941 7.241 4.20607 0.229167 -1.32699 -0.365855
2983 14.3621 6.46109 3.60611 -0.841587 -1.2969 0.391268
2167 14.2568 7.1328 4.40026 -1.366 -0.169821 -0.0145864
2163 15.4434 6.5952 3.05924 0.281197 -1.37036 0.841554
3551 16.3845 7.00618 3.39074 -0.795899 -0.179996 -0.169534
1667 15.3295 6.12786 4.12656 -0.333326 -0.750539 1.68096
2147 15.3653 7.31811 3.72287 -0.761352 0.701925 0.343712
759 17.0739 6.04682 3.21389 0.422699 0.311805 -0.255557
869 17.7229 6.60755 3.64497 0.147351 0.365098 0.437846
1343 0.337953 7.78615 3.71323 1.18399 1.09363 1.57946
3158 1.04576 8.91032 3.57486 0.942801 -0.217807 -0.0947056
570 2.86632 8.32293 3.5602 -0.365026 -0.364301 0.0545881
728 1.93522 8.84978 2.99019 0.682708 0.635792 0.223962
392 2.0221 8.64418 4.21375 -0.844556 0.601221 0.860493
1257 3.37527 7.53994 3.24022 0.181924 0.996164 -1.71542
3585 4.17707 7.83206 3.97467 -0.750954 1.02774 1.37291
2068 4.44542 8.81521 3.30979 2.06151 0.191707 -1.63902
2483 5.41229 7.9711 3.36415 -0.282055 1.69038 -0.709666
2567 5.33524 7.55929 4.33135 -0.640266 0.75663 1.55556
331 5.16156 8.59221 4.262 -0.135163 -1.76827 0.390332
2013 7.28286 8.56379 4.19938 -0.604519 0.541215 -1.5466
2341 6.35602 7.4764 3.14342 -1.36816 0.131088 -1.77274
3226 6.21057 8.92037 3.43202 1.53823 3.25874 -1.05146
2739 6.20887 8.16981 4.2934 -0.0083048 -0.156401 0.970251
791 7.89054 8.8918 3.30522 1.09084 0.437084 -0.0707348
848 10.428 8.71675 3.40028 -1.53092 -0.628085 -0.196801
2569 9.17552 8.34761 3.50824 0.0628674 0.496764 -0.937409
2851 11.7572 8.02378 3.95599 -1.14479 -2.03997 0.760636
425 12.5754 8.37033 3.12665 0.213928 1.78972 -0.102666
102 14.3244 7.51566 3.20531 0.196276 -0.220144 -1.17158
695 14.415 8.54977 3.49648 0.767959 1.21694 0.12578
2588 13.6144 8.2636 4.23983 1.33352 -1.29093 -2.27214
3733 16.3798 8.20467 3.54005 0.108221 0.0506188 -1.51006
2054 15.5109 8.60496 3.82528 -0.61197 -0.53334 -0.87068
299 16.2774 7.55276 4.46552 1.98415 -1.04277 -0.861502
3106 17.2248 7.79817 4.186 -0.234723 0.24055 -0.86433
3324 17.5411 8.77958 4.02885 -0.363534 -0.432971 -0.451612
1862 1.26102 1.01454 5.0692 0.32406 0.738264 -0.109633
580 0.192875 0.526834 4.64072 -1.03057 -0.729138 2.36588
305 3.35824 0.269406 5.79582 -0.563133 0.605215 -0.96173
2359 2.99128 1.03239 5.12032 -0.0103438 0.0854526 -0.00724466
3489 3.30358 0.0242049 4.6345 1.08313 -0.287283 0.0146668
2129 4.27545 0.836514 5.68218 -0.31079 0.271993 0.274604
93 5.35049 0.333389 5.49894 0.613272 0.345587 0.950825
3816 4.62752 1.20783 4.75122 0.482201 -0.330744 -0.126519
212 5.67616 1.18785 4.98801 0.080553 -0.604604 -0.164669
3015 7.05089 0.410069 5.78211 -0.0132473 -1.33273 0.134265
3283 6.80667 0.912486 4.83669 1.00024 -0.134119 0.656244
304 6.64503 1.43639 5.70991 -0.883681 0.284797 0.477709
2384 8.93473 0.61874 5.30057 1.74967 1.10923 1.25449
607 7.92264 0.738745 5.38732 0.77464 -1.42821 -0.592526
3650 10.0084 0.592156 5.3824 0.729128 0.410348 -1.19254
319 10.6594 0.528284 4.52937 0.374661 -0.100169 -0.890006
1358 11.8943 1.05213 4.64711 0.599663 -0.398943 0.181575
1481 11.2496 0.50146 5.46137 0.761564 1.13922 -0.492925
2705 12.0247 1.05967 5.84135 2.16556 0.402192 1.53226
3749 12.9794 0.825973 4.84095 1.14601 -0.0675573 -0.830084
2551 13.7309 1.28175 5.84182 0.40077 1.34277 -1.44451
2657 14.1667 0.709742 5.09882 0.684744 0.561241 0.280169