ITEM: TIMESTEP
66000
ITEM: NUMBER OF ATOMS
4000
ITEM: BOX BOUNDS pp pp pp
0.0000000000000000e+00 1.7878070701931353e+01
0.0000000000000000e+00 1.7878070701931353e+01
0.0000000000000000e+00 1.7878070701931353e+01
ITEM: ATOMS id x y z vx vy vz
1393 0.38347 1.10067 1.41026 0.148049 -0.765003 -0.0975008
2584 0.222303 0.858331 0.321254 -1.40991 -0.870945 0.679398
1386 1.27325 0.217938 0.610777 -0.032018 0.880711 -1.31966
3854 1.63817 1.04699 0.0762912 -0.829648 0.236204 -1.07794
230 2.29041 0.464059 1.02878 -0.368694 -0.680479 -0.0259044
2191 3.41073 1.21371 0.587585 -0.0351949 0.961542 0.181236
2809 4.10406 0.617938 0.328041 -1.56988 0.104793 -0.213409
640 3.87462 0.742616 1.36933 -0.482774 0.399804 -0.886331
792 4.93372 1.26492 0.978913 -1.68062 1.32119 0.896526
3543 5.73426 0.0598428 1.18482 2.47792 1.00425 -0.975827
1459 6.35257 1.07508 1.34661 -1.28825 0.378141 -0.216806
812 6.84164 0.267345 0.653038 -0.231027 0.315342 0.024134
1333 6.51466 1.41265 0.385285 0.136167 -1.33254 0.0998765
2173 8.01491 1.10903 0.819331 0.164609 -0.0984753 -0.288686
2534 8.02907 0.119228 0.262039 1.11848 -0.709308 1.55549
622 8.94227 1.40576 1.29838 -0.477512 0.11156 0.567505
3263 9.69343 0.615692 1.19421 -0.726713 1.6014 1.19517
3605 8.99744 0.969861 0.231147 2.04579 -1.51519 0.857014
1069 11.7939 0.991787 1.06703 -0.826488 -0.530722 -0.329101
3379 11.5587 1.04205 0.13118 -0.0893789 2.02476 -0.650078
3319 10.731 0.572843 0.841636 -1.11148 0.955671 -1.74183
2032 12.4343 0.613788 0.0898291 -0.436465 1.56499 0.707391
3264 12.9963 1.30425 0.891975 -0.220647 -0.885127 -0.866862
3419 14.3898 1.36338 0.352365 1.01184 -0.153439 -0.246874
3777 14.4817 0.910491 1.37664 -0.167093 1.03117 -0.851027
3300 13.8955 0.338407 0.608534 0.619066 -0.400907 -0.833253
431 16.0102 0.0267304 0.183055 -0.293666 0.474713 0.329191
2199 16.204 1.23615 1.00824 -0.435157 -0.265796 -0.121178
3600 15.3315 0.665772 0.809501 -0.519676 -0.467763 0.454388
2894 17.0821 0.814374 1.08457 0.531365 0.805555 -0.561734
3000 17.3249 0.0953848 0.341789 1.76553 0.804467 -0.772098
1537 0.889934 2.86723 1.30811 -1.66331 -1.21979 -0.469864
2751 1.34271 1.70461 1.37885 0.551731 -0.0384912 0.361363
3103 0.664031 1.89784 0.554317 -1.69462 0.683063 -0.0385007
2537 2.17495 1.75694 0.693187 0.0556867 -0.161548 -1.32485
2061 1.9731 2.60792 1.38306 1.27173 -0.813237 -0.655795
2051 4.44474 1.82459 0.208342 0.11362 1.62793 0.461689
1994 4.00062 2.72731 0.44227 1.58813 -1.0522 0.633608
1538 3.14035 1.95467 0.00581705 -0.375938 -0.418752 0.170133
2232 5.49118 1.49106 0.0650731 1.08091 0.419474 -0.830422
2791 5.06349 2.76616 0.78873 -0.827008 0.898417 1.15876
3284 7.12944 2.16139 1.12257 0.915379 -0.705566 -0.0939936
544 6.06396 2.53524 0.600995 -1.56853 -0.920924 0.726141
3950 7.6468 2.89978 0.410226 -0.611817 -0.966541 1.70573
1730 7.64848 1.92372 0.293297 0.432565 -0.336659 -0.395894
819 9.91596 1.50186 0.507034 0.226482 0.751444 -0.0371335
1610 8.99432 2.2692 0.658672 -1.44225 -0.20111 0.173239
177 11.0219 1.61047 1.04722 0.63627 1.79933 -0.763235
3779 10.4966 2.59773 0.126712 -0.937139 0.798576 -0.0139185
3201 12.0029 1.86183 0.526001 0.468301 -0.969049 0.139031
1773 12.5889 2.97872 0.928856 -1.30671 0.341016 0.317091
1771 13.8966 2.05713 1.19581 -0.709628 0.996306 -0.399727
952 14.8864 2.92967 0.633631 0.410718 1.07487 -0.93856
2396 13.9204 2.46204 0.107532 0.486654 0.361707 -0.351364
3633 15.5184 2.05771 0.517976 -0.177513 -1.35224 0.410906
116 15.1479 1.67301 1.35652 0.485587 -1.11814 0.561394
992 16.7467 2.68175 0.155336 1.06263 -0.158071 -0.383399
2683 16.8575 1.97942 1.4598 -0.605011 -1.38775 -0.285899
714 17.7776 2.21073 1.20379 -0.917339 0.961524 2.54281
2359 17.8101 2.86426 0.386189 -0.42988 -1.2406 0.194528
3129 0.428622 4.25952 0.832177 -0.22651 -0.708136 -0.876024
156 2.80896 2.99031 0.278934 2.09907 1.0944 -1.43639
1031 1.82094 3.5849 0.713681 0.688924 1.08066 0.891571
2962 2.72326 4.04784 0.936605 -0.324064 -3.02481 -0.771366
3324 2.39239 4.39016 0.0367592 1.93725 2.17156 0.460507
123 3.23833 3.20181 1.38784 0.294577 -0.308246 -0.0967295
694 3.88653 4.2995 1.2288 -0.804111 -0.0211227 0.417781
1961 4.3165 3.35459 1.22313 0.464598 -1.50544 -0.208058
981 4.67868 3.80363 0.23286 0.350217 1.46806 1.77975
43 5.37775 3.71226 1.016 1.31903 -2.84891 -0.521305
1747 5.6602 3.43886 0.0525789 0.399414 0.883796 0.876727
3914 7.32807 4.10532 0.629035 0.520178 0.604191 -0.190375
1000 6.51929 3.52343 0.775907 -1.64893 -0.266693 -0.68019
2374 7.54913 3.08991 1.485 -1.05525 -0.404332 0.444535
1418 8.91569 4.24002 1.05299 -0.236846 0.734308 0.77967
1617 8.91561 3.12926 0.0587227 0.7852 1.3874 1.90611
501 10.2932 3.98245 1.06102 0.297621 -0.685798 0.734292
2972 9.52557 3.3997 0.942872 0.448114 -1.45939 0.164029
1131 11.2646 4.09136 0.54553 1.57441 0.845994 0.88953
3976 12.6579 4.46709 0.310225 -1.02188 -0.820757 1.86448
2593 13.4495 3.89606 1.12107 1.44728 0.121338 0.828466
108 14.4302 4.03003 1.39016 -0.0475075 0.935451 -0.584642
337 14.1977 3.00899 1.41096 -0.516228 -0.22248 -2.04107
3762 14.133 3.73599 0.218566 -0.326063 -0.166713 -0.222769
2026 16.1545 3.35078 0.69114 -0.796979 1.74566 -0.152616
2069 15.5688 3.86189 1.28221 -2.0331 0.141196 -0.657297
924 15.184 4.22141 0.336015 -1.94561 1.38034 1.32466
3340 17.3611 3.88856 0.417194 -0.341237 -0.385721 0.757861
2367 1.14697 4.73984 0.199629 -0.954125 0.011373 0.638162
465 0.784971 5.42795 0.795404 -0.0976372 -0.534025 0.374866
2147 0.0163541 4.91695 0.107132 0.0428104 -1.89314 1.12486
1316 2.58773 5.57913 0.0244798 -0.236116 0.469286 -0.180984
1065 1.77798 5.70201 1.4519 1.61628 0.75082 0.779273
115 1.92971 4.76759 1.34865 -0.327324 0.941101 -0.766615
2804 3.41061 4.87942 0.243922 0.269303 -0.915481 -1.27512
3940 3.28156 5.78306 1.07352 0.610239 -1.01311 -0.173357
3607 4.08963 5.89507 0.230469 0.233921 0.716424 0.267022
1690 4.42176 5.28155 1.14174 -1.38215 1.79683 -0.12279
3686 5.48141 4.76486 1.19751 -1.12921 -0.359669 0.710703
1111 5.17571 5.20764 0.311672 0.597244 0.780445 1.25267
1781 6.67944 4.88618 1.05578 -0.176875 -1.22487 0.287538
3694 6.65796 5.74393 0.434739 -0.971681 0.730206 -0.0234013
3809 6.02551 4.51864 0.199776 2.24146 0.0949433 0.515402
3911 7.82794 5.08673 0.508644 -1.75573 -0.797909 0.467355
1920 9.06879 5.47966 0.452149 0.561889 -1.40276 0.62831
1446 10.0351 5.799 0.66082 0.409397 0.51499 0.715943
245 9.70692 4.85507 1.17777 -0.500529 -0.164968 0.345133
761 11.6866 4.86025 0.102791 0.18542 -0.84022 -1.10681
387 10.6519 4.98964 0.873317 -2.75627 -1.16049 -2.11372
1840 12.37 5.73903 0.572678 -2.4908 -0.400303 -0.0997566
2456 12.5563 4.87056 1.25639 -1.62217 0.810706 -0.660427
1217 13.5442 5.49147 0.727968 -0.674269 -0.79848 -0.35678
1814 14.5512 5.05993 1.20141 1.31678 -0.133962 0.0750531
77 14.4955 5.95469 0.200718 -1.22246 0.390271 0.13503
758 14.0108 4.83308 0.00669916 -1.17797 -0.587552 1.07474
110 16.5465 5.28146 1.19728 0.731409 -0.234638 0.132534
577 17.4769 5.38679 1.48223 1.16137 -0.762071 -0.460502
1488 0.672265 7.0901 0.956724 -2.4497 0.382168 2.02556
2847 0.883378 6.18217 1.47247 0.397487 1.67493 1.23798
582 1.17047 6.15347 0.144387 0.0878112 0.458552 1.28305
787 1.72315 7.11616 0.61133 1.64801 -0.425569 -0.16544
3405 2.22214 6.68288 1.40643 1.45513 1.37802 -0.562866
2089 3.14391 6.65237 0.172948 -0.13802 1.40304 1.49003
2302 3.38071 6.78661 1.44292 0.615195 1.54675 -0.44628
2198 3.81371 7.40943 0.705929 0.118416 -0.791764 -0.405462
1789 5.40604 6.12046 0.786481 0.36702 0.613209 2.16746
3556 5.11543 7.02675 0.520721 0.371329 0.426168 -2.30768
3093 5.91427 7.19323 1.10933 -0.0923745 -0.892994 -1.89787
2029 6.99667 6.09309 1.4785 -0.513803 0.340725 0.981303
109 7.1375 7.07744 0.110362 -0.183437 -0.271609 0.917193
1705 8.31166 7.18939 0.192975 1.75297 0.144508 -0.0809279
3190 8.85441 6.36853 1.11907 0.0888091 -1.34398 -1.14404
1676 8.02958 6.15518 0.573702 0.799539 -0.843266 1.46001
1287 9.66034 6.90972 0.871355 1.05295 0.772671 -0.188786
3876 11.7167 7.13698 0.651831 -0.828177 0.212553 -1.84195
1241 10.7716 6.65332 0.98514 -0.126413 -0.0720474 -0.929725
802 13.0743 7.14383 0.728818 -0.576451 -0.0906888 0.537517
2752 14.5106 6.54799 1.03496 -2.4661 0.202934 0.392799
663 13.4505 6.42644 0.0281055 0.598823 1.6371 1.26826
1514 14.1343 7.3903 0.138963 0.844499 0.493418 1.8189
125 16.023 6.32707 0.896433 -1.70584 -0.114165 -0.24438
2873 15.1164 6.98046 0.450062 -0.47163 0.810164 1.14444
1827 16.9384 5.99299 0.350063 -0.2279 0.19317 0.00819142
250 17.7727 6.37306 1.05754 1.84019 -0.28997 0.168843
2831 16.5197 7.31416 1.04368 0.412167 -1.28107 -0.871927
2316 17.433 6.89515 0.020028 -0.640583 -2.86173 -0.645253
1059 0.737874 8.08425 0.342997 0.253604 1.82026 1.38718
1808 0.505167 8.82673 1.16375 0.687149 1.32565 0.530911
1437 2.72179 7.45378 0.671165 -1.63835 -0.957163 -0.767015
1427 1.82272 8.09878 0.690864 -0.275066 -0.50911 -0.395122
1626 2.75171 8.85208 1.18936 0.483767 -0.0922426 -0.758757
2998 3.32574 8.236 0.421968 0.225808 0.735418 -0.490725
1302 4.23409 8.62408 0.82285 -0.463312 0.952733 0.00331959
3277 5.60273 8.42718 0.149407 -0.243458 0.704183 -0.241074
1396 5.02807 8.6628 1.45217 -0.413799 -1.92147 -0.240873
3873 8.62302 7.96396 0.970615 0.409902 0.0181031 0.292129
3516 7.66213 8.45771 0.346843 1.66883 -0.241662 -1.53686
228 9.69099 7.98188 0.294617 -0.1084 1.36347 -1.03111
326 9.83657 8.81829 1.10175 -0.894215 -0.288823 2.20331
211 10.7246 7.74148 0.130613 -1.10023 0.0265839 -1.71266
89 11.0273 8.4996 0.915466 -0.7898 -1.6286 0.614642
3409 12.0812 8.40871 0.784341 -0.9762 0.777174 -1.95062
1930 13.255 8.15783 0.77967 -0.00393918 -0.853972 0.650256
444 14.5959 7.84028 1.01487 0.478203 0.211394 0.891821
2925 14.2362 8.76651 0.909045 -0.15923 0.806898 -0.494984
1274 13.7143 8.91104 0.00772203 0.791471 0.509324 0.897078
214 16.2234 8.5736 0.869216 -2.42308 -1.28445 -0.981398
3161 15.4269 8.505 1.48777 -1.53396 -0.617632 -0.349612
318 17.4046 8.78339 0.093598 1.76228 -0.860849 1.18189
2723 17.6533 7.68527 0.479201 -0.695373 0.345562 -0.180062
1157 16.6813 7.99982 0.0798697 -2.20327 -0.0156326 -1.04119
2695 17.2416 8.91393 1.18967 -0.739818 0.521575 -1.98958
3839 1.08741 0.520553 1.81899 0.575325 -0.88884 -1.09331
3424 0.948119 1.25261 2.58687 1.1982 -0.703561 -1.36423
2432 1.32287 0.235957 2.93216 -0.794661 -0.0591436 -0.0944884
2320 2.10635 1.26457 1.95997 0.274005 1.66476 1.67567
1654 3.69049 0.287572 2.79648 0.398488 0.0236125 0.0547008
3624 3.21897 1.25527 2.14324 0.582226 -0.0393477 -0.820469
2314 3.06847 0.0322379 1.55332 -1.42214 0.235439 -0.0766307
1934 4.22869 1.27437 2.78915 1.66442 -0.933039 -0.153822
1972 5.44778 1.4039 2.26559 0.811888 0.60086 0.0689176
1256 6.17736 0.989576 2.94322 -0.161443 -0.68386 0.629796
114 7.38075 1.16195 2.90833 0.561014 -0.601853 2.4865
1791 7.84101 0.920302 1.91383 -1.31855 0.180015 -2.59918
2200 8.78005 0.288566 1.73194 -0.215348 0.414084 -0.871191
885 9.39738 0.973937 2.24798 1.42524 0.648251 -2.20598
2321 11.8569 0.52795 2.13509 -0.271459 -0.953423 1.14356
2105 10.6205 0.589576 2.25066 -1.51728 -0.0588667 -0.607807
2060 11.1043 1.4443 2.14091 -1.06241 0.247869 0.585436
2397 12.4124 1.25185 2.69204 -0.959817 2.42217 0.0533815
2861 12.5379 0.184707 1.53448 0.048625 -0.382094 -0.76165
2995 13.4968 0.608718 1.69445 -0.290876 -0.399957 3.56067
2708 14.2375 0.343572 2.60073 1.24559 0.484045 -2.16847
3836 14.4704 1.33797 2.53922 0.0622984 0.67681 1.20954
3907 15.4457 0.787135 2.47945 0.348925 -1.09816 0.62581
3842 15.8553 0.269771 1.63164 -0.528667 0.56057 -1.01287
2433 17.5999 1.45206 2.36528 -2.66719 1.01513 -1.1608
3361 17.6743 0.195326 2.14606 0.88482 -2.10302 0.375831
349 16.551 0.921594 2.18608 0.0376394 0.25042 0.943216
3785 0.567664 2.02459 1.97544 -1.45641 0.0213386 1.50705
2532 1.55254 2.28274 2.64655 1.1116 2.59109 -0.125304
1172 2.8255 2.9587 2.58345 -0.818396 0.459497 1.56235
1547 2.68349 1.99425 2.7791 -0.441202 -0.119736 -1.55738
3967 3.14208 2.19601 1.5728 -2.29623 1.18237 -1.89456
2495 4.37623 1.91408 1.71186 -1.28168 -0.396296 -1.45812
2028 3.71025 2.43153 2.64336 1.17197 1.92274 -2.3093
3330 5.49302 2.2754 1.64278 -1.91924 0.252429 0.788137
2837 4.95324 2.4443 2.69337 -1.05347 0.816518 -0.911492
2155 7.25925 1.75437 2.09204 -0.152051 -1.0644 -0.941004
464 6.56317 2.94259 1.7783 -0.110607 0.156043 -1.36592
2629 6.20845 2.50006 2.67558 0.186363 -0.328598 -0.556731
564 8.19674 1.86821 1.82632 -0.419755 0.833935 -0.377053
774 7.90961 2.70142 2.64333 0.658495 2.14099 1.00812
1394 9.35585 2.2067 2.28335 1.15566 0.525463 -0.927115
400 10.2055 1.52344 1.72921 -1.23051 0.140518 1.18333
3882 10.0367 2.93409 1.73709 0.888314 -0.224607 1.2409
1376 10.3994 2.25151 2.64452 0.328905 -1.61186 -0.501405
1289 11.3222 2.7243 1.70275 0.329239 0.693875 0.0198118
2331 11.957 2.46009 2.52606 0.731567 1.38272 -0.721889
3638 12.1596 1.78152 1.73571 -0.610167 0.220354 0.739978
273 12.9046 2.7351 1.98448 1.26808 0.425456 -0.478871
3086 13.4057 1.58797 2.25985 1.53909 0.876031 0.840933
847 13.8692 2.64727 2.55005 -1.0571 -1.10528 0.451712
91 14.8651 2.37298 2.40977 -0.119746 0.350241 -0.546005
354 15.5785 2.72688 1.64627 0.508696 2.11614 -0.366247
72 16.2069 2.12269 2.45684 -0.120749 0.0991734 -0.493933
2080 17.1935 2.6057 2.45122 -0.0902023 0.0859122 -0.455044
1014 1.08264 4.03093 1.77373 0.289824 1.35932 -1.39159
1452 0.509649 3.39959 2.4839 1.57642 -0.563802 -0.452948
1310 2.16221 3.59406 1.86064 1.76083 0.561725 0.07495
2803 4.37022 3.35905 2.33917 -0.268693 0.531735 -1.51555
595 3.43046 3.78156 2.64726 0.435697 -1.52802 -0.97647
3363 5.39541 3.28754 2.02604 0.25245 0.391519 -1.00365
232 4.71267 4.336 1.82012 -0.502981 0.756848 1.02168
361 6.48234 3.61082 2.81525 -0.914045 -1.10637 0.0559025
957 6.28853 3.92305 1.67199 -0.271512 1.71297 0.883615
1343 8.38846 3.68168 1.91045 1.66953 0.344053 0.62824
1666 8.88809 4.42059 2.89111 1.01324 -0.0418386 -0.739908
3402 7.49217 4.14669 1.58537 0.314086 -0.180937 -1.33183
3025 7.80446 3.81367 2.72281 0.367817 -2.17724 0.835415
3820 9.91217 3.42428 2.64522 0.233528 -1.32465 0.643523
3975 9.53256 4.25462 1.97173 0.000308369 -0.399147 -0.947906
1303 10.9063 3.76774 1.81744 0.302117 -1.45691 0.208865
1388 12.3841 3.78385 1.77426 -1.47978 -1.55666 -0.41021
1731 12.5933 3.19178 2.93958 -0.79222 0.732507 -0.964014
2833 12.3805 4.19873 2.65228 -0.20264 0.419398 1.38437
1211 14.6381 3.49679 2.42092 0.212124 -0.623385 0.142565
748 13.4978 3.78366 2.30815 -0.34891 2.48516 2.15651
1170 15.6013 3.77091 2.90285 -0.624041 1.08534 -0.583011
3721 17.8741 3.62039 1.53389 -0.453723 0.30467 -1.43457
181 17.4948 4.40243 1.92626 -1.21825 0.112145 1.25889
741 16.7338 3.09307 1.53856 -0.481096 -1.33131 -0.322407
3589 16.6958 4.3823 2.70333 -0.730968 -0.554377 0.714326
2345 16.4149 3.30392 2.48537 -2.13019 -1.27814 -0.896597
3398 0.589546 5.05232 1.74822 0.609713 1.09783 0.671388
423 0.506337 5.65302 2.53272 0.247296 0.174281 -1.06417
1093 2.97045 4.87414 2.23548 0.466236 -0.241691 -0.715636
3637 1.51337 5.49716 2.46581 -0.199261 1.62177 0.586499
3656 5.8891 5.45892 1.82035 -0.788482 -0.131455 -1.11802
3908 5.58137 4.59792 2.60787 -2.27655 -0.193176 0.301542
3606 4.72809 5.75936 2.40091 -0.509872 -0.392955 -0.44798
3092 6.69348 4.56386 2.48453 -1.23545 0.363277 -0.459276
1786 6.43914 5.62601 2.92187 -0.869382 -0.138291 -0.444993
3041 7.55766 5.29409 1.56063 0.733829 -0.285812 2.21887
2403 8.22585 4.68455 2.08234 -0.311225 1.23879 0.994894
3857 10.1337 4.60611 2.90854 -0.821961 0.623515 -0.661512
1417 9.8184 5.74339 1.68502 1.61299 1.48663 -0.831038
2014 10.369 4.76768 1.9354 -0.245596 -0.0920335 -0.0395134
1124 9.53089 5.46232 2.61634 -0.276414 0.0843363 0.478708
2841 11.5313 4.66419 1.62765 -2.42835 -0.756651 0.892045
3502 11.3263 4.49177 2.81064 0.76233 -1.31786 -0.371029
2205 11.3027 5.77763 1.55366 0.537997 -0.7724 1.94613
441 10.739 5.56638 2.78557 -1.77945 0.00189096 -1.12749
2142 13.2084 5.68661 2.25605 -0.0616542 0.644164 -0.404811
1451 11.9638 5.48177 2.44471 -0.641503 0.191382 -1.76481
1392 13.8269 4.74131 1.82224 1.04431 -0.69509 -1.0489
1640 14.6781 5.23514 2.38138 1.10543 0.410305 -1.77294
1953 13.7534 4.84747 2.90048 -0.134497 1.05066 -1.87012
2542 16.1306 5.56266 2.18194 -1.16934 -0.0569886 0.191925
3752 15.12 5.92486 1.70117 0.0873043 0.256825 -0.724994
667 17.1836 5.35107 2.39231 -1.54051 -0.522506 0.166476
823 0.640668 7.10312 2.15778 -1.77486 -1.52507 -1.93004
1907 1.41387 6.50647 2.26138 0.790172 -0.735617 -0.197459
1903 2.63214 6.29134 2.28552 -0.516932 0.12763 2.92825
2596 2.23695 7.37747 2.23092 -0.328854 0.225223 -0.801215
130 4.29929 6.99678 2.70054 -0.760586 0.253645 0.0991602
429 3.72592 6.11149 2.58473 -1.13086 1.24148 2.35379
2747 5.13631 6.47255 1.91004 0.632683 0.247207 -0.377782
1270 5.79121 6.70079 2.72108 -0.132837 -0.178606 0.88756
3851 8.73974 6.29435 2.376 -0.0492304 -1.93017 -1.0657
3702 7.87944 6.65101 1.52995 -0.738074 0.688619 -0.462746
3835 7.51363 6.09185 2.60673 1.02208 -0.292694 -0.023891
2890 9.64179 7.17276 2.38297 1.7949 -0.296502 -1.18979
856 11.37 6.86083 1.7864 -0.777201 -0.204113 -0.203249
768 10.5408 6.51923 2.191 1.0506 0.621712 1.96198
3580 12.2756 6.53975 1.65317 0.961866 0.503679 -0.708269
2054 12.8451 6.76501 2.51705 0.315831 -0.0558315 -1.20485
3118 14.0782 6.00324 1.80351 2.25406 0.649115 -0.893208
222 13.9202 7.19739 1.65102 -0.0661612 -2.33102 0.715299
2881 13.936 6.8161 2.68219 0.259434 0.329682 0.986429
3107 14.8523 6.83494 2.19433 -0.290987 2.29439 -2.0453
3545 15.4127 5.9886 2.80334 -0.124376 0.815349 -0.570363
2756 15.917 6.72731 1.91593 -0.650313 0.746724 0.0838529
3431 17.1395 7.16014 1.97807 1.47952 0.44161 -0.958537
262 17.6558 6.54959 2.75483 0.693636 -0.261171 -1.50649
135 16.9206 6.26766 1.66881 -0.861661 0.606654 -1.77182
2518 16.5644 6.3462 2.74113 0.883116 2.22735 -0.354316
3560 1.3185 7.60576 1.53873 1.17242 0.697026 -0.632402
2502 0.83237 8.3891 2.51131 1.07509 -1.35226 -1.01722
2572 0.148124 7.92771 1.63724 0.761746 -0.260087 -0.0583178
3613 1.82822 8.7165 1.73937 -1.75049 -0.237288 0.264414
763 3.02928 8.32836 2.35461 -0.496317 -0.283911 1.16496
3048 4.17976 8.45119 2.19734 0.0280509 0.946699 0.0281522
702 3.53141 7.96787 1.57303 0.0330468 -1.33036 -0.0103653
2446 5.59082 8.67598 2.47076 -1.07028 0.185425 -0.713687
3917 5.36232 7.60024 2.31486 -1.60512 1.0737 0.234906
53 6.58186 8.80677 2.57214 0.120508 -2.24082 -0.455564
1711 6.63385 8.03881 1.80301 -0.169516 -0.316305 2.13292
2866 8.6796 8.05276 2.90598 2.64148 0.866983 0.308281
3137 7.73741 8.44112 1.59572 1.40068 0.0583543 -0.20713
2336 8.86752 8.76435 1.89169 -1.27313 -1.68557 0.810818
2291 7.53651 7.58998 1.94499 -1.70295 1.0692 -1.33136
2068 8.70005 7.63258 1.98911 0.132726 0.296618 -0.492754
428 9.6561 8.19942 2.43156 1.12605 0.869837 -0.330572
1276 10.2001 7.67091 1.52585 0.147005 -1.74897 -0.040953
286 11.3206 8.03532 1.82689 -0.358967 0.35819 -0.261215
2453 10.6513 7.98568 2.9257 -1.78584 -1.13697 0.387769
879 11.6734 7.48175 2.63463 1.08669 0.299706 -0.531586
150 10.7785 8.86624 1.86657 -0.811768 1.42911 -0.268782
95 12.2639 7.65794 1.55955 1.281 0.610562 -0.527171
718 13.3982 8.82155 2.69809 -2.22285 -0.289765 -0.529853
1166 13.2281 7.66209 2.34031 -0.374743 0.216456 -2.14607
3582 12.9093 8.5909 1.72778 -1.0621 0.241523 -0.16808
3147 14.5424 8.0567 2.45635 0.192617 0.178894 0.298525
1409 15.9677 7.89052 2.15009 0.812833 -1.51417 -1.02046
2236 15.4222 8.86762 2.60827 -1.79048 0.12673 0.284265
277 17.8282 7.78091 2.80339 0.189257 -0.525039 1.22912
2859 17.1476 8.26227 2.14464 -2.33648 0.38633 0.862471
3992 0.742217 1.48866 3.75851 -1.30758 0.147444 -2.46489
3469 0.337535 0.328421 3.21625 2.06246 1.03209 -1.01489
180 2.12123 0.830485 4.32243 -0.529162 1.33642 1.19198
1060 1.83912 1.41532 3.28624 -0.464047 0.657607 0.944211
475 3.04209 1.08421 3.34753 -1.25826 0.929114 -0.591518
994 4.52515 0.410252 3.61405 -1.28158 -0.510793 -0.566321
567 5.46662 0.7768 3.79057 1.00887 1.13982 -1.37754
2180 6.49597 1.09986 4.06979 0.677702 -0.429821 0.439608
256 8.0667 0.489662 3.02874 1.9393 1.97515 0.456279
182 8.59235 1.40304 3.04256 0.378453 0.129 0.479491
2764 7.69116 0.906464 3.94488 1.28923 -1.64904 0.892985
1492 8.96403 0.81027 3.99602 -0.989641 3.08292 0.0785227
2665 9.78443 0.943431 3.23903 1.02192 -0.387198 1.2383
1756 11.0168 1.27679 3.15535 -0.253294 -0.132422 -0.142032
1604 11.8247 0.799296 3.36075 -0.146292 -2.34128 0.69214
405 13.2635 0.78156 3.06455 -1.4021 0.946192 -0.0706509
2653 12.7712 1.4197 3.86564 -0.32143 -0.466603 -0.662425
2285 12.636 0.398364 4.00286 0.442056 0.52981 0.336914
2469 14.0716 1.09134 3.66949 0.113208 0.63951 0.11242
3827 13.8009 0.1565 3.91194 -0.552545 -0.675548 -0.17193
585 15.5038 0.822161 3.66004 1.36455 0.00376751 -2.32246
1931 17.2088 0.299969 3.14704 1.27418 -0.972645 -0.647918
2953 17.6335 0.773 4.44205 0.731484 -0.598368 0.993046
1007 16.3996 1.31065 3.25473 -0.820676 1.66753 -0.428909
709 16.8858 1.4391 4.28728 1.07704 -2.56644 -0.215844
3549 17.6794 1.13109 3.43163 0.134901 0.495023 -0.798866
1803 16.5358 0.593905 3.90759 0.641856 -0.359536 0.0191128
3269 0.175071 2.75636 4.43218 0.149833 0.506051 1.79676
2576 0.222518 2.0724 3.13324 -0.090302 0.811456 -0.441889
443 2.47706 1.82695 4.25882 0.333064 -0.502499 0.173502
2452 1.54351 2.41837 4.1308 0.890663 -0.478109 -0.880637
331 4.39973 1.49093 3.9144 0.351382 -0.642834 -2.37719
1213 3.46532 2.04658 3.61721 0.719538 -0.389884 0.342869
2393 4.3069 2.83339 3.50824 -0.492341 -1.49655 -0.613068
28 5.51713 1.88342 3.7036 0.626795 -0.346512 0.365335
2238 7.01866 2.94932 4.12537 0.925744 -1.38169 -0.054291
2384 6.72061 1.84352 3.397 -0.152152 0.561996 1.78554
3724 7.97103 2.88427 3.68745 -0.287072 -0.0599206 -1.1492
2712 8.51434 1.92099 4.09056 -0.231447 1.44261 1.14186
3569 9.56738 2.19815 3.42669 0.23329 0.135931 1.59739
3130 9.06494 2.77697 4.36541 0.274813 1.16824 1.81716
554 11.2047 1.56622 4.20215 -1.09898 -0.909541 -0.207266
859 10.819 2.41542 3.67113 -0.366759 0.728415 -1.1839
2956 13.1923 2.11029 3.25326 1.80065 0.502543 0.410701
790 13.1564 2.31978 4.26056 0.726674 0.397194 -0.145792
3443 14.2618 2.04002 3.30275 0.412199 1.18716 -0.204646
1555 14.0376 2.71341 4.07047 -0.919647 -0.134149 0.152168
1650 14.7532 1.96012 4.3577 -0.543521 -1.0167 0.720956
773 15.3183 2.96529 4.1965 -0.310458 -1.26542 0.640699
1096 16.1096 2.36558 3.50175 0.55041 -0.633647 -1.91619
1539 15.4071 1.72577 3.13446 -2.14128 -1.06849 -0.30453
682 15.9137 1.55169 4.29284 -0.102797 -1.18587 -1.20343
3547 17.1749 2.19691 3.58347 -0.162726 0.0132213 1.24798
1922 16.739 2.54342 4.42087 0.875567 0.765695 -0.41708
3720 1.16364 3.03409 3.36575 -1.00569 0.951387 -0.364942
635 0.861908 3.96847 3.47861 0.572265 -0.0788108 0.375916
436 2.36837 3.15684 3.83117 1.4234 -0.779037 0.695648
2510 2.05484 4.25458 4.22869 1.08296 1.49986 1.19972
600 2.25355 3.87881 2.9977 -3.06324 -0.277956 -0.267122
529 3.22442 3.16052 4.3126 -0.783832 0.854783 -0.28352
3160 3.27696 4.31943 4.20097 -1.15272 0.180014 -1.65172
2138 4.16164 3.76078 3.92341 0.469376 0.460231 -1.00827
3173 5.6533 3.17263 3.1639 -0.917003 0.753023 -0.0575762
1373 5.20265 3.17716 4.23951 -0.545171 -0.478707 -1.29399
3561 5.24087 4.11876 3.73812 0.73073 -0.0883397 1.25769
1290 6.98799 4.2034 4.13777 0.805588 0.883288 1.34562
810 8.87556 3.46945 3.15249 -0.993979 -0.725399 0.774148
166 10.1966 3.43497 3.74025 0.279379 0.160734 0.77774
296 9.24537 4.10828 3.91205 0.781889 -0.141512 0.580526
2488 10.2272 4.38961 4.06199 0.800827 0.663825 -0.327085
2541 10.974 3.42549 2.98927 0.0390226 1.2915 -1.0529
2793 11.1449 4.01562 4.38922 -0.676988 1.16999 -0.247054
1237 12.167 3.92614 3.63483 0.556373 -0.72134 -0.313609
2784 12.9878 3.92546 4.31109 0.546159 2.04605 1.60676
928 13.5411 3.9555 3.38158 1.95811 1.21992 2.37617
2201 14.5272 4.31946 3.34059 0.188446 -0.334631 1.58807
586 14.1323 3.71715 4.22611 -0.0479399 -0.0890743 -0.21091
608 14.7492 3.17394 3.38279 -0.156286 -1.59929 0.703995
1082 16.3047 3.42989 3.71256 -1.27589 0.31653 0.0338203
1025 15.8737 4.41636 4.07126 -0.845501 1.53298 -2.12777
1967 17.6002 3.06404 3.28353 -0.798965 0.794784 0.586791
153 17.7776 3.87233 4.06574 -0.417174 -0.55053 0.333735
2563 0.327164 4.78157 3.08565 0.236236 -0.146423 -0.981931
697 1.00286 4.95501 3.91394 0.142023 1.20636 0.879574
437 2.30561 5.44097 3.1087 1.1407 1.47253 -0.779639
3213 2.53301 5.2955 4.38428 -0.375984 0.696687 1.482
681 1.6991 5.88463 4.08362 0.0716909 1.06492 -0.65471
3009 4.03551 5.8142 3.65851 -0.254933 -0.647135 -1.19042
454 4.4004 4.64114 3.08665 0.0458319 -0.0357567 -0.302948
86 3.2515 4.91065 3.23016 -1.80687 -0.449835 0.397136
2648 5.9457 5.76032 4.14916 -1.00344 -1.65752 0.175402
1762 5.09925 5.29945 3.68061 0.0341442 -0.953826 0.571274
1362 4.50921 4.73546 4.36644 1.20011 -1.40284 0.487471
98 6.05501 4.89638 3.51025 0.107253 0.469195 -1.26019
2272 7.53474 4.86914 3.42047 0.55405 -1.22619 0.468225
3371 8.54437 5.46853 2.99562 1.55161 -0.198916 0.330845
3145 9.37685 5.27237 3.78214 -1.37876 0.401458 -0.247457
3120 11.1947 5.05227 3.78914 1.99686 0.49677 -0.11647
3234 12.4644 4.91813 3.4204 0.392561 1.15709 -0.578841
3498 12.7324 5.91441 3.35832 0.669031 -2.00159 -1.14499
2009 13.7526 5.82196 3.17359 1.40047 -1.00384 3.19134
3001 14.3814 5.81727 4.43107 -0.0134357 0.525881 0.14665
742 13.5595 5.34279 4.06266 -0.326514 0.196282 -0.0681961
677 14.7889 5.41761 3.56297 -0.218194 -1.23224 0.458965
2473 16.1038 5.49858 3.93884 0.568039 0.885257 -0.704019
321 15.5781 4.98813 3.00264 0.285044 -0.882086 0.0811718
1659 16.9764 4.5417 3.69374 1.08408 -0.386866 -1.18274
2928 17.208 5.85145 3.55584 1.25093 0.494703 -0.165375
377 17.764 5.05052 4.29792 -0.240271 -0.390304 1.96456
2078 0.990453 7.37576 3.09159 -1.80281 -0.921813 0.678179
528 0.901936 6.67792 3.99128 -2.34146 -0.181135 1.2651
1244 1.87449 6.58742 3.20877 0.49013 0.597041 -3.12461
295 2.99503 6.08099 3.45783 -0.616283 -0.0267166 0.162035
671 3.80323 6.85523 3.6845 -2.05534 0.490391 0.156141
1647 4.84664 6.43434 3.46575 2.38209 0.552658 0.117017
1974 5.66388 7.0999 3.8829 -0.967992 -2.12177 -0.583515
1259 7.2483 6.04819 3.65539 -0.249936 -0.155404 -1.5411
1440 6.81942 7.22777 4.01876 -0.238428 -0.146105 -0.184712
771 8.0539 7.39373 3.35941 0.0598489 0.431207 0.344502
2910 8.75828 7.17033 4.26914 -0.898296 -1.31066 -0.842526
2435 8.27986 6.3478 3.67341 -0.407964 -0.108223 -1.02655
1957 9.13885 6.84939 3.29754 0.13587 1.45719 -0.27091
789 9.84811 6.67 4.06689 -0.567305 -0.730362 -0.597694
1251 10.1327 6.41423 3.16518 0.305325 -0.566443 0.808708
442 11.3942 6.42388 3.15653 1.31597 -1.03146 0.740326
2801 11.1634 7.31192 3.65663 -2.23923 0.897035 1.19315
3192 11.6639 6.00022 4.03661 0.675256 0.537754 1.20775
385 12.2605 6.82224 3.44311 0.410152 0.779649 -0.687179
320 13.3269 6.44501 4.43611 1.42517 2.20988 -0.467259
1279 13.5659 7.02198 3.63442 0.748641 0.320961 0.61973
1798 14.606 6.59117 3.62326 1.08229 -1.32176 -2.38666
1340 15.5153 6.24278 4.34859 1.60298 -0.325866 -0.305753
1062 15.5977 6.88536 3.37467 0.27492 0.203139 -0.726674
2489 15.215 7.33063 4.17545 0.214679 0.878206 1.24177
1368 16.7271 7.40617 2.99219 -0.248712 -0.363227 -0.636827
1457 16.506 6.61259 3.97358 -0.260354 -0.025655 -0.415751
271 17.5817 7.1599 3.66771 -1.96643 -1.30406 0.609267
2813 0.254005 7.86086 4.23252 0.189792 1.33196 0.509663
2889 1.50823 8.87706 4.31396 0.561226 -0.733463 -1.21004
3648 1.90858 8.37543 3.30312 0.80943 -0.767212 1.23783
229 2.63122 7.4604 3.32062 -0.623489 -0.315542 -0.271712
2313 1.69526 7.46248 3.89544 -1.10593 0.552059 -0.0323277
1319 2.40925 8.20655 4.24069 1.53786 -0.635516 0.614577
2613 4.42738 8.81279 3.1973 0.352202 -1.21936 -1.00117
1364 3.2124 7.49341 4.2696 -1.28508 0.549849 -0.546518
3653 3.11221 8.55746 3.55135 0.963311 -0.345618 0.155038
724 3.7793 7.87086 3.10514 -1.09409 -0.172963 1.45259
307 4.76459 7.51797 3.54358 1.15026 -0.999996 0.265392
2483 5.50335 8.40375 3.48685 -1.8872 1.54423 -1.55808
2441 4.55221 8.90169 4.15023 0.540612 -0.223245 1.1721
3984 6.33815 7.62974 3.06094 -0.94012 1.17245 -0.287978
1544 7.24035 8.76509 4.11282 -1.46495 -0.300251 0.88869
3064 8.15734 8.86781 3.47307 0.693846 -0.806194 -0.982526
781 7.46604 8.27969 3.05307 0.582041 -0.201167 0.665731
689 8.38618 8.11699 4.14639 -1.31432 -0.417431 -0.786355
2186 9.42768 7.77178 3.57731 -0.295976 -0.782238 -0.961013
1381 10.7334 8.84526 3.50772 1.18014 0.318673 0.991744
1463 12.7287 8.57574 3.77884 -0.256794 -1.52921 -0.63841
3852 12.0073 7.88827 4.25354 0.288988 -0.44927 -0.0377884
3109 13.7873 8.02115 3.49396 -0.039967 -1.26313 0.457594
2983 14.847 7.81143 3.42966 0.741008 -0.393002 0.163989
1122 15.965 8.00948 3.48246 -1.53737 -1.45433 -0.0747683
2084 16.3317 8.48491 4.44982 0.579874 1.45336 1.45881
1638 0.627328 1.04712 4.83011 0.927416 -0.569321 -0.144933
473 1.0593 0.978666 5.88051 -1.95561 2.38561 -0.498017
3955 2.25772 0.770869 5.43858 0.611685 -0.24922 -1.06287
1636 2.89875 1.48168 5.21058 0.0654724 -1.72292 -0.655025
2600 3.59728 0.734767 5.59764 1.07026 1.08203 0.901592
2838 3.55262 0.783542 4.55365 1.04284 -0.910306 -1.77586
3860 4.83779 0.826324 4.76791 0.134461 0.825388 -0.248257
2326 5.80462 1.33697 4.89047 -1.13477 -1.10279 -1.2023
408 5.10264 0.607348 5.72987 -0.0548723 -1.02632 2.47162
3289 7.20431 0.375978 4.59753 -1.73605 0.262918 0.514252
1470 6.27233 1.23762 5.82351 -2.12796 0.688042 -0.253634
448 6.22384 0.34197 5.03092 1.48926 1.50078 -0.758285
322 7.1936 1.10516 5.50606 0.290984 0.131071 0.76359
2782 8.11233 0.671716 5.06656 -0.557429 1.03668 0.273926
447 9.01978 1.08122 4.92594 0.156417 1.12646 0.310294
27 10.222 1.01806 4.78711 0.161134 1.35967 -0.168305
3861 9.6729 1.23856 5.93485 0.843898 0.649623 2.36686
1150 9.70019 0.206146 5.33586 -0.827176 -0.339882 0.0905515
2750 10.8426 1.02017 5.7181 0.202955 0.106776 1.56385
931 12.9527 1.03555 5.08222 0.384026 -0.956141 0.576989
364 12.043 0.894693 4.71771 -1.54524 1.40248 -1.19578
2657 14.4661 1.33444 5.72453 0.73691 -0.144302 -1.45479
3089 14.8496 0.691447 4.47592 -1.31959 0.564341 -0.680478
3480 14.1595 0.165623 5.1761 -0.570072 0.889621 0.865248
1188 15.3463 1.45044 5.0237 0.289736 -0.66744 -1.25222
3151 15.782 0.448287 5.00366 -0.286123 0.291778 0.0488701
504 16.5368 0.365252 5.75041 0.0654062 1.16063 -0.378293