ITEM: TIMESTEP
75000
ITEM: NUMBER OF ATOMS
4000
ITEM: BOX BOUNDS pp pp pp
0.0000000000000000e+00 1.7878070701931353e+01
0.0000000000000000e+00 1.7878070701931353e+01
0.0000000000000000e+00 1.7878070701931353e+01
ITEM: ATOMS id x y z vx vy vz
2199 0.867141 1.34176 0.468107 -0.263283 0.0303936 -1.06094
1051 0.0530738 0.936612 1.30888 0.198224 -0.663547 1.05677
2850 1.13912 0.460428 1.26272 0.444911 0.10632 -0.697686
714 0.350728 0.384329 0.519039 -2.8512 0.718077 -0.404314
2065 1.75818 1.34326 1.39798 0.0640154 -0.288792 0.846955
3610 2.50155 0.548832 0.985908 0.393519 -0.291821 -1.27885
1501 1.74831 0.641254 0.0358274 -0.709435 0.857503 0.709661
2367 3.6474 0.466381 1.4272 -0.0921432 -1.68457 -2.20171
846 4.09939 0.187541 0.169607 0.931904 0.0683111 -0.297381
3130 4.46243 0.963445 0.846732 1.30447 -0.549302 1.58184
2607 5.55918 0.832782 0.731841 -0.411992 -0.488382 -1.15472
1536 6.45333 0.208061 0.350529 0.751164 0.363495 0.299855
1666 7.07274 0.767174 1.04624 1.14459 0.37775 0.508352
1234 8.06859 0.948746 1.43424 0.741084 1.01877 -0.102809
1974 7.87651 1.40937 0.452315 -1.74118 -0.334274 0.333481
3929 8.23764 0.444454 0.430817 -0.326767 0.326982 1.55663
2793 9.76877 0.680386 0.846406 0.616001 1.10697 0.0582122
2927 11.0028 0.376771 0.910525 -0.501962 0.0222533 0.224739
1487 12.007 1.21434 1.00207 -0.958082 0.775652 1.52128
2869 13.1067 0.742014 1.0767 0.12973 0.691822 -2.31778
2189 12.207 0.122085 1.2877 -0.454716 1.19373 -0.982378
177 12.599 0.953055 0.018528 1.42658 1.41534 1.01334
3887 13.8807 0.0601528 1.3896 -0.862071 -0.928875 0.422274
2473 13.8777 1.27623 0.46943 1.4031 -2.37481 0.36163
3603 14.7149 0.659253 0.702376 1.26573 1.74434 -1.15284
2585 15.6 1.02507 1.18037 -0.512042 -0.144632 -0.805489
2407 15.8115 0.69248 0.288512 0.491326 1.71759 -0.200158
3785 16.8287 1.00277 0.691148 -1.28063 -0.436062 -0.388372
2635 0.240975 2.36946 0.567529 -1.09184 -1.32495 -0.743917
555 0.889836 2.68046 1.41981 -0.387831 -2.14866 -1.7055
1096 0.920405 2.94646 0.141465 1.80127 0.944287 0.851187
2154 1.89305 2.53935 0.810648 0.643906 0.908215 0.0714889
3854 2.29736 1.55708 0.442313 -1.73675 -0.0387742 1.62626
1377 2.9979 2.05115 1.12861 1.36687 -0.270609 1.03607
1220 3.66939 2.85265 0.146191 -1.26669 1.16323 0.180005
2976 4.12804 2.05423 0.800825 0.911067 1.94383 -0.240981
1694 5.2149 1.90098 0.0653327 0.0522158 -0.374262 -1.22999
2027 5.04672 2.65149 0.871611 -0.192016 0.618992 0.791188
256 7.30646 1.78738 1.18302 0.171949 1.39314 -0.502804
2849 6.25308 2.01825 0.743731 1.16326 0.110906 -0.884864
1237 8.3588 2.67427 1.24182 1.30181 0.273636 -0.110419
309 7.49049 2.89999 0.637008 0.474349 0.268936 0.137597
1814 8.33662 2.39021 0.284093 -0.388016 0.228758 -0.0636178
2061 8.97221 1.53698 0.79333 -0.134664 -0.528483 -1.53595
3477 9.3326 2.53596 0.943094 0.0416899 -2.23628 0.491392
3264 10.67 2.68919 0.501892 -1.55351 -0.629088 0.540033
1835 10.4437 1.56566 0.816384 1.65487 1.77186 -0.0884647
381 11.8499 2.60644 0.577326 0.097834 -1.90836 -0.561262
3343 12.7003 1.98138 0.420376 -0.933757 0.278486 0.946477
871 14.746 1.68706 0.833279 1.1066 -1.12468 -1.82002
2201 13.7689 2.32858 0.382553 -0.483964 -0.121069 -1.06911
2800 13.4179 1.67577 1.22846 -0.420563 0.678082 0.96333
3081 15.2345 2.66119 1.25209 -0.607338 -1.21742 -0.255998
2304 16.3161 2.83342 1.39838 0.257887 -0.567135 -1.63081
2522 15.6783 1.83222 0.423506 0.441561 0.123792 0.751858
1605 16.7858 2.09973 0.555386 -0.893303 -0.0939678 -0.635546
819 17.5489 1.92754 1.39006 -0.995164 -0.495466 -0.466225
608 1.35657 3.61111 0.838001 2.81601 0.986666 -1.11618
273 0.434593 4.44582 0.054814 0.174627 0.511831 1.21286
3809 2.36027 3.24505 1.31919 -0.476166 -0.191695 -0.607357
3641 2.92995 4.30519 1.2592 -1.2128 -0.902887 -0.440091
893 2.7916 3.18613 0.461956 -0.321066 0.479074 1.89682
3557 3.97204 3.72406 0.688922 -0.778991 0.497132 0.122058
3975 5.00638 3.67147 0.653118 -1.46478 0.621436 0.441505
884 5.94644 4.21766 0.365356 -0.103519 -1.36273 2.73317
10 5.98988 3.12822 0.656108 0.486421 -1.07593 -0.722243
1541 6.8785 3.68697 0.82029 0.817861 0.349569 0.951788
2331 8.47449 3.6123 0.823045 0.947768 0.0723596 -2.146
2157 9.82111 3.31531 0.534416 0.495851 -2.28467 -1.10413
544 11.1468 3.83935 0.18604 1.48292 1.59066 -0.226111
2910 11.6377 4.23526 1.14483 2.01169 -1.05614 -0.727381
623 13.2625 3.8923 1.25211 -0.164941 -0.751019 -1.32475
844 12.1701 4.43057 0.0834938 0.23424 -1.50014 0.275925
2979 13.2568 3.24932 0.271211 1.08818 0.378092 -0.108578
690 13.9686 4.0599 0.221097 1.47978 1.28431 -0.217415
2396 14.3643 3.23513 1.06001 -0.770235 -0.696479 1.12318
1135 14.1236 4.44855 1.36383 -0.666901 -1.43199 0.985254
2784 16.191 3.32627 0.363243 0.207934 1.46087 -0.793394
1861 15.2429 3.70263 0.6456 -0.667953 -2.09098 0.478112
2598 16.1998 3.89607 1.13926 -0.0245475 -0.368634 0.18478
198 16.0307 4.41911 0.206169 -0.173872 0.414245 -0.00594348
15 17.1404 3.94097 0.480144 0.10955 -0.215243 -1.64268
2032 17.2826 3.01809 0.970561 0.542721 0.944357 -0.312659
1298 0.0749611 4.67427 1.16585 -1.25595 -0.452961 -0.905066
1894 0.930168 5.1176 0.73336 -0.214165 -0.305379 -0.392499
1947 1.81708 4.58798 0.516653 -0.558925 0.136347 0.723309
2962 2.15309 5.61189 0.717679 -0.249619 0.560577 0.524547
2775 4.03228 4.8512 1.29453 -0.821739 -0.145623 0.107131
342 3.12098 5.57906 0.448296 0.585383 -0.353286 -0.00260039
1681 4.37483 5.56681 0.335891 1.1128 0.747394 1.22577
1926 3.47715 4.498 0.382111 -1.01442 -0.778209 -0.617494
476 5.55323 5.40746 0.320043 -1.76376 -0.391684 -0.640727
3260 5.00814 5.28503 1.28617 -1.04985 0.631067 0.685754
351 4.74634 4.60132 0.377399 0.652577 1.30432 -0.745702
1972 6.74043 5.36839 0.323151 2.50113 -1.06579 -1.9755
2713 6.32549 5.82916 1.46719 -0.0506585 -1.21883 0.297529
2747 8.83535 4.66083 1.09054 0.50922 0.397559 0.91182
2183 8.15317 4.50042 0.114503 1.25641 -0.846131 -1.07435
2008 9.6217 5.21202 0.289494 -0.195336 0.453825 0.332561
385 10.6929 4.72029 1.0039 0.849492 0.0619266 0.442089
808 10.897 5.81595 0.77665 0.505299 0.121681 0.535715
1827 13.1328 5.513 0.152653 -1.43428 0.308334 -0.653947
930 11.9922 5.53751 1.01162 1.5614 0.336436 -1.44437
3838 13.0362 4.87662 0.979568 1.10656 -0.711276 0.726623
3976 14.8799 4.70841 0.48652 -0.392216 0.922564 -0.977779
1840 14.1076 5.48643 0.569095 -0.688773 1.71677 -0.30224
153 15.7484 5.36598 1.01388 -1.19532 1.32663 -1.08478
3224 16.793 5.35767 0.860241 1.17623 0.429202 -0.205883
3587 17.7995 5.54206 0.35408 -0.50126 -0.978058 -2.77244
3278 0.810714 6.31315 0.89843 0.876364 -0.0787509 0.991083
2602 1.15578 7.0194 0.0286511 -0.664957 1.18936 -0.663973
3118 0.127528 6.74141 0.178949 -0.235698 1.79052 0.554887
415 1.94682 7.26914 0.801884 0.498063 -0.699662 0.209095
528 3.89794 6.10982 1.24835 0.479751 -0.483135 -0.81387
2078 3.17716 7.36578 1.26919 0.243186 0.189007 0.651886
2892 3.35981 6.83537 0.241674 -0.0813457 0.74302 -0.0882621
2866 4.11766 7.15433 0.839027 -1.15624 0.547369 0.1058
3556 5.12705 7.21233 0.74379 0.0112041 -1.09484 -1.09488
3083 4.9644 6.24819 1.28503 1.01139 0.947226 -1.62222
3322 5.98756 6.59543 0.389445 -1.11904 -0.140282 0.0533902
3092 7.27473 6.71217 0.403284 0.30305 -0.581144 0.219808
3907 6.57433 7.19031 1.21149 0.0388922 0.176905 1.38504
2553 7.61446 6.97122 1.34114 -0.730396 1.4751 -1.87914
1388 10.0714 7.44344 0.45106 0.199862 1.49828 0.423697
693 9.29997 5.99933 1.22908 -0.243126 -1.16408 1.80085
442 9.41939 7.08147 1.46666 1.10564 1.0997 -2.12794
234 9.25898 6.4774 0.106524 0.161151 0.287072 -0.661607
3416 11.1728 6.96041 0.376348 -0.546245 -0.247169 2.18452
2786 10.6437 6.79952 1.23326 -0.42874 0.189614 -0.0599833
1170 11.9172 6.94036 1.18593 -0.507198 -1.06179 1.05853
2873 12.5147 6.41066 0.441428 -1.0785 -0.804012 1.07491
108 14.7807 5.9702 1.10735 -1.0099 -0.110313 -0.122203
192 14.7563 7.42839 0.0442287 -0.0777414 -0.85897 -1.56213
2038 14.3305 6.99289 1.04542 -0.787949 0.669638 -0.010293
318 13.4576 7.30266 0.000855353 -0.0268466 -0.411622 -0.888042
481 13.5103 6.49767 0.699851 -0.374267 0.724773 1.07714
1282 16.3504 6.4318 1.2045 -0.279555 0.0927256 -0.309836
3111 15.3476 6.71221 1.38643 -0.223004 -0.626094 1.42821
1771 15.1871 6.39768 0.0166387 2.05931 -0.652794 0.813006
635 15.6918 7.20634 0.55625 0.126548 0.901906 0.8691
1432 16.8324 6.16756 0.102256 0.201836 -0.176384 -2.21343
2669 16.936 7.22248 0.668525 0.935828 1.72244 0.0657167
1568 17.8617 6.92314 1.26403 1.06685 -1.36831 1.06955
1892 0.114798 8.08274 0.572179 0.0978228 2.20225 -0.0293994
978 1.15606 7.97673 1.08387 -0.358729 -0.470235 1.18816
2502 2.76908 7.84191 0.249655 0.164711 -0.778941 2.02631
1992 1.96011 8.67586 0.838744 -1.03938 -0.390869 0.270299
372 3.07626 8.59494 0.94977 1.08297 0.193382 -1.41852
276 4.00074 8.24186 0.63872 0.142534 0.577269 0.59266
2890 5.00654 8.22776 1.31514 1.35434 -1.19859 -0.424674
3304 5.28628 8.40985 0.229213 -3.23015 0.710953 2.11458
885 6.36877 8.08324 0.403986 0.810166 0.514331 1.18426
1597 6.17654 8.1157 1.3811 -2.13881 -0.644719 0.182513
3580 7.10772 8.88706 0.534359 -0.565464 0.938004 1.42436
2841 7.46027 7.81325 0.117205 -0.964421 1.06199 -1.1062
1197 8.19472 8.39686 0.58256 0.535384 1.30674 1.61744
2453 10.125 8.13331 1.25482 -0.907288 0.244698 -0.981257
2083 9.92948 8.55341 0.174181 0.501501 0.297893 -0.281443
1025 9.03324 7.51286 0.369258 -1.19491 1.81512 -0.160794
128 11.0224 8.12983 0.746435 1.30906 1.74544 -0.591638
1770 13.3682 8.35335 0.520959 -0.0565106 -1.62968 -0.317931
1659 12.7354 7.57528 0.792837 -0.629488 -0.544947 -0.68928
1122 12.1325 8.7084 0.580137 0.81792 0.38054 -1.58184
1308 12.8097 8.86222 1.42177 -0.0496242 -0.343892 1.33195
1198 14.3096 8.07665 0.848651 0.531199 0.410252 -0.180933
95 15.1391 7.64083 1.43772 1.32862 0.767204 -0.906853
3635 15.8109 8.56647 1.45785 0.0472928 -0.981428 0.729267
2752 15.6139 8.5487 0.397599 0.667448 -0.249744 -0.0425088
423 17.1388 7.8747 1.41521 -0.745719 0.0996607 0.792062
1616 16.7212 8.80509 0.858542 0.0333332 -0.18822 0.318007
1293 17.3963 8.72036 0.0138329 -0.0615795 -0.0472586 0.198356
2085 0.799739 1.47039 1.79249 0.593534 -0.186573 -0.760619
3625 0.529552 0.419676 2.46405 -0.0315688 0.548389 -1.17016
3967 1.55948 0.719448 2.44492 0.928143 -1.72607 -1.99007
1171 2.98029 1.13607 2.89211 0.316137 1.37867 0.63995
640 5.6771 1.26895 2.61401 0.200729 -0.0769619 -2.19595
1948 5.22339 1.46436 1.52431 -0.577137 0.339953 -1.5036
2996 5.75361 0.169126 2.33369 2.23685 -1.49016 -0.727705
3685 4.55671 0.743643 2.09317 -0.0687129 -0.793903 1.30258
1285 7.50179 0.500075 2.78309 -0.824408 -0.225413 -0.48008
205 9.95384 0.740788 2.78649 -1.09354 -0.914204 -1.16757
3033 10.2324 0.450155 1.76085 -0.35236 -0.635383 -0.560227
565 9.00084 0.413517 1.53613 0.99016 1.29044 1.47626
2523 9.80242 1.34779 1.75101 0.210485 1.12547 -0.46239
524 11.1481 1.15913 1.52407 0.223206 -0.317512 0.621871
3836 11.4363 0.360764 2.07813 0.237946 0.898605 0.227691
3089 11.6923 1.13696 2.67099 -0.445134 -0.636236 -0.382142
931 12.639 0.971236 1.93773 0.57833 0.283953 -0.295668
348 14.6001 1.20963 1.73808 1.12403 -0.747682 1.10444
1462 15.1582 0.272453 1.61775 0.0334186 1.25011 0.320654
1539 15.8779 1.01404 2.55953 1.28708 2.38541 0.870275
2708 17.1028 0.558952 1.82777 -1.85134 1.3188 0.23528
1014 2.24163 2.20889 2.04798 1.60104 -0.27665 1.65981
3129 1.5192 2.9275 2.38512 -0.52881 0.87225 -0.283904
3424 3.57221 2.6957 1.62336 -0.094889 0.318818 -0.708767
180 3.96136 2.60763 2.63466 -0.113037 -0.457236 0.115775
2176 3.9174 1.64284 1.84383 -1.61868 -1.00253 0.464986
642 5.16326 2.37199 2.23116 1.30856 -1.56914 -0.839038
2764 6.4686 2.55147 1.53714 1.66236 0.330373 1.38037
1823 7.338 2.92265 2.81295 0.782189 0.137208 -0.314273
3208 6.88427 1.99684 2.38361 -0.827072 0.364119 0.699881
3355 6.31482 2.92457 2.60915 -1.55514 -0.203841 -0.219563
898 7.82071 1.83086 2.08867 -1.40943 0.212926 0.400805
1196 10.0711 2.01381 2.70998 1.18007 0.101808 -0.165542
1241 9.17434 2.07844 1.90997 0.00789102 0.260916 -0.880497
2823 11.5223 2.18383 2.06379 -1.48168 1.11794 0.792281
1289 10.4457 2.30658 1.5523 1.34843 -0.591364 0.0547185
3851 11.2695 2.84875 2.93356 -0.893053 -0.696829 3.29344
1172 12.4129 2.14749 1.54361 -0.446282 0.585606 -0.261638
2505 13.2441 1.74607 2.36818 -0.413578 -0.208777 0.671085
3628 12.3882 2.90136 2.51705 0.321552 -1.02587 0.0336235
2730 13.3155 2.7428 1.79658 0.413446 0.57062 -0.776468
725 14.1996 2.2134 1.51262 0.390246 -0.223081 -0.85439
847 13.5445 2.70302 2.87325 -0.353214 -1.14378 1.44577
3749 14.3335 1.72224 2.88523 -0.422104 -0.425589 -1.01641
1650 15.9258 1.84983 1.71122 1.08053 1.46387 0.36679
2666 15.0107 2.31779 2.19246 1.66799 -0.463451 -1.2328
589 16.9253 1.83237 2.78016 0.52236 -0.0162367 -1.57463
1211 17.8146 2.23113 2.39187 0.00333403 -1.47613 -0.218173
2389 0.510083 3.20884 2.22205 0.823631 -0.654644 1.40921
116 0.363561 4.17505 2.19625 0.0176244 -2.23029 0.154394
1589 2.24281 3.86331 2.29394 -0.454151 1.74861 -0.419483
453 2.97663 3.03964 2.47115 0.445601 1.84159 1.25624
86 3.84839 3.83779 1.70136 -1.34331 -1.33822 0.119186
3740 3.78988 3.67467 2.94786 -0.30418 -1.78049 0.489196
3656 4.64776 3.4508 2.30282 2.23304 0.560378 -1.19237
140 4.93229 4.26191 1.50387 0.959625 0.635646 1.12228
445 5.36994 3.15882 1.69264 -1.22168 1.4653 0.455659
2629 5.49655 3.83233 2.8644 -0.978379 1.11822 0.619629
564 6.35944 3.80662 1.71168 -0.494374 -0.0606748 0.267919
2972 7.30936 3.25653 1.79223 -0.0739525 0.414611 -0.406445
395 6.72546 4.10084 2.85855 -0.22962 0.444572 -1.28008
43 8.451 3.14102 2.13495 -1.54615 0.478627 0.116581
1820 8.70838 4.32841 2.15496 -0.145248 0.215847 1.07698
2374 7.77201 3.85862 2.61423 0.186773 0.816171 0.0882598
2535 9.54274 3.31784 1.57871 0.472082 -0.544908 0.140034
3658 10.3407 3.04249 2.33491 0.754422 0.953232 -1.42764
1259 9.51651 3.82877 2.50261 0.0337874 0.726116 0.415128
501 11.5923 3.73568 2.36864 -0.201999 0.41655 0.0872311
2565 11.1937 3.16263 1.66263 -1.37341 1.35299 -0.260755
1279 12.2633 3.28289 1.54302 -1.26642 0.649376 0.801813
2695 13.122 3.72521 2.38912 0.946637 0.332842 -1.02115
2469 14.3855 3.34267 2.11835 -1.46319 1.07053 0.139262
904 15.8883 3.10564 2.43244 0.71259 1.84126 1.19812
3752 15.0879 3.8716 2.80638 -0.665774 -1.23266 -1.28329
800 15.2843 3.9641 1.67362 0.394703 1.27349 -0.855397
337 17.2232 4.08772 1.84915 -0.660643 0.644724 1.40405
1725 17.0473 3.23462 2.63157 0.0860218 0.330312 -1.38448
2262 1.34243 5.95577 1.63886 0.481148 0.131265 -1.36193
1762 0.604919 5.20862 1.98544 -0.788959 -1.83519 -0.625824
1188 1.47237 4.75114 2.51936 -0.312601 -0.763295 1.17935
2007 1.94023 5.12941 1.63389 0.805549 0.840094 -0.17997
2198 2.72536 5.6293 2.69743 -0.172485 1.86356 1.39532
1690 3.15704 5.47425 1.65643 0.348036 0.490606 0.555126
3175 3.4054 4.57682 2.38575 0.112679 0.659946 0.55801
142 4.52668 4.68615 2.5951 -1.10467 -1.23452 -0.110693
2671 4.50196 5.80279 2.66884 -0.0812514 0.302414 -0.578064
208 5.73536 4.80922 1.90346 -0.0802608 1.24911 -1.11052
3465 5.8097 5.16064 2.85073 0.824474 -0.710962 0.954293
689 7.08918 5.16865 2.66618 -0.0891315 0.319872 0.494387
3592 7.72468 5.23505 1.57038 0.784169 -1.91582 -0.0865045
3871 8.70881 5.43073 2.0919 0.227374 -0.874954 -0.745214
2205 7.9856 5.54561 2.87389 -0.453097 0.0789276 0.840778
3001 9.68712 4.78769 1.89519 0.43894 -0.0880627 0.00785163
2623 10.3698 5.86005 1.91963 -0.555588 -0.921211 -0.0975144
1953 9.68508 5.50502 2.72428 1.07858 0.23102 -0.690385
3882 10.7468 4.60074 2.14274 1.15536 1.2495 -2.45533
1778 11.0407 5.64981 2.60558 -0.358471 0.577963 1.75972
575 13.2504 4.73305 2.11853 0.020396 1.72226 -0.914089
2944 12.1572 4.64392 1.95602 1.4692 -1.55367 1.10967
102 12.6393 5.8387 2.23777 0.876761 1.78734 1.11118
667 13.4299 5.88689 1.50994 0.977617 -1.11967 -0.278262
726 14.3555 5.32684 1.85076 -1.41676 -1.33916 -0.186934
2163 14.311 4.61386 2.51274 -0.328188 -1.19202 0.363091
786 15.3253 5.04639 2.01528 0.0644375 0.793396 -0.859307
3551 16.2316 5.91308 2.76929 1.59736 -0.576046 0.0765652
2495 17.4049 5.62265 1.75754 -1.13175 1.20785 -0.413403
2861 17.3254 4.65213 2.72555 1.39072 0.94889 -0.732377
1636 16.5332 4.77547 1.97271 0.518441 -0.5426 0.531104
2803 0.968236 7.09206 1.69902 0.165386 -1.43491 0.826489
577 0.339348 6.41841 2.17225 0.356733 -0.0438024 1.91976
2683 2.41019 6.4466 1.51947 0.954081 -0.335924 1.27374
3167 1.53196 6.38695 2.51044 0.614235 0.506692 -0.0578309
787 2.242 7.29454 2.19136 0.689026 -0.0694595 -1.0498
1611 4.05841 7.19226 1.89098 0.621436 1.17059 0.691574
1290 3.47298 6.37665 2.19592 -0.813116 0.284064 0.500327
754 5.70607 6.20812 2.78811 -0.074516 0.428856 0.17937
232 4.87345 6.86147 2.64154 -0.848944 0.600435 -0.270303
908 5.44538 7.41971 1.94041 -0.205324 -0.976669 -0.216779
1588 7.24727 6.1539 2.19287 0.451762 -0.859013 -0.47733
3971 6.3551 6.74708 2.16694 0.147685 -1.77764 0.587729
3515 8.343 6.53441 2.2313 0.902979 0.472753 0.426278
3876 9.45556 6.3995 2.27956 -0.135899 0.382154 -1.18903
280 9.18944 7.37267 2.51342 -1.16749 -1.9464 0.495213
669 10.3799 6.97839 2.27635 1.09788 1.55993 -0.595314
2060 11.5363 6.10892 1.79869 -0.978622 -0.336262 -1.12881
387 11.4091 7.07154 2.02526 -1.55201 -1.18556 -1.37891
1063 11.0979 7.42017 2.96276 -0.243333 0.38478 0.321141
3271 12.7807 6.68281 1.607 0.705154 -1.18333 -1.36935
2416 12.159 7.04744 2.74275 0.308695 0.660713 0.755962
3832 14.3853 7.1623 2.0628 0.0439295 -0.204991 0.140429
502 13.4893 6.94696 2.69988 1.44918 0.529616 0.0675158
2167 14.2558 6.04117 2.63989 -2.64333 -0.440578 0.760683
1663 15.1305 6.16682 2.2092 -0.552103 -0.705058 1.96898
2859 15.7137 6.95102 2.69085 -0.27158 -0.223929 0.133192
1813 17.0528 6.54781 2.29987 -0.653946 -0.92883 0.508253
3008 1.25652 7.89657 2.0938 0.448028 -0.31169 -0.164007
2214 1.36528 8.89343 1.82147 -0.546721 -0.231077 -0.143284
2914 2.42876 8.29072 2.11559 -0.622637 -1.56055 0.779025
2813 3.30487 7.71151 2.51042 -1.6027 0.206594 -0.285166
1134 4.23779 8.16715 2.14486 0.606517 -1.04277 -0.380346
2068 3.39935 8.79313 2.04368 0.475734 1.32292 0.62712
2483 5.06269 8.09615 2.88717 0.324745 1.09819 -0.731077
2569 5.80462 8.89294 2.67034 -0.263115 -1.04569 0.420166
2456 7.41078 8.30281 1.54119 -0.384162 0.381945 -2.22544
2404 6.57075 8.04786 2.50745 -1.1707 1.54416 1.05683
3191 7.66814 7.72784 2.7493 0.0899755 0.720126 0.171007
549 8.54573 7.53114 1.68333 -0.957171 0.325979 -0.904463
3715 9.15703 8.52436 1.53097 0.111411 0.405032 1.3876
425 10.4458 8.44296 2.50106 -0.890836 0.0782031 -0.3313
2507 11.2254 8.14819 1.89725 -0.244502 -1.67013 2.62725
1128 11.9501 8.81116 1.97485 -1.93407 -0.306141 -0.547606
2588 12.2528 7.86631 1.65094 0.273656 0.655215 -1.1161
262 13.5078 8.12186 1.69469 0.319059 -0.967837 -0.909517
2351 14.4654 8.44424 2.33186 -0.581183 -1.52886 -0.0452505
181 16.128 7.48065 1.53438 -0.461216 0.825016 2.06429
467 17.2364 8.67774 2.97682 2.71402 0.0527494 -1.03354
190 16.6747 8.61237 2.15484 -1.40764 0.419264 -0.566628
736 17.7816 7.53703 2.20828 0.160312 0.605541 0.567899
3733 16.5303 7.73696 2.85556 1.05959 0.239512 0.634739
3992 0.709307 0.660223 3.44596 1.88632 -1.74183 -1.23968
3072 2.08035 0.241878 3.31032 0.689335 0.345603 -1.68424
3300 1.91611 1.24371 3.79437 0.50687 0.00279412 0.634984
90 1.55709 0.252094 4.35132 0.337959 -1.07916 0.116267
3431 4.45899 0.909869 4.00134 -0.462562 2.1496 1.03841
1213 3.7131 0.310104 3.14657 2.51213 -0.861007 1.87419
1054 5.59394 0.407908 3.95677 0.228773 -0.197372 0.692146
823 4.90698 0.15403 3.01643 0.234866 -1.37539 -1.92924
2870 6.26711 1.14142 3.4373 -0.568838 -1.38465 0.987695
3289 6.6351 0.277699 4.26596 -0.864591 0.868029 -0.0822055
2712 7.15887 1.20641 4.11615 -0.21775 0.0207242 0.737323
3512 8.5341 0.190757 3.24234 0.115741 0.750229 0.750089
3390 8.45485 1.10142 3.90915 0.316453 0.628698 0.527529
3331 7.57823 0.316702 3.88909 1.60714 -0.998644 1.19059
3754 10.0872 0.187924 4.12794 0.28745 0.00427 0.6193
2200 9.65548 1.23021 4.11236 1.59096 -0.247944 1.15306
319 10.9339 0.734948 4.44943 -1.16985 1.00782 -0.444919
2397 10.9027 0.519496 3.2333 0.695497 -1.01766 -0.0731419
3361 12.5916 0.946141 3.73121 -1.63067 0.737716 0.797603
495 12.1425 0.147924 3.20202 1.02502 1.32851 -1.6661
3468 13.809 0.685883 3.11533 -0.508949 -0.233718 1.40124
2657 13.5463 0.803023 4.13609 -0.302569 0.240469 0.0540049
1099 14.6156 1.11812 4.40474 1.21536 -0.365359 -0.550829
1100 14.8815 0.733194 3.00714 -1.89038 -1.09087 -0.543033
541 15.3322 0.157952 4.37831 1.33278 0.716843 0.85117
2460 15.8647 0.33372 3.55565 -0.980674 1.80654 -0.270211
3578 16.2364 1.30277 3.52013 -0.109443 0.245006 0.822637
2897 16.6878 0.487851 4.25857 -0.871712 0.642334 0.203062
1845 17.4848 0.442667 3.28959 -0.732881 0.105716 -0.377931
1429 0.555738 2.92991 3.31194 -0.16207 0.981121 0.370273
3839 1.23674 2.20227 3.66101 -0.785952 -0.282205 -1.54237
2070 2.52733 2.13937 3.14472 0.3724 -0.096283 0.737447
2868 2.23398 2.25795 4.18362 0.718029 -0.31683 -1.07962
792 3.29365 2.22797 4.01422 1.26309 -0.224145 0.480952
979 4.45843 2.06034 4.13659 -0.339741 0.0131894 -1.1615
465 4.48583 1.58115 3.11906 -1.14656 -0.964355 0.57324
3144 5.57251 2.16507 3.30474 0.247922 -1.48272 0.956274
2403 5.6962 2.96783 4.39064 1.49622 -0.320929 1.87941
1803 6.32701 1.93695 4.33632 -1.53127 -1.34408 2.17935
1674 6.69463 2.74123 3.67241 -0.304822 1.19808 -0.0314411
2402 8.22063 2.80348 3.32939 1.81588 0.658598 1.13489
1150 7.60007 2.19964 3.97705 0.27607 1.14008 -0.962964
2907 7.8228 1.70936 3.11161 1.16316 0.0534731 0.667517
902 9.32849 2.77887 3.02695 1.2558 -2.11128 0.492985
447 8.98905 1.96521 3.52195 0.800735 0.754578 -0.855907
554 10.0557 2.29421 3.70747 0.387034 -0.953175 0.128132
434 8.94451 2.72123 4.34931 0.362819 -0.568852 -1.00172
1411 10.7478 1.52617 3.50782 -1.64403 0.745435 -0.756311
222 13.1878 2.18165 3.6963 0.743299 -0.802042 0.835834
364 12.1732 2.72303 3.60279 -0.659731 0.155588 1.59014
951 14.6708 2.70921 3.33388 0.197241 -0.0484805 0.520057
1206 14.1039 1.84652 3.90236 0.985351 -1.82108 -1.83699
2636 14.2842 2.81226 4.34596 -0.79345 -0.129551 -0.700288
865 15.4026 1.99584 3.12972 0.556186 0.803913 0.669321
2080 16.3542 2.53484 3.17784 -1.67609 -1.24792 -0.282145
1950 16.2142 2.21096 4.09277 1.74421 -1.83515 -0.705298
3351 15.1906 2.24111 4.25002 -0.843846 0.399352 -1.13577
1703 17.0388 1.4967 4.23053 -0.517806 -1.05804 0.719797
713 17.5389 2.50789 3.41571 0.19876 2.20155 -1.42364
707 0.480298 4.19126 3.21365 0.169658 -1.29149 -0.236299
2891 1.0587 3.7875 3.98977 -1.49174 -0.584487 -1.37038
2969 1.73144 3.56898 3.13832 -0.342258 0.0208986 -1.27944
1438 2.10437 3.3875 4.30442 0.547128 -0.279868 -0.0676961
662 2.58001 3.10567 3.44412 0.158083 -1.91466 1.90052
3240 2.87781 4.08338 3.95695 0.570097 -1.24279 0.744118
1386 4.06312 3.65186 4.0517 0.205094 2.61066 -0.110792
3721 4.76536 3.13023 3.40783 -0.130205 -0.891255 0.430287
195 4.80825 4.23472 3.59601 -0.0505292 0.91802 1.09439
3161 7.28133 3.63473 3.69293 -0.122734 0.535525 0.657364
3066 8.75673 4.05546 4.21477 0.824612 -0.625132 -0.956286
790 10.2325 4.44059 3.21689 0.0556469 -0.495867 -2.64713
1583 9.85399 3.61552 3.67876 -0.00446642 1.37103 -2.18811
1069 10.7386 3.11369 3.71873 0.199372 0.0485686 -1.19019
350 11.0917 4.10392 3.72068 -0.476437 -0.95248 -0.318838
1492 12.0687 3.79119 3.49848 1.71662 0.182104 1.41958
1425 13.0404 3.54076 3.86659 -0.600702 1.18711 1.23356
3086 13.9134 3.72695 3.07355 -0.835744 0.613004 -0.233674
3201 14.6396 4.12766 4.17196 -1.2203 -1.25287 0.462497
1761 15.5431 4.41952 3.90861 -0.822277 -1.05179 -0.861784
3667 15.6403 3.15969 3.73383 0.850197 -0.488423 -0.605081
1387 16.4431 3.81029 3.17538 -1.31342 0.224294 0.750797
3296 17.3965 3.67807 3.84209 0.360399 1.42173 0.682678
2421 0.598624 5.58802 2.9822 -0.0613338 -0.63183 0.35278
3009 0.873311 5.23877 4.29003 -0.197903 0.401941 -1.39545
2227 2.54087 4.69413 3.0094 1.51922 1.21341 -0.0658906
435 1.69976 4.6547 3.67614 -0.845876 -1.01728 1.489
1271 1.63762 5.70063 3.40731 0.576736 -0.526566 -0.903474
1907 3.00714 5.16454 3.89514 -0.905885 -0.588036 1.19114
1870 3.58124 5.7553 4.43531 -0.749859 -0.320899 -0.401005
2716 4.23688 4.82697 4.45913 -1.79989 -0.150754 0.927709
307 4.49143 5.55526 3.77385 0.18248 -0.87067 -0.13667
3084 6.04409 5.39015 3.86828 -0.487417 0.376601 -0.889122
2827 6.75223 4.68749 3.76587 -0.271443 -0.642391 1.24506
536 8.83863 5.675 4.20094 0.885619 -0.189078 -0.800702
3330 7.85301 5.65739 4.10082 0.72361 0.904348 -1.20033
3333 9.09339 4.67155 3.44306 -0.0144567 0.354979 0.0501967
2173 10.0049 4.51595 4.31577 0.092415 -1.00667 2.17226
729 11.617 4.70017 3.02843 0.652348 -0.638548 -0.0875841
1569 11.0687 5.35338 3.94117 -0.767875 -0.823272 1.40108
586 13.3702 4.84631 3.92894 0.761572 1.08617 -0.12953
3145 12.7176 4.68163 3.10485 0.969821 1.4503 1.66256
916 13.3681 5.76636 3.04517 -0.994956 0.85457 -0.78873
405 12.0576 4.76891 4.1386 1.4611 -0.217041 -0.60752
1514 12.2402 5.56207 3.42192 1.47478 -0.416737 0.873812
3183 14.1913 5.28734 4.31645 -0.257796 0.0647379 0.360055
585 14.7513 4.98968 3.32731 -1.52266 0.662255 -0.0941049
859 15.9522 4.895 3.10197 0.733702 1.0029 -0.651126
1667 15.8868 5.52591 4.18174 1.77873 -1.42176 -0.949101
298 16.7104 4.64713 3.9301 -1.33994 -0.421382 0.858427
1062 17.2278 5.61944 3.28034 -0.140399 0.99806 0.0208001
600 17.7723 4.93462 3.77564 1.36839 0.242082 -0.896218
1205 16.9623 5.69937 4.28014 -0.702794 0.0118647 0.428873
3110 0.852798 6.25847 3.93105 1.00839 -1.20995 -0.549847
759 0.292285 7.00249 3.23625 1.02191 0.43876 -0.00559665
1193 0.284731 7.05637 4.36226 -0.177209 1.60499 -0.773032
2624 2.54031 6.05375 3.68467 1.00842 0.463794 -0.03781
1343 1.92671 6.83688 3.47565 -0.180775 0.312787 0.0681131
363 2.66454 6.82223 4.41288 -0.119528 0.388158 -0.348653
781 3.54772 6.00192 3.26437 -0.868181 -0.2386 0.476688
3811 4.12616 7.21733 3.32236 0.211695 -0.487052 -0.777789
1257 2.99603 6.93844 3.15472 -0.593451 0.419469 -0.356891
2138 4.10346 6.55306 4.13412 -1.38081 0.34563 0.87036
2567 5.01271 6.71516 3.80117 -1.74799 -0.698947 -1.22919
215 6.68083 6.00752 3.14848 0.403437 -1.47118 2.73814
2947 6.16967 7.34114 3.12173 0.273146 0.6642 -0.143666
742 7.35786 6.71061 3.32621 1.19657 0.380773 0.0698043
109 6.00876 6.62573 4.02893 0.5653 0.873669 0.72827
1381 8.33911 7.11269 3.38005 -0.739914 -0.0200012 1.15012
296 7.86594 7.14762 4.25913 -0.91399 -0.148296 -0.699482
2949 9.08902 6.50643 3.54641 0.408607 0.170266 1.48387
3640 10.2307 6.29916 3.09674 -0.90074 -0.959252 -1.25636
856 10.1764 6.10878 4.23115 -0.0277595 0.172854 -0.728229
2373 11.277 6.36769 3.41044 1.73775 -0.308841 -0.0849452
1327 10.9178 7.12392 4.23338 0.0570993 -0.0926836 1.07344
3821 11.8841 6.44125 4.21838 -0.323097 -1.50569 -0.362997
3710 12.9062 6.12923 4.39714 1.33681 0.678738 0.289989
2480 12.6851 6.50377 3.43448 -1.31506 -0.834199 -0.573306
2940 13.2481 7.24519 3.91658 1.51764 0.317711 -0.167299
2983 14.0673 6.30212 3.76789 1.55963 -0.637845 -0.445972
789 14.7277 7.20789 3.17749 -0.161306 0.169535 -0.816914
2986 14.2385 7.17802 4.29516 0.0887955 1.94159 -1.21236
2147 15.1145 6.07826 3.59754 -0.563473 -0.07936 -1.02036
1024 15.6805 6.96006 4.13321 -0.70195 1.28865 -0.345249
684 16.7874 6.74431 3.2738 -0.690686 0.64378 -1.66433
783 17.041 6.93366 4.39297 -0.100485 -0.954365 0.0502001
2536 1.01256 7.75404 3.97855 -0.953083 1.43194 -1.34971
295 0.569123 8.71525 3.85015 -0.742 0.624226 -0.584913
2431 0.138156 8.09574 3.02563 -0.321585 -0.283327 0.730288
28 1.47212 8.90813 3.64113 0.621553 -1.65172 -1.28845
229 2.88456 8.75569 4.09786 -0.685837 0.396011 -2.77261
392 1.91374 8.12818 4.38896 0.646341 0.186496 0.319961
2889 1.74094 8.17946 3.02688 -1.19325 -0.435302 1.07268
242 4.05294 8.18601 3.25399 -0.372943 -0.252778 0.871021
3585 3.03167 8.08408 3.4269 1.08928 1.35596 0.399995
1032 3.98562 7.9477 4.23314 1.44431 -0.186029 0.185137
2833 5.40875 7.74691 3.8371 0.0169158 0.49359 -1.1792
929 6.55411 8.79978 3.36341 -1.71935 0.806656 0.829855
2341 6.45203 7.6756 4.40524 -0.694112 0.780737 -0.780639
3474 8.25848 8.51722 3.13419 -0.838113 -0.725441 -0.496922
1421 8.55791 8.70097 4.17589 0.530179 0.294313 1.13988
2851 10.0679 7.74951 3.76384 -0.175187 -0.812098 -0.377328
3058 8.99078 7.69091 4.02533 -1.53609 -0.768127 0.5729
791 9.5993 8.65807 3.06529 0.221988 -0.0748774 -0.648827
2516 9.5734 8.93279 4.23319 0.496941 -0.225658 -0.781068
696 11.1472 8.90372 3.32335 0.198046 0.535862 -0.275044
2386 11.9143 8.25871 3.07125 0.930551 -0.839147 -0.558466
389 11.3174 8.26292 4.38688 0.239309 -0.784545 -0.5834
410 13.1557 8.13167 3.03282 1.12315 -0.0243262 0.171812
1023 12.2879 7.64335 3.79693 -1.17474 0.860727 0.311746
2801 13.0574 8.73701 3.88935 -0.435805 0.0450685 -0.553628
436 14.0413 8.29055 3.63894 -0.254269 0.207789 0.565943
2054 15.1635 8.89847 3.81753 0.216829 0.433427 0.650273
3637 15.5832 7.95811 3.00464 -0.273896 -0.206558 -1.13575
3106 15.0704 7.88427 4.12314 -2.92359 0.247439 -1.2483
299 16.3427 8.76048 3.9403 -0.0994544 0.330984 0.849839
869 17.545 8.09261 4.03766 -0.762197 2.19395 1.55011
3324 16.429 7.72993 3.90174 -0.579382 -0.766956 -1.9874
1151 0.472028 0.540124 5.47823 0.909735 -1.0445 -0.903447
2510 0.0751169 1.19299 4.66968 -0.352668 -0.472918 0.38454
3154 1.1913 1.35794 4.57264 -0.254583 0.288096 -1.63989
3214 1.55129 0.23541 5.5644 -0.727248 -0.258989 -0.295047
2876 3.75587 0.716884 4.68174 0.0529171 -0.583392 -1.05406
651 4.60613 0.791812 5.35197 0.74925 1.12938 0.0148418
2594 4.82026 0.0314116 4.62445 -0.395839 0.351469 0.801539
2155 6.05427 0.916843 4.83472 0.313963 -0.424203 0.331714
411 8.4231 0.265766 4.50009 -0.295086 0.23836 0.634235
3283 7.54592 0.828402 5.18923 0.00407019 -1.64729 1.24728
3392 9.81083 0.688234 5.16525 -0.248743 1.57872 0.208558
2285 10.6835 0.623839 5.68738 0.488516 1.01342 0.306845
1481 11.8654 0.691194 5.02544 -0.158908 -1.21517 -0.759118
3292 12.8601 0.197096 4.70063 0.945677 -1.31186 -0.34106
2705 12.6911 1.11709 5.16057 1.10436 -0.879834 -0.0688872
3922 13.8062 0.357243 5.14374 -0.614943 -1.03647 0.381658
3046 14.8808 0.607764 5.31165 0.845791 -0.824283 -0.680454
523 16.099 1.02039 5.61178 1.19476 1.1085 -0.350516
446 15.737 1.14225 4.60789 -1.35909 -0.315881 0.916702
580 17.3467 0.991532 5.75943 -0.698192 -0.704032 -1.00416
2049 0.684741 1.72145 5.52029 -1.48909 -1.26111 0.554474