ITEM: TIMESTEP
56000
ITEM: NUMBER OF ATOMS
4000
ITEM: BOX BOUNDS pp pp pp
0.0000000000000000e+00 1.7878070701931353e+01
0.0000000000000000e+00 1.7878070701931353e+01
0.0000000000000000e+00 1.7878070701931353e+01
ITEM: ATOMS id x y z vx vy vz
631 1.19878 0.13831 0.695853 0.439453 0.771726 -1.09633
714 1.61036 1.25352 0.145772 -0.147854 0.951474 0.604205
2546 2.76909 0.623645 0.910926 0.586646 0.482757 -1.72799
1319 4.32064 1.14423 1.06605 0.672668 2.1136 0.178626
3843 3.60167 0.463836 0.371302 -0.267267 1.01152 -1.98349
1941 4.17581 1.46335 0.0557501 -1.55566 -1.22725 0.940585
2272 4.53025 0.0854536 0.714524 0.582886 -1.18555 2.08661
3329 5.17778 1.1942 0.434327 1.07566 -0.251336 -1.89169
1969 5.4944 0.159381 1.09682 -0.453159 0.447444 0.89743
1739 7.35813 0.627989 1.10937 0.909005 -1.47509 -0.0146212
1634 6.94391 0.98055 0.163734 0.0835429 -0.202041 -1.47175
1369 6.03797 0.634536 0.150177 0.192349 1.05548 -2.8186
3217 8.50694 1.23084 1.48213 -1.49253 0.354614 -0.293807
2131 7.93417 1.20912 0.440489 -0.271417 0.41562 0.308454
2278 10.3798 0.276864 0.799777 -0.630547 0.0165102 0.516487
1019 9.63239 0.707845 1.36027 -0.2702 -0.929286 0.415175
1718 9.52493 0.788595 0.250488 1.40408 -1.12895 -1.01982
2293 11.7473 1.18248 0.264795 -0.572149 0.0140463 0.258833
2823 11.2926 0.106347 0.0112454 -1.12809 -0.776806 1.00758
1730 10.5966 1.21099 0.210621 1.78136 -0.327724 -0.00922628
1152 12.3894 0.898202 1.1487 0.233266 0.36266 0.235931
266 13.4058 0.952567 1.19381 -0.277579 0.578058 0.348738
2270 12.2494 0.10828 0.58154 -1.31822 -0.445965 -1.20296
3116 14.4356 0.605358 0.635365 0.988713 1.01031 1.84562
504 15.3363 1.02357 0.592733 0.140252 -1.45457 1.48558
338 16.266 0.455604 0.623862 -0.494492 0.41925 0.60445
1020 17.5064 0.739756 0.390805 -1.01818 -0.414842 0.479765
2194 16.8115 1.3967 0.894564 -0.469156 0.819052 0.712126
1175 0.790016 2.67396 1.07566 -0.522224 -1.59913 -3.19549
3842 0.503388 1.79697 0.660176 0.0283034 0.567609 2.53828
474 0.0948729 2.59138 0.150421 -0.616668 -0.496604 -0.68039
790 2.12047 2.24604 0.487979 0.600895 0.391035 0.777691
2473 3.15662 2.27382 0.496348 -1.16537 -0.15381 1.10538
229 3.02914 1.51833 1.45428 0.0860049 0.921254 -0.461692
1374 5.70135 2.63745 0.930414 -2.39999 -1.34724 -1.66992
1920 4.65177 2.23533 0.803124 -1.19487 0.204354 0.271444
1200 6.75969 2.64567 1.40712 -1.04359 0.654677 -0.814196
2082 7.06074 2.77455 0.13702 -0.084178 -0.910338 -0.487607
1022 6.49234 1.68454 1.06064 0.22484 1.91374 1.02873
2027 7.71655 2.14289 0.869878 -0.229241 0.315444 0.0963833
3648 8.9282 1.76445 0.721179 0.444832 -0.120722 -0.535926
2055 10.218 2.50755 0.320085 -0.481005 -0.972016 0.608171
3074 9.09067 2.73277 0.587062 0.852805 -0.356586 -0.609243
966 9.91069 2.00296 1.09896 -0.714403 -0.530465 0.982097
679 11.0643 1.95885 0.878562 0.272141 -0.973222 1.34205
1394 12.184 2.05982 0.637861 -1.14784 -0.469086 -0.71727
1967 13.2815 2.421 1.095 -0.408619 0.674853 0.260698
1803 14.1059 1.57487 0.678712 -1.73698 0.427209 0.704471
3332 15.8925 2.35317 0.0250302 -0.352501 -1.6442 -0.878021
3832 16.0014 1.99864 1.19151 0.467582 -0.721346 1.78904
2069 16.9274 2.60289 0.77898 -0.953874 -2.4183 -0.348917
3894 0.63695 3.88455 0.949268 0.678803 -0.887049 1.50894
360 1.70736 4.10419 0.166004 -1.3954 0.320786 0.383993
2597 4.19485 3.18992 0.613854 -1.2899 -0.908712 1.2998
1157 3.02246 3.44169 0.864587 0.0191228 0.268412 0.439648
312 3.45959 4.29922 0.0187384 0.73237 2.3017 -1.50651
437 5.23515 4.40267 1.22646 -0.692632 -0.294326 0.660905
3876 7.2042 4.33616 0.204665 0.529436 1.53217 0.0507873
2147 6.22464 3.76684 1.00891 0.703039 -0.293666 1.18248
2441 6.08357 3.2616 0.135315 1.97324 1.05087 2.46932
91 8.86651 3.69622 0.733616 -0.47804 0.738838 -2.36073
296 7.96547 4.16731 0.904181 -0.729641 0.741166 0.76583
2008 9.86223 3.24437 0.916058 -0.414434 -0.186511 0.135264
3502 10.1727 4.39749 0.88241 0.366877 -0.18503 1.1081
1235 10.9776 3.50033 0.463895 -1.42116 -1.35744 -0.342466
429 12.7015 3.5201 0.335802 -0.793094 0.364383 -0.856964
3498 12.019 3.08595 1.04886 0.820945 0.954216 0.445946
116 14.4867 4.3497 0.329969 0.0498862 -1.05094 0.778979
586 14.2195 3.89096 1.37724 -0.544217 -0.372734 0.259936
1096 13.7691 3.34654 0.307639 -1.59383 0.2868 1.66409
1433 15.2008 3.39625 0.531489 0.507944 -0.590788 0.565412
441 16.2448 3.37027 0.253812 -0.188668 -1.08288 0.663938
1907 15.9051 4.25155 0.956393 0.687969 -0.471633 -1.37096
290 16.4323 3.53869 1.42445 -0.14624 -1.22408 -0.0758628
1940 17.3701 3.45519 0.3657 0.788847 1.17507 0.0021283
1446 17.7904 4.33729 0.480402 0.486266 -0.0192078 0.249194
3582 0.674846 5.08219 1.15008 -1.93119 -0.812006 0.156086
2751 0.851739 5.72917 0.311019 -0.71867 -0.506831 0.573216
3767 2.90685 4.70847 0.787905 -0.119297 0.318374 1.25616
1321 1.64606 4.99572 0.693068 0.461644 -0.564075 -0.0284317
3607 4.07995 4.98202 0.598036 -1.19503 0.9749 -0.729722
752 3.54674 5.58352 1.26054 0.785977 -0.505286 -0.379506
1706 3.29734 5.61713 0.166103 -0.707414 -0.0791114 -0.89928
857 4.83621 5.88187 1.01016 0.245618 -0.613517 -0.140198
3374 5.84019 5.39152 1.38973 -0.946908 0.326261 2.2791
3482 5.47464 5.51462 0.250442 -0.825317 0.528809 -0.525686
3 5.96367 4.61578 0.329238 0.118231 -1.68246 -0.963904
395 6.85513 4.58789 1.13672 -0.21799 -0.48406 -0.519127
245 7.73827 5.32633 0.649505 1.00121 0.581817 1.19411
307 9.05626 4.68307 0.558102 -1.30361 -1.96977 1.0575
182 9.86463 5.55819 1.1365 -0.621695 0.656992 0.177319
361 11.5362 4.5989 0.490728 -1.23384 -1.22954 1.26971
2902 10.8778 5.25565 1.0296 0.295948 1.89623 1.00735
1314 12.8629 5.28449 1.03768 -0.620356 -0.0853631 -1.62071
2367 12.5617 4.61922 0.0424336 0.0874552 -0.49026 -0.350285
1659 13.5309 4.60547 0.80781 -0.49939 0.122702 -1.49041
2142 14.4771 5.15902 0.978589 1.76363 -1.0367 2.23606
3813 13.6124 5.36506 0.0930489 -0.627631 0.395475 0.0735778
3132 15.8366 5.45305 1.38643 -0.704061 -0.257369 -0.360369
1897 15.3477 4.96748 0.185943 -0.993714 -0.200167 -2.26297
3885 16.3535 5.12187 0.487409 0.883838 -0.212699 -1.23224
39 17.2617 5.60313 0.310199 0.756637 1.34708 -0.675315
2345 0.460486 6.75589 0.826125 -0.0224376 2.25665 -0.703235
1198 1.63121 5.97938 1.07696 -0.686029 0.761029 0.432335
1926 1.58608 7.0612 0.217201 0.770317 0.284498 -0.78718
1567 2.10907 6.9872 1.07308 0.243067 -0.0370259 1.33929
3336 2.67279 6.1957 1.05892 -0.148698 0.0740662 0.125058
771 3.4156 6.97852 1.13974 0.0988995 -0.657828 -0.380977
2613 4.4425 6.88172 0.32211 2.67559 0.309992 -1.42998
2813 5.78234 7.28831 0.455243 -1.02875 -1.38293 -1.88291
238 5.82914 6.40464 1.08037 -0.292446 -0.227539 0.50727
16 5.05715 7.35124 1.37056 0.0197817 -0.130061 -1.09933
3611 6.45214 6.40793 0.0903655 -0.178548 -0.386377 -1.94946
7 6.89972 7.33081 0.820586 -0.8866 -0.500267 0.681488
3211 6.86782 6.16758 1.01498 0.843705 0.413407 -1.30877
3702 8.26048 7.26898 0.721402 1.8358 -1.19257 -0.26277
1763 7.54345 6.64061 0.227967 -1.27083 0.701159 0.146303
2130 8.47657 5.98194 0.0928529 0.352594 0.551449 -0.407426
2684 8.37468 6.38568 1.18233 0.666335 0.417397 -0.611897
454 9.96534 7.19108 1.03717 -2.85402 -1.4109 0.436649
2768 9.75762 5.97604 0.0742675 0.810625 -0.97074 0.457214
3580 10.9003 6.37662 0.793925 -2.17856 0.352552 -1.37538
2494 11.1934 7.38374 1.22922 -1.47849 -0.336872 1.12988
1704 11.635 6.92139 0.219336 -0.441143 -0.13581 -0.98102
1814 13.1549 6.26824 0.991934 -1.07063 1.44645 0.0676053
180 11.9761 6.1503 1.14137 -1.45719 -1.92929 -0.52352
2696 12.4372 7.26598 0.979489 0.100004 0.716799 1.25172
1170 12.7712 5.96674 0.0482806 -0.161788 -1.21414 0.353225
1450 14.3075 6.27721 0.817649 1.13448 1.10698 -0.120446
250 13.5428 7.28039 0.58132 0.432387 0.304648 -0.459897
2894 14.6111 7.12613 0.231536 0.57346 -0.949707 0.387187
2756 16.1474 6.37862 0.75307 -0.734163 -0.356053 0.529751
1731 15.342 6.06247 0.134137 1.68445 1.30275 -0.0216264
1875 15.5932 7.0777 0.110362 0.722775 0.264471 -1.02693
108 16.3059 7.33885 1.20037 -0.159771 0.337173 -0.0265724
1758 15.2248 7.30929 1.08825 1.19333 -0.257491 1.33846
1760 17.1591 6.75128 0.753445 -0.376417 -2.13971 -0.289058
8 0.644727 8.39795 0.610701 -0.379496 -0.721335 1.54454
2524 1.14832 7.53406 1.01888 1.27831 0.291624 -0.749612
784 2.13191 8.00765 0.849201 -0.235261 1.0531 -0.157669
2622 2.58465 8.67725 0.127718 1.06059 0.128645 -1.24797
929 3.07681 7.64396 0.474971 -1.06928 -1.38852 -1.72724
2230 3.33967 8.47138 1.09 -0.0273499 -0.648587 -0.116948
2302 4.04815 7.71065 0.836333 0.663808 -0.974999 -0.565856
3940 4.15897 8.51733 0.0421619 -0.640444 1.15274 -0.782236
1856 5.28391 8.47229 0.322582 0.733506 0.925404 -0.136582
2486 5.87505 8.19853 1.21885 2.05557 -0.965279 -0.223315
2539 6.6216 8.80178 1.44112 -0.0206865 -0.113915 0.429723
3653 7.25582 8.25917 0.902312 0.470375 -1.39522 -1.15206
1825 6.62031 8.90508 0.314213 0.366417 -1.562 -0.67007
418 8.87257 8.17016 1.42775 -0.864989 2.02498 0.263228
3371 8.13256 8.79307 0.521928 -1.67874 1.65141 1.42211
2456 10.0599 8.57479 0.680282 0.828215 0.680192 -1.02584
464 10.7086 7.68428 0.31642 0.91611 0.332073 0.6658
781 11.1321 8.77203 0.115135 -0.873349 0.697993 1.51451
3991 13.174 8.34657 0.326336 -0.149502 -1.89676 -0.0890546
1942 12.1291 8.26859 0.945402 -1.79878 0.194057 0.558854
2963 12.235 8.9367 0.120323 -1.44171 -0.397964 0.868224
2928 14.873 8.17255 0.265698 0.69868 -1.4349 -1.30245
3833 13.6447 8.88814 1.17503 -0.122658 -0.936143 -0.253271
1976 15.8919 8.27266 0.671927 0.660496 -0.0662177 -1.25711
1611 17.604 7.83066 0.901963 -1.44486 -0.945077 -0.418733
2137 16.7273 7.71474 0.291977 -0.407146 1.14388 0.297676
1122 17.7104 8.92124 1.24914 1.27961 -0.230298 -0.275717
1865 0.834694 0.156241 1.8289 0.784577 -0.979331 -0.190283
773 1.41434 1.10982 2.54236 0.42866 0.344616 0.68412
498 0.361111 0.960284 2.31522 -0.450442 -0.87379 0.221347
3225 2.88818 0.50474 1.96386 -0.321587 1.32591 0.4134
2191 1.87647 0.835881 1.65375 0.910175 -1.04642 -2.03851
277 2.17749 0.126606 2.75315 0.896351 0.597402 -2.31433
528 3.74259 0.968685 2.32933 1.85163 1.2764 0.444663
371 4.00265 0.0360533 2.77587 0.287351 -0.484902 0.520135
538 3.76737 0.358764 1.52164 -0.591572 0.92871 -0.501732
363 5.86761 0.732524 2.08087 0.366661 -1.36075 -1.512
2482 4.83056 0.702989 1.92011 0.408788 2.16154 0.842093
2972 6.73838 0.0217181 2.15999 -0.850477 -1.19232 2.04013
2155 7.1304 1.07028 1.98982 1.21684 0.853941 1.11653
812 8.75053 0.27979 1.82416 0.780731 1.11043 1.85584
2321 7.75523 0.649123 2.86297 0.140683 -0.676075 -0.687691
2820 9.48082 0.842296 2.52172 -0.207585 -0.986996 1.73234
196 10.6998 0.933221 2.49276 -0.394518 -0.464269 0.853684
3042 11.8175 1.21609 2.2493 0.83236 -0.405722 0.536645
1722 10.6583 1.18616 1.51008 -0.479854 -0.802336 -0.781914
554 11.6085 0.190528 1.85685 0.67108 0.381773 0.674339
2532 13.0471 0.725145 2.13088 -0.0224207 0.0120223 -0.165409
2657 14.1102 1.02644 2.9058 0.784752 -1.26956 1.50271
2314 14.1615 0.51943 1.79394 2.95024 -0.52876 1.53709
3419 16.118 0.928424 1.71167 -1.35843 0.0926567 -2.38084
1513 15.1254 1.159 1.85525 0.328702 -0.548393 -0.279743
1445 15.0132 0.237403 2.43312 -0.990686 -0.326555 0.413013
1658 17.8458 1.44454 1.51673 -1.60127 0.449292 -0.154981
2765 17.3133 1.24762 2.73603 1.38221 0.422984 2.90755
392 17.4117 0.396931 2.06404 0.253628 0.190449 0.794152
1011 1.45514 1.9111 1.67585 0.0831966 1.22047 1.66508
3129 0.3358 1.85011 2.90208 -0.767758 0.528252 -0.848238
2572 0.877367 2.72663 2.2758 0.141442 0.144146 -0.126622
3745 1.998 2.91915 1.9523 1.18995 0.281305 -0.480289
3664 2.90374 1.66034 2.55988 0.712381 0.142118 -1.00479
1032 4.03912 1.9291 1.83713 0.162608 -1.20021 0.308817
1364 3.18755 2.68419 1.98802 0.46743 1.93276 -0.289324
724 5.43416 1.5386 1.58222 2.03093 -0.531897 0.208841
1657 4.77141 2.7117 1.74989 -1.26776 -1.67137 -0.525265
86 4.98895 1.74305 2.42258 1.17935 0.686098 0.729116
3851 7.28464 2.53933 2.67956 0.707438 0.895806 0.00122132
1470 5.96877 2.15197 2.13782 0.652529 -1.17128 -0.0727937
1666 7.99164 2.86492 1.52146 -0.351007 -0.164394 2.05691
2289 7.8556 1.8611 2.01502 -0.5148 0.543566 -0.380432
1767 8.45031 2.83454 2.49535 0.91595 -0.712097 -0.147639
1650 9.09568 2.0343 1.8638 0.141148 0.0333713 0.39688
3841 9.59651 2.76512 2.4636 0.363301 1.24267 0.107199
2384 10.4123 2.09766 2.10183 -0.172501 -0.112058 -0.51429
3289 11.8648 2.44846 1.82633 -1.33279 -0.447418 0.670281
1403 12.7622 1.77667 1.88464 0.121563 -0.700865 0.0388999
349 14.1052 2.64967 2.15876 -0.103893 -2.1979 0.555674
2285 13.8814 1.56861 1.90052 1.69175 -0.365691 -0.343205
2861 15.5639 2.97316 1.58703 -1.31683 -0.46547 -1.14393
2640 16.2698 1.58877 2.44602 0.270982 -1.38821 1.18508
2630 16.661 2.48155 1.94645 -0.853854 1.79749 1.95965
431 17.7352 2.90552 1.58478 -2.94034 0.912401 -0.710901
2313 17.4738 2.29361 2.50371 0.0798561 -1.02818 0.0313878
1266 0.910009 3.84564 2.23256 -0.25162 -0.150781 0.868893
908 2.20794 3.95619 1.49334 -0.992801 -1.17843 0.00735843
1531 2.64366 3.2403 2.72047 0.551347 -0.758143 -0.251889
2605 2.31075 4.40864 2.7521 -0.406812 -0.0765014 -0.230284
804 4.07864 3.62112 1.55294 0.730318 1.04576 0.945894
1249 4.24258 3.01673 2.63985 -0.914476 1.75819 -0.20699
2746 5.53408 3.36778 1.98 0.601994 -1.11311 -0.653736
1647 4.77343 4.15844 2.19281 -0.675933 -0.338116 1.86386
42 6.55091 4.16997 2.96275 0.489646 1.50218 1.52278
1035 5.98965 3.00144 2.94241 -0.818598 1.25858 -0.833258
3975 7.0475 3.63928 1.6708 -0.17712 -0.126282 -0.57357
2816 7.642 3.74955 2.4802 -0.698501 -0.00644863 0.242002
3391 8.68972 3.72995 2.9698 -1.29932 -0.163923 0.573722
425 9.4802 3.96146 1.60371 -3.21381 0.355262 -0.410311
1994 10.1677 3.65483 2.61575 1.11802 -0.661975 -0.0226672
3439 10.7499 3.67536 1.54247 0.236799 -0.955072 -1.66064
834 11.4104 3.04997 2.49718 -1.95133 -1.59321 -2.50434
3982 12.8063 4.21664 2.16883 0.274645 -0.0334325 0.989112
1903 14.9302 3.0091 2.62659 0.258023 -0.991543 0.62205
3169 14.9161 4.09899 2.9446 -0.823976 0.15333 -1.57577
1199 15.9152 3.45516 2.65017 0.85754 -0.0890544 2.1018
635 16.9443 3.89141 2.42202 1.02746 1.35973 -0.323205
3109 17.501 3.92692 1.51465 -0.388361 -2.3335 0.55028
2563 0.622759 4.89477 2.23127 -0.325681 0.0898295 -0.0151226
2143 1.51911 4.92995 1.82384 -0.0950609 -0.325121 0.205015
3166 2.32224 5.68578 1.94853 0.33258 1.26036 -0.573951
3258 3.09286 4.90491 2.10546 -0.482567 -1.07655 -1.36504
903 3.74598 5.73425 2.38835 0.503944 1.44294 0.792089
2937 5.84752 4.47912 2.21393 -0.784341 1.3961 -0.318155
3366 5.07778 5.4882 2.88618 -1.04452 2.64294 -0.182212
3376 4.75775 5.44698 1.93068 1.20954 2.68237 1.08213
2495 6.17533 5.50053 2.82311 0.315478 -0.691603 -0.904377
1840 7.44062 4.85985 2.57662 2.65811 -0.821806 -0.356862
1442 7.93116 5.35555 1.64435 -0.3608 -0.793042 1.69134
2423 9.44589 4.73751 2.33001 -0.662927 -0.947494 1.58806
1871 9.04613 5.49172 1.66636 -0.663214 0.813331 -1.07005
760 11.6328 4.47528 1.7866 -0.849683 -1.01749 0.359078
410 10.5654 4.77307 1.92447 0.18775 0.443502 -1.30679
861 11.862 4.47797 2.75895 0.232212 1.31479 -0.428225
3385 10.607 4.84195 2.97949 0.0550627 -1.30037 -0.685283
3585 11.4318 5.44243 2.2919 1.16214 0.630795 -1.04378
2980 12.484 5.23107 1.9399 1.20863 0.922921 0.329798
2634 13.7595 5.53885 1.6438 -0.172712 -0.0973268 -1.68496
718 14.6728 5.55041 2.76089 0.257457 -0.825018 -0.15462
2111 14.2528 4.7219 2.30196 1.04563 -0.0999579 -1.79345
513 14.9858 5.92123 1.85231 0.159769 0.648872 0.636743
174 15.6321 4.60576 1.9174 -0.544532 -0.124823 -0.720326
816 16.3439 5.32574 2.38906 0.315619 -0.713707 -0.538948
3739 16.1506 4.48525 2.96756 0.552514 -0.148809 -0.284469
2709 16.6295 4.58052 1.69434 -0.162965 0.966584 -1.93041
802 17.3616 5.44868 1.66645 -0.506047 -0.094823 0.892427
3836 17.4001 4.889 2.57836 -0.0599733 1.26923 0.00920414
13 0.595468 5.97417 1.54793 1.16353 -0.78403 0.508096
329 0.0490023 7.18931 1.63066 0.0655691 -0.797789 0.967334
919 0.720956 6.13279 2.52626 -0.529092 -1.69628 0.212116
1896 0.86891 7.1764 2.59429 0.169118 -0.2449 -0.580674
665 1.34094 6.73641 1.71915 0.678771 0.170044 -0.734351
210 2.25203 6.98845 2.36974 -0.140304 1.61912 -1.42999
175 1.66304 6.04809 2.77152 -0.32526 -1.41496 -0.483513
2710 4.16909 6.40977 1.56852 0.788909 -1.84528 0.937314
14 4.50082 6.73614 2.49875 1.398 0.645741 0.524721
881 6.89407 6.0473 2.11718 1.28603 0.124857 2.63049
1743 6.44007 6.8882 1.78801 0.108463 1.21576 0.327585
2453 6.01417 6.52058 2.72557 -1.47733 0.220503 1.55912
3476 6.99263 7.13675 2.61894 0.455617 0.243538 1.53013
1406 7.51816 6.68541 1.77151 0.470119 -0.903556 -0.471494
1642 7.70952 6.20509 2.8124 1.026 0.826459 0.537428
750 8.46468 6.74293 2.16936 0.22664 -0.300267 -1.32567
466 9.40949 6.03898 2.63809 -0.0923539 1.35935 0.796108
701 10.1994 6.07259 1.97976 1.12962 -1.41784 0.627322
3147 10.4082 7.271 2.16135 1.17601 0.976201 1.0748
2801 9.39259 7.33301 1.89787 2.69734 0.817987 0.58182
1989 11.0801 6.50341 2.2419 -0.333715 -0.473247 -0.736867
1409 13.3438 7.38945 2.05469 0.517666 1.04605 1.59904
1631 12.963 6.97445 2.94867 -1.05065 0.558959 0.924004
2784 12.0691 6.98603 1.86616 -0.590197 -0.451036 -0.384919
3852 12.3579 6.0078 2.86259 0.651084 0.0194019 -0.138103
614 11.9227 7.16222 2.8893 -0.0832831 -0.19 -1.28341
3122 13.5968 6.19668 2.57237 -1.26866 1.36873 -0.300667
1754 14.7541 6.56877 2.85349 0.363638 -0.124617 0.62084
3944 15.818 6.16672 2.56033 1.95252 0.21885 -0.673672
1217 15.6836 6.85242 1.81177 -0.094227 -0.896745 0.155069
2659 17.3384 5.9715 2.52952 1.0283 1.5178 0.551357
1343 16.562 6.18193 1.82411 0.217428 -0.93183 -0.454428
3386 16.804 7.09353 2.28154 -0.620536 0.0259806 -0.0489083
2521 1.3289 8.85432 2.63907 -0.452339 0.472563 1.01071
1872 0.638682 8.03839 1.92539 0.185417 -0.548457 -1.48003
1869 0.340645 8.75901 2.62863 1.91272 -0.029081 0.195421
1761 1.60083 7.88094 2.78571 -0.273976 0.38738 0.66211
2943 2.51264 8.49897 1.69359 0.952128 -1.22596 -0.706862
2847 1.81735 7.69459 1.83126 -1.91266 -0.152092 -1.04464
2056 3.07524 7.80422 2.22168 -1.60427 0.0708518 0.449776
2764 4.18911 7.71958 2.30007 -0.414733 0.86528 1.84633
213 3.62631 8.61285 2.52635 0.456588 2.27187 0.559185
1544 5.75489 8.5677 2.87632 -0.75634 -0.672246 1.46379
2291 7.18402 8.76449 2.46366 0.398715 0.0976903 -1.29604
671 5.97601 7.47539 2.5271 -0.775923 0.317994 -0.535779
2053 7.67473 7.77188 2.26919 -0.617809 0.796876 0.269929
130 8.8175 8.12869 2.5457 1.1824 0.350886 -0.733999
3656 7.85075 8.72742 1.64271 1.24992 1.35468 1.69206
1080 11.3741 8.18646 1.82443 -1.08794 2.28855 -0.585565
2856 12.1913 8.60979 2.1173 -0.351455 0.874169 -1.69184
707 13.1909 8.03166 2.90829 -0.944609 0.748882 -1.1607
2163 14.6721 7.6302 1.81606 0.633838 0.823568 1.50037
1154 14.0917 7.56328 2.76318 0.128216 -2.7154 1.03829
2161 13.8509 8.40574 2.25327 -2.5008 0.478197 -1.45522
742 15.2781 8.61086 1.60731 0.264994 -0.0277978 -0.337138
1990 15.9417 7.75257 2.20085 -1.18082 -0.0613583 1.75408
2783 16.5994 8.33345 1.49871 -1.07718 -0.154391 1.11837
1297 17.4448 8.02093 2.24467 -1.4419 -0.241863 -0.700321
339 16.6979 8.80971 2.38104 0.0183648 -1.21512 -0.162862
1138 0.273594 1.15468 4.37197 1.42839 0.731176 -1.5709
1464 0.169041 0.908792 3.42463 0.0466402 0.384726 -0.614417
2446 1.19279 0.737229 4.19551 -0.0805023 1.45787 0.96167
1438 0.379034 0.0242177 4.10015 1.56319 -0.026512 3.06962
2683 1.04394 0.137578 3.19617 0.34458 1.56682 0.43332
1221 2.31617 0.985406 4.18218 -0.0650869 0.353966 0.128739
3014 3.11006 0.652358 3.16231 0.0532424 -1.48413 0.0662907
54 4.43119 0.0532965 4.15232 -0.0254111 0.982587 -0.862013
10 4.59995 1.17158 4.27211 -0.976629 -0.652679 0.23045
1120 4.91955 1.29282 3.32349 -0.569411 -0.0680897 0.209188
1049 5.48908 0.113302 3.5595 -0.959983 0.850237 0.544005
2180 6.46048 0.863302 4.03681 0.0701714 -0.298848 -2.27999
2157 7.19976 0.15623 4.3278 -0.304746 0.723888 -0.117811
3471 6.93975 0.0841705 3.31957 -0.278174 0.256534 -0.147339
1284 7.58824 1.05628 3.88354 -1.08729 1.89122 1.49124
1150 8.82121 0.434538 3.22305 -0.286135 -1.12962 0.677071
1318 9.33013 1.08188 3.79042 -2.46671 0.0346985 -0.604338
3875 10.321 0.848303 3.56974 -0.220709 -0.0904154 -0.51607
334 9.81242 0.114559 3.10288 -1.36645 1.03018 -0.246228
2655 9.03111 0.187687 4.42497 -0.25028 0.507943 -1.83582
1303 11.1664 1.06405 4.10695 0.529892 0.419136 1.59367
3194 11.7802 0.699645 3.21396 -1.27903 -1.21174 -0.0193647
2716 10.9279 0.0437513 3.16339 -1.62134 -0.871775 -1.08859
876 12.2379 0.19074 4.28399 0.30188 -0.606664 0.498801
3575 13.0009 0.4725 3.56026 0.590284 0.293213 1.16379
1432 14.1735 0.502183 3.67907 -0.342706 -0.948034 -0.108906
75 16.351 0.722331 3.03374 -0.736884 -0.929806 1.16433
3034 15.9256 0.260815 3.91667 -1.8628 -2.52743 1.5397
3554 15.1552 0.85273 3.42125 0.54098 -1.78194 1.38
2084 16.4819 1.00443 4.03269 1.54778 -1.32924 -0.336138
3009 17.2783 0.521014 4.32163 -1.90169 0.291308 -0.0081392
2154 17.2094 0.158837 3.35842 1.1866 0.421139 -1.2028
1437 0.936269 1.49232 3.66602 -0.0928456 -1.54985 -0.6489
3920 1.032 2.64244 3.45681 1.22716 -0.835524 -0.13937
3023 0.524753 2.29266 4.39832 0.423185 -0.055466 2.06593
2620 2.90413 2.22682 4.42825 -0.184113 -1.13341 -0.0672019
1248 3.285 1.65437 3.51452 0.790369 1.49513 0.4733
2159 3.24742 2.67268 3.54039 -0.175177 -0.1653 -1.19466
262 5.24404 2.32418 3.40389 0.220848 -0.610265 -0.397001
2791 5.61835 2.80347 4.45534 0.666984 -0.238077 -0.282679
2537 5.61493 1.54187 4.33342 0.361414 0.163067 0.626313
1359 6.02466 1.69108 3.32022 -1.00468 -1.24016 -0.843832
3363 6.68549 2.25977 4.04871 -1.57658 -0.179791 -0.290164
400 8.38686 1.75341 3.3396 -2.28124 -0.419342 -0.17281
2854 8.27578 2.14007 4.33789 -0.45125 -0.564724 -0.313131
278 9.51535 1.94882 3.22805 2.56142 0.499084 0.203511
3443 8.9801 2.87088 3.74056 0.283424 0.243649 -0.685682
2288 10.5267 2.6311 2.98636 -0.836239 -0.914279 1.6838
1162 11.8247 2.52831 3.28982 0.275169 -0.307257 0.594158
3388 10.4899 1.92034 3.85722 0.394486 1.01026 0.138865
2060 11.2813 1.60266 3.15077 2.60964 0.276042 0.801476
2466 13.0793 1.58928 2.98376 1.46195 1.07895 0.532776
3930 13.1382 2.73092 3.61551 0.733325 -0.430069 -0.374349
3805 12.0276 2.89087 4.19568 -1.14039 2.34058 -0.463352
3515 12.0799 1.59033 3.69632 0.206972 1.55945 -0.966939
3330 14.203 2.66143 3.27437 -0.176783 0.643209 1.12031
968 13.7915 1.50986 4.07978 0.0330372 0.159374 0.470076
656 15.8328 2.45065 3.1786 -0.689555 -0.123878 0.967587
3697 15.4449 1.80887 4.02 -0.541048 1.06513 1.16776
1126 14.9971 2.94301 4.1437 1.21544 2.76485 -0.760845
1452 16.8675 2.8411 3.2495 -0.148271 -0.0358403 1.16374
2668 17.578 2.64013 4.0083 0.931429 -0.729988 -1.07543
1189 17.3086 1.50778 3.72422 -0.0481774 0.307464 -0.810764
2629 16.5211 2.09473 3.97637 0.553235 -0.810609 -0.457373
435 0.281618 4.46645 3.24822 -0.574016 1.03117 -0.482811
2935 1.25881 4.23875 3.54412 -0.139532 1.62128 -0.721871
48 0.106996 4.41481 4.31822 -1.62082 -0.379113 -1.69152
110 0.858786 3.50463 4.23712 1.09951 1.88844 -1.21888
3839 1.63962 3.31889 3.02004 -0.273543 1.07893 1.6399
3248 2.30115 3.12182 3.76609 0.193676 1.00319 0.927432
732 4.3982 3.17775 3.98791 -0.248583 -0.138066 0.283345
2243 3.35756 3.65574 4.14573 1.27779 0.147892 -0.126688
529 5.31421 3.793 4.26425 -0.237237 0.0531235 -0.131551
186 6.37429 4.04552 3.97351 -0.377797 -0.737765 0.197249
3234 6.76609 3.16128 3.51284 0.242771 -1.63375 -1.70564
666 8.51135 4.37103 3.86808 0.327104 0.194733 0.189469
382 7.73724 3.51516 3.65226 0.614649 0.468102 0.255617
1515 9.90026 4.21371 4.43048 -0.691542 0.42255 0.908619
669 9.89165 3.32131 3.55648 1.0181 0.366576 0.510124
2067 10.8708 3.90757 3.42858 -0.565945 2.01052 0.812313
2833 13.0178 4.24277 3.50676 -0.276371 0.492669 -1.72176
1329 12.0669 3.80099 3.55217 0.777811 -1.35175 -0.207554
2452 13.7977 3.5782 3.19585 0.556245 -0.831305 0.599786
3878 14.0416 3.42142 4.28159 -0.476782 -1.04891 -0.671961
1943 14.3843 4.29964 4.14236 -1.07026 -0.0152402 -1.19298
3118 15.5576 3.69343 3.63785 -0.31288 0.787233 0.477085
2366 17.4624 3.77025 3.65703 1.16812 -0.719512 0.997939
3651 0.971153 5.14759 4.14892 -2.00678 0.32854 -1.94474
2925 0.98432 5.29017 3.08849 1.00831 1.77865 0.290948
2952 0.0279194 5.35691 3.60054 -1.07374 0.492634 -1.25852
2115 2.51883 5.38577 4.34886 0.352774 0.615671 1.37978
1004 2.59371 5.50632 3.216 -0.623133 0.690765 0.984098
3424 2.59874 4.51519 3.68136 0.0949939 0.17478 -0.0261255
2283 3.74421 4.81566 4.25791 -0.812121 1.10271 0.483282
1993 4.42607 5.734 3.79471 0.0751022 -0.0951277 0.950411
1898 3.70683 5.03029 3.27227 -0.361284 0.623548 -1.69607
3083 4.59062 4.53818 3.42259 -0.387271 0.141822 1.25643
937 5.51871 4.81767 4.09089 0.349193 2.07016 -1.12186
1974 5.82296 5.80465 3.8791 -0.204336 -0.585225 -0.155757
1316 7.11313 5.51851 3.48384 0.514226 0.520637 -1.69568
1289 7.45052 4.53574 3.66026 0.784012 1.61249 1.93217
1930 7.97267 5.7204 4.11206 -1.75923 -0.418697 -0.258945
1426 8.45144 5.29606 3.18862 -0.325002 1.23616 -0.283577
1949 9.52182 4.58052 3.46211 2.35653 -0.0752064 0.271058
1104 9.07014 5.00191 4.42682 -1.4203 1.44762 -0.674961
1098 11.83 4.87476 3.84653 1.47068 -2.16861 -1.69966
3110 10.6098 5.33312 4.03127 -1.29915 2.87159 0.0937095
1773 13.2864 5.15131 3.04883 -0.35489 0.185665 -1.13316
1539 12.0954 5.72517 4.28903 1.31256 0.364348 1.36174
2277 13.036 4.95811 4.25558 -0.0425525 0.447592 1.82722
879 14.0344 5.17944 3.90483 -1.47264 0.509415 0.893277
125 15.5238 5.33529 3.16059 0.122492 0.0122516 -0.80681
2588 16.2859 4.62412 3.96483 0.227481 2.35868 1.01409
1922 15.0847 5.05063 4.09377 0.536647 -2.08965 0.39298
2116 16.4291 5.60867 3.49716 0.615953 -1.29798 0.319432
1231 0.227844 6.20522 3.36478 0.83032 0.371693 0.783565
3934 0.785695 7.00977 3.71869 -1.77734 -2.42866 1.57839
377 2.87508 7.01939 3.23354 -2.37529 0.00877009 0.306154
2596 1.83294 7.05839 3.37606 0.0527843 0.172921 1.63466
1517 1.9403 6.27602 3.94963 0.575322 0.154273 1.48688
1786 3.43905 6.12345 3.58546 -0.653417 -1.38453 0.392099
3207 2.99184 6.58308 4.3478 -0.263733 -0.125011 -0.0855817
253 4.11074 7.12899 3.56054 -0.0129439 -0.0185068 0.321015
3744 5.23023 6.90947 3.52448 1.01503 0.327372 -0.90809
1429 6.15113 7.30785 3.58943 0.696839 -0.0764769 0.920798
3301 7.10208 7.18043 4.10807 1.11595 -0.274781 -0.449937
1713 8.49637 6.62429 3.44463 -1.37981 0.809145 -0.919299
1131 10.347 6.17989 3.15782 0.632197 -0.370446 1.79661
2890 9.37736 6.08075 3.97747 0.523026 0.329255 -0.64847
1555 11.354 6.87683 4.12137 -0.0211884 -1.4094 0.559614
969 11.3297 5.99586 3.46488 0.0780636 1.30371 -0.0754089
648 10.4455 6.32478 4.3408 -0.263984 1.45376 -0.243575
2403 10.8976 7.20276 3.12962 -0.997095 0.355634 1.67788
247 13.0286 6.57873 4.22262 0.320675 0.726625 -1.3818
1799 14.4244 6.5189 3.96676 1.60222 -1.83291 0.618152
2234 16.3426 7.43642 3.1978 -1.55912 1.19195 -0.607967
135 15.5423 6.3257 3.69535 -1.80882 0.99484 -1.23931
609 15.5521 7.43351 4.05287 -0.0541295 0.351653 0.436878
373 17.4104 7.29068 3.28362 0.537948 -0.430966 -0.580127
1222 17.7707 6.65756 4.2388 0.807431 1.49384 -0.730813
520 16.5246 6.71139 3.96648 0.816811 -0.423064 -0.741696
694 1.46867 7.99163 3.88189 2.05387 -1.0482 0.271122
2123 0.405636 8.04351 3.4372 -1.35448 -0.61015 -0.737845
747 0.803996 8.81019 3.99976 -1.00288 0.484907 -0.800602
1923 2.51906 8.31324 3.14656 1.0978 -1.07452 -1.19218
2758 2.93738 7.80119 4.14367 0.0143415 1.04888 0.21646
1836 3.89595 8.21655 3.84097 1.10132 1.31688 -1.17372
55 4.47712 8.62158 2.9884 -1.50906 0.120719 -0.165654
3381 5.14688 8.91695 3.88954 0.503044 0.86106 0.975085
2480 5.17823 7.96746 3.58357 0.903418 0.311648 -1.55893
2503 6.98713 7.98575 3.32606 -0.340926 1.23006 1.94399
997 6.66635 7.96287 4.38243 -0.266904 -0.494028 -0.635789
358 7.53181 8.39938 4.01717 -0.66259 0.253574 0.549303
1159 8.77284 8.76316 4.19617 -0.166777 -0.0164041 0.0494242
3190 8.35085 7.65488 4.21318 0.659028 -0.461847 1.19916
1798 8.11422 7.68989 3.18225 0.146924 -0.38797 -0.397738
1328 7.95372 8.6982 3.1023 0.417733 -1.47914 1.23921
2009 9.09458 7.92229 3.55979 0.443458 -0.381424 0.337781
2846 10.0035 8.50744 4.15509 0.400131 0.359267 0.925094
1588 9.79679 8.39517 2.99336 0.0308557 1.19851 -0.533599
2842 11.5231 8.69571 4.34448 -1.72041 -1.26973 0.808657
1195 10.9001 8.32919 3.06814 0.777598 -2.08295 2.04687
255 11.3483 7.8175 3.82883 0.559498 -0.143784 0.404488
3655 12.4844 8.09779 3.75962 -0.0220798 1.06573 -0.445144
77 13.2168 8.83874 3.5451 1.25422 0.000440486 -0.597
3383 14.1957 7.58585 3.8187 0.0279618 1.08734 -0.126552
2695 14.124 8.44096 3.24105 -1.60117 -0.905481 0.501034
1260 13.432 8.15198 4.29575 -0.690353 0.688689 0.998374
2614 15.0601 7.59211 3.12807 -0.183582 0.84705 -0.961731
2983 16.0335 8.42424 3.40911 0.858944 2.27785 0.853206
1674 17.2265 8.4456 3.18743 0.524614 0.328608 -1.09851
3989 16.6579 7.86509 4.19165 0.225398 0.136019 -0.127348
2518 17.7061 7.68365 4.37128 1.41356 -0.235532 -0.789017
3872 0.263243 1.14031 5.59233 0.167189 0.671829 -1.34608
1306 2.60139 1.19819 5.1494 -0.125241 -0.536104 -0.197135
2600 2.4858 0.554487 5.90867 -0.542096 -1.48975 -0.763081
1914 1.6457 0.90418 5.38624 0.476321 -1.33726 1.09275
1550 3.43537 0.140236 5.55271 -0.252558 0.533754 -0.10684
2859 3.46487 0.5393 4.48505 -0.80277 -2.11039 -0.148308
381 4.21061 1.05063 5.75113 0.51487 1.275 -1.71961
3084 5.2943 0.673923 5.85154 0.0401934 0.798842 -0.572208
1576 5.53767 0.217207 4.59927 0.128784 -0.594618 1.47322
870 6.36037 1.00478 5.46999 0.669151 2.48263 -1.11234
2028 8.54424 1.04756 4.68299 0.916072 1.4185 -0.498972
3392 8.55544 0.459495 5.87763 -0.332044 -0.692223 -0.514431
3628 7.51593 0.597811 5.21491 1.9308 0.0585565 -1.29149
810 9.95849 1.14642 4.65892 -0.24265 1.08496 -1.25491
2702 10.1076 0.0746326 4.63243 0.636231 1.16453 1.4307
3587 10.8164 0.769532 5.14125 1.64029 -0.320523 -1.26243
3951 13.3608 0.493093 4.62188 0.579865 1.66551 -0.900676
3733 12.4976 1.48269 4.5471 -1.90124 -0.754204 0.0591549
3447 12.8693 0.694289 5.63291 -1.90141 0.901504 0.0238305
1385 14.1643 0.0524726 4.91636 -0.554997 -1.48028 0.137068
2236 13.9787 1.06176 5.33484 0.43913 -1.46709 -0.230207
3269 13.8295 0.307802 5.92936 -1.67647 1.74768 -1.27098
3683 16.1747 0.745782 4.91923 1.18171 -0.503304 1.77736
1331 15.2965 0.881726 4.47127 -1.15439 1.6497 0.868475
1434 15.2142 0.430371 5.39666 0.346769 1.81967 0.307618