ITEM: TIMESTEP
44000
ITEM: NUMBER OF ATOMS
4000
ITEM: BOX BOUNDS pp pp pp
0.0000000000000000e+00 1.7878070701931353e+01
0.0000000000000000e+00 1.7878070701931353e+01
0.0000000000000000e+00 1.7878070701931353e+01
ITEM: ATOMS id x y z vx vy vz
2176 0.699587 0.530305 0.671509 0.543545 -1.84998 1.50657
1138 2.85951 0.368467 0.954818 1.439 -0.948698 1.46163
1197 1.6422 0.366329 1.29996 -0.910569 -1.28084 0.528609
2638 1.67906 0.694338 0.183957 -1.33274 1.17486 -1.47783
3720 4.21214 0.655938 0.50998 -0.229007 1.69634 1.59388
423 3.68723 1.31574 1.44208 1.16176 0.967925 0.891556
173 5.14262 0.251505 1.1448 -0.137512 0.582823 0.521513
2231 5.2621 0.495182 0.21315 0.107219 -0.392662 0.38178
428 7.11932 0.487835 0.292814 -0.305226 -0.744084 0.242598
3923 6.14275 0.541724 0.715676 1.68679 -0.783176 -0.763903
3074 7.00451 0.638712 1.43824 1.29993 1.18221 -1.05727
7 8.64045 1.13424 0.0728101 -1.13706 -1.30851 -0.140942
3077 7.98641 0.899112 0.897948 1.3889 1.69048 0.321405
1152 9.17761 0.759598 1.03855 -0.614455 2.5111 1.72799
3779 11.6497 1.15096 0.591563 2.2961 -0.37783 -0.226498
3663 10.7415 0.791936 0.839897 -0.257269 0.854796 0.00714536
422 11.6552 0.114598 0.938744 -0.505725 -0.898643 -0.0554703
447 13.0821 0.490777 0.911343 0.547002 -1.80304 1.07123
435 13.9548 1.47859 0.659056 -0.407212 1.11389 -0.0718418
1771 14.1056 0.479045 0.873197 -2.00302 1.97017 0.459835
1445 15.7998 0.649848 1.38175 -0.472203 0.311467 -0.211648
2397 15.1536 0.895242 0.648373 0.0829164 0.373764 0.633618
35 16.4587 1.4565 0.988813 -0.476366 0.719486 -0.0169137
1024 17.8599 1.0894 0.172237 -2.14814 -0.388776 1.78556
790 17.13 0.557789 0.682978 1.23445 0.147653 -0.261881
1128 0.263163 2.49945 0.0182096 -1.41146 1.24468 -0.117349
2650 0.760397 1.70738 0.691571 0.692399 -0.906866 -0.147279
2968 0.968736 2.76272 0.834511 -1.70375 -0.0651371 0.442421
2042 2.5287 1.57166 1.28734 -0.00396184 -1.09898 0.0515833
376 2.3528 2.79081 0.546315 0.536323 -0.0128845 -0.499335
230 1.94867 1.65802 0.489328 -0.681028 -0.132298 -0.403549
86 3.1989 2.48402 1.42034 -0.158748 0.810202 0.775801
2140 3.58473 2.14734 0.422713 -0.735673 -1.62867 -1.50763
3608 5.55446 1.50918 0.163116 0.753648 0.295659 -1.26472
3216 4.97248 1.55032 1.02163 0.0569337 1.72645 0.715622
1941 5.5322 2.88576 0.681758 -0.529066 0.525703 0.716344
3066 4.57959 2.43198 0.0158485 -1.42166 1.80887 0.0983323
2160 6.49589 1.71621 1.04251 0.263581 -0.181348 0.610448
155 7.2637 2.90422 0.681752 0.179205 -2.07301 0.569007
1533 6.56935 2.32649 0.200483 0.126254 -0.825982 -1.5181
1903 7.55259 1.79529 0.359165 -2.02356 -1.67384 1.27305
1956 8.17652 2.36202 0.906876 0.363138 -0.785109 0.827272
834 8.65487 1.59427 1.36131 0.311225 -0.443845 -2.03828
1899 7.45757 1.71258 1.39343 -1.55648 0.67754 0.372153
1333 9.24798 2.12903 0.150543 -0.287463 -0.683992 -0.300779
2698 9.48772 2.44914 1.17325 0.155016 0.807732 0.75391
947 10.286 2.57039 0.481809 0.279162 -1.30052 -0.400462
2246 9.88258 1.51865 0.987542 0.663589 3.29935 -0.296775
3716 11.2882 2.30984 0.229588 -0.679565 -1.98963 -1.11508
1833 11.5264 1.94397 1.31654 0.933673 0.403875 0.985545
114 12.3848 2.8761 1.02993 -0.00383688 -0.280326 1.46092
1202 13.0863 2.36403 0.357924 1.48072 1.67934 -0.622046
891 13.3868 2.32563 1.31675 0.491213 -1.73619 0.814077
2220 12.5649 1.51891 0.859233 1.10916 -0.945028 -3.08086
1081 14.4021 2.50811 0.871031 0.540675 0.746492 0.273998
474 15.3624 1.87704 1.43944 1.67654 -0.522158 1.56188
1741 17.6896 2.90594 0.950814 1.47789 1.87263 1.02849
1438 17.6471 1.62523 1.23305 0.00653817 -0.237795 -1.31711
3951 16.4051 2.56728 0.8447 0.56527 -1.13675 0.508264
1571 0.925267 4.07081 0.982748 -0.897635 -1.65702 -0.350326
3023 0.379684 3.49061 0.201059 -0.00972307 0.491424 0.690404
3836 1.51638 3.34838 0.0861334 0.536123 0.43662 0.50236
3841 2.37083 3.78781 0.682151 1.30102 0.379611 -0.935533
510 3.36697 3.55894 0.236974 -0.197225 0.144784 -0.756374
1743 3.76781 3.7397 1.18716 0.870043 0.514181 1.29863
3767 5.02627 4.23037 0.782036 0.48687 1.13679 1.60716
382 4.64711 3.42376 0.200403 1.99388 0.23247 -0.254674
3391 6.20565 3.82389 0.940811 -0.927278 -0.717497 -0.218464
1877 6.81351 4.12104 0.148274 -0.290106 -0.521346 0.525604
2808 7.04893 4.45535 1.44398 2.43159 -1.82262 -0.086384
3882 8.51763 4.45311 1.18734 -1.42593 -1.02643 -0.193631
812 7.70725 3.98386 0.703942 0.77228 -0.411939 -0.743245
508 8.49171 3.25887 0.434258 0.147477 0.465613 1.37153
2803 9.42042 3.5304 0.181182 0.90412 1.11939 -0.0565749
498 11.8762 3.96853 1.3702 -0.129714 0.973073 0.342815
1645 10.9624 4.00654 0.82343 0.854687 0.0367601 -1.33082
3592 11.2971 3.06672 1.48766 -0.130044 -0.334753 1.25241
1356 12.8315 3.58546 0.384053 -0.839997 -0.395512 0.813287
871 12.9681 4.31808 1.16778 -0.9896 0.325285 -0.609723
667 11.9835 4.41916 0.502905 -0.718127 -0.273919 0.954386
2056 13.9052 3.40123 0.778442 -0.0314979 -0.754285 -0.416945
1758 14.6597 4.21963 0.878531 0.94523 0.248177 -0.345646
2314 13.8491 4.34321 0.127494 0.420558 -2.9028 -0.282965
2066 15.3537 3.58665 0.509734 0.651471 1.15503 -0.231589
575 16.3737 3.51521 1.35529 0.710843 1.31717 0.194924
3981 17.1097 3.57494 0.563643 -0.696064 0.897247 0.379956
1215 17.7268 4.29898 1.28419 0.32943 -1.11229 -0.393441
1942 0.72218 5.0259 1.35828 -0.822249 -1.21667 0.799472
3311 1.45957 5.5541 0.525068 1.72235 -0.584477 -0.143079
694 2.16152 5.03047 1.01405 1.4751 0.520008 -0.441949
2935 2.64372 5.58023 0.175671 1.15997 -0.873697 1.05224
732 3.23963 5.58347 1.00112 0.271039 -0.123868 -0.514166
3336 4.06172 4.87703 0.830031 -1.43352 1.59891 0.884766
1780 3.16465 4.60434 1.46382 0.219551 -1.05884 -1.87602
2016 3.69453 5.49477 0.0359945 -0.43096 0.210647 -1.90359
2727 3.00343 4.58884 0.435261 -1.132 0.504963 -2.1236
3607 5.64724 5.90329 1.40308 -0.855592 -0.464098 0.445398
2514 5.6562 5.72523 0.250354 -0.95633 0.156187 0.0703796
511 4.72074 5.57875 1.07821 -0.262844 -0.973918 -0.0688753
724 5.87734 4.75696 0.863494 1.09198 -1.22268 0.136775
3901 6.77457 5.64381 1.14058 0.116334 -0.22783 0.754571
429 8.49594 5.78793 1.14903 -0.225575 -0.0314892 0.0792606
1236 7.74257 5.09158 0.397986 0.728113 -0.62894 1.94453
2668 10.0608 4.49528 0.448978 -0.433783 -0.321281 1.43411
279 9.59273 5.18516 1.25079 0.466211 0.277751 -0.350948
3455 10.1467 5.95026 0.362736 1.41197 -1.48227 0.495148
1434 10.5019 5.62719 1.48369 -0.03522 -0.349012 -1.98816
1162 11.1355 5.17265 0.728374 1.32944 0.478573 1.64738
1446 12.962 4.98298 0.116379 -0.447684 0.0929765 0.611022
3787 13.6827 5.42141 0.831076 -0.0915771 0.289033 -0.20046
2076 14.9666 5.41899 1.00244 1.83299 0.142163 0.792913
1754 16.1071 5.67085 0.422919 -1.22784 -0.575019 -0.316423
1470 15.0611 4.78397 0.0692587 -1.01955 1.09443 0.405349
2657 15.8652 4.48884 0.872349 -1.45332 0.235443 3.33998
3166 16.8334 4.75447 0.614808 1.38464 -2.33052 0.542547
1312 17.8729 5.26668 0.631808 0.208968 0.772349 0.189488
1429 0.87995 6.81936 1.35991 0.0756428 -1.92936 0.163624
1115 2.72005 6.98802 0.222729 -1.41271 -0.254019 -0.778824
1837 1.99804 6.52569 1.17436 -0.96567 1.22163 -0.42703
369 1.61307 6.76771 0.136569 -1.64376 -2.31169 -0.235082
77 3.09741 6.92764 1.43551 -0.277659 0.585313 0.256176
380 4.19138 7.39724 1.14243 -2.47217 0.241109 -1.01331
2577 3.90016 6.34975 0.630293 0.930384 -2.41919 1.83662
1316 5.68671 7.43527 1.35223 -1.85008 -0.264931 0.400742
1802 4.94063 6.67165 1.06962 1.83336 -0.984559 0.0328841
3484 4.63439 7.15689 0.179056 0.0939848 0.956299 -1.22608
1019 6.75428 6.73281 0.793767 -1.08314 0.932696 -1.34086
98 6.0999 7.41896 0.303592 -0.671326 1.31381 -1.00512
3320 7.85467 6.21792 0.475758 -0.389226 -0.16802 -0.439879
3911 8.22447 7.03602 0.922865 0.0294945 -0.266901 -0.474436
2366 9.2368 6.60576 1.46103 -0.223312 -0.172016 1.06193
2936 10.4041 6.83803 0.969474 1.65614 2.2651 -2.38505
1806 9.20946 6.56085 0.254762 -2.09393 0.22163 -0.0951679
1010 12.2425 6.74741 1.3207 1.67197 0.309718 -0.0481632
410 12.3368 6.92267 0.280708 -0.507717 0.0384059 -0.664089
273 13.1738 6.38328 1.11987 1.01476 0.346816 0.195772
2202 13.0396 7.43754 1.04677 0.364287 -0.318752 -1.06311
3885 14.3551 7.17995 0.379233 0.288843 0.597329 -1.8909
1494 14.1672 7.31483 1.39798 -0.284211 -0.349566 1.4527
19 14.2787 6.25275 0.847804 1.35187 0.0342685 -0.348541
978 16.3022 6.77362 0.815518 1.09661 -1.46056 -0.289477
1659 15.3738 6.38393 1.14688 -1.37459 -1.12942 -0.780837
3878 17.1758 6.05923 0.861852 0.395228 -0.047858 1.98563
964 17.8713 6.8131 0.641636 -1.893 0.547101 -0.805925
3940 1.01336 7.52945 0.685581 1.36933 1.10084 1.08374
2849 0.194689 7.69858 1.39749 -0.0801618 1.68874 -0.408675
1836 0.798905 8.66223 0.85757 -0.0465921 0.529427 -0.558252
661 2.05188 7.69655 0.511041 0.216611 -0.0380233 -0.609726
1861 3.23028 7.77204 0.884212 0.645496 0.442456 0.672291
1607 4.29135 8.28076 0.352754 -0.478821 -0.417338 0.836475
1963 3.20659 8.81664 0.562529 -1.09011 1.09691 -1.56703
1575 5.36877 8.08915 0.44637 0.924965 0.922549 0.801967
1902 4.8496 8.31881 1.4247 -0.356317 1.49128 -0.815117
2479 7.1088 7.52105 0.287352 -0.0168557 0.730088 -1.66664
2230 6.64784 8.15107 0.981862 -0.711345 1.39776 -0.488411
738 7.82238 8.29581 0.478901 -2.49176 -0.273798 -0.18706
2980 8.2448 8.07864 1.38382 0.765155 -1.25268 -0.256152
3756 8.82805 7.67415 0.269599 -0.103579 -0.262421 -0.624688
3967 10.0504 8.05257 0.795837 0.245542 0.724761 0.169088
686 11.666 7.69228 0.900609 0.210263 -0.599645 -2.07513
345 11.3886 8.74157 0.623417 0.213075 1.78315 0.749448
2631 12.7692 8.63897 0.851768 -0.684218 0.935879 0.837501
466 14.1367 8.54546 0.948279 0.1754 -0.294658 0.60959
1004 15.2736 8.45925 1.37296 -0.898217 -0.0647106 -0.969769
1151 15.2358 7.64656 0.593088 -0.578129 0.422192 -2.11665
1421 17.6557 8.59411 1.15429 0.700966 2.17526 0.533291
3033 16.5692 8.88554 0.347712 -1.90454 -1.3244 0.835565
1801 0.45736 1.09477 1.7879 -2.44482 2.25715 0.357255
2282 0.1695 0.711774 2.68614 -1.52771 2.01778 0.534206
3075 1.04468 0.275331 2.19168 0.578703 1.09572 1.01449
819 2.23123 0.824187 2.07645 -0.187104 -1.0815 0.473592
918 3.34451 0.337782 1.82974 -1.09437 1.05067 -1.17498
2845 3.97721 0.662836 2.87154 -0.139467 -0.416593 -0.423617
1047 4.93566 1.42861 2.96402 -0.264243 -1.26832 -1.16622
2348 4.71473 0.940667 2.02056 0.477043 -0.210948 0.401723
2925 5.89978 0.932736 2.66349 0.0451188 -2.1307 -0.981083
2568 6.67537 1.47614 2.16149 -1.07775 -0.232815 -1.33038
1118 6.01813 0.435864 1.80705 -0.198856 -1.56427 -0.260912
2237 7.52748 0.907077 2.72138 1.20865 0.458041 0.92066
1631 8.8173 0.148061 2.5463 0.0522932 -0.917464 -0.799795
1390 7.81046 0.260219 1.82228 -0.365859 -1.35001 0.130104
1126 10.117 0.781905 1.94031 0.407867 0.932615 1.09284
3048 9.21756 1.432 2.22676 -0.11879 -0.0207525 0.743068
2856 11.1288 0.75641 1.82331 1.40707 0.0279164 0.58003
1026 12.1167 0.845716 1.93157 -0.0806247 -0.636007 -1.75845
747 12.78 1.20328 2.58042 -0.702434 -1.86053 0.103628
946 13.2659 1.31853 1.66829 1.17649 -0.491226 0.786648
3040 12.9571 0.188825 2.2389 1.1711 0.738429 0.26218
108 14.2803 0.253359 2.49009 -0.282958 0.634573 1.18096
2836 14.3044 1.1317 1.62985 1.74911 0.675392 -1.88149
2329 13.8118 1.34787 2.74887 1.35468 1.08271 -0.538616
2313 15.0094 0.963579 2.40674 -0.485579 -0.4004 0.305691
1457 15.9756 1.44907 2.29016 -0.665795 -0.320183 0.784216
3089 16.2007 0.47494 2.53379 -0.269353 0.803164 -0.0283347
3842 17.267 1.48228 2.38386 1.01542 -0.869084 1.54763
2636 16.9072 0.695713 1.75485 1.3099 0.144952 -0.185701
851 17.2543 0.0240609 2.37474 1.03183 -0.0922121 1.53464
3928 0.480584 1.83551 2.9359 1.2044 -2.67552 -0.716724
1853 1.2551 1.5987 2.23974 -0.601702 -0.785919 -1.46553
1319 0.45874 2.3132 1.66799 0.129594 0.748582 -1.11164
3182 1.04928 2.66029 2.67986 0.157233 -1.01714 0.140438
350 1.85906 2.35747 1.69338 -0.782635 -1.44333 -0.328058
2243 2.92091 1.85247 2.19812 0.745463 0.809349 0.152346
2635 4.11552 2.94722 2.56436 -0.139255 0.667788 -2.24904
3482 4.32491 2.29979 1.61208 1.1176 0.301562 1.78816
3271 3.83169 1.71144 2.45284 0.569548 0.981322 0.126088
2791 5.91356 1.95576 2.93041 -1.16868 0.175197 -1.01564
3090 5.60488 1.68789 1.75921 -1.12777 1.31466 0.582729
2268 5.19096 2.58577 2.32989 0.283798 2.48436 -1.96974
3248 6.83318 2.37028 2.64859 0.0551477 -0.386778 3.87054
455 6.16337 2.58529 1.66775 2.27447 0.861693 -1.04667
312 8.11215 1.73589 2.2718 -0.905263 0.556684 0.890904
3049 7.80606 2.8363 2.3775 -2.4448 -1.84767 0.11624
1900 10.3384 1.66971 2.57036 -0.246764 0.743426 0.649043
2716 11.1643 2.30714 2.2145 0.218009 -0.224404 0.0515283
703 11.7721 1.57072 2.57163 -0.491914 -0.0488035 -1.03339
2905 12.4592 1.91701 1.84475 0.87048 -0.00653278 0.553445
1075 13.3837 2.35822 2.42858 0.293799 0.361719 2.68916
3740 12.1708 2.56884 2.6366 1.00634 0.5094 1.42765
3780 14.5891 2.07748 2.24194 1.3606 0.223665 0.132677
674 15.8387 2.78918 1.97591 0.407971 0.434088 -0.374184
2710 17.0489 2.56379 2.04033 2.12361 0.971894 0.503733
3664 0.0721266 3.38958 1.86741 0.395221 -0.789609 0.0758016
568 1.2147 3.57145 1.79386 0.251427 -0.391707 -0.525288
3124 0.314555 4.31022 2.59433 0.844275 0.0850515 -0.356424
3618 2.57822 4.22754 2.57787 -1.34114 0.217517 1.52857
3362 2.8015 3.50622 1.61393 -0.388653 -0.309283 1.0796
3386 2.19488 3.24708 2.30608 -0.891495 -1.48048 -1.55576
1534 1.49877 3.95508 2.69023 0.780174 0.218956 -0.125697
3933 4.25523 4.37183 1.80359 -0.387246 -0.2995 -0.632111
987 3.56492 3.92221 2.84736 0.228578 -2.48913 -1.41683
1776 4.71387 3.43483 1.5635 -1.12785 1.47529 0.202263
752 4.68832 3.79409 2.64038 0.0636527 -1.09907 -1.50653
492 5.70899 3.49173 1.91427 0.181238 1.87859 1.25526
2167 5.79443 4.00745 2.89209 0.899391 0.0103787 0.69616
3641 6.64462 3.45771 2.46638 0.385863 0.696765 0.130507
1905 7.20536 3.00499 1.62582 0.738181 -0.622971 1.05766
2347 8.02613 3.843 2.42227 1.83345 0.439111 1.54609
652 8.44703 3.17472 1.5612 -1.70928 -1.01651 -0.454216
1220 9.34974 3.7772 1.67534 -0.662026 -0.234393 0.493089
3211 9.09928 3.25472 2.63847 -1.54505 -1.43972 -0.356205
2750 10.2913 4.12427 1.97537 -0.631507 -0.320122 -2.01037
1500 10.2002 2.99656 1.93215 -0.16176 0.329369 1.73529
1785 11.191 3.58865 2.55655 -0.549254 0.828512 0.680148
2622 12.1344 3.34753 2.10121 0.274608 -0.0407957 1.89352
1513 13.1413 3.37368 1.64622 0.291818 1.1425 -0.774578
1258 13.0348 3.41088 2.89261 0.981234 -1.21298 0.565488
3637 14.8086 3.01115 2.6452 0.634138 0.664638 -1.63536
2724 14.2923 3.68588 1.96942 -1.65345 -0.157453 0.0552296
441 13.4562 4.31741 2.407 1.1273 0.716194 -1.75392
3364 15.1786 3.4403 1.57364 -1.53166 0.848004 0.56669
1878 15.9948 3.84184 2.39858 -1.71464 1.22201 -1.77026
2301 17.109 4.04827 2.34413 2.33459 -1.90848 0.491949
1611 1.33356 5.67018 1.7154 0.0860072 0.0467477 -0.965401
3083 1.00669 5.27069 2.64736 0.719163 -1.63968 0.0035991
238 2.35001 5.31219 1.95768 -0.933542 -1.16969 1.6981
3690 4.05868 5.49252 1.92489 -0.047431 0.24205 0.410088
3449 3.29497 5.03506 2.41966 -0.781197 -0.228919 1.87372
2455 4.39208 5.68895 2.93958 -0.507557 0.517841 -0.070082
3699 5.36304 4.68059 1.74131 -0.227776 -0.907808 -0.939581
2746 5.36263 5.39264 2.61864 1.03305 -2.2468 -0.133754
1175 6.24569 4.83305 2.41832 -0.205472 -0.366125 -1.57781
3376 7.34759 5.7386 2.17329 -0.0696976 0.58736 -0.0644586
3301 8.3117 5.8588 2.91186 -1.29023 0.868854 -1.57975
1967 8.56635 5.03066 2.17579 1.05635 0.232537 0.149203
708 7.97717 4.85735 2.97763 0.292228 0.854056 -1.00512
2289 9.45882 5.68992 2.28629 1.01867 -1.08381 -1.07348
58 11.7115 5.02464 1.6582 0.841368 -0.60673 -0.257544
1164 11.2825 4.85521 2.65234 -0.370829 2.3865 -0.725175
3613 12.4211 4.87711 2.53045 -0.29972 0.0596424 -1.82609
656 14.0336 5.15011 1.96071 -0.465632 0.821784 -2.55558
174 14.9558 4.65192 1.81818 0.20968 0.654121 -0.450196
3560 14.9618 5.81825 2.0134 1.34703 0.416151 0.285606
1757 15.528 4.7409 2.64086 -1.03864 -0.837873 -0.135823
368 15.9357 5.71253 1.64547 -0.316131 0.0210035 -0.654748
316 16.3182 5.64279 2.89736 0.838501 -0.376261 0.26827
1320 17.0626 5.92658 2.05548 1.17364 0.414311 -1.21004
1733 16.7111 4.86616 1.81576 0.269314 -0.244779 -0.679023
2499 17.6736 5.2634 2.67906 -0.416379 -0.81481 0.733588
2847 0.548481 6.34837 2.81423 -0.624234 -0.862316 0.852579
87 0.0863561 7.28901 2.46374 1.44181 1.01599 0.138816
3934 2.38524 6.55486 2.59013 0.18654 -2.40407 0.856595
426 3.86846 6.87379 2.22643 -0.901824 1.69106 -0.437282
2335 5.71246 7.07716 2.66621 -0.193291 0.148515 0.26043
1710 4.85652 7.43435 2.12785 0.604878 0.363985 -0.412327
3051 4.90749 6.30624 2.2709 0.628463 -1.01675 0.402596
1309 7.23509 7.37179 1.52115 0.400438 0.0569258 -0.305106
2417 7.39303 6.44055 2.97672 0.0364059 0.178278 0.136293
1455 6.67219 6.41605 1.80011 1.17515 0.84003 1.52476
448 8.1199 6.62205 1.92945 -1.5448 2.09944 0.167202
3101 7.63913 7.39567 2.62575 1.36501 -0.321666 1.38859
1262 9.00835 6.80222 2.37803 1.08417 0.136329 1.13475
3585 9.98915 6.45581 2.82708 -0.325455 -1.07065 0.405116
1940 10.8591 7.11282 2.75674 0.105831 2.09641 0.150083
3401 11.4262 6.46721 2.09365 -1.49833 2.14235 -0.846754
2956 12.7283 6.39054 2.66464 0.748437 0.330124 0.51457
1834 13.8672 6.08206 2.32289 -1.24808 -1.12839 0.381724
392 14.6785 6.76526 2.7415 0.344277 1.33921 1.15677
3650 15.4177 7.13813 1.89815 -2.20541 -1.22185 -0.242923
307 15.7496 6.68639 2.88753 0.981745 -1.35424 -0.0971989
1976 17.4921 6.75796 1.69283 1.49583 0.562757 1.08967
525 16.6081 7.17883 2.29443 0.945721 -1.42732 -0.801341
1851 0.527837 8.42957 2.29969 1.11726 -1.82295 -1.80904
3224 2.86371 8.80793 1.67781 -0.477753 -1.68091 0.98936
241 2.01634 7.98401 1.62629 1.38921 0.367175 -1.66782
184 3.65341 8.83625 2.41811 -0.917209 -0.731274 0.19551
2693 3.75556 8.45882 1.49207 -0.225957 -0.699223 0.440613
1286 3.02507 7.8562 2.06382 -0.122202 -0.0219427 1.4879
1926 3.80782 7.88686 2.77381 1.30572 1.03607 -1.60286
3308 4.65077 8.44137 2.57107 1.65892 -1.66389 -0.868894
2283 5.75871 8.28371 2.71575 -1.14464 -0.596725 1.28909
2227 6.97687 8.40022 2.59125 0.390142 -0.472901 -1.13358
1763 6.41394 7.49035 2.15313 -0.287268 -1.52035 -0.86929
3416 8.44496 8.38119 2.39019 0.658811 -0.526358 0.136853
2503 9.24358 7.92647 1.77926 -0.227262 -1.25644 -0.960316
1420 9.52332 8.24199 2.78078 2.19059 2.04752 -1.84564
2406 10.456 8.12716 2.39308 0.431841 -0.55919 -0.210934
2336 10.8599 7.8523 1.51304 0.171672 -0.348654 -0.535218
2013 11.72 8.46161 1.76773 1.466 -1.02173 -0.975568
1342 12.4035 8.80319 2.79246 0.697143 0.693421 0.212219
2443 11.9621 7.51098 2.03533 -0.103665 -0.104994 -1.28673
1814 13.1225 8.67026 2.0336 -0.731543 2.60606 -1.16833
280 13.1586 7.62411 2.17182 -0.196995 0.132384 -0.194415
477 14.0096 8.14965 2.15845 -0.758514 0.294097 -0.460606
2002 14.8973 8.72448 2.38638 -0.0373404 -1.19828 0.444884
557 15.7445 7.81202 2.67216 1.84069 1.14524 0.41177
1159 16.5221 7.86878 1.61428 0.826069 0.565606 0.154858
2761 17.227 8.35725 2.24372 1.00818 -0.374821 0.127221
2164 0.768443 0.252493 3.34423 1.29416 0.12935 1.02043
529 0.236286 0.766196 4.12286 1.34556 -0.0831033 -1.04586
198 1.97422 1.17698 3.06219 1.07942 0.0470059 1.32144
2460 2.96351 0.32705 3.13942 0.764816 -0.146312 0.653446
2748 1.5912 1.20509 3.98668 1.18263 -0.704575 0.966908
1985 2.67197 0.871047 4.04422 1.6712 -0.233419 -0.215581
901 4.35599 1.3341 4.14982 1.80158 0.223862 -0.23357
3388 3.616 0.531682 4.03011 0.428316 0.538729 1.16977
1550 3.4762 1.4802 3.47523 0.316605 -0.923663 0.0410895
277 5.01071 0.0683075 4.20077 -0.113344 0.261023 -1.32021
973 5.12546 0.453717 3.19163 1.39988 0.663059 1.48464
294 5.39764 1.11282 3.98626 1.0404 -0.693422 0.723446
854 7.3731 0.0984199 3.47384 1.06089 1.34033 -0.276744
3029 7.17718 0.583805 4.43383 0.471469 0.393488 -0.877595
1063 6.47104 0.992089 3.73668 0.0349573 -0.959549 1.25772
672 8.22261 0.670545 4.04034 -0.634437 0.358779 -0.189093
3356 8.82219 1.09583 3.1006 0.605577 -1.48671 0.920471
562 9.87701 0.726981 3.03462 1.55157 -0.429118 -0.629438
748 9.32006 1.31212 4.15302 0.624713 -0.512009 0.0430933
3688 9.39376 0.0312181 3.61932 1.25498 1.5388 1.70772
3045 10.8962 1.28787 4.3697 -0.977581 0.575258 0.652485
3500 10.4644 0.246276 4.14007 0.400554 -0.700578 0.579829
734 10.9514 0.684355 3.18682 -1.21415 0.245239 0.343525
1596 13.0363 0.526634 3.62753 1.30832 -0.641659 0.300827
3994 12.0055 0.911521 3.36652 -0.921265 -1.57734 -0.665086
2828 13.0991 1.40747 4.08417 -0.569797 -0.326841 -0.93971
662 14.0854 0.726774 3.48129 0.298586 -2.3482 0.370105
1505 14.8518 1.35164 3.73203 -0.386414 1.49097 -1.60591
2917 16.2493 1.24716 3.22284 -0.109434 1.01214 0.758669
644 15.4525 0.307386 3.32582 -0.543499 -1.12518 -0.659065
1129 15.748 1.18424 4.40812 0.0379219 0.0557014 -1.0427
1059 16.7496 1.46437 4.28193 0.896018 -0.794131 1.34265
1042 17.0228 0.183926 3.81615 0.571071 0.083994 0.550171
1157 0.175508 2.4132 4.04857 1.32525 -0.0472167 -1.68591
857 1.13368 2.19725 3.76877 -0.51355 1.63968 -1.33735
2163 1.92605 2.68783 3.43973 -0.464253 0.624358 0.731219
1805 2.50076 1.94914 3.8904 -0.348856 0.626553 -2.28021
3438 2.92994 2.82262 3.06007 0.188756 -0.0621185 0.0672279
2532 4.23627 2.13528 3.38464 -1.62137 -0.710813 0.655136
705 3.41357 2.13172 4.35139 -1.26006 1.20325 0.0836691
2065 6.80824 2.22007 3.61468 0.605024 -0.115364 0.285545
387 6.02728 2.62628 4.38153 0.690254 1.13632 0.711004
2535 7.66424 2.95721 3.53369 -0.215155 0.140853 0.618651
2611 7.59437 1.64762 4.26916 -0.49937 2.13016 -1.67713
3983 9.83794 2.80204 3.41699 0.634341 0.241613 1.58098
1657 10.0298 1.76411 3.69658 1.24663 0.195043 1.1576
2838 8.99839 2.19396 3.12036 -1.51148 1.25663 -1.7153
1604 9.43596 2.3818 4.22736 -0.0421621 -0.789493 -0.345274
1750 10.875 2.52118 3.19472 -0.702766 -0.234241 1.25406
370 11.968 2.71457 3.65564 -1.3113 -0.171911 -0.252672
3792 11.9664 1.66006 4.2763 -1.25555 0.944746 1.08915
3146 13.3625 2.80425 3.76815 1.31195 -0.434981 -0.512513
1452 14.2348 2.14818 3.37625 0.550793 0.959695 -0.177222
3698 14.0828 1.97494 4.4385 0.403061 0.311034 0.191337
651 14.5873 2.83122 4.0599 0.208513 -0.333869 0.475873
3605 15.4246 2.20187 2.99015 0.102755 0.710097 0.540769
2201 15.6682 2.19029 4.18194 1.02336 0.834921 0.0555638
3154 17.4011 2.47501 3.09941 -1.17986 0.627556 -0.853209
2898 16.9274 2.52493 4.20873 0.418597 -1.05604 0.381646
1623 0.986344 4.44801 3.70888 1.24584 -0.565994 0.458993
469 1.031 3.35287 3.55685 0.569816 1.58449 0.27485
3180 0.099403 3.35463 3.01549 0.679551 0.16044 -0.253881
3571 2.24626 3.79045 3.98446 1.05869 0.190138 0.775595
1517 4.40609 3.76911 3.76302 0.245937 0.325173 0.591759
2025 3.01199 4.45878 3.63397 0.935919 -0.720732 -1.56833
2873 3.41553 3.78567 4.37487 0.495361 -0.385989 0.567616
922 5.40505 3.07821 3.18597 0.20413 -0.0718144 0.766867
2137 5.21589 3.23899 4.43063 0.609089 -0.559592 1.12892
1101 6.4712 3.51479 3.9243 -0.285961 0.154034 0.345695
2903 6.9676 4.39491 3.004 -0.44534 -0.764711 0.908909
745 8.84188 3.08223 3.60607 -0.242453 -0.418851 -0.234144
881 7.74632 4.0257 3.716 1.73055 0.833763 0.431749
617 8.70905 4.10775 4.04902 -0.832426 0.587238 -0.324256
2472 9.03571 4.36593 2.99351 1.83969 0.238952 2.00657
1691 9.89899 4.33474 3.51615 0.0669387 0.822043 -2.20426
2182 9.88262 3.50045 4.46385 -0.13958 -0.514378 -1.15849
1199 10.9841 3.45381 3.89892 -0.371113 1.88725 -0.110758
2660 12.9842 3.98735 4.21029 1.66256 0.148213 0.579915
2688 14.0659 3.53522 3.08195 1.01226 -0.231011 0.205718
2833 14.1263 4.45631 4.17836 -0.385833 1.41708 -0.689292
1524 14.5642 4.46112 2.98755 2.0356 -0.0223507 -0.0779173
92 16.0325 2.98966 3.6412 0.217298 2.9597 -1.24461
2403 15.4468 3.89164 3.43858 -0.653292 0.0697597 -2.51207
714 16.3687 4.43651 3.12077 0.821213 1.36206 -0.888591
1232 16.3195 4.16258 4.18121 -1.2015 -0.512806 -1.44514
3777 16.9392 3.42017 3.12546 -0.906408 -0.16601 -1.42078
237 17.6812 3.52553 4.00245 1.69967 -0.317886 -0.311641
3448 0.409031 5.62365 3.7942 0.993865 1.3582 0.433116
440 2.07424 5.51048 3.00811 0.28656 -0.629385 1.01683
79 1.54498 5.50744 4.07152 -1.21942 -0.823329 0.549473
3871 2.94898 5.26573 4.36678 0.719518 -0.252482 1.17323
183 3.15451 5.86258 3.3907 1.09129 0.347218 -0.412679
1409 3.8477 4.72617 4.38857 0.578381 0.233798 0.64097
2891 4.25709 5.9537 3.97353 2.11221 1.42189 -1.40772
274 5.91738 4.98821 3.5743 -1.4881 -0.0641269 1.18386
1231 4.88815 4.72996 3.60311 0.330024 1.35117 0.770171
1910 6.6948 5.67806 3.14945 -0.129383 0.785558 0.399806
3009 7.16343 4.93212 3.92714 -0.56195 0.605552 2.04322
3032 6.43244 5.60969 4.30976 -1.14503 -0.265663 -0.82143
2918 8.48484 5.29435 4.06715 0.246071 -0.12192 0.966748
2409 9.62314 5.36666 3.48248 -2.0164 -1.76163 -0.345674
3809 11.2521 5.94876 4.43027 -1.4763 0.720878 0.745668
1475 10.5779 5.05196 3.43625 0.296282 0.170985 -0.713276
2592 12.3597 5.69045 4.0526 -0.57724 -0.0696572 0.182974
2934 13.7215 5.14384 3.28404 -0.627157 -0.954503 -1.26243
3954 14.8515 5.76923 4.37746 0.169014 -1.0309 -2.70311
1154 13.5192 5.38947 4.23842 -1.41693 1.76109 -0.0920574
3452 15.0752 4.86135 3.99295 -0.0577731 -0.42667 -0.678744
2233 15.2182 5.56977 3.26941 -0.666774 1.14531 -0.478783
526 17.1889 5.94231 3.5089 -0.0757821 -1.97591 1.04761
3329 17.7699 4.59832 3.62302 0.560544 0.653529 0.357545
470 16.5667 5.17314 3.87115 -0.505856 -1.0076 -0.150778
2804 1.158 7.06829 3.43184 0.993165 0.226767 -1.89268
2596 2.3324 6.15455 4.04222 0.492955 1.75108 -2.19088
2754 2.60008 7.25961 3.91692 0.474223 0.435229 -0.498389
482 3.20723 7.15595 3.13837 1.18808 1.33947 0.113119
2929 3.45436 6.84957 4.44008 1.16426 -0.802006 -0.620736
1544 4.16919 6.85444 3.3449 -0.699066 -0.223646 -0.805618
3371 5.28064 6.20455 3.39175 1.34682 0.263416 1.01972
439 7.32957 6.22484 4.06076 0.192168 0.0391989 -1.42267
2497 6.65486 6.81518 3.60215 -1.88593 -0.622698 -0.050575
1687 8.62789 6.47145 4.44306 1.20634 1.51731 -0.337867
3884 9.07639 6.42666 3.48925 -0.167822 1.07294 0.143613
1403 9.9835 6.13819 4.13437 0.670532 0.356329 -0.431218
671 11.7036 6.6364 3.04191 0.429736 0.701354 0.0722324
1539 10.7631 6.02211 3.37392 -2.01785 0.0514054 -0.865524
1674 11.5495 7.18024 4.14745 0.204449 -0.737438 -0.243392
3861 10.6072 6.9165 4.00493 -2.29802 0.324595 -0.0887106
2797 12.6533 6.99513 3.44678 -0.263283 -0.0305796 0.851703
3267 13.6225 7.09745 3.12857 0.13179 -0.483332 1.08181
2051 14.1788 6.06475 3.53992 1.24631 0.158717 0.844706
166 15.088 6.99222 3.70744 -1.87596 -0.786621 0.44765
733 15.9749 6.2502 4.04342 -0.0977371 -0.593418 1.12983
1195 16.0415 7.41753 4.22487 -0.11405 0.473165 0.62655
1673 17.4739 6.83928 4.19493 -0.515341 -0.839264 -0.492108
715 16.5306 6.85622 3.4172 0.957369 0.133678 -0.986681
2521 0.152441 7.6163 3.41884 0.36725 -0.72987 1.76789
210 0.142391 7.71805 4.40557 -0.157149 -0.00374984 0.604068
2610 1.22934 8.23363 4.18166 0.302404 -0.749409 -1.83763
778 1.94349 8.81031 3.09712 0.656225 0.656117 -0.758501
2559 2.38617 8.77696 4.36655 -1.05953 2.43279 -0.405004
2743 2.02996 7.52741 3.0054 -0.124533 1.39573 -1.15784
673 3.27815 7.99251 4.30497 0.883969 -0.59734 0.909447
993 2.99374 8.45171 3.16183 -0.551279 -2.40186 0.0362068
863 4.03086 8.67547 3.48342 -0.797044 0.483676 0.590564
2179 4.79239 7.71349 3.23778 -0.020097 -1.47915 0.207441
2411 5.04499 8.72503 3.72629 -1.12552 -0.874179 0.600562
3859 4.66607 8.01095 4.46947 -0.368362 -0.537737 -0.460406
3058 5.66571 7.69563 3.8257 -1.49655 -2.13852 -0.0812899
164 6.99451 8.32227 3.84108 -1.55995 1.42971 -0.19036
1283 6.03311 8.63675 4.01179 -0.84113 1.12624 0.230984
3963 7.74773 7.57413 3.78781 -0.658416 1.30761 1.11769
3381 8.35977 8.27462 3.52446 0.356484 0.213146 1.29015
1016 9.182 8.86698 4.33665 -0.105759 -1.03562 0.0755064
852 9.1658 7.51003 3.40511 1.0064 0.194818 1.64882
3377 9.74718 8.08704 4.42603 1.09034 -0.607667 -1.97481
1045 10.2541 7.7825 3.47985 0.0649271 0.950496 -0.50782
1991 11.4618 8.60861 3.67436 0.602535 0.856124 -0.236547
955 10.6692 8.91247 3.15105 -1.32495 0.209656 -0.646357
2068 11.9734 7.82625 3.06043 -1.01405 1.79628 0.130161
3661 12.3901 8.16138 4.20328 1.42333 0.955238 0.366583
3476 14.4451 8.88804 3.44021 -1.09252 -0.560879 -1.06972
195 13.5419 8.50235 4.24001 -0.36485 1.1325 -1.18009
3190 13.4823 7.48078 4.34873 -1.81127 -0.682681 0.609498
3414 13.6413 8.17311 3.09915 0.790592 -0.79347 -0.662957
1433 14.4953 7.89724 4.08671 -0.225274 -1.05595 1.46564
3834 14.7234 7.8425 3.00372 2.01354 0.157338 -1.01217
3790 15.4717 8.17399 3.79298 0.500208 1.45997 0.96445
2287 16.0732 8.87432 3.31578 0.743055 0.615646 -0.268028
1131 17.8408 8.91161 3.80045 0.737443 0.00287644 -1.40174
2531 16.5542 7.89823 3.36784 0.783703 0.266642 -0.465036
2678 16.5939 8.64293 4.26403 0.334765 -1.67162 -0.42899
110 0.150852 0.166535 5.74125 -0.437061 -0.955019 -0.129841
3619 1.34666 0.748636 5.06723 -0.134257 0.649323 -2.47371
408 2.8242 1.05445 5.14733 0.241786 0.1574 -0.421179
3968 1.95134 1.29932 5.90614 0.95889 -1.25157 0.772951
2115 2.29072 0.116505 4.96817 -1.23019 -0.293205 0.597984
3444 3.94806 0.89493 4.9427 1.15926 -1.23355 0.0144809
2683 3.36404 0.00805732 5.16787 -0.493405 1.523 0.60301
3718 7.03896 1.40986 5.12828 1.5559 -0.555181 0.224198
2073 6.13804 0.69722 5.07374 1.21508 1.12157 -2.38321
3479 8.41111 0.789215 5.13714 0.830392 -1.60391 0.910866
509 9.5297 0.737639 4.93784 0.535917 0.261276 0.78747
3909 9.75391 0.120008 5.85388 0.213372 0.678066 -0.12227
75 11.4391 0.0975366 5.46737 -0.21512 -0.136593 1.389
839 10.4666 0.939944 5.90523 0.382531 -0.925572 0.973998
950 11.5019 0.453225 4.50226 -0.26933 0.313929 -0.738467
3230 11.674 1.29807 5.10614 -0.421746 0.786547 -2.16996
1087 12.6082 1.03212 4.85437 0.130663 0.185922 0.209299
2084 12.4297 0.0346535 4.53548 0.900434 -0.304637 0.0249724
187 13.5925 0.818583 5.58783 -0.553171 -1.01781 -0.466508
3443 14.6328 1.18371 5.38528 1.62173 0.626095 -0.311271
1394 13.6942 0.470347 4.54769 -1.19637 0.389659 0.0736264
520 15.8903 0.997164 5.79952 -0.461987 1.61603 -0.806553
1875 16.4378 0.41668 4.88157 -0.720275 0.319614 0.61334
2909 17.6637 0.963568 5.20476 0.170159 -1.9445 0.475077
2851 16.9525 0.547442 5.9052 1.0011 -0.189958 0.723438
1364 0.858123 1.86143 4.8945 -0.154402 -0.560919 -1.90342
552 0.418448 2.30059 5.86916 -0.790353 -3.11485 -1.34277
2345 1.98113 1.78986 4.76562 0.0998005 -0.102694 -2.19808
3979 2.19875 2.46341 5.47761 -1.65752 -0.813461 0.138773