ITEM: TIMESTEP
50000
ITEM: NUMBER OF ATOMS
4000
ITEM: BOX BOUNDS pp pp pp
0.0000000000000000e+00 1.7878070701931353e+01
0.0000000000000000e+00 1.7878070701931353e+01
0.0000000000000000e+00 1.7878070701931353e+01
ITEM: ATOMS id x y z vx vy vz
114 0.170907 0.853067 0.518013 0.496831 0.195999 -2.14236
2492 1.30857 0.709107 0.452031 -0.345125 -0.949384 -0.805936
1263 0.601902 0.113572 1.10511 -0.695831 1.1058 1.53281
2407 2.74557 1.16701 0.510969 -0.263236 -0.1548 -0.59999
2042 1.91073 0.73803 1.3912 1.25915 0.531737 -1.34223
142 2.18579 0.264037 0.0546674 0.754764 1.58082 0.133588
2160 3.44831 0.20524 0.228086 0.805933 0.640881 0.259238
1055 3.18368 0.337287 1.15324 -1.30499 0.463597 0.817239
1862 4.06512 0.81998 0.901224 -0.794626 0.166395 0.356453
2568 4.93341 0.400443 1.48932 -0.797281 1.60942 -0.0409344
42 4.91036 1.40832 1.2608 0.421375 -0.837037 -0.576685
1318 5.38158 0.787768 0.48317 -0.00406405 0.316791 1.57972
1657 6.86867 1.07259 0.979302 -0.347933 -1.06805 1.67938
1019 6.34838 0.22012 0.550089 -0.658994 1.08917 -1.03603
902 6.00948 0.615901 1.3953 -0.446414 1.04407 1.45109
2466 8.89527 1.02827 0.630894 1.59951 1.79817 1.35779
437 7.79389 0.576487 0.470409 -0.424849 0.608583 0.137107
734 9.77669 0.395996 0.855821 1.06694 -1.55971 -2.17865
2927 10.7031 0.150209 0.227863 -0.991678 0.24956 -1.2931
349 11.298 1.18166 0.609341 0.246356 0.366639 2.97364
3875 10.9195 0.335496 1.26033 1.11113 0.358626 0.137578
1069 12.1669 0.323783 0.625413 0.673436 1.37369 -0.52639
931 14.1261 0.0499211 1.39246 0.311371 -0.959294 0.00592875
2048 14.0958 0.783989 0.498165 -0.025417 2.05733 1.05218
1432 15.2655 0.0113168 0.805445 0.609628 1.69082 0.888477
3843 16.2978 0.126698 0.291338 0.079487 -0.0822066 -0.118992
2667 15.4198 0.920719 0.414889 -1.52647 -0.782299 -1.20878
773 16.9552 0.954254 0.0813673 -0.21365 -2.27249 0.952412
2882 16.4719 0.99831 0.97067 0.26231 -1.10596 -1.94941
2572 1.2976 1.6667 0.999063 0.273328 1.11389 -1.70403
2155 0.481169 1.87705 0.298803 -0.019412 0.690768 -0.103681
1819 1.23126 2.79386 1.03722 0.510247 -0.0386059 -2.00637
2069 0.459709 2.07933 1.4483 0.64162 0.724945 0.116934
857 1.18796 2.75353 0.00368812 1.36772 0.0724444 0.212898
528 2.31002 2.05475 1.00571 -0.428255 0.428117 0.939424
1175 4.05781 2.24304 1.41957 0.402828 0.412896 -0.763617
3166 3.17851 2.36606 0.546928 0.178676 -1.3276 0.150817
2597 5.94497 1.78051 1.43267 -1.01068 0.919907 -0.290112
1963 5.64072 2.01597 0.188969 0.699513 -1.45965 -0.812545
2873 5.01262 2.57524 0.761751 -0.624797 1.26545 -0.0873511
3077 6.74939 2.25003 0.0933304 -0.447147 -1.33284 -1.01206
2497 6.26908 2.79667 1.23954 -0.227396 0.138259 -2.39804
3356 7.74171 2.20148 1.04356 0.0532467 -0.723971 -1.55786
1722 8.72691 2.61131 1.29853 -0.304409 -1.35832 -0.758618
3455 8.276 1.8721 0.246536 0.305643 -2.58329 1.02429
564 10.2187 1.53965 0.546418 -0.75185 -1.44258 1.35987
679 9.37645 2.44238 0.511682 0.267364 -0.186961 0.730839
2289 11.516 2.35232 0.671956 -2.17162 1.44218 -0.442176
1287 10.6146 2.79305 0.14287 1.96611 -1.30833 -0.085227
919 12.5103 2.77289 1.19595 0.302255 -0.432131 0.223277
2571 13.2977 1.59327 0.548668 -0.926704 -0.566326 0.112351
2396 12.5507 2.3446 0.132507 1.39731 0.682922 0.758062
2084 14.6383 1.63559 0.959258 -0.486122 -0.824295 -1.18455
1403 14.546 2.91794 0.751295 0.119201 -0.0188548 0.506227
1065 13.5825 2.68928 0.261745 -0.577931 0.282818 -1.93276
1890 15.2029 2.39848 1.35678 -0.429814 0.142517 0.25714
177 16.1423 1.94601 1.28184 -0.811907 0.149171 1.76664
2630 15.3844 2.28694 0.156555 1.76313 -0.235797 -1.98673
1452 16.3846 2.84688 0.582511 0.594203 1.12053 -0.565471
1059 17.2953 2.08435 0.982842 1.25913 0.527857 -0.659703
2683 0.286988 3.29568 0.804874 0.93547 0.575911 0.541159
3182 1.33842 3.87141 1.41572 -0.0894004 1.29851 -0.733562
238 0.556938 4.26606 0.528706 -0.118891 -0.169673 -1.82921
1941 2.9491 4.33509 0.560656 -0.269266 -1.71827 -0.718532
3664 2.35634 3.37163 0.433153 0.186898 -1.07542 0.10576
3836 1.61373 4.4192 0.236424 -0.226075 -0.88989 1.01175
1428 5.45913 4.11785 0.225175 -0.483841 0.683966 -0.232822
387 4.67048 3.60667 0.882142 -0.940843 1.75183 -0.983611
2716 7.37488 4.11366 1.0682 1.30235 -0.979033 -0.445618
987 6.24422 3.70037 0.784936 -0.84723 0.570715 0.786424
830 7.09272 3.02577 0.652459 0.921627 -0.79995 -0.901369
3641 6.98714 3.95932 0.192004 -0.394354 -0.00370048 0.596075
278 8.17745 3.52168 0.377894 0.384864 0.142682 -0.802337
3211 7.90559 3.30268 1.24758 1.12403 0.984594 -0.348674
2305 9.21104 3.36658 0.892994 0.871662 -1.29248 0.313577
508 9.46658 4.34433 1.3211 0.128623 0.0664732 1.18471
1098 10.2037 3.92675 0.530475 -2.31792 -0.82522 1.25198
3219 9.33557 3.95015 0.0214005 1.35329 -0.529609 1.0146
429 11.5773 3.35947 1.24483 1.54868 -0.0788795 0.724773
1 11.7006 3.2461 0.157743 0.298162 0.710954 0.233002
75 10.5457 3.03227 1.45989 1.63314 0.159504 0.546503
556 12.3294 4.46547 0.842306 -1.09255 0.374821 -1.79546
2634 13.1957 3.81855 0.366748 -0.775774 1.77549 0.747967
1754 14.1309 4.1232 1.01344 -0.527796 0.317414 0.163851
435 15.6355 3.33409 1.08363 -0.0366916 -1.54281 -0.395052
1808 15.0657 3.86812 0.417537 -0.727169 -0.678795 -0.523033
816 16.7206 3.9424 0.948357 -0.546483 -0.69832 0.230794
3745 0.80936 4.93303 1.34088 -0.0971122 -0.856095 -0.32155
2163 0.356581 5.78491 0.858639 -1.17802 0.375371 -0.664507
3083 2.80379 5.39136 0.90573 2.72372 -0.00191661 0.906091
1470 1.60442 5.7019 0.982576 0.142839 0.837314 -0.90808
2935 2.12314 4.56282 1.22634 -1.06398 1.40915 -1.67857
3841 3.9099 5.05607 0.938166 0.265345 -0.598472 1.09499
820 5.68153 5.89382 0.769684 -0.553197 -0.330265 -1.08613
1136 5.07522 5.10339 0.229033 -3.35792 -1.49419 -1.45115
2179 5.01039 4.60686 1.20519 0.734039 1.34375 -1.75097
3366 7.0513 5.42072 0.889052 -0.278084 -0.991175 0.874233
3060 6.32043 5.15832 0.254879 1.37731 -1.5422 -1.19087
2423 6.33951 4.65404 1.26766 0.610273 -0.37261 -0.169379
2663 8.20869 5.71521 0.262864 0.547293 0.647204 0.765695
3556 8.58206 5.50513 1.20757 -0.681774 0.949137 1.77186
834 8.4546 4.55531 0.577555 1.27353 0.594406 0.361071
7 9.35346 5.17925 0.575667 -0.0102558 0.62174 1.38955
1943 11.796 5.51564 0.606327 1.48934 1.47296 -0.561876
3699 10.7398 5.01042 0.581706 1.01309 0.298875 -0.566353
3884 12.7798 5.66569 1.11633 0.57021 -0.0281454 0.843752
2510 14.7215 4.78451 0.383901 0.142847 -0.978593 1.2361
714 13.7031 4.9308 0.544856 -0.342152 -0.0842387 0.921646
1940 15.8316 4.5024 0.93363 -1.03685 1.03973 -0.45508
6 14.9101 5.59379 0.918036 0.931872 -2.16406 -0.626447
1905 16.145 5.1367 0.153803 -0.721653 -0.971767 -0.675437
2345 17.0797 4.7314 0.220658 0.225765 0.806193 0.201578
423 17.3118 4.79229 1.25893 0.72702 -0.685397 1.70454
8 0.219943 7.00983 0.515162 -0.352693 -0.541305 -0.593966
2056 1.46417 6.99318 0.843203 0.724429 -0.537645 -0.825773
2968 1.40709 6.24366 0.0586671 -0.0636149 0.58519 0.287637
2165 2.49037 6.4996 0.851638 -0.754965 0.283154 -2.7441
2283 3.66065 6.03036 1.29988 -0.369308 -0.285406 -0.799061
1801 3.41195 6.17662 0.36303 0.584625 0.796221 -0.37718
2596 3.68998 7.18614 0.977387 -0.00645592 -0.935642 -0.107762
738 5.46434 7.13065 0.558249 -0.474888 -0.106657 -0.951385
3756 4.5681 6.42566 0.863105 1.60842 0.0861914 -0.899882
3861 6.21583 7.02135 1.25692 1.86197 -0.44896 -0.21131
2291 7.06904 7.0646 0.553282 1.14265 1.06357 0.0672604
708 7.46115 6.29115 1.30446 -0.131359 0.292447 1.38342
3832 7.99261 7.13732 0.684289 1.45327 -0.0949012 1.11064
1967 10.3429 6.33335 0.890565 0.574291 -0.703783 -0.751265
2171 9.94857 7.18962 0.443442 -3.78809 0.594452 2.34888
1236 8.97003 6.66793 0.402711 -1.52892 -0.979308 0.895848
2980 11.672 7.26543 0.935266 0.366576 0.903884 0.579122
1752 11.0617 5.99719 0.132933 1.95863 0.935153 -1.2765
3716 12.2678 6.46429 0.382104 -0.708091 0.206971 -1.1606
1433 12.1731 6.55899 1.48219 -0.700407 0.625064 -1.02351
3364 13.4265 6.46042 0.793099 -0.524371 0.704947 -0.44158
983 14.4888 6.56723 1.42302 -0.410531 2.47154 0.643316
271 14.8044 6.1883 0.119275 -0.181239 0.3979 -0.301623
2622 15.4898 6.3937 1.47523 -0.699514 -0.49172 0.759567
513 14.9561 7.26958 0.695723 -1.03059 -1.55888 0.211954
1427 15.8368 6.4642 0.252559 0.943086 1.77357 0.158392
1355 16.8715 7.04709 0.775419 -0.113468 1.17254 0.508757
2731 17.1987 6.03548 0.968246 -1.11227 -2.48129 0.0591104
1896 0.589344 8.05569 0.98955 0.0903502 0.233778 0.39369
1884 1.53837 8.10347 0.829797 2.01927 -0.0463403 0.894198
1198 2.92121 8.55835 0.375426 0.8411 0.2443 -0.0688796
3450 2.54279 7.75196 1.11934 -1.00484 0.137991 1.86875
3395 2.48995 8.67812 1.4596 0.0564633 0.155784 -1.65141
3159 4.00319 8.51918 0.988186 0.830173 0.606043 1.08953
2007 5.15894 8.35162 0.699492 -0.85833 -0.539589 0.93736
1789 8.30854 8.05358 0.0309476 -0.55017 0.402231 -0.694564
2422 8.68331 7.99572 1.32159 0.274644 -0.342373 0.332557
1834 9.22728 7.99032 0.443752 -0.793371 0.192683 -0.715054
1426 10.006 7.96453 1.37546 -0.525897 -0.741258 0.45491
1535 10.7229 8.90868 0.654014 0.548264 -0.925014 0.816075
2130 10.8644 7.85118 0.580154 -1.79236 -0.962799 1.05881
579 13.0776 7.66975 0.6249 -0.960607 -0.298166 -0.666392
2009 11.9402 8.49729 0.761315 0.930906 1.2157 -0.69952
1159 12.0975 7.70184 0.159488 0.769872 0.172085 0.607878
250 13.9893 8.48806 1.03979 -0.167608 -0.98031 0.654922
1799 15.6016 8.21008 0.942271 0.439882 -1.3591 0.176211
3073 14.9686 8.4267 0.0395096 -1.47242 -1.15462 0.850848
3560 16.4727 7.90242 0.107399 -0.142481 -0.537171 -1.60721
409 17.1727 8.1631 1.05136 0.680465 -1.51186 0.445524
2914 17.4954 8.26449 0.0448303 0.682013 -2.13666 1.08043
492 1.08168 1.48672 2.66869 0.1268 -0.848718 1.03669
305 0.650621 0.881933 1.79392 -0.110159 -0.818286 -0.84356
819 1.95102 0.848248 2.76865 2.0456 -1.51268 -0.0410625
363 2.89659 1.4728 2.90074 0.963123 0.0528325 -0.63792
1920 4.093 0.795943 1.99949 -0.217578 -1.16153 -0.962388
1859 3.17849 0.232648 2.85247 0.000248337 1.12022 -0.123582
2551 4.93421 0.694594 2.60934 -0.560481 -0.419287 1.2699
854 6.51515 1.01327 2.16794 1.05974 -1.51696 -0.198715
3090 7.95247 1.37262 2.89751 1.34726 1.35019 -1.40614
3036 7.72889 0.583754 1.60195 -0.760648 -0.912901 -2.33544
2452 8.84 0.27868 1.9092 0.523699 1.014 -0.284076
414 9.74941 0.494598 2.3128 0.484162 -0.598754 -0.826493
2823 10.8945 0.629371 2.32961 1.4064 1.17451 -1.14134
2060 11.4308 1.47343 2.52354 0.736156 0.601395 0.419876
1394 13.233 1.05412 2.20195 0.0499184 1.81991 -0.858065
2086 12.1655 0.263633 2.37221 1.77419 0.620601 0.995619
71 12.0429 1.35069 1.6872 0.955993 -0.228327 1.33296
2674 14.5069 0.0308821 2.77877 -0.637602 -1.49347 -0.0401624
842 14.2414 0.780174 2.0619 0.24755 -0.013019 -2.30329
3034 15.3155 0.545837 1.80061 1.51218 2.01175 0.134431
718 16.0319 1.17395 2.0819 -1.26167 -0.965149 -0.367769
2242 17.0284 0.869465 2.40987 -1.44724 2.05265 -1.65888
2765 16.8724 0.037917 1.82544 -1.59351 -0.488614 -1.46657
657 0.519027 2.34974 2.52816 1.10895 0.286023 -1.12415
360 2.65094 2.8748 1.53069 -0.291737 -0.888492 2.10894
3300 1.68378 2.46105 1.83708 -2.15184 0.640274 0.567716
2482 2.3766 1.55685 1.92791 0.515922 -0.662731 -1.51555
13 2.10548 2.09969 2.83846 1.3905 -0.511763 0.449573
825 3.9708 1.6897 2.61885 0.841334 -1.19385 -0.849165
3690 3.13962 2.8342 2.4422 -0.311389 0.856829 0.989932
3618 3.2865 1.64077 1.50911 -0.460165 1.01057 -0.45191
1923 4.51291 2.6478 2.26044 0.433237 -0.633871 -1.87837
455 5.51989 2.6899 1.89384 -0.162821 1.22147 -0.175075
312 5.36318 1.60547 2.54119 -0.278837 -1.51353 1.52788
3438 7.09304 2.63812 1.80833 0.16049 0.730124 -1.96857
1776 7.4209 2.35029 2.76302 1.03132 0.641504 -0.391796
2791 6.4328 1.99828 2.25632 0.521496 1.64769 -1.63465
79 7.47765 1.56674 1.96069 2.40697 0.494553 -1.80219
1900 8.53134 1.51078 1.59074 -1.9332 -0.854267 -1.27914
1833 8.52586 2.67933 2.40194 0.263925 1.30707 -1.65583
3852 9.61606 2.04438 1.67537 0.277514 -0.283725 -0.0789149
3982 10.309 2.46166 2.48586 1.10301 -0.652097 -0.712559
1803 9.17221 1.55218 2.50621 -0.968591 1.19887 -0.253634
647 10.9883 2.03071 1.61911 0.365557 1.09496 1.12154
1513 11.8096 2.39164 2.2176 0.765968 -1.57588 0.229626
656 13.0366 2.17639 2.29207 -0.932254 1.32433 0.0311522
290 13.7493 2.02401 1.63494 -0.0542953 -0.59424 -1.83023
1931 14.7584 2.3102 2.73865 0.173398 2.74693 1.03201
1199 15.0566 1.53646 2.13167 1.12809 2.01291 1.46233
3023 15.721 2.55009 2.45625 0.80397 0.11624 0.523911
1128 17.6085 2.97607 1.91114 2.08357 0.482218 -0.463313
39 16.5366 2.86477 1.69713 -1.24925 1.50172 -1.18604
1343 0.0639017 4.00368 1.61366 -1.27217 -0.115308 0.415551
1364 0.761667 3.2681 1.98578 -1.65826 -1.13346 -0.149091
2243 2.00828 3.32516 2.42068 -0.871242 -1.06098 -0.4054
1640 2.90237 3.96646 1.84362 -1.21015 1.03389 -0.448496
2231 3.98302 3.27417 1.70016 -0.153198 -0.703832 -0.958472
3934 3.37307 3.70417 2.92386 2.51048 0.57691 0.296815
382 3.96544 4.31101 1.76902 0.508941 0.663656 -1.1988
2472 5.11647 4.45399 2.74737 -0.666208 0.55666 -1.19351
1763 5.02616 3.8023 1.85308 0.214667 0.988643 0.29492
2027 6.35982 3.20484 2.33282 0.255247 -0.7194 -0.161318
1903 9.50151 3.09494 2.09061 -1.02933 0.069319 0.798628
669 9.00117 3.94303 2.6274 0.779128 1.2767 0.862111
34 11.2228 3.31436 2.35135 0.538095 -0.622105 -0.641241
1656 10.6419 4.12753 1.52379 -1.08904 0.111452 -0.0659617
2803 10.7004 4.03161 2.92897 1.51283 1.92657 -1.12216
58 11.5699 4.4033 2.45494 -0.903826 2.08788 0.813559
1154 12.5839 4.10809 1.84537 -0.197991 1.21113 0.495223
3452 12.566 3.2117 2.42203 -0.105934 -0.70267 -1.40436
3613 13.5661 3.02962 2.76074 -1.09374 -1.9544 0.466188
413 14.54 3.07622 1.97313 0.561052 -0.0323117 0.174472
2856 13.5449 4.06914 2.06686 -1.1527 -0.369633 1.26338
229 15.7212 3.66004 2.47058 -0.422225 -1.2747 0.0219437
2194 15.1004 3.97719 1.72872 0.569032 0.381975 -1.16681
1875 16.3384 4.43203 1.95298 -2.25817 0.972976 0.466308
975 16.9327 3.77034 2.6081 0.103792 1.57448 -1.03695
673 0.712404 5.77792 2.0969 0.565625 1.91219 1.50078
2577 0.406126 4.52301 2.75644 0.999532 -0.348877 -0.681417
3482 1.46188 4.99138 2.85433 -2.33957 -2.6315 -1.73214
2925 2.10305 4.67174 2.1786 -0.686834 -0.777874 0.803607
140 2.40083 5.65552 2.93937 0.378968 1.35986 0.214361
730 2.42772 5.93296 1.80325 -0.327997 -0.491135 -0.132721
3329 3.26714 4.97025 2.10677 -0.292235 2.08076 0.516893
1316 4.27512 5.6182 2.38098 1.97468 0.631932 -1.73494
529 4.08056 4.58102 2.812 1.467 2.11454 0.869398
3767 4.88896 5.69635 1.49953 -0.865112 -2.49817 -0.320394
3258 5.59483 5.84813 2.44387 0.807891 0.655395 -1.99101
2503 6.50197 5.61285 1.74597 -1.35675 -2.02026 -1.11786
881 7.38863 5.78633 2.55213 0.543992 0.231311 1.02865
2746 6.86358 5.00655 2.8314 1.14986 -0.153501 -0.416267
3304 7.80218 4.92317 1.70497 0.231256 -2.11872 1.68417
1164 8.83816 4.91393 2.17757 0.465997 -0.488867 -0.134753
274 10.0637 4.97496 2.18806 1.49765 0.661436 -1.06742
3474 9.51843 5.69466 1.63692 1.31492 0.0674004 0.429005
1689 11.5961 4.97456 1.49799 0.408245 1.78579 0.804864
2417 10.6288 5.70604 2.84016 -0.151504 0.0877311 0.0250264
3585 11.6112 5.45787 2.74727 1.61378 -0.299583 -0.805117
3201 10.7521 5.60618 1.51599 0.575489 -0.554701 -0.391923
3169 12.555 5.77871 2.43032 -0.0032536 -0.0648329 0.887936
2467 13.3617 5.11319 2.74186 0.735363 0.278135 0.146935
2450 13.9067 5.59887 1.55647 -0.0699425 2.23794 -0.781763
1133 14.3447 4.54136 2.53318 1.40104 -0.750955 0.528148
639 15.3647 5.22031 1.86531 0.150272 0.782783 1.52861
733 16.2662 5.50962 2.15797 0.622801 0.158499 -1.17918
392 15.3034 5.21558 2.89963 0.131781 -0.35972 1.41256
742 17.3418 5.35332 2.11029 0.494419 1.48803 0.285667
135 16.873 4.8921 2.8414 -0.595554 -0.0601545 -1.80785
1266 1.01014 7.04979 1.80682 0.0508617 -1.19256 0.556992
149 0.160569 6.43144 2.67387 -1.26687 1.56653 -0.0591806
3376 1.63552 6.28147 2.40454 0.805636 -1.12399 -1.31526
771 1.98055 7.26481 1.81277 -0.793027 1.46165 0.0357141
778 2.36723 6.9045 2.79907 -1.03503 1.3211 1.22487
1898 2.97578 6.92891 1.75963 0.02742 0.194837 0.815927
9 3.35009 6.24756 2.57519 -0.0371265 -0.876976 1.51379
3371 4.26844 6.63081 1.86308 1.25898 0.829562 -0.394637
1687 5.34745 6.66245 1.77567 0.703389 0.0502558 0.288125
2147 5.79087 7.26105 2.64779 -0.155838 0.140862 -0.215943
3301 6.72658 6.67543 2.27486 0.586666 0.620143 1.26074
3454 7.80279 7.05018 2.36104 0.248353 -0.268048 -1.35179
2801 8.76016 7.25307 2.883 -0.196708 -0.551889 -0.525011
997 8.73433 6.17678 2.86023 1.20568 0.293206 0.6308
1235 9.44549 7.34648 2.0089 -0.210465 -0.776935 0.91406
3476 9.74663 6.96584 2.97543 -1.18264 -1.38946 -0.75713
3876 10.0976 6.49229 2.13325 -0.276821 -1.1949 -0.334018
1475 11.2045 6.43155 2.08248 -1.06711 -1.76411 -0.280276
1539 10.748 7.19285 1.53821 -0.696977 -3.25291 -2.02773
1725 10.7195 7.34606 2.58922 0.107959 -1.27355 -0.9728
180 12.6135 7.17 2.88519 -1.58498 -1.21628 1.20105
2750 13.612 6.14545 2.44492 -0.49202 0.230397 -2.1194
1480 14.8045 6.7901 2.39372 -0.326462 0.0644368 0.257127
747 15.8161 7.3382 1.4936 -1.34269 0.485712 0.093463
3235 17.2802 6.42549 1.94979 -0.458493 1.13411 -0.204761
1567 17.675 7.23909 1.52291 1.01795 -0.814697 -0.81828
1661 17.4207 7.17398 2.7342 -2.72037 0.436567 1.47773
1474 16.4683 6.74199 2.41637 0.472996 -0.235304 0.60289
2929 16.9586 6.00737 2.89638 -0.457094 0.672378 0.932502
1758 0.645724 7.76227 2.70478 -0.423939 0.0468431 -0.265589
1113 0.291573 8.64303 1.89186 0.839985 2.42617 0.40896
3967 2.4572 8.71218 2.7193 1.62781 1.81505 -0.0718508
426 1.60169 8.34639 2.36032 1.77778 0.949021 -0.836651
2613 3.07858 7.54226 2.58822 0.133476 0.744839 1.68201
1115 3.40657 8.0974 1.7578 0.803216 0.109893 -0.459826
1743 5.79719 7.97268 1.8931 -0.609477 -0.285993 -1.45357
2937 4.82978 7.71132 2.81651 -1.17444 0.472008 -0.329355
3416 4.92104 7.61196 1.56133 -0.872035 -0.38157 -0.684244
1798 6.32404 8.76698 2.39857 -0.309158 0.737026 -1.7277
2926 6.96421 8.20524 1.55819 -1.94413 -0.281609 -0.111155
1282 7.63338 8.35316 2.49581 0.385705 0.342351 0.72299
2797 9.90374 8.12518 2.44999 0.495677 0.723488 -0.986313
750 8.95427 8.52332 2.53174 -0.837205 0.400829 -0.784357
1942 11.0834 8.27973 1.50875 -1.16517 1.33318 0.863399
2068 11.2408 8.23817 2.58443 -0.711125 -1.02053 0.481665
1814 11.7005 7.4774 1.96229 -0.227754 0.956448 0.726904
3422 12.5525 7.95794 1.55027 0.552606 -0.544022 0.130865
410 13.2631 8.64497 2.16747 0.790753 1.18185 0.62286
247 13.3835 7.54674 2.15096 -0.711129 -0.0772762 -1.78539
1314 12.1823 8.5577 2.37758 -0.415188 -0.294383 -0.94935
368 14.2973 7.98963 2.53265 -0.847855 0.636316 -0.5688
210 16.1102 7.68552 2.64643 0.0489675 -2.21373 -1.13005
3765 16.2968 8.33111 1.70946 0.0398429 0.940591 -0.314377
2783 15.3564 8.20363 2.24486 0.506074 0.332468 0.669625
3124 17.1696 8.08124 2.38406 -0.25613 1.22263 0.427303
2688 0.84147 0.582865 3.52489 1.39533 1.22323 -0.643925
3839 1.85101 1.31952 3.92971 -0.0504045 0.21533 0.545342
3072 2.29442 0.257925 3.76282 0.186124 -0.0690141 0.100087
2495 4.05622 0.829577 3.17061 -0.113633 1.27429 -0.486127
1049 3.40641 0.380226 3.92332 -0.41543 -0.333992 -1.27218
1022 4.56131 0.500824 3.94628 0.627466 -0.660144 -1.81677
1306 5.89307 0.870144 3.29706 1.72515 0.262648 -0.059541
1374 7.35243 0.591657 3.32251 1.45425 2.1207 0.213694
3388 6.54514 0.320257 3.94879 -1.12896 -0.375048 -0.461482
15 8.32086 1.14784 3.97411 -0.362271 0.783937 0.484267
3989 8.74625 0.679602 3.0841 -0.130444 -0.187092 0.258178
1956 9.597 0.168721 3.49187 -0.726806 1.07177 0.157464
2816 9.31642 1.20709 3.85597 0.156634 -0.0338409 0.915306
1112 11.8109 1.26411 3.5722 0.11336 -0.680585 0.543693
554 10.431 0.618382 3.95166 1.25949 -0.876288 -1.3004
1189 12.7074 1.40688 3.00704 0.9123 1.17411 -0.190583
3255 12.5233 0.155427 3.57469 0.32736 0.0640783 -0.230335
1434 12.9523 0.937722 4.04493 1.35092 1.28281 0.810056
1524 13.4898 0.14081 3.2202 0.334671 -0.176816 0.0997348
1691 14.5769 1.30669 3.12642 0.191408 0.196096 -0.741625
2840 14.9251 0.708803 4.22372 -0.902146 -1.79685 -0.760208
2279 15.2419 0.5151 3.23786 -0.689662 0.811555 1.01438
1042 16.5097 0.461477 3.70863 -0.175156 -0.255303 0.969687
2313 17.5962 0.899119 3.62494 -1.07308 -0.598606 -0.97498
469 0.405451 1.68616 3.8551 -2.43747 0.573445 -1.70705
1479 0.409029 2.63893 4.33582 -0.209604 -0.946979 1.23658
1517 1.90595 2.44405 4.15119 0.315482 -0.161038 0.423138
86 2.87088 2.34513 3.56069 -0.962945 0.0839078 0.855224
2368 3.7316 1.70546 3.64843 0.552936 0.384608 0.41984
2837 3.80189 2.50883 4.3042 -0.459157 1.48773 -0.193325
3851 4.76928 1.59012 3.31501 -0.358595 0.178702 0.313943
732 4.5987 1.85445 4.29738 0.293699 -0.342568 -1.40668
2532 5.35442 2.62276 2.98665 1.09593 0.576287 -1.55847
2441 5.85253 2.9462 4.14 -1.36618 -1.64441 -0.619859
3648 6.86952 1.59757 3.30324 -0.773305 0.686526 0.375986
3439 6.27136 2.79566 3.24484 -2.02223 -1.277 0.366619
217 6.58328 1.97132 4.28087 0.512709 -0.662094 0.679191
3882 6.98807 2.94955 4.19783 0.0159656 0.466395 -0.411545
1614 7.92432 2.72994 3.47007 -0.298932 -3.17195 -1.19034
880 7.53975 1.75283 4.05716 0.161276 -0.228943 -1.30907
2535 8.73744 2.13607 3.28791 2.18618 2.67729 0.629703
2392 8.45304 2.04601 4.4599 0.013407 0.237659 -0.650025
703 10.2645 1.7187 3.28791 -0.0663105 -1.40795 -2.34193
3950 9.82801 2.62121 3.4289 0.602806 0.0539665 0.759041
3569 9.94428 1.99071 4.24501 0.13837 0.485082 -0.456435
3663 11.71 2.27912 3.17753 -0.265298 0.302104 -0.903421
2233 12.6831 2.46006 3.29694 0.218618 -0.113315 0.500416
947 12.2335 2.16382 4.16447 -1.11186 0.596409 0.123037
667 13.6122 1.8499 3.1432 1.63599 0.960525 0.530005
950 13.7358 2.79311 3.786 -0.0127326 0.663911 1.92931
3269 14.2421 1.65305 4.07539 0.474516 0.44564 1.70183
1438 15.5688 1.51194 3.04526 0.592911 -0.172248 0.191893
2314 15.4337 1.5643 4.03704 0.654975 0.820401 0.515017
2952 16.7027 1.66516 3.89431 0.541875 0.509495 -0.232176
3314 16.5712 2.27279 2.98754 -0.770425 -1.19346 0.312078
802 17.5946 1.86572 3.05669 1.81283 1.32223 0.805644
2236 1.04293 3.73363 4.21062 -0.93268 -1.56997 -0.87935
3444 1.41799 3.04542 3.42231 1.66457 -1.01227 0.1829
2640 0.483749 3.43062 3.20276 1.45919 1.73346 0.124339
1157 2.2876 4.12392 3.01943 -0.216083 -0.268352 -0.164274
1983 1.83649 4.29635 4.11448 0.00243109 -2.0783 -0.917343
428 3.37332 3.38527 3.96697 1.26264 -0.175423 -1.2097
2159 4.94591 3.52865 3.39262 -0.407046 0.626984 -2.16697
3066 6.0764 3.98073 3.08159 0.74802 -0.435199 -0.592052
425 7.09817 3.9011 3.24642 -1.76407 -0.95934 -1.0622
3032 8.17131 4.01456 3.68189 -0.786146 0.552071 0.151512
266 9.83212 3.62626 3.40034 0.757028 -0.639751 0.866558
3686 9.07802 4.33647 3.97764 -0.447606 -0.00237718 0.765759
3578 9.10806 3.08673 4.03059 0.789286 -0.67829 -0.228881
724 10.8892 3.29898 3.51497 0.445652 -0.633465 -0.709426
1075 11.8753 3.34102 3.22798 -1.43155 0.482521 0.854269
2956 11.7663 3.26564 4.24568 -0.776077 0.560453 -0.985967
2366 12.692 4.44487 3.13655 0.240328 -0.838773 -0.0947959
1631 12.8948 3.50883 3.54887 0.261314 -0.331095 0.230206
1797 13.7726 3.67806 4.17709 1.22125 0.513961 0.219674
3951 14.3234 3.62423 3.04335 0.354036 -0.393378 0.0865568
1260 14.7243 3.22405 4.34991 0.302238 0.1311 1.28894
175 15.2364 3.03312 3.43316 1.23559 0.940522 -0.303553
1674 15.0255 4.34947 3.53092 0.853358 1.33291 0.102607
3093 16.1874 3.53561 3.42881 0.505408 0.784807 0.488964
3777 17.4674 2.98554 3.37736 -0.0150833 0.251494 -0.834853
1231 17.097 4.35086 3.64693 0.160022 -0.354837 1.19705
2137 17.7815 3.73428 4.27283 -0.718578 -0.174728 1.1781
715 0.493627 4.5944 3.80156 -0.0826026 -0.902047 0.19819
3619 0.874004 5.77638 3.41539 -0.0664446 -0.771858 0.754983
2025 1.27482 5.36339 4.26214 -0.339551 -0.175647 -1.83142
87 2.37961 5.2938 4.01924 1.57704 -0.0297253 0.499928
2480 4.44021 5.72015 3.4072 -1.10556 -1.33572 -1.49169
1262 3.0561 4.47929 3.82319 1.53305 -1.93657 0.710608
14 3.69509 5.28502 4.18219 0.201256 0.502101 0.244248
389 4.57274 4.60733 3.71288 0.287862 -0.499742 0.315116
1406 5.79362 4.97067 3.41684 0.227306 -1.11698 -0.764025
3248 5.32667 4.74868 4.46771 -0.0162413 -1.17627 0.0916935
3607 5.60005 5.93214 3.55378 -0.166208 0.0519021 -0.205858
91 7.91587 4.94628 3.02548 -0.490263 -0.882802 -0.209614
2227 8.39622 5.53409 3.82004 -0.131513 0.272796 -1.89435
3391 9.88352 4.54053 3.13353 -1.33487 0.77024 -0.795757
1500 9.11589 5.22824 3.18844 0.877454 1.2254 0.733596
2489 10.1553 4.57201 4.29901 1.53465 -0.278026 -0.0163203
1782 10.2856 5.6451 4.41799 0.165526 1.562 0.889394
370 10.8641 5.02395 3.766 1.87972 0.116008 -1.25155
1296 12.1706 4.66321 4.29181 -2.12315 0.860387 1.06971
2116 12.5412 5.54024 3.60602 1.13692 0.636346 0.248538
2182 13.1661 5.60809 4.44352 0.850019 0.323633 1.35026
1645 13.8137 4.55442 3.45463 -1.05533 -1.09406 -1.3077
1004 13.9447 5.8059 3.49376 -2.59605 -0.851063 -0.0353591
1489 14.1183 5.2546 4.3866 -1.27038 0.0697414 -0.738846
1217 16.0482 4.56314 3.37398 0.196497 -0.307959 -1.09384
3156 16.2194 5.59589 3.61763 -1.29152 -0.871358 0.595429
1442 14.9241 5.59997 3.85288 -0.0538164 0.777074 1.07333
2804 17.7434 5.38603 3.50499 1.06049 -0.615669 0.470822
2588 17.0285 5.82026 4.43023 0.436294 -0.121165 0.262365
2751 17.522 4.85908 4.45511 -1.4443 0.0824844 -0.947777
784 1.38462 6.76125 3.18243 2.12797 -0.257386 0.303729
1409 0.928377 6.53556 4.34388 1.39117 -0.643963 -0.2272
694 0.633745 7.4421 3.6838 -0.740758 -0.1449 0.0472008
2318 2.93318 6.92035 3.75024 0.677118 -0.274542 1.28908
3386 1.94875 6.56775 4.00471 -0.269727 2.20313 -0.0432717
1312 5.03406 6.59854 3.01223 1.31649 0.031047 0.281793
883 5.69389 7.23572 3.69428 0.523907 1.17475 0.364511
285 4.83857 6.49518 4.07139 -0.129188 0.171924 -0.0234425
1767 6.61058 5.96658 3.26112 -0.118163 0.0213864 -0.392997
745 7.44535 6.56424 3.25582 -0.0715364 -0.392537 -0.702298
1949 6.72073 7.22787 3.99557 0.0959092 1.06152 -0.478098
794 8.94696 6.54362 4.01135 1.64765 1.41883 0.0917063
1883 9.77415 6.09796 3.55667 0.958601 0.347717 -0.177725
2277 11.7519 6.47318 3.2152 0.709492 0.629599 0.314113
1515 10.7859 6.79209 3.5199 0.244944 0.554336 -0.0208845
3199 12.4022 6.36775 4.32401 1.14933 -0.106604 1.78197
466 13.1774 6.54182 3.55468 -0.689543 0.607316 -1.07396
2142 14.6255 6.79811 3.45702 0.0707269 1.37383 0.519647
2403 13.6152 7.40286 4.22512 0.593945 0.0535759 1.35637
3742 15.7028 6.21319 3.04219 -1.2922 1.183 -2.97874
3630 14.982 7.37765 4.42392 -0.559634 -0.297568 -0.893322
2766 15.4935 6.34425 4.42753 -1.48139 -0.632008 0.592054
3834 16.4068 6.91792 3.50564 -0.720606 -1.47259 0.663417
1165 17.6038 6.53192 3.66418 -0.722226 1.75594 -1.10576
2807 0.821452 8.84209 3.00251 0.710004 0.512379 -0.0531849
903 0.312625 8.44828 3.82423 1.64252 -0.92088 -1.1936
3 2.79696 7.82192 4.01473 -0.134859 1.58065 0.68825
3651 1.57051 8.05438 3.40973 1.07077 0.23091 0.905959
665 2.28033 8.59476 4.17217 -1.52578 0.896622 -0.202237
1429 3.9275 7.45431 3.70394 1.86804 -0.562467 -0.33645
852 4.84607 7.54793 4.21648 -1.56723 0.8 -0.266023
3224 4.98731 8.39837 3.75964 1.3785 0.641374 0.415722
590 5.79991 8.22707 3.19788 0.505966 -0.170248 0.139728
689 6.77573 7.69595 3.06209 -0.242678 -0.768892 1.0238
3308 7.33018 8.57202 4.2594 0.800952 0.900126 0.405438
3963 6.29226 8.3431 4.28656 -0.354792 0.429503 0.402563
2853 8.24618 8.50823 3.36598 0.692379 0.660143 -0.558224
3809 8.6882 7.5885 3.78029 0.46585 0.431896 -0.958358
3694 7.74483 7.51635 3.46944 -0.893109 -0.524022 0.138842
1728 9.22856 8.85895 3.60951 0.876275 0.289864 -0.525881
1516 9.79663 7.57004 3.85716 -1.29685 -1.32478 -0.793652
968 10.7639 7.95675 3.82471 0.834503 -0.0370913 -2.00734
3653 11.1684 8.85639 3.86847 -0.43524 -2.12171 2.21688
1494 13.0456 8.25683 4.04427 0.48633 2.10795 -1.84102
1016 12.2208 8.5583 3.37161 0.929035 0.422646 0.794209
630 12.1332 8.73652 4.39782 -0.515357 2.45599 1.15911
2247 11.9246 7.47955 3.61278 -0.250008 -0.261191 -0.762736
2752 13.5117 7.8133 3.19652 1.68982 -1.11683 -0.443293
768 14.3487 8.12339 3.68602 1.05642 0.884403 -0.582739
2456 15.4777 7.96889 3.39607 0.239521 0.588821 0.227507
373 15.6034 8.13981 4.44994 0.0972925 -1.59831 -0.838609
2908 14.9694 8.92712 3.95897 -0.347267 1.23625 1.08929
1926 17.2501 8.68921 3.21421 0.351269 1.13999 -1.15162
2234 17.4472 7.74179 3.69072 0.0802508 2.24308 -0.741558
3383 16.546 8.18289 4.03724 -0.346418 -0.562332 0.948168
821 0.208038 1.37699 4.86013 0.984947 1.08644 0.523581
1319 1.99787 1.16819 5.30537 1.61802 -0.653284 -0.771686
1397 2.26472 0.18546 5.95647 1.21219 1.54163 0.483187
277 2.68752 0.63633 4.61667 -0.565304 -0.965801 -0.144397
1694 3.36474 0.432318 5.4382 0.671647 0.863346 0.277589
2818 4.42168 0.841085 5.95875 1.65716 -0.681048 -0.161012
1651 4.03784 1.01713 4.81015 1.19948 0.245437 -2.17148
3379 4.25677 0.0115317 4.7133 -0.912603 -0.561664 -0.278888
1359 5.14469 0.107595 5.75704 -0.78716 -0.550882 -1.4111
3992 4.97248 1.03187 5.02969 0.137382 0.247531 0.315851
90 5.77846 0.977546 5.72283 -1.13442 -0.147426 0.0551383
1499 5.79307 0.327884 4.84787 1.40801 0.469361 -1.46221
1101 7.3205 0.789135 4.70981 -0.471938 0.856223 -0.940343
1829 8.82075 0.0582857 5.80404 -0.22433 0.606307 -0.068679
501 8.55681 0.698456 4.98776 -0.124651 1.12194 0.0423271
3939 7.91617 1.03158 5.72746 -0.192395 -0.141992 -0.239486
390 9.55234 0.104678 4.63799 0.546293 -1.10659 1.37448
876 10.1446 1.01187 5.42435 -1.10219 -1.13907 -0.828636
1126 11.2511 1.3202 4.53485 0.0479986 0.603309 -0.218476
1521 11.0674 0.267347 5.11336 0.529203 2.59346 -0.649996
839 13.3036 0.0665942 4.49429 1.16982 0.200215 1.38009
2303 12.2092 0.0879434 4.56991 -0.874967 0.739264 0.159334
3930 12.6789 0.800686 5.30793 0.125595 0.857417 -1.113
3154 14.4248 0.544596 5.78785 -0.418053 0.387316 -0.723805
1972 13.988 0.844871 4.86292 1.08232 -0.908544 -0.57827
3469 16.1496 0.778198 5.40928 0.187963 0.360321 1.31672
1951 16.975 0.744469 4.65057 -0.398958 -0.0368297 -0.291749
3917 0.739659 2.21534 5.94579 -1.35756 -0.0344694 -0.878056
2710 1.14747 1.89561 4.63637 -0.580744 0.183263 -0.186411
1024 2.82416 1.76835 4.68048 -1.41623 1.32329 -0.833154
3571 2.64178 2.72676 5.25218 -1.55962 0.702285 0.0958943
2167 4.08188 2.90352 5.45943 -1.1603 2.16192 -1.15683
589 3.532 2.00593 5.35098 1.21545 -0.609534 0.535808
1327 4.54565 1.78432 5.42531 0.496704 -0.0243593 0.0276059
2845 5.23444 2.51093 4.94507 0.654507 0.424889 -0.426116