ITEM: TIMESTEP
57000
ITEM: NUMBER OF ATOMS
4000
ITEM: BOX BOUNDS pp pp pp
0.0000000000000000e+00 1.7878070701931353e+01
0.0000000000000000e+00 1.7878070701931353e+01
0.0000000000000000e+00 1.7878070701931353e+01
ITEM: ATOMS id x y z vx vy vz
714 0.799561 0.234161 0.776635 0.207505 0.44011 1.54528
1865 0.711076 1.39518 1.22819 2.1602 1.64112 -0.4879
641 1.87237 1.18596 0.772597 -1.1181 0.356108 0.725291
763 3.275 1.41577 1.43585 0.601094 -1.16942 -1.23525
2482 4.76566 1.39026 1.10279 -0.172085 0.47184 -0.0565872
723 4.813 0.355037 0.430379 -0.67626 -1.55807 0.28083
775 5.36605 0.424058 1.45148 -1.1402 -2.27798 0.150592
301 5.72702 0.849571 0.274515 0.365393 -0.241683 -0.184763
3128 7.12879 0.11582 0.990613 -0.176817 -0.672613 1.08794
1718 6.98198 0.931143 0.293804 -1.44395 0.816564 -0.0657829
1791 6.37559 0.904115 1.29874 1.33581 -0.0322465 0.494969
405 8.0196 1.03752 1.04351 0.388115 1.05173 -0.849173
3222 8.79312 0.377544 0.518762 -0.728234 0.82535 -1.90161
2055 9.72687 1.42928 0.274212 -0.616852 -2.77589 0.132347
2716 10.0839 1.27318 1.43253 0.822814 0.568035 -0.411132
1722 9.04867 1.05001 1.24473 0.975732 -0.590383 0.195746
1730 9.84443 0.412245 0.0999511 -1.70803 -0.772963 0.660925
1759 9.90885 0.268857 1.12406 -2.5297 0.121422 -0.618437
2278 10.7411 1.04704 0.0454885 0.0958072 0.795453 0.355421
2246 11.2673 0.174231 0.217821 2.13739 -0.803865 1.38978
3042 11.2659 0.891691 1.17602 -1.33704 1.78361 -0.324488
2293 12.2386 0.699277 0.777666 0.620739 -0.201421 -0.274738
3201 13.1992 0.108072 0.820259 0.432974 -0.71871 2.19785
2663 13.8865 1.37703 0.630789 -1.10349 -0.288096 0.852492
3264 14.151 0.401576 0.963189 -0.42622 -0.868225 0.90467
504 16.1294 1.1192 1.04243 -0.809595 -1.09039 1.43978
3252 15.3956 0.633946 0.28771 -0.446436 0.906763 -0.491632
1827 17.4324 0.438238 0.225555 0.538879 -0.51975 2.37448
474 0.203747 2.94479 1.28832 1.85064 -1.5544 -0.201949
3225 1.16159 2.10989 0.718013 -2.47566 0.283276 0.151222
1859 2.6887 1.57163 0.299056 -0.872043 1.59453 0.753841
2668 2.24935 1.91358 1.35705 -1.35487 -0.211083 0.0046735
2191 3.80743 1.67977 0.47059 -0.776937 0.133012 0.396465
538 4.1367 2.14143 1.36279 -0.752192 -1.16631 -0.974149
3547 3.18217 2.81753 0.530034 1.91102 1.49814 0.787801
1369 5.25379 2.27516 0.729052 0.194857 3.11873 -0.849586
1634 7.14892 1.70361 1.05606 -0.569297 -0.897627 0.424999
2272 6.22609 1.71362 0.276782 0.27595 -1.80081 -0.902623
2232 7.2217 2.82085 0.308653 -0.952014 1.60245 -0.930806
1776 6.4432 2.58837 0.941862 0.175036 1.77962 2.46518
3439 8.53245 1.89365 0.56134 -1.77888 -0.686428 0.877977
834 9.24131 2.06019 1.34885 -1.45057 1.37584 -0.207011
1752 10.384 2.1932 0.352493 -2.30005 0.306779 -0.161891
1235 11.2299 2.83802 0.844766 -0.555708 -0.7743 -1.06407
3289 11.5101 1.76241 0.464812 0.35828 -0.674101 0.550633
429 12.7636 1.82399 0.604163 0.391843 0.572381 -0.960678
3884 13.0075 2.91781 0.798153 0.173102 2.01525 1.7862
349 13.3783 2.25358 1.43647 -0.872227 -1.53896 0.249526
1803 14.7751 1.6302 1.02633 0.732771 -0.985638 -2.06485
1433 14.2472 2.60979 0.842978 0.071791 0.425699 -1.89442
3332 15.5971 2.83847 0.289846 0.173975 -2.18706 1.91131
290 15.7467 2.24739 1.18666 -0.237393 0.359185 0.94703
2194 17.4301 1.74081 0.0587446 3.59775 0.34986 -0.473067
1027 16.8967 2.01843 0.85712 2.20785 0.701469 1.07802
3894 0.635425 3.02778 0.171937 0.67065 0.200658 -0.0753601
1640 0.841552 3.93147 0.558481 -1.48131 -0.3584 0.99075
446 1.37725 3.07736 1.11554 0.224439 0.0941254 -1.35702
3001 2.10349 3.40922 0.322228 -0.08559 -0.649429 0.702573
2546 4.3668 3.02923 0.397107 -1.11837 -0.112874 -0.438691
3720 4.32007 4.08982 0.574225 -1.62935 -0.112872 1.0203
363 3.49482 3.74792 1.47864 -0.574509 -1.8018 -0.684972
2082 5.26131 3.33169 1.09833 -0.904033 -0.345209 1.69218
2441 5.64424 4.31431 1.29483 0.134528 1.39104 -0.900368
330 5.79975 3.04389 0.313883 -2.61109 0.822657 -1.16704
2061 6.39063 3.50304 1.28681 -1.46809 -1.57602 -1.17898
3648 7.40321 3.05509 1.36642 1.17189 0.0388239 0.552495
245 6.76901 3.88196 0.340422 0.223011 0.504639 1.087
1000 8.13592 3.22545 0.602924 1.63779 -1.07764 1.33124
123 7.69263 4.32024 0.921726 0.945704 -1.5498 -0.274936
2542 9.90809 4.34312 1.27348 1.47056 0.987967 0.702791
3502 9.36292 2.98807 0.582424 -1.1993 -1.70842 -0.130951
2902 9.06852 4.00313 0.631364 0.03375 1.48179 -0.375514
361 10.0204 4.24154 0.182479 -0.614355 -0.133504 -0.683945
1698 10.7424 3.80474 0.740698 -0.26818 -0.0977287 1.32675
1162 12.2528 3.5468 1.2927 -0.868092 0.357878 -0.101715
1967 13.7816 3.96773 1.08488 0.249335 0.407964 -1.0201
1940 15.6917 3.4684 1.19413 1.1789 -0.540668 -0.921184
2142 15.14 3.87235 0.359176 -0.450736 1.22069 0.139042
2467 16.2748 4.35939 0.559022 0.97953 -0.564184 0.390032
2069 16.5523 3.30099 0.376317 -1.71405 -0.274292 -1.64244
922 17.8429 4.07618 1.29353 0.574353 -0.617729 -1.97829
1564 17.3195 4.34995 0.0430828 0.835347 -1.09465 0.167368
441 16.5802 3.98832 1.46573 -0.6629 0.928575 0.496323
360 0.192042 5.00032 0.798693 1.75845 0.863658 0.335035
1321 2.25534 5.62582 0.996528 0.273748 -0.640367 -0.623754
13 1.51827 4.73754 0.16694 -0.646836 -0.359721 -0.648926
3271 2.85248 4.48648 0.71991 0.651687 -0.905162 1.34862
3336 3.34109 5.90431 0.839449 0.0265251 -0.640866 0.0472165
908 3.62679 4.9738 1.38577 1.05403 -0.924789 -0.656938
2472 3.90147 5.08149 0.0130329 -1.409 -0.155174 0.55357
2147 5.78571 5.44384 0.820276 0.477781 -0.847849 -0.984347
2746 4.70001 5.08143 1.16412 -0.455976 -0.377923 0.676145
738 4.88738 4.93469 0.0650588 -0.32005 -0.517068 1.7678
395 6.67764 5.80785 1.18199 -0.0683849 -0.228189 -1.76823
3402 6.62173 4.80753 1.3325 1.50962 1.60999 -0.889358
1267 6.7072 5.05326 0.246554 -0.873083 -0.970423 -1.24595
1763 7.51272 5.57505 0.41598 -0.624441 -1.09604 -1.68403
2768 8.54218 4.95109 0.621147 -1.49568 -0.882373 -0.266765
410 9.55102 5.25177 0.998009 0.261747 -0.0952466 0.760666
914 10.3875 5.21428 0.0789025 0.721455 -0.12206 1.22891
1170 10.8809 4.64659 1.39049 -0.554398 0.0897126 -1.10602
1704 10.5162 5.6805 1.20104 -0.94978 0.646776 0.150682
385 11.6578 5.55937 0.499949 0.322114 -0.643883 -1.07232
2653 12.7686 5.50662 0.876611 0.178405 -0.86853 1.07135
3820 12.0463 4.48159 0.716052 0.269117 0.0473264 1.28952
116 14.288 4.61606 0.175191 -0.619657 0.158481 0.783881
2980 14.6578 5.72486 0.273742 -0.322746 0.960556 0.577584
2367 14.7247 5.03961 1.30278 -0.129256 -0.957336 0.329151
2894 13.7009 5.12379 0.864143 0.520546 1.7928 -0.601157
3132 15.401 4.93153 0.292146 -0.398372 0.968884 0.493622
2709 15.6508 4.60532 1.43629 0.925724 -0.561063 0.351628
1343 15.9714 5.60563 1.16642 -0.286497 -0.525696 -0.378529
3885 16.5607 5.44813 0.118874 -1.00793 2.1431 0.0487652
635 16.9879 4.87785 1.034 0.459103 0.831843 0.476921
1446 17.5606 5.92047 0.154269 0.815993 0.681046 -1.52814
2751 0.416343 6.59497 0.468274 -0.681417 1.96807 0.467848
2345 1.32558 6.98525 0.938152 0.17773 -1.15317 -2.05445
1198 2.48262 6.18401 0.0237966 1.54905 0.167068 1.42366
2524 3.10213 7.02373 0.323966 -0.174514 -1.30742 0.38415
3767 4.42513 6.09666 0.798066 -0.213875 0.137965 0.671493
857 5.47755 6.43767 0.655848 1.59581 0.779118 -1.40849
2613 4.56141 7.03393 0.982351 -0.473405 1.98925 -1.69519
3482 4.98374 7.43941 0.0732489 -0.486321 0.310025 0.257091
7 7.13677 6.60139 0.532978 -1.54592 -0.577242 -0.28636
3611 6.35379 6.19753 0.0304149 -0.579155 0.0985331 0.958429
2684 8.40167 6.60237 1.47768 -1.02679 0.649613 -0.13665
454 8.65246 6.00752 0.602078 0.42004 -0.602911 0.874009
1406 8.25857 7.21185 0.694898 -0.948632 0.941188 -0.940569
3702 9.92519 6.50129 1.26277 0.0989411 0.926406 -1.09687
2494 9.60486 6.03091 0.284289 0.57224 -0.609674 -0.307087
1622 9.34873 7.12639 0.554287 0.397298 0.521129 0.269163
211 11.7362 7.19838 0.606937 0.752883 0.51835 -0.306321
464 10.686 7.29128 0.958643 1.05477 -0.192478 1.06071
3060 10.58 6.33963 0.264854 -0.95013 0.159282 1.15244
3852 12.1239 6.44488 1.32001 1.13731 0.103309 1.81146
3008 12.4192 6.22001 0.132855 0.176984 -1.1225 -0.660646
3409 14.0842 6.48452 1.25276 -2.54097 -0.398997 0.382187
1976 15.0624 7.31108 0.684765 0.00146865 -0.656069 1.69383
3944 16.2146 6.91957 1.05334 -1.27175 -0.984905 -1.91933
1217 14.9984 6.19895 1.24524 0.68376 0.119095 0.225821
1731 15.8069 6.18858 0.304056 -1.01876 -0.377671 -0.214366
329 17.0392 6.42103 0.891016 -0.415137 -0.443125 0.211338
1567 1.20379 8.0171 1.33426 1.47858 -0.0808538 0.0436436
1611 0.21319 7.47834 1.06175 0.106438 1.02574 0.822585
2968 0.887808 7.62913 0.232484 0.086997 1.00057 0.145571
295 0.536107 8.8414 0.659474 -0.333095 0.439752 -0.563862
2230 2.88469 8.89036 0.309489 0.494559 -0.443596 -0.104915
2622 1.51945 8.641 0.316165 -0.457978 -0.904639 0.356974
2914 2.02832 8.70071 1.1748 -1.41533 -0.316107 -0.327228
1211 2.31851 7.57044 0.67724 -1.60682 -1.66318 0.602721
2056 3.55086 7.61757 1.34444 1.17575 -1.04027 1.08338
3591 3.19655 8.60432 1.29563 0.141929 0.890676 -0.8491
568 3.85277 8.44989 0.410642 -0.13584 -0.565291 1.15698
1856 4.96521 8.48671 0.560717 -0.953217 1.72664 -1.03553
2302 6.08564 7.87808 0.20616 1.68978 -0.290558 1.52014
238 6.28996 7.92287 1.25671 -0.118031 1.59397 -0.797458
2053 6.48584 8.88758 0.40257 -0.251322 0.196368 0.350837
3371 8.16144 8.88752 0.517446 -1.60069 0.251043 -0.910281
3656 8.70712 8.02659 1.09917 0.751316 0.933988 0.785305
1743 7.68353 8.39701 1.44232 -0.0378945 0.400154 1.53362
2465 9.09319 8.22121 0.0978574 1.98746 2.42972 -1.52435
1159 9.85073 8.02172 0.891864 2.48466 -0.765861 -1.32229
1942 11.1813 8.17413 0.663889 -0.512937 0.8351 1.27474
3833 12.7471 8.04095 0.638585 -0.234547 0.710152 -1.67211
3765 11.9462 8.87812 0.746548 0.641182 -0.848834 -1.38572
2928 13.9186 7.6665 0.35406 0.0259518 -1.94634 1.47071
742 13.5188 8.22799 1.17435 -0.997872 -0.0385618 1.24443
2704 14.4444 8.48667 0.749091 0.758236 0.0877289 0.366716
2852 16.3161 7.95757 1.19225 -0.781326 0.452254 0.858547
3461 15.5012 8.8017 0.834967 -2.80053 -1.01615 -0.428835
1760 17.097 7.45013 0.735571 0.425527 0.080479 0.176336
3325 17.2131 8.41691 1.0045 -0.380129 -0.0499765 1.0936
773 0.595015 1.4016 2.68929 -1.22845 -2.37142 -0.818885
277 1.35381 0.654954 1.77857 -1.30358 0.330337 -1.03665
3091 0.234073 0.34095 2.7792 -0.614018 -0.985959 -1.33989
2681 2.01188 0.805146 2.61259 -2.0409 -1.05582 0.84803
528 3.29507 1.12175 2.74434 -0.43989 -0.0463308 -1.36981
2576 3.67512 0.194787 2.5519 0.633504 0.753182 -1.11932
2106 3.28822 0.0179461 1.59348 0.8716 -0.530775 -0.754117
371 4.63553 0.404922 2.49337 -0.938762 1.64059 0.561973
1969 6.24283 1.46673 2.52556 1.66069 -0.611047 -0.861883
3471 6.96413 0.244528 2.75127 -0.0461676 -0.328322 0.10865
3217 7.54911 0.911962 1.93118 1.35481 -1.10639 0.708037
812 8.95646 0.549316 2.44347 0.923855 0.344706 0.848672
334 10.1494 0.880002 2.96212 1.54885 0.39557 -1.60912
1403 10.4549 0.301482 2.11647 -0.785868 -0.372985 0.517086
2060 11.2929 1.28086 2.61675 -0.127801 1.92972 0.0242342
2993 11.699 0.491015 2.17103 -0.592276 0.569728 -2.68551
266 12.8984 1.27356 1.54527 -0.352929 0.409871 -0.146305
2285 13.8315 1.18823 2.30675 0.986371 -0.604466 1.61608
1112 13.7889 0.0703405 1.92873 -0.10501 -0.71111 0.518169
3116 15.0359 0.355652 1.78342 -0.256346 1.14166 -2.03463
2314 14.9579 0.171319 2.835 0.210095 -0.883062 0.933578
2326 15.7519 0.718027 2.46029 -0.867681 -1.14525 1.32572
1658 17.6999 0.107957 1.56046 -1.82612 1.03996 -0.261392
338 16.9116 0.48736 2.2248 -1.7863 0.998226 -0.720196
3842 1.38888 2.02549 2.20802 -0.545859 -1.09214 -2.33169
3129 0.236026 2.37735 2.33839 -0.517706 1.69936 -0.597956
1011 2.72194 1.95621 2.31721 -1.84046 0.401292 0.274469
1221 2.06275 2.90347 2.48495 -0.0177716 0.219647 0.456017
1319 3.24859 2.55849 1.55712 -0.181542 -0.388561 -1.35383
1120 3.77941 2.19923 2.36482 -1.93522 2.24475 -3.12549
1739 5.6164 1.65397 1.55735 0.0115592 -1.02006 -0.271237
2972 5.24218 2.51676 2.07661 0.468553 1.08672 -0.956112
1359 4.70444 1.67082 2.4572 -0.0738604 0.0451807 -0.700231
400 6.83184 2.41407 2.04669 0.0124496 0.0149961 0.466885
1690 8.08078 2.14043 1.61596 0.456123 1.33725 0.620604
3048 7.68104 2.28915 2.66796 0.788864 1.223 0.356233
3391 9.00005 2.86184 2.36044 -0.0106437 0.284593 0.127987
278 9.78478 1.84306 2.1773 -1.04946 -1.05343 0.0616967
1152 10.8933 2.16343 1.95174 -1.71093 1.38538 2.26535
3805 11.6621 2.7998 1.80015 -0.52289 0.154898 -2.01089
3779 11.7788 1.74835 1.71113 -0.185957 -0.377359 -0.0321172
2396 12.8001 1.74099 2.76949 0.709739 -2.34886 -1.1386
2466 12.5388 2.8642 2.39659 -0.733132 1.71054 -0.236943
3330 13.3865 2.54355 2.91955 0.721823 0.356347 -0.104161
586 14.7667 2.74918 1.76694 0.511226 -0.200356 -0.584313
2861 14.0572 2.14752 2.24532 -1.0169 0.735276 -0.0352752
1513 14.969 1.67089 2.20715 0.821656 -0.0661444 1.11246
2630 15.7604 2.43103 2.3602 1.36292 0.682679 2.29337
431 16.3351 1.51216 1.99502 1.09167 -0.828521 1.39286
3832 17.6077 1.66998 1.60894 -2.43203 0.523416 0.013959
2640 17.0197 2.2578 2.45239 0.60199 -0.533501 0.203762
1452 16.4912 2.93283 1.60709 1.66589 0.302018 1.97247
1175 0.943814 3.14458 2.03989 -0.0920472 0.32058 0.834144
3839 0.379264 3.81027 2.72671 -1.16362 0.037918 -1.28795
229 2.52581 3.39066 1.64156 1.69753 0.740293 -1.39314
1032 1.51559 4.13236 2.02588 1.3616 1.40538 0.656562
2027 4.28962 3.12171 2.18402 -0.882751 2.08447 -1.28652
3258 3.3498 3.49126 2.54032 1.15854 -2.32103 1.26778
1022 5.33446 4.07424 2.2047 0.0659329 0.32248 -0.352758
1200 6.113 4.13931 2.91704 0.203116 -0.32878 1.17756
966 6.01417 3.10882 2.57709 -0.644741 0.97503 0.101555
1767 7.0942 3.50855 2.3737 0.867423 -0.48454 -0.127644
91 8.04552 4.2001 2.48829 -0.0333106 -0.648482 0.406429
1666 8.10228 3.08834 2.2207 -1.45399 1.88972 -0.92516
2816 8.39123 3.83362 1.5192 1.57026 0.774003 1.51632
3841 9.58646 3.32319 1.53569 -0.139922 1.69179 -0.3609
1949 9.42075 4.34264 2.22192 -1.46125 -0.672756 -0.244971
1994 10.6017 3.62014 1.86067 0.0708908 -0.94801 0.632392
2784 12.9248 4.32971 1.66574 -0.158768 0.955069 -1.05376
1303 12.287 3.80638 2.85792 -0.787637 0.0256158 0.791215
677 14.8157 4.00343 1.59632 0.702637 0.256062 0.422024
3930 13.5252 3.34901 2.15248 1.03838 -0.144711 -0.0235487
2452 14.23 3.47756 2.96451 -1.75118 -0.192799 -0.902384
2313 15.1917 3.53023 2.76436 -2.04358 1.0247 0.509049
174 16.0293 4.18481 2.40633 -1.17841 0.345616 0.574901
2572 17.4413 3.35837 2.04291 -0.0233361 0.0843923 -0.0288177
3836 16.4636 3.20969 2.74569 -0.680193 1.0371 0.340948
3664 1.47752 5.62316 1.82628 1.56215 0.331649 0.134134
3109 0.403644 5.23758 1.74891 -2.26237 1.55133 0.904771
1157 2.5602 4.64203 1.69135 -0.754004 -0.250859 2.73443
1531 2.90136 5.04495 2.90108 -0.0871376 0.651779 0.359857
1809 3.34817 5.59271 2.08914 -0.737973 0.453215 -0.854202
1657 5.52648 4.92878 2.97255 0.0146719 0.303619 1.20305
804 4.47901 5.53879 2.07889 1.53526 0.377085 0.952724
2453 5.24038 5.87759 2.66293 -0.752053 -0.985396 -0.520486
2937 6.16377 5.32993 2.07602 0.321362 1.22951 -0.401401
2495 7.1457 5.4263 2.71756 1.56269 0.485373 0.626684
3876 8.81383 5.03184 1.73124 -0.608863 1.2749 2.08999
182 7.95524 5.44294 1.50361 -0.105753 0.624014 0.343979
1316 8.24149 5.54215 2.47341 0.476171 0.0458666 2.19393
701 9.68589 5.23785 2.73086 0.545266 -0.689055 -1.41307
1131 9.22769 5.87034 1.91794 0.507608 -2.26296 0.519612
1314 10.6104 4.89719 2.32475 -0.891014 -0.641283 -0.44308
830 11.6723 4.5116 2.0126 0.456496 1.18735 -0.519353
180 10.5045 5.91495 2.29893 1.08976 1.30501 -0.159841
2067 11.6199 4.86236 2.92051 0.188543 -0.262842 0.0202232
1124 11.8683 5.54266 2.08815 1.83939 -0.893527 0.112863
3498 12.6038 4.97999 2.45979 -0.574027 -0.0636857 -1.18703
1773 13.3901 5.8021 1.74837 -1.05995 -1.15675 0.514201
1659 14.8005 4.48786 2.66295 0.989632 0.419499 1.67026
718 14.6284 5.79825 2.22096 0.64311 -0.556312 -0.222283
2111 13.914 4.76547 1.8878 -1.19504 0.813358 0.244965
1754 15.5221 5.37647 2.09476 2.15381 0.640516 -0.564682
816 16.5632 5.38176 2.28092 -0.699238 -0.399102 1.37245
110 17.439 4.65104 2.11626 0.257786 -0.0635118 -1.08615
919 0.58094 6.37759 1.6307 0.0464291 -0.77133 0.940452
3386 0.71074 7.18881 2.63843 0.653789 0.653284 0.398588
2925 1.12018 6.29549 2.53117 -0.667366 0.737733 -0.865304
2143 2.29764 6.40095 2.34622 -0.419974 1.16928 0.0640468
373 1.61065 7.17648 2.20827 -0.0593232 1.66746 -1.74422
3607 3.93676 6.60896 1.57665 -0.15741 0.944295 1.62573
752 3.37316 6.82481 2.50157 -1.00557 0.0549078 1.568
771 4.28206 7.39201 2.33541 1.40138 -0.310462 0.50517
3166 4.23431 6.34086 2.71877 -0.176774 1.32247 -0.439678
3374 5.09864 6.37712 1.69081 0.341077 1.59124 -0.856661
3376 5.31011 7.26188 2.44713 -0.715183 1.07847 -1.52328
307 7.30009 6.47353 2.51449 -0.534873 -0.488466 -0.346255
3211 6.26824 6.81469 1.51633 -1.23014 1.09992 -1.45133
3476 6.45461 6.80532 2.93372 -0.739679 0.489851 0.368439
1442 8.42169 6.51133 2.6015 -0.931522 -0.408439 -0.430556
881 8.046 7.33166 2.23184 0.719327 0.492973 0.281964
418 9.27825 7.39999 1.69199 -0.496918 -0.232275 0.230913
3147 10.129 6.77547 2.29857 -1.07935 -1.09828 -1.25144
3991 11.1234 6.52703 2.87217 0.201072 -0.547582 0.087608
750 10.7806 7.4067 2.75966 0.958988 -0.806197 -0.878082
926 11.8161 7.42456 2.06263 -1.04728 -0.833271 0.996543
1588 11.135 6.68836 1.67379 0.596985 0.0678601 0.964745
2696 13.0063 7.01661 1.64871 -0.744404 -0.935578 0.573956
1409 12.1484 6.52408 2.45224 -1.13274 -2.53804 -1.17716
250 14.3624 6.82431 2.22916 -0.0680476 -0.356906 0.719313
2659 16.303 6.35225 1.92177 0.545179 -1.22816 0.573395
2163 16.2456 7.39638 2.17482 -0.383779 0.525715 -0.382662
125 15.3242 6.54646 2.445 0.345768 -0.139434 -0.527627
665 17.5896 6.57378 2.48609 -3.39896 0.833584 -0.173604
784 0.237489 8.42122 1.60644 -1.20828 0.374767 0.829185
1869 0.0215532 7.8987 2.64004 0.00105202 -1.29885 -0.0860228
3677 0.787916 8.77374 2.41286 0.0914005 -0.775927 0.162301
210 2.52512 7.78085 1.89164 -1.2344 -0.767333 -0.756952
694 1.63482 8.04222 2.75454 0.141854 -0.0995434 0.654552
377 3.40211 8.08674 2.70728 -1.06539 -1.14118 1.23408
1575 4.45109 8.91674 2.57937 -0.106409 2.50996 0.0320145
2710 5.14068 7.78057 1.59996 0.0185889 -0.00407645 -2.01755
2926 4.47434 8.53891 1.49066 -0.511263 0.491532 1.90118
2411 5.81991 8.29167 2.46983 -1.00891 -0.642044 0.927877
16 7.01469 7.69397 2.0453 1.20093 -0.888535 -0.62249
358 7.73498 8.06961 2.96106 1.24522 0.0212679 1.08989
3695 8.75925 8.24666 2.23271 -0.88579 -0.509204 0.582267
1302 9.9424 8.43848 2.74227 -1.82307 -1.0848 -1.04619
466 8.97751 7.46455 2.90634 1.78554 -0.896574 0.504653
2801 10.7963 8.01302 1.99844 -0.762763 0.276541 -0.235264
126 11.0572 8.40394 2.87492 0.352076 0.507531 2.33714
3655 12.3293 8.4958 2.72657 -0.666531 -2.67195 -1.25952
707 12.6368 7.99347 1.65669 -0.459635 -0.106649 0.818266
2161 12.8007 7.50866 2.69179 -0.556692 -0.564281 0.888495
1451 13.2684 8.79601 2.40852 0.362584 -1.20374 -0.894688
3470 14.8812 8.69666 1.76464 -0.0469704 0.590952 0.794747
1758 15.1295 7.75396 2.28864 -0.746199 -0.583871 0.61004
1990 16.017 8.68091 1.93946 -0.0254353 -0.45217 1.66803
802 17.412 7.47404 1.79874 -0.325197 0.643681 0.566933
1297 17.0744 8.6564 2.26435 0.303646 1.06993 1.07163
1464 0.273425 0.516716 4.24526 0.412456 -0.159226 0.653653
1438 0.95381 0.904895 3.38637 0.0247681 0.475599 -0.415808
124 2.21959 0.17663 3.54232 -0.843306 1.23377 0.769775
2600 1.92029 0.799587 4.39827 -1.75847 -1.94526 1.90872
2220 2.66524 1.44071 3.81029 -0.487409 1.16357 1.03463
10 3.24465 0.50343 3.64404 0.359138 0.193607 0.472114
3084 4.39113 0.521761 3.86524 -0.286895 -0.745035 -0.680445
2979 3.99266 1.34807 4.40851 0.223921 -0.310424 -0.0702606
2835 5.52116 0.400923 3.06928 -2.39065 0.222711 0.222257
2791 5.12664 1.22273 3.68943 1.14101 0.900757 -1.5589
2537 6.65104 1.12512 3.50366 0.100701 0.937625 1.38507
381 6.15815 0.330484 3.90772 -1.39386 -0.196736 -1.48468
2384 8.38214 0.521688 3.37348 1.1644 -1.08596 0.164782
2028 7.46134 0.460744 3.71596 -0.322813 -0.671941 -0.0603125
1650 10.0974 0.957549 4.18548 0.486739 -0.687472 0.543056
1150 9.19999 0.41061 4.31221 1.75503 -0.0862544 0.574687
2601 10.9969 0.400162 3.48587 -0.622213 -0.983776 -0.510165
554 10.8648 1.37628 3.49455 -0.115223 0.229349 -0.593677
3937 12.3697 0.610019 3.29635 1.28834 -0.34707 0.283459
3697 13.3968 0.588479 4.3601 0.45044 0.0753169 0.85953
2657 13.4861 1.18561 3.28944 -0.24163 1.17123 0.0240184
1903 14.5116 1.10706 3.22344 1.24349 0.723461 -0.41215
2532 14.1209 0.035224 3.37826 -1.06554 0.719363 -1.38903
1669 15.0557 0.415082 3.83748 2.29717 0.916918 1.51546
534 15.4955 1.38513 3.21474 -1.22378 0.857603 -1.35097
1434 15.8362 1.18395 4.21284 -1.10252 -1.01726 -1.43801
1432 15.982 0.077286 3.34361 0.809519 1.45499 1.24703
498 17.6224 1.36099 3.22176 -0.735844 0.776384 -0.29426
2765 16.6071 0.950569 3.3427 1.4532 -1.55687 -0.0168683
75 16.825 0.379304 4.13144 0.793335 0.245072 -0.530229
331 16.9646 1.42535 4.19702 1.5333 0.644113 -0.311193
2446 1.44066 2.6588 4.45065 0.0216767 0.933021 0.136328
2683 0.46512 2.18155 3.56614 2.09295 -0.780634 -0.279822
3014 1.81311 1.93759 3.54815 -1.08084 1.12419 -0.0993212
1248 2.91595 2.4777 3.24431 1.6054 -0.120218 -0.712726
262 4.16143 1.63337 3.46032 -0.68825 1.08901 0.811654
2155 5.85699 2.20694 3.06771 -1.10911 -0.622758 1.45884
86 4.69644 2.59389 3.18631 0.328542 0.937719 0.991661
2854 6.9453 2.35887 3.5603 -0.332841 0.580139 0.0849468
2321 8.55532 1.66848 3.84848 1.17778 0.482155 0.0322751
1492 7.52739 1.90588 4.23909 0.799498 -1.08074 -1.94186
1019 10.2954 2.3022 4.39818 0.358816 -0.551463 -0.607559
1244 9.50789 1.90891 3.20351 -0.475753 -1.13226 -1.08614
810 9.55161 2.71134 3.89946 -0.707741 -1.33926 0.95858
3733 11.8749 2.47925 3.28611 0.288678 -1.36587 -0.714112
1414 11.5315 1.68142 4.28984 0.823953 -0.288728 0.930074
2274 11.2364 2.7587 4.04975 -0.836543 -0.00109656 -0.426446
2750 10.7353 2.64944 3.15647 -1.87226 -0.734935 0.160912
697 12.4672 1.74276 3.91991 -0.697477 -1.12777 0.199727
3554 14.4855 1.91029 3.9491 0.355135 0.0256975 -1.10275
656 14.8677 2.48436 3.04478 -0.332045 0.409056 0.985009
370 13.9263 2.80891 3.80427 -0.330867 0.79237 0.395288
2084 15.8008 2.28619 3.96487 -0.692797 0.966361 0.546513
1189 16.9473 2.29937 3.55601 0.128771 0.774443 -1.04343
3745 1.40312 4.41418 3.17183 -0.713859 -0.126407 -1.51367
2620 1.17719 4.29031 4.26004 -0.110882 1.52396 0.448351
608 1.35994 3.20298 3.22575 0.50304 1.15898 -0.894492
3613 0.384009 3.3537 3.96375 -0.502808 0.937131 -0.64059
3920 2.36039 3.91148 3.43013 0.258968 0.289147 -0.603236
3796 2.7197 3.0941 3.96347 1.2774 0.808581 0.483802
724 3.92301 4.32733 3.01068 0.732127 0.21693 1.56152
2159 3.89898 3.05781 3.31075 -1.08291 -0.0947023 -0.320802
3571 4.00177 3.92316 3.9111 -0.526314 -1.43375 -1.03321
1470 5.01028 3.05752 4.11458 -0.00114181 -1.09577 0.947778
1035 4.92211 4.18539 4.23952 1.731 0.333535 -1.10749
3975 5.06954 3.76717 3.26617 -0.695291 0.611557 1.26936
3851 7.31911 4.10958 3.37555 1.65266 -0.853742 0.780585
2289 6.48388 3.36013 3.49348 0.425889 -0.517704 -0.220631
42 6.1912 4.17829 4.20437 -0.735218 -0.489133 -0.0771209
936 7.42471 3.78548 4.43811 -1.11582 0.0174067 -0.491578
1318 7.6832 3.13891 3.77699 -0.442392 -0.456147 0.382497
382 8.71404 3.53498 3.15941 1.51299 -0.41843 -0.718455
34 8.51023 3.83025 4.32395 -0.350847 0.610214 -1.38979
2008 10.0484 3.68516 3.30221 0.427604 0.80311 -0.695881
1480 9.39466 4.36755 4.09658 -0.521992 0.322717 -1.57127
2288 10.8875 3.88437 3.82737 -0.246489 -0.967883 -1.66569
1098 11.8231 3.60793 3.70526 0.544433 2.55134 0.916225
3515 12.9833 3.24 3.51593 -1.90002 0.665828 0.177973
1725 12.7586 4.25533 3.69515 2.33254 0.336604 -1.62298
1096 13.6433 4.38095 2.98911 0.281201 -0.261137 0.076661
3909 13.9867 4.05556 3.98824 0.572335 0.119847 0.877087
249 14.9415 3.5365 3.89966 1.29003 1.44026 -0.920391
3739 16.4405 3.23138 3.93136 -0.0245925 0.577769 0.0235526
1437 17.2967 3.31897 3.27806 -0.58512 0.0607305 0.25107
1126 16.5552 4.34233 4.17689 1.53489 0.837168 -0.779576
435 16.8221 4.35558 3.11963 3.51014 -2.17884 0.111616
48 17.7373 4.23416 3.70407 0.105617 -0.663381 -0.74717
3582 0.453073 5.92521 3.29232 0.967254 0.301812 -0.804231
3248 0.561002 4.90792 3.02923 -0.804924 -0.449427 -2.11806
651 0.366345 5.22354 4.18221 0.0383655 0.183443 -0.612101
1266 1.50088 5.38283 3.14993 1.42185 -0.880132 0.832249
1517 2.25799 5.05412 3.91987 -0.172285 0.56299 0.101156
1249 3.95155 5.46097 3.38335 0.568367 1.15055 1.4062
1647 4.1302 5.01774 4.45971 -1.65544 -1.22076 1.2595
1786 3.03582 5.85729 4.41593 -0.795635 1.68575 -0.953517
2909 3.27065 4.70379 3.88081 -1.73845 1.24101 1.42426
3234 5.72305 5.30018 4.1742 1.31669 -1.37948 0.0036501
296 6.64317 4.85699 3.619 0.671427 0.301741 -0.308738
1930 6.71802 5.89252 3.61701 -0.0980644 -0.223286 0.820876
1840 7.73972 5.0261 3.54712 -1.11059 -1.15457 0.480752
2423 8.73645 4.6768 3.07953 0.853926 0.706852 0.983385
666 8.6356 5.07154 4.14499 1.90762 -0.182112 0.851073
1289 7.72635 5.61372 4.35796 1.32874 -0.751765 0.992481
1515 10.33 4.69221 3.37985 -0.565789 0.996214 1.66436
2890 8.98346 5.92748 3.62642 -0.583957 1.1905 -1.64117
861 11.2787 5.82414 3.7467 -1.31817 -0.965174 -0.548819
1539 10.8768 5.09872 4.4682 -0.0674901 1.54578 -0.132024
2277 11.6638 4.65292 3.97627 -1.95438 -0.00463931 1.4659
1329 12.5 5.38507 3.70834 -0.482819 1.20772 -0.554474
1199 14.8257 5.81272 3.92673 0.689119 1.00643 -0.600018
760 13.9505 5.08225 3.87772 -1.0367 -1.2421 0.816756
3118 14.8272 4.63262 4.38514 0.718645 -0.175912 0.808855
969 13.5806 5.51046 3.07017 0.504041 3.57374 -0.110247
3368 13.4646 5.78022 4.35164 -0.685375 -0.217633 -0.818473
3169 15.3352 5.5744 3.12038 1.94884 -0.0280348 -1.36599
3878 15.5876 4.50771 3.30659 1.13604 0.674639 -2.06051
2952 16.2834 5.36572 3.41322 -0.392184 -0.343963 1.18236
811 15.6326 5.29447 4.27481 0.438021 0.852061 -0.683157
2588 17.0236 5.52196 4.33383 -0.119828 1.57592 1.75514
1273 17.3642 5.21514 3.23333 0.426316 1.20989 1.33157
2605 1.14149 6.27294 3.99191 0.00120928 -1.06622 0.888529
1896 0.521512 7.27505 3.96142 1.05223 -1.32502 1.78855
1761 2.39769 7.35867 4.39437 0.14927 -1.46984 1.39107
1898 2.3125 6.0868 3.30132 0.202728 -0.284595 -0.930332
2596 2.71301 7.11323 3.24829 2.1977 0.717462 0.604351
903 4.03255 7.18598 3.31794 -0.482299 -0.192123 -0.833166
175 3.34305 6.26528 3.41002 -0.187354 -0.418811 0.0818286
2025 3.46945 7.07232 4.12337 -0.0427422 0.493407 1.17026
3366 4.56655 6.32072 4.01968 -0.381725 -0.694345 -0.0227542
937 5.46518 6.63353 3.38135 -1.08901 -0.533965 -0.445184
3301 6.3564 7.06084 4.01393 -2.30901 -1.33882 1.07101
425 7.85125 6.13595 3.42695 0.921003 -0.441093 -0.165758
1426 8.4605 7.10806 3.75647 0.162814 -0.0322843 -0.490615
1798 7.47818 7.21322 3.5799 1.36719 0.886088 -0.725325
3585 10.241 6.28386 3.99017 -0.643257 -0.192782 -1.14811
2009 9.89964 7.14285 3.53004 -0.780244 0.0803204 1.90836
614 11.1417 6.98026 3.85988 -1.26144 0.80594 -0.604158
3982 12.4434 6.52039 3.46664 -1.32899 0.614704 -0.345298
247 12.9526 7.41052 3.83141 2.9141 0.5946 1.02015
879 13.5544 6.50267 3.44463 1.04584 -1.64403 0.0718339
3273 16.1229 6.25246 4.10933 -0.163237 -0.227127 1.86116
2898 15.8835 7.14058 3.50529 -1.55054 1.54681 0.492459
1231 17.6042 6.73312 3.72814 -0.562113 -1.0337 -0.244063
135 16.8718 7.27251 4.2609 0.813843 1.50191 -1.18211
177 16.6321 6.55703 3.00603 -1.2232 1.22597 -0.706065
3449 1.31716 8.91733 3.21535 -0.515284 1.18486 -1.22873
1674 0.598017 8.67877 3.95264 1.4958 1.02848 -0.56496
1872 1.62522 7.76722 3.81137 -0.478138 1.09603 -0.881728
2847 2.46975 8.38369 3.51567 0.393773 2.34685 0.576473
1923 3.34818 8.18742 4.0681 0.292011 0.999345 1.30007
2758 3.90778 8.86307 3.46512 -2.43409 -0.664595 0.459478
14 5.57398 7.669 3.54096 1.80624 1.54464 -0.372495
2764 5.7433 8.72571 3.37781 0.0300026 1.09886 0.440748
253 4.79125 8.05053 3.02261 -0.762485 0.95867 -0.823291
2186 4.65769 8.20826 4.04092 -0.269878 1.33801 -0.966323
1429 6.61041 7.75644 3.01418 -0.019006 0.0990085 1.81357
2503 6.80927 8.06669 4.12552 -0.0959167 -1.05394 0.409222
3381 6.74082 8.88585 3.1824 0.838652 1.02262 0.397711
1328 7.83785 8.08589 4.07307 -0.983048 1.93926 1.05377
2742 10.0912 8.81852 3.79159 -0.907347 -0.427814 -1.30934
130 9.15289 7.93057 4.07609 1.18018 0.757454 0.905564
648 11.1478 7.99621 3.96409 -0.317969 1.43439 0.242755
817 11.7011 8.90072 3.91777 0.076358 -0.381982 1.9717
1490 11.8876 7.72121 3.35677 0.436056 -0.70201 0.134498
3550 12.7563 8.41452 4.31121 0.968864 1.19437 -2.39496
77 14.514 8.43458 3.09985 -0.270349 1.24741 0.0852263
1631 13.4279 8.75689 3.51287 1.15525 -0.888624 -1.01627
3122 14.1743 7.71031 3.80398 -0.347027 -1.42825 -0.946536
3383 15.374 7.91585 3.90053 -0.0685234 0.5664 0.820928
2695 15.9968 8.40809 3.24871 -1.32459 1.24463 -0.124232
2563 16.8166 7.67222 3.20452 -1.09694 -0.167051 -1.27896
520 17.6978 7.93807 3.72534 0.702063 -1.4976 0.749189
2983 16.9275 8.6296 3.88641 0.0256005 1.43213 -0.28815
1165 17.7149 8.92286 3.11042 -0.465434 0.193074 -0.306395
3154 1.09445 0.116702 5.56965 -0.294946 -0.687736 -0.298281
3331 0.560514 1.30617 5.35076 1.22049 -1.92971 0.643487
1914 2.3509 0.110444 5.46235 0.957253 -0.0409821 -0.678746
2818 1.59818 1.268 5.43784 -0.647705 -0.357473 -0.183684
2711 3.07272 0.731959 4.66493 0.330645 -1.11378 -1.77263
1049 4.45926 0.0413858 5.12138 -1.70987 -0.111555 0.458008
2394 4.16683 1.09791 5.42747 -1.74749 -0.530357 -0.899761
183 5.30848 0.859939 4.95904 -1.33558 0.193074 -2.89946
870 6.42584 1.02497 5.9341 2.55226 -1.0223 -0.81659
3628 7.38818 0.358129 5.69561 0.779886 -0.300704 0.309084
578 6.31322 0.464851 5.08126 -1.76013 0.102935 -0.753804
2433 7.28011 1.25531 5.26027 -1.68283 -1.4656 0.0927232
3923 8.06057 0.626834 4.95123 0.610688 1.70955 0.76612
2655 9.69225 0.873193 5.2006 -0.14512 0.424448 -0.180752
2820 10.6475 0.882132 5.00855 -0.798515 0.365136 0.783858
3875 11.7769 0.704683 4.71935 -0.0757393 -2.92386 0.857824
2996 11.3273 0.311814 5.51996 -0.240861 -0.221196 -0.796684
3447 13.0064 0.511082 5.59722 -0.369026 -1.04859 1.47089
3269 15.7403 0.292363 4.68599 -0.0481377 -1.78097 0.628837
968 15.3619 0.287178 5.66315 -0.409985 1.41066 0.0439141
2800 15.1112 1.08815 5.07551 0.0640044 -1.64556 -2.54009
1042 16.4284 0.253636 5.63174 1.51399 -0.933679 -1.0668