ITEM: TIMESTEP
49000
ITEM: NUMBER OF ATOMS
4000
ITEM: BOX BOUNDS pp pp pp
0.0000000000000000e+00 1.7878070701931353e+01
0.0000000000000000e+00 1.7878070701931353e+01
0.0000000000000000e+00 1.7878070701931353e+01
ITEM: ATOMS id x y z vx vy vz
2348 0.572159 1.14172 0.991698 -0.634073 0.844558 -0.746456
248 0.936909 0.0595748 0.10184 1.04495 1.2799 -0.190285
2572 0.419504 0.0253615 1.42219 0.85949 2.33913 1.68349
2708 0.605507 1.0803 0.0541728 -0.0103217 -1.71052 -0.460073
857 1.49768 0.656535 0.886345 -0.398917 0.121264 -0.521857
2162 3.22861 0.480265 0.903803 0.354647 0.346112 -0.744565
1619 3.4697 1.32098 0.490511 -1.47517 -1.23234 -0.464981
2551 5.55847 1.47313 1.11856 -1.67304 0.0647285 -0.058869
2597 5.87765 0.471559 0.98496 1.23848 -0.300675 2.83287
3042 4.54478 0.924315 0.825254 1.27121 -1.50062 0.865693
3356 6.65427 1.08005 1.31994 0.482759 1.24579 -1.91066
812 6.10557 1.20218 0.231163 -1.08651 -2.47041 -0.656854
196 7.40243 1.48126 0.508225 1.09508 0.720006 -1.48517
1061 7.13546 0.352018 0.85512 0.0915767 1.01712 -0.725826
2927 8.08858 0.335324 0.415405 -0.771622 1.11563 0.232177
3875 9.08841 0.879239 0.59779 0.0182012 0.919365 -1.222
63 9.65914 0.230598 0.176393 -1.62484 -0.287065 -0.0509734
3135 11.2185 0.169709 0.775234 -0.581576 -0.569644 0.830955
1662 11.7826 0.940934 1.34876 -0.532119 -1.07058 -0.852959
1189 12.2943 0.536411 0.606869 -0.605231 -0.0693259 0.362433
2571 13.0202 1.09462 0.15723 0.220577 -1.00572 0.0493516
842 13.3984 0.408416 0.89134 -1.32014 -0.225131 -0.615821
931 14.3556 0.975344 0.369568 0.805624 -2.26449 -0.467348
1890 14.9266 0.636288 1.32763 -0.0763004 1.34666 -0.145496
177 15.4549 0.87127 0.0288472 0.289558 -0.204985 -0.40678
773 17.5427 1.31173 0.521121 -0.79511 0.565036 -1.0842
2492 17.7752 0.210604 0.400121 0.129342 0.478151 -1.36607
528 17.2318 0.423827 1.29655 1.50102 -0.494332 1.42119
1432 16.461 0.243074 0.0297603 -1.18186 0.540114 0.305304
2155 16.5558 1.35504 1.17461 1.6761 -0.385176 -0.908714
1128 1.08451 2.42672 1.34543 0.38555 0.754348 2.78204
1760 0.438718 2.08775 0.449216 -1.72138 -0.33391 -1.51901
1343 1.47448 2.03691 0.328397 0.357558 -1.4146 0.651084
2925 2.7007 1.65809 1.10264 -0.273732 -1.29458 0.559083
1175 3.24006 2.55779 0.738639 -1.34887 0.367238 0.399445
1923 4.23712 1.89211 1.02811 0.877747 0.130081 0.955137
1963 4.48188 2.81019 0.0165235 -0.780108 0.0352196 0.675606
1019 5.79086 2.64494 0.334746 -0.79272 -1.15275 -0.566926
1657 4.99569 2.89805 1.06955 -0.779179 0.791442 -1.14801
2160 5.05015 1.96447 0.375675 0.410188 -0.22189 1.78204
3720 6.66728 2.51704 1.06224 0.213613 -0.0415684 -0.730375
3808 6.67118 2.04348 0.0521512 -0.696869 -1.02463 1.27018
437 7.65143 2.58142 0.58903 0.822493 -1.31135 1.53972
1722 8.33775 1.69374 1.2654 1.52279 -1.35867 -0.276693
647 9.30044 2.4659 1.43336 1.5225 -0.766348 -1.57286
895 9.10592 1.95947 0.495862 0.0768714 -0.261684 -0.0279077
1069 10.1101 1.50502 0.797392 -1.39777 0.572123 -0.714969
1513 11.629 2.7126 1.30485 0.0871177 -0.0135933 -0.948537
1152 10.7477 2.08419 1.41884 -0.0654303 1.66058 1.44693
1723 11.234 2.20301 0.29955 0.057217 0.342342 0.821908
349 12.1156 1.97136 0.712198 0.701323 0.10517 0.0474728
656 12.9003 1.63281 1.11728 1.10488 -0.677212 1.71408
919 13.0344 2.69822 1.25574 1.25574 -0.199905 -1.03817
2084 14.1295 1.92497 0.295035 -2.06746 0.269268 0.987563
1199 13.8976 2.13155 1.39357 -1.84942 0.674174 -0.153234
946 15.183 1.80804 0.508678 0.784072 1.3511 -0.979194
2724 15.6819 2.91899 0.720975 -1.00326 -0.378454 -0.329791
435 15.6789 2.11382 1.46078 -0.701752 0.813787 -0.61326
1452 17.1603 2.42695 0.716659 -0.351082 1.20705 1.14187
816 0.348294 3.05371 0.588079 0.171056 0.0252326 0.197346
3745 1.181 3.73307 0.244128 -0.673779 -0.45289 1.47987
1710 2.85315 3.87261 0.974513 1.26684 -1.44365 -0.406781
3180 1.93618 4.4432 0.976701 0.111722 0.264188 0.829632
3166 2.11888 3.0331 0.739084 0.644023 -0.667532 -0.0881071
804 2.35474 3.87961 0.102063 -1.23113 1.82668 0.251905
1941 3.77611 4.26431 0.843837 1.10567 2.03219 0.287476
3049 4.0768 3.30149 0.878177 -0.873319 -2.06727 0.932245
3965 3.19284 3.18319 0.0624277 -0.902996 0.433817 -0.953416
360 4.89218 4.27229 1.33626 -0.13715 -2.37823 0.0672633
2949 6.16271 3.53017 0.864666 0.576494 -0.101876 0.385739
3077 7.19821 3.55993 0.839737 -0.378358 0.165391 -1.92774
278 8.41531 3.58266 0.643788 1.46099 0.301175 0.281505
3641 7.95294 4.43468 1.04231 -0.498936 0.436569 0.098648
7 10.263 4.17418 0.45543 -1.00209 0.083316 0.671523
3455 9.3043 3.46611 1.25517 -1.22883 -1.27483 -0.516291
3852 9.46411 3.3876 0.0990576 -0.507049 1.51811 -0.581605
3592 9.16267 4.359 0.941904 0.0709677 0.73384 0.451221
429 11.3763 3.63618 0.891846 0.447741 0.146335 -0.391418
679 10.4776 3.01828 0.841219 -1.35296 -0.26172 0.439242
2510 12.7245 3.73426 0.614794 -0.847096 -0.375192 1.41527
2634 12.0373 3.0444 0.374817 1.36717 2.14839 0.327916
1808 14.8246 3.12875 0.255918 0.839022 0.259488 1.50892
1403 14.3915 4.45103 1.03238 -0.224811 0.25465 -0.433944
2450 15.7274 3.82748 1.23326 -0.89328 -0.413464 0.943808
2345 17.5193 4.10059 0.895929 0.543684 0.171563 -0.290135
742 16.447 4.38686 0.621504 -1.36756 1.0153 -1.47741
3182 1.28322 5.27222 1.11957 0.690621 0.767494 -1.43867
423 0.675142 4.56206 0.55672 0.259132 -0.341805 -0.05924
3539 0.542587 5.75704 0.403642 0.546357 0.317743 1.45627
1222 2.51809 5.6896 0.626872 1.50166 -0.135328 0.843542
3664 2.90207 4.78581 0.258064 0.76794 -0.298228 -0.824153
9 3.50495 5.76938 1.43966 -1.44375 -1.1253 -0.833529
1558 3.53311 5.69802 0.33116 1.12921 -1.83595 -0.321972
1767 5.69712 5.93148 0.845946 -1.73526 -0.692252 1.93331
3767 4.6886 5.95562 0.898445 -0.151225 -0.0811885 0.679503
820 5.51371 4.97367 0.709213 1.36909 1.23815 -1.61344
3301 7.06295 5.67055 0.699779 1.99224 1.07652 -1.45769
1428 6.877 4.55083 0.501038 -2.10241 0.168075 0.443344
3556 8.36083 5.25766 0.764793 1.01669 1.05869 -0.355339
2366 10.1735 4.92959 1.39047 0.0489824 0.183768 -0.0372453
2833 9.04031 5.54896 0.121134 -0.159669 -0.516997 -0.904815
1689 11.3705 4.7888 0.701147 -1.07386 -1.542 -0.400401
1475 10.9069 5.80912 1.09488 -1.13108 -0.267337 -0.582749
1754 13.2027 4.64977 0.350487 -1.7098 0.663931 -0.48188
3976 13.1042 5.8132 0.55362 -0.544164 0.087276 -1.16301
3169 12.327 4.85021 0.86097 0.695346 -1.13755 1.71627
3364 11.9583 5.91098 1.08767 -0.616856 -0.374916 -0.491843
101 14.6082 5.33961 0.379472 1.31974 1.6522 -0.776559
983 13.9233 5.44523 1.17554 -0.0659924 0.254996 0.602365
2202 15.2017 4.50733 0.435495 -0.493827 -1.23352 -1.02294
1258 15.6549 4.9807 1.14625 -0.683782 1.57886 -0.261705
19 16.319 5.47802 0.144401 -0.57541 0.854986 0.0950485
43 17.784 5.21193 0.952178 -0.465919 -0.321766 0.316447
1457 17.4068 5.18627 0.00861351 0.652475 0.124421 -0.487982
3083 0.279177 6.05222 1.39151 1.58103 0.331167 -1.37372
1884 0.0844548 7.24847 0.42169 -0.0309697 2.10718 0.47292
622 1.77132 6.40565 0.736954 -0.237631 -0.181498 -1.93589
2165 2.93696 6.8204 1.01705 -0.435024 1.04948 2.49112
2283 4.13103 7.2456 1.47025 -1.17991 -2.71823 -1.12787
752 4.08911 6.71114 0.403426 -0.555687 1.48995 0.498914
738 5.26049 6.72056 0.121249 0.545845 -0.769666 -0.643837
3394 5.15156 7.18929 0.914935 0.601991 -0.720413 -0.10295
1743 6.39737 6.79196 0.679959 0.0444951 -0.150351 0.75035
2417 8.77153 6.18983 1.23986 0.016096 -0.891961 -0.536846
3304 7.74556 6.77214 1.16375 0.0184997 -0.885254 1.16736
1247 8.08664 6.07789 0.00158843 -0.128464 -0.210355 1.67969
3716 9.74484 6.16957 0.832151 -0.870771 0.343245 -0.574521
3861 9.58817 7.32012 0.723085 1.19828 0.544104 -0.651884
1752 10.6702 6.60466 0.36 -0.121005 -0.49767 0.231263
2624 11.4595 6.92802 1.01653 -1.61628 -1.87759 -0.0664912
3422 13.2795 6.84778 0.819059 0.388082 0.293229 0.662204
643 12.5153 7.10461 0.135653 -0.00978209 0.467468 -0.723843
1023 14.303 6.68809 0.12723 0.0665612 0.386707 1.43204
2622 14.4952 6.30758 1.18908 -1.31951 -1.59062 -0.0361827
8 15.6555 5.98386 0.890278 0.752166 0.113157 -0.982797
513 15.4841 7.2346 0.912866 -0.32523 -0.501973 -1.27159
747 16.575 7.02941 0.710085 1.9521 -0.46498 0.461665
2056 17.2128 5.99864 0.662017 0.924827 0.887003 0.627661
3940 0.280904 8.44932 1.07688 0.592241 -0.17907 0.347751
2807 0.833796 7.6316 1.4239 -0.228533 0.0789427 1.70681
2849 0.901411 7.84252 0.369848 0.387973 -0.426786 -0.280264
77 2.2006 7.65122 0.784497 1.60508 1.87804 0.696562
3841 3.49793 8.28301 1.1125 -0.3143 -1.27445 0.258102
1198 3.94183 7.66383 0.134085 -2.06594 -0.495914 -1.15605
1588 5.8097 7.64532 0.257417 -1.27515 -0.419103 0.466194
2937 4.88451 8.55482 1.46045 0.270769 -0.33891 1.50869
3159 5.64748 8.82654 0.665308 0.0511042 -0.314029 0.0982125
1192 4.70694 8.6117 0.101153 -1.59891 1.82509 -0.488552
2801 6.94534 7.83128 0.474499 1.41531 0.715664 0.431595
2007 6.03677 7.90171 1.22154 -1.72011 1.19182 -0.0551443
1892 6.97474 8.51646 1.35062 0.621941 1.11426 0.171451
2053 8.0876 7.98712 0.674399 -0.0482287 -1.11779 -0.871793
3832 9.74355 8.36776 0.183088 -0.7571 1.52949 0.307947
671 9.30953 8.57319 1.22374 -1.05789 1.01457 -0.890832
1967 10.738 7.74129 0.592212 -0.389877 -0.311558 -0.780696
3635 11.5967 8.49883 0.612754 -0.540607 -1.55072 -1.87478
1235 10.5167 8.8592 0.971665 -0.054553 -0.0896544 0.0817622
3199 12.9386 7.87308 0.816147 -1.15328 1.25326 -2.37008
761 14.3923 8.86144 0.597062 0.993331 -0.890542 -0.156568
250 14.0832 7.76577 0.688193 0.285161 -0.243045 -0.673895
1159 13.4647 8.7027 0.264843 -0.211058 -1.78224 0.761079
3560 16.0654 8.13859 0.842877 -1.95503 0.173224 -0.275922
182 15.196 8.04157 0.0628203 0.627247 -0.320834 -1.0553
1896 17.2069 8.4505 0.523994 1.87304 -0.746958 0.547699
825 0.979727 0.931302 2.96143 0.9477 -0.0210144 -0.379145
1819 1.3624 1.40612 1.90873 0.917796 0.194253 -1.07816
819 0.264949 0.745913 2.17924 -0.539515 0.170632 -0.221766
3300 1.87157 0.525968 2.28372 0.502354 -0.794032 0.486611
1654 2.97905 0.0244532 2.00618 0.723779 -0.546637 -0.118324
2231 4.13769 0.90596 1.82556 1.49965 0.597095 -1.90965
1364 3.09122 1.29748 2.01662 0.626762 0.574977 -1.35293
1840 5.17682 0.696388 1.74048 0.446292 -0.703159 -1.57512
3090 5.69361 0.954279 2.55479 -0.177823 0.782819 0.440971
854 6.57022 0.0721123 1.85073 -1.69286 -0.462684 0.0730556
2993 6.95065 1.44709 2.51671 0.823536 -1.43219 0.586263
3500 7.17526 0.316348 2.66892 1.7512 0.962708 -0.414555
3036 7.88628 0.813608 1.57743 -0.711006 0.487576 -0.956819
2452 8.03921 1.16726 2.50637 1.77743 0.507106 -1.0802
2055 8.25738 0.20682 2.60652 -1.29602 -0.75137 0.445593
34 9.23421 1.4855 2.00345 -0.251217 -0.757496 1.29161
390 10.1628 0.983902 2.55704 1.43365 0.542988 0.754811
2086 9.22371 0.548887 2.6936 0.407125 -0.623166 0.08503
734 9.66755 0.731525 1.50021 0.427977 0.796798 0.41449
2674 10.3254 0.0316535 2.21222 1.16253 0.678931 0.272572
2823 10.7185 0.761622 1.54624 -1.48417 -1.84578 -0.621945
71 11.2611 1.32998 2.2698 -0.986692 1.15666 -1.63681
3255 11.3996 0.203421 2.07104 -0.294321 -0.438705 0.417191
2105 12.511 0.794553 2.91017 0.445649 0.0108187 0.272818
2279 13.3593 0.804457 2.28795 -1.14282 -0.691216 0.229433
1524 12.4308 1.45978 2.09314 0.288247 -0.0194466 -0.619588
1059 15.7953 1.06362 1.76089 0.828483 0.647089 -0.0920574
657 17.0767 0.486911 2.45277 0.743961 0.768979 -0.871073
469 0.970886 2.11728 2.60763 -1.50549 0.467029 -0.395156
1157 1.89125 1.79569 2.79577 2.22747 -0.175611 0.121818
492 2.10629 2.13872 1.88611 -0.445233 1.78211 1.34109
2236 2.70878 2.6164 2.67777 0.578325 -0.190046 -0.863768
3690 3.28146 2.77101 1.79437 0.171721 -0.529853 0.686654
428 4.15658 1.92913 2.32222 0.459451 -0.275534 0.284976
455 5.07435 2.50568 2.17643 0.724155 0.128736 -0.165491
79 7.28217 2.07289 1.64622 0.803136 2.24783 0.889411
312 6.07885 1.9252 2.20373 -1.05748 -1.58642 0.218372
1341 8.08394 2.82519 1.62455 0.00328838 0.0269274 -0.364975
1903 8.43819 2.08553 2.37407 0.828811 0.115774 0.842309
2305 7.64475 2.84072 2.56686 0.376794 0.82047 1.50383
1656 9.78247 2.45785 2.39092 -0.018324 -0.192362 -1.09221
3613 12.2834 2.34037 2.34605 1.26294 -2.72937 0.41314
1434 13.42 2.48597 2.29368 -0.487184 -1.10997 -1.00474
3034 14.2835 1.61275 2.28877 -0.433503 0.951867 -0.00143998
413 14.6198 2.73576 2.47105 1.93933 -0.1307 0.251009
718 15.58 2.13142 2.54609 -0.548189 1.58707 -0.912275
229 16.6558 1.70721 2.36177 -0.563222 -0.0437173 -0.173666
2683 17.7979 1.71031 1.68961 2.24717 1.25147 0.0683735
3777 17.6013 1.81852 2.83468 0.459785 -1.7217 -0.39345
3376 1.36822 3.71093 2.30894 0.583689 -0.825363 -0.220568
673 0.595079 3.90481 1.50681 -0.0932318 1.62903 -1.65348
2243 2.24441 3.34577 1.91922 1.067 0.310844 0.00759357
387 4.33609 3.50789 2.25049 -0.971449 -1.20563 -1.38811
2179 3.28033 3.88022 2.3972 -1.02336 -0.670968 -0.606637
3066 5.63273 3.90914 2.25102 0.808741 -0.453037 0.860032
1900 6.38759 3.37671 1.90824 -0.865932 0.426475 1.50192
3705 7.1235 4.23885 1.82639 0.564776 0.623039 -0.291723
2497 6.61569 3.39461 2.95475 0.701596 -0.457517 -1.53691
274 8.04924 3.87342 1.87159 1.7527 0.392159 -1.60823
2716 7.49504 3.98529 2.84049 0.715792 1.03701 -0.630995
1631 9.45242 3.48037 2.33114 -1.22576 -0.189046 0.90969
75 11.171 3.10355 2.22443 -1.01626 -0.201518 -1.63257
2803 10.5301 3.63695 1.63312 -0.524957 -0.642498 -0.783433
701 11.3386 4.31251 2.59578 -1.96966 1.6928 -0.775396
2233 12.4315 3.3781 1.73072 0.181603 0.752813 0.873051
1797 13.1716 3.39855 2.51827 1.83837 -1.58497 -1.1287
1154 12.0795 4.33929 1.84301 0.773916 0.325943 1.49011
370 12.0779 3.52641 2.75068 -0.920606 0.977182 1.35952
667 13.8026 3.51346 1.57768 -0.501944 -2.10737 0.974857
2194 14.9536 3.20121 1.51259 0.485559 0.0132573 0.644705
3951 15.7463 3.53509 2.28404 -0.863502 -0.527806 -0.572917
3023 16.6475 3.2764 1.51883 0.74049 1.54072 -0.349265
1940 17.7761 3.19701 1.78565 -0.594862 -1.65553 -0.828178
1875 17.7656 3.98123 2.66927 0.546597 -0.75156 -0.107838
639 16.6124 4.25248 1.78557 0.30166 -0.217168 -0.471236
1470 1.33147 5.77183 2.33509 -1.47584 1.47196 0.525551
1266 0.655619 4.92152 2.39188 -0.195988 -0.318587 0.194394
2163 1.60489 4.69016 2.02541 0.566373 -0.602313 -0.00354242
3235 2.45486 4.47026 2.52471 0.6146 -0.740238 -1.22817
3329 2.19876 5.46909 1.67079 -1.66368 0.305454 1.11491
1640 4.2639 5.85149 2.04547 0.0721012 0.845482 -1.44173
2935 2.99685 5.42125 2.44245 -0.228235 0.60553 -0.54984
440 2.99589 4.69164 1.59068 0.471169 -1.30611 1.39349
1316 4.01639 4.72832 2.07586 -0.2987 0.848455 0.170644
2423 5.1817 5.18262 1.61583 0.866853 0.62737 1.21199
2480 5.08806 5.6672 2.60058 -0.551718 -0.822593 2.05197
2472 6.02548 4.78052 2.88278 -0.618434 0.723731 -0.294023
987 7.13912 5.06641 2.89613 -0.649692 -1.08669 0.488263
2503 7.28853 5.43643 1.62413 1.13609 0.0698964 0.26366
164 6.33066 4.83742 1.64918 -1.25248 -0.510548 -0.294372
834 8.33322 4.87774 2.00086 1.28257 -0.616197 0.307271
508 9.15943 5.20356 1.49997 1.40573 0.585075 0.773646
3699 9.41745 5.93684 2.09464 1.69692 -0.463442 -2.1299
2934 10.0293 4.4987 2.43039 0.718125 -0.266732 -0.987699
1296 11.738 5.69268 2.9777 -1.25505 0.529267 -0.125431
3585 11.1719 5.07859 1.79835 2.22741 -0.711971 0.0262198
2289 13.0452 4.56493 1.56203 0.583745 -0.773638 0.354786
1645 12.8966 5.22826 2.64017 -1.51765 0.720381 -0.189178
6 14.3039 5.09054 2.27863 0.521174 1.3406 0.946
1567 15.9685 5.40693 2.6421 0.878046 0.642465 0.895305
733 15.4919 4.54985 2.02659 -0.772395 1.04795 -0.537356
1355 16.4826 5.44001 1.61288 0.531091 1.07354 0.179605
135 17.412 5.26657 2.43226 1.10126 -0.216606 1.54879
1661 16.4586 4.57766 2.7439 0.214848 -0.0539387 -0.0489771
771 0.877258 6.90392 2.48138 -0.642276 0.567857 -1.63159
1801 1.83275 6.56318 1.69247 1.59391 0.53627 -1.50548
3 2.68542 7.24416 2.04227 -0.450969 -1.16876 -0.287725
3311 3.46288 6.56847 2.06571 0.827724 -0.3905 2.26892
3371 4.79061 6.93385 2.84813 -0.931951 -0.51293 0.71957
1687 5.23709 6.56802 1.79537 -0.530548 0.563325 1.00625
3258 5.92446 6.51094 2.84541 -0.98191 -0.915489 0.257802
881 7.2058 6.4159 2.41366 0.409712 -0.467534 0.825476
689 7.26856 7.33877 1.86687 -1.0876 -0.286048 1.11364
2335 6.13363 7.416 2.37408 0.347592 2.31801 -0.509977
745 8.37332 5.96387 2.11685 0.522814 -0.238608 -1.38482
3308 8.64957 7.13328 1.88794 0.46792 -0.0621127 -1.266
1949 8.2317 6.82284 2.87295 -1.27059 -0.372086 0.444177
3809 9.85093 7.14708 2.41908 -0.145158 0.669874 -1.11694
2980 10.5529 6.71542 1.59497 -0.0176456 -0.707195 -1.09825
3884 11.4356 6.39538 2.12136 0.992595 0.678629 -0.662409
968 11.8535 7.03031 2.9131 -0.468885 0.501768 0.883924
2750 13.3957 7.21365 2.31909 -0.0175575 -0.615138 -0.019691
392 13.0289 6.18783 2.01623 0.400421 0.426887 0.84937
579 14.8521 6.72908 2.95889 -1.63817 0.686877 0.183259
1427 15.1036 6.02553 2.04647 -0.179009 1.53047 0.555699
1474 15.8823 6.85764 2.65475 -0.256382 -0.411404 0.595432
2076 14.9629 7.05644 1.88642 0.881008 1.46825 -0.317986
1805 17.6245 7.29498 1.60372 0.545432 -0.37822 -1.62263
2731 16.8207 6.47187 1.73152 1.28101 -1.14901 -0.878011
1758 16.856 6.2553 2.74036 1.21681 0.533829 -1.55749
778 17.5063 7.13371 2.7162 0.676345 0.672375 -0.611345
2769 0.0899409 8.03221 2.09587 0.726558 -1.09049 -1.75356
784 0.764163 8.08336 2.97 2.16815 0.750664 -0.249738
2596 2.38338 8.27508 1.55447 2.72123 0.282324 -0.86184
2614 2.0126 7.94504 2.69139 0.610758 -0.141606 -0.722569
3450 3.24568 8.2269 2.43365 -0.915142 -1.58193 2.07727
3756 5.05327 7.63387 1.97046 0.368455 -1.11213 -1.31826
3416 4.97775 8.37611 2.96308 -0.577058 -1.27586 -0.126383
3911 6.64553 8.90332 2.42778 -1.6081 0.488159 0.232015
2853 7.99541 7.86506 2.53738 -0.383281 -0.144751 -0.336517
2926 8.46679 8.6583 2.04041 -1.84215 0.899439 -0.989343
2797 9.09641 7.80854 2.70283 1.59388 -1.43763 -1.23484
3984 10.056 8.23513 1.85198 -1.38818 1.23132 -0.131555
1282 9.48775 8.7775 2.54117 -0.997546 0.831968 -0.813358
630 11.198 8.47747 2.717 1.29528 -0.608348 -1.23397
1834 11.3184 7.60871 1.77757 -1.38815 0.552047 -0.3621
1539 11.0389 7.45608 2.65888 -0.293009 0.454418 0.909324
466 12.9315 8.70635 1.5223 0.421922 0.861384 0.3207
180 12.4569 7.67115 2.3309 -0.132932 1.24598 0.753612
1433 11.9515 8.55074 2.09958 -0.0311531 -0.0515505 -1.71814
2752 13.9195 7.96098 1.85373 1.10786 0.295075 -0.190596
1494 14.5865 8.2059 2.668 -1.25422 1.50272 0.382174
3138 15.0533 8.28208 1.54686 0.561451 0.354478 -2.65
1113 15.9526 7.50138 1.71902 1.02686 0.795091 1.47111
1480 15.4529 7.7459 2.66786 -1.97089 1.08878 1.39795
1273 16.0926 8.67226 2.53791 -1.00405 -0.84387 0.0114006
3124 16.6836 7.78885 2.60472 -1.06168 -1.71129 -0.0299071
2482 0.181301 0.116065 3.06988 0.544557 0.992871 -0.916339
363 1.37087 1.42683 4.01891 -0.420464 -0.663647 -1.00164
3072 1.73266 0.225099 3.79164 0.786896 -0.0535173 1.11601
1319 2.40698 1.25174 3.77792 0.286883 1.00954 -0.460106
13 2.62329 0.211709 3.11412 0.384773 1.40342 -1.84677
1920 3.86004 0.305922 4.20664 1.06593 -1.38879 0.634461
1024 3.09364 1.2253 3.10429 -0.30358 -1.66659 -1.88693
2368 4.13462 0.885715 3.19866 -1.06321 -0.351925 0.0491996
2837 4.89849 0.721677 4.4389 0.372722 -2.25547 0.769346
3648 5.11122 0.562631 3.45319 1.68155 -0.909627 -0.181396
15 6.11934 0.39675 3.48188 -0.541745 -1.0156 0.55384
3438 6.56615 0.995482 4.42074 -1.95797 0.080948 1.48465
1956 8.33789 0.246832 3.68414 1.7504 -0.511269 1.18053
2060 8.8365 1.23195 3.32197 2.21083 0.273168 -1.09529
666 7.63723 0.566969 4.36095 0.930456 1.54162 -0.714417
3989 7.56664 1.08787 3.45124 0.234479 -1.10145 0.460486
1126 10.0232 1.06129 4.26934 -0.061772 -1.90289 -1.35239
703 10.3209 0.0229152 3.32888 1.48456 -0.488094 0.928032
3920 10.6309 0.260703 4.21061 -0.4143 0.415149 -0.473665
337 11.7615 1.45885 4.24771 1.08194 0.842123 1.34343
1112 11.079 0.84489 3.26457 0.0255085 0.520343 -0.662425
950 12.7213 1.40633 3.74469 -1.24753 0.512877 -0.743654
2840 12.5094 0.188482 4.06105 0.708673 1.19465 -3.23132
2775 14.5243 0.820571 3.12475 1.37692 0.758104 -0.813481
3154 13.618 0.805959 3.77252 0.139378 0.281173 -0.310031
3698 14.3982 1.38684 4.23047 0.294669 -0.970969 -1.17424
662 15.9177 0.19575 3.86616 0.0409128 -2.06038 0.292552
2242 16.2786 0.721402 3.01224 0.634307 -0.873206 1.97069
1438 15.4933 1.30828 3.58772 0.990056 0.975863 -1.91779
3969 17.4237 1.16673 3.56186 -0.451245 1.951 0.952929
1042 16.4566 1.05216 4.38938 -0.943451 -0.849317 -0.272221
2952 17.2966 0.277637 4.23211 -0.469074 -1.55507 -2.56625
3444 0.851029 2.69325 3.48831 -1.26593 -1.33281 0.211934
2688 0.439226 1.69335 3.89034 -0.409136 0.264736 0.338694
1517 1.49588 2.68306 4.36158 -0.427728 1.25694 -1.26709
529 2.69772 2.21839 3.67636 0.199093 1.12923 -0.778646
389 3.72315 2.44501 4.44728 1.15591 2.42994 -0.688131
2167 3.51613 1.57953 3.97888 0.802322 -0.724844 -0.577824
86 3.70388 2.54557 3.08411 -0.692375 2.3517 -0.411254
3851 4.76496 1.99619 4.16844 1.59341 -1.4903 -0.678697
2873 5.70372 2.61474 3.10975 0.182392 -0.946287 -0.816686
1306 4.97588 1.81582 3.2001 -0.908078 -0.148994 0.235368
732 5.67746 1.50738 4.42417 0.40257 -0.725333 -0.486433
2532 5.5868 2.78355 4.29389 -0.299359 -1.16263 2.36487
830 6.76015 2.19243 3.38433 -0.793905 0.6612 0.408366
1833 7.36939 2.34108 4.31604 -0.558449 0.306947 -0.115268
1776 6.03297 1.51976 3.5101 0.254594 -0.661401 0.835366
3982 7.90828 2.13095 3.37435 2.40475 0.649298 0.611981
1803 8.32238 1.4964 4.16196 -0.652662 0.526045 0.00301718
266 8.50964 2.7529 3.99574 0.250692 0.763777 -1.53206
3950 9.31812 1.95904 3.99001 -0.0420314 0.32305 0.678544
724 9.90279 1.77903 3.26427 -1.23087 -0.0443535 0.447987
1075 9.24141 2.77946 3.12681 -0.320375 -0.661279 -0.54269
3452 11.7785 1.91026 3.16752 -1.78408 2.44834 0.927836
3663 10.8936 1.90638 3.63348 0.542319 0.645438 -0.282362
2856 11.0345 2.95747 3.83124 -0.406593 1.86321 0.893988
3129 12.4935 2.73208 3.63767 -0.790682 -0.00509296 -0.34325
1691 13.5584 1.78976 3.17214 -0.125662 -0.669991 1.8873
175 14.5834 2.13208 3.28244 -1.08283 -0.301228 -0.513019
2314 14.8595 2.29687 4.26687 -0.987797 0.22511 0.196271
3697 13.8948 2.48596 3.98971 -1.18444 -0.142267 0.359945
1674 15.1764 2.92157 3.42271 -0.225329 0.0706482 2.52385
3917 15.9453 2.53672 4.14767 0.303586 1.36608 -0.667452
1479 17.4931 2.38501 4.17976 1.21475 2.17635 -0.190555
39 16.4613 2.50603 3.12188 -0.34229 1.40517 -0.941163
2577 0.225264 3.39883 4.18748 -0.8417 0.376518 0.545194
183 1.20914 3.70778 4.46631 0.804087 -0.276747 -0.653909
3934 2.40302 3.79786 3.69463 0.984304 0.36343 1.38254
511 4.18762 3.81954 3.20425 -1.00314 -0.733586 -0.166501
1531 3.6409 3.65913 4.06771 1.08608 0.259473 -0.69058
2159 5.73135 3.60113 3.37164 0.0266387 -0.202051 -0.260815
2027 4.51945 3.04909 4.00525 0.405014 0.437957 0.109413
1262 4.97664 3.98488 4.03923 0.822886 1.44967 0.255665
2791 6.57264 3.32401 3.99845 0.332317 0.0180938 0.673667
3377 6.83853 4.19996 3.65947 -0.0973592 -0.30058 0.934243
669 8.4341 3.49645 3.07886 -0.19101 0.423222 -0.65723
3211 7.70941 3.34973 3.9167 0.109304 -0.498236 -0.181413
58 10.3215 3.45697 3.17539 -0.0757793 -0.577774 0.729806
2956 9.26387 3.59992 4.02797 0.514576 0.154882 0.493249
273 11.035 4.4498 4.15284 1.02693 0.914836 -0.489522
3331 13.3415 4.05738 3.82829 1.51352 0.0812838 1.18452
1866 11.9985 3.74238 3.80659 0.248373 0.377957 -2.06998
1931 14.0912 3.29202 3.13498 -0.0663861 -1.05579 -0.140887
1217 16.1327 3.6154 3.23991 1.02307 1.10512 -1.62377
3314 15.9284 4.01213 4.13629 -1.37878 1.23782 1.64869
3093 14.9747 3.37848 4.36292 -0.633248 -1.16035 1.21382
3156 17.0464 4.04691 3.61792 -0.0652952 -0.0388234 1.34619
975 16.8474 3.1333 3.91616 1.1139 -1.00368 -1.04706
149 0.244114 4.65645 3.37826 2.28629 1.24733 -0.814654
3991 0.016268 5.64423 3.50469 -0.129261 1.96859 1.00917
2804 1.21633 5.56217 4.28143 -0.456865 -0.173672 1.19555
3482 2.09671 5.43491 3.04399 -0.213648 -0.141432 -0.283921
715 1.50826 4.59779 3.86187 -0.299569 -1.89903 -0.427824
1983 2.73094 4.8438 3.87027 -1.06846 -0.083889 -0.126788
87 3.80835 4.89009 4.32172 1.49403 -0.968057 -0.392096
140 3.5297 4.51875 3.10245 -0.798885 0.350219 -1.06675
1312 4.08545 5.68933 3.02864 -0.453333 0.795013 0.256666
2318 4.42339 5.73837 4.45028 -1.59172 0.237221 1.26327
1763 4.62466 4.86223 3.5305 0.111388 -0.856028 -0.990562
1406 5.74545 4.76792 3.84435 -0.215123 -1.25905 -0.513093
91 6.67135 5.92395 3.49358 -0.489137 -1.14689 -0.27859
1614 8.64767 4.60888 4.42329 -0.199108 2.1678 0.142721
1164 8.62602 5.63576 3.09525 -0.996296 -0.85077 -0.949108
3391 8.89587 5.86291 4.31171 -1.04904 0.873506 1.46026
3032 7.92379 4.92092 3.56951 0.537134 -1.35147 0.17094
1500 9.00251 4.55463 3.21562 0.333514 0.415826 0.182195
1220 10.0124 4.86724 3.59545 0.263741 -1.43801 -0.00905169
3201 10.0718 5.90606 3.274 -0.653175 1.52377 -0.651114
2116 11.6371 5.91348 4.00708 1.11202 -0.00225375 -0.358194
2033 10.664 5.56632 4.11302 1.05787 -0.511043 1.50147
1004 13.2118 5.57321 3.83217 0.71775 -0.804465 -0.656321
2182 12.2896 4.71323 3.29522 0.976167 -0.0579117 0.0915694
1489 13.8674 4.52296 3.17503 0.118941 -0.990433 -1.08193
1345 14.759 5.02478 4.11765 1.7719 0.295746 1.28231
1442 14.779 5.59336 3.08685 -0.827637 -0.599747 -0.685251
1133 15.6096 4.48424 3.23486 -1.09177 -0.499031 0.420827
1231 16.215 5.29776 3.68137 -0.422841 -0.412154 0.452608
3619 0.880822 6.13941 3.43577 -0.885489 -0.911837 -2.93279
3651 1.23563 6.96001 4.02107 0.935578 0.797117 0.114001
426 1.83631 6.93514 3.16652 -0.282883 1.39676 0.821263
1898 2.86507 6.24463 3.29395 0.697744 -0.650024 -1.84547
665 2.8575 7.09324 4.02568 -0.136795 0.129655 0.00378121
3386 2.06386 6.21042 3.93725 0.794975 -0.0456751 -1.01534
730 3.53963 6.12841 4.1425 0.838151 0.215152 0.558451
883 4.86749 6.63046 3.90098 0.410714 -1.27421 -0.780247
1106 7.16626 7.34073 2.99304 0.944805 0.684582 -1.07093
1289 6.39187 7.10901 3.84648 -0.7517 -0.870737 0.278791
2746 7.74766 6.03767 3.51437 0.0482804 -0.0559 -1.92123
2227 7.51897 7.1558 4.05762 -1.115 -2.31135 -0.181569
997 10.3126 7.06789 3.37346 0.0536525 0.212887 -0.306964
794 9.20903 6.65607 3.24082 0.410659 -0.702118 1.31114
1392 9.84177 6.39698 4.20737 0.0613154 -0.225274 -0.685083
3476 11.2879 6.93355 4.22682 -0.548444 0.230927 -0.690329
2277 11.0741 6.4333 3.20584 -0.689759 0.30285 -0.29458
602 12.7957 6.09831 3.06847 -1.13719 1.63421 1.84728
166 12.3132 6.70938 4.0841 -1.49027 -2.8091 0.00876728
2467 14.5332 6.44483 3.96488 -0.739808 0.73763 0.909465
3742 13.8701 6.62851 3.06033 -0.443581 -0.523812 -0.59055
2784 13.4978 6.84413 4.19496 0.223427 -0.718357 -0.777219
2142 15.5182 7.06368 3.7552 -0.18353 0.725898 -1.28696
2929 15.5504 6.23636 4.19202 0.567554 0.63401 -0.20617
3834 16.5711 7.19683 3.43694 1.85206 0.659417 -0.41026
2234 17.0348 6.32995 3.73287 0.00635461 0.609671 -0.448071
1232 17.7791 7.16236 3.78465 0.719617 0.540958 0.924887
409 0.471625 8.12573 4.07323 -0.983892 0.259483 0.260538
1381 2.39816 8.76216 3.0326 -2.52481 -0.53431 -0.570205
603 1.54464 8.13862 3.58679 -0.473881 -0.342603 -0.0909417
1429 4.38918 7.56084 3.88765 0.694758 0.87011 1.38867
2613 3.10025 8.09982 3.6698 0.0320124 0.903609 0.0317244
2147 5.40886 7.51284 3.49891 -0.937632 -1.75125 -1.82101
907 4.7738 8.49621 4.23565 -0.157733 -0.0594313 2.45037
1765 6.51244 8.09486 4.19429 0.943719 1.0928 1.37516
3963 6.34787 8.01877 3.0955 2.15788 0.960392 0.392628
1453 7.76116 8.31788 3.86605 -0.431022 -0.110005 -0.521622
3694 8.55945 7.47974 3.61109 0.90863 0.607037 -0.89884
3183 8.47655 8.5612 3.10116 0.836447 1.4459 -0.371681
1725 9.31294 8.39533 3.61166 0.8266 -0.802615 0.251903
3876 10.2241 8.06403 3.03471 -1.0014 0.120664 1.18927
255 9.6052 7.47984 4.35506 0.524574 0.124664 0.378113
3653 11.5223 8.92449 4.01066 0.403634 1.73381 1.89916
2068 11.4247 7.84159 3.6418 0.462331 0.960504 0.788689
967 10.5618 7.88258 4.06231 1.59013 2.24782 0.136289
1016 12.2817 8.7432 3.18982 0.0561535 -1.10258 0.413871
2247 13.2393 8.21336 3.00324 0.533857 -0.416861 0.834912
470 12.7786 7.632 3.99078 -0.0437123 0.620557 0.886096
2403 14.377 7.48168 3.60273 0.190995 0.257402 0.32802
3915 13.5687 8.75974 4.18439 2.32769 1.10978 -1.166
247 15.038 8.19835 4.04327 -0.0718939 0.423267 0.238164
3461 15.9945 8.22318 3.45643 -2.83997 0.843183 0.203571
210 16.9581 8.13716 3.71104 0.149444 1.07159 0.0211811
2469 17.5315 8.68769 3.00946 1.95797 -1.29558 0.450171
2836 0.126143 1.12636 4.68993 0.658756 0.347355 -0.525264
552 1.44722 0.468333 5.80459 -0.44751 -0.728487 0.486419
3961 0.642949 1.12465 5.90953 -0.212097 -0.576333 -0.0571489
2818 2.84471 1.19926 4.75097 1.83348 -0.460162 0.187768
2979 1.98469 0.56663 4.72877 -1.75077 -0.0584876 0.516221
3867 3.17037 0.531138 5.95802 0.422923 -0.18716 0.850118
3992 4.23838 0.383755 5.27134 0.207145 0.343798 1.34025
810 4.24127 1.38147 4.77614 -0.192243 0.528181 -0.86165
1049 3.0669 0.238861 4.90637 -0.573387 -0.575345 1.42891
1327 5.16843 1.37904 5.42749 0.0457152 0.551206 -0.478109
90 5.33593 0.0252159 5.27777 -0.48054 0.0200843 -0.180056
1101 6.89592 0.614438 5.83011 0.988653 -0.814353 0.941344
3612 6.06361 0.971052 5.39125 1.27709 0.358921 -1.11075
3021 6.50835 0.0262151 4.67664 0.0822229 2.64122 -1.89347
2816 8.52314 0.732305 5.39935 0.699805 -0.660677 -1.0789
876 8.92493 0.625589 4.48455 0.389256 -1.38931 0.452384
3045 9.92183 1.47341 5.57552 -0.219055 0.23849 -0.867951
2433 9.5215 0.429574 5.86951 0.060467 1.20223 1.07659
2698 11.3176 1.27214 5.39781 -0.0705972 -1.47791 1.17276
311 11.5688 0.188454 4.61707 0.0900799 0.791079 -1.53879
1521 10.4382 0.639331 5.60522 0.527197 -1.15871 0.330353
940 12.216 0.907939 5.07128 0.405796 0.430401 0.35375
2303 13.1631 0.621298 4.82737 0.549871 0.670916 -1.82481
1636 13.9168 1.26475 5.72587 0.790858 0.428684 0.183242
2191 15.2965 1.19428 5.91991 -1.97851 1.8737 -0.102225
443 15.1892 0.761744 4.64365 -0.912131 0.810314 0.111789
2828 14.938 0.124905 5.40063 0.00771907 -0.828553 -0.498784
3065 16.1859 0.253569 5.07815 -0.502897 -0.154278 -1.83581
1047 17.439 0.117117 5.40405 -0.476368 -0.140279 0.0225812
3811 16.7348 1.28701 5.31658 -0.238291 -0.773795 0.870344
237 0.831528 2.91538 5.09816 0.482445 -1.43474 -0.914033
2689 0.920701 1.71177 5.00946 -0.491243 1.03777 0.405491
2710 1.9262 1.88862 5.01794 1.78899 -1.33558 1.43897
3233 2.86416 2.19113 5.05729 -0.373999 1.27062 0.351202
2845 4.51957 2.23346 5.54544 0.231217 -0.923323 2.02008
3796 5.66858 2.72617 5.23496 1.25769 1.96873 0.505859