ITEM: TIMESTEP
48000
ITEM: NUMBER OF ATOMS
4000
ITEM: BOX BOUNDS pp pp pp
0.0000000000000000e+00 1.7878070701931353e+01
0.0000000000000000e+00 1.7878070701931353e+01
0.0000000000000000e+00 1.7878070701931353e+01
ITEM: ATOMS id x y z vx vy vz
773 0.0224415 0.874048 0.420994 0.337389 -0.050878 0.542219
248 0.0683834 0.105569 1.41902 0.664317 -0.680794 -0.190317
1538 0.986137 0.309844 0.693421 -0.439168 0.14092 -0.486316
142 1.91652 0.433812 1.06935 1.37879 -0.285527 1.68624
2162 3.58042 0.615741 1.34815 0.928154 -1.21538 -1.06347
2546 4.26688 0.489886 0.358642 0.257177 -0.162447 1.31064
1715 3.14034 0.509717 0.351641 0.0946558 0.285479 -0.483306
2551 5.91389 0.711585 1.06316 0.372819 -1.31332 -1.39732
3356 6.96123 0.938976 0.88372 -1.13133 -1.12289 1.4603
2597 6.35996 0.144357 0.209399 0.233808 -0.515356 0.573957
3264 8.89211 0.647651 1.32689 0.125636 -0.23544 0.32061
3036 8.27307 0.990632 0.190678 -0.42215 0.0578392 -0.161097
304 8.04111 0.0329531 0.810151 0.859583 -0.363609 2.46022
2823 9.99425 0.981885 1.38258 0.414871 -1.95778 -1.63124
2466 9.86126 0.685992 0.413255 0.553572 -0.353363 -0.679188
1189 10.855 0.754315 0.866582 0.786945 0.809299 0.194982
2861 11.8241 0.389027 1.32557 0.724597 -1.33846 0.601208
2961 11.5054 0.126626 0.296278 -1.71869 -1.55097 0.326779
2668 13.2518 1.43663 0.504229 1.52637 -0.866887 -2.1181
1356 12.5902 0.144294 0.700652 -0.601005 1.22365 -0.307067
1577 12.0726 1.1194 0.195517 0.267169 1.31677 -0.717458
2510 14.3158 1.31254 0.35043 0.505051 -0.110682 1.25381
946 14.1765 1.31311 1.30135 1.2958 -1.05466 -1.82099
2571 13.6278 0.25498 0.930567 -0.616178 0.513639 0.583631
2636 14.9603 0.702365 0.909711 0.943052 -1.171 -1.61684
2724 16.2257 0.882236 0.677903 0.752017 -0.776087 -0.194415
2708 17.0934 0.239384 0.678769 0.593337 -0.0536836 0.284327
816 1.31068 2.47038 0.645137 -0.749699 0.829674 -1.92664
2345 0.588337 1.98718 1.21748 1.71507 0.336499 -0.884234
3842 0.236642 2.84718 0.596529 -0.32281 1.57001 0.11344
1878 1.52509 1.51009 0.881269 0.510184 -0.276426 0.585279
2925 2.38061 2.02658 0.294565 -0.0792884 -1.0514 -0.326956
2163 2.66369 2.63321 1.07087 1.10115 -0.0955834 1.04554
3271 3.42119 1.70264 0.518601 1.71638 -0.511531 -0.927451
1619 4.3411 2.47903 0.334797 -0.678154 0.434559 -1.22619
1899 5.66808 1.8315 0.714842 -0.323389 -0.568335 2.01821
1248 4.57028 1.51768 0.619699 -0.420761 0.647331 2.57648
2452 6.6949 2.40982 0.284974 0.640635 0.918513 -0.235438
1341 6.88999 2.95997 1.18721 0.114547 -0.726963 1.04021
3875 7.74734 2.76676 0.443144 1.75443 -1.35379 0.596404
34 8.42594 2.09977 1.25054 1.07869 -0.811635 0.463876
7 10.3436 1.89695 1.23729 0.181924 -0.0459713 0.627171
647 9.49558 2.69506 1.19405 -0.370329 -0.0172387 -0.257218
63 9.37532 1.56634 0.881754 0.230391 -1.02341 0.168672
1723 11.1349 1.5686 0.373856 -0.416236 0.914519 -0.165794
349 11.6753 2.76937 0.888079 -0.716702 1.22717 0.35023
1513 12.0505 1.75647 1.01773 -0.543991 1.50665 0.852977
656 13.0589 2.44019 1.06004 1.27235 0.334158 -0.584283
1403 14.0401 2.91211 0.649834 0.0397899 -1.19794 -0.0905053
1808 14.798 2.85758 0.0141538 -0.245497 0.274266 0.291461
2194 15.0828 2.2961 0.838303 1.47546 -1.07628 0.52994
441 16.3446 2.62623 0.669738 1.338 -0.833755 0.693015
2084 15.8613 1.73953 0.0762747 -1.03762 0.0662426 0.192434
3023 17.2594 2.0608 1.20868 -0.350808 0.601646 0.912638
1470 1.08199 4.07125 1.35698 -0.535486 -0.636632 -0.171619
1571 0.985351 3.44817 0.349096 1.79773 0.864719 0.496257
3664 2.06203 3.28835 0.369492 -0.357034 0.925407 0.00073269
1222 2.15662 3.54081 1.33402 -3.10185 -0.986357 0.957931
2140 1.70107 4.24732 0.575813 -1.77457 -1.43905 -0.896211
1136 3.76234 3.2277 0.925177 -3.05766 -0.767726 1.71331
3690 4.44415 4.14589 0.629002 -0.148244 0.821305 0.0256228
1710 3.25563 3.97793 1.3593 -0.865233 0.11682 -0.820448
1179 3.32059 3.53791 0.0533901 0.193897 -0.849199 -1.93774
3498 4.88972 3.21235 1.07035 -1.33528 0.067631 0.111932
1963 5.91274 3.17985 0.804011 1.12372 0.207204 -1.42145
812 6.89968 3.6482 0.301659 -0.223034 0.465572 -0.795541
196 6.28328 4.27557 1.25048 -0.614793 -1.55189 2.21733
508 7.88182 4.04554 0.221233 -0.825121 0.577631 -0.309094
1631 9.02877 3.6239 1.41134 -0.705271 -0.976944 0.511406
2229 10.2146 4.29072 0.97486 -0.283664 1.67912 -1.34006
1333 8.99485 4.04992 0.193077 0.526795 1.1024 1.06183
58 11.1239 4.16789 0.107767 0.627175 -0.324962 -0.681175
3455 11.1091 3.54871 1.22693 0.495314 0.0500761 1.24953
919 12.0531 3.86236 1.30086 0.381332 -0.165739 0.609336
983 13.3377 3.70309 0.0868037 -1.48331 -0.375781 0.495317
3576 12.1853 3.23334 0.14258 0.770392 -1.34633 -0.699302
2233 12.6666 4.44499 0.443005 1.23362 -0.599811 0.218657
1427 14.3071 4.18939 0.881784 0.274756 -0.643739 0.329634
1258 14.6427 3.16881 1.31418 -0.0796026 -0.469534 0.397623
8 15.9008 3.99546 1.4322 -0.126023 0.757491 -0.0270132
2202 15.2036 3.67344 0.560227 -0.027828 -0.377871 -0.276465
3362 17.822 4.11025 0.615262 0.0596881 -0.57078 -0.816896
3780 17.2996 3.27602 1.25876 0.660014 1.41041 0.144666
2968 0.899822 4.99649 0.376949 -0.128024 -0.167424 0.843549
3329 1.24116 5.86293 0.746636 1.08299 -0.976914 -2.11972
3182 0.386705 5.33031 1.30788 1.29668 1.42806 0.440675
2165 1.93465 5.41787 0.0363945 0.487888 -1.79975 -0.367783
1801 2.22568 5.05722 1.14084 1.42013 -0.64123 -0.256071
3311 3.17554 5.43693 0.934056 -0.978297 1.71543 -1.41488
1941 4.46438 5.3169 1.26235 0.852834 0.323264 0.586632
804 3.28092 4.57846 0.464187 -0.614311 1.75157 -1.22153
437 5.29367 4.54633 1.14625 -1.14128 -1.90936 0.268973
1175 5.16332 4.60457 0.096794 -0.394199 -2.48965 0.52015
3066 6.10772 5.06927 0.545835 2.36449 -1.04859 1.72449
3556 8.20797 4.48196 1.30686 -0.668776 1.47952 0.162502
2949 7.75816 5.1497 0.793484 -0.979936 -0.221723 0.640756
3707 9.31784 5.10287 0.347728 -0.87851 -1.72425 0.850791
2366 9.31251 4.75195 1.33875 -0.829526 -1.07527 1.70918
2833 9.20339 5.87994 0.959978 -0.29322 -1.03907 -1.04339
2289 11.0831 4.53825 1.35208 0.510234 -0.193681 -0.274226
429 10.5874 5.24868 0.574618 -0.383475 1.29011 -1.21483
556 11.5492 5.72447 0.570399 0.271342 -0.281871 -0.485513
2750 13.3636 4.88019 1.1693 -1.08533 0.346937 1.96654
2622 12.8978 5.67681 0.419395 0.833557 -2.02515 -0.207763
101 13.9738 5.53566 0.690518 -2.15495 -0.344069 1.45351
465 15.5586 5.10129 0.939079 -1.33995 -0.968621 1.53953
19 16.3303 5.61436 0.412843 -0.165117 0.211824 0.516824
3928 14.9382 4.92739 0.0907262 1.44663 0.0023929 1.0116
568 16.4444 4.47173 0.439017 -2.94404 -1.66413 -0.0121777
3180 17.41 5.19076 0.598239 -0.352989 0.626867 -0.00206958
1611 16.6036 5.06654 1.30863 1.50812 1.08567 -0.436994
3083 17.3694 5.91574 1.43517 -0.281162 -0.415859 -1.94541
622 0.143465 6.25573 0.708949 0.0217211 -0.441317 -1.05467
1320 1.67113 6.79892 0.568022 0.527092 -0.416312 -0.62731
1812 2.39897 7.06451 1.25263 0.276205 -0.249755 0.0633729
1534 2.38502 6.00537 0.777456 -0.735467 -1.29064 0.149184
3450 2.78853 6.79167 0.209607 0.757451 -0.295135 -0.169467
3371 4.10033 6.63631 0.540899 0.570239 -0.588399 -2.50401
395 5.08932 6.79123 0.233924 -0.797218 -0.201927 -0.194873
752 5.2276 5.98871 0.851009 -0.322978 -0.858651 -0.603379
3301 7.27397 6.15503 0.910393 -0.453691 0.396508 -0.953949
1687 6.7815 7.18164 0.944289 1.08379 0.840175 -1.69381
3767 6.30895 6.13734 0.805732 1.73943 1.85553 0.517554
2284 8.33966 6.00613 0.382335 0.426465 -0.0137236 0.383172
1640 7.86046 7.04384 1.06284 -0.133945 0.331286 0.232547
2980 9.43858 6.98135 1.01061 -0.447276 -1.79993 0.35339
361 10.2653 6.68078 0.560439 0.614652 -0.0671024 -0.612498
392 12.8174 6.59755 0.691708 -0.327845 0.442284 -0.717912
245 11.9918 7.31564 0.0341509 0.936063 -0.193736 -1.37659
250 13.9821 6.71633 0.71794 -1.31357 -1.97159 -0.506312
525 14.8053 5.98734 0.384643 0.837287 0.949183 0.535174
2244 15.1552 6.64745 1.38316 0.426245 -0.844257 1.13485
760 15.0074 6.97053 0.450749 0.857519 0.0780646 1.0162
747 17.3286 7.11519 1.32623 0.734518 -1.3377 0.143095
1884 17.1335 6.43719 0.128277 0.887021 0.114297 -0.205935
292 1.12615 7.8311 0.738773 0.565304 -1.07244 -1.48182
1855 0.3743 8.78009 0.416215 0.513711 0.489567 -0.316418
1901 0.161886 8.41075 1.37788 -0.602585 -0.867398 0.508166
380 1.53081 8.72746 0.697881 -0.763905 0.472571 0.019348
3841 2.89339 8.00508 0.673939 0.204927 0.217274 0.413252
1851 2.1462 8.07567 1.46027 1.54537 -0.472357 1.57872
1809 2.39649 8.88244 0.0940071 0.205014 0.800857 1.7143
2754 2.07241 7.7253 0.144962 -2.323 -0.753668 -0.706025
1584 4.20172 7.65875 0.184339 -0.20675 1.42324 -1.00958
2351 3.05894 8.92472 1.34011 -0.441876 0.941737 0.700911
800 4.40119 8.58412 0.860669 -0.0713802 0.0751 -0.690164
3542 5.16223 7.56093 0.942147 -0.892935 -0.95684 -0.541684
2937 5.43071 8.27691 0.23217 -1.71272 0.660192 -0.297798
3394 5.3142 8.8658 1.26541 0.898237 -0.469757 0.607212
3159 7.14532 8.02233 0.489925 1.05285 0.418875 0.750156
3416 7.19243 8.7606 1.26303 -1.86929 -0.862181 1.09259
3402 6.12951 8.3454 1.04144 1.95173 -0.645319 -0.299001
1802 8.66425 7.88208 1.1088 1.17752 -0.227652 -0.60479
2053 8.11218 8.83412 0.318244 0.995711 -0.0648538 -1.17869
3488 9.9737 8.87778 0.540935 0.455608 0.695281 0.165712
1752 10.363 7.79477 0.408587 0.986826 -1.05765 0.242341
1967 11.3544 7.78928 0.974787 -0.375129 0.462777 -0.155273
1235 11.0451 8.71511 0.351506 -0.710521 -1.05861 0.37391
3199 12.7936 7.63744 1.28745 0.15135 0.284535 -0.717366
3422 13.1109 7.52797 0.182106 0.756182 0.0535787 -1.49047
2301 14.1384 7.61967 1.30601 -0.823348 0.154255 -0.863631
1159 13.6772 8.55561 0.601269 0.817128 0.143876 0.0613174
761 14.1759 7.83129 0.0142911 0.0630645 -0.359875 1.87043
1113 15.0426 7.99626 0.580984 -0.270263 0.593651 0.166381
1896 17.715 7.79365 0.540382 0.108539 0.221269 0.544727
3940 16.8944 8.699 1.19519 0.458435 -1.85226 -1.24289
1735 17.2519 8.82754 0.0214143 0.939521 1.50561 1.74496
2348 0.936 0.916721 1.56511 -1.26618 -0.189072 0.777689
1364 0.372524 1.11643 2.83185 -0.348715 -0.525766 -1.53311
1319 1.36394 0.195197 2.92739 1.02393 0.996116 -0.00349196
1128 1.66636 1.12916 2.60359 -1.54472 2.31369 -1.19637
857 2.75901 0.41455 1.92243 -0.330608 -0.113136 0.842349
3618 2.64342 1.45635 1.56988 -0.240988 -0.765491 -0.185547
221 4.0204 0.477805 2.27685 2.3677 -0.868895 0.182576
3720 4.94675 1.16395 1.63145 -0.267597 0.600446 -0.93588
830 5.52087 1.1479 2.75755 1.88353 0.479569 -0.147059
2568 5.19855 0.157765 1.89064 1.49304 -2.45813 -1.73314
2272 7.01461 0.0597177 2.48184 0.447001 1.20293 1.21611
2086 7.01767 1.16168 2.35577 -2.03997 -0.635659 -1.13539
2055 7.70741 0.683267 1.74311 -0.633311 1.28282 -0.499485
853 8.82624 0.86544 2.78199 -0.446549 -0.0618214 -0.339041
1956 7.70854 0.728465 2.9674 -0.244148 1.92828 0.0760271
1069 10.3764 0.836264 2.6519 -1.50803 -0.555214 0.209137
1152 11.2219 1.40552 2.03386 -0.318529 -2.14399 0.400468
498 11.0623 0.124423 2.20567 0.109447 0.725091 -0.0762567
1890 13.3392 0.714303 1.781 -1.38498 -1.43156 0.20347
2874 12.5691 1.30818 1.82173 0.22935 1.25514 0.286168
871 13.0851 0.609299 2.85626 -0.506228 1.94118 2.35865
1199 14.1287 1.05868 2.74312 0.0323486 1.02903 0.379949
3040 14.2525 0.261788 2.0156 -1.2903 0.934242 -0.608142
435 15.1147 0.969488 2.3326 0.590349 0.426226 -0.981245
662 16.2026 1.18934 2.86253 -0.328986 -0.993718 0.635469
229 15.8557 0.0207153 2.39703 -0.110894 1.86765 0.332832
657 16.7923 0.824058 1.74631 -0.96154 -0.417712 -0.227264
2242 17.1103 0.664444 2.85213 1.17429 1.1203 0.631831
1819 17.8389 1.25855 1.73624 -1.15529 -1.77623 1.8346
1760 0.993561 2.02276 2.244 -1.04823 0.25256 0.179284
423 0.050508 2.52682 1.93988 0.641054 0.268042 0.489344
3166 2.34892 1.92112 2.40041 -0.828535 0.163426 -1.12811
1343 1.76116 2.63454 1.55986 -0.173561 -0.63036 1.25442
389 4.15985 2.68702 2.35208 -1.96674 -1.73906 -0.758551
1923 3.69312 2.27895 1.60295 -0.485245 0.22416 1.028
428 3.32657 1.58095 2.32399 0.967677 0.182542 1.09185
2243 3.2086 2.57978 2.82478 1.2626 -0.822881 -1.03316
1840 5.05142 2.14705 2.21513 -0.184336 0.523832 -0.170357
902 6.31147 1.50519 1.56516 0.575443 -0.131666 0.613518
2160 6.47943 2.00644 2.47235 -1.42753 1.61673 0.658576
3982 7.42216 2.13001 1.54676 -0.222597 -0.587469 1.33843
2816 8.56634 2.28898 2.26791 1.78058 0.33491 1.8879
669 7.65479 2.54381 2.88503 0.256595 0.998771 -0.464733
1656 9.71093 1.82174 2.24434 -0.431009 -0.156598 -1.62435
1614 9.39088 2.93846 2.7643 -0.964607 1.78447 0.159289
3686 10.9788 2.71585 1.73198 -2.15506 0.813785 -0.352556
1662 11.5565 2.45117 2.57122 0.768253 0.188594 -1.36507
75 10.5119 2.77407 2.70089 0.261863 2.54655 1.68461
2105 13.0664 2.18034 2.23355 0.76893 0.209585 0.181575
3452 13.9897 2.92798 2.19019 -0.0728721 1.27108 -0.0281332
1674 14.6531 1.78843 2.09044 0.0531357 0.7764 1.29522
1059 14.0294 2.11757 2.91035 -0.674804 0.523809 -0.962747
6 15.5611 1.77329 1.58376 0.0842871 -0.644243 0.835636
2450 15.6998 2.79748 1.65849 1.61537 -0.577613 -1.69258
1567 15.0936 2.91065 2.52645 1.04491 0.84252 -0.825383
1452 16.6201 2.19352 1.98817 0.358418 0.379203 0.793717
1217 17.4149 1.77522 2.6771 -0.13098 0.0762256 -0.368358
238 0.31585 3.45525 1.66845 0.395542 -1.84229 -1.59796
2577 1.87043 3.41177 2.39424 0.32733 1.45786 0.181346
2935 2.51344 4.23531 2.10813 -1.31973 -0.871644 1.069
3376 3.40028 3.7004 2.3595 0.583433 0.131181 0.585551
387 4.36959 4.2386 1.80697 0.116937 0.434747 1.00233
3049 5.61207 3.53884 2.00763 -1.54059 -1.1168 -0.987082
3077 6.89665 3.18749 2.47977 0.264398 0.0946056 -2.13817
1500 8.40877 3.23599 2.79153 0.132582 -0.0326534 -0.912154
1900 7.72251 4.02752 2.35559 -0.156007 -1.18749 -1.05801
278 7.78594 3.3399 1.53239 1.24819 0.067863 0.661218
3592 10.0674 3.56095 1.8216 -0.104579 0.697615 0.812852
1164 9.26198 3.89999 2.42759 0.280845 -0.20339 0.034566
273 11.094 3.77519 2.17522 0.707585 -1.40274 -0.141861
3613 12.8225 4.43452 1.95001 -0.117356 -0.201892 -3.02306
1434 12.5428 3.03513 1.86158 0.291101 -1.21147 0.621464
71 12.2127 3.62 2.85057 2.08002 1.09507 1.51695
3331 13.3029 3.77364 2.61583 -0.742321 0.205477 -2.28649
1645 14.0379 4.45162 1.89715 1.21641 1.17655 -0.523372
667 13.5459 3.58547 1.50057 -1.47974 -0.916484 -0.887446
1940 15.9401 4.11296 2.49411 -0.509802 0.323004 -0.744425
1797 15.0073 4.15544 2.0978 -0.259624 0.403272 -1.54298
3951 16.5023 3.22162 2.4702 0.08799 0.581608 -1.69047
3745 17.716 3.55224 2.64481 -1.06697 -1.30158 0.0688804
426 0.431039 5.63294 2.35003 1.67285 0.997288 0.286294
1266 1.35076 5.72608 2.82893 -0.433291 -0.444826 0.310465
673 0.187222 4.58571 2.25956 2.134 -1.01102 -1.50697
440 1.49403 4.54311 2.68209 -0.176159 -0.701831 0.159863
3482 2.51034 5.80112 1.83579 -2.50099 -0.208211 0.34682
9 3.6885 5.28525 1.98553 0.398266 -0.0149432 0.120145
820 5.5867 4.73928 2.37463 -1.84801 -1.02919 -0.530549
1316 4.65059 5.21092 2.40938 0.874464 0.552168 0.271917
3705 6.95781 5.19418 1.5168 0.456784 0.695306 0.0942476
1019 5.96817 5.33646 1.58278 -0.472591 1.57265 0.374742
2472 6.65379 4.51693 2.77932 -0.473481 1.22504 -0.293922
834 7.82409 5.09147 2.14987 0.976394 -0.557532 -0.0808741
987 8.28413 4.6352 2.9147 0.339391 2.07104 -0.683015
2503 8.1606 5.70975 2.93931 0.501193 -0.797028 0.399795
3699 9.01817 5.49435 2.06113 0.800843 2.34761 -0.377587
2956 9.94596 4.67409 2.31445 1.89573 -0.492176 0.537284
3716 10.3541 5.80704 2.55031 0.116598 0.626257 -0.951962
1689 10.2389 5.25807 1.49618 0.537936 0.284365 2.49537
2934 10.9162 4.91193 2.71876 0.808284 1.43179 0.812915
2575 11.8908 4.58827 2.48959 0.0379291 1.70897 -0.416789
3169 12.168 5.3856 1.59454 1.5509 -0.662132 1.22872
1494 13.343 5.83189 1.61159 0.940619 0.195383 1.10596
1296 12.9938 5.43115 2.73911 0.207393 -0.312884 -0.186471
513 14.7739 5.6107 1.53837 -1.41927 -0.363661 -1.58172
1474 14.2298 5.78389 2.61297 0.622906 0.145113 0.460324
1355 15.8115 5.22792 1.9808 0.658133 -0.478442 -1.17547
1489 15.2694 5.93269 2.71197 -0.775167 -0.0541348 0.687508
733 14.9389 4.91851 2.78386 -0.621815 2.48325 -0.493492
742 16.7797 4.59936 2.28061 0.0304404 0.036074 -0.335424
2847 0.814964 7.29557 2.88006 0.172175 -0.436748 -0.705131
1898 1.19501 7.3827 1.69799 0.522416 -1.21559 -0.0537369
77 1.41504 6.23858 1.78692 2.1921 0.508756 0.67571
993 0.401144 6.58145 1.88408 0.755271 0.838068 -1.7858
665 1.90891 6.95233 2.42907 1.76604 -0.0200677 -1.72659
1429 2.86496 6.65951 2.78042 1.49696 2.09134 0.526528
2423 4.28963 6.36595 1.70938 -0.492476 -0.570675 -0.172102
87 3.76505 6.05708 2.77769 -1.1534 -0.263924 0.805163
3 3.36031 6.69065 1.88183 0.193219 -0.0932376 0.848825
2283 3.86483 7.25763 2.79433 1.52794 1.52914 -0.00770054
164 5.40649 6.08588 2.06971 -0.614414 -1.16195 0.549797
881 7.04342 6.35008 1.89809 -0.0136133 1.52315 -0.0925701
689 8.18673 6.40561 1.77802 -1.0199 0.767677 -1.00512
708 8.52429 7.29426 2.12108 0.460341 0.941658 -0.600653
2335 7.57169 6.72924 2.83352 0.828768 0.411621 -0.463827
745 9.42685 6.40334 2.35332 -1.24091 0.548686 0.230203
1475 10.3745 6.63377 1.58554 0.241852 -1.10149 -1.16317
2803 11.3506 6.07808 2.20187 -0.548587 -0.336706 -1.28901
1154 11.2016 6.77351 2.9493 -0.53268 -0.109712 -1.09096
1834 11.3309 7.18479 1.93729 -0.822986 -0.697893 0.0564371
3364 12.1107 6.53043 1.50542 -0.220629 0.102679 1.54016
3884 12.7951 7.07377 2.17462 -0.141403 -0.70523 0.017861
1866 12.2909 6.35554 2.76804 -1.55045 -0.392719 -1.49048
2076 14.0184 6.77723 1.9969 1.73123 -0.781911 -0.819556
968 13.5072 6.66494 2.82783 -0.685588 1.27152 -0.777633
1976 15.5049 7.05618 2.50296 0.105366 -2.07441 0.311784
43 16.3362 6.12097 2.31663 -0.972252 -0.169411 -0.0108821
135 16.2384 6.74065 1.55584 -1.51991 -0.578401 0.0850272
2731 16.4375 6.80238 2.97311 -0.730661 -0.479515 0.00901303
2807 17.4672 6.32991 2.52851 0.782724 1.00557 -0.877489
2849 0.0710144 7.57294 2.08045 1.60113 -0.52489 -0.842589
1705 1.24768 8.26459 2.29444 -0.0840504 1.96261 -0.0536695
344 2.59075 8.1209 2.41678 -1.14059 -1.27604 -1.08858
1241 4.44902 8.35739 2.80265 1.74985 -1.21188 0.0658926
2230 3.41198 7.77873 1.50089 0.164019 -1.39037 0.160954
2480 5.4985 7.70508 2.08487 -0.479137 -0.00428648 -0.066485
1106 7.03131 8.82947 2.58666 0.172384 2.14236 -2.52696
3258 6.49274 7.95215 1.80237 -0.409276 -1.37697 -0.518638
3967 6.06102 8.90746 2.64702 0.0629367 -0.484049 0.214592
3861 8.84495 8.4893 1.95293 -0.723102 0.639 0.621132
3308 7.59484 7.9873 2.24898 0.128655 0.460208 -0.76211
1453 8.20419 8.63999 2.96669 -1.12858 0.969216 0.253764
2417 9.60538 7.78268 1.75423 -0.201804 -0.279412 0.626807
2797 9.20345 7.57065 2.92947 -1.65489 -0.57607 1.14268
2926 9.85631 8.72546 2.48201 -0.010584 0.496773 1.85928
671 10.5021 8.41835 1.65286 0.0736549 -0.750517 0.100595
1433 11.7491 8.4421 1.74514 0.706964 -0.0919734 1.01847
3984 10.9394 8.01685 2.64284 -0.684876 -0.586969 -0.912083
3878 13.1934 8.53588 1.6494 0.457441 0.41919 0.44519
3661 12.6281 8.21225 2.65427 0.958049 -0.0350754 0.918932
368 14.1883 8.8305 2.12164 0.256287 0.576267 -0.38112
3560 14.7528 7.82093 2.21146 1.67249 1.06308 -0.20114
182 13.6612 7.73903 2.28548 -0.57421 -0.466759 -0.301995
307 15.5971 8.13654 1.5197 -0.202121 1.22176 0.0162606
1273 15.1063 8.81471 2.71002 1.63732 0.975529 0.628791
3124 16.6675 7.93568 2.20491 -1.51943 0.385448 0.0335651
210 17.5553 8.58553 2.40216 -0.485765 -0.112214 2.31197
1047 0.936938 1.13311 4.35085 1.5812 -0.829643 -0.667691
2683 0.639188 0.366426 3.75889 -0.63479 0.702756 0.104216
1024 2.53374 1.16442 3.23026 1.3998 1.2853 -1.88666
13 1.92527 0.209806 4.36945 0.871745 -0.178095 0.160242
1157 2.41059 1.29817 4.31761 -2.6122 -1.05414 0.239621
1920 3.66247 0.346661 3.62556 1.59231 -0.384978 -1.53718
2167 3.77162 1.45861 3.3721 0.554424 -2.36606 -0.521557
1327 3.41891 1.39494 4.43093 -0.101062 0.310114 -0.860925
15 4.45146 1.05196 4.29385 -0.476416 0.371751 0.463889
2993 5.61231 0.315347 3.91057 1.11112 0.199803 0.555974
3648 4.65602 0.624982 3.35585 -1.57694 1.24295 1.12221
2060 6.538 0.628537 3.20044 1.12967 -0.0946933 1.08511
1803 7.31349 1.27306 4.24189 1.01444 -0.947816 0.107341
1852 8.64513 0.358036 3.91575 1.71705 -2.88275 -0.0583263
3923 7.47248 0.22251 3.88752 -0.0321012 1.07272 0.772328
2020 9.86151 0.364976 3.43979 -0.0922997 1.12604 -0.398084
3950 9.63037 1.37072 3.27042 0.816165 0.775297 -0.343322
337 9.4645 0.534716 4.45776 -1.22737 1.1157 -0.752783
414 10.5853 1.10488 3.75482 -1.16238 -1.04816 0.208642
842 11.7022 1.05349 3.02068 0.464444 1.26278 0.78461
950 12.116 0.741585 3.82634 0.924301 0.509999 0.445983
3990 13.3581 1.06752 4.20432 -0.384449 -0.789508 -1.07527
3994 14.0306 0.364705 3.45716 0.380157 0.116329 1.50822
2279 14.4479 1.43109 3.76636 0.0317571 -0.745903 -0.532597
2775 15.0766 0.100736 3.55704 -2.14077 0.420745 -2.05448
1025 15.3962 1.00206 3.99216 -0.578969 0.48164 0.704238
913 16.155 0.29582 3.41896 -0.467158 -1.36956 0.348687
1438 16.7801 0.816609 4.02388 1.18898 1.63716 -0.221833
3917 17.8228 1.39726 4.04278 -0.540593 -1.50673 -0.846908
3444 1.21096 1.99553 3.40913 -0.108094 0.524876 0.488862
2710 0.529611 2.26376 4.36192 1.03371 0.697348 -1.0554
3851 1.81468 2.23273 4.23287 -1.53802 -0.341572 -1.3236
492 2.88005 2.05378 3.74636 -0.581711 -0.893687 1.88426
3934 2.04984 2.64847 3.26911 0.186478 -0.897019 -1.6972
2845 3.91853 2.50749 3.64804 0.661041 1.10016 0.371653
79 5.71999 2.5925 3.15688 1.23433 1.75289 0.0999069
2159 6.71996 2.65136 3.88923 0.260351 -0.532626 0.241858
2305 7.04944 1.73606 3.28332 -0.901337 -0.540922 0.899804
312 6.27452 1.56419 3.88781 0.882328 0.0606697 -0.996755
724 8.44826 1.58517 3.42203 1.74859 -0.406167 -0.302625
652 8.65791 1.51179 4.41079 0.700495 -0.15873 0.744327
266 7.73168 2.19866 4.12191 -0.182223 -0.129031 0.90952
3663 10.1543 2.40091 3.79959 -1.47189 0.330125 -1.06636
2856 9.79286 1.60515 4.41021 -1.62708 -1.26802 1.13288
1075 10.9483 1.90747 3.24054 -1.15559 -1.67548 -0.187358
1126 11.0218 1.78496 4.39299 -0.478707 1.35165 -0.730221
1691 12.0072 2.35813 3.59807 -2.36077 0.339791 -0.0422951
3740 12.4798 1.67774 4.23371 3.20053 0.551678 -0.465894
1931 12.9597 2.68636 4.17577 1.88713 -1.56835 -0.749162
1524 13.2044 1.75975 3.43357 -0.381654 -1.9066 1.32273
3154 13.8667 2.11935 4.37258 -0.817928 0.145658 2.29837
175 14.769 2.49656 3.9284 -0.594323 -2.37393 -0.139266
3034 15.291 1.88482 3.0917 1.7353 1.96796 2.15808
718 15.7842 2.19741 3.91119 -0.396701 -0.194237 -0.920055
3156 16.3876 2.18093 3.06344 0.579431 -0.773473 -0.673211
469 17.4759 2.47717 3.48163 -0.497082 0.128398 -0.0692677
3314 16.6274 2.95406 3.82655 -0.395686 -0.353152 -0.798632
1479 17.4753 2.77029 4.41055 0.563381 -0.788998 -0.444614
2688 0.448685 3.20701 3.46642 1.26726 -1.5136 0.734823
1875 1.38269 3.32436 3.88192 -0.0836964 -0.106716 0.290042
3235 2.61776 3.56248 3.09924 -2.40212 -0.369644 -1.98122
2236 2.36584 3.10214 4.07009 1.7461 -0.621935 -0.133779
1517 2.34029 4.16928 4.35403 1.8316 0.369902 0.336256
347 4.18046 4.28912 4.41827 -0.983399 0.88009 -0.929697
2873 4.30767 3.68793 3.16144 -1.63601 0.574284 0.124011
2027 3.47112 3.6281 3.89001 -0.645789 0.557323 1.7937
86 5.51256 3.63457 3.08756 -2.24094 -1.23433 1.30272
1306 4.94357 3.21155 3.90686 -1.1255 -0.187012 -1.3346
1657 6.52875 3.79963 3.48375 -0.189927 0.991896 -0.582941
3882 8.55363 3.19621 3.91957 -0.508993 -0.603097 -1.78737
274 7.73894 3.76054 3.52772 -0.944115 0.0417952 -0.977739
2716 8.57658 4.32141 3.87381 0.396699 -0.173198 0.387516
554 9.76938 3.29446 3.96193 -0.898909 1.72491 1.00895
1220 9.48213 4.20698 3.5593 0.61505 -0.93649 0.957639
947 11.5109 4.27532 3.49257 -0.0694852 -0.0202179 -0.507117
279 10.5225 4.25414 3.296 0.107315 -0.695424 0.453281
3009 11.2153 3.14831 3.36226 0.370885 -0.484046 0.00079926
1004 12.6526 4.44924 3.4291 0.167244 -0.582748 1.58912
370 12.1503 3.55898 3.83414 -2.08484 0.33938 -0.279168
1345 13.3651 3.8413 3.7834 -0.306136 -0.812711 -0.97769
2314 13.6543 2.98636 3.18766 0.298703 -1.2 0.274806
413 14.6072 3.75656 3.03369 -0.0133458 -0.594613 0.488307
1448 14.8647 3.60903 4.36504 -0.988442 -2.18734 2.3126
1661 15.707 3.3558 3.42101 -0.201499 -0.429498 -0.811208
3777 16.2644 3.99013 4.2127 1.58024 1.09924 0.321153
639 16.8547 4.15744 3.299 1.15258 1.31797 -0.885672
149 17.3782 3.70694 4.04638 1.03284 -0.920799 -0.800587
3991 0.62655 5.05014 3.3189 0.366199 -0.438459 0.33123
3619 0.542372 5.63035 4.25434 0.307983 2.1002 -2.50883
3386 2.16691 5.74014 3.38519 -0.172192 0.539434 0.270459
14 2.31517 4.59228 3.31034 -0.68456 1.18712 -0.929112
140 3.90653 4.61985 3.31308 -0.295442 2.13826 0.10518
1312 3.05423 5.23563 3.01938 1.25903 0.954647 0.153342
2179 3.15687 4.78894 3.91922 0.20662 0.453723 0.530089
1262 4.45981 5.81653 3.60615 -0.296365 0.671511 -0.997191
1650 3.34403 5.79234 3.89582 0.715265 0.162543 -1.54701
511 5.00727 4.89266 3.8769 -0.264712 -0.407015 -0.859425
1763 5.2969 5.90449 3.05371 0.0278001 -0.982018 -0.126327
3607 7.09416 5.54797 3.00819 -1.84186 -0.417906 -0.865728
91 6.60907 5.66577 4.01785 0.050511 0.320832 -0.0334433
2746 7.67198 5.14362 3.92939 0.928825 -0.453769 0.595609
997 9.55303 5.40174 3.18515 -0.581129 0.249346 -2.00561
3201 9.11541 5.03013 4.30305 0.221731 0.187169 0.517645
3585 10.4701 5.38922 3.52137 0.18277 1.45803 -0.625574
701 11.6846 5.57303 3.13541 0.111916 0.554596 -1.13426
3697 11.351 5.1558 4.0877 -2.47053 -0.256901 -1.56909
2201 12.3404 4.48818 4.41836 0.221617 -0.231061 -0.393059
2182 12.4861 5.50106 3.73648 0.0673937 0.509766 -1.10978
2467 13.3955 5.07935 4.31886 -0.0259316 2.1155 -0.851887
3742 13.9799 4.88888 3.43034 0.228096 0.0838942 -0.177125
602 13.7556 5.94305 3.76921 -0.943361 -0.783625 -0.961095
1442 14.6059 5.68591 4.39163 0.572868 1.91309 0.31532
1758 16.1686 4.95763 3.15474 0.517578 0.637484 0.120466
1757 16.1868 5.84593 3.72726 0.671684 0.179133 0.387403
1133 15.3398 5.10309 3.79831 -0.388862 -0.873245 -0.876405
1231 17.7514 4.75664 4.10918 0.969919 -0.777345 -0.150534
715 17.2651 5.10121 3.08045 -1.10623 0.221073 -0.0321596
409 0.655678 6.15663 3.35868 -1.87896 -0.272124 0.463228
2596 0.634233 6.68191 4.42719 -0.340177 -2.24498 2.1051
3651 1.83387 7.23569 4.45964 0.604816 -0.121663 2.55033
1381 1.51298 6.81448 3.46144 0.949406 0.384616 0.867557
241 3.05091 6.92751 4.05602 2.13894 -1.79081 -1.10753
2455 3.95543 6.57463 4.38241 -1.0368 0.277304 2.30782
1406 4.93483 6.83183 3.2583 -0.130682 -2.17775 -0.775849
425 5.26582 6.23743 4.43645 -1.01359 0.19557 -1.1861
3101 5.88798 6.72062 3.72384 0.850903 1.67744 0.187795
3058 4.6339 7.40272 4.20898 1.09692 1.38672 -0.297143
2227 6.92517 6.96828 3.83579 1.16728 -0.0108203 -0.577351
3641 8.3325 6.17304 4.0547 -1.43223 0.624428 -0.45137
1725 8.92078 7.00335 4.43373 1.38517 1.07698 0.514779
2853 7.96109 7.26368 3.74659 -0.209784 -0.423191 1.21354
1949 8.82724 6.72155 3.37381 -0.448739 0.260878 -0.816098
3809 10.2231 7.05727 3.05631 -0.894522 0.696128 -0.134149
794 9.7496 6.6346 3.87744 0.955004 -1.30427 -1.14591
1539 10.8208 6.42351 3.88237 0.534253 1.89214 -0.358678
166 12.2578 6.7241 4.44007 -1.86466 1.90112 0.290269
2116 12.8242 6.75554 3.62005 -0.773533 -1.4024 -0.410142
2403 14.1122 7.12784 4.00922 -1.10829 -0.0490124 -0.465372
579 14.5952 6.72445 3.01705 -0.259546 -0.401382 2.36636
2142 15.5066 6.6843 3.50725 -0.165164 1.18585 0.249956
3834 17.4792 7.44529 4.16027 0.614521 -1.5034 0.380118
2929 16.4351 6.92248 4.32366 -0.513087 -0.326839 1.70902
771 17.506 6.39599 3.68721 -0.359432 -2.80916 -1.73512
3765 0.844968 7.84962 4.07903 -1.21797 2.09919 -1.21111
2743 1.8764 7.80413 3.2931 1.45979 0.361357 1.09081
776 2.58679 8.03007 4.27276 0.836396 0.956192 0.746864
1926 1.60423 8.9377 3.39647 0.39458 1.23999 -0.941006
3423 3.63537 8.76524 4.25069 -0.712446 -0.00894889 1.25387
2613 3.51758 8.24843 3.15599 1.42141 -0.352514 -0.594895
2025 3.70367 7.72864 4.01886 -0.145551 -0.300218 -0.273954
2147 5.38307 7.89978 3.37526 -1.17915 -0.880675 0.990704
494 5.15023 8.4668 4.22343 1.01945 0.141568 0.359526
3963 6.42378 8.51819 3.73621 0.522378 -0.588019 -0.741372
1420 6.81234 7.85541 3.04863 0.203412 0.600419 -0.773747
2318 7.28163 8.07122 4.21692 -1.53964 -1.0593 0.25173
3840 6.09968 7.64442 4.28418 -0.363619 0.549968 1.46922
3694 8.60948 7.99623 3.83401 0.517346 1.22993 1.18804
1169 7.96076 8.89855 4.20955 0.108031 1.27877 0.740407
3183 9.30727 8.63931 3.52691 -0.413666 -0.831956 1.64849
3876 10.2263 8.09171 3.35685 0.630582 -2.4161 -0.152009
1728 10.3684 7.4676 4.2723 0.360397 -1.35371 -0.414336
3476 11.3635 8.07611 4.00048 0.0887179 0.426862 -0.130702
2068 11.9444 7.53931 3.266 1.82542 1.01978 0.929172
630 12.9907 8.84609 3.41429 -1.97303 -0.186645 -1.284
2247 12.5689 7.9518 3.90514 -0.437318 0.863563 -0.192143
247 14.5626 8.31421 4.19687 1.11101 0.833817 0.373602
470 14.2007 7.92187 3.12794 -0.298776 0.980677 -0.172345
1480 15.26 7.92698 3.28688 1.03378 0.0619037 -1.2901
416 17.6472 8.33837 3.47394 -0.577266 -0.867402 0.784126
2614 16.5255 8.69017 3.04383 -1.03867 -0.946192 0.837348
3461 16.5795 7.70403 3.50514 -1.04344 -1.77992 0.304185
2164 0.133101 0.526022 5.1998 1.06706 0.567104 0.898467
3072 1.67891 1.04953 5.11161 0.02545 0.672709 1.07055
1063 2.68838 0.991306 5.28449 -0.139739 1.3778 1.4119
1550 2.23038 0.0129417 5.38001 0.234281 1.75622 -1.31848
2122 3.99148 1.10689 5.62945 -1.36697 -2.09503 -3.01967
277 3.1856 0.185955 5.79841 -1.35269 -1.845 0.552629
3992 3.54601 0.368778 4.80516 -0.59035 0.188292 -0.686688
666 5.81359 0.942771 5.46481 -1.8031 0.825692 -1.33381
3021 4.8102 0.51921 5.13226 0.731729 0.36248 -0.0283843
3500 6.60576 0.213903 5.70418 0.801655 0.831104 -1.29203
1374 6.41467 0.59478 4.49872 0.507329 0.600227 -0.29145
1101 6.77568 1.17989 5.89856 -1.62576 -3.08891 -0.680207
447 8.10112 0.649926 4.88552 -0.734327 0.970562 -0.196199
2325 10.2259 0.0171584 5.73541 -0.252214 0.598918 2.45675
515 9.1373 0.755239 5.4269 -0.193338 1.20573 -0.488311
2271 10.2741 1.08979 5.41923 -0.267551 -1.24352 -0.257387
3792 11.2419 0.0376324 5.41181 1.15752 -0.649211 -0.455985
3654 10.5064 0.386644 4.62403 0.203513 0.806917 1.33283
3909 11.483 1.13414 5.92799 -2.32064 0.119093 0.0632811
2840 11.8914 0.728095 4.87208 1.51793 0.633064 0.0507052
2508 12.572 1.28604 5.45054 -1.06981 1.07047 -1.4007
3698 14.3044 0.421931 4.65731 -0.195387 -0.053036 -2.07103
1636 13.41 0.671486 5.17418 2.19401 -2.27243 2.5522
3443 14.4201 1.38032 5.44711 -1.08924 0.0255719 1.21921