ITEM: TIMESTEP
173000
ITEM: NUMBER OF ATOMS
6912
ITEM: BOX BOUNDS pp pp pp
-9.2265715179435492e+00 9.2265715179435492e+00
-9.2265715179435492e+00 9.2265715179435492e+00
-9.2265715179435492e+00 9.2265715179435492e+00
ITEM: ATOMS id x y z vx vy vz
5 -9.13637 -8.83832 -8.80682 -1.64406 0.657229 -1.34234
337 9.17626 -8.56427 -7.66271 -3.49446 2.51961 1.9261
8 -7.77724 -7.71439 -7.47506 0.513118 -1.21882 -0.0809126
51 -8.8042 -7.90252 -8.25246 -2.05007 -0.0202252 -0.774859
55 -6.68959 -7.72359 -7.98949 -3.77919 -0.718627 1.19067
6 -7.50943 -8.7387 -8.65896 -0.944085 0.60142 0.891594
205 -3.74158 -2.58097 -8.99869 2.04727 0.546472 0.198664
12 -5.57872 -7.39777 -8.31842 0.0617066 0.113337 0.577663
3232 -4.51468 -7.86061 -9.08194 1.84037 -3.15138 -2.29837
291 -7.87764 -9.04689 -6.06594 0.499268 3.08035 0.460156
7 -6.39179 -8.48816 -7.42137 3.25387 1.22205 -2.27526
345 -5.33597 -8.60486 -7.86649 -0.394201 1.36618 -1.90689
16 -4.43884 -8.60681 -8.45849 1.0908 -0.811505 1.48507
1528 3.97957 -6.9655 -0.0427101 -1.84439 -0.00999538 -0.558347
1667 2.65264 -2.92421 -0.134359 -1.14435 3.70285 0.632813
302 -4.02183 -8.32499 -7.55438 1.06583 -1.67155 0.826078
3711 -3.3889 -8.57214 -8.4398 0.869076 -1.41888 -2.55335
4933 5.01604 -0.413176 -1.39596 -1.47916 -1.63861 0.321643
1459 -0.188684 -9.07769 -0.267281 1.42851 3.1241 -2.67885
66 -2.20191 -8.16959 -8.49584 1.16644 1.814 1.61949
3720 -0.992516 -8.44543 -7.70382 0.275847 1.44396 -0.535604
1725 8.85427 -1.60142 -0.837245 1.84707 1.18269 -1.10515
4008 -1.59818 -8.89124 -8.24376 -0.00508975 -2.3122 1.87338
21 -0.575054 -7.62593 -8.26619 -1.13757 -1.35669 -1.08243
24 0.0137579 -8.45619 -7.76328 2.2556 -0.352961 1.24115
71 -0.603397 -8.64838 -8.53213 -0.400365 0.488718 -1.23551
2016 8.94638 -0.47929 -0.172454 -1.71351 0.31117 -1.45638
701 0.453119 -9.11583 -8.41666 -0.783126 -1.11472 2.24906
320 1.38853 -8.03903 -8.41766 -2.46284 -0.136904 -0.844861
1806 2.08548 -7.49231 0.0312494 -1.34123 -2.14824 2.93175
3724 1.58282 -8.89114 -7.84874 -0.480952 0.859914 1.04426
606 0.686776 -7.80145 -7.60449 -1.16025 -2.71562 -0.618498
607 2.59647 -7.61046 -7.53861 -1.02202 -0.466206 -0.226313
36 2.28457 -8.37718 -8.46414 -5.32961 -0.490571 -0.108077
40 3.39712 -8.18252 -8.02455 0.30942 1.96727 1.10717
326 4.4091 -8.52118 -8.19126 -0.484116 0.643871 0.334679
77 1.70018 -7.10932 -8.85654 -0.0786287 -1.56222 -3.27966
330 6.53209 -8.82597 -8.42648 -1.3261 0.0287896 1.09781
42 5.90255 -8.49343 -8.95515 -0.730351 -2.84936 -0.627653
1771 6.69419 -9.08377 -0.239871 -1.07326 -0.595192 -2.96545
48 5.85748 -7.84571 -7.56421 2.68302 -0.0100312 -1.32119
1726 7.87336 -0.387668 -1.94872 -0.862704 -1.06407 0.425723
379 5.5707 -8.65519 -8.04159 2.06785 0.555997 -0.0848919
4864 -6.02596 -8.72406 -0.0525263 -2.75011 -0.0827488 -1.30721
334 7.21627 -8.50421 -7.78757 -0.220012 0.441339 -3.29664
95 6.62693 -7.76521 -8.27544 1.75826 2.80716 -2.36279
3412 -9.20776 -0.944468 -9.07425 -1.00527 -1.92693 -0.0149876
46 7.86522 -8.30963 -8.74744 0.553067 -0.973174 0.0257994
3260 5.35393 -6.8426 -8.89163 -0.610116 -4.05274 2.63281
4 8.75634 -7.96919 -8.42654 0.216652 2.20548 -3.64999
99 -8.22811 -7.0561 -8.05476 -0.901415 -0.915608 -1.64327
385 8.96057 -5.68529 -8.16971 1.26399 1.40715 0.329959
56 -7.70434 -7.83689 -8.44796 -1.91455 -1.85703 -2.74764
342 -7.23961 -6.74942 -8.61666 1.85048 -2.93701 1.59455
3379 -1.80636 -1.7575 -8.70304 2.22358 -1.08495 0.396546
344 -7.18375 -6.92124 -7.37452 2.83888 0.150165 2.00225
348 -6.27073 -6.77687 -7.68508 -1.99564 1.48096 -2.04808
3228 -6.41763 -7.03483 -8.738 1.97641 2.44903 1.51324
60 -5.7295 -6.44347 -8.53705 -0.216187 0.543349 -1.60872
107 -4.7589 -6.88779 -8.5087 -0.559522 -1.24854 -1.16068
346 -5.10464 -6.70822 -7.59875 -1.41792 2.54345 1.62798
352 -4.82011 -7.85706 -7.87952 -0.28723 -0.0970407 0.262675
350 -4.30476 -5.98205 -7.83121 -1.51132 0.530413 0.0208316
111 -4.02288 -5.84304 -8.66559 0.139156 3.28056 0.454361
3236 -3.82804 -7.66252 -8.37249 2.04719 0.344851 0.790753
68 -1.92472 -5.67841 -8.65022 -2.13955 1.33908 1.1238
65 -2.91987 -7.25201 -8.50808 0.77769 0.497813 0.794439
3239 -1.65159 -7.44688 -8.4315 -0.636701 2.83634 1.8091
358 -0.961898 -6.65643 -8.06192 -2.3853 1.56383 0.793036
354 -1.92728 -6.74574 -7.70799 -2.07553 0.307968 -2.9005
4377 -5.70463 -0.0298402 -5.2729 1.14795 0.411439 1.58124
3235 -1.76657 -6.63573 -8.74548 -0.369342 0.437501 0.334551
67 -2.2639 -7.62886 -7.61903 -0.764343 -1.66547 4.01051
368 0.015661 -6.10882 -8.60557 2.22665 1.05643 -0.869425
70 -0.393669 -6.93551 -8.8811 -0.159339 1.17273 -0.939948
365 1.6413 -7.28863 -7.7251 1.76147 -1.84676 2.15762
413 0.826926 -7.06914 -8.33093 -1.58096 -1.10066 -0.344425
406 1.29046 -6.29309 -8.18121 -2.95045 1.78088 0.316445
318 0.877763 -6.79378 -7.30103 -0.177858 -0.343883 2.22344
417 2.29586 -6.38901 -8.27232 -0.262359 -0.80341 -1.12608
654 2.70486 -7.32714 -8.38944 1.19916 -2.09823 0.0495393
703 3.24852 -6.79628 -7.71417 0.6655 -2.76041 2.15205
370 3.81673 -7.44338 -8.40678 0.529679 -0.624629 -0.754632
423 4.48848 -6.69159 -8.30504 -0.190816 0.0879136 -1.96643
1772 4.47446 -8.41359 -0.218779 0.27279 -2.73297 -3.03255
89 5.65448 -7.70935 -8.46444 -0.35004 0.345131 0.920489
422 5.26091 -6.09882 -8.41915 0.992627 -1.35847 -0.188689
92 5.44876 -6.75598 -7.77682 2.1238 1.56302 -0.47803
91 6.37832 -6.56273 -8.46251 1.15572 -1.30624 -0.333451
425 6.39626 -6.15046 -7.52811 -1.15627 0.380685 -1.21342
381 7.72961 -7.35493 -8.3646 -1.46637 -0.268552 -1.17124
96 7.17126 -6.77846 -9.12906 -2.95896 -0.979516 1.21206
429 7.01919 -6.95043 -7.83313 -2.40821 -1.53242 1.32522
52 9.20713 -6.2939 -9.10803 -0.557819 2.4567 1.3193
382 9.23315 -6.82403 -8.31521 0.479094 0.724458 -1.13738
883 -2.98787 -9.06555 -3.98976 -0.990983 2.89732 -1.0495
49 8.48158 -7.18625 -9.12109 -1.48569 0.0158589 -0.588057
389 -7.84086 -6.27197 -7.58939 -0.703345 -1.44347 0.303068
104 -8.50186 -6.1702 -8.42312 0.430136 0.744635 -1.32631
437 -8.25993 -5.34022 -7.97145 0.52321 -0.546207 0.183235
4609 -8.8813 -0.697543 -3.4164 -0.840931 0.461217 -1.372
1453 -4.58605 -8.31573 -0.000420518 -1.18156 -1.63761 3.31721
151 -7.52219 -5.76998 -8.55534 1.85169 -0.671837 -1.16413
418 3.30066 -6.34232 -8.63653 2.84589 -3.03084 1.48841
390 -7.29538 -5.19525 -7.70061 0.72513 0.274198 0.0802289
393 -6.59431 -5.9085 -7.9926 -0.0217654 0.9609 -0.484426
155 -5.35214 -4.74918 -8.39023 -0.0295031 -0.751837 0.0544269
441 -6.5514 -5.21358 -8.78493 -0.262312 2.24012 -3.32142
1150 6.0152 -0.0545982 -4.90971 0.0789409 -0.786212 -2.31655
106 -5.75223 -5.83725 -9.23891 1.38676 0.0296027 -1.87015
64 -4.97131 -5.64743 -8.57121 1.34913 2.4807 -0.327691
159 -4.35151 -4.31806 -8.53101 -0.0680272 -0.24321 2.67864
1179 -0.166573 -9.21195 -2.8161 1.17961 1.09088 0.173977
398 -2.94724 -5.5706 -8.75645 1.51474 -0.79193 -0.274344
269 2.7869 -0.145695 -7.70081 -2.72127 -1.38012 0.352692
3233 -3.1997 -6.47713 -9.08261 0.828775 -1.68226 0.137662
119 -1.54131 -4.76737 -8.84499 1.3037 -0.821558 -0.621739
456 -0.425008 -4.76401 -8.99863 1.30094 1.04273 0.909037
124 -0.868468 -5.85982 -8.72568 0.22715 1.15892 1.15781
459 0.618496 -5.64187 -8.07373 1.63957 0.642937 0.180025
161 -4.54029 -3.38888 -9.02056 -0.137175 -0.196298 3.6128
415 1.80823 -5.69269 -7.6731 -1.68583 0.751294 -1.40353
462 1.15005 -5.58355 -8.83745 -1.28782 -2.97271 -0.263467
172 2.31994 -5.60218 -8.85484 0.449535 0.562135 0.0495646
4355 3.7775 -0.239045 -4.41326 0.175607 -2.74281 0.331755
705 2.97263 -5.72032 -7.94972 -0.945715 -2.65999 0.935373
414 1.69169 -4.98011 -8.33285 0.61355 -0.753561 -1.01188
469 3.9489 -6.11201 -7.74726 -0.485364 -1.40833 -1.03088
132 3.51289 -4.97613 -8.54022 3.12503 -0.952825 -1.90658
28 2.72752 -9.05374 -8.96548 -3.02083 1.99795 -0.127539
4548 2.38949 -9.02812 -5.15811 1.10502 0.258202 1.80974
3304 4.51575 -4.54715 -8.85527 2.72208 0.166586 0.595698
183 4.79101 -5.27401 -8.12074 0.182328 4.29569 -1.63193
421 5.81299 -5.17176 -7.80219 2.53665 0.304745 -0.0503281
140 6.09152 -4.46556 -8.38778 -2.03072 -0.488749 -0.380277
144 7.02527 -4.97684 -8.14618 0.6547 3.04012 1.76538
139 6.36797 -5.62897 -8.42495 -1.09619 1.66934 -1.39818
80 0.819087 -6.49147 -9.07146 0.496277 1.80974 -1.75913
430 7.37895 -6.02474 -8.14075 -1.07225 1.69378 1.86984
100 7.8844 -5.19718 -8.3083 0.304237 -1.68429 0.172823
97 9.14107 -5.34276 -9.14435 0.0802568 3.25575 0.831794
4938 6.02508 -0.308168 -1.86867 -0.103222 -0.434834 1.75039
195 -7.81851 -2.86178 -7.96571 -0.349932 -2.70329 3.04031
149 -8.12166 -4.36706 -9.0619 -0.629564 0.444825 -1.63395
197 -8.32778 -3.44656 -8.93139 -1.52219 -0.706082 0.369412
434 -8.5229 -3.55911 -7.99563 1.20349 1.30425 -3.93835
193 9.16349 -3.44163 -8.68315 -1.43828 0.851825 5.4885
150 -7.26997 -3.5879 -8.29982 -1.11654 0.136169 2.24214
152 -7.3566 -4.82376 -8.75416 0.478755 -1.037 -2.28623
440 -7.87823 -4.37124 -8.08416 2.07305 0.967397 -0.258634
487 -7.09204 -3.09412 -7.34136 -0.400333 1.49266 -0.560079
199 -6.29364 -3.30587 -8.71169 0.609212 -0.245535 0.0256584
438 -6.39614 -4.30584 -8.36051 3.67356 0.0772984 -0.714354
1987 -1.52155 -1.84755 -0.0696161 -1.60508 0.155708 -0.673013
162 -3.39881 -3.54833 -9.09543 -0.326662 -0.803887 -3.67558
4070 5.22979 -0.190283 -4.27795 -0.108447 -2.06589 0.182379
157 -5.271 -3.32585 -8.32156 1.02215 1.34503 0.474471
4616 -7.57167 -0.0974126 -1.88367 -0.00199957 -1.10339 -1.73844
449 -3.39212 -4.43112 -8.70375 0.972019 1.46997 -0.114851
497 -2.4374 -3.60303 -8.76448 1.1829 0.146126 0.607679
4935 5.55034 -0.355851 -0.449622 -0.835706 0.931268 -0.381196
4699 6.62347 -0.0375161 -2.54002 1.38657 -1.64199 0.900937
211 -1.22356 -3.49386 -8.02715 2.54894 1.54671 -1.24603
403 -1.90553 -4.28083 -8.06509 2.57618 0.876927 0.503543
216 -1.30978 -3.60053 -8.99384 -3.30018 -2.46231 1.56838
412 0.46727 -4.49134 -8.60446 1.06316 1.48179 -0.175633
457 -0.530158 -4.05209 -8.31892 -2.73455 0.31447 -0.59512
39 3.39103 -9.12109 -8.25655 -1.70653 0.593045 3.278
4586 1.69053 -8.89962 -3.39063 1.04487 -2.99914 1.10968
176 1.00603 -4.13047 -7.89019 1.11277 2.52058 -0.53032
219 1.81068 -3.01236 -8.64447 -0.551979 -0.68936 2.1691
1679 8.69405 -2.12674 -0.126178 -0.0251291 -0.871056 2.26506
175 2.62936 -4.70066 -8.02699 -3.44536 -1.44902 1.00396
228 2.50871 -3.57641 -7.89158 -1.68701 1.45758 0.216691
559 1.98112 -3.99081 -8.56099 -1.65953 1.21902 0.00739062
227 2.88941 -3.28655 -8.70771 -0.539171 -0.754825 -0.284813
581 -7.80103 -9.03336 -5.07526 0.264098 2.93873 0.571444
179 3.65856 -3.80729 -8.36117 -1.22251 -1.3725 -1.37958
181 4.97624 -3.6386 -8.44456 1.25233 -3.38941 1.34513
184 5.1612 -4.41332 -7.82813 0.591947 0.299164 -3.07842
187 5.85236 -3.54993 -8.80243 -1.09357 -0.250563 -1.075
1175 -1.87685 -9.14902 -3.40113 -1.0192 0.359027 -0.951346
233 6.81942 -3.35392 -8.58031 3.15298 0.248297 1.7996
192 6.99398 -4.07243 -7.94645 1.55891 -1.56141 -0.811174
477 5.88891 -3.81281 -7.5746 -1.49295 -1.22812 1.9981
239 7.83247 -3.55133 -8.54498 0.298848 0.308546 -1.09089
191 7.28618 -4.48341 -8.9351 -1.31652 -0.828253 -2.73582
146 -8.89394 -4.45103 -8.36402 1.37989 0.474027 -0.0435213
148 8.54727 -4.3202 -8.5875 1.07985 0.551784 -0.987897
4937 6.60259 -1.29642 -1.07864 1.65462 2.32793 -0.78045
243 -8.7801 -2.52789 -8.35355 1.12429 1.38584 -1.23691
248 -8.92803 -1.49152 -7.50382 -1.39971 -0.52701 1.44057
200 -6.885 -2.69734 -8.1587 2.20825 -2.4962 0.702928
204 -6.40949 -1.81762 -7.83889 0.780697 0.94549 -1.71403
198 -6.62959 -2.31072 -9.04055 -1.49147 1.23787 0.918185
245 -7.92158 -2.24467 -8.83268 0.521159 -1.13119 -0.829967
203 -5.6119 -2.66296 -9.02028 2.00587 -1.42042 -2.08389
202 -5.74068 -1.66008 -8.62397 0.282132 -0.420529 0.139994
493 -4.13397 -3.14068 -8.14412 1.48751 -1.17429 2.71864
3375 -2.63787 -2.39729 -8.85239 -0.811971 -2.0026 -1.16107
208 -4.77492 -2.47997 -8.49865 1.30982 -0.955055 -0.783004
546 -3.94619 -1.93322 -8.09358 -0.810133 0.553735 0.869252
545 -2.12157 -2.91619 -8.10909 1.57153 -0.935112 -0.157335
210 -2.92249 -1.92929 -7.97765 -1.34019 -2.20175 1.62246
543 -3.13686 -2.99571 -8.24228 -1.02448 1.47456 0.744726
4601 5.54396 -9.19263 -4.09014 -0.70278 -1.28169 0.587814
498 -1.22664 -2.68149 -8.55261 0.713047 1.55621 0.425487
547 -0.378655 -3.15436 -8.44685 -0.502215 1.28533 0.0647439
261 -0.641414 -2.15228 -9.04149 0.969237 -0.615627 -1.01768
263 -0.519331 -2.04872 -7.67824 1.61295 1.39448 -0.334538
1708 0.573483 -0.166639 -0.660065 -0.455929 -1.17349 -1.12838
218 0.213154 -2.2023 -8.43993 1.36368 -0.341093 0.139066
454 0.702968 -3.31892 -8.6879 -1.72139 1.74049 -0.124384
221 1.95891 -1.74147 -8.66893 2.50252 0.331171 -2.97283
502 1.23996 -2.27384 -8.24826 -0.752007 1.61696 0.591857
3434 1.86933 -1.58797 -7.72092 0.543379 -2.22764 1.37604
466 3.11477 -3.26044 -7.19222 -1.44037 -1.77186 0.277056
223 3.3192 -2.7898 -7.95059 -3.12948 1.01779 1.0476
557 2.25908 -2.67501 -7.82672 1.07898 1.92985 0.230144
277 3.83196 -1.82582 -7.96846 -3.82627 0.379202 0.0566945
178 4.23173 -2.9453 -8.01698 1.71663 1.03205 -1.0718
232 5.15507 -2.08467 -8.54161 1.78144 1.56471 -0.77791
514 4.0438 -2.16378 -7.12035 -0.0769017 1.0633 0.470466
231 6.3752 -3.03686 -7.67367 1.05563 -0.106595 0.282428
518 5.36215 -2.81707 -7.90381 -0.843867 -0.823075 -0.0825179
236 6.21335 -2.4387 -8.60489 2.67907 -0.482286 2.84449
281 5.9677 -1.4284 -8.86824 -0.643607 -1.03841 -0.153337
235 7.46839 -2.56332 -8.47404 1.18134 -2.28354 -0.134592
283 6.55864 -1.25468 -8.16696 -0.570011 -0.593622 -1.37404
196 8.52199 -2.98905 -8.19633 -0.653796 -0.772046 -0.329445
287 8.34571 -1.94046 -9.03268 0.125786 -0.262044 1.27386
288 7.62915 -1.53736 -8.29025 1.44051 -0.602841 0.173917
526 7.95603 -2.4301 -7.61021 -1.54584 -0.548633 2.25133
298 -5.31305 -8.47245 -9.0421 -1.09714 -1.88363 2.87921
3457 -8.18553 -0.589989 -8.43605 1.83404 -0.37465 0.979045
3459 -7.94169 -1.08655 -7.56811 0.855055 0.540774 -2.26231
242 -8.59271 -1.62226 -8.31813 1.19515 -0.514694 -0.555645
247 -7.202 -1.69922 -8.50465 -1.18638 3.03452 -0.500099
3416 -7.51102 -0.82857 -9.02342 -0.660115 -0.267558 -0.503134
133 4.73845 -7.74827 -8.80762 2.61162 1.3729 -2.71391
3746 -6.7249 -0.221316 -8.75743 1.26263 -3.21215 -1.92805
3515 -7.07721 -0.863268 -8.00451 -0.953933 -0.409817 -0.261256
252 -5.96486 -0.771837 -7.9198 -1.37025 0.595799 2.2622
1715 3.45679 -3.48511 -0.0272534 2.29271 -1.84309 -0.294759
3328 -4.90503 -1.64159 -8.07223 -2.66952 0.524774 -0.859736
3753 -5.26249 -0.777698 -8.54423 -1.5859 0.68695 -1.65816
253 -4.39361 -0.743281 -8.80786 -0.571268 -1.30973 1.51347
254 -4.50044 -0.738276 -7.73519 1.93984 1.4197 -0.99685
3177 -6.69216 -7.94322 -8.98107 1.68481 0.0103388 1.31246
4879 1.57452 -9.19016 -2.41727 -0.422244 -1.99436 0.0835447
257 -3.62903 -1.03763 -8.07851 -0.542912 -0.0777497 -0.40863
3423 -3.24798 -0.478799 -8.98148 -2.13917 0.473722 -0.629889
1594 -4.71573 -4.14176 -0.305259 0.211103 1.8966 -0.705555
3813 -1.66983 -0.534843 -8.46827 -0.0453188 -0.824951 -0.223946
3474 -2.61681 -1.00321 -8.50691 -0.964313 1.62217 -1.34537
4930 4.5617 -0.808273 -0.345341 -0.930587 -1.37257 1.6151
3767 -0.965365 -1.14988 -8.11419 0.325068 -0.12428 -1.60985
268 -0.220863 -1.10568 -8.99544 -2.79104 -2.26793 1.6987
402 -2.50478 -4.61001 -8.99511 -1.22644 0.569818 1.89403
3481 0.709102 -0.579151 -7.59257 1.36734 1.60765 -0.145263
4058 1.55756 -0.592123 -8.31874 -1.59672 0.387406 0.324455
265 0.896021 -1.45032 -8.44929 -0.331446 1.45345 -2.1359
2002 4.82359 -2.00312 -0.395018 -0.264842 -0.015365 -0.525688
464 2.81477 -1.85937 -8.03275 -0.698141 -2.3064 0.0912125
6651 2.53597 -0.999778 -8.32954 1.17949 -1.55807 2.97145
3440 3.23497 -1.4893 -8.91162 0.924879 -2.49569 -0.459437
2012 6.82985 -0.164497 -0.042438 -1.26524 2.64608 0.0886208
5430 -7.6757 -9.16609 -0.42518 -0.790847 -0.269423 1.2574
280 4.40992 -1.47264 -8.68763 -1.78778 1.25124 -3.41747
1911 5.03075 -5.86785 -0.237571 0.595858 1.38176 -0.733566
3443 4.92545 -1.9957 -7.63491 -2.82733 1.57962 0.120698
563 4.37382 -1.0814 -7.74693 2.05004 0.0694355 1.23274
274 3.54279 -0.734388 -8.44112 -0.483631 3.27994 -0.510417
3497 6.30866 -0.42836 -8.72279 0.672004 1.9186 -4.05594
284 5.31608 -1.16581 -8.11438 0.966441 -4.6714 -2.64577
282 6.0859 -0.583052 -7.55742 1.07885 2.15555 -0.188115
534 -6.60748 -1.30264 -9.07116 0.145771 -0.455529 0.561281
3789 7.40635 -0.7443 -8.87918 4.65576 -0.806269 0.907786
3704 -8.33578 -8.83725 -8.3039 0.858059 0.36657 -1.78614
530 8.98886 -0.814725 -8.01636 -0.906213 -0.444533 -0.400283
244 8.78275 -1.89086 -8.12089 -0.866666 -1.71649 -2.52776
3503 8.28001 -0.99197 -8.7163 -0.435128 2.00097 0.767228
574 8.27198 -1.08677 -7.46788 0.554696 1.21018 2.81846
341 -9.03751 -8.69667 -6.72805 0.518732 1.29802 0.125044
293 -8.15087 -8.7731 -7.12242 1.38537 1.91703 0.90252
1949 1.6146 -3.59437 -0.0310816 0.341818 -1.31818 1.01123
294 -7.41386 -8.53454 -7.72767 1.19592 0.160494 -0.738267
1540 -8.69952 -6.14097 -0.0943182 -0.0777336 1.72525 -0.765695
296 -7.8239 -7.94965 -6.484 0.641903 0.282948 0.615015
343 -6.69781 -7.66576 -7.00352 0.132387 -2.45245 1.43843
300 -6.99137 -8.70093 -6.74896 0.884527 -1.74948 0.224445
4057 -0.106717 -0.237564 -5.85415 -0.325768 3.93806 0.222235
633 -5.74799 -7.64592 -7.37462 1.42167 -2.57825 -1.13879
347 -4.72108 -7.68003 -6.88624 -1.62033 -1.71855 1.86978
637 -5.39127 -8.48014 -6.8887 2.09402 1.5158 0.0915829
3786 6.83406 -0.119441 -8.01441 2.31739 -1.60809 0.586509
349 -3.78621 -8.05212 -6.60283 2.31556 -0.979023 0.999997
299 -4.41251 -8.81873 -6.74531 2.06953 -1.52124 -0.16589
301 -3.4966 -9.09265 -6.91481 -0.316502 1.36424 0.550988
311 -3.30049 -7.56152 -7.4963 1.16892 -0.489566 -0.983201
20 -2.87446 -8.42624 -7.63373 0.553024 -3.0253 1.13168
307 -2.62793 -8.81921 -6.63165 0.134414 -0.414513 -0.349527
353 -2.78532 -7.8372 -6.75172 1.75693 -0.309456 -2.41351
305 -1.90153 -8.13873 -6.67889 1.00536 -2.40872 -0.0825147
357 -1.238 -7.52558 -7.50358 -0.553405 -1.0989 0.440608
645 -0.933199 -8.12436 -6.73745 1.27281 2.57212 -1.55751
1458 -3.01558 -9.15759 -1.08786 -1.13481 0.133534 1.35544
359 -0.184446 -7.67437 -7.2078 -1.26334 0.628785 -0.259605
890 -0.124484 -8.74968 -6.7493 -0.396678 4.29157 1.15892
646 -0.0216162 -7.69968 -6.01593 -3.38412 0.641167 0.69983
649 0.764135 -8.70998 -7.20238 -0.123756 -0.301117 -1.81745
321 1.5203 -8.09822 -7.12886 1.70978 -0.112821 -2.72125
601 0.964526 -8.62407 -6.26243 -0.950684 -0.0860167 -1.49688
315 2.12234 -8.8571 -6.71165 1.62951 -2.83741 -0.36321
324 3.05462 -8.46504 -6.03289 2.13003 -1.18949 -1.44248
659 3.34185 -7.46558 -5.96049 0.335973 0.0971116 2.57191
33 3.21882 -8.42439 -6.99258 1.59256 2.49842 0.945573
1765 3.80729 -7.73836 -0.660629 1.2846 -0.886574 0.127564
322 4.0192 -7.97135 -7.31145 1.16043 -1.76364 0.540225
328 5.00775 -8.3567 -7.34293 2.56571 -1.08127 2.62023
375 4.91534 -8.45634 -6.40177 1.90701 1.30773 -1.87654
327 4.16083 -9.16793 -7.40103 1.56677 -1.24928 -0.0053004
329 5.32043 -9.18873 -7.00338 -1.2753 -1.25268 -1.65567
378 5.23599 -7.50625 -6.90579 0.673971 0.233775 -0.166637
1727 8.36109 -0.450415 -1.06269 0.553824 0.834636 0.272024
4351 2.99506 -1.03154 -3.19485 0.97839 -1.63787 -0.872501
333 6.26545 -8.71047 -7.28738 -3.73835 -0.857042 -1.12707
336 6.91249 -7.73955 -7.31351 -1.00536 1.66935 4.24121
335 7.60091 -8.2115 -6.97821 2.90305 1.22793 0.10718
905 6.90652 -8.68111 -6.46997 -1.4623 -1.47479 0.302494
289 8.02175 -9.04444 -7.53933 0.777143 -2.37266 1.61024
290 8.5634 -8.13086 -6.82044 -0.1855 0.523545 -0.258305
383 8.09123 -7.91867 -7.71722 2.22834 1.33802 -2.37775
88 3.91487 -8.27643 -8.97086 1.38403 -1.91522 0.0425384
338 -8.78113 -7.68064 -7.24435 -0.285246 -0.701669 2.44916
387 -8.86016 -6.42842 -7.56763 -0.725996 -0.0929286 -0.387085
339 -8.10701 -6.97561 -6.85162 1.94649 0.633229 1.94276
625 9.091 -7.17209 -6.4843 1.85706 0.187321 -0.196091
626 -8.51086 -6.64742 -6.07879 1.08996 1.7029 1.58151
391 -6.3332 -6.7814 -6.6893 1.01638 0.564462 -2.7878
632 -7.38197 -6.90504 -6.18 -0.29069 -0.75663 0.940474
395 -5.30177 -6.25318 -6.74683 -2.42166 1.8853 0.653583
400 -4.78953 -5.69291 -6.1248 -2.90868 1.47482 1.79086
634 -4.17758 -7.14763 -7.44855 0.797186 -2.03867 1.80265
304 -4.6883 -6.89458 -6.32993 1.62952 1.5747 -1.44892
685 -4.24129 -5.31807 -6.8684 1.33438 -2.7759 -0.887233
687 -4.1624 -6.22839 -6.90182 4.28739 0.240568 0.918772
401 -3.55285 -6.68448 -8.02701 2.4 3.08036 0.78627
356 -3.59489 -6.81241 -6.61116 -2.92863 -0.586869 -2.0026
351 -2.70051 -6.86491 -7.13907 0.883965 -1.70276 -1.49508
447 -2.85802 -7.10066 -6.12949 -1.71052 1.15475 0.220446
641 -1.86795 -7.18154 -6.72696 -1.6528 -1.44044 -1.78053
360 -2.1915 -6.14764 -6.84469 -0.558142 -0.114989 1.3143
355 -1.33996 -6.33651 -6.24607 -1.61813 -4.89381 1.48453
699 -0.965133 -6.69772 -7.06448 1.07477 -1.26397 -1.5388
76 0.0481111 -6.80249 -7.73984 0.869242 -0.31844 1.3131
310 -0.769729 -7.33365 -6.33728 -1.02824 -0.971726 -0.454432
362 -0.281947 -5.9266 -7.60426 -3.36777 -2.69437 -2.39692
653 -0.0125361 -6.83848 -6.5876 1.36663 2.1 -1.28328
364 -0.334201 -6.28947 -5.78885 -0.627565 0.570174 3.97513
319 0.729627 -7.48132 -6.63307 0.418903 -1.50502 -0.179296
944 1.68473 -7.0341 -6.8046 -1.12984 0.30177 -1.21079
657 2.32126 -7.7457 -6.55698 -1.33009 0.185884 3.69486
371 3.31989 -7.17596 -6.87355 -0.210462 0.160391 -1.50161
655 2.38607 -6.6754 -7.30834 -1.95395 1.00823 -1.00664
658 2.92416 -6.43594 -6.10919 -1.65369 0.113911 3.30874
989 1.86671 -6.20832 -6.04982 0.862511 2.42933 0.335049
332 4.84876 -7.56319 -7.86268 -1.93962 -1.52933 -1.91628
374 4.34648 -6.9623 -7.19611 1.14721 0.485412 1.28942
661 4.39577 -7.47165 -6.34701 -2.46007 0.352639 -1.7989
710 3.86371 -6.55156 -6.39476 3.02323 -0.0580579 -3.53977
380 5.28247 -6.56933 -6.57539 1.86383 0.549425 0.0756369
759 5.72622 -5.98906 -5.6836 -2.14316 -0.0569331 0.0487296
665 6.03852 -7.0408 -7.09293 -0.353458 -1.98054 1.48601
384 7.94636 -6.77404 -7.49698 1.66671 -0.304764 -2.54764
714 7.12929 -5.63436 -7.27836 0.299581 0.851097 2.00227
431 8.25353 -6.26939 -8.45468 0.423423 0.0527465 0.387192
340 8.84777 -7.30695 -7.46974 1.97825 -2.16461 -2.19152
386 -9.01743 -5.3872 -7.36741 0.21873 -0.933073 -2.23023
674 -7.93219 -6.0187 -6.60037 -0.887551 1.36272 2.55267
721 8.96461 -5.03458 -6.42469 1.13436 0.00910834 1.09409
677 -7.05096 -5.99938 -7.10131 3.09927 1.06288 -0.00931143
392 -8.06004 -5.05065 -7.0392 2.57813 -1.8544 -2.73172
678 -7.14235 -4.88743 -6.67625 -2.14818 -0.392108 -0.0657478
675 -7.89338 -5.27515 -5.95964 0.272232 2.20404 2.65003
681 -6.14204 -5.84447 -7.14815 1.07396 -2.58601 0.609664
396 -6.25522 -5.05069 -7.7257 -1.43681 1.09384 0.272159
443 -5.31014 -5.24753 -6.97214 -1.25577 -0.805447 -0.814199
729 -6.06366 -4.61771 -6.90597 0.520854 -3.43383 -0.264319
397 -4.60641 -4.97914 -7.71206 -1.52677 0.752752 0.285237
394 -5.52508 -5.85233 -7.78959 1.8194 1.81109 0.925935
399 -3.5636 -5.14565 -8.054 -1.20345 -0.30793 0.626043
448 -3.40406 -4.94293 -7.08735 2.91988 -1.01499 0.204722
642 -3.21813 -5.88694 -7.20417 -1.14454 0.965864 -0.323997
404 -2.64607 -6.28978 -8.18981 3.13082 -1.79889 1.4483
734 -2.60314 -5.17049 -6.73779 0.761579 1.30055 -1.6138
405 -2.38098 -5.54258 -7.66329 0.0206847 0.711341 -0.0840998
407 -1.48259 -5.80356 -7.62899 -4.76702 1.16547 -0.0251188
693 -1.50552 -5.40071 -6.74782 2.27213 1.468 -1.41525
408 -1.12112 -4.93721 -8.00624 2.83395 3.58961 -1.15123
938 0.379063 -5.59267 -6.01145 -0.271551 0.659831 -2.07157
941 -0.130941 -5.10606 -8.05741 0.758465 -0.710501 -1.1743
748 -0.642557 -5.07309 -7.1417 -2.16805 5.64851 -0.802321
697 -0.568608 -5.84204 -6.60829 -1.94389 0.0916489 0.0191434
411 0.565704 -5.85321 -7.0833 1.54376 1.81808 -0.320837
651 1.3605 -5.88079 -6.71295 -0.275026 -0.119093 0.535104
416 1.04376 -5.05134 -7.4206 -1.49786 -0.164481 0.187203
993 1.18842 -5.08872 -6.00646 -0.0152407 -0.0776804 -1.77861
372 3.34681 -6.02303 -6.99301 -0.819495 1.85425 1.33507
463 2.44524 -5.84247 -6.81199 0.973595 -2.55369 0.678635
465 3.00469 -5.43692 -6.12711 3.80866 3.91159 -1.57096
513 2.75606 -5.0789 -7.1332 0.258755 0.885838 1.57225
707 4.03521 -5.58151 -6.48307 0.504155 0.627679 0.658071
420 4.93877 -6.01445 -7.4295 1.72967 -3.60795 -0.0379811
467 5.04332 -5.34693 -6.24466 -2.17001 0.0857421 0.895458
468 3.66196 -5.23278 -7.47696 0.447771 0.26474 0.928012
713 4.66661 -6.11631 -5.81668 0.152163 -0.556903 1.57991
373 5.70703 -5.57625 -6.95536 1.98051 1.6136 1.22751
428 5.58158 -4.64186 -6.87191 0.873703 -1.98277 -1.17709
419 5.93867 -5.08014 -5.968 -0.777603 -0.904915 -0.385415
426 6.4467 -4.55804 -7.38096 -1.46384 1.68409 0.407171
432 7.72509 -4.86157 -7.23171 3.23017 -0.612575 -0.953497
471 6.95936 -5.00861 -6.46092 -0.541913 -0.933205 1.28487
670 8.24581 -5.83393 -7.56906 1.07879 -1.25375 1.21311
673 -8.94204 -6.05305 -6.67034 3.38951 0.427475 -2.05675
388 8.66236 -4.83367 -7.79881 2.46396 0.941242 -0.393461
479 8.15331 -5.56626 -6.61964 -1.80551 -3.96546 -3.1096
435 -8.77302 -4.40702 -7.32375 -1.9896 1.4828 -2.48384
725 -8.73254 -4.64821 -6.35801 -3.44972 0.585234 -2.27419
722 -9.11441 -3.53726 -6.56445 -2.25235 2.51939 -1.71413
771 -8.01737 -3.7536 -7.08965 -1.32629 2.32965 0.00711493
439 -7.14299 -4.20947 -7.50038 -0.99372 1.01727 1.92386
773 -7.9057 -2.75204 -6.79765 -0.43705 -3.05954 2.04005
775 -6.48388 -3.65292 -6.88947 0.731407 1.78907 2.09504
444 -7.82347 -4.18384 -6.23959 0.420347 1.39369 2.15913
112 -5.64235 -4.18341 -7.73272 2.05638 -4.58461 0.101472
442 -6.21696 -3.34696 -7.79471 -2.52199 -1.29188 1.07058
730 -5.61437 -3.85321 -6.22708 -0.866926 -0.13673 0.538435
494 -4.73521 -3.86146 -7.73264 -1.71866 0.956487 1.08231
160 -4.32071 -3.28834 -7.0172 2.73555 -1.38934 -1.22513
491 -5.49332 -3.32688 -7.07363 0.467499 -2.17434 -1.38758
445 -4.93719 -4.31964 -6.97667 -1.44677 0.861909 0.918757
207 -2.7631 -3.5608 -7.54682 0.199513 2.51724 1.69303
690 -2.73733 -4.62348 -7.7617 -2.20999 2.15849 -1.0577
451 -2.71709 -4.08639 -6.76436 0.220857 -0.173379 0.587662
446 -3.66791 -4.1229 -7.80611 0.476049 0.123659 1.8674
168 -1.03033 -4.15201 -7.2641 -0.854258 1.3922 -1.38046
501 -1.8658 -3.42871 -7.17086 -2.89306 -2.58521 -1.12154
504 -1.18707 -3.19591 -6.53908 -2.00534 2.01373 1.57365
742 -1.85798 -4.54666 -6.84112 -2.54401 2.12571 -0.789786
698 0.225988 -4.48032 -7.3543 0.492995 2.46569 2.36193
745 -0.267729 -3.8746 -6.70054 0.72631 2.43223 0.583549
503 -0.385788 -3.05976 -6.09715 0.330244 -1.73699 -3.2144
220 -0.460411 -2.95754 -7.24004 -2.26002 1.4136 0.123138
508 0.332418 -3.36473 -7.65638 -0.641898 1.02202 -0.158284
794 1.10444 -4.27818 -6.665 -1.97496 -0.581666 -0.295412
791 0.438485 -3.27823 -6.51534 0.00858302 -0.0710555 0.976396
505 1.24914 -3.19677 -7.87913 -3.42462 0.0310168 0.247803
750 0.78968 -4.19392 -5.67367 -0.169851 -0.226866 1.87321
510 1.77305 -4.33643 -7.40585 -2.55945 -3.5141 0.850725
511 1.80372 -5.0289 -6.70772 -0.252931 1.38422 1.3625
516 2.28407 -3.73217 -6.91774 1.21584 -1.55725 1.32025
515 3.31602 -4.29208 -7.49269 -0.10951 -0.108202 -0.784632
801 3.53436 -3.64922 -6.37432 -1.30098 -0.576946 0.611307
755 2.78001 -4.40322 -6.45507 -0.251409 0.316373 -0.970003
517 4.00736 -3.59131 -7.38281 -1.55679 -1.30288 -0.895714
472 4.19145 -4.56016 -7.89661 -2.73154 1.06525 0.800446
754 4.6812 -4.1011 -6.78765 -1.42112 1.07635 1.78601
470 4.55434 -3.03031 -6.44729 -1.65951 1.79805 -2.6577
519 3.58986 -2.6752 -6.41481 -5.21586 -1.95815 3.29971
473 4.95065 -3.58212 -7.51586 1.24946 1.31967 -2.65804
757 4.77511 -5.04945 -7.18873 0.260355 0.573963 1.92466
476 5.37995 -3.54218 -6.2293 0.131225 -0.753034 1.10019
474 6.49528 -3.34316 -6.76626 -0.346223 1.05768 0.617624
525 7.33957 -3.26917 -7.46158 1.98201 -1.17474 0.418097
475 6.26636 -4.30523 -6.39725 2.13981 3.66121 1.16136
480 7.20104 -4.06163 -6.83768 2.9196 0.740492 1.56814
527 7.42949 -2.67925 -6.59955 2.26964 -1.50544 -0.228083
433 8.95292 -3.80189 -7.79021 0.888942 -1.00949 -1.00036
481 8.38358 -3.28439 -7.12135 -0.965828 -1.57914 3.52198
478 7.98364 -4.02874 -7.64381 1.62563 -0.539645 -2.92123
436 8.70512 -4.23555 -6.97226 -1.33363 -0.34816 0.011014
724 8.88345 -4.28526 -5.74647 2.394 1.60479 -2.179
483 -7.88949 -1.84778 -6.64583 -0.568887 0.716969 -4.07863
482 -9.14776 -2.91799 -7.57965 1.49148 -1.68699 0.824639
531 -9.14302 -1.55486 -6.6281 1.19712 -2.66566 1.76051
533 -8.49309 -2.33692 -7.49719 0.496989 -0.52016 1.03568
769 -8.96049 -2.50859 -6.70975 -0.764435 -1.28184 2.2398
485 -7.53353 -2.0137 -7.69259 -0.70194 -1.42461 -0.925697
535 -7.3699 -1.50053 -5.92313 -2.76041 1.15659 -0.125217
486 -6.45604 -1.6334 -6.90121 -0.0611665 -1.39324 2.00237
488 -6.88171 -2.42655 -6.40275 -0.834172 -0.174002 0.728899
489 -5.63545 -2.44758 -8.00934 -1.05238 -1.13933 -1.09513
774 -5.80878 -1.52018 -6.20626 1.41001 1.41588 -0.134041
777 -6.21626 -2.6679 -7.18599 -3.13911 0.468855 -0.561109
251 -4.79168 -2.6276 -7.47469 1.62687 -1.58315 0.906083
829 -5.36622 -2.33237 -6.60595 -3.62311 3.05479 -0.834231
490 -3.66199 -2.66063 -7.49549 0.587367 0.708766 -0.878335
833 -3.40956 -1.58916 -7.23125 0.567235 -1.61621 -0.794216
256 -4.48231 -1.75235 -7.06955 -1.46652 -1.38254 -0.569696
496 -4.01477 -2.3238 -6.42943 0.567509 0.621194 -0.0250434
500 -3.31078 -3.20952 -6.72594 -1.07135 -0.732025 -0.0489534
741 -2.42119 -3.06861 -6.27544 -0.705715 -2.60691 -1.09495
452 -2.39893 -2.58088 -7.26129 -1.47567 0.30528 -1.8771
834 -3.08611 -2.28782 -6.68844 2.74103 -0.870127 -0.477526
499 -1.69292 -2.02804 -6.62734 -1.7597 0.954318 0.166107
552 -1.35032 -2.6616 -7.48703 1.64852 0.925369 1.01567
264 -1.90361 -1.9136 -7.76533 0.68897 -1.13956 -1.10176
549 -0.524932 -2.12271 -6.69544 -0.985315 2.7006 -0.117591
553 0.317067 -2.39521 -7.11111 1.83678 0.969761 -1.3911
555 0.532444 -1.54724 -6.58252 3.19411 0.83306 1.20095
3431 0.829797 -1.67823 -7.49102 -0.751747 -0.702062 0.172591
797 1.54874 -2.45431 -7.22836 -1.07587 -0.646772 -2.43516
845 2.0154 -1.74145 -6.34164 -0.978687 -1.29435 -3.36441
506 1.07792 -2.503 -6.43665 2.53325 2.20397 -1.3435
746 1.44029 -3.31892 -6.92705 -1.71992 3.55437 0.97169
561 2.37491 -2.64569 -6.83575 0.203764 -1.49149 -1.35123
554 2.61347 -1.17656 -6.90129 0.0383034 -1.19998 -1.79078
267 2.56711 -2.11984 -5.62255 1.97738 0.904983 0.914459
802 3.08282 -2.05568 -7.17424 1.07352 -1.06572 -0.0607862