ITEM: TIMESTEP
163000
ITEM: NUMBER OF ATOMS
6912
ITEM: BOX BOUNDS pp pp pp
-9.2265715179435492e+00 9.2265715179435492e+00
-9.2265715179435492e+00 9.2265715179435492e+00
-9.2265715179435492e+00 9.2265715179435492e+00
ITEM: ATOMS id x y z vx vy vz
209 -2.97675 -3.11419 -9.071 -0.767255 -1.71483 -3.40052
290 -8.36601 -8.50477 -7.69384 0.890319 1.1714 0.0944195
329 6.06905 -9.2002 -7.59925 0.915969 1.1323 -0.37557
8 -7.60525 -8.27409 -8.46939 1.34067 -1.15372 0.80664
341 -7.74569 -7.60079 -7.75252 1.15837 -0.0688528 -1.56154
4633 0.292603 -0.349292 -3.48584 -4.12096 -0.15133 0.880148
1565 1.15203 -5.38924 -0.140958 -0.693532 -0.932647 -2.27355
12 -6.1532 -8.33141 -8.43211 -1.59664 0.534261 -1.49162
74 0.730446 -6.8924 -9.08149 0.129131 0.152109 1.45388
16 -4.52285 -8.51556 -8.71099 -1.44254 0.367319 -1.83918
122 0.811053 -5.31609 -9.09883 0.926313 -0.524348 -2.43583
20 -2.93381 -8.27018 -8.5405 2.65171 4.30059 2.20074
19 -2.28511 -8.93718 -8.65676 -0.574215 -0.805788 -1.13081
67 -2.26649 -7.48196 -8.53987 -0.182141 0.492206 -0.209865
4335 -3.33889 -0.0148098 -4.56232 1.84362 -2.80106 -0.813901
24 -1.44163 -8.65159 -8.17213 0.990551 0.833521 0.02142
5253 -0.986624 -0.0644873 -0.29192 -1.16121 0.122596 1.07797
1632 8.45458 -3.85556 -0.0877491 -2.10358 -4.64677 -0.290252
26 -0.418048 -8.69639 -8.25913 2.43496 -0.500955 0.935642
367 1.83347 -8.73605 -8.74367 3.65108 -0.304531 2.72328
28 0.891601 -8.59769 -7.7255 0.74528 2.68145 -0.0486903
365 1.75276 -7.70537 -7.67244 -2.22929 0.25945 -1.32707
36 3.13452 -8.39012 -8.64789 2.26827 1.89901 -2.82821
242 -8.55041 -0.725407 -9.1031 -1.15153 0.843558 2.05472
79 2.13822 -7.73951 -8.61095 4.86116 -4.13469 2.01993
3791 8.48895 -0.0417217 -7.02704 -1.14696 -0.870377 0.63483
40 4.63434 -8.61083 -8.53063 0.751173 1.08416 0.724218
1801 0.801878 -7.97677 -0.328039 1.05014 0.167172 0.264728
83 4.12996 -7.61398 -8.58809 1.13106 0.854524 -0.181736
322 3.8996 -8.79613 -7.68668 0.864506 -3.17915 3.31534
374 4.44765 -7.85457 -7.6504 -0.166763 -2.91279 -0.628849
44 6.34344 -8.4694 -8.58262 -2.18218 -0.37639 1.70423
865 -9.04842 -9.11021 -4.74764 -0.66678 0.38249 -2.1427
137 6.15356 -6.16305 -8.9634 1.06024 -1.70046 -1.05428
48 7.64762 -8.31563 -8.49923 -2.13236 1.21287 -3.22909
330 6.88384 -8.36942 -7.71121 0.744798 0.630151 3.40655
3753 -6.17681 -0.176605 -7.68607 -0.42066 0.333996 -0.743794
281 6.34266 -1.86598 -9.06135 0.400682 0.702601 1.45149
4 -9.21133 -8.3082 -8.26039 -1.22389 0.908092 -0.191961
95 8.41883 -7.66952 -8.5668 0.548169 2.77365 -1.82196
4363 7.66379 -0.0156112 -4.65303 -3.16234 0.595563 1.46466
3461 -7.59209 -0.0860911 -9.10832 0.747687 -0.314182 1.66081
51 -8.40234 -7.59602 -8.45144 -0.0562354 0.258795 -1.21944
50 -8.48385 -6.9453 -9.20972 0.208077 2.57656 0.962377
55 -6.90931 -7.50691 -8.37982 -3.84296 2.34981 -1.77148
56 -7.58196 -6.78705 -8.57379 -0.304093 1.33196 -0.621379
60 -6.14348 -6.7011 -8.47647 -0.684842 -0.482134 1.44789
4584 -2.57687 -9.07257 -3.62605 0.827429 0.425425 -0.189872
2 -8.64821 -8.26734 -9.14125 -0.215985 -1.3182 0.306408
59 -5.56656 -7.52788 -8.56619 2.37797 3.04008 -0.00719971
346 -5.6242 -6.95152 -7.75289 0.772832 0.00504756 0.288758
107 -5.45583 -5.97222 -8.51035 1.08722 0.926063 -0.779921
1473 3.91885 -8.98017 -0.64147 -2.30656 -1.80035 1.9503
63 -3.96375 -7.41128 -8.58682 -0.743774 -0.868727 -2.31807
349 -4.57542 -7.555 -7.87297 -1.85156 0.919859 0.9926
350 -4.83363 -6.73065 -8.54099 3.20916 -2.10257 0.575404
352 -3.89361 -6.86915 -7.8029 0.614938 0.314052 -1.12119
111 -4.11009 -6.15414 -8.46796 0.49901 1.50439 -1.41204
68 -3.00616 -6.85643 -8.61756 0.577357 -1.19881 -0.780408
113 -2.62321 -5.92998 -8.52722 -2.483 -0.302403 -1.78406
867 -8.28193 -9.12533 -4.05837 -1.06921 -2.18979 1.57428
353 -3.14577 -7.42817 -7.85889 -0.131119 -1.89028 -0.754067
354 -2.46916 -6.594 -7.81167 1.11457 0.729437 -0.583069
69 -1.84601 -6.68845 -8.66042 3.03421 0.558644 -1.42293
357 -1.67171 -7.56761 -7.82403 1.2194 -1.66107 1.19577
71 -1.01512 -7.58265 -8.5036 -0.929506 -0.441781 0.408617
76 -0.193552 -6.86611 -8.78384 -0.429441 -0.259976 -2.16141
119 -0.956564 -6.27102 -8.50569 -0.110582 -0.148259 -1.23492
605 2.29223 -8.43058 -6.34435 1.41749 0.514113 2.42973
1925 -7.61275 -3.09485 -0.0672995 1.69169 -0.0947964 -1.58208
1193 5.46082 -9.0928 -2.38951 -1.15643 0.290075 0.554554
1451 -5.76151 -9.16148 -0.883503 -0.104583 1.41675 -0.831975
75 1.13973 -7.97511 -8.32605 -2.22862 0.993465 -1.05974
80 1.58863 -6.79496 -8.50225 -2.42969 -0.347653 1.35079
123 0.676596 -6.02803 -8.65839 -0.588126 2.22051 -0.710707
84 3.29108 -7.04274 -8.57491 0.234425 -3.63283 -0.184291
127 2.41617 -6.26874 -8.48079 -4.71881 2.54953 1.53737
366 2.62791 -7.10351 -7.91335 -1.38412 3.81122 0.899331
417 3.2078 -6.25251 -7.73442 1.47934 -0.374511 -2.87968
88 4.77763 -6.95911 -8.6286 0.135878 -2.16487 -1.44659
370 4.03256 -6.89221 -7.79475 0.0377792 -1.77619 -2.59168
131 3.87621 -6.20837 -8.52516 1.16245 -1.32144 0.00325829
87 5.47543 -7.83956 -8.53561 0.0855427 -1.60301 0.670577
92 6.07841 -7.03088 -8.45333 -1.38886 -0.645907 0.1485
377 6.16468 -7.71223 -7.76219 -0.952997 0.960058 -0.298797
423 5.10683 -7.02032 -7.71676 0.475741 -0.1999 -0.176385
91 6.86956 -7.68043 -8.50298 0.246282 0.436373 0.451053
381 7.53269 -7.64002 -7.76578 -0.744694 1.71616 -0.80531
4872 -1.71664 -8.8994 -2.22223 -1.44063 -0.0377343 0.702225
96 7.73978 -6.98659 -8.57007 0.120147 -3.84939 1.36081
378 6.83702 -6.94042 -7.82778 -1.08316 -3.27933 3.08722
52 8.9893 -6.88855 -8.51508 0.431822 -1.37256 -0.316931
143 8.25484 -6.09939 -8.37865 -0.777784 -0.471091 -0.891053
881 -2.99213 -9.1166 -4.57954 1.38393 0.322947 -1.76035
99 -8.56153 -6.10588 -8.72803 -1.30941 1.31256 -2.29309
386 -8.50595 -5.47587 -7.85209 -0.209517 2.77805 2.32067
142 8.34371 -5.37212 -9.19899 -1.17839 0.511931 -1.80085
104 -7.83831 -5.40461 -8.659 -0.295412 0.0876021 1.94252
103 -7.00113 -5.92515 -8.55369 -1.96444 -0.53256 -1.72921
389 -7.62311 -5.85937 -7.76193 2.17163 -0.0521975 -0.795653
390 -6.88218 -5.20443 -7.76365 0.0857436 0.166429 0.968687
1181 1.73389 -9.03753 -3.10378 0.084705 1.05799 -0.436911
108 -6.26971 -5.3652 -8.62181 0.113084 -0.840326 -1.42269
1866 6.81235 -5.28781 -0.0943794 -0.725309 -1.52394 1.92077
397 -4.73795 -5.94081 -7.81514 -2.99276 0.48916 0.193079
64 -4.77087 -5.25503 -8.45788 -0.852911 -0.948743 1.19564
159 -3.744 -4.31179 -8.47816 1.61013 -2.52997 -2.66898
398 -4.03465 -5.06898 -7.91338 -2.66275 -0.1385 -0.496162
4327 -6.94421 -0.248385 -3.61566 -0.696397 -2.55206 -2.3363
115 -3.35158 -5.18517 -8.64234 -0.777856 -2.07206 -3.64253
163 -2.36288 -4.72343 -8.59309 -1.26644 1.50052 0.912974
4602 6.29013 -9.1082 -4.53732 0.889638 0.597841 2.93175
3416 -6.97216 -0.755852 -9.06399 -0.225512 2.00085 1.29638
909 7.6744 -8.93852 -4.47807 0.547713 -0.170381 -0.557519
120 -1.79074 -5.46157 -8.55533 2.17323 0.203189 -1.44273
453 -1.51661 -4.64034 -7.70831 1.36241 1.3845 -1.54091
1861 4.71228 -6.11034 -0.154653 3.2511 -0.266231 1.67929
3479 -0.235245 -0.33056 -8.48283 -0.958161 -1.34646 1.44634
124 -0.0945692 -5.30015 -8.42037 -0.566 0.01952 0.528716
311 -1.0841 -8.78953 -7.23731 0.549458 0.488172 2.4095
5201 -3.0721 -0.31044 -0.141403 2.40011 1.59548 1.01921
410 0.889923 -5.2504 -8.02111 -1.49439 0.532035 -0.100759
128 1.6436 -5.05413 -8.64022 0.188177 -0.205553 0.350636
461 1.63639 -4.63075 -7.60722 -2.43497 0.464807 -0.427883
132 3.3306 -5.45503 -8.53996 1.13136 -3.81909 0.146758
175 2.62235 -4.58191 -8.46443 -4.07003 -1.44791 1.16907
136 4.55988 -5.45916 -8.48232 -2.34585 -0.647465 -0.732414
421 4.62292 -6.16428 -7.59238 0.693268 -1.33636 0.366702
418 3.92081 -5.47456 -7.76253 0.642961 1.21398 -0.210227
422 5.32048 -6.19705 -8.40023 2.74538 1.92049 -0.946054
140 6.0982 -5.26322 -8.41902 1.03652 1.20821 0.892987
428 5.35398 -5.45128 -7.65565 1.99311 -3.33947 -1.05295
1886 -3.92943 -3.82184 -0.0370379 -0.0537785 -0.384858 -0.642161
425 6.36485 -6.12164 -7.78835 0.295358 0.326263 -0.299966
139 7.12516 -6.17327 -8.5144 1.11585 0.658855 -1.21648
273 2.99484 -1.45048 -9.18089 -1.65178 0.714075 0.701386
144 7.70323 -5.3078 -8.40495 0.761482 0.182561 1.10818
4333 -4.7014 -0.216168 -4.69674 -0.684689 0.791932 -0.505494
426 7.0065 -5.37446 -7.62734 0.773756 0.104523 -3.43276
100 9.11975 -5.38091 -8.46946 -3.65913 0.63032 -1.14348
1965 7.61396 -3.26487 -0.10233 -3.48061 0.0679864 -0.891705
146 -8.53417 -4.79992 -8.56476 1.42145 0.475342 -0.726872
434 -8.64114 -3.97009 -7.56472 -2.06855 0.165742 -0.758711
150 -7.67474 -3.66631 -8.5858 1.51143 -0.376051 1.23708
151 -7.07953 -4.57552 -8.38557 1.05469 -1.31187 -0.531247
152 -6.99815 -3.69004 -7.73869 -3.75256 1.81469 -0.00958049
199 -6.93366 -2.85846 -8.44098 0.652204 1.31438 -1.58836
4037 -7.67159 -0.0587638 -6.2634 1.13843 -1.81037 -1.08907
155 -5.44276 -4.42281 -8.4075 0.202849 -1.00442 1.73943
438 -6.12352 -3.5646 -8.54822 -0.49216 0.43945 -0.4483
6 -6.851 -8.50464 -9.13241 2.46095 0.315695 -2.16716
203 -5.49421 -2.77949 -8.42027 -1.1694 -0.335214 -0.924207
160 -4.73653 -3.59127 -8.66763 -3.17199 0.665875 0.511131
446 -3.84581 -4.23525 -7.51913 0.199068 0.224467 -0.666786
229 4.6515 -2.92154 -9.19429 -0.0425859 2.44732 0.979395
11 -5.41104 -9.14923 -8.42663 0.0818504 0.835512 -0.0874459
619 7.79508 -8.83119 -6.07712 0.0492661 -0.770126 -1.31492
164 -2.85813 -3.90296 -8.47344 0.342755 0.690527 -0.00375797
211 -2.2403 -3.1258 -8.25267 -0.303043 -4.4896 0.341437
497 -2.9771 -3.10067 -7.44822 1.13599 1.34467 0.600629
4899 -8.60166 -0.115053 -0.774756 -1.86706 0.447805 2.85406
168 -1.59459 -3.77287 -8.48775 0.814357 -0.429285 0.00496707
213 -1.7224 -2.98654 -9.10807 0.130575 -0.753013 -0.996434
167 -0.790024 -4.46866 -8.48649 0.52893 1.46358 -1.27634
215 -0.862592 -3.121 -8.37989 -1.5396 1.55151 2.9634
172 0.113757 -3.84679 -8.44752 -2.05962 -1.24654 -0.236757
217 -0.0450346 -2.90635 -8.94641 0.126396 0.958431 -1.32149
1527 5.46857 -7.04432 -0.131719 0.246133 -1.66675 2.70444
171 0.946197 -4.42896 -8.49913 2.42704 -0.923659 0.558951
176 1.87847 -3.9225 -8.21347 -0.280231 0.179371 0.272063
219 1.14091 -3.21987 -8.44381 0.500261 0.0384379 0.495633
4641 3.2314 -0.241018 -2.73965 1.02787 0.687268 -2.6878
180 3.25429 -3.85131 -8.44186 0.0315807 -0.214844 -1.27974
513 3.15173 -3.16087 -7.65608 1.60676 2.17544 0.985841
465 3.35939 -4.5836 -7.54483 0.832315 1.09399 1.12016
179 3.86842 -4.65118 -8.48617 -0.82764 -2.46578 1.79092
184 4.59737 -3.84768 -8.50776 1.33583 -0.801238 2.2395
227 3.90439 -2.96975 -8.49166 1.97526 0.614069 0.444508
466 4.00436 -3.68615 -7.76541 -1.71644 0.137708 -0.743392
183 5.2978 -4.73257 -8.31654 -2.54146 0.923754 0.694014
231 6.2355 -3.86046 -8.45739 0.279271 -1.81473 2.68516
187 6.92522 -4.60171 -8.57424 3.34961 3.91647 1.81351
192 7.65046 -3.94883 -8.42415 0.331025 0.121247 3.38624
477 7.68435 -4.73603 -7.64107 -1.62677 -1.27702 -0.596298
474 6.9066 -3.84192 -7.78897 -1.63163 3.29185 -0.00868075
191 8.42474 -4.63799 -8.46436 -0.179937 -0.27265 2.84023
148 -9.1565 -3.98085 -8.55505 1.59957 2.55007 1.72421
887 -1.7145 -8.8344 -3.214 1.77639 1.3216 -1.25342
195 -8.55436 -3.13571 -8.63366 -0.0807209 -1.5851 0.721363
482 -8.43321 -2.28679 -7.52353 -3.24356 2.6287 -0.0170879
873 -6.38809 -9.12964 -4.94043 -2.38749 0.955617 -0.12903
485 -7.6531 -2.96307 -7.66129 -2.16611 -0.484886 -2.95679
200 -7.85596 -2.3025 -8.41925 -2.04443 0.482537 -2.45294
4941 7.32345 -0.0417476 -1.6367 1.05623 -0.625949 -0.668044
204 -6.24751 -2.18793 -8.39205 1.65369 -0.783415 -1.28165
252 -5.24209 -1.7468 -8.46792 0.183544 0.270737 -1.97602
47 8.40187 -9.11596 -8.4443 -3.51755 0.495442 2.55232
1770 6.84159 -8.39685 -0.0729543 1.45869 1.79641 1.67835
249 -6.18193 -1.481 -9.11906 -3.24088 -1.07746 2.82072
207 -3.82096 -3.41436 -8.09754 -2.35872 -0.0937794 -0.511024
208 -4.56802 -2.55227 -8.21034 3.17672 -2.54056 0.512548
255 -3.8161 -1.53904 -8.29177 2.20504 2.64227 0.826988
253 -4.63546 -1.75521 -9.15351 1.27867 -1.68205 0.956677
212 -3.23413 -2.5352 -8.25654 2.78795 -2.5546 -2.53536
259 -2.49306 -1.41671 -8.21396 -0.0270505 -0.720899 2.10509
498 -2.38345 -2.28915 -7.62681 -3.29137 1.58992 -0.328385
210 -2.50002 -2.36662 -8.93574 0.712737 -2.49492 0.479726
216 -1.57573 -2.51127 -8.26124 -1.12515 3.1633 3.91498
261 -1.81695 -1.60074 -8.83695 -0.0847468 -1.86362 0.145399
214 -0.894639 -2.16824 -8.99605 2.35305 -0.748759 -1.96417
220 0.148282 -1.97132 -8.2615 -1.06615 -0.174789 0.714245
263 -0.717098 -1.28961 -8.57255 1.37489 1.26559 0.0833598
224 1.83362 -2.39715 -8.48257 -2.60894 -0.0233668 -1.20854
506 1.07138 -2.29687 -7.81638 2.40927 1.23374 0.00145234
331 6.98799 -8.94759 -6.91485 -1.40124 2.104 3.91905
133 4.71204 -6.15613 -9.09973 0.748511 -1.36409 1.27572
1428 3.0424 -0.0578287 -1.56902 2.90494 -0.691589 0.982016
223 2.48702 -3.10237 -8.4229 3.11171 -1.08142 -0.681964
228 3.01878 -2.28635 -8.4468 -3.63834 0.880534 0.117493
509 2.54097 -2.2816 -7.54008 -2.11023 -1.13855 -0.155825
53 -7.56159 -7.56522 -9.09879 -0.249181 0.89518 -2.36744
232 4.67279 -2.21819 -8.57351 0.227708 -0.257849 -0.627379
280 3.83476 -1.42745 -8.52834 0.839081 1.33552 3.06768
1187 3.67155 -8.99304 -2.48302 0.176502 2.83922 -2.91854
32 0.917384 -8.41939 -9.19061 0.440375 0.966034 -0.354675
518 5.47861 -3.15241 -8.38625 1.17138 -0.261897 -0.793274
236 6.11725 -2.4124 -8.20161 0.452079 -1.76413 -3.12265
565 5.35493 -2.10648 -7.7414 0.52849 2.40145 -1.31326
583 -7.22 -9.16808 -5.84497 2.48657 -1.7891 0.573841
188 6.96918 -3.81281 -9.18736 -1.15009 1.05731 -0.545476
235 7.2293 -3.1498 -8.50668 -0.938123 -2.79264 -1.26817
240 7.75014 -2.3543 -8.55046 -1.83646 1.41347 0.0854427
239 8.43597 -3.05663 -8.48825 -3.08609 1.31528 0.605956
196 9.20023 -2.36236 -8.31569 -0.0311139 1.278 -0.0416116
529 9.04591 -1.44889 -7.52081 -1.26323 -2.317 -1.56165
481 9.19861 -3.05897 -7.72007 2.07588 2.11351 1.99116
243 -8.55988 -1.56133 -8.29959 -1.73334 0.490285 2.77968
248 -7.78157 -0.774826 -8.42937 -0.773967 -0.111584 -2.22079
3771 0.640317 -0.316409 -6.80018 -2.60792 -0.879698 0.448987
247 -7.00339 -1.53673 -8.45284 1.8459 -1.41427 -3.08552
245 -7.89197 -1.55581 -9.15139 0.723737 1.85117 -1.77347
4582 -1.19049 -8.75202 -3.99629 -0.255472 -0.579175 0.729274
4901 -7.70389 -0.130077 -1.64561 -0.236216 -0.700093 0.0874244
250 -5.48534 -0.770172 -8.84775 -5.07407 1.93843 -0.330261
256 -5.16008 -0.132961 -8.12144 0.914188 -0.418577 -1.80741
246 -6.21517 -0.83167 -8.26757 -0.649108 -0.670009 0.911861
947 3.70066 -9.10547 -3.78024 0.610956 -0.463939 0.915774
254 -4.58471 -0.988508 -8.48284 -0.68216 -2.46505 0.804659
335 8.49307 -9.04242 -7.06253 -0.814322 -0.563041 1.02418
3473 -2.90788 -0.572781 -8.85905 2.40383 -0.920268 3.10926
4654 7.64618 -0.138325 -2.88281 -2.27895 -4.19823 0.93119
3763 -2.43734 -0.448124 -7.07631 2.41512 0.504246 1.46364
257 -3.07072 -1.54849 -9.2002 -0.0566185 0.806244 -0.814608
264 -1.32354 -0.538243 -8.68485 1.0912 0.825243 0.0211382
3477 -2.14737 -0.184487 -8.24311 -0.117563 -2.30057 1.43311
1774 8.64741 -8.61081 -0.0450366 -0.0365428 -1.05989 0.43829
268 0.233062 -1.0479 -8.7804 -1.16815 1.07758 1.12374
550 -0.819101 -0.458512 -7.77784 0.609331 3.05324 1.22939
267 1.14725 -1.78758 -8.65211 1.36578 0.843511 -2.06815
557 1.67639 -1.58133 -7.80582 -0.990203 0.156189 0.478782
272 1.75027 -0.71679 -8.36357 1.15891 1.43988 0.881036
554 0.852593 -0.834353 -7.74406 1.24708 -1.77936 1.2068
271 2.4142 -1.588 -8.34223 -0.0448815 -0.137565 -3.8258
276 3.16265 -0.683237 -8.59433 0.390789 0.105432 -0.459702
558 2.53087 -0.530432 -7.89407 2.22694 1.39189 -2.14615
561 3.1961 -1.45982 -7.71324 -0.927988 -2.06658 0.0853412
566 4.67051 -0.648797 -8.47914 1.63319 -0.633398 0.125794
563 4.60531 -1.4251 -7.69527 -1.05568 0.212491 0.572191
275 3.92226 -0.673974 -7.7157 4.36216 0.68588 -0.7404
279 5.35243 -1.44445 -8.57971 1.75279 -2.1855 -0.394859
284 6.10592 -0.784511 -8.39748 -0.610898 0.686121 0.831503
1679 8.09481 -2.45069 -0.122457 1.84841 -0.744747 -0.0656533
291 -8.53322 -9.21501 -7.059 -0.900981 -0.380631 -1.05834
283 7.06938 -1.5632 -8.49403 0.990251 -1.15726 -2.4534
4609 9.11717 -0.296835 -3.14733 -2.69546 -1.37248 2.06571
288 7.78209 -0.913525 -8.46022 1.12753 2.36468 -0.218189
4655 8.38329 -0.0880772 -1.98516 -0.788078 0.0360435 1.08354
287 8.34934 -1.62568 -8.34769 1.11888 -0.120229 -0.626447
603 0.45761 -9.18084 -4.94789 2.78326 0.0570311 -1.01711
244 9.14165 -0.894446 -8.40215 -2.00878 -0.720705 -0.466296
4597 5.39777 -9.17359 -3.63311 1.12503 -0.000224064 0.0113626
241 -9.21062 -1.44124 -9.2004 1.31086 -0.664012 -0.0366223
339 -8.50936 -7.6942 -7.19949 -2.71186 -2.42966 0.207145
296 -7.7092 -8.4644 -6.95259 0.883767 2.89582 2.36392
294 -6.9332 -8.3715 -7.64108 0.839936 3.9545 -0.957456
343 -6.77128 -7.57235 -6.93656 1.91993 0.372614 -1.22219
298 -5.35344 -8.48114 -7.70348 -0.610688 -4.26291 1.20838
300 -6.08713 -8.31297 -6.84553 -0.825993 -0.23214 2.03113
3996 -5.39094 -9.00165 -6.84135 -1.37757 -0.256965 0.883732
299 -4.49644 -9.03774 -7.77322 -0.0138978 -3.25416 -0.376303
302 -3.81708 -8.12638 -7.9993 -0.700151 0.565355 0.535371
301 -3.84247 -8.73748 -6.83743 0.521921 2.23832 0.997256
304 -4.61026 -8.11658 -6.99828 -0.961014 0.982233 0.514832
590 -3.66775 -8.02277 -6.02928 1.50078 1.16153 1.79371
306 -2.32056 -8.2392 -7.68486 -0.502938 -1.43809 -0.0822864
308 -3.03431 -8.12855 -6.74875 0.39712 -0.482366 -1.74012
307 -2.28897 -8.78092 -6.67449 2.73622 -0.154843 -1.20712
305 -3.06253 -8.93897 -7.69636 1.21453 0.30031 0.542147
312 -1.72602 -7.90638 -6.92215 -0.782237 -0.0483132 -1.42809
310 -0.807551 -7.92502 -7.43067 -0.588729 1.22408 -0.551059
289 9.11186 -9.11706 -7.79631 2.74857 -1.15222 0.106127
359 -0.788731 -8.28666 -6.50422 2.09039 -2.08587 0.518935
361 -0.0070671 -7.79776 -8.07152 -2.25928 0.056338 3.46627
316 -0.0150693 -7.82092 -6.88821 0.407935 1.09182 -1.35435
3471 -3.9478 -0.129825 -8.26406 0.741282 1.97828 1.83726
320 1.46455 -8.56847 -7.00373 3.11208 -1.02825 -1.2742
314 0.926893 -7.62231 -7.35385 -3.12143 -0.033252 -2.91776
653 1.71436 -7.67977 -6.67142 -0.495829 2.52133 -0.156943
318 2.2497 -8.46307 -7.88221 -0.226861 -1.8758 1.15663
4343 -0.269287 -0.0457032 -5.00112 1.8874 -0.726941 -0.883412
369 3.1983 -8.44499 -6.80907 -0.784391 -0.33235 -1.70438
654 3.44858 -7.87586 -7.87049 -1.1286 -0.144316 -0.0860092
657 3.03449 -7.70296 -6.23292 -0.852107 0.863917 1.22541
606 2.58643 -7.87592 -7.15004 1.11859 1.24897 -2.39222
1813 4.46581 -7.84968 -0.126296 0.291033 1.92003 0.424121
328 4.60227 -8.50034 -6.9467 -3.87978 -2.99176 1.69743
661 3.9383 -8.83519 -6.14266 0.91601 2.04109 -0.435016
326 5.29958 -8.39976 -7.65262 -0.0586899 -0.00316545 0.858425
375 5.35899 -7.63563 -6.89751 -1.49754 -0.473492 -0.885969
4362 6.19329 -0.0321882 -4.46503 -0.139199 3.52504 -1.86031
1726 8.4446 -0.861389 -1.46617 0.649356 -0.245421 -1.84913
147 9.10967 -4.68751 -9.14478 -0.490677 -1.73892 -0.306116
332 6.12335 -8.25532 -6.90711 2.94596 0.673872 0.933528
336 7.64264 -8.17148 -6.99664 -0.0552666 0.932165 2.07645
337 9.17754 -7.52178 -7.85258 0.223734 1.35044 1.82764
334 8.39007 -8.31077 -7.61478 1.91457 1.13127 2.18376
292 9.22356 -8.33459 -7.16463 0.412683 0.955983 0.443371
383 8.53943 -7.38628 -7.0086 -0.154983 0.231479 -1.08978
622 8.60561 -8.29157 -6.34874 -1.03175 -0.428399 1.52706
327 5.35205 -9.12408 -6.73447 0.979283 1.47848 -1.15701
338 -8.35392 -6.56206 -7.8727 0.15258 -0.202645 3.48134
626 -8.46479 -6.79235 -6.29707 1.62335 -1.2425 0.208994
340 -9.0057 -6.78592 -7.10955 4.3627 -0.605047 0.39987
625 -8.92574 -7.65707 -6.35966 -1.88 -0.407654 -0.0652914
342 -6.91109 -6.52875 -7.76382 0.173458 -1.07473 0.117052
344 -7.65968 -6.79191 -7.15673 0.211508 -3.07233 -0.788335
345 -6.14648 -7.70132 -7.70424 -1.36614 0.797016 0.951983
347 -5.50904 -7.5052 -6.80813 -3.02139 0.481663 -1.63821
348 -6.17076 -6.65938 -6.90249 0.785879 0.315374 0.773457
637 -5.39713 -6.70564 -6.14991 -1.11049 0.37936 0.122989
351 -3.82508 -7.53726 -6.90417 0.116061 -0.905687 0.407056
634 -4.72248 -6.92277 -7.03796 -1.61327 1.91164 -2.44535
399 -4.0237 -5.9582 -6.9605 -0.0617264 1.35725 -1.05766
355 -2.55165 -7.3061 -7.15821 2.32795 0.807386 -1.5802
641 -3.01966 -7.00899 -6.16507 -0.665537 -0.161556 1.90079
356 -3.23253 -6.63335 -7.09091 2.39117 -0.903228 -2.14803
403 -2.2315 -6.28082 -6.88588 -0.917536 0.336655 1.67175
360 -1.43584 -6.96516 -7.02987 -1.25514 1.9689 2.06572
405 -1.61393 -6.29238 -7.66346 -0.575655 0.355289 -2.31438
693 -1.36998 -6.13338 -6.24817 0.16527 2.72434 0.631932
358 -0.874824 -6.94044 -7.79126 -0.395263 1.12535 -3.61623
364 0.12127 -6.94082 -7.17474 -2.66218 1.43422 0.465458
407 -0.688173 -6.25215 -7.07543 0.785129 0.144086 2.28093
409 -0.0865807 -6.1958 -7.89349 -0.260848 0.900324 -0.0436767
697 -0.0111359 -6.35011 -6.17701 -4.69081 2.01568 -1.41618
362 0.615059 -7.05533 -8.14808 0.639705 -0.438864 -2.75761
368 1.59565 -6.7084 -7.45069 0.277498 0.174346 0.0166451
650 0.884094 -7.03544 -6.53682 -1.0001 -1.5465 -1.08503
411 0.780698 -6.14567 -7.46758 -2.57201 -1.71212 0.662032
413 1.63474 -5.86687 -8.12937 -3.67023 -0.939209 1.65199
701 1.44741 -6.22032 -6.53121 -0.164432 -0.510716 0.515764
703 3.26188 -7.21571 -7.13478 0.507984 -0.609821 0.766787
415 2.38822 -6.10653 -7.15195 -1.29353 2.73128 -3.67528
655 2.4405 -6.91509 -6.54809 -3.0213 0.466639 4.31091
705 3.04794 -6.15699 -6.27671 -1.34009 -0.75214 1.18388
371 3.98776 -7.85363 -6.70104 -2.33575 -0.272923 0.335652
373 4.63047 -6.89889 -6.89768 0.296099 0.134784 1.31156
376 4.66877 -7.95163 -5.98484 -0.171923 0.471749 1.48671
658 3.79938 -6.98237 -6.18629 -0.364159 0.603461 -0.139675
709 4.62062 -6.0883 -5.89492 -0.55532 1.20496 0.92098
380 6.11192 -6.86411 -7.1365 -2.0424 0.909348 -1.1148
379 6.84034 -7.63032 -6.98757 -2.04123 -0.294175 -2.07922
384 7.64686 -7.06431 -6.87078 1.15785 2.44213 0.861928
669 7.77142 -7.67404 -6.0357 -1.38436 -0.617914 -2.966
666 6.75714 -6.78612 -6.22025 -0.359071 -0.778248 -3.77887
382 8.31913 -7.02244 -7.83284 1.54372 -0.755829 3.50518
670 8.43202 -6.94671 -6.06916 -0.170048 1.66123 -2.49941
677 -7.67996 -6.01368 -6.18732 1.28647 0.614224 -1.22607
387 -8.57725 -5.92876 -7.0297 -0.327024 -0.179762 2.8261
674 -8.56627 -5.45173 -5.99715 0.180344 0.00998749 -2.14639
388 9.07191 -5.38344 -6.86799 1.19393 0.977367 0.214427
391 -7.04916 -5.84593 -7.01069 0.0354563 -0.96355 0.035747
392 -7.87399 -5.10817 -7.08048 -2.10526 1.56207 -1.48972
678 -7.0238 -5.24099 -6.19038 0.797593 1.79388 0.0703487
393 -6.07906 -6.00939 -7.78601 0.0123152 -3.93566 1.00027
395 -5.34082 -6.07368 -7.02372 -1.39029 -2.05113 0.344125
394 -5.43318 -5.27782 -7.75872 2.10029 -1.37088 -0.238396
396 -6.21274 -5.39872 -7.04572 1.36593 1.03617 1.33451
682 -5.41742 -5.34524 -6.29039 -0.378998 -0.92381 -1.43604
443 -5.58481 -4.61885 -6.9223 0.760169 1.05414 -1.69007
400 -4.8355 -5.16813 -6.97822 0.203785 -1.46931 -3.35191
447 -3.78258 -5.63908 -6.12802 -0.643253 0.707193 1.67951
448 -3.81368 -4.84725 -6.75949 -0.860495 -1.99111 -2.13588
112 -4.73064 -4.24433 -7.83479 -0.906558 -0.915475 -2.00982
402 -2.25699 -5.61622 -7.70098 2.11404 0.182161 1.1915
449 -3.05292 -4.81897 -7.82776 0.921676 -1.69851 -0.125745
401 -3.34267 -5.90723 -7.85138 0.500567 2.19565 -0.631008
404 -3.06463 -5.58067 -7.00185 -0.0260613 3.55976 -0.0157798
451 -2.23504 -4.72974 -6.93584 -1.51774 0.50442 0.235682
690 -2.10671 -5.56842 -6.30379 0.564218 0.304148 -0.795911
737 -2.80488 -4.7367 -6.19226 -2.50314 0.325557 -0.939771
406 -0.911847 -5.55856 -7.88037 0.43821 0.52757 -0.802887
408 -1.46879 -5.51449 -7.00819 -0.187652 -0.339347 0.162414
741 -1.30425 -4.81273 -6.33922 0.954538 1.04132 -1.20694
412 0.0779591 -5.45793 -7.27323 1.63368 -0.183223 -0.2238
455 -0.71457 -4.70244 -7.23408 1.90699 -1.03876 2.76574
457 0.0557854 -4.57544 -7.85998 -0.979836 -0.319723 0.176733
694 -0.652526 -5.52065 -6.32662 1.33872 -1.65642 0.00611551
745 0.127534 -4.69143 -6.41641 -0.744695 -0.935579 1.55991
416 1.61082 -5.40142 -7.13265 1.05708 0.499942 1.27669
698 0.77981 -5.47991 -6.38811 -3.00583 -0.901565 1.59463
459 0.713325 -4.65846 -7.13699 1.46745 0.378867 1.18156
414 2.58812 -5.42418 -7.99203 1.41232 -2.81714 -2.31563
420 3.16587 -5.35834 -7.05813 -1.32707 -1.3683 -5.15056
463 2.4558 -4.58709 -7.05969 0.279697 2.95125 -2.04711
702 2.41208 -5.43205 -6.17127 -3.87167 -0.884729 0.648719
753 3.1933 -4.73329 -6.16153 -1.22115 2.1894 0.0596819
372 3.81876 -6.2927 -6.94704 -3.72495 -0.503621 -3.69868
419 4.66631 -5.42354 -6.96396 0.998764 -0.952905 2.67222
467 3.95524 -4.58923 -6.84796 -1.25129 0.371137 1.35772
706 3.91227 -5.41722 -6.25484 1.5951 0.23115 0.474518
665 5.47979 -6.09621 -7.04507 0.384181 1.71337 1.09394
471 6.22114 -5.34711 -7.03072 -1.5579 1.21932 -1.63401
713 5.39171 -6.81418 -6.23897 1.16061 2.33004 0.0222903
710 5.47853 -5.78041 -6.17685 3.42386 0.415527 -1.72287
761 6.00298 -4.56621 -5.87726 -1.07595 1.7542 3.81161
429 7.71957 -6.2296 -7.57995 -1.12818 0.37072 -4.93931
427 6.9217 -6.17873 -6.96273 1.38332 3.42537 0.065117
432 7.62442 -5.52047 -6.73868 -1.06927 1.09629 0.0450347
714 6.74786 -5.47784 -6.18388 -0.310911 3.11887 0.336814
765 7.6249 -4.69212 -6.10806 -2.26429 0.0452353 -0.128469
717 7.64736 -6.33168 -6.17311 3.39759 -1.11256 1.44581
430 8.30799 -5.45396 -7.52173 -0.166301 -2.98762 0.0656631
431 8.52699 -6.22869 -6.97267 0.502435 -1.37767 0.0603016
385 9.13963 -6.10892 -7.74414 -0.20914 -4.62608 1.97996
673 9.21102 -6.26526 -6.13006 -2.70061 -0.803286 3.05523
437 -7.9089 -4.59142 -7.83862 2.50024 3.26771 -0.296604
435 -8.64403 -4.67291 -6.6569 -0.864589 1.05223 1.82865
440 -7.76754 -3.92742 -7.08691 -0.428325 1.22092 0.0512977
439 -7.01464 -4.53748 -6.9883 -0.605421 0.76081 -4.00639
487 -7.01076 -3.04101 -6.9865 -1.05711 0.582065 1.01588
725 -7.73474 -4.59073 -6.04201 3.27994 1.53788 -1.94436
442 -5.64702 -3.68713 -7.74585 -1.25732 -0.32155 -0.716256
441 -6.28123 -4.48489 -7.87097 0.680152 -0.438462 -1.93013
444 -6.31869 -3.81855 -6.98321 -0.744025 -1.26941 -0.345722
730 -5.51529 -3.97573 -6.09887 0.711156 0.0885866 0.327967
445 -4.82618 -3.90019 -6.84627 0.930745 1.89277 2.47223
495 -3.92813 -3.40532 -7.11649 2.87777 -0.275795 -0.796488
733 -4.59196 -4.57866 -6.15582 -0.859482 0.898303 0.496863
493 -4.71396 -3.32351 -7.5641 -3.68708 2.34885 -0.61785
734 -3.66508 -3.9754 -6.16271 0.492513 1.5661 1.94243
781 -4.43817 -3.31583 -6.14844 -2.92601 -0.793441 -0.995642
450 -2.38295 -3.9175 -7.63157 1.08094 -0.92569 1.52566
452 -3.09994 -4.17505 -6.9765 -0.00499085 1.03803 -1.53255
499 -2.12776 -3.00548 -6.63247 0.223539 0.17512 0.139095
456 -1.43362 -4.06657 -6.85633 -0.557024 -0.285737 -0.330515
501 -1.49997 -3.2341 -7.4432 -2.04928 0.764596 0.101828
738 -2.06928 -3.85626 -6.19372 -0.460454 0.135618 0.805243
789 -1.26401 -3.15757 -6.12241 -0.574603 1.60734 -0.027436
454 -0.699711 -3.75465 -7.70171 0.0470438 1.11358 0.489342
503 -0.294783 -2.78953 -7.02533 -0.495785 -1.75923 -2.65597
505 0.439629 -3.04003 -7.90543 0.802895 -0.608759 1.95469
460 0.0869728 -3.70159 -7.16875 0.407295 -0.769005 1.80902
742 -0.527872 -3.84104 -6.40096 0.64858 -1.58081 -1.75902
791 0.221813 -3.03002 -6.17612 -1.3943 -0.217174 -2.05542
794 1.03159 -3.04897 -7.12618 -1.60716 0.174401 0.930641
458 0.967724 -3.905 -7.68552 -1.07158 -0.612199 0.958791
746 1.67089 -3.9247 -7.02098 0.0727363 -0.403283 -2.73322
464 1.86202 -3.06216 -7.64995 -0.842475 0.54624 -3.29758
797 1.65458 -3.15305 -6.23925 1.15257 -0.034238 3.06216
462 2.542 -3.85646 -7.66365 -3.31873 -2.6298 -2.21744
468 3.21605 -3.85002 -6.9389 0.46965 0.143379 3.48452
511 2.49348 -3.15163 -6.82028 2.16781 0.163472 0.46978
469 4.5437 -4.63978 -7.66964 -0.845428 0.350298 -0.574527
472 4.5916 -3.74906 -6.98179 -0.304568 -3.5972 1.38829
515 3.99561 -2.9766 -7.04072 -0.542337 -3.12466 1.65527
424 4.81557 -4.82702 -6.17609 0.809637 0.67578 0.722183
754 4.14654 -3.84868 -6.07932 1.05356 -0.00841029 -1.66293
473 6.13274 -4.58409 -7.69256 -0.462118 -0.604873 -0.0286561
757 5.46282 -4.60507 -6.95958 0.23439 3.10784 -0.447053
470 5.22394 -3.94469 -7.73867 -1.52189 0.295245 -2.38274
476 6.21512 -3.91294 -6.73414 -0.641572 1.032 0.893554
758 5.27962 -3.82635 -6.07443 1.56558 -0.244625 -0.808115
475 6.91623 -4.57063 -6.97054 1.03262 -0.995798 0.505055
480 7.55988 -3.9095 -6.96629 0.487159 -0.839012 0.298325
762 6.93887 -3.89048 -6.16416 0.281708 -1.76377 -0.896053
433 9.04559 -4.76365 -7.68161 3.3001 -0.611678 -0.344859
479 8.24257 -4.51233 -6.95711 0.669631 0.974946 -1.87945
721 9.14197 -4.7549 -5.94032 -1.41366 0.371177 -1.30417
478 8.54011 -3.65732 -7.64461 -0.548278 0.101999 -0.937294
436 9.05545 -4.06506 -6.87143 0.930834 -1.45757 -0.658368
483 -8.6673 -3.13383 -6.87394 2.658 2.42313 2.77673
531 -8.43987 -1.56508 -6.85063 0.168309 -1.36312 0.981854
486 -6.9831 -2.21053 -7.67983 0.424838 -1.464 1.96116
488 -7.71106 -2.25976 -6.889 0.845287 0.550865 -3.80673
774 -6.93523 -2.35305 -6.21902 0.326697 -1.29574 2.09162
489 -6.26239 -2.88764 -7.61729 -0.688883 0.169656 -2.88473
491 -5.61494 -3.14876 -6.93339 -0.211992 -2.64996 -0.589813
251 -5.39908 -2.31513 -7.45209 2.44359 1.17615 -0.588302
492 -6.15882 -2.29396 -6.85267 0.923779 1.11555 0.662617
539 -5.322 -1.58936 -6.78306 -0.401209 1.91922 -2.46448
777 -6.36803 -3.27489 -6.1996 2.18406 -1.58233 0.581884
494 -3.85628 -2.54491 -7.41411 -0.112685 -0.576863 0.0935714
496 -4.70016 -2.56078 -6.82251 0.695432 -1.61989 -0.636841
543 -4.10639 -1.70308 -6.66276 -0.836376 -0.12038 2.57337
545 -3.29604 -1.69464 -7.51747 -1.96521 -0.732714 -0.703147
500 -3.01277 -2.39537 -6.8307 -1.93402 1.15042 -1.8779
547 -2.40353 -1.47554 -6.91416 -0.608048 -1.69863 1.65514
833 -3.11428 -1.67506 -6.19955 -2.90054 -1.20725 -0.514725
549 -1.01758 -1.4505 -7.64202 -2.21317 -0.573689 0.790818
504 -1.34377 -2.24604 -6.9808 1.37589 0.87848 1.71378
502 -0.598443 -2.41326 -7.8239 -1.27993 -0.568137 1.65256
508 0.331809 -2.11629 -7.14353 -0.654191 -1.70036 -0.793257
841 0.393749 -1.61896 -6.00513 0.505246 -2.87949 -1.57122
790 -0.492662 -2.40653 -6.12353 0.585403 -1.81069 0.197907
551 -0.542072 -1.73638 -6.70212 0.276848 -2.27921 1.39887
555 1.06007 -1.433 -6.94357 -1.2849 0.174052 0.409846
559 1.69543 -2.35428 -6.94948 0.521256 1.28517 -0.841482
845 1.59949 -1.47988 -6.18758 -1.43467 -0.119203 -1.55719