ITEM: TIMESTEP
15000
ITEM: NUMBER OF ATOMS
6912
ITEM: BOX BOUNDS pp pp pp
-9.2265715179435492e+00 9.2265715179435492e+00
-9.2265715179435492e+00 9.2265715179435492e+00
-9.2265715179435492e+00 9.2265715179435492e+00
ITEM: ATOMS id x y z vx vy vz
290 -8.39774 -8.29251 -7.55849 -1.64577 1.00803 1.05039
51 -8.46713 -7.76212 -8.40895 0.79144 1.8134 -0.0367198
1762 3.81843 -8.74491 -0.0630513 1.0012 -1.26929 -0.060616
8 -7.81279 -8.46877 -8.27862 1.7836 -0.455478 -0.370579
294 -7.10186 -8.34796 -7.62188 2.20062 -2.94049 -2.27784
55 -6.8935 -7.641 -8.47446 -0.485035 2.03538 -0.267356
38 5.31912 -8.28545 -9.20131 -0.390101 0.866367 -0.564506
4911 -3.95755 -0.0651484 -0.853375 3.16998 -2.0976 0.193609
12 -6.26623 -8.37163 -8.32913 0.678669 -0.136769 2.00393
329 6.1223 -9.22925 -7.71766 -0.311636 -1.00083 0.782349
3771 0.745656 -0.137785 -6.94366 -0.202184 -0.532251 -0.425546
1766 5.47968 -8.48809 -0.0545209 0.802245 1.73578 0.247964
16 -4.74771 -8.37955 -8.50575 0.345642 0.432279 2.25752
63 -3.93773 -7.65503 -8.57945 -1.1672 1.1331 1.88495
1727 8.30098 -1.52321 -0.635735 -3.06822 -0.882107 -0.324934
4609 9.1871 -0.116088 -3.08404 -0.230278 0.51239 0.501007
20 -3.03853 -8.35274 -8.56376 -0.737921 -0.572386 -0.697143
306 -2.22206 -8.45891 -7.72365 -0.385633 0.101491 -0.698095
4321 9.14043 -0.00424433 -4.68765 -1.0343 0.320186 -1.61609
254 -3.95199 -0.720716 -9.06158 -1.62201 -3.08119 -0.659863
24 -1.44106 -8.54171 -8.5723 -1.15912 1.15972 0.372222
238 8.46852 -2.23939 -9.13718 -0.716453 0.740975 -2.08759
28 0.0896541 -8.5341 -8.50968 1.04371 -0.668361 -1.3291
138 6.94856 -5.51049 -9.18967 -0.408882 0.256211 -1.72894
1897 0.119178 -4.61867 0.00801312 -1.61149 2.24093 2.86324
75 0.61109 -7.56539 -8.47267 -0.228623 -0.197825 -1.58498
32 1.33941 -8.53881 -8.54684 1.53981 1.64826 -1.00303
4917 -1.63683 -0.0731377 -1.57162 -2.07326 -2.00234 0.926635
149 -7.72031 -4.73528 -9.21065 0.409798 -0.458481 -1.57085
36 3.12234 -8.37286 -8.50093 -2.23096 0.426514 -1.6186
79 2.25954 -7.71743 -8.43496 0.0553813 0.0467163 -2.40404
369 3.04134 -7.6499 -7.65274 -0.112355 -2.39442 -0.43605
1929 -6.08938 -3.16917 -0.0218011 -2.66264 -0.785104 1.642
291 -8.42422 -9.19568 -6.93184 -0.187116 -0.0578337 -0.662697
40 4.60856 -8.28583 -8.42562 2.13322 -1.13819 0.0743344
83 3.79971 -7.66545 -8.5672 -0.726085 -0.335024 1.72981
322 3.73484 -8.31139 -7.7829 0.532709 1.8021 -0.46628
373 4.60611 -7.51604 -7.71876 -0.58775 -0.185459 -0.836289
44 6.15272 -8.4544 -8.3293 2.11791 2.08847 0.664145
87 5.29597 -7.63272 -8.46608 -0.0506103 0.462543 1.01547
289 9.03378 -9.06318 -7.77421 -1.38202 0.824237 0.4164
326 5.19987 -8.29619 -7.6666 -0.631046 2.42346 0.414699
377 6.12366 -7.55686 -7.70971 0.573089 0.724579 2.20182
323 3.63063 -9.08091 -6.92405 -1.08762 1.47294 1.00922
48 7.80317 -8.42383 -8.5141 1.69764 2.35676 1.57662
91 6.89625 -7.78654 -8.42195 -1.31832 -1.65259 -0.715104
901 4.5596 -9.11435 -4.64471 -2.4396 -0.612521 -0.980548
4 9.1287 -8.45191 -8.5609 -1.04287 -1.85368 1.73807
337 -9.08551 -7.55684 -7.70517 0.808662 0.846126 -1.35676
4367 8.33874 -0.0208121 -3.82642 0.598352 1.76409 1.18534
95 8.5629 -7.62705 -8.33669 2.11191 0.0724473 2.53581
334 8.50646 -8.3448 -7.57539 -0.937714 1.23071 0.988928
273 3.05954 -1.49076 -9.21559 0.264884 -2.31434 -2.05305
269 1.44697 -1.52782 -9.14236 0.309963 -0.587336 -3.8305
99 -8.48895 -6.22206 -8.37518 2.29747 2.99032 -0.460784
78 2.25874 -6.70967 -9.16619 -1.17365 2.08696 2.00926
56 -7.56861 -6.97427 -8.50909 -0.540861 0.161445 -1.19458
1818 6.96113 -6.9158 0.00476874 0.607899 1.48845 4.48997
59 -5.36338 -7.67046 -8.64028 -2.57286 -0.535484 -1.04128
60 -5.87318 -6.7759 -8.40085 -1.95061 0.544457 1.05709
107 -5.39455 -5.89638 -8.41275 -0.951077 2.36527 0.539718
94 8.40111 -6.96064 -9.19186 -0.251135 0.627326 0.590574
50 -8.47295 -7.02013 -9.11934 0.848518 -0.39302 0.0394201
64 -4.53853 -6.86672 -8.45203 -0.783568 -1.39822 -1.56475
111 -3.74926 -6.06494 -8.39104 -0.234214 -0.615743 1.19848
397 -4.64673 -6.06002 -7.79216 0.171813 -1.82157 -1.21831
350 -3.9644 -6.79353 -7.52892 -0.806792 -0.4369 1.56863
67 -2.30384 -7.65913 -8.41408 0.528107 1.2284 0.903835
353 -3.10827 -7.87119 -7.59803 1.94958 0.755526 -1.41537
68 -3.10604 -7.07042 -8.44255 1.85509 0.733769 -0.874722
354 -2.40395 -7.10304 -7.61541 -1.32846 -0.153598 0.771003
72 -1.32978 -7.14587 -8.52419 -0.637089 -2.05708 0.260314
358 -0.720182 -6.99099 -7.51627 -1.34127 1.42438 0.779418
71 -0.557277 -7.82649 -8.37313 0.0934182 1.31856 1.47725
76 0.06616 -6.73045 -8.43472 -2.25585 -0.957379 -2.95315
97 -9.21608 -6.17414 -9.15028 0.218457 0.38189 1.54715
123 0.71673 -5.96622 -8.42084 -1.57441 -0.843878 -1.38932
362 0.756428 -6.71167 -7.70194 1.29491 0.170796 -0.549067
80 1.503 -6.8475 -8.46705 3.75792 -1.89084 0.738984
84 2.95194 -6.91726 -8.33076 0.147397 -0.402693 -0.460823
127 2.31558 -6.04493 -8.3965 -0.17141 0.545395 0.0318253
417 2.99453 -6.06757 -7.77825 -1.10529 1.82225 -1.12045
4353 3.06291 -0.0494254 -4.46993 0.273433 -1.70261 0.783747
88 4.57536 -6.73059 -8.61974 -0.463266 1.34133 3.18789
131 3.73301 -6.00068 -8.45744 0.617456 0.62376 -1.99593
421 4.51334 -5.99692 -7.71892 1.67522 2.54511 -1.82984
873 -6.26339 -9.06634 -4.70845 -0.16582 0.420181 -0.808952
92 6.0211 -6.94959 -8.45576 2.41691 0.645762 1.46441
374 5.44663 -6.89461 -7.73629 -2.24545 1.53666 0.462486
425 6.06547 -5.9643 -7.60395 2.112 1.5623 -1.45099
96 7.70192 -7.03755 -8.43204 -1.42787 -2.42488 -0.337614
429 7.69089 -6.17125 -7.6268 -2.13513 0.982031 -3.80481
381 7.71221 -7.72685 -7.6023 1.62408 0.359181 0.865114
378 7.01526 -6.93146 -7.71061 -2.13456 -0.2563 -1.01693
52 9.11654 -6.82203 -8.39381 -1.16363 -0.752935 -2.66042
143 8.37398 -6.09075 -8.42582 -0.000535746 -1.52996 3.28626
382 8.41774 -6.83833 -7.73412 -0.191528 -2.53896 -0.709669
581 -7.68216 -9.12156 -6.12282 0.0914031 -0.40396 0.383607
145 9.17173 -4.57435 -9.21469 0.0189686 -2.02724 -1.73907
100 9.132 -5.34041 -8.44595 -0.0354477 0.978631 2.6742
147 -8.4257 -4.60409 -8.49352 -0.990977 -1.61152 -2.2673
3789 7.62386 -0.0275113 -7.63096 2.99433 1.97569 0.360667
253 -4.77557 -1.50773 -9.14704 0.702361 -0.487684 -1.60748
89 6.17088 -7.69843 -9.05333 -1.61798 -2.22903 -0.366338
103 -7.00996 -6.04286 -8.53129 -1.9616 -0.529542 0.570446
104 -7.78352 -5.40256 -8.4996 0.0594412 -0.0847935 2.23096
151 -6.98693 -4.56684 -8.49784 0.356561 -1.41299 -0.699477
1969 9.06762 -1.3558 -0.085878 1.99664 -0.210753 -0.677454
108 -6.19274 -5.35746 -8.34313 0.868024 1.17868 -0.0436301
112 -4.4305 -5.18166 -8.38716 1.09452 0.129222 0.38326
159 -3.79683 -4.39132 -8.33567 -0.63704 -2.19402 -0.461789
115 -2.35145 -6.33514 -8.39486 1.95448 -0.571696 0.173367
3463 -6.87147 -0.0975073 -8.39942 2.35279 -2.39854 -1.22668
116 -3.06492 -5.37522 -8.30487 -0.444071 -0.283058 -1.10504
163 -2.32128 -4.66813 -8.32147 0.79646 -0.298257 1.09048
10 -5.59426 -8.49376 -9.07762 1.34936 -2.88724 -1.50618
119 -0.860474 -6.27491 -8.38694 1.74875 -0.967064 -0.38478
120 -1.46348 -5.47247 -8.28248 -1.0884 2.73168 3.44696
167 -0.684536 -4.54974 -8.48884 -1.87102 -1.12322 1.9902
124 -0.201874 -5.36476 -8.43671 -0.699547 2.24494 0.421192
171 0.650989 -4.42294 -8.24512 0.048202 -0.295023 0.692804
457 -0.169945 -4.67695 -7.69206 0.906526 -2.29755 -1.63706
128 1.58707 -5.42085 -8.40824 -1.69293 1.4839 -0.165088
410 0.700625 -5.24162 -7.68811 -0.742819 -0.471791 -2.27153
132 2.89683 -5.21457 -8.4206 0.128353 2.10962 -1.38371
414 2.04537 -5.42858 -7.57872 0.595144 -0.0659973 1.46199
11 -5.44975 -9.02736 -8.24108 -1.64839 -0.923697 0.73347
295 -7.06833 -9.17688 -6.90873 -0.270989 -0.3761 1.07234
895 2.29232 -9.16566 -3.8423 -0.62768 0.0235216 -0.338016
136 4.55988 -5.3112 -8.53685 1.44911 0.69955 0.212077
179 3.75102 -4.65153 -8.53471 1.20352 -2.72641 -1.01323
469 4.70241 -4.56313 -7.70008 0.22243 -0.220372 -0.862521
174 2.34797 -3.78833 -9.15273 0.547107 -2.27371 -1.01552
135 5.39691 -6.20193 -8.44682 -0.958931 -0.536513 -0.0209096
140 6.21465 -5.24847 -8.2931 2.68358 0.845274 -2.29083
117 -1.72092 -6.03397 -9.12654 -0.294709 -0.528245 0.518597
327 5.34626 -9.09904 -6.92551 -1.26053 0.47253 -1.25443
139 6.77757 -6.19974 -8.32447 1.49917 0.993622 -1.45541
144 7.61355 -5.40679 -8.37601 -1.42249 0.927771 1.3396
129 3.12065 -5.93719 -9.20363 -1.8291 1.23426 0.431616
3483 0.766059 -0.148767 -8.45424 -1.28943 2.78381 -2.59815
191 8.42399 -4.77771 -8.31565 0.275208 0.25398 -0.511931
4079 8.54841 -0.208101 -5.37626 1.81691 1.19979 -2.666
433 -9.0859 -4.55764 -7.72882 -2.39479 -3.2061 0.469566
867 -8.45485 -9.12638 -3.73085 -1.24779 -0.0965456 0.758477
434 -8.26399 -3.79312 -7.60829 -1.48082 0.875394 0.0361853
437 -7.67815 -4.56078 -7.78756 0.0213605 -1.29542 0.284776
152 -7.68495 -3.78875 -8.55001 -1.35305 -1.85587 1.47897
199 -6.83374 -3.28698 -8.53737 -3.94631 -0.800424 -0.530102
189 7.8296 -4.68422 -9.10108 -0.397488 -0.246156 -1.05188
4069 4.59773 -0.0610469 -6.23609 -0.0579552 1.66498 1.84653
155 -5.23594 -4.50698 -8.30278 0.910218 0.279953 -1.51775
156 -6.07203 -3.85457 -8.31954 -0.593349 2.2582 -1.0992
442 -5.32707 -4.00804 -7.40406 -0.0122842 -2.27346 3.10253
1970 -8.46463 -0.694142 -0.150878 -0.409303 1.33972 0.0853917
62 -3.8908 -6.74563 -9.16458 -0.2336 -1.00696 0.402757
160 -4.49143 -3.70244 -8.1871 0.619076 1.02767 -2.51409
446 -3.73852 -3.6804 -7.61601 0.307763 0.0159776 1.72518
493 -4.631 -3.0356 -7.44918 -0.58236 -1.375 -2.8674
194 -8.41132 -2.22296 -9.15755 -0.609322 1.22287 -1.25943
449 -3.13299 -4.55498 -7.57941 -2.04294 -1.09141 -2.67715
164 -2.89137 -3.86848 -8.45457 0.871435 1.66885 -1.61759
450 -2.14154 -3.76731 -7.69384 -0.520984 0.983294 -0.347451
4905 -6.05532 -0.0998628 -1.38327 0.0694699 -0.464673 -1.28198
453 -1.3583 -4.59512 -7.7271 1.71057 -0.316611 2.17018
168 -1.46913 -3.88809 -8.41177 -0.141251 1.07998 1.36738
211 -2.40594 -3.11229 -8.47738 -0.601223 1.99471 -0.502163
501 -1.64595 -3.05482 -7.5895 -1.83717 -1.57292 -2.20426
4621 -4.70172 -0.00297534 -3.00885 1.09136 1.78262 0.481406
172 0.00556958 -3.67818 -8.32114 0.400132 -0.602897 -0.704999
215 -0.854921 -3.08323 -8.31646 -1.16211 -0.647946 -0.741359
3747 -8.46883 -0.101052 -7.0279 -0.137357 -0.462412 -2.43415
3787 6.88858 -0.204951 -7.08381 0.561305 -0.689972 -1.14838
461 1.39841 -4.5515 -7.45234 0.439421 -1.56109 -0.267179
176 1.47756 -3.77979 -8.36695 -2.21026 -0.653525 1.16227
458 0.807276 -3.7959 -7.45878 2.72376 -1.95149 -1.32581
4915 -2.38896 -0.00072693 -0.749637 0.80066 2.19721 1.38345
175 2.16836 -4.54239 -8.18406 1.78097 -0.0941545 1.3221
180 3.11966 -3.88468 -8.42162 0.541427 0.26795 2.3224
462 2.29495 -3.69084 -7.68884 -2.25506 -1.00329 -1.03811
4063 2.36843 -0.0601916 -5.3471 -1.40682 1.27939 -0.897358
184 4.55932 -3.95019 -8.51755 0.591132 -0.606133 -1.06488
466 3.88018 -3.70692 -7.66227 -1.47167 -3.17132 2.96734
619 6.85849 -9.22723 -5.40271 1.68441 -2.26359 -0.936097
183 5.37995 -4.64647 -8.56406 2.09588 -1.25407 -0.271223
188 6.20456 -3.80825 -8.57807 0.821723 1.00538 -1.49249
231 5.3111 -3.17374 -8.616 -1.49808 -0.89541 3.36669
473 6.2231 -4.58994 -7.58366 -1.43535 -1.51616 -1.69419
281 6.13486 -1.53011 -9.06725 0.879649 2.61192 1.72852
4075 6.89654 -0.0789828 -5.38792 2.2102 2.4176 1.20713
187 6.97281 -4.5087 -8.41977 -2.01848 1.77218 -2.24661
474 6.96753 -3.70092 -7.53715 -0.0406529 0.64022 0.102004
192 7.78208 -3.66169 -8.36987 0.328197 -0.0766455 0.979174
319 2.23281 -9.18157 -6.89455 -0.137543 -0.311991 0.733983
185 6.26606 -4.72521 -9.17041 0.137122 -1.54158 0.947816
1463 -0.665884 -9.17639 -0.669281 -0.798978 -1.41543 1.57728
148 -9.14093 -3.86434 -8.45674 2.38016 0.364278 0.617332
478 8.58487 -3.8652 -7.65708 0.0477378 -1.64329 2.72757
321 3.00945 -9.05987 -7.68129 2.85523 2.40206 0.354943
195 -8.45849 -3.08339 -8.5325 1.20275 0.935011 0.857403
243 -8.46986 -1.45571 -8.47859 -0.540263 0.0626362 2.42472
200 -7.42628 -2.51124 -8.49221 -0.086857 -0.338397 2.02829
486 -6.77082 -2.25178 -7.79734 0.354431 -0.514659 1.18967
485 -7.44007 -3.16107 -7.68695 2.61469 -0.683502 0.479548
533 -7.62806 -1.55834 -7.78779 -1.8771 0.229543 2.22422
6 -6.80757 -8.44354 -9.09783 -0.647177 1.02383 0.561231
203 -5.38837 -3.1082 -8.52482 1.12037 -0.724173 -0.882327
204 -6.08319 -2.13595 -8.69321 1.87496 -0.619419 3.65698
490 -5.3269 -2.19662 -7.73418 1.30433 -2.5802 0.381252
2010 7.0103 -0.656997 -0.0929357 -1.98417 -0.451334 0.262142
207 -3.73643 -3.1805 -8.46429 2.1407 -0.289634 1.96598
208 -4.60141 -2.46372 -8.32189 -0.668718 -3.07292 1.22897
494 -3.96429 -2.15871 -7.6228 1.24453 1.51826 2.54711
255 -4.02005 -1.53097 -8.43995 -0.576171 0.0731924 0.388373
212 -3.33765 -2.20664 -8.41734 -0.706254 -1.33029 0.44502
498 -2.45155 -2.22834 -7.72635 2.73877 -1.47975 0.067611
497 -3.27528 -2.88831 -7.56752 1.0567 1.11089 -0.3887
259 -2.41224 -1.47736 -8.33661 -1.76859 0.762162 -0.0747846
545 -3.11468 -1.49871 -7.66206 1.01641 0.0499896 0.149741
607 2.10229 -9.16636 -5.36351 -3.58826 -2.65004 2.77431
2 -8.43869 -8.29638 -9.19192 -0.136659 -0.511441 0.160166
216 -1.61915 -2.3011 -8.2785 2.00443 0.000333152 -0.232903
263 -0.612554 -1.57616 -8.48749 -3.38582 0.844992 -1.93035
549 -1.70317 -1.50668 -7.61979 -2.02826 0.603958 -3.34562
220 0.00992628 -2.48685 -8.4789 -1.39141 1.1538 0.303653
14 -3.9494 -8.40602 -9.18886 1.68958 3.17667 -0.688342
502 -0.825066 -2.28623 -7.5904 0.0146956 2.69116 0.853122
1165 -4.53623 -9.18812 -3.08862 0.71454 -0.606415 1.45352
1485 7.66409 -9.22201 -1.52642 -1.31534 0.41614 -1.36799
219 0.742257 -3.17614 -8.32354 -1.46454 0.367756 -0.436454
509 1.462 -3.0954 -7.44894 0.385263 -0.93363 -0.969437
224 1.43636 -2.43886 -8.49284 -0.05725 -0.0344099 0.166955
267 0.756061 -1.73215 -8.41447 -0.416682 -0.432898 -1.16457
85 4.55818 -7.6269 -9.16197 -1.4619 2.30489 0.764532
223 2.33531 -3.09685 -8.50041 1.33195 -3.26181 -2.37325
513 3.12323 -3.06207 -7.81546 -2.40762 2.1487 2.96179
228 3.14272 -2.38066 -8.60363 1.07621 -0.737757 1.12246
510 2.36571 -2.17516 -7.53402 0.889157 0.410217 -2.91248
250 -5.3548 -0.738299 -9.20302 -2.80658 0.589653 -0.611467
1786 -5.3989 -6.81488 -0.105696 0.409205 -0.282295 -0.185691
190 8.47485 -3.84087 -9.08743 -1.13631 0.26363 1.75011
227 4.00818 -3.14568 -8.61775 1.93643 -1.06186 1.76846
232 4.58892 -2.34435 -8.56521 -0.354968 -0.463736 0.490085
514 3.7588 -2.30839 -7.87276 -1.58639 -0.175388 3.63009
236 6.31806 -2.42983 -8.53679 1.42888 0.691548 -1.72952
521 6.24598 -3.08595 -7.61921 -1.64438 -1.55538 -0.983498
235 6.96316 -3.14716 -8.5269 -2.06477 2.48758 -0.907874
240 7.72719 -2.36945 -8.5223 0.762935 -0.461884 0.0833326
522 7.0186 -2.34235 -7.75788 1.89039 -2.10377 -0.652805
283 7.06553 -1.64418 -8.51503 0.78557 -0.0800355 2.17397
525 7.74049 -3.0931 -7.63281 1.96639 -0.571074 1.47896
239 8.68865 -3.05115 -8.45907 -0.495502 0.637963 -1.62378
196 -9.10394 -2.16691 -8.42869 0.569986 0.222058 -0.29559
287 8.38443 -1.62476 -8.41151 0.464612 -0.270367 -1.42334
529 9.00335 -1.40344 -7.69775 -0.793854 1.50889 -0.977946
98 -8.53373 -5.40773 -9.12659 -0.803252 -2.11912 -0.26668
102 -6.7728 -5.28401 -9.1658 -1.1037 0.828294 -0.0511046
265 -0.00926858 -1.6478 -9.2027 -0.369838 -2.26793 -1.44767
530 -8.64393 -0.633011 -7.7737 2.74048 0.831628 -0.282911
307 -2.32436 -9.21792 -6.92588 -0.871011 -2.66192 0.541953
4057 -0.290625 -0.0640791 -6.13292 2.60334 -0.731731 -0.119724
247 -6.89238 -1.60986 -8.53576 -1.6669 -0.717843 0.340838
248 -7.80512 -0.641291 -8.4344 -1.46596 -0.600556 0.320662
66 -2.16564 -6.93181 -9.2176 -0.958774 -0.615108 -0.255996
1777 9.1267 -7.69528 -0.0194483 -2.34602 0.474663 0.667493
251 -5.43084 -1.40668 -8.448 -0.303512 -0.425687 -0.410802
537 -6.18358 -1.38641 -7.72109 0.749339 2.37783 0.948669
252 -6.20591 -0.770647 -8.54549 0.460468 -0.52252 -0.115978
538 -5.34547 -0.692975 -7.62883 0.29675 0.255981 1.57234
4649 6.23818 -0.156722 -3.07318 -2.29328 0.515163 2.45241
1726 8.43832 -0.71829 -1.56698 -2.52858 0.173835 -0.489801
256 -4.66267 -0.820854 -8.39631 -1.03687 -2.06539 1.01737
541 -4.64055 -1.43469 -7.54688 -1.57529 0.10517 1.05561
42 6.82689 -8.48499 -9.05016 1.76371 1.10933 -0.951117
242 -8.5751 -0.504959 -8.96932 0.278506 0.0474247 -0.493964
162 -2.30577 -3.89744 -9.22923 -1.80839 -0.235447 -4.23483
260 -3.09219 -0.734439 -8.44853 -0.879342 0.0301341 0.309785
546 -2.36233 -0.728173 -7.67446 0.238032 -0.601294 -0.335385
1725 7.88024 -1.46165 -1.47667 -3.87892 -1.56112 -0.30368
1805 1.57556 -7.80343 -0.109188 2.85559 0.0724584 2.69289
264 -1.67334 -0.913922 -8.41899 2.4871 1.12448 -1.15709
550 -0.949268 -0.708118 -7.75605 1.50113 0.0165713 0.686765
268 0.134279 -0.878549 -8.46183 -0.834715 0.235515 -0.628421
554 0.772477 -0.836712 -7.58859 1.37594 1.12731 -1.97678
553 0.0333398 -1.56905 -7.72179 -1.31592 0.231398 -1.43877
272 1.5133 -0.762001 -8.53941 -0.483018 1.12131 1.07361
1185 2.87474 -9.19699 -3.09985 -0.529938 -2.45562 0.580723
1195 7.08212 -9.1891 -2.34673 1.68743 -0.531013 -1.53649
1830 -6.98643 -5.45235 -0.114129 0.359802 0.125358 3.22775
271 2.26791 -1.67311 -8.46942 1.49253 0.266061 2.66086
1467 0.834699 -9.2184 -0.888479 -0.153892 -0.210163 -2.31804
276 2.92224 -0.848078 -8.51465 -3.15264 -0.621719 -2.50615
275 3.71204 -1.58095 -8.47281 2.0191 2.51901 1.70997
280 4.75159 -0.739707 -8.52722 1.76529 -1.61452 0.81714
562 3.7721 -0.827805 -7.83774 -0.89037 0.945559 0.804832
161 -3.11636 -4.5379 -9.22552 -0.00100337 0.142682 0.0990126
279 5.3348 -1.73145 -8.41884 -1.02784 2.95056 2.40254
284 6.03618 -0.615751 -8.4843 0.338122 0.803231 0.234947
566 5.30822 -0.920121 -7.73825 1.20035 -3.28215 0.952774
1793 -3.15144 -7.80831 -0.19958 1.12 1.22807 -0.537342
288 7.74765 -0.725547 -8.45783 -2.11843 1.39854 1.52536
244 9.1473 -0.804499 -8.49263 0.805897 1.69359 0.647574
574 8.4365 -0.635926 -7.68328 -0.29871 -2.20511 -1.87423
875 -5.56301 -9.1126 -3.8349 -0.398084 -0.0396284 0.760154
125 1.44798 -6.133 -9.19834 -0.670684 1.49306 0.0447461
292 9.202 -8.39007 -6.78037 0.331168 1.24222 1.33498
578 -8.43072 -8.46434 -6.19424 0.0802828 1.75289 -2.35651
341 -7.62402 -7.55437 -7.68146 -0.552767 4.06284 -0.399758
903 5.25812 -9.01595 -3.79403 0.2541 -1.65258 -1.69929
296 -7.72838 -8.4918 -6.8011 0.243317 0.770683 1.39081
343 -6.96795 -7.57834 -6.97808 -1.14941 0.64264 1.13022
1809 3.14774 -7.82931 -0.0688848 4.14983 -1.54796 -0.332624
298 -5.50641 -8.18429 -7.60448 -1.52384 -1.95453 -0.919435
345 -6.31154 -7.53481 -7.68438 -0.872271 -2.07394 -0.809761
309 -1.5003 -9.14301 -7.61574 -2.82562 1.27539 -1.09244
300 -6.29164 -8.51588 -6.95311 1.43783 -0.995156 0.986864
633 -6.15775 -7.81824 -6.24355 0.117451 0.941723 0.659694
302 -3.91681 -8.3821 -7.84785 -2.07008 0.416658 0.381729
304 -4.66318 -8.4619 -6.96995 -0.492898 -2.78995 -0.867481
590 -3.94455 -8.56411 -6.14743 2.92537 -3.03252 1.25732
31 2.31535 -9.16365 -8.40785 0.613975 2.88912 -1.06231
308 -3.06958 -8.34332 -6.76037 -0.291688 -1.04925 0.384055
355 -2.16394 -7.88435 -6.98715 -2.10308 -1.33524 -1.57465
594 -2.41832 -8.52175 -6.13624 -1.54551 1.37954 -1.22416
4073 5.97963 -0.0636096 -6.11201 -0.0292154 0.81544 -0.839079
310 -0.711813 -8.53311 -7.6564 2.22169 0.575605 0.197078
312 -1.59344 -8.60635 -6.71591 -0.323936 0.8644 -0.219319
357 -1.55615 -7.67064 -7.71428 0.0335457 -0.946668 0.539754
210 -2.3982 -2.25839 -9.05042 0.372376 -0.797808 0.516407
1985 -2.96527 -1.62989 -0.165808 -1.54683 -0.835981 -0.357214
1821 7.52963 -7.60321 -0.0411082 -2.51449 0.0612775 0.675499
316 0.0469699 -8.48224 -6.96285 -2.66995 -0.411116 1.05275
4617 -6.21466 -0.0572785 -3.00176 2.83631 -0.356542 -0.716004
314 0.756788 -8.27997 -7.85611 0.341547 2.69198 -0.332153
320 1.40533 -8.3573 -6.94845 1.34282 0.687396 -0.501904
318 2.09206 -8.48566 -7.6721 -3.46611 0.108126 -0.38807
324 2.93868 -8.36401 -6.8846 0.432742 0.326823 -0.674785
909 7.7244 -9.04169 -4.54039 0.659426 -0.0747058 0.299825
328 4.48412 -8.46999 -6.9131 0.106243 0.114427 -0.651849
371 3.81368 -7.58267 -7.05575 -1.8579 0.725294 0.0836807
332 6.05446 -8.32429 -7.13127 -1.88416 -2.32891 0.997314
614 5.16324 -8.39631 -6.21558 1.31764 -2.13098 1.8051
1917 7.79603 -4.62475 -0.0153756 0.134466 -0.576342 3.01238
330 6.96363 -8.49465 -7.77572 -0.561119 0.128815 0.372844
336 7.63578 -8.4721 -6.95191 -1.28746 -0.721609 0.0675255
379 6.87453 -7.58146 -7.00269 2.0175 0.769706 0.565272
1789 -4.69426 -7.6873 -0.137544 -0.157441 -0.714479 -0.887245
338 -8.40416 -6.88109 -7.57551 -1.99968 -0.103703 -2.61532
385 -9.1507 -6.2053 -7.47544 -1.115 2.13108 1.43586
339 -8.37892 -7.62981 -6.81277 0.852535 0.788736 -3.4163
387 -8.38333 -6.1478 -6.83801 -1.08471 -0.402427 -0.503453
340 -9.21215 -6.86131 -6.76282 -2.17539 1.26648 0.554828
389 -7.72197 -5.97215 -7.65477 2.26878 -1.73308 3.01
342 -6.96188 -6.60007 -7.62757 0.934773 0.928667 -0.264725
344 -7.68125 -6.72935 -6.93987 -0.564262 -1.2464 1.15985
630 -7.02103 -6.83664 -6.05748 1.63479 0.391361 -1.00169
391 -6.87319 -6.07223 -6.88102 2.18483 -0.815577 -0.413163
393 -6.13757 -6.05325 -7.61849 -3.07597 -0.202611 0.710063
346 -5.37562 -6.63574 -7.40099 2.1067 -1.42589 1.41959
347 -5.42744 -7.64636 -6.84532 1.20124 -1.11494 -2.38406
348 -6.1992 -7.01833 -6.86501 -0.968463 0.86797 -0.334768
349 -4.76294 -7.44476 -7.62382 -0.966414 0.00723483 1.2689
351 -3.93198 -7.65797 -7.01497 0.80619 2.0943 1.01713
637 -4.65192 -7.78165 -6.16297 3.02267 -0.384904 -0.818216
352 -4.6327 -6.8873 -6.797 -0.331298 -0.70762 -0.456167
399 -3.62321 -6.13076 -6.72151 -0.325886 0.457479 -0.910133
638 -3.72479 -6.94535 -6.1086 1.29171 0.167031 -1.18636
356 -2.93418 -6.96582 -6.7713 -0.242276 3.04776 1.09948
641 -2.97198 -7.59863 -6.05577 2.51902 1.63295 2.21624
360 -1.59037 -7.0812 -6.88464 -0.00956698 -1.56697 0.744576
361 -0.0170414 -7.67751 -7.57977 -0.964543 0.0992777 1.38238
359 -0.780657 -7.72994 -6.95789 -0.0450064 -1.16269 0.398138
364 -0.0368449 -6.9589 -6.82118 0.925923 -0.864768 -0.597155
409 -0.0539538 -6.18536 -7.56166 0.363602 -1.70558 0.85205
646 -0.725677 -7.09126 -6.1797 1.16901 0.128365 1.98758
365 1.52794 -7.57182 -7.64885 -2.29481 -1.06541 -0.133795
413 1.5174 -6.18399 -7.47577 1.66951 1.06148 -0.355372
363 0.795452 -7.60621 -7.02411 1.30043 1.33845 -0.00291471
368 1.45292 -6.84856 -6.81154 -0.380847 0.406471 1.87167
653 1.354 -7.69629 -6.1612 1.75038 0.403044 1.24758
366 2.2805 -6.90671 -7.54754 2.58582 1.2769 -4.08704
367 2.24362 -7.72819 -6.9086 -0.372616 1.63152 -1.3584
372 3.03522 -6.86608 -6.99278 0.226766 0.128879 -3.18426
705 2.94768 -6.17493 -6.12756 -2.19563 -0.0901748 1.72532
370 3.86812 -6.69437 -7.70875 -1.98397 -1.84319 -2.54473
376 4.60149 -6.86153 -6.95724 0.820462 0.442565 -1.54692
419 3.78554 -5.99229 -6.8755 0.290813 2.01819 0.0522441
375 5.35933 -7.62562 -6.95353 1.19474 0.327929 -1.27866
380 6.15705 -6.98383 -6.8914 -1.22843 -2.32441 0.459959
662 5.34304 -7.09998 -6.11204 1.04132 -0.37925 1.34769
423 5.41061 -6.26773 -6.74105 2.15247 1.63763 -1.03366
713 6.31394 -6.18304 -6.094 -0.23294 -1.25209 -2.82387
384 7.81449 -6.86695 -6.90179 -0.377447 1.08835 -1.14107
666 6.76416 -7.15262 -6.08732 0.334183 1.61824 0.0268386
427 7.06418 -6.1656 -6.89562 1.57738 1.51255 -2.63219
717 7.76666 -6.12006 -6.14371 -0.390193 0.00273368 -0.627582
383 8.57308 -7.52791 -7.06507 1.91125 -2.08762 -0.237691
431 8.48091 -6.24178 -6.92893 0.761135 -0.158704 1.41042
386 -8.55238 -5.35072 -7.62417 0.939009 1.218 -0.978583
435 -8.41599 -4.53613 -6.85516 -2.40877 0.754956 0.466083
390 -7.03311 -5.33307 -7.61029 0.789184 0.999004 0.705596
392 -7.76316 -5.29922 -6.93544 2.88929 -1.41324 -0.213456
394 -5.48645 -5.39766 -7.56396 -1.30363 -0.943757 0.148486
395 -5.38865 -6.02162 -6.70313 1.19733 0.204764 1.74767
396 -6.08981 -5.28112 -6.82505 -0.619885 -2.45675 0.122407
729 -6.22148 -4.72889 -5.95192 1.85192 0.125184 0.304077
682 -5.29567 -5.44026 -5.89963 2.73371 0.00282598 -1.74511
685 -4.58884 -6.09782 -6.16288 -1.09723 -0.167342 -0.134466
398 -3.77576 -5.48332 -7.61437 0.877785 0.612704 -1.49074
400 -4.57326 -5.34414 -6.76799 0.380031 -0.159642 2.32979
445 -4.62051 -4.70768 -7.49502 -0.855172 -0.489577 -1.17239
733 -4.5784 -4.54219 -6.05237 1.99015 -0.740262 0.884671
401 -3.11766 -6.16851 -7.51108 0.463191 1.50435 -1.2878
403 -2.27205 -6.0945 -6.87208 -0.0458559 2.51909 -0.53457
402 -2.28772 -5.55535 -7.59521 0.45854 0.242306 1.10425
404 -3.04862 -5.26222 -6.80811 1.21566 0.590274 1.76741
690 -2.18833 -5.28967 -6.10218 1.36889 -0.375694 1.05952
407 -0.975496 -6.13328 -6.81614 0.859177 0.575031 -1.89903
405 -1.55531 -6.30896 -7.70646 -0.155356 -1.19899 2.51933
406 -0.828216 -5.58311 -7.56618 0.244977 -2.92019 -1.68786
408 -1.51505 -5.3313 -6.9266 1.45455 -1.71329 2.39323
694 -0.715825 -5.42449 -6.08676 -2.01718 0.821501 0.140781
412 0.140237 -5.26082 -6.8718 0.562761 -0.959287 -0.587193
745 -0.0237765 -4.54438 -5.89491 -2.04635 -1.71968 1.07693
411 0.642388 -6.21615 -6.79081 0.613582 -1.08174 2.24723
416 1.41505 -5.31982 -6.86491 1.88146 0.618574 1.39562
698 0.764488 -5.26472 -6.05981 0.272344 0.820268 -0.529489
415 2.25485 -6.1142 -6.85089 -0.539597 -0.759054 -2.44384
420 3.03556 -5.23823 -6.92 -1.19229 -2.37542 1.11555
465 3.05936 -4.57696 -7.74784 0.371185 -0.649938 -0.984702
702 2.2086 -5.4814 -6.12242 -0.0595474 -2.73964 1.45885
753 2.87663 -4.64825 -6.12955 2.97549 -0.387165 -2.63214
418 3.81334 -5.16365 -7.63886 -0.387077 2.97835 -0.237551
424 4.53177 -5.41494 -6.80523 -1.15176 -0.0765282 0.46874
757 4.73164 -4.62009 -6.13164 0.849292 -0.955255 -2.25886
422 5.27415 -5.43456 -7.46998 -1.05761 3.6349 0.391991
428 6.32739 -5.37895 -6.82067 1.6051 -1.44658 -0.655326
471 5.42353 -4.58851 -7.00797 -1.7116 1.97954 1.0575
710 5.38361 -5.45656 -6.11996 0.725757 1.88879 -0.634848
477 7.74947 -4.69212 -7.54281 -0.484125 3.27397 -1.57993
426 6.96158 -5.37922 -7.6749 1.35216 -0.198082 -0.820016
432 7.82054 -5.46691 -6.85421 -0.434627 1.91061 -1.8298
714 7.0907 -5.37067 -6.07569 -1.47069 -3.01298 -0.586377
430 8.56222 -5.53037 -7.60637 -0.402823 1.47666 -0.55949
388 9.21399 -5.28301 -6.79113 -1.75863 -1.17594 2.25231
479 8.60893 -4.6637 -7.06262 0.999481 2.82439 0.108005
721 9.15047 -4.66909 -6.08704 -2.90907 1.3985 -0.240247
436 -9.19819 -3.82257 -6.80072 -0.380743 -1.63042 0.961265
722 -8.40997 -3.84364 -6.06145 0.84195 0.591353 -1.00745
439 -6.98835 -4.63656 -6.83006 1.48907 0.199882 -0.927309
438 -6.79198 -3.95078 -7.72421 0.086262 0.851975 -2.4768
440 -7.60216 -3.89064 -6.96073 0.0949205 -1.32909 -0.219442
726 -7.05512 -3.91891 -6.11858 3.8779 0.751383 -0.463904
773 -7.62736 -3.08747 -6.27887 0.79496 -1.42834 1.28601
443 -5.34017 -4.66802 -6.646 -0.369113 0.667525 1.96358
441 -6.19809 -4.58988 -7.64392 1.18234 -2.68304 -1.27498
444 -6.21537 -4.02784 -6.86695 -2.72614 1.72907 -1.83446
447 -3.79506 -4.5355 -6.8235 -0.1024 3.13966 2.11941
448 -4.65541 -3.82037 -6.77546 0.27142 -0.672004 -0.902848
734 -3.98389 -3.80406 -6.07083 1.12718 0.418295 0.594193
451 -2.2226 -4.49506 -6.9651 0.566478 -0.164213 0.310941
452 -3.04382 -3.76802 -6.82592 -1.42754 -0.109242 -0.0771807
738 -2.21741 -3.87372 -6.06298 -1.71088 -0.522472 -0.681911
499 -2.29338 -3.00118 -6.72792 1.44885 -1.50679 -0.00155936
455 -0.758171 -4.60256 -6.73198 0.239238 -0.358313 0.0339901
456 -1.6022 -3.79968 -6.9251 -1.828 -1.11407 0.741271
454 -0.836274 -3.73264 -7.5761 -0.301022 2.45298 -1.53501
505 -0.0653079 -3.04954 -7.58443 0.508189 0.114588 -1.49817
503 -0.968263 -2.98778 -6.78538 2.08504 -2.08457 -0.534814
460 -0.00651004 -3.91211 -6.83418 -0.556984 -1.79872 0.585614
507 0.732815 -2.99949 -6.84243 -0.956613 0.211074 1.19705
459 0.676312 -4.50498 -6.67914 1.1384 -1.97725 0.103187
464 1.58741 -3.80767 -6.81127 0.552558 0.471997 -2.23006
746 0.730891 -3.78645 -6.1618 -0.770479 -1.65787 -1.31056
749 1.59645 -4.63628 -6.18597 1.27827 -1.80285 1.64004
463 2.2682 -4.58751 -6.94455 3.26124 -0.0557133 0.404259
468 2.96957 -3.90329 -6.83664 -0.391587 -1.17358 0.704565
750 2.41095 -3.7223 -6.10007 2.82031 -0.0698441 -0.645514
511 2.35468 -3.0228 -7.04643 1.88005 0.821714 -1.09148
467 3.79886 -4.59333 -6.79264 0.0521495 0.0662071 -1.94836
472 4.68518 -3.90068 -6.94141 2.55949 1.00624 -0.104067
517 4.66159 -3.14127 -7.63106 -0.0993658 0.841595 0.217128
470 5.32628 -3.87031 -7.94935 -0.871467 1.54065 -2.66972
476 6.18414 -3.8565 -6.89882 1.02597 3.16704 -1.39692
475 7.06588 -4.61756 -6.95147 -2.02834 0.219618 0.291573
480 7.81263 -3.89696 -6.97769 -1.19509 -1.79534 -0.568229
765 7.72749 -4.62822 -6.19849 1.22692 0.357637 -1.49447
762 6.9858 -3.97773 -6.17365 -1.6692 3.01071 -1.42525
766 8.45687 -3.81353 -6.14962 1.52479 0.691482 -1.73832
769 -8.96917 -3.01123 -6.17055 -0.316703 0.00291135 -1.24745
482 -8.27763 -2.28811 -7.93881 2.10545 -1.59049 -1.47211
483 -8.38498 -2.93559 -6.99184 -0.0462569 -0.0775815 0.769652
531 -8.41955 -1.44401 -7.17264 3.62214 1.02925 1.27822
770 -8.31499 -2.1845 -6.31852 1.64738 -0.897061 1.82614
487 -6.70301 -3.16093 -6.99342 0.377198 -1.16423 -1.5742
488 -7.60138 -2.29897 -7.16159 -2.61336 -0.478445 2.40925
535 -6.82677 -1.34154 -6.7748 1.00679 1.48007 0.231182
774 -6.86378 -2.19523 -6.31411 1.89788 0.544635 -0.692523
489 -6.14442 -2.99908 -7.821 0.139386 -2.20835 -2.33468
777 -6.36235 -3.14584 -6.09986 -0.762578 2.05935 0.417656
491 -5.47228 -3.09907 -6.80863 -0.533713 1.2564 1.89559
492 -6.1414 -2.2866 -6.99273 -0.149976 1.49796 -1.49542
539 -5.52829 -1.51583 -6.93012 -2.01518 0.93143 -1.45817
825 -5.9941 -1.48046 -6.12696 1.17387 1.52344 0.0430671
778 -5.6029 -2.36364 -6.00054 1.20833 1.19902 0.248264
495 -3.8099 -3.17347 -6.78723 -0.548646 2.0288 2.08595
781 -4.80252 -2.99337 -6.04262 1.05462 -2.26179 -1.87816
496 -4.77941 -2.15914 -6.90896 0.178592 0.246177 2.35239
543 -3.93307 -1.44203 -6.84242 1.33427 -1.25488 2.25185
500 -3.00122 -2.22418 -6.85888 1.16617 0.676328 0.241763
547 -2.45028 -1.47731 -6.85482 -1.63885 -2.06782 -0.338439
786 -2.45011 -2.03103 -6.02142 -2.0786 -1.22299 -0.017006
504 -1.58759 -2.15393 -6.75783 -1.6708 -0.643383 1.83427
508 -0.026117 -2.28883 -6.92398 0.746251 -0.435129 -2.56206
506 0.779712 -2.3466 -7.63968 -0.787154 1.57957 -0.41205
794 0.69359 -2.21744 -6.15493 0.578358 -1.97259 1.05079
557 1.60505 -1.59979 -7.66709 0.598705 -0.470171 -0.912092
512 1.39117 -2.27273 -6.82927 0.0173165 1.51276 0.328153