ITEM: TIMESTEP
66000
ITEM: NUMBER OF ATOMS
6912
ITEM: BOX BOUNDS pp pp pp
-9.2265715179435492e+00 9.2265715179435492e+00
-9.2265715179435492e+00 9.2265715179435492e+00
-9.2265715179435492e+00 9.2265715179435492e+00
ITEM: ATOMS id x y z vx vy vz
4 9.15033 -8.4604 -8.48906 0.949586 -0.721946 -3.56719
51 -8.55115 -7.61971 -8.34748 3.17056 -1.21674 -1.31298
337 9.1469 -7.63394 -7.70548 0.656391 -0.867495 1.36331
889 -0.0798236 -9.19466 -4.73458 0.439251 -2.43699 0.957284
8 -7.71687 -8.43005 -8.584 3.91506 -1.62441 -1.84647
294 -7.09863 -8.4912 -7.79767 0.476669 0.416885 -0.265127
12 -6.16213 -8.51816 -8.49092 0.641223 1.85388 0.446455
305 -2.89783 -9.22223 -7.64741 -1.39026 -0.0377772 -1.12776
16 -4.56432 -8.47717 -8.48911 2.09297 0.222447 -1.69652
302 -3.90943 -8.44447 -7.71651 -0.982367 0.176281 -0.201393
4067 3.87125 -0.0766634 -5.30087 0.752852 -3.28778 3.17838
20 -3.03608 -8.47568 -8.43298 -1.10927 2.49054 -0.273311
306 -2.20662 -8.38446 -7.66494 -0.97422 -1.83228 -2.23822
278 5.27133 -0.85468 -9.18295 0.252491 -0.316729 -0.420595
250 -5.34903 -0.620266 -9.18062 -2.64201 0.744514 0.848339
24 -1.48827 -8.56914 -8.48157 2.98894 1.38651 1.29722
42 6.99712 -8.56988 -9.1947 0.0199751 -0.594259 -1.4116
28 0.0619269 -8.51618 -8.21727 -0.11514 0.553546 0.177917
361 0.032985 -7.72947 -7.54065 0.519975 1.3694 -1.85886
314 0.838876 -8.41787 -7.50059 -0.540694 -2.43828 0.971108
230 5.35699 -2.44414 -9.11463 -1.63056 -1.82608 0.27489
601 -0.0256303 -9.18276 -6.20941 -0.521434 1.27591 1.0042
32 1.53406 -8.32345 -8.37171 1.70766 1.24125 1.35384
36 2.98948 -8.33534 -8.55784 -0.955521 -0.289002 -0.85151
619 6.9164 -9.03846 -5.40797 -1.35208 -1.42544 0.60268
93 7.7195 -7.70367 -9.18502 0.933791 0.228927 0.847566
40 4.63805 -8.52299 -8.60466 -0.118104 0.627381 -1.43161
4935 5.39648 -0.105884 -0.663901 -0.525101 -1.13643 0.664236
3491 3.81979 -0.105896 -8.27827 1.08069 -1.8116 1.76867
3747 -8.57485 -0.0568945 -6.89409 0.417746 -0.229281 0.41966
3763 -2.41238 -0.112077 -7.01364 0.624708 -0.362802 -0.503785
44 6.14108 -8.61178 -8.79583 0.23061 1.16898 -0.370258
87 5.37041 -7.57764 -8.58054 1.24678 -1.23641 0.977479
326 5.31478 -8.32793 -7.64047 0.596734 -1.48673 0.799069
48 7.6617 -8.67773 -8.53831 -1.34187 0.0863006 0.0909335
91 6.73668 -7.91386 -8.50273 -0.593289 2.1341 -1.62992
381 7.58574 -7.7718 -8.04425 0.593066 -2.00768 1.49381
330 6.79622 -8.60421 -7.72617 0.405598 0.735736 1.99512
95 8.45316 -7.62173 -8.42584 -0.467556 -2.04677 0.663671
611 3.74729 -9.13652 -5.462 -0.491943 -0.252466 -0.442229
334 8.35797 -8.54047 -7.88437 1.37995 -0.856813 1.15583
99 -8.4961 -6.24231 -8.49579 1.16686 0.853272 1.66294
385 9.08112 -6.17052 -7.59305 1.12657 0.127475 2.22719
338 -8.56567 -6.95143 -7.60829 -1.7346 0.060367 0.215539
3495 5.21904 -0.11124 -8.53024 -2.90376 2.18149 1.08113
55 -7.00943 -7.63266 -8.64702 -0.929792 -0.61577 -2.24056
56 -7.73558 -6.96515 -8.51587 0.340972 -0.37594 1.17941
341 -7.60215 -7.68887 -7.78184 3.32387 1.30362 -1.49758
1441 -9.19261 -9.19256 -1.51546 1.25232 -2.36364 1.0095
59 -5.40097 -7.7028 -8.40444 -1.73714 -0.0612382 1.38484
60 -6.09528 -7.04266 -8.51573 1.36934 -0.693626 1.0707
346 -5.32336 -6.85102 -7.9095 -0.444314 -1.52186 -0.419663
63 -3.64867 -7.64283 -8.60791 -0.71923 -1.17407 2.21846
64 -4.50478 -6.86039 -8.6457 -0.601753 0.319751 0.800273
350 -3.79327 -6.78666 -7.79629 -0.170384 -0.248393 -2.10135
397 -4.5648 -6.13382 -7.65371 1.09089 2.60253 0.595476
67 -2.12888 -7.7523 -8.41506 2.77358 0.32252 0.478431
68 -2.78331 -6.92708 -8.54635 0.921299 -0.986796 -1.2132
115 -2.18793 -6.04801 -8.60155 -0.771287 1.5428 -0.339431
353 -3.11291 -7.69816 -7.68055 -2.6838 -1.75428 0.967691
72 -1.56299 -6.84393 -8.63061 4.50695 1.73166 -0.552502
71 -0.874041 -7.7873 -8.49463 -0.97189 2.13698 0.685123
76 0.0362267 -6.90011 -8.29284 -0.0516999 0.339842 1.61384
75 0.794367 -7.52225 -8.26455 0.20162 -1.70326 0.757674
365 1.56968 -7.65422 -7.68688 -1.57339 -0.446658 2.22438
80 1.48979 -6.72472 -8.40213 -0.314143 0.01357 0.797721
123 0.567829 -5.92975 -8.55895 -1.538 0.139842 0.655105
79 2.23914 -7.5818 -8.40492 1.90018 0.94193 0.725677
84 3.06154 -7.03537 -8.43328 2.38174 -1.54158 3.80773
127 2.29864 -6.27081 -8.35565 0.232062 -0.0427592 2.95595
366 2.16919 -6.8413 -7.62587 0.208905 1.50718 0.414457
417 3.04174 -6.02365 -7.78347 -2.44945 -1.30987 2.2449
83 3.79757 -7.62885 -8.49519 -0.976962 0.938742 1.46904
88 4.6089 -6.91924 -8.63671 -0.528778 -0.536223 1.33172
131 3.66502 -6.16432 -8.45359 -1.98372 -2.57474 -0.936588
92 6.18439 -6.91733 -8.56153 1.38631 0.528755 -2.72034
377 6.10356 -7.8445 -7.72506 0.434187 -0.268749 -2.90604
106 -5.44174 -5.34971 -9.12702 -0.273881 0.939315 1.6087
374 5.43433 -7.01139 -7.77844 0.713739 0.988763 1.83772
77 1.55057 -7.55785 -9.0879 0.648864 -0.472154 1.46236
96 7.66608 -6.96849 -8.49891 -1.56508 -1.55357 -0.0764352
378 6.86378 -7.13661 -7.85604 -2.95433 -0.508556 0.558684
52 9.14127 -6.92261 -8.46858 -3.18593 0.718802 0.228607
382 8.52747 -6.97004 -7.47113 0.782448 -0.545378 3.20499
386 -8.3777 -5.27941 -7.8288 -0.116961 3.1047 -1.73243
581 -7.73815 -9.17979 -6.0895 -1.48063 1.57481 -0.265296
3787 6.85119 -0.0455903 -6.93961 -0.137863 0.827472 -0.565467
103 -6.98472 -6.23266 -8.45817 1.00548 -2.21912 -2.60907
104 -7.87247 -5.48545 -8.69722 -0.573487 -1.43057 -1.00065
390 -7.09201 -5.52588 -7.76687 -0.252129 -0.423388 0.0722774
4919 -0.705139 -0.156036 -0.712505 0.141377 0.524929 0.07872
107 -5.41341 -6.05462 -8.36175 -2.59941 1.08605 -1.55504
108 -6.22104 -5.34166 -8.46424 -0.0714006 0.0759561 0.493981
185 6.06531 -4.48544 -9.13793 -0.237543 0.276175 1.562
394 -5.47976 -5.32685 -7.79732 -1.23124 -1.97883 -1.13589
3489 3.11582 -0.0396999 -9.05653 0.168255 -2.22936 1.2546
891 0.882065 -9.23014 -3.89812 0.134155 -2.68829 -2.51459
111 -3.91298 -6.0354 -8.43033 -1.00462 1.2591 -0.805304
112 -4.68072 -5.36124 -8.50525 -1.21386 0.218936 0.902354
401 -3.01569 -6.23816 -7.80239 0.455406 -3.21414 -0.740558
116 -3.04733 -5.24452 -8.45103 1.45135 -1.06131 0.173271
402 -2.3732 -5.55129 -7.69102 -1.13025 0.140392 1.42731
119 -0.965381 -6.09904 -8.46647 -0.443625 -0.430678 -3.18375
120 -1.65 -5.23396 -8.49751 -4.20297 1.06119 -2.55032
4337 -3.16516 -0.126282 -4.52881 1.39222 -0.868301 -1.40963
167 -0.799469 -4.35484 -8.51069 0.900617 2.09931 0.167517
124 -0.0624417 -5.14942 -8.47415 -0.306815 -0.354167 -1.34235
128 1.37615 -5.39643 -8.72569 0.414504 1.38715 -3.96787
410 0.637232 -5.28964 -7.74091 -1.12482 -1.84563 0.320667
132 2.99573 -5.43149 -8.57669 1.61748 0.113707 0.505887
414 2.32605 -5.37671 -7.69383 -0.40256 -0.3215 0.964274
4073 6.13945 -0.0603226 -6.1199 0.60105 0.150061 1.07287
136 4.76934 -5.37051 -8.60804 1.72615 -0.891633 1.95049
179 3.77955 -4.52569 -8.59674 2.50017 1.69565 2.57156
418 4.11778 -5.43591 -7.91677 0.104956 2.0607 -0.544763
421 4.79038 -6.23241 -7.69942 3.04815 -0.95018 2.16378
469 4.60962 -4.56889 -7.74374 -0.930275 0.775312 2.78403
135 5.31896 -6.20394 -8.56406 0.519193 2.96032 0.998805
140 6.23726 -5.37257 -8.50267 -0.629266 0.137923 1.71482
183 5.37574 -4.54351 -8.3617 -0.171179 -0.611986 1.47305
425 6.181 -6.14815 -7.67251 -0.477523 0.194812 0.818908
3745 9.0259 -0.0747696 -7.69399 0.518588 0.840994 0.312062
881 -3.04444 -9.16953 -4.58204 -3.62326 -1.14616 1.1724
139 6.88747 -6.17605 -8.43612 -1.18184 -1.2291 -1.90281
144 7.59006 -5.33322 -8.42961 -2.49836 0.0523193 -0.823381
187 6.99617 -4.59296 -8.42727 0.0781423 0.687977 1.35159
477 7.81707 -4.65495 -7.60987 2.48904 -1.06404 -0.199655
1981 -4.7561 -1.4197 -0.123445 0.489513 2.19024 -1.07964
143 8.31047 -6.19733 -8.27157 1.63024 1.62075 2.28881
100 9.22994 -5.5084 -8.47413 1.87904 0.045051 2.03617
430 8.52832 -5.37406 -7.47127 0.430065 -0.753806 0.283172
433 9.15596 -4.60111 -7.64381 1.04145 -0.143818 -0.500579
147 -8.33422 -4.67785 -8.53846 4.01355 -0.121947 -0.0366786
148 9.08098 -3.89509 -8.43978 -0.840681 0.650917 -0.654736
195 -8.33321 -2.96864 -8.357 -0.719656 -0.0591327 -1.53054
621 7.50545 -9.18005 -6.13952 -2.5183 2.08388 -0.327782
151 -7.03349 -4.72574 -8.38918 -2.23134 -0.812434 0.143259
152 -7.70895 -3.77675 -8.31841 0.554698 -1.47263 0.160249
74 0.705474 -6.96064 -9.11461 1.02756 -0.665449 -1.37803
155 -5.37214 -4.61842 -8.4236 -2.06133 0.584683 -0.697205
156 -6.22386 -3.96554 -8.47036 0.387769 0.97289 1.45412
442 -5.41067 -3.73737 -7.53222 -1.11374 2.66279 0.566241
159 -3.86195 -4.68884 -8.32205 0.458089 -1.68924 1.84365
445 -4.6811 -4.68059 -7.74235 -1.60522 -0.345134 -2.00734
160 -4.71915 -3.88297 -8.30594 -0.573738 -1.48642 -1.95811
446 -3.84439 -3.84109 -7.69338 2.1749 0.982356 2.04687
207 -3.90043 -2.92862 -8.47252 -1.59456 -0.525951 1.93537
277 4.6741 -1.63928 -8.93754 1.77866 -1.26341 -0.500606
163 -2.35719 -4.37261 -8.40849 -0.234031 0.0500308 0.539078
164 -3.22469 -3.87216 -8.4955 -1.15513 1.73688 -1.81764
211 -2.45828 -3.12638 -8.38292 -1.5252 -0.416884 -3.57156
449 -3.13973 -4.50561 -7.58541 0.653618 0.9763 3.19961
450 -2.35763 -3.68557 -7.51417 0.266405 -0.126118 0.293199
497 -3.26284 -3.01961 -7.6385 0.89218 0.500763 -0.472358
168 -1.62045 -3.7538 -8.38899 0.822103 0.971858 -0.588614
501 -1.64012 -3.05123 -7.51439 -2.95893 -1.54497 -0.38816
215 -0.728136 -3.0113 -8.34635 0.368315 2.38652 -0.5493
453 -1.49611 -4.56206 -7.79288 -3.60885 -1.97713 0.272347
172 0.0619945 -3.78541 -8.42001 -2.4138 -1.08023 1.85656
171 0.740653 -4.57728 -8.71037 1.97824 -0.190586 0.325044
461 1.47868 -4.75909 -7.78529 -0.422401 -1.98015 0.516547
219 0.79357 -3.18486 -8.5375 -1.4335 1.50425 -0.677128
176 1.50437 -3.8835 -8.64892 -2.76067 0.759152 0.994133
458 1.07486 -3.94363 -7.7426 -2.35541 1.14462 -1.546
879 -3.79431 -8.94038 -3.85645 -0.856905 -2.30287 -1.85122
175 2.25999 -4.7926 -8.51687 2.468 -1.00055 -0.900893
465 3.41815 -4.80803 -7.71722 0.579331 -0.854684 1.29958
73 0.0606359 -7.79302 -8.92215 -1.98812 0.480454 -0.197645
180 3.18287 -3.83481 -8.57677 -0.193417 -1.48698 -1.6376
462 2.27901 -3.97193 -7.75553 2.04108 3.3766 -3.0924
4643 3.76739 -0.0138776 -2.18788 -0.496946 -0.133591 -0.295692
184 4.58099 -3.83383 -8.48047 1.99577 1.52662 0.231768
227 3.85208 -3.18808 -8.41891 -0.765037 -1.22014 -0.244662
466 3.86528 -3.86472 -7.84104 -3.42288 -3.05314 -0.348197
1473 2.96705 -9.08027 -1.51813 0.375018 -1.54455 -1.58898
4347 0.729454 -0.07594 -3.85142 -1.12561 2.28586 -0.380711
1738 -5.32739 -8.51955 -0.0686437 1.26564 0.950281 -0.0684123
188 6.07277 -3.66923 -8.47642 -1.57979 1.61601 -0.359558
231 5.22615 -3.17389 -8.39616 -0.947772 -0.791969 1.60916
3475 -2.40964 -0.115279 -8.26084 -0.647299 1.1403 2.67619
192 7.66443 -3.88866 -8.29518 2.62788 2.39738 0.147011
97 9.09244 -6.15806 -9.23293 1.7842 1.4278 -2.38246
191 8.47595 -4.69969 -8.46747 0.662975 1.6825 0.732393
61 -4.58896 -7.67311 -9.16973 0.601503 -1.15215 0.258355
307 -2.32275 -9.15016 -6.9899 -0.43817 -2.87579 1.82116
1193 6.1474 -9.06877 -3.02516 1.69823 0.643159 1.55703
199 -6.85973 -2.99447 -8.56536 -0.081043 -0.359444 1.83915
200 -7.60736 -2.29907 -8.69558 1.0529 -1.34792 -0.307577
485 -7.53171 -2.98999 -7.74083 1.19603 0.252481 1.71945
905 6.12388 -9.14925 -4.63291 0.433405 -3.11548 0.128874
203 -5.42323 -3.158 -8.39483 -0.798649 -1.17878 -0.907029
204 -6.20453 -2.2259 -8.49583 -0.698413 0.565363 1.43531
490 -5.59361 -2.40305 -7.66445 -1.42478 -0.247559 0.19319
34 3.82659 -8.50905 -9.04107 0.341507 -1.78647 2.50555
1857 3.0416 -6.0695 -0.047657 -0.798071 -1.6697 -0.238551
208 -4.70296 -2.36172 -8.56402 -0.151843 -3.82916 -1.15097
494 -4.02298 -2.24827 -7.70212 -0.632897 -0.370375 -0.0195504
212 -3.18247 -2.28952 -8.46737 -2.24769 -0.177765 0.437768
498 -2.4135 -2.36134 -7.68406 0.267462 1.80632 -1.26594
29 1.49497 -9.1981 -9.18735 -1.22501 1.90904 1.75576
216 -1.64444 -2.4735 -8.32682 1.62561 -1.12546 0.927644
502 -0.841258 -2.41664 -7.64097 2.71365 0.916313 -1.03403
220 -0.0147536 -2.30361 -8.63395 2.05652 -3.2205 -1.08702
224 1.54717 -2.3968 -8.57748 2.22374 -0.0233143 1.83053
267 0.797132 -1.60031 -8.49164 -0.935547 -1.27011 -0.354389
583 -6.8916 -9.05747 -5.24066 0.509646 -1.19083 -1.80484
223 2.37102 -3.16519 -8.52097 -0.319072 -1.04739 0.243968
513 3.04406 -3.26434 -7.78352 3.2714 -1.19987 -3.01856
228 3.09393 -2.36899 -8.4268 -1.45479 0.4449 2.11066
271 2.26157 -1.66403 -8.4739 -1.65065 -0.954809 1.07203
78 2.42306 -7.04815 -9.18537 3.70412 -0.031608 -0.207035
3769 -0.0294331 -0.00775749 -7.71404 -1.2887 0.476168 -0.755823
3479 -0.777957 -0.195923 -8.34323 0.786713 -0.276889 0.398577
232 4.45897 -2.40592 -8.34232 -0.695958 1.10662 -0.357852
275 3.82445 -1.70569 -8.40978 1.58639 -2.11826 -0.869022
236 6.04203 -2.34563 -8.39863 0.258599 0.692661 1.10434
4359 5.31028 -0.181362 -3.71108 -2.19412 -0.417463 1.29363
279 5.38584 -1.60568 -8.24827 -0.125271 -1.34055 -1.59674
569 6.20015 -1.45969 -7.66874 0.0524505 0.569299 -3.30876
4061 1.38321 -0.134271 -5.96956 0.41218 -0.848432 0.0515155
525 7.65127 -3.0977 -7.65208 2.89629 -0.515366 -1.19776
235 7.04355 -3.19986 -8.51383 0.423404 0.595334 0.63783
240 7.79789 -2.36042 -8.46206 -0.992144 -0.275827 0.808834
283 6.8743 -1.67313 -8.44609 -0.632633 1.08539 -2.47092
237 7.80734 -3.10015 -9.22046 1.19964 1.41683 -2.99762
234 7.06418 -2.32903 -9.12571 -1.52854 -1.50883 -0.296155
196 9.22457 -2.27517 -8.36649 0.658418 -1.98514 -0.632169
239 8.448 -3.04049 -8.53812 -0.408367 -0.0730853 1.55936
887 -0.748651 -9.21615 -3.96245 0.589946 1.81544 0.329375
243 -8.51135 -1.50665 -8.54851 -1.3958 -1.03656 0.147201
244 9.1678 -0.80657 -8.44445 -0.273518 1.61752 1.10823
1163 -5.51931 -9.15692 -2.24311 -1.62582 -0.475821 -1.02552
105 -6.22937 -6.22301 -9.12865 1.34743 1.97142 -0.17724
247 -6.90486 -1.5403 -8.4895 1.89816 -2.32103 0.809891
248 -7.80023 -0.700163 -8.25867 0.0497537 0.0237141 1.26529
1850 1.04875 -5.3034 -0.0609448 0.950513 -1.88327 0.691003
609 3.01607 -9.12455 -6.1526 -1.70187 -1.80494 0.325559
869 -7.59247 -9.16738 -4.55039 -0.24502 -0.222267 -0.37926
251 -5.43251 -1.48386 -8.52536 -2.30776 -0.523932 -1.28192
252 -6.19234 -0.721168 -8.5557 1.19463 3.07793 -0.13291
538 -5.31114 -0.621496 -7.69096 0.518882 0.169936 -1.33656
3483 0.577681 -0.023575 -8.51461 1.29988 -3.18663 -1.01421
31 2.28369 -9.06656 -8.49304 -0.420058 -0.742805 -1.62769
255 -4.0895 -1.45768 -8.36187 -0.322704 -0.706939 0.289439
256 -4.69243 -0.644186 -8.46678 1.03036 -2.61187 -0.764412
1813 4.58231 -7.68196 -0.0553498 -2.21856 0.783358 0.282005
4617 -6.20553 -0.084077 -3.05831 1.90582 0.546849 -1.54478
259 -2.34982 -1.57488 -8.33823 -0.0779054 1.26099 -1.81629
260 -3.28923 -0.81889 -8.43852 0.779486 -0.918508 0.843485
4065 2.94085 -0.13339 -6.24299 2.35751 1.06854 1.45848
263 -0.852207 -1.47567 -8.35324 2.16761 1.30713 -0.606981
264 -1.56513 -0.792791 -8.33776 -2.45017 -1.00098 -0.13212
546 -2.46488 -0.848934 -7.63231 1.21197 1.15414 -2.46685
865 9.22129 -9.13767 -4.6208 -0.743529 0.135727 0.877152
268 -0.023044 -0.830405 -8.39486 0.337216 -0.322171 -0.0556524
5205 -1.58885 -0.0213417 -0.206581 0.982548 -0.0387126 0.103427
6 -6.81937 -8.40188 -9.18436 -1.39748 0.794704 -0.364727
272 1.66471 -0.75894 -8.43155 2.136 -0.932458 0.701381
3759 -3.96731 -0.14 -6.85796 -1.54979 -1.38274 2.69254
3765 -1.59823 -0.197421 -7.59403 3.15694 3.44983 1.92292
607 2.07711 -9.11405 -5.37642 3.19189 1.13833 -1.18476
276 3.16112 -0.944592 -8.45366 0.306593 0.663311 -1.61956
909 7.66376 -9.16305 -4.59223 -0.294279 -0.757649 -0.656822
280 4.62462 -0.873102 -8.24004 -0.136302 0.0269312 1.86657
1761 3.05524 -9.05872 -0.123318 0.273192 0.0574141 -0.933833
284 5.99184 -0.617783 -8.34223 0.73962 -0.957409 2.8035
566 5.35438 -0.81926 -7.5686 5.81279 2.00784 -1.87495
182 5.34218 -3.75673 -9.22773 -1.18298 0.129036 -0.453942
1978 -5.50854 -0.701117 -0.0612602 1.02761 -0.911677 -0.387036
288 7.77082 -0.891291 -8.41009 -4.47963 0.179842 0.686379
266 0.700817 -0.836822 -9.17424 -0.461941 0.303417 -0.293525
287 8.52474 -1.50778 -8.65307 -0.862024 -0.06217 3.18073
1858 3.81785 -5.34967 -0.00697775 0.44985 0.466928 -0.886592
290 -8.49049 -8.624 -7.72094 -0.100984 2.37588 0.264728
292 9.17153 -8.47377 -6.90855 -3.69848 -1.74336 -2.82402
578 -8.46904 -8.48804 -6.28491 1.26653 1.29735 0.483275
296 -7.67546 -8.56185 -6.93867 -0.00764406 1.30865 -2.49743
343 -6.93615 -7.85223 -6.88798 -1.85705 -0.898481 1.01257
315 0.768062 -9.18198 -6.84642 1.56605 -2.91345 0.349118
298 -5.37175 -8.50507 -7.86228 1.05198 -0.335781 -1.53043
4611 -8.31543 -0.111084 -2.50704 -0.820173 1.25723 0.406069
300 -6.10168 -8.40342 -6.97043 -0.657845 0.877386 -0.947239
586 -5.19559 -8.5049 -6.1104 1.53463 -0.0604867 -0.272672
297 -6.2395 -9.07592 -7.67519 3.39626 -1.37905 1.42151
299 -5.34299 -9.15574 -6.98882 -1.8956 3.42758 -0.872328
349 -4.59846 -7.65777 -7.79347 0.410472 -0.38646 0.943811
304 -4.5794 -8.47258 -7.01727 -0.432765 -1.21212 -1.04862
351 -3.98991 -7.63267 -7.06641 -0.0279334 -0.887892 0.297413
637 -4.75059 -7.69102 -6.37045 1.3379 1.5298 0.818752
190 8.50283 -3.87711 -9.19592 1.09764 2.49285 -1.14798
157 -4.60868 -4.62456 -9.13146 1.72873 -0.552289 -1.16058
308 -3.04944 -8.36862 -6.9411 -0.040974 0.651559 -0.0947636
594 -2.29267 -8.50394 -6.20408 3.88034 -1.47373 -0.149037
310 -0.769071 -8.47442 -7.62987 -0.79011 0.6068 -0.422834
312 -1.5805 -8.37608 -6.90808 -0.70809 -0.535994 -0.297446
316 0.0439833 -8.39197 -6.83808 -0.666325 -2.17875 0.184748
602 0.783549 -8.46599 -6.1459 0.408549 0.525489 0.23254
270 2.37129 -0.841067 -9.04464 1.75078 -0.503589 -3.10552
1777 9.15578 -7.87455 -0.0465631 2.25 -0.96366 -2.23878
320 1.68439 -8.3541 -6.75137 -2.61061 -1.76467 -2.4316
4923 0.908038 -0.155109 -0.798694 -0.909431 1.55988 -0.849375
318 2.40187 -8.46779 -7.62189 -0.420201 -3.83833 4.60907
324 3.08788 -8.51591 -6.8883 0.449576 -0.344299 2.96378
606 2.28436 -8.37465 -6.10548 -0.679068 0.648936 -0.963545
10 -5.39009 -8.39742 -9.1444 -1.30495 0.566519 2.20953
322 3.71269 -8.51482 -7.68294 1.59305 0.958442 0.18725
328 4.44269 -8.57621 -6.99916 1.76118 -1.05675 0.596939
373 4.57209 -7.72677 -7.81193 1.42161 -1.46498 2.51764
610 3.79247 -8.37186 -6.13835 1.64824 -0.198791 -0.0861341
3749 -7.63848 -0.0711069 -7.51724 -0.144327 -0.639125 1.88803
181 4.77705 -4.58214 -9.17254 0.110742 -1.04759 -1.10779
4339 -2.4026 -0.146437 -3.87298 -0.58411 0.349676 1.24747
332 6.03209 -8.55321 -7.0579 1.14818 -0.218199 0.721824
375 5.25175 -7.68381 -6.84723 1.69385 0.0864802 -0.352167
614 5.31903 -8.43657 -6.14761 -0.263578 -0.119374 1.99037
665 5.97246 -7.79817 -6.21809 -1.25976 0.910555 -0.790579
4913 -3.12257 -0.0488918 -1.63235 1.54469 -0.788001 -0.179137
27 0.815279 -9.19032 -8.21868 2.61747 0.686673 -1.20272
336 7.60824 -8.64969 -7.09346 0.0298993 -0.198514 2.00653
379 6.76389 -7.91861 -7.02072 -3.35469 0.501005 -0.807843
618 6.62769 -8.6312 -6.27876 1.21846 0.369019 -0.3816
53 -7.85465 -7.65242 -9.1675 -1.9716 -2.56294 1.4477
669 7.7118 -7.80243 -6.15281 1.7115 2.13536 0.0887435
383 8.29533 -7.85811 -7.03388 0.088139 1.84107 -0.254725
625 -9.17291 -7.71944 -6.19165 0.903477 -1.68677 2.7146
622 8.33649 -8.59473 -6.31643 1.57109 -2.35092 0.383974
339 -8.46796 -7.81539 -7.02186 1.16879 -0.805555 2.44641
387 -8.3301 -5.94643 -7.04342 1.15327 2.02937 -0.169313
626 -8.49844 -6.84982 -6.20353 2.33972 -2.67499 -2.0366
344 -7.83431 -6.92075 -6.90939 -1.56119 1.28588 0.194887
342 -6.97361 -7.05664 -7.70446 0.586204 -0.563725 1.2187
629 -7.77319 -7.75906 -6.11058 -2.44488 -0.297602 -1.62239
345 -6.18011 -7.69858 -7.77321 1.06268 -0.348684 0.198278
347 -5.39704 -7.79772 -7.16732 0.0154662 1.71778 1.28081
348 -6.20174 -7.04808 -7.02346 -2.27171 0.196453 -0.964706
634 -5.38429 -6.98456 -6.17271 0.163472 -2.02906 0.540517
352 -4.73418 -6.92664 -7.10435 -3.37631 -1.99907 -3.57577
685 -4.61816 -6.31502 -6.28221 -1.11591 -1.11803 1.84797
399 -3.89136 -6.25194 -6.95075 -1.7503 -0.486548 1.54927
354 -2.05618 -6.88515 -7.8336 1.61098 1.8515 1.13386
355 -2.33731 -7.5246 -7.11374 -2.07154 -0.940568 0.299253
356 -3.00452 -6.83238 -6.79048 -1.88376 -0.721819 -2.48414
642 -2.42993 -6.81009 -6.02723 1.72639 -1.1828 -0.548474
405 -1.56844 -6.08487 -7.70325 -3.06411 1.7926 1.44242
357 -1.42871 -7.84796 -7.6904 -0.849428 0.520173 -0.0425252
359 -0.832099 -7.67723 -6.9824 -4.77265 -3.60856 1.68428
360 -1.52554 -6.63467 -6.98204 -0.935115 0.473456 -1.32784
407 -0.801119 -6.09402 -6.96302 1.24057 -1.75546 -0.078198
358 -0.824033 -7.01637 -7.79359 1.22803 -1.17093 -0.958483
362 0.927156 -6.72348 -7.57744 0.411603 0.902183 0.902311
364 0.0579877 -6.93354 -6.81135 -2.7612 2.70756 1.71851
363 0.914893 -7.56138 -6.89773 -0.587001 -1.10458 -2.03023
368 1.56622 -6.71062 -6.87593 2.48988 -0.166916 0.295323
413 1.42515 -5.87107 -7.85234 -0.339838 0.157021 0.529014
653 1.55878 -7.59977 -6.00145 1.86272 -0.600823 -1.78747
650 0.830619 -6.77696 -6.11807 0.387129 1.0331 0.305647
369 3.05817 -7.75976 -7.71954 3.5039 -2.0691 1.56922
367 2.315 -7.59112 -6.90768 1.48044 0.813627 -0.655763
372 3.01002 -6.81173 -7.04826 -0.238129 0.717957 1.54162
370 3.80712 -6.9641 -7.68453 0.80747 1.69422 2.07625
371 3.74893 -7.64301 -6.95637 -0.158484 0.638725 0.54727
376 4.55705 -6.83732 -6.9124 -0.864854 -0.67538 -0.719298
661 4.42933 -7.61551 -6.15932 0.542934 -1.26071 1.14778
380 6.07892 -7.00827 -6.9565 -0.136998 0.541419 -1.49407
423 5.3791 -6.15766 -6.81256 -0.657226 2.95339 1.63651
713 6.12855 -6.17508 -6.15002 2.5168 3.01236 1.62391
662 5.23632 -6.89529 -6.21432 0.0589395 2.1034 -0.5379
427 6.81121 -6.09996 -6.95246 1.78234 0.0825801 0.187775
429 7.5047 -6.38778 -7.56439 1.82831 -1.48099 -3.58357
666 6.8183 -7.16372 -6.4205 -0.247833 1.481 -2.26556
340 -9.22257 -7.03589 -6.85499 -0.401842 0.881476 -4.2354
384 7.48397 -7.20468 -7.08935 -2.18519 -2.10595 -0.962572
673 9.11764 -6.23352 -6.12405 0.960254 -2.98441 0.104479
670 8.46755 -7.22137 -6.16014 0.285955 0.908756 -0.300436
674 -8.37601 -5.372 -6.2067 -5.26486 -0.179925 0.727945
388 -9.2083 -5.54223 -6.86117 -0.507343 -0.799502 1.35699
389 -7.80252 -6.28985 -7.85122 -1.3665 0.307784 0.0262263
391 -7.06553 -6.21887 -7.07039 -1.07844 -1.74848 -1.07148
392 -7.65666 -5.21236 -6.9473 -1.99615 1.61603 -0.721283
677 -7.64219 -6.09329 -6.33966 -0.162486 -0.664535 -1.03336
395 -5.36537 -6.11024 -6.90554 0.785194 -0.719955 0.0678363
393 -6.22499 -6.16942 -7.70346 -1.55418 0.731073 1.06391
396 -6.06734 -5.40617 -7.00807 -0.178011 0.972497 1.44173
398 -3.75724 -5.42693 -7.68831 -2.00445 -1.12782 1.9227
400 -4.68217 -5.34338 -6.94724 -0.184752 -0.790534 -1.98722
403 -2.30774 -6.07811 -6.8087 0.707902 -1.23942 0.419988
404 -3.03766 -5.41764 -6.98959 1.31062 -0.875123 -3.99509
451 -2.34398 -4.4742 -6.80743 1.53811 2.33128 -0.296012
690 -2.30414 -5.27971 -6.20999 -3.54071 0.246532 2.48523
737 -3.35561 -4.77298 -6.15263 0.617527 0.18708 1.49798
406 -0.716917 -5.21041 -7.85131 -2.36815 -0.603417 -1.39706
408 -1.5296 -5.14128 -6.99486 -1.27523 -1.25366 -1.34732
409 -0.0749923 -6.09155 -7.78132 0.143413 -1.14207 -2.60776
412 -0.0228786 -5.38745 -6.92199 1.68614 -0.13182 2.92178
457 -0.014618 -4.52378 -7.57781 1.07362 -1.71731 2.13782
697 -0.102079 -6.09039 -6.20775 1.52744 2.15167 1.51504
411 0.580757 -6.0822 -7.00192 0.962854 2.06267 -0.916921
416 1.38423 -5.27694 -6.77399 0.641213 -1.69886 -2.30213
415 2.26538 -6.08281 -6.96212 -1.45239 -0.876399 0.398163
705 3.058 -6.06936 -5.93091 0.36612 1.76636 -1.22304
420 3.01201 -5.35414 -6.77822 0.847501 -1.15693 -0.382726
702 2.27596 -5.32881 -6.02034 3.61511 1.17783 -1.05659
419 3.76144 -6.15555 -6.91413 0.424747 -1.89761 -0.77195
424 4.51485 -5.34832 -7.02528 1.17158 0.776256 -2.66879
709 4.47427 -6.00648 -6.17444 -0.726814 -0.214282 0.443868
706 3.84361 -5.31794 -6.09504 0.219023 -1.53356 2.56489
422 5.41945 -5.4994 -7.84725 -1.81164 -0.21449 -1.77385
473 6.04626 -4.65332 -7.65048 0.894352 0.956415 -2.2462
428 6.18528 -5.32398 -6.76272 1.42012 2.48562 -2.1901
710 5.25209 -5.34804 -6.06934 2.02712 0.618234 1.70001
761 6.08726 -4.60264 -6.09961 0.499121 -1.03795 1.0727
426 6.94521 -5.19558 -7.63132 1.39595 1.21614 -2.93556
432 7.66708 -5.41434 -6.78446 0.0107759 0.642964 0.0247871
765 7.69577 -4.71418 -6.09507 0.671435 1.19752 -1.09366
475 7.02359 -4.58983 -6.89761 -2.14038 0.959165 -1.62243
717 7.64608 -6.37213 -6.20699 0.0924007 1.06161 0.208755
714 6.94229 -5.23186 -6.17233 2.14289 2.20531 0.710914
431 8.28332 -6.31083 -6.87719 -3.06735 -1.42017 -1.29316
479 8.50964 -4.53826 -6.79432 0.611904 -2.73177 -2.63632
718 8.59896 -5.31043 -6.2548 -1.45675 0.961231 -1.58733
435 -8.48349 -4.6335 -7.03566 -1.49921 0.856453 0.756682
434 -8.48077 -3.89236 -7.82047 1.52186 2.19605 2.8989
483 -8.47158 -3.13938 -6.98594 -0.0511714 0.398149 -0.395705
721 -9.0963 -4.65296 -6.07139 -1.19015 -1.87326 -0.331047
437 -7.64213 -4.49467 -7.71112 0.595972 -0.117571 1.02138
439 -6.84875 -4.56945 -6.8255 -1.39709 -0.443129 1.86402
438 -6.87872 -3.81843 -7.66935 -0.480393 -1.19649 -0.989136
440 -7.58496 -3.58338 -6.92902 0.853198 -0.210713 0.514608
441 -6.20069 -4.70487 -7.73469 1.79054 0.558394 -0.699881
443 -5.3245 -4.56438 -6.92697 -0.109973 1.81781 0.93478
444 -6.06247 -3.89736 -6.90741 -2.70168 -0.18418 -1.03121
730 -5.34132 -3.68558 -6.10317 -4.30166 -0.608287 -2.04924
491 -5.48529 -3.02975 -6.83463 0.894633 -2.54705 -0.582088
447 -3.91416 -4.82679 -6.97015 0.401403 0.360431 -0.836921
448 -4.49383 -3.8081 -6.9193 -1.48487 1.18025 -2.7082
734 -3.87901 -3.83692 -6.02957 1.94102 -2.2232 -1.12123
452 -3.24889 -3.93934 -6.81004 1.97063 -1.9541 -0.745396
738 -2.26852 -3.79563 -6.06188 0.694844 -0.652768 0.864584
454 -0.893538 -3.78687 -7.72707 -2.25375 -0.14131 -0.0363313
455 -0.82252 -4.44256 -6.85864 0.081726 -0.198209 2.17216
456 -1.60954 -3.81656 -6.89507 0.160682 1.35195 -0.385157
503 -0.735329 -2.97452 -6.8887 -0.13366 -0.25754 -0.684606
789 -1.58898 -3.09138 -6.20115 2.03503 -0.449649 -0.603715
505 -0.0185482 -3.05744 -7.64979 0.294168 -0.911174 2.79304
460 0.0364102 -3.78745 -6.91363 1.29477 2.60791 1.28931
459 0.757255 -4.42501 -6.87792 0.591026 -0.37982 0.206202
464 1.61836 -3.77303 -6.78671 -1.58296 -3.6334 -0.0045479
507 0.881624 -3.12023 -7.16009 -0.749635 -1.46078 0.236795
463 2.11625 -4.64498 -7.04495 -0.581507 1.37818 -2.57402
468 3.03864 -4.00846 -7.07832 -0.318454 0.612539 -0.0904364
750 2.33533 -3.75889 -6.02031 1.54336 0.948798 -1.05439
753 2.92617 -4.56268 -6.17862 0.632571 0.730461 1.0825
467 3.78366 -4.55664 -6.94815 -1.89943 0.721737 -0.551226
517 4.63036 -3.06115 -7.48874 -0.158983 0.0929084 -0.476274
472 4.49206 -3.91335 -6.85709 -0.672251 0.348575 -2.14475
805 4.54305 -3.09584 -6.13436 -1.40306 0.71731 -0.445204
757 4.58736 -4.61891 -6.11617 -0.658986 -0.745033 -3.03041
754 3.81141 -3.9421 -6.13099 0.0236063 -0.163656 -2.85752
471 5.3115 -4.74669 -6.89612 -1.11041 -2.82017 0.382796
470 5.2571 -3.78136 -7.54383 0.638494 0.208149 -3.3723
476 6.12127 -3.95929 -6.90149 1.08005 1.85953 1.44707
758 5.33974 -3.81793 -6.14327 -1.78964 -0.417649 1.25909
474 6.8107 -3.89293 -7.65246 -0.99982 -1.46178 0.403549
480 7.65437 -3.76693 -6.97961 -0.155148 2.33326 0.16828
523 6.89945 -3.02541 -6.92947 -0.403991 -1.087 1.92763
762 6.85636 -3.89057 -6.21721 0.679475 0.79891 3.53662
478 8.46383 -3.88311 -7.48114 2.43697 0.436891 0.130324
481 -9.17918 -3.10454 -7.68585 0.597009 -1.13758 0.483464
436 9.20102 -3.84118 -6.89867 -0.564671 -0.330098 2.07806
766 8.52426 -3.7276 -6.22201 0.0924361 0.494182 -0.509659
482 -8.53822 -2.33998 -7.50973 -1.04784 3.75034 -3.66679
531 -8.49922 -1.49084 -6.81657 2.01638 -2.07027 0.94691
487 -6.84268 -2.99875 -6.95573 1.41975 0.0914277 -0.0614646
533 -7.81742 -1.55956 -7.80769 1.34117 1.11283 0.317828
486 -6.72651 -2.24064 -7.6194 -0.0909938 -1.77539 -0.969479
488 -7.66536 -2.38884 -6.90377 0.378395 -2.31061 -0.0215859
535 -7.00874 -1.562 -6.8562 -0.175623 -3.20021 0.0935367
489 -6.26194 -3.15102 -7.74065 -0.541957 0.656774 -0.620746
492 -6.0872 -2.26038 -6.80266 4.46372 1.14483 -1.36393
537 -5.99848 -1.40596 -7.78783 2.72715 -1.3364 -1.12863
777 -6.28598 -3.00579 -6.08722 -2.08526 -0.786221 -1.58855
778 -5.44167 -2.37322 -6.0374 0.479212 -1.62753 -2.07404
493 -4.73517 -3.01009 -7.72008 0.625464 2.44201 -0.491939
495 -3.87876 -3.0717 -6.92277 -0.445518 0.177091 1.97518
541 -4.89724 -1.58932 -7.70841 0.570946 -0.735325 -2.00516
496 -4.66728 -2.24802 -6.96711 2.6313 -3.68397 -0.26831
543 -3.86505 -1.61033 -6.81691 -0.738863 -0.575216 0.0908119
781 -4.64909 -3.02396 -6.14539 -0.40741 -2.06495 -1.32424
829 -4.57568 -1.79208 -6.02995 -1.99135 -2.22349 0.539124
499 -2.33358 -3.00337 -6.84446 0.115492 -3.42354 -0.0582298
500 -3.17083 -2.42473 -6.85172 0.19229 -0.531124 -3.75424
547 -2.38001 -1.52419 -6.91697 0.406055 -0.71394 2.86637
785 -3.01906 -3.11399 -6.10686 -0.170767 1.84483 1.74248
786 -2.43067 -2.26414 -6.16981 0.782775 0.00656532 -1.1288
504 -1.59456 -2.24476 -6.80979 -1.68367 1.26432 0.891211
837 -1.53795 -1.47342 -6.00414 -0.786436 -0.222621 0.805106
553 0.0157587 -1.62507 -7.76313 -2.96572 0.0337768 0.381464
551 -0.72224 -1.60018 -6.97787 2.43517 0.523373 2.44595
508 0.0577041 -2.28063 -6.97334 -3.16384 2.58282 1.8063
555 0.784507 -1.49065 -6.84189 0.34269 -2.67996 0.237301
509 1.52836 -3.14786 -7.74284 -2.02383 0.345314 -1.25968
506 0.681084 -2.39359 -7.77794 1.42183 1.37659 -0.468147
557 1.55154 -1.78655 -7.57088 3.15254 -2.49296 0.331971
512 1.58735 -2.45948 -6.88934 -1.73887 -1.0254 -0.572854
511 2.36679 -3.16825 -6.92427 1.43241 0.599772 2.16627
510 2.24902 -2.41309 -7.88203 -0.735471 1.9458 0.401986
516 3.05945 -2.39524 -7.03782 -0.596917 2.57497 -0.32726
801 3.10641 -3.29575 -6.35226 1.2952 -0.607635 0.202319
514 3.90672 -2.51167 -7.56006 0.499545 -0.166759 -0.497334
515 3.84364 -3.26621 -7.03908 3.2679 -1.50368 1.0292
520 4.4737 -2.29285 -6.76834 -1.66506 0.51686 -0.341464
853 4.71659 -1.53351 -6.06912 1.16794 -2.46644 0.378584
521 5.88524 -3.03851 -7.63538 -1.83504 0.595215 -0.900955
518 5.1578 -2.31002 -7.67546 -0.705077 0.102427 -2.34415
809 6.13601 -3.11963 -6.08131 1.1206 -1.27316 0.406771
519 5.31497 -3.04866 -6.84453 1.55718 0.370658 2.21363
524 6.18236 -2.37764 -6.86936 1.83799 1.2484 1.3375
857 6.09518 -1.75466 -6.17171 1.89945 3.10738 -0.580928
522 6.97752 -2.32118 -7.76437 1.30941 0.47049 -0.311667