ITEM: TIMESTEP
179000
ITEM: NUMBER OF ATOMS
6912
ITEM: BOX BOUNDS pp pp pp
-9.2265715179435492e+00 9.2265715179435492e+00
-9.2265715179435492e+00 9.2265715179435492e+00
-9.2265715179435492e+00 9.2265715179435492e+00
ITEM: ATOMS id x y z vx vy vz
338 -8.73235 -7.96275 -8.14972 -1.585 -3.39327 -0.35588
3272 -7.60213 -5.26905 -9.19449 -0.0448434 2.97964 0.133117
1380 3.43011 -0.0933227 -0.318353 -0.556996 -0.161003 0.966895
149 -8.96934 -4.2154 -9.09189 0.274756 0.732406 -1.89925
7 -7.02565 -8.20023 -7.62763 2.30757 -3.0118 -1.20232
293 -7.78473 -8.12019 -8.33361 -0.055326 -0.568998 -1.35331
6869 -7.37841 -8.71221 -8.98997 -2.18082 0.539075 0.816423
55 -6.68647 -7.93843 -8.50308 -0.749717 1.1116 -0.857789
4606 6.50206 -9.09911 -4.21922 -1.85895 2.52764 0.749285
3177 -5.56447 -8.07789 -8.28119 -0.336192 -0.121383 0.885849
115 -3.24379 -5.72255 -9.00484 1.00775 0.975722 1.44203
4882 2.50833 -8.96844 -0.882782 0.589352 -2.41218 -0.868559
2895 -4.52968 -8.11514 -8.0572 -0.658662 -0.975206 -1.82757
591 -6.60291 -9.19238 -6.46799 -0.252672 1.1488 -0.822252
1428 1.63824 -0.35285 -0.239112 1.87033 -3.74505 -2.93324
66 -2.31902 -9.21044 -8.10946 2.26642 0.100958 0.2074
3716 -3.78501 -8.42538 -8.85973 2.42607 -0.0900433 -0.139292
19 -2.74514 -8.3235 -8.1839 -0.417376 -0.110554 -0.836756
3187 -2.76872 -8.7956 -9.02102 0.055841 2.33712 -0.432668
3711 -3.6443 -8.86051 -7.97002 -0.968535 -1.74337 -0.337584
1181 0.0562962 -8.90515 -3.33864 -0.50437 -2.03656 2.1731
69 -0.497843 -7.58105 -8.60448 -2.4752 1.03385 1.8364
67 -1.72094 -7.69801 -8.32422 0.403995 -3.75702 1.46299
17 -1.61283 -8.67415 -8.61242 -2.16819 0.709921 -0.725354
316 0.557322 -8.19357 -9.031 0.65804 -0.377031 -2.5775
3720 -0.661319 -8.49411 -7.96963 -4.26152 -0.733845 -0.540448
5150 -4.68123 -9.01191 -2.45747 0.119766 -1.20283 1.9995
4377 -5.81246 -0.130588 -5.93 -1.708 1.28256 0.822936
606 0.378174 -8.5038 -8.05251 0.0910104 2.68553 -1.92351
366 1.27374 -8.57532 -8.02065 0.0109591 2.48311 1.27576
5153 -4.81414 -9.12098 -0.672235 1.33168 -0.639836 0.208395
654 2.68956 -8.73451 -8.2687 -0.00730402 0.0845599 -1.10755
172 2.03561 -8.0319 -7.92797 0.209418 -0.21132 0.591194
417 2.36628 -7.82791 -8.85936 -0.463165 -1.35297 0.313531
1184 0.666804 -9.04743 -1.3835 0.818723 0.471265 1.96111
39 3.77166 -8.19063 -8.23545 -1.21993 1.25492 -0.628685
133 4.67579 -7.71936 -7.89346 -0.182854 1.52444 -1.14818
28 4.60429 -8.7753 -8.37298 0.514696 -3.25144 -0.654894
44 5.1513 -8.56972 -7.68437 0.675782 -0.13897 -0.663721
36 3.38654 -8.8604 -8.94363 0.801553 -2.94924 2.19828
88 5.63242 -7.93576 -8.8865 0.772711 -2.05619 1.30216
326 6.17187 -8.11536 -8.0727 0.355483 0.706558 0.488017
5142 -6.8539 -9.1944 -0.252217 -0.512953 -0.51534 -3.56461
330 8.12545 -8.30559 -8.17838 -0.474305 -0.716435 0.332833
1311 -4.60854 -5.26502 -0.062603 0.54923 -2.29396 3.25237
379 7.20035 -8.86741 -8.33175 -1.11793 -0.510227 -3.01385
4916 -1.36656 -0.0154069 -2.22341 0.554005 0.424093 1.87031
1777 -8.92158 -7.31809 -0.0456827 -1.02021 1.33264 -0.705292
387 -8.50531 -6.78944 -8.33651 -1.21419 0.174921 0.575916
383 8.76866 -6.54653 -8.67444 0.706428 -1.53617 1.07315
389 -6.8023 -7.13261 -8.00084 0.611354 0.562851 -0.270849
151 -7.11381 -6.26679 -7.78787 2.409 -1.74116 1.29922
108 -6.62303 -6.34031 -8.6531 -1.48808 -3.26394 -0.409043
2940 -7.47871 -7.2414 -8.69247 3.69334 0.122268 -0.670404
3228 -4.94071 -7.29637 -8.84561 1.98056 1.83144 -0.6072
393 -6.00476 -6.64892 -7.92094 -1.23068 -0.700184 -0.171561
60 -5.61001 -6.25507 -8.80445 0.548181 -0.704318 -1.63931
630 -5.07623 -6.29483 -7.62428 1.11753 2.65703 1.66484
298 -3.97189 -7.281 -8.59409 -2.78586 1.55321 -0.299472
12 -5.13961 -7.27351 -7.8454 -2.82695 1.66537 -1.27811
350 -4.53108 -6.53425 -8.3539 0.216689 -0.474855 -2.01384
399 -3.45554 -6.50501 -8.38313 -0.410813 -0.585216 -1.70443
4879 0.824283 -9.02834 -2.54115 -0.831283 0.0435614 -1.46695
401 -2.44793 -6.01774 -8.49395 -0.310241 0.97756 0.0392173
3236 -2.64194 -7.129 -8.2983 -1.3123 -1.41067 -2.719
404 -1.75841 -6.86352 -7.607 -0.385866 -2.59711 -1.15385
358 -1.27613 -6.49402 -8.4052 0.28169 0.0726328 0.733643
3235 -2.01549 -6.90657 -8.94102 -5.31818 1.16396 -0.424277
368 -0.968578 -6.19075 -7.52767 -0.790117 -2.31844 -0.648607
354 -0.817482 -7.19525 -7.76425 0.77441 -1.12165 2.40464
70 -0.325778 -6.58089 -8.33639 0.222204 2.03179 -0.619308
941 0.481175 -5.94593 -8.38035 -1.65658 1.60665 0.496752
413 1.09737 -7.72339 -8.44937 -1.7855 0.169338 0.737698
462 0.823313 -6.88809 -8.05507 0.990178 -0.317995 -3.23219
410 1.11961 -6.6084 -8.86876 -0.175501 0.757636 -2.45651
80 0.242727 -7.0798 -8.9193 -0.452202 0.154099 0.174216
77 1.91351 -6.92153 -8.35266 0.506047 -0.773609 0.119021
703 2.63015 -6.28115 -7.8808 5.47265 -0.242951 -1.47648
40 3.02411 -8.20257 -7.49315 0.232384 -3.33233 -2.71702
370 2.82332 -7.36317 -8.02102 1.61178 1.60505 -3.02534
418 2.68683 -6.89432 -8.8328 -2.0322 -1.55523 -2.65891
131 3.51762 -6.53226 -8.1117 -0.0498724 0.88748 -0.716644
378 4.55121 -6.75272 -7.80269 -0.381732 -1.22795 1.77012
135 4.39175 -7.07194 -8.76109 -0.511752 -2.5349 1.35088
3734 5.77395 -7.08995 -8.53693 0.924261 0.380491 0.675088
89 5.60589 -7.46419 -7.66426 -2.34177 -0.645109 -0.111687
92 5.56026 -6.28869 -7.9045 -2.27783 2.76378 -1.18998
3260 5.11561 -6.38888 -8.71977 -1.67498 2.59034 1.21862
430 6.77064 -7.23692 -7.86842 -0.104299 -0.128865 0.760639
714 6.88858 -6.53098 -8.48637 2.52908 -2.25473 -0.515142
4 7.75084 -7.35329 -8.25782 1.83131 -1.41898 4.76366
203 -5.28637 -2.22494 -9.09975 3.46802 -1.01109 -1.08831
384 7.91539 -6.62785 -8.8858 1.68123 -4.44024 -0.83805
46 8.82828 -7.52038 -8.15536 -0.872467 0.432243 2.72553
104 -8.58557 -5.93415 -9.00805 -0.522989 1.8002 -1.19614
386 -8.8874 -4.88774 -7.83469 -3.62652 0.584626 2.65728
98 -8.42879 -4.95438 -8.71119 3.57921 1.43051 -0.0761546
390 -8.15706 -5.59015 -7.94069 0.826586 -2.51902 1.45862
50 -7.79672 -6.2154 -8.63366 -0.192024 -0.404585 0.429222
441 -7.03027 -5.52381 -8.50479 -1.05376 -0.607109 -0.0683503
396 -6.03727 -4.72712 -7.41638 -1.35328 -1.74534 -0.17428
64 -5.24306 -5.29877 -7.33677 0.805179 1.17839 3.21785
394 -5.99249 -5.70001 -7.81169 -3.59768 1.99323 -0.0433047
449 -5.1724 -4.59097 -8.16029 1.65546 0.379901 -1.23126
155 -5.96345 -5.42073 -8.67087 1.82388 1.7934 -0.0243692
494 -4.7311 -4.31625 -7.1934 0.00485939 -1.33741 -1.6426
346 -5.01326 -5.55105 -8.28451 -1.14516 1.5555 -0.413077
159 -4.35499 -5.0128 -7.89531 -0.994979 0.72292 0.0706115
3331 -4.54255 -4.90031 -8.89177 -0.24048 -1.90313 0.368909
398 -4.0136 -5.67181 -8.48475 -2.07476 -0.578148 -1.55059
68 -2.583 -4.71074 -8.43266 2.06475 -0.998107 -3.58321
4042 -4.575 -0.125435 -8.07562 -0.0891394 -0.262242 0.164592
407 -1.56768 -5.48438 -8.46894 -3.48683 -0.316245 -0.315311
748 -1.44985 -4.45077 -8.72605 -0.556572 -0.267169 -1.57171
4380 -4.94305 -0.0604835 -4.16022 0.636792 0.749576 0.398057
699 -1.18147 -5.36085 -7.05414 -2.06437 0.158505 -2.18645
1134 2.25996 -0.363347 -3.16485 -0.192884 -1.39989 -0.960106
119 -0.607747 -4.97501 -8.94013 0.549854 0.89254 -0.590863
456 -0.28564 -5.93476 -9.00458 1.74992 2.67424 -0.644761
460 0.287408 -5.16242 -8.96673 -0.23455 -0.15227 1.59119
652 0.0420818 -6.18562 -7.52346 1.41933 -1.42641 2.48049
362 -0.232613 -5.40429 -8.06008 -1.0942 -0.746687 -2.08422
416 1.30628 -5.27252 -8.71507 2.04789 -1.35968 2.38072
414 2.14315 -4.71577 -8.91204 -3.4458 0.774172 -0.902321
6645 -3.12529 -1.1922 -8.42714 4.93481 1.53423 2.08131
705 2.08222 -5.94903 -8.77215 2.45658 -0.654047 0.0565571
472 3.01273 -5.16361 -8.49679 -0.580558 -1.59213 0.208197
132 3.1103 -6.02542 -8.93334 1.52362 -2.15627 1.8843
183 4.34906 -4.65488 -7.75693 2.32534 3.3784 -0.0662658
136 4.21705 -5.83516 -7.81313 0.298218 -1.49238 -1.16305
3304 4.02066 -5.28006 -8.52457 -2.00975 -0.460076 -0.450311
3300 4.13024 -6.18226 -8.78452 0.0286876 1.4599 -0.152853
137 5.06732 -5.4627 -8.21324 -0.601435 1.37013 0.0645274
134 5.53015 -5.26679 -9.01417 -3.29442 0.174381 -2.0452
139 6.11712 -6.01155 -8.66841 0.869827 -1.47116 -0.781662
144 7.13678 -5.20825 -8.26186 1.12026 -1.09722 0.159352
425 6.47881 -6.3377 -7.69015 1.78213 -1.39836 0.501744
421 6.00278 -5.1943 -8.15761 2.30039 -0.705408 1.70801
340 -9.04803 -6.07472 -8.0495 0.467882 0.887291 -1.36412
385 8.90595 -5.21848 -8.5539 -0.570703 -1.97331 1.55616
100 8.01176 -5.73939 -8.4779 -1.03612 0.661855 0.0789204
388 8.0931 -4.80989 -8.90423 -1.45581 0.906791 1.39557
597 -1.1244 -8.69345 -6.53126 2.59778 1.16447 0.967235
434 -8.91124 -2.91171 -7.99703 -0.365667 -0.973041 -1.18707
3368 -7.52906 -4.1383 -9.10937 -0.307919 -0.171154 0.0832199
440 -8.56837 -4.01577 -8.18829 0.605755 -0.100464 0.193842
152 -7.76656 -4.48014 -8.12326 2.73724 -2.79891 1.17777
199 -6.66023 -3.60487 -8.59945 -2.04604 3.8078 3.00127
438 -6.64243 -4.54153 -8.55916 -4.26003 1.2662 -1.97448
161 -5.90015 -4.03161 -8.18516 2.09761 -0.4423 1.36999
160 -6.00725 -3.08388 -7.53914 0.00421789 1.2386 1.31164
830 -4.97325 -3.3156 -7.77038 -3.77679 0.901237 -1.66825
205 -4.67705 -2.94947 -8.67385 0.625987 -0.976986 2.02708
493 -4.26342 -4.00652 -8.26377 -1.36416 1.7341 -1.12891
164 -3.41049 -4.06434 -7.79281 0.489848 -0.812124 1.12028
563 3.79988 -0.269786 -8.39025 1.98731 -0.0929777 -1.86142
402 -3.63665 -4.77792 -8.53878 -0.223085 -1.14331 -1.84028
165 -2.12959 -3.80621 -8.78604 -0.0198301 -0.387925 -0.204475
163 -3.15005 -3.82114 -8.80383 1.2256 -2.20164 1.65685
216 -1.1693 -3.60868 -7.86484 0.0682303 -0.925751 -0.144566
457 -0.725684 -4.61465 -8.04454 -0.802054 -3.79087 2.29454
698 -0.17041 -4.11812 -8.78521 -2.75302 -0.0444723 -2.93142
508 0.52107 -4.77732 -8.00751 -0.252679 3.0117 1.44132
412 1.38386 -4.30472 -8.33546 -1.78074 -1.85996 2.79659
219 0.668029 -3.62894 -8.6331 1.63689 2.28915 -0.0437387
234 6.96893 -1.44719 -8.98038 0.873401 0.320659 -1.39241
177 1.80385 -3.48089 -7.94461 2.69512 -0.0410898 0.965922
791 0.920673 -3.63961 -7.5945 2.61116 -4.28936 0.628226
1671 5.66197 -4.63457 -0.0452033 0.204473 2.25072 1.37851
99 -9.09028 -7.32512 -9.07154 1.70796 -0.0803066 -1.68624
173 2.31395 -4.23538 -7.97755 1.62123 -0.588962 0.154456
223 3.08927 -3.51184 -8.01393 -2.17845 -0.77639 3.3378
461 3.58327 -4.37291 -8.47096 0.920461 2.05886 -0.614665
184 4.54498 -3.6106 -8.26508 -3.48698 1.31687 3.39553
518 3.64831 -2.98784 -8.79967 -1.88023 -0.354182 1.8906
517 3.6886 -4.05447 -7.42211 0.638424 -4.31943 -2.09267
6673 8.83872 -0.931816 -9.09438 0.388644 0.642236 1.18167
4904 -4.69272 -0.0189377 -3.1775 0.202169 0.575861 0.999856
187 5.28083 -4.44433 -8.36009 -0.703103 -2.57204 1.51446
426 6.22558 -4.02661 -8.04144 -0.164934 1.77463 -3.27312
279 5.60993 -3.39779 -8.5344 0.0892767 0.99273 -0.818659
4699 5.74854 -0.460141 -1.47413 -2.74085 -2.09805 -0.117195
478 7.15421 -4.28804 -8.59558 1.70973 -1.19502 1.07242
4356 3.35763 -0.219501 -1.45752 0.0464111 -0.81093 -0.69868
525 7.11434 -3.70025 -7.78131 -1.51712 0.235412 -0.522771
11 -4.44244 -9.07121 -8.57032 1.59822 1.32202 1.06615
526 7.8615 -3.73328 -8.5109 -1.16742 -1.37389 1.03142
433 8.69562 -4.22704 -8.42276 -1.74388 -2.05702 1.29526
722 9.11107 -3.65799 -7.52498 -0.656737 -2.25887 0.700796
247 -7.22056 -2.74889 -8.59707 -0.439485 0.385825 1.12962
3413 -8.10113 -2.2331 -8.70535 2.00261 -0.881746 -1.11524
242 -7.96751 -2.66784 -7.84932 0.0325239 -0.175642 -1.02438
609 5.0454 -9.01568 -4.58712 0.480593 2.23177 0.723792
3771 1.33658 -0.0829599 -6.18442 -1.07784 0.636747 -1.26374
777 -6.94402 -2.81433 -7.68757 -0.792765 1.71348 -0.452762
204 -7.26189 -1.86406 -8.09895 -0.606519 -0.0968884 3.17977
3462 -7.01062 -2.04563 -9.20218 -1.07621 -1.54732 -1.57028
3789 8.00702 -1.48537 -9.05279 2.14878 -2.51332 -0.37812
202 -6.34071 -2.29726 -8.4478 -1.15213 2.63549 0.170272
489 -5.56097 -2.23513 -7.82296 -0.83516 -0.944194 0.735779
154 -5.60461 -3.01174 -8.45201 0.569783 -2.49366 1.0899
543 -3.77722 -3.20582 -8.39456 -0.205138 1.63631 -0.0960288
3328 -4.63777 -1.94111 -8.3585 -1.01953 1.30672 0.35381
256 -4.2212 -2.5124 -7.76759 2.52067 -0.300708 -0.893326
3474 -2.28703 -1.07767 -8.95647 -1.25319 0.984609 0.634918
209 -2.8048 -2.68258 -8.43764 -0.965717 3.99511 2.29316
452 -3.14913 -2.02547 -7.80959 1.71051 -2.18926 0.649467
3375 -3.80718 -2.24423 -8.57805 2.47345 -0.236107 -2.26163
3379 -2.343 -1.91184 -8.64249 -1.55315 -0.926718 -0.35316
211 -1.83899 -2.87759 -8.38727 -0.330338 0.0601283 -1.50336
1457 -3.43753 -8.79203 -1.03026 2.14696 1.01945 -2.33899
264 -1.71264 -1.93033 -7.83359 -1.25398 0.431819 -0.0524799
215 -1.05216 -3.37514 -8.75774 -0.117413 -2.04418 0.945807
547 -1.19067 -2.14909 -8.65449 0.631246 0.898361 -3.12163
3431 -0.0348437 -2.41241 -8.88358 -0.813043 -0.239897 -0.442223
870 -5.21023 -9.20087 -5.19427 0.933825 -1.25548 0.432407
557 0.685858 -2.9183 -7.97931 -1.21221 -0.516796 -0.427991
3434 1.60256 -2.54896 -7.8737 0.246019 -2.53476 -0.613211
5191 -6.5903 -0.351584 -1.48016 -1.43949 -1.67152 0.121223
226 2.47392 -2.88126 -8.63842 1.05641 -1.24722 1.19897
178 3.60149 -2.05422 -8.43476 2.68341 0.680519 3.72755
3390 2.93274 -1.25937 -8.98047 -5.41582 0.662576 -0.478246
221 1.82667 -1.78965 -8.78371 0.412255 -0.0469594 0.191583
277 4.26749 -2.18187 -7.65151 0.152101 0.546698 0.776511
180 4.2101 -2.10915 -9.20815 -2.47879 0.765735 -1.03082
3449 4.77047 -1.64123 -8.29982 -0.98789 1.23583 0.434846
564 4.82985 -2.56357 -8.40669 2.06912 0.172678 -0.573841
235 6.32561 -3.03374 -7.77058 3.03529 1.23439 1.53809
236 5.73809 -2.09799 -7.75814 0.93975 2.19018 -0.818959
230 5.8045 -2.40773 -8.66274 0.392007 1.11508 -1.86629
222 1.39032 -2.7138 -8.73004 0.234557 -4.73724 1.74756
522 6.68996 -1.96977 -8.19991 -0.595644 1.16641 1.835
3403 7.77445 -2.13232 -8.38484 -0.203664 1.65857 -1.27049
1771 6.90943 -8.93543 -0.148535 0.928903 -0.711809 -0.0441033
288 8.10535 -3.06702 -7.79787 2.57129 0.0384889 -1.29404
245 8.75185 -2.33916 -8.22598 0.943794 1.53086 -0.264348
3503 8.34628 -1.39967 -8.23128 -2.7045 -1.37226 -0.444703
3352 4.57503 -4.69706 -9.06792 -1.84331 1.84674 1.65779
1554 0.449989 -6.12077 -0.116313 0.0349482 1.13245 -0.167075
3754 -7.90748 -0.243827 -7.24053 0.676153 -2.0909 1.0296
530 -8.35474 -0.734942 -7.98869 4.78473 0.171659 0.546991
3459 -8.02981 -1.48711 -7.40818 1.19574 0.314627 -1.47621
3412 -7.85226 -1.17628 -8.72107 2.23175 2.01771 0.0768851
3416 -6.72765 -1.07447 -8.73056 0.614217 0.326063 -0.282384
4044 -7.35882 -0.866808 -7.7809 0.167445 1.47797 -0.987511
252 -6.41599 -1.58312 -7.83899 0.799456 -0.450844 -0.555031
246 -5.86713 -0.702545 -8.87887 0.751189 -2.05507 1.32022
3753 -5.58144 -1.59739 -8.49922 0.0751367 0.259582 1.134
3472 -5.53736 -0.681094 -7.90814 -1.23469 -1.68954 0.15145
16 -4.70615 -8.1519 -9.24021 -0.75531 2.45763 -1.15379
546 -4.86213 -0.988768 -8.596 -0.980682 0.222171 1.2909
254 -4.75382 -1.48123 -7.53861 1.12944 -0.359081 -1.94308
541 -3.52322 -0.0182186 -7.54939 -0.718235 0.926521 -2.49996
4284 -6.99656 -9.23059 -4.30589 1.56454 -1.18267 0.405822
257 -2.2405 -1.18688 -7.99988 1.15098 -0.189864 -1.19578
1532 5.47601 -7.40932 -0.180167 1.52207 -0.245178 -0.155022
4097 -2.45525 -0.457313 -7.36872 -0.491733 -0.294438 0.203128
210 -3.95691 -1.06204 -8.01979 -1.80487 -2.3565 -1.31558
3477 -2.7763 -0.265251 -8.30218 0.661657 -0.100856 -1.33405
3767 -1.19886 -0.946983 -8.5572 -3.86601 -1.23295 0.32576
499 -1.22039 0.00837134 -8.30557 2.14455 2.4497 0.328501
1447 -7.03975 -9.16124 -2.27735 -2.28965 -1.26487 -3.48126
3523 -0.419712 -0.50502 -7.57751 -1.12162 -0.745179 -0.552952
261 0.0879533 -1.00548 -8.54321 -0.426302 0.527465 -0.916134
268 1.1033 -0.853252 -8.71008 0.297755 0.675815 3.92525
505 0.160394 -1.93903 -8.00548 -2.12782 0.716807 0.34176
263 0.446168 -0.956077 -7.52657 -1.02483 0.0674099 2.73506
3424 -3.66529 -0.28571 -8.54356 0.693547 -0.568356 -4.97722
4059 1.82634 -0.280469 -8.20988 -0.048478 1.36056 -0.926396
3515 -8.07066 -0.146994 -6.37643 -1.11086 0.259328 0.705403
4058 0.839005 -1.82111 -8.76845 -3.40879 0.804297 -0.0227166
3774 1.41698 -1.49954 -7.98116 2.00046 -2.33456 -1.66933
3770 2.81797 -0.0305637 -7.76136 -2.08229 2.53163 0.894508
3481 1.95717 -0.73751 -9.113 -2.63689 0.98234 2.54861
3823 2.59547 -0.116197 -8.77193 1.93501 -2.74155 -0.599469
269 3.5053 -1.08546 -8.24297 -1.65399 -1.76716 1.63976
284 4.78029 -0.628178 -8.16349 1.11928 -2.14425 -0.604725
4903 -5.37281 -0.0996408 -1.45164 0.648716 0.25906 -0.303387
1448 -7.5319 -9.11421 -1.0176 -1.69252 0.966793 -0.107909
280 5.88353 -0.574223 -8.15427 1.77899 -1.92883 1.79854
573 6.39235 -1.26963 -7.58013 0.385795 -1.84266 1.36377
1844 -2.47839 -4.09083 -0.361367 1.1321 0.438534 0.0578539
106 -4.97202 -3.85935 -9.00692 -0.625938 0.00226991 -2.95006
2133 -3.2689 -3.719 0.0175663 -1.31968 -1.31916 2.09784
283 6.88943 -0.623688 -8.191 -0.54752 1.70339 0.636833
3839 7.38416 -1.37497 -7.707 -0.964665 -1.16863 -0.0811458
240 7.75484 -0.563086 -8.68163 -0.557401 -1.46949 1.23818
243 -8.92535 -1.85139 -8.04168 0.167753 -1.58557 -2.46361
532 9.17701 -0.93048 -8.25065 2.33131 1.0819 -0.244494
196 8.15589 -0.878039 -7.23312 0.0786093 0.746557 1.05697
244 8.83708 -0.283723 -7.61938 -0.422089 -0.200739 -0.510389
578 -7.94937 -8.35713 -7.3897 -1.15794 -1.22949 -1.34284
580 -8.48326 -8.66416 -6.62314 -0.419373 0.0786829 -0.445377
291 -7.72475 -8.12274 -6.39007 2.39554 0.145783 -0.785111
233 6.59455 -3.38954 -8.93273 -0.725659 -0.00214089 0.596908
635 -6.79299 -8.11761 -6.49644 -2.10252 -2.50687 -0.700076
296 -6.98735 -7.32578 -7.08031 0.117625 -2.10952 -2.30294
3986 -7.65127 -9.17384 -6.9478 -0.373057 0.216651 0.360701
586 -5.94649 -8.60549 -7.22189 0.295184 -0.134736 -0.30317
347 -5.10945 -8.05206 -7.17754 0.346677 -0.30011 -3.17369
348 -6.0983 -7.50673 -7.39265 -0.371226 0.748486 0.962398
345 -4.98756 -8.99717 -7.4458 3.19262 -1.03674 -1.83515
4001 -4.09795 -8.41735 -7.22085 1.03398 -1.00154 -2.14585
925 -4.66968 -8.66467 -6.39588 -1.18934 1.47719 1.05106
65 -3.04381 -8.6396 -7.15312 0.427444 2.1608 0.0615779
349 -3.66584 -8.60862 -6.20981 0.283606 -1.15439 1.31408
353 -2.11426 -8.77964 -6.78994 -1.54988 1.31356 -1.04538
4008 -1.61656 -8.41104 -7.56407 0.70083 -0.612342 2.42914
3992 -7.37455 -9.08332 -5.91733 2.63954 -1.75499 1.86457
3382 -0.656538 -1.49832 -9.17738 1.23896 -0.991078 0.0367969
24 -0.809377 -7.95428 -7.18271 -1.13199 -0.254901 0.0107541
653 0.0181795 -8.53987 -6.96348 -2.14608 -1.05514 -0.607552
285 8.80716 -1.9565 -9.11481 -0.855445 0.712732 1.22668
42 6.49221 -8.76583 -8.9636 0.436329 -0.420365 2.3411
319 1.15558 -8.4502 -6.96753 -1.25187 0.933036 -1.03285
3732 2.72933 -8.78308 -6.31442 0.212516 -0.400999 -1.72553
33 3.58349 -8.85401 -6.99791 -3.60711 1.77501 -2.22618
607 2.26082 -8.88685 -7.27807 -0.362535 2.43408 -0.901663
661 3.37725 -7.7737 -6.54123 -3.35837 -2.8571 1.13975
1679 7.97765 -1.13265 -0.0978821 1.55089 0.74604 0.17741
322 4.31694 -8.17652 -7.11343 1.96859 0.0462334 -0.405663
327 4.43357 -8.78213 -6.38611 0.201449 -0.118312 -1.51912
614 4.53936 -7.96419 -5.95167 -0.501289 0.265343 -0.462774
610 3.73086 -8.56862 -5.87965 0.516983 1.87738 -0.707372
333 6.30406 -9.01284 -7.79894 0.521725 1.306 1.13064
375 5.19589 -7.89065 -6.95755 -0.266581 -0.998167 -0.533941
328 5.6038 -8.99458 -6.92937 -0.171651 -2.84255 -0.513952
427 6.51415 -8.15382 -7.07771 -0.272092 -0.620986 -1.594
905 6.61642 -9.23892 -6.69024 1.49414 -0.933368 1.28736
667 7.33309 -7.94173 -7.55197 1.53559 1.09349 -0.640437
577 7.47214 -8.35922 -6.73735 -0.0163468 -2.04456 1.72791
289 8.31478 -7.7208 -7.35709 0.788514 -0.769232 1.06518
290 9.14832 -8.74864 -7.66726 -0.910675 2.04329 0.196505
3988 7.72753 -8.93992 -7.52366 1.1602 0.97347 -1.13288
292 8.54902 -8.60585 -6.83082 0.295 0.370977 0.928962
622 -8.85064 -7.99148 -7.13115 -0.328261 -0.613961 1.22403
628 8.44729 -7.70479 -6.31096 1.1616 0.215938 -0.95599
339 -8.90661 -7.10967 -7.48734 -1.74225 3.82893 -1.03634
632 -8.37289 -7.01744 -6.76417 -2.06331 1.05137 -1.17365
674 -8.62232 -6.08971 -6.41371 -2.2494 -0.0446884 0.966353
344 -7.85865 -7.29938 -7.59851 -1.13531 0.165849 -2.19291
343 -5.98699 -7.58845 -6.47232 -1.51538 2.11989 -0.761707
629 -7.43491 -6.46598 -6.86209 -0.491027 -1.19776 0.981104
443 -6.90779 -5.75566 -6.46292 -0.22734 0.406695 1.00835
391 -6.55854 -6.43219 -7.04282 1.02132 1.03089 3.28113
633 -5.36844 -7.01649 -6.92025 -0.0920876 0.834991 1.78805
973 -4.89981 -7.64327 -6.3604 1.05108 -1.56893 1.05015
631 -5.61842 -6.52338 -6.13358 -1.95187 -2.93521 -1.62771
352 -4.34984 -7.41778 -7.38974 2.40193 -0.143299 0.753324
304 -3.88156 -6.05752 -7.55518 -2.42065 1.20652 -0.643792
634 -4.35282 -6.8115 -6.48015 1.01781 -0.941535 -0.978686
311 -3.48004 -7.71968 -7.89551 1.43527 0.579107 -3.81106
302 -3.38893 -7.05174 -7.11025 -1.66702 -1.60208 0.819002
642 -2.33514 -7.00421 -6.8078 -2.24641 -1.20736 1.35997
1025 -3.0411 -6.70963 -6.22914 0.394083 -0.319374 -0.555528
640 -2.92579 -7.83109 -6.64823 0.570998 -2.63467 -1.11603
305 -1.62773 -7.72501 -6.87217 0.649211 -1.09157 -2.1227
76 -1.08411 -6.81315 -6.65301 1.92031 0.352665 -1.34251
310 -2.51721 -7.63605 -7.52095 1.9969 0.594551 -1.16209
3239 0.0565603 -7.52211 -7.76786 0.621459 -0.488443 2.35222
357 -0.13899 -6.8765 -6.88567 0.281993 -0.587568 -0.591966
359 0.884209 -6.69332 -7.15895 -0.0618841 1.05146 0.640247
364 0.477519 -6.89164 -6.20021 -0.923146 -0.454828 0.939907
406 1.4331 -6.09515 -7.78988 -2.28285 -1.22276 -2.7652
318 1.29333 -7.56107 -7.49688 2.68434 -0.436506 0.0294606
944 1.45236 -7.27983 -6.47474 0.755292 -2.19016 -0.553377
656 0.529658 -7.60597 -6.84018 1.77065 -2.8947 2.46205
365 1.96394 -6.82121 -7.39064 -1.32989 -0.0319013 1.68958
655 2.34318 -7.79833 -6.89637 -2.77015 -0.0481091 -1.32707
372 2.95737 -6.99304 -6.99465 -1.87911 -2.77959 -1.17357
658 2.38341 -6.98851 -6.30679 0.31764 -2.41442 0.4251
469 3.79352 -7.42409 -7.58742 2.66984 -1.33764 -1.06458
332 4.71613 -6.04727 -7.00745 0.727858 0.210239 -0.83793
371 3.76364 -6.39008 -6.99154 -4.26087 -1.86712 -0.223451
374 4.239 -7.26493 -6.75848 -0.192752 0.308034 -1.33793
373 5.24294 -6.89352 -6.80502 2.11557 1.50906 -1.12984
336 6.1929 -7.68526 -6.21678 1.64635 -0.190218 0.237114
665 6.19069 -7.13389 -7.04009 -1.70921 -0.0519599 1.99566
335 7.44501 -7.42393 -6.42852 0.452129 -0.2682 0.359494
671 7.54116 -6.89639 -7.21841 0.0550589 0.940755 -1.10545
429 8.40202 -6.79723 -6.59788 0.373 -1.00297 1.32148
719 -9.19607 -7.32783 -6.28406 1.98676 1.76099 -0.579521
666 8.49704 -6.50781 -7.7288 3.15365 1.67306 0.635135
437 -8.28037 -6.28984 -7.38879 0.45067 -0.0798862 -2.27585
392 -8.75475 -5.03169 -6.78506 1.01909 -0.603649 -0.89408
673 9.10118 -6.40086 -7.01493 -0.0504059 1.11658 -0.0236828
725 9.16339 -4.26965 -6.01133 -0.137795 -0.0151929 0.0354065
677 -7.6251 -5.39159 -6.98394 1.22249 0.201777 -0.670698
679 -7.72864 -6.11308 -5.90904 1.80599 -0.603355 1.0428
681 -6.95434 -4.90277 -7.47132 1.56199 0.739603 -0.407553
729 -7.45713 -4.88018 -6.21058 1.26008 -0.907497 2.31652
682 -5.9689 -5.70707 -6.74248 1.16195 -1.38826 0.0343795
731 -5.51478 -5.49316 -5.94057 -0.452248 -1.03923 1.04567
685 -5.55857 -4.67382 -6.37386 -2.13634 -1.30416 3.86828
397 -6.53862 -4.74734 -6.58183 1.95733 -3.90955 -0.853715
395 -4.8998 -6.06092 -6.66256 -0.99879 0.174354 0.00820683
446 -4.66087 -4.91695 -6.42817 -0.349514 0.50848 2.71131
405 -3.70176 -6.02824 -6.5985 0.776448 0.262688 0.289765
690 -3.11594 -5.56107 -7.97405 1.7758 1.48909 -3.13554
734 -2.7234 -6.4429 -7.5193 -2.418 -1.94507 0.256061
448 -2.82562 -5.87795 -6.74979 1.66499 4.08865 -1.00739
360 -2.0094 -5.73809 -7.59352 0.386732 -1.17735 -0.464169
696 -1.79112 -6.22171 -6.82094 -0.287628 1.0825 -0.560749
451 -2.06816 -5.10248 -6.74946 2.72208 -3.4929 0.799609
693 -1.17847 -4.73155 -6.28314 -1.79508 1.02056 -1.19116
355 -0.406963 -5.91986 -6.72472 -1.19081 2.22521 -1.12863
743 -0.0540401 -5.08537 -7.14264 4.01817 2.94947 0.0161179
697 0.580987 -5.91145 -6.66022 -1.92327 -2.03417 -0.715792
510 1.99704 -5.18539 -7.96009 2.64955 -0.207894 -0.223955
411 0.842105 -5.44783 -7.4948 2.39243 -1.66733 -0.311981
415 1.59731 -6.1875 -6.46648 0.722799 2.80795 1.65709
993 1.42071 -5.30482 -6.67704 1.44564 -2.49079 -0.644429
175 2.20137 -5.76766 -7.18036 -1.1486 -0.45973 1.19982
468 3.13427 -4.80569 -7.63535 -3.65805 1.70967 -1.32166
651 2.2268 -4.63762 -6.85127 -2.38355 0.493033 2.31384
513 2.85313 -6.02698 -6.59962 1.9435 -2.42944 -0.412069
420 3.33942 -5.74843 -7.55855 0.135764 0.317321 -1.6224
1042 3.16121 -5.09703 -6.63883 -0.205323 -1.10724 -0.175748
707 4.0478 -5.33857 -7.06992 -0.455059 -0.875586 0.792401
754 5.28125 -4.72152 -7.42977 0.394894 0.722704 -1.02689
3351 5.71817 -5.40255 -7.08011 -1.45741 0.510814 3.76562
423 5.37636 -5.8968 -6.13233 -2.0922 0.133746 0.962272
467 6.34584 -6.09052 -6.72786 -1.09615 0.818413 -0.132884
477 6.05134 -5.07162 -6.27027 -2.48304 -0.936241 1.18965
1006 6.92667 -6.60153 -6.25921 2.11972 0.912609 1.81642
422 6.62781 -5.36882 -7.42796 -0.531943 0.859287 0.204793
471 7.56168 -5.68706 -7.52782 -0.445634 0.913531 -0.483005
432 8.27609 -5.03217 -7.80897 0.565435 -2.2612 1.63158
480 7.26077 -5.58684 -6.3037 -0.36963 -1.07337 -0.293641
670 9.03581 -5.54375 -7.4232 1.15155 0.0379425 -1.37253
479 8.1708 -5.93514 -6.8137 -0.126984 -0.814716 -0.752621
721 7.99086 -4.97371 -6.74947 -3.43804 1.5739 2.30638
435 8.909 -4.4414 -6.97314 -0.144882 -1.65637 -1.36187
771 -8.41311 -3.33885 -7.2729 0.697889 0.266111 -2.0276
444 -8.40045 -3.77909 -6.3775 -0.131913 -0.61101 -1.16154
724 -8.93073 -3.12913 -5.73042 0.0464852 -1.18835 -1.50714
200 -7.63708 -3.55148 -8.06783 -1.69479 -1.44857 0.968705
157 -6.84491 -3.93474 -7.44109 1.48213 -1.19349 0.492282
150 -7.98117 -4.36163 -7.12632 0.987131 -0.875218 -1.08702
439 -7.5942 -3.03531 -6.65049 2.14946 -1.16264 3.17183
112 -7.24097 -3.99908 -6.59975 0.500109 0.672741 -2.83441
442 -6.58453 -3.22842 -6.72405 -0.703588 -1.26717 1.04031
491 -6.47259 -3.71629 -5.91829 -0.226762 0.406242 -1.62843
782 -5.78496 -3.79857 -6.8868 -2.41276 -0.452588 -0.73231
778 -5.89913 -2.85296 -5.9524 -1.40593 -4.63957 2.39425
1069 -4.91205 -3.58286 -6.43149 0.159356 0.767771 -3.43352
207 -3.72329 -5.02392 -7.03155 -1.21116 -2.30917 0.942673
490 -4.20659 -3.56238 -7.1552 -1.66107 2.07404 -1.6261
403 -2.78177 -4.69854 -7.36049 -0.622451 2.12817 2.24382
501 -2.92093 -4.99842 -6.29345 -0.467847 -0.195518 1.38479
789 -2.06227 -3.93655 -6.85244 1.09102 0.517533 -0.0695162
497 -3.16951 -3.74858 -6.88419 -0.947564 2.24951 0.348871
788 -2.4688 -3.09908 -6.57451 -0.14398 -1.48376 -0.486834
545 -2.15009 -3.68122 -7.80945 -0.0271122 1.15389 1.309
742 -1.66347 -4.73114 -7.70135 2.56565 -0.32633 -2.20846
168 -1.64625 -3.08991 -6.98027 1.82283 -1.73144 0.470295
792 -0.945408 -3.64614 -6.24776 -1.58344 -0.665885 -2.06229
749 0.457271 -4.86964 -6.37781 1.11094 -3.26275 -1.14959
745 -0.972217 -4.22215 -7.07871 1.71519 0.0640599 0.560824
220 -0.103644 -3.88573 -7.71754 -0.508248 -1.9387 0.0756328
503 -0.53446 -3.14452 -6.94451 2.02562 2.58525 0.934217
176 1.35634 -4.62327 -7.36268 1.0103 2.02162 1.68422
746 0.00101816 -3.96341 -6.58156 0.099423 2.13581 0.89067
845 1.76233 -3.28844 -5.67299 -0.354892 -2.228 0.0622297
515 2.00459 -3.6726 -6.60203 -2.17069 -1.0508 2.90194
516 1.99939 -4.27572 -5.7445 0.635834 -0.806199 2.76719
466 2.87889 -3.78047 -7.03036 1.19708 -0.998828 -1.03167
519 2.92285 -2.96418 -6.27101 0.167665 2.17003 -0.7367
465 3.99453 -4.49928 -6.46869 1.12392 -2.49038 -1.40008
801 3.85106 -3.53454 -6.33652 -1.7117 1.52946 -0.854723
473 4.60266 -4.0401 -7.15855 1.18601 -0.899661 1.05277
1048 5.51057 -4.19101 -6.6149 -1.74067 -3.50531 -1.18724
476 5.53946 -3.56723 -7.47205 -1.33416 2.37948 -0.339511
521 5.05861 -2.77325 -7.41528 0.694046 1.40668 -0.135783
474 6.4433 -4.43741 -6.98843 -1.92161 -0.0292471 -1.40073
527 5.76468 -3.26606 -6.46817 -2.79484 -1.08465 2.07649
815 7.36751 -4.5218 -7.45656 0.31805 0.981847 -0.205787
1098 7.23758 -3.24708 -6.05291 1.57694 -0.0550756 -2.09651
481 7.56376 -3.44347 -7.03188 2.85253 -0.872012 0.831926
813 7.26556 -4.23427 -6.50184 -0.33583 -1.6354 0.128525
436 8.24655 -4.07124 -7.48909 -1.39234 1.97863 0.899412
766 9.01337 -3.4273 -6.59029 0.95072 -0.938169 3.23032
1057 8.12918 -3.8673 -6.36167 0.427747 1.27902 0.780203
195 9.1125 -2.53995 -7.20093 0.220892 2.76781 2.95283
780 -8.02763 -2.7785 -5.8127 0.713373 -3.74843 -0.545762
536 -8.502 -1.72163 -6.55657 -2.65438 0.951599 -2.66238
486 -7.42083 -2.13697 -6.84918 -0.992225 3.93531 0.187137
824 -6.67691 -1.54788 -5.99551 -1.23486 -0.565528 0.919334
775 -6.83111 -2.57444 -6.04923 0.0921267 -1.16914 -0.524287
251 -6.45193 -2.28941 -7.12328 -2.04488 -2.13244 0.964709
496 -5.472 -2.68086 -6.90324 -1.58784 -0.467684 2.39096
538 -5.6757 -1.52135 -7.17704 3.69268 0.379304 0.748433
492 -4.49785 -2.69146 -6.86281 -1.04321 1.27092 -1.73929
774 -4.76744 -1.71333 -6.51959 -1.26593 0.0980018 0.276774
4048 -3.80595 -3.11119 -6.29199 -0.179615 -0.168429 0.527034
834 -3.3502 -3.00537 -7.54328 -1.51314 -1.05058 2.31155
833 -3.85866 -1.90048 -7.07245 -0.203043 -1.8279 -0.830515
826 -3.8797 -2.11518 -5.9289 -1.12319 -2.01688 0.910249
3765 -2.35943 -1.53883 -7.04379 -1.70562 1.40829 -0.48703
840 -3.1495 -2.40459 -6.77086 -0.0399053 1.01612 0.45556
1074 -2.06161 -2.18537 -6.42478 1.88308 1.49559 -0.572969
741 -2.32897 -2.72508 -7.58385 -0.816094 1.664 2.77327
552 -1.16869 -2.62594 -7.68011 -1.14253 -3.14104 -0.839115
504 -0.903925 -2.44633 -6.41949 0.908879 -0.522723 2.64008
786 -1.44219 -2.86 -5.64637 -1.76264 1.05375 -0.46609
4060 -0.624846 -1.44419 -7.91666 0.646378 -2.5077 0.736416
549 -0.37938 -2.23397 -7.25056 -1.46257 -2.09495 -2.15798
553 -0.321746 -3.03148 -8.11642 -2.10084 0.593076 -0.691821
506 0.446939 -3.03894 -7.03517 0.555938 -0.698385 -0.0533305
228 1.3912 -2.77566 -7.05019 -1.50636 -2.37592 0.0281116
797 0.796596 -2.03259 -7.35646 -0.280415 -1.84897 1.104
3483 1.88173 -1.91306 -7.28865 2.66405 -1.71661 -1.92382
1092 1.07415 -2.08961 -6.3906 -0.166647 0.945004 -1.64187
802 2.75073 -2.19732 -6.96992 0.893457 0.863578 3.16764
274 2.60428 -2.07201 -7.97946 -2.38657 -0.460057 -0.396043
464 2.38655 -2.89565 -7.4824 3.32313 -2.12005 1.37564
567 4.82561 -2.56927 -6.51921 -1.46112 -0.0567144 0.0439287
470 3.35354 -2.66664 -7.64501 0.971421 -1.67161 1.30344