ITEM: TIMESTEP
142000
ITEM: NUMBER OF ATOMS
6912
ITEM: BOX BOUNDS pp pp pp
-9.2265715179435492e+00 9.2265715179435492e+00
-9.2265715179435492e+00 9.2265715179435492e+00
-9.2265715179435492e+00 9.2265715179435492e+00
ITEM: ATOMS id x y z vx vy vz
290 -8.51289 -8.60075 -7.62946 -1.84023 -0.975684 1.21049
4365 8.36134 -0.010478 -5.49792 -0.754096 2.52492 -2.44914
8 -7.87668 -8.47591 -8.31313 1.19011 0.832254 2.13683
3467 -5.30278 -0.024268 -8.39819 -1.03504 -0.196685 -0.560329
294 -6.89985 -8.29077 -7.81485 1.40672 -0.0783645 0.776253
158 -3.74012 -3.87429 -9.06325 -0.37669 -0.23292 2.46375
12 -5.97846 -8.49217 -8.5851 -3.27136 0.42545 -1.32802
298 -5.22964 -8.44165 -7.712 0.452916 0.119791 -0.96866
345 -6.06889 -7.67004 -7.89404 -1.94876 0.562469 -0.821584
1961 6.13349 -3.16001 -0.0896489 1.77867 -1.5462 -0.277012
269 1.336 -1.51011 -9.11804 -1.09259 -1.15864 0.532791
16 -4.35218 -8.33759 -8.36215 -1.19511 -2.25061 1.49602
302 -3.60539 -8.27071 -7.46677 -3.56415 1.65935 -0.117315
587 -5.50674 -8.99269 -5.32635 -1.83475 -2.77589 1.58294
47 8.53062 -9.09172 -8.33931 -1.06873 -0.292474 0.923949
20 -3.16407 -8.39456 -8.52638 0.608468 -0.909229 -3.42666
7 -7.09312 -9.1093 -8.41769 0.322841 -1.94918 2.32195
3232 -4.39929 -7.66141 -9.22523 0.293227 -0.982571 -2.17108
306 -2.45214 -8.33245 -7.54698 -1.43631 0.0985568 -1.99978
24 -1.61318 -8.3908 -8.39519 0.371743 -0.715947 1.03053
26 0.0983803 -8.43161 -8.45366 -0.832936 -1.33129 -0.0946948
75 0.787843 -7.6979 -8.21449 0.182176 -0.372593 2.61151
165 -1.46663 -4.54841 -9.18718 1.16702 -2.0868 1.39214
22 -0.896911 -8.50401 -9.09196 1.49825 -0.482562 2.02909
241 -9.16768 -1.50662 -9.17208 -3.30407 0.672146 -1.21493
367 1.18369 -8.51313 -8.54694 -0.97981 -2.27108 0.985708
1866 6.94172 -5.51227 0.00746623 -3.12152 2.38346 1.47501
3499 6.9085 -0.0287868 -8.57045 0.267509 0.550499 0.924318
234 6.95809 -2.1765 -9.21546 0.308633 -3.02176 -0.120574
891 0.783173 -9.08095 -3.98406 1.62141 -0.056344 -1.44324
36 2.97964 -8.45352 -8.58161 -1.32362 -2.67599 -1.8053
79 2.10388 -7.95018 -8.57888 0.831918 -1.31469 -0.113888
273 2.92348 -1.45022 -9.14063 0.00667741 -1.02611 2.02889
40 4.72665 -8.50257 -8.24712 0.0315538 -2.16841 -2.00111
186 6.9975 -3.78924 -9.19925 2.15378 -0.693575 -1.16754
322 3.95908 -8.42818 -7.53288 1.6107 -0.540555 -2.45672
897 3.07184 -9.19398 -4.82334 -0.884221 -0.221722 0.644964
315 0.750813 -9.12018 -6.70474 1.41118 1.49083 -1.91057
44 6.08166 -8.56747 -8.34407 -1.48863 0.849958 0.0585505
138 6.80577 -5.21679 -8.99927 0.111129 -0.0314836 0.474385
48 7.73551 -8.45745 -8.34396 -1.52003 1.2789 0.932794
193 -9.13311 -2.90089 -9.22047 -1.20368 -2.39654 -1.79566
330 6.71498 -8.36139 -7.67943 -2.09368 -0.977793 -2.68618
1993 0.0290862 -1.4517 -0.0161174 -1.24472 1.47796 0.290888
907 7.00783 -9.20991 -3.77996 -0.206166 0.409264 1.83278
1187 4.11558 -9.014 -2.33241 -0.14707 3.02602 -0.473951
4 -9.22059 -8.30473 -8.40006 -0.413607 1.84832 -2.44564
4355 3.9215 -0.0288367 -3.73912 -2.49797 -1.70465 -2.78729
334 8.53178 -8.43634 -7.58235 -2.05344 1.47578 1.12197
4069 4.84449 -0.0318272 -6.14997 0.944474 1.0683 -0.0502667
205 -4.66303 -3.00317 -9.17533 -1.93462 -0.38955 0.0666671
6 -6.86606 -8.27677 -8.95642 1.27106 0.221768 0.428678
51 -8.51283 -7.60915 -8.27437 -1.57298 -0.0631928 0.360694
337 9.21599 -7.72602 -7.58757 -0.50271 -1.99943 0.633088
577 -9.20836 -9.18809 -6.13788 0.197721 -1.19974 1.29936
341 -7.62121 -7.46501 -7.92872 0.250978 0.776325 -1.06712
55 -6.83382 -7.46356 -8.42439 1.60281 -1.25658 0.312034
56 -7.63062 -6.74744 -8.63037 -1.93097 0.511305 1.68918
342 -6.9044 -6.76804 -7.77717 -2.21156 4.78552 -0.0335474
103 -6.83847 -6.11881 -8.48818 0.231384 3.22707 -0.89818
59 -5.28005 -7.63425 -8.41116 0.52867 -0.861406 -0.623044
60 -6.04133 -6.61707 -8.38766 -0.125349 1.22726 -0.655769
393 -6.21264 -5.91765 -7.54764 0.0567872 0.0543725 0.854221
346 -5.05712 -6.73758 -7.76449 2.43379 0.428422 -0.437267
63 -3.6882 -7.41866 -8.52435 -0.013052 1.81655 -0.384227
350 -4.45652 -6.87398 -8.58352 2.58656 0.204023 4.39157
349 -4.35902 -7.52034 -7.76678 1.39831 0.3014 2.04299
352 -3.68489 -6.63155 -7.54566 -0.519946 -1.70927 2.76272
67 -2.47339 -7.61908 -8.45376 -1.64682 -2.83059 0.124608
353 -3.06068 -7.37347 -7.69492 -2.81613 0.880233 0.359509
68 -3.03894 -6.75089 -8.45223 1.75336 1.08723 -0.783792
354 -2.18791 -6.91341 -7.68182 1.45733 1.8692 -1.54232
3759 -3.79074 -0.168785 -6.89687 -1.90594 0.686013 -0.0677224
72 -1.46361 -6.83647 -8.47168 -2.33154 -1.18284 -1.1259
357 -1.40651 -7.50721 -7.75785 -3.20972 -0.636567 -0.348021
249 -6.14172 -1.50495 -9.13037 -1.53504 -1.84112 -0.311293
869 -7.64746 -9.1444 -4.53879 -0.855456 1.17485 -0.0102199
71 -0.722392 -7.71065 -8.45302 0.405971 1.03659 1.68546
76 -0.164183 -6.90625 -8.43659 0.637756 1.72903 -1.03881
4329 -6.01015 -0.0469904 -4.67113 -1.03476 0.530104 0.274983
362 0.806761 -6.92383 -7.68888 -3.31046 -1.48586 -2.86241
80 1.48316 -6.82464 -8.40375 -1.71582 -1.03847 -1.56398
84 3.10842 -6.71132 -8.41906 -1.28155 -0.712045 1.31683
417 3.04654 -6.13949 -7.69749 -0.589408 1.7604 0.489814
4037 -7.81297 -0.0079492 -5.99117 1.69811 -0.956081 -0.977043
83 3.99658 -7.95631 -8.43354 -2.14007 -0.89947 -0.0700817
88 4.73406 -6.91098 -8.63812 -1.28654 0.661192 -0.00460719
373 4.85853 -7.71514 -7.77871 1.55188 -1.36138 -1.66616
370 4.04308 -7.04302 -7.93247 -3.05882 -0.846395 0.887458
35 3.80976 -9.04752 -8.42934 0.525157 1.24076 -3.90652
87 5.38107 -7.85576 -8.66535 1.37505 1.82297 0.663073
92 6.43703 -6.88175 -8.36262 0.170303 3.39412 -0.652593
377 5.913 -7.58678 -7.73401 -0.500576 1.678 -2.26821
4643 4.03519 -0.0562382 -2.39702 -0.474069 -0.667174 -1.13622
91 6.89738 -7.689 -8.46184 -1.30856 1.11929 0.462938
96 7.70356 -7.00372 -8.46996 -2.16847 1.33246 0.714264
378 6.87769 -7.26618 -7.5944 -2.11831 0.381293 -0.0958645
4335 -3.86369 -0.0154723 -3.72927 0.52774 1.13486 -0.608493
3755 -5.3634 -0.103124 -6.96461 1.31308 -0.138774 -2.01986
95 8.36791 -7.81333 -8.3582 0.331558 2.38063 0.743729
52 9.20362 -6.71419 -8.51065 0.726629 1.26209 1.23264
382 8.33448 -6.99852 -7.6861 -0.446129 -2.78512 -0.0746981
623 8.47705 -9.16954 -5.3369 -2.35485 -0.452867 -2.50827
4331 -5.25851 -0.144779 -3.89615 1.90445 -0.230213 -1.21013
210 -2.27552 -2.40773 -9.17928 -1.39851 -1.48693 -1.07358
99 -8.55112 -5.86748 -8.75325 1.48439 -1.79884 -0.415558
146 -8.44328 -4.81156 -8.62667 -0.36432 2.32834 -0.0759816
386 -8.40938 -5.46703 -7.69786 -2.46484 -0.431539 0.950011
100 9.10792 -5.34203 -8.38388 -0.305263 1.8142 4.63942
313 -0.0984868 -9.12025 -7.68033 -0.818136 -0.999529 -2.0594
104 -7.61014 -5.23284 -8.47735 -1.72221 -0.0746229 2.04707
1789 -4.71233 -7.98232 -0.0767151 -1.87905 -0.195747 0.705914
74 0.721081 -7.0233 -9.02541 -0.805972 -2.1886 -1.07162
107 -5.17353 -6.01186 -8.46609 2.08147 1.26575 1.77287
108 -6.1495 -5.42338 -8.51523 0.201866 -0.926287 -1.17403
53 -7.79093 -7.72451 -8.98105 1.50084 2.59738 -0.468545
592 -4.61402 -9.15553 -4.5976 -1.61838 -0.00258804 0.637554
111 -3.75855 -6.1878 -8.38489 -0.0417144 -1.85372 -0.719342
112 -4.43049 -5.29271 -8.36826 1.15256 -0.623007 1.34718
289 9.19158 -9.16758 -7.53401 -0.336437 -3.47681 0.202039
397 -4.38267 -5.99923 -7.63714 1.19484 1.68604 -1.3393
398 -3.73594 -5.15257 -7.51274 -0.846166 1.36527 -0.62063
401 -3.0364 -5.97771 -7.54849 2.94871 -2.29563 1.18382
115 -2.25012 -6.14212 -8.31149 3.21812 0.965135 1.01164
116 -2.91509 -5.31823 -8.48424 -2.93887 -2.67302 -0.531523
106 -5.14806 -5.24699 -9.22213 -0.981504 -1.11912 0.347617
120 -1.44485 -5.13191 -8.36389 1.06004 -1.01979 -1.52706
119 -0.752127 -6.03104 -8.43708 0.939078 2.49217 2.10832
405 -1.63931 -5.83877 -7.58573 -0.644572 2.05191 0.226922
327 5.19632 -9.18816 -7.00966 -0.930982 -2.57276 -1.5351
3765 -1.58714 -0.094644 -7.73477 0.823577 -0.00403815 -1.74184
1199 8.40283 -9.17864 -2.24091 1.08542 0.848144 -1.68473
124 -0.101295 -5.18191 -8.47655 -2.41524 -0.120713 -1.11841
123 0.580529 -6.00679 -8.49144 -1.05999 1.32694 0.826982
128 1.64675 -5.15414 -8.44308 0.733967 2.58699 1.16879
171 0.687052 -4.60038 -8.5155 2.62448 -0.616056 0.155152
4633 0.0942272 -0.0178761 -3.05291 -0.10487 0.555197 -0.726098
127 2.2486 -6.19043 -8.49479 -0.40152 -0.556436 -0.647104
132 3.14774 -5.44544 -8.68397 -3.03362 -1.82003 -3.09888
4655 8.35772 -0.133064 -2.51347 0.311407 1.8226 -3.79099
421 4.63366 -6.21623 -7.93817 0.119178 -0.855364 -0.425499
131 3.894 -6.13939 -8.56214 -1.02807 0.532409 1.02683
136 4.71416 -5.33376 -8.42195 0.839287 -0.866148 3.33684
4361 6.29705 -0.0436352 -4.42814 -0.309937 1.86257 1.07174
4359 5.50505 -0.10758 -3.79321 3.75216 -2.87422 0.908016
425 6.00808 -6.16453 -7.78446 2.01612 -2.44766 0.461422
422 5.35981 -6.12395 -8.59131 0.823289 0.964989 -1.40372
140 6.10143 -5.32468 -8.35735 1.64753 -0.563321 2.90412
473 5.42258 -5.34569 -7.69135 1.33487 -0.224394 1.33679
1746 -2.14751 -8.5982 -0.069815 -2.49789 -2.61628 -2.44319
139 6.88281 -6.08921 -8.5066 -0.425841 1.70364 -2.31319
429 7.59139 -6.27736 -7.72383 1.09666 -3.42117 0.383834
187 6.90026 -4.47538 -8.44191 0.373965 -1.46113 -0.700398
144 7.8475 -5.23308 -8.63864 -1.96533 -1.42358 -3.06032
143 8.30925 -6.21712 -8.55288 0.88457 1.08029 -0.519245
434 -8.43715 -3.78985 -7.6998 -1.20058 -2.09555 2.75765
481 9.22048 -3.12677 -7.70615 1.85917 -0.0443216 3.46076
148 -8.88147 -3.65321 -8.55071 -0.212408 -2.94802 0.890637
265 -0.0557254 -1.50157 -9.21773 -2.08312 1.16877 -2.4894
151 -6.65172 -4.65559 -8.65267 2.65944 0.028882 -0.935352
437 -7.80438 -4.62276 -7.64783 1.19338 0.551017 0.130963
150 -7.68177 -3.8431 -8.58754 -1.04305 1.0166 -0.350832
199 -7.01471 -3.10313 -8.61143 0.519895 2.26496 -0.0355417
152 -6.88591 -4.00272 -7.67906 1.5366 -1.56584 -0.704082
155 -5.32876 -4.71389 -8.37918 1.75698 1.34258 1.20193
438 -6.11929 -3.78016 -8.35553 -0.340689 1.33601 -0.447293
442 -5.31997 -3.84895 -7.70971 1.92373 2.19542 -2.12038
489 -5.97018 -3.06219 -7.76395 0.920941 1.24018 1.52001
3769 -0.0226534 -0.123565 -7.82 1.62249 2.63461 -0.999707
159 -3.49982 -4.57583 -8.40724 -4.42985 0.929728 -0.767057
160 -4.48768 -3.99939 -8.27522 2.97204 1.85008 -0.0706001
445 -4.65335 -4.58968 -7.5487 2.28255 -0.950616 0.441009
58 -5.22894 -6.8502 -9.03621 0.478415 -0.19179 0.367204
163 -2.27954 -4.55853 -8.37521 1.61015 1.20282 -1.70788
164 -2.92863 -3.85907 -8.32952 0.363414 -2.11894 0.029988
449 -2.81637 -4.39248 -7.55393 -1.06305 -0.427799 1.45888
450 -2.0434 -3.7499 -7.55097 3.70094 4.44803 0.312232
4625 -3.17252 -0.116369 -3.07224 -0.397573 1.87122 1.24811
209 -3.08294 -3.07609 -9.13657 -0.397226 -2.58421 -0.0529005
4353 3.0525 -0.0284244 -4.47629 1.78672 1.90555 -2.16439
309 -1.66571 -9.02556 -7.62769 -0.364533 -0.407529 -0.372906
453 -1.38285 -4.55986 -7.52222 1.92514 0.492412 1.4457
168 -1.43608 -3.62498 -8.57191 3.07107 -0.790527 1.86532
454 -0.678385 -3.80585 -7.76882 0.0203916 -1.82908 -0.0042745
167 -0.705067 -4.35292 -8.57643 -0.698999 -0.777977 -4.1499
172 0.0908037 -3.63151 -8.46234 -1.61436 0.712552 1.61872
601 -0.307253 -9.09512 -6.18331 1.48441 0.57049 -3.05887
38 5.37646 -8.64023 -9.1317 -0.144815 -0.131475 -0.0921673
176 1.63297 -4.03818 -8.59568 0.834009 1.42196 0.468999
175 2.45645 -4.61378 -8.49714 0.949885 1.85449 0.373119
4049 -3.20936 -0.259804 -6.16753 -0.83366 -1.16327 -0.230658
182 5.34106 -3.58208 -9.22202 -3.45148 6.72551 -2.36146
180 3.10676 -3.74007 -8.30848 1.88596 0.882338 -1.16924
223 2.32947 -3.03201 -8.36206 -1.21495 2.44842 0.854976
4367 8.46597 -0.0583101 -3.91794 -0.791627 -0.80478 1.185
469 4.58736 -4.76967 -7.59024 0.610437 -0.95363 0.302034
179 3.75888 -4.54505 -8.51254 -0.167006 1.6737 -0.827316
184 4.45127 -3.77194 -8.38312 1.65045 -1.17677 -1.79566
183 5.44524 -4.50723 -8.36913 -2.58145 -0.0810333 -0.47937
188 5.89586 -3.57415 -8.39975 2.2422 0.633187 2.15896
470 6.15328 -4.28928 -7.71634 -0.697162 -0.0449629 -0.605139
231 5.23246 -3.67569 -7.65309 -1.13504 0.267425 1.76671
250 -5.41193 -0.806351 -9.13417 -1.41598 -0.93279 0.0148498
192 7.7547 -3.6263 -8.40357 -3.52546 -1.0607 0.204975
191 8.48694 -4.4976 -8.4138 1.29766 -0.0526938 -1.78534
254 -3.89939 -0.808301 -9.15615 2.48997 -0.342545 -0.350095
195 -8.30538 -2.99317 -8.38398 0.744629 0.730937 -1.85095
482 -8.49462 -2.24839 -7.75311 0.120515 -1.54929 0.582766
196 9.16268 -2.22551 -8.51994 2.01661 -0.539213 -2.32054
529 -9.1269 -1.42232 -7.82865 3.19406 0.904015 -0.1754
185 6.03888 -4.1987 -9.10181 0.135613 -2.31231 -0.324811
194 -8.43502 -2.16622 -9.16009 -2.0899 -1.77176 -2.49906
200 -7.62306 -2.32518 -8.5513 1.87837 1.53167 2.63891
486 -6.90925 -2.33427 -7.7914 0.895711 -2.90532 1.24841
1171 -2.55978 -9.13504 -2.2734 -0.43126 0.267935 3.85225
203 -5.29387 -2.99308 -8.4027 -0.632422 -1.33153 -0.905628
204 -6.08773 -2.3862 -8.52923 -0.167958 -0.0675282 -1.39342
251 -5.26935 -1.58379 -8.5621 0.639912 0.846774 1.00267
490 -5.26277 -2.25978 -7.7537 0.122416 -4.67633 -1.45023
305 -3.08678 -9.19548 -7.48292 -4.37143 -1.28204 -0.674846
207 -3.77765 -3.04645 -8.49255 1.2805 -0.0405665 -0.611896
1998 2.3402 -0.63025 -0.0674274 0.0568872 3.44725 0.432465
208 -4.53877 -2.13652 -8.57834 0.0780933 -0.233902 2.8479
4363 7.84914 -0.044702 -4.68098 -1.19116 0.366972 -2.68138
211 -2.34655 -3.02504 -8.42473 -0.415619 3.31984 -2.73615
212 -2.99601 -2.30396 -8.38154 2.02499 0.412491 0.219741
259 -1.99591 -1.65122 -8.60601 -0.902871 1.06792 0.267473
1794 -2.2024 -6.62999 -0.164977 2.86018 1.25135 1.43339
50 -8.499 -6.99448 -9.07989 -0.268863 0.479538 1.22206
501 -1.33817 -3.05419 -7.62584 -1.498 -1.28382 -2.75227
216 -1.31923 -2.40516 -8.40841 0.581713 -0.361182 1.13115
215 -0.671021 -3.07738 -8.46909 1.81662 2.48856 -1.79596
263 -0.806457 -1.54503 -8.41672 -1.1459 -1.33021 -2.16006
502 -0.682153 -2.38174 -7.58583 0.831412 0.517304 -2.77433
220 -0.028456 -2.33869 -8.71628 2.30913 -0.299245 -2.23308
506 0.8709 -2.31409 -7.5053 -2.95499 -2.27236 0.776349
219 0.872857 -3.06358 -8.41365 1.29179 0.892646 2.06438
224 1.53714 -2.373 -8.24911 1.18959 -1.7272 -1.24192
267 0.600673 -1.5314 -8.39581 -0.803785 -1.17911 0.111506
509 1.60893 -3.26031 -7.64484 0.89059 2.04924 0.611458
228 3.17535 -2.2568 -8.36995 -1.2753 -0.91163 0.0520167
512 2.31888 -2.28392 -7.7301 0.264338 0.283424 0.212314
271 2.33031 -1.37593 -8.38452 0.772464 1.79258 -2.249
893 1.39586 -9.14929 -4.85128 1.02358 4.20488 0.697449
227 3.68568 -3.01988 -8.60117 -1.05209 2.60292 -1.23198
232 4.48542 -2.16355 -8.53624 0.375649 -0.487606 -0.300032
517 4.6058 -2.85703 -7.56524 1.20558 0.825727 -0.4598
514 3.8133 -2.23484 -7.71843 -0.164771 -1.97556 1.20415
1877 -7.71375 -4.59507 -0.17965 1.17569 -1.83083 1.28031
45 7.70403 -9.14494 -9.01631 0.968037 -1.83965 1.23633
266 0.773519 -0.665793 -9.13191 1.66236 -0.197252 0.428653
518 5.28731 -2.88714 -8.38886 -1.77519 -3.21625 -1.38331
236 6.12455 -2.19204 -8.49391 3.43726 1.02595 -2.7564
565 5.20293 -2.12077 -7.75562 1.95334 0.898308 -3.669
235 6.90535 -2.8963 -8.40872 0.512596 -2.4905 2.04783
240 7.62671 -2.17495 -8.22836 1.30525 -1.05155 1.45885
161 -2.90834 -4.52685 -9.1656 -0.278499 1.54068 -0.707175
239 8.56539 -2.95615 -8.58171 1.74 2.71962 0.646751
3501 7.73547 -0.124987 -9.16582 -1.91029 2.28282 -0.109717
15 -3.80908 -9.19871 -8.40144 2.30764 3.51328 2.20723
5 -7.79111 -9.08585 -9.01851 0.631855 1.06575 0.874591
243 -8.42201 -1.52226 -8.4991 0.804079 -0.722728 -0.166081
530 -8.37158 -0.565789 -7.5957 3.54347 -2.04555 2.76109
244 9.06077 -0.750405 -8.44245 3.15675 1.73467 -2.88614
605 1.54994 -9.1975 -6.02806 0.417252 -0.503127 1.27516
301 -4.48251 -9.14416 -7.66644 1.22337 -2.62448 3.30614
247 -6.91686 -1.50882 -8.41514 -0.515133 -0.743834 -0.0843949
248 -7.60098 -0.761431 -8.46486 -1.66974 0.795224 1.45548
252 -6.25836 -0.799359 -8.41739 -0.320904 -1.28222 -0.401265
237 7.66537 -2.86771 -9.13224 0.0175234 -3.14487 -1.30204
255 -3.82952 -1.48023 -8.52692 -0.686708 -0.937597 1.14128
256 -4.6535 -0.799293 -8.4676 1.63993 -1.88258 2.7422
1766 5.46552 -8.34292 -0.0886134 -2.85222 0.476266 4.08894
260 -2.93467 -0.80022 -8.53941 2.8299 1.00268 -0.963006
291 -8.5807 -9.10893 -6.83442 -1.42673 2.27094 -2.37001
78 2.18217 -7.05178 -9.10048 -1.94214 -1.02793 -1.33794
1930 -5.55221 -2.19422 -0.421184 0.201711 -0.515197 -1.93627
264 -1.35245 -0.806376 -8.52951 -0.551142 -0.378111 -0.382003
550 -0.815424 -0.716669 -7.75704 -1.59907 -0.391669 1.35031
3745 9.14459 -0.219917 -7.60389 -0.442482 1.45392 -3.10884
1157 -7.78769 -9.10753 -3.03866 -1.17586 -0.521002 0.949937
268 -0.0700913 -0.766698 -8.53252 0.164683 -1.56611 -1.34308
553 -0.125078 -1.48024 -7.79089 0.381681 1.56942 -1.5795
19 -2.34925 -9.16147 -8.37482 1.47804 -0.300522 -0.772058
299 -5.46813 -9.04601 -6.96667 -1.30057 -0.316374 2.13726
272 1.55589 -0.713135 -8.42835 -0.0548188 -1.19776 -1.7223
1937 -3.18611 -3.1466 -0.0531823 -1.32196 0.998038 -0.318239
274 3.82324 -0.563729 -9.12885 1.27574 -1.1322 -0.294648
276 3.06012 -0.647587 -8.60125 0.717943 0.681744 1.35871
295 -6.81882 -9.01713 -6.86639 2.31303 1.4207 1.55141
280 3.71782 -1.37164 -8.2984 -2.19035 1.4531 1.07273
566 4.51486 -0.501863 -8.4664 -1.53251 0.311597 -0.318249
117 -1.44994 -6.11835 -9.05995 0.668861 2.62454 -0.0571
262 -0.794043 -0.58186 -9.21126 -2.01717 -3.89638 -0.869968
4915 -2.29787 -0.0214403 -0.69243 1.24293 -0.034469 -0.650486
279 5.14344 -1.51096 -8.51118 0.637445 1.82968 0.902396
284 6.05066 -0.716933 -8.47065 0.734729 0.856165 0.692486
3457 9.15857 -0.0368444 -9.175 2.4951 -1.64133 0.897642
283 6.8134 -1.43218 -8.51476 1.01606 -0.77484 1.73557
288 7.54864 -0.748586 -8.34144 -1.25627 0.567201 -0.741584
570 6.68864 -0.674683 -7.7208 0.323111 3.09618 -0.48698
174 2.51408 -3.89188 -9.15371 -1.50607 -1.36665 -0.218761
573 7.43879 -1.40426 -7.54867 -1.57881 0.576009 -1.95069
287 8.227 -1.38728 -8.14987 2.51296 -1.78771 1.00437
574 8.25963 -0.571824 -7.61032 -0.467264 1.05229 1.17697
335 8.51441 -9.21301 -6.72194 2.26098 1.2635 2.21714
292 -9.19485 -8.44579 -6.92493 -0.351516 -1.52924 2.29728
578 -8.59768 -8.31632 -6.1872 -0.400226 3.53615 -2.0756
4919 -0.66816 -0.0611369 -0.73604 0.639619 1.94791 -0.40717
296 -7.67423 -8.38796 -7.04082 -0.61397 -3.15096 2.35549
343 -6.98509 -7.63063 -7.18292 -2.25158 0.888127 -0.0646647
589 -4.91734 -9.0607 -6.11968 -2.37007 0.434326 0.654441
300 -6.21894 -8.22809 -7.01068 -2.08234 0.391564 4.91032
347 -5.2667 -7.52479 -7.11033 -0.864792 -2.12117 -2.32305
633 -6.10593 -7.28536 -6.41815 1.19403 2.35439 -0.791852
5213 1.57528 -0.0207886 -0.103728 -0.752261 0.0251197 -0.23298
304 -4.50033 -8.21811 -7.02273 -0.928764 4.34466 2.25978
118 -0.82818 -5.30607 -9.18585 0.499358 -1.9988 -0.491654
639 -4.6078 -7.55908 -6.40302 -1.33799 -0.0352234 -0.65547
46 8.50731 -8.50023 -9.13946 -3.17988 0.306529 1.24931
307 -2.344 -9.17697 -6.75658 0.231405 -2.06876 1.17361
57 -6.09451 -7.48769 -9.07123 0.805253 1.58437 2.42954
308 -3.26026 -8.61711 -6.59119 -0.95954 0.436275 0.698093
333 7.64943 -9.05572 -7.54227 -1.86866 0.274228 -0.262746
310 -0.785464 -8.3436 -7.7776 0.0217226 -1.17035 -0.446837
583 -6.98243 -9.18009 -5.41885 1.456 -0.870759 2.41457
311 -0.870546 -9.15623 -6.94475 0.103553 -0.939872 -2.89511
312 -1.65431 -8.15261 -7.09923 -2.96752 0.730142 -0.635918
598 -0.888473 -8.24086 -6.18818 -0.620531 -1.79447 -0.550056
597 -1.64823 -8.69405 -6.29437 0.211677 -0.244686 2.74987
316 -0.0498934 -8.4341 -6.90989 2.8493 1.92394 0.565061
3465 -6.24859 -0.0146828 -9.00514 -2.90986 -1.23602 -3.46316
28 0.702362 -8.62724 -7.5819 0.220822 0.41474 -1.3145
314 0.754495 -7.70676 -7.0505 -1.68581 -0.0179966 2.64199
320 1.62297 -8.54127 -6.99265 0.878389 -2.49004 3.98815
189 7.74185 -4.35298 -9.21695 0.914372 1.89999 -2.00376
318 2.30897 -8.59508 -7.74183 0.674624 -0.05901 -0.313622
324 3.04826 -8.35055 -6.9135 1.84911 -1.91801 -1.44886
4045 -4.39531 -0.2093 -6.15915 -2.46906 2.52858 -1.18432
1798 -0.631926 -7.09772 -0.139408 1.54744 2.13484 0.467371
328 4.74872 -8.34213 -6.87577 -1.48598 -0.474232 0.320234
610 3.80424 -8.39452 -6.00493 2.25515 -0.980862 -0.509031
867 -8.74555 -9.18927 -3.65572 0.22119 0.706454 2.56759
233 6.21696 -2.94938 -9.20602 -0.644774 -0.843618 -1.00126
326 5.48502 -8.44509 -7.52653 -1.2883 -0.0539239 1.32238
332 6.22746 -8.4546 -6.74389 2.17763 -1.51903 -1.64412
665 6.10425 -7.68579 -6.12065 2.44206 0.220194 -0.0319695
1962 6.99646 -2.34867 -0.0780752 1.90112 -0.227408 0.872647
4897 -9.07992 -0.613855 -0.951456 2.56806 0.429488 0.612508
336 7.64767 -8.52038 -6.80049 0.108746 -0.919962 -1.94695
379 6.88676 -7.77354 -6.75877 -1.82416 -0.939135 -0.145709
4043 -5.39353 -0.0914153 -5.57727 3.18491 2.26943 -0.496174
13 -4.53622 -9.17313 -9.09109 -1.86151 -2.46082 1.78822
4647 5.38569 -0.0898325 -2.5562 2.50618 -0.665005 -1.96641
338 -8.37019 -6.44974 -7.96518 0.217062 -1.41665 -0.278876
339 -8.44541 -7.37158 -7.2663 -0.0915133 0.0195595 2.79408
340 9.09281 -6.90925 -6.89184 -1.65654 -0.0580845 -1.14377
625 -9.19071 -7.63445 -5.99885 0.101292 -1.93234 2.10566
387 -8.54216 -6.08367 -6.89115 0.565884 -4.41806 -1.20354
626 -8.52595 -6.96659 -6.23992 0.956959 -1.33195 0.545
389 -7.52639 -5.906 -7.82017 0.667967 -0.934454 0.849169
344 -7.77534 -6.65065 -7.09282 0.0783122 1.22429 1.17716
391 -6.96076 -6.06252 -6.84578 2.17432 -0.226319 2.04789
629 -7.84356 -7.63223 -6.44844 -0.277583 -0.918204 2.04305
630 -6.98887 -6.92879 -6.37999 0.66008 0.0705632 0.833566
677 -7.83935 -6.08877 -6.19067 -1.01532 2.16873 0.0892847
348 -6.10018 -6.83803 -7.2954 0.685296 -1.9441 2.06511
395 -5.36198 -6.10798 -7.00449 -0.481549 -2.08087 -2.33225
637 -5.26498 -6.82584 -6.33726 -0.845433 1.40545 1.64163
351 -3.74604 -7.45108 -6.94473 1.48962 -0.976884 -0.232077
634 -4.53397 -6.78715 -7.04555 3.48087 2.75863 -2.42739
399 -3.68842 -5.90737 -6.86735 0.984896 3.93037 0.758972
685 -4.51642 -5.98302 -6.0783 -1.6042 -0.412712 0.718852
355 -2.40038 -7.62946 -6.75837 -2.06645 -2.6638 -3.31299
356 -2.85872 -6.75325 -6.89034 2.24967 1.40918 -0.604505
358 -0.836668 -6.70981 -7.68658 -2.13063 -0.650462 4.51043
360 -1.71009 -6.8891 -6.77729 -0.332613 -1.5338 -3.01378
361 -0.0848515 -7.72799 -7.64148 -0.810483 -0.527557 -0.840924
359 -0.765244 -7.47135 -6.84265 -0.676921 -0.148392 -0.691233
364 0.0791975 -6.84792 -6.89724 0.264146 -2.84321 -0.524491
365 1.57505 -7.81104 -7.69709 -0.304575 -0.1234 -1.20312
413 1.66554 -5.94065 -7.80001 0.443065 -0.338895 1.87958
653 1.6929 -7.73072 -6.32149 -2.16148 -1.17081 0.461568
368 1.44894 -6.95659 -7.05093 -1.84589 2.56698 0.953708
366 2.32828 -7.08258 -7.92493 0.962677 -0.742068 0.604503
369 3.28971 -7.68084 -7.78909 0.003116 -1.74957 -0.269941
654 2.27235 -7.86102 -7.10549 -1.93621 -0.80196 -0.616269
372 3.05711 -6.93447 -7.04981 -1.57261 -0.354719 -3.02246
371 4.06407 -7.58869 -7.0842 -1.38359 -0.0072379 -1.11058
376 4.84136 -6.76723 -6.80575 -2.77569 -1.30418 -2.00452
419 3.8558 -6.26758 -7.0246 -0.354877 -0.87818 0.283149
658 3.90147 -6.99359 -6.22084 1.07044 -1.28566 1.46963
375 5.33129 -7.57707 -6.94624 -1.38876 2.10704 0.732674
374 5.30341 -6.85624 -7.79437 -0.136603 0.0243125 2.37903
380 6.20503 -7.04255 -6.88721 2.78754 1.52943 1.92208
662 5.49287 -6.87255 -6.10481 0.335019 -0.214255 -0.80917
384 7.61696 -6.93265 -7.01995 -0.277945 -3.19323 -2.25454
666 6.88114 -7.032 -6.14892 -1.54606 2.13058 0.0457662
669 7.5884 -7.76998 -5.96949 0.164856 0.67358 -0.130301
381 7.60907 -7.84992 -7.62483 2.85273 2.81346 -2.17234
383 8.22243 -7.73691 -6.69124 -0.250488 -0.630802 1.06132
431 8.21644 -6.02192 -6.94635 -0.610989 2.5821 0.880083
670 8.48608 -6.95554 -6.08154 -0.535674 1.68249 -0.935422
385 8.94624 -6.02375 -7.73386 -0.617246 1.02422 -2.43219
388 8.95609 -5.22101 -7.11002 -2.28764 0.222302 2.36376
674 -8.47353 -5.33398 -6.20853 0.989158 -0.339136 1.15567
390 -6.89447 -5.24177 -7.52715 0.771155 -1.2846 0.197717
392 -7.67093 -5.30598 -6.92369 -1.45362 -1.4682 -3.49034
439 -6.89147 -4.42276 -6.81664 0.694039 1.49281 2.06861
394 -5.36633 -5.3851 -7.74937 -0.766585 0.672767 -0.0786267
396 -6.31803 -5.21972 -6.6816 0.535084 1.67579 0.192828
441 -6.07005 -4.627 -7.77955 -0.37779 1.29609 0.176009
400 -4.60565 -5.26486 -6.8829 -1.53821 0.777897 -0.766816
448 -3.96588 -4.45218 -6.7584 0.106798 -2.37025 -2.21975
447 -3.66701 -5.20499 -6.13007 1.32406 -1.17343 -0.942986
733 -4.71966 -4.5448 -6.18143 3.23499 0.0181539 1.71376
402 -2.18257 -5.11905 -7.58888 -0.88739 0.162511 -2.35271
403 -2.18698 -6.00028 -6.7889 -0.941667 3.35318 3.84577
404 -2.97768 -5.15638 -6.98478 -1.1978 -0.409877 -1.91951
690 -2.22406 -5.12854 -6.13719 -0.412083 2.67426 3.52431
407 -0.6645 -6.03487 -7.03247 -0.272401 0.493373 0.451638
406 -0.699921 -5.38387 -7.71618 0.455256 0.644264 0.5776
408 -1.45459 -5.29373 -6.74464 1.20764 -0.895726 0.850705
693 -1.43232 -6.05874 -6.1342 0.25661 -0.501109 1.62378
409 0.0188587 -6.0845 -7.63634 -0.315331 1.01547 0.338569
412 -0.0294031 -5.36848 -6.92951 2.85068 2.41088 0.917148
411 0.857973 -6.10297 -7.06959 -0.497062 1.04098 -1.38662
410 0.732399 -5.35343 -7.7018 -1.34283 1.72461 1.12888
416 1.62246 -5.30699 -7.04943 -0.112178 -2.91126 0.535767
414 2.47476 -5.36203 -7.70112 0.172415 0.532673 -1.4361
415 2.23139 -6.14097 -7.04222 -2.00809 -0.301271 0.359521
705 3.15962 -6.23504 -6.29484 0.83012 0.960435 0.301064
420 3.18619 -5.41806 -6.99278 -0.110886 0.61093 1.35377
463 2.3329 -4.66588 -6.99074 0.0478486 0.69169 -2.15107
709 4.6402 -6.21506 -6.02452 -1.15717 0.821777 3.31136
418 3.87186 -5.39996 -7.85946 -0.599617 2.82408 -1.55341
424 4.5604 -5.59998 -7.01868 0.0906987 0.864125 0.653432
706 3.8281 -5.45573 -6.24958 -3.16148 -1.61072 1.07178
423 5.48541 -6.1756 -6.92227 -2.67809 0.878436 1.53617
713 6.23608 -6.18321 -6.25834 -0.111226 2.31816 1.813
428 6.2589 -5.34681 -6.98831 3.04697 -1.76256 4.05093
471 5.53221 -4.58244 -6.84879 -1.69018 1.4438 0.381842
710 5.53968 -5.28257 -6.27723 -1.83136 -3.76173 1.55068
426 6.956 -5.3541 -7.77983 2.25435 -0.227434 2.22271
427 6.8009 -6.26791 -7.17685 0.910522 -0.115813 -1.86542
432 7.58629 -5.20985 -6.96653 2.00118 -1.54246 0.492369
717 7.41199 -6.2831 -6.33444 -4.16801 -1.87803 -1.1141
430 8.21986 -5.28886 -7.81253 3.70132 -2.22334 -1.21671
718 8.21075 -5.13817 -6.25162 0.026849 1.36237 0.38319
435 -8.42766 -4.64942 -6.9545 2.38701 2.02545 -0.460409
436 -9.17245 -3.86367 -7.02217 2.12625 -1.72797 0.257006
483 -8.50629 -3.00597 -7.11273 -0.601439 1.71883 -1.25527
440 -7.6905 -3.90071 -6.88 -0.406345 1.85442 2.0236
487 -7.03967 -3.18132 -6.88962 1.81649 0.680974 -0.965477
773 -7.76995 -3.13915 -6.25308 -0.00313478 -1.34007 1.69187
726 -7.02435 -3.85313 -5.95231 -0.803887 -1.84274 0.457289
443 -5.50181 -4.54384 -6.98354 -1.80372 1.90096 0.953354
444 -6.2012 -3.70873 -6.95592 0.168265 1.90495 -0.688056
730 -5.44546 -3.67043 -6.35341 2.02503 4.8993 -0.493906
446 -3.66808 -3.96089 -7.62055 -0.929126 0.509062 0.485046
493 -4.59623 -3.12514 -7.80115 0.120817 -3.59095 0.796757
495 -3.85937 -3.14822 -7.14663 1.74602 -1.28484 -0.340618
451 -2.06885 -4.42785 -6.83836 -2.37447 1.45331 1.32761
452 -3.0802 -3.68067 -6.88606 0.0806862 -2.14718 0.320301
737 -2.98564 -4.41488 -6.22715 3.46872 -0.844732 2.03474
455 -0.651138 -4.50114 -7.0476 -2.25158 -1.61913 -1.76311
456 -1.2205 -3.81738 -6.91254 0.410346 -2.7044 0.498859
741 -1.20166 -4.49529 -6.10039 -1.39529 0.469135 0.894416
457 0.0932596 -4.48852 -7.74838 1.97873 0.735663 0.873393
460 0.032558 -3.82944 -6.72036 0.392645 -1.20071 -2.41766
793 0.0225677 -3.03599 -6.14155 0.745272 1.20375 2.517
505 0.132533 -2.97328 -7.74873 1.34943 0.930973 -0.619661
461 1.53797 -4.39206 -7.59558 0.278311 1.22314 -0.175064
458 0.656105 -3.7887 -7.641 1.03589 1.53127 -1.60383
459 0.746186 -4.63522 -7.06126 -2.50493 -0.85527 -1.88707
464 1.54462 -3.77213 -6.80738 -1.52926 -0.763861 0.0175349
465 3.15835 -4.69919 -7.76411 -2.8945 2.753 1.90772
753 3.02651 -4.64842 -6.17838 1.0521 0.865515 1.44762
462 2.42531 -3.90952 -7.76285 -3.65455 -2.37543 2.19392
468 3.04896 -3.97532 -6.94188 2.7135 2.18741 2.2129
513 3.06801 -3.10237 -7.55066 0.920778 1.45933 -1.3553
466 3.88721 -3.92223 -7.59677 1.12142 0.333062 1.03483
467 3.76219 -4.66292 -6.93171 -0.920078 -1.11515 -0.0614531
757 4.67395 -4.72503 -6.21355 0.195765 2.13734 1.09926
472 4.6266 -3.98329 -6.87708 0.695123 -3.20772 -3.37801
476 6.05537 -3.67095 -6.86586 1.6006 -2.48169 -2.52442
761 6.14093 -4.43918 -6.03847 -0.0427334 -0.469621 -0.60167
475 6.71744 -4.46551 -6.74107 -1.35102 -1.77737 -1.6095
474 6.95046 -3.74097 -7.87142 -1.60967 -0.965898 0.801325
477 7.72106 -4.38003 -7.73329 4.64324 1.16382 -1.04369
480 7.54222 -3.78724 -6.9792 1.95511 1.61599 -0.541236
813 7.68419 -3.00426 -6.19542 2.09684 -0.475797 0.0748991
523 6.84254 -3.05864 -7.10314 0.572913 -1.24089 -1.38738
525 7.81099 -3.00217 -7.72428 -1.59811 -0.499061 -0.0835771
762 6.85107 -3.64153 -6.19114 1.46501 -0.167555 -0.650515
433 -9.09313 -4.53233 -7.81048 2.4033 -0.500816 -1.6579
479 8.40534 -4.46829 -7.00242 0.330814 0.0709945 2.38948
478 8.4763 -3.74215 -7.63012 0.600958 0.866914 -1.04563
484 -9.11604 -2.2094 -7.02469 -0.635525 0.585968 1.80419
770 -8.49898 -2.47023 -6.24424 0.149571 -0.245107 -1.74824
817 -9.20848 -1.77904 -6.2145 -3.17574 -3.04746 -1.80687
485 -7.53835 -3.19149 -7.72158 -0.85694 -1.76076 2.75887
488 -7.70953 -2.343 -6.94898 1.00903 -1.58354 -1.9415
535 -6.90537 -1.4989 -7.20837 -0.0252939 -0.773707 2.04855
491 -5.41277 -2.97789 -6.98984 -1.38818 0.787036 -0.720172
777 -6.2405 -3.00872 -6.09937 1.32086 -1.11702 -0.938828
492 -6.29081 -2.31239 -7.07459 -0.332451 2.25509 -0.991735
494 -3.82239 -2.39314 -7.79686 -0.886459 0.547791 -0.248046
781 -4.68174 -2.95449 -6.32756 1.76052 -0.803077 2.02505
541 -4.57795 -1.54867 -7.70046 1.77692 -1.76321 -1.19583
496 -4.58148 -2.37187 -7.17281 -0.342861 -1.00576 -0.816291
782 -3.84617 -2.46256 -6.2048 -1.43784 -3.51841 -0.316546
497 -2.95488 -3.02381 -7.7171 -0.193607 1.24875 -0.508064
545 -3.06275 -1.48693 -7.74993 2.92406 2.68673 -1.56481
499 -2.16872 -2.99542 -6.90023 -0.607063 -1.43719 1.46001
498 -2.17255 -2.30029 -7.77507 -3.23302 1.62611 -1.3485
500 -2.73833 -2.17563 -7.00342 -0.433503 -1.44216 0.301802
547 -2.10435 -1.51473 -6.84944 -0.353772 0.426359 -1.27178
503 -0.557876 -3.03484 -6.95162 2.61063 0.069235 1.18454