ITEM: TIMESTEP
80000
ITEM: NUMBER OF ATOMS
6912
ITEM: BOX BOUNDS pp pp pp
-9.2265715179435492e+00 9.2265715179435492e+00
-9.2265715179435492e+00 9.2265715179435492e+00
-9.2265715179435492e+00 9.2265715179435492e+00
ITEM: ATOMS id x y z vx vy vz
290 -8.51154 -8.44988 -7.73211 0.995048 0.325084 2.34046
51 -8.45528 -7.74778 -8.50738 -1.30298 0.95166 1.45141
1781 -7.71739 -7.70193 0.00313017 0.573343 -0.859738 0.616282
4917 -1.53842 -0.237723 -1.37797 1.2573 2.51811 -0.380115
8 -7.64674 -8.52594 -8.57076 1.26957 0.0597218 0.899078
294 -7.01192 -8.59644 -7.71395 -0.582995 1.11283 2.38457
3751 -6.86561 0.0406577 -6.85905 2.12145 2.01065 0.697194
12 -6.1788 -8.54135 -8.33692 -2.82463 -0.220787 -0.210398
298 -5.36297 -8.42738 -7.68848 -0.397035 1.25622 -0.862541
59 -5.35754 -7.70444 -8.44133 -1.4031 0.235999 -1.39813
5197 -4.60577 -0.0217687 -0.00340992 0.739058 1.86189 3.54596
3503 8.44977 -0.250448 -8.45342 -0.477684 0.0115658 0.329743
3469 -4.58437 -0.0404644 -9.18367 0.348512 -1.68563 -1.52064
16 -4.52713 -8.43802 -8.3207 2.08315 3.3634 2.76036
302 -3.76766 -8.46561 -7.74454 -1.32749 1.41237 -0.0201582
1785 -6.25918 -7.68259 -0.0701096 -0.694998 1.59094 1.66284
4621 -4.43657 0.00734875 -3.01021 -1.13226 1.9209 1.21764
63 -3.88004 -7.64648 -8.24272 2.20029 -0.131766 0.810602
39 5.27304 -9.1234 -8.42311 0.770943 0.462932 0.321395
20 -3.05574 -8.4335 -8.55647 -0.311518 -1.87956 1.56868
353 -3.03303 -7.77134 -7.75712 -1.30576 1.55641 -1.03046
329 6.22084 -9.20731 -7.84936 0.975973 -0.740421 2.51559
185 6.14105 -4.54644 -9.03478 -1.11147 -0.771762 -2.15522
67 -2.27622 -7.77185 -8.60709 3.67344 0.197026 -0.548336
306 -2.19274 -8.58672 -7.52511 -3.10296 0.0625885 -3.06094
24 -1.68353 -8.58066 -8.58522 -1.98445 -2.17879 -1.38423
3485 1.52326 0.0110994 -9.1785 0.88575 1.17921 -1.60805
28 0.110372 -8.41687 -8.41633 0.321669 -0.809442 -1.78863
310 -0.892166 -8.61033 -7.70601 0.0260601 -0.37582 1.14782
206 -3.99014 -2.24224 -9.09017 0.361167 -2.79924 0.772167
607 2.2816 -9.18101 -5.32507 2.99414 0.558896 -1.18954
613 4.73174 -9.10881 -6.32328 -0.0901135 1.54232 -1.61855
32 1.4958 -8.396 -8.33148 0.966426 -0.49501 0.315412
314 0.704833 -8.45161 -7.48805 -1.505 2.93002 1.84698
365 1.56267 -7.62694 -7.5805 0.581223 -1.22913 0.902782
1727 8.5123 -1.66292 -1.09727 -1.15984 2.87705 -1.09904
601 -0.0482628 -9.11161 -5.88683 2.3434 -0.189501 -3.83286
36 3.10932 -8.39486 -8.28639 -1.43189 -0.534595 -3.26677
79 2.25705 -7.52269 -8.37711 0.727028 0.516088 2.19432
318 2.4485 -8.34285 -7.66547 1.42672 0.200943 -4.79402
34 3.80832 -8.34585 -9.2222 0.500812 0.889319 0.317198
40 4.62404 -8.36715 -8.41269 -1.91822 -2.62129 0.450118
322 3.88302 -8.44248 -7.59383 1.61425 1.65229 0.569715
1778 -8.58591 -7.16338 -0.0500713 -1.2548 2.63851 1.854
1181 1.59621 -9.25063 -2.79695 -2.17778 -1.38908 1.08039
126 2.28517 -5.51191 -9.1878 1.65804 1.26452 -1.70756
377 5.91841 -7.58575 -7.94746 -0.829379 -1.96574 2.96083
326 5.23973 -8.441 -7.70578 0.735402 1.33575 -0.0836481
44 6.11289 -8.4373 -8.55023 1.27594 -3.42364 -0.753507
48 7.77639 -8.59391 -8.45173 0.364434 0.864277 -2.71477
3473 -2.95034 -0.0552154 -9.22679 -0.147845 0.748587 -0.654097
4 9.13142 -8.44878 -8.60151 -0.831215 2.47951 1.75352
258 -2.17063 -0.742234 -9.16748 1.63279 -0.725679 -0.052293
89 5.94911 -7.53827 -9.0912 0.48377 1.01927 0.874407
4049 -2.88157 -0.0501982 -5.95251 -1.12543 -0.572653 0.444093
52 9.2343 -6.92229 -8.49735 2.4856 1.91686 0.346681
338 -8.50674 -6.96064 -7.7778 0.155556 0.433637 -2.44156
55 -6.88423 -7.86322 -8.48181 -0.395131 -1.326 -2.38596
56 -7.6343 -6.9979 -8.47822 -0.933599 0.337926 1.91283
4651 6.97692 -0.0148019 -2.20122 -0.352083 0.720231 -1.13392
103 -7.02028 -6.21261 -8.3486 1.67059 1.20427 -0.219518
301 -4.67569 -9.1415 -7.5176 -1.65414 0.273646 2.64526
60 -6.12781 -7.04022 -8.50534 -0.723217 -2.18941 1.15198
107 -5.49914 -6.28899 -8.53099 0.543499 1.7679 2.90857
346 -5.4672 -6.99746 -7.67003 0.172647 -1.00535 1.12611
393 -6.21445 -6.24967 -7.84732 -0.364494 -1.17946 -1.14906
3787 6.88419 -0.0615596 -7.16069 1.92107 -1.28766 0.740528
895 2.32391 -9.23495 -3.70921 -1.35341 -1.84321 -0.211988
64 -4.59768 -6.83092 -8.3376 -0.754665 -1.57597 2.58297
350 -3.89597 -6.64294 -7.57835 -0.50802 -1.85961 -2.37018
4325 -7.62963 -0.0294258 -4.71109 -0.238325 0.28768 2.71374
68 -3.33733 -6.88328 -8.49949 -0.891726 -0.26054 1.85387
354 -2.31503 -7.09692 -7.67407 -0.666818 2.73413 -2.53039
72 -1.46711 -7.09999 -8.36981 1.88421 2.60014 1.22434
357 -1.41776 -7.813 -7.54858 0.642943 -1.62434 -0.56814
358 -0.697867 -7.02609 -7.67753 1.21085 -1.70494 0.516158
71 -0.760173 -7.79851 -8.39253 -1.49714 -0.333692 2.5553
76 -0.184894 -7.05793 -8.50129 -0.22819 -0.374513 0.269463
409 -0.057651 -6.21555 -7.54348 1.96285 0.432219 -2.34368
75 0.692167 -7.61839 -8.50308 -0.42159 -0.143894 0.682282
80 1.39707 -6.80454 -8.58369 -1.08885 -0.655927 0.179719
362 0.611699 -6.92306 -7.70104 2.78789 0.73165 1.16888
123 0.585502 -6.24745 -8.53553 -2.03729 -2.92485 0.0969137
84 3.08951 -6.9625 -8.41761 -0.715542 -0.424986 -1.42704
366 2.28609 -6.69351 -7.56621 -1.46106 1.60359 -0.395115
127 2.34672 -6.25685 -8.44704 -3.57055 -2.31113 1.23822
369 3.05622 -7.55713 -7.63261 -0.803871 -1.25936 -0.164077
417 3.21587 -6.07286 -7.66392 -0.617196 -2.18968 2.24259
83 3.90487 -7.53023 -8.51366 2.93108 -1.82641 0.885448
88 4.47946 -6.76105 -8.65965 1.37857 1.57508 1.58242
131 3.70949 -6.26088 -8.53858 -3.26292 0.16347 1.43976
373 4.51196 -7.61497 -7.73934 0.958268 0.69474 -0.491769
87 5.19761 -7.57655 -8.5059 -0.612419 -0.57286 -0.311808
92 6.21287 -6.76135 -8.44526 -0.425263 0.4755 -3.04024
4637 1.75776 -0.132997 -2.82585 2.45354 -0.482706 -2.54795
91 6.85459 -7.50144 -8.62667 -0.534632 0.608101 1.41997
96 7.75742 -6.8969 -8.38678 0.93966 -0.460557 1.63298
381 7.74826 -7.69155 -7.79782 0.80864 -0.0132668 0.468277
217 0.0937961 -2.97608 -9.19037 1.84189 0.396085 0.112207
95 8.51316 -7.54856 -8.38969 -1.74072 -0.387307 1.41042
382 8.53222 -6.83128 -7.69216 -2.18859 -1.37645 1.04304
305 -3.05335 -9.13315 -7.68551 -0.9268 1.25613 1.34191
99 -8.17514 -6.12941 -8.45437 1.9715 0.275611 0.445677
100 -9.15119 -5.36169 -8.61414 -2.33372 0.805149 -2.44173
147 -8.44205 -4.58533 -8.51128 -3.54038 -1.565 -1.03075
385 -9.13155 -6.04951 -7.58559 -0.90764 0.283103 1.18283
389 -7.72026 -6.29374 -7.60219 1.53871 1.04996 0.613569
4321 9.14374 -0.0810561 -4.79793 0.83872 0.75274 -0.536677
104 -7.53769 -5.39738 -8.59331 -0.203973 -1.17466 1.61969
151 -6.74028 -4.70784 -8.52366 1.03688 -1.21806 -0.506255
1801 -0.0336604 -7.80025 -0.0963247 0.597501 -1.78357 1.5372
108 -6.21669 -5.55696 -8.60379 -1.4371 3.3329 -0.100326
394 -5.50184 -5.3025 -7.83008 0.344973 -0.0367529 -0.652517
1195 6.9172 -9.21603 -2.42927 1.61058 0.265345 -0.628161
111 -3.92005 -6.13022 -8.40848 -1.34192 1.59516 -0.718118
201 -6.06355 -2.9081 -9.16502 0.0984183 -1.77771 0.126132
112 -4.71613 -5.45722 -8.55821 -0.338514 -1.9242 0.641325
115 -2.15648 -6.33909 -8.42994 -1.52962 2.8259 -1.90679
116 -3.06185 -5.47192 -8.4694 -0.0738794 -0.401305 -0.142359
163 -2.27891 -4.62343 -8.28404 -3.48759 -1.30253 -2.51492
402 -2.20405 -5.58334 -7.8276 -1.45017 -1.27748 -0.487533
120 -1.36306 -5.46891 -8.33484 0.0344498 0.380225 0.258779
167 -0.706257 -4.73949 -8.49931 -0.530958 -2.04354 -0.413178
406 -0.722085 -5.33151 -7.63663 -0.850596 3.225 1.27869
119 -0.76845 -6.24673 -8.18426 0.425531 -0.966991 -0.260653
124 -0.0224498 -5.44292 -8.44781 -0.260106 -2.35881 -0.293477
114 -2.21658 -5.47454 -9.04118 -0.700221 1.25901 -1.12082
128 1.54983 -5.55771 -8.39042 -1.04069 2.43154 -0.773028
413 1.35989 -6.31234 -7.84336 2.85192 -0.7384 3.62679
410 0.784317 -5.60169 -7.70985 -3.73591 -1.29172 -1.18397
132 3.21283 -5.42036 -8.51369 -0.460318 -2.29027 1.59575
465 3.13339 -4.63013 -7.65086 0.28389 1.14154 -0.535996
414 2.18498 -5.50212 -7.67249 -1.19908 0.338253 -0.78465
136 4.56318 -5.41139 -8.57084 0.0633967 2.37672 -0.218703
469 4.52303 -4.52225 -7.76497 1.8859 0.399864 0.160273
418 3.87641 -5.29997 -7.8061 0.163011 -0.337831 2.84026
421 4.5561 -6.12467 -7.81939 -0.248591 -2.15495 2.46684
135 5.30674 -6.15932 -8.44653 0.129388 -0.986208 -0.684109
140 6.11346 -5.38292 -8.4118 -1.18364 2.64872 1.30335
183 5.37287 -4.72017 -8.33174 1.16713 1.66178 1.61938
473 6.16598 -4.51064 -7.67611 0.156084 -0.260225 -2.64059
422 5.4393 -5.43203 -7.67948 0.221812 0.0277062 -0.161705
139 6.90974 -6.07546 -8.31499 -0.400291 -3.40255 -3.98682
429 7.74336 -6.07731 -7.74873 0.868297 -1.13809 1.2272
426 6.94479 -5.31717 -7.6547 0.651372 -1.83752 -0.390916
144 7.83067 -5.4446 -8.56963 -0.328711 -0.536326 1.08196
477 7.68876 -4.65332 -7.90247 0.127142 0.259364 3.51551
143 8.64125 -6.09134 -8.40822 -2.06375 -0.0475527 -1.49814
191 8.49165 -4.71384 -8.56249 -2.29418 0.100592 -0.195093
1183 2.39706 -9.11135 -2.19113 -1.32705 -1.3776 -0.76471
148 -9.04889 -3.73274 -8.45107 2.9338 -1.12876 0.18882
4915 -2.48587 -0.0680199 -0.6222 1.80908 -2.81831 -2.08542
46 8.37572 -8.36977 -9.19258 1.3949 1.49561 -1.41496
1870 8.56503 -5.40856 -0.245596 2.32196 3.13396 -0.943638
152 -7.71939 -3.93274 -8.46172 -3.24412 -1.15052 -1.91146
438 -6.84897 -3.88486 -7.6959 -2.81631 0.337586 0.0344158
485 -7.56865 -2.97068 -7.68712 0.897333 -0.274068 -0.0771346
199 -6.74287 -3.0873 -8.41076 -0.0575697 1.12087 1.89179
169 0.116356 -4.58885 -9.16669 1.5567 -0.29133 -0.5986
441 -6.24243 -4.6434 -7.64619 -4.06894 2.18189 1.91443
155 -5.44484 -4.57383 -8.49196 -1.53523 1.90247 2.32984
156 -6.04722 -3.77804 -8.50783 1.22618 -0.0157907 -2.61969
197 -7.63968 -3.08638 -9.02996 0.00530927 -0.47021 0.573455
909 7.5815 -9.20404 -4.71122 -1.73723 -1.32343 -1.02713
159 -3.85779 -4.48364 -8.72803 -0.817618 -1.10328 -0.937798
160 -4.73383 -3.90659 -8.62653 0.0925527 2.47745 -0.0259843
207 -3.82744 -3.12597 -8.54732 0.517956 -1.1913 -0.652422
61 -4.57507 -7.61101 -9.03427 0.218114 -0.127257 0.154893
164 -3.00635 -3.857 -8.44192 -1.2466 -1.65972 1.87924
4617 -6.14296 -0.0463916 -3.1282 -2.49186 -1.77787 1.29915
138 6.93789 -5.26211 -9.18662 -1.42531 -0.40717 0.147222
168 -1.52574 -3.99867 -8.39221 -0.691047 0.274973 0.517079
215 -0.806967 -3.06396 -8.5374 1.37582 0.321858 -0.362847
4365 7.77114 -0.0823515 -4.59307 1.18947 -1.27665 -1.02304
172 -0.0957786 -3.86825 -8.63848 4.50322 0.567442 0.286655
171 0.809961 -4.57001 -8.54323 -0.0873813 0.708152 -2.0548
505 0.0533118 -3.01545 -8.04122 1.40755 2.90056 -0.490314
289 -9.13694 -9.1928 -7.76942 2.69359 -0.562573 -2.50318
461 1.47971 -4.72622 -7.74148 3.53485 -0.845619 -0.621792
176 1.64258 -4.02051 -8.50442 0.801555 -0.709461 -0.532831
175 2.34214 -4.80941 -8.50594 3.03491 -0.0186144 1.11725
180 2.93164 -4.08414 -8.64862 -2.46246 2.16915 -0.274431
223 2.30015 -3.11925 -8.56854 1.90609 1.71081 -0.32921
462 2.39911 -4.01109 -7.74634 -0.147717 -1.08434 0.0951684
179 3.75673 -4.64713 -8.54355 2.32433 -0.631672 -1.80747
184 4.3957 -3.81043 -8.56178 -0.275886 -1.34563 -0.284107
188 6.28491 -3.67152 -8.33567 0.907616 -0.883558 0.993145
2013 7.78841 -1.53926 -0.201326 -0.53882 -1.32365 -0.0773443
187 6.96234 -4.42685 -8.47931 -0.253609 -0.830341 2.15674
192 7.78619 -3.82206 -8.43975 0.95975 2.28166 0.567787
235 7.00796 -2.93602 -8.39998 -0.202993 -2.34817 0.288666
4061 1.58353 -0.0618275 -6.0973 2.79839 0.77135 -1.92393
3747 -8.42347 -0.182767 -7.02864 -0.600749 -2.1176 -0.708052
4335 -3.77233 0.0146391 -3.897 1.43106 2.4152 -0.692635
239 8.39103 -2.89558 -8.46592 -1.96693 -1.04055 0.63468
195 -8.38726 -2.9571 -8.3507 -1.04617 -0.34878 2.99677
243 -8.48556 -1.43794 -8.46352 0.741072 0.962721 1.33047
4057 0.0845072 -0.0210527 -6.26316 -0.526443 -0.369927 -2.23512
200 -7.61618 -2.15139 -8.46838 1.56977 0.258758 1.17027
486 -6.80674 -2.38433 -7.63705 -0.298051 0.313688 1.10493
247 -6.78337 -1.46329 -8.43642 -4.01482 -0.269313 -0.301878
4327 -6.98021 -0.151365 -3.81005 -0.766853 -1.656 0.67851
3783 5.37819 -0.0573212 -6.94802 1.08139 -0.276482 1.96292
203 -5.38193 -3.09158 -8.41574 0.173766 -0.444468 2.2795
204 -6.11682 -2.24529 -8.42113 1.62647 -0.638372 -2.19793
490 -5.25993 -2.43591 -7.44972 0.606121 0.519845 0.259366
251 -5.50199 -1.41254 -8.58473 2.41541 0.477837 -2.44542
208 -4.84524 -2.23244 -8.36447 -1.16584 -0.15347 2.86919
494 -3.86665 -2.31872 -7.8589 -0.070835 -3.61781 3.0085
255 -3.76221 -1.44706 -8.46913 -0.986529 1.81042 2.10475
303 -3.84135 -9.22659 -7.06878 0.23326 -1.89985 -0.678062
1926 -6.78294 -2.40107 -0.0417265 -1.77427 1.96343 -0.560573
2 -8.46701 -8.45164 -9.25634 -0.2728 0.818081 -2.74619
211 -2.42652 -2.98847 -8.57015 0.662813 0.174843 -0.616223
212 -3.10132 -2.28822 -8.50485 0.788113 0.742302 -0.9356
4907 -5.59521 -0.0959662 -0.726588 2.09623 -1.68254 -0.32558
216 -1.74075 -2.16096 -8.58105 -1.50498 -0.881647 0.346922
502 -0.696992 -2.36075 -7.66357 0.429857 1.0397 2.09231
220 -0.0433902 -2.17639 -8.64238 0.555415 -2.24056 -1.04975
42 7.05591 -8.45523 -9.07921 -1.2111 -0.03122 1.84965
219 0.891301 -3.14666 -8.55659 1.04382 0.786598 -0.689394
224 1.72372 -2.35801 -8.57728 -0.0228118 -0.0518659 -0.618941
506 0.740744 -2.237 -7.97394 -1.24483 -1.46803 -0.44651
509 1.4819 -2.99662 -7.67784 -2.13512 0.00497155 -0.236972
228 3.03755 -2.38104 -8.6004 0.637404 2.94143 -1.17705
1878 -6.84126 -3.67851 -0.0817597 -2.55455 1.72877 -0.264749
227 3.822 -3.03898 -8.63419 0.258489 0.901841 -1.00554
232 4.65931 -2.46036 -8.63292 -0.201838 1.40191 0.0744441
275 3.71067 -1.57584 -8.62666 -1.02095 -2.03786 -0.380646
517 4.59703 -2.99837 -7.80493 -3.82724 -0.0508257 -1.08654
93 7.71686 -7.63211 -9.14389 -1.06098 -0.744473 1.25793
189 7.70989 -4.51567 -9.23055 0.148767 2.07932 -0.690519
231 5.42437 -3.12776 -8.51411 1.69321 0.486386 1.29896
236 6.16256 -2.20635 -8.41387 -0.955588 2.2337 2.16659
279 5.44403 -1.44737 -8.3083 0.524793 -2.76403 -0.267125
4649 6.19147 0.013324 -2.96157 -0.310376 2.545 -1.79144
1475 3.94764 -9.16406 -0.763583 -0.476891 2.2455 -2.21273
3755 -5.403 -0.157003 -6.82058 -0.0926728 0.873066 -0.0366141
1873 -9.114 -4.51636 -0.0550298 -1.13606 -0.442991 -0.855894
573 7.60934 -1.51675 -7.76412 1.00868 1.80069 -0.409976
240 7.69075 -2.104 -8.5067 -0.765688 -0.180609 -1.49881
196 -9.12512 -2.2325 -8.4584 1.03613 0.729858 -2.01348
1989 -1.56806 -1.58631 -0.0656345 0.244513 -0.0939536 1.16282
530 -8.40735 -0.868494 -7.75361 -0.832872 1.58053 -0.9373
248 -7.48992 -0.792235 -8.57273 1.3475 1.43986 1.30903
623 8.3562 -9.14002 -5.46067 -0.0564024 0.054975 2.1388
534 -6.75579 -0.745182 -7.55526 -0.987076 0.45575 2.4528
186 7.00922 -3.68479 -9.21568 0.834486 -0.841827 -1.41701
4353 2.92748 -0.0704224 -4.55137 1.06092 2.233 -1.08402
252 -6.14858 -0.758347 -8.41863 4.16287 -0.439127 0.249324
537 -6.10116 -1.43657 -7.67924 -2.35635 0.810069 -0.224784
538 -5.38053 -0.727364 -7.6154 1.60897 3.75651 0.792344
541 -4.5187 -1.48372 -7.71247 -1.28344 -0.460038 1.46793
256 -4.76133 -0.723217 -8.44164 -2.57791 -0.26645 -0.863017
90 7.01477 -6.79873 -9.20966 -0.274908 1.80232 -0.881927
260 -3.05452 -0.586071 -8.39835 0.305011 0.691547 0.521432
546 -2.43351 -0.879924 -7.6692 0.31615 -0.651839 1.67251
259 -2.40878 -1.50105 -8.43573 2.66279 3.66753 -0.707126
264 -1.50377 -0.638711 -8.44168 0.773841 0.145269 0.211841
550 -0.734402 -0.660898 -7.63337 -0.00985704 0.958038 -0.50488
263 -0.889781 -1.35254 -8.35416 2.82429 0.131967 2.67571
205 -4.68826 -2.9595 -9.0761 2.3586 2.3342 2.14931
5185 9.15191 -0.09733 -0.0337558 1.19857 -1.8824 1.3199
268 0.0608478 -0.708468 -8.65345 -0.0682758 1.19879 -1.1393
553 -0.0380579 -1.49306 -7.81862 -0.0207099 -1.74473 -0.976085
267 0.744718 -1.485 -8.66626 1.01677 0.201855 -1.08822
272 1.55519 -0.773104 -8.57837 -1.64924 0.754351 0.248975
554 0.633637 -0.750965 -7.84259 3.47354 -0.537725 -0.113312
5189 -7.65595 -0.18473 0.0120928 -1.35411 -1.04738 1.52679
1917 7.76392 -4.68594 -0.119643 3.31376 0.602149 -0.0843271
271 2.35259 -1.55025 -8.5763 0.69366 -1.9545 -0.432873
276 3.07205 -0.686736 -8.40117 -0.681154 0.551383 -1.7342
561 3.09329 -1.57348 -7.81293 -1.10114 -1.4855 1.00061
117 -1.4013 -6.1106 -9.07699 2.2661 0.0796682 0.958658
280 4.46295 -0.85175 -8.5811 -0.483572 -0.293241 1.64813
562 3.81381 -0.692743 -7.68882 -0.0638743 0.609213 -0.191858
897 3.04165 -9.2576 -4.54277 2.27463 -2.59277 0.774838
284 6.02563 -0.609004 -8.42059 1.10249 -0.285166 1.36789
609 3.0661 -9.25102 -6.00014 2.0657 -2.06101 -1.19533
23 -0.9284 -9.13915 -8.50696 3.36662 -1.84095 0.335152
283 6.95075 -1.45971 -8.81264 -2.14743 -1.80871 -1.3073
288 7.68958 -0.766897 -8.57785 0.246739 1.43452 0.851612
293 -7.80001 -9.2106 -7.69875 4.22278 0.00269661 1.45129
1918 8.59555 -3.81266 -0.0169473 1.70544 -0.182184 1.6467
2014 8.47146 -0.882301 -0.204457 0.146201 -0.33479 -3.94851
879 -3.93594 -9.06742 -3.64575 -0.420229 1.38551 0.918479
287 8.55541 -1.3225 -8.50133 2.2644 -2.17909 -0.753023
244 -9.18215 -0.652698 -8.68816 -0.819973 -0.473939 0.264248
270 2.33297 -0.73602 -9.18162 0.772142 1.36993 -0.284367
337 9.10996 -7.76633 -7.69014 -1.74592 -0.953376 -1.58483
296 -7.7507 -8.45766 -6.85085 -1.2711 2.56004 -3.74506
343 -6.87718 -7.67579 -6.92255 -1.54453 -3.69426 1.60616
583 -6.95065 -9.05995 -5.51227 0.520626 0.23584 2.00883
345 -6.1747 -7.74753 -7.72114 2.08655 -0.423478 -1.17418
300 -6.10324 -8.47834 -6.94106 1.35106 1.5272 2.79312
347 -5.52468 -7.71369 -6.95797 -0.658547 2.35416 2.57536
633 -6.25746 -7.48734 -6.19336 1.63454 -1.47928 2.17377
586 -5.45072 -8.39567 -6.25223 -0.45319 1.32882 -1.48827
4039 -6.94728 -0.0969726 -5.39246 0.997364 -1.72747 0.160208
349 -4.62126 -7.69252 -7.60406 -0.0597089 0.672016 1.33925
304 -4.69458 -8.40293 -6.89832 1.32032 -1.10199 -1.17657
351 -3.8508 -7.72677 -7.02099 -1.55354 0.491835 0.126785
590 -3.82134 -8.59236 -6.24284 2.00431 1.61955 -2.15327
3767 -0.796244 -0.0473124 -6.86603 -0.724203 2.49998 -0.621966
308 -2.99355 -8.44981 -6.9436 1.70791 0.107061 -1.78616
594 -2.31644 -8.29931 -5.9549 -0.60289 0.464172 2.6297
355 -2.25147 -7.81225 -6.84344 1.27742 -2.51625 -0.401216
641 -3.13295 -7.80906 -6.07043 0.282548 -2.6184 0.549838
4613 -7.66809 -0.0471817 -3.17022 -0.709405 0.476824 1.93167
4361 6.17063 0.0380171 -4.62336 0.264734 2.95035 -2.16874
312 -1.4124 -8.43516 -6.80126 0.0995326 -2.21324 0.721416
1830 -6.97104 -5.30026 -0.171924 -2.26052 -0.0187089 0.809065
1728 7.7246 -0.838061 -1.07216 -1.78808 1.63856 -1.65013
316 -0.177581 -8.40567 -6.84765 1.94075 3.04731 -3.66617
598 -0.686633 -8.30841 -6.00839 -0.752737 -0.182301 1.14053
602 0.702236 -8.41907 -6.12252 -0.562425 -0.712582 1.97324
320 1.56394 -8.3402 -6.71645 2.89911 0.88668 1.51942
3475 -2.28342 0.0245505 -8.38263 1.19881 1.99386 -0.896608
165 -1.51679 -4.84372 -9.15133 -0.9013 -2.95225 0.836883
324 3.0371 -8.34202 -6.76384 0.243421 0.720789 1.16287
657 3.09121 -7.70199 -6.02935 -1.82213 1.14356 -0.597286
606 2.32613 -8.56286 -6.10091 -1.7229 2.28689 -3.47438
1469 1.48779 -9.08516 -1.54559 -0.0615887 -0.0393398 1.07223
31 2.24079 -8.99312 -8.39256 -3.36101 0.150833 -0.96002
328 4.55988 -8.3011 -6.94352 -1.31116 -0.131887 -0.714605
313 -0.0229961 -9.08413 -7.72653 1.08004 -0.407531 1.1993
332 6.12965 -8.07892 -7.05457 -0.0848191 0.403575 -0.153315
1898 0.835659 -3.84636 -0.0344591 -0.615688 -0.348736 0.977677
330 6.77669 -8.39964 -7.69629 -0.0284558 0.543693 1.01728
336 7.75677 -8.48442 -6.91191 -0.431389 -1.76531 0.501702
618 6.77497 -8.30081 -6.26785 -0.0929968 -1.10436 2.31385
292 9.18312 -8.3205 -6.91542 -0.17597 2.32681 -1.81401
334 8.49669 -8.55485 -7.65001 0.858333 1.80307 -1.40997
383 8.43749 -7.63084 -6.93568 -1.36487 0.333779 0.114259
4631 -0.841584 -0.198675 -2.14655 0.830211 2.84434 -1.75869
1189 4.5694 -9.09784 -3.01123 0.692191 -2.02408 0.805876
339 -8.50268 -7.54531 -7.04848 2.6622 0.52291 1.74393
387 -8.4228 -6.00256 -6.9578 -3.27071 0.549656 -0.186403
626 -8.39961 -6.76539 -6.12457 0.241047 -0.0769535 2.16366
341 -7.61379 -7.65184 -7.74485 0.223584 -2.98068 1.35858
342 -6.94055 -6.83278 -7.63758 0.506249 0.922058 -0.394912
344 -7.8201 -6.90289 -6.91798 0.0213348 -3.40853 0.461376
391 -6.97218 -6.00883 -6.95465 0.49325 -3.0493 -0.592336
348 -6.20074 -6.85698 -6.9471 -2.73507 2.43565 -0.0200457
395 -5.455 -6.08244 -6.93266 1.57284 -1.64417 0.729106
352 -4.74006 -6.93604 -6.99058 2.26724 2.71566 0.136883
401 -2.90095 -6.4044 -7.73568 -0.60743 -0.531874 -1.25723
356 -3.07904 -6.98598 -6.93862 -0.158928 -0.689257 -1.05769
642 -2.4416 -6.91662 -6.12391 -0.0530856 -1.69689 1.63202
360 -1.45569 -7.05773 -6.86148 -1.88947 -0.199804 1.18559
405 -1.62692 -6.36652 -7.64152 -0.536703 0.263243 -0.984552
693 -1.58251 -6.34681 -6.12625 0.330649 1.81272 1.26085
361 -0.0734862 -7.85119 -7.63881 -0.265497 -2.10308 -3.55405
359 -0.657567 -7.56735 -6.80243 2.26334 2.0391 0.422841
364 -0.0776004 -6.86816 -6.82557 0.38484 -0.259386 0.473521
646 -0.792506 -6.97419 -6.08691 0.558736 -0.0826041 1.38062
363 0.751851 -7.67659 -6.92638 -0.401593 -0.753373 0.688294
368 1.39942 -6.90087 -6.79144 -1.31599 1.47889 1.69227
411 0.721212 -6.23529 -6.86874 -0.00787012 0.0546957 -1.71681
653 1.30217 -7.65369 -6.05917 0.926416 0.828466 -1.62721
650 0.622883 -6.93349 -5.96861 -2.59173 1.27463 3.17199
367 2.36326 -7.58451 -6.89678 -1.03337 1.02983 1.51086
372 3.095 -6.84004 -6.86641 0.562368 -1.59168 -0.722174
654 2.09393 -6.85571 -6.13117 -4.33524 0.533214 3.08619
371 3.80239 -7.64024 -6.8886 -1.14189 3.71306 -1.19578
370 3.79341 -6.93313 -7.76131 -0.98075 1.81709 1.02515
376 4.43352 -6.80424 -7.0131 -0.310352 -0.467494 -1.05312
709 4.61683 -6.24472 -6.0901 -0.424739 1.63957 -2.87944
661 4.59448 -7.51147 -6.27854 1.04936 -1.31854 -0.944635
375 5.24253 -7.59993 -7.02908 -0.717869 -0.844008 1.27812
374 5.24757 -6.83485 -7.71481 1.38219 -1.17752 -0.609934
380 6.15974 -7.08642 -7.07206 0.541039 1.22326 -2.01637
713 6.14407 -6.18416 -6.51596 -0.45786 2.23923 -0.618139
379 7.09526 -7.73505 -6.93216 2.76914 2.21643 -1.03207
378 6.93036 -6.96346 -7.7292 -2.38755 -0.69745 2.61692
384 7.68518 -6.92734 -7.0195 0.0587364 -0.14776 2.05181
717 7.82426 -6.02798 -6.31562 1.57329 -1.34669 -0.892977
340 -9.19076 -6.9064 -6.94163 0.130891 -0.581531 0.312292
670 8.52529 -6.92402 -6.249 1.02859 -0.41044 -0.767566
431 8.50681 -6.02954 -7.05544 -2.47835 -1.42885 0.811485
386 -8.3867 -5.20656 -7.75382 -1.1594 -1.40694 2.38402
435 -8.43685 -4.61986 -6.75676 2.67284 -0.488926 0.857937
674 -8.46988 -5.22769 -6.00713 0.809342 2.04534 2.61726
392 -7.69991 -5.34379 -6.8512 1.41997 2.12944 2.00058
390 -6.92597 -5.3575 -7.6319 1.83632 1.02679 -0.743835
439 -7.07799 -4.47365 -6.97139 0.815121 -0.138713 0.518431
678 -6.93371 -5.36048 -6.10528 -2.66829 -0.452841 3.01781
677 -7.60794 -6.04049 -6.16514 1.17493 -3.3099 -0.857551
396 -6.09689 -5.31617 -6.99825 0.575869 2.10943 0.520629
681 -6.30848 -6.09285 -6.23563 0.580274 1.89722 1.63765
682 -5.51402 -5.36799 -6.13752 -1.62048 -1.67107 -0.19981
397 -4.70869 -6.02081 -7.73321 -1.67701 -3.76314 2.2135
399 -3.75915 -6.02163 -6.90566 -0.633141 -0.157172 -2.39969
398 -3.83609 -5.44788 -7.71052 -0.290168 2.29354 -0.248405
400 -4.75533 -5.49195 -6.94421 -1.61627 -2.53523 0.503644
686 -4.00132 -5.50137 -6.20216 2.76407 -0.144023 -1.1996
447 -3.88779 -4.69813 -7.10328 1.91139 1.83845 -0.620981
733 -4.75098 -4.70861 -6.34938 -0.867993 1.56466 0.734292
449 -3.11272 -4.60786 -7.79308 1.13811 -0.0932031 0.357524
403 -2.26962 -6.15231 -6.94013 1.49734 -0.719425 -0.590328
404 -2.92339 -5.22829 -7.01417 3.54322 -1.38008 -1.61852
407 -0.904854 -6.14092 -7.02225 -3.21652 -0.110943 -1.12528
408 -1.58942 -5.44066 -7.06781 -1.64313 -1.25557 0.210941
453 -1.36541 -4.70651 -7.63231 1.82977 0.83565 0.459151
694 -0.835928 -5.55868 -6.15904 1.3863 2.87627 -0.165976
412 0.0475065 -5.58415 -6.84337 -0.807919 -1.27916 2.41662
697 -0.08733 -6.15772 -5.95154 -2.4327 -0.114833 -2.09158
416 1.50354 -5.60403 -7.00963 3.21059 2.37858 3.80277
701 1.44292 -6.13597 -6.12848 -1.5077 -0.135469 -2.16429
459 0.915527 -4.65652 -6.96772 2.7312 -1.24266 1.4935
698 0.625716 -5.56422 -6.11398 1.89276 0.685536 -0.292816
749 1.48505 -4.57034 -6.13638 -1.61865 -1.82021 2.18733
415 2.23915 -6.08736 -6.74168 -0.131034 3.2568 -0.941452
420 3.0398 -5.2878 -6.85407 0.130224 -0.590797 -0.971282
463 2.165 -4.7017 -6.95868 1.24472 1.5678 -0.214905
702 2.19492 -5.38805 -6.10625 -2.50009 1.1801 3.69624
419 3.85908 -6.02201 -6.94327 -0.0528103 -0.346848 -1.80795
424 4.58168 -5.38441 -7.0062 1.30235 2.99739 -1.46237
467 3.83159 -4.65683 -6.93839 0.817577 3.07446 0.0494188
425 6.17476 -6.15084 -7.58147 -0.499437 1.0455 -0.971138
423 5.24026 -6.16725 -7.03692 -0.965064 -0.434686 0.109096
428 6.3201 -5.29661 -6.87981 -2.88305 -1.28945 2.31888
471 5.26458 -4.56919 -7.13956 2.48478 -1.97933 -1.82543
427 7.04106 -6.14622 -6.97527 0.00813502 -0.982291 0.573656
432 7.72052 -5.33269 -7.01482 0.471326 1.8273 -1.62494
714 6.93905 -5.7149 -6.15842 0.273767 1.49948 0.608944
388 -9.14472 -5.39214 -6.87346 -0.712701 0.0889638 -1.90436
430 8.53637 -5.38709 -7.77889 -1.45536 -1.98642 -1.54704
479 8.59951 -4.62187 -7.0254 -0.828395 0.366318 2.0701
433 -9.19421 -4.61591 -7.80345 -2.2753 2.73388 -0.609691
673 -9.21956 -6.02796 -6.11755 -0.427959 0.85587 1.30601
434 -8.25557 -3.78336 -7.69708 1.96974 1.2325 -0.980562
481 9.18327 -3.09762 -7.81428 0.270951 -1.07458 -1.26352
483 -8.43208 -2.94027 -7.26888 2.32523 -1.1945 0.289666
437 -7.63508 -4.59298 -7.76994 -1.26411 -2.0734 -1.31505
440 -7.69709 -3.88152 -6.84958 1.77392 3.9649 1.17727
487 -6.8223 -3.18516 -7.01266 -1.093 -1.37483 0.387741
726 -6.95386 -3.92083 -6.09763 -0.321804 1.36504 -1.53129
442 -5.43515 -3.91912 -7.64096 0.782671 -1.69203 -0.0623055
443 -5.50743 -4.62204 -6.94449 -2.81659 1.13899 2.04765
444 -6.07144 -3.87788 -6.86876 2.07622 -1.5171 -0.169482
730 -5.22975 -3.90859 -6.25765 -1.08246 -0.608644 3.1912
729 -6.13708 -4.62084 -6.05008 0.450975 -0.353662 0.584567
445 -4.65064 -4.69414 -7.77274 0.196258 3.73589 -1.29047
493 -4.669 -3.07946 -7.58915 2.98712 -0.652921 -1.37928
446 -4.03598 -3.95802 -7.83534 -0.846286 0.873472 1.02577
448 -4.61459 -3.8954 -6.95359 -1.28918 -0.0100858 -0.442456
450 -2.28737 -3.701 -7.89908 1.29822 -1.64087 1.89031
451 -2.35152 -4.55511 -7.23843 1.12761 -0.671969 -0.267949
452 -3.11077 -3.91974 -7.0106 -0.463864 1.68428 -0.0910845
501 -1.52621 -2.92362 -7.88303 -0.226321 -0.0554736 2.60244
454 -0.602765 -3.98822 -7.85689 -0.549818 0.837295 -3.37205
456 -1.69172 -3.8404 -7.03175 1.45498 0.649434 4.40467
503 -0.878155 -3.3752 -7.1411 1.11714 -1.20827 0.693254
455 -0.680713 -4.51519 -6.97428 -0.468221 -0.12946 0.510612
457 0.214167 -4.7606 -7.7916 2.8047 1.17715 -0.923005
460 0.0706276 -3.88048 -7.21665 0.802458 -2.91444 0.109904
458 0.770011 -3.79996 -7.85322 1.17557 -1.721 1.08824
464 1.59438 -3.88912 -7.30058 1.84741 -1.55326 -0.39644
746 0.765633 -3.96813 -6.33673 -0.168779 0.942007 0.143065
513 2.9683 -3.08683 -7.70081 1.62384 1.93413 -0.186826
468 3.08358 -3.92368 -6.9385 1.45906 1.79805 0.764816
750 2.36541 -3.90103 -6.32775 0.619021 0.642971 1.45325
753 3.00719 -4.60571 -6.01734 2.71001 1.62233 2.01978
466 3.78515 -3.84231 -7.85978 -1.15755 0.923324 -2.77436
757 4.56473 -4.53641 -6.33433 2.13225 0.37595 1.27349
472 4.63119 -3.81985 -6.96316 2.51704 0.286928 0.556104
754 3.75735 -3.76026 -6.26181 -0.868513 -0.511767 -1.2144
521 6.12891 -2.89017 -7.69778 -0.989784 -1.4406 -0.772252
470 5.53535 -3.71528 -7.66494 0.591332 -0.540643 -1.82788
476 6.31265 -3.78579 -7.01736 0.813797 1.28233 -0.505631
519 5.42087 -2.89099 -6.87189 0.249032 0.339366 -1.63188
758 5.43218 -3.73317 -6.33492 3.37084 1.00276 -1.43499
474 7.0752 -3.78976 -7.70604 -1.66701 -0.537733 -0.291125
525 7.75972 -3.08297 -7.73531 -0.071873 -0.310464 -0.385191
475 7.05861 -4.53287 -6.91092 -2.1263 2.84276 1.5962
762 6.94989 -3.72819 -6.15462 0.657695 -1.3438 -0.583105
813 7.76765 -3.02177 -6.14123 -2.14214 2.3515 -3.17422
480 7.84064 -3.8743 -6.98475 0.142913 0.094162 -2.1307
523 7.09908 -3.16927 -6.89591 -0.0505192 0.0252562 0.524786
436 -9.11036 -3.71169 -7.05871 -1.14826 1.55365 0.528201
478 8.4826 -3.90275 -7.77241 0.924366 -2.31066 -3.08111
527 8.49624 -3.05445 -7.12932 -1.4125 -0.342601 1.60864
482 -8.42717 -2.09664 -7.75028 1.44914 -0.532254 -1.70959
484 -9.17155 -2.34031 -7.16892 -1.15438 -1.56628 -0.482862
531 -8.48476 -1.56264 -6.97784 0.158048 -0.565617 0.354476
533 -7.48866 -1.52421 -7.65643 -0.0762122 2.76626 -2.86942
488 -7.50794 -2.43223 -6.86325 -0.34131 -2.58171 -2.01269
489 -6.03429 -3.14141 -7.58378 -2.41009 -1.48076 -0.425488
491 -5.28362 -3.08672 -6.76651 -1.03959 1.65829 0.58918
777 -6.07538 -3.45561 -6.06018 1.15128 1.26202 0.755623
492 -6.13019 -2.46179 -6.80461 -0.665961 -2.95605 -2.46493
539 -5.37518 -1.49144 -6.96928 -0.158249 -0.67137 1.24957
495 -3.83555 -3.12564 -6.76719 0.19748 -0.879531 1.91608
496 -4.50318 -2.41253 -6.88969 1.62506 3.53309 3.67343
543 -3.81361 -1.68847 -6.92298 1.12478 0.0463127 2.99537
497 -3.09836 -3.0812 -7.83829 -0.164076 -2.03299 0.957894
498 -2.32642 -2.39636 -7.75565 -2.27683 2.11778 2.68234
545 -3.19903 -1.62752 -7.65913 0.263709 -1.5911 -0.333387
499 -2.4998 -3.07942 -7.08397 0.774075 0.106511 -3.47026
500 -3.01333 -2.30657 -6.85324 0.102955 0.621565 3.80485
547 -2.26783 -1.63254 -6.96569 -0.809796 3.24434 -0.774754
504 -1.598 -2.34246 -7.08163 2.19103 -0.927766 -0.89699
790 -0.681492 -2.4838 -6.35396 0.373964 2.19749 2.94567
507 0.747152 -3.16575 -7.09305 2.13388 2.75488 1.7916
508 0.119585 -2.33599 -7.13955 0.0617474 -0.806171 -0.37551
794 0.920676 -2.56325 -6.20725 -0.211732 0.506793 -0.548957
841 0.110904 -1.55839 -6.34978 2.37676 1.85584 -1.52922
510 2.25776 -2.15875 -7.75896 0.36029 -0.666376 -2.11278
797 1.60106 -3.30831 -6.42978 2.2005 -2.70159 -0.0663425
512 1.46403 -2.19495 -6.99454 -1.16247 1.45736 0.45753
555 0.698221 -1.59674 -7.24727 0.47833 0.621986 1.22746
511 2.26203 -3.14065 -7.10092 -2.43104 0.756071 0.486698
516 3.01218 -2.27121 -7.08855 -0.820196 1.31635 1.45166
559 2.3008 -1.51725 -6.97602 -0.594012 -0.620631 -1.58832
798 2.15005 -2.42772 -6.06482 -0.645235 -0.355198 -1.14945
514 4.05343 -2.12482 -7.90406 -1.28287 2.31581 -1.92004
515 3.81952 -3.12803 -7.12131 -1.91105 -1.09475 -1.47523
520 4.58425 -2.28392 -7.02322 0.179857 -0.00515551 -0.314889