ITEM: TIMESTEP
157000
ITEM: NUMBER OF ATOMS
6912
ITEM: BOX BOUNDS pp pp pp
-9.2265715179435492e+00 9.2265715179435492e+00
-9.2265715179435492e+00 9.2265715179435492e+00
-9.2265715179435492e+00 9.2265715179435492e+00
ITEM: ATOMS id x y z vx vy vz
290 -8.5502 -8.43071 -7.7624 3.91132 0.125197 0.238406
4065 3.10717 -0.035269 -6.20463 -2.29897 -1.29509 -0.560717
4037 -7.46037 0.00613678 -6.24282 -0.105645 0.373401 0.839387
8 -7.59997 -8.40169 -8.3046 -1.18194 -1.97413 -0.90208
4347 0.816969 -0.147415 -3.81442 -1.34203 2.27881 -0.453813
294 -6.7841 -8.25247 -7.76255 -2.19498 -1.04365 -2.0198
869 -7.86469 -9.13947 -4.64546 0.232725 1.92552 1.00216
12 -6.13637 -8.47322 -8.52261 3.72615 -1.61715 -0.361495
59 -5.35751 -7.6199 -8.37525 1.69701 -0.889655 2.18742
298 -5.20885 -8.4282 -7.64937 -2.03981 -2.59336 1.25377
583 -7.13605 -9.18538 -5.35081 3.42347 -0.909614 0.841671
16 -4.71442 -8.38815 -8.63328 0.859743 -2.44187 -3.12102
63 -4.06043 -7.57178 -8.47159 -1.26882 -2.16662 -0.557202
349 -4.67657 -7.49245 -7.72693 -0.687695 0.363427 0.264265
1922 -8.36009 -2.32716 -0.135631 -0.870355 -0.0110027 0.282451
302 -4.02501 -8.32472 -7.73721 1.14394 0.9453 -0.852304
1945 -0.0902286 -3.07049 -0.10538 -0.204112 -0.544011 0.231435
20 -3.18085 -8.15945 -8.48742 -0.395583 1.14849 -0.218041
306 -2.40437 -8.47546 -7.80681 0.134086 1.73677 -1.41183
305 -3.24927 -8.97287 -7.80027 -1.87499 -0.475975 2.7645
1527 5.30337 -6.87472 -0.0166768 -0.37826 1.04884 0.59447
24 -1.61773 -8.45099 -8.51651 -0.572182 -0.428469 1.45571
310 -0.658641 -8.63232 -7.74046 -0.0884588 2.86185 -2.7487
26 0.111086 -8.40763 -8.67639 -1.49148 0.503816 1.06579
133 4.43327 -6.08885 -9.16417 0.378441 1.38205 0.424731
35 3.99819 -9.09949 -8.64477 -0.99927 2.31825 -1.51217
367 1.53095 -8.53949 -8.35279 -1.06122 0.854268 1.0467
881 -3.01078 -9.19947 -4.6546 1.31564 1.11702 2.29931
1485 7.58049 -9.01544 -1.67963 -5.04154 -1.64683 2.37771
36 3.03441 -8.55056 -8.46657 -0.258284 0.513323 -1.09623
79 2.23062 -7.66284 -8.37669 1.3717 0.928812 -1.22079
114 -2.40906 -5.2039 -9.22677 -0.439054 0.72786 -0.695686
40 4.69112 -8.42896 -8.48665 0.191458 2.18125 -1.66891
1463 -0.693066 -9.17284 -0.714684 2.02089 -1.95342 1.78575
322 3.85363 -8.41061 -7.8086 0.690303 2.0887 -0.322738
373 4.72868 -7.63503 -7.93702 2.63726 1.82431 -3.19892
1858 3.99708 -5.30629 0.00840273 0.718742 1.32345 0.84309
44 6.33665 -8.28125 -8.48166 -0.971225 -2.4003 -0.488399
87 5.53467 -7.438 -8.34369 0.0630691 1.87901 -0.19324
48 7.62257 -8.36761 -8.59374 -0.638221 1.48289 -1.09307
1189 4.52083 -9.19624 -2.85055 3.01776 0.519426 -0.235445
1167 -3.92405 -9.17778 -2.10215 -1.18089 -0.832801 -1.41612
4 -9.14678 -8.55653 -8.62248 -2.47768 1.96152 0.267423
194 -8.43066 -2.23053 -9.14158 -2.24576 1.10202 -0.865158
1734 -6.59177 -8.66497 -0.100394 -0.197279 -0.294683 -0.864582
1770 6.95278 -8.45264 -0.00153197 2.86892 0.285923 0.580478
51 -8.43319 -7.68112 -8.55962 2.0722 0.376605 -0.85288
56 -7.7732 -6.94522 -8.49565 -2.84504 1.8472 0.725013
55 -7.00795 -7.64819 -8.50563 3.06153 1.48815 -1.24003
341 -7.65466 -7.55785 -7.73618 -1.18008 -0.965152 1.19133
60 -6.15106 -6.86428 -8.37678 -0.921036 -1.3684 -1.69146
297 -5.98493 -9.14575 -7.76249 0.456815 -0.339312 1.15661
345 -5.92413 -7.48632 -7.62969 -1.67711 -2.97676 0.0611652
346 -5.31939 -6.77384 -7.73204 -1.256 -1.15611 0.452489
350 -4.77581 -6.79582 -8.49129 -0.488921 -2.35481 1.2792
352 -3.90414 -6.86673 -7.74188 -1.90311 -3.57018 0.0656494
111 -3.84467 -6.17713 -8.50652 -0.345778 -1.88349 -0.102191
67 -2.26536 -7.61649 -8.57877 1.15768 -1.74967 0.258582
68 -3.01454 -6.82258 -8.47697 2.42952 1.3137 -1.47577
113 -2.35591 -6.03124 -8.5107 -0.474925 -1.20267 -1.30616
3996 -5.27618 -9.06471 -7.01293 -3.15792 0.577428 1.00913
1894 -0.819881 -4.02692 -0.0427293 -4.42592 0.689339 1.73569
71 -0.786928 -7.70402 -8.58264 0.431488 0.406831 -1.60518
357 -1.53323 -7.86705 -7.62225 -0.635081 0.244689 -0.499723
69 -1.61521 -6.8716 -8.53165 -1.27905 -1.88739 -2.8154
119 -1.01893 -6.0466 -8.50641 -1.29528 -0.771194 -3.29868
1465 0.0223058 -9.16646 -1.55519 0.625173 2.99161 1.20156
76 -0.110492 -6.94794 -8.44387 -0.926864 0.509537 0.455466
193 -9.09969 -3.10863 -9.17483 -0.356367 0.472848 0.184511
75 0.575022 -7.59592 -8.50892 0.372681 1.74785 0.486883
80 1.45174 -6.81111 -8.4562 -0.29804 -0.422092 -2.11112
4310 5.79849 -9.08447 -5.90207 -0.0954637 0.292884 1.48464
84 3.13783 -6.95413 -8.5095 -0.101816 -1.3965 -0.369304
185 6.15171 -4.40981 -9.05025 1.69555 1.72796 0.520845
4649 6.51957 -0.0509985 -2.94123 0.835612 -0.134783 4.5861
366 2.35127 -6.98646 -7.63198 -0.794271 -0.167493 1.66881
83 3.78081 -7.75043 -8.51519 0.132834 -3.56576 0.225373
88 4.57316 -6.81182 -8.56453 0.63586 -0.0407814 -0.242577
131 3.72085 -6.26024 -8.27366 1.80206 -4.26895 0.566263
3503 8.50647 -0.102951 -8.50519 -2.71201 -1.14241 -2.78162
92 6.25922 -6.78574 -8.5336 1.37996 -0.111817 -1.77906
422 5.35641 -6.07806 -8.57152 1.12558 -0.598201 -3.00323
315 0.726854 -9.14387 -6.84093 -1.5303 0.600336 -1.00002
295 -6.97295 -9.14503 -6.98647 1.48495 -1.18576 -1.21609
1870 8.43909 -5.42479 -0.125667 1.26783 0.558886 -1.18268
91 6.96846 -7.526 -8.68193 -1.10867 -0.244353 -3.93472
96 7.66726 -6.80858 -8.71722 -2.52888 0.706248 3.52271
139 7.04794 -6.09402 -8.77234 -0.162459 -1.29756 -3.10447
1464 -1.53334 -9.0702 -0.128723 0.736315 2.01778 1.69712
214 -0.834435 -2.3571 -9.13934 0.749957 2.40916 1.98469
95 8.40216 -7.64531 -8.54313 -0.901829 -1.83236 -0.769463
52 -9.23569 -6.87936 -8.43603 -3.7247 -1.24579 -0.768243
382 8.44971 -6.81224 -7.78776 1.7054 0.819584 0.189314
1790 -3.81194 -6.67171 -0.070646 0.657491 0.986432 -1.8044
99 -8.58272 -6.16721 -8.25382 -0.702542 -2.55773 2.3965
146 -8.24888 -4.52867 -8.37 -0.0630296 -0.382456 0.852228
103 -6.82722 -6.23309 -8.41414 -1.80293 -1.91587 1.73396
104 -7.40187 -5.47557 -8.31335 -0.414138 -1.57442 0.82531
151 -6.85591 -4.54546 -8.35993 -1.13013 -2.69103 2.26477
389 -7.60955 -6.14526 -7.6765 -0.337403 1.29717 2.62898
107 -5.48497 -6.0661 -8.46519 -0.756966 1.81044 -1.15102
108 -6.08267 -5.23043 -8.69706 -2.19922 0.419094 -1.96552
441 -6.18033 -4.57415 -7.52006 -2.3523 2.06353 -2.61163
4057 0.0292941 -0.110241 -6.15556 1.60937 -2.63171 0.515258
393 -6.20173 -5.89591 -7.86975 -0.602401 1.8823 -0.730633
394 -5.32009 -5.30959 -7.76415 0.485855 -0.655696 0.857029
335 8.61381 -9.10235 -7.03775 -1.60416 -1.41573 0.831192
64 -4.49291 -5.47715 -8.50788 -1.00196 -1.19859 1.35257
398 -3.7351 -5.36653 -7.83552 -1.94241 -0.0400652 -0.382205
397 -4.53489 -6.03226 -7.68327 -0.354653 0.0841227 -0.0325671
3493 4.50948 -0.110064 -9.15749 1.16901 -2.36326 -2.01147
174 2.31992 -3.72901 -9.07257 0.120651 -1.44476 -0.123917
115 -3.03396 -5.26289 -8.51257 0.0201063 -1.33455 0.220175
121 -0.0415974 -6.20801 -9.17806 -3.31509 -3.79756 0.845553
120 -1.56307 -5.30398 -8.43826 -0.832318 -1.97257 -2.48813
1842 -2.28291 -5.26857 -0.0516575 -1.47302 0.21753 1.44812
105 -6.20062 -6.08206 -9.18475 -0.3592 2.51375 -0.973283
124 -0.004302 -5.27436 -8.60007 2.3181 -1.19855 0.77807
329 6.25411 -8.96792 -7.51342 1.16783 -1.66741 0.853276
123 0.820779 -5.9884 -8.54656 -0.676504 -0.36077 -0.260388
128 1.58361 -5.44227 -8.38575 0.0342339 -2.69914 0.937562
1461 -1.5673 -9.20485 -1.45155 -1.07625 0.31298 -1.46588
127 2.33419 -6.33774 -8.26746 -2.06847 -0.204517 -0.909305
132 3.02504 -5.41877 -8.34079 -1.16573 -0.943116 1.69554
465 2.96458 -4.70803 -7.59235 -0.469961 0.763301 -2.95791
1471 2.26698 -9.14253 -0.619567 -0.564886 0.195296 -1.14589
1781 -7.7635 -7.61204 -0.033552 -3.97265 -1.20342 3.09061
136 4.55265 -5.38164 -8.48537 0.397245 0.248814 -0.227533
4884 3.0589 -9.05664 -1.27396 -0.45071 -0.298613 -0.350866
421 4.35768 -6.1565 -7.63011 -0.74333 2.62004 -1.28783
418 3.76754 -5.35887 -7.69247 1.41979 1.08313 -0.355112
879 -4.66442 -9.12582 -4.72381 0.130536 -0.827968 1.73235
15 -3.85568 -9.06394 -8.58456 -2.7956 -2.42591 0.423322
425 6.29405 -6.00048 -7.65588 4.81758 0.775431 0.893678
428 5.33193 -5.48591 -7.66752 2.66997 0.0684706 1.35903
140 6.35898 -5.58382 -8.51247 -0.0948 2.28391 -1.50238
144 7.77632 -5.40552 -8.53977 0.404936 -0.946921 -1.71658
129 2.89201 -6.13824 -9.13544 1.55076 -1.39275 -0.210805
477 7.93323 -4.53652 -7.71601 -1.52306 -1.69558 0.328001
893 1.43464 -9.15412 -4.52902 0.590517 -1.92411 1.3048
385 9.21786 -6.08549 -7.51452 -0.00726471 -1.38302 1.466
143 8.41015 -6.25009 -8.57476 1.48819 -0.30686 -3.23839
100 9.19542 -5.42745 -8.40361 2.94051 0.980996 -0.0479798
1837 -4.55793 -6.11783 -0.155532 1.88107 -0.00801235 -0.921097
195 -8.32257 -3.02724 -8.46782 4.46232 1.36609 -0.719328
434 -8.27189 -3.77048 -7.74409 -0.47614 -1.32502 -0.910045
150 -7.51505 -3.89048 -8.45521 -0.186571 -0.972505 1.12047
199 -6.76508 -3.07511 -8.43699 0.296142 1.58211 -1.92616
485 -7.58972 -3.05503 -7.78252 1.06354 -0.751241 -0.602735
152 -6.68984 -3.71248 -7.68302 1.89089 -1.75214 0.471226
155 -5.28371 -4.53183 -8.54083 -1.27907 -3.78579 1.45913
438 -6.06191 -3.96639 -8.44454 0.96287 -2.52579 0.742039
203 -5.32751 -2.95023 -8.46477 -1.84972 -2.20175 -0.174275
489 -5.98785 -2.95416 -7.64718 1.17562 0.321611 1.80727
442 -5.37498 -3.77388 -7.58382 -0.238505 0.0843774 0.61226
159 -3.88902 -4.38013 -8.58847 -0.149511 -1.04923 0.351389
112 -4.54802 -4.6369 -7.91315 4.53131 0.87019 -2.54064
160 -4.68614 -3.60259 -8.33836 3.27826 1.06244 -0.821253
163 -2.23261 -4.53578 -8.45542 2.4737 -0.37616 0.82663
164 -3.00214 -3.62168 -8.49855 0.53717 2.1783 -1.04911
211 -2.24543 -2.82524 -8.707 1.18239 0.654492 -2.92704
449 -2.8853 -4.34667 -7.79828 -2.13076 2.6643 -0.750911
145 -8.32055 -3.95637 -9.17444 -1.58421 0.755693 -1.98852
221 1.41986 -3.00561 -9.11028 1.30217 -2.62042 0.121351
168 -1.57414 -3.60271 -8.46969 -2.18891 -1.62388 0.647179
613 4.46893 -9.04499 -6.43752 -0.976896 1.00716 -1.84221
167 -0.847948 -4.29291 -8.53716 2.03948 -1.16155 2.44093
171 0.766511 -4.75181 -8.48956 1.72072 -0.186594 -0.631699
172 0.0275897 -3.90124 -8.44852 1.53623 -0.800139 1.02567
454 -0.717004 -3.85796 -7.75588 0.0845087 0.67778 0.862386
1938 -2.31456 -2.25143 0.0100633 1.76735 0.412176 1.00246
461 1.57536 -4.69682 -7.7759 -1.78621 -0.801005 -2.80921
176 1.52107 -3.77051 -8.49093 1.58812 -1.17807 -1.45286
4061 1.44024 -0.00835819 -6.18376 -0.476613 -0.0219697 -1.17249
293 -7.65338 -9.19661 -7.68533 0.982995 2.45967 0.109883
173 1.59283 -4.6697 -8.99535 -3.15051 0.284423 0.323613
175 2.35519 -4.55155 -8.44132 0.961328 -0.141859 -0.637714
462 2.20733 -3.95291 -7.65389 -1.91977 1.08945 -1.57107
180 3.08188 -3.73888 -8.41528 1.51812 -0.281788 -1.56211
223 2.23261 -3.05855 -8.24197 -0.629035 1.55114 -0.703484
277 4.5893 -1.75742 -9.20079 -2.66752 -0.655764 -0.52734
238 8.48515 -2.09046 -9.1528 -0.214837 0.851257 -0.98929
110 -4.62089 -6.09134 -9.26995 0.843559 1.75495 -4.25948
179 3.69787 -4.80496 -8.48038 -1.74458 -3.02084 0.943463
184 4.45223 -3.90092 -8.25443 -2.6512 -2.63537 0.912565
227 3.94074 -3.16558 -8.47599 -0.643661 -4.33274 -2.41148
466 3.746 -3.95163 -7.64643 -0.593024 -0.752902 -1.09642
2016 8.42823 -0.775949 -0.0641083 0.811544 2.23533 1.54625
183 5.38057 -4.75094 -8.34893 3.27191 -0.477136 0.211499
1469 1.40466 -9.20276 -1.51951 2.35587 -2.12829 2.80506
231 6.11246 -3.87346 -8.27195 -1.65578 -0.355856 -2.17602
518 5.40118 -3.22385 -8.26295 -1.65563 -0.139231 -2.45461
187 7.09502 -4.50625 -8.33588 -0.883075 0.586037 -0.748945
192 7.82414 -3.79996 -8.475 -2.09155 1.62651 -2.55188
235 6.89113 -3.17635 -8.45577 1.62292 2.79168 -2.07252
191 8.43347 -4.61397 -8.60012 1.2353 1.93597 -0.192706
148 -8.99529 -3.86236 -8.36922 -0.0443756 -0.943411 0.906603
239 8.62705 -3.00612 -8.4879 -1.23788 -0.379516 -1.99587
478 8.65121 -3.97495 -7.80274 -0.343258 -0.471715 -0.111504
481 -9.11726 -2.92893 -7.89755 -0.103527 0.349932 0.863458
1777 -9.16009 -7.6484 -0.0761309 -1.30015 1.94472 -0.633745
482 -8.42835 -2.30643 -7.76262 -1.20644 -2.06364 -0.461488
243 -8.2758 -1.41082 -8.55577 -0.883259 -1.94793 2.83583
533 -7.61215 -1.70505 -7.82167 0.193115 -2.14224 0.104187
200 -7.60266 -2.257 -8.6059 0.917422 1.65112 1.0414
486 -6.80066 -2.46913 -7.68338 0.835084 -1.60359 1.41696
247 -6.98553 -1.49273 -8.64536 1.28912 -1.60625 1.21024
77 1.48651 -7.53953 -9.2395 -2.44361 -0.287008 -2.07358
204 -6.09323 -2.25846 -8.43946 -2.73015 0.866558 1.5848
252 -5.25977 -1.41596 -8.48035 -1.96351 1.56162 -2.27073
537 -6.17563 -1.55904 -7.81484 0.166971 -0.73538 1.67606
207 -3.92901 -2.97133 -8.54623 0.0629273 2.00264 1.48849
208 -4.6467 -2.15397 -8.49848 2.50811 -1.8894 0.714058
493 -4.56637 -2.87677 -7.75578 0.243976 1.06556 -1.63692
494 -3.84283 -2.22309 -7.75842 -2.92656 0.959902 -0.625219
212 -3.08873 -2.24368 -8.40066 -0.853339 -0.354282 -1.56658
4860 -5.27811 -8.99513 -2.4998 1.04033 -0.109171 -0.285
4613 -7.65048 -0.0481057 -3.08643 -1.99341 -0.354116 1.49122
215 -0.590897 -3.16532 -8.66592 0.418871 2.60221 0.9241
501 -1.49513 -2.93425 -7.69349 0.0228662 -0.971698 0.986962
216 -1.52314 -2.09114 -8.32334 -1.97033 0.54557 2.33976
3755 -5.54287 -0.000344259 -7.25326 0.797498 0.788051 0.175213
263 -0.783642 -1.48973 -8.36009 0.26577 -0.198445 0.357062
220 -0.0607049 -2.18462 -8.33209 -1.92431 2.03254 2.6741
505 -0.094792 -2.96024 -7.72604 1.3967 -0.951258 -0.867788
3471 -3.93753 -0.112513 -8.60206 -0.108028 -0.395724 -0.140173
5213 1.27653 -0.284287 -0.103835 0.568617 -2.28903 2.39631
219 0.682899 -3.14695 -8.4268 -1.08134 -2.98454 2.24443
224 1.39864 -2.23184 -8.2513 -2.06283 -1.12162 -0.956027
4325 -7.69558 -0.0679513 -4.69783 1.79119 0.965188 -1.48272
228 3.12592 -2.52227 -8.34065 0.853813 -0.146177 0.691104
81 3.00962 -7.78188 -9.12719 0.623261 0.592003 -0.212931
509 2.27895 -2.31652 -7.65203 -2.51729 -2.7078 0.409864
4349 1.64806 -0.13867 -4.61731 -2.5666 0.200815 -2.034
232 4.59592 -2.42201 -8.36584 -0.0154894 -0.0633642 -3.09901
280 3.97995 -1.50564 -8.37267 -0.83588 -2.59244 1.64101
6 -6.97713 -8.4654 -9.20993 -0.982893 0.463643 -0.775544
236 6.17942 -2.50647 -8.32343 1.0526 -1.48749 0.135265
279 5.47164 -1.67319 -8.41239 -2.78851 -1.50736 0.0724114
4331 -5.34351 -0.307875 -4.0801 2.00692 -2.07168 0.867728
54 -6.93755 -6.94654 -9.15069 -1.4894 1.21318 2.00701
240 7.71461 -2.29766 -8.42285 2.26886 0.55936 -0.073662
283 6.65631 -1.46539 -8.50008 -1.85505 -0.961604 2.19154
615 4.97479 -8.71739 -5.39342 0.208492 1.92143 -0.665478
134 5.58479 -5.35373 -9.14666 -2.95214 -0.689972 -0.762486
196 -9.23931 -2.14935 -8.51565 -3.47491 -0.881002 0.187568
287 8.34015 -1.44281 -8.42378 -0.83478 -2.37122 -1.19062
1445 -7.80163 -9.15318 -1.59506 0.175538 -0.4146 0.469
1978 -5.37125 -0.72232 -0.089171 3.76944 -1.34468 2.60116
244 9.24448 -0.638647 -8.44839 3.59306 -0.337988 -0.712418
248 -7.6482 -0.637886 -8.38249 -0.400312 -0.995235 1.11807
182 5.28364 -3.96947 -8.98359 2.44264 -0.286367 0.445687
3477 -1.41261 -0.0565746 -9.17555 -0.616358 2.3378 -1.81504
291 -8.39101 -8.9483 -7.01 -1.18508 3.87802 0.010231
534 -6.90808 -0.778299 -7.8228 -1.74685 -1.56676 -1.96354
5209 0.177145 -0.182643 -0.0450877 1.1925 3.35476 -0.436719
135 5.38326 -6.89106 -9.17233 1.63935 0.413357 -2.37869
246 -6.08119 -0.973263 -8.60532 -0.836923 -0.746237 0.617548
538 -5.25931 -0.725672 -7.73072 -0.26419 1.01367 1.29903
4897 9.20058 -0.777385 -0.821723 1.62985 -1.12498 -0.620357
871 -6.76725 -9.11441 -3.81623 1.59079 -1.53863 0.272511
490 -4.50507 -1.49048 -7.72955 0.551019 -0.479606 0.0684486
255 -3.71087 -1.55186 -8.46581 1.39148 1.96866 1.31744
254 -4.48422 -0.848038 -8.42092 -3.69229 0.863129 1.19868
541 -3.75023 -0.920637 -7.51307 0.496838 1.7313 -1.06445
259 -2.37935 -1.56467 -8.45149 2.10267 -0.256537 -1.83393
3473 -3.16511 -0.743801 -8.52442 2.1233 -0.141793 -1.1589
545 -2.98308 -1.63526 -7.66288 -3.00129 0.0399767 -0.210974
546 -2.38045 -0.780738 -7.83735 -0.237908 0.56329 2.63774
3475 -2.37566 -0.0579692 -8.56487 1.15243 -1.25021 -1.16507
264 -1.51849 -0.634289 -8.51896 1.39786 -0.544633 0.522241
4323 -8.27108 -0.112665 -3.83968 -1.70072 2.65555 -1.49843
268 -0.0140231 -0.858228 -8.34479 0.421413 -3.81243 -0.124751
550 -0.82396 -0.732962 -7.62838 0.396099 0.594307 1.60063
267 0.730045 -1.55249 -8.34005 -2.17288 -2.2009 1.54328
272 1.47435 -0.833972 -8.53188 0.583791 0.987157 -1.11526
554 0.654484 -0.872131 -7.66166 -0.474371 -0.702226 -1.04169
1924 9.14587 -3.25474 -0.133834 2.62228 -2.53404 -2.82036
4647 5.68317 -0.125699 -2.41501 -4.74567 1.94462 2.46005
1443 -8.35046 -9.05933 -0.763259 3.96936 0.517619 0.847762
1632 8.37858 -3.94722 -0.0814466 0.733814 1.15994 -0.451807
271 2.16274 -1.66352 -8.38502 -0.976966 3.61617 -1.50782
3487 2.08728 0.00367318 -8.74357 0.696472 3.06429 0.00644947
276 3.03488 -0.855289 -8.48909 -3.47699 0.304202 0.732109
566 4.79009 -0.899064 -8.42199 3.3832 -0.740228 1.94507
1786 -5.34267 -6.83755 -0.0925941 0.980496 -1.72404 -1.72644
284 5.9366 -0.766825 -8.46768 -3.03589 0.368535 0.884019
82 3.7388 -6.83039 -9.1518 0.482513 0.0641203 0.982451
1769 6.16137 -9.14986 -0.0760182 -0.0878568 0.415524 1.0191
1934 -4.15751 -2.30046 -0.303392 -0.787275 0.887649 0.965617
288 7.40487 -0.847879 -8.36007 -0.979299 -1.85951 -0.841945
907 6.82672 -9.1576 -4.00955 -1.40415 0.68187 1.66078
41 6.13561 -9.11212 -9.00861 -0.750146 -3.94668 1.3322
197 -7.59931 -3.05385 -9.18423 1.13909 1.58934 0.904515
38 5.35105 -8.15948 -9.01304 -2.78533 -0.740276 0.628075
292 -9.18987 -8.25331 -6.81694 0.145206 1.0358 0.633861
578 -8.26574 -8.23184 -6.21241 0.00242739 -1.72452 -1.38224
625 -9.10193 -7.56916 -6.22415 -1.41063 -0.736327 -0.789875
1726 8.54911 -0.782406 -1.4363 1.29407 -1.2968 0.330786
1175 -0.782697 -9.18728 -2.225 -0.994985 -1.86548 1.64633
296 -7.52947 -8.24276 -7.00956 -0.0137587 0.559695 1.55721
343 -6.82572 -7.62865 -6.94306 1.73208 -1.96367 1.17323
582 -7.06133 -8.26799 -6.14593 1.60215 -0.0575013 -0.319195
300 -6.06543 -8.39835 -6.97881 -1.34757 -1.16464 -1.65838
347 -5.16214 -7.71595 -6.84921 0.443984 -0.823531 -3.04415
586 -5.47779 -8.26119 -6.08577 0.358044 -1.47551 1.08614
633 -6.27196 -7.67038 -6.08664 1.4503 1.78287 -0.546563
304 -4.47931 -8.49886 -6.83852 0.186268 -0.393073 -2.71629
590 -3.87373 -8.56328 -6.05898 -1.11216 1.33452 -1.84678
351 -3.85083 -7.69744 -6.89265 1.8496 0.974491 2.32174
639 -4.58042 -7.70733 -6.06304 -0.920012 0.822676 0.259444
308 -3.14211 -8.3773 -7.01134 0.272619 -0.20087 0.122088
355 -2.40873 -7.74462 -7.1011 -1.58652 -2.06275 0.442805
594 -2.17787 -8.28204 -6.24021 -1.38524 -0.45806 2.36703
307 -2.34935 -9.13095 -7.0016 0.491867 1.19117 1.45874
641 -3.22753 -7.70244 -6.0303 -1.58847 1.99229 0.0759481
312 -1.53729 -8.5764 -6.90825 -0.881918 -1.40388 -2.14624
359 -0.706906 -7.64285 -7.12574 4.89971 -0.549598 1.71114
316 0.0899146 -8.42605 -7.14391 1.31728 -1.52587 -0.00582655
28 0.707038 -8.53066 -7.82801 -1.63807 0.138168 2.51114
361 -0.0859896 -7.83555 -7.8145 -0.0949554 -0.938714 -1.28213
4917 -1.54579 -0.0178225 -1.40236 0.412857 -1.24559 -0.0272237
1672 4.47544 -1.59515 -0.188782 2.75351 2.40947 -0.3882
365 1.41933 -7.76549 -7.84915 -0.586353 0.934642 4.43761
320 1.4705 -8.56358 -6.92662 3.56531 0.869066 -1.78492
314 0.776093 -7.82751 -6.94643 -0.365188 0.552639 -0.51401
318 2.28266 -8.64168 -7.77289 0.68714 1.54423 3.6568
1994 0.583805 -1.02918 -0.0199756 0.374989 0.673491 0.490853
285 7.6019 -1.55666 -9.21056 2.04385 -1.5206 0.370021
324 2.84591 -8.47404 -6.95719 0.877264 -2.64657 1.28945
654 2.04201 -7.71352 -7.05803 0.444632 -0.0447949 3.97426
4901 -7.88399 -0.117161 -1.48183 2.82565 0.881908 -0.535921
328 4.49233 -8.24737 -7.02138 -0.184233 -0.0165858 -0.242267
610 3.4827 -8.76987 -5.98594 1.32387 -2.44166 1.22502
371 3.68295 -7.87421 -6.76832 -3.11374 2.7745 -0.587779
661 4.42316 -8.00698 -5.96227 -0.50665 -0.770837 1.31434
326 5.55581 -8.32091 -7.97217 -1.41012 0.57196 -2.05512
377 6.43895 -7.67818 -7.83353 -1.79296 0.0542826 0.149443
614 5.3943 -8.12047 -6.24845 1.34678 -0.362405 1.08417
78 2.293 -7.00345 -9.07869 0.308218 2.75329 -0.457996
330 7.08407 -8.33423 -7.63519 0.841193 0.140791 -0.186617
332 6.36756 -8.3652 -6.76695 1.03616 -0.64818 0.802027
336 7.98037 -8.27315 -7.13915 -0.113585 -2.69913 -0.388662
53 -7.72065 -7.7404 -9.2218 -1.11951 1.61715 -0.454842
1447 -7.05216 -9.05778 -2.25638 0.462819 -2.05068 -0.746368
334 8.67251 -8.55297 -7.86 -0.618798 -1.60018 0.0574993
383 8.55415 -7.46182 -6.99968 -1.03543 1.58596 0.542721
622 8.4148 -8.36973 -6.12793 2.75193 0.330121 3.03606
339 -8.36576 -7.70512 -6.99691 -1.20257 2.02323 -0.56735
338 -8.56267 -7.00308 -7.71232 0.848967 2.43508 -0.175647
340 -8.96601 -6.84714 -6.92073 2.53636 1.18151 1.22045
673 -9.12115 -6.18454 -6.28885 0.0299439 0.636149 -1.74322
342 -6.83324 -7.01491 -7.68401 1.36482 1.29228 2.43262
344 -7.65627 -6.99125 -6.98456 -0.912776 1.69072 -3.57035
391 -6.74368 -6.28599 -6.96237 -2.85209 -3.91221 0.485774
630 -6.96001 -6.85595 -6.11622 0.578047 -0.868064 1.93091
348 -6.0309 -6.91964 -6.84987 1.61658 -0.873929 0.144417
395 -5.35454 -6.00781 -7.05155 -1.31701 -0.160953 0.365491
634 -4.62062 -6.74565 -7.03314 -3.3889 -1.1678 1.04551
399 -3.89577 -6.0271 -6.91565 -0.480173 1.46614 2.74851
638 -4.12365 -6.83669 -6.17707 -0.239317 -0.212389 3.16066
685 -4.64621 -6.00079 -6.31141 1.04887 2.3899 -0.645431
354 -2.42929 -6.84439 -7.65717 0.782962 -1.16594 0.165464
353 -3.2481 -7.6605 -7.71225 0.968474 0.447943 -1.06799
356 -3.19722 -6.99787 -6.84117 1.6967 -1.49959 1.22842
642 -2.37222 -7.11946 -6.35441 0.0503889 2.61413 -3.17594
358 -0.962072 -6.72242 -7.84646 2.09163 -1.09135 0.537046
360 -1.63146 -6.96448 -7.05588 -0.666219 -1.5688 -0.315549
407 -1.11447 -5.97058 -7.07445 0.98463 1.74988 2.08218
646 -0.728755 -6.86494 -6.36149 0.408303 -1.40677 -2.14024
364 0.0866276 -7.12199 -7.13204 2.30416 -0.401688 1.6449
409 -0.213861 -6.24114 -7.81691 -0.372594 -0.333188 1.09722
411 0.645364 -6.26088 -7.03657 -1.76366 0.0471439 1.32064
362 0.626016 -6.88847 -7.8372 2.13792 -2.25318 -1.53827
413 1.33596 -6.09333 -7.76085 -1.8817 3.88099 0.427631
368 1.54475 -6.70083 -6.97962 1.06205 -1.66637 -1.49945
369 3.07479 -7.6723 -7.86107 -0.687166 -2.45458 -0.959364
703 2.91672 -7.11277 -6.86852 2.44217 -1.35269 1.64152
417 3.14298 -6.16239 -7.45562 1.49874 -4.24238 -0.920688
370 3.74763 -7.04578 -7.63605 -2.07211 1.54629 3.22729
376 4.69835 -7.12057 -6.83175 1.57937 2.84787 0.346635
658 3.63555 -7.11061 -6.14774 -0.0753305 -0.127063 -1.32506
374 5.19881 -6.68583 -7.60535 0.406954 -0.484794 -0.320456
375 5.46469 -7.63165 -7.27433 -0.197034 1.67324 0.28314
380 6.22313 -6.84643 -7.09963 -0.839464 -0.875451 1.31193
423 5.4473 -6.2219 -6.75982 -3.87802 0.556427 0.791544
662 4.64867 -7.09169 -5.54065 2.03896 2.31433 -2.32573
378 7.02548 -6.70795 -7.9925 -1.90734 1.77759 -0.812314
381 7.5488 -7.46623 -7.8296 1.52347 1.26785 0.266745
379 6.96245 -7.52097 -6.94351 -0.25187 -1.65675 2.44927
666 7.03351 -6.83176 -6.22835 -0.976797 1.59602 0.277989
337 -9.19895 -7.65944 -7.76628 -3.30038 3.03698 0.0371144
384 7.57233 -6.6578 -7.13283 -0.7104 0.776822 1.27445
431 8.52128 -5.80054 -6.70947 0.269479 -0.333578 -1.72913
386 -8.34045 -5.33239 -7.80243 -1.89182 1.71303 -1.58594
387 -8.26982 -6.21771 -7.0234 1.75581 0.0369933 1.33674
433 -9.05828 -4.65444 -7.81839 -0.976858 -0.560334 1.03137
674 -8.52456 -5.49563 -6.00657 -0.210991 0.609736 -1.47451
390 -6.95897 -5.38873 -7.52292 0.381027 -1.96779 -0.166862
392 -7.78064 -5.34395 -6.96318 1.02334 0.60802 1.94057
678 -6.76522 -5.43007 -6.20852 -2.51017 3.32272 -0.732357
725 -7.69697 -4.64292 -6.08813 0.391974 0.0959251 1.66139
677 -7.49554 -5.92839 -6.20824 -0.579189 -3.12531 1.92354
396 -6.05146 -5.37522 -6.91529 -0.233215 0.0897177 -2.10419
682 -5.37127 -5.35166 -6.10444 -4.12853 -1.92531 -2.14048
681 -6.06238 -6.08934 -6.2484 -2.04626 -0.180121 -1.80033
729 -6.08616 -4.4803 -6.10273 0.181515 2.20671 -1.37791
400 -4.62003 -5.21687 -6.86205 0.299444 -3.57286 0.356921
401 -2.92303 -6.01312 -7.65755 -1.29977 -0.935044 2.39347
403 -2.32917 -6.24373 -6.81988 2.74723 -0.0902654 1.0485
404 -2.99192 -5.25186 -7.01029 -2.05428 1.50739 -1.39254
402 -2.42443 -5.19669 -7.78939 -0.333775 1.75942 -2.74582
451 -2.38519 -4.40076 -6.99691 2.83737 -0.945525 -0.763956
405 -1.8341 -6.09369 -7.75011 -0.898159 1.33903 0.746684
453 -1.59324 -4.7043 -7.58038 -0.610071 -0.294842 -1.15377
406 -0.879002 -5.30417 -7.71877 -2.03685 3.1642 2.8957
408 -1.96213 -5.32684 -6.89924 -3.65441 0.269154 -1.64822
693 -1.66109 -6.39874 -6.16793 -2.74476 -0.544022 1.01796
694 -0.698773 -5.38299 -6.12724 -0.0544495 1.57167 -2.47269
412 -0.191725 -5.50452 -7.11432 -1.62296 -0.0393024 -2.49796
459 0.66168 -4.59037 -7.13458 1.23056 0.317979 1.91651
410 0.584019 -5.4459 -7.7592 1.67273 1.40494 -1.4099
416 1.28299 -5.4002 -7.02518 1.69512 -0.477713 -1.43345
414 2.18806 -5.55183 -7.56153 0.755137 -1.59995 -0.637945
415 2.38753 -6.19603 -6.69348 1.08841 -0.141121 -3.06754
420 3.02535 -5.30062 -6.85824 0.664324 2.60796 -0.865249
753 3.12627 -4.61414 -6.17173 -2.09794 2.71979 -0.459998
705 3.10031 -6.21499 -5.97025 0.33533 -0.271064 -0.368287
372 3.76954 -6.24088 -6.76327 0.863912 1.25993 -0.192999
469 4.54295 -4.75979 -7.7157 1.83423 0.490897 0.653706
419 4.55472 -5.61459 -6.75195 2.98665 -0.338231 2.38283
467 3.98645 -4.61588 -6.84975 3.37501 0.425823 -0.760975
706 3.5831 -5.40292 -5.92626 1.41415 1.70814 1.50557
424 4.46251 -4.56602 -6.03708 -0.820768 -0.210003 0.849758
471 6.13292 -5.43242 -6.8911 0.345044 -0.614081 -1.24514
473 6.08039 -4.74328 -7.70451 1.63437 -0.520249 0.137193
757 5.03118 -4.61646 -6.79916 -1.42252 -0.777533 -0.163688
426 7.02284 -5.31421 -7.58344 -1.06847 -1.0822 1.00669
427 7.10156 -5.94291 -6.73425 -0.112198 -0.369963 -0.471431
717 7.67457 -6.07733 -6.04032 -0.927334 0.345533 1.9236
432 7.84359 -5.12198 -6.90929 2.14379 -1.10025 0.951524
430 8.43443 -5.27365 -7.71194 -0.954676 0.042481 1.58336
429 7.73486 -5.98623 -7.85371 1.92763 2.36503 2.01071
388 -9.10522 -5.25445 -6.92288 -0.63724 0.0770416 -2.69154
718 8.83401 -5.28078 -5.97902 0.378471 -0.49696 1.61391
435 -8.45761 -4.42626 -6.93284 0.554551 -1.91535 0.059995
483 -8.36797 -3.07843 -7.06713 1.05281 -1.33971 -0.558412
437 -7.61667 -4.4975 -7.59264 0.800906 -0.683227 0.267289
439 -6.92251 -4.57317 -6.61279 -0.925716 -0.718253 1.37378
440 -7.55409 -3.7881 -6.94552 -0.184481 -1.37094 -2.28569
726 -7.01649 -3.75595 -6.13952 -0.261565 -0.872831 0.915279
487 -6.583 -2.89873 -6.82925 0.0210883 -1.04686 -0.349264
443 -5.36548 -4.58083 -6.87768 3.84576 1.16393 0.780668
444 -6.09589 -3.82218 -6.79235 1.18827 2.65355 2.15113
448 -3.69882 -4.47004 -7.07962 0.521317 -0.376164 0.0811444
446 -3.75911 -3.8055 -7.81365 -0.106809 -2.28076 -0.604996
445 -4.44204 -3.75688 -6.94941 2.13814 0.423403 -2.27694
733 -4.57225 -4.40421 -6.15949 1.27425 -0.687792 1.83287
734 -3.7667 -3.76567 -6.14139 1.92252 -2.55334 3.07034
450 -2.25977 -3.56547 -7.59071 -1.13637 -1.66514 -0.865462
452 -3.07784 -3.66125 -6.9408 0.170302 1.53813 -1.79485
499 -2.28163 -3.04961 -6.77638 -2.15448 1.7797 -0.122242
456 -1.47531 -3.86465 -7.00774 -1.43988 1.47903 -1.22127
455 -0.863254 -4.78668 -6.90917 4.08715 0.726093 -1.64239
742 -0.752484 -3.99344 -6.29873 4.62878 -1.15946 1.8781
789 -1.48086 -2.8985 -6.02999 -0.808238 1.85881 2.26602
741 -1.61663 -4.64243 -6.3288 -1.61707 0.584033 -2.70275
457 -0.187604 -4.70424 -7.77635 1.63325 2.17594 -0.185838
458 0.797046 -3.8631 -7.7974 1.04394 -1.85031 0.351783
460 -0.0808259 -3.98135 -7.05177 0.643814 -1.53023 -0.920892
749 1.29526 -4.62258 -6.48929 -0.235282 0.258864 0.231086
746 1.36877 -3.71456 -6.87222 1.35033 -2.14953 2.36155
463 2.24626 -4.7004 -6.98208 -1.60765 -2.18592 -1.16623
468 3.08451 -3.99762 -6.89615 -0.330716 -0.276797 2.04449
750 2.29326 -3.9716 -6.16046 -0.104607 0.546886 1.37376
801 3.06876 -3.03878 -6.08416 -1.25489 -0.984132 -0.297021
472 4.49209 -3.75508 -6.88034 -2.26166 0.38642 0.951366
521 6.08029 -3.17773 -7.57528 1.61198 0.373311 2.54844
470 5.18415 -3.85925 -7.50925 -0.116505 1.54377 -0.421616
476 5.98139 -3.8983 -6.92205 2.06783 -0.34685 1.60764
758 5.28103 -3.94697 -6.05291 -1.69681 -0.172312 2.15063
525 7.61961 -3.26402 -7.61207 -1.23981 -0.109013 -0.559965
475 6.74072 -4.68976 -6.80471 -3.0263 -0.440831 0.0937368
474 6.92152 -3.90503 -7.61811 -1.32459 1.12352 -4.6462
480 7.57886 -4.02253 -6.97038 -1.49264 -4.61752 1.41813
765 7.78286 -4.53834 -6.12358 -1.60448 -2.08395 0.563151
479 8.52917 -4.48113 -6.84706 1.01213 -2.86739 -2.03074
436 -9.13243 -3.73911 -7.17068 -3.38603 -1.18221 -1.40004
527 8.49733 -3.13344 -6.94598 -1.63273 3.10334 1.8112
529 -9.20221 -1.54213 -7.63503 -0.244556 0.320087 -0.892119
770 -8.34944 -2.17156 -6.19197 0.371599 -0.436307 -0.775737
488 -7.66867 -2.34765 -6.94925 -0.0188458 1.83567 0.600588
535 -6.96452 -1.57202 -7.11908 -1.82461 -0.60702 0.298132
774 -6.8801 -2.15396 -6.24703 -1.10927 -2.52775 -1.82882
491 -5.59879 -3.04237 -6.6995 -1.71724 0.429032 2.6101
251 -5.36665 -2.04997 -7.66692 -1.35191 0.389192 1.05876
492 -6.1578 -1.91879 -6.89129 1.88154 -2.04194 0.840807
777 -6.16228 -3.19632 -5.84685 -2.21893 -0.369775 -0.373717
778 -5.31961 -2.19699 -6.18019 0.269234 -1.60602 1.19669
825 -5.9231 -1.34727 -6.01574 -1.47553 0.835122 0.197325
495 -3.76986 -2.9155 -6.7976 -2.60216 1.85004 0.454718
496 -4.60495 -2.18397 -6.89017 1.76433 1.01986 3.92379
543 -3.75842 -1.69122 -6.91366 -1.70876 -0.408211 -0.0173872
829 -4.6587 -1.41518 -6.06089 -0.266244 0.713759 -0.714744
782 -3.93123 -1.91261 -5.87919 0.215897 1.53689 -0.968381
497 -3.0439 -2.96177 -7.72706 0.604552 -1.10409 -0.636962
498 -2.19864 -2.33593 -7.59809 0.379513 -0.857307 -2.13997
500 -2.96207 -2.31834 -6.92964 1.60123 -0.663443 3.09091
785 -3.1382 -3.12164 -6.18469 -1.50583 0.127441 0.727177
786 -2.3709 -2.33329 -6.08943 0.547629 0.314152 -1.30107
502 -0.881907 -2.12284 -7.5508 0.0969212 1.56542 -1.90171
504 -1.53336 -2.32901 -6.91733 -1.82953 -1.67485 -0.884111
503 -0.793786 -3.11341 -6.96122 2.78671 1.32799 -0.914852
837 -1.71416 -1.53698 -6.11337 0.483669 2.64403 0.56418
551 -0.944763 -1.33688 -6.82435 -0.738035 -2.98959 -2.27717
794 0.53476 -3.24429 -6.96615 -0.037513 0.380308 -0.385479
508 -0.0596242 -2.34782 -6.92155 -0.878091 -1.29344 0.100253
506 0.713362 -2.31893 -7.49313 -0.946416 -2.8692 0.806193