ITEM: TIMESTEP
68000
ITEM: NUMBER OF ATOMS
6912
ITEM: BOX BOUNDS pp pp pp
-9.2265715179435492e+00 9.2265715179435492e+00
-9.2265715179435492e+00 9.2265715179435492e+00
-9.2265715179435492e+00 9.2265715179435492e+00
ITEM: ATOMS id x y z vx vy vz
290 -8.39467 -8.53693 -7.57479 2.69122 -0.271958 -2.99375
341 -7.83495 -7.60562 -7.64316 0.509208 2.41526 2.38099
8 -8.01027 -8.32947 -8.41404 -0.345372 1.01288 0.542995
294 -6.9851 -8.59918 -7.47084 -1.31546 0.512096 -0.586204
1762 3.92449 -8.38115 -0.0413907 3.9312 -0.103379 1.28206
12 -6.42788 -8.47513 -8.43547 0.374316 -0.65602 0.516732
59 -5.51322 -7.53056 -8.61075 -1.47588 -1.34078 -0.0130963
298 -5.51293 -8.40562 -7.88945 -1.12212 1.7859 3.12567
317 1.66105 -9.20855 -7.80846 -0.72771 -0.664528 -0.533811
16 -4.64936 -8.33097 -8.28828 -0.305049 0.042219 -1.78754
302 -3.79003 -8.60277 -7.68905 0.953067 0.851762 0.779251
621 7.7936 -9.14643 -6.0034 0.344532 -0.0982682 -0.683915
10 -5.58052 -8.41284 -9.05066 -0.613086 0.285872 -0.245356
47 8.41878 -9.0862 -8.25692 -2.80916 1.83629 0.340262
20 -2.95063 -8.58024 -8.4263 2.14595 1.43978 -0.786607
306 -2.30578 -8.461 -7.55098 1.32691 -0.168701 -0.115032
157 -4.61073 -4.81249 -9.20127 0.6943 1.0751 0.162631
353 -3.07973 -7.68533 -7.59302 -0.413121 3.28024 1.02452
3459 -8.31229 -0.0176467 -8.49676 -0.794455 0.970715 3.31921
24 -1.58231 -8.3169 -8.4732 -1.08949 -2.98665 1.14604
67 -2.29599 -7.54348 -8.43448 0.947414 0.470691 -0.359034
1684 -9.16179 -0.617077 -0.777389 0.643854 -0.129393 0.971047
3465 -6.19296 -0.157938 -9.11392 0.500736 3.44929 -1.20047
3487 2.24333 -0.0146191 -8.49046 -2.63612 1.04931 -1.12601
28 -0.0620924 -8.27767 -8.54081 1.80726 -0.977926 -2.73549
1153 9.19005 -9.19252 -3.14469 2.23463 0.192809 -1.44379
238 8.53994 -2.34959 -9.17645 2.39207 1.45686 1.12363
309 -1.47934 -9.18496 -7.70007 -1.11655 0.359852 1.00922
32 1.59982 -8.38335 -8.49324 -0.0343133 0.474132 0.205658
273 3.03361 -1.50279 -9.13059 1.76784 0.353224 -3.28256
314 0.727154 -8.34354 -7.64197 0.767425 1.07958 0.388886
365 1.42606 -7.61009 -7.71719 -1.98054 0.316802 0.148296
4051 -2.2333 -0.0498943 -5.48713 -0.727978 -3.56122 -0.0315186
36 3.05676 -8.36145 -8.67058 0.572829 0.363594 2.41192
318 2.31553 -8.41877 -7.79313 -0.173661 2.55451 -0.629509
40 4.75328 -8.38553 -8.52722 0.161124 -0.811615 -3.21491
83 3.99507 -7.56518 -8.53581 1.7001 0.850219 -1.94518
1898 0.647534 -3.9415 -0.288256 -0.605417 -0.831043 -0.151649
322 3.82743 -8.37591 -7.85667 0.134092 -0.0757763 -0.477109
3755 -5.40594 -0.0959836 -6.98627 -0.0400954 -1.53628 -0.244988
44 6.43519 -8.32378 -8.54171 -2.4865 0.54217 -1.00954
87 5.6067 -7.5916 -8.52179 0.7333 1.52277 0.556356
4921 0.0385544 -0.0206823 -1.5309 2.23227 -0.36512 3.56076
48 7.64617 -8.40415 -8.51976 -0.0452726 -0.16811 0.66331
91 6.78831 -7.39973 -8.39234 0.492809 0.149912 1.90963
313 -0.0894979 -9.07065 -7.76823 -1.60149 -0.670977 -0.0443285
4 -9.12497 -8.45344 -8.49922 1.86142 -1.042 0.793624
334 8.38421 -8.40581 -7.64487 0.0117601 1.33498 1.50187
95 8.38044 -7.74609 -8.31056 1.76913 -2.78308 1.42982
65 -3.08265 -7.62739 -9.14336 1.48854 -0.338439 1.89551
337 -9.16076 -7.56231 -7.68239 0.864065 -1.04114 -2.40643
51 -8.53858 -7.52093 -8.54733 1.01669 0.426877 1.84535
99 -8.40502 -6.07073 -8.39513 3.46353 -1.48248 -1.54077
55 -6.95283 -7.63956 -8.50476 1.15182 0.641021 -3.16577
56 -7.8324 -6.86984 -8.37742 -2.48015 1.54767 0.800796
342 -7.17102 -6.9102 -7.49143 -0.116549 -0.0880761 -0.147021
60 -6.33395 -6.96077 -8.28651 -1.15969 0.556872 0.538398
346 -5.52817 -7.03781 -7.65566 -0.981107 1.13327 -2.21415
107 -5.66136 -6.13106 -8.31675 -1.57854 2.97562 0.572053
63 -3.72708 -7.75114 -8.39908 -1.21515 -0.592359 -0.317394
64 -4.70407 -6.8082 -8.59193 1.25608 0.29316 1.54424
206 -3.82569 -2.32316 -9.17333 1.08926 1.53352 -1.64656
3467 -5.5016 -0.0745873 -8.46849 0.981568 -0.945188 -0.293452
68 -3.22213 -6.86324 -8.39938 1.45509 2.53932 -1.12366
354 -2.4953 -6.95662 -7.70063 -0.455333 -0.907513 -1.18578
93 7.90597 -7.69388 -9.20342 -2.92273 1.8933 -0.930654
4359 5.32586 -0.0535671 -4.00119 1.59361 0.0209095 0.760388
1782 -7.10607 -6.86964 -0.0571466 0.73274 1.0077 2.07619
82 3.91569 -6.81069 -9.20424 -2.06682 -0.0656015 2.35405
72 -1.61988 -6.90188 -8.44542 -0.810325 0.401695 -1.46969
405 -1.69166 -6.24441 -7.69542 -1.59754 -0.983354 1.37519
71 -0.876239 -7.69357 -8.40653 0.0503524 1.69644 0.0342354
358 -0.86685 -7.02341 -7.59857 -1.47538 1.13241 -0.151023
76 -0.0575828 -7.08073 -8.29287 1.62605 1.11423 -0.573337
119 -0.763384 -6.28979 -8.32947 -1.09326 -0.65646 -0.962158
361 -0.0573571 -7.70095 -7.59491 1.08516 0.345182 -1.50749
3475 -2.31764 -0.0606124 -8.34394 0.0221136 0.620566 -0.6154
75 0.846727 -7.82857 -8.49918 3.2411 2.04001 -1.47306
80 1.50474 -6.79676 -8.57661 -1.32715 -2.35341 -0.406459
362 0.713468 -6.97645 -7.76646 -0.029258 -1.73374 1.55032
169 -0.0537766 -4.67957 -9.08053 -0.368886 -0.0809721 -0.502195
369 3.09903 -7.69031 -7.61263 0.882454 0.191668 1.80844
79 2.35621 -7.55126 -8.52361 -1.19222 2.12104 1.1945
84 3.21061 -6.95971 -8.41724 -1.34868 1.92593 0.197898
366 2.35713 -6.87586 -7.72249 -2.63083 -0.563766 0.489206
88 4.7825 -6.88752 -8.5682 1.06224 0.32943 0.293794
4917 -1.58197 -0.0428237 -1.70508 -1.38629 0.954363 -0.153122
370 4.05431 -6.98195 -7.71299 -3.06144 0.344878 0.458405
62 -3.89613 -6.77396 -9.15419 -0.610516 0.026035 1.01062
3457 -9.19025 -0.0265332 -9.06431 -2.18321 1.11924 -1.54342
92 6.12081 -6.68397 -8.51377 0.267446 4.59641 1.56018
374 5.32585 -7.03929 -7.69424 -0.500288 1.71704 0.741865
135 5.39613 -6.14511 -8.2639 -1.10917 -3.04518 -2.51306
425 6.12964 -6.12434 -7.67802 0.721163 -1.02272 0.0169613
96 7.75957 -6.95632 -8.50213 -0.211067 -1.12112 2.31958
378 7.00403 -6.78955 -7.73512 1.69542 -0.504422 -0.125642
4039 -6.95583 -0.108836 -5.31014 1.48749 -0.558768 -0.129965
52 9.15027 -7.01751 -8.51241 -1.60663 1.44041 -0.25796
4913 -2.98283 -0.0411151 -1.61406 1.49551 1.49933 1.19602
100 -9.19078 -5.41972 -8.55001 2.85501 -0.415242 -0.270376
147 -8.40347 -4.38531 -8.57117 0.638538 -0.271799 -0.814086
385 -9.14322 -6.20887 -7.78058 -1.67064 -0.674711 1.39489
103 -7.06067 -6.11707 -8.28165 -1.80939 -1.52095 -0.113004
104 -7.98397 -5.22946 -8.53691 1.02069 0.0880781 1.68735
390 -6.98527 -5.42282 -7.59712 0.943729 -0.428766 -0.84303
209 -3.12818 -3.06142 -9.10962 2.32542 0.221288 1.59758
108 -6.25975 -5.34779 -8.31753 -0.171051 0.986185 0.893614
394 -5.48829 -5.36056 -7.56941 0.490607 -0.33991 0.300258
111 -3.93212 -6.12914 -8.43782 0.249033 -0.564461 -0.944842
112 -4.78463 -5.52173 -8.41401 -0.0151478 -1.56944 1.05341
398 -4.02301 -5.62554 -7.63386 2.00828 0.146495 -1.64173
1974 -6.93047 -0.814538 -0.0364449 -0.311118 -1.35113 0.40445
115 -2.30165 -6.14337 -8.47558 0.199196 0.747336 0.406149
116 -3.19708 -5.52475 -8.3861 -1.39642 1.55798 -1.66354
163 -2.25076 -4.6881 -8.44237 0.648499 1.51425 -2.95209
323 3.93046 -8.98569 -6.94166 -0.0378143 -0.510606 -2.5282
587 -5.48935 -9.11931 -5.34193 0.0102712 0.512938 0.308425
120 -1.45719 -5.40237 -8.48603 -1.16327 0.854293 1.60904
124 -0.0314513 -5.48905 -8.54109 -0.373606 3.53214 0.495925
123 0.607817 -6.11963 -8.352 -0.455197 0.724232 2.68562
128 1.7425 -5.15484 -8.23118 2.8816 -1.00326 0.118875
171 0.736607 -4.51642 -8.45307 2.20374 0.723604 -2.0921
222 2.26723 -2.24784 -9.01325 0.566171 -2.34338 -2.15703
127 2.37323 -6.17633 -8.51106 -1.02875 -1.86147 1.79979
132 3.10149 -5.4757 -8.40459 -0.811663 0.906926 1.69315
4653 7.73468 -0.0732888 -3.07913 1.32284 -1.04836 0.47504
4609 9.1783 -0.0226885 -3.19584 -0.208115 -1.53434 -0.115203
3463 -6.98171 -0.0571677 -8.44585 1.43247 -1.12524 1.7024
131 3.87191 -6.18861 -8.34324 -1.36867 3.33315 -0.0205352
136 4.68822 -5.41431 -8.495 -0.883164 0.83074 -0.22391
179 3.87222 -4.85016 -8.54071 -2.02728 3.22791 0.557021
885 -1.69384 -9.12166 -4.60283 -2.58697 -0.164104 -0.185283
140 6.16663 -5.3422 -8.51513 -1.75105 0.931544 -1.1851
4339 -2.33713 -0.0245638 -3.93805 -0.318435 1.37034 -0.581691
139 7.00766 -6.07543 -8.44237 -0.50646 -2.51704 1.06918
144 7.88512 -5.2544 -8.39463 0.296648 2.85166 0.909797
187 6.93505 -4.64349 -8.62194 -0.867605 2.01079 -1.8264
429 7.82696 -6.04842 -7.81744 -0.201324 -2.19515 0.651485
426 6.85922 -5.42877 -7.69059 1.8588 0.262271 -0.85821
143 8.48793 -6.22074 -8.59876 0.589204 -0.368106 -1.50012
430 8.6075 -5.35302 -7.66721 0.391615 0.164765 1.52396
152 -7.56791 -3.88929 -8.46696 2.20972 -1.88606 0.293526
148 -9.10296 -3.79476 -8.36627 -2.62452 -0.59189 -0.0375902
195 -8.28066 -3.21231 -8.44408 -2.78814 0.569383 -1.37381
433 -9.09979 -4.48749 -7.72501 0.0493458 2.51585 -1.98753
151 -7.10449 -4.74033 -8.42793 1.68006 0.729139 -0.377629
485 -7.60899 -3.23642 -7.56783 0.584522 0.0406455 -0.668698
437 -7.7674 -4.60647 -7.56899 2.28742 -1.64862 -0.065565
441 -6.06514 -4.53136 -7.6038 -0.0301521 0.0274286 0.436825
155 -5.61317 -4.49886 -8.57017 -2.24529 0.0826824 -1.46891
156 -6.22421 -3.7733 -8.36303 -2.61356 -1.39128 -0.203795
3781 4.64488 -0.184905 -7.72492 0.289092 0.893991 -0.0597774
4647 5.44651 -0.131911 -2.41586 -2.86949 0.448149 2.37487
442 -5.24138 -3.9086 -7.84471 0.424196 0.723547 0.145311
159 -4.09613 -4.79022 -8.33593 0.435795 0.231277 4.26765
282 7.02004 -0.873842 -9.14808 -1.97528 2.69907 2.75553
160 -4.64639 -4.04014 -8.68127 -0.839283 1.67985 -1.18621
207 -3.9393 -3.14978 -8.38813 1.80941 -0.00920719 1.23694
164 -3.04923 -4.11466 -8.34544 2.37937 -0.335437 0.0350791
211 -2.48533 -3.04153 -8.39971 -1.58524 0.518309 2.24592
901 4.68234 -9.22087 -4.59036 1.93493 1.62193 0.216568
1986 -2.15337 -0.838176 -0.0545331 0.599137 2.11593 -0.465418
167 -0.912198 -4.43222 -8.64583 2.13126 2.23414 1.33781
168 -1.75252 -3.78015 -8.57225 -0.0829147 -1.02777 0.933452
881 -3.19587 -9.22937 -4.54498 -0.0803543 -2.18551 3.12035
4633 -0.0435014 -0.103162 -3.12647 0.763473 1.36532 0.0276129
1985 -2.93969 -1.51859 -0.0896764 -0.619765 2.09013 -2.90806
172 -0.122553 -3.82904 -8.32386 0.100047 2.01873 -1.75889
219 0.875534 -3.11612 -8.42804 3.97486 -0.310503 -2.6898
215 -0.922355 -2.80108 -8.48495 -2.05166 0.750307 -0.124917
4931 3.7617 -0.0885853 -0.760123 -0.463725 0.184782 1.19791
457 -0.0726737 -4.56912 -7.70447 -0.294491 -0.320089 0.452254
176 1.62869 -4.16297 -8.55011 -1.48336 0.505308 1.18731
458 0.70555 -3.76076 -7.72627 1.88434 2.52339 1.03983
509 1.6089 -3.11324 -7.59469 -0.450736 2.90022 -0.769193
1738 -5.26803 -8.42293 -0.0780241 1.3365 -1.17549 -1.64474
1945 0.0869526 -3.17596 -0.0844677 -0.411011 0.803398 2.22314
175 2.51005 -4.59841 -8.60884 2.0338 -0.0747764 -1.9422
465 3.19163 -4.62329 -7.78257 -0.262099 2.12499 1.31502
180 3.03236 -3.81786 -8.4155 -1.3636 -0.247973 0.907626
223 2.11989 -3.01444 -8.45609 1.20893 -0.899015 2.45814
319 2.48904 -9.20802 -7.05155 1.53446 3.28621 0.0241818
73 0.0771244 -7.45297 -9.14025 -1.37022 0.700638 1.04447
469 4.55611 -4.65944 -7.84626 0.0625155 -3.18238 -0.586089
184 4.67516 -3.99514 -8.61878 0.660005 -0.330376 0.380543
266 0.793195 -0.848887 -9.17396 -2.70821 -2.10557 -0.250464
229 4.59878 -3.16621 -9.18123 1.7465 0.0764326 1.56103
183 5.3974 -4.65312 -8.49809 -1.53859 -0.322965 -1.057
188 6.18225 -3.95326 -8.54197 0.133238 0.901034 0.209754
470 5.744 -3.86487 -7.61126 -0.244317 0.227826 -1.30367
78 2.3297 -6.87924 -9.22318 -2.85179 0.852736 -2.13166
205 -4.59862 -2.92731 -9.11284 2.48087 0.609022 -0.823319
192 7.66936 -3.95146 -8.28781 -0.154388 0.332691 -0.0530531
477 7.59608 -4.77312 -7.53682 -2.30026 0.12451 -1.67037
3759 -3.93831 -0.0582764 -6.93766 -1.09318 1.1339 -1.07185
191 8.62265 -4.43365 -8.41473 3.72739 -0.362436 0.0034908
239 8.42023 -3.22012 -8.52176 1.18207 0.50738 -1.32878
4033 -9.22662 -0.0681981 -6.30933 -1.13346 -0.273935 -3.28919
196 -9.12281 -2.47364 -8.55824 -0.545705 -0.548643 1.91595
243 -8.43159 -1.63282 -8.59934 -0.909305 -0.586455 -2.33691
482 -8.39737 -2.38231 -7.69393 -1.65746 -0.997404 -1.89822
529 -9.19491 -1.71071 -7.60604 3.31357 -0.755481 3.18771
199 -6.9266 -3.00766 -8.49242 -1.47283 0.567174 -0.0291743
200 -7.73187 -2.3447 -8.55511 -2.13218 1.33245 1.2688
486 -6.95327 -2.33281 -7.65568 -1.77699 -1.12799 -1.93614
203 -5.42197 -3.0929 -8.35087 -0.0953771 0.873038 1.12889
489 -6.25376 -2.99298 -7.71776 1.10761 1.11296 -1.10604
204 -6.16463 -2.18753 -8.46408 -0.282665 0.926444 -1.7691
251 -5.28769 -1.43775 -8.47945 1.06036 1.163 -2.67954
4075 6.86519 -0.0174942 -5.37646 -2.42163 -0.0244425 0.782415
208 -4.52379 -2.23283 -8.373 0.612874 1.65127 0.437296
255 -3.76805 -1.44038 -8.44167 0.441803 -1.12899 1.35735
327 5.33218 -9.16858 -6.88655 0.0392145 -1.74169 -2.46431
889 -0.0965251 -9.15226 -4.56894 -1.21263 3.68659 -0.262443
212 -3.10499 -2.13302 -8.49904 0.401089 2.39209 -1.8741
498 -2.44609 -2.26682 -7.70399 -0.134942 0.115377 -2.57531
259 -2.29656 -1.19651 -8.42428 0.526596 -3.77829 1.04631
4323 -8.53584 -0.100702 -3.89615 0.242285 1.65419 3.2551
216 -1.70771 -2.28173 -8.50615 -1.25803 0.173691 1.87176
263 -0.869841 -1.65848 -8.25119 -0.66279 -3.0393 -2.39899
1455 -4.03157 -9.17452 -0.734811 0.0841564 0.434462 -0.35666
220 0.135308 -2.34343 -8.64707 0.261197 0.359611 -0.311551
267 0.690609 -1.62739 -8.28715 -0.375872 0.862111 -0.873505
502 -0.874315 -2.17534 -7.46787 0.996188 -1.93699 -2.58552
224 1.54258 -2.16827 -8.34226 0.563714 -1.16244 -1.01553
557 1.60178 -1.43009 -7.64766 1.92975 -0.889292 0.0469901
228 2.99599 -2.56437 -8.28849 0.625676 0.52465 -1.72814
510 2.3889 -2.38824 -7.49737 0.113341 3.79836 -0.144624
895 2.21417 -9.11297 -3.71306 -1.06002 1.44896 -0.938572
227 3.79899 -3.06141 -8.53437 2.48436 1.06775 0.417621
232 4.78392 -2.31246 -8.61752 1.24248 -0.0738795 -0.441407
275 3.63687 -1.70415 -8.3226 0.191711 1.46726 3.25902
514 3.81061 -2.43058 -7.64316 -2.1518 0.674115 -1.73497
3485 1.37235 -0.077174 -8.95438 -0.888612 1.40792 -1.77291
1845 -1.55125 -6.11738 -0.025842 0.843015 -3.01348 0.562243
231 5.4025 -3.19975 -8.56399 -1.35391 -3.33861 1.23324
236 6.14229 -2.3571 -8.56289 -1.69963 0.70202 -0.723872
518 5.29912 -2.18487 -7.77234 -0.917194 -0.370354 1.84658
521 6.12351 -2.91458 -7.72661 2.73466 1.05454 2.49601
235 6.92043 -3.07562 -8.45996 0.298438 -0.75072 -0.405286
240 7.79432 -2.38975 -8.44934 1.37241 -0.132236 3.08463
911 8.43519 -9.15547 -3.81536 1.17475 -0.059052 1.45859
287 8.71302 -1.59563 -8.48795 2.14138 -1.81485 -2.51041
526 8.55424 -2.37052 -7.83335 -0.394887 -0.243848 -0.130418
530 -8.50217 -0.825443 -7.65548 -2.19135 0.687234 1.19424
9 -6.24275 -9.12833 -9.12325 1.33854 0.526297 1.1738
4637 1.51772 -0.0901939 -3.18443 -1.13164 -0.706671 -1.87524
1766 5.55451 -8.53896 -0.221079 1.06162 2.24833 -0.577533
247 -6.92372 -1.56261 -8.41279 1.86516 2.24167 1.87792
533 -7.67716 -1.58574 -7.77566 -1.52393 0.319987 1.87729
248 -7.72441 -0.752215 -8.43941 2.14525 0.767824 -0.392267
3495 5.45818 -0.0310527 -8.66047 2.30675 1.67053 -0.224924
252 -6.08998 -0.933198 -8.53613 0.282347 0.543951 -0.270673
538 -5.38674 -0.776613 -7.68678 -0.196161 0.532356 0.180819
537 -6.22298 -1.40006 -7.73092 -0.466592 0.983726 -0.88625
246 -6.99674 -0.739461 -9.18112 0.707738 0.770153 -0.91597
1930 -5.29372 -2.33853 -0.122687 0.491691 -0.285473 1.83688
256 -4.45932 -0.69329 -8.56293 0.322408 -1.78478 2.18531
5213 1.53173 -0.0428555 -0.131321 0.568767 -0.296382 -0.37593
4905 -5.97957 -0.0442811 -1.47782 -1.7288 -0.539367 -0.632592
260 -3.07472 -0.665712 -8.41009 -0.34234 0.427853 -0.638126
1185 3.13237 -9.09067 -3.07557 -1.72002 -3.64738 -0.540473
4629 -1.5659 -0.0339146 -3.09867 1.32488 0.565429 -1.21804
264 -1.40798 -0.762966 -8.36506 2.83291 -0.255188 0.0448895
549 -1.62029 -1.4464 -7.54608 0.394416 0.91094 0.341691
3747 -8.50894 -0.10285 -6.94024 -0.79985 -1.4159 0.224745
1822 8.55613 -6.88545 -0.0017794 -3.03423 -1.51935 -0.0127021
268 0.0577963 -0.872513 -8.32971 0.527543 0.295151 -0.196543
891 0.660089 -8.98742 -3.90725 1.22931 2.57143 1.61263
550 -0.762249 -0.828316 -7.63374 -1.89915 -2.41332 -0.217047
1717 4.52269 -1.50632 -1.5223 -1.39263 0.716373 -0.872365
272 1.47889 -0.845456 -8.38833 -0.713205 0.0691718 0.261209
558 2.40208 -0.767248 -7.71867 0.36871 -0.301224 -0.647473
315 0.818204 -9.01872 -6.86942 -2.91222 0.761686 0.839793
178 3.76466 -3.90372 -9.11978 4.5855 0.91691 0.967751
271 2.31131 -1.56093 -8.39477 -0.808965 1.45472 0.129428
53 -7.69898 -7.43778 -9.17742 0.332589 0.830735 0.540243
276 3.28945 -0.722797 -8.31919 -1.17936 2.6384 0.970249
225 2.99415 -3.09753 -9.13557 0.543206 1.38183 -0.142593
280 4.49376 -0.987909 -8.40716 -0.783356 0.586482 0.547919
565 4.46607 -1.65032 -7.67297 1.3357 -1.37828 2.92798
562 3.86873 -0.85651 -7.56874 0.815443 -0.476501 1.43474
1953 2.96246 -3.13096 -0.040525 0.913956 0.998663 1.71733
101 -7.80749 -5.99791 -9.12679 2.39152 -1.83321 1.48898
253 -4.52725 -1.63204 -9.15092 -2.05707 0.383493 -0.445693
279 5.56422 -1.51136 -8.76068 -0.10654 -0.855207 0.497921
569 6.12843 -1.58177 -7.79762 0.790048 0.634655 -0.405187
284 6.14716 -0.688254 -8.60975 -1.11444 1.0678 -0.50564
1753 0.0800911 -9.11381 -0.0688868 -0.813057 -1.47107 0.409295
283 6.71311 -1.60009 -8.53798 -2.54739 3.09971 0.321595
307 -2.37794 -9.04536 -6.72351 0.487879 0.172766 0.121709
288 7.78235 -0.981869 -8.43915 1.89182 0.773917 -0.101238
570 6.97131 -0.868499 -7.98275 -0.314734 -0.360557 -0.192061
573 7.77149 -1.56903 -7.62402 0.566402 2.98375 1.64
4043 -5.42902 -0.0349533 -5.44767 1.68312 -1.99867 -0.155128
3503 8.38602 -0.218913 -8.4477 -0.947888 -0.108677 0.313471
244 -9.19912 -0.732823 -8.42254 -1.31714 -1.26059 1.47787
574 8.50543 -0.843667 -7.63029 -2.29444 2.14309 4.2268
578 -8.56989 -8.57669 -6.04894 0.748145 -0.462062 -2.09133
339 -8.46975 -7.65685 -6.63296 1.54283 -2.29346 0.713757
629 -7.67665 -7.72915 -6.08603 0.302705 0.979689 1.06285
2006 5.18587 -0.813731 -0.12452 0.472828 -1.89308 -3.00594
296 -7.70925 -8.41019 -6.71252 1.15481 -0.737551 0.357324
582 -6.79174 -8.44656 -6.07967 -0.425204 0.557332 -0.137024
300 -6.10302 -8.45735 -7.00367 1.75408 -2.65007 -0.614075
347 -5.35617 -7.70196 -6.95627 0.0221787 -2.7011 0.210326
633 -6.1487 -7.69083 -6.16185 -0.0249975 -1.38209 -0.00825998
586 -5.38148 -8.42055 -6.24404 0.438012 -2.25515 -0.755553
349 -4.7173 -7.49472 -7.93174 -1.10148 -3.39889 -0.64634
304 -4.57443 -8.43234 -6.95304 -2.01692 -2.31901 -0.582373
590 -3.99241 -8.4901 -6.00482 -0.482036 0.826739 -0.574138
351 -3.97964 -7.70031 -6.82022 0.849177 -1.20614 1.07581
637 -4.69837 -7.67419 -6.16798 -1.33188 -1.15553 -1.87941
308 -3.16575 -8.37667 -6.88417 -2.74243 0.238648 -0.489413
355 -2.30544 -7.72217 -6.82539 -0.674258 1.14373 -1.85236
585 -6.17845 -9.14613 -6.07932 -1.42492 0.514386 -0.34633
310 -0.953217 -8.38524 -7.63768 1.26866 -0.305652 -0.587535
312 -1.58921 -8.39205 -6.86926 -0.153046 0.526556 2.96522
359 -0.906541 -7.72584 -6.89051 0.794034 1.22096 -0.581927
316 0.00875605 -8.44798 -6.91157 0.612425 -2.30733 -0.860007
1169 -3.19933 -9.18826 -2.99011 -0.511463 -1.08815 -2.6942
1842 -2.39394 -5.37436 -0.0488817 -2.94703 1.65941 -0.776416
320 1.67265 -8.52014 -6.97085 -0.716983 2.06997 2.90022
363 0.694517 -7.51075 -6.89883 0.642436 0.937176 0.781764
653 1.5298 -7.69801 -6.13711 0.333322 1.10259 -0.979929
324 3.07192 -8.32372 -6.85201 -0.240001 -1.37644 1.5587
606 2.39235 -8.12212 -6.26466 0.774273 -0.555241 -2.73765
14 -3.79554 -8.40078 -9.14524 -1.4145 1.96783 -2.21035
373 4.6939 -7.72084 -7.75761 -0.187923 3.42173 -1.25484
1894 -0.794497 -4.10227 -0.111832 0.281738 2.66739 0.0434395
328 4.65728 -8.461 -7.09703 -0.136792 1.8926 -1.62271
610 3.88588 -8.33086 -6.18382 0.120858 -2.43632 1.36377
242 -8.59428 -0.82683 -9.22872 -1.40929 -0.678036 -1.03936
326 5.49226 -8.41865 -7.83628 -2.05356 1.13989 -2.60252
332 6.25117 -8.51974 -6.88356 -0.43741 4.28436 -0.528916
665 6.24185 -7.60896 -6.14853 1.20437 1.38918 -1.7311
614 5.50265 -8.34344 -6.18934 -3.11213 -2.48433 -1.50721
1671 5.40522 -2.91484 -0.7493 0.811265 0.0425253 -2.68493
330 6.93553 -8.46542 -7.6121 -1.89502 0.930563 -0.22631
379 6.88706 -7.51489 -6.98096 2.27982 -0.601282 1.99685
1159 -7.11943 -9.20714 -2.2082 -0.0761133 -0.51813 -1.91806
336 7.62761 -8.30483 -6.84872 -1.17608 -3.02723 0.448181
292 9.11605 -8.40359 -6.88961 -1.34298 0.244428 -0.704894
622 8.34697 -8.43193 -6.19725 -1.05843 0.881062 -2.15909
625 9.16086 -7.58185 -6.15124 1.52107 1.36717 1.50078
338 -8.48632 -6.90416 -7.68175 -0.037504 -2.0057 1.2692
387 -8.35813 -6.19156 -6.83063 0.701146 1.40516 0.486921
343 -6.99896 -7.74322 -6.78365 -0.0806849 -3.51619 1.29321
344 -7.75016 -6.99844 -6.76206 -0.644275 2.50774 -1.30131
345 -6.48009 -7.75149 -7.64297 0.531935 -0.0355143 0.387754
348 -6.16661 -6.97778 -6.80565 3.12586 1.80523 -0.108143
634 -5.53951 -6.92383 -6.0891 -1.10252 2.79104 -1.07781
393 -6.29092 -6.31209 -7.51015 1.62402 -0.991753 -0.554018
681 -6.21352 -6.18337 -6.14373 0.761081 -3.13991 -1.10742
350 -3.91293 -6.98626 -7.68908 -0.291717 0.349028 1.46637
352 -4.73023 -6.86309 -6.88091 -1.04229 0.155413 -0.255397
397 -4.76867 -6.29527 -7.61949 0.027494 -0.550425 -1.88411
638 -3.96213 -6.95957 -6.09701 0.20708 1.95207 -1.35146
356 -3.31609 -6.98082 -6.87239 0.347748 -1.12759 2.06507
403 -2.58568 -6.1319 -6.8926 -0.928152 -1.42315 -0.650897
642 -2.54509 -6.83818 -6.10378 -0.750108 -1.73509 -0.297603
689 -3.23939 -6.08348 -6.05223 1.38897 -0.0968059 -3.2656
357 -1.63664 -7.6627 -7.68544 0.354821 -0.491757 -1.28757
360 -1.77213 -6.88063 -6.85381 0.161311 2.63572 -0.232678
645 -1.50944 -7.75891 -5.98255 0.243694 0.0696091 -0.260511
407 -0.925914 -6.33494 -6.95107 0.709906 -0.207442 -1.67111
409 -0.0865564 -6.23132 -7.65112 -0.74393 -1.18188 -0.0881786
646 -0.939235 -7.05024 -6.20542 -0.307106 2.65111 -0.398986
364 -0.148938 -6.85674 -6.86309 -1.84105 -1.1151 -1.41226
368 1.56296 -6.85071 -6.92662 1.15215 2.35156 0.75783
650 0.798575 -6.8618 -6.16594 -2.93976 0.497696 2.18042
367 2.23917 -7.66978 -7.08991 -0.187644 1.79508 0.139833
372 3.06442 -6.85444 -7.0035 -0.877049 0.82341 -0.366165
654 2.10004 -6.77929 -5.99023 1.4321 -2.19716 0.681845
705 2.89159 -6.24389 -6.24258 -0.347763 -0.727526 -0.884423
421 4.58614 -6.13332 -7.55573 0.964037 2.20299 1.64995
371 3.91298 -7.67768 -6.81553 1.56096 -0.0743313 -0.084054
376 4.58138 -7.02933 -6.87801 -1.53183 0.0584506 1.00598
419 3.83286 -6.25043 -6.89501 0.110598 0.17627 -0.983057
658 3.83984 -6.75499 -6.0465 -1.0778 1.80543 1.85889
377 6.20805 -7.68301 -7.67305 -0.899613 -1.96116 0.979034
375 5.46928 -7.54517 -7.00714 -1.25965 -0.220697 -0.928509
380 6.14098 -6.84287 -6.99647 -1.53039 0.843558 1.31857
423 5.35727 -6.32589 -7.03959 1.18225 -2.65113 1.15689
381 7.67447 -7.64356 -7.66841 -3.85687 2.75178 -1.42271
666 6.83689 -6.79093 -6.23462 -2.57932 -0.678579 -0.421948
384 7.72521 -6.91827 -6.95433 -0.947263 2.95985 -0.265736
427 6.94048 -6.07275 -6.96778 1.9292 -0.161891 -0.708957
383 8.54181 -7.52187 -6.96702 0.762452 -2.02116 -0.494093
340 -9.04347 -6.76099 -6.88708 1.30834 2.58056 -0.769974
382 8.40656 -6.91634 -7.78455 0.856853 4.32026 1.27871
386 -8.49391 -5.28896 -7.65029 -1.6642 -2.11037 -1.99979
674 -8.48832 -5.33688 -6.14837 -4.73541 -0.333393 0.651541
388 -9.14592 -5.32081 -6.8396 -3.08276 -1.9443 0.268591
389 -7.79722 -6.08412 -7.64624 2.52986 0.0758916 0.472458
391 -7.10153 -6.10501 -6.82318 2.32059 -0.923802 -0.177656
392 -7.73814 -5.29645 -6.79465 -0.081202 0.516396 -0.500318
395 -5.45112 -6.23443 -6.81186 1.60337 2.39422 -0.46725
396 -6.2776 -5.29502 -6.76723 -0.999274 0.669968 1.60496
399 -3.84008 -6.10796 -6.80239 1.54352 -1.17758 -0.341628
400 -4.64057 -5.5113 -6.73982 1.60267 2.00791 0.664298
447 -3.91327 -4.67575 -6.66421 1.13635 0.762383 1.12771
401 -3.16258 -6.25852 -7.62485 -1.24833 -1.61601 1.83165
404 -3.22512 -5.38392 -6.83201 2.52253 -2.37028 0.406082
690 -2.37954 -5.45179 -6.22535 0.474684 -1.23489 0.326219
737 -3.07071 -4.61908 -6.12539 0.0895186 -3.97289 1.14351
453 -1.55923 -4.6678 -7.79829 0.213869 0.439374 1.11038
402 -2.54663 -5.241 -7.72177 -0.0414898 -0.325914 -0.376661
408 -1.68746 -5.31409 -7.04451 -1.07436 -0.0580474 1.15182
406 -0.739205 -5.41908 -7.78462 0.980984 0.409874 -1.20601
412 0.180146 -5.47304 -6.89018 -0.855384 0.720144 0.334686
697 -0.0143095 -6.23443 -6.15823 1.16504 0.301896 -1.11774
455 -0.800977 -4.64768 -6.9006 2.6669 -2.85747 0.582631
745 -0.0444148 -4.48421 -6.24236 -0.408425 -1.79796 0.0681419
410 0.793065 -5.20087 -7.78694 2.65166 0.994242 0.564438
461 1.54867 -4.43205 -7.64515 0.577117 1.61421 -1.49201
413 1.62566 -6.02447 -7.87045 -1.67342 3.3194 1.94337
411 0.850254 -6.19661 -7.18821 0.0512609 2.5783 -0.313302
416 1.52439 -5.2114 -6.95131 1.58262 0.622563 -0.386108
417 3.05731 -6.15417 -7.67858 3.87644 -0.328476 2.65733
414 2.43226 -5.36711 -7.56327 0.299846 1.6663 1.10901
415 2.24669 -6.10371 -7.03447 -0.595328 0.0631691 -0.779345
420 2.99745 -5.35846 -6.83596 2.13164 0.55823 -1.61077
418 3.81204 -5.42961 -7.53075 -0.494335 -1.93422 -0.961551
424 4.61527 -5.35955 -6.95642 -1.05755 -1.08455 2.55987
709 4.71255 -6.17023 -6.2913 -1.54611 -0.823561 -2.15537
422 5.32479 -5.40138 -7.58879 2.28664 -0.795361 1.57801
428 6.12606 -5.44775 -6.88212 -2.59555 0.661338 0.664104
710 5.45625 -5.4293 -6.19555 0.573715 0.239194 -0.303618
761 5.98277 -4.44321 -6.32074 -0.952017 0.494964 1.0442
717 7.73707 -6.26279 -6.25897 0.662088 1.05168 -0.20675
432 7.88903 -5.53332 -6.88557 -0.755883 -2.08185 -2.2192
714 6.99063 -5.35211 -5.99889 1.06593 -1.36344 -0.60764
475 6.80153 -4.81041 -6.82836 0.629236 -2.44175 3.13394
431 8.5949 -6.3075 -6.90827 -0.98555 -0.650517 1.26151
718 8.67857 -5.50468 -6.17167 -0.749497 1.5039 1.04861
479 8.65749 -4.67583 -6.9371 0.611978 0.322475 -0.131963
434 -8.38897 -3.78055 -7.55741 -1.33496 0.675961 -0.6928
435 -8.47025 -4.57794 -6.89809 -0.764214 1.21168 1.05177
481 -9.14056 -3.09658 -7.62499 1.56373 -0.14154 4.23531
436 -9.18897 -3.85774 -6.9518 -1.45121 1.37856 -0.44711
439 -6.92536 -4.45762 -6.83026 1.19115 -2.46696 -0.511257
438 -6.88891 -3.88298 -7.69158 -1.69954 -0.530311 0.132023
440 -7.7829 -3.76389 -6.79504 -0.447594 1.10875 -1.6746
725 -7.58972 -4.65794 -6.03992 -1.75228 0.268239 -1.97572
443 -5.50366 -4.61995 -6.84614 -1.58384 0.440326 2.15335
444 -6.11141 -3.80249 -6.94646 3.78528 -1.61524 0.575537
729 -6.14138 -4.59787 -6.08112 1.17924 -0.19323 1.23777
730 -5.4509 -3.80152 -6.13819 -0.277422 0.703283 -0.397395
445 -4.50674 -4.85514 -7.44758 -0.531862 0.0073178 0.10192
446 -3.96106 -3.90441 -7.70991 1.19994 1.7563 1.10026
448 -4.71656 -3.83796 -7.08757 0.346235 -1.65136 -0.586384
495 -3.90084 -3.13004 -6.98807 -2.78472 0.837482 1.98595
733 -4.73458 -4.49562 -6.21091 0.65466 1.01945 0.437277
734 -3.86336 -3.74789 -6.26747 -3.00831 -0.271964 -1.16508
449 -3.33015 -4.62737 -7.48609 3.66962 -2.59248 -0.745678
450 -2.32258 -3.72357 -7.70436 0.0675523 1.67681 2.25173
451 -2.34955 -4.44035 -6.98118 1.17608 0.767903 0.268022
452 -3.20297 -3.86608 -6.97171 1.96264 0.42508 -0.111839
738 -2.50161 -3.78801 -6.15199 1.65158 -4.16151 1.19521
785 -3.18535 -3.08883 -6.18744 -2.12961 0.886639 -0.806528
454 -0.896015 -3.82695 -7.59141 0.466793 -0.0273349 0.0348384
456 -1.60123 -3.74597 -6.93033 -2.79162 -2.56938 1.79813
503 -0.851767 -3.0651 -7.03344 2.10825 -0.0393875 4.54526
505 -0.0137044 -3.09969 -7.69141 0.704172 -0.856962 2.5185
460 -0.0336523 -3.77704 -6.93901 0.690479 1.87537 1.33419
742 -0.878814 -3.86483 -6.14963 -1.71211 0.233271 -0.846984
459 0.564724 -4.64243 -6.87834 1.01088 0.284836 -1.65741
464 1.38888 -3.94039 -6.7631 -1.24555 0.491208 0.994784
507 0.745873 -2.9458 -6.709 0.416606 1.32234 0.994023
797 1.48675 -3.13221 -5.8735 2.36435 -2.24782 1.61737
462 2.32392 -3.81783 -7.80413 1.87989 -3.16706 0.196705
513 2.99367 -3.23793 -7.51635 -0.0126524 0.715195 -1.24271
463 2.35002 -4.64395 -6.75958 2.89612 -0.419155 1.08323
468 2.96509 -3.91702 -6.79921 -0.115757 0.677335 -0.0410305
511 2.20707 -3.04173 -6.79987 1.46593 -0.947904 -1.39947
466 3.83833 -3.68928 -7.56147 -1.17226 -0.791177 0.736869
467 3.8425 -4.65515 -6.90679 0.880301 -1.17252 -1.32855
472 4.64526 -3.77537 -7.11918 -0.934199 -1.40413 -2.54503
754 3.707 -3.76574 -6.17969 2.10667 1.25205 0.369737
473 6.31043 -4.66802 -7.70349 0.394471 0.203187 -0.21329
471 5.21752 -4.55968 -6.96019 1.53882 -0.45752 0.952251
476 6.23837 -3.62004 -6.77396 0.271537 -0.443731 -1.40185
474 6.94057 -3.65368 -7.71171 1.54797 -0.89565 4.40755
480 7.6371 -3.90468 -7.02419 -1.62474 0.0530953 -2.18264
765 7.7789 -4.65513 -6.42168 -0.210496 -2.82499 -0.4226
762 6.7726 -3.91316 -6.06797 -0.661674 2.08781 -0.279285
813 7.48185 -3.26446 -6.18699 0.437227 0.957769 -0.0136432
478 8.58503 -3.87127 -7.64165 -1.01385 -2.23598 2.7552
766 8.3857 -3.87951 -6.24404 1.39123 -1.60513 -0.743149
483 -8.54724 -3.04149 -6.83625 2.00952 -2.43972 -0.202051
531 -8.53129 -1.60757 -6.86645 1.76798 -2.03334 3.49954
770 -8.46681 -2.3515 -6.00396 0.155972 -0.896535 0.551171
487 -6.82919 -3.09895 -6.92879 2.73012 1.12593 -3.17956
488 -7.72752 -2.51504 -6.91537 -2.85868 1.41293 0.828927
535 -6.91044 -1.543 -6.73316 -2.51356 2.22009 1.56283
774 -7.0314 -2.3774 -6.22935 0.126743 -1.6495 0.288409
490 -5.50323 -2.17889 -7.70511 0.427654 -0.630047 1.52866
491 -5.39526 -3.10284 -6.82997 0.200617 -1.76226 -1.1641
492 -6.18846 -2.20024 -6.93823 -1.50221 0.00134307 1.92464
825 -6.07697 -1.4728 -6.12887 0.895218 0.732554 -0.165551
494 -3.79641 -2.25303 -7.60146 1.06713 -2.877 -0.885126
493 -4.67601 -3.04683 -7.63295 1.44264 -0.952826 -3.02397
496 -4.66401 -2.24605 -7.00716 1.6374 -1.92742 -1.5479
829 -4.71836 -1.44283 -6.27261 0.496876 -0.303747 -0.0552561
782 -3.93985 -2.37812 -6.2934 0.536692 1.9855 0.0249036
497 -3.24777 -3.15762 -7.69434 0.550407 0.584602 0.228567
499 -2.42255 -3.04065 -7.02466 0.688706 0.576732 -1.21458
500 -3.1351 -2.15731 -6.84698 1.22091 0.755009 0.755694
786 -2.43245 -2.36495 -6.21805 0.816871 -1.83484 -0.170597
545 -3.12012 -1.55857 -7.66165 -0.149186 1.62033 1.0622
833 -3.20287 -1.61082 -6.06917 -0.966387 0.34856 -0.91656
789 -1.52127 -3.0369 -6.16045 -0.750872 2.52153 -0.230072
501 -1.6667 -2.93137 -7.7406 -2.30043 -3.0962 0.611172
504 -1.73513 -2.3549 -6.95047 -2.0814 1.33262 -2.16987
553 -0.0947734 -1.61566 -7.50617 -0.5369 -0.0293237 -0.773041
793 -0.0363247 -2.95799 -6.16881 -1.77542 -1.2804 -1.08842