ITEM: TIMESTEP
138000
ITEM: NUMBER OF ATOMS
6912
ITEM: BOX BOUNDS pp pp pp
-9.2265715179435492e+00 9.2265715179435492e+00
-9.2265715179435492e+00 9.2265715179435492e+00
-9.2265715179435492e+00 9.2265715179435492e+00
ITEM: ATOMS id x y z vx vy vz
8 -7.74155 -8.46213 -8.41183 -1.72526 -0.585722 0.194939
341 -7.7767 -7.67755 -7.45883 3.0892 2.50214 -0.0558387
4 -9.21676 -8.31814 -8.42966 -0.674136 -1.30256 0.94763
290 -8.52752 -8.39807 -7.48718 -0.273262 -0.635899 0.477117
10 -5.47572 -8.56869 -9.21597 1.01474 -3.70883 -0.589013
55 -6.84473 -7.83377 -8.47133 0.00456511 -1.19318 0.438696
12 -6.08565 -8.58321 -8.46456 -1.2613 1.32795 0.0503083
345 -5.83592 -7.71804 -8.04927 1.48595 0.61338 -0.949017
59 -5.09479 -7.73639 -8.59077 -4.33885 1.15021 2.15016
189 7.6536 -4.63005 -9.15075 2.1802 1.78106 -0.98242
298 -5.293 -8.57552 -7.64098 -0.323028 1.22391 -0.345161
16 -4.71463 -8.57139 -8.46013 0.729264 1.43212 0.668254
63 -3.88059 -7.70218 -8.41507 3.0246 -1.05325 -1.21136
302 -3.88487 -8.61765 -7.84892 1.68001 2.53616 -3.22254
349 -4.53307 -7.74683 -7.72189 1.66267 -1.01324 -2.62294
4897 -9.13646 -0.703223 -0.816968 -1.22579 -0.400734 0.0842248
20 -2.98108 -8.50383 -8.53346 0.973792 2.4758 2.01467
214 -0.713693 -1.99694 -9.18833 0.317501 -1.42117 1.93673
3473 -3.17074 -0.0934759 -9.20238 -2.30128 -0.0839944 -0.822861
24 -1.65801 -8.53008 -8.50696 0.9472 -1.24579 -0.587181
1171 -2.4774 -9.09671 -2.45467 -0.330244 -1.72022 -0.806598
310 -0.838018 -8.36167 -7.52327 1.59381 1.35463 0.211077
50 -8.42185 -6.86969 -9.13966 -0.526042 3.87348 -3.15714
30 2.37655 -8.53258 -8.99801 -1.23605 -0.578248 -1.18258
75 0.631135 -7.83297 -8.56795 0.116502 2.54591 -1.06362
71 -0.798733 -7.58181 -8.4625 -1.23264 -2.02624 1.09401
26 -0.0862763 -8.54453 -8.23626 1.46167 -1.29679 -2.33824
1942 -0.482289 -2.28724 -0.116854 0.445851 0.316761 1.93555
45 7.84171 -9.15675 -9.09804 1.32665 -2.66337 -2.38319
367 1.44068 -8.40982 -8.36282 1.6517 -2.05851 -1.41552
4363 6.69773 -0.114544 -3.8208 2.85494 -1.85298 2.7641
36 3.05038 -8.45348 -8.29605 0.969205 1.84909 -1.62327
369 3.08806 -7.71376 -7.5455 -0.98455 -0.136336 -1.42175
1833 -6.23003 -6.01702 -0.102158 -0.301612 2.22383 -2.61789
40 4.64722 -8.50511 -8.51386 0.194037 1.92635 1.75396
25 -0.154509 -9.06539 -8.91929 2.40204 2.5269 -0.732034
3499 6.84199 -0.171091 -8.5867 -0.801607 0.0446619 -1.74321
1930 -5.35032 -2.30493 -0.00672902 -1.0103 -0.983372 -0.398351
44 6.1163 -8.38448 -8.22007 3.42204 0.541391 0.971409
326 5.35737 -8.3582 -7.48885 1.90038 -0.82945 -1.64834
81 3.15083 -7.89512 -9.1315 -4.05258 2.5102 -1.83331
38 5.35591 -8.40353 -9.14281 3.85939 3.53162 -0.646765
377 6.14332 -7.62677 -7.51944 1.77548 -0.659163 2.51192
85 4.51225 -7.67019 -9.07411 0.69221 -0.200071 1.347
48 7.67351 -8.55196 -8.27385 2.23502 3.26835 1.307
330 6.90245 -8.36658 -7.60179 -1.47433 -2.65668 -2.86501
381 7.57345 -7.57045 -7.40422 0.200531 -0.85395 -1.09165
335 8.43564 -9.20743 -6.93253 -0.332845 -1.78747 0.331614
337 9.12734 -7.74202 -7.64808 -1.81928 1.01063 -2.33988
1173 -1.5528 -9.22339 -3.00568 -1.46478 2.57447 -1.55401
51 -8.46298 -7.57423 -8.38224 -1.42637 0.788725 -1.20532
338 -8.57881 -7.109 -7.4738 0.62847 -0.496731 -0.0974238
99 -8.43443 -5.95407 -8.3313 0.592051 2.67132 0.496131
52 -9.06772 -6.78076 -8.34302 0.633306 0.414986 -2.10336
385 9.19116 -6.10541 -7.53745 -0.0404923 4.60729 -1.78845
56 -7.87668 -6.76626 -8.33212 -0.0839496 -1.16568 0.456592
129 3.08305 -6.34947 -9.19146 1.78766 -1.14125 0.273858
60 -5.90458 -6.69087 -8.3671 -2.5281 0.3647 1.35912
107 -5.25097 -5.94386 -8.36343 1.53608 -0.491505 0.291318
2013 7.70165 -1.69031 -0.107601 1.6897 0.00246573 0.45718
350 -4.4784 -6.76682 -8.4187 -2.84637 -3.94838 -0.492377
111 -3.80266 -6.06367 -8.54228 -3.47996 -0.917989 0.0353548
47 8.51386 -8.93265 -8.37583 0.25415 -1.39824 1.39797
4333 -4.72964 -0.00818054 -4.5134 0.415113 2.67507 0.187606
352 -3.91285 -6.94323 -7.45444 -1.89292 -1.16047 1.43428
911 8.40903 -9.22449 -4.02216 0.14702 -0.747798 0.900938
67 -2.25898 -7.67789 -8.48189 -1.67396 0.611725 1.29787
68 -3.16201 -6.93689 -8.27435 -0.66256 -2.0505 0.955691
1742 -3.95004 -8.31551 -0.132833 0.221161 0.668778 4.65279
72 -1.63032 -6.80553 -8.5078 -1.28731 -1.63461 -1.58917
119 -0.742281 -6.32364 -8.37088 0.48189 -1.90611 -0.342319
358 -0.885443 -7.15648 -7.54626 4.9085 -3.15337 -1.7044
76 -0.113756 -7.02508 -8.90629 1.77392 -0.838296 4.42406
80 1.58774 -6.92895 -8.49055 -0.903051 -0.34029 2.0426
362 0.943837 -6.78289 -7.56225 -0.576071 -2.45482 1.52594
365 1.46757 -7.65976 -7.58866 -1.42439 -0.810615 1.83738
4343 -0.843382 -0.140276 -3.9174 -0.230917 1.98707 -0.813376
79 2.14826 -7.74505 -8.35467 -1.11601 -1.34056 -1.35331
84 3.0047 -6.96793 -8.19383 2.41202 0.849082 0.933536
3495 5.27869 -0.0955715 -8.42149 -0.494137 -1.55468 -3.34424
83 3.78795 -7.76492 -8.28408 -0.437666 0.379477 0.917279
88 4.55174 -7.00857 -8.30149 0.451611 0.885007 -1.83985
82 3.72221 -7.06629 -9.01044 -0.690078 -0.0890661 0.62505
370 3.8622 -6.94266 -7.61051 0.888141 -1.01959 -0.503521
87 5.37607 -7.6269 -8.33966 2.13545 -1.10782 0.183411
92 6.22014 -6.95117 -8.34943 -2.30148 -1.06061 0.134283
1441 9.08988 -9.14862 -1.43223 0.39546 -1.90235 -2.96355
89 6.06834 -7.72122 -9.01695 2.59597 1.69587 -1.00868
181 4.57715 -4.43655 -9.18148 -0.127512 -0.772932 -0.0377675
91 7.07579 -7.77492 -8.37605 1.63814 1.11069 0.797794
96 7.80624 -7.05238 -8.37012 -1.70562 -0.49781 0.129001
1794 -2.32214 -6.81484 -0.121156 -1.48578 2.49113 -1.36199
139 6.91522 -6.1569 -8.4236 -2.11773 0.345863 2.0062
95 8.33839 -7.90236 -8.41744 -1.83365 -0.12892 1.56218
39 5.5335 -9.16106 -8.31669 0.154319 0.596161 -1.61151
1846 -0.737521 -5.51524 -0.0923921 -0.211765 1.45049 -3.33506
104 -7.60616 -5.26991 -8.46294 -1.52478 0.656212 0.189289
100 9.11445 -5.49169 -8.22381 2.56183 0.0541638 1.10558
103 -6.88791 -6.1661 -8.37715 1.00113 -2.08781 0.378274
108 -6.29765 -5.28146 -8.34088 -1.60126 -1.82839 0.687556
3469 -4.65278 -0.0484435 -9.02137 2.94951 1.48054 -0.142788
441 -6.25183 -4.48273 -7.72341 -0.00157662 0.342467 2.11515
1153 -9.10304 -9.12922 -3.02467 -0.790212 -0.585364 2.33866
218 0.70541 -2.41162 -9.12626 -1.02717 2.62582 -0.0172306
22 -0.905074 -8.33912 -9.06142 0.723444 -0.115989 -1.0172
112 -4.60429 -5.20955 -8.43427 -1.70605 -1.95336 -1.56056
3487 2.33861 -0.162092 -8.3335 0.797319 0.465539 0.225831
398 -3.82404 -5.32853 -7.67324 -1.14375 -0.223635 -2.42747
4053 -1.65848 -0.0415785 -6.05589 -1.51548 3.52104 -0.323385
115 -2.36658 -6.18133 -8.57216 -0.974013 -0.572749 1.67477
116 -3.02009 -5.417 -8.29433 0.856929 0.716767 1.75481
163 -2.35796 -4.58715 -8.29015 -0.364655 0.0908644 2.34081
4635 1.00983 -0.0225987 -2.20375 -0.0369826 -1.21376 0.477046
1481 6.20174 -9.05676 -1.57507 0.632319 3.44733 0.551363
120 -1.57835 -5.53077 -8.50016 -0.0782638 0.248626 -0.853249
319 2.29572 -9.21486 -6.99305 -0.923912 0.899367 -0.946497
453 -1.44724 -4.61731 -7.68789 2.50774 -4.24428 -0.181623
124 -0.0328195 -5.49026 -8.3808 0.0684122 -0.404798 0.723952
123 0.631109 -6.2838 -8.4996 0.484529 2.15397 0.147398
128 1.49427 -5.62533 -8.41787 -2.72968 -0.169441 1.14619
1894 -0.74041 -3.77943 -0.0452937 1.23063 -1.20079 -1.26776
875 -5.49724 -9.1971 -3.81936 -2.1714 2.67053 -0.0458673
127 2.28623 -6.28774 -8.55719 -1.76963 0.106303 -0.389331
132 3.19734 -5.44445 -8.33507 1.6273 1.25451 0.00273009
186 6.81798 -3.62024 -9.1721 0.109069 -0.333033 -0.114933
5164 0.759098 -9.1266 -0.723063 -1.25176 2.32123 -0.797757
131 3.74594 -6.14872 -8.43892 -1.09824 -0.463994 -1.03036
136 4.51233 -5.39448 -8.31752 -1.31925 -0.29587 -2.09131
179 3.8694 -4.44753 -8.32337 2.30318 2.75645 -1.66358
23 -0.982789 -9.18149 -8.23615 -1.22933 0.460704 -0.326504
325 4.72736 -9.18238 -7.74991 -0.962151 -3.06545 -0.568619
422 5.38454 -6.17637 -8.36363 -3.69194 -3.26621 0.334395
140 6.00095 -5.42302 -8.56392 -1.08255 0.62354 -1.8489
249 -6.21524 -1.62101 -9.17399 -4.60488 0.753727 1.38429
144 7.68184 -5.30663 -8.47986 -0.138708 1.09805 0.231672
187 6.80137 -4.626 -8.43691 0.933155 0.940504 0.733947
1873 -9.18515 -4.74222 -0.115895 -0.532407 0.204209 -0.788869
1181 1.54965 -9.2014 -3.0385 1.37152 -2.53496 -0.221989
143 8.4666 -6.24472 -8.35604 -1.58456 -2.84526 -0.612895
430 8.40561 -5.40682 -7.67699 1.27961 1.32409 -1.21184
4919 -0.701522 -0.0889496 -0.784696 -1.99502 -1.80379 -0.410803
146 -8.48826 -4.61556 -8.37124 0.604471 2.97781 -2.48935
148 -9.11203 -3.94304 -8.49105 -0.940561 0.276406 3.56538
262 -0.763753 -0.613162 -9.13327 0.0490459 -2.5133 0.87098
151 -6.86895 -4.52369 -8.58846 0.697818 -0.0209296 1.71098
150 -7.73678 -3.94788 -8.46004 -0.222804 -1.27769 -0.974509
118 -0.84382 -5.42099 -9.21389 1.56627 -1.83565 0.496702
206 -3.85894 -2.3572 -9.15664 1.01838 -0.404518 -1.95297
155 -5.53815 -4.57811 -8.42633 -1.33355 -0.910146 -0.819596
438 -6.15999 -3.70216 -8.5758 0.115189 -0.822469 -1.55825
78 2.34423 -7.07298 -9.21469 -3.26587 2.38572 0.265461
159 -3.8209 -4.48551 -8.49814 -1.02719 0.868013 -0.673947
160 -4.87103 -3.86626 -8.64077 3.38471 -1.41273 -0.159927
207 -4.01606 -3.20309 -8.45282 0.687911 1.34605 0.311966
1758 2.28176 -8.67261 -0.0891835 -1.15423 -1.49097 -1.37803
164 -3.02066 -3.74365 -8.3797 0.376905 -1.69133 0.888118
449 -3.00432 -4.67429 -7.60898 1.46933 0.415426 2.1599
211 -2.21012 -2.97893 -8.41503 -1.84837 0.115449 3.66126
258 -2.28853 -0.888395 -9.11401 -0.909148 0.380925 0.242565
167 -0.73583 -4.77927 -8.45801 -1.90473 1.16844 1.54813
168 -1.63491 -3.81036 -8.49762 -0.17507 -0.296505 1.478
454 -0.707384 -3.74725 -7.80874 -1.44243 0.596673 -0.445872
4652 6.17043 -0.0911352 -1.44321 1.64939 -2.00975 2.44525
457 -0.0196277 -4.65181 -7.72451 1.41561 2.38131 -1.57254
172 0.209719 -3.827 -8.34348 -1.63262 -2.551 -0.171865
171 0.722503 -4.76976 -8.32419 -2.7027 -0.451868 1.30166
286 8.51229 -0.664979 -9.14266 0.431996 -1.68927 0.668531
601 0.0256698 -9.18559 -6.0547 0.939814 -0.620112 3.06516
176 1.48968 -3.84317 -8.3655 1.51261 1.41388 4.17179
458 0.849648 -3.99031 -7.68021 -2.37943 -0.174566 1.22663
1822 8.53719 -6.95981 -0.110676 -1.38853 0.544117 -1.14369
461 1.42114 -4.81114 -7.64307 -1.56717 -2.66722 0.00715313
1793 -2.95764 -7.65094 -0.0475345 -0.497695 -0.12778 1.28193
265 0.149288 -1.61202 -9.20314 0.296584 0.184221 0.184569
175 2.3826 -4.56399 -8.45095 0.0363464 1.43286 -0.275333
223 2.21285 -3.05913 -8.37753 -0.498622 -0.55539 0.320065
180 3.0815 -3.72927 -8.38299 0.677936 -1.46197 -2.13675
3777 3.10144 -0.0392982 -7.67372 1.06655 0.282841 -0.651346
184 4.6644 -3.69083 -8.51547 -2.379 1.63283 0.00422188
466 3.84865 -3.75751 -7.76201 -1.1286 3.37461 4.17438
183 5.37673 -4.62024 -8.52315 2.92717 -2.47775 -0.632727
188 6.26411 -3.76698 -8.39898 0.841407 -0.096755 4.21023
593 -3.13172 -9.20991 -6.28978 -2.42128 -1.35897 1.39204
2009 6.10905 -1.64282 -0.0048899 -0.325193 2.33632 0.0222652
27 0.773348 -9.16643 -8.32996 0.751511 -1.86928 -0.329524
1845 -1.60075 -6.18321 -0.0387646 -0.10055 -0.2919 -0.848087
192 7.56202 -3.80102 -8.48878 -2.49005 -1.4758 -3.46037
477 7.5937 -4.64455 -7.76816 2.29632 3.17858 -1.64751
235 6.84227 -2.95122 -8.53306 -1.17236 -1.21013 -0.394767
191 8.54492 -4.65128 -8.50992 -0.0871476 -0.536149 0.467056
1870 8.25298 -5.38268 -0.115358 -1.39178 0.0270701 0.0398477
1898 0.882467 -3.87837 -0.0598087 -3.13742 3.02678 -2.41166
195 -8.24894 -2.99358 -8.55618 0.750659 2.27699 -0.351278
243 -8.34699 -1.46163 -8.41058 -2.42973 2.52556 0.46353
533 -7.74454 -1.55055 -7.5139 0.267426 3.87831 -1.59651
482 -8.40127 -2.36911 -7.84 0.606521 -0.164416 -3.70966
199 -6.92107 -3.01916 -8.50835 -0.287395 -2.78074 -1.10012
200 -7.53059 -2.18084 -8.33774 -0.687742 -1.15121 -0.934845
486 -6.71888 -2.34561 -7.68884 0.414977 -1.47037 0.113534
203 -5.35786 -3.05121 -8.62368 2.24587 -0.680936 0.610109
489 -6.0422 -3.07331 -7.73391 -0.876867 -0.485079 1.39659
204 -6.10395 -2.32361 -8.45307 -1.78456 -0.680509 2.54966
1901 1.50733 -4.71628 -0.00303196 -0.964973 -0.126649 0.209798
490 -5.39048 -2.31754 -7.57487 -0.874213 0.714419 -0.825684
208 -4.6118 -2.30517 -8.42677 0.362676 -0.208819 1.65568
255 -3.95839 -1.58475 -8.32528 -1.29224 -0.253087 0.957257
493 -4.80877 -3.02266 -7.76258 2.76338 0.585642 -2.72695
1161 -6.21063 -9.15587 -3.13365 0.593035 -0.871459 -3.56198
212 -3.05121 -2.19323 -8.40393 0.56892 -1.32085 -0.224359
259 -2.36022 -1.43834 -8.30831 -1.53353 -0.306562 2.42613
545 -3.32978 -1.51081 -7.6576 -0.182248 0.169914 -0.531247
133 4.51213 -6.1686 -8.95681 1.32374 1.3155 -2.45575
215 -0.716681 -3.04734 -8.45113 2.64298 -0.266097 -0.158405
501 -1.46901 -2.93971 -7.82903 -1.34867 1.26802 -1.10726
216 -1.55144 -2.1481 -8.55637 -1.1399 0.863771 -0.984265
549 -1.47066 -1.59676 -7.62353 1.10778 0.707008 -1.72099
220 0.00166568 -2.24435 -8.45356 1.82811 -2.39644 -1.04652
502 -0.735088 -2.28178 -7.80002 -0.909454 0.780173 -3.65214
505 0.0139481 -2.97098 -7.53796 1.18724 2.11477 -1.834
553 0.0836759 -1.52771 -7.59663 -0.0266587 -0.878388 -0.282575
219 0.755306 -2.98844 -8.20988 -1.88632 2.10745 -0.643886
110 -3.94464 -5.30958 -9.1706 -0.463644 0.567011 -1.46185
224 1.61757 -2.27055 -8.46193 2.15611 -1.44381 0.23724
557 1.3897 -1.28045 -7.60095 0.0815174 -4.06438 -2.16119
509 1.57279 -3.05095 -7.70502 0.722338 -0.464776 -2.15659
513 2.98313 -3.08022 -7.58372 -0.112854 -1.63337 -0.98866
228 3.05614 -2.26366 -8.4297 0.507982 3.41136 -3.54474
227 3.77264 -2.9697 -8.38947 -0.387952 -3.43374 1.26434
232 4.76274 -2.4557 -8.60288 1.90651 -0.983008 -0.386523
280 3.81724 -1.64334 -8.46927 -0.341627 -0.450902 -1.08743
514 3.79542 -2.30195 -7.64828 1.88183 -0.706724 0.940115
563 4.55262 -1.58804 -7.81443 0.978988 -0.70188 -1.50427
518 5.62009 -3.01865 -8.42461 -0.517212 -0.271054 -0.857889
236 6.1911 -2.19948 -8.54496 0.0600084 -1.11462 0.882132
565 5.48362 -2.24091 -7.65386 2.12408 1.53509 -0.814484
94 8.57165 -7.10186 -9.18245 1.73417 0.164524 -1.1806
240 7.6557 -2.01307 -8.50403 2.73218 -0.599813 -1.00737
57 -5.97545 -7.62839 -9.03108 1.41982 -0.407508 0.982276
239 8.45943 -3.16867 -8.56399 -0.07483 0.253664 2.22105
196 -9.12488 -2.3256 -8.5139 1.03607 -0.21793 1.93958
287 8.59295 -1.58617 -8.37182 0.554771 1.44369 -1.94505
526 8.44405 -2.28177 -7.67586 2.20968 3.33094 -0.40668
587 -5.08153 -9.13884 -5.60166 1.19565 -0.0724636 -0.417124
248 -7.77282 -0.65637 -8.3568 -1.29638 0.424439 -0.831368
178 3.82366 -3.7284 -9.08941 1.72738 2.00748 -2.28732
530 -8.45073 -0.863299 -7.62636 0.241142 -2.13148 2.5673
1966 8.28302 -1.64037 -0.808172 0.346671 1.22223 -0.763643
883 -2.23578 -9.07613 -3.76927 -1.19273 1.61134 0.561783
247 -7.08378 -1.39188 -8.27147 -2.18386 -2.35441 -0.912375
534 -6.96251 -0.509434 -7.4856 1.57264 -1.69725 0.339976
1746 -2.32124 -8.36799 -0.0712612 1.6721 -0.922599 2.60018
251 -5.35932 -1.58602 -8.49036 1.88769 0.548503 -0.634799
252 -6.28358 -1.03218 -8.34555 1.61092 0.0206696 -0.0939393
538 -5.1529 -0.777223 -7.47493 1.09451 2.49637 -2.06118
537 -6.02939 -1.25312 -7.44169 0.146655 -2.06275 -0.368445
256 -4.74239 -0.843451 -8.39946 0.82044 -0.24415 -0.84391
541 -4.57609 -1.61364 -7.64789 -0.31444 -2.06775 0.647576
542 -3.94776 -0.690453 -7.50929 1.87536 -1.97831 3.08344
4637 1.74202 -0.140721 -3.11189 -0.96727 -1.5596 -2.541
260 -3.32065 -0.793188 -8.2856 -0.458281 1.92494 -0.62402
546 -2.33889 -0.817881 -7.5063 2.93485 1.28269 4.40465
263 -0.724245 -1.27216 -8.40271 0.389534 -2.75843 1.5157
264 -1.60712 -0.8283 -8.43793 0.510996 -2.95839 1.93376
550 -0.726874 -0.858101 -7.53509 0.485587 2.03665 -0.483306
1723 6.8764 -1.68018 -0.653385 -0.2573 -1.88551 -0.456357
268 -0.231847 -0.36626 -8.37981 -3.30056 -1.46359 -2.06776
267 0.911373 -1.60163 -8.35469 -1.26789 0.687382 -0.660807
272 1.59992 -0.907606 -8.42782 2.1361 -0.850845 -0.17555
554 0.522784 -0.658636 -7.64169 -0.383883 -0.815422 0.917853
237 7.74294 -2.89541 -9.17898 -3.02013 0.403827 0.477387
271 2.29427 -1.55044 -8.48011 4.11862 -0.564332 -0.623795
276 3.01812 -0.863851 -8.5328 1.11523 -2.76995 1.09861
561 3.0744 -1.59449 -7.69365 2.53593 1.51262 -2.74317
49 -9.11693 -7.59053 -9.08007 3.10583 -0.524117 1.89059
3465 -6.31683 -0.341731 -8.96496 1.49252 -1.27752 0.737292
566 4.45794 -0.677583 -8.48574 0.205568 0.343832 -3.41304
275 3.91427 -0.801992 -7.76106 -2.09079 0.642415 1.81373
274 3.70039 -0.644273 -9.22537 -1.21626 1.44879 -0.96199
279 5.38906 -1.52916 -8.55815 -1.12916 -4.12179 0.925956
284 6.11216 -0.77053 -8.54789 -1.85031 -0.627515 -0.744187
569 6.09384 -1.46634 -7.70802 -2.53061 2.75528 0.275234
317 1.41794 -9.08335 -7.56747 1.09938 2.23992 -0.834888
1453 -4.63444 -9.11569 -1.56985 0.108332 -0.644741 0.0732646
283 6.98343 -1.40051 -8.56629 0.0257724 -0.960044 -0.0969221
288 7.72217 -0.602703 -8.52293 1.19594 -1.4208 -1.97244
570 6.8134 -0.690938 -7.70237 2.72242 1.45425 1.31155
573 7.70721 -1.30936 -7.85175 -1.0549 -1.87605 -1.83669
54 -6.91176 -6.9643 -9.02065 0.404706 0.825752 0.519255
529 -9.21325 -1.7891 -7.67966 0.344478 0.334571 0.027621
244 -9.00506 -0.757958 -8.45234 -0.510818 -0.270843 1.6901
574 8.63408 -0.895433 -7.55809 -0.933254 1.08388 -1.05579
578 -8.54748 -8.60708 -6.16807 -1.28118 1.8907 0.200641
339 -8.45391 -7.68372 -6.66943 -0.343643 0.356923 2.66564
182 5.40985 -3.68317 -9.06068 2.02177 0.0337041 0.290117
294 -7.04082 -8.56076 -7.73274 0.0291963 -0.0541285 1.91842
166 -0.806289 -3.86603 -9.11902 -1.55092 0.0358789 -2.38045
296 -7.68174 -8.44383 -6.94562 1.5594 -1.26575 2.16056
629 -7.59033 -7.84456 -6.24443 -2.67957 0.461615 1.98107
343 -6.81699 -7.82413 -6.92596 0.447891 -2.00795 1.04541
300 -5.9408 -8.60042 -6.97979 -2.01412 0.554049 -0.373102
586 -5.17326 -8.41148 -6.22646 0.533288 -0.0973881 0.652272
304 -4.58102 -8.65585 -6.98932 2.35201 0.984919 -0.43395
637 -5.4077 -7.00188 -6.35384 1.1427 -0.228864 -0.436951
1727 7.69349 -0.811301 -0.694696 0.0857886 -0.292887 -0.0143578
1890 -2.3889 -3.91526 -0.188265 0.0257236 1.14801 -0.512145
306 -2.361 -8.49103 -7.66554 0.182563 -0.241388 -0.0267106
308 -2.9354 -8.34516 -6.91743 -1.68214 1.57821 0.220568
891 0.753093 -9.15582 -3.93013 1.93391 0.492189 2.03291
19 -2.33933 -9.21382 -8.4477 1.547 -0.410022 0.142725
357 -1.70503 -7.80698 -7.67356 1.23378 -1.10218 -2.25969
312 -1.68449 -8.46762 -6.86867 0.318277 0.81115 -3.63542
316 0.05953 -8.48189 -6.721 0.878565 -0.0380601 1.66473
359 -0.800447 -7.72436 -6.71052 -0.107472 -0.939839 -0.943403
28 0.529445 -8.38432 -7.58335 -1.51289 -0.556099 -1.49715
320 1.5404 -8.52031 -6.84651 -0.266504 0.0335662 0.139417
653 1.57597 -7.77113 -6.11291 0.161837 -0.554652 -2.05763
318 2.38206 -8.44691 -7.54623 3.35594 -0.244978 0.884803
324 3.12395 -8.41356 -6.73693 2.91874 -0.0117482 0.235124
606 2.41441 -8.45559 -5.88848 -1.56786 -2.018 0.195501
1719 5.323 -1.49438 -0.656603 1.051 0.747028 1.42027
4065 3.04812 -0.0667551 -6.1607 -3.26417 1.26483 -0.185221
322 3.9827 -8.71107 -7.41974 -2.1314 -0.81105 -1.34274
328 4.35223 -8.55001 -6.57723 -0.724341 -0.715276 -2.00481
610 3.69541 -8.44212 -5.79134 -0.882277 1.80186 1.96261
4921 0.16201 -0.0382593 -1.41681 -0.681196 0.679921 -1.38665
4913 -3.04423 -0.124055 -1.38181 3.46657 -2.12358 1.24055
332 5.9684 -8.34276 -6.84325 -1.18504 -1.33494 -1.14268
614 5.33431 -8.61837 -6.11482 1.09428 -3.55816 2.08158
1973 -7.61388 -1.32549 -0.0704609 3.12022 0.0240477 1.23516
156 -7.0589 -3.69865 -9.14998 0.0322561 1.98093 0.446064
336 7.56863 -8.41316 -6.71674 -3.43017 1.42521 -0.648454
379 6.82492 -7.64412 -6.76374 -0.721175 -1.18618 -0.158361
618 6.62394 -8.4242 -6.04629 0.811908 -0.549888 0.439931
334 8.26808 -8.38398 -7.47929 -0.063901 -2.39237 -1.16533
292 9.15288 -8.3649 -6.89742 1.28588 2.7113 -2.21386
622 8.5051 -8.56497 -6.13184 -1.09853 1.28268 0.022922
387 -8.59889 -6.20262 -6.81703 0.210425 -0.804301 0.365379
626 -8.46979 -6.93207 -5.94744 -0.478674 -2.8717 -1.25698
389 -7.74991 -6.14638 -7.53698 -0.589798 -0.484285 1.15946
342 -6.91316 -6.97807 -7.78547 0.766175 -1.42939 -2.03791
344 -7.83817 -6.82305 -6.84998 2.93981 1.92238 2.25172
347 -5.27058 -7.8165 -6.98698 -1.47645 1.39083 -2.252
346 -5.22811 -6.86705 -7.70661 1.00275 -0.150603 -1.39427
348 -6.16786 -7.11459 -7.08001 -2.78866 -0.550838 -0.942059
395 -5.42354 -6.14164 -6.88874 0.94209 -0.68497 -2.2105
351 -3.86767 -7.89647 -7.0203 -1.01935 -0.0928951 1.9756
397 -4.52715 -6.0926 -7.64487 -3.20225 -0.559531 -0.641801
634 -4.75604 -7.0749 -6.96185 2.56578 0.627012 0.628316
638 -3.90888 -6.89669 -6.23813 0.477033 -0.056865 2.21188
353 -3.07032 -7.73703 -7.54142 -1.0595 0.680787 -1.19558
355 -2.26018 -7.63271 -6.84059 2.12281 1.21225 -0.46381
356 -3.0996 -7.16251 -6.85722 0.0683573 0.837327 0.160131
401 -2.99367 -6.19811 -7.67936 -1.15454 2.03948 0.763054
354 -2.33145 -6.93828 -7.62411 0.692746 -3.01901 -1.60131
405 -1.55807 -6.156 -7.6192 0.859899 0.459947 3.3427
360 -1.51992 -6.88655 -6.85677 -1.17624 0.363561 -1.50389
403 -2.32063 -6.2239 -6.83206 -0.423508 -0.123 -0.443627
361 -0.00372241 -7.59903 -7.83329 1.88279 0.315474 -3.89682
364 -0.140838 -7.16941 -6.86278 0.833275 1.59638 1.41011
314 0.823553 -7.72028 -6.73989 -0.241852 -0.0230808 -4.04793
368 1.55738 -6.99342 -6.81391 3.04864 3.30029 -1.41139
650 0.807056 -6.95501 -6.20312 -0.417192 1.42237 1.66795
654 2.39604 -7.72265 -6.77607 0.340455 0.130166 0.436459
366 2.13016 -6.91907 -7.56599 1.55604 -0.377232 4.07714
372 3.12037 -6.86907 -6.88145 1.70307 -2.06825 1.06818
703 2.44078 -7.01397 -6.07303 1.34122 2.37993 -1.70612
657 3.03373 -7.67266 -6.03096 -3.16973 -0.401711 1.76685
373 4.66967 -7.68353 -7.39755 0.276468 2.57808 -1.08149
371 3.77508 -7.74348 -6.89693 -0.115554 1.27312 -1.44105
376 4.67374 -6.77301 -6.86919 1.39186 1.18854 0.671877
419 3.91048 -6.02714 -6.98895 -0.405538 1.42147 -0.725881
658 3.78058 -6.7969 -6.14681 -0.999307 0.862447 1.88598
375 5.27939 -7.62227 -6.71366 -1.12532 -4.46745 0.673755
374 5.28199 -6.78821 -7.64034 -1.7844 0.757973 -0.06555
380 6.18977 -6.85894 -6.82371 2.76726 -1.50127 -1.05986
662 5.25421 -6.90886 -6.02542 -1.90695 0.935738 -2.37721
378 6.95311 -6.89464 -7.69127 3.59817 -2.66272 0.678973
384 7.47502 -6.80645 -6.79207 -1.96734 0.393813 0.450318
427 6.86098 -5.89948 -6.98989 -2.40873 1.00659 3.33053
669 7.66927 -7.73948 -6.0168 0.962552 -1.36998 0.652481
717 7.63764 -5.98937 -6.09766 -1.72099 4.73536 0.216958
429 7.75906 -6.11186 -7.59671 -0.424819 1.02412 -0.633902
383 8.54967 -7.58711 -6.70296 -0.242156 1.83428 2.33063
340 9.10794 -6.92627 -6.76039 1.08358 2.26405 1.0445
382 8.51958 -6.93305 -7.6396 0.82549 -1.21033 -1.66216
386 -8.58454 -5.26703 -7.61084 -2.5447 1.77481 -3.09623
674 -8.78138 -5.37057 -6.18566 0.745515 -0.0608101 0.421918
725 -7.90532 -4.4985 -6.16476 -3.22518 -0.390148 0.85757
388 9.06194 -5.32124 -6.95778 0.836936 -1.82998 -2.74009
390 -7.03871 -5.46875 -7.56168 -0.677638 -1.9166 1.77811
391 -6.95801 -6.2048 -6.76504 0.663678 -2.95761 -0.881368
392 -8.00078 -5.40413 -6.71817 2.07731 -0.859936 1.26458
678 -6.75217 -5.43712 -6.15845 1.41038 -0.203354 -0.594211
394 -5.45177 -5.34405 -7.61232 -0.5972 0.501583 1.52252
393 -6.14722 -6.15383 -7.55128 -0.699292 -1.596 2.41646
396 -6.19626 -5.15573 -6.83798 0.346232 0.719717 1.2454
682 -5.4995 -5.39421 -6.20289 -1.13925 0.303234 1.45459
399 -3.81668 -6.16711 -6.98709 0.323785 1.77677 0.35648
400 -4.55839 -5.34684 -7.01678 1.10388 1.7291 2.80591
686 -3.82225 -5.48563 -6.28796 -0.3788 -2.32175 -2.94105
402 -2.27564 -5.434 -7.5091 -1.30263 1.00812 -0.809515
404 -3.01649 -5.39866 -6.97531 1.99586 -0.0696467 -0.543488
689 -3.18038 -6.27413 -6.31386 -2.02801 1.71989 -0.362882
690 -2.28672 -5.15812 -6.28494 1.18559 3.41346 -2.65888
406 -0.753803 -5.50477 -7.61808 -1.17181 -0.786677 -0.803085
408 -1.50673 -5.39723 -6.94062 0.180109 -2.45611 0.537726
455 -0.593936 -4.46526 -6.74963 0.919956 0.172827 0.590628
409 0.0835521 -6.40048 -7.73932 -0.0864385 2.17915 -0.0540274
407 -0.683248 -6.29154 -6.98886 1.7027 0.645838 -3.69946
412 0.0132027 -5.30198 -7.02714 0.672046 -2.31264 -1.7556
413 1.69718 -6.08406 -7.3988 -0.88425 0.340579 1.64491
411 0.630521 -6.00519 -6.92837 -0.766906 -1.87684 0.600138
410 0.794892 -5.68656 -7.76738 1.92486 1.61768 0.510713
416 1.52904 -5.32154 -6.74854 1.50118 -2.22052 2.97886
417 2.87545 -6.08468 -7.68153 -0.724785 -1.01018 -0.603986
415 2.39579 -6.07925 -6.80861 2.86582 1.02073 -1.48511
414 2.24705 -5.28332 -7.76805 -4.96014 0.599676 0.237392
420 3.10629 -5.38352 -6.98455 2.75371 -0.469142 1.11863
705 3.12545 -6.04327 -6.08129 -1.09086 3.61002 0.474548
702 2.39643 -5.36514 -6.12602 1.46074 3.64496 -1.93961
709 4.47818 -6.16368 -6.09402 -2.55445 -0.747675 2.6072
421 4.59116 -6.09267 -7.70901 -0.530303 -1.83428 -0.871809
418 3.85838 -5.37286 -7.5868 0.843997 -1.14378 -2.17239
424 4.54644 -5.2175 -6.88726 -1.23616 -2.21813 0.984363
467 3.72988 -4.52448 -6.90593 3.65253 -1.05166 0.609349
706 3.90817 -5.35342 -6.10951 -1.10172 -0.287358 2.09507
470 5.87497 -4.597 -7.75492 0.979939 -0.206409 1.45034
425 6.0724 -6.11573 -7.57441 -0.634331 -1.83239 -1.63329
473 5.30772 -5.35423 -7.7824 -0.870236 -1.0821 1.36111
423 5.42364 -6.04594 -6.858 0.61815 -0.904211 -0.26988
428 6.11382 -5.30198 -6.98514 -0.281981 0.661547 -0.00782258
471 5.34422 -4.68634 -7.0062 -3.52961 -1.28215 -2.20638
426 6.78409 -5.32886 -7.85435 -0.145079 -0.252156 0.839031
432 7.83238 -5.37048 -6.86812 -1.28087 1.02394 0.145059
431 8.48896 -6.21114 -6.85201 0.40226 -2.37934 0.327841
718 8.51608 -5.36889 -6.07454 2.56699 1.16939 -2.90099
437 -7.75677 -4.6317 -7.72494 -1.89136 -1.20605 1.08114
434 -8.39497 -3.6906 -7.78338 1.95102 -0.37158 -1.17179
435 -8.61266 -4.36949 -7.00132 -0.00222045 1.94592 2.4194
721 9.06006 -4.55412 -6.15285 0.520036 1.51606 1.48531
440 -7.72747 -3.76522 -6.94736 -2.47766 -3.8321 1.69551
152 -7.04168 -3.82357 -7.6938 -0.537513 4.19153 2.56503
439 -7.22924 -4.78026 -6.79232 -1.07163 -2.95788 2.97865
726 -7.09694 -3.9046 -6.19978 0.189981 4.17878 0.335167
442 -5.3168 -3.88245 -7.6584 -0.55467 -2.14863 -1.2558
443 -5.26024 -4.699 -6.93419 2.3794 -1.57892 -4.37716
444 -6.30014 -3.97073 -6.88213 3.55795 -1.0266 -2.11433
777 -6.10277 -3.12074 -6.1705 0.871585 -3.67621 -1.44422
729 -6.06053 -4.57898 -5.92823 1.9377 -0.388139 -0.276823
730 -5.31587 -3.96691 -5.98275 -0.242754 2.55848 -3.81136
446 -3.94995 -3.81132 -7.67541 -0.217105 -0.68742 -0.965405
445 -4.58584 -4.54848 -7.74431 -0.61773 -0.883341 1.25702
447 -3.8926 -4.73294 -6.95373 0.508517 -1.13809 0.729603
448 -4.60939 -3.91062 -6.94962 -1.66985 -0.168499 -1.14361
733 -4.63778 -4.72569 -6.25165 -2.68148 1.00398 2.68943
497 -3.15251 -3.05822 -7.69669 -4.54951 2.82813 -1.6711
451 -2.12088 -4.45769 -6.9692 -0.990157 0.735267 -0.650529
450 -2.34181 -3.83877 -7.65944 1.84365 0.949489 -1.50924
452 -3.02878 -3.65857 -6.88404 0.596138 0.269666 -2.22336
499 -2.11649 -3.1134 -6.99778 1.30874 2.35084 0.521448
737 -3.14217 -4.61214 -6.33925 -0.532412 -1.51799 1.56435
456 -1.33035 -3.7949 -6.9752 -2.3406 0.482079 -2.8641
741 -1.39244 -4.58115 -6.29201 0.113841 -2.74195 1.08991
460 0.127427 -3.86895 -6.86687 -1.21516 -0.242622 -1.01377
507 0.808586 -2.83998 -6.76308 -1.32999 0.757853 1.19123
503 -0.761094 -3.0174 -6.98319 -0.684804 -2.0126 -2.26052
793 -0.0583079 -2.97745 -6.11288 2.17269 1.30606 0.399259
459 0.716925 -4.68188 -6.87647 0.442471 -1.73555 -2.29751
464 1.72043 -3.72319 -6.96173 2.64628 -0.565543 1.13095
746 0.934534 -3.86859 -6.38136 0.0280399 -1.25558 0.302268
465 3.07783 -4.58053 -7.72228 -1.75104 0.545012 0.460597
463 2.31899 -4.59665 -6.94356 0.510354 -0.548236 -2.25137
462 2.32775 -3.83517 -7.61516 0.233344 -0.20937 -1.65125
468 2.97321 -3.71232 -6.79981 1.59714 -1.31554 0.80247
469 4.7116 -4.48416 -7.73151 -1.92774 0.447278 -1.08979
472 4.52488 -3.92359 -6.83082 -0.612103 -1.48338 2.42679
805 4.52838 -2.87754 -6.14627 2.65057 -0.737786 0.919623
757 4.61981 -4.6162 -6.12691 -0.319376 -1.50704 -0.0602863
231 5.29347 -3.6802 -7.69703 2.70157 -2.70525 2.07642
476 6.00968 -3.95704 -6.96589 2.04947 -0.985021 2.08071
758 5.31889 -3.89003 -6.08614 -1.02652 -1.41165 -0.140196
474 6.93696 -3.73647 -7.66534 3.25536 -1.05153 -2.49818
475 6.81993 -4.75146 -6.99193 -0.80018 -0.0663959 -1.14875
480 7.5044 -3.7126 -6.87267 0.176335 2.08832 0.879463
523 6.92626 -3.03652 -6.87342 1.81277 1.10526 -1.99214
762 6.7254 -3.86744 -6.2122 1.28786 -0.537242 0.178982
433 9.07373 -4.51123 -7.64955 2.25631 -0.525154 -1.221
479 8.30552 -4.5112 -6.89607 -1.03145 -0.279708 1.14394
478 8.21825 -3.84846 -7.51346 0.801069 1.00124 -0.835133
436 9.01454 -3.85988 -6.93 -0.25524 1.77637 -0.911569
483 -8.61725 -3.1956 -6.92964 -0.932601 1.33386 0.996042
531 -8.453 -1.65508 -6.83653 -1.28739 -2.4843 -0.0331547
770 -8.51199 -2.47561 -6.25321 2.19925 -0.336903 -2.54028
485 -7.54031 -2.97146 -7.7599 -0.113956 1.18007 0.158467
487 -6.94445 -3.20314 -6.91184 -0.754142 1.16254 1.47065
488 -7.77729 -2.30823 -6.96151 1.68241 -0.0199582 1.91688
774 -7.03485 -2.50209 -6.3437 -0.23471 0.464372 1.02321
491 -5.42206 -3.24848 -7.00281 0.682787 0.719546 -0.966415
492 -6.09309 -2.40921 -6.9292 -1.56238 0.667195 1.37697
778 -5.27298 -2.33852 -6.17268 1.16601 -0.652415 -0.713136
495 -3.93564 -3.14236 -6.97021 -0.940979 0.433312 -2.4312
494 -4.03479 -2.43137 -7.69774 2.38986 2.09549 2.51002
496 -4.68292 -2.25569 -6.87496 0.511139 -0.182012 2.89694
782 -3.94395 -2.30235 -5.95452 -2.08329 -3.22026 1.35171
498 -2.21719 -2.33306 -7.59264 1.74359 0.0872938 -0.647171
500 -3.05559 -2.33291 -7.11698 1.46923 1.2173 1.48964
547 -2.37829 -1.61256 -6.82017 0.367097 0.689885 0.572349
833 -3.1998 -1.68312 -6.19528 0.984362 -4.85792 0.747461
504 -1.48717 -2.3135 -7.00443 1.04094 -1.53091 -2.03418
551 -0.746228 -1.55199 -6.83528 1.8229 -1.53808 0.594379
837 -1.50071 -1.7737 -6.16194 -1.90635 0.498309 0.513318
508 -0.177837 -2.30143 -6.94045 0.806622 -0.746682 1.18688
790 -0.83833 -2.4268 -6.1134 0.00913996 -0.803059 -0.196688
506 0.862417 -2.29033 -7.58901 -1.76211 0.629435 -2.28678
512 1.49728 -2.20461 -6.78128 2.78556 -1.80344 -0.773664
510 2.21382 -2.18163 -7.73559 1.87607 0.281816 2.27913
511 2.29733 -2.96529 -6.96492 -0.889081 -0.909081 0.38634
516 3.07456 -2.42662 -6.66102 0.0188855 -3.1253 -2.27222
517 4.498 -3.00645 -7.66427 -0.555742 -3.37887 -0.572042