ITEM: TIMESTEP
101000
ITEM: NUMBER OF ATOMS
6912
ITEM: BOX BOUNDS pp pp pp
-9.2265715179435492e+00 9.2265715179435492e+00
-9.2265715179435492e+00 9.2265715179435492e+00
-9.2265715179435492e+00 9.2265715179435492e+00
ITEM: ATOMS id x y z vx vy vz
4 -9.17825 -8.58491 -8.58634 -1.3505 -0.398792 1.93413
8 -7.69025 -8.58376 -8.46228 -0.585448 0.673716 -2.45457
290 -8.4546 -8.53267 -7.71938 -0.214612 1.10695 1.54642
189 7.70278 -4.56204 -9.13434 0.76437 0.780961 0.96417
254 -3.76331 -0.785871 -9.16448 1.32347 1.11162 -2.4749
55 -7.10648 -7.66141 -8.47152 -1.23054 1.68541 3.1256
5185 -8.88613 -0.00512782 -0.0400654 0.72651 -0.355629 -0.28019
74 0.715389 -6.88562 -9.18803 1.49857 -1.00115 -2.70461
12 -6.27734 -8.72985 -8.40904 -2.67359 3.09443 0.918092
59 -5.70004 -7.7468 -8.41309 -3.82733 -1.52576 0.333058
238 8.38146 -2.40742 -9.03491 -0.898439 -0.0944107 -1.38342
16 -4.80566 -8.3375 -8.47365 0.178068 -2.14458 -0.55245
302 -3.95656 -8.44295 -7.80799 -0.287976 0.601797 -2.04409
197 -7.49957 -3.27715 -9.18859 -1.42966 0.363766 0.34417
20 -3.02435 -8.35462 -8.2662 3.37776 1.7925 -0.137914
67 -2.2273 -7.7336 -8.51651 -0.743366 0.990222 -2.01176
262 -0.802203 -0.770821 -9.20864 1.69265 -2.63744 -1.77287
3761 -3.04479 -0.0353888 -7.75607 0.459901 1.40552 0.461446
2010 6.88533 -0.632592 -0.135442 -0.940393 -2.97754 -0.452646
24 -1.61923 -8.46434 -8.61844 0.0625624 0.733741 -0.258768
71 -0.740582 -7.60766 -8.60315 1.63603 2.51348 -0.630544
28 -0.0886205 -8.40591 -8.5333 -3.15832 -1.81425 3.94038
361 0.0541618 -7.71995 -7.81552 0.66175 0.657019 1.80312
50 -8.49137 -6.88216 -9.23471 1.87817 -0.485355 -1.97647
32 1.44457 -8.46906 -8.50798 1.08939 1.41649 -0.927268
75 0.652715 -7.7342 -8.53031 0.897191 -0.0207071 -0.745046
21 -1.44754 -9.22795 -9.21181 2.16201 -2.44442 0.103217
36 3.26507 -8.14688 -8.58488 -0.433001 -1.48931 5.62908
331 6.90282 -9.13025 -7.04371 -1.659 -0.517246 -1.64752
79 2.40654 -7.66493 -8.53196 -1.93197 1.02384 -0.77106
40 4.64636 -8.2597 -8.49037 0.350375 -1.54115 1.44326
322 3.9989 -8.16489 -7.56974 -1.77103 2.35978 -0.218124
83 3.97179 -7.39473 -8.50009 -1.83763 0.981569 1.77351
373 4.62969 -7.49963 -7.73594 1.22904 0.284494 1.71693
157 -4.64363 -4.73392 -9.21744 2.86613 0.29923 -2.32639
44 6.11353 -8.30808 -8.45931 1.37248 0.796715 2.07354
14 -3.77724 -8.43481 -9.14823 2.75719 -0.202831 0.258036
48 7.91125 -8.27359 -8.3753 3.58876 0.530278 0.219403
1862 5.28868 -5.31419 -0.250881 -1.69063 -1.35018 0.0557505
877 -4.65322 -9.12438 -4.74259 -1.17314 0.802087 -2.0488
330 7.00912 -8.4206 -7.64336 0.640237 3.1894 1.30274
95 8.43183 -7.53442 -8.40255 -1.88434 2.64383 -2.09584
17 -3.18871 -9.19847 -9.22237 0.843412 -1.1673 -1.59495
106 -5.4114 -5.3846 -9.16557 -1.19615 3.43192 -0.114752
4363 6.98771 -0.0371573 -3.79715 2.45503 0.739653 0.245855
51 -8.3557 -7.79385 -8.42912 1.91912 0.0261073 -1.09817
337 -9.22143 -7.71386 -7.83158 0.442773 0.106633 2.69074
327 5.45291 -9.04405 -6.90378 -0.501685 0.709508 0.886583
56 -7.79133 -6.96001 -8.2901 -1.60767 2.05302 0.0707334
103 -7.02855 -6.28898 -8.29948 -1.46336 -1.65593 -0.524519
317 1.76241 -9.20476 -7.7125 0.707712 -0.637146 -1.62004
4615 -6.90403 -0.0287971 -2.34101 0.720929 0.931997 0.556421
60 -6.29565 -6.87261 -8.42761 -0.778458 -1.46024 4.20322
89 6.20455 -7.61868 -9.24256 -0.413404 -0.0198369 -1.11601
1878 -6.83471 -3.83718 -0.181828 -1.72278 1.09861 1.3503
63 -3.89779 -7.63178 -8.3999 1.81711 1.66869 -3.29893
64 -4.68726 -6.9023 -8.49945 -1.22428 -1.12432 0.114792
4655 8.63074 -0.0660998 -2.52666 -4.54116 -2.64062 1.35181
397 -4.58685 -6.36701 -7.65455 0.276592 2.50462 -1.68801
350 -3.78503 -7.11853 -7.53576 -0.811923 4.08335 0.276328
68 -3.09491 -6.80953 -8.34265 0.797951 1.87167 1.23954
401 -2.89376 -6.10964 -7.67787 -0.0334925 1.51091 0.295389
353 -2.99922 -7.58828 -7.74765 -0.866085 -0.571657 -0.092152
613 4.68805 -9.08622 -6.23733 -0.85177 1.11007 -0.0887168
72 -1.36558 -6.91213 -8.56586 -0.216121 3.34052 -0.368196
1793 -3.01235 -7.6932 -0.0448189 2.41494 -2.09526 1.27228
76 -0.177688 -6.85545 -8.51575 -0.133042 -0.419251 -0.281892
4611 -8.38279 -0.108102 -2.53967 1.20456 0.227491 2.92574
109 -4.69246 -6.05243 -9.04379 0.891108 -1.63696 -0.660252
80 1.54252 -6.70146 -8.57165 -1.06928 1.40565 -0.208694
84 3.17356 -6.89306 -8.53472 -0.67276 -0.943008 0.0245127
127 2.35088 -6.01328 -8.37871 -1.46744 -2.03396 -3.73668
417 3.21587 -6.2702 -7.65908 3.08898 -1.09576 -2.11696
366 2.29791 -6.92548 -7.76333 -1.80614 0.341916 2.09297
88 4.74865 -6.77933 -8.39105 -1.94151 -0.129606 1.56854
421 4.66433 -6.28165 -7.5198 1.37395 0.643263 0.369759
370 3.94006 -6.95492 -7.47738 0.11768 0.703775 -3.35411
577 9.16817 -9.13571 -6.04035 -0.453004 -0.385193 1.59858
87 5.417 -7.50692 -8.35521 -2.94336 -0.00720264 0.2468
4067 3.8092 -0.075313 -5.26239 -1.69342 -0.389454 0.71934
92 6.28895 -6.78698 -8.54167 0.327239 -1.7625 1.96218
135 5.33534 -6.03411 -8.43822 -1.06154 1.7369 -0.907678
377 6.19016 -7.58141 -7.54809 1.43509 -0.458159 -1.94461
91 7.09288 -7.52999 -8.37515 0.405309 -2.04491 2.9376
96 7.74393 -6.74506 -8.51284 -0.832267 -0.0309995 -2.36822
378 6.92149 -6.8633 -7.7382 -0.865814 -0.0287403 0.463401
429 7.72054 -5.99555 -7.50535 2.03957 -2.51812 1.59135
194 -8.30152 -2.58741 -9.17707 1.2181 -0.458921 2.68955
52 9.18604 -6.77655 -8.52106 0.161984 -1.89681 -2.57208
382 8.66132 -6.89443 -7.71597 0.20449 3.90578 4.05982
99 -8.42683 -6.21052 -8.41416 -0.497889 1.52088 -0.520228
100 -9.11483 -5.29488 -8.37994 -2.0181 1.33948 0.320315
386 -8.39768 -5.38159 -7.59583 0.00122263 1.98175 5.25942
146 -8.37024 -4.63677 -8.26363 -1.27531 0.707937 0.843612
5209 -0.355507 -0.249154 -0.148344 0.664559 1.07728 -0.291928
1894 -0.626954 -3.83662 -0.106012 0.583794 2.95492 -2.39895
104 -7.71169 -5.45051 -8.44436 1.90363 1.33588 1.1735
151 -6.93371 -4.68225 -8.38185 0.936283 1.35965 0.81542
1849 -0.0671384 -5.87141 -0.0131651 -2.61691 -0.700651 0.334294
1893 -1.47297 -4.50319 -0.0451101 0.432168 2.06835 -0.685598
107 -5.49516 -6.21924 -8.35857 -0.873051 -0.726066 -0.80375
108 -6.35587 -5.50091 -8.37678 -3.16417 1.95414 -0.749864
394 -5.26475 -5.48433 -7.49741 2.86875 -3.10774 0.130803
155 -5.33057 -4.68606 -8.3313 -0.417862 -2.77296 0.43229
1997 1.50201 -1.62636 -0.0401346 0.0506239 -2.15805 -1.38787
111 -3.81649 -6.20353 -8.46128 0.37605 0.0688316 -0.624758
112 -4.57988 -5.44592 -8.31928 1.60562 -0.573394 -1.05064
398 -3.73954 -5.55215 -7.72665 1.33824 -2.27913 -2.68915
159 -3.77089 -4.61888 -8.45871 0.530949 0.754527 -0.257009
115 -2.19078 -6.21146 -8.5159 3.65655 -0.794719 -1.33548
116 -2.97339 -5.43134 -8.5154 -1.33454 0.263573 -1.23719
402 -2.15948 -5.41021 -7.88528 -1.24573 1.05372 -2.24596
163 -2.27425 -4.71714 -8.6633 1.23472 0.00269451 -3.32266
119 -0.757048 -6.03686 -8.45512 -0.518186 -1.015 1.23185
120 -1.41551 -5.34318 -8.48112 -1.32551 -1.67654 1.6791
167 -0.651117 -4.47599 -8.61721 -2.77238 -2.3953 -1.30015
406 -0.625346 -5.18483 -7.88298 0.0631086 -0.353 -2.04325
3489 2.98747 -0.208475 -9.14948 -1.72825 0.522861 -0.241078
124 0.0767363 -5.25425 -8.69738 -1.70854 -0.180439 3.21322
457 0.134554 -4.51531 -7.96025 -1.03768 -1.08631 -1.66347
123 0.693506 -5.99376 -8.39494 1.00436 1.02745 -1.12511
128 1.61108 -5.39324 -8.42064 0.181542 0.854381 -0.292832
413 1.59306 -6.10836 -7.64701 -0.770797 0.709076 1.47573
171 0.874628 -4.71131 -8.69079 0.869945 -0.56986 -1.66983
461 1.78852 -4.55384 -7.92359 1.85033 0.863845 -0.825865
1185 3.0481 -9.0978 -3.17603 0.654352 -0.940797 -1.72836
305 -3.10038 -9.2381 -7.75628 2.98573 -1.79809 0.815213
132 3.22745 -5.42173 -8.53681 0.026362 0.852039 -0.297088
414 2.62404 -5.31342 -7.77167 0.0996179 -2.39063 -0.272571
131 3.97827 -6.08353 -8.56595 0.835754 -2.23235 -0.0356482
136 4.50807 -5.34238 -8.45909 -0.642561 -0.239055 -0.0610285
179 3.80382 -4.54885 -8.45498 0.0442824 0.502766 0.932118
418 3.83389 -5.2807 -7.75677 -0.559294 -0.523319 0.582045
140 6.03106 -5.29656 -8.42686 1.6859 -0.923486 0.651471
422 5.30223 -5.51581 -7.68756 0.944124 -0.648358 -1.20143
183 5.2494 -4.65184 -8.2036 -0.676518 2.57947 0.124276
1798 -0.793561 -6.82069 -0.107041 3.0643 -1.1288 2.91284
139 6.8815 -5.99574 -8.50052 -0.871804 -2.16997 -0.5105
187 6.80187 -4.62035 -8.2371 1.1736 0.852232 2.3319
477 7.62689 -4.64155 -7.5992 0.483535 -0.841741 1.1257
144 7.63492 -5.27394 -8.34914 1.55619 -2.76462 0.138238
143 8.53489 -6.08005 -8.19813 -1.06363 2.31151 0.176582
433 9.13144 -4.5465 -7.77273 -2.35857 -1.43694 -0.785491
385 -9.07041 -5.99779 -7.67282 -0.156093 -1.10487 3.34806
434 -8.5182 -3.93383 -7.6516 0.176535 0.922705 1.76492
148 9.00306 -3.72834 -8.36115 -0.924137 2.03332 -0.38306
195 -8.60939 -3.35669 -8.4365 1.02604 0.562122 0.197515
152 -7.61849 -3.82101 -8.30468 -0.388178 2.30658 -1.76641
438 -6.82214 -3.80828 -7.7135 -0.00912376 -0.127192 -0.513383
4075 6.88907 -0.0898133 -5.30884 2.12874 0.993123 2.20517
441 -6.14252 -4.6189 -7.77482 2.53018 0.22958 0.156404
156 -6.15378 -3.88259 -8.528 2.69179 0.262881 0.215159
153 -6.04935 -4.58679 -9.1734 -1.2952 0.650888 0.480358
1717 4.6021 -1.55394 -1.66113 -2.49013 2.38269 0.806527
160 -4.47844 -3.92511 -8.36786 -0.27387 -0.416392 -0.00447486
446 -3.74067 -3.80207 -7.72011 0.832687 -2.42342 -2.4613
164 -2.90951 -3.90867 -8.66997 -0.414061 -4.16055 -0.508008
450 -2.30019 -3.86613 -7.92192 -2.69023 -1.37064 1.37543
211 -2.24404 -2.94769 -8.64333 -0.849563 0.313666 2.43182
168 -1.50116 -3.81397 -8.54383 -0.83813 2.03352 -1.66697
501 -1.46433 -2.99805 -7.7191 2.91915 -3.16163 1.73053
4937 6.14751 0.0224048 -1.68674 0.606767 1.89626 0.173355
5189 -7.66084 -0.0865287 -0.0263099 0.421323 0.0314715 0.342176
172 0.0237099 -3.77238 -8.50636 -1.88158 0.433719 1.46393
458 0.827899 -3.91492 -7.75436 -0.648123 -2.7632 0.183558
323 3.83844 -9 -7.07414 -0.327375 1.00631 1.29031
176 1.55341 -3.7429 -8.48811 0.784894 1.46762 -0.639418
509 1.53932 -3.05529 -7.71181 -1.89691 0.573523 -2.27473
465 3.03899 -4.36376 -7.67163 -1.32977 2.00542 0.16756
175 2.61405 -4.5585 -8.67539 0.912759 1.41982 0.57279
180 2.99247 -3.67803 -8.44523 -0.116653 0.506328 0.981298
462 2.29494 -3.68206 -7.67673 -0.840819 0.794156 -0.328544
469 4.47386 -4.54897 -7.59304 -0.539971 -0.942468 1.07916
184 4.72137 -3.82511 -8.44778 0.956371 -0.485563 0.410602
466 3.78784 -3.57606 -7.43288 -0.00445024 0.0424562 -1.10925
1714 3.9152 -0.466112 -1.41506 -0.388053 1.17257 -0.802876
188 6.10546 -3.86549 -8.33731 0.768439 2.23734 0.176673
231 5.33493 -3.15737 -8.46459 1.61001 0.214435 0.117568
470 5.36052 -3.92805 -7.62889 2.53754 2.67759 -2.59441
521 6.0216 -3.04604 -7.70218 0.0427551 -0.688369 1.43725
192 7.55523 -3.82373 -8.3903 0.706539 -1.07709 -1.61277
235 6.83346 -3.00021 -8.47016 0.304258 -1.00142 -0.446483
191 8.39772 -4.57105 -8.38548 2.67705 -1.1486 0.119885
333 7.60161 -9.10019 -7.99297 -0.136321 2.24776 1.29607
482 -8.462 -2.36036 -7.87708 -0.685182 0.188299 -0.614139
196 9.23288 -2.42609 -8.57779 2.0114 1.18904 -0.412557
199 -6.86416 -3.14381 -8.54476 -2.01181 -0.80813 -1.29047
200 -7.56046 -2.25102 -8.50527 -0.909961 1.58853 0.229366
485 -7.71245 -3.09003 -7.69426 -1.42669 1.10142 1.07296
203 -5.46248 -3.17095 -8.34345 -0.958123 -1.02575 -3.19555
204 -6.13631 -2.45412 -8.40665 -1.02422 -1.8972 -1.87489
1445 -7.72299 -9.11107 -1.50114 0.418618 -0.782864 -1.07632
207 -3.6812 -3.17848 -8.54135 -0.752805 -0.116407 3.67071
1720 4.72278 -0.698104 -0.826243 1.7425 1.4576 1.91181
208 -4.36973 -2.34178 -8.50322 0.199849 -2.22569 -0.659865
493 -4.49784 -3.09853 -7.91445 -1.1248 -0.507899 0.865474
494 -3.88779 -2.1487 -7.61418 0.879461 0.988335 -1.25722
3791 8.43561 -0.137968 -6.98688 -0.321505 0.742047 2.76171
212 -3.03027 -2.39943 -8.57814 -1.21479 -0.0286646 0.634357
545 -2.91492 -1.58278 -7.99964 -1.61514 -1.6226 -0.466903
591 -3.78138 -9.18997 -5.19947 -0.525432 -0.806196 -1.25743
603 0.869131 -9.1592 -5.34793 -0.241362 0.851776 -0.272773
215 -0.506963 -2.99378 -8.6131 -2.40812 0.875287 -2.04765
216 -1.47843 -2.33407 -8.47849 -2.20571 -1.18932 -0.439011
502 -0.555425 -2.38195 -7.59386 -1.75798 -2.14166 -0.261763
220 0.0326337 -2.1814 -8.51623 -0.248768 1.13272 1.72474
3767 -0.708093 0.00811911 -6.96447 -0.0350115 0.909438 -0.385844
505 -0.0875547 -3.16857 -7.50869 -0.682279 3.17282 -0.196822
219 0.652249 -3.05681 -8.36728 1.63874 -3.48932 -1.7571
224 1.37592 -2.24444 -8.41557 1.92054 -1.37427 -3.76133
506 0.670917 -2.29701 -7.63127 2.53157 -1.49227 1.44653
223 2.21704 -2.90468 -8.52077 2.66834 -1.21692 -0.588771
228 3.12023 -2.33555 -8.4377 -0.378417 1.52307 1.23914
513 3.02206 -2.92948 -7.67956 -1.92908 -0.0801252 -1.76505
1197 7.93185 -9.24034 -3.15426 -0.00932519 -1.277 -0.246104
2014 8.77045 -0.655414 -0.109748 2.14372 0.77245 -0.306454
227 3.94272 -3.07667 -8.39497 0.185777 -0.448203 -3.42569
517 4.70531 -3.02596 -7.78311 3.83224 -1.5587 -0.0117282
232 4.73361 -2.18152 -8.57539 -2.8236 -0.78843 0.615086
275 3.74365 -1.46965 -8.24899 -0.308597 -1.68979 0.113775
514 3.7761 -2.33841 -7.7012 0.653036 0.200541 0.972239
236 6.08276 -2.39957 -8.3866 -0.600839 -0.41906 1.70508
518 5.32721 -2.04821 -7.77499 4.49089 -1.0273 -1.44534
240 7.58895 -2.25241 -8.41055 1.27892 -1.75003 -0.44884
522 6.8029 -2.22354 -7.6522 -1.45178 -0.759549 0.262271
525 7.39309 -3.16837 -7.54878 -1.21493 0.349488 -1.05497
4613 -7.60038 -0.0541922 -3.08849 0.253757 -0.287526 -0.0077281
77 1.48276 -7.59944 -9.12358 1.37965 1.09396 0.955771
239 8.2271 -3.08923 -8.31541 -1.9105 -1.61783 0.823092
526 8.33399 -2.1619 -7.65647 -0.271436 1.17283 -2.13069
243 -8.39587 -1.64457 -8.51194 -1.0955 0.815347 -0.418672
244 9.08949 -0.858634 -8.48523 -0.873617 -0.67452 1.75049
530 -8.59972 -0.86122 -7.66544 0.869999 2.22638 0.771038
247 -6.84627 -1.59611 -8.47482 -1.74907 -2.53891 -0.938573
533 -7.74407 -1.71406 -7.60374 4.38196 -0.495596 -0.382546
248 -7.70374 -0.886061 -8.2596 -0.0843781 0.470483 -1.12461
4055 -0.925818 -0.0027462 -5.32185 2.63081 -0.422785 -0.963735
62 -3.98857 -6.91481 -9.15955 2.9799 0.783117 0.21116
251 -5.27257 -1.73482 -8.46192 0.988208 -3.50148 -1.62155
252 -6.22568 -0.826563 -8.67779 0.985682 -1.11306 0.891797
1930 -5.3851 -2.32862 -0.120129 -2.20403 -1.42713 0.330723
1821 7.51063 -7.80404 -0.0946512 0.375303 -0.206316 -1.07627
4901 -7.52136 -0.0600419 -1.6793 -0.897781 1.68942 1.50308
49 -9.13531 -7.7162 -9.222 3.3298 -0.590492 -0.36497
154 -5.22738 -3.83039 -9.07598 0.13899 -1.71291 3.71628
255 -3.78714 -1.51478 -8.51411 -1.01275 2.26396 1.69757
256 -4.71269 -0.798412 -8.41909 -2.34231 0.206128 0.35189
4337 -3.17062 -0.0958547 -4.56399 -0.561036 -1.14168 1.74722
259 -2.10364 -1.56545 -8.52743 -0.700068 2.11416 0.00409178
260 -3.0387 -0.780671 -8.47479 0.0702631 -0.972833 -0.494103
546 -2.31887 -0.729356 -7.63846 -1.18674 -1.06637 -2.85178
263 -0.76883 -1.51333 -8.51361 0.00575867 1.01788 -1.12559
264 -1.53351 -0.707983 -8.45654 -0.407783 0.840896 2.90957
549 -1.49013 -1.60827 -7.848 2.32825 -2.10933 -1.45681
3463 -7.0164 -0.241127 -8.60071 1.98186 -1.15627 1.03934
4033 9.0938 -0.00463679 -6.13262 -1.12823 0.783141 -2.83655
218 0.81913 -2.25324 -9.25484 0.586914 0.27821 -2.52472
267 0.714412 -1.49282 -8.34442 1.31602 1.37672 1.08899
268 0.0729898 -0.754429 -8.44436 -3.03867 -1.68423 0.326146
554 0.680603 -0.669953 -7.58702 0.930119 1.13713 -0.615346
1962 7.00741 -2.21852 -0.0745571 -0.273352 -2.05442 1.7342
272 1.42441 -0.757245 -8.28563 -1.3458 2.70833 1.69541
557 1.42196 -1.57348 -7.47207 -2.19144 -1.94035 0.72133
271 2.13078 -1.55066 -8.23696 2.01667 -1.51528 1.34415
276 2.91742 -0.762921 -8.2287 -0.578149 -1.18357 0.558633
558 2.27257 -0.814054 -7.43466 0.635213 -1.37587 1.90084
1171 -2.33376 -9.13379 -2.27618 -0.298247 -0.0349196 -0.547825
280 4.67334 -0.725748 -8.41771 -0.895967 -0.738805 -1.96823
565 4.56701 -1.39238 -7.79 0.981149 -0.102998 0.216873
1157 -7.58135 -9.20251 -3.05096 -1.35462 -0.718808 0.860126
562 3.77502 -0.69259 -7.5979 -0.15375 0.451133 -0.0514668
3757 -4.51839 -0.00455617 -7.72931 -0.346809 0.504729 3.41327
4327 -6.81309 -0.298264 -3.85289 0.5634 1.33556 -0.880703
279 5.49629 -1.41592 -8.69426 -1.4569 -3.02941 2.23858
569 6.21231 -1.34789 -7.91967 -1.40324 0.711959 -1.50942
284 6.08033 -0.621163 -8.58766 -1.35564 -2.55074 0.300162
566 5.53945 -0.714294 -7.64467 -0.00528207 -0.588355 -0.512229
1757 1.68645 -9.24772 -0.164107 1.08381 -1.53765 -2.67866
283 6.92513 -1.50661 -8.52012 0.176328 1.11012 1.44927
288 7.55412 -0.733949 -8.4663 -0.55778 -0.935895 1.16094
94 8.35348 -6.88806 -9.18042 0.425477 -0.834926 -0.737469
129 3.03887 -6.20366 -9.11372 2.52951 -1.77483 -0.108828
287 8.31995 -1.53748 -8.47686 0.299679 0.395382 -2.40289
599 -0.944224 -9.17746 -5.49508 -1.00201 -1.97544 -0.324245
294 -6.95771 -8.47476 -7.78621 -1.59636 0.79311 -4.40743
58 -5.43435 -7.12349 -9.16241 0.72647 -2.77539 -2.17401
4899 -8.24147 -0.227938 -0.897206 -1.12159 -1.98408 -1.36182
296 -7.73421 -8.44328 -6.98692 -0.64058 2.50012 3.72437
343 -7.02212 -7.76769 -6.9733 -2.12231 0.0536193 0.956387
325 4.77074 -9.20617 -7.67358 1.34835 -1.48765 1.10091
298 -5.35452 -8.53243 -7.62372 1.38672 -0.831837 0.239127
300 -6.25798 -8.71285 -6.89284 -0.640568 0.659 4.60008
345 -6.29408 -7.8143 -7.71378 -2.22366 -0.382547 2.85052
586 -5.47276 -8.45012 -6.21549 0.69198 -1.47665 0.585861
883 -2.2175 -9.126 -3.84553 -0.462878 0.133891 1.195
304 -4.57917 -8.52059 -6.74354 1.87484 0.983181 0.0476129
351 -3.83762 -7.76246 -6.87206 0.524531 1.97126 2.37471
590 -3.69813 -8.44857 -6.18503 -1.31053 0.52973 1.69764
308 -3.04849 -8.35811 -7.15353 -0.386471 -0.719458 -2.17998
641 -2.96325 -7.71022 -6.28976 0.613391 -3.59177 -1.32294
306 -2.22728 -8.49767 -7.75094 2.84484 -0.463068 -2.85259
355 -2.16784 -7.68187 -6.97606 -0.300712 0.63036 -0.00491674
594 -2.38965 -8.48626 -6.18703 -0.655535 1.95892 0.683789
357 -1.5383 -7.73961 -7.87179 -3.03125 0.298006 1.47053
312 -1.49247 -8.52095 -6.94932 0.519869 -0.695381 -0.0910766
645 -1.49619 -7.70944 -6.21594 -1.88451 -1.38117 -1.7965
314 0.740489 -8.4072 -7.69829 -1.00558 1.3657 -0.390651
310 -0.796613 -8.27209 -7.66303 -3.61222 2.32979 1.45871
316 -0.0494343 -8.35469 -6.90764 0.017657 -0.659645 -1.0039
359 -0.657854 -7.64369 -6.84366 -0.392599 -0.171916 0.477977
363 0.725149 -7.66762 -6.99726 1.46166 -0.0426135 -0.203
320 1.58431 -8.40025 -6.84443 0.210867 -1.58666 -0.549277
606 2.38036 -8.42123 -5.97721 -2.94134 -0.0760002 0.146234
318 2.24622 -8.29894 -7.73745 -0.387069 0.299153 1.91764
369 3.17121 -7.56098 -7.6889 -0.932015 1.51228 -1.26533
324 3.07566 -8.41247 -6.83557 0.28065 -2.3815 0.322935
367 2.23211 -7.65365 -6.76861 -0.762106 1.39475 1.86541
15 -3.85058 -9.23546 -8.4461 0.760503 -0.644004 0.0929319
1749 -1.55288 -9.23523 -0.142963 1.48717 -1.4008 0.755886
328 4.7061 -8.34021 -6.89101 0.614652 1.49225 0.773997
371 3.90716 -7.58805 -6.71012 -0.0699112 -0.0847842 0.113345
1797 -1.458 -7.74718 -0.180423 -2.57235 -0.788228 -0.949192
326 5.41455 -8.24747 -7.68551 -2.23881 1.10942 -2.93704
332 6.32935 -8.36436 -6.96843 -0.403495 -0.220052 1.17292
614 5.52023 -8.41918 -6.15442 0.375809 -0.505654 -1.02935
241 9.23691 -1.60414 -9.15319 2.29308 0.705086 0.933884
249 -6.10918 -1.74249 -9.22573 -0.931557 1.03418 -1.3009
336 7.54246 -8.51886 -6.85456 1.01458 2.56447 -0.655883
3491 3.81931 -0.191364 -8.70245 0.579332 1.09506 1.3458
334 8.58886 -8.43164 -7.79575 1.64367 -0.767054 1.3181
292 8.94429 -8.60508 -6.87284 -0.483508 1.90718 1.23884
338 -8.53548 -6.92429 -7.63169 -0.267372 1.23499 0.638705
339 -8.68806 -7.82699 -6.88888 -0.338647 2.99598 -1.26447
344 -7.79861 -6.80101 -6.84368 0.523102 3.963 1.42915
389 -7.79879 -6.11499 -7.55104 0.841476 -0.326298 0.108576
342 -7.02532 -7.02195 -7.63562 -0.414562 -1.75217 -0.702776
341 -7.73588 -7.77813 -7.71788 0.101791 0.203526 -0.989821
391 -7.00173 -6.03447 -6.85529 -0.236108 1.62428 2.04344
347 -5.44912 -7.78403 -7.00843 -2.91249 -1.36372 0.838693
346 -5.41029 -7.07251 -7.78753 -0.124804 0.890878 -1.43393
348 -6.09569 -6.87869 -7.03877 0.0960919 0.424693 0.487642
393 -6.19108 -6.12639 -7.53081 -1.7194 -2.48672 1.65373
349 -4.74165 -7.6719 -7.78184 0.367007 2.02174 -0.140273
352 -4.6473 -7.06695 -6.96171 1.36486 1.64736 0.523631
356 -2.87384 -6.8875 -6.7595 1.81713 -5.37815 -0.54405
642 -1.89175 -6.68202 -6.23263 -2.44997 -0.762757 1.9193
403 -2.1402 -6.25342 -7.06508 -1.54806 1.94582 2.11204
354 -2.24993 -6.9264 -7.75166 2.06662 -2.91633 0.514714
405 -1.52813 -6.25174 -7.85772 -1.86814 1.66333 2.08535
360 -1.32169 -7.03054 -6.9816 2.69872 -3.06196 3.1318
646 -0.834047 -6.8865 -6.12907 1.05241 2.57078 -0.719458
409 -0.129427 -6.131 -7.68499 0.476839 -1.1752 2.90941
358 -0.705278 -6.98954 -7.75887 1.95919 0.154254 0.0305814
364 0.142227 -6.8308 -6.90967 -0.186931 -1.24018 1.81932
365 1.51121 -7.48159 -7.91609 -0.411286 0.378261 -2.58438
362 0.630462 -6.91399 -7.79154 -0.282722 -1.36402 1.24415
368 1.22505 -6.81349 -6.84832 1.54664 1.34508 -2.1056
411 0.782864 -6.0551 -6.997 -0.808506 -0.396598 1.82182
650 0.711165 -6.8434 -6.02648 0.582385 -2.09737 1.99676
372 3.02586 -6.94328 -6.76355 0.0205124 3.00828 -1.68954
654 2.29839 -6.8706 -6.08517 0.563939 -0.612129 2.6706
705 3.07722 -6.11402 -6.21609 0.983367 -1.68845 0.0884157
415 2.3689 -6.24142 -6.92022 -0.113049 -0.692297 -0.38803
657 2.99782 -7.74003 -6.1231 0.71077 3.56897 -3.23792
376 4.6628 -6.89352 -6.69502 -1.32979 1.22778 0.153648
375 5.51847 -7.67117 -6.78563 -0.596705 -3.31724 -1.09293
374 5.46643 -6.9262 -7.53943 1.20134 0.552005 -1.94401
380 6.26313 -6.72832 -6.70295 -0.984967 2.04213 0.604446
423 5.45414 -6.07396 -6.84 -1.81758 -2.15418 1.14298
662 5.5408 -6.9465 -5.94722 -0.478339 1.87531 -0.438602
381 7.75023 -7.76426 -7.6075 0.396927 -0.283345 2.02652
379 6.91539 -7.46013 -6.94185 1.69369 -1.51066 -0.243372
384 7.74223 -6.88581 -6.93791 1.46894 1.10429 -0.10121
427 6.85107 -6.01656 -6.8483 -0.686537 1.24976 -0.479217
383 8.36432 -7.62111 -6.81854 -1.20994 0.288131 -0.64831
340 9.08364 -6.87334 -6.80162 -0.126321 -1.76713 -2.786
670 8.32511 -6.81078 -6.07737 -0.0892251 -1.89463 2.22158
431 8.42146 -6.11795 -6.69134 0.0325559 1.35942 0.734061
387 -8.6775 -6.13971 -6.88649 -0.604598 0.868511 0.367842
673 9.25364 -6.11227 -5.93656 1.73105 0.700563 1.79945
674 -8.37448 -5.39626 -6.15116 -2.93215 1.32131 3.3536
435 -8.41362 -4.65011 -6.92163 -0.118115 -1.45052 0.379952
390 -7.09344 -5.38132 -7.72143 0.892709 -0.151505 0.492572
437 -7.67733 -4.54476 -7.61709 -1.72588 0.585852 2.00694
392 -7.62728 -5.18224 -6.86734 -3.89337 1.781 0.316046
439 -6.84064 -4.33924 -6.8724 -0.362115 0.94909 3.27456
677 -7.54291 -5.99825 -6.0722 0.976201 0.617664 -0.444768
395 -5.25792 -6.40548 -7.0077 0.0673593 -0.862694 0.547678
396 -6.17915 -5.22977 -7.01552 -0.233314 -2.237 -2.02585
682 -5.22297 -5.36221 -6.32611 1.85664 -0.633358 -2.6794
399 -3.74819 -6.22598 -6.90346 -0.927403 -2.28707 -1.4925
400 -4.46701 -5.51832 -7.05765 1.34011 -0.903316 -1.05154
686 -3.92943 -5.47812 -6.17027 0.893661 0.696561 -3.3663
445 -4.54482 -4.58586 -7.69885 1.86785 -0.426125 0.4337
449 -3.0103 -4.51622 -7.79055 0.218493 0.482744 -1.02482
404 -3.18301 -5.49839 -6.95043 -0.809531 0.764371 -0.329987
690 -2.35013 -5.23043 -6.51914 -0.919808 -0.174399 -2.3129
737 -3.17823 -4.77062 -6.30459 -1.05724 0.371435 -0.634013
453 -1.52256 -4.64252 -7.78045 -1.69393 -1.01521 1.86554
407 -0.929384 -6.16151 -7.03949 0.851402 -0.0143833 -1.39507
408 -1.31618 -5.33879 -7.21939 1.24223 1.38887 -0.378919
693 -1.50702 -5.80474 -6.26416 0.26525 -2.71964 2.70507
694 -0.780587 -5.20213 -6.30781 -2.84162 -1.25216 -0.374431
412 0.00954058 -5.39441 -6.92968 1.1276 1.8559 0.309287
697 -0.110551 -6.14036 -6.27017 2.88539 -0.341795 -0.795281
701 1.54865 -6.13721 -6.17847 -1.80692 0.39899 -0.14018
698 0.706748 -5.48564 -6.06765 -1.26926 -3.49715 -0.120543
410 0.877445 -5.1905 -7.80301 0.255017 -1.53194 -0.376282
416 1.34345 -5.33889 -6.79523 -0.23681 2.01915 1.03639
459 0.773633 -4.59701 -6.85982 0.517882 1.9477 -1.80635
420 3.0743 -5.38386 -6.91713 1.31343 -1.85889 1.48581
702 2.28322 -5.41765 -6.222 0.386058 -0.540034 -0.21581
419 3.7934 -6.05469 -6.90852 -0.564709 -1.51796 -0.64763
424 4.5448 -5.36807 -6.94171 3.45614 -1.63125 -1.26843
706 3.83455 -5.4747 -6.09963 -0.836151 -0.487291 -1.66651
425 6.17136 -6.08419 -7.7334 -1.60818 -0.532258 1.632
473 5.97397 -4.65243 -7.61616 0.992264 -0.749862 -1.99289
428 5.99411 -5.29316 -6.80423 -0.684504 0.580869 -0.929757
426 6.90236 -5.42055 -7.61298 -2.2511 -1.37317 -0.867741
432 7.73796 -5.30515 -6.8282 3.18739 3.94193 -1.29029
475 6.86708 -4.64706 -6.75787 0.499515 -1.02982 -1.04364
717 7.64089 -6.09566 -6.04303 -3.60953 -0.849292 1.6978
765 7.65902 -4.78095 -6.00236 1.16333 0.650543 1.60723
388 -9.16203 -5.34213 -6.85714 0.429402 4.8024 -0.27236
721 -9.15944 -4.53166 -6.12153 -3.19916 -0.15458 -0.96507
430 8.5681 -5.2537 -7.60898 2.0557 -0.948094 0.714391
718 8.52049 -5.29719 -6.0199 -0.449486 -0.758046 0.458708
479 8.54811 -4.52463 -6.8404 -0.342462 -0.384237 0.722839
481 -9.07429 -3.07172 -7.67402 -0.260997 1.08405 -1.9759
436 -9.16097 -3.81731 -6.88728 1.60362 -0.0781659 0.897123
440 -7.52631 -3.63534 -6.86141 1.75474 0.873387 0.254511
725 -7.76584 -4.46998 -6.11214 -1.70838 -1.88906 -1.50796
726 -6.97378 -3.89655 -5.93957 -1.18479 -1.16755 0.743688
442 -5.25852 -3.90947 -7.71243 0.741758 -0.968542 0.0712384
443 -5.3963 -4.635 -6.89218 -0.90159 2.70045 -0.306598
444 -5.90295 -3.68368 -6.83076 1.23633 2.1775 -2.32621
730 -5.23137 -3.68067 -6.16265 0.71057 -0.327707 -0.723141
447 -3.77173 -4.6374 -7.011 -0.760653 2.78209 -1.25575
448 -4.43856 -3.89271 -7.06246 2.81544 0.329736 -2.65264
495 -3.82896 -3.11399 -6.8378 0.41719 -1.53018 -2.97286
451 -2.26734 -4.34424 -6.97004 1.20992 -0.540037 1.18581
452 -2.98046 -3.66105 -6.96743 -0.510472 -3.77715 -2.16184
738 -2.25293 -3.83098 -6.05731 -0.202824 0.860923 0.937745
499 -2.17472 -3.13638 -6.88952 -2.86188 0.641183 0.706265
497 -3.05309 -2.88584 -7.68132 2.44306 0.703261 3.19961
741 -1.63521 -4.70212 -6.21994 2.32449 -3.33371 -1.73304
455 -0.506389 -4.65636 -7.08413 -0.433357 0.166559 -0.69306
456 -1.36989 -3.9778 -6.76056 -0.535791 2.54676 -0.736388
742 -0.635577 -3.85339 -6.07016 -0.62719 0.323831 0.421016
789 -1.53655 -3.13783 -6.02058 0.30176 1.00339 -1.53311
454 -0.875339 -3.85 -7.74103 -0.715894 0.570415 -1.20133
745 0.0185479 -4.63142 -6.16776 0.871925 1.47159 -0.923077
460 0.0811472 -3.70505 -6.73862 -0.421508 3.19361 0.68825
464 1.40448 -3.80525 -6.9719 -1.18106 0.436594 1.48691
746 0.754447 -3.7043 -6.09662 1.48366 0.588225 0.71866
749 1.43588 -4.62046 -6.12556 -0.74731 2.73087 1.42117
750 2.1278 -3.90676 -6.08417 -0.240555 0.339084 2.14612
463 2.25091 -4.64238 -6.97704 -0.963908 0.365236 0.0806722
468 2.9092 -3.84024 -6.82375 -2.00302 -0.411986 0.789329
753 2.96654 -4.5799 -6.06418 -3.08173 -3.28077 -1.65946
467 3.64683 -4.53402 -6.99742 0.594514 -0.767001 -2.64973
757 4.50216 -4.75329 -6.10101 0.428112 0.636673 -1.66421
472 4.62742 -3.73315 -6.84613 -0.688689 -2.8072 -2.31932
754 3.69251 -3.86602 -6.25915 1.78155 -1.93638 -0.0117875
761 5.9296 -4.52426 -6.13931 -0.912766 0.264438 1.31669
471 5.25422 -4.70366 -6.81131 0.528091 2.62499 3.70898
476 6.01658 -3.90211 -6.81902 0.128039 -0.230625 -0.66623
758 5.29245 -3.86903 -6.01181 1.1868 -0.0128385 3.01017
809 6.038 -3.00116 -6.04698 -1.81336 -1.39422 0.91198
474 6.68741 -3.95248 -7.53352 -0.278317 1.58707 -0.330108
523 6.75826 -3.17442 -6.8082 -1.46217 1.30453 0.896417
762 6.73442 -3.88839 -6.15533 -0.850316 1.34638 -0.523974
478 8.49764 -3.85165 -7.52502 -2.01636 1.57381 -0.448223
480 7.64092 -3.82782 -6.83206 1.39777 2.58009 -4.39882
766 8.31919 -3.9111 -6.0739 -0.444364 -1.14488 1.30681
483 -8.39231 -3.14145 -6.89455 -0.58128 -0.526531 -1.70141
531 -8.4101 -1.62881 -6.87498 -0.0120714 -1.28636 -2.13638
484 -9.23008 -2.26876 -7.10019 -3.48091 0.955608 -0.492232
769 9.0567 -3.00648 -6.43822 0.845192 -0.140005 -3.568
487 -6.79392 -3.0916 -6.62464 0.414054 -0.0917996 -1.35952
486 -7.04316 -2.37806 -7.5461 0.424973 -2.2294 -0.325158
488 -7.66528 -2.38129 -6.60646 1.04285 1.3746 -1.31769
774 -6.78027 -2.06836 -6.01051 -2.36968 -0.317551 -1.62364
490 -5.14268 -2.3983 -7.68151 -0.605233 -2.40055 -0.504311
489 -6.33374 -3.07491 -7.66385 -0.818156 1.11726 1.00393
491 -5.03037 -3.16771 -7.04296 0.201138 -1.57699 1.62928
492 -6.01858 -2.23506 -7.03804 0.649322 1.70266 -1.51549
539 -5.51302 -1.33807 -7.08018 2.53258 -1.07252 0.325968
825 -6.01675 -1.47591 -6.26937 -0.66094 2.93938 0.137651
496 -4.59241 -2.39396 -6.89393 3.20021 0.791402 -1.06146
543 -3.8161 -1.31432 -6.98212 -1.43125 3.59298 1.4576
785 -3.05777 -2.99948 -6.1892 1.15886 0.947937 -2.09988
498 -2.33156 -2.30394 -7.66052 -0.578888 -0.632273 0.962271
500 -3.08681 -2.31453 -6.93108 1.30259 0.294304 0.517997
786 -2.09042 -2.26062 -6.20767 1.95873 1.26422 1.86042
504 -1.60826 -2.16944 -7.11458 0.647397 -1.66906 -1.00355
790 -0.879791 -2.39671 -6.05784 2.52307 2.22705 0.249177
553 -0.0327268 -1.50565 -7.501 1.14342 -1.73214 2.38977
503 -0.795214 -2.99941 -6.78212 0.441637 -0.768575 0.458971
508 0.0850453 -2.37999 -6.67479 0.173024 1.47608 1.23392
793 -0.122852 -3.04786 -5.99481 -0.427124 -1.58865 0.37879
507 0.781722 -3.04863 -7.01269 -1.248 1.14719 1.78485
512 1.41592 -2.31542 -6.925 0.0936897 -0.674344 0.618663
794 0.791661 -2.53178 -5.95083 -1.83879 -0.780594 0.477604
797 1.58556 -3.05592 -6.08565 -1.09909 0.1903 -2.80773
510 2.30605 -2.36263 -7.68608 3.60963 1.16116 -0.412114
561 2.98735 -1.63223 -7.6297 -0.566119 0.515186 -0.172377
511 2.35853 -3.12422 -6.81976 1.42916 1.03157 -4.06629
516 3.08126 -2.37676 -6.90007 2.15956 -0.877739 -1.01793
798 2.3647 -2.26137 -5.99004 -0.912426 -1.7601 -1.57706
801 3.10996 -2.99505 -6.08097 1.02341 -2.28848 0.180844
515 4.08515 -2.84485 -6.80666 -1.3339 -0.976913 3.63043
520 4.6381 -2.13898 -7.06827 2.31934 -1.70875 -0.88758
563 3.78798 -1.49594 -6.96412 1.67573 2.44351 -1.79644
805 4.73459 -3.10314 -6.03225 -0.352847 3.53779 1.14605
802 3.81546 -2.1541 -6.2126 0.263645 1.30551 2.20967
519 5.24215 -2.96615 -6.93067 0.0241609 -1.2769 -2.2488
524 6.02852 -2.32138 -6.99776 -0.501243 -3.6226 -0.597773
806 5.40205 -2.16984 -6.20195 0.00424335 -5.04486 1.79651