ITEM: TIMESTEP
52000
ITEM: NUMBER OF ATOMS
6912
ITEM: BOX BOUNDS pp pp pp
-9.2265715179435492e+00 9.2265715179435492e+00
-9.2265715179435492e+00 9.2265715179435492e+00
-9.2265715179435492e+00 9.2265715179435492e+00
ITEM: ATOMS id x y z vx vy vz
4 -9.05655 -8.4712 -8.69562 0.898382 2.94711 1.24675
51 -8.50329 -7.55829 -8.62328 0.638476 -0.352007 0.226988
273 3.02294 -1.54306 -9.03856 0.794597 0.745472 0.902475
8 -7.65641 -8.28326 -8.68509 -1.5438 0.00821067 3.50549
55 -6.89563 -7.64597 -8.56244 -0.68834 2.37563 -3.39058
12 -6.08297 -8.20666 -8.53832 2.3553 -1.24223 -2.14832
579 -8.3121 -9.20411 -5.52509 1.15625 -3.95851 -2.77941
59 -5.31044 -7.5953 -8.48727 1.15719 -0.021109 -2.02321
1729 -9.01348 -9.17805 -0.136476 -1.08484 0.228064 -0.651704
345 -6.16244 -7.74233 -7.57404 1.76656 -0.883248 -1.32673
1750 -0.820062 -8.45531 -0.0521831 -1.33673 -1.43728 1.47655
16 -4.55948 -8.43562 -8.45751 2.46372 1.72671 0.693329
39 5.45803 -9.19674 -8.45208 0.54533 -0.67949 0.082641
20 -3.02138 -8.45704 -8.37093 0.17558 0.5745 -0.802999
67 -2.33319 -7.53486 -8.44881 0.121847 -2.0273 1.25224
306 -2.27549 -8.22178 -7.6985 -1.30479 -2.00789 -1.31437
24 -1.49628 -8.28557 -8.47531 1.96164 -0.265816 2.94018
169 -0.00400699 -4.5527 -9.20853 -0.949124 1.67507 -0.466097
193 9.2286 -3.14381 -9.12772 0.148534 1.15552 1.31408
310 -0.875317 -8.48518 -7.77308 0.324668 2.51389 2.66503
28 -0.154786 -8.60525 -8.42339 -3.12589 -1.75007 0.73464
253 -4.64488 -1.42167 -9.1936 2.92365 0.0873323 -2.50966
266 0.736815 -0.801158 -9.04686 -1.98443 -2.93735 -0.52676
32 1.52425 -8.43941 -8.71559 0.562741 0.549481 0.553867
75 0.653352 -7.61056 -8.42909 1.93538 1.53364 0.810805
4615 -7.00646 -0.0930547 -2.35158 -1.11354 -0.222985 -2.82169
36 3.14704 -8.41405 -8.63285 0.392547 0.0596969 0.468486
318 2.27147 -8.31851 -7.79764 0.504612 0.768588 -0.929325
79 2.26457 -7.52873 -8.52147 -0.395182 1.16097 1.83948
369 2.95277 -7.65782 -7.75683 -0.586701 -0.538962 3.18976
214 -0.986263 -2.25999 -9.05358 -1.35599 0.493656 0.411765
40 4.70368 -8.52092 -8.36914 1.96173 -0.580267 1.28499
83 3.93243 -7.65892 -8.42515 0.127934 0.168391 1.26488
322 3.81425 -8.3818 -7.79199 1.81092 0.104299 -0.088219
44 6.17624 -8.40161 -8.49475 -0.692076 1.33552 2.14913
87 5.43288 -7.69197 -8.40595 -0.984291 0.356878 0.0514246
45 7.59147 -9.05201 -9.21443 2.03352 2.13053 -0.81955
4049 -3.25701 0.00594818 -6.03651 1.2862 1.32645 -0.272513
114 -2.35966 -5.42457 -9.14671 0.3188 -0.970048 -0.529741
48 7.72952 -8.41346 -8.52546 -2.73633 0.161775 -2.23709
91 6.97055 -7.75857 -8.56811 -0.944635 2.1677 -0.309992
3747 -8.51158 -0.0758888 -7.03842 -2.75342 -0.944214 -0.654444
609 3.21177 -8.99054 -6.15728 -1.48718 2.11007 -2.66706
95 8.5265 -7.73984 -8.6091 1.54964 -0.718231 -1.56636
334 8.69074 -8.52945 -7.92347 1.01215 -3.14797 0.664907
245 -7.64185 -1.46027 -9.10336 2.7717 -0.281039 -0.540928
385 -8.96387 -6.09732 -7.62014 -0.0433043 1.99503 0.268059
56 -7.64356 -7.12324 -8.52073 -0.203498 -0.45586 1.93391
103 -6.92872 -6.22717 -8.52425 -0.86005 -1.39521 3.13471
229 4.30113 -3.29349 -9.15035 0.14152 -1.49694 1.33791
246 -6.9741 -0.698068 -9.07069 1.09841 1.88758 2.24088
60 -6.14016 -6.93742 -8.47935 -0.457183 1.46281 -1.31809
286 8.48287 -0.719505 -9.18031 -0.331941 0.217923 0.444554
162 -2.24736 -3.84466 -9.15092 2.59254 1.00809 1.59223
349 -4.50987 -7.54247 -7.63831 -1.11215 -0.850913 0.0607806
63 -3.90571 -7.75448 -8.48199 0.780984 -1.12235 -0.454524
64 -4.65544 -6.80748 -8.56384 -0.703635 0.876733 0.0275516
111 -3.90532 -6.10847 -8.40107 2.49966 -0.683274 -0.984133
397 -4.68902 -6.10307 -7.6542 -0.808477 -0.605025 1.06945
194 -8.36649 -2.27815 -9.27931 0.173215 1.64834 -3.42441
254 -3.79916 -0.851036 -9.23628 1.20693 -1.16562 -0.433174
68 -3.09924 -6.74039 -8.44507 -1.60044 0.596452 1.36883
115 -2.16378 -6.1356 -8.30895 0.241901 -0.692308 -0.118314
1157 -7.67315 -9.0503 -3.0111 1.30745 -1.39662 1.34054
353 -3.10933 -7.52247 -7.68665 -1.29761 0.91603 -0.020357
401 -2.96784 -6.04859 -7.5741 -1.64156 -1.20735 -0.909684
71 -0.627324 -7.59122 -8.41963 -2.52652 -2.13186 0.478427
17 -2.97381 -9.14093 -9.21619 -0.168534 -1.19381 -0.510796
72 -1.41883 -6.84206 -8.46429 -1.23214 -1.25513 -2.36348
269 1.54086 -1.61076 -9.13406 0.955619 1.52938 2.05554
119 -0.779913 -6.03168 -8.42543 1.66305 0.0777975 -0.336163
76 0.0319127 -6.75663 -8.6338 -0.427948 -0.647322 -0.465897
123 0.709659 -6.13423 -8.6894 -0.723601 0.999948 -0.120667
362 0.683705 -6.80661 -7.79985 0.652335 0.317449 2.00685
80 1.44596 -6.87893 -8.53399 -0.954542 -0.91698 1.8216
413 1.43011 -6.16889 -7.76439 -1.05183 2.31173 0.664797
84 3.02727 -6.80077 -8.40604 0.179454 0.749608 1.97249
127 2.17939 -6.1579 -8.51295 -1.05106 0.580346 -1.02252
366 2.20857 -6.8321 -7.73319 -0.776484 -0.285742 0.36297
417 2.95348 -6.14568 -7.6814 0.186924 -0.335541 -0.326078
202 -5.35164 -2.19562 -9.07943 1.14947 -1.12407 0.385141
88 4.51927 -6.86712 -8.57063 -1.59824 0.164177 4.56831
131 3.79671 -6.11526 -8.43927 -1.32741 -1.32673 3.25707
370 3.95924 -6.85848 -7.79405 -0.78776 1.41331 0.296236
421 4.67845 -6.19958 -7.56946 -1.99433 -2.61705 0.092835
92 6.24304 -6.972 -8.40396 -1.08431 -0.298616 -1.19389
135 5.3733 -6.24793 -8.63197 0.335782 1.50475 -0.135104
425 6.21186 -6.23172 -7.63847 -0.774563 1.65414 1.40869
374 5.4329 -6.89899 -7.68812 0.556483 -0.754656 -0.378903
96 7.719 -6.9654 -8.57231 -0.707633 1.2828 1.09031
378 6.93877 -6.78193 -7.78094 0.0121516 0.669691 -4.1239
381 7.54388 -7.67136 -7.7152 -1.17972 -2.14751 -1.93916
22 -0.759326 -8.42285 -9.1233 1.5108 1.6912 -0.554955
337 -9.12281 -7.70834 -7.89316 -0.941337 -1.27104 1.25224
52 -9.1454 -6.7856 -8.36965 -1.5749 1.37228 0.380804
143 8.54331 -6.10749 -8.48715 -2.59552 -1.73534 0.916741
382 8.48921 -6.9458 -7.74697 0.330881 1.31816 1.78871
99 -8.34642 -6.10522 -8.48262 1.80847 0.837645 -0.541742
386 -8.23302 -5.44955 -7.78212 0.0968488 -2.34707 -4.0548
147 -8.41602 -4.64764 -8.44129 -0.131325 1.00949 1.23927
104 -7.57878 -5.35892 -8.41323 -1.03066 -0.329804 0.752448
390 -6.90096 -5.49207 -7.68742 0.199769 0.465466 0.478696
107 -5.3553 -6.12108 -8.40742 0.499361 0.02496 -1.59748
108 -6.1905 -5.57964 -8.47905 0.81403 -1.47051 -1.32742
441 -5.98378 -4.49541 -7.57503 0.977501 -1.46318 0.635892
155 -5.43002 -4.73819 -8.43092 -0.962585 0.413341 -2.25653
394 -5.34002 -5.33152 -7.56905 -2.53431 0.225086 -0.17321
112 -4.57427 -5.36499 -8.33741 -2.1013 -0.0710874 2.48231
159 -3.8362 -4.72803 -8.55411 -1.60894 0.349081 0.955636
398 -3.83981 -5.44542 -7.59343 -1.37713 -1.08814 -0.269852
116 -3.14904 -5.41945 -8.28659 -0.758977 0.568046 -0.707005
163 -2.32048 -4.63175 -8.40565 -0.451311 -1.14329 1.87332
4631 -0.746123 -0.0343798 -2.35256 -2.36977 2.10184 -0.818311
402 -2.22728 -5.50849 -7.3824 0.274047 -1.05348 -0.955315
405 -1.39616 -6.31793 -7.61316 -0.52712 -0.26575 0.88733
120 -1.54707 -5.32863 -8.41491 0.699642 -0.85301 0.165918
124 -0.10649 -5.36038 -8.63772 -0.39727 1.60515 1.50064
141 7.72726 -6.11587 -9.16542 0.428015 -1.53449 -1.13056
128 1.55945 -5.23768 -8.3617 0.422581 -0.747842 -3.17389
410 0.664686 -5.38052 -7.83786 -1.25462 1.49664 0.913877
1898 0.96025 -3.9972 -0.233047 0.266676 -0.297568 0.822703
132 2.98127 -5.46598 -8.39986 0.911148 1.91599 -0.606619
465 3.08093 -4.59255 -7.607 0.438864 0.893697 1.75367
414 2.24588 -5.29419 -7.78198 -1.44628 0.155984 -0.475172
593 -3.03806 -9.07691 -6.20302 0.481764 1.30849 1.60758
136 4.68101 -5.32738 -8.49103 0.44899 -2.90488 -2.00558
179 3.73699 -4.76759 -8.39869 3.03104 1.30801 -1.22755
418 3.95891 -5.49318 -7.75534 -1.05724 -0.826251 2.57142
469 4.67501 -4.57273 -7.64465 0.269705 -0.281687 1.11615
140 6.05354 -5.42898 -8.53598 1.51532 1.57985 0.359878
183 5.43936 -4.72132 -8.42919 1.56844 -3.45989 0.133176
473 6.06216 -4.64588 -7.66237 0.975937 0.720471 0.219443
897 3.03532 -9.17298 -4.60405 -1.23848 -0.377509 0.627232
139 6.93173 -6.08247 -8.49155 1.51259 0.867286 -0.159974
144 7.71768 -5.46419 -8.41689 2.40489 -0.618173 0.944326
187 7.07875 -4.72995 -8.49175 -1.20153 1.56161 -0.62044
429 7.79302 -6.19844 -7.65467 0.0189611 0.852967 0.995536
426 6.82865 -5.36928 -7.78063 1.81598 -0.752387 -4.18327
1993 -0.0949436 -1.41525 -0.221901 1.78724 0.0520567 1.54148
100 -9.19388 -5.49507 -8.40117 -1.16152 1.04877 -0.017795
430 8.49805 -5.41325 -7.61886 -1.18541 1.46617 1.53125
434 -8.55065 -3.922 -7.84674 -1.51149 0.210188 -0.0246326
148 9.12288 -3.9864 -8.42365 1.02619 1.88552 0.526902
89 6.23896 -7.69806 -9.18321 -1.55629 -0.682192 -1.03801
151 -6.73584 -4.6858 -8.20498 1.54211 0.685804 -1.02234
152 -7.64712 -3.86267 -8.51208 1.90157 -1.53863 1.76008
199 -6.86075 -3.09182 -8.5683 3.92988 -3.40216 -0.170743
437 -7.63613 -4.54855 -7.86261 -0.971056 1.99267 1.37864
3779 4.06924 -0.0088405 -7.04105 0.816508 0.718728 0.872969
14 -3.77478 -8.51779 -9.03575 -1.57029 -1.66321 -0.617579
1159 -6.75311 -9.19256 -2.49315 3.20793 -0.79229 -1.61141
156 -6.09466 -3.81608 -8.62633 1.59495 1.59353 0.269278
442 -5.2848 -3.77808 -7.68914 -1.8328 0.992189 2.30731
445 -4.64229 -4.57893 -7.61924 1.12088 -0.864902 0.618581
160 -4.51233 -3.93269 -8.3463 0.998872 0.897065 -0.182207
446 -3.78393 -3.81487 -7.81716 -0.851499 1.41596 0.806031
230 5.38816 -2.38515 -9.17866 0.878253 -0.140052 -0.34168
164 -3.12988 -3.79673 -8.53764 1.80209 1.10535 1.33212
450 -2.20711 -3.73576 -7.76588 -1.88287 -0.945306 0.683429
211 -2.33567 -3.04582 -8.51547 -1.98856 0.525882 -0.260086
173 1.48357 -4.59597 -9.18736 -1.21091 0.325126 0.0202392
613 4.59343 -9.09122 -6.26306 0.490519 -0.815066 -1.62137
168 -1.43628 -3.80627 -8.42181 1.3398 -1.56939 -4.69907
215 -0.981896 -2.95382 -8.34795 0.54985 0.0607052 0.872329
501 -1.55827 -3.04334 -7.64545 -0.3123 1.32133 -1.71794
167 -0.828308 -4.57782 -8.42634 -0.218025 -0.431198 -0.119924
172 0.134048 -3.66569 -8.40633 0.0267439 1.11971 2.52859
171 0.7536 -4.43221 -8.45958 3.12642 -2.04534 -2.63253
458 0.657937 -3.84558 -7.60576 2.5049 0.974607 0.37018
176 1.55144 -3.82318 -8.57913 0.216694 -0.467385 2.23484
219 0.849644 -3.03879 -8.60946 -0.832608 0.170147 0.413451
175 2.21542 -4.52338 -8.50771 0.236791 -2.55789 -0.333428
180 2.97005 -3.9593 -8.35233 -2.18544 0.791513 -0.201467
462 2.22211 -3.80055 -7.68026 -0.0861529 -0.943231 2.16476
223 2.44741 -3.14546 -8.43881 0.935737 -1.17487 -0.790688
619 6.90971 -9.09051 -5.33435 2.7591 0.0328927 1.35248
184 4.6259 -4.00004 -8.39569 0.196721 -1.00815 -0.29584
466 3.78994 -3.96894 -7.69107 0.138891 0.336489 -0.260038
227 3.69933 -3.16106 -8.34259 2.26693 4.4339 -1.47996
3783 5.27291 -0.196498 -6.87562 -1.04433 -0.0487938 -2.63865
311 -0.779364 -9.1685 -6.93043 -0.859271 -1.12564 -2.19085
188 6.08383 -3.9805 -8.52268 1.32023 0.0579991 0.296795
470 5.36825 -3.86717 -7.68871 -1.37535 2.01356 -0.969885
192 7.69123 -3.94159 -8.56296 -3.37957 1.13486 2.05922
235 6.93496 -3.26029 -8.54938 -1.12418 0.6181 0.100797
599 -0.694041 -9.21104 -5.20806 -1.85999 1.25222 -0.954195
477 7.70594 -4.55251 -7.62092 -1.59192 -1.19224 2.40406
433 -9.15484 -4.66393 -7.71182 0.294389 -0.94348 -1.35944
191 8.39271 -4.7815 -8.53708 -5.21389 1.87449 0.607694
195 -8.37567 -3.11613 -8.42327 2.00622 1.60356 1.28319
196 -9.21613 -2.16184 -8.39894 -0.411444 -1.61094 -0.848099
482 -8.4198 -2.28771 -7.75448 -0.337088 1.74784 2.09136
323 3.82666 -9.1268 -7.0653 -0.919486 -0.031703 0.411231
200 -7.73068 -2.27308 -8.49816 0.790027 -0.881374 0.604927
486 -6.95363 -2.32405 -7.62621 -1.32076 3.62037 0.165128
247 -7.12387 -1.54813 -8.27365 -0.891348 -2.02628 -0.785442
209 -3.25935 -3.05055 -9.08025 1.97566 -1.52797 -0.644153
485 -7.69987 -3.06737 -7.6848 -0.426689 -1.53753 0.514403
533 -7.77676 -1.389 -7.59207 -2.16023 -1.19933 1.11002
203 -5.35519 -3.1269 -8.51322 -1.89338 2.16718 -0.135345
204 -6.1176 -2.28856 -8.48353 -0.861967 -0.00689196 -0.333788
251 -5.49291 -1.43986 -8.40586 0.819085 1.45977 2.29142
537 -6.23833 -1.43547 -7.5495 -1.27719 1.30255 0.248723
490 -5.44975 -2.33963 -7.70042 -0.188546 3.95753 -1.51801
3479 -0.771368 -0.00644183 -8.34485 -1.49791 0.0930356 2.73818
207 -3.89908 -2.962 -8.25748 0.315091 1.4855 -2.20597
208 -4.66565 -2.18895 -8.32098 1.11191 1.6437 -1.91544
494 -3.77431 -2.27291 -7.58596 -0.192947 -1.79096 -1.99371
541 -4.68449 -1.61225 -7.56884 2.00427 -0.153783 0.374846
233 6.04393 -3.04617 -9.0969 3.42995 0.828912 -0.462778
218 0.778987 -2.24613 -9.22762 -0.270687 1.50651 -1.40145
4331 -5.50889 -0.064661 -3.89241 -0.451822 1.01366 -2.10486
212 -3.02906 -2.22099 -8.53035 -0.559079 -0.586122 1.41541
1777 9.15488 -7.91239 -0.0724278 -1.31455 -0.652735 1.36214
498 -2.34425 -2.26427 -7.63884 2.48872 0.0309706 2.18816
216 -1.79853 -2.18671 -8.48233 0.801517 -0.0829939 2.548
502 -0.970293 -2.20322 -7.6762 1.43575 0.8815 0.232077
549 -1.64542 -1.46816 -7.56644 0.922685 -1.38146 -1.0297
263 -0.787353 -1.45296 -8.39873 1.4666 0.368772 -0.300085
220 -0.0411529 -2.26629 -8.47938 -0.664726 -0.729549 -1.01358
505 0.00264782 -2.90723 -7.54907 -3.01614 -0.725199 0.366008
224 1.59377 -2.50512 -8.3204 0.0780436 1.49896 -0.111509
509 1.38359 -3.20418 -7.7642 1.95269 2.30306 -0.956486
267 0.796282 -1.62133 -8.4132 0.427575 0.081221 1.08283
557 1.61968 -1.63732 -7.71529 1.83991 -0.745873 -1.31848
228 3.05021 -2.32476 -8.30412 1.59592 -0.0349395 3.09834
271 2.29003 -1.5675 -8.39004 -0.0104199 -1.45647 1.67879
4905 -6.09246 -0.0856542 -1.59545 -1.87865 2.18375 0.660727
185 6.09576 -4.66112 -9.23536 2.38589 -1.54032 -0.779821
250 -5.52341 -0.860846 -9.24589 -0.778399 1.6813 -0.489912
4901 -7.63212 -0.0882428 -1.53309 0.436591 1.02102 0.635359
232 4.68491 -2.44057 -8.5305 -1.95284 0.165884 2.16631
158 -3.89624 -3.93313 -9.06598 -0.708566 -1.15018 -0.712566
231 5.22717 -3.22154 -8.49637 -1.12129 -0.27352 -2.23746
236 6.13465 -2.2408 -8.35316 0.473692 0.391617 0.0554508
518 5.40995 -2.3327 -7.70519 0.181283 1.69148 -0.642594
569 6.26794 -1.5989 -7.59885 -2.04484 -0.473099 -0.606874
279 5.39098 -1.58256 -8.37229 0.301903 -1.37662 3.76725
1913 6.32278 -4.73118 -0.117726 1.57937 -1.16054 -0.36503
525 7.68733 -2.99619 -7.63166 0.102646 1.53974 -0.666378
240 7.71758 -2.51446 -8.63125 0.789203 0.509039 0.371926
522 6.80523 -2.40399 -7.64986 0.518762 -1.70914 1.48297
239 8.42521 -3.24001 -8.41663 0.407248 0.911392 1.87092
1714 3.77571 -0.554264 -1.62134 0.647699 -2.40651 -0.475434
1727 8.36153 -1.52829 -0.6764 0.860539 -1.98537 -0.335819
243 -8.41806 -1.53802 -8.44147 -1.43553 -3.90408 0.112986
530 -8.56694 -0.84632 -7.6907 -0.332156 -1.34693 -1.54097
31 2.20195 -9.16863 -8.77804 0.935959 -4.06388 1.88048
248 -7.69272 -0.725926 -8.36471 1.47292 -1.7357 -1.80208
534 -6.94949 -0.651132 -7.53932 -1.25984 -0.41269 -0.799744
1954 3.77886 -2.32929 -0.0989993 1.63761 -0.754421 -2.006
70 -0.862902 -6.93074 -9.23559 0.309178 -0.457489 -2.66721
252 -6.29227 -0.679101 -8.33843 0.624199 0.641172 0.023043
538 -5.52858 -0.72822 -7.43271 0.281829 -0.974797 2.85932
255 -3.70704 -1.43653 -8.47431 -0.13237 -1.56674 -0.289167
256 -4.71382 -0.872813 -8.36823 -2.41245 -0.14775 0.143557
542 -3.92215 -0.841432 -7.70629 1.77599 0.953329 -2.0048
4927 2.31016 -0.00652707 -0.764233 -0.638888 1.51767 -1.63698
259 -2.29251 -1.38112 -8.38895 2.07674 0.00432009 -0.511743
260 -2.98439 -0.709073 -8.44238 0.243057 0.220088 0.790296
545 -3.03515 -1.57949 -7.61095 -0.60855 -1.39291 2.21073
4323 -8.5848 -0.0145435 -3.83451 -0.683074 2.51032 -1.53602
264 -1.50691 -0.685125 -8.23722 1.47548 0.792109 0.0933773
550 -0.915612 -0.675797 -7.58116 -1.09762 0.308152 0.38941
546 -2.29707 -0.72558 -7.52934 1.10262 -0.0907322 -1.81777
891 0.783144 -9.14134 -3.60945 -0.345745 0.088637 0.585083
1720 4.6554 -0.623009 -0.672811 -1.39904 1.39198 0.985563
221 1.74702 -3.1106 -9.12475 -1.60257 0.26809 0.878472
268 -0.00177058 -0.792094 -8.0604 -3.39495 -0.950581 0.41236
242 -8.44252 -0.661946 -9.20628 -1.1928 -2.66727 -1.01014
272 1.54883 -0.690791 -8.50242 2.42915 -1.04846 1.31188
554 0.829506 -0.849409 -7.63031 0.0104706 -1.67357 1.44237
4327 -7.06801 -0.0323083 -3.90545 0.211279 -0.842348 0.738709
274 3.83772 -0.797179 -9.19266 -1.19928 0.93378 1.24381
35 3.94801 -9.18713 -8.37226 0.155838 -2.31329 0.307581
276 3.1948 -0.795022 -8.42757 -0.773462 -1.32139 1.17902
1838 -3.77163 -5.44948 -0.0960318 -0.137065 -2.03964 -1.90183
225 2.90974 -3.13579 -9.20864 -1.20248 -0.0535002 -0.593063
275 3.85225 -1.56909 -8.44833 -3.23026 -1.24252 -0.864239
280 4.63776 -0.824245 -8.43334 0.674414 1.2088 2.49973
565 4.63649 -1.61472 -7.73372 0.922904 -0.920765 0.417727
34 3.88709 -8.40794 -9.23303 -1.8548 -2.84396 -0.481546
1443 -8.21239 -9.2122 -0.783671 0.94715 -1.26126 1.81547
284 6.13159 -0.679763 -8.44019 1.0124 -0.193201 0.615807
4047 -3.94198 -0.00752588 -5.35964 0.725388 5.07659 1.48378
283 6.94273 -1.70562 -8.4319 1.79084 2.25696 -0.69537
573 7.7002 -1.52531 -7.72953 -1.25919 -0.85047 2.88056
288 7.75586 -0.871651 -8.45124 1.43229 -1.33321 -1.30479
206 -3.90666 -2.23789 -9.06351 -0.263669 0.504053 -0.527613
1715 3.67469 -1.48969 -0.700668 -0.821583 -1.38848 -0.686286
287 8.54496 -1.55066 -8.48589 0.553661 1.90049 0.187888
244 9.20012 -0.831205 -8.42642 0.275226 2.07966 -0.0470975
3761 -3.0439 -0.0742802 -7.69409 -0.742183 0.341136 -0.564984
1485 7.74615 -9.23931 -1.47047 1.07621 -0.926589 -0.351311
5217 3.00169 -0.0966109 -0.044158 -0.248174 -0.2723 -1.43634
290 -8.46111 -8.49748 -7.79273 -0.654671 2.03472 -1.03969
578 -8.48746 -8.51765 -6.23107 -0.0829124 -1.79593 -1.67775
296 -7.67992 -8.46327 -6.95564 1.61107 0.741792 0.290994
291 -8.32127 -9.27039 -7.02043 -0.00189439 -1.89877 0.726021
341 -7.68315 -7.6391 -7.72807 2.01622 -1.13634 2.34296
294 -6.94838 -8.2773 -7.79583 -0.191183 -0.104306 -1.51709
343 -6.95953 -7.67354 -6.93211 0.110121 1.54058 -1.5958
298 -5.40245 -8.52176 -7.75013 0.431842 -0.359459 2.908
300 -6.18107 -8.68138 -7.06198 1.97561 1.21828 -0.611577
347 -5.34483 -7.79703 -6.90133 0.950401 1.39735 -1.9593
633 -6.04422 -7.76723 -6.24228 -1.15041 1.56612 2.26868
586 -5.20413 -8.50501 -6.23019 2.0254 -1.7383 2.35803
302 -3.79352 -8.38374 -7.61202 0.656713 2.94932 -0.271782
304 -4.54431 -8.39771 -6.91461 1.17712 0.485482 1.04049
18 -2.30984 -8.43474 -9.18569 1.03884 -1.05439 -1.05855
308 -3.06875 -8.40575 -6.92849 -0.151051 -1.0926 -0.415006
594 -2.38743 -8.41545 -6.18829 2.14044 -5.06237 -2.05788
319 1.95066 -9.23305 -7.18057 0.773944 -3.32787 -0.253196
312 -1.63866 -8.45515 -6.90456 1.02228 -2.43541 2.38822
359 -0.593598 -7.83348 -6.88095 0.0695069 0.246246 -0.25075
3499 7.0443 -0.0571613 -8.46522 0.0318563 0.770376 -2.70834
316 0.184229 -8.65457 -7.03863 -0.915346 -0.21246 0.336768
314 0.767487 -8.48325 -7.85195 0.446669 -0.622109 -2.46883
361 -0.0596621 -7.82133 -7.68619 0.555151 0.558968 -0.350571
320 1.36043 -8.51755 -6.97976 -1.05436 -1.99658 -0.254774
363 0.924904 -7.70392 -6.84063 0.520597 2.50325 1.31932
365 1.44375 -7.63525 -7.67769 0.886335 0.530165 0.216678
324 2.79372 -8.7584 -7.09704 3.9471 0.206462 -0.457253
606 2.12914 -8.57529 -6.22908 -1.60283 -0.0733289 -0.37367
367 2.25075 -7.62514 -7.00882 1.09091 0.0130161 0.209425
328 4.58687 -8.39543 -7.10807 -1.49664 -4.90307 -0.568307
371 3.60277 -7.63597 -7.04396 0.985011 -1.51761 1.00096
373 4.75677 -7.6836 -7.7574 2.79788 -4.04971 -1.08161
610 3.83101 -8.32087 -6.2684 0.761136 2.1301 -2.07739
661 4.67096 -7.78212 -6.08616 -0.711253 -0.0927578 0.347341
326 5.47292 -8.43108 -7.57514 -1.74001 0.17238 0.272283
332 6.13127 -8.49153 -6.8319 1.46764 2.07151 -2.58863
375 5.3445 -7.77865 -6.82362 -2.43489 1.10249 1.72641
377 6.17781 -7.73896 -7.70738 -1.09512 2.18384 -1.34213
330 6.90034 -8.3939 -7.83028 -1.33229 -2.69384 0.843376
336 7.54192 -8.64649 -6.96951 -0.536582 0.279336 -2.34396
618 7.08682 -8.51125 -6.1573 -0.802718 -1.13951 -0.33319
669 7.70474 -7.76138 -6.16538 0.6136 0.701924 -1.69436
292 -9.17871 -8.58543 -7.06359 0.223643 -3.5513 -1.0604
383 8.73959 -7.73965 -6.91191 0.809923 -1.70293 -1.04684
622 8.32633 -8.53426 -6.30705 1.64011 -0.659009 0.546282
625 -9.06409 -7.65083 -6.09379 -1.52164 -1.79595 -1.26865
339 -8.48245 -7.7736 -7.00416 0.967708 -0.353422 -0.837819
338 -8.43451 -6.98665 -7.74391 -0.450911 2.03116 -0.106815
626 -8.37181 -7.01824 -6.24798 1.1238 0.0696465 -0.248775
389 -7.65446 -6.30062 -7.90763 0.421286 0.659307 2.03957
342 -6.88403 -6.97812 -7.74108 -0.209261 -1.13989 0.325244
344 -7.55211 -6.83377 -6.94898 -1.17873 1.25733 0.319388
346 -5.53762 -7.05236 -7.64323 -1.33343 -0.525937 -0.251811
348 -6.17544 -6.9742 -6.90294 2.32383 -1.23751 0.924746
634 -5.37945 -6.90123 -6.17885 -1.76167 0.120001 2.62633
393 -6.02658 -6.13309 -7.5376 -0.411239 0.189478 -0.235427
351 -3.76805 -7.51642 -6.95223 -2.71277 -0.755117 -2.41838
350 -3.89777 -6.74633 -7.67298 0.373319 -3.81133 0.439063
352 -4.621 -6.93737 -6.92978 -0.14809 0.861792 0.376824
399 -3.84805 -6.14943 -6.85428 -0.858926 -1.18661 -2.10015
355 -2.22867 -7.56358 -6.84248 0.956671 2.5827 1.69003
356 -3.03371 -6.78803 -6.88085 0.867366 1.34869 0.76044
354 -2.1693 -6.84733 -7.56075 0.00183976 0.998404 -0.460845
641 -3.131 -7.62726 -6.09808 -1.51355 0.899718 3.19712
357 -1.40814 -7.53916 -7.7449 0.960188 -2.36013 1.17177
358 -0.583437 -6.95689 -7.67478 -1.61218 -1.16452 2.28868
360 -1.38328 -7.04755 -6.87778 -0.021741 -0.873467 1.14143
645 -1.47114 -7.69871 -6.18287 0.267873 -0.771788 -0.139607
646 -0.52079 -7.07511 -6.34445 1.26761 1.63659 0.0990182
693 -1.3657 -6.20683 -6.10256 1.81253 -0.844702 -2.12478
364 0.258555 -6.80014 -6.92231 -0.65121 0.829309 -1.97746
409 -0.0737695 -6.12151 -7.77452 1.0233 0.79043 0.76791
650 0.805482 -6.75236 -6.11757 2.32031 -1.11254 0.00991063
697 0.142373 -6.03814 -6.08232 -0.240108 4.22009 0.525336
368 1.58541 -6.87848 -6.82499 -1.06326 1.74498 0.0953263
411 0.718362 -5.98998 -7.02927 -1.59807 -0.797987 0.939985
701 1.52195 -6.08177 -6.31466 -0.0202459 -1.06356 -0.657863
654 2.30729 -7.04337 -6.0654 -0.873489 -0.668018 0.0220904
415 2.25322 -6.17505 -7.06051 0.407903 -0.465277 -1.71734
372 3.04299 -6.87485 -6.83182 -0.477091 0.562372 -1.81269
705 3.14453 -6.24173 -6.04748 -1.32741 0.712068 -2.08904
376 4.51602 -7.12771 -7.00145 -0.0648242 -0.2598 2.9955
658 3.71733 -7.10638 -6.22662 1.27997 -0.891007 0.0456066
709 4.42945 -6.34064 -6.23793 -0.458202 0.0849484 0.854051
665 6.30372 -7.79247 -6.13234 -0.617504 0.377804 -2.16042
380 6.06668 -7.05909 -6.86243 1.00289 0.941693 -1.17516
423 5.42229 -6.34287 -6.92154 -0.25343 0.10848 -0.250145
713 6.00883 -6.27301 -6.16737 1.91619 -1.08267 2.08256
379 6.86596 -7.84268 -6.92452 1.28195 2.22769 -2.66341
666 6.90686 -7.03608 -6.01397 1.79025 0.14164 0.174163
427 6.81644 -6.3867 -6.72483 1.30614 -1.89954 -2.725
384 7.45342 -7.1217 -6.82714 -0.130256 -0.0731176 0.331719
340 -9.17449 -6.96878 -7.07467 0.0584139 -1.01023 1.363
670 8.3802 -6.94403 -6.39109 -2.14573 1.53866 -1.95776
387 -8.45362 -6.20384 -6.84326 0.0507696 0.0230972 -0.81251
388 9.24467 -5.42378 -6.91242 1.28884 -1.69224 0.465538
674 -8.39446 -5.33885 -6.3067 -1.67204 -4.09052 2.92082
391 -6.79297 -6.1425 -6.89374 3.09022 -1.0593 -2.70035
392 -7.58815 -5.19118 -6.96864 -2.81965 0.24614 -3.24005
439 -6.85471 -4.40297 -7.16828 1.44244 -0.0786168 -0.690543
395 -5.3302 -6.11819 -6.85351 -0.634428 -3.24561 0.955813
396 -6.04598 -5.37241 -6.92254 1.11263 1.41046 -1.85533
443 -5.29985 -4.54686 -6.79161 0.0651509 -1.40432 0.12093
681 -6.16928 -6.10084 -6.05542 0.728493 -0.269037 -1.09115
682 -5.41826 -5.58634 -6.09806 2.2964 2.28592 -1.46046
400 -4.59569 -5.37244 -6.64187 1.89524 1.8176 0.680302
733 -4.52587 -4.45712 -6.09222 -1.0762 1.84217 1.57053
403 -2.20116 -6.27856 -6.75922 1.74682 -0.142608 -1.9133
404 -3.22111 -5.31322 -6.76725 0.670833 2.25952 -0.420405
449 -3.01219 -4.61508 -7.49229 -0.330746 0.0260126 -0.660234
451 -2.21568 -4.73429 -6.81643 1.33354 -0.82273 -1.31888
453 -1.62871 -4.68223 -7.54122 0.753009 0.238016 0.896005
407 -0.694511 -6.19304 -6.95612 -1.9528 -2.40896 -1.03231
408 -1.44485 -5.36954 -6.73894 -1.27986 2.06369 -0.415281
455 -0.804796 -4.55713 -7.00251 -3.90212 -0.290938 1.98548
406 -0.828385 -5.42606 -7.65223 -1.08205 1.98176 1.16137
457 -0.057102 -4.69857 -7.70274 -1.5099 -0.434083 3.45763
412 -0.0900816 -5.40719 -6.92486 0.49217 -1.40782 2.34494
694 -0.717625 -5.42981 -5.95187 -0.293243 1.52505 3.42837
745 -0.0236591 -4.6177 -6.05838 -1.15466 0.123609 0.399297
461 1.47295 -4.55628 -7.5547 -0.155333 1.23649 -0.674923
416 1.60446 -5.39785 -6.97547 -1.52469 3.67017 -0.0881632
459 0.594264 -4.74276 -6.96318 -1.09753 0.69925 2.21392
749 1.47667 -4.57476 -6.09116 0.838683 -1.34808 0.848511
420 2.96826 -5.41207 -6.88279 0.341391 -1.29177 2.47313
702 2.22221 -5.39924 -6.09701 -0.172058 -1.78376 0.120058
463 2.30897 -4.55482 -6.98995 3.44107 -1.86387 -0.91118
753 3.02907 -4.74031 -6.19851 1.41402 1.86537 -1.07582
419 3.75648 -6.22703 -6.95975 -0.71784 -0.887226 -2.91254
424 4.54773 -5.45049 -6.92607 0.693355 1.62747 0.236531
467 3.9714 -4.718 -6.91979 -4.81969 0.187365 1.32673
757 4.66909 -4.42055 -6.29128 0.261103 -0.81735 -1.39299
706 3.83245 -5.49747 -6.13638 -3.39916 -0.35893 -3.72835
422 5.43231 -5.56762 -7.68419 1.19909 0.183256 1.67337
428 6.17775 -5.51245 -6.87944 -1.57519 1.16091 -0.119188
710 5.27617 -5.59365 -6.22003 -2.40252 1.37159 -1.31011
475 6.84028 -4.69755 -6.91412 -1.50097 -1.9504 -1.45519
714 6.85833 -5.48009 -6.13312 3.46415 0.151191 0.251621
432 7.71038 -5.46783 -6.96745 0.794303 0.576923 -0.954421
431 8.63118 -6.20674 -6.97702 -0.497853 1.20413 -1.0677
721 -9.13838 -4.52544 -6.359 0.299327 1.86896 1.12348
673 -9.22605 -6.23999 -6.23152 0.0880663 -2.53859 -0.0616574
718 8.48965 -5.48223 -6.2992 0.222216 2.06861 -0.184265
435 -8.31534 -4.52732 -6.96495 1.59265 1.07601 0.49239
483 -8.47304 -2.98066 -7.00388 0.573953 -1.22812 -1.04695
722 -8.44984 -3.75818 -6.3432 -1.45376 -1.83087 0.603125
438 -6.8021 -3.77475 -7.88332 1.04332 -0.651168 0.844454
725 -7.67739 -4.55828 -6.12344 1.26926 -0.529492 2.95262
440 -7.65283 -3.79848 -6.96299 0.415754 1.80863 -2.23448
726 -6.94639 -3.87143 -6.20392 -0.200984 0.624621 -0.5767
489 -6.1296 -3.11778 -7.81746 0.841591 -0.346047 -1.56608
444 -6.21114 -3.76762 -6.95084 2.13555 0.59425 -0.0868717
493 -4.67915 -3.03753 -7.69948 0.710277 -1.05102 0.111129
447 -3.9615 -4.57086 -6.9529 0.711857 -3.30637 0.716238
448 -4.63136 -3.81049 -6.90204 -1.16603 -1.61191 1.73471
495 -3.71001 -3.13683 -6.99428 -0.966299 -0.59621 -0.488863
734 -3.73222 -3.64963 -6.11971 -1.07964 -2.86571 1.65135
452 -3.01591 -3.90009 -6.83486 1.24349 -0.515502 -0.124335
785 -3.11257 -2.94729 -5.96981 0.972472 -1.18751 0.419737
497 -2.94107 -3.12901 -7.70006 -0.566339 1.51652 1.92901
499 -2.38964 -3.0237 -6.81637 -0.890157 0.294519 -2.18149
737 -2.8843 -4.57648 -6.15821 -0.814111 1.07905 -0.470757
456 -1.60574 -3.99421 -6.88302 -1.77116 -0.87263 -0.0597369
789 -1.40571 -3.00454 -6.15158 -0.362911 1.31261 0.161718
454 -0.651991 -3.76295 -7.77172 -0.450601 1.35466 -2.72855
460 0.0643666 -3.88711 -6.82552 -1.06205 0.0427077 1.20935
503 -0.77562 -3.18362 -6.94528 1.87385 0.89041 -0.867923
464 1.57034 -3.89274 -6.90365 -0.393211 -3.23278 -0.0176585
750 2.44044 -3.89265 -6.13167 -1.99975 -0.095303 0.990367
507 0.716436 -3.12915 -6.91591 -0.516096 -0.182045 -1.51283
797 1.56686 -3.19454 -6.11347 -0.934039 3.47975 1.40494
513 3.08181 -3.0692 -7.60201 -1.39179 1.36934 -0.405177
468 3.22213 -3.68551 -6.76106 2.48929 -0.753298 -0.175293
511 2.38921 -3.21627 -6.87017 -1.81758 1.98098 1.5556
517 4.47829 -2.9809 -7.68332 1.80788 -0.479407 0.25053
472 4.53922 -3.80179 -7.04728 -3.11249 2.20741 0.859147
515 3.88348 -2.95739 -6.7428 2.43908 -0.280758 -0.160106
805 4.66369 -3.04761 -6.06514 -0.0935615 1.14278 1.98283
754 3.92698 -3.71774 -6.087 -0.00953165 -0.351107 2.73158
521 6.12558 -3.13691 -7.85845 -1.17346 0.395484 0.312801
471 5.33815 -4.79129 -6.90985 -1.66247 -1.57992 -0.565471
476 6.09452 -3.53371 -6.85423 1.94698 1.57327 -2.805
809 6.08729 -2.86112 -6.07142 2.46958 -1.08885 -0.571784
761 6.17699 -4.50293 -6.08482 0.189147 -0.517399 -0.586741
474 6.7533 -3.95295 -7.63441 -0.882418 0.709198 -0.905545
480 7.68728 -3.83541 -6.83414 0.0357519 0.172111 0.156026
523 6.98857 -3.04766 -6.77048 -1.85616 0.418591 0.202667
762 7.02308 -3.79793 -6.11305 0.292666 0.419678 -1.63069
478 8.45072 -3.9722 -7.72013 0.215077 0.588784 -0.873945
436 9.11366 -3.80722 -6.92023 1.62296 -0.538018 0.138914
479 8.32474 -4.57074 -6.78043 -3.30788 -0.714477 -1.66995
766 8.5109 -3.73498 -6.17317 -1.02293 0.130643 -1.38546
770 -8.58945 -2.18786 -6.12851 -0.633475 0.310546 -0.184958
484 9.02745 -2.25434 -6.98999 -4.8569 -0.50005 1.62608
487 -6.95564 -3.05627 -7.01971 2.2476 -1.12278 -1.34801
488 -7.79537 -2.29713 -6.94823 -1.63898 0.427379 1.85807
774 -6.95864 -2.37931 -6.24495 -0.300277 -0.0791225 2.132
535 -7.02861 -1.52159 -6.84997 1.92106 0.325943 -2.23519
491 -5.46127 -3.13387 -6.97792 0.246618 0.402899 -0.91996
492 -6.21442 -2.23673 -6.9436 -1.51341 -0.195362 -1.15209
539 -5.35245 -1.63903 -6.88934 1.04908 1.06224 -0.864655
825 -6.31446 -1.42551 -6.12711 0.268644 -3.09639 -0.243162
496 -4.49589 -2.40273 -6.98916 0.742096 -0.348104 -1.58965
782 -3.78887 -2.29445 -6.13828 1.38791 2.00198 0.534127
543 -3.95371 -1.51882 -6.83906 -0.523638 1.01715 -1.53418
829 -4.67889 -1.48724 -6.20305 0.381259 1.28799 1.03315
500 -3.10431 -2.37164 -6.76456 0.76095 0.277936 0.648008
786 -2.27769 -2.21542 -6.02542 0.715607 -0.0857506 1.22357
547 -2.22887 -1.45272 -6.68052 2.5451 0.798268 0.694715
833 -3.05752 -1.54705 -6.09708 -1.94656 0.513425 2.52687
504 -1.71613 -2.2245 -6.79376 0.499727 1.37702 0.394295
790 -0.824143 -2.19147 -6.17526 -1.18125 0.762739 2.85885
551 -0.676259 -1.45459 -6.87994 -2.50113 -1.95145 2.30617
553 0.0498098 -1.70089 -7.65799 -0.0876985 -0.0991767 2.69515
508 -0.00435224 -2.13467 -6.60599 -0.106556 -0.0431388 -2.85579
506 0.801458 -2.41924 -7.78837 1.46295 -0.767243 0.731752
512 1.50351 -2.51352 -7.07299 -0.30143 -0.169404 -0.415474
555 0.852356 -1.7399 -7.01701 -0.786167 -0.983375 1.23169
794 0.864577 -2.23337 -6.09832 0.0358977 0.256412 -0.12315
510 2.3714 -2.39926 -7.61286 0.864719 0.899655 -0.236907
516 3.0038 -2.39894 -6.73606 -0.635295 1.24482 2.65266
559 2.23725 -1.72497 -6.90528 -0.646166 0.0153995 0.60742