ITEM: TIMESTEP
208000
ITEM: NUMBER OF ATOMS
6912
ITEM: BOX BOUNDS pp pp pp
-9.2265715179435492e+00 9.2265715179435492e+00
-9.2265715179435492e+00 9.2265715179435492e+00
-9.2265715179435492e+00 9.2265715179435492e+00
ITEM: ATOMS id x y z vx vy vz
3221 -7.7613 -8.29341 -8.12612 2.33825 -4.19485 1.54388
52 -8.40176 -8.19743 -8.95405 -0.494745 1.96941 1.67162
2936 -7.23851 -8.65287 -9.04585 1.27481 0.772324 2.58616
6296 -6.47132 -8.57572 -8.45202 -0.6242 -3.00734 -0.64545
67 -4.67761 -9.14238 -7.57368 0.607868 -0.500306 2.52354
6871 -5.47769 -9.11507 -8.52725 3.24343 0.771119 -3.67639
6869 -6.1243 -7.69789 -8.2494 1.98274 -0.206455 1.34981
2898 -5.18711 -8.22755 -7.94789 -1.09443 0.417098 -1.04223
4936 2.99304 -0.0574652 -0.605088 -2.39932 -1.03938 -1.8587
2359 -3.96286 -8.19733 -8.92768 0.989534 -0.708612 0.9299
2988 -5.85808 -7.28847 -9.20071 -2.39356 -0.965566 -0.804263
929 -3.28342 -8.68549 -8.42471 -1.41161 -0.396059 -0.945436
6832 -2.02045 -8.92596 -8.02409 2.06491 -0.46242 -2.52127
915 -8.50794 -9.08385 -3.60061 -1.71714 -0.694275 0.104719
2997 -0.755616 -8.37821 -8.88078 1.58042 -1.02057 -0.774732
987 -1.19384 -8.34225 -8.02261 -0.955558 -0.619415 3.22129
941 -2.35068 -8.37833 -8.7851 1.42818 0.777375 -0.464508
4298 0.0995643 -8.87945 -7.51273 0.662027 -2.93702 0.315945
696 -0.232885 -8.19164 -8.1812 -1.61056 -0.270806 1.75583
23 0.736543 -8.34011 -8.01094 2.9385 0.614032 2.15172
1350 -5.95485 -5.4985 -0.345927 0.12837 0.0709042 -1.25545
4016 1.60078 -8.39768 -8.43984 0.900786 3.60131 -1.62156
2983 -6.6639 -7.78245 -9.11855 -1.0643 0.698377 0.397531
3674 2.16012 -7.75526 -8.83695 -1.22159 -0.655308 1.25687
2304 8.26058 -1.39428 -0.810869 2.2695 0.128493 0.0341884
3641 5.43919 -8.85448 -5.96392 -2.5948 1.8174 0.640356
89 2.74935 -8.64341 -8.46346 0.364791 1.85374 -0.110533
327 3.7973 -8.11745 -8.00502 2.9401 -2.43742 -0.813276
3523 0.992131 -0.0891368 -7.58028 2.91436 -1.2937 -1.20487
654 4.58048 -8.41234 -8.67479 0.884108 0.102118 -1.14908
1732 8.67088 -9.10781 -2.06589 -1.68412 2.05606 0.579728
37 3.76193 -7.96881 -9.08157 -2.47085 1.74541 2.2026
1410 -6.04543 -0.179737 -4.31442 -4.43263 -2.33739 1.21195
93 5.53852 -8.07251 -8.29577 -1.36945 0.58938 0.721784
957 6.39677 -7.77676 -8.14209 0.320684 -1.46813 -0.0200604
6472 6.47433 -8.25438 -8.89648 1.14038 -3.6476 0.0643141
137 4.84819 -7.36958 -8.79377 -1.10704 -0.0430076 1.59582
3015 6.5695 -8.94166 -8.18383 -2.43434 0.118879 -0.847108
4 8.22524 -7.7698 -9.14602 -0.744235 -0.854649 1.5436
133 7.43053 -7.62205 -7.63312 1.8908 1.22634 0.381293
1378 5.37563 -0.0802185 -0.553168 1.83138 0.273323 0.89855
4162 3.79698 -0.088406 -6.57612 -4.4543 -1.69391 1.15327
3364 9.01483 -8.54056 -9.04955 -1.39125 -2.77653 -4.35185
672 8.90931 -8.41122 -8.03838 3.83871 0.648341 -0.815704
340 8.97708 -7.49799 -8.65518 0.852526 2.9299 -0.90612
628 8.44928 -7.53579 -7.73156 0.0413363 -2.28759 0.863552
624 -8.54572 -7.73339 -7.99423 -1.52595 -1.04542 0.602644
238 -8.16356 -6.77965 -9.09923 1.92036 0.873001 3.0534
3224 -8.71429 -6.21468 -7.65319 3.07259 -2.30489 -0.54335
4937 6.25212 -0.00351266 -0.192816 0.761687 -0.606675 -0.0602107
350 -7.87229 -6.72286 -7.97171 0.146478 -1.8362 0.61332
3692 -7.00159 -7.6479 -7.96037 0.397667 1.39965 1.90596
3263 -5.7977 -6.81382 -8.30765 -2.05947 2.16769 3.21741
8 -5.003 -7.31542 -8.52249 -2.37196 2.00618 2.4812
1992 -6.49375 -0.00339727 -3.05325 0.469873 1.99718 1.44873
3476 -1.73618 -0.00845331 -6.42461 -0.863339 2.71433 1.59341
9 -4.21753 -7.68544 -8.08717 1.86755 1.56855 0.86426
3036 -4.91904 -6.43422 -8.34645 0.949537 0.94962 1.42853
107 -3.80974 -7.05831 -8.70721 1.89855 -2.49021 -0.398357
1911 1.53278 -5.26864 -0.943553 0.488419 0.204106 -2.33421
2895 -2.1583 -7.74618 -7.97668 2.20399 1.80314 -2.35705
3239 -1.76796 -6.61321 -8.65052 1.16041 -1.86695 -0.00914738
3042 -2.77215 -6.73488 -8.31637 0.212403 -2.20653 -1.63364
3235 -3.18163 -7.72308 -8.20786 -2.94568 -4.12988 1.16104
3511 -6.0604 -0.0784166 -8.27544 -0.816055 -0.308439 4.53625
832 -2.63111 -1.38331 -8.87065 -0.148305 -1.78331 0.709783
77 -1.32927 -7.23971 -7.76751 1.30453 -0.699436 -0.410485
354 -1.34702 -7.62041 -8.74122 -1.33063 -0.751714 -1.95113
3709 -0.449543 -6.29968 -7.75331 1.33597 0.0919477 -2.30928
646 -1.59063 -6.1158 -7.83193 1.95702 1.675 0.40389
311 -0.479202 -7.2631 -8.17912 0.261466 -1.13236 -1.25953
5165 -0.739267 -6.42904 -8.66753 2.79693 -2.45514 0.339999
3955 0.464035 -6.71421 -7.61027 0.826728 3.78965 -1.5479
865 -4.72581 -8.58159 -9.17278 -0.567257 0.92758 -2.10083
368 0.586532 -7.32871 -8.46317 1.11117 1.32822 -0.986267
2946 1.40198 -7.52423 -8.01629 1.88979 1.46166 -1.13958
704 2.21956 -6.97077 -8.229 -0.0201428 3.25584 2.26576
4874 3.89139 -8.9115 -5.55208 1.77288 -0.896295 1.30853
3724 2.58369 -7.7165 -7.63869 -2.53173 0.303178 0.831714
2040 -3.29559 -9.07361 -0.562126 1.12079 -2.28613 -0.604325
4021 3.21943 -6.05284 -8.37966 -0.834803 1.01368 -0.311058
513 2.02768 -5.96284 -8.29961 2.64169 -0.78426 -1.11174
169 3.25309 -7.34175 -8.598 -1.29477 1.01692 -2.99344
4890 8.11363 -8.72575 -7.40344 3.58607 1.21586 2.43433
3248 4.06324 -6.93965 -8.24484 1.81533 -0.220321 -0.651531
2965 4.08887 -5.82971 -8.81874 -0.166259 -3.23079 1.09066
961 4.86182 -6.34666 -8.44736 -1.63671 1.8631 -3.46961
373 5.77663 -7.12525 -8.42819 -0.43552 0.809091 3.96622
669 5.75599 -5.78163 -8.58548 -1.38254 0.39982 -0.406269
1559 0.675111 -5.6434 -0.143043 1.5196 -0.315309 -2.74352
3299 6.76319 -6.7273 -8.42068 -2.80733 -1.7412 0.19067
622 7.16764 -7.5942 -8.64413 -1.70179 -2.78045 0.291708
667 7.43975 -6.10361 -8.48736 -0.643405 4.2298 -1.0736
266 2.91655 -0.156841 -7.77355 -2.36941 -4.48866 1.76873
6773 8.62095 -6.51678 -8.95998 -0.810479 1.19467 -2.90413
3218 -8.90032 -6.73143 -8.54756 -0.902756 -0.916248 -2.46617
474 7.93922 -7.0496 -8.39344 -0.688739 2.94128 1.35838
387 8.98991 -5.4322 -7.99828 0.435522 -2.25845 0.582304
150 -9.11137 -5.71182 -8.90639 -0.531971 1.81564 -2.03879
55 -7.88471 -3.87593 -8.27035 2.53843 -0.918474 2.71142
153 -8.65801 -4.53766 -8.20927 1.93785 0.478412 1.05584
1404 -5.14154 -0.264433 -8.08216 -0.536705 1.2506 -2.55889
108 -8.37315 -5.54572 -8.27625 2.92078 -0.697593 0.997209
200 -6.88676 -5.46824 -8.25774 0.210275 -0.166957 0.309468
2887 -7.53962 -5.9059 -7.63565 0.714925 -1.34845 -0.374491
2980 -7.57327 -6.01997 -8.70012 1.69471 0.99301 -1.6172
2704 -6.10866 -5.05223 -8.66834 2.22329 0.259408 -1.00226
300 -5.66526 -5.77843 -8.20298 -1.04545 -1.2836 -1.67807
449 -6.28945 -4.92224 -7.61043 0.34015 1.21293 3.34951
3368 -5.37567 -4.77079 -8.00437 -0.418916 0.891321 -1.79651
103 -5.13383 -5.18699 -9.10099 0.0158761 -1.6622 -1.53257
670 -4.61039 -5.5555 -7.72292 0.900987 0.578567 -0.378995
3271 -4.5838 -4.32475 -8.41914 1.62744 -0.912519 -1.01437
73 -3.2341 -5.13761 -9.06039 1.23771 2.79066 0.72666
68 -3.4394 -6.16 -8.82563 1.24166 -4.06279 0.814968
3277 -3.79392 -4.83704 -8.07814 -1.00334 3.23629 0.0753191
3802 -2.87389 -4.32593 -8.56905 -1.99551 2.85245 -0.442836
3323 -2.53651 -5.8328 -8.64332 0.476861 1.82499 -0.621154
64 -2.1696 -4.96766 -8.9647 0.948542 -0.0625243 2.52898
404 -0.407723 -5.25214 -8.13158 0.358239 -1.42975 1.43875
355 -1.85112 -5.2375 -8.04507 1.70286 -0.22184 -0.809597
71 -1.60531 -5.73712 -9.04405 -0.906712 0.253507 -0.562406
78 1.17571 -6.05366 -8.81071 1.24685 0.124377 -2.26242
652 -0.214802 -5.35067 -9.10475 -1.89413 -1.69928 0.558817
938 0.343139 -5.96191 -8.38011 -0.387579 -2.83189 -2.38634
607 -0.218277 -7.63596 -9.04173 3.06595 1.15757 1.46344
1997 1.41447 -0.0627919 -0.927075 0.640329 -3.75417 0.908107
351 1.3404 -5.86293 -7.41467 -1.04099 -2.03772 0.181981
651 1.30817 -4.73521 -9.05997 0.777501 -0.221361 -0.779567
700 1.19847 -5.19698 -8.09608 -0.225513 2.62849 1.26454
1993 -2.89206 -2.20653 -0.186341 -0.879556 -1.44334 1.00236
2004 7.30649 -0.143494 -1.38655 -1.28743 1.21955 -1.67346
172 1.99922 -4.80712 -8.40829 0.274376 -0.0755303 0.620713
3260 4.69897 -5.48642 -7.9897 0.523795 1.46185 1.4051
131 5.07501 -5.10863 -8.71959 -1.24735 0.794654 -2.424
83 3.79067 -5.18036 -7.84704 -0.200819 -2.25586 0.0114677
661 4.61006 -4.48541 -7.5459 0.115937 2.20139 -0.583959
230 5.42355 -4.73709 -7.8937 -0.120638 0.410205 -1.33937
3254 6.373 -5.0648 -8.22704 -1.29496 2.72051 -1.93557
3303 6.31231 -4.01677 -7.95051 -0.436439 -3.05944 -2.80177
3249 6.23873 -5.60485 -7.29898 4.19577 0.960523 -0.447259
434 7.12643 -4.80828 -7.49818 0.0066434 -0.239988 -2.17242
425 7.05916 -6.07611 -7.52806 1.12419 -2.93464 -1.4013
3399 7.39626 -5.16803 -8.89427 0.700571 1.4956 0.987628
3264 9.1193 -4.61499 -8.82566 -1.10795 -2.77307 0.192425
3354 7.99211 -4.96481 -7.94852 -0.620974 1.81301 -1.50267
192 8.36521 -5.5276 -8.70188 1.49422 0.699293 -0.29393
723 8.10555 -5.86515 -7.83078 0.859878 -1.35874 1.5482
3417 -8.45873 -4.91169 -9.09098 -0.884543 -0.251694 -0.675226
4087 -9.02775 -3.5727 -8.05479 -1.49974 -0.4508 2.59117
3319 9.099 -3.60619 -8.95264 -1.35685 2.54493 3.5251
5395 -2.37409 -9.16 -0.712132 0.0456493 2.99305 -1.36043
679 -7.0552 -4.26591 -8.00768 -2.10101 1.25459 -2.4303
556 0.856454 -0.397182 -4.21043 -2.12191 -3.71076 0.42945
675 -6.56804 -3.3587 -8.65395 -0.241567 0.0332278 -2.32968
3123 -6.44181 -3.43149 -7.71881 1.10161 0.0473495 2.93613
3037 -5.67486 -4.00963 -7.26729 1.212 0.390408 1.90376
251 -6.03218 -4.11403 -8.23208 -2.29806 0.0523935 1.62409
352 -4.07258 -3.74352 -7.98848 -1.32046 -2.0439 -1.11226
3157 7.5161 -2.62201 -8.60672 -1.15205 1.59746 1.76848
118 -3.80284 -4.30006 -9.10973 -2.20949 -2.38886 -0.505019
110 -3.15852 -3.94571 -7.77992 0.156314 -1.49065 -0.374154
699 -3.25665 -3.42809 -8.69914 3.56338 2.14004 0.604309
4044 -9.02324 -0.0937149 -6.68442 -1.00113 -0.214059 4.13022
2708 -2.35799 -3.38799 -8.39713 -2.22179 -3.58498 -2.02918
645 -1.18127 -4.95965 -8.62081 0.282662 -2.94018 -1.39348
545 -2.11227 -4.30627 -7.9553 1.16527 -0.700724 -1.27549
742 -1.30028 -3.85019 -8.44513 -2.57147 -0.266679 -1.25051
3095 0.413277 -4.79246 -8.49522 -1.62186 -2.30465 0.961987
502 1.40766 -4.00132 -8.26807 -0.0927332 1.62849 0.247636
3483 -0.25068 -3.84377 -8.04581 -0.836784 1.6609 -1.46651
3431 0.638975 -3.91747 -9.12844 0.723906 -2.44454 -3.27022
703 1.87696 -4.28596 -7.46807 -1.58034 -0.186656 -0.199345
132 2.3652 -3.81893 -8.43502 -2.63779 2.30509 -2.27471
577 7.29285 -9.03261 -7.44031 0.282196 -1.3936 -0.194354
470 1.29664 -3.34315 -7.31498 0.428619 -1.5587 -1.12958
6653 2.6711 -3.05653 -9.11292 1.2564 1.10958 -3.57973
184 2.83618 -4.27147 -7.82402 -2.43256 -1.76256 1.92988
3791 3.55845 -3.2675 -8.52626 -2.64509 1.04923 0.324362
4394 -0.000205373 -0.0278606 -4.66968 2.79021 -0.626201 -0.447816
134 3.08702 -4.14127 -8.9172 -1.0543 2.25773 -1.6602
223 4.75984 -4.09352 -8.46797 -1.09361 0.328195 -0.316435
126 4.33847 -2.67777 -8.83358 -0.510626 0.536357 0.777683
757 3.96131 -4.80127 -8.7988 1.75786 -1.04562 2.59246
142 5.73838 -3.97222 -8.75407 1.14068 -2.3487 0.900975
709 6.12515 -2.89483 -7.93985 -1.76366 -1.35446 0.554247
524 5.37409 -3.68295 -7.68306 -0.687393 0.72603 -0.501139
136 5.47342 -2.84108 -8.68332 1.69537 -1.78779 1.93025
3446 5.81246 -1.94292 -7.95464 0.525016 0.726496 -1.69288
910 7.01362 -3.15422 -7.95855 0.646482 0.636743 0.385272
3839 6.50558 -3.2395 -8.93665 -0.936998 0.279699 -0.530787
194 8.85983 -4.30563 -7.96981 0.476627 -1.59847 1.73425
1006 8.14175 -4.3961 -8.7635 0.208951 -2.35733 3.23175
815 8.19244 -3.36511 -8.43614 0.264513 -0.17174 0.768244
197 -8.3759 -2.77927 -8.41664 2.66743 0.343762 0.278924
3459 9.22193 -1.82947 -8.20647 -0.640827 -2.69926 1.4417
4330 -8.47275 -1.93881 -8.92858 1.98287 -2.45411 1.18129
3076 -8.35212 -1.68869 -7.97018 1.97751 1.49523 0.142637
486 -7.26936 -2.65839 -8.72211 -1.35617 -2.01542 -0.983529
4340 -6.72205 -1.89711 -8.33987 2.15544 -1.40694 -0.0186996
824 -7.31822 -1.21646 -8.11819 -1.52883 2.7161 0.571848
390 -5.76903 -1.67131 -8.93924 -0.519123 3.84039 2.93389
106 -4.67866 -2.89962 -8.06629 0.881661 -1.59295 0.232117
157 -5.67352 -3.19513 -8.6101 0.930589 -0.248304 -1.98216
3283 -5.52493 -2.22086 -8.09494 -1.36924 -0.163234 -0.877245
159 -3.67166 -2.67849 -8.00405 0.353342 1.41986 -2.14188
3335 -4.58527 -3.39465 -8.95093 -2.31805 -1.39011 -1.29944
3282 -4.55198 -1.93715 -8.4116 -2.20438 3.4803 1.5175
2853 -3.69061 -2.64084 -8.93168 -0.757118 -3.38784 -0.649004
3427 -2.77426 -2.52474 -8.49702 -0.312971 -0.0503001 -1.34136
407 -2.88763 -2.10714 -7.73459 -3.62899 0.0587076 4.72538
457 -1.06099 -2.90664 -8.76624 0.376915 0.953884 -1.05708
3378 -3.52679 -1.66181 -8.54681 -0.536878 -2.39095 -1.95145
3288 -1.78144 -1.77826 -8.63929 -0.0212791 -0.265158 -0.668179
567 5.79563 -1.54118 -8.81591 -3.37641 2.7073 -3.99424
4059 0.154452 -1.33952 -8.38466 -1.345 1.08381 1.53582
2415 -0.164197 -2.95264 -8.40629 0.426216 -2.47693 2.16695
3766 -0.526421 -2.00729 -8.77137 1.56642 -0.988529 -0.451222
4068 3.92082 -0.67942 -3.41659 1.0697 -0.195911 1.63265
519 0.682987 -3.42572 -8.21733 -1.10674 0.380792 -1.39278
3048 0.92034 -2.09804 -8.67785 -0.105581 -2.55633 1.23259
461 1.70424 -2.98032 -8.15925 -1.76537 -1.75417 -0.0218661
551 2.76446 -2.89148 -8.09713 -1.00551 -0.580069 -1.97589
476 2.7737 -1.70682 -8.00032 -1.70295 -1.05787 1.29593
269 4.1616 -0.800539 -8.14663 -2.05713 -0.234816 -0.150323
217 2.07778 -2.36615 -8.7662 -2.25835 -0.398757 2.51047
564 3.55866 -2.35178 -8.01161 2.20109 -1.42899 3.9745
850 4.9156 -2.29407 -8.17687 -0.576516 -0.192579 -0.201098
3405 4.83751 -0.978333 -9.05527 2.97691 5.1429 -0.159668
4110 4.02419 -1.70642 -8.67722 0.608184 0.29593 -2.85922
3348 5.82812 -0.684325 -8.37036 -0.314704 1.013 -0.604781
1460 -3.16853 -6.05033 -0.629631 0.598798 0.925835 -0.849617
913 -8.64726 -9.08124 -8.06232 0.449392 0.150762 -0.899187
3783 6.48246 -2.29162 -8.82415 -1.02291 -0.513315 3.57694
2874 6.96399 -2.0877 -7.68647 0.325731 -3.0698 -0.718049
284 6.52043 -1.27485 -8.05874 2.71682 0.889442 -3.18844
536 8.92334 -2.74324 -8.19679 1.04748 -3.79395 -1.27276
3404 8.18626 -2.04269 -8.32552 -1.84138 -0.743347 0.653498
3464 8.6471 -1.61465 -9.10919 -1.2863 2.45691 -0.660026
715 8.64291 -9.18918 -6.76636 0.876375 -2.50959 -0.765835
4597 7.04471 -8.72238 -4.084 0.323938 -2.51328 0.909927
3798 -8.43166 -0.772593 -8.54423 -0.666665 -1.35493 1.14342
1184 0.652596 -8.99127 -1.78632 0.00148189 -0.169936 -0.016314
1137 2.26274 -1.24195 -9.11315 -3.94128 0.032677 -0.982496
2743 -6.71553 -0.759973 -8.72362 3.83156 0.610873 -2.96976
3474 -2.2883 -0.0525758 -5.5397 1.81151 -1.12789 -1.32822
3752 -6.02729 -1.04581 -8.20072 -1.94087 -1.54629 -0.53153
5158 1.82983 -9.06094 -2.3071 -5.63652 1.17667 -0.429841
2677 5.12586 -8.63712 -1.00533 -0.237433 0.588728 -1.97735
250 -5.26233 -1.28151 -7.71689 0.834512 -1.65321 1.64172
117 -5.09376 -0.957937 -8.81487 -1.85609 -1.14419 2.69269
3424 -4.26997 -0.968686 -7.96066 1.50684 -0.655848 -1.85524
3284 -5.11398 -2.51188 -8.91038 3.26412 -0.635315 -1.75184
3080 -4.35974 -0.308408 -8.84517 -0.656523 2.80003 -0.0694189
3855 -2.03423 -1.65105 -7.7025 -0.07939 -3.02049 -2.32459
3127 -3.3958 -0.703627 -8.53849 0.328201 -0.38971 1.00101
4060 -0.580914 -0.597437 -8.51469 1.24773 -0.870351 -3.60435
834 -1.31729 -1.21441 -8.00268 -1.4962 1.49419 -0.573095
260 -1.90966 -0.775145 -8.61114 0.414945 -0.125286 -0.92989
4100 0.225274 -0.617498 -7.67541 1.02258 -1.11042 1.4187
3423 0.478045 -0.491142 -8.70266 -0.546541 -0.130522 0.0612299
6856 6.3767 -7.43801 -9.21244 4.41914 -1.7289 -1.1434
4057 1.85961 -2.04546 -7.88502 -1.61038 -3.139 3.38636
1026 1.55707 -1.3196 -8.53155 3.8197 -0.678377 2.59769
27 -4.24649 -9.17106 -6.63323 -0.184831 -0.0107907 -2.0292
3386 2.15044 -0.893653 -8.00773 -0.183646 -1.18893 -0.198805
3816 3.09923 -0.922221 -8.5217 2.76929 -2.07973 -1.21548
1399 -8.61624 -0.0596149 -1.06188 1.40104 -1.52589 -0.716584
6709 3.08848 -1.02626 -7.32423 0.177666 2.79917 -1.27996
398 -2.06938 -2.7073 -9.03934 -0.442458 -1.59871 0.975708
4636 -5.78215 -0.142351 -2.37043 3.47847 -1.09254 0.527619
936 -1.18711 -9.07423 -0.289951 1.43726 -0.0198284 0.483936
3833 6.5132 -0.92946 -9.22099 0.72552 -0.0156769 -0.574918
4457 5.08866 -1.23389 -8.23682 1.25113 0.907883 -0.834386
1028 -5.60432 -8.61882 -3.32393 -2.19191 3.24256 -1.82471
970 -7.21673 -8.84685 -2.5178 0.557614 -1.65488 0.947281
4070 7.2615 -0.418677 -8.8449 2.55538 1.75046 -3.45447
3549 8.00441 -0.448664 -7.23835 0.272155 2.73971 -0.631946
532 7.48993 -1.02773 -8.12825 -0.299545 3.08248 -1.20742
1449 -6.31882 -9.06733 -2.64703 -1.31214 1.48914 0.434458
4033 8.51545 -1.13513 -8.11641 -1.14809 0.873393 0.694192
574 9.04677 -0.417288 -8.82686 -0.296684 -1.19725 0.076494
3308 8.17376 -0.215202 -8.41673 -0.625006 2.27012 -1.79346
3992 -7.65677 -9.08245 -6.63671 -2.56482 0.0277297 0.815688
3986 -8.4485 -8.56984 -7.17763 -1.93998 -1.46252 -0.414261
2939 -7.6653 -8.07032 -7.25387 -0.914077 -1.69841 -0.579235
5583 -0.330633 -0.242545 -0.303837 0.811072 1.98425 -1.79077
6867 -6.68729 -7.26947 -6.39406 -0.390547 -1.42651 0.522543
627 -6.52167 -8.30495 -7.43971 -0.131564 -3.11498 -1.11605
388 -5.96366 -7.95505 -6.15763 3.22196 -1.37583 0.902337
35 4.24488 -6.67193 -9.16329 0.689309 -2.03989 -0.558772
2595 -6.93428 -6.93024 -8.79377 -1.05921 -0.955075 0.754705
6910 -5.66198 -8.82962 -5.73673 4.03637 -4.37272 2.11463
10 -4.68211 -8.24433 -7.14429 1.29574 1.88683 1.2553
5 -5.59997 -8.09633 -7.00875 -2.06091 -0.381368 3.06634
3366 -7.65822 -1.48423 -9.0578 -1.65777 0.424204 3.03606
634 -3.82666 -8.61794 -7.53888 -0.310207 1.35614 -0.70714
889 -3.37699 -8.73615 -6.55966 0.258572 2.19912 -2.62179
115 -3.84606 -7.20318 -6.76737 1.19258 -0.0633364 0.858208
329 4.9786 -9.19621 -7.93154 1.2275 2.23939 1.10391
3712 -1.6065 -8.07656 -7.08352 -1.3612 -2.21336 0.582693
72 -2.75805 -8.64744 -7.51638 -1.13223 0.00900421 -2.48507
395 -2.42645 -8.30977 -6.39268 -0.16452 -0.807596 2.34079
273 3.85732 -0.863095 -9.18207 1.11213 -1.39859 2.20201
638 -2.22393 -7.27174 -6.42967 0.761112 -1.58152 0.0647558
4013 -1.52822 -8.84834 -6.38381 -0.814068 0.859174 -0.169399
4587 -0.616144 -8.0693 -7.16255 -2.9919 0.706579 1.8229
19 -1.35414 -8.93698 -7.30053 -0.645435 3.1791 -1.64141
1037 -0.722842 -8.48196 -6.18703 -2.00301 0.0529918 -0.725411
606 0.548755 -8.36123 -6.71798 3.36993 -0.055204 -0.511897
603 -0.37839 -7.11509 -7.27284 0.777333 -1.43352 -1.54386
978 -0.138172 -7.70596 -6.29063 0.547262 -0.351188 0.380016
653 0.368046 -7.66242 -7.43819 -0.905273 2.02144 -1.90673
1673 4.71591 -0.422845 -6.8465 0.610977 -0.791105 -0.899709
82 1.46223 -8.59639 -6.27097 0.0186088 -1.33932 4.37801
898 2.24175 -8.61874 -7.41704 -2.40856 -1.82228 0.00317274
2695 -4.24532 -5.53916 -8.67728 3.42619 0.474443 -3.01942
306 3.37044 -8.24245 -7.17329 -1.73394 -0.656739 1.24914
3194 3.68888 -8.98117 -6.54188 0.258957 -0.275344 -0.896767
3965 3.24579 -8.9658 -7.65781 1.15647 -0.310238 2.41035
417 4.15769 -8.83984 -7.32797 0.529388 0.376584 -0.386106
4865 -5.18923 -9.17086 -2.69364 0.754214 -2.39426 0.705666
899 3.41877 -7.28759 -6.31567 -0.147097 2.37837 0.544573
328 4.62488 -8.75662 -6.41003 -0.688525 3.93144 -0.945666
2012 8.58258 -0.281389 -0.652209 1.50352 2.97073 0.0693441
4312 3.69435 -8.97395 -8.54035 1.67383 -4.65153 -2.32759
40 5.01141 -8.3702 -7.32623 -2.8049 1.8374 -0.651005
759 5.83201 -8.20319 -6.53657 -2.03263 0.0912653 -0.90293
51 5.86912 -8.6595 -7.64509 1.3056 -1.76517 -2.42529
578 6.9135 -7.97283 -6.04802 1.88135 1.34077 -1.53227
907 7.89373 -8.32345 -8.31811 1.6645 -0.11917 1.12213
4604 7.57373 -8.20451 -6.78488 2.40626 -1.10314 2.08265
2135 -1.95366 -4.51171 -0.151962 -0.566246 0.458928 -1.70679
7 9.05225 -8.41017 -6.97568 1.56977 0.282415 -1.14133
953 6.68338 -7.83893 -7.09665 0.707417 -2.22117 0.054607
619 -9.13195 -7.4403 -7.18516 -2.59073 3.10831 1.5435
4280 -8.355 -7.04069 -7.02464 -3.25834 -0.229867 2.63269
338 -8.84851 -6.05193 -6.39686 0.918729 0.814208 -0.634055
4276 -8.48429 -8.00611 -6.34085 -1.88321 1.61529 -0.770164
383 -7.58278 -6.51311 -5.86495 1.46713 -0.539034 0.519827
4562 -7.36781 -6.98764 -7.2032 -1.60943 -4.48845 -5.28412
405 -8.35327 -5.40146 -5.69524 0.463192 -4.03302 -1.75374
3317 -6.83928 -6.48665 -7.94254 -2.7867 2.1621 -2.36187
151 -7.70181 -7.46205 -6.43884 -1.80695 -2.69993 -0.584198
393 -6.31617 -7.31245 -7.38836 -0.881584 -1.29944 1.70724
6868 -5.97324 -6.36052 -7.44518 2.45179 -1.07847 0.252455
3315 -5.88237 -6.94344 -6.62721 -0.763463 -0.160745 1.13151
781 -4.85555 -7.5651 -6.56223 -0.163165 -1.61462 -1.60691
441 -4.46424 -6.73245 -7.46979 -2.00465 -0.899459 0.307868
2608 -3.4235 -6.82696 -7.70347 2.27946 1.1851 -0.511332
3184 -5.21076 -7.37272 -7.38585 0.562877 -0.823067 -0.955264
2710 -4.39152 -6.43441 -6.25082 -2.76087 3.26396 -2.8727
6792 -3.1432 -7.70639 -7.2161 -2.69165 0.520911 0.0567491
4009 -2.80958 -6.763 -7.00838 1.23978 -0.833515 1.55276
342 -3.64658 -6.79194 -5.84922 -1.83443 0.75822 2.22748
630 -2.46809 -5.86017 -7.42657 -1.35228 1.19436 1.05349
1025 -1.91975 -6.8241 -7.21363 2.20516 2.59645 1.13539
4008 -1.12636 -7.35916 -6.56019 0.9887 -0.932233 3.90256
310 -1.04243 -6.45095 -6.9095 -3.64693 2.63845 -0.446691
363 -0.17378 -6.47355 -6.487 3.7428 0.229915 1.36528
986 0.664719 -6.29396 -5.85864 0.177503 0.498335 0.938319
3715 0.773386 -7.02004 -6.81588 -3.02131 -2.05147 1.25573
1186 1.50349 -6.31246 -6.45249 -0.296525 0.0699874 0.534878
615 1.57675 -7.85263 -7.04199 -1.64314 0.744275 -0.625466
755 1.65394 -6.80685 -7.37568 0.699067 -3.96533 -0.707544
858 1.81846 -7.3445 -6.12426 0.64096 -2.36606 -0.0256909
4310 3.12308 -6.32252 -6.80392 0.569227 -0.0819249 -2.14673
753 3.06348 -6.72506 -7.72098 1.753 -0.241861 1.12675
175 3.9721 -6.19428 -7.61837 0.442639 1.04954 -0.0504748
4018 4.74267 -7.62374 -7.84937 -0.0942545 1.40054 1.03464
183 3.80844 -7.32355 -7.35768 -1.10364 -0.649152 0.366174
187 4.29404 -6.48601 -6.65331 1.22009 -1.9405 -0.896005
1234 4.18947 -7.93038 -6.61955 -0.717079 -2.12757 -0.709213
663 4.82411 -6.69343 -7.52175 0.540058 0.229091 1.03162
620 5.61387 -7.55643 -7.49512 -3.11756 0.813489 -1.08974
91 5.67434 -6.35991 -7.76039 1.93479 -0.61101 3.01024
336 5.34081 -6.46032 -6.57697 1.35601 -1.202 1.63078
3272 7.8743 -6.7357 -7.24576 0.0270423 -2.2254 -1.35692
4317 6.05962 -7.29279 -6.56865 -1.33596 2.29252 2.75436
3734 6.52438 -6.93658 -7.53122 2.55212 -1.59479 -4.91023
3219 7.4994 -7.13407 -6.43402 1.64298 -1.80816 0.510487
384 6.27574 -6.377 -6.64748 0.39141 -0.426042 0.424555
190 7.21304 -6.23288 -6.45873 -1.40974 1.15714 1.30184
3988 8.94277 -6.71611 -7.7819 2.19122 -1.30639 -2.48203
437 8.41929 -7.55893 -6.72613 0.335618 -3.50483 -0.981877
467 9.03587 -6.83174 -6.32875 1.86577 1.9605 -1.40001
440 -7.77434 -4.93476 -7.91332 3.02054 2.20911 -0.707024
868 -9.15068 -5.02664 -6.28412 -0.041604 1.9533 0.026839
972 -8.15657 -5.08255 -6.75509 1.41571 -3.31436 -0.469064
241 -7.13298 -5.09812 -7.05035 -4.27104 -0.88322 1.17976
2984 -7.93793 -6.10722 -6.75153 1.06744 1.33556 2.11393
3032 -7.2102 -5.58621 -6.11145 -2.79573 -1.63248 -1.02233
629 -5.51072 -5.43642 -7.19349 0.829154 -0.31659 0.0382983
909 -6.71748 -6.06457 -6.86887 -2.71466 2.88076 -0.823756
294 -5.1666 -6.34984 -6.95155 -0.842253 -3.32972 -1.81687
3331 -6.23294 -5.19939 -6.40293 0.833995 -0.538194 0.442616
394 -3.62171 -6.22097 -6.87499 0.996001 -1.08578 0.167014
3278 -4.4881 -4.52754 -7.50469 0.868182 -0.830142 -2.1575
500 -3.66252 -4.90813 -7.17836 -1.81029 2.39251 2.43163
402 -4.42132 -5.62088 -6.75838 0.182522 -0.370445 1.33977
2948 -2.84601 -5.13762 -7.99908 -4.44918 -1.84946 -1.41095
12 -3.61083 -5.79882 -7.78836 1.07549 -0.576826 0.751049
302 -2.67719 -4.95617 -7.0218 -0.905689 0.49903 0.0506362
453 -1.45709 -4.95317 -5.94313 1.72829 0.519004 0.00404699
207 -1.6622 -4.83381 -7.15818 2.85448 -1.23668 2.44648
644 -1.12529 -4.21144 -7.5672 -2.57458 -0.444441 -0.0362023
359 -0.958793 -6.07726 -6.02065 2.19208 -1.09608 -1.87221
993 -0.773467 -4.75615 -6.74463 3.966 -0.505996 2.35939
353 -0.937303 -5.51363 -7.37398 -1.27257 -0.182641 0.853019
304 -1.68828 -5.56066 -6.60678 -0.614877 3.01467 1.25446
795 -0.22848 -5.53308 -6.49369 -1.36494 -0.636403 0.0456136
793 0.856755 -5.49553 -6.31044 1.45512 -1.75881 -2.56672
1364 1.13718 -4.76847 -7.16811 -1.37475 1.37196 -0.49377
1420 -0.0390663 -4.75346 -7.48806 0.161838 -0.348394 1.21537
448 1.05427 -4.66538 -5.92752 0.523737 0.83811 0.887712
657 0.405634 -5.58261 -7.47653 -0.435726 0.208878 -2.1808
849 1.88265 -5.49916 -6.18232 -0.00948444 0.540539 0.460824
1326 2.35413 -6.26877 -7.33498 2.25763 -4.13759 0.695735
3434 2.691 -4.86386 -6.06784 -1.07673 -1.25448 2.93724
605 2.83214 -5.28366 -7.94644 -3.55005 0.750847 -3.13671
807 3.05023 -5.3596 -7.04504 -0.909247 -0.79114 -1.6331
370 2.14901 -5.1728 -7.2043 -2.43479 -1.79872 0.67706
92 4.14148 -5.28266 -6.91606 1.21219 0.134511 1.65841
95 4.36 -5.69074 -6.10989 1.49279 -2.07474 0.378195
3351 3.56355 -4.99808 -6.27642 -3.83753 -1.81554 0.928999
468 5.11336 -5.73398 -7.12492 -0.117868 -1.53647 3.58637
39 5.94988 -5.38947 -6.45351 0.733056 -0.0919919 3.70178
571 6.224 -4.56636 -7.00439 -0.864996 3.73858 -0.323081
710 6.95563 -5.21321 -6.64789 -2.32624 -0.327235 -0.27791
385 7.8698 -5.55029 -6.93613 0.404106 1.02213 -0.454213
1101 7.70712 -4.54373 -6.83198 -0.352208 1.73894 0.811588
3361 8.91438 -5.9027 -7.07382 2.01029 -1.62406 -2.14946
3314 -8.77084 -5.22509 -7.42492 1.29396 -2.03072 0.313959
112 8.14693 -6.34337 -6.43925 -1.28367 -1.21421 1.89632
768 8.63351 -4.83013 -7.03086 0.910279 1.73052 -1.6484
3269 -7.83793 -3.53548 -6.18343 2.50647 0.243227 0.252523
3267 -8.17971 -4.22531 -7.31951 -0.787232 -0.436538 -2.41346
156 -8.79445 -2.60248 -7.61777 -1.6634 1.79929 -2.49355
525 -9.08798 -3.21971 -6.46228 -0.6736 0.493822 -1.69806
433 -9.05943 -3.9622 -7.23329 1.55884 -1.42358 -0.881528
684 -8.73821 -4.01944 -6.40207 1.75863 1.6514 0.0149582
3276 -6.41729 -4.28462 -6.70995 1.16904 -2.30749 2.90053
242 -8.16538 -3.01559 -6.98043 -1.2272 -1.73167 1.00614
680 -7.30757 -4.07558 -7.05074 2.71937 0.712915 -0.680495
209 -7.34898 -4.50469 -6.13181 -1.43416 -1.37761 0.82251
2703 -5.21709 -4.48147 -6.71726 0.399865 -0.960921 -0.264758
1069 -4.43981 -4.41593 -6.19777 4.19361 -1.02367 2.42478
396 -5.88443 -3.52478 -6.35196 -3.49405 2.78346 0.491286
796 -5.43195 -2.94114 -7.42093 -0.835935 -0.172815 1.76494
2702 -3.79749 -3.31094 -7.21274 -0.886614 -0.632705 -0.622706
216 -3.48319 -4.09602 -6.67473 0.69182 -1.19033 0.367855
830 -4.82965 -3.61454 -7.02582 -0.380636 -0.726824 -0.550816
1078 -3.60212 -5.08159 -6.30093 0.951381 -0.0163792 -1.80439
543 -4.30887 -3.42271 -6.26512 0.583961 0.249358 1.5129
489 -5.20156 -2.78383 -6.38778 -0.560965 -0.497688 2.09224
493 -1.77321 -4.15842 -6.61806 -1.08114 1.22303 2.93349
739 -2.59843 -3.91104 -7.01366 -1.91108 -0.90552 2.27965
495 -1.88694 -3.32837 -7.42397 4.68835 1.41479 -2.79018
211 -0.313693 -3.87278 -6.91763 -0.431391 0.63963 3.03538
411 -0.440348 -4.48802 -8.71774 0.249742 0.923847 1.88498
165 0.0238895 -4.37701 -6.1777 -0.651552 0.437845 0.155152
511 0.516229 -3.95867 -7.37642 1.01026 1.21212 -0.0634719
845 0.747178 -3.85093 -6.38528 -2.10598 -0.552075 -0.465288
506 1.87492 -4.47877 -6.37015 -0.246824 1.98029 -1.00704
3384 2.33035 -3.48341 -7.4093 1.41582 -2.9631 2.58527
3823 2.57113 -4.2181 -6.85824 3.29127 -0.888906 -0.812982
4927 3.46437 -3.47718 -7.51605 0.0685032 0.990751 -3.87836
4347 2.89255 -3.24101 -6.61986 -0.704713 -0.917792 -0.672426
3345 3.51895 -4.38965 -7.14449 -2.81376 0.103308 0.686893
860 5.1272 -4.91099 -6.732 1.75564 -2.80618 -0.568936
1086 4.14025 -3.72092 -6.71482 1.49981 -1.62574 0.582848
4654 4.62508 -3.27291 -8.02827 -5.26822 -0.0896756 0.884312
473 3.73395 -4.20718 -8.1576 -1.24657 -2.83449 2.48489
127 6.39288 -4.73776 -5.70472 -0.804845 0.349439 -1.5657
805 6.08624 -3.49319 -7.03225 0.900685 0.643276 -0.676605
529 5.31257 -2.76957 -7.23088 0.390226 0.225876 0.776862
481 6.93608 -2.9592 -6.89251 3.82637 -1.26343 1.61082
148 7.1378 -3.86861 -7.24797 -0.309206 1.59344 1.23568
531 6.67346 -3.73979 -6.19887 0.0846887 -0.43043 -0.901614
813 7.79296 -3.2686 -6.69649 -0.386443 0.790066 -0.230475
233 7.99329 -3.91007 -7.63125 -0.522084 -1.42843 -1.27733
436 8.5517 -4.01365 -6.61779 -0.405803 0.531581 1.08658
572 8.68777 -3.2035 -7.28216 -0.289308 0.556711 2.17898
534 -7.52194 -2.15597 -7.87283 2.67094 1.11932 -0.767396
6669 -8.27104 -2.04188 -6.90763 -1.71067 0.199121 -0.603219
766 -7.72761 -1.26356 -7.15863 3.80579 -0.365666 0.291434
769 -9.18552 -1.72426 -6.47376 -0.345913 1.40878 -1.21276
4329 -6.99051 -3.25525 -6.67868 3.58858 -2.08996 0.704592
482 -7.59358 -3.1361 -7.81687 1.31843 -0.769135 -0.768934
152 -7.13872 -2.12618 -7.0165 1.0087 -0.605079 0.246681
3084 -6.64475 -2.54654 -7.75192 -0.940342 -0.401028 1.12857
729 -6.6281 -2.04847 -6.12112 -0.550664 1.385 -1.86494
438 -6.2358 -2.59445 -6.80772 -1.82713 -0.423344 0.0946634
3365 -5.44445 -2.0726 -6.88545 1.26235 1.73994 -1.74586
1121 -5.50145 -1.10093 -6.55974 1.80353 -1.66891 -0.378343
205 -4.53462 -2.65422 -7.0951 -0.312516 0.724166 0.85944
3371 -3.47592 -2.32388 -6.98128 -0.886651 3.3948 0.0264852
4046 -4.32817 -2.08781 -6.27875 0.239855 -1.19412 -1.96771
452 -1.89311 -2.64571 -8.06157 1.10813 -3.45686 0.381669
3375 -2.48365 -2.3465 -6.80624 3.42616 -0.999804 0.775432
548 -2.75974 -3.04524 -7.39574 1.69852 0.99626 -2.70667
4043 -3.13724 -3.22153 -6.3416 1.76771 -1.88402 -0.680463
1365 -0.943419 -2.20772 -7.91714 0.488244 -2.7817 -2.43375
6645 -2.00798 -3.24618 -6.35361 -0.273007 -1.90284 0.692653
4058 -0.946798 -3.24332 -7.65594 -0.610283 0.656313 -0.0128008
3807 -1.59615 -2.41485 -7.1876 -1.06894 -0.23778 0.79311
360 -1.01036 -3.24426 -6.43118 0.319242 -1.27323 0.833932
221 0.20508 -2.23455 -7.92401 -3.88768 2.03036 -1.17739
797 0.0220132 -3.01109 -7.34157 -1.41751 0.0302757 1.28346
1125 -0.667833 -2.24675 -6.8086 -0.403652 0.830413 0.44345
4112 0.407164 -1.94991 -6.98107 1.87861 -0.490494 -0.655669
553 0.97841 -2.43693 -7.56904 -0.100026 2.5419 0.893279
794 0.914799 -2.74638 -6.55489 -1.10814 0.779144 0.519635
274 1.31834 -1.86293 -6.84525 0.122376 0.182824 -0.777977
559 2.02623 -2.61381 -6.96992 0.989433 -1.312 2.22273
4359 3.13294 -2.48094 -7.08593 -0.0989553 2.21832 -0.10855
3049 2.27603 -1.56907 -7.03237 -3.72959 -1.13916 0.64642