ITEM: TIMESTEP
21000
ITEM: NUMBER OF ATOMS
6912
ITEM: BOX BOUNDS pp pp pp
-9.2265715179435492e+00 9.2265715179435492e+00
-9.2265715179435492e+00 9.2265715179435492e+00
-9.2265715179435492e+00 9.2265715179435492e+00
ITEM: ATOMS id x y z vx vy vz
4 9.216 -8.59579 -8.43922 2.15719 1.21581 1.87659
290 -8.43341 -8.47566 -7.69545 -1.57458 0.863691 2.14403
583 -6.87583 -9.15333 -5.37899 0.139165 1.22334 0.712419
4943 8.36966 0.0304803 -0.774351 1.58088 0.0905603 0.747229
8 -7.75235 -8.43964 -8.50228 0.213159 -0.00228728 0.988375
55 -6.94521 -7.765 -8.56946 1.02557 -0.654381 1.6835
294 -6.93783 -8.43402 -7.66211 1.53058 -1.80921 1.05611
1865 6.08207 -6.25814 0.0261574 0.0820358 1.50625 2.21486
12 -6.17996 -8.4764 -8.4184 3.7292 1.62859 -2.07648
623 8.34596 -9.18043 -5.42748 0.620292 0.575196 1.63072
1853 1.43127 -6.4615 0.0405891 0.413242 0.959255 2.31375
16 -4.65475 -8.3763 -8.56357 0.560351 0.784258 -2.50682
303 -3.70916 -9.1737 -6.83187 -0.27709 -0.569922 0.204495
4067 3.82632 -0.0448114 -5.59485 0.470207 0.942609 1.20582
20 -2.94564 -8.35576 -8.50072 -1.37975 2.0495 -0.0647685
4927 2.38265 -0.0567377 -0.61695 -0.393682 -0.594279 1.55848
24 -1.63856 -8.48438 -8.46313 -1.80273 0.333962 -0.399252
71 -0.857102 -7.59233 -8.5826 -0.206891 -1.34558 2.30357
357 -1.53138 -7.47956 -7.82405 0.0268465 -1.56453 -1.71829
310 -0.833923 -8.26141 -7.81891 1.00629 -1.882 1.55044
28 -0.228448 -8.48619 -8.53442 -2.0745 2.55726 -2.2374
75 0.707921 -7.58489 -8.54132 -3.08662 2.47292 1.90146
361 -0.0127345 -7.554 -7.73065 -0.561268 0.0868063 -0.573978
85 4.51992 -7.79962 -9.01548 2.12023 0.851022 2.35214
593 -3.11188 -9.18345 -6.08671 0.0374938 0.906522 -0.580768
32 1.54885 -8.46368 -8.52131 1.17612 -1.87475 -0.548271
314 0.693717 -8.40805 -7.96651 -2.21604 1.62968 -0.909382
365 1.42492 -7.62279 -7.75581 0.590846 -1.67699 2.32897
3481 0.0027387 -0.0364252 -9.16807 0.137993 1.13152 -0.071584
36 3.08886 -8.51887 -8.53329 -0.710732 0.629667 -0.266887
318 2.05109 -8.39465 -7.69187 -0.710818 -1.28808 -0.0777192
105 -6.23925 -6.01555 -9.18153 -2.69214 2.65515 -1.20012
258 -2.28515 -0.83426 -9.12413 -0.569333 2.34072 0.601781
62 -3.91849 -6.81351 -9.13977 -0.758677 0.487659 -0.683979
40 4.53082 -8.55291 -8.35783 1.22997 -2.39439 -2.3466
3471 -3.97361 -0.207395 -8.38532 -0.835767 -3.27363 0.0373629
44 6.06091 -8.44382 -8.35534 -0.829496 0.0807761 -1.63546
87 5.36059 -7.621 -8.5099 0.676586 -1.09575 -1.06042
377 6.0281 -7.75307 -7.64552 0.0878644 1.26402 1.05199
326 5.37253 -8.44022 -7.72534 -1.77444 -0.818417 1.0398
89 6.15255 -7.85937 -9.1186 0.934319 -1.77277 -0.640009
91 6.89664 -7.77186 -8.51455 -0.109405 -0.553095 -0.70645
330 6.83133 -8.5685 -7.72365 -1.44288 0.549811 -0.48872
381 7.79525 -7.76699 -7.64297 -0.672025 0.154217 0.606051
1726 8.52073 -0.929328 -1.59216 1.84784 -1.3335 -0.593899
1153 9.20273 -9.18477 -3.07078 0.500954 -0.432373 -2.95378
48 7.63487 -8.46668 -8.52705 0.487042 -1.07951 -0.913914
95 8.46461 -7.76491 -8.41024 -0.771483 2.0758 2.0979
1886 -3.88568 -3.81713 -0.0203982 -1.56832 -1.38929 0.105565
51 -8.53997 -7.69708 -8.40174 0.310298 1.01783 -0.101552
385 9.08649 -6.23334 -7.78073 -0.177462 -1.18922 0.596792
56 -7.6949 -7.01383 -8.53477 -2.0342 -0.366931 0.784151
103 -6.90901 -6.14185 -8.33104 0.376314 -0.0769762 -2.57469
342 -6.96738 -7.01337 -7.67663 -0.0872667 1.27524 0.743851
59 -5.51579 -7.75188 -8.488 -1.48536 -2.4443 -0.566205
60 -6.29624 -7.02989 -8.50061 0.922157 -0.121148 1.30389
63 -3.77674 -7.65536 -8.44412 0.713182 -0.960594 2.16269
64 -4.71449 -6.99645 -8.51595 -0.957105 0.850653 0.819357
111 -3.72268 -5.98288 -8.42492 -1.64181 -0.208121 -0.480514
349 -4.68143 -7.64791 -7.78704 2.55975 -0.00672203 -3.77074
93 7.6314 -7.72199 -9.17611 0.431539 -0.549364 -0.691308
67 -2.39278 -7.56786 -8.30632 0.0236386 1.95848 0.307824
68 -3.16708 -6.80121 -8.42871 2.18925 -1.20165 -0.0871616
115 -2.27378 -5.99055 -8.44483 0.538676 0.65946 -2.91267
354 -2.29646 -6.71874 -7.73255 -1.2772 -0.378461 -0.165236
3767 -0.884872 -0.0330101 -6.9036 -0.43016 -1.08758 -2.12884
72 -1.51507 -6.75742 -8.44863 -0.472409 2.20985 -0.490837
358 -0.835286 -6.83805 -7.58561 -0.257746 -0.604451 -0.741312
119 -0.710201 -6.09749 -8.54589 0.584084 -0.379631 -0.923052
405 -1.57572 -6.04669 -7.64326 1.41006 -0.690729 -1.93437
76 -0.162277 -6.83833 -8.3632 -0.133548 -0.245179 0.282366
362 0.624581 -6.80545 -7.79397 1.80518 -0.454663 -1.59796
409 -0.00282023 -5.96798 -7.75158 1.04395 -1.64138 1.01407
3765 -1.60652 -0.129047 -7.5833 -0.353176 -1.43925 -1.07127
80 1.3664 -6.83535 -8.59913 -0.906714 -0.210272 1.87457
127 2.39987 -6.20949 -8.38262 0.472588 -0.987755 -1.41285
369 3.00312 -7.63804 -7.6713 -0.997418 -1.42033 -1.01965
79 2.10528 -7.66309 -8.6381 0.581924 0.210183 1.03199
84 3.13714 -6.96923 -8.46275 2.63679 1.28552 -1.01883
417 3.01398 -6.13245 -7.63488 -0.630178 1.21104 -1.20116
83 3.7636 -7.77835 -8.35624 -1.82711 -0.812912 -4.66548
88 4.72301 -6.84588 -8.29496 -1.55329 -0.488193 -0.0628585
131 3.90201 -6.30822 -8.39648 0.343098 1.72441 0.480782
370 3.80881 -6.88933 -7.64228 1.41718 2.43044 0.859611
92 6.05948 -7.10036 -8.41196 2.55182 2.09799 1.07606
135 5.42738 -6.15595 -8.49966 0.814017 2.53059 -1.54815
374 5.4338 -7.01503 -7.63471 -3.11088 0.55762 -0.68466
4033 9.19546 -0.0302329 -6.18966 1.685 2.29253 0.11706
96 7.83026 -7.07 -8.41406 -1.9857 -0.976251 -0.467595
139 7.10395 -6.31296 -8.43037 -0.766425 -0.0361611 2.58456
378 6.79359 -7.21191 -7.7334 3.1527 -0.251121 1.6051
429 7.87318 -6.16354 -7.85482 1.38099 2.37294 1.00391
52 9.11768 -7.06757 -8.53621 0.31467 0.286512 3.11947
382 8.43623 -6.9088 -7.63772 2.90218 0.252293 -0.711486
143 8.59711 -6.12421 -8.61444 0.376094 -0.377402 1.22591
99 -8.3743 -6.28599 -8.48588 -0.278339 2.20085 0.357198
269 1.67435 -1.80667 -9.12948 1.57284 0.235418 0.183125
386 -8.71327 -5.52716 -7.676 -0.435571 -1.24629 0.19675
104 -7.87799 -5.36048 -8.25234 0.409841 0.0652232 -0.74364
390 -6.9612 -5.37707 -7.71247 -0.881481 1.43393 -0.0364108
389 -7.66676 -6.23979 -7.70563 -1.14614 0.418886 -1.15
107 -5.58921 -6.25485 -8.5025 -0.91352 -1.94664 -2.01441
108 -6.16089 -5.47648 -8.34896 0.0987854 -0.582435 1.36393
133 4.65138 -6.17498 -9.23544 0.742061 1.1815 -0.969677
394 -5.45114 -5.42476 -7.53619 0.950728 0.345469 1.81863
112 -4.62166 -5.38546 -8.5522 -0.516896 -0.497023 1.31411
398 -3.97247 -5.30365 -7.62427 -0.479094 -0.425224 1.64098
445 -4.62427 -4.63925 -7.67225 -1.05112 -0.201288 0.544263
116 -3.04318 -5.21415 -8.40386 0.552305 -0.0370194 3.1138
402 -2.32125 -5.30271 -7.60055 1.16084 -0.0592375 -1.09684
401 -3.02746 -5.94743 -7.65071 0.363094 0.313677 -1.50561
120 -1.44605 -5.40571 -8.60202 1.22209 -0.630098 1.31589
185 6.21478 -4.55891 -9.13907 0.442853 -2.27753 -0.895702
250 -5.43364 -0.859755 -9.12834 1.67295 -1.1265 -0.411657
123 0.560432 -6.10203 -8.55043 1.8339 0.723524 -1.99634
124 0.00844036 -5.26708 -8.6012 -2.66508 -0.0793748 0.642071
410 0.893968 -5.41282 -7.58602 1.23834 -1.27121 -0.144926
233 6.0946 -3.03715 -9.23985 -0.859742 1.09541 -3.05701
128 1.59159 -5.45238 -8.45134 -1.53596 -1.16198 -2.72066
461 1.56856 -4.66201 -7.63444 -1.19105 2.47801 -0.31746
177 3.20259 -4.65994 -9.15004 -1.0881 1.77114 1.46574
132 3.17669 -5.5181 -8.54165 3.1316 -2.56454 -0.220253
591 -3.88258 -9.17441 -5.44118 0.96706 0.325328 3.01211
421 4.66197 -6.14999 -7.61077 -1.60304 -0.652072 -0.210081
136 4.81806 -5.36396 -8.45708 1.13056 -0.508256 0.591543
418 3.93084 -5.5083 -7.77884 1.10303 0.632488 -1.32181
469 4.69893 -4.70068 -7.63246 -0.98478 -0.547834 0.688231
179 3.83558 -4.72615 -8.44005 2.39901 2.48961 -0.213444
4933 4.57328 -0.175048 -1.5666 0.657278 -1.86573 0.883724
140 6.41367 -5.4417 -8.45371 0.677778 -0.0840111 -0.0572199
425 6.32103 -6.32792 -7.78651 0.328447 -0.274019 1.99793
422 5.5867 -5.4453 -7.76124 -0.245866 1.32433 1.06648
426 7.0494 -5.48458 -7.68027 0.54427 -1.76923 0.640999
144 7.83169 -5.4594 -8.69627 0.098194 -1.80221 -0.170408
4639 2.31338 -0.202757 -2.39624 -0.47263 0.83394 -1.53355
100 -9.11878 -5.53091 -8.58068 1.38653 1.28884 2.21323
430 8.57141 -5.47971 -7.61741 -0.964867 0.688769 -1.07409
2002 3.92643 -0.647559 -0.0678312 -1.4174 1.24511 0.0666106
147 -8.31298 -4.46502 -8.67541 0.729926 0.24324 1.66194
148 9.29443 -3.82821 -8.58033 3.62186 1.23748 0.0607689
433 -8.95126 -4.64181 -7.85607 1.1403 0.606945 0.899428
434 -8.52032 -3.79869 -7.876 -0.588893 0.310358 0.473091
151 -6.86382 -4.47484 -8.27687 0.974405 0.614265 -0.271804
152 -7.57354 -3.75777 -8.48359 0.543134 1.99927 1.50951
438 -7.01932 -3.7899 -7.61765 0.921375 2.52696 -2.98348
437 -7.79138 -4.48666 -7.80961 1.16561 0.285118 -0.611854
155 -5.52752 -4.68168 -8.12986 0.181536 -0.24216 -2.83556
156 -6.15763 -3.8384 -8.42654 -2.33447 2.94788 2.21718
203 -5.52686 -3.03757 -8.35731 -0.564673 0.477244 -0.444079
1746 -2.26304 -8.30375 0.0492073 -1.77736 1.90594 1.33717
159 -3.84543 -4.65431 -8.43114 0.609181 -2.79581 -0.403501
1921 -9.22302 -3.13925 0.0355782 -1.25014 -1.55659 2.88159
160 -4.82916 -3.9552 -8.30011 1.69007 -0.119809 2.30089
163 -2.29906 -4.58279 -8.31102 -1.71053 -1.3504 -0.366298
164 -3.13836 -3.9021 -8.51495 -0.174248 -0.190273 -0.492035
449 -3.21261 -4.60392 -7.62706 1.30431 -1.14765 -1.80271
450 -2.40068 -3.72538 -7.65775 1.1131 1.63872 -0.222067
167 -0.819517 -4.56308 -8.59474 -1.0471 2.47296 2.92529
168 -1.67347 -3.72974 -8.48637 -0.011543 -0.200365 -0.522525
3495 5.45157 -0.0632752 -8.56299 1.57477 -0.565805 -0.375796
453 -1.55913 -4.64653 -7.63914 -2.38663 -2.44837 0.0163703
81 3.06855 -7.63832 -9.12902 -0.827716 -3.88781 -0.452555
4071 5.43985 -0.010507 -5.43043 -2.22046 0.464889 1.79206
457 0.0513393 -4.74439 -7.68583 0.835619 0.531049 0.670539
172 0.0320687 -3.93257 -8.46265 1.11544 -2.59769 -1.79027
110 -3.84086 -5.30714 -9.24615 3.59669 0.410384 -1.17777
171 0.774327 -4.66487 -8.47217 -1.64701 -0.336341 -0.0486924
176 1.64645 -3.84043 -8.35456 -1.51342 0.65088 0.378668
65 -3.01726 -7.6073 -9.21104 -1.69161 2.20419 -1.4202
175 2.46634 -4.79897 -8.39525 0.956755 0.180431 -0.753504
180 3.04561 -3.98153 -8.34391 1.63721 -1.20423 1.72331
462 2.36544 -3.97763 -7.51647 0.703539 0.771502 0.026569
909 7.69357 -9.22585 -4.51793 0.797952 -0.52864 -0.103879
3467 -5.26981 -0.136061 -8.23075 -1.20328 0.11118 2.008
184 4.68899 -3.91174 -8.45402 0.646406 -1.87636 1.03149
227 3.89009 -3.17837 -8.47366 3.68309 -1.00963 1.84545
4351 2.42295 -0.109432 -3.9031 -1.03426 0.680451 0.242556
183 5.47992 -4.56228 -8.40907 -2.62941 0.872346 1.45996
188 6.26053 -3.80195 -8.49307 -0.0651764 1.92025 0.819088
231 5.37009 -3.08176 -8.52827 2.62199 1.19994 3.14117
4337 -2.98776 0.00229565 -4.57374 -2.21402 2.20626 1.08993
187 6.98393 -4.6637 -8.49673 -0.544586 -0.283257 1.86214
192 7.72443 -3.86138 -8.46116 0.554621 -1.33762 0.0758106
474 7.06706 -3.79585 -7.78335 0.658375 -1.05828 0.216038
6 -6.83716 -8.5438 -9.2132 -0.20823 -0.368704 -3.86448
4055 -0.803692 -0.180451 -5.40197 -0.637526 0.0360283 0.422275
4613 -7.74493 -0.0447447 -2.98998 0.197279 -0.619421 0.680171
191 8.66928 -4.65091 -8.52439 0.937145 -2.39094 3.68306
195 -8.3046 -3.02525 -8.66135 -2.04372 1.84754 0.413166
243 -8.51746 -1.46413 -8.43662 -2.23193 -0.357301 -0.293244
481 -9.2186 -3.11359 -7.85818 0.591996 0.345132 1.48529
482 -8.49335 -2.25801 -7.76956 -1.33818 -0.400241 4.1723
199 -6.94886 -3.01741 -8.47421 -2.06871 -0.256299 0.864311
200 -7.68608 -2.20499 -8.27628 -1.2932 0.125033 0.905252
247 -6.92994 -1.61379 -8.65172 1.71986 -2.30182 2.49729
486 -7.03894 -2.30201 -7.55677 -0.560427 3.43259 -0.905364
533 -7.78525 -1.50236 -7.50709 -0.383753 -0.487122 0.835743
204 -6.29178 -2.25445 -8.4927 0.710898 0.312624 0.0997886
490 -5.61426 -2.44014 -7.57028 1.85219 -0.790787 -2.1751
38 5.26011 -8.4779 -9.17076 -0.427806 2.31814 -0.0884545
1163 -5.37184 -9.2155 -2.3908 1.02546 0.141371 -1.05467
4343 -0.590735 -0.019661 -3.69984 0.321741 -0.726223 1.15837
493 -4.65303 -3.01758 -7.79639 0.761157 0.192556 -2.49962
207 -3.74414 -3.00116 -8.48696 -0.801347 1.71952 -1.26071
208 -4.59471 -2.10337 -8.41185 -0.925677 -0.680998 -1.41082
270 2.2289 -0.836778 -9.04834 -0.150969 0.767442 0.0434144
211 -2.44151 -3.10247 -8.5916 -1.19351 -0.973163 -0.330683
497 -3.04533 -2.98689 -7.7081 2.12733 1.97513 0.995865
212 -2.9844 -2.26357 -8.38802 -2.79185 0.460787 1.97572
259 -2.25617 -1.59099 -8.42074 0.419704 -0.410561 0.514309
498 -2.36036 -2.33802 -7.56472 -1.39321 -0.425108 -2.4433
215 -0.824992 -2.98395 -8.57027 -1.7054 0.457672 0.40194
216 -1.62861 -2.45655 -8.44862 1.64626 1.40244 -0.82032
263 -0.713514 -1.50214 -8.45747 -0.684434 -1.13832 1.67773
220 0.0660077 -2.24661 -8.55042 1.4419 0.49712 1.26481
505 -0.133891 -2.98233 -7.88531 -1.92904 -0.316722 0.204051
553 0.0230268 -1.63064 -7.70119 0.765731 -0.352533 -2.11928
3789 7.7348 -0.0186562 -7.73048 2.0479 2.68893 2.56218
50 -8.47368 -7.00572 -9.16405 0.680091 0.0982606 -2.34981
219 0.683951 -3.10185 -8.41105 -0.211812 1.3003 1.28582
224 1.58924 -2.49657 -8.4746 -1.22824 0.572586 1.953
295 -6.80479 -9.20135 -6.91583 0.0574485 -0.534283 1.22124
223 2.48743 -2.9067 -8.50114 -1.67629 0.454864 1.80433
228 3.28686 -2.374 -8.56801 1.41932 0.513012 2.24304
271 2.40616 -1.74621 -8.3311 0.131632 -1.12843 1.14899
517 4.66852 -2.9542 -7.7487 0.334254 -0.131376 -1.35174
232 4.5863 -2.30896 -8.57687 -0.165867 -0.753133 1.10705
289 9.15286 -9.18994 -7.60411 1.3796 0.500954 1.79123
3769 -0.0401218 0.0125375 -7.581 1.27201 1.19635 1.25131
1849 -0.120987 -6.21585 -0.0815298 -0.835002 -3.01186 0.239939
236 6.21644 -2.19024 -8.5407 0.891687 -1.14288 1.18755
279 5.41286 -1.60362 -8.55332 0.594361 1.2793 -1.31505
518 5.5434 -2.36044 -7.82946 0.255741 -2.00999 -2.26587
235 7.17206 -2.95752 -8.43449 1.28244 -0.533047 2.61363
240 7.88079 -2.24634 -8.55637 -1.15575 2.26461 -2.61528
205 -4.64614 -3.00302 -8.98225 -1.24315 -1.68223 1.03174
182 5.48246 -3.84872 -9.13141 2.2449 -0.902408 -0.222913
239 8.45134 -3.15068 -8.48679 -0.945757 0.455868 -0.943967
196 -9.09067 -2.58041 -8.63496 -0.706712 0.150055 0.0243724
287 8.72941 -1.57814 -8.44921 -0.707473 0.502583 1.13845
530 -8.37224 -0.53757 -7.67659 -0.0912916 2.63002 2.51373
1453 -4.74956 -9.21485 -1.63343 -1.70512 0.172279 -1.07129
248 -7.53107 -0.805921 -8.57734 -0.0393375 -1.46289 -2.43317
537 -6.44349 -1.51039 -7.72684 -0.442954 -0.786661 -0.290815
1155 -8.31865 -9.18117 -2.25349 -1.3939 0.605938 -2.08138
873 -6.15246 -9.15927 -4.57096 -2.22436 -1.19103 -0.65353
251 -5.38198 -1.58452 -8.33633 1.02152 -0.436132 -1.3404
252 -6.20924 -0.819925 -8.42482 1.60902 -1.17128 1.8335
1485 7.68031 -9.18756 -1.54316 1.31667 -2.20983 -2.58557
255 -3.86215 -1.51404 -8.25655 -4.07372 1.47564 -0.615412
256 -4.61328 -0.918974 -8.2848 -1.98459 -0.222419 -0.391718
90 6.92043 -6.9635 -9.0921 -3.68843 1.48957 -2.17555
3781 4.45938 -0.103173 -7.85655 -0.540103 0.51419 0.0180741
1169 -3.11942 -9.19342 -3.05986 -0.222556 0.318776 -0.875164
4899 -8.50439 -0.029073 -0.836178 1.75131 1.01251 2.12213
260 -3.06725 -0.954666 -8.3433 0.628855 -2.61073 1.2047
546 -2.27377 -0.915419 -7.69689 -0.772543 1.58095 0.806282
264 -1.52002 -0.980582 -8.37995 -1.67084 -2.54095 0.382936
549 -1.49372 -1.47657 -7.52878 -2.49914 -1.07154 -0.201069
550 -0.700708 -0.842795 -7.72089 -0.158056 0.527917 -1.75589
27 0.734623 -9.15579 -8.50416 1.18686 -0.110192 1.77947
867 -8.29221 -9.20982 -3.86518 0.625204 -0.0987073 1.12969
305 -3.21048 -9.02283 -7.77099 0.173233 0.568287 0.456398
268 0.07686 -0.849496 -8.46541 1.74407 -0.632963 0.405257
1451 -5.46094 -9.1795 -0.887807 2.89567 -1.69262 0.828136
5213 1.50631 0.0244508 -0.07527 -1.06723 2.76298 -2.19617
267 0.826151 -1.50383 -8.60918 0.309966 -1.10498 -1.2651
272 1.58027 -0.857018 -8.37951 1.33195 0.0338375 2.11434
46 8.39785 -8.50731 -9.2027 0.30188 -0.249185 0.0136461
307 -2.35642 -9.10649 -7.18454 -1.95185 2.71742 2.09126
276 3.09427 -1.03298 -8.483 0.821002 0.965073 -2.22132
558 2.38718 -0.808622 -7.79424 -0.522498 1.19778 -0.0196883
4079 8.3776 -0.0167487 -5.51224 -1.4725 0.146866 0.50442
577 9.19343 -9.15785 -6.10962 0.592766 -0.193196 0.252852
1961 6.08584 -3.0675 -0.0695585 -2.40799 -1.41481 -0.258643
275 3.9764 -1.5612 -8.63397 -0.757758 2.499 0.80265
565 4.6307 -1.52729 -7.71808 3.06545 -1.66932 -1.36876
280 4.71751 -0.972885 -8.62511 0.673559 -0.104748 0.572273
109 -4.77902 -6.14024 -9.16094 1.22214 1.61197 -1.34385
284 6.38717 -0.880932 -8.60959 -0.705142 -0.429401 1.55386
1193 6.06076 -9.21124 -3.15636 -0.0849684 -0.485481 0.0500071
4047 -3.76694 -0.0563413 -5.34737 -1.84564 2.92019 -0.650153
283 7.01729 -1.62923 -8.4971 1.79917 -0.939477 0.782474
288 7.6931 -0.798234 -8.51971 1.03761 0.159197 2.54337
1930 -5.35977 -2.27094 -0.0971688 -2.48892 1.23594 -1.31952
3487 2.23324 -0.0654522 -8.44042 1.69138 -0.108211 -0.45278
244 -9.16504 -0.6638 -8.32529 0.100246 -2.35537 1.43788
573 7.97821 -1.51831 -7.86326 0.414955 -1.36029 0.588334
574 8.48016 -0.750003 -7.51017 1.48785 0.733002 0.876638
1897 0.107101 -4.67123 -0.0509064 1.19715 1.55033 0.652255
4347 0.725511 -0.141674 -3.83652 -0.206623 -0.188195 1.3215
292 9.11552 -8.49966 -6.8037 -1.30714 -2.38672 2.15186
578 -8.39927 -8.49511 -6.17035 0.268368 1.14952 1.23898
337 9.10716 -7.76545 -7.69787 0.485137 -0.304107 -0.16483
296 -7.63015 -8.47238 -6.95734 -0.809789 -2.00712 2.35018
343 -6.92437 -7.74557 -6.80757 -1.97837 0.987317 -0.534776
582 -6.82645 -8.49981 -6.23929 1.62863 0.54505 -0.854253
585 -5.98551 -9.1 -6.15537 -1.52561 -2.05894 -3.76547
298 -5.363 -8.37424 -7.58128 -0.771283 -0.809226 -0.551969
300 -6.05421 -8.52942 -6.8478 -0.119809 1.38593 -1.46785
302 -3.95415 -8.31135 -7.69239 -1.25907 -0.906318 -1.95227
304 -4.59072 -8.28825 -6.94317 -0.053421 1.84307 0.523431
351 -3.89652 -7.54678 -6.84731 -0.173849 -0.0987832 -0.470528
313 -0.124273 -9.19442 -7.7535 0.684142 0.997938 -1.82472
2013 7.50538 -1.52417 -0.153129 -0.261285 0.246173 0.62341
353 -3.14568 -7.56731 -7.60869 1.60632 0.997525 -2.10581
306 -2.39197 -8.36247 -7.74595 -0.500462 -1.16798 -1.36489
308 -3.13704 -8.34111 -6.7476 2.97968 0.747931 -0.711155
594 -2.37445 -8.48729 -6.11922 -0.432585 -0.150606 0.409349
312 -1.61228 -8.3755 -6.92936 -1.22679 -0.736977 -0.969093
645 -1.51217 -7.71468 -6.05728 -2.30817 1.33371 0.964276
359 -0.789741 -7.67273 -6.97949 -3.29505 0.0813739 0.745886
598 -0.822664 -8.38363 -6.26747 -1.66267 -0.918343 2.60088
316 0.0727856 -8.26657 -6.93657 2.372 1.77646 -1.46254
649 -0.044343 -7.57944 -6.28519 0.252916 0.639971 1.10568
320 1.31256 -8.3798 -6.9547 -0.555071 0.095595 1.67935
1175 -0.901387 -9.08544 -2.50401 -2.55527 0.0507831 2.27765
324 3.00947 -8.36908 -6.8856 1.2184 0.0846748 -1.83885
367 2.21193 -7.65771 -6.92137 -0.565195 -3.10438 -0.683025
1684 -9.20136 -0.73559 -0.853859 -0.0845848 1.752 -1.81997
606 2.26518 -8.42535 -6.24071 -2.64117 -0.158642 3.11889
322 3.65707 -8.4464 -7.61365 -0.413895 -1.77319 1.35827
328 4.47482 -8.50882 -7.07175 -2.56337 1.08534 -1.37809
297 -6.18021 -9.18844 -7.63871 0.332647 0.165143 -0.451855
332 5.96717 -8.58911 -6.83568 1.30595 -0.079602 0.650292
375 5.31152 -7.8124 -6.95142 -0.0839608 1.97409 -0.464753
665 5.95712 -7.79003 -6.26461 -3.20078 0.451268 0.400687
1197 7.42786 -9.21303 -3.10286 0.723304 -1.87985 0.121175
154 -5.30792 -3.76832 -9.05262 -0.801244 0.997924 -2.02117
336 7.72343 -8.45606 -6.96465 -1.48499 1.56993 1.60115
379 6.77635 -7.89356 -6.98412 -1.07261 -1.25173 0.636931
618 6.74881 -8.52897 -6.17175 -0.946713 0.307593 -1.15374
334 8.37535 -8.59956 -7.65719 0.598504 2.52829 -0.839673
383 8.45787 -7.86448 -6.85676 -1.32821 -0.152184 3.17055
622 8.29631 -8.46468 -6.09847 -0.958374 1.24416 -0.218645
339 -8.4907 -7.73074 -6.98367 -1.80848 0.786024 0.0586179
625 -9.15626 -7.61025 -6.19629 1.80305 -0.0773183 0.496225
338 -8.61265 -6.79307 -7.67269 -1.48944 1.63482 0.195245
387 -8.60218 -6.14564 -6.93968 -0.424395 1.94511 0.207077
340 9.1943 -6.94831 -7.02409 2.06283 -4.6015 0.105955
626 -8.45877 -6.98583 -6.18553 -1.90687 -0.725501 0.284574
341 -7.75066 -7.62849 -7.70006 0.795306 1.61421 0.0366185
344 -7.59974 -6.87899 -6.95775 -0.0495363 0.889718 -0.796788
629 -7.76911 -7.70717 -6.10964 -2.16753 2.30133 1.26507
393 -6.2642 -6.15473 -7.6262 -0.198179 -2.12032 0.107662
345 -6.23767 -7.73814 -7.65718 -2.13316 1.42659 0.36838
347 -5.39266 -7.57074 -6.7509 -0.0955749 0.867441 0.502746
346 -5.52144 -6.89939 -7.71476 -1.56843 1.95223 -0.885399
348 -6.2557 -6.99014 -6.94367 -0.803656 -0.327662 0.349641
395 -5.59884 -6.32792 -6.92262 -1.76099 0.617976 1.51504
633 -6.0874 -7.76614 -6.06052 1.18313 3.44523 -1.28803
350 -3.8491 -6.63398 -7.6359 -1.69127 -1.79495 -1.76101
352 -4.60117 -6.91372 -6.89935 2.8586 2.05113 1.00398
399 -3.83854 -6.08633 -6.88323 0.8903 1.60698 -1.0002
355 -2.35843 -7.65147 -6.73799 1.45929 0.348787 -1.20663
356 -3.01398 -6.82333 -6.86199 -0.0158807 1.22851 0.26174
689 -3.07904 -6.19989 -6.1942 -2.20095 -1.49528 -1.87229
642 -2.28651 -6.82629 -6.24988 -0.0373788 -1.18128 1.57389
360 -1.50897 -7.01744 -6.92609 -0.152592 -0.978582 -1.3556
407 -0.740215 -6.06975 -6.97605 -1.52998 0.853203 0.239635
646 -0.852993 -6.9689 -6.19123 0.902986 -3.51759 0.141849
364 -0.00623363 -6.77956 -6.87677 0.918759 -0.496029 1.00672
411 0.771953 -6.29163 -6.77399 0.73617 0.949774 -1.91098
363 0.763077 -7.52362 -7.07998 1.37753 0.268103 0.103983
653 1.53769 -7.66876 -6.1252 -0.178255 -0.426591 1.83048
368 1.64879 -6.85447 -6.97072 -0.343931 0.417078 0.736028
701 1.5142 -6.24849 -5.98504 2.00217 -1.26491 -1.78883
650 0.772279 -7.01224 -6.13803 -0.155263 -0.723358 1.41393
366 2.29305 -6.99359 -7.79326 0.678331 1.57236 -0.187747
372 3.08583 -6.86227 -6.86374 1.22939 0.0779886 0.829775
654 2.23341 -6.83344 -6.0081 2.19063 2.89953 0.322455
657 2.85826 -7.59042 -6.21976 0.661642 -1.41357 2.7845
373 4.60384 -7.76859 -7.69157 -1.15971 -1.62364 0.621071
371 3.86333 -7.72917 -6.9945 0.5997 1.78416 -1.05722
376 4.4779 -7.04036 -6.88891 -1.08819 -0.803728 3.60917
658 3.84783 -6.95039 -6.09787 0.449133 -1.3546 -1.11394
419 3.962 -6.20093 -6.84412 0.411531 -0.391789 -1.30004
380 6.18116 -6.92925 -6.8901 0.862562 -0.394108 1.5182
662 5.31891 -6.9938 -6.30542 -1.88758 1.0495 -0.177337
423 5.5432 -6.22398 -7.05984 -0.61472 -1.70995 -0.200829
713 6.27925 -6.20887 -6.20361 -2.91668 -1.89519 0.956314
666 6.76718 -7.01732 -6.15858 -2.09283 0.508062 0.204874
384 7.62418 -7.02364 -6.9502 -0.0611729 -0.922792 -1.08908
431 8.53363 -6.16108 -6.7931 -1.48301 0.670394 0.079974
670 8.45298 -7.2091 -6.14529 -1.04946 -0.610586 -0.474256
673 -9.15588 -6.11012 -5.90912 0.40341 1.55176 3.13817
388 9.19381 -5.46943 -6.73427 -0.936574 -0.198382 -0.0203722
721 9.18789 -4.5206 -5.9713 -0.493367 -0.350917 0.611992
674 -8.39618 -5.24885 -6.20423 2.1158 0.871605 -0.160318
391 -6.8991 -6.1452 -6.94909 -0.795555 -0.813043 -1.43911
392 -7.88198 -5.27951 -7.15962 -0.904133 -2.45655 0.400265
396 -6.3304 -5.39443 -6.95195 0.994899 -1.67204 -0.90689
397 -4.79163 -6.27624 -7.88213 -0.302736 -0.467651 -0.598801
400 -4.64215 -5.56822 -7.06298 -0.916948 -0.955029 1.52384
447 -3.93834 -4.571 -6.73908 -0.140837 -0.621895 1.64185
685 -4.55597 -6.05085 -6.12651 0.964592 -2.32852 0.696606
686 -3.78615 -5.3121 -6.06137 0.665252 0.0668299 0.006167
403 -2.25065 -6.07789 -6.92689 1.31807 -3.05052 0.862632
404 -3.09399 -5.29327 -6.83625 0.4917 0.86526 -1.29387
690 -2.31854 -5.3946 -6.07236 -1.21441 0.98996 0.425515
406 -0.854978 -5.28362 -7.67228 -1.78158 1.09878 -0.284447
408 -1.56325 -5.20723 -6.89091 1.27414 0.611647 1.0402
455 -0.688294 -4.3025 -6.90986 1.04728 -1.04061 0.440275
694 -0.746049 -5.28418 -6.17888 -0.438621 2.12489 -0.456529
693 -1.51168 -6.1015 -6.21824 -2.97018 -0.321958 -4.38768
741 -1.5477 -4.45961 -6.09756 -0.252188 1.0045 -1.53663
412 0.105665 -5.34115 -6.88238 2.38014 -1.15107 1.58293
697 -0.121962 -6.05342 -6.13835 -0.652999 -0.957204 0.887635
698 0.680804 -5.23468 -6.15434 1.16461 0.143879 1.49497
413 1.49969 -6.13666 -7.74398 -0.476097 -1.0278 -0.812765
416 1.48297 -5.46568 -6.71818 0.450545 2.68532 -1.05544
749 1.41162 -4.53302 -6.03534 -0.233402 -1.0833 -0.133639
414 2.21369 -5.39593 -7.69713 -1.08681 3.19103 0.881545
415 2.32023 -6.09752 -6.78464 0.587567 -0.846639 0.755829
705 3.15028 -6.0496 -6.16895 2.18639 1.7494 0.192703
420 3.19912 -5.35054 -6.90772 0.381366 -1.83708 -0.631731
702 2.39079 -5.33237 -6.05164 0.868158 -0.437905 -0.381271
424 4.66789 -5.48592 -6.91648 0.0487249 0.563569 2.38178
467 3.85708 -4.70683 -6.87584 1.12681 -0.639275 -0.648504
709 4.67708 -6.06683 -6.1944 -2.53909 -0.451861 0.534854
706 3.9861 -5.37486 -6.10055 -1.35199 -0.537381 -0.181296
473 6.33528 -4.57247 -7.67058 -1.53631 1.81934 0.846975
428 6.29056 -5.58104 -7.09485 0.00184883 -0.0559124 -1.72876
710 5.43779 -5.45793 -6.35139 1.09034 -2.67587 -1.99803
427 6.96297 -6.35258 -7.06917 0.0371164 1.49612 -1.87502
432 7.79763 -5.47551 -6.9432 2.38805 1.32658 0.365081
714 6.98599 -5.36125 -6.41621 -2.26673 1.1055 3.01532
717 7.58412 -6.14673 -6.3366 0.134537 1.84339 0.538878
718 8.44001 -5.3277 -6.05036 0.521141 0.34534 2.37979
435 -8.6666 -4.57244 -6.88929 -0.821251 0.566797 -1.71094
436 9.0892 -3.79184 -6.98065 -1.09704 0.384028 0.547267
722 -8.5684 -3.83787 -6.14029 -1.37625 -1.08245 -1.84464
439 -7.13891 -4.54933 -6.91794 0.477175 -2.52299 -1.38999
440 -7.84979 -3.83308 -7.05911 -1.78189 -0.574619 1.86991
725 -7.77412 -4.48504 -6.16033 0.402299 0.410591 -3.20684
726 -6.79826 -3.89371 -6.05918 0.185063 1.33622 0.802924
441 -6.35015 -4.50302 -7.52082 -1.4627 1.48656 -0.234192
442 -5.62903 -3.67246 -7.60629 -4.31408 -1.04721 -1.29326
443 -5.39861 -4.52388 -6.95045 0.0342012 -0.642018 -0.0202173
444 -6.24485 -3.84847 -6.84236 0.230184 -2.11604 0.517381
729 -6.01228 -4.73011 -6.06986 1.11214 -0.189295 -0.0236842
446 -3.94994 -3.83482 -7.81233 -1.56398 -0.609719 0.459365
448 -4.7172 -3.82882 -6.96314 1.64631 0.771985 -1.24023
495 -4.05233 -3.14408 -6.88386 -1.26851 0.773929 2.79055
734 -3.96608 -3.86176 -6.13552 0.846258 0.44124 0.230818
733 -4.87585 -4.63338 -6.09397 1.8343 0.0652281 0.299426
451 -2.31574 -4.56862 -6.88849 0.669206 1.25407 -1.8095
452 -3.18855 -3.84298 -6.8155 0.972738 -0.163358 1.71263
737 -3.07384 -4.59498 -6.12285 -1.35197 0.0254414 -0.117784
738 -2.47688 -3.84878 -6.11714 0.958027 3.5358 0.456381
454 -0.791626 -3.80273 -7.90472 -0.568042 -0.524299 0.262053
456 -1.60374 -3.73687 -6.83532 0.660755 0.480339 -0.52184
742 -0.823542 -3.70246 -6.05611 0.182554 -0.590896 0.569059
745 -0.0765112 -4.36716 -6.19437 -1.85669 -1.95097 0.47237
460 0.175299 -3.68546 -7.01333 -1.39731 -2.70974 -0.398501
458 0.792479 -3.957 -7.86489 -1.83022 1.11511 -0.927917
459 0.795874 -4.57394 -6.8978 -0.227239 0.279354 -1.10744
464 1.40533 -3.77432 -7.12179 -0.830676 -1.43171 -1.89575
746 0.814286 -3.81647 -6.21789 -1.27282 1.33731 -1.25898
465 3.14461 -4.71075 -7.62302 0.983962 -0.517625 0.940599
513 3.27226 -3.04027 -7.75878 0.60994 1.63673 -1.52797
463 2.36191 -4.8413 -6.91251 -0.406336 1.62899 -1.57108
468 3.20673 -3.92792 -6.96449 0.61954 1.05891 -2.17175
466 3.87414 -3.99688 -7.76449 0.782047 1.24468 2.71414
472 4.68353 -3.89932 -7.0486 -0.911708 1.19594 1.24856
754 3.86662 -3.92454 -6.24864 -1.25523 -0.436844 -0.133371
757 4.70573 -4.61542 -6.15157 -0.52838 -0.184642 3.03954
470 5.39586 -3.71279 -7.7591 1.9137 -1.13627 0.116384
471 5.57038 -4.72349 -6.94756 0.863794 -0.763351 -0.380846
476 6.13193 -3.71039 -7.0112 -1.39127 -1.40837 -1.0785
761 6.2638 -4.59591 -6.20287 0.648658 -1.06442 0.0300691
809 6.00263 -3.15675 -6.21802 -0.388535 3.07993 -1.97753
477 7.6935 -4.73639 -7.70992 -0.613653 1.75866 -4.11805
475 7.02492 -4.43763 -6.93011 -0.324071 -1.9298 0.475627
762 7.17634 -3.70457 -6.25658 -1.20486 -0.0526827 -1.0934
480 7.89409 -3.7376 -7.08404 0.0828533 2.23084 -0.843179
479 8.39142 -4.61732 -6.99671 0.75864 -1.09411 3.23931
478 8.70034 -3.96444 -7.78625 2.48236 0.691 1.99708
766 8.44222 -4.01475 -6.06266 -0.562714 -1.37164 -2.02048
525 7.86192 -3.08673 -7.76278 0.300783 0.441399 0.733305
483 -8.58941 -3.10467 -6.98881 1.39419 0.920575 -1.65206
529 -9.18206 -1.5595 -7.58189 0.129504 -0.541609 -0.198989
484 9.1468 -2.2182 -6.92616 -0.985839 -1.16659 -0.13569
485 -7.83926 -2.98594 -7.67753 -0.686165 -1.16842 1.8809
487 -7.15653 -3.03841 -6.92677 -1.89745 1.86304 -0.311495
488 -7.86252 -2.26675 -6.90904 -1.71742 -0.0753052 0.0853523
773 -7.70232 -3.14407 -6.04374 -1.11783 -2.01826 2.38938
774 -7.0059 -2.22842 -6.15661 -1.13608 0.490532 -0.37462
489 -6.4021 -2.99437 -7.63297 -1.20517 -0.961077 0.511378
491 -5.44985 -3.16374 -6.77689 0.134614 -3.1372 0.108901
492 -6.26004 -2.17277 -6.83976 -1.03773 1.05079 -0.0358338
777 -6.18915 -3.0137 -6.2457 -0.582796 1.27474 0.789641
781 -4.67724 -3.09454 -6.18497 1.72265 -1.07301 -0.592341
494 -3.94854 -2.31043 -7.62567 0.546032 -0.889787 0.380638
496 -4.67219 -2.32321 -6.89251 -1.97606 -0.741725 1.21025
782 -3.89785 -2.38363 -6.08995 0.142436 -1.6754 1.43757
499 -2.30522 -3.06442 -6.82549 -2.18916 -1.8476 -0.0290691
500 -3.19813 -2.39835 -6.84623 -0.025238 1.43524 0.618201
547 -2.326 -1.47747 -6.85344 -0.355653 0.779094 -1.62675
501 -1.46512 -3.11822 -7.66932 -0.269315 -0.738353 2.6609
503 -0.694101 -3.22483 -6.94097 -2.90907 3.8185 1.25176
502 -0.857907 -2.24809 -7.7362 1.12089 -0.288172 2.16224
504 -1.58953 -2.2636 -6.96395 1.02913 -0.101612 -2.28121
551 -0.706415 -1.53687 -7.01449 0.551975 -1.14086 -0.158318
508 -0.0238363 -2.33726 -6.99675 -1.01656 -0.829577 0.465621
507 0.766871 -3.0096 -6.93598 -0.627531 4.10721 -1.92519
509 1.47408 -3.02309 -7.70297 -1.30016 -1.89542 -1.29966
506 0.834219 -2.34785 -7.71683 -0.350516 1.38107 1.24778
512 1.70359 -2.3312 -6.97246 0.739726 2.75738 -1.19274
557 1.4882 -1.73236 -7.85808 1.67233 0.0579204 -2.05174
510 2.33731 -2.344 -7.67753 -1.62154 1.39055 1.42967
561 3.15229 -1.64135 -7.67849 3.89606 1.11033 4.18099
511 2.52717 -3.12147 -7.05532 -2.45429 0.132076 0.462158
516 3.24975 -2.26439 -7.0333 -1.38635 -0.139971 1.28351
798 2.46439 -2.30138 -6.27887 2.8267 -1.49327 0.0930139
849 3.18065 -1.36452 -6.31144 -1.25654 -0.789506 -0.993985
514 4.00292 -2.22008 -7.80569 1.28555 -0.792228 -4.3525
515 3.96607 -3.11145 -7.02088 2.67403 -1.28388 2.28568
520 4.68204 -2.31834 -6.95013 0.199841 -0.421066 0.762839