ITEM: TIMESTEP
13000
ITEM: NUMBER OF ATOMS
6912
ITEM: BOX BOUNDS pp pp pp
-9.2265715179435492e+00 9.2265715179435492e+00
-9.2265715179435492e+00 9.2265715179435492e+00
-9.2265715179435492e+00 9.2265715179435492e+00
ITEM: ATOMS id x y z vx vy vz
4 9.09432 -8.41285 -8.50379 1.73524 -1.24806 -0.180882
51 -8.51716 -7.57959 -8.52905 -1.58513 1.55964 1.90051
337 -9.19813 -7.64649 -7.75583 1.59319 -1.05894 0.561837
5 -7.71484 -9.18088 -9.2216 0.817694 0.855276 -1.0348
290 -8.45092 -8.31441 -7.78553 2.05537 -2.64415 0.405477
8 -7.74797 -8.39373 -8.50497 -0.101916 -2.30526 1.73097
12 -6.16391 -8.58244 -8.51893 2.86782 0.416911 0.0115479
55 -6.94305 -7.6426 -8.52293 1.19926 -1.02775 1.46144
1765 4.53822 -9.19978 -0.0833583 -3.24784 0.639462 0.221253
59 -5.38917 -7.67287 -8.4996 0.341157 0.935119 -1.5977
298 -5.39975 -8.46444 -7.84303 1.12804 0.15652 0.361246
181 4.65431 -4.67247 -9.1247 0.260552 0.960777 -0.118077
345 -6.18555 -7.83233 -7.78797 0.183619 0.489911 -2.28167
16 -4.6117 -8.44578 -8.51006 2.84078 1.51228 -1.38614
302 -3.79296 -8.61757 -7.76065 2.43396 0.187204 0.0646444
349 -4.73162 -7.74213 -7.65638 0.110748 1.90227 2.90893
289 -9.18351 -9.09708 -7.74655 1.42039 3.45538 -1.76147
226 3.84553 -2.41195 -9.09752 -0.0661685 0.216787 -1.77948
20 -3.0629 -8.51203 -8.58656 -1.68138 1.08146 -0.344903
67 -2.32915 -7.74933 -8.53604 0.124373 0.551187 -3.71111
285 7.61105 -1.66604 -9.22711 -1.73489 0.112368 -1.38816
257 -2.99256 -1.47653 -9.1209 0.813847 0.210865 1.14003
306 -2.28755 -8.50401 -7.77524 1.0175 -2.71294 1.04378
24 -1.579 -8.49958 -8.46593 0.0151221 1.16831 1.05204
310 -0.759968 -8.44995 -7.70451 1.36317 -2.16303 -1.12828
166 -0.503194 -3.6993 -9.20021 -1.19043 0.290925 1.00192
4911 -3.69056 -0.0641564 -0.78769 2.38748 -1.30583 1.406
28 -0.0711276 -8.62011 -8.42544 0.528822 -1.07967 -1.72284
170 0.832665 -4.01531 -9.17747 0.404718 1.07895 -0.509286
32 1.60106 -8.34657 -8.61723 -0.639914 0.591463 -2.42247
314 0.785622 -8.41181 -7.72003 0.287425 3.34536 1.99215
4617 -6.10272 -0.132436 -3.08341 0.283314 -0.501041 -0.390461
5213 1.60473 -0.0908209 -0.0179685 -2.34658 0.686702 1.39324
36 3.03979 -8.5228 -8.45856 -1.39008 1.24711 1.10044
79 2.2597 -7.56425 -8.47794 -1.27091 -0.191606 -1.60113
3765 -1.53361 -0.0290524 -7.60413 -1.2271 -0.725256 3.36203
318 2.47722 -8.55739 -7.62879 1.39878 -0.87729 -1.28768
40 4.55251 -8.41608 -8.4675 0.203756 -0.4562 1.13981
1726 8.3904 -0.797819 -1.65982 -2.18475 -1.95478 -0.344925
133 4.80021 -6.14022 -9.15295 -2.15604 1.79594 -1.58407
44 6.0293 -8.37298 -8.28806 1.13418 -1.51436 0.739476
335 8.41868 -9.16039 -6.94583 -1.07009 0.359578 -1.02817
48 7.59213 -8.31343 -8.56476 1.54371 1.79158 0.498139
117 -1.61917 -6.15587 -9.10584 0.353608 -1.42957 1.20703
3775 2.15999 -0.146046 -6.93622 -1.03546 0.416306 2.5848
4901 -7.67445 -0.269927 -1.42226 -1.67459 0.413037 -0.0914987
95 8.2527 -7.68085 -8.45078 1.91685 0.373986 -0.878122
6 -6.89214 -8.43677 -9.1658 1.46668 -0.596856 0.483738
99 -8.54451 -6.21534 -8.50498 -0.576236 1.59197 -1.61741
56 -7.65751 -7.00632 -8.50891 1.4113 -2.64405 -0.0357097
103 -6.89603 -6.22926 -8.50211 -0.969048 3.61549 2.93363
389 -7.82118 -6.2023 -7.82892 -1.04047 0.10049 -2.3623
903 5.40251 -9.17744 -3.76229 1.5212 2.11307 -1.74734
4647 5.41393 -0.161817 -2.3605 -0.0826762 0.785582 1.03282
60 -6.1026 -6.99131 -8.35634 0.184049 -0.435874 1.12241
107 -5.46315 -6.05868 -8.41161 -1.22857 1.46127 1.07529
393 -6.1703 -6.2289 -7.76046 -1.08533 0.307993 -0.786641
63 -3.9847 -7.70651 -8.34154 3.20233 1.80653 0.540025
64 -4.56029 -6.94511 -8.4478 -1.41984 -1.08436 0.540664
111 -3.9213 -6.20755 -8.51811 1.87336 -1.05824 0.703074
1878 -6.92745 -3.78223 -0.0570854 2.21717 -1.14981 1.73653
113 -3.03241 -6.08371 -9.21379 -1.04312 0.0290936 -1.86203
353 -3.08928 -7.7072 -7.7736 1.3559 -3.6583 -1.56811
68 -3.09396 -6.85121 -8.48305 0.684805 -1.66316 -3.22751
354 -2.4369 -6.98896 -7.67544 -0.248486 1.51829 -0.604907
401 -3.17421 -6.15709 -7.65896 0.673801 -2.19053 -0.71856
71 -0.84404 -7.68101 -8.50862 -1.55987 3.29599 1.30158
72 -1.56285 -6.94078 -8.39521 0.097161 1.18772 2.77196
358 -0.81022 -6.86451 -7.67482 -0.893782 0.621374 5.68637
357 -1.74075 -7.61491 -7.57852 2.90513 -0.180212 -2.19837
4921 -0.0523771 -0.121915 -1.49795 0.239865 -1.08593 -0.671691
361 -0.139451 -7.69161 -7.70736 1.10414 -0.541874 -2.61223
76 -0.158749 -6.96328 -8.52747 -0.0602867 -1.40777 -1.0722
362 0.713594 -6.9933 -7.79214 0.609869 -0.92139 0.938022
75 0.454458 -7.715 -8.44445 0.650876 0.251289 -1.27564
80 1.32955 -7.04439 -8.51506 2.88428 0.289547 -1.28619
365 1.58045 -7.78072 -7.81791 -0.147452 -0.928046 -3.03948
369 3.04652 -7.65691 -7.75023 -0.440856 0.00156436 0.32622
84 3.19244 -6.74572 -8.48736 0.963542 -0.620094 1.669
83 3.83044 -7.70766 -8.53865 0.703205 -2.97702 -1.65993
88 4.58728 -6.84197 -8.59064 1.42264 2.51301 0.130396
4943 8.28474 -0.0637508 -1.07183 -1.05334 1.52938 -0.96403
4355 3.72973 -0.203361 -3.85156 0.931642 1.60202 1.92244
305 -3.05578 -9.1841 -7.79838 -0.105232 -1.06335 0.303745
581 -7.65186 -9.15728 -6.28611 0.290749 -1.27205 -0.397438
87 5.3733 -7.61548 -8.43126 -0.642985 -1.42089 2.58155
92 6.12179 -6.96026 -8.30567 -0.293513 -0.486351 -0.186074
26 0.660533 -8.44644 -9.19997 -2.71369 -0.27104 0.481818
91 6.79582 -7.57719 -8.47252 1.06997 -0.371863 -1.20517
139 6.89978 -5.97183 -8.47123 0.320029 -2.80657 1.00909
96 7.71699 -6.84266 -8.28372 3.90717 1.60498 0.975775
52 9.17387 -7.04742 -8.54187 0.697486 -1.56264 -1.40359
143 8.47023 -6.195 -8.39806 -0.77034 0.183184 -1.93372
429 7.6809 -6.02967 -7.71936 1.08152 -0.222913 0.235898
4925 1.56361 -0.0647067 -1.68331 1.16963 0.00237049 -0.605599
386 -8.50567 -5.51458 -7.73473 -0.319085 -0.354834 0.828524
100 -9.01576 -5.2516 -8.46 0.66428 -0.121812 0.664255
147 -8.42038 -4.40125 -8.64167 -1.71274 0.402044 1.99664
104 -7.74925 -5.45898 -8.43135 -0.872324 -0.950738 -1.57319
151 -7.06643 -4.64824 -8.66115 -1.26449 1.78066 2.40409
1881 -6.21293 -4.72239 -0.0550139 0.33776 -1.62516 2.02624
1455 -3.78334 -9.18168 -0.821666 -1.84926 0.0520791 -0.860288
108 -6.18 -5.43664 -8.44785 -0.492533 -0.26348 -1.2438
441 -6.28433 -4.57333 -7.69378 0.269858 -0.551273 1.28549
394 -5.47591 -5.338 -7.63696 0.915618 1.47176 0.0644796
30 2.36281 -8.43692 -9.21653 -0.47517 0.100499 -0.135993
3759 -3.80027 -0.0136206 -6.9 -2.3902 3.60053 0.522276
177 3.04242 -4.73087 -9.16104 1.37414 -0.0420415 -2.7491
112 -4.82129 -5.31518 -8.49698 -0.413051 -0.875124 0.899174
159 -4.06407 -4.5024 -8.47631 0.585115 -1.78762 -3.35773
115 -2.31016 -6.11218 -8.5073 0.754483 -3.41558 -0.843706
116 -2.97088 -5.41849 -8.3637 -0.457275 0.250529 -1.02587
163 -2.46123 -4.58256 -8.43445 0.0611923 -0.561135 -0.211337
449 -3.04342 -4.61418 -7.72532 -1.68 1.63308 -1.07049
4649 6.06612 -0.0324326 -3.19524 -0.428903 0.511133 -0.43511
317 1.69545 -9.18982 -7.7563 2.05722 0.0818463 -1.15586
119 -0.795401 -6.12653 -8.41424 -0.470583 0.256903 0.0854077
105 -6.09191 -6.06521 -9.17375 -1.29429 0.154641 -1.70261
120 -1.49989 -5.44944 -8.42865 0.736059 0.301946 1.04889
124 -0.077719 -5.50714 -8.48472 1.9694 -1.90902 1.14881
123 0.676566 -6.24594 -8.41839 1.43161 -1.68484 2.23069
128 1.48623 -5.60837 -8.47602 2.2425 0.656656 1.14608
1902 2.31204 -3.8933 -0.157312 -0.411279 0.287328 -0.500225
127 2.32093 -6.33124 -8.48272 -1.96814 1.8826 1.31661
132 3.00633 -5.49988 -8.54328 -0.109672 0.811825 -0.318973
45 7.55925 -9.17424 -9.1865 2.05845 -2.55757 1.15481
175 2.36143 -4.61641 -8.40867 0.509238 0.822508 -1.62173
4331 -5.42023 -0.0879646 -3.80443 1.03692 -0.165467 -0.591899
131 3.95087 -6.06563 -8.55519 2.0473 -0.305844 -0.849644
136 4.69431 -5.39948 -8.46964 1.73263 -1.93669 0.0976981
1853 1.33286 -6.1973 -0.213342 0.971813 0.661119 -0.566156
135 5.51753 -6.21969 -8.4853 -2.07177 0.892306 -0.126459
140 6.21587 -5.30682 -8.34144 -1.18179 -0.362161 1.95079
4071 5.38655 -0.0952473 -5.32527 2.02635 1.20526 -0.264163
911 8.3768 -9.15025 -3.71961 1.50572 0.0501392 -1.11398
426 6.94509 -5.35715 -7.56671 -0.102959 0.85195 -0.281753
895 2.33171 -9.13174 -3.80853 -1.91638 -0.911363 -1.11119
144 7.77067 -5.51816 -8.50625 -1.07485 2.09207 1.89842
191 8.46579 -4.76896 -8.50041 0.240521 0.822396 -0.83872
477 7.79956 -4.78439 -7.66715 0.619167 0.0937761 -2.30868
437 -7.79059 -4.71635 -7.81543 -3.3415 -1.0028 1.97307
195 -8.47626 -3.06845 -8.66002 -0.0671484 -0.0524661 0.159179
434 -8.27823 -3.73276 -7.78717 -0.188815 -1.5502 2.37508
152 -7.54919 -3.86218 -8.46495 2.71649 0.543372 -0.155497
199 -6.73277 -3.21254 -8.48148 -1.47406 1.67507 -2.91295
485 -7.62008 -2.98212 -7.66 -2.7831 2.22967 1.59533
883 -2.36933 -9.17269 -3.77334 0.439416 1.40106 -0.229443
5209 0.00922097 -0.0988056 -0.150096 -1.40312 0.864753 -0.96717
155 -5.50977 -4.62628 -8.37385 -3.36395 1.56323 1.56995
156 -6.18173 -3.96946 -8.45214 1.64449 -1.03553 0.623957
203 -5.29054 -3.1078 -8.58624 -1.77788 -1.08245 1.02075
442 -5.42737 -3.82998 -7.63692 -1.24636 -0.26585 0.217656
160 -4.61056 -3.77636 -8.31131 -1.33377 -1.53299 0.329908
207 -3.92101 -2.98287 -8.38947 -1.66436 0.612575 1.39233
164 -3.09354 -3.87293 -8.55768 2.11905 0.223483 0.944932
211 -2.20157 -3.0053 -8.54302 -0.339395 -0.317558 -0.0951783
3487 2.53741 -0.0327632 -8.51945 1.96536 0.543685 1.02662
168 -1.52792 -3.7887 -8.57256 0.504584 0.50555 0.782113
215 -0.616768 -2.83787 -8.42141 -1.10915 -2.20636 0.114465
167 -0.928634 -4.67489 -8.53904 -1.28533 -1.84586 -1.88939
501 -1.40338 -3.03839 -7.69055 2.90026 -0.0225872 -0.683544
909 7.74791 -9.12096 -4.66232 0.726562 -0.394401 -1.02631
301 -4.62987 -9.10501 -7.84724 0.528786 -0.17636 1.83655
172 -0.113615 -4.00084 -8.36687 -0.756642 0.626039 -3.47564
4351 2.36342 -0.135948 -3.92397 0.649675 -2.82947 -2.40766
171 0.700982 -4.67985 -8.48788 -0.295708 1.32176 -0.923174
176 1.55788 -3.94921 -8.45782 0.884987 -0.383986 0.473973
1467 0.763659 -9.18032 -0.799242 -2.13147 -0.0240171 0.661588
899 3.83437 -9.1698 -3.76087 -0.408375 0.702845 -1.56046
180 3.33975 -3.79209 -8.48124 0.469014 -0.921245 1.04009
223 2.41336 -3.16986 -8.4873 0.291487 0.891633 0.642677
1461 -1.47474 -9.05927 -1.81019 -0.0737902 2.79406 -0.78517
179 3.83556 -4.70256 -8.49441 0.820763 -0.0168819 0.67054
184 4.7516 -3.78211 -8.32071 -0.287806 -0.520871 0.96357
227 4.03244 -3.10661 -8.4729 -0.3741 -0.486687 -1.62437
1866 6.95859 -5.17752 -0.133364 1.23582 2.84431 -0.516017
1459 -2.3274 -9.15902 -0.913949 1.02922 1.17176 1.08648
183 5.45096 -4.49127 -8.54995 4.65026 0.102145 -0.317012
473 6.31557 -4.53756 -7.64197 -0.81423 -0.396275 -0.514803
188 6.36049 -3.7935 -8.47214 -1.35587 2.09299 0.773995
187 7.04489 -4.71386 -8.54978 0.212561 1.26237 1.72692
474 7.04712 -4.00172 -7.68202 0.248403 0.535708 -2.05938
192 7.75916 -3.9973 -8.51516 0.032134 -1.31936 -1.1055
148 -9.22461 -3.83357 -8.54771 -0.511963 -0.255498 -0.229931
4905 -6.08438 -0.129746 -1.44889 -0.35299 -2.24294 -2.41392
196 9.18301 -2.49506 -8.62114 1.45594 0.491055 0.0731956
1153 -9.22808 -9.18765 -3.1442 -1.8187 -0.85084 1.24591
200 -7.79611 -2.38589 -8.49689 -1.01151 -0.982105 -0.0712756
486 -6.82271 -2.4062 -7.8184 0.585176 -2.70087 -2.37637
4033 -9.07615 -0.0359749 -6.21069 0.785495 0.690714 0.897523
204 -6.09316 -2.38189 -8.43963 -0.521907 0.882678 0.95393
251 -5.37753 -1.55308 -8.35509 -0.113844 0.517006 -1.78517
537 -6.09318 -1.52596 -7.74661 1.81432 -0.659125 0.328769
208 -4.66403 -2.29523 -8.33106 0.544122 -0.347016 1.4681
494 -3.72435 -2.30272 -7.77414 1.71091 -0.976783 -1.46404
255 -3.86804 -1.55386 -8.38785 -1.50173 3.04116 2.62382
493 -4.57074 -3.09927 -7.65303 -0.202053 0.133284 0.646619
541 -4.53824 -1.51566 -7.60657 -0.768871 -1.08846 -0.299559
212 -3.00859 -2.26292 -8.50419 1.34492 -1.24854 1.52447
498 -2.25679 -2.20513 -7.78714 -0.516424 1.64467 -1.75044
259 -2.26108 -1.50471 -8.45202 -0.559707 -0.579782 -1.24688
869 -7.70809 -9.1381 -4.64012 -1.58147 -0.593548 2.13289
216 -1.50771 -2.2269 -8.55058 0.625817 1.61687 -1.11359
263 -0.729214 -1.51933 -8.40982 0.071359 -1.05892 -0.636611
237 7.62255 -3.02692 -9.15158 -1.56656 -0.0644001 -0.496974
1187 3.86232 -9.09779 -2.37163 -0.712242 0.45686 0.0875274
220 0.271258 -2.26185 -8.39472 1.26661 -0.390307 -1.33407
553 -0.145656 -1.63752 -7.5713 -1.27322 1.96176 -0.467776
219 0.845097 -3.18689 -8.42916 -2.04024 0.366494 -1.2836
224 1.63125 -2.44217 -8.41511 -3.62508 -0.65441 -1.05426
267 0.959867 -1.57721 -8.49417 3.0596 -1.18234 0.0906725
98 -8.40939 -5.36328 -9.15672 -1.02056 -0.265393 -0.74884
1757 1.4411 -9.07678 -0.0599601 2.06832 -1.08686 2.5003
218 0.951354 -2.36928 -9.15033 0.0544952 -0.707363 -1.93002
4343 -0.73243 -0.00643525 -3.81133 1.16343 3.10645 2.15588
228 3.11384 -2.21757 -8.45917 -0.792057 -0.533227 -0.0653218
271 2.20985 -1.62121 -8.48004 -1.97525 -1.11888 2.05609
295 -7.01275 -9.1472 -6.95941 0.581378 1.87541 0.549748
232 4.79286 -2.27095 -8.39607 1.42937 1.07591 -0.659278
275 3.89955 -1.61566 -8.60163 -0.993337 -1.1976 1.16867
126 2.27627 -5.68557 -9.23221 -1.48076 2.47719 -0.805527
1818 6.92465 -6.91231 0.000183718 0.833627 1.1826 3.20551
231 5.5018 -3.13743 -8.35187 0.757499 0.588551 -0.864652
236 6.17997 -2.36099 -8.46984 2.77192 1.48144 1.4814
4067 3.80872 -0.199599 -5.38397 -1.25767 -1.33715 1.9735
577 -9.19802 -9.16048 -6.22352 1.72356 -1.48523 -0.29974
235 7.11784 -3.14486 -8.24596 -0.392902 1.34396 1.42982
240 7.65402 -2.30943 -8.45358 1.42869 1.16824 -0.613036
182 5.48815 -3.67873 -9.22383 1.3181 0.440693 -2.97105
522 6.88962 -2.16237 -7.76047 -0.0799613 0.937039 1.88287
4927 2.37994 -0.24471 -0.757711 -0.935978 -2.1225 1.11504
202 -5.31225 -2.12706 -9.16285 1.11963 -0.914036 -2.00845
239 8.35558 -3.11753 -8.48176 -0.268549 0.649624 -1.03827
287 8.61551 -1.65635 -8.39712 -1.37172 -0.912065 -1.60013
529 -9.1064 -1.65019 -7.67822 1.14661 -4.00139 1.44505
1898 0.808272 -3.86363 -0.123426 -1.25455 1.78662 -1.60769
885 -1.46436 -9.18073 -4.69035 0.75718 0.0544239 0.564036
1463 -0.817994 -9.08459 -0.764878 1.7042 1.52058 0.824205
110 -3.80168 -5.27247 -9.07046 0.236536 1.41481 0.565535
243 -8.51464 -1.53895 -8.61136 0.462341 0.950607 0.706022
244 9.20081 -0.820932 -8.50277 -1.8885 -1.06184 0.63701
247 -7.00642 -1.51429 -8.35683 2.06772 3.00468 -1.21036
248 -7.79247 -0.681819 -8.63781 1.38554 -1.32319 0.312328
533 -7.68847 -1.69124 -7.59279 0.70222 -1.24066 1.66942
1965 7.61463 -2.95556 -0.140509 0.364717 3.76635 1.982
4363 6.809 -0.0340076 -3.90827 2.3798 0.403098 -3.27489
252 -6.0585 -0.689418 -8.46023 1.15852 -0.549077 3.55749
538 -5.27432 -0.555495 -7.71183 -0.708102 -0.100396 -1.07537
173 1.70426 -4.89964 -9.1025 0.377908 2.76271 1.5447
256 -4.76435 -0.697226 -8.62824 0.350189 0.901041 -0.636657
38 5.32934 -8.3645 -9.08702 2.43312 -1.3197 2.13161
58 -5.36775 -6.87622 -9.09995 -0.206177 1.65026 -0.367929
260 -3.03468 -0.641442 -8.46423 1.22101 -0.907708 0.222532
4933 4.5675 -0.289271 -1.63853 0.654966 2.89931 2.55143
1805 1.61578 -7.69659 -0.037981 0.09778 0.731224 -0.638692
264 -1.50207 -0.688944 -8.45322 0.157978 -1.10265 -1.10835
549 -1.44568 -1.37179 -7.72843 -1.85344 0.157489 1.43064
18 -2.27828 -8.53374 -9.22039 -0.861736 -0.346657 -0.877717
198 -6.89691 -2.44771 -9.08741 0.945161 -0.154802 -2.61112
268 0.000830912 -0.821467 -8.37233 -1.07018 -0.299841 0.178569
550 -0.719022 -0.676375 -7.67266 1.6772 1.78187 -0.567035
186 7.01754 -3.90887 -9.1697 3.37371 -0.173387 -0.347389
4353 3.10212 -0.047476 -4.67106 0.428898 -1.3593 -1.0381
4611 -8.33001 -0.0532601 -2.12367 0.419738 0.726811 -0.0952403
272 1.5401 -0.792261 -8.5799 2.60491 -0.39913 1.11088
276 3.19142 -0.779505 -8.48126 -0.331143 0.754864 -0.269607
2014 8.26005 -0.824471 -0.209341 0.285148 -0.149514 1.12369
1165 -4.65574 -9.18487 -3.02624 0.233621 0.253947 0.143505
585 -6.08638 -9.10775 -6.21324 -1.90292 3.34592 -0.535411
280 4.59167 -0.640137 -8.4431 0.416727 0.886988 -2.87903
279 5.47696 -1.44388 -8.65885 -2.64158 2.00094 3.80517
284 6.21477 -0.696918 -8.58112 -0.8399 0.126989 -2.03936
566 5.42175 -0.649984 -7.65924 -0.493749 -1.04234 0.976852
3783 5.58417 -0.0254876 -6.83856 -1.69223 -0.811864 -2.23356
1453 -4.63432 -9.0324 -1.34278 0.954261 -0.285241 -1.90418
2005 4.56143 -1.69956 -0.139198 -2.38684 0.391892 -0.727983
283 6.8336 -1.40621 -8.63516 0.68892 -0.375205 -2.63498
288 7.66584 -0.781506 -8.34677 -1.54672 -3.10569 2.00282
570 6.88077 -0.79644 -7.58781 1.58622 -0.259389 0.471143
4939 6.86785 -0.0906535 -0.818571 -1.29444 0.649587 -2.85022
873 -6.24645 -9.07258 -4.58898 -0.995369 0.00231313 0.0761043
341 -7.73832 -7.66802 -7.81574 -2.95208 -1.00386 0.250315
339 -8.41249 -7.78727 -6.94949 -0.107178 -0.371566 1.23776
296 -7.743 -8.42038 -7.07648 1.01184 1.00709 -0.798702
292 -9.19439 -8.45138 -7.00478 0.573966 0.180011 0.241423
578 -8.40386 -8.48485 -6.243 -1.20103 0.274791 0.0597403
294 -7.03828 -8.41019 -7.72806 -0.399168 -0.974637 -1.72754
582 -6.8913 -8.51577 -6.18085 0.323999 1.01524 -0.587034
629 -7.55287 -7.80653 -6.31914 1.87717 1.1231 -1.68002
343 -6.83686 -7.82991 -7.00793 -1.27305 -1.75119 2.02722
300 -6.05086 -8.5204 -7.02465 1.91904 0.229799 1.76516
347 -5.30092 -7.48804 -7.00388 0.0222191 -0.638812 0.656824
101 -7.66086 -6.1285 -9.17244 -0.367931 1.77632 0.249958
304 -4.57342 -8.69069 -6.96505 0.0938136 1.60761 0.392918
351 -3.92606 -7.84127 -7.09963 -0.30249 0.345221 0.598862
1 -9.24039 -9.1746 -9.13875 -1.74287 -0.188997 -0.573787
1191 5.41061 -9.14309 -2.40429 1.80873 -1.82071 0.350709
4643 3.97992 -0.00267895 -2.39491 1.09376 1.08954 0.176243
308 -3.17428 -8.71923 -6.90683 -0.971984 -0.695955 0.636793
312 -1.57435 -8.48417 -6.9279 -1.28663 -1.48049 1.66422
238 8.45638 -2.35248 -9.17085 1.5994 -0.360162 0.323657
316 0.0777676 -8.33684 -6.95634 -0.497257 1.4257 -0.762249
320 1.61844 -8.40182 -6.96049 1.22884 -2.78267 -1.854
602 0.843131 -8.52274 -6.1329 0.045591 0.641726 -0.451367
333 7.50808 -9.07117 -7.81546 -0.459705 -0.548346 0.472246
324 3.16889 -8.46773 -6.74777 -0.523369 1.84357 -0.215062
657 3.20643 -7.57552 -6.16859 -0.18304 0.054017 -0.442116
367 2.53057 -7.75907 -6.85591 0.54763 -1.98248 1.74486
606 2.32894 -8.44799 -6.2638 1.69831 1.71562 0.156641
3483 0.668813 -0.103775 -8.50468 -0.0834149 1.84953 -0.0487058
1950 2.2165 -2.32347 -0.0250869 -1.25356 1.43331 0.400731
322 3.79174 -8.41837 -7.7684 1.51093 -0.622063 0.957237
1953 2.87601 -3.10572 -0.028138 -0.5976 0.275258 0.490821
328 4.65137 -8.3466 -6.83664 1.00977 0.29158 1.49753
371 3.81923 -7.53607 -7.04059 -1.38087 1.87247 -1.3975
661 4.47808 -7.60297 -6.23426 -0.298809 2.71505 0.497612
3767 -0.894042 -0.0684923 -6.7684 0.470994 1.29419 -1.7234
326 5.20026 -8.40681 -7.65789 0.294976 -0.263538 0.987121
332 6.10162 -8.46412 -6.88234 0.0218917 0.00761989 -1.96581
375 5.23282 -7.63056 -7.03777 0.993498 1.93387 0.552522
330 6.94196 -8.33626 -7.6092 0.919415 0.285488 -3.27593
381 7.62841 -7.6998 -7.49146 -0.771918 2.90947 0.774532
336 7.61979 -8.44473 -6.80936 1.84257 -0.633124 1.66793
618 6.9073 -8.46373 -6.18259 0.00835923 -3.50374 3.46312
379 6.84971 -7.72983 -6.90406 -2.8518 1.64881 1.62819
334 8.38871 -8.45447 -7.65563 0.488531 0.248576 -0.895593
383 8.56847 -7.78726 -6.97564 0.513767 1.18736 0.379733
338 -8.42663 -6.98436 -7.81763 -1.90498 -1.22179 -0.972849
385 -9.14927 -6.32004 -7.79731 2.4119 1.82086 0.662911
387 -8.39141 -6.18716 -6.9365 1.12113 1.82383 3.09971
626 -8.4141 -6.92805 -6.09306 0.322229 1.30594 0.94367
344 -7.71309 -6.96963 -6.89566 1.17256 -0.754068 1.62872
342 -6.95544 -7.02875 -7.73612 -0.850497 0.657322 -0.375935
391 -6.8935 -6.11775 -6.91348 -3.02587 1.35998 -1.89293
630 -6.90593 -7.06246 -6.2962 -1.72777 -0.345956 1.33087
677 -7.678 -6.24413 -6.17471 -2.70097 0.49548 -2.71625
346 -5.22401 -6.77766 -7.72089 2.0254 0.773138 -2.86153
348 -6.14576 -6.91991 -6.99103 2.07506 -1.23045 0.457531
681 -6.07944 -6.2244 -6.27294 0.645441 -2.87912 0.40378
634 -5.35599 -6.88426 -6.30004 -0.864404 -0.07454 -0.807255
350 -3.92126 -6.94843 -7.6494 0.518646 -0.850353 -1.68214
352 -4.60783 -6.78589 -6.98971 -2.7039 0.365391 2.23617
397 -4.65464 -5.96972 -7.77396 -1.26294 -0.938384 1.55468
685 -4.66064 -6.09204 -6.25281 0.490725 0.118447 -1.03226
399 -3.81221 -6.04076 -6.93885 -0.154389 -0.690251 1.34133
355 -2.46754 -7.85065 -7.01867 0.661875 -0.31167 -0.629574
356 -3.13488 -6.86667 -6.84996 0.717143 2.03814 -0.380446
403 -2.41061 -6.15066 -6.87059 1.81939 -1.27257 -1.47154
642 -2.51352 -7.01599 -6.09256 1.24203 -1.94096 1.16659
360 -1.69698 -6.77438 -6.64488 -0.777121 0.540762 -2.38107
359 -0.8281 -7.71306 -6.86919 0.0730642 0.812887 -1.04952
649 -0.0959561 -7.68759 -6.15709 -0.503263 -0.140635 -0.0299875
364 -0.0732686 -6.97776 -6.85881 2.1762 -1.16583 -1.1365
407 -0.83971 -6.33044 -6.79763 1.28374 -0.818836 0.521671
363 0.779102 -7.63484 -7.01656 -0.261835 -0.635263 -0.697956
413 1.59017 -6.40247 -7.78157 0.495083 1.83331 -2.7602
368 1.49543 -6.99806 -6.99152 2.25474 1.8706 0.384816
653 1.62794 -7.70321 -6.37236 -0.491062 1.869 0.888141
366 2.4094 -6.94638 -7.73299 1.34635 -4.27252 1.39897
372 3.17859 -6.87952 -7.01063 1.91993 1.03686 -0.397311
373 4.54896 -7.58502 -7.66945 1.32087 -0.602447 0.0515818
370 3.89156 -6.86821 -7.79665 -1.61731 -1.09124 -0.740438
421 4.57795 -5.98611 -7.60838 0.415928 -0.439728 1.04132
376 4.65719 -6.77074 -6.9526 -1.53602 0.429977 2.09636
709 4.6329 -5.96833 -6.15471 -0.677909 0.846675 1.10239
425 6.32238 -6.14856 -7.71482 0.952573 0.769599 0.803565
374 5.24455 -6.8546 -7.76358 -0.897051 0.859736 1.0714
380 6.14726 -6.89548 -6.88556 -0.604273 0.537155 -0.146036
378 6.92319 -7.00825 -7.65323 -0.818867 -2.7757 -0.961685
377 6.1818 -7.65842 -7.63549 2.618 1.8704 -0.51982
384 7.75019 -6.81014 -6.88618 1.8363 0.133775 1.83015
666 6.8925 -6.94242 -6.2345 -1.16538 0.616368 0.502805
340 -8.99498 -7.02602 -7.00513 1.52023 -0.49057 -1.27284
382 8.46598 -7.08433 -7.66695 -1.43013 0.765888 -0.551451
670 8.50131 -7.03125 -6.14638 1.34243 1.56183 -1.53958
433 -9.07287 -4.5949 -7.61144 0.634585 0.350451 1.92319
435 -8.41258 -4.62712 -6.98368 1.28245 -1.30092 -0.828929
388 9.2254 -5.55892 -7.03728 1.05417 -0.57276 -0.773767
673 -9.08292 -6.20742 -6.15862 -1.26798 0.735791 0.919789
390 -6.96247 -5.40203 -7.82278 1.1492 -0.632182 -1.63929
392 -7.69405 -5.42439 -6.97655 2.74557 -1.01776 -0.943427
678 -6.8801 -5.52048 -6.11089 -3.1975 0.371393 0.676376
439 -6.94338 -4.78872 -6.797 0.948164 -1.07387 0.0784225
725 -7.78885 -4.75797 -6.12757 1.01146 1.59659 -1.41833
395 -5.40865 -6.11608 -7.03628 1.76009 1.81949 0.569453
396 -6.15677 -5.38919 -6.89733 0.114165 -2.94352 -1.0904
682 -5.43048 -5.46191 -6.10448 -1.06984 0.819693 -0.852737
398 -3.91553 -5.2337 -7.65147 0.578852 0.307901 -1.16245
400 -4.63998 -5.2546 -6.7902 0.464522 1.54079 -0.138574
445 -4.59735 -4.51903 -7.58256 0.00579073 -1.86919 3.83704
447 -3.73464 -4.62524 -6.84416 -0.754731 0.689912 1.89667
402 -2.23003 -5.41242 -7.57615 0.689026 0.201564 0.246198
404 -3.0936 -5.39047 -6.82969 4.13588 0.831146 0.650597
690 -2.43373 -5.29864 -6.16002 -0.663312 -0.114426 -1.3679
451 -2.38014 -4.56181 -7.03892 -0.605423 0.796489 -0.842971
406 -0.87739 -5.37063 -7.67079 -0.576403 0.157729 -0.453343
405 -1.66301 -6.20952 -7.56588 -1.0297 0.797648 -0.227422
408 -1.48477 -5.63901 -6.82706 -2.93767 -0.407368 0.132126
741 -1.58114 -4.6752 -6.32701 -2.28559 0.851118 -2.14879
409 0.00838766 -6.11723 -7.60117 2.13705 1.19983 -1.82884
412 -0.00378863 -5.53834 -6.8311 -3.15144 0.884609 4.13154
457 0.16918 -4.80362 -7.55842 -0.71774 0.827979 1.08596
411 0.838848 -6.27472 -6.96168 -2.44755 -0.564708 -0.0916127
410 0.851464 -5.5107 -7.69675 -2.19022 -0.280345 -1.16381
416 1.65245 -5.43418 -7.09753 -1.46475 0.779901 -0.0470031
417 3.20462 -6.2284 -7.65301 -1.30176 -0.753326 -0.108797
414 2.3926 -5.56558 -7.71658 -0.116867 0.688469 -0.662609
415 2.32732 -6.25877 -6.98465 0.884077 0.298962 2.57849
420 3.03429 -5.3566 -6.93024 0.672641 0.330018 -1.07628
465 3.1595 -4.62837 -7.69246 -0.00779385 0.407978 1.28949
419 3.86013 -6.05868 -6.83219 1.5283 -2.27196 0.0806109
418 3.77949 -5.31162 -7.69536 1.10577 2.44876 0.161449
424 4.60591 -5.22824 -6.96677 1.11448 0.136809 0.403208
423 5.47849 -6.10295 -6.96473 1.20629 -0.113977 -0.0623434
422 5.49297 -5.35885 -7.68113 -1.715 -1.84978 2.12634
428 6.23499 -5.24638 -6.93404 -0.446259 -1.19082 -3.82701
713 6.07798 -6.09768 -6.23982 1.44237 -0.855523 -1.15715
427 6.94368 -6.23855 -6.9695 -1.67296 1.51788 1.70198
714 7.01775 -5.37438 -6.00395 0.835999 0.475154 -2.5447
432 7.62958 -5.38834 -6.91117 0.743144 1.36726 -2.19973
475 6.8711 -4.57684 -6.65329 -0.640481 0.307643 1.0291
430 8.5888 -5.44839 -7.71479 1.24561 -1.55489 -2.41648
431 8.62753 -6.37983 -6.89332 -1.68923 1.98242 0.270777
479 8.39739 -4.68056 -6.811 -0.248683 -1.70279 -1.24166
717 7.69363 -6.08088 -6.18218 -3.03413 -2.19362 0.618665
722 -8.46391 -3.83437 -6.09041 2.67622 -0.549982 -0.474816
769 -9.09873 -3.03388 -6.19129 -1.11733 -0.735205 -0.750006
436 9.13401 -3.98543 -6.83192 -0.776668 0.374997 0.161852
438 -7.00293 -3.82295 -7.62002 -2.35528 1.74078 2.51562
440 -7.71903 -3.89198 -6.83567 0.638037 -0.704347 -1.94635
726 -6.87361 -4.03866 -6.00877 -0.430494 0.408027 -0.180495
443 -5.58409 -4.61114 -6.96273 -2.6892 -1.18716 0.0502944
444 -6.2274 -3.87222 -6.91587 -1.1477 -1.14922 -1.73877
491 -5.40888 -3.03713 -6.83261 1.12249 -2.39816 0.744046
446 -3.76883 -4.01723 -7.74073 -1.59291 0.0578425 -0.251936
448 -4.53884 -3.73821 -6.93481 0.233438 0.648242 -2.85822
495 -3.86711 -2.939 -6.93774 -1.10195 -1.43311 1.94266
734 -3.73875 -3.73935 -6.31112 0.198171 2.79422 0.531227
781 -4.67976 -2.93784 -6.23517 4.34735 -0.432899 2.34474
450 -2.29747 -3.84997 -7.75202 0.778987 -1.23867 1.85353
452 -2.93961 -3.82498 -6.9598 -1.3975 -1.26556 2.09815
499 -2.22313 -2.94308 -7.15018 -1.49331 1.10778 -1.78019
497 -3.00888 -3.00118 -7.85556 -0.94578 0.314162 -1.02619
738 -2.32583 -3.6883 -6.29314 -1.59744 0.216413 1.60918
453 -1.60563 -4.68259 -7.81822 1.92007 0.707819 1.819
454 -0.961983 -3.90503 -7.7696 -0.573867 0.728633 0.405809
455 -0.732759 -4.65564 -7.00556 -3.21786 1.41698 -1.68967
456 -1.40606 -3.86958 -6.9443 1.42396 0.224967 -1.79566
503 -0.684234 -3.1456 -6.91614 -0.445938 0.21288 0.11442
460 0.113519 -4.01749 -7.05691 0.310028 -0.978173 0.105864
505 0.00686278 -3.2086 -7.71708 -2.02594 -0.670772 0.605314
507 0.864636 -3.22753 -6.95444 0.488908 2.42556 -1.4906
461 1.47832 -4.65663 -7.85894 3.92712 -1.64051 -1.37051
459 0.851642 -4.83513 -6.85637 -1.76997 0.561947 -0.27261
458 0.843621 -3.953 -7.79639 1.82536 0.449531 -1.88203
464 1.54482 -3.89321 -6.93829 -1.28701 0.367519 -1.50534
509 1.58386 -3.20273 -7.76747 0.552935 0.891871 0.685373
462 2.49818 -3.80337 -7.69987 -1.69144 -0.25261 -0.0151322
513 3.13915 -3.07599 -7.71392 -0.342296 0.0277062 0.171767
463 2.23897 -4.67372 -6.87262 -0.0830103 2.52349 0.184352
468 3.03395 -3.95085 -6.90568 1.7806 -0.847326 -0.355242
511 2.40075 -3.06781 -6.98065 -0.563938 2.4522 -0.546948
469 4.67638 -4.62367 -7.71603 0.0824189 -0.874253 0.35929
466 3.89954 -3.87598 -7.69439 -4.13421 0.307253 0.802177
467 3.84021 -4.5397 -6.89385 -3.19464 -0.425649 1.56106
472 4.67696 -3.87845 -7.03532 0.940243 -1.89139 -0.447665
515 3.87333 -3.12942 -7.00932 -0.192381 -1.75248 0.0840463
470 5.43334 -3.84027 -7.61167 -1.73003 3.15703 -1.37197
471 5.51772 -4.60878 -6.86912 -0.0279018 -0.257121 1.85545
476 6.16176 -3.90142 -6.80035 -0.343015 0.351616 -0.388918
758 5.42625 -3.89272 -6.17988 -0.806996 -2.17481 0.0474835
521 6.26228 -3.14824 -7.62908 0.223487 0.838451 -2.30894
809 6.31526 -3.04397 -6.0527 -0.305322 -1.78043 0.370114
480 7.6644 -3.89879 -6.9329 1.84355 -0.156417 0.540654
523 6.92538 -3.15476 -6.92351 -1.3954 -0.668022 -2.09752
765 7.68036 -4.57045 -6.13929 -0.231386 0.291403 -1.08557
478 8.41524 -4.00597 -7.58472 1.54236 0.673368 0.900412
527 8.54824 -3.16562 -6.93302 2.50475 -0.781876 5.44637
482 -8.58497 -2.61114 -7.81343 -0.490169 -2.02459 -0.736963
483 -8.40398 -3.2297 -6.96816 -1.21225 1.40249 -1.31531
531 -8.40495 -1.60518 -6.84892 -0.523711 1.58201 1.7865
770 -8.25574 -2.2427 -6.14155 0.684125 -1.61927 -0.68467
487 -6.9261 -3.16504 -6.88858 -1.8455 -0.899667 -1.90813
488 -7.43471 -2.28552 -6.85628 -1.37978 1.53915 -2.90846
821 -7.51127 -1.48612 -6.24121 0.521968 0.803478 0.750207
490 -5.41769 -2.41942 -7.757 1.81068 -0.891944 -0.127362
489 -6.1625 -3.0875 -7.56977 0.174228 -0.703873 0.426681
492 -6.20115 -2.33636 -7.02376 -1.02442 0.496395 1.74066
778 -5.34624 -2.23513 -6.11751 -0.320599 -0.445562 0.768477
496 -4.60245 -2.22144 -6.93574 1.59543 2.88043 0.245196
782 -3.88509 -2.27082 -6.06269 -0.505739 -0.811655 0.898138
543 -3.93611 -1.43199 -6.84135 0.730787 -0.705585 -0.83873
545 -2.98957 -1.50678 -7.72589 3.34722 -1.42366 -2.89972
785 -3.01851 -2.99388 -6.23686 -0.4395 -0.203028 2.33594
500 -3.08793 -2.19429 -6.93726 1.42636 -1.0776 0.075056
786 -2.26689 -2.27202 -6.09678 1.68224 -0.894177 -0.22661
547 -2.42903 -1.54364 -6.98213 2.20097 -0.247084 0.160254
833 -3.08681 -1.52744 -6.09316 -1.17403 3.63768 -0.152038
502 -0.757235 -2.32608 -7.53152 2.69399 -0.0967717 0.338708
504 -1.54794 -2.04669 -7.05982 0.624628 0.738943 -1.37829
837 -1.48019 -1.50495 -6.08736 0.254793 -2.26965 -1.36636
551 -0.779479 -1.37792 -6.95227 -0.389317 -1.11901 1.05928
790 -0.764754 -2.41176 -6.15835 -0.23442 -2.66333 2.62298
508 0.0590409 -2.27441 -6.74969 1.27136 0.95255 -0.683714
506 0.762001 -2.47278 -7.59271 0.921893 1.73236 -1.40938
841 0.226879 -1.53117 -6.01836 -0.30881 -2.07549 0.65565
557 1.55072 -1.7021 -7.67036 2.98767 -2.6848 0.690034
512 1.49618 -2.50119 -7.03691 1.6424 0.167938 0.915856
555 0.677173 -1.5394 -7.00493 -0.931245 0.000769122 0.666242
510 2.38318 -2.4238 -7.77566 -1.3296 -1.41304 0.816587
561 3.11632 -1.6329 -7.70166 -0.609359 0.2396 1.34075
516 3.08958 -2.38259 -6.99913 1.39323 0.755688 -1.7281
559 2.21554 -1.77344 -6.8017 1.51289 -0.889545 -0.069475
517 4.74841 -2.9328 -7.58561 1.58521 -1.3064 -1.46956
514 3.93903 -2.296 -7.63091 -1.77573 1.33523 -0.777794
565 4.78904 -1.46832 -7.73066 2.47138 -1.82113 -0.607133
805 4.44707 -3.06842 -6.11392 1.63441 0.587725 -0.723769
520 4.56961 -2.22241 -6.93829 -0.102494 -1.72967 1.79538
569 6.15478 -1.43525 -7.82004 0.826726 -1.28364 -0.954581