ITEM: TIMESTEP
150000
ITEM: NUMBER OF ATOMS
6912
ITEM: BOX BOUNDS pp pp pp
-9.2265715179435492e+00 9.2265715179435492e+00
-9.2265715179435492e+00 9.2265715179435492e+00
-9.2265715179435492e+00 9.2265715179435492e+00
ITEM: ATOMS id x y z vx vy vz
290 -8.1806 -8.51844 -7.77322 2.11855 -0.335333 -0.536872
1171 -2.05869 -9.08341 -2.46515 -0.272452 0.0304144 0.958019
305 -3.11977 -8.98925 -7.63284 -2.5019 -2.02333 0.691816
8 -7.57273 -8.64597 -8.48783 -1.98497 0.681711 -1.84317
1195 6.79533 -9.07095 -2.39202 0.605267 1.49686 -0.187541
294 -6.93676 -8.5461 -7.64698 -0.88786 0.387087 -1.99322
12 -6.08548 -8.58908 -8.58644 -1.43356 0.593847 -0.254828
298 -5.42773 -8.69646 -7.63622 -1.16777 3.47761 1.05693
611 4.06996 -9.11773 -5.40669 -1.34367 -1.5433 0.488826
125 1.28005 -6.21874 -9.11686 2.02549 -0.311056 1.38505
329 6.16013 -9.17996 -7.74978 0.288705 0.766033 0.459016
1443 -8.36983 -9.19197 -0.88545 0.359029 -1.2206 -0.518991
16 -4.69471 -8.48129 -8.47838 -0.561155 2.07791 0.440948
162 -2.31028 -3.72528 -9.17641 -2.21867 2.35071 -0.674353
20 -3.21692 -8.46599 -8.61597 -1.10511 -3.44478 0.417794
306 -2.43599 -8.29219 -7.78342 -0.439855 -0.542993 0.735762
153 -6.15001 -4.44435 -8.95103 0.919985 -1.58128 -4.60847
241 9.07598 -1.64943 -9.15834 -2.07154 1.4676 -1.89888
24 -1.68886 -8.37395 -8.56314 -0.00411203 -1.23036 -2.37217
310 -0.932883 -8.40778 -7.93535 -2.39601 1.00365 0.586042
1175 -0.528574 -9.19628 -2.22611 -1.58214 -0.927215 -1.20783
26 0.105083 -8.20949 -8.32598 -1.38368 2.13014 0.152576
4919 -0.955509 -0.0514736 -0.762538 3.01248 0.734515 -0.502329
367 1.56698 -8.29165 -8.38329 0.849859 -0.361735 -0.796078
28 0.773197 -8.48376 -7.71911 2.54764 -3.38998 4.11409
4611 -8.55589 -0.0616493 -2.28507 -0.343889 1.61001 -1.35688
1461 -1.39761 -9.16864 -1.54256 0.881911 -0.743848 -2.02303
318 2.25882 -8.43465 -7.65143 1.60214 1.2031 -0.293542
36 3.01431 -8.38329 -8.38433 0.310007 1.29687 -0.906541
3457 9.1418 -0.0809899 -8.90129 -1.33683 -0.970566 1.95796
1989 -1.44683 -1.63747 -0.00907631 -0.0836504 0.271061 1.07179
3461 -7.94534 -0.351042 -9.03989 1.54635 0.149457 0.64059
3495 5.33586 -0.177601 -8.39899 0.988623 -1.27726 0.612372
40 4.51529 -8.56601 -8.44772 0.905282 -1.33265 -0.455055
322 3.75342 -8.63724 -7.62184 0.27967 -3.44294 3.43782
138 6.81709 -5.41534 -9.25846 -1.99331 -0.399865 -4.29596
22 -0.727289 -8.55807 -9.02134 1.62874 0.366659 -0.517763
309 -1.74237 -9.0891 -7.75641 -0.857613 0.496577 1.71991
1885 -4.62573 -4.65596 -0.153925 1.20929 -0.84332 1.40744
44 6.15338 -8.27719 -8.3138 1.89426 -1.71118 -1.43541
174 2.58921 -3.67914 -9.05754 2.32024 1.66232 1.73924
281 6.33347 -1.26162 -9.1715 2.35747 -2.69066 -1.13712
3459 -8.45423 -0.0359371 -8.27882 -0.340179 0.378058 1.10705
330 7.10006 -8.4757 -7.63654 -0.140574 -1.60543 -1.42954
91 7.11256 -7.99188 -8.4519 -2.00917 -1.77464 -0.160859
94 8.57846 -7.14414 -9.20973 -2.58697 1.93882 0.241411
1930 -5.5283 -2.12769 -0.189663 0.307568 0.0842509 -2.84117
4 -9.18832 -8.36368 -8.21936 0.903247 4.30433 -1.0131
48 7.9801 -8.45495 -8.4375 2.72172 -0.97663 0.960225
334 8.48894 -8.73527 -7.69741 0.363272 3.46558 2.86673
46 8.63427 -8.30491 -9.17212 -0.511163 0.360578 -0.994367
258 -2.46346 -0.695747 -9.1809 -2.12846 -1.58822 -0.25867
337 -9.19401 -7.62732 -7.54227 1.46771 -2.73097 0.348945
51 -8.30922 -7.55865 -8.38734 0.0573565 0.0557194 0.737411
338 -8.32114 -6.83914 -7.69799 -0.529605 -1.88856 0.423736
3759 -3.87118 -0.128252 -6.84634 -0.962231 -0.534238 0.46237
55 -6.94785 -7.68371 -8.58685 0.335924 0.0431264 0.727191
56 -7.56944 -6.88999 -8.36434 0.906563 1.35765 1.5608
389 -7.5916 -6.18302 -7.71722 0.503405 2.45615 -1.02811
341 -7.5388 -7.8527 -7.70965 0.0271064 0.58251 1.7467
59 -5.4874 -7.68877 -8.53821 2.33222 0.299225 0.566726
60 -6.26406 -6.89403 -8.42398 0.931215 -1.93866 2.72349
349 -4.81359 -7.82252 -7.70612 2.4156 -0.726647 1.45236
63 -3.96706 -7.54782 -8.44783 -0.813875 -3.8461 0.874215
350 -4.58826 -6.87306 -8.61645 1.10243 -0.790151 3.74993
67 -2.52723 -7.78729 -8.60525 -2.72068 2.50716 0.695455
68 -3.12367 -6.96644 -8.772 -0.235769 -2.37898 2.24166
353 -3.09011 -7.61941 -7.90221 -3.07819 1.13962 -0.805533
71 -0.942415 -7.63657 -8.55595 -0.356417 -0.360188 -2.23246
72 -1.58416 -6.91933 -8.53662 1.45887 0.619859 -0.695007
122 0.750936 -5.30932 -9.05809 0.0695048 0.948349 -1.23658
357 -1.65928 -7.70917 -7.81824 0.612502 2.24131 -0.941524
358 -0.89054 -6.98651 -7.73844 1.35254 -2.09585 2.62615
4923 0.804999 -0.0564846 -0.643996 -1.95811 1.52341 0.0466988
76 -0.101042 -7.01301 -8.45648 1.25453 -0.640047 -2.12281
75 0.742087 -7.61471 -8.4518 -1.36785 3.00698 1.03641
80 1.45733 -6.98254 -8.32287 -0.878662 -0.989736 -0.738346
1162 -6.05749 -9.08119 -3.06096 -3.42651 0.830008 1.08433
79 2.46167 -7.37824 -8.34061 -1.30077 2.08692 -1.48322
84 3.17028 -6.65495 -8.34168 -0.208638 3.3464 -1.69598
417 2.93935 -5.88347 -7.68046 -1.84852 -1.68452 0.681797
369 3.23605 -7.68338 -7.64702 -1.49298 2.60123 -4.30089
1451 -5.25068 -9.01527 -0.801822 0.189687 -1.25915 -2.81094
83 3.69639 -7.74219 -8.47485 -1.32976 1.97644 -0.125768
88 4.57522 -6.92208 -8.53603 0.960352 1.18652 1.07442
131 3.85409 -6.11119 -8.49289 -0.256968 -0.99409 1.79202
87 5.36797 -7.76096 -8.44995 0.553768 0.712334 2.21753
92 6.25558 -7.08975 -8.33123 3.2571 0.305562 1.59659
105 -6.2106 -5.75738 -9.11896 -2.3205 -0.592191 1.56077
883 -2.02146 -9.10919 -3.5946 0.633943 -0.674567 -0.984677
378 6.99747 -7.17598 -7.69452 -0.667477 -0.454796 0.515879
117 -1.42223 -6.14545 -9.20777 0.594451 0.195141 -0.338798
96 7.65607 -7.08258 -8.46308 0.799603 0.617252 0.232205
52 -9.07593 -6.92966 -8.3642 0.135364 0.0649986 -0.845126
95 8.51334 -7.58307 -8.3339 1.93943 -4.84446 -2.96331
143 8.43467 -6.56613 -8.35792 1.43649 0.254393 -1.93447
99 -8.3948 -6.21389 -8.4628 -0.0972293 -2.33667 -0.147749
146 -8.39688 -4.67375 -8.33827 0.855684 0.0751762 -1.75339
1990 -0.770593 -0.850179 -0.161995 -0.856642 -0.98974 -2.77861
103 -6.91224 -6.0118 -8.31839 -0.638329 0.82646 0.690937
3745 -9.09196 -0.0231521 -7.4777 -1.06474 0.128497 0.338575
104 -7.72193 -5.39613 -8.3237 -2.86606 0.601448 -2.02531
151 -6.89882 -4.64092 -8.27186 0.514297 -1.06132 1.29887
441 -5.85594 -4.55513 -7.58613 0.0675872 -0.489487 -0.168329
1886 -3.92457 -3.90059 -0.0867003 -1.85598 -3.54128 2.45879
107 -5.24685 -5.94609 -8.42063 -1.44977 1.69957 -0.228022
108 -6.01257 -5.30546 -8.32667 1.08369 0.963693 -1.92552
875 -5.65558 -9.1726 -3.99971 -0.0731074 -0.63815 0.545407
1453 -4.52706 -9.24724 -1.6427 -0.383001 -1.97573 -2.18605
111 -3.68562 -6.02653 -8.84658 -1.02 0.110022 -1.00797
64 -4.46294 -5.31381 -8.47245 -1.78702 -0.428926 1.20384
1793 -3.04582 -7.88648 -0.131286 -0.739857 -2.3501 0.0690161
3771 0.867034 -0.0959466 -6.84559 -0.0326526 1.54424 1.95822
115 -3.11631 -5.26829 -8.44412 -1.03892 -1.49502 -0.00190757
163 -2.31701 -4.57003 -8.49916 0.0670709 3.36198 -3.66171
402 -2.37391 -5.21696 -7.83564 3.05287 -3.28769 2.55725
119 -0.832737 -6.09312 -8.31383 3.52296 1.36706 -0.620161
120 -1.49988 -5.25406 -8.56051 0.293527 0.0930537 0.0163742
167 -0.803334 -4.40597 -8.56782 3.38836 0.442698 0.274744
406 -0.609055 -5.1193 -7.82942 0.576046 0.0364424 0.916368
3473 -3.16145 -0.0997446 -9.22639 -0.239217 -2.18681 -2.07649
124 0.129617 -5.44117 -8.34254 0.407535 -0.161802 1.20279
457 0.0454394 -4.51631 -7.76949 -0.249554 2.6044 2.21337
250 -5.63225 -0.744812 -9.10308 -1.91521 3.07355 -0.09225
1465 0.13262 -9.01833 -1.64439 -0.127531 0.469438 -2.41859
123 0.549554 -6.25789 -8.41154 -0.477152 2.36925 0.390795
171 0.632685 -4.43236 -8.50482 1.54869 1.52936 1.12892
128 1.57909 -5.11722 -8.47534 0.222344 -1.56004 1.60783
1179 0.805017 -9.15926 -2.45105 0.905716 -1.22972 2.2049
127 2.25384 -6.13905 -8.41386 0.983978 -2.72803 0.0659269
132 3.12194 -5.1849 -8.58424 -1.29556 0.649138 -0.596007
175 2.38641 -4.519 -8.62302 -3.84936 -1.04399 -3.68703
136 4.66544 -5.52887 -8.54187 -0.323201 0.898018 -1.59016
418 3.93501 -5.31664 -7.78121 -0.652068 -0.176779 -1.19582
4357 4.66769 -0.0377793 -4.65228 -0.258684 -0.934316 -1.02832
422 5.50968 -6.08737 -8.53732 0.22099 1.13575 1.886
140 6.0841 -5.43576 -8.40917 1.01091 2.52006 1.59242
183 5.47321 -4.60749 -8.48007 -0.709155 1.95843 3.05753
3487 2.43524 -0.0859036 -8.21272 -0.783077 -0.784295 -2.1371
1159 -7.07345 -8.84465 -2.39173 -1.29642 0.355049 1.15797
4943 9.10504 -0.0482467 -1.33539 -1.59243 0.0517779 0.960073
139 6.9564 -6.243 -8.61978 -2.83493 2.51823 -0.0866548
187 6.7763 -4.55551 -8.36184 -3.92713 0.24497 3.89818
426 7.01954 -5.42121 -7.89844 1.91574 -3.00701 -0.55844
100 9.23509 -5.37736 -8.53714 1.35605 1.53051 4.16808
144 7.8004 -5.60306 -8.57605 0.24217 1.17425 0.39347
385 -9.19648 -6.10437 -7.57698 -2.21304 -2.36042 0.837487
430 8.4271 -5.55044 -7.70018 -1.24019 -1.52378 1.80741
4647 5.48113 -0.225868 -2.35576 -0.807629 -1.76757 0.51522
148 9.18145 -4.00244 -8.50113 -0.434244 1.03308 -0.453681
195 -8.47712 -2.85605 -8.36648 0.578349 -2.06423 1.18161
238 8.41445 -2.32634 -9.19188 -0.520522 -0.256728 1.34819
434 -8.5476 -4.03585 -7.40368 -2.27803 -0.326327 -2.18144
1193 5.28254 -9.08097 -2.15759 1.348 -0.917887 -3.05948
150 -7.77957 -3.6744 -8.17916 -0.354086 0.296415 -0.124192
199 -6.81506 -3.17688 -8.31472 -0.571612 -0.969881 2.42297
485 -7.83601 -3.03048 -7.51608 1.56395 -0.326526 0.861884
155 -5.21343 -4.63507 -8.42256 -1.68243 -0.117452 0.0714924
6 -6.95708 -8.62857 -9.21293 2.00604 0.257104 -3.11649
438 -5.75167 -3.69908 -8.4101 1.56457 2.15968 -1.23057
1165 -4.62648 -9.09105 -3.06025 0.0479689 2.63315 -2.02085
159 -3.84817 -4.53415 -8.45103 0.527331 -1.64067 -2.5419
160 -4.43495 -3.75915 -8.59083 1.39705 0.0952329 1.58544
207 -3.83388 -2.98223 -8.62417 -2.06847 0.952428 1.78013
4651 6.9661 -0.0822032 -2.24403 0.362001 -0.296473 1.29844
164 -3.11164 -3.60737 -8.71256 -2.12294 1.32344 0.524888
211 -2.28194 -2.87652 -8.64201 2.08506 -0.675663 0.071109
1189 4.63553 -9.1576 -3.0158 -0.893404 1.35714 1.09602
168 -1.57382 -3.6562 -8.56819 -2.40598 1.66719 2.34187
98 -8.29906 -5.42347 -9.15727 1.43342 1.51149 1.01103
453 -1.61754 -4.64766 -7.80719 3.2251 -0.560948 0.853432
1902 2.41231 -3.90093 -0.183919 -1.88282 -0.524643 1.83426
3755 -5.36368 -0.281704 -6.97068 -2.3084 -3.20738 1.22283
454 -0.914648 -3.83491 -7.75834 0.79552 -1.99254 0.267142
172 -0.0136777 -3.63085 -8.59313 -1.17075 1.57423 0.561552
4039 -6.90083 -0.194302 -5.39915 0.401682 1.56521 0.438153
215 -0.840272 -3.09919 -8.45281 -0.9067 1.13022 3.81858
176 1.64294 -3.60635 -8.43047 0.489579 -1.36675 1.4852
1882 -5.43687 -4.15887 -0.0238747 0.0422037 -0.873209 -2.39166
1471 2.2637 -9.21144 -0.759754 1.35067 -0.105695 2.70162
180 3.38103 -3.81337 -8.51046 0.52863 -0.061304 0.938519
223 2.34893 -2.99784 -8.39318 0.39349 -0.575337 -0.720704
462 2.36309 -3.88031 -7.95873 0.907274 1.1854 -1.07456
4625 -2.94922 -0.170491 -3.07952 -1.57444 -2.72705 -0.818665
1794 -2.40456 -6.94429 -0.102023 -3.1823 1.43079 0.0261401
277 4.66152 -1.5396 -9.0608 -1.3106 3.01261 -0.367739
179 4.07011 -4.52881 -8.55417 -1.41817 0.438462 0.916964
184 4.70052 -3.70855 -8.43256 0.0525581 0.253225 -2.76517
4033 9.213 -0.10824 -5.97934 1.78245 0.838202 0.100204
1841 -3.10066 -6.17095 -0.208513 1.79451 -1.4017 -1.31007
188 6.9765 -3.92784 -9.14227 0.285807 -0.851898 1.63072
518 5.51478 -3.25458 -8.22829 -2.00388 0.463487 1.5189
231 6.11406 -3.91539 -8.58092 0.025758 -1.81698 0.0867869
1173 -1.25001 -9.02352 -2.97038 1.85107 0.850166 -0.609179
1485 7.51926 -9.20172 -1.66482 0.725594 -0.568287 1.67952
192 7.65524 -3.85718 -8.30536 -2.99183 -1.41879 0.715852
474 6.96776 -3.83489 -7.60458 -0.684272 -3.58738 1.99749
97 9.06972 -6.168 -9.1025 -0.017491 -1.62657 2.33234
191 8.59934 -4.72092 -8.41246 -3.35506 -2.15873 3.49149
433 9.23581 -4.66766 -7.70542 2.53962 -0.580883 -0.877895
113 -2.55764 -6.08212 -8.7309 1.85107 -3.59934 2.3027
196 -9.18732 -2.29112 -8.41162 0.0214953 -2.80061 -0.00439165
243 -8.36813 -1.6512 -8.50057 -0.360455 -0.449438 0.460352
482 -8.4733 -2.09054 -7.48168 -0.885806 1.41937 0.732647
529 9.08811 -1.63161 -7.6616 1.15194 1.4494 -0.574798
4609 -9.18435 -0.16552 -3.06514 0.0810436 -0.869895 3.07371
200 -7.53451 -2.28216 -8.50537 -0.787873 1.66786 -3.17504
486 -6.91121 -2.46767 -7.58587 -0.13649 0.824863 0.603561
203 -5.03076 -2.95745 -8.53054 -1.51956 -0.272597 1.57784
204 -5.85601 -2.49858 -8.40251 1.68971 -4.38297 0.667163
4323 -8.27791 -0.190366 -3.97175 0.490148 -0.0614476 3.05225
121 -0.202883 -6.05069 -9.12552 0.397889 0.167726 -0.0267796
208 -4.70918 -2.0685 -8.5828 -0.516244 -1.38236 0.536929
317 1.52421 -9.07161 -7.51864 -3.92176 0.699722 0.341317
101 -7.60262 -6.11798 -8.99684 -0.184002 0.570217 -1.18219
212 -2.96818 -2.27423 -8.62899 0.26831 3.11573 -3.24309
259 -2.30773 -1.56078 -8.57432 -0.498302 -0.716682 -0.208158
498 -2.17641 -2.35592 -7.7492 0.678361 -1.57128 0.402242
1790 -3.7611 -6.80785 -0.0275173 0.131682 -0.867941 1.77526
3781 4.53935 -0.0871797 -7.73488 0.219823 -3.0773 2.65867
216 -1.63713 -2.15335 -8.55576 0.977297 2.33448 -0.724338
263 -0.727397 -1.55165 -8.29854 0.826703 0.198193 -0.718446
502 -0.684268 -2.44852 -7.75222 -0.521029 -1.87225 -2.95483
193 -9.08534 -3.09908 -9.05729 -2.77638 1.19983 -0.868051
4915 -2.11008 -0.178711 -0.623919 -0.883872 -0.244 1.11263
219 0.788462 -2.88413 -8.46748 -0.447798 -0.844421 -1.90639
220 -0.0960671 -2.20334 -8.52535 -4.62151 1.01122 1.26292
505 0.13101 -2.96661 -7.74814 -0.72268 0.0710512 2.14149
224 1.62193 -2.18673 -8.65453 -0.340569 1.8431 0.209991
1463 -0.528842 -9.21986 -0.75129 0.277473 -1.26722 -0.569741
42 6.82934 -8.63578 -9.21183 4.07792 1.88055 -0.506237
228 3.22186 -2.20249 -8.51124 -1.56725 2.10591 0.125391
311 -0.695045 -9.03951 -7.15996 1.6669 -1.80716 -0.631025
227 4.0416 -2.92746 -8.57406 0.59012 1.27468 0.242135
232 4.99592 -2.41191 -8.53266 -2.15932 2.18171 -2.21256
280 3.92657 -1.55373 -8.43141 -0.239427 2.94596 -2.12328
563 4.72379 -1.58419 -7.75391 1.18174 -0.368197 -0.944042
3779 3.83265 -0.20897 -6.79614 -1.38602 -2.61384 1.92773
236 6.21176 -2.16041 -8.53675 2.48861 0.32405 -0.840887
279 5.47929 -1.4588 -8.49506 -1.66001 2.71892 -0.371722
1183 2.47847 -9.14183 -2.36858 1.33012 1.71347 -0.929058
246 -6.58717 -0.579814 -8.74922 0.871208 0.47752 0.95133
235 6.96765 -3.11223 -8.65173 -0.741619 -2.72059 -1.69085
240 7.64082 -2.2867 -8.47624 0.615974 3.29257 -1.22566
3499 6.92088 -0.0935246 -8.43773 -1.13043 -0.60361 2.60617
1778 -8.35584 -7.07369 -0.118184 -0.529314 1.30332 1.38878
239 8.46889 -3.27182 -8.53572 -1.23135 -2.05956 -0.135763
287 8.40332 -1.50758 -8.44787 -0.139325 0.905412 0.965774
39 5.57762 -9.17889 -8.51834 -0.0796958 0.048599 1.04028
897 3.12903 -9.1773 -4.87782 -4.0299 1.41805 0.324186
530 -8.632 -1.05868 -7.52003 -0.554648 -0.313805 -0.108407
247 -6.70962 -1.75699 -8.2769 -0.0913445 2.30101 0.553122
248 -7.76116 -0.850599 -8.06238 -0.6154 3.22263 -1.77474
1914 6.7971 -4.00995 -0.127648 -5.04357 0.544153 -1.78151
3773 1.47141 -0.248756 -7.61206 -3.5919 0.551162 0.763082
251 -5.26627 -2.42883 -7.57755 -1.03755 -1.76388 1.22779
252 -5.40565 -1.52792 -8.39025 0.489547 2.92282 -1.04548
607 2.1913 -9.18202 -5.53731 0.0473933 -0.709489 2.20554
102 -6.87986 -5.1666 -9.04963 -2.65767 -1.2562 -1.68827
4043 -5.36079 -0.123824 -5.41492 -2.29149 -3.11056 -0.819502
255 -3.93517 -1.45991 -8.47953 -0.483916 -0.598957 0.843068
256 -4.62824 -0.705941 -8.42418 1.50694 -0.552868 1.35031
260 -3.20636 -0.909257 -8.5555 0.043201 1.69139 0.683359
58 -5.67146 -6.5252 -9.0776 -2.12859 0.390082 -4.2751
546 -2.38287 -0.615358 -8.04374 -2.60375 2.28891 -1.18806
1950 2.52639 -2.24833 -0.0509098 1.65006 -0.787511 2.39562
264 -1.51995 -0.658948 -8.39658 -0.364686 1.13336 -2.00569
550 -0.782625 -0.732954 -7.79458 -4.74952 0.738734 -0.815709
549 -1.67558 -1.48735 -7.80738 -0.0158965 -0.115795 -1.21129
291 -8.54227 -9.18688 -6.98511 1.6369 -1.09868 -0.0808301
1684 8.29719 -0.0596739 -0.646389 -1.02892 -1.65347 -0.542915
4921 -0.230938 -0.102244 -1.45467 -2.57208 -1.11132 3.15365
89 6.11817 -7.78642 -9.14585 0.391275 -0.762698 -1.36749
268 -0.0671542 -0.842059 -8.41948 0.38226 1.2184 0.582344
554 0.655923 -0.936229 -7.65838 -0.283475 -0.484168 0.382526
1850 0.825176 -5.30192 -0.201675 0.464521 0.737541 1.11537
267 0.688621 -1.65245 -8.42814 2.24756 -0.860003 1.72733
272 1.63226 -0.646411 -8.57317 -0.161966 2.61151 0.0215674
61 -4.01272 -8.27402 -9.18283 0.87457 0.985122 -0.802269
271 2.30953 -1.45925 -8.58675 0.598971 -0.359449 -1.14647
276 2.98969 -0.812373 -8.58509 2.97161 0.186969 0.835576
4329 -6.3874 -0.253036 -4.46333 0.828475 -0.830698 -0.383008
1801 0.141219 -7.73769 -0.0800369 -0.0697925 -1.00747 -0.632573
566 4.57094 -0.787568 -8.48052 -0.845585 1.79319 -2.16644
284 6.25646 -0.76478 -8.18986 -1.69844 -0.827808 -0.431129
569 6.18412 -1.55947 -7.58327 -1.1297 -0.811263 -2.68259
1973 -7.69413 -1.3028 -0.0906403 -0.986148 1.15986 0.0722551
589 -4.48348 -9.1602 -6.08757 -1.01917 -1.13482 2.51104
604 0.047988 -9.11549 -4.50734 1.50976 2.49811 -1.80276
3497 6.24544 -0.153307 -9.09217 -2.60216 3.15822 0.108518
283 7.08135 -1.30692 -8.34684 -4.30002 -1.53268 -0.939767
288 7.82271 -0.722789 -8.45563 0.403844 -1.59048 -0.0261223
570 6.99945 -0.743137 -7.41868 -1.96867 0.113472 2.37018
198 -6.73367 -2.37163 -9.0892 -2.85276 -2.1715 1.68682
1874 -8.27586 -3.82673 -0.0738337 2.14742 -0.047898 -0.658999
244 9.19163 -0.862866 -8.25676 -1.28772 -0.0120181 -0.461619
1765 4.72689 -9.05604 -0.0381443 -0.799997 2.15551 1.58193
609 3.07112 -9.10015 -6.1348 -2.28292 -1.23839 -1.76638
1479 5.43784 -9.16494 -0.949907 0.332921 -0.968348 -1.16446
578 -8.54142 -8.45127 -6.29473 -0.131201 0.622274 1.47928
292 -9.17779 -8.52477 -7.00413 1.47318 0.477263 0.784856
1982 -3.77395 -0.931603 -0.0493676 -0.833187 0.904325 0.967889
265 0.00306383 -1.41806 -9.15904 -0.502554 -4.05602 -1.31667
296 -7.72298 -8.46518 -6.98336 -0.108189 -0.746082 0.81744
343 -6.826 -7.59416 -6.82138 -1.24135 -1.46543 -0.387568
1742 -3.83396 -8.6512 -0.0432964 -0.932493 0.657544 1.38637
345 -6.26575 -7.68207 -7.64246 -0.851282 0.237741 2.11619
300 -6.19303 -8.58442 -6.85117 -0.355355 3.77302 -0.210363
586 -5.43893 -8.61887 -6.17834 0.0758199 -2.67177 -1.47383
347 -5.4255 -7.82339 -6.84661 -1.48354 1.15226 0.431538
302 -3.92677 -8.36543 -7.98329 -0.568155 -0.973515 -1.15046
304 -4.85418 -8.56766 -6.90868 -1.36025 -0.109339 0.615467
590 -3.74936 -8.53118 -6.18437 -0.966363 -2.48479 1.42689
351 -3.85393 -7.63266 -6.78977 3.38252 0.567645 1.82591
639 -4.59538 -7.62506 -6.22022 -1.93911 -3.12194 2.72053
1177 0.0526502 -9.12452 -3.05402 0.842854 1.34793 1.95309
156 -6.92145 -3.92914 -9.02853 1.34728 0.551764 2.53765
308 -3.06952 -8.31175 -6.89674 1.75244 -0.195048 -1.91269
1845 -1.70254 -6.01975 -0.166948 -0.939963 -0.557924 1.36042
1726 8.58215 -0.909873 -1.32394 0.539232 2.90137 1.46864
312 -1.50035 -8.57739 -6.72727 2.3193 0.893052 -1.13923
594 -2.16917 -8.21401 -6.16847 -0.151618 -0.361456 -2.99104
4067 3.82872 -0.0383214 -5.33505 -2.79619 0.337266 -4.10543
316 0.0489164 -8.39642 -7.05275 3.1638 -2.242 0.818808
602 0.515916 -8.53308 -6.21978 -3.36093 -0.889284 -0.0432333
363 -0.0689025 -7.53919 -6.11427 -1.07997 0.665167 -0.880119
1869 7.71709 -6.28625 -0.0583971 -1.88474 2.52953 -1.40499
27 0.938548 -9.06646 -8.46078 0.35776 -0.905951 0.657402
1878 -7.06442 -3.75914 -0.0754737 -1.78655 -1.04594 -0.214357
320 1.39009 -8.31679 -6.70396 0.716876 0.704257 1.87898
653 1.76155 -7.50008 -6.24141 1.16531 -0.55368 3.00792
324 3.09149 -8.3996 -6.89466 -0.254531 -0.863953 2.50939
606 2.2489 -8.4571 -6.09045 0.23413 -2.55672 0.0667509
1473 3.7575 -9.19033 -0.859754 -1.38341 -0.37461 -2.32016
1909 4.44902 -4.57648 -0.154848 -0.267512 0.984273 -1.94003
328 4.54962 -8.59419 -6.87417 -1.65744 1.36411 0.20707
373 4.52952 -7.7217 -7.79248 -0.0781166 -2.86867 0.958204
371 3.90387 -7.63466 -6.96731 -0.823744 4.60584 1.0543
326 5.40466 -8.41809 -7.69998 -0.112773 5.47064 -0.665214
1770 6.92454 -8.50275 -0.0577517 1.37419 2.35686 0.497705
332 6.27397 -8.45142 -7.02693 0.171614 -2.19089 -1.00233
1934 -3.8104 -2.26904 -0.0508092 -2.20709 0.986563 0.0723063
336 7.67347 -8.74531 -6.94066 -3.06812 1.93124 2.55337
4367 8.56478 -0.0767492 -3.74425 1.13432 -0.674159 3.57621
35 3.59383 -9.11492 -8.65908 -0.172586 0.0305295 -0.187518
197 -7.50179 -3.16997 -8.97913 0.50876 -1.57778 -2.21168
383 8.47139 -7.98237 -6.98553 2.07794 -0.988687 0.000600453
622 8.66276 -8.69458 -6.23162 0.349939 -0.426345 1.42859
339 -8.45575 -7.79649 -6.9639 -0.95938 -3.04255 -1.8676
387 -8.48396 -5.99578 -6.87059 -2.06796 0.34445 -1.56642
673 -9.08919 -6.17872 -6.11226 0.817999 -0.437571 0.408255
625 -9.23497 -7.84181 -6.22192 -3.192 -0.828802 -1.50584
342 -7.01151 -6.95791 -7.58646 -1.16781 -1.29754 -2.08517
344 -7.72402 -6.73153 -6.91616 1.92209 -1.46661 -1.44483
677 -7.7377 -6.04571 -6.16479 -4.11088 1.52621 -2.42719
391 -6.74445 -5.97508 -6.86813 0.00250071 2.25687 1.40979
346 -5.23077 -7.02581 -7.85597 -2.22085 -0.0987409 -1.59587
348 -6.00928 -7.00052 -7.0684 0.147936 2.69295 0.301791
395 -5.49395 -6.01941 -6.83962 -0.957681 0.61734 -3.7922
637 -5.41973 -6.87924 -6.18491 -0.108798 1.31104 0.656428
352 -3.86502 -6.99479 -7.61036 0.512746 2.23693 3.48534
634 -4.49989 -6.74903 -6.85633 -1.56757 -0.806538 1.29853
397 -4.54077 -6.18411 -7.67872 0.307092 -0.12946 0.261611
399 -3.73278 -6.15999 -6.80896 -0.436122 -0.364999 0.380984
355 -2.2793 -7.64557 -7.01573 2.19468 -0.410339 -3.27228
354 -2.32563 -6.94966 -7.95027 -2.38243 -1.62694 1.02477
356 -3.09779 -7.00587 -6.93418 1.31459 -0.634295 1.46874
403 -2.3144 -6.28145 -7.06455 2.3483 0.800121 1.4136
359 -0.934044 -7.71121 -6.89055 -1.23017 -3.11352 0.709619
360 -1.60676 -7.04489 -7.06793 2.07999 -1.12444 1.7969
405 -1.85766 -5.97109 -7.95978 0.431888 0.637883 -3.61145
645 -1.44764 -7.64156 -5.88714 1.85767 0.236051 3.88392
646 -0.845648 -6.8946 -6.10107 -0.820264 -0.437333 -0.604403
693 -1.54225 -5.97305 -6.36209 -1.25492 0.902679 0.207397
361 -0.0869107 -7.58048 -7.49775 2.68561 -1.30507 2.23501
364 -0.11081 -6.77715 -6.92262 -0.167043 1.74997 -3.04912
362 0.778232 -6.8705 -7.49462 1.6585 4.3666 2.6688
314 0.644556 -7.59402 -6.75648 -1.43075 -2.91025 -1.19032
650 0.774224 -6.73367 -6.22301 -0.677112 0.655471 -2.66324
411 0.776923 -5.92104 -6.97706 -1.98876 2.01531 -1.41689
365 1.53936 -7.57542 -7.4336 -0.521994 -2.69659 0.856722
368 1.50814 -6.67515 -6.91424 -0.363771 -2.38962 3.62269
366 2.18908 -6.79175 -7.62053 2.99983 1.46934 -1.17876
654 2.52361 -7.59247 -6.9378 -0.552383 -1.0231 -0.454982
372 3.02682 -6.58058 -6.93299 -0.504197 0.447098 2.79719
415 2.34598 -5.87947 -6.88834 -0.335638 1.39819 0.0402319
703 2.41449 -6.67724 -6.15668 -1.06427 -2.16528 -0.279735
705 3.30397 -5.96358 -6.17873 0.697353 -1.32267 2.26989
370 3.92936 -6.83457 -7.85416 -1.41216 -2.02909 -0.654223
376 4.72653 -6.91472 -7.06229 0.270513 0.394108 0.363536
419 3.87589 -6.09984 -7.01019 0.753599 1.95528 -4.18049
374 5.38107 -6.92394 -7.9288 -0.940488 1.74377 -4.33905
425 6.18127 -6.21302 -7.73486 0.770108 -1.67342 -4.2226
375 5.30133 -7.75438 -6.95827 -1.47551 2.17933 1.47878
377 6.03877 -7.60637 -7.55038 -1.68199 -1.69323 -0.398774
380 6.19751 -6.84369 -6.99871 -0.057329 -2.32039 -1.11375
423 5.35017 -6.02989 -6.9267 -2.35712 -0.178179 -1.31829
713 6.11049 -6.20815 -6.16149 0.675351 2.23088 0.216063
381 7.91344 -7.78699 -7.69863 0.851484 2.92446 -0.24395
379 6.73954 -7.63184 -6.91538 3.14458 -0.404801 -2.62132
669 7.62914 -7.86676 -6.28372 0.779677 0.216747 1.00468
427 7.0241 -6.17665 -6.74477 0.186109 0.384353 1.29433
382 8.48001 -6.95764 -7.42672 -2.81538 0.675229 1.44556
340 -9.13571 -6.99834 -6.78272 -1.37872 -0.481824 0.111289
384 7.57561 -7.03596 -6.80392 0.505064 -0.849145 0.440181
670 8.38785 -6.9509 -6.20465 -0.0461909 -1.76909 -0.235347
386 -8.43642 -5.42084 -7.62557 -1.29773 -1.2011 -3.34199
674 -8.64578 -5.34728 -5.89788 -1.08406 0.599111 1.2161
435 -8.66976 -4.80855 -6.77974 -0.0707803 0.430206 2.82684
388 9.1462 -5.4371 -7.0011 0.273287 -2.32943 -0.724946
390 -6.6882 -5.38567 -7.65153 0.671781 0.722983 0.694532
437 -7.73373 -4.59296 -7.4713 0.633489 -1.85037 -1.82957
392 -7.55594 -5.45189 -6.92282 -0.73056 -2.58437 -0.122026
439 -6.77328 -4.44268 -6.74791 1.56344 3.22733 -2.19252
394 -5.03698 -5.31956 -7.73243 -2.82821 -1.26312 -3.1039
393 -5.91672 -6.12387 -7.70789 -2.03346 3.41446 -0.495735
396 -6.18757 -5.20594 -6.89381 -1.91675 -0.911892 2.26888
443 -5.2213 -4.50413 -6.83204 0.225319 -0.820266 0.0384727
112 -4.41871 -4.61809 -7.73351 0.434771 -1.15737 -0.696653
398 -3.69237 -5.31429 -7.58689 1.38263 -0.325387 -1.30828
400 -4.47855 -5.32859 -6.75579 -0.534307 -1.32994 -3.05373
401 -3.15357 -6.17339 -7.63718 1.01014 -2.85062 2.08198
404 -2.86305 -5.55814 -6.78875 -1.35421 -2.31313 0.556189
690 -2.18929 -5.11306 -6.25049 -0.622399 -0.141553 0.760607
407 -0.835173 -5.92432 -7.03613 3.19223 -1.6365 -0.471855
408 -1.50078 -5.16332 -6.92748 -0.806983 -1.23808 -3.92649
409 0.0320129 -5.94088 -7.58554 1.75307 -0.514061 -1.25005
412 -0.0169154 -5.23825 -6.98373 -0.378659 0.085283 0.716647
410 0.799983 -5.1576 -7.71689 0.859685 -0.738648 0.562187
461 1.54155 -4.44608 -7.73401 0.576318 -1.35988 3.35983
459 0.638657 -4.48082 -7.00311 -2.95285 -1.968 -1.41765
413 1.32285 -5.98301 -8.00329 0.251852 -3.04285 0.577244
416 1.58248 -5.22041 -7.00444 0.275767 -0.439021 0.544167
463 2.15266 -4.40647 -6.90248 0.133029 -1.69892 -1.24572
414 2.39257 -5.07064 -7.70131 1.74749 -0.584058 -0.356733
465 3.30459 -4.42735 -7.78911 -1.22152 0.56464 2.77056
420 3.02277 -5.14755 -6.98796 0.502157 0.304912 0.780018
421 4.80718 -6.16054 -7.80838 2.10102 0.0268697 -0.638279
469 4.62675 -4.44916 -7.62743 0.063847 0.508581 -0.589683
424 4.60906 -5.34352 -7.06517 -1.49763 -0.253713 0.78886
467 3.78079 -4.4523 -6.99597 -0.895332 -1.91678 0.18678
473 5.4377 -5.22626 -7.57637 -0.438675 -2.72214 -0.957544
470 5.79146 -4.22321 -7.68851 -0.333323 0.19347 1.75452
428 6.18545 -5.26901 -6.864 -1.73205 -0.0333624 -0.27453
471 5.31229 -4.52612 -6.89699 -1.69991 -1.8797 -0.126677
761 5.96075 -4.54543 -6.06634 2.04526 0.509707 0.744081
429 7.64301 -6.27387 -7.8104 1.69474 -1.09252 -0.528183
475 6.97747 -4.68838 -7.05815 -0.45165 0.203433 -1.93246
717 7.76872 -6.21025 -6.13845 -2.22399 -2.06692 1.04776
714 6.8101 -5.22353 -6.18073 -1.82839 -0.0366263 3.7661
432 7.70071 -5.35061 -6.75737 -0.502922 0.855551 -2.16816
431 8.52607 -6.15681 -6.85618 0.190506 1.00352 -1.29785
718 8.60286 -5.39683 -6.05814 -1.46304 -1.12778 0.366047
479 8.40577 -4.53483 -6.74882 0.802083 -1.56181 -0.680648
722 -8.51477 -4.08909 -6.08959 0.687978 3.44105 -1.66014
440 -7.68566 -3.87382 -6.69877 0.726205 -0.508804 -0.932032
436 9.21438 -3.91493 -6.78803 0.460107 -3.37126 0.0265569
152 -6.9875 -3.78134 -7.43139 0.988314 0.735048 -0.750707
487 -7.03452 -2.97449 -6.72105 -1.86258 -0.436181 1.73542
442 -5.18642 -3.64726 -7.6924 0.273564 0.315386 -0.407993
444 -6.08074 -3.60604 -6.68544 -1.37722 -0.164244 -1.37891
730 -5.01514 -3.94891 -6.04522 0.991916 -1.52484 -2.66521
446 -3.76541 -3.77923 -7.81049 -2.38988 1.84612 -0.0844914
448 -3.77245 -4.70257 -6.80259 1.95397 0.347014 0.228068
445 -4.32948 -3.85075 -6.90347 1.19984 -1.25008 0.319771
451 -2.39355 -4.59745 -7.09095 1.49112 0.567385 -2.14403
449 -3.05637 -4.52076 -7.79263 -0.365717 2.50933 1.07857
450 -2.39536 -3.66719 -7.61431 -0.0743563 0.690098 -2.81328
452 -3.23681 -3.69471 -6.99554 0.272266 -2.54028 4.29588
501 -1.48036 -2.97785 -7.60197 2.52293 -0.793851 -1.32284
456 -1.57402 -3.83015 -7.00741 -0.425986 0.512315 1.57291
455 -0.725272 -4.52061 -7.01299 0.016229 2.89539 1.34958
742 -0.814507 -3.85941 -6.20809 -0.939366 -0.728552 0.819493
460 0.0840653 -3.77756 -7.19556 -3.14648 2.41128 1.91575
458 0.812797 -3.61523 -7.89841 1.19379 -0.598116 1.12531
746 1.63936 -3.61621 -6.97887 1.4151 -1.98741 3.04631
468 3.05973 -3.60894 -7.11359 0.74958 -1.79049 0.43934
801 3.05742 -2.96323 -6.04968 1.50875 3.15617 0.741578
753 2.96999 -4.43796 -6.2509 2.30873 -0.366667 -1.88993
517 4.75196 -2.89658 -7.68642 -0.355054 -1.37815 1.22897
466 4.02614 -3.60114 -7.72762 0.107169 0.89433 -1.63367
472 4.67298 -3.79124 -6.72551 1.64269 2.95034 1.97972
515 3.94386 -3.06261 -6.83949 -2.74044 -1.84522 -1.37322
754 3.84294 -3.82324 -6.17875 -0.417351 1.07244 -1.92976
805 4.61855 -3.08083 -6.0528 1.72943 2.51021 0.4733
476 6.33242 -3.87899 -6.78529 1.75658 0.584421 -0.999379
521 6.40607 -3.09131 -7.94123 -2.06187 -0.195161 1.23167
758 5.26449 -3.84967 -6.011 -1.44894 -1.4064 4.34013
765 7.60329 -4.57721 -6.07304 3.77076 0.59544 -0.918285
477 7.83367 -4.81585 -7.6954 0.464794 2.47152 1.07999
480 7.63733 -3.84132 -6.9113 1.15561 0.833284 1.65343
762 6.96876 -3.7011 -6.0546 0.339746 0.738406 2.96492
478 8.4522 -3.67596 -7.6225 -2.85562 -0.326052 1.36829
766 8.43371 -3.88111 -5.88008 1.94427 3.25436 2.2915
481 -9.07488 -3.29749 -7.73828 0.668411 -2.01259 1.83539
483 -8.57047 -3.17384 -6.76787 -0.439821 1.49576 0.570016
531 -8.54364 -1.59503 -6.60756 0.32646 -0.409466 -0.140587
484 -9.14323 -2.42717 -6.85559 1.1419 -0.179332 -0.864325
533 -7.55119 -1.64484 -7.38921 0.95744 1.92061 -0.122163
488 -7.88391 -2.39356 -6.78495 0.2917 0.585473 0.336848
535 -6.83968 -1.76432 -6.71387 3.55079 1.72617 -0.293747
489 -6.06892 -3.0062 -7.59363 1.3344 -4.54874 0.109175
492 -6.0929 -2.44636 -6.92933 0.794986 -2.29172 0.962043
491 -5.19394 -3.06863 -6.76753 -0.20799 1.67855 0.842769
537 -5.97539 -1.64937 -7.53828 1.90614 2.54691 1.99596
490 -4.57298 -1.56065 -7.70047 2.34474 -2.73087 5.41441
495 -3.82422 -2.89199 -7.00082 -1.25115 -1.26335 -0.265549
493 -4.49063 -3.0253 -7.843 -0.602238 0.126965 -2.3256
494 -3.83487 -2.19665 -7.90732 -1.97398 -0.332584 2.35694
496 -4.6041 -2.23625 -6.86871 2.45212 0.795036 0.352576
543 -3.74337 -1.69989 -7.08882 -1.47723 0.727219 -0.711958
781 -4.40869 -3.07354 -6.05586 0.946296 -3.66195 1.89107
782 -3.59094 -2.17135 -6.22232 -1.86909 3.06173 0.669091
497 -3.0322 -3.01155 -7.77173 -0.177054 -1.37373 0.857069
499 -2.12756 -2.92019 -6.75659 1.07498 -1.4903 -4.01488
500 -2.9493 -2.31492 -7.02279 3.70718 0.788061 -2.53811
547 -2.39605 -1.59353 -6.8851 2.14731 1.38718 0.835877