ITEM: TIMESTEP
153000
ITEM: NUMBER OF ATOMS
6912
ITEM: BOX BOUNDS pp pp pp
-9.2265715179435492e+00 9.2265715179435492e+00
-9.2265715179435492e+00 9.2265715179435492e+00
-9.2265715179435492e+00 9.2265715179435492e+00
ITEM: ATOMS id x y z vx vy vz
897 3.34386 -8.97719 -4.67284 0.668761 0.316142 1.14296
290 -8.26903 -8.74336 -7.55832 0.431101 -0.99972 0.268307
9 -5.87917 -8.98285 -9.11885 -1.64338 0.237957 0.906614
8 -7.71861 -8.45237 -8.36523 -3.04707 -0.353055 0.776501
55 -6.9144 -7.53368 -8.34916 1.78915 -1.90162 -0.237662
4353 3.262 -0.0905698 -4.57779 -2.62132 2.64226 1.87782
241 9.20936 -1.73656 -8.99796 0.208098 0.302549 0.664805
865 -9.14857 -9.16511 -4.32171 -1.41581 -3.26808 -2.68185
12 -6.1891 -8.37067 -8.41015 -1.70902 1.3161 -2.85448
298 -5.47716 -8.42952 -7.50609 0.926171 2.13571 -1.69429
345 -6.13461 -7.64454 -7.70665 -3.23666 -0.563565 -1.58411
3771 1.05182 -0.0257522 -6.96529 0.77642 0.0889385 0.444088
4345 -0.119284 -0.0213517 -4.67754 -0.317741 0.789666 -1.94573
16 -4.57589 -8.51599 -8.08741 0.839959 -0.405751 -1.21587
63 -3.89078 -7.89319 -8.46061 0.619914 2.42435 0.0391342
302 -3.67792 -8.51007 -7.58575 0.984947 1.37958 -2.44682
3745 9.21788 -0.0719361 -7.82707 0.573876 -1.3828 -0.369417
20 -2.85084 -8.61374 -8.16977 0.249706 0.929404 -0.0347955
67 -2.13947 -7.83971 -8.31812 -0.124347 3.0803 1.59197
1463 -0.778709 -8.985 -0.73689 -0.391824 -2.97496 0.136177
353 -3.09361 -7.73491 -7.85208 -1.82666 -1.59491 0.486287
3467 -6.36309 -0.136739 -9.13692 0.176493 -2.2091 -1.23785
24 -1.53459 -8.66488 -8.23502 2.12036 0.074546 -1.08254
357 -1.48215 -7.84483 -7.60889 -0.171654 -1.10222 0.349477
310 -0.727116 -8.56146 -7.57373 3.6444 0.516183 -2.40231
26 -0.0969067 -8.55071 -8.43385 1.45598 -0.314517 -1.24505
65 -3.06729 -7.72171 -8.87186 0.0415349 -1.9585 -0.700635
3481 -0.228367 -0.115864 -9.10081 2.27536 0.281434 -0.859244
1457 -3.12792 -9.20172 -1.51413 1.59691 0.0121748 2.9682
367 1.35767 -8.33566 -8.54554 1.21542 1.78838 -3.39745
116 -3.87819 -5.53369 -9.22384 0.8148 0.876812 0.928274
265 0.0662588 -1.69958 -9.19222 0.607332 -0.560792 -1.66283
4613 -7.69813 -0.125863 -3.19683 -1.18484 1.18877 -0.0720582
28 0.687192 -8.2463 -7.87279 2.40288 -0.817963 -2.84555
269 1.47259 -1.56994 -9.01227 -4.42348 0.0307355 -2.34285
36 3.21609 -8.40655 -8.57153 -2.79484 -1.55762 0.237194
40 4.71061 -8.51382 -8.52257 -0.62461 -0.905604 -0.762775
322 3.9739 -8.44893 -7.81705 1.15744 1.08357 3.59374
1993 0.0522026 -1.56798 -0.0254096 -0.660332 0.815242 4.0597
44 6.06439 -8.3617 -8.67447 -1.6553 -1.41575 2.05022
87 5.43103 -7.70512 -8.75156 -0.217656 2.11317 -1.81101
4621 -4.61173 -0.118343 -3.05345 -0.322777 -0.88926 0.505295
321 3.07629 -9.1705 -7.748 -2.90107 -0.852825 0.717645
330 6.90162 -8.67488 -7.5647 -0.193719 -0.463694 -3.38981
4335 -3.85933 -0.0472913 -3.97965 -2.17993 1.55275 1.02374
48 7.52581 -8.33565 -8.29695 0.821475 -1.88197 -1.05389
4 9.00876 -8.16292 -8.53288 -0.396336 2.43427 4.48907
4333 -4.69474 -0.110869 -4.6172 -2.37627 2.38861 -0.124174
4365 8.57899 -0.0235732 -5.50522 0.984924 1.15713 -1.66041
334 8.33973 -8.52455 -7.69441 3.91463 -0.704099 0.747065
4933 4.73041 -0.257534 -1.50288 1.45334 -1.43898 1.03558
51 -8.59189 -7.95066 -8.16938 -1.29732 0.203639 0.966264
56 -7.60845 -6.80042 -8.44571 2.94792 -0.54663 -0.0952592
52 8.9887 -6.77555 -8.39377 0.562722 2.7237 2.09353
99 -8.34276 -6.22475 -8.39525 -0.52701 1.07167 1.69639
3996 -5.40719 -9.08917 -6.68863 0.631922 -1.91375 3.00838
59 -5.3569 -7.72542 -8.19126 -0.682615 0.193026 1.8883
60 -6.06276 -6.85295 -8.32766 -0.454421 0.907854 0.26578
107 -5.24101 -6.26985 -8.43669 -0.574838 0.473485 1.52922
346 -5.41508 -6.86738 -7.5631 0.87085 -1.36094 2.12204
350 -4.57465 -6.91312 -8.36544 2.32626 0.804027 -2.35965
397 -4.58 -6.14793 -7.73024 -0.292141 0.123509 -1.46165
891 0.82051 -9.22808 -3.84032 0.126019 -0.812882 1.26452
68 -3.05222 -6.86245 -8.51173 1.79618 2.28424 0.990474
354 -2.25557 -7.06503 -7.63227 -1.95041 3.45586 0.0597468
113 -2.06721 -6.21086 -8.48795 -0.206268 0.370276 0.652585
71 -0.972971 -7.77293 -8.53253 0.384334 -2.06659 -0.216746
69 -1.53146 -6.99271 -8.40539 -1.7382 -2.73865 0.8639
76 -0.103844 -6.95537 -8.51548 -1.22785 -2.66959 1.72128
362 0.571291 -7.06313 -7.48634 -1.68668 -2.03403 -0.916263
361 -0.247352 -7.72927 -7.83206 0.578962 0.470766 -1.30326
75 0.680368 -7.6685 -8.65009 -0.140598 1.47998 1.34002
80 1.42891 -6.73344 -8.56854 -0.77514 0.745379 2.79269
13 -4.65423 -8.98182 -9.12515 0.703597 0.429013 -1.21474
1481 6.09765 -9.1575 -1.2922 -1.2167 -0.630857 2.74081
79 2.17224 -7.74872 -8.75485 -1.94144 -2.38349 0.483222
84 2.96159 -7.23518 -8.78214 -3.46089 -2.98478 2.01502
595 -1.56461 -9.04404 -4.54948 -0.279915 0.750614 -2.36081
83 3.94323 -7.81447 -8.6663 -1.63985 0.641158 1.28725
88 4.53144 -7.0878 -8.62895 -1.07797 0.860714 0.734605
370 3.72329 -6.81131 -7.89089 3.27436 -0.307362 -3.16711
277 4.60768 -1.60372 -9.17412 0.297086 1.38902 -0.154292
92 6.13622 -6.85236 -8.71681 -0.063239 1.43815 1.90921
425 5.85612 -6.23471 -7.79847 6.83137 -0.333162 0.658964
4611 -8.56959 0.0424059 -2.13698 0.133829 2.8806 -0.739032
1469 1.52473 -9.12468 -1.51646 0.389549 3.68222 0.664725
91 6.99856 -7.54084 -8.65638 1.17374 0.890505 -0.472726
96 7.67295 -6.77534 -8.51007 1.03938 0.518645 -0.0392438
139 6.8197 -6.15211 -8.52239 -1.31356 1.51261 -0.901181
1842 -2.17712 -5.27017 -0.106865 1.8985 0.645868 -2.55015
95 8.32513 -7.63645 -8.74335 1.56791 -3.69754 2.55489
143 8.21945 -5.91212 -8.3188 -0.468638 -0.784774 -1.38626
337 8.99437 -7.66026 -7.7141 0.298512 -0.540795 0.0560371
381 7.88721 -7.64049 -7.78419 -2.72685 0.304382 -4.50194
146 -8.52411 -4.78323 -8.43067 -0.411362 1.45836 -1.45329
386 -8.34724 -5.49227 -7.66509 -0.344339 3.28013 0.587261
385 -9.15149 -6.30658 -7.37631 0.800063 0.490116 -0.0982981
617 6.09337 -8.99562 -6.25489 -1.46755 3.55274 -1.33702
4035 -8.54426 0.00822768 -5.45026 -0.2086 2.9884 1.25999
103 -6.88735 -6.06446 -8.3796 -0.0458867 2.10286 -3.16558
104 -7.61286 -5.52622 -8.43198 0.209756 -0.106406 3.84909
390 -6.88994 -5.19397 -7.73209 -1.37863 -0.547058 3.30861
1926 -6.86772 -2.33019 -0.0495222 -0.382328 -0.352878 -1.12847
108 -6.21307 -5.31673 -8.60437 -2.5191 1.36978 -0.962268
393 -6.10469 -6.03335 -7.73599 1.89813 -2.2236 1.41601
394 -5.59233 -5.29932 -7.93095 -0.695129 0.0453597 -0.410786
111 -3.89962 -6.28625 -8.47192 -3.34355 3.90978 0.0546626
64 -4.62912 -5.5087 -8.52644 -2.62558 1.09004 -1.87972
159 -3.68624 -4.75599 -8.36868 0.916919 -0.260297 -0.110474
1729 9.24455 -9.19656 -0.295844 2.32617 -2.37899 2.06223
115 -2.99111 -5.55518 -8.4536 -3.67446 1.98013 -2.13273
163 -2.29802 -4.62991 -8.51498 1.35201 0.89853 -1.0506
145 -8.50197 -3.94121 -9.04887 2.18124 0.375291 -2.232
401 -3.07986 -6.21885 -7.49356 -0.0267405 -0.64817 1.61935
4905 -6.20317 -0.0450027 -1.52163 0.225358 0.709515 1.08145
1459 -2.52074 -9.17241 -0.783342 1.75073 0.11645 1.59788
405 -1.54745 -6.20259 -7.6008 -0.795388 -0.94214 1.48959
119 -0.834842 -6.31658 -8.50753 1.49406 1.82092 -0.400893
120 -1.51396 -5.37772 -8.36151 -1.97984 1.79963 1.37787
167 -0.784224 -4.41271 -8.40412 1.18421 -1.11709 0.745034
406 -0.719362 -5.36073 -7.64747 -0.124937 -2.44547 -3.25279
124 -0.145605 -5.24353 -8.56038 -0.85574 1.30023 2.04781
123 0.572361 -6.01654 -8.37829 -2.01122 -1.57968 -0.655068
457 -0.171982 -4.57598 -7.51856 1.43695 -1.1775 -0.5869
128 1.35959 -5.26534 -8.43051 -0.766466 -0.838305 0.0725895
171 0.547364 -4.59156 -8.53919 2.60217 -1.16455 3.12503
410 0.660428 -5.31067 -7.53762 -0.893571 0.663413 0.0272851
461 1.40466 -4.47723 -7.78509 1.62054 0.35115 1.77189
127 2.15408 -6.10176 -8.47295 -0.818649 0.139301 1.01892
132 3.03346 -5.21613 -8.4553 -1.3895 1.64219 1.34544
175 2.24368 -4.49854 -8.36046 -0.481732 -2.36854 1.66936
4860 -5.38641 -9.1454 -2.40282 2.07349 -0.680514 -0.492946
131 3.68733 -6.39019 -8.85699 -1.313 -0.602267 0.707756
136 4.49259 -5.51824 -8.55684 0.623152 0.998295 1.1157
179 3.92099 -4.53466 -8.68745 0.955313 -2.43636 2.11601
909 7.62415 -8.91547 -4.48178 -3.91892 1.22238 -1.26858
607 2.5817 -9.11941 -5.45643 -2.48053 0.727622 1.95337
422 5.34385 -6.17437 -8.66402 1.41802 2.2289 1.36296
140 6.01877 -5.52869 -8.43359 0.658921 -0.205162 1.07394
473 5.86747 -4.63288 -7.64193 -1.33185 1.9326 -0.63635
183 5.25423 -4.71521 -8.49588 0.25038 0.310668 0.180764
428 5.23698 -5.37306 -7.77214 1.16369 1.14468 0.0663336
144 7.53335 -5.23084 -8.3821 1.12528 0.139766 -1.79848
1829 -7.57878 -6.14235 -0.0577106 -3.64332 0.285282 0.118124
1199 8.47783 -9.05131 -2.3392 2.44033 3.46492 -1.02881
100 -9.20765 -5.66887 -8.32731 0.524847 -1.09226 -1.56308
430 8.70435 -5.51008 -7.53856 -0.731609 1.55403 0.496584
434 -8.468 -3.88465 -7.91036 2.42229 -0.154521 -0.519707
3 -8.47915 -9.17736 -8.47224 -0.44749 2.81496 2.41714
4931 3.79199 -0.125496 -0.816353 2.85794 -2.62864 -1.90322
4643 3.85793 -0.137568 -2.20512 -0.0231595 -1.58579 0.363854
437 -7.75804 -4.55149 -7.82909 -1.35213 -1.55276 -1.06955
150 -7.57613 -3.80353 -8.65418 0.387918 1.89894 2.87911
151 -6.92397 -4.57268 -8.69405 1.10699 -1.41361 2.45522
152 -6.95502 -3.89826 -7.72098 0.297812 1.61576 -0.495046
155 -5.45731 -4.52979 -8.53917 -0.988927 -1.11203 2.5487
438 -6.14493 -3.77608 -8.4235 2.1205 -4.14296 0.777097
203 -5.33773 -3.12402 -8.5177 -4.27529 1.87789 -0.863494
112 -4.57182 -4.50379 -7.81555 -1.5391 -0.480735 0.571979
4941 7.75555 -0.151815 -1.53096 -0.51259 -1.15613 0.963094
160 -4.71569 -3.90031 -8.46751 1.05891 2.39727 -0.740819
207 -3.99479 -3.13244 -8.47585 -0.395515 0.355546 -2.49404
4653 6.98026 -0.286847 -3.86743 2.12723 0.145758 1.02702
164 -2.96638 -3.83403 -8.52 1.5011 -2.28426 -1.01969
450 -2.1127 -3.64108 -7.83058 1.16516 3.53763 2.3801
201 -6.08994 -2.99789 -9.26911 0.914054 -0.814432 -2.6189
168 -1.52199 -3.79029 -8.64187 0.257019 -0.605238 1.18781
454 -0.767211 -3.82223 -7.71337 1.38785 0.555209 -1.49338
501 -1.40749 -2.96208 -7.59413 -1.30279 1.13488 -2.49224
3485 1.58879 -0.00894028 -9.11387 -0.559678 -0.101077 0.786914
172 0.0329068 -3.81076 -8.52843 2.52086 -2.94862 0.418859
4654 7.76871 -0.0184079 -3.08745 -1.08609 1.11346 3.54833
4639 2.41705 -0.206543 -2.41275 0.591999 -0.931455 -1.45378
176 1.46774 -3.94122 -8.60268 1.12341 0.466768 -0.385803
219 0.921276 -3.17869 -8.41598 -0.737095 0.216032 -1.30591
458 0.704329 -3.89906 -7.63353 2.60668 1.04902 -2.11583
4637 1.74192 -0.284505 -3.14275 -0.395618 0.383333 0.0880855
1165 -4.53101 -9.10267 -3.11593 -1.59501 2.02234 0.732267
180 3.1161 -3.80664 -8.41461 2.84719 1.15131 0.707177
223 2.34421 -3.22205 -8.44793 2.71333 -1.15346 -2.37935
513 3.0091 -2.86195 -7.85615 0.31993 1.3033 -1.98973
4635 0.90043 -0.0748693 -2.3536 -1.57303 -1.75819 0.250956
184 4.68772 -3.84323 -8.62418 2.77301 -0.0637028 0.7378
227 3.73096 -3.11761 -8.59547 1.24787 2.46689 2.54825
517 4.6027 -2.76592 -7.71189 2.55448 1.784 0.875214
589 -4.55432 -9.04521 -6.07683 2.01403 -2.2026 -1.97063
231 5.98831 -3.86135 -8.54743 -1.37172 0.653832 0.136002
521 5.95719 -3.21769 -7.7184 2.61622 1.42094 -0.417543
187 6.62633 -4.61102 -8.32572 -0.579212 -0.383792 0.894599
192 7.56404 -4.22344 -8.27997 -0.0248644 -1.37471 0.0150587
235 6.79555 -3.26854 -8.36419 0.694641 -0.317166 -3.77112
191 8.37762 -4.84604 -8.24591 2.07635 0.563163 -0.319235
433 9.22518 -4.72155 -7.85661 1.5832 -2.70905 -2.31588
148 9.1518 -3.83917 -8.56915 -1.78468 1.51565 1.61363
478 8.41324 -3.92842 -7.65348 1.39783 -0.616694 -4.32812
481 9.19316 -3.21729 -7.76015 0.129082 -1.00692 -0.218027
1167 -3.77191 -9.09327 -2.46985 0.219948 -0.951999 -2.24798
195 -8.38539 -3.0019 -8.32355 -1.00356 0.176026 1.40572
243 -8.38932 -1.55156 -8.39771 2.51168 -0.826547 -0.118248
4325 -7.69992 -0.0237714 -4.58379 -0.0739174 -0.781985 0.707487
199 -7.04158 -3.06896 -8.49446 -0.691963 0.30193 -1.91976
200 -7.7125 -2.27144 -8.41796 -1.11322 -1.76787 2.47066
247 -6.94975 -1.63435 -8.43172 2.50766 1.71634 1.50845
7 -6.90036 -9.1305 -8.28646 -2.47517 1.77532 2.06753
4039 -7.05905 -0.0798694 -5.51358 2.1777 0.0133088 -3.63587
204 -6.19664 -2.22458 -8.6282 -1.27148 -0.598526 3.88984
252 -5.47537 -1.51053 -8.66903 1.54303 3.73559 0.0959222
251 -5.33764 -2.27866 -7.67217 5.82946 5.16843 -1.56383
208 -4.60971 -2.283 -8.43842 1.81881 0.802832 2.57529
490 -4.72068 -1.47408 -7.86454 1.90816 1.74379 -0.725326
494 -4.04458 -2.30848 -7.7077 -1.24821 -0.203725 1.96798
1997 1.69387 -1.60969 -0.0420756 3.23935 1.59493 0.827208
211 -2.42619 -3.06577 -8.52819 0.21093 -0.825517 1.47728
212 -3.0936 -2.0634 -8.27443 -1.63386 2.66273 1.42368
259 -2.28695 -1.59053 -8.48351 -0.719594 -0.53943 -0.522014
498 -2.19384 -2.3531 -7.84131 -1.00559 1.75077 -1.76433
257 -3.10741 -1.32301 -9.15886 -0.571363 -2.55775 -2.93389
216 -1.66404 -2.46445 -8.59914 -0.155153 0.71223 -2.86915
502 -0.688149 -2.20848 -7.73182 -4.24416 0.352882 -1.32692
245 -7.57335 -1.55365 -9.13287 -1.39292 -0.748303 1.41745
215 -0.776033 -3.14278 -8.48268 -3.31003 -1.97064 1.29114
220 0.0764316 -2.45858 -8.33364 -1.55061 1.51952 1.00412
317 1.69481 -9.09711 -7.79872 2.42419 1.28952 -2.07976
224 1.59831 -2.35076 -8.48206 0.280076 -2.2792 -1.05889
579 -8.37462 -9.07716 -5.27886 -2.52892 -1.44623 2.42083
623 8.42597 -9.04458 -5.3322 -2.0205 -5.5168 -0.215022
228 2.96338 -2.3812 -8.69724 -3.03915 -0.584056 0.743447
271 2.45105 -1.51421 -8.45009 -1.25164 -1.42648 1.58132
509 2.30587 -2.2369 -7.8466 -1.13591 -0.973734 -1.08687
218 0.732281 -2.35472 -9.13622 -1.15019 0.985379 -0.922925
232 4.58248 -2.42337 -8.78093 1.49468 2.91537 -1.22018
563 4.74898 -1.6577 -7.61932 0.024828 -0.751998 1.19597
518 5.28006 -3.10076 -8.58266 -1.07649 -0.408598 0.0620137
236 6.15702 -2.35413 -8.51119 0.139932 1.50448 1.20485
279 5.49689 -1.62528 -8.39648 -1.6906 -0.395304 -3.15185
569 6.21314 -1.50249 -7.67752 0.00195523 1.83625 1.27855
522 6.72344 -2.40457 -7.6539 -0.975965 1.12049 -0.586222
525 7.66064 -3.27483 -7.9426 1.98561 1.37461 0.808296
240 7.57227 -2.34982 -8.33351 -2.02839 0.146861 -1.00695
573 7.68809 -1.58184 -7.65062 -1.21539 -0.7127 0.305413
196 -9.18115 -2.34449 -8.31524 -1.21632 -0.114416 0.410023
239 8.47862 -3.14461 -8.57868 3.30841 -0.583988 0.787866
529 9.09407 -1.5721 -7.72346 -2.09011 0.363888 0.110138
530 -8.41305 -0.882492 -7.68682 0.886117 -0.452415 -2.30714
248 -7.77105 -0.77446 -8.45249 0.574563 0.971177 1.65285
534 -6.97181 -0.874329 -7.52447 -0.633754 -2.57852 1.15968
4329 -6.31118 -0.111941 -4.78992 0.251562 1.22356 0.270244
246 -6.18525 -0.822461 -8.40494 2.49947 -0.195987 0.962286
538 -5.28751 -0.777306 -7.45267 1.21645 -0.241833 -0.824522
4359 5.49923 -0.0836495 -3.746 0.816282 1.07737 0.765476
593 -2.28707 -8.96109 -5.34864 1.87233 -0.752617 0.835474
255 -3.94051 -1.44178 -8.46933 0.605557 0.192475 0.63834
254 -4.62484 -0.63668 -8.4339 -1.63184 1.38559 0.174299
3775 2.20576 -0.0441838 -6.85209 0.70492 2.25557 -0.289012
3777 3.0938 -0.194758 -7.71106 3.54521 2.14683 -0.870728
3477 -1.41313 -0.285232 -9.02851 1.1814 1.73112 3.23022
260 -3.95862 -0.59308 -9.06778 1.44653 0.843756 0.179767
263 -0.730427 -1.60939 -8.56249 3.4023 0.819777 1.52239
264 -1.34562 -0.948548 -8.34892 1.73925 2.48823 -4.97732
581 -7.71321 -9.22659 -6.10473 -1.4596 -0.859865 0.431786
4884 3.13383 -9.18052 -1.58778 1.56333 1.96592 -0.561613
1969 -9.04895 -1.51894 -0.0607989 -1.24791 1.80529 1.72094
268 0.0299028 -0.81471 -8.47987 -2.90039 -2.38773 0.86164
4051 -2.29759 -0.0588126 -5.25587 2.00347 -0.929181 2.09907
4075 7.16284 -0.123093 -5.49651 -1.22839 -0.429371 0.550518
1 9.22296 -9.13117 -9.20314 0.447651 3.58704 -0.386718
105 -5.9777 -6.14055 -9.09317 1.91931 -3.21052 2.00498
267 0.64308 -1.60576 -8.43701 3.80271 -0.151953 -2.02024
272 1.45785 -0.656648 -8.37622 -0.0799605 -0.312844 0.203897
3779 4.04384 -0.115798 -6.8282 -1.05176 -3.31838 1.15774
276 3.1034 -0.800376 -8.63198 -1.87115 1.55089 -0.474275
583 -6.83555 -9.11855 -5.30758 -1.78561 -1.88989 0.00886349
280 3.80783 -1.75734 -8.54757 -1.37149 -1.24887 1.58924
566 4.69411 -0.846981 -8.47226 0.147904 -1.03772 -0.408119
275 3.98132 -0.768139 -7.56095 0.77712 0.884709 -2.00847
158 -3.90791 -3.95699 -9.07161 0.550988 4.53866 0.104041
284 6.17616 -0.786328 -8.48746 0.807091 -1.53177 0.157153
572 5.4454 -0.656092 -7.72421 3.61498 -1.76739 0.285573
49 -9.16714 -7.47149 -9.17421 1.02093 -0.915318 0.176954
283 6.80096 -1.56131 -8.46562 -2.45347 -0.466612 -3.56955
288 7.52168 -0.963491 -8.54608 -0.0502439 -0.031182 -1.51239
5193 -6.20396 -0.0784124 -0.0466781 0.964562 0.385208 0.555497
3787 7.00227 -0.1287 -6.93486 0.00625475 -1.34764 -1.08221
287 8.29579 -1.65007 -8.46099 0.961735 0.476326 0.857697
4037 -7.99369 -0.12711 -6.2915 -2.5433 -0.0268466 2.07688
244 -9.1816 -0.841182 -8.67166 1.34808 -0.28095 -1.80522
574 8.41655 -0.928299 -7.76346 0.624716 2.24838 0.544099
296 -7.69522 -8.56006 -6.82962 -1.89761 3.07913 0.66482
292 -9.23555 -8.48325 -6.93671 -1.99199 -0.408734 -0.00342816
578 -8.39595 -8.4488 -6.00321 -1.36446 0.23483 2.4787
294 -6.76303 -8.3568 -7.53302 -1.73427 1.46766 0.873021
1471 2.26623 -9.19601 -0.76357 1.38653 -0.948642 -1.78871
3767 -0.897865 -0.0885983 -6.85322 2.11269 -1.19754 -0.0745623
343 -7.01606 -7.6793 -6.86387 2.64588 -0.672559 -1.62016
300 -6.10071 -8.17024 -6.75902 1.96883 1.3174 0.34857
633 -6.16526 -7.56404 -6.03015 -0.567606 -1.44102 1.36191
621 7.78679 -9.00956 -6.14931 -1.0622 1.53555 -0.649786
349 -4.56926 -7.63786 -7.61159 0.963865 -2.69915 0.107293
304 -4.65566 -8.48318 -6.86138 0.101426 0.951923 0.722218
46 8.17137 -8.60119 -8.99661 1.41135 -0.640299 -0.131894
306 -2.22075 -8.47572 -7.48303 0.610297 -0.616213 1.13098
308 -2.95995 -8.43729 -6.7652 1.12388 0.700957 -0.500529
594 -2.23308 -8.33877 -6.14558 2.49286 -2.29463 -1.84223
4907 -5.40807 -0.0136724 -0.846573 -1.0097 0.19512 1.62511
577 -9.19698 -9.12785 -6.12591 -0.644919 2.90347 -0.907708
3759 -3.61706 -0.106473 -6.91502 0.0541945 -1.75842 1.164
312 -1.52613 -8.5564 -6.88919 -0.248531 -0.803647 -0.817715
645 -1.43522 -7.76635 -6.13093 0.276551 0.136744 2.3101
359 -0.787509 -7.78566 -6.89583 -1.77697 0.556751 -1.00043
316 0.117453 -8.33519 -6.91691 0.637717 1.78166 -0.277734
602 0.88714 -8.56892 -6.19075 -1.6425 -0.716596 -3.59345
320 1.66309 -8.3517 -7.17261 -2.55649 -5.38811 -1.45704
4915 -2.53448 -0.0615771 -0.690528 -0.0201138 1.33717 -0.563511
318 2.34878 -8.39623 -7.92175 -2.02614 0.136027 -2.41154
324 2.86384 -8.35514 -7.0255 0.795991 -1.07157 4.11544
369 3.15001 -7.63557 -7.94051 0.826778 -0.24129 -1.88653
654 2.15804 -7.52822 -7.07982 -1.3297 -0.0296898 -1.47079
5142 -7.01259 -9.21366 -0.618859 -2.16522 -0.280672 0.379709
606 2.40938 -8.37069 -6.21035 -0.208064 -1.00957 -2.78636
214 -0.773638 -2.52652 -9.18675 2.80001 -0.213135 -1.87617
157 -4.58445 -4.71032 -9.08256 0.852125 1.43971 0.0470766
373 4.54124 -7.6128 -7.77059 1.00142 0.724903 -0.0794459
328 4.80856 -8.5444 -7.10515 -0.597395 -0.487085 2.09954
371 3.79423 -7.6635 -7.03601 -1.39725 -2.3415 2.26981
661 4.60518 -7.71375 -6.28967 -1.18692 0.082365 4.21199
4617 -6.36038 -0.007387 -3.14799 -0.772668 0.0860974 -1.40678
326 5.39034 -8.16899 -7.87325 -1.49427 -0.778259 -0.00681339
332 5.97846 -8.37034 -7.0377 -0.339597 -0.475459 1.30946
375 5.26293 -7.54987 -6.96987 2.8341 -0.564128 1.4655
3789 7.73341 -0.283138 -7.74205 -0.766508 -0.134811 -1.34681
377 6.26116 -7.74179 -7.85051 -0.00826614 -0.483114 1.74605
379 6.92709 -7.71127 -7.14251 0.279642 -4.07294 -1.79601
1726 8.42674 -1.01668 -1.51221 0.151911 -0.682061 0.122126
336 7.78393 -8.26735 -6.93211 3.50228 0.828603 0.665613
669 7.57604 -7.56851 -6.34123 -1.2118 0.0220941 -1.2001
622 8.65588 -8.35384 -6.13316 -1.94257 1.89051 1.87744
625 -9.0063 -7.75945 -6.03632 -0.772484 0.416622 -3.58706
867 -8.42493 -9.00461 -3.7725 0.478872 0.283038 -1.29027
338 -8.456 -7.0731 -7.65373 1.77101 -0.30472 0.778801
339 -8.54219 -7.92103 -6.81125 -2.04094 3.26049 -1.65596
344 -7.8303 -7.07376 -6.85904 -1.59217 -1.82501 -0.806048
340 -9.20255 -7.03969 -6.7951 -2.29814 -2.26845 -2.38351
389 -7.67796 -6.14775 -7.67126 0.139989 -3.20962 -0.753591
341 -7.77449 -7.89636 -7.56247 -1.11042 -0.783477 1.87523
342 -7.01153 -6.89273 -7.63008 -0.589462 1.0652 -0.625706
391 -6.80642 -6.07131 -6.97074 -1.43259 2.03595 -0.933892
347 -5.18376 -7.59882 -6.84315 0.813646 -1.59785 0.203199
348 -6.2091 -6.87429 -6.78557 1.84497 0.36732 1.77984
395 -5.27501 -6.09998 -6.8466 0.983647 1.13085 2.58999
351 -3.81145 -7.88013 -6.93734 1.23177 -0.269097 0.210507
352 -3.77178 -6.91039 -7.6087 0.130762 0.643977 -0.409387
634 -4.50924 -6.86084 -6.91266 -0.79597 1.10321 3.54655
399 -3.85967 -6.11452 -7.04282 -0.970257 1.59526 -0.292968
355 -2.33837 -7.67214 -6.99618 -1.97171 4.4103 0.738435
356 -3.07949 -6.99704 -6.91019 -1.80407 -0.135258 -3.58121
403 -2.23191 -6.15312 -6.95352 -2.37856 1.12451 -0.705713
360 -1.59483 -6.95434 -6.79481 0.375853 2.9303 -1.08174
693 -1.48143 -6.18953 -5.92083 -1.72587 0.269293 0.545703
358 -0.95626 -6.92236 -7.61824 -1.62961 -0.337369 3.63102
364 -0.140535 -6.80628 -7.05131 3.99946 0.725377 -1.31767
363 0.156107 -7.69 -6.21261 0.620968 -0.529394 -1.14517
314 0.965248 -7.75806 -6.77862 1.86651 1.18797 0.30059
365 1.54744 -7.55768 -7.89677 -1.12546 0.293058 -1.27044
368 1.34997 -6.91609 -7.09865 0.62471 1.22118 -1.67536
653 1.56796 -7.73951 -6.09046 2.04253 -0.783786 -0.0473743
650 0.694414 -6.75921 -6.24206 1.4399 1.32399 -1.07646
366 2.32608 -6.90288 -8.00629 -1.85747 -2.10387 1.69778
415 2.04983 -6.23293 -6.98204 1.05334 0.757453 -1.73666
372 2.88235 -6.784 -7.09828 0.108624 0.693257 0.461666
417 3.01849 -6.03906 -8.14821 -0.859044 -0.581669 0.947742
703 2.11111 -6.8584 -6.15565 0.873487 1.31665 -1.42558
705 2.94147 -6.11136 -6.11233 2.03354 -1.78479 1.32464
421 4.75405 -6.50441 -7.87082 -0.518356 -2.16748 -1.58604
376 4.30973 -6.87473 -7.12743 1.72525 -3.50672 -1.77275
709 4.51821 -6.21428 -6.25417 -0.814321 0.388957 1.93705
419 3.58714 -6.16705 -7.03065 -0.626942 1.53579 -1.25077
374 5.45632 -7.09563 -7.94762 -0.470634 -0.430202 -2.38355
380 6.03862 -6.96032 -7.13377 1.70763 3.67816 1.46343
423 5.23071 -6.48947 -7.00624 0.39673 1.10292 -1.58778
713 6.05312 -6.07747 -6.21035 2.6444 -1.14898 -0.727493
378 6.74133 -6.9109 -7.90142 -2.80274 -2.54701 1.74909
427 6.67997 -6.25302 -7.12734 1.0125 -0.942678 1.83564
384 7.45553 -6.89141 -7.07075 1.46825 0.130835 0.185423
383 8.40371 -7.50369 -6.86378 1.259 1.68829 2.35873
382 8.33971 -6.75774 -7.61362 -0.281654 -3.3591 -0.076801
387 -8.34142 -6.1847 -6.89309 -1.21615 -2.00155 -1.80241
674 -8.3038 -5.47608 -6.28573 -1.4231 0.888625 -0.196237
388 -8.94353 -5.3977 -7.00796 -1.77941 -2.36223 -2.7655
435 -8.39068 -4.6177 -7.07129 -2.16527 2.22648 0.986616
725 -7.6974 -4.54781 -6.37882 3.19136 -0.634369 -1.85644
392 -7.55951 -5.36576 -7.05096 -0.261743 3.59266 2.98389
439 -6.89119 -4.56499 -6.97274 -1.11749 -2.35992 -3.33815
678 -6.84999 -5.28218 -6.25888 2.7731 1.82832 -1.48096
396 -6.02552 -5.35503 -7.04243 -0.054632 -1.79278 0.205494
398 -3.77123 -5.51111 -7.78934 0.693539 -0.649454 0.288496
400 -4.6801 -5.31549 -7.20214 2.76038 -1.09285 -1.60977
448 -3.87639 -4.73642 -7.14659 -0.169663 -0.392376 -0.294248
402 -2.35082 -5.31844 -7.74976 -1.01406 0.168881 3.04636
404 -2.85416 -5.27812 -6.91089 0.76587 1.52589 0.522796
451 -2.14118 -4.54843 -6.85235 0.821622 -0.715261 1.71126
689 -3.05736 -6.12964 -6.26669 1.02673 0.364388 1.96291
737 -2.92399 -4.78712 -6.07073 2.14554 3.27432 0.0855563
690 -2.04903 -5.55939 -6.32919 -0.902853 -0.593185 0.483073
453 -1.50418 -4.59594 -7.81319 -1.18193 -1.76898 0.145117
407 -0.888939 -6.21291 -6.88633 2.41415 -4.04635 0.687976
408 -1.43484 -5.29981 -6.99007 2.79538 -1.13952 -1.84331
741 -1.49311 -4.73735 -6.08694 -2.52042 1.16762 1.58906
409 -0.201485 -6.30593 -7.82512 0.407316 -0.394297 -0.648971
694 -0.88545 -5.52271 -6.16119 0.378725 -1.58323 -4.49236
412 -0.179638 -5.67124 -7.03624 0.532808 3.49334 -1.68709
697 -0.160587 -6.19796 -6.25503 2.78814 -0.446441 3.08755
455 -0.794347 -4.54786 -6.73933 1.24238 1.11763 -2.42479
698 0.585159 -5.47429 -6.35043 1.25742 0.683615 0.137366
413 1.36949 -6.02785 -7.7948 -0.968903 -0.311826 -1.20896
411 0.634318 -6.22802 -7.06791 1.63911 1.19503 -2.18073
416 1.44769 -5.44163 -7.03708 0.429116 -0.0112565 -0.362781
749 1.34718 -4.81898 -6.32858 -0.564706 1.20881 1.68954
701 1.40665 -5.9417 -6.22768 0.372923 0.674869 -0.519382
414 2.14318 -5.31408 -7.68188 -0.494509 2.88567 0.848722
465 3.1807 -4.50506 -7.76406 2.63567 -1.80719 -0.797857
420 2.96173 -5.40819 -7.01046 2.442 2.18431 0.787887
463 2.32113 -4.58579 -6.87126 -1.10339 0.00538273 -1.50582
753 3.22066 -4.57359 -6.18758 -1.55183 0.81888 -0.358883
702 2.30477 -5.46415 -6.14853 2.94233 -2.77231 2.47305
418 3.71366 -5.33815 -7.69706 0.801737 -2.04311 -0.992173
424 4.57206 -5.53202 -6.94321 -3.29357 0.1722 -2.36014
706 3.93012 -5.45039 -6.24465 1.02672 -0.541603 2.62757
471 6.00519 -5.49163 -7.00566 0.634441 -0.121124 2.33548
429 7.47426 -6.10659 -7.74453 -0.419024 -2.52736 1.23704
477 7.56219 -4.88362 -7.37518 -1.06944 0.377919 -2.48044
426 6.74774 -5.45934 -7.64715 -1.77174 1.52378 0.175754
475 6.73632 -4.76359 -6.99799 -1.19916 -0.717445 4.13948
432 7.84441 -5.77731 -6.8838 -0.447024 -0.229055 -0.00622361
714 7.00456 -5.58493 -6.50939 0.354562 1.44262 -0.480442
673 -9.17075 -6.15152 -6.15755 0.14292 -0.416083 0.438672
431 8.49452 -6.49312 -6.69478 0.189705 2.57323 0.729873
483 -8.52623 -3.30489 -7.20803 -0.227625 -1.39153 1.12521
722 -8.5051 -3.93111 -6.37552 -1.93829 -2.23346 0.341419
436 -9.18358 -4.08861 -7.1704 -0.129122 2.50995 0.0733073
485 -7.6578 -3.14292 -7.74398 -0.233001 1.43635 -1.47224
440 -7.72386 -3.90473 -7.07772 -1.05402 -0.450051 0.955918
726 -6.87103 -3.88711 -6.24277 -2.39558 0.276056 0.321154
489 -6.09621 -3.03276 -7.84449 1.12866 -1.90976 0.699791
729 -5.97545 -4.51952 -6.43634 0.409122 0.810815 0.304073
442 -5.37233 -3.70933 -7.70456 0.819661 0.942195 -1.89155
441 -6.18817 -4.46846 -7.70468 1.71706 1.49007 -1.07161
443 -5.03597 -4.6629 -6.68152 -1.00077 0.499976 0.903002
444 -6.04588 -3.71712 -6.95248 -4.68238 0.759214 -3.72619
446 -3.71285 -3.87462 -7.79664 -1.27712 3.38232 4.21168
445 -4.47539 -3.84869 -7.00546 0.279129 1.43096 -2.77975
781 -4.62388 -2.96632 -6.02822 1.69311 0.992684 -3.31808
734 -3.94546 -3.6049 -6.11543 -0.545346 1.61258 -1.81791
449 -2.98029 -4.59603 -7.76626 3.24066 -0.748795 0.0436248
497 -3.07882 -3.08221 -7.57717 -0.351567 -0.786408 -0.814197
452 -3.22427 -4.03913 -6.85636 -0.917577 -0.613595 -0.890255
738 -2.32076 -3.94246 -6.04649 0.794419 -1.64372 0.598295
456 -1.4957 -3.76556 -6.99223 -2.10726 -2.0775 -2.1801
742 -0.725204 -3.86204 -6.04138 -1.60346 0.607477 2.13436
503 -0.651704 -2.9983 -6.94482 -0.069324 0.360799 -0.478609
505 0.0269012 -3.25167 -7.77057 1.347 -0.909432 3.35438
745 -0.0568471 -4.82577 -6.09598 2.19138 2.11916 0.222734
460 -0.0605981 -3.85373 -6.77171 -3.68759 0.418068 -0.298083
791 0.0843027 -3.1673 -6.10263 -0.203518 1.47005 1.72969
459 0.605183 -4.53056 -6.85005 0.480104 0.292385 0.460652
793 0.689986 -3.92127 -6.13363 -1.59606 1.27922 -1.39978
746 1.59384 -3.99754 -6.92852 1.69393 0.332976 3.22482
464 1.55902 -3.41773 -7.68222 -0.72701 -2.0301 1.03225
462 2.40972 -3.7765 -7.68556 -0.600429 -1.15835 -2.33126
468 3.29403 -3.79993 -7.01392 1.54436 1.24175 -2.89386
511 2.44453 -3.11839 -6.89158 -0.250854 3.38776 0.537731
469 4.50691 -4.56586 -7.72598 -0.823875 0.790159 2.36902
466 3.98405 -3.70128 -7.80372 1.14959 -0.585354 -3.20224
467 3.92939 -4.66273 -6.96426 -2.18165 -0.309648 1.08009
472 4.58541 -3.61817 -6.96114 -0.866538 -0.255492 1.58135
515 3.84978 -2.95943 -7.05679 0.746881 2.07652 -1.84509
470 5.26496 -3.76868 -7.75175 -1.87774 -1.33973 0.155876
476 6.04985 -3.93133 -6.88584 1.77506 -1.55381 -0.133391
809 6.08594 -3.006 -6.0493 -2.61981 -0.929621 -1.68391
474 6.72517 -3.96752 -7.50268 0.941919 -1.48864 0.653124
480 7.6688 -3.92509 -7.03774 -2.02247 -0.611601 -0.842101
813 7.64965 -3.07412 -6.24719 2.26507 -0.723535 0.00339142
721 -9.05647 -4.79955 -6.12389 0.604485 -0.149677 -1.25791
479 8.53589 -4.76935 -6.86074 0.395098 0.0681032 0.635579
527 8.40779 -3.18218 -6.94768 2.89974 -0.229251 -0.825346
769 -9.20913 -3.29918 -6.3457 -0.399488 -0.31255 2.12829
482 -8.48235 -2.31902 -7.71518 0.0687325 2.83771 -0.474384
770 -8.48578 -2.6096 -6.27263 -0.651424 2.20934 -0.698026
486 -6.97509 -2.45148 -7.52611 0.509791 0.369142 0.44087
488 -7.71609 -2.42951 -6.96973 1.03407 0.0996461 0.385839
487 -6.89244 -3.13087 -6.97746 0.640556 1.47073 -0.412104
535 -6.92276 -1.56523 -6.73159 1.13443 -0.449093 -0.875685
774 -7.01449 -2.59858 -6.21553 -0.921691 1.24155 -0.796388
491 -5.28346 -3.02537 -6.90931 -1.00559 2.98404 1.89495
492 -6.00848 -2.34936 -6.9983 -1.40752 -1.6035 1.54591
539 -5.19285 -1.63007 -6.91071 -3.20884 2.07325 -0.798365
777 -6.18828 -3.13168 -6.21603 0.610104 -2.0149 1.24837
493 -4.64952 -3.0057 -7.76521 1.37729 -0.894267 -1.28808
495 -3.8146 -3.13893 -6.9373 2.79304 -0.348299 3.30136
496 -4.55127 -2.36819 -6.7877 1.96313 1.26686 1.59716
543 -3.84474 -1.49667 -7.02689 -2.38055 -1.79032 0.585751
782 -3.60862 -2.28944 -6.32001 1.17867 1.09797 -2.33265
545 -3.06642 -1.08531 -8.00427 1.40485 -1.06086 0.16075
500 -3.21298 -2.21158 -7.21237 1.36368 -0.662783 -1.99943
499 -2.30301 -3.09316 -6.90565 1.77423 -1.48554 3.04883
833 -2.98351 -1.46188 -5.93541 3.00183 -0.656912 -0.921906
785 -3.03379 -3.16041 -6.34219 -1.09624 1.85829 -0.763565
549 -1.47677 -1.5181 -7.57672 -1.83086 0.329101 -1.20135
504 -1.45378 -2.26531 -6.90383 -1.20712 1.90056 0.202681
551 -0.615162 -1.61271 -6.91172 -0.675638 1.17781 -2.16631
553 -0.0136857 -1.45527 -7.76492 -0.525609 3.66934 -1.10686
508 0.153514 -2.44892 -6.9879 0.196696 3.06329 0.410608
506 0.964113 -2.37841 -7.71931 -0.130117 4.1776 -2.44305
841 0.17763 -1.6022 -6.07266 0.861736 2.03149 2.21935
555 0.853583 -1.67275 -6.95571 -0.107411 -0.936206 2.40316
557 1.57584 -1.4921 -7.91808 1.33168 -1.69377 -1.62992
794 0.750344 -3.23705 -6.83238 0.583563 2.83757 0.0100712
559 1.67484 -2.28758 -7.01336 1.81889 1.49571 0.10903
561 3.13221 -1.29412 -7.76238 1.25601 2.0028 -0.0996523
510 2.8764 -2.24894 -7.09266 -1.833 2.31025 0.752851
512 2.28482 -1.54321 -7.03522 -0.109328 -1.28972 -1.96111