ITEM: TIMESTEP
140000
ITEM: NUMBER OF ATOMS
6912
ITEM: BOX BOUNDS pp pp pp
-9.2265715179435492e+00 9.2265715179435492e+00
-9.2265715179435492e+00 9.2265715179435492e+00
-9.2265715179435492e+00 9.2265715179435492e+00
ITEM: ATOMS id x y z vx vy vz
4 -9.23774 -8.55473 -8.34815 -4.1285 -0.225089 -0.232943
871 -6.6845 -9.11045 -3.71114 0.276257 -1.35399 -1.23488
8 -7.56561 -8.34037 -8.42565 -1.69881 -2.33823 0.694683
294 -6.88388 -8.46669 -7.5579 -0.497455 -0.813108 -4.54345
4365 7.90212 -0.139998 -5.11969 1.631 -1.70148 -0.994021
1457 -3.19402 -9.0694 -1.42679 3.2197 -0.528237 -2.01258
12 -6.22456 -8.55222 -8.2846 0.53413 1.87913 1.18541
591 -4.30575 -9.04256 -5.61567 1.55544 1.01748 0.648384
295 -6.83265 -9.14532 -6.80646 -0.554278 -0.663389 -1.54871
16 -4.494 -8.4418 -8.35297 0.549079 1.68808 -2.57729
221 1.67404 -3.01731 -9.0509 0.608351 2.1418 -1.9696
4043 -5.4012 -0.170227 -5.30468 -2.78231 0.947459 -1.85585
1473 2.96694 -9.17621 -1.60474 -1.90918 -0.843947 0.267219
20 -3.02474 -8.36664 -8.61675 1.23012 -0.608878 3.97142
67 -2.51587 -7.45141 -8.80403 0.969335 -0.22491 0.646712
306 -2.31706 -8.31508 -7.67473 1.69802 1.15696 1.58361
353 -3.05516 -7.58128 -7.87686 0.522354 -0.187731 4.45024
24 -1.53004 -8.4975 -8.6984 0.0337529 2.07992 -1.14982
357 -1.43728 -7.53119 -7.54924 0.682577 2.03618 -2.07696
71 -0.998365 -7.68068 -8.58435 1.61094 1.91871 -2.39913
26 -0.241814 -8.68071 -8.37263 1.50874 -1.4235 -1.57015
361 -0.0484418 -7.55355 -7.95513 -0.913455 2.50381 2.4946
75 0.750166 -7.67869 -8.63161 0.901797 -0.489273 1.39455
367 1.64119 -8.59357 -8.50678 0.338451 -0.767191 1.6824
28 0.794444 -8.61849 -7.81434 0.859952 0.984516 -2.98585
365 1.4052 -7.7688 -7.92873 2.25523 -1.60636 -0.426807
36 3.19028 -8.48447 -8.41252 0.829367 1.06393 1.19784
79 2.23833 -7.82147 -8.53033 0.125628 -1.66483 -1.53336
318 2.33549 -8.4896 -7.74899 -3.75344 -2.0626 -1.58188
40 4.44058 -8.39094 -8.33502 -1.05718 -1.20741 -0.233698
83 3.89373 -7.63851 -8.37815 2.46216 -0.75298 2.53668
322 3.67681 -8.51087 -7.58706 -1.11242 0.357232 1.55013
44 6.07719 -8.57846 -8.31282 1.90664 0.0181286 -0.120393
326 5.27774 -8.46279 -7.49499 -2.74672 -1.6498 1.43922
377 6.20634 -7.80696 -7.58769 -1.40231 2.29769 2.07333
48 7.63765 -8.51131 -8.51292 -0.66663 1.70461 -1.2768
330 6.84121 -8.70046 -7.53936 1.02032 1.91281 -1.5729
1451 -5.26803 -9.15157 -0.644483 -1.44244 1.16492 1.9768
4649 6.43807 -0.137717 -3.37046 2.39973 0.866981 1.27464
334 8.60048 -8.46368 -7.3979 1.01769 0.0254634 -3.90305
51 -8.5209 -7.89261 -8.40457 0.30004 -3.82984 -1.73927
52 9.06053 -6.90042 -8.44576 1.84612 0.552111 -2.45949
99 -8.66413 -6.27971 -8.47954 -0.512223 -2.07988 2.74938
325 4.52437 -9.10758 -7.61239 -1.49224 1.55961 3.86022
3503 8.48956 -0.133868 -8.22463 1.0774 -0.148932 3.11725
55 -6.86727 -7.67538 -8.23366 -1.36809 -1.30366 -1.24113
56 -7.77993 -6.94114 -8.49265 -1.20923 0.569521 -0.635904
1754 0.65368 -8.38304 -0.0864059 1.72065 2.10197 1.99795
59 -5.26046 -7.56315 -8.43726 -0.299055 -0.377623 -1.24273
60 -6.15549 -6.8084 -8.48231 1.42885 -1.67583 3.78734
1463 -0.80449 -9.08116 -0.864755 -1.8705 1.67644 1.25364
63 -3.8457 -7.67258 -8.51086 -1.92917 2.09738 -0.58869
350 -4.63017 -6.79571 -8.48609 2.41621 1.07284 -0.0125123
895 2.27164 -9.21137 -3.83454 -1.19326 -0.474104 -0.572972
4623 -3.81655 -0.0648133 -2.47038 1.4335 2.86402 0.773993
68 -3.1664 -6.74146 -8.66014 2.34978 -1.2707 -0.894907
115 -2.39587 -6.06589 -8.52153 -0.804296 -0.943912 -1.35416
72 -1.54124 -6.83613 -8.59512 -1.42461 1.82834 -0.473369
354 -2.27902 -6.92526 -7.71404 -0.366966 -0.31319 -2.06438
405 -1.7426 -6.16744 -7.63704 -1.23871 1.78617 0.600378
119 -0.582527 -6.04825 -8.68416 -0.484427 0.450756 -1.16153
76 -0.0259956 -6.86077 -8.55257 0.493907 0.963819 -2.36633
409 0.03789 -5.95892 -7.84313 -1.14528 -0.283113 -0.0708377
358 -0.753705 -6.77945 -7.7607 0.885511 1.17243 -1.81726
362 0.905738 -6.95433 -7.83097 0.274631 -2.78917 -1.76358
80 1.50663 -6.82104 -8.58883 -2.31241 -1.41513 1.43747
413 1.77855 -6.05232 -7.78097 -1.01711 1.25743 -0.748845
166 -0.631644 -3.77476 -8.92854 2.5487 -0.0373737 2.24575
84 3.03008 -6.9712 -8.54019 2.98607 -0.18421 -0.51076
127 2.53427 -6.16344 -8.5434 -2.56571 -0.392662 1.65186
417 3.1032 -6.14033 -7.6972 4.79445 -0.522554 -0.525151
369 3.12335 -7.57826 -7.61572 1.16763 -0.337128 0.896179
88 4.8167 -6.90025 -8.40724 -1.705 1.72574 1.62308
131 3.80659 -6.10819 -8.51419 -1.68337 0.98988 0.260072
421 4.86986 -6.21696 -7.68774 -0.364936 -0.651893 -3.15014
373 4.57946 -7.62418 -7.65655 1.38342 -0.545108 -0.949186
90 6.82667 -6.87277 -9.17754 0.243108 -0.140983 -1.25728
1985 -3.0121 -1.57236 -0.068257 1.07521 0.138637 -1.09496
87 5.31526 -7.76155 -8.25655 -2.60768 -0.209101 -1.83738
92 6.03569 -6.90915 -8.38556 0.70155 0.550806 1.17009
422 5.39457 -6.08527 -8.51382 -0.468898 5.8824 2.34188
877 -4.65388 -9.19914 -4.6249 -0.87719 -1.81478 2.43035
374 5.47461 -7.09492 -7.54674 0.203315 1.04589 -0.383438
425 6.11467 -6.22921 -7.70343 -0.380676 1.03263 -0.278657
3459 -8.56596 -0.176859 -8.45017 0.739589 -2.49979 -1.23721
89 5.97744 -7.84713 -9.16298 -1.39974 -0.604963 -0.630549
91 6.85827 -7.71496 -8.53514 -1.46594 -2.10033 -2.06712
96 7.65846 -7.11821 -8.50989 0.879869 -2.47974 -0.345437
95 8.42921 -7.75098 -8.53002 0.101759 0.868275 -0.701589
143 8.47424 -6.14076 -8.63533 0.800737 2.00783 0.746657
4363 7.16356 -0.0973646 -4.12331 2.67676 -0.447995 -1.48103
253 -4.43089 -1.41207 -9.24006 1.49699 -1.31961 -2.6593
100 9.0881 -5.44093 -8.58308 1.31958 -1.37967 1.41148
146 -8.52482 -4.79632 -8.62552 -3.292 0.96777 -0.945286
1455 -3.79697 -8.98642 -0.685398 0.642754 -0.194078 -0.677226
103 -6.9206 -6.07708 -8.50517 2.29504 0.229701 1.80156
104 -7.82251 -5.46549 -8.55359 1.29085 -1.77846 -0.475409
1870 8.43264 -5.3917 -0.0763646 -3.31829 -3.43406 -1.35035
4367 8.11619 -0.31993 -4.03347 0.792349 -2.13552 -0.673635
390 -6.93618 -5.57946 -7.71374 -0.231696 1.80736 -0.1958
9 -6.16728 -9.12833 -9.08271 1.20079 -1.09683 3.00921
107 -5.34354 -6.10254 -8.33525 0.542336 1.21501 1.26892
108 -6.0693 -5.42876 -8.51468 -0.80565 2.19975 -0.213434
155 -5.41581 -4.78619 -8.69258 -1.57001 -1.68379 -1.80312
1769 6.39127 -9.0929 -0.0265329 -0.307394 -1.11481 -0.774062
111 -4.03916 -6.09145 -8.41998 0.680986 0.706795 2.29803
112 -4.64364 -5.41842 -8.60915 -1.34933 -0.613559 -1.62776
159 -3.75881 -4.72259 -8.47786 -1.27686 -2.07915 -0.00122871
1684 8.40841 -1.05763 -0.131015 -2.13835 1.07645 0.54792
299 -5.48825 -9.13132 -6.96163 -0.0310992 -1.09915 -1.30304
116 -3.2263 -5.44722 -8.61825 -3.00814 0.595489 0.145538
163 -2.22419 -4.47206 -8.54519 -1.16385 2.86371 0.658747
402 -2.46897 -5.35306 -7.8782 -1.63948 -0.630161 -1.55262
4647 5.50749 -0.140981 -2.23072 3.14558 -0.749299 -1.80234
10 -5.44337 -8.44685 -9.00938 -0.970099 -0.454107 0.491185
120 -1.459 -5.47762 -8.37972 2.22092 -2.31851 0.790639
4923 0.830447 -0.126934 -1.0051 0.657585 -0.269226 0.61618
167 -0.778049 -4.59177 -8.37618 0.281666 -3.6551 0.290529
124 0.00655986 -5.24731 -8.52795 -0.499645 -0.162699 0.857638
410 0.791389 -5.44222 -7.75764 -2.24838 2.47008 0.769723
123 0.736524 -5.9943 -8.59221 -1.5276 3.56529 -2.11293
171 0.783889 -4.35855 -8.54556 1.18855 -3.43913 1.08294
128 1.50445 -5.47099 -8.48098 0.0902427 -1.08643 -0.539884
132 3.23128 -5.34648 -8.42891 0.422105 3.26732 -0.827995
414 2.4222 -5.32154 -7.90731 -2.39448 0.712623 -0.442266
136 4.58265 -5.37774 -8.4837 0.220839 -1.07701 -1.51902
469 4.48921 -4.71796 -7.70631 -1.24077 0.331137 0.39197
4035 -8.34836 -0.0524297 -5.55627 -1.83058 0.345998 0.873618
1973 -7.52286 -1.60505 -0.0768086 0.621678 -2.51979 2.87311
140 6.19633 -5.34767 -8.29795 -2.31425 -1.56159 1.10626
183 5.25734 -4.60392 -8.39948 0.10699 -0.4408 1.3159
473 5.49101 -5.47968 -7.56597 -0.392774 0.137348 -1.23196
470 6.26466 -4.4917 -7.60611 2.74149 0.235891 -0.468099
3745 -9.207 -0.0615942 -7.6806 -1.65643 0.394184 -0.690303
585 -6.05388 -9.17566 -6.07831 1.68737 -1.06149 -1.40404
139 6.78248 -6.13432 -8.45298 2.36145 -1.11876 -1.05683
426 7.00671 -5.42667 -7.63707 -3.06251 -0.456108 -1.12289
187 6.96313 -4.63164 -8.3156 -0.479931 -0.343748 0.0709809
144 7.66335 -5.56273 -8.5086 -1.15225 0.111498 1.72848
191 8.34612 -4.68073 -8.47999 -0.519531 -2.18655 -1.1841
4617 -6.29084 -0.0859753 -3.18716 -2.60976 -1.47175 3.37444
15 -3.93648 -9.23961 -8.54492 -1.82295 -2.58647 0.68512
261 -1.58702 -1.32578 -9.07611 0.192779 -1.20596 0.816531
148 9.11567 -3.91567 -8.31081 0.273358 0.476564 -2.4839
195 -8.61747 -3.09558 -8.66341 -0.317171 -2.02486 0.756095
151 -7.15402 -4.75869 -8.56127 -2.46207 -0.869492 0.908043
150 -7.68537 -3.90919 -8.67088 -2.57003 0.765961 -1.41722
3787 6.78243 -0.0716142 -6.93544 0.172399 0.421002 1.60637
335 8.3937 -9.18957 -6.84363 1.96621 -0.463479 0.806876
438 -6.1781 -4.08654 -8.57946 2.02152 1.46649 -0.00158242
442 -5.65887 -4.1394 -7.75254 4.09015 1.34531 0.911135
269 1.56442 -1.37092 -9.2278 -3.26264 -0.482365 -2.51083
203 -5.3844 -3.25461 -8.46196 1.32539 -1.33259 0.217155
38 5.20717 -8.47845 -9.09902 0.553582 -0.535861 0.147559
160 -4.49846 -3.78619 -8.76997 -0.122131 0.578315 0.600674
207 -3.69095 -3.18888 -8.54582 1.64433 2.22319 -0.257676
445 -4.71906 -4.52446 -7.92145 -1.17987 -0.891962 -1.49832
1443 -8.43742 -9.13307 -0.680959 0.29349 -0.822232 -0.918009
1157 -7.59376 -9.06604 -3.16135 1.4523 -2.60961 0.0516026
164 -3.07536 -3.89692 -8.57959 -0.0894229 -1.97906 2.05703
450 -2.19655 -3.81946 -7.70116 2.04075 0.476929 1.67742
211 -2.23622 -3.08809 -8.42069 -0.542465 -2.12937 -1.40135
497 -3.03593 -3.22757 -7.75867 1.95846 0.126407 1.21226
1159 -7.00599 -9.1868 -2.18889 1.84808 -0.410142 2.29179
453 -1.6505 -4.69899 -7.72151 0.822393 2.53204 -0.975118
168 -1.48445 -3.78952 -8.56815 1.41198 2.33819 -1.50328
454 -0.795466 -3.82954 -7.78057 -0.804616 1.06614 2.71377
501 -1.5189 -3.14766 -7.753 0.421644 -2.89667 0.966138
215 -0.678283 -2.98188 -8.27369 1.48019 -0.859797 -2.14573
172 0.170146 -3.59588 -8.26756 -0.0235216 0.130315 -0.142918
176 1.66225 -3.69675 -8.23452 -2.5293 -2.51109 -1.59623
219 0.976822 -2.93243 -8.41668 0.00687524 3.21564 1.23658
509 1.6718 -2.83021 -7.65668 -0.0505038 2.14769 1.09561
458 0.921612 -3.608 -7.6668 -0.0165372 -0.0303743 0.961522
122 0.815778 -5.09292 -9.13244 -1.26553 -0.757174 -0.407804
175 2.28465 -4.45828 -8.43493 2.12205 0.811753 2.72469
180 3.07476 -3.92905 -8.45608 -0.341346 -0.327031 0.231991
4651 6.89135 -0.0743229 -2.43781 -1.82959 3.10128 1.74506
1171 -2.24702 -9.14074 -2.28474 1.62487 1.21507 -0.397327
222 2.29163 -2.19399 -9.20453 -2.61733 -0.197013 -0.0287806
179 3.88135 -4.5789 -8.5312 0.604579 1.10549 -3.21067
184 4.74965 -3.80843 -8.51325 -0.802087 -0.492936 2.74078
4359 5.4689 -0.142317 -4.016 -2.75637 -1.13153 0.310834
257 -2.9907 -1.51314 -9.1896 -2.99537 0.699173 -0.105354
188 6.03259 -3.82436 -8.52874 -0.279886 -0.728649 -0.184586
231 5.38511 -3.90453 -7.69118 -0.975385 -1.29214 1.55571
192 7.7673 -3.74767 -8.43982 0.18863 0.546292 -1.14279
474 6.9013 -3.72093 -7.6025 1.43141 -2.48749 -1.72591
250 -5.56674 -0.654869 -9.01164 -0.992763 0.866726 -3.16741
235 6.76776 -3.22404 -8.54392 -0.226897 -1.34438 -0.0101625
239 8.53774 -2.99462 -8.41962 -2.77435 -0.174221 2.68637
478 8.47245 -3.71026 -7.63435 -0.00379592 2.33146 -1.01378
1479 5.46614 -9.01532 -0.592529 -0.562174 1.76797 1.59575
1802 0.912815 -6.76775 -0.0756183 -2.82056 1.32235 1.82699
286 8.43863 -0.7708 -9.19511 0.70072 -1.69212 -0.687286
482 -8.51231 -2.28733 -7.74102 -0.0433606 -1.43347 1.88893
4331 -5.48648 -0.0614997 -3.86586 0.677091 0.0392144 0.324322
199 -6.9951 -3.10035 -8.65586 -0.567984 -0.811432 -0.775895
200 -7.65017 -2.18159 -8.42376 2.65552 -1.61254 0.803599
247 -6.71276 -1.79007 -8.37294 -3.56226 -1.39176 0.322115
486 -6.94156 -2.5534 -7.83959 -2.01384 1.70536 0.540881
204 -6.24565 -2.45172 -8.75841 -3.38755 0.520926 -0.346976
251 -5.38083 -1.53974 -8.52546 0.0345425 -0.728795 0.582462
490 -5.36978 -2.49512 -7.917 0.302927 -1.07697 -2.52673
145 -8.52239 -3.98606 -9.11444 0.738879 -1.17598 -2.98447
169 0.0385191 -4.46032 -9.21068 -1.35458 1.22944 -1.11243
208 -4.54187 -2.35341 -8.64077 -1.29383 -0.206459 -1.36677
255 -3.95815 -1.60247 -8.3186 2.21193 -0.274571 0.506264
541 -4.62419 -1.54376 -7.50611 0.370809 -1.62196 -0.326537
494 -3.82518 -2.33649 -7.69204 0.763662 1.77668 -1.20571
4349 1.78715 -0.191752 -4.73548 -1.59765 -0.444041 3.25445
246 -6.97412 -0.757192 -9.18884 -1.09075 1.94931 -3.07872
212 -3.17039 -2.30597 -8.52692 -4.2644 -0.544819 -0.0368413
319 2.30082 -9.18634 -6.92394 1.96841 0.765307 0.977747
259 -2.36236 -1.57204 -8.42063 -0.0386685 1.18903 -1.66307
216 -1.61837 -2.25458 -8.42283 -2.78223 -1.70366 4.15719
263 -0.68704 -1.41672 -8.35024 -2.36134 -0.850083 1.55273
3457 9.17716 -0.115741 -9.16574 1.00786 2.92498 0.605002
220 -0.0116758 -2.11726 -8.44103 0.31408 0.199104 0.0418168
4629 -1.50573 -0.145494 -3.15805 1.30976 -1.28895 0.258427
505 0.0720235 -3.02954 -7.51898 -3.89137 -0.82987 2.88734
224 1.63771 -2.13978 -8.50118 -0.441998 -1.06232 -1.88069
271 2.25211 -1.34901 -8.39605 0.495424 0.132182 -0.748892
506 0.684243 -2.2571 -7.77567 1.21528 -0.710704 0.0457501
557 1.46827 -1.58167 -7.75511 -3.8218 -1.75039 1.71429
223 2.45326 -3.0796 -8.34281 -0.247412 -1.32783 -0.130331
228 3.08969 -2.20316 -8.37937 -2.40119 1.8246 2.67053
134 5.36167 -5.32516 -9.09059 -0.914176 0.802531 -1.40917
323 3.65378 -9.19394 -6.84476 -0.386181 0.379019 -1.64062
907 6.64156 -8.94719 -3.82298 -0.0706741 -0.988963 0.824486
227 3.77376 -3.12984 -8.41155 0.331658 -0.778222 -0.0292959
232 4.80051 -2.29749 -8.46967 1.52092 1.00911 -1.47307
280 3.92699 -1.39315 -8.45772 -1.66335 0.251819 -1.9022
514 3.92951 -2.18533 -7.70853 -2.85589 0.803419 2.16652
517 4.56731 -2.97706 -7.84112 -2.42312 1.71297 -0.0122487
518 5.33497 -3.02174 -8.39935 -3.23174 1.69332 0.955906
236 6.17589 -2.39572 -8.48539 -2.19548 0.805736 -0.995941
279 5.4864 -1.58085 -8.54374 -1.81895 0.363975 1.27427
521 6.06639 -3.1838 -7.74196 -2.21805 1.04628 1.15775
293 -7.62661 -9.11128 -7.69761 -0.691083 -2.4234 -1.88865
240 7.86672 -2.39278 -8.56459 1.40449 -0.725032 1.11933
522 7.03259 -2.42327 -7.67824 3.29604 -0.914853 -0.754125
879 -3.93193 -9.22518 -3.74465 1.9391 -2.64109 -0.812906
274 3.67216 -0.698408 -9.11579 0.634285 2.63511 0.895496
196 9.19767 -2.31042 -8.57337 1.27571 -0.579642 -1.89078
287 8.53066 -1.69626 -8.55363 1.69862 -0.346049 1.3046
526 8.52972 -2.34566 -7.64059 0.770284 -2.70935 -0.708316
243 -8.49358 -1.43485 -8.42341 -1.60143 -0.673611 -0.199453
141 7.55093 -6.26509 -9.18157 -0.958196 -3.28329 0.0587732
3481 -0.0341927 0.0073437 -9.13337 1.95623 1.64605 -4.43425
4943 -9.18235 -0.0231978 -1.54936 0.601486 -2.48953 0.0532569
607 2.16992 -9.13015 -5.24694 -0.777016 -1.56409 1.45644
248 -7.54841 -1.09604 -8.50206 -0.49268 1.75388 0.536595
534 -7.02496 -0.764968 -7.45756 -1.1071 1.72888 1.22361
273 3.15324 -1.50922 -9.08774 1.12265 2.47968 -0.810372
1797 -1.49515 -7.3303 -0.0558061 0.49742 -2.67572 1.15149
147 9.12437 -4.63266 -9.10423 -1.6424 -1.0457 -0.549328
54 -6.91563 -6.93672 -9.16546 2.09106 2.41283 -0.720652
1794 -2.2492 -6.61148 -0.103022 1.66866 1.06367 0.565769
252 -6.44415 -0.802504 -8.28212 3.1514 2.14941 -0.188608
256 -4.73028 -0.675634 -8.44987 1.12936 2.06538 -0.871647
542 -3.87029 -0.888302 -7.62115 1.5068 0.189177 1.03655
214 -0.964983 -2.18564 -9.14261 -1.0426 2.76963 0.388048
57 -6.28864 -7.70532 -9.06933 -2.92308 0.403611 -0.997279
260 -3.09884 -0.852784 -8.48519 0.683339 -2.2584 0.104708
4343 -0.839439 -0.129409 -3.85709 -0.0270466 0.730222 0.858835
2009 6.05684 -1.67262 -0.243381 -0.309392 -0.507697 -2.33418
1169 -3.12555 -9.22779 -3.19405 1.96124 -3.95752 1.11319
264 -1.67458 -0.80019 -8.32886 -0.730725 1.51056 1.08991
550 -0.81745 -0.77144 -7.65756 -0.626691 2.03437 1.91388
4635 0.818822 -0.142851 -2.24965 -0.127 -0.154504 0.872837
3471 -3.75424 -0.158484 -8.31323 0.856228 2.15974 -2.21595
268 0.118454 -0.767252 -8.56502 -0.795154 1.98664 0.70644
4911 -3.76133 -0.0397098 -0.818647 0.271899 0.583579 -2.73644
267 0.734272 -1.49531 -8.37927 -2.55663 -2.85988 -0.7326
272 1.4415 -0.802738 -8.47142 -0.689945 1.05549 1.58636
554 0.773416 -0.648991 -7.7604 -2.37819 0.859545 1.07015
1826 -8.43934 -5.38682 -0.0684953 0.810868 1.59949 0.264656
903 5.55002 -9.03954 -3.83671 0.320636 -0.166774 -0.0848722
276 2.96686 -0.625859 -8.27567 -1.02408 3.21154 -1.03615
566 4.52879 -0.643684 -8.40081 1.01983 -2.16665 -0.565249
275 3.84655 -0.567457 -7.66844 0.895521 0.533435 1.8032
3759 -4.02841 -0.191968 -6.95634 -3.17421 3.08605 -0.0141999
2013 7.5836 -1.60673 0.00339068 -1.2743 -0.715595 0.656746
1153 9.03767 -8.91613 -3.15902 3.09129 -0.105221 -2.08867
284 6.0074 -0.607255 -8.36451 -0.62319 2.07116 0.19061
572 5.4874 -0.900746 -7.58533 0.264424 -0.783803 -3.3883
283 6.82714 -1.61324 -8.49776 -3.1842 -2.29928 -0.398251
288 7.5351 -0.824434 -8.52355 -0.199966 -0.530388 1.12924
570 6.83136 -0.893134 -7.64491 0.227826 0.372935 1.25383
4615 -7.01901 -0.050316 -2.18576 -0.581002 -0.425504 -1.81926
4897 -9.20686 -0.875633 -0.581377 -3.65797 2.11412 -0.243851
126 2.34536 -5.24251 -9.15557 -3.05348 1.54696 -2.37126
244 9.1942 -0.896448 -8.59435 1.37138 -3.1459 0.286613
1441 9.16009 -9.18659 -1.26565 0.0772443 4.50246 -0.364283
174 2.44003 -3.72051 -9.09343 0.801501 -1.66121 0.166462
290 -8.56036 -8.40902 -7.58704 -0.690202 0.152708 -0.813167
296 -7.67079 -8.37461 -6.93054 -1.61382 -0.0718722 0.490721
343 -7.00705 -7.74587 -6.99184 0.144016 1.56244 -2.68346
582 -6.94087 -8.27176 -6.10461 0.396332 -1.15804 0.0752321
1459 -2.30669 -9.06975 -0.736681 1.57727 -3.19812 -1.98394
617 6.05109 -9.09319 -6.07262 0.23522 1.54942 -2.24142
298 -5.28416 -8.50461 -7.83236 0.06629 -1.16502 3.31352
300 -6.03877 -8.25554 -7.05008 1.09158 -1.58896 1.66586
347 -5.21897 -7.73797 -7.01233 -1.70933 0.275145 0.0537103
302 -3.7057 -8.34303 -7.79191 -1.19174 1.87517 0.234551
304 -4.66097 -8.50755 -7.09678 -0.298813 1.93518 -1.27026
351 -3.89663 -7.60278 -7.03007 0.554703 1.0777 1.56071
901 4.27621 -9.12377 -4.55321 -0.911493 -0.211395 -2.76365
308 -3.03651 -8.27158 -6.89342 1.14184 0.148984 -1.42473
594 -2.4626 -8.32422 -6.12972 -1.40909 -1.13235 -0.56824
4935 5.40299 -0.23388 -0.711757 0.00890107 -1.45552 -1.71378
4645 4.64762 0.00644829 -3.07778 -4.07035 1.21539 0.394456
4323 -8.49247 -0.201753 -3.90778 0.441041 -0.805527 1.52962
310 -1.11942 -8.48975 -7.79551 -1.84664 0.515744 -0.760158
312 -1.5093 -8.39685 -6.9123 0.729165 1.76437 -0.208551
598 -0.838626 -8.45101 -6.23109 0.322108 -2.08362 -0.970789
359 -0.498659 -7.67158 -7.05731 3.79958 -1.74893 -1.8693
316 -0.0247112 -8.59317 -7.13521 1.0403 2.17379 -1.54551
4619 -5.63 -0.00248646 -2.41511 -3.65175 3.36076 1.95704
4921 -0.0410902 -0.16988 -1.72831 -0.143072 -2.81358 -0.846908
320 1.50356 -8.44463 -6.95246 -0.674393 -1.67514 -1.78628
653 1.46705 -7.73747 -6.21056 0.928318 -0.327392 -1.25131
602 0.807618 -8.5095 -6.14503 2.12565 0.110641 2.45398
324 3.02519 -8.26553 -6.97953 -1.225 0.569372 1.95713
654 2.29834 -7.6889 -6.94673 -1.97548 2.4264 0.876513
606 2.12078 -8.4323 -6.22679 3.67421 0.340124 2.63659
657 2.97429 -7.52633 -6.30517 0.36297 -0.367423 -0.540963
328 4.4788 -8.45353 -6.85405 -1.71308 0.424551 0.45325
610 3.70926 -8.56439 -6.09395 -0.294503 0.555676 -1.57342
332 6.08653 -8.4454 -6.9032 -3.28753 -2.69298 -2.4933
614 5.3102 -8.44888 -6.10309 0.953685 -0.404306 -4.1441
665 6.2327 -7.72882 -6.12134 -0.795528 -0.201976 -0.664425
336 7.68741 -8.46525 -6.92241 2.96746 1.20827 0.330266
379 7.02123 -7.78163 -7.01511 -1.30355 -1.37351 -1.89576
618 7.00505 -8.45087 -6.16734 0.888423 1.151 0.705321
337 9.02354 -7.63784 -7.66222 -0.882178 0.51309 0.267692
292 -9.09987 -8.39216 -6.70555 1.22026 -3.11127 0.745715
622 8.37507 -8.53852 -6.15649 3.09962 0.997518 0.432924
338 -8.59144 -6.92448 -7.71447 1.24681 -0.320804 1.87413
339 -8.54058 -7.56423 -6.95057 -0.350834 0.608425 -0.144459
387 -8.589 -6.00596 -6.92647 0.421016 2.119 -1.97041
340 9.0897 -6.80005 -6.9591 1.26405 1.85731 -0.805495
625 9.04618 -7.55676 -6.27786 0.2612 -0.684437 1.2582
342 -7.0071 -6.83512 -7.84205 -1.38686 1.34247 0.256072
341 -7.8202 -7.68379 -7.73694 -1.51231 -1.92913 1.28744
389 -7.79996 -6.16873 -7.93872 -2.93977 -2.30694 -1.74344
344 -7.81448 -6.74397 -6.92178 0.876163 -0.945911 -1.05519
345 -6.01376 -7.59959 -7.76005 -3.28149 1.53665 1.62179
346 -5.30707 -6.96843 -7.69133 2.34883 2.5354 1.20669
348 -6.24375 -6.92924 -7.07346 0.754162 -2.64344 -0.739699
393 -6.15799 -6.17397 -7.71937 -0.856635 0.585088 1.31565
349 -4.5165 -7.57473 -7.76607 -0.910636 -0.520423 -2.28775
352 -3.8548 -6.805 -7.81456 1.51998 -2.86601 0.568296
634 -4.51721 -6.82582 -6.99348 -0.391745 2.1442 2.43499
638 -3.85889 -6.81629 -6.09042 -0.687167 0.460076 3.88521
397 -4.50866 -5.85451 -7.60959 -1.316 -0.961096 2.22015
355 -2.3001 -7.56648 -6.93279 1.4786 3.68203 -0.821299
356 -3.17076 -6.82696 -6.94721 -2.20301 1.96943 2.84663
401 -3.19899 -6.17586 -7.69978 0.699642 0.835379 -3.0899
689 -3.00274 -6.05962 -6.08838 -0.900875 0.867189 0.532369
642 -2.17215 -6.82483 -6.15361 -1.61751 -0.16855 -1.23195
360 -1.49454 -6.82442 -6.89335 0.997863 1.28053 0.697872
646 -0.774696 -6.97816 -6.20118 0.513028 1.7553 -0.591322
364 0.0637822 -6.80889 -6.93752 -0.201878 1.81545 -2.01058
697 -0.0668217 -6.04579 -6.15946 -0.0703656 3.29368 -1.40636
314 0.543476 -7.722 -7.17034 2.65445 0.328373 -1.31481
368 1.45086 -6.94385 -6.98664 -0.595865 -0.964298 -1.57723
650 0.725311 -6.75851 -6.28142 0.143669 -0.622454 -1.61395
701 1.5169 -6.12742 -6.1365 0.176401 2.65788 1.15723
366 2.18786 -7.01095 -7.75568 3.9976 -2.78124 -0.241113
372 3.13388 -6.85867 -6.99821 0.41409 0.975696 0.86214
415 2.34301 -6.19656 -6.96744 -1.30909 2.92764 -0.0456798
703 2.16769 -7.0536 -6.08259 -1.51492 2.38092 -0.574807
705 2.8968 -6.22889 -6.26277 1.53415 0.225454 -0.097786
371 3.83766 -7.72088 -6.9277 1.09834 -2.7333 -0.6312
370 3.80981 -6.91795 -7.66185 0.593576 -0.360395 0.317832
376 4.60309 -6.93188 -6.94397 0.410382 -1.14099 -1.56963
419 3.80727 -6.16291 -6.96801 -0.355472 -0.798707 1.29426
658 3.86068 -6.97623 -6.15633 1.31306 0.491612 0.269
661 4.4025 -7.77734 -6.1355 -1.25146 0.674008 -0.351892
375 5.41058 -7.74565 -6.72656 -0.655159 -0.541058 2.11126
380 6.12008 -7.05273 -6.7421 1.90085 1.49412 0.422806
381 7.75784 -7.81625 -7.74188 0.728069 2.80408 -1.44231
378 6.79475 -6.89314 -7.73246 -3.06117 1.10042 -0.327841
669 7.55105 -7.66524 -6.06737 -1.04894 -1.27983 1.69482
384 7.51801 -6.89037 -6.99783 -0.762851 0.115898 -1.13491
383 8.26364 -7.48215 -6.83901 -1.46161 -2.07571 -0.0719921
382 8.32402 -7.011 -7.69796 0.631339 0.434355 1.60591
670 8.26222 -6.77464 -6.14838 -0.183068 -1.10947 1.7568
386 -8.42042 -5.4313 -7.76276 -5.2944 0.768786 -1.64435
385 9.12316 -6.05005 -7.7263 -1.5908 -0.628923 0.0691229
388 -9.19718 -5.29108 -7.03918 -0.40958 1.51161 -0.568875
673 -9.21953 -5.90569 -6.20971 -1.50231 1.10864 1.34048
391 -6.89309 -6.19458 -6.93167 -0.0652904 0.216355 -0.0724827
392 -7.72185 -5.64422 -7.06829 0.850762 0.894533 2.42242
395 -5.3755 -6.1977 -7.09214 0.958747 -2.6897 0.824091
394 -5.48127 -5.29106 -7.68567 0.468974 -0.920857 2.73706
396 -6.10723 -5.5082 -7.02444 -0.258702 0.951427 -2.00629
398 -3.87983 -5.07666 -7.60273 1.30356 0.526494 0.353001
399 -3.80966 -6.04533 -6.84199 0.269195 -0.398994 3.48823
400 -4.73202 -5.15044 -6.99286 2.32545 2.82229 0.400092
447 -3.96832 -5.28692 -6.14937 0.0902947 -0.13413 1.22058
685 -4.64669 -6.04879 -6.33001 -1.97286 -0.914095 -3.60036
403 -2.46838 -6.05596 -6.99255 1.39093 -0.0462112 0.934617
449 -2.96149 -4.37297 -7.73218 0.49822 -2.13921 1.20855
404 -3.23004 -5.27164 -6.97873 -0.292882 1.25308 1.41244
690 -2.25152 -5.46335 -6.08924 -1.58892 -0.38024 -2.6646
737 -2.98833 -4.88194 -6.10509 0.3533 -0.802393 0.542278
407 -0.830888 -6.14938 -7.09504 3.04655 -1.05118 -0.738859
406 -0.730314 -5.39016 -7.68457 -1.5193 -0.23986 0.914978
408 -1.52937 -5.43238 -6.99449 -0.462621 2.41915 -0.501385
694 -0.790872 -5.37678 -6.30194 -1.12115 0.2872 -0.619341
455 -0.825339 -4.55201 -6.86107 -0.736341 3.08845 0.192509
412 -0.00741276 -5.45551 -6.97733 -1.58199 0.228954 0.559463
745 -0.00721043 -4.5754 -6.26849 0.714661 0.290615 -3.05241
411 0.847021 -6.08867 -6.95939 0.277912 1.63945 -1.11287
461 1.50354 -4.52917 -7.76657 0.394326 -0.25632 0.848501
416 1.54737 -5.25874 -7.06935 2.60677 0.383909 -0.159066
459 0.789321 -4.48253 -6.85954 -0.702456 0.533789 2.40795
749 1.63406 -4.40291 -6.1366 -0.633196 1.66507 -1.49146
463 2.23152 -4.42387 -6.93014 -1.95987 2.61798 -0.517403
465 3.18447 -4.68293 -7.56878 -2.72712 0.17847 -1.47821
420 3.00275 -5.45893 -6.9571 0.0333054 -1.00069 1.33129
702 2.34141 -5.26547 -6.21937 -0.679854 0.79701 -0.0401545
753 3.00959 -4.60034 -6.2754 1.05468 1.84211 -0.750895
418 3.89893 -5.52486 -7.69757 -1.6963 0.662874 1.77575
424 4.75267 -5.45543 -7.00391 -3.80287 -0.066616 -0.460389
467 3.94278 -4.59692 -6.8136 -0.903274 -1.61306 -0.622756
709 4.35343 -6.15732 -6.25437 0.894828 -0.421712 0.499167
706 3.64079 -5.54261 -6.16856 -0.366913 -0.676469 1.893
757 4.64803 -4.44164 -6.1503 0.39329 -2.1827 -1.28605
423 5.41836 -6.23012 -6.83691 0.560582 2.74854 2.74812
428 6.13905 -5.29747 -6.7884 -1.56642 1.30357 -0.958546
471 5.42461 -4.62847 -6.88698 -0.273524 -2.87332 -0.0697503
713 6.16703 -6.2958 -6.18899 1.60836 0.4808 -0.122022
710 5.29679 -5.39618 -6.22735 2.05969 0.621878 -1.92149
477 7.75882 -4.53375 -7.6513 -3.58837 -1.23493 -0.0965912
427 6.92056 -6.13031 -6.96503 -1.19901 3.45127 -0.389012
432 7.78951 -5.33125 -7.01432 -0.983826 0.0862826 -1.13066
475 6.98329 -4.63999 -6.69876 -1.17855 0.828622 1.02812
717 7.39783 -6.19232 -6.10866 1.57587 -0.0465479 -3.03039
430 8.41534 -5.3774 -7.80355 2.32123 -1.71401 -0.424501
431 8.21227 -6.13923 -7.11325 -0.643839 -1.35075 -0.310864
429 7.62535 -6.25796 -7.8319 -0.105223 1.38792 -2.77131
434 -8.42106 -3.86744 -7.8254 3.58164 1.29029 2.28976
435 -8.2088 -4.80572 -7.0229 -0.317248 3.56584 -1.66888
433 -9.10111 -4.79673 -7.8463 2.97158 1.33203 3.38143
436 -9.17277 -4.00151 -7.05556 1.38033 -1.14648 1.25041
437 -7.71815 -4.6271 -7.83538 -0.84324 0.410861 0.853283
439 -7.1496 -4.67172 -6.86797 -0.852629 -1.98146 1.20365
440 -7.73609 -3.88909 -7.0695 -0.574926 -2.3805 0.573747
152 -6.95122 -3.85113 -7.88635 -0.513638 -0.537991 -0.292375
726 -7.05482 -3.94603 -6.1333 -1.11706 0.196459 0.0593869
443 -5.50264 -4.68721 -6.89044 -0.162062 -1.837 -0.245617
441 -6.38155 -4.73694 -7.57165 2.578 1.19653 -1.25492
444 -6.22616 -3.91733 -6.94403 2.85966 1.08655 1.57393
729 -6.29642 -4.80695 -6.39387 -0.954182 -1.8071 0.537961
446 -3.92126 -3.9658 -7.88384 -3.40074 1.48584 0.483512
448 -4.58585 -4.28956 -6.72398 -1.40556 0.449792 0.4771
451 -2.38369 -4.77188 -6.8501 2.7551 -0.0765695 -0.9515
452 -3.58026 -4.25639 -6.88274 -0.22041 1.10429 -0.839328
499 -2.22318 -3.11481 -7.00865 -0.921047 2.0808 -0.293874
738 -2.34303 -3.87553 -6.45331 1.77398 0.884318 -0.355257
456 -1.42557 -3.87256 -6.96842 0.78973 -0.679982 -1.43039
503 -0.703847 -3.06814 -7.05173 2.02835 -1.09852 1.20262
789 -1.65031 -3.22297 -6.24697 3.18186 0.953696 0.82327
457 -0.0437699 -4.63942 -7.71689 -0.0602961 -0.183009 -0.757853
460 -0.0505415 -3.8634 -7.05603 -0.0258502 -2.78864 0.0597485
464 1.49406 -3.67803 -6.79322 0.142235 3.94988 0.739273
462 2.45945 -3.72804 -7.53104 -1.17867 -1.84672 3.41242
468 3.27077 -3.82654 -6.90789 -1.24392 -2.54369 0.189896
511 2.36395 -2.93428 -6.90506 0.566706 1.07156 -3.05152
801 3.13259 -2.98594 -6.21241 0.774586 -0.624436 -2.91041
466 3.82369 -3.90001 -7.69194 0.712573 -4.15132 -1.2436
472 4.65605 -3.84887 -7.04428 0.668352 -0.458477 0.396349
515 3.86738 -3.02231 -6.78952 0.20431 -2.00327 -0.287881
754 3.8175 -3.79143 -6.1423 -1.21575 0.15943 -1.30536
805 4.70888 -2.98494 -6.30274 2.5036 1.18665 -0.0915068
476 6.04171 -3.79405 -6.85898 2.06693 0.322244 0.422669
758 5.45092 -3.81346 -6.14086 1.85944 -0.23572 1.10391
525 7.82852 -2.93893 -7.6401 2.63529 -1.93663 0.327181
480 7.70126 -3.84049 -6.96275 0.429508 -0.972594 2.07149
813 7.69881 -3.12075 -6.17122 0.538498 1.70136 -0.346837
479 8.55062 -4.74006 -6.84121 0.283166 0.740132 -1.13885
481 -8.98966 -3.137 -7.70326 2.00699 -1.40856 0.18018
483 -8.5172 -3.22714 -6.85042 -1.10124 2.39752 -0.156194
817 -9.18891 -1.49494 -6.22898 -0.97438 1.23396 -0.789389
484 -9.14422 -2.41227 -6.76447 -0.947637 -0.109099 -1.38194
485 -7.81435 -3.15215 -7.7846 0.956856 -1.13279 -0.555955
487 -6.90894 -3.20704 -7.09958 -1.13033 -0.92736 -0.312014
488 -7.69661 -2.39525 -6.96137 -2.37327 2.09863 -1.23959
489 -6.15236 -3.27342 -7.82161 0.462503 -0.865327 0.921131
491 -5.36633 -3.38723 -7.12682 5.24272 1.30999 -0.0488009
492 -5.91035 -2.62273 -6.95624 -0.994168 -0.896692 -1.08719
778 -5.44079 -2.15072 -6.18888 0.722281 -1.04829 -0.12118
537 -6.17398 -1.52863 -7.53328 -1.37338 -3.84948 -0.716139
493 -4.53641 -3.05993 -7.87832 -1.9585 -0.728947 -0.208786
495 -3.9383 -3.24973 -6.92648 1.38976 2.64045 -0.408174
496 -4.82378 -2.4581 -6.89544 0.723228 -0.978888 0.970074
543 -3.77937 -1.58723 -6.89786 0.156254 -0.780496 0.665726
829 -4.68436 -1.5475 -6.26848 -1.53546 -1.39206 0.182883
498 -2.41243 -2.42472 -7.68324 -0.425478 0.144597 2.50191
500 -3.03463 -2.27231 -7.00897 -0.633333 -5.55458 -0.124495
547 -2.26969 -1.67724 -7.06861 1.4792 0.291798 1.43284
785 -3.12907 -2.92959 -6.3166 0.689132 -0.590176 -1.51197
786 -2.24326 -2.38597 -6.22787 0.555976 2.82586 1.52726
502 -0.740248 -2.26183 -7.63528 -0.380881 -1.1435 3.73102
549 -1.51903 -1.54111 -7.72354 -1.45203 0.605674 1.29266
504 -1.50158 -2.38896 -7.03162 -0.638957 0.839648 1.86733
551 -0.826258 -1.51678 -7.04407 1.441 -1.7188 -1.10814
790 -0.872652 -2.4121 -6.24146 -0.70782 -0.749905 -0.742707
553 0.144234 -1.43586 -7.59152 0.599196 -1.20213 -0.222146
508 -0.0596088 -2.24656 -6.89426 0.109515 -0.776706 1.12409
555 0.953845 -1.81184 -6.89482 1.03854 0.0344558 1.61727
507 0.826911 -2.7545 -6.86749 0.300417 1.08638 2.49058
512 2.34616 -2.1888 -7.70476 0.517659 -0.359481 -2.13875
845 1.76724 -1.31526 -6.29239 1.97922 -2.96298 -0.712328
794 1.90855 -2.15246 -6.83428 -1.90659 0.165448 1.79994