ITEM: TIMESTEP
12000
ITEM: NUMBER OF ATOMS
6912
ITEM: BOX BOUNDS pp pp pp
-9.2265715179435492e+00 9.2265715179435492e+00
-9.2265715179435492e+00 9.2265715179435492e+00
-9.2265715179435492e+00 9.2265715179435492e+00
ITEM: ATOMS id x y z vx vy vz
262 -0.67233 -0.900794 -9.2256 0.646487 0.316787 -0.987904
57 -6.1067 -7.85893 -9.0903 0.767045 -0.0961962 -0.226272
313 -0.00232737 -9.06387 -7.73602 -0.953127 -2.55038 -0.511663
8 -7.61558 -8.52028 -8.60505 -0.447311 -1.7357 1.59037
341 -7.79014 -7.82242 -7.57884 -2.22579 -0.759541 1.6433
1921 -9.12137 -3.02843 -0.139722 -0.0127748 -0.653941 2.61629
4033 9.18849 -0.00767585 -6.03948 -0.251491 -0.0410857 0.895649
12 -6.3576 -8.67366 -8.5259 -1.86691 -2.02782 -0.173477
59 -5.48576 -7.71594 -8.35726 1.16239 -2.5127 -1.35497
5185 9.1794 -0.0827983 -0.208782 -0.941494 4.20594 -0.451546
298 -5.3865 -8.58904 -7.7241 2.78546 1.37746 0.420702
16 -4.60697 -8.46949 -8.4666 1.71154 -2.02495 0.527249
63 -3.76863 -7.44828 -8.46546 1.00542 -1.94571 0.37572
302 -3.80809 -8.34451 -7.75413 -1.33139 -2.02683 -0.833513
349 -4.59068 -7.72767 -7.74935 -0.95508 1.73368 1.215
4035 -8.58227 -0.0224931 -5.29671 0.367108 -2.2478 0.729786
20 -3.03936 -8.38723 -8.53991 -0.677322 -1.03717 -0.165245
306 -2.06426 -8.36881 -7.74533 -0.00724535 -1.1153 0.920767
67 -2.25923 -7.77619 -8.50308 -2.32681 3.30467 1.56859
353 -2.80398 -7.56575 -7.7917 -0.14288 -0.315064 0.74486
58 -5.58673 -7.03159 -9.12559 0.738618 -1.19113 0.277377
4911 -3.80688 -0.0349687 -0.761015 -2.14984 2.80414 1.4566
24 -1.46603 -8.53862 -8.63996 -0.280542 -2.19286 0.686321
310 -0.943261 -8.44878 -7.74096 -2.08898 0.751372 0.290864
28 0.00876565 -8.32226 -8.33864 -1.43596 0.745502 -3.00533
361 0.0375543 -7.52297 -7.73102 -0.582005 0.86882 0.402591
226 3.85914 -2.46934 -9.18209 -0.847448 2.12753 -3.20624
32 1.56771 -8.24171 -8.55206 0.823734 -0.908199 1.80275
86 5.48705 -6.83233 -9.07232 1.03228 0.717238 -0.945937
4071 5.27795 -0.0476704 -5.24232 -2.33352 0.108953 0.98556
36 3.16115 -8.50709 -8.49779 -2.21912 1.55401 1.70296
79 2.32195 -7.68195 -8.41432 -1.98738 -1.74194 -0.193222
369 3.14726 -7.65303 -7.81378 -2.36582 -0.557291 1.72672
118 -0.865777 -5.3591 -9.1635 0.876454 0.653104 -0.205779
31 2.27345 -9.17018 -8.44235 -1.18295 -0.154555 -1.01786
3477 -1.53176 -0.183718 -9.14024 0.864803 -1.04266 -0.699914
40 4.59162 -8.3627 -8.33831 -1.18736 -1.79318 -2.10778
322 3.90777 -8.43329 -7.6478 -0.761505 0.270421 -1.21578
373 4.62992 -7.64758 -7.54775 0.391496 2.21288 -0.647501
250 -5.3794 -0.769145 -9.10805 1.10152 -0.405441 -2.3459
35 3.85205 -9.19584 -8.42019 -1.50335 -1.54349 -0.101594
44 6.28997 -8.38685 -8.52562 -1.60539 -1.83845 -0.238056
326 5.59159 -8.38693 -7.71903 0.659866 -2.28535 1.8127
307 -2.22094 -8.86409 -6.87769 0.63387 0.18614 -0.442591
273 3.14539 -1.54529 -9.03742 -0.659872 -0.991949 2.67197
48 7.71159 -8.49892 -8.46849 -2.10156 1.11564 -2.1236
91 7.00181 -7.61265 -8.45524 -1.4933 -1.97799 -0.632173
330 6.86038 -8.49775 -7.64981 0.299863 0.355691 -1.65156
3767 -0.78927 -0.111991 -6.96239 -1.55581 0.202726 0.235579
1441 9.18122 -9.05766 -1.57637 -0.0964095 0.0907766 2.17642
4 -9.20068 -8.58239 -8.53364 0.456095 1.024 -0.914033
95 8.36602 -7.81308 -8.40152 -0.352802 -1.10343 -2.57697
334 8.45557 -8.61276 -7.67628 1.09266 -0.295465 1.50438
51 -8.56259 -7.71666 -8.62406 0.467787 -0.509415 0.201036
99 -8.53057 -6.29724 -8.45121 -0.749729 1.20805 2.53477
337 -9.16855 -7.8364 -7.76104 0.0980537 1.57578 0.759781
338 -8.48086 -7.11102 -7.68707 2.64553 0.257845 1.8205
385 -9.14735 -6.44306 -7.64966 0.860685 -2.24401 -2.05692
89 6.13528 -7.591 -9.2075 -1.08878 -1.40904 0.824018
56 -7.64687 -7.08852 -8.62654 0.0113996 0.770732 -1.31731
55 -7.01109 -7.86414 -8.37404 -0.2351 1.37669 -2.09504
4903 -6.88622 0.00021086 -0.760576 0.402382 1.18568 -1.64626
1789 -4.67063 -7.53493 -0.0438115 -2.75403 2.11431 -1.13646
4053 -1.56619 -0.0977245 -6.2662 -0.554392 -0.917847 0.62494
60 -6.30647 -6.95031 -8.45645 1.38871 0.17149 -2.20262
346 -5.45257 -7.03124 -7.69654 2.32042 3.21515 2.71718
3459 -8.60029 -0.0923235 -8.49978 1.23288 0.891126 1.9701
325 4.7331 -9.14425 -7.64387 1.44949 1.9952 -1.14052
64 -4.77928 -6.9524 -8.44912 0.121338 1.39844 0.737142
111 -3.96429 -6.26442 -8.43699 0.247208 1.31237 0.0686664
68 -3.04335 -6.74672 -8.50754 3.68128 0.482736 -0.000337591
115 -2.2365 -6.00552 -8.49855 -0.538345 -0.271761 1.0312
4357 4.55582 -0.0368216 -4.53455 -2.17372 0.380893 1.32965
71 -0.737762 -7.63533 -8.60113 -0.221755 1.0654 -1.56396
72 -1.62875 -7.02731 -8.59195 0.264253 1.75399 0.725588
358 -0.749567 -6.92285 -7.86584 -3.52552 -3.58357 0.582527
76 -0.142493 -6.72354 -8.5951 -1.92703 -2.06171 -1.73169
119 -0.847071 -6.06063 -8.51348 2.86951 1.36277 -1.23562
75 0.719775 -7.58992 -8.52328 -0.377392 -0.425563 1.43473
80 1.50656 -6.93485 -8.47915 -1.24459 -2.47407 0.997654
365 1.52052 -7.61776 -7.71123 -1.15996 2.68111 0.856343
362 0.653647 -6.66532 -7.80508 1.18703 -0.00514625 0.236842
1794 -2.31938 -6.93558 -0.028222 1.44802 -0.00766842 -0.0822331
153 -6.17962 -4.56102 -9.2008 1.47313 -1.5142 -1.75195
84 3.14359 -6.82233 -8.45392 0.966655 -1.32483 -0.523166
177 3.23877 -4.72208 -9.12119 -0.0375434 -1.63587 -0.777397
83 3.7864 -7.48337 -8.55149 1.96461 -0.781549 -0.233305
88 4.63007 -6.94469 -8.32005 -1.09324 -1.21542 -1.16405
370 3.85189 -6.91079 -7.61975 -1.67379 -1.31367 0.582597
87 5.56942 -7.49853 -8.33122 1.2633 3.16276 -0.346873
92 6.38337 -6.84696 -8.28231 0.35545 2.99617 0.48567
3481 -0.102544 -0.159097 -9.08394 -0.587865 -2.03757 1.03873
139 7.05293 -6.17311 -8.41096 -1.19429 0.00173549 0.590889
381 7.6908 -7.90717 -7.6631 -0.464837 1.5829 1.91921
378 7.21273 -7.0013 -7.71321 -0.123352 0.676779 1.00694
110 -4.0429 -5.49465 -9.12043 0.143529 2.27715 1.54806
52 9.21261 -7.06982 -8.47203 0.0291694 -0.635825 1.73778
96 7.7634 -7.05843 -8.5939 -0.520244 -3.75514 0.477474
143 8.61853 -6.25035 -8.43153 -1.95801 -0.668658 -1.7565
386 -8.60016 -5.6069 -7.75281 -0.778648 1.3318 -2.16965
100 -9.22069 -5.50818 -8.54958 0.49697 2.1978 0.930438
433 -9.20697 -4.75105 -7.5992 3.56241 0.246692 1.52852
103 -7.04737 -6.26672 -8.46899 1.25768 1.19017 0.489152
104 -7.79849 -5.46287 -8.28334 0.613284 0.343262 -1.12487
437 -7.94751 -4.44815 -7.79644 -0.544227 -1.69467 0.45468
389 -7.75959 -6.35385 -7.78699 0.140593 -0.31051 0.269708
390 -6.91435 -5.56684 -7.61953 -0.744525 1.10917 1.89651
107 -5.43868 -6.22005 -8.43173 0.857324 0.0504558 -2.28748
108 -6.28378 -5.37583 -8.41877 -3.50914 -1.14449 -0.144713
393 -6.10866 -6.17197 -7.76702 -0.537978 -1.02103 -0.44861
441 -6.36573 -4.66976 -7.75651 -0.291072 2.09336 -3.24935
4073 6.06241 -0.0924134 -6.01989 0.299566 1.77026 -0.823429
112 -4.68346 -5.494 -8.31349 0.0914355 -1.34145 -1.14812
159 -3.95805 -4.75615 -8.596 0.267622 -0.178524 0.892906
4651 6.91612 -0.0554712 -2.33971 1.61363 1.7995 0.904964
398 -3.89741 -5.72663 -7.63965 -0.0258816 2.00155 1.89325
116 -3.17358 -5.52711 -8.55032 -2.28087 -0.0365 3.05471
163 -2.48476 -4.71958 -8.34702 1.11628 0.318855 1.62675
2010 6.85186 -0.766345 -0.0203102 0.691934 -2.52032 0.611781
3483 0.808015 -0.0976552 -8.677 2.42711 -0.223188 -0.129308
402 -2.30781 -5.43552 -7.5907 -1.54152 -0.561711 -1.14238
165 -1.5047 -4.70301 -9.1472 -0.174257 -1.3462 0.311233
120 -1.5624 -5.37414 -8.3591 -0.655208 -1.71652 -0.908172
3789 7.69606 -0.136273 -7.75324 1.99947 -0.620547 -1.86767
406 -0.882459 -5.1798 -7.6048 -0.841242 -1.05835 1.21536
124 -0.130761 -5.26723 -8.50838 -0.142647 0.426009 1.12872
4037 -7.83987 0.00138374 -6.13913 1.41275 0.741162 0.298305
1810 3.87447 -6.92483 -0.229826 -1.00818 -0.509957 -2.10187
217 0.00977864 -3.23603 -8.9728 -0.269234 -0.653344 -0.114508
123 0.58467 -6.11292 -8.5616 0.508596 1.38083 1.60227
128 1.44922 -5.44023 -8.51514 -0.301365 -1.17033 0.574796
171 0.867112 -4.58936 -8.32392 -1.74288 0.646517 -0.0291185
127 2.21858 -6.00686 -8.44821 0.59871 1.0716 -0.159382
132 3.18306 -5.47181 -8.29422 0.00687692 0.713047 0.322442
1882 -5.22601 -3.75348 -0.0831557 -0.0879097 0.955199 -1.33671
131 3.86577 -6.15973 -8.32467 -2.23433 2.21531 -3.50649
136 4.69214 -5.16163 -8.27951 0.503586 -2.01749 -1.51757
907 6.99974 -9.10463 -3.6858 1.08078 0.00174838 -0.960148
135 5.40728 -6.07589 -8.28933 -0.469636 -0.244053 -1.12092
140 6.29189 -5.45231 -8.18919 -0.0205616 -2.09122 2.57158
183 5.38868 -4.45155 -8.46088 1.71904 1.36767 2.86173
473 6.14313 -4.58882 -7.66211 -1.30702 0.916812 -1.83616
429 7.84504 -6.33167 -7.89295 4.24688 0.649165 -0.595254
144 7.9199 -5.47467 -8.51204 -0.81619 -2.74696 0.467921
187 7.0111 -4.57236 -8.39333 2.13534 -1.15907 -1.57407
191 8.55906 -4.67384 -8.50881 -0.00376686 0.0597629 2.87137
430 8.47202 -5.41032 -7.69695 -0.543491 0.366681 2.0668
147 -8.60637 -4.70579 -8.59862 -0.344332 0.052712 -1.17353
195 -8.61939 -3.10619 -8.40605 1.25192 -1.22106 1.46234
151 -7.04083 -4.79185 -8.45672 -1.20821 2.11941 -1.01523
152 -7.76861 -3.75006 -8.4915 0.781498 -2.5619 -0.237648
199 -7.00245 -3.11077 -8.37393 -1.1207 1.38067 -1.14411
485 -7.78482 -3.09087 -7.76271 0.192636 -0.0738151 -1.2401
438 -7.15218 -3.92472 -7.74463 0.796394 1.36882 3.25711
901 4.67471 -9.18402 -4.64869 0.863117 -0.883465 0.667985
155 -5.24884 -4.54993 -8.52688 1.39378 -0.0585342 0.54022
156 -6.30848 -3.8437 -8.372 0.780672 0.313073 -0.595326
203 -5.59907 -3.16626 -8.49473 -1.24341 -0.937044 0.71228
442 -5.47912 -3.91272 -7.80419 0.901658 0.353948 -0.666715
160 -4.47999 -3.85443 -8.33172 0.119988 1.11702 -0.251763
207 -3.73548 -3.08181 -8.35414 -0.096677 -2.53637 0.573748
449 -3.21788 -4.79914 -7.65508 -1.32964 -1.64638 -3.60397
164 -3.21796 -3.96816 -8.51197 -0.479679 0.925598 0.374735
450 -2.50135 -4.00169 -7.63848 0.0178302 -1.03007 1.79791
453 -1.59168 -4.47599 -7.60705 -0.108223 -2.41051 1.25438
168 -1.69086 -3.88071 -8.35639 1.43873 -0.108465 2.30284
215 -0.880266 -3.24028 -8.50654 -0.745996 0.298317 1.44625
167 -0.901841 -4.58821 -8.29974 0.713631 0.0888057 1.1141
454 -0.742635 -3.83958 -7.66643 -0.68119 -1.87771 0.423256
172 -0.035295 -4.00401 -8.39103 1.12015 2.2742 1.60129
1187 3.89793 -9.18049 -2.51198 -1.03741 0.424131 -0.765619
265 0.06937 -1.61617 -9.16403 -0.279364 -2.83581 0.434844
176 1.55294 -3.84983 -8.3344 1.4994 -0.902023 -1.28099
1942 -0.86301 -2.38457 -0.11402 2.20623 0.0272662 0.235971
129 3.008 -6.08761 -9.14902 -0.771918 -0.270989 0.252065
38 5.46153 -8.29149 -9.10927 -1.55877 -2.38112 -1.62587
175 2.27084 -4.8126 -8.42381 2.42355 1.92547 -1.91996
180 3.15651 -3.90047 -8.26215 -2.83187 0.485568 -1.60968
109 -4.74159 -6.23343 -9.11623 0.315806 -2.48387 1.06777
179 3.94697 -4.6343 -8.40365 -1.55869 1.46633 -1.47654
184 4.58335 -3.82949 -8.37954 -2.00952 2.03846 -0.33143
227 3.85682 -3.11471 -8.37168 -2.37552 -1.67851 -0.70444
469 4.69893 -4.41559 -7.47405 2.71447 -0.035523 -1.94974
3499 6.72585 -0.0582057 -8.54132 0.776436 -0.657634 -2.26369
188 6.26801 -3.86908 -8.42377 0.722891 0.0464075 -1.92803
470 5.44411 -3.83406 -7.71343 -0.854676 1.5398 1.08449
2013 7.72783 -1.46139 -0.169357 -1.94746 -0.479037 -1.30987
192 7.91471 -3.97508 -8.43959 2.33737 0.117944 2.10115
10 -5.41496 -8.53635 -9.00142 -1.7662 -1.67995 -0.010715
474 6.91936 -3.84429 -7.69061 0.144293 -0.447581 -2.54961
266 0.896842 -0.869328 -9.13906 0.448711 1.67681 -2.63893
148 9.2177 -4.07601 -8.30098 -0.985448 -0.126462 0.752389
478 8.52627 -3.82484 -7.61079 -0.813669 1.15112 -0.984808
482 -8.48921 -2.34161 -7.66797 0.237764 0.0594285 0.4553
200 -7.61895 -2.2969 -8.42506 1.54894 -0.213059 1.10954
196 -9.06957 -2.23861 -8.46545 0.172299 2.32082 -0.0869872
243 -8.39256 -1.53815 -8.48164 -2.33438 0.295225 -1.98984
611 3.9134 -9.20426 -5.29615 -0.720561 -1.91239 2.03957
289 -9.17658 -9.16828 -7.80119 0.78214 0.691534 -3.2282
1981 -4.60411 -1.60656 -0.0472765 2.70076 -0.238612 -1.27084
247 -6.83741 -1.45292 -8.39634 -1.1008 0.373691 0.211493
486 -6.98127 -2.13941 -7.68017 0.139987 -1.22598 -0.682193
204 -6.14012 -2.33921 -8.51147 -0.312191 -1.26217 -0.0783284
251 -5.35558 -1.67406 -8.5704 2.12877 -0.297302 0.0597823
490 -5.37355 -2.34489 -7.54029 2.62136 1.90308 -0.642133
214 -0.759872 -2.5115 -9.14549 -0.204018 -0.00646041 -0.95302
208 -4.6023 -2.32222 -8.45011 0.857538 0.424029 2.11091
494 -4.02565 -2.29063 -7.6981 -4.22034 -3.23541 -0.0832539
255 -3.89093 -1.61998 -8.55764 -0.76959 1.8236 -1.36144
493 -4.65474 -3.05203 -7.71226 -1.07425 1.88966 -0.0623332
541 -4.82752 -1.63142 -7.74343 1.73194 -0.301852 -0.596147
211 -2.46629 -3.23886 -8.41666 0.481276 -1.18193 -0.221675
212 -3.20367 -2.32827 -8.65628 -0.967692 -3.16449 -0.0844279
498 -2.44904 -2.3529 -7.70983 -0.0221746 -0.643793 -0.353307
595 -2.31295 -9.08032 -5.34245 -2.64469 -0.436762 1.7836
4639 2.30842 -0.061317 -2.34873 -1.35686 -0.311557 0.664023
1774 8.36112 -8.35017 -0.14078 -0.0126677 -0.420561 -2.1812
3791 8.37302 -0.0213812 -7.10354 -1.1786 -2.36855 2.68205
216 -1.67525 -2.36748 -8.47879 -2.81436 -2.53696 0.872269
502 -0.99709 -2.25365 -7.6677 -0.341063 2.46074 2.12574
263 -0.815429 -1.58102 -8.4282 0.115637 1.21182 -1.43328
220 -0.0200358 -2.35948 -8.45589 -0.527221 1.94829 3.09218
219 0.715718 -3.03561 -8.26844 -0.165244 1.10451 2.28286
224 1.50852 -2.35507 -8.27352 -2.62322 -2.08373 -1.14531
267 0.754296 -1.60591 -8.43037 0.533638 2.89978 0.374329
319 2.27471 -9.10154 -6.95579 -1.47934 -0.203536 -0.132488
3753 -6.19673 -0.0677551 -7.64404 -0.178171 0.22219 0.0407714
223 2.33555 -3.12169 -8.3712 0.09922 0.986514 0.657924
228 3.17962 -2.38517 -8.33521 -0.578517 1.97195 -2.68592
510 2.41862 -2.47289 -7.57353 -0.0927995 0.0899001 0.507522
517 4.57459 -3.02331 -7.60163 0.537645 0.695488 -0.937858
232 4.54214 -2.26168 -8.40374 -0.510879 0.190799 -0.261575
514 3.7793 -2.39155 -7.50325 0.775848 -0.886846 3.17429
565 4.61476 -1.54666 -7.47532 1.64971 -1.18236 0.0546674
231 5.35591 -3.01799 -8.38581 -1.80547 -0.63697 0.436935
236 5.93763 -2.18242 -8.36832 -2.64016 -0.540139 -1.52498
279 5.28221 -1.49069 -8.40129 -0.717082 1.62835 -1.92436
174 2.41322 -4.04551 -9.04712 -3.62612 -0.484466 -1.53417
235 6.91041 -3.05979 -8.38907 1.0948 1.82593 -0.949135
240 7.64887 -2.26368 -8.34139 0.491926 0.334345 -1.57952
283 6.75768 -1.40831 -8.38155 -0.188061 -0.766978 0.311734
525 7.77898 -3.06745 -7.51096 -0.862264 -0.457714 -0.543377
237 7.66263 -2.91129 -9.06864 -0.792422 -1.76823 1.93144
149 -7.76254 -4.61596 -9.11757 1.39245 -1.79731 -0.992325
239 8.47726 -2.97232 -8.26816 -0.351379 0.818402 1.21989
4905 -6.24181 -0.0819227 -1.54458 0.0342158 -1.06046 0.279143
244 -9.17967 -0.876878 -8.4132 -1.07092 1.63315 -0.566079
877 -4.55395 -9.148 -4.44441 0.315193 -1.3302 -0.175443
1846 -0.765206 -5.36928 -0.0952348 -1.22485 -0.712135 2.05217
248 -7.64284 -0.585354 -8.44533 -0.217753 0.378504 -1.37233
4919 -0.860313 -0.0931428 -0.818001 1.22542 0.995562 1.12831
233 6.07222 -3.10196 -9.19844 0.0397266 0.305874 -1.793
591 -3.97294 -9.12261 -5.40202 1.4447 0.479561 -0.938034
141 7.91207 -6.24671 -9.17721 -1.0946 1.22891 -2.23113
252 -6.22403 -0.696073 -8.46622 0.676887 -1.46965 -1.80448
4617 -6.20801 -0.106797 -3.07402 -0.293031 2.30421 -2.23805
538 -5.56382 -1.0259 -7.80638 -1.06741 0.844767 -0.0764902
138 7.10033 -5.43031 -9.21432 1.05432 -1.61842 0.639461
256 -4.65877 -0.770997 -8.47684 -1.02204 0.917093 -0.181928
542 -4.03879 -0.757574 -7.61393 -0.461841 -0.162749 -0.661764
274 3.77953 -0.773879 -9.14547 -2.60537 2.20923 0.0350481
311 -0.62957 -8.91894 -6.84228 0.0324593 0.986559 -1.66962
259 -2.4512 -1.58313 -8.53873 0.101698 -0.173037 -0.821805
260 -3.30465 -0.756037 -8.26633 0.550414 1.15255 -0.276613
546 -2.34185 -0.682519 -7.55623 0.187127 2.42563 -0.875935
545 -3.1362 -1.57374 -7.58975 -1.02716 0.553762 3.05239
4061 1.64664 -0.0364773 -6.16251 1.69919 2.31351 -0.716653
130 4.05949 -5.39486 -9.08955 0.728544 3.02313 -0.1208
264 -1.55128 -0.909097 -8.56176 -2.16038 -1.31367 -2.42826
197 -7.62927 -3.11067 -9.14843 -1.96834 -0.372501 -1.17224
4935 5.38955 -0.0672231 -0.806053 -1.89425 -0.772304 -0.0452496
4635 0.744185 -0.0397212 -2.53864 -0.85503 -1.25182 -1.99358
268 0.0474605 -0.856408 -8.45629 0.415841 -0.845181 -2.61085
3763 -2.43212 -0.00530537 -6.87681 -1.03384 -0.807053 -0.978988
272 1.71275 -0.829072 -8.33875 -0.137327 0.606278 1.84265
554 0.797981 -0.82435 -7.63421 0.221673 -1.61946 -1.28384
557 1.59513 -1.57824 -7.54066 0.251115 1.36182 0.320384
1727 8.55496 -1.65647 -0.773771 -0.288304 -1.20959 0.0758923
269 1.62709 -1.57149 -8.99618 -0.553175 -1.10355 -0.0579184
271 2.39728 -1.56948 -8.20972 0.519737 -3.32134 1.40568
276 3.19572 -0.846833 -8.3294 1.22721 -1.0113 -0.0281048
561 3.15429 -1.57555 -7.52445 0.221223 -0.804662 -1.08531
558 2.4757 -0.845199 -7.4215 -0.164275 0.457202 0.935628
275 3.86565 -1.69112 -8.21375 -3.28414 -0.96808 -0.710043
280 4.47038 -0.843809 -8.36073 1.92995 -0.148154 -0.349846
562 3.91618 -0.643358 -7.54119 -0.796611 1.37079 -1.46097
2005 4.69937 -1.62753 -0.0866516 1.1656 -0.140525 -2.4611
1181 1.55521 -9.13517 -3.11146 -2.67662 -2.74222 -0.129211
569 5.96927 -1.59912 -7.5848 0.923937 -0.344828 -0.622651
284 6.00347 -0.757033 -8.54129 0.142044 1.28404 0.905997
288 7.69043 -0.744519 -8.60807 -2.65595 0.710016 1.33364
1465 -0.0941615 -9.15998 -1.39903 -0.314661 -0.276275 1.14161
287 8.35411 -1.50776 -8.49457 -0.725895 -2.06182 -1.22803
194 -8.43067 -2.4641 -9.21828 0.36729 -0.0622439 -0.59118
290 -8.42376 -8.56541 -7.70012 -0.486025 -2.01118 -0.489032
339 -8.52128 -7.79929 -6.81223 -0.454771 2.34011 -2.4037
1197 7.78354 -9.19256 -3.11165 1.64436 -1.564 -2.39165
294 -7.03615 -8.54648 -7.68723 1.06953 0.112244 0.371242
296 -7.88454 -8.58819 -6.84865 -2.24641 -1.61992 -0.287346
582 -6.99755 -8.46766 -6.13336 0.145883 0.965006 -0.565739
629 -7.74718 -7.78424 -6.17204 0.321792 -0.991754 0.158189
300 -6.23291 -8.5014 -6.84739 1.3715 -0.486493 -0.521226
347 -5.46187 -7.80154 -7.00075 1.96969 1.44626 -0.925388
586 -5.53426 -8.41752 -6.04085 0.158909 -1.86656 -0.112549
299 -5.44528 -9.04692 -6.83096 -0.604375 1.79648 -0.664232
304 -4.60721 -8.40286 -6.99848 -1.39975 0.886833 0.229295
351 -3.85712 -7.71254 -6.84576 -0.243321 1.28469 0.150123
590 -3.86253 -8.38598 -6.06204 1.34113 2.05419 -1.7766
637 -4.69629 -7.7375 -6.07336 -0.101463 -0.876898 0.0184557
308 -3.0514 -8.34061 -6.78724 1.0252 0.0949708 0.417296
355 -2.19037 -7.71703 -6.99561 0.600297 1.31616 -1.2739
594 -2.29143 -8.31829 -6.11729 0.515731 0.489673 -1.43942
641 -3.11199 -7.52664 -6.12539 2.24497 -1.39512 -0.491491
357 -1.40939 -7.5389 -7.74533 0.951249 -0.413603 -0.175212
312 -1.43508 -8.32545 -6.89077 -0.440757 -2.54307 2.39365
359 -0.624931 -7.6476 -6.92888 -1.12418 -0.0257036 0.905417
645 -1.63175 -7.60322 -6.09723 1.09475 -1.31381 1.21502
598 -0.624315 -8.27279 -6.07606 0.983551 -2.24622 1.15921
316 0.184741 -8.38932 -6.90647 -0.614413 0.405302 -0.0389876
649 0.0426783 -7.41759 -6.15787 -0.256919 -0.428499 -2.29524
1195 6.88945 -9.1325 -2.3127 -1.65941 -3.26029 -2.1951
186 6.94148 -3.87751 -9.22348 -0.0394394 1.02321 -1.32684
314 0.798027 -8.44049 -7.82645 -1.89656 0.0972527 0.732912
320 1.46623 -8.38592 -7.08843 -0.0970423 0.70115 -0.426544
602 0.891512 -8.35294 -6.17535 0.931989 0.434932 -0.159865
4327 -6.84647 -0.0377614 -3.96241 1.95846 -0.983133 -0.752953
318 2.40211 -8.46849 -7.80467 3.10021 -0.258518 0.560597
324 3.05757 -8.40598 -6.922 1.56635 0.595576 0.0847524
657 3.05655 -7.70427 -6.14635 -0.34089 -2.74461 -0.78008
367 2.36413 -7.70841 -6.99474 -0.59231 -0.384436 -0.550484
270 2.42721 -0.820587 -9.10918 -2.80009 0.853983 -0.841099
328 4.82142 -8.66532 -6.72736 -1.43881 -1.99478 1.01489
371 3.87665 -7.69286 -6.93159 0.55475 -0.48819 0.560181
661 4.76898 -7.76304 -6.20451 0.650355 -0.400222 0.206259
4335 -3.79133 -0.0543707 -3.99817 -2.13275 -0.256142 -0.313984
332 6.16793 -8.35841 -6.92842 1.48807 0.17809 0.737618
375 5.42152 -7.69979 -6.92391 -1.94338 -0.228617 2.46989
3775 2.36616 -0.0260733 -6.90644 -0.0780413 1.02975 -0.445441
317 1.515 -9.18161 -7.71082 1.59569 1.41797 -1.43753
875 -5.42004 -9.21333 -3.77494 -1.32918 0.935649 0.439645
336 7.755 -8.61996 -6.81796 -0.698542 0.339108 -0.431508
618 6.86066 -8.58265 -6.20317 0.98846 -1.17979 -1.55557
379 6.94349 -7.74805 -6.84365 1.29834 -0.523899 1.31808
669 7.58133 -7.73879 -6.10308 -0.110831 -1.67728 -2.57628
292 -9.19971 -8.55461 -7.03824 -0.795819 1.91636 -1.94516
383 8.30656 -7.77053 -6.82259 0.161664 -0.810307 -3.41527
1725 7.69957 -1.46647 -1.43758 1.75305 -0.428282 -0.0369595
344 -7.61666 -7.06482 -6.94819 1.95076 0.36919 -0.847869
340 9.18347 -6.93891 -6.69948 0.118677 0.192537 1.08838
343 -6.93648 -7.83079 -6.95485 -0.0136054 1.25211 0.392281
342 -6.95203 -7.04463 -7.65382 -1.70873 0.34826 0.773005
391 -7.00306 -6.19344 -6.84982 1.14968 -1.93681 0.980873
345 -6.24626 -7.93919 -7.77511 -0.0808988 -0.420259 -0.100526
348 -6.15151 -7.158 -6.816 -2.6533 -1.29207 0.992275
681 -6.19374 -6.20433 -6.23667 -0.991554 2.16777 0.000516242
633 -6.18413 -7.70686 -5.97219 0.790327 -0.799003 -2.41872
350 -3.78238 -7.06606 -7.61436 -1.93689 -0.370361 0.537265
352 -4.66354 -7.1176 -6.94349 -1.85921 0.965155 -0.0978157
397 -4.68686 -6.33265 -7.58367 -0.370501 -0.37465 -1.73541
685 -4.6509 -6.11853 -6.26186 -0.105471 -1.81669 1.7086
638 -3.93457 -6.96808 -6.13241 -0.855775 -1.45239 2.13558
354 -2.19425 -6.79843 -7.85951 -0.761065 2.8533 -2.10559
356 -3.05312 -7.10174 -7.01152 0.346486 0.534903 0.893219
403 -2.31875 -6.33575 -7.03838 -3.32802 0.0162915 0.42818
642 -2.35602 -6.90055 -6.18397 -0.467447 0.701272 0.682432
405 -1.42945 -6.09887 -7.54264 -0.99543 1.3688 1.3993
360 -1.50481 -6.91814 -7.05859 -0.33619 -0.819884 1.47662
646 -0.809352 -6.8984 -6.09679 1.13568 -1.6225 0.985743
363 0.926066 -7.52811 -6.94319 0.973782 -1.11466 -0.791131
364 0.110151 -6.91751 -6.89364 -1.03936 -1.46112 3.40705
697 -0.0185605 -6.20735 -5.9629 1.61974 -0.412391 -1.66142
413 1.58564 -6.31147 -7.64433 0.583268 0.531291 -0.524539
650 0.786973 -6.79842 -6.14644 -0.400254 0.638176 1.2764
368 1.62545 -6.82212 -6.84955 -0.394205 -1.94371 -0.102867
411 0.759588 -6.1338 -6.77961 -0.967335 -0.994669 0.172376
701 1.56448 -6.07197 -6.08045 -0.153335 0.0470376 0.534222
417 3.00065 -6.12386 -7.49348 0.130955 1.09744 -2.48767
366 2.3816 -6.96871 -7.70419 -2.77714 1.31479 2.18014
372 3.02784 -6.9304 -6.90888 1.4325 0.557229 -0.0454262
654 2.38751 -6.91019 -6.07377 -1.44158 1.28698 -1.22771
421 4.58634 -6.19745 -7.6812 0.185411 -1.25361 1.48614
376 4.57142 -6.89606 -6.82147 -0.828992 0.913066 1.16582
425 6.09267 -6.18557 -7.54482 -1.53693 -1.2991 -0.150602
374 5.36183 -6.84652 -7.54786 -0.0683986 0.882359 -2.29149
665 6.25348 -7.70494 -6.09998 -0.900152 0.878972 -1.49292
377 6.29688 -7.55592 -7.61208 5.76622 0.194781 -0.107869
380 6.29651 -6.87471 -6.91332 1.41187 -0.414389 1.86346
662 5.50572 -6.99595 -6.05344 -1.22128 0.837544 -0.75175
384 7.75074 -6.95551 -6.83097 1.41525 -0.172209 0.952751
666 6.98906 -6.83961 -6.17373 -0.236718 0.992113 -0.499364
382 8.46811 -7.26443 -7.63233 0.926905 2.04555 -0.300229
431 8.39653 -6.12563 -6.99845 -1.28669 -0.357078 0.507777
670 8.39445 -7.05197 -6.12483 0.136543 1.85106 -2.1849
387 -8.37486 -6.19398 -6.91382 0.242182 -1.00215 0.328165
435 -8.36696 -4.64734 -6.94415 -1.79817 -1.76193 -0.861053
392 -7.70026 -5.36741 -6.96747 -1.31475 2.30325 -0.430084
678 -6.90711 -5.44503 -6.28454 1.60906 2.07482 -0.793278
394 -5.44279 -5.40853 -7.72706 -1.11974 -2.23373 0.646856
395 -5.4963 -6.14644 -7.00095 -0.582994 2.74645 -0.209376
396 -6.17257 -5.25922 -6.89667 -1.38132 1.21819 0.400865
682 -5.29068 -5.41353 -6.2243 2.02799 -2.57827 -0.440755
399 -3.78852 -6.34777 -6.94682 1.94487 2.07519 1.72443
400 -4.67719 -5.48529 -7.01349 0.0737857 -0.0615117 -1.22251
445 -4.34419 -4.71389 -7.71815 -2.24964 4.16582 2.64255
447 -3.88107 -4.72947 -6.89812 -2.95663 0.83534 -2.46588
686 -3.80764 -5.4643 -6.12096 -0.304821 -0.239408 0.854246
401 -3.04049 -6.20947 -7.65955 -2.6622 -0.569214 -2.17847
689 -3.18821 -6.2592 -6.09725 -0.566269 -0.154176 0.784878
404 -3.17353 -5.47184 -6.89746 0.10041 2.18666 2.30153
690 -2.43989 -5.53385 -6.24381 0.294734 -0.836969 1.66942
451 -2.32537 -4.71975 -6.95676 -1.747 -1.4424 -1.7808
737 -3.10386 -4.7211 -6.04348 -0.551718 -0.922778 0.0560718
693 -1.61304 -6.16121 -6.11605 -4.02359 -0.0745069 3.67421
407 -0.707079 -6.3182 -6.92831 1.13605 1.06545 -0.663616
408 -1.62757 -5.39978 -6.94563 -0.746563 -0.312468 -0.572576
694 -0.879219 -5.60438 -6.14448 1.09481 1.0986 0.407138
409 -0.0705638 -5.99582 -7.71326 -1.94456 0.57808 2.48005
412 -0.204232 -5.54842 -6.79472 -0.64156 2.68798 -0.858797
410 1.00548 -5.49041 -7.6768 1.39374 1.64153 -0.49999
461 1.68434 -4.56587 -7.55278 0.934153 -1.85706 0.728624
416 1.50378 -5.3278 -6.72663 1.42083 2.92483 1.34423
749 1.50312 -4.59958 -6.05291 3.16943 -0.79155 2.03909
459 0.812224 -4.55952 -6.85581 -1.84373 -0.968884 -0.143239
414 2.25824 -5.45057 -7.56989 0.706959 -1.66592 1.26049
415 2.34927 -5.98742 -6.70084 -0.48604 -1.68476 -1.66259
420 3.14165 -5.20992 -6.74348 -1.57465 1.42068 0.966209
419 3.74974 -6.07365 -6.92771 -1.00292 0.575557 2.74071
418 3.91549 -5.22328 -7.6007 0.729261 -1.51255 0.738051
424 4.60518 -5.34937 -6.90226 1.88113 -1.77955 -2.15914
423 5.3588 -6.06086 -6.85946 0.406715 -2.2199 -0.0408616
422 5.38567 -5.33127 -7.59975 -1.82407 -1.58835 -1.3302
428 6.16729 -5.30422 -6.93033 0.00695502 -2.48824 -0.558348
471 5.39508 -4.52894 -6.76697 -0.568725 -0.76882 0.388322
426 7.19073 -5.43597 -7.76212 0.101711 -1.6812 -2.24511
477 7.9319 -4.70079 -7.74352 -0.444645 1.6229 0.60472
427 7.05471 -6.0932 -6.74475 1.98298 0.766819 0.396785
714 6.91315 -5.23213 -6.21044 -0.820104 1.59166 -0.481611
432 7.78742 -5.37938 -6.90056 0.449234 0.327069 0.0577406
388 -9.20599 -5.52586 -6.98614 -0.396162 -1.14594 -2.19229
479 8.47099 -4.70436 -6.89208 3.42179 0.0522047 2.10983
718 8.57512 -5.26276 -6.09614 1.71638 0.785709 0.0339325
481 9.05532 -2.89681 -7.54732 -0.496023 0.326868 -0.701894
434 -8.53028 -3.74626 -7.72098 0.582242 -0.338167 -1.4804
722 -8.4463 -3.78814 -6.26378 0.758635 -2.01668 0.715207
483 -8.5782 -2.98327 -6.97418 0.149716 -0.195937 0.897467
769 -9.16328 -3.10421 -6.21217 1.73246 -0.40223 0.942878
439 -6.97779 -4.71205 -6.97612 0.227221 -1.1773 0.545225
440 -7.72094 -3.64989 -6.95452 -1.50441 2.22787 0.25084
726 -6.88108 -3.8565 -6.28846 1.65183 -0.364769 0.642639
487 -6.99614 -3.11285 -7.03652 2.58906 3.054 1.72224
443 -5.55441 -4.40615 -7.05375 -3.36482 -0.100839 -0.670067
444 -6.37406 -3.81978 -7.11289 -1.09342 -0.248174 -1.10265
446 -3.71753 -3.83733 -7.63335 1.0979 -0.858756 0.528905
448 -4.69083 -3.90707 -6.99605 1.26882 0.952409 2.00807
733 -4.52471 -4.64984 -6.05834 1.73231 0.298688 0.629096
452 -3.13541 -3.95241 -6.76942 -1.50669 2.58191 0.0452224
501 -1.55162 -3.08642 -7.7072 -0.957398 -1.01049 -1.59743
455 -0.75809 -4.6156 -6.87983 -0.555796 0.146828 0.16019
456 -1.52408 -3.79763 -6.86273 1.16188 0.617173 -1.39274
741 -1.45746 -4.58636 -6.25793 1.00373 -2.08708 -0.573215
457 0.063604 -4.75268 -7.57061 -1.16403 0.0150243 1.28115
460 -0.0196034 -3.8482 -6.7731 -0.489585 -3.01907 1.3223
745 -0.0719469 -4.72508 -6.1361 -2.72805 -0.872897 -0.620791
458 0.742289 -3.89373 -7.56421 -0.294943 0.645039 1.04964
464 1.45097 -3.78984 -6.86618 0.42188 1.9776 1.3792
797 1.49905 -3.10969 -6.16983 0.880271 -0.279335 0.116063
465 2.9022 -4.63281 -7.64013 0.877853 1.01963 -1.2988
462 2.38789 -3.74262 -7.53756 2.20395 2.1023 0.95387
513 3.10704 -3.14608 -7.59338 0.249838 -0.258897 0.79924
463 2.32844 -4.58423 -6.79969 -0.0605575 1.83226 -1.21432
468 2.97305 -3.77883 -6.68654 -1.1813 1.566 1.12621
466 3.90364 -3.8913 -7.58593 0.699994 1.99232 -1.16205
467 3.92009 -4.50751 -6.84846 2.16148 -1.76344 3.51754
472 4.69123 -3.79112 -6.72767 1.23666 -0.0126197 1.38127
515 3.81719 -3.22659 -6.90656 -0.45126 0.208674 -0.354443
805 4.63804 -3.02841 -6.16942 -0.278417 -0.275605 -0.273799
761 6.16522 -4.56437 -5.98229 1.51145 1.44845 -1.53979
476 6.30654 -3.98435 -6.89839 1.50485 0.960372 2.72463
758 5.48858 -3.77521 -6.21847 -0.954306 2.5732 -1.93153
519 5.39894 -3.11308 -6.84086 -0.714048 1.56729 1.72211
475 6.97937 -4.71049 -7.11436 -0.480834 0.257865 1.79697
480 7.75916 -3.89651 -6.95276 1.55684 3.02251 -0.397317
762 6.94011 -4.01629 -6.15917 -2.06382 0.79027 0.586724
523 6.88975 -3.09525 -6.96851 2.67057 0.694525 2.65672
436 -9.07515 -3.79288 -6.91801 -0.135275 -1.71704 -0.369118
527 8.45374 -3.26714 -6.80752 -0.361635 -0.128178 -0.208489
766 8.50227 -3.87141 -6.12405 3.21856 -1.16161 0.316474
529 -9.20939 -1.54983 -7.69334 -2.93604 0.660687 -0.580197
531 -8.41952 -1.66001 -6.97357 2.31775 -0.701885 1.15537
533 -7.69465 -1.51095 -7.74548 -1.17903 -1.63227 -0.707297
488 -7.66218 -2.44328 -6.94775 0.353474 -1.18905 0.835135
821 -7.74407 -1.58607 -6.20905 1.0627 -1.64515 -1.67295
535 -6.96173 -1.50436 -6.91533 -2.49004 -0.955432 -1.36101
489 -6.14371 -3.11296 -7.6419 -0.660395 1.41065 -0.885832
491 -5.41318 -3.21617 -6.98436 -1.10405 -3.44452 0.247916
492 -6.08788 -2.37377 -6.8464 -0.372893 2.80694 -0.326909
539 -5.47196 -1.45286 -6.94999 3.12734 1.12429 1.09564
537 -6.11092 -1.73447 -7.76059 0.739153 0.874128 -2.6609
495 -3.8978 -3.14406 -6.95937 0.703455 -2.39797 1.38045
496 -4.63556 -2.23235 -6.92614 0.103272 3.57569 -0.620005
782 -4.09596 -2.42635 -6.15035 1.64192 1.39149 -2.23598
543 -3.93615 -1.58944 -6.99765 -1.14713 0.632145 -0.396386
785 -3.26109 -3.03807 -6.20374 1.38484 1.17916 -1.0493
499 -2.26296 -3.19819 -6.95171 0.911403 0.0248881 -0.801602
497 -3.06209 -3.15016 -7.64218 -1.76452 1.9048 -0.551154
500 -3.21868 -2.42056 -6.98922 0.494411 -0.0162864 0.755402
786 -2.36938 -2.33891 -6.16077 1.12769 2.25402 0.754695
789 -1.58628 -3.06525 -6.01825 0.894189 -1.105 1.82255
504 -1.60362 -2.42048 -6.91788 0.301393 0.20615 -3.48425
503 -0.730274 -3.09626 -7.02358 -0.577813 0.211298 0.273881
837 -1.5541 -1.59269 -6.16736 -1.98093 2.00359 -2.28219
505 0.0559823 -3.15932 -7.57372 0.9151 0.943608 -1.33706
508 -0.0207357 -2.31594 -6.8423 -2.91952 -0.933523 -1.54102
509 1.53337 -3.13946 -7.62905 -0.0721806 0.674737 1.13089
507 0.650527 -3.13913 -6.75748 1.01645 -0.629579 0.801072
506 0.673735 -2.3989 -7.53941 -0.903954 2.05192 0.788012