ITEM: TIMESTEP
200000
ITEM: NUMBER OF ATOMS
6912
ITEM: BOX BOUNDS pp pp pp
-9.2265715179435492e+00 9.2265715179435492e+00
-9.2265715179435492e+00 9.2265715179435492e+00
-9.2265715179435492e+00 9.2265715179435492e+00
ITEM: ATOMS id x y z vx vy vz
3221 -8.24671 -8.06515 -8.09335 -2.85748 -2.82652 -2.23648
624 -7.99283 -8.17989 -9.01631 -5.38743 1.40486 1.22358
292 -9.0192 -9.22582 -7.78455 0.583336 -3.06271 -1.75691
52 9.22888 -8.31758 -8.63401 3.65455 4.87208 1.45068
300 -7.17413 -8.37998 -8.15631 1.54378 0.301672 -0.709727
865 -6.17902 -8.55951 -7.93247 -1.71806 1.03186 2.16786
1383 7.96631 -0.355657 -1.00957 1.6748 -0.469146 -0.458441
344 -5.83218 -7.14836 -7.70408 2.09564 -0.737635 0.0124519
389 -5.3509 -8.08399 -8.17921 0.16749 4.07199 -0.611158
295 -5.37752 -9.11722 -8.38272 -1.79608 2.63475 -2.88974
634 -4.25994 -7.54134 -8.02917 0.167567 -0.0791748 -0.27223
4009 -4.71934 -7.79872 -8.91055 -1.25944 -1.77091 2.67862
72 -3.6321 -8.25791 -7.51076 -0.54616 3.06501 -0.0327225
108 -7.51353 -6.14644 -9.21907 0.661897 3.13863 -3.37272
1905 2.16502 -5.57949 -0.16233 -0.552124 -1.09603 -1.42778
3239 -3.08905 -7.6915 -8.2366 1.33885 -0.971506 1.08111
3712 -2.25869 -8.14342 -8.19465 -0.970246 0.786131 1.41996
3356 6.3614 -4.28401 -9.04925 4.96951 -1.41705 0.0957646
603 -1.63069 -8.77672 -7.80981 3.89239 2.13751 0.039007
4242 -1.50171 -8.46852 -8.71851 2.27909 0.964343 -3.66054
651 1.64878 -4.78087 -9.03041 -1.21622 -0.238805 2.08115
3710 -0.586659 -8.27422 -8.19919 -0.822657 1.64257 0.666104
1546 -3.06528 -9.22956 -1.35702 -1.26473 -2.12756 1.77711
26 0.856771 -8.6654 -8.46926 -1.52505 0.00358237 1.76214
938 -1.34451 -5.71087 -9.00935 0.0513925 1.54728 0.484598
4016 1.75814 -8.75802 -8.00011 3.26234 2.28992 -1.74693
1879 -8.47295 -3.1513 -0.0759837 -4.03925 0.904511 -1.27432
2273 -2.22483 -1.11883 -0.474893 0.347261 1.32553 -1.62848
3640 4.74648 -7.58646 -8.57434 1.62753 0.189535 2.67944
327 2.56767 -8.02087 -7.93409 -1.35525 1.7462 0.0449601
4020 2.49282 -8.48556 -8.98626 1.11767 -2.28421 1.06949
616 6.22045 -9.19486 -6.67308 0.949792 0.839585 -0.521873
1579 -8.23846 -7.41394 -0.177044 -1.34954 0.60006 -1.63064
35 4.37586 -8.2889 -8.18889 -2.01089 1.43858 -2.10984
961 5.34119 -8.46111 -7.83748 -0.136867 -0.432368 1.02596
654 5.23074 -8.77036 -8.80805 0.226097 -0.425407 -0.898027
4876 -0.225464 -9.0155 -0.377289 1.40971 -4.3346 1.42927
326 7.11485 -9.05355 -8.3205 2.35499 0.841632 -1.43497
51 8.05169 -8.32317 -8.47501 -2.13688 1.15633 4.15659
93 6.20698 -8.79631 -8.57031 0.449447 -0.17492 -0.498633
3974 8.80491 -8.50571 -7.66397 -1.37775 3.70073 -2.02713
3988 8.66413 -7.61469 -8.23874 0.690683 -0.903039 -0.8425
2004 7.03691 -0.0737676 -2.38341 -0.656191 0.145699 0.444935
1282 1.62753 -4.71116 -0.0994905 -2.13618 1.58158 -0.414117
200 -7.69672 -6.81204 -8.28363 0.64604 -2.53211 -0.929978
3224 -8.63183 -6.13636 -7.77121 -0.628217 0.669623 -1.86329
437 -8.69587 -7.08436 -8.04635 0.77924 0.654678 0.301088
2984 -9.14649 -6.31232 -8.57848 -0.659498 3.24377 -1.36172
294 -6.75863 -7.36402 -8.05507 0.564594 0.0549983 2.78636
55 -6.79327 -6.40671 -8.19541 0.161259 -0.00706876 1.16848
2887 -6.60396 -6.523 -9.17548 -2.86535 -1.88534 0.75798
3184 -5.96011 -7.444 -8.65546 -0.864722 0.983601 1.54697
3315 -5.85322 -6.29225 -8.29388 0.514001 1.01718 0.0969669
2940 -5.03678 -7.39516 -7.34276 -1.4457 0.117333 1.0676
107 -5.1661 -6.98925 -8.43242 0.954501 1.61189 2.40312
342 -4.70974 -6.56713 -7.75308 -0.438461 0.37685 1.30459
401 -4.60229 -6.01659 -8.69975 -0.1456 -0.292519 0.126634
2948 -3.67665 -6.49108 -8.7529 1.00901 -2.81752 1.05029
302 -2.84752 -6.37011 -8.28474 0.761071 -1.14104 -3.46629
453 -2.44981 -5.9994 -7.1381 0.378741 2.45265 1.13691
646 -2.08537 -6.97137 -8.36389 -0.271296 -0.81363 1.48295
689 -1.26322 -7.56581 -8.20607 2.44895 -1.89562 1.91393
3281 -1.14062 -6.29939 -8.28788 2.79748 -0.604688 1.49337
451 -0.893588 -2.56238 -9.25505 -0.344931 -0.892433 -0.887699
3987 -8.96414 -8.90404 -3.67174 -1.04215 1.02398 1.04867
311 -0.367399 -7.14609 -8.39235 0.0566779 0.349352 0.925629
607 -0.488174 -6.12792 -8.98103 0.0362568 -2.88382 -0.52669
23 0.637343 -7.07594 -8.32563 -0.299417 -1.62375 -4.25798
497 -2.67859 -0.151446 -5.73242 -0.646651 -0.522416 -1.85196
4297 1.0796 -7.76815 -8.77654 -2.79595 -1.13165 2.07244
704 1.45389 -6.70904 -8.67843 -0.669163 -2.07959 -0.278212
307 -1.68336 -8.80934 -4.66186 2.76416 3.72742 -1.9598
351 0.889318 -6.2737 -7.71472 1.93435 -0.0353565 2.63459
4014 1.71081 -7.63068 -8.13526 2.54458 1.82643 3.7666
3244 2.71962 -7.40931 -8.77426 1.19671 -0.845641 0.35828
175 3.81534 -6.33506 -7.66094 -0.111014 -2.98033 2.50353
3248 4.3915 -6.67718 -8.5247 2.92782 2.26841 -3.19087
37 3.65358 -7.57985 -8.58269 -0.689119 -0.54531 -1.05159
4317 5.26406 -7.58048 -7.6506 0.464413 -1.63052 1.46268
185 5.36141 -6.88738 -8.45224 1.7697 -3.96771 -2.87086
3299 6.26463 -6.98377 -8.11304 -0.532031 0.336445 -2.65663
38 5.86759 -7.85474 -8.54941 0.852951 0.348597 1.54353
3258 6.81773 -8.08751 -8.58543 -1.08475 0.106315 -0.801577
334 6.4921 -7.24472 -9.01594 -1.77186 0.289517 1.90302
5426 -6.40391 -8.99391 -0.280708 -1.40605 0.0994 2.37483
4280 9.22524 -7.53355 -7.24054 0.864584 -0.957722 1.95047
628 7.6378 -7.38334 -8.28801 -0.82517 1.05042 -0.247046
340 8.31763 -6.59018 -8.38145 3.56287 -0.575999 0.220855
112 8.67093 -6.66946 -7.51745 -0.0283765 -2.59194 2.69787
3218 -8.00782 -5.87476 -8.4079 1.77045 1.11084 0.61094
3032 -7.75325 -5.60398 -7.44068 -0.686945 -0.362645 0.11895
629 -6.64397 -5.49021 -8.68718 2.68257 0.0539865 -0.238039
449 -7.78842 -4.84165 -7.96295 3.91551 0.342003 -1.83662
3368 -6.87089 -5.11779 -7.67396 1.14255 -0.321941 -0.629724
2261 -8.9204 -1.42673 -0.0666252 -0.944521 4.17835 -1.10219
2710 -5.60967 -5.22889 -7.70176 2.03264 -0.250434 -0.509057
430 7.607 -7.79439 -9.21224 0.8987 3.32282 -2.93562
441 -5.67633 -5.4749 -8.79003 -3.81855 0.652737 -0.041498
12 -4.76731 -5.17179 -8.13221 0.830055 0.172058 -2.96515
3278 -3.75118 -4.79568 -8.13326 -1.31303 -4.48733 -2.48505
3711 -3.80434 -5.65324 -7.52168 -1.71079 -2.72313 1.34625
10 -5.40929 -9.04822 -7.23137 -0.408489 -1.58099 -0.74698
404 -2.95451 -5.39526 -7.994 1.30984 3.01 -0.0649266
68 -3.7028 -5.52103 -8.71485 0.526248 0.502487 -1.36735
697 -2.50565 -4.37765 -8.4731 -1.93757 0.793806 -0.00547325
645 -2.03698 -5.8292 -8.18219 1.91264 0.310147 -1.12261
448 -0.939363 -5.36943 -8.24602 0.451193 -3.11551 -0.846763
403 -1.65074 -4.63308 -8.75549 -2.64687 1.99828 1.10741
993 0.111112 -5.37922 -8.69906 0.936424 -2.36748 1.90861
368 -0.658609 -4.65312 -8.90415 -1.6646 0.788665 0.496864
3343 3.74589 -1.35015 -9.17231 -0.133778 4.17235 -0.96773
693 0.151159 -4.37202 -8.31626 0.848661 -1.12809 1.33284
791 0.847055 -5.03895 -8.22411 -3.25529 -2.49502 -0.881555
1042 0.821238 -6.04558 -8.71578 0.186273 1.6155 -1.09971
3271 -7.53266 -5.18323 -8.89843 0.684627 -3.19852 0.315056
516 1.61968 -5.71876 -8.2027 -0.930442 1.27629 1.27318
3471 -6.38932 -0.0983439 -9.11743 -0.597393 0.0623214 -2.22567
944 2.30968 -6.48262 -8.37329 -0.199839 1.07358 3.83963
144 2.63696 -4.82983 -8.72326 -1.11969 2.24544 -1.44949
2964 3.61292 -4.9075 -8.47846 -3.4331 0.0434198 -0.227714
83 3.11307 -6.01184 -8.46455 -1.58093 -1.94839 0.326257
191 4.32522 -5.26742 -9.05288 2.0261 -2.64748 -1.13072
131 4.22627 -5.57409 -7.99745 0.316796 2.21799 -1.13807
88 4.88266 -6.33205 -7.50571 3.1763 2.46856 -1.60357
137 5.23164 -5.383 -7.83905 0.616066 0.323808 -2.43881
422 5.19151 -5.9269 -8.59688 2.03536 0.202879 -0.417166
3254 6.1376 -6.22311 -8.83064 0.690711 -1.88923 -0.842417
384 5.90416 -6.24721 -7.79367 -1.56473 -0.267821 -1.16354
140 5.89321 -5.11478 -8.70816 1.26324 -0.058075 0.600031
3018 6.65799 -4.57133 -8.13209 -2.36955 -0.0697803 0.910158
419 7.10887 -6.56653 -8.51871 -0.314876 -4.43501 1.15534
1248 4.89252 -8.85783 -1.35153 -0.831018 0.624153 -3.11855
146 7.44594 -4.00961 -9.07661 -1.73077 -0.455307 0.506545
425 6.83571 -5.65574 -8.27419 -0.113782 -0.986195 -0.497329
192 7.87714 -5.55249 -8.75496 1.31989 -0.113636 0.924291
3361 -9.1256 -4.97505 -7.73709 1.00701 0.26077 -1.68052
434 8.2306 -4.5719 -8.68214 -1.72709 -1.86161 1.38159
474 7.54412 -5.02196 -7.85193 -0.157169 -1.44566 3.41303
3353 -8.81777 -3.33273 -8.3109 -0.486495 0.827065 0.359989
150 -8.56185 -5.06292 -8.74698 -1.35841 0.00206856 2.92019
675 -8.73989 -4.1965 -7.95396 1.08086 -0.0306085 0.183973
3026 -8.09567 -4.16703 -8.63973 2.1655 0.486163 0.661427
3319 -7.67116 -3.2787 -8.09867 2.58841 -0.924916 0.33432
241 -7.22559 -4.11993 -7.43722 -0.793854 0.422372 -0.291645
242 -6.65396 -3.27361 -7.86952 0.00823629 -2.024 -0.349137
251 -7.00591 -4.45961 -8.41379 -1.08244 -2.03715 2.1899
103 -5.33218 -4.57188 -8.64415 1.18769 -0.650073 -0.492892
209 -5.09884 -4.30786 -7.57012 4.41017 2.24113 -0.523262
106 -5.7349 -3.28282 -7.50258 -1.39336 0.587013 1.29049
390 -6.20698 -4.34702 -8.07429 -1.24162 -1.78836 -2.83868
3283 -5.20471 -3.37701 -8.41868 -1.80934 -0.718857 0.00981666
3123 -6.07754 -3.46594 -8.73315 -0.346272 -0.117966 1.07553
2703 -4.58966 -4.07151 -8.61918 -1.33235 0.580994 -0.957028
830 -4.31317 -3.36063 -7.94604 1.50336 1.13728 1.33373
407 -3.36041 -3.94934 -8.31394 0.89163 -1.02324 -1.27364
493 -3.33684 -3.1664 -7.79536 -2.37445 0.766004 0.687931
1078 -4.0318 -3.94104 -7.17625 -0.766261 -2.61385 1.66316
402 -2.99107 -4.0244 -7.45087 -0.594247 -2.90101 1.87767
4649 5.79883 -0.954986 -0.126396 2.09379 -1.88814 -0.478041
165 -1.96362 -4.01046 -7.61948 -2.0673 -2.8873 -0.836055
1822 -6.76935 -9.15507 -1.15521 1.01645 0.202903 -3.30645
3095 -1.77848 -3.51962 -8.6509 -0.651891 -2.08869 -0.881892
652 -0.962692 -3.91555 -8.19015 2.88368 -1.10146 -0.760297
737 -0.000453728 -3.81269 -9.03161 1.1823 0.595093 -1.94059
3483 0.440509 -3.16201 -8.31732 -0.752004 1.83222 1.44457
551 2.31414 -3.67562 -8.50784 0.217457 1.64552 0.745316
465 1.0343 -4.10677 -8.72302 -1.27889 1.96246 0.822186
703 1.7108 -4.59851 -8.13033 -0.558622 0.888166 0.90611
132 3.17215 -4.07202 -8.92015 1.07987 -1.17329 -0.73405
1469 1.62951 -8.90347 -0.594513 0.976941 -2.15566 -0.487835
461 3.00753 -3.01 -8.77601 1.46115 1.46701 -1.75979
3294 4.22366 -4.29818 -9.06686 0.750956 -1.03055 2.65976
3349 5.01632 -3.5816 -7.90483 1.74739 0.396305 -0.484047
3249 4.93059 -4.53768 -8.42205 -0.0491933 -0.457444 -0.12997
184 3.67887 -3.99751 -8.04327 0.999202 1.29253 -1.12023
3302 5.21034 -3.40804 -8.86362 0.107551 -1.1356 -1.30938
142 5.77677 -4.30487 -8.09002 1.24228 -4.9543 -1.8274
709 5.6997 -2.67118 -8.19801 0.788626 -0.198949 -0.855434
3350 6.38201 -3.28715 -8.90989 0.767236 2.68074 0.228656
572 7.33189 -3.19183 -8.65729 2.71883 0.118968 0.115904
481 6.36064 -3.51862 -7.98159 1.59762 1.47547 2.0944
4977 3.97795 -0.587791 -0.0451042 0.487293 -0.225146 -2.15158
380 5.73597 -8.53632 -4.89956 3.03743 -0.490782 0.903827
3314 8.54102 -4.3089 -7.65305 -0.420565 1.76168 0.396239
194 8.88641 -3.01899 -7.73553 0.261811 2.90559 -0.90495
433 8.09245 -3.55528 -8.11578 1.19284 -1.33282 0.778455
3408 8.59766 -3.6588 -8.9364 -2.80867 -0.329798 1.29914
3025 -8.04977 -3.19271 -8.89167 1.27532 -2.54248 -2.281
156 -8.14969 -2.44689 -8.25994 1.32418 -1.17903 -1.31115
534 -8.2039 -1.89567 -7.32068 -0.689466 -0.784582 1.27962
3491 3.27097 -0.213602 -6.99152 1.15298 3.58788 1.2394
3366 -6.37584 -1.397 -8.77255 0.277131 1.30757 -2.55876
2788 -6.36266 -2.55022 -9.13296 3.5317 -1.29869 0.109558
3324 -7.34724 -1.66532 -8.77403 1.11735 4.18122 -1.48411
152 -7.022 -2.67253 -8.52211 -2.03531 0.840688 -2.5343
2745 -7.01365 -3.47439 -8.98512 -1.51466 -2.37452 -0.87215
3365 -4.91482 -2.50669 -8.17204 -0.492885 0.740381 1.01319
3802 -6.00419 -2.4827 -8.19916 3.22661 2.182 0.115358
3371 -5.46798 -1.5634 -8.43938 1.91718 -1.55186 0.517778
2262 -7.17412 -0.375731 -1.3638 -0.48649 -0.279954 0.103504
3375 -3.92198 -2.45702 -7.63736 -1.87697 2.04929 -0.371741
205 -3.18334 -2.91574 -8.72686 -1.64737 0.07346 0.733319
3855 -3.41604 -1.92423 -8.86367 -1.08508 -0.803464 -0.744136
9 -4.58056 -8.87806 -8.88791 2.13677 2.11751 4.22491
698 -1.73867 -2.07318 -8.92506 1.65426 1.85896 0.296445
3236 -2.82495 -7.03774 -8.94417 -0.0461602 0.204867 -1.83843
6645 -2.80101 -2.27249 -7.54963 -0.37517 0.564723 1.47803
495 -2.31864 -2.92655 -8.1708 2.33687 -0.218395 2.83453
834 -1.78317 -1.63185 -8.05188 0.0552271 -0.703634 0.872139
4812 1.01071 -8.90133 -2.16745 -0.864271 -4.30854 1.21488
742 -1.40725 -3.27135 -7.70971 -1.18899 -0.559762 -0.12233
221 -1.00792 -2.13708 -8.16819 0.0477152 -0.856865 0.355686
3431 -0.608522 -3.0585 -8.34083 0.0743798 -0.264067 -2.15917
1195 7.40481 -8.82142 -1.94701 -0.167717 0.0930995 1.30356
3492 0.0340523 -2.21265 -8.73484 -0.585752 1.09238 -1.6186
457 -0.570517 -1.39963 -8.74219 -3.28355 0.403395 -1.24737
502 1.41257 -3.33689 -8.27924 -0.510509 -4.35692 1.48289
6653 2.21652 -2.64115 -8.05557 2.50063 -1.56717 -0.537604
4059 0.986377 -2.47242 -8.012 -1.5583 2.25177 -0.969626
609 7.85315 -8.94939 -4.19736 1.9745 1.1623 0.373703
2048 2.32253 -8.16952 -0.0445195 1.41388 0.490074 -0.54475
699 -2.60027 -3.61822 -9.17072 0.15313 -1.97536 1.10007
6660 1.82871 -1.6843 -8.58895 0.371378 1.37296 1.77852
4110 3.8181 -2.0554 -8.39653 -0.685323 1.59719 -0.299916
3348 4.20889 -3.1561 -8.4025 0.803472 1.07658 3.39527
130 4.90873 -2.11449 -8.29652 -1.70806 -0.7457 -0.444087
567 4.39833 -1.38155 -7.72212 -0.0612523 0.100817 -2.90049
509 5.62633 -1.43168 -8.56823 -2.24977 -1.0933 0.686951
2874 6.2935 -1.71131 -7.87717 -1.07842 -1.54593 1.70599
126 5.39759 -1.73924 -7.53381 1.72161 0.320153 -0.59275
3013 6.08705 -2.40254 -9.06011 -4.57917 -0.743999 1.70691
3839 7.66737 -1.83154 -8.49635 -1.21391 -1.32645 -0.380335
478 6.76277 -2.42347 -8.37805 -1.02229 0.150421 2.47777
1646 -3.15249 -1.18619 -0.0231852 1.40767 2.03474 -0.414131
522 6.65849 -1.63688 -8.9468 -0.259363 -0.772821 0.189531
4073 5.34246 -0.439804 -4.70089 -3.0105 0.841513 0.550354
1814 7.25873 -6.04122 -0.112092 -2.09652 -1.13986 -0.530212
536 9.23166 -2.34363 -8.36491 2.64492 0.260147 0.10864
3527 1.89282 -0.237364 -5.95795 -2.83026 -1.9085 3.98865
3502 8.51969 -1.68975 -8.93404 -0.361667 -1.98517 0.433538
280 7.45532 -0.288609 -7.58621 -0.353662 0.453571 4.59797
3230 -5.59621 -8.3228 -9.1227 2.13772 -1.09083 -0.21612
4033 -8.5586 -0.547892 -8.72702 -0.974947 0.262453 -3.52785
532 -9.1659 -0.509999 -8.03555 0.993158 2.49408 -1.01434
482 -8.4572 -1.29975 -7.99656 2.4228 -3.01116 0.800722
4330 -7.54751 -0.657262 -8.6953 1.2823 -0.653603 -1.07679
3472 -6.58507 -0.533832 -8.25881 1.63314 -0.789588 3.44474
3457 -5.67666 -0.712754 -8.52437 -1.12784 0.574594 -1.28778
160 -4.63716 -0.928445 -8.95643 -1.17957 0.554801 -0.603818
4340 -6.28054 -1.64693 -7.80924 0.673618 -1.89025 -1.60484
546 -4.36504 -1.60146 -8.17037 -0.529346 -0.414525 -1.23673
832 -4.08781 -0.473817 -8.36865 0.539829 0.983342 0.906898
4316 7.24412 -8.52253 -5.01222 -2.39683 -0.75968 -1.03229
301 -2.31224 -9.10921 -5.29812 -0.687108 -3.1408 -3.54915
260 -2.50302 -1.01185 -8.61543 1.1633 -3.17292 -2.27976
548 -2.53745 -1.96477 -8.50053 0.751723 2.53393 -0.794207
354 -1.3834 -6.81063 -9.06298 -1.44705 -1.14098 2.33059
549 -1.50963 -1.15515 -8.85524 -0.906518 1.73387 -0.400923
3381 -1.04436 -0.850468 -8.09783 -1.52202 -1.47912 1.00939
3479 -0.46279 -0.515851 -7.45969 -0.423539 0.482676 -1.56053
3767 -0.400674 -0.30807 -8.79137 -2.11707 -0.872464 -0.940563
6700 0.33593 -0.977297 -8.23147 2.0979 1.10976 -3.04993
387 -8.63374 -7.48361 -9.04782 0.286288 2.08805 1.48006
28 3.42291 -8.56939 -8.87977 -2.87068 -2.09329 -0.826215
3386 1.77033 -0.257652 -8.85093 4.58275 -0.0687443 1.69684
3049 1.18305 -1.05966 -8.44308 2.23945 1.54649 -3.10222
3486 1.47187 -0.295545 -7.88017 0.690741 -2.56464 -2.86717
4067 0.736525 -0.439529 -7.32795 -0.0825783 0.785297 -1.44714
3391 2.82183 -1.68205 -8.82071 -0.422045 -0.0889231 -0.539216
4931 3.47597 -0.942867 -1.15749 -0.283975 3.76859 0.174119
3785 3.52749 -0.341444 -8.90626 0.818763 0.247574 -2.04904
1137 2.47975 -0.6451 -8.25 0.664752 -0.417159 -0.240223
3405 4.63333 -1.35332 -8.89692 0.00163374 -0.530956 0.11059
521 3.49288 -1.13391 -8.34779 0.391063 0.533366 1.0145
3346 4.27808 -0.580458 -8.22658 0.257795 -1.54097 -0.980996
941 -2.10856 -7.62183 -9.14982 1.15975 -0.460426 -5.23147
4070 5.9151 -0.710027 -7.8724 -1.64007 0.440581 1.34445
239 7.15555 -1.11395 -8.06099 -1.02397 -2.15783 2.48889
3308 7.58561 -0.782073 -8.87579 0.1038 0.72077 -2.24898
3048 1.10407 -2.37679 -9.1042 -0.882867 -0.725823 0.381943
3404 8.28398 -0.976798 -8.26917 2.84174 -0.218578 -1.18254
1697 -3.43644 0.0206985 -6.32168 2.51115 2.24229 1.24071
281 8.48291 -0.519353 -7.45028 0.17117 3.26851 4.84953
3515 -6.48958 0.0238344 -6.89295 1.92671 2.438 0.0630167
3692 -8.68624 -8.42266 -7.203 3.01485 -0.557666 -0.095446
3698 -7.55329 -8.6228 -7.20018 -2.1174 -1.06538 0.104305
4562 -9.15594 -8.87657 -6.03651 -0.829606 1.34152 -2.58996
159 -3.93919 -3.3594 -8.91112 -1.77731 -1.55382 2.87639
3704 -6.73388 -8.07217 -7.24011 0.99853 -0.555587 -2.64219
586 -7.25622 -8.55265 -6.26324 -2.33192 -1.13806 0.382062
388 -6.34345 -7.68383 -6.33096 -2.43126 0.962958 1.02956
3228 -6.22136 -8.76923 -5.66805 1.05468 0.37951 0.0561666
2898 -5.7698 -8.11322 -7.23551 -2.74288 -3.39151 -0.913382
5174 -8.84865 -9.00685 -2.28841 1.14798 -1.93644 -0.545621
3996 -4.24722 -9.1355 -6.22444 -1.18356 -3.00643 -0.858619
348 -4.50185 -8.3094 -6.85297 2.0818 2.00267 -2.07371
870 -3.35672 -8.03881 -6.20012 -0.617811 0.156716 1.33818
3962 -2.68655 -8.80094 -6.11394 -1.83028 0.0842379 1.82324
6792 -3.57035 -7.27003 -6.97448 0.80314 -3.99785 -1.37742
3662 -2.75744 -7.94642 -6.91782 -2.90749 -3.25765 0.788254
3959 -1.68358 -8.61264 -6.83524 2.64081 -2.32445 -0.751646
987 -0.907056 -8.41952 -7.2579 1.69284 -4.52474 0.461889
363 -1.45032 -7.66705 -6.58443 -0.0547688 -0.742075 0.508364
4013 -0.836159 -8.67815 -6.32233 -0.316572 -1.46767 -1.85882
3955 0.0320059 -8.73677 -6.86138 -0.22327 -3.76931 0.604816
599 0.171129 -9.01686 -5.90192 0.596134 1.71216 -3.47619
3715 1.00931 -8.21668 -7.5332 1.62014 -0.322787 0.0973102
82 1.81612 -7.8781 -7.14337 -1.85382 -2.28387 5.50737
617 2.71399 -9.03814 -8.12682 -1.40883 -0.589289 -0.601014
653 2.14047 -8.30253 -6.34327 -0.133803 1.13955 -0.427272
648 1.31236 -8.85091 -6.87443 0.377539 3.31668 3.19957
89 3.42049 -8.536 -7.66967 0.896573 -0.404191 -0.590561
4304 2.45619 -8.60423 -7.12345 -0.72348 1.16264 0.715501
306 3.52634 -8.39069 -6.63327 3.05174 0.426449 1.69578
1354 -4.15201 -2.51798 -8.70589 1.74612 -0.0986179 -0.572415
328 4.54197 -8.13771 -7.18774 -0.693502 -4.08186 -1.85076
375 4.8795 -8.13026 -6.27099 3.77047 1.90166 0.32218
133 6.45326 -8.78401 -7.53074 -0.241426 1.83516 -0.519642
759 5.60883 -8.32271 -6.91666 -1.651 0.28541 -3.09236
3734 6.15055 -7.86106 -7.49802 -0.25268 -1.78759 0.262716
4604 6.7264 -8.30194 -6.703 -1.18554 -0.60461 1.00107
577 7.33143 -8.81484 -6.11844 -0.733113 -0.950324 0.383133
672 7.51018 -8.19821 -7.45089 1.6497 0.962883 -0.684296
1745 -4.96981 -4.49077 -0.0752914 2.2824 0.0278465 -1.56326
1621 5.08606 -5.70758 -0.051866 0.617986 1.21425 -0.906805
578 8.35826 -8.57325 -6.64906 2.29698 -0.477351 4.50931
4279 -8.88354 -7.66132 -6.37652 -1.26417 -4.27157 -0.0567282
432 -8.25928 -7.51831 -7.13377 2.83448 1.23036 -0.426299
338 -8.91787 -6.62976 -6.88547 -0.0536417 -0.49332 -0.667772
771 -8.32756 -6.97149 -6.08521 1.55824 1.108 -2.43765
2939 -7.55769 -7.57209 -7.70229 -3.73024 -1.01313 -0.33064
350 -6.72316 -7.11523 -7.12338 -0.0149781 0.356675 0.956554
909 -7.51294 -6.54252 -7.33641 -1.45284 2.9876 -2.07244
383 -7.34975 -7.63761 -6.63965 -0.059565 -0.487923 -0.36698
920 -6.69864 -6.92374 -5.58801 -2.15366 -1.58849 -1.45739
394 -5.64442 -6.29546 -7.12259 -3.30824 -1.88749 -3.64157
393 -5.34112 -8.61467 -6.35639 -1.82976 -0.926466 -1.12307
405 -6.08712 -6.69052 -6.47102 -1.10392 -1.91808 0.543738
630 -3.58311 -6.65797 -7.78904 -0.00994397 2.57281 0.147595
733 -5.25456 -7.61785 -6.458 -0.338498 -0.137694 1.39481
395 -3.10643 -6.90666 -6.21646 -2.65812 0.117907 -0.229246
500 -4.32437 -6.54413 -6.8941 2.33297 0.375256 1.15341
690 -3.48524 -6.3097 -6.94058 1.685 -0.781438 -0.806012
345 -2.7423 -7.10052 -7.56914 0.28958 -0.928042 2.08268
3709 -1.84945 -7.77267 -7.38807 0.439333 -3.31346 1.83347
358 -2.71855 -6.11987 -5.83721 -1.43835 -1.21124 1.40506
353 -0.823711 -7.30378 -7.27237 -1.68654 0.831366 1.67098
978 -0.818549 -6.96615 -6.34097 1.20776 -1.1627 -1.65857
4008 0.188032 -7.7142 -7.6615 0.492312 -2.23299 1.74862
3720 0.511176 -7.50838 -6.68677 1.88613 5.74032 -5.74245
77 0.0251333 -6.79557 -7.17884 0.599137 0.136134 0.643292
5165 -0.0514856 -6.26845 -7.98927 -0.791813 -0.694497 1.56566
650 0.917697 -6.63977 -6.70016 3.09763 -0.75214 0.939992
3724 2.15648 -6.9495 -7.44911 -0.565105 -0.366956 -2.08954
78 1.1294 -7.21367 -7.42137 0.560534 -2.19938 -1.97535
898 1.74582 -7.04265 -6.60032 0.74152 -1.5359 2.94578
4021 2.764 -7.60817 -7.0587 -0.0962722 -1.20847 -0.88959
418 3.04945 -7.02244 -7.98293 0.0617943 -0.349112 -1.52303
172 2.60389 -6.65728 -6.62753 0.458797 -0.554823 -4.14269
417 3.6587 -7.71574 -7.51004 1.06146 0.270365 0.0416003
336 4.11199 -7.55628 -6.60156 1.66136 0.554381 1.40741
3260 4.43551 -7.22019 -7.49644 1.60785 -0.385113 -1.65833
187 3.44015 -6.86949 -6.97747 -0.406015 2.21745 -0.321109
91 4.57645 -6.59328 -6.46072 -1.18133 -1.54848 3.01417
373 5.20722 -7.39663 -6.68578 1.94771 2.15802 -0.568293
953 6.06987 -7.00398 -7.08191 1.97431 0.107155 -1.20607
3219 6.55681 -6.47253 -6.46025 0.551411 1.45267 2.00158
46 8.32663 -7.61116 -7.36329 1.01666 -4.392 -2.09569
3272 7.1769 -7.09216 -7.55734 0.0416057 0.838405 -1.39247
958 6.88394 -7.35789 -6.69484 1.13277 -1.78346 0.766663
723 7.6128 -6.56663 -6.80799 -0.344695 0.784413 1.63807
667 7.64756 -6.05177 -7.88402 -2.715 -0.0410143 -1.06939
385 8.49142 -7.13344 -6.41992 0.267804 -0.929449 1.32077
480 8.52694 -6.0803 -6.5675 -2.50457 0.715937 1.06035
153 -8.35768 -4.75403 -7.08741 1.78235 -1.45264 -0.264856
680 -9.14433 -5.63772 -7.05064 0.986986 0.979104 -0.735266
3267 -8.20871 -6.052 -6.66075 -1.14433 1.57074 0.65089
674 -9.24044 -4.56994 -6.74601 -1.46896 0.538888 -1.5082
681 -8.19207 -5.13755 -6.17898 2.95761 -1.24779 -2.33138
868 -7.00491 -5.93989 -6.74385 -0.977938 -2.50652 -2.26087
679 -7.28018 -4.90931 -6.85602 -2.01645 -1.79306 -2.27634
779 -6.36719 -5.93283 -7.49894 1.88215 0.73852 -1.38475
631 -7.24135 -5.39825 -5.9211 2.61257 1.55469 1.40938
783 -6.38023 -5.1842 -6.84509 -0.813988 0.559605 -2.03399
3180 -4.72747 -5.70245 -7.37144 2.74275 0.10831 1.09883
677 -5.51778 -5.44613 -6.61765 -3.46921 3.16858 -1.4567
685 -5.03475 -6.34441 -6.36071 0.685488 0.516275 0.393068
1023 -5.79642 -4.40369 -6.95207 0.923503 -1.34516 0.658772
494 -4.37432 -5.65761 -6.43976 2.37485 0.440613 -1.56742
3331 -4.4281 -4.80416 -7.1807 3.44396 -4.34351 -0.717877
490 -3.37591 -4.8796 -7.13886 2.56334 -1.70079 0.618488
682 -5.02141 -4.67845 -6.3723 -2.57109 -2.99272 1.89615
1017 -3.08033 -5.49651 -6.47368 0.476095 -0.78387 -0.883252
1025 -1.65429 -6.74664 -7.42873 0.317006 0.168058 -2.07611
207 -2.42916 -4.92019 -7.05529 -1.021 0.129917 3.52359
310 -1.50037 -5.62793 -7.4228 3.40467 -2.49835 1.76687
304 -0.828317 -5.25427 -6.59329 -0.536193 -2.96951 0.894964
3380 -2.00429 -5.4798 -6.08302 -1.31005 -1.60676 2.80218
359 -0.711293 -6.21668 -7.23514 -0.363451 -0.66547 -0.266049
545 -1.68075 -4.85211 -7.88789 1.19421 2.47216 -0.35024
1176 -0.207273 -6.10398 -6.39997 1.72984 0.0971138 -1.01799
700 0.0250408 -4.94044 -7.54837 -2.19503 0.156792 -1.77493
795 0.148037 -5.7916 -7.20317 -2.35918 2.52715 1.48316
755 1.81486 -6.07737 -6.99797 2.2675 -0.415843 -2.81974
849 1.18427 -5.36644 -7.35658 0.11815 -0.800102 -2.26471
506 0.856843 -4.70355 -6.54487 0.980755 1.13651 -1.9429
753 1.76198 -5.15293 -6.51811 -3.64649 -0.854188 -1.09502
605 2.73168 -6.2465 -7.40816 -1.37597 -2.87803 -0.806038
513 2.22155 -5.19644 -7.44053 -1.81903 -0.205826 -0.130121
661 3.16043 -5.41194 -7.81698 -0.177747 2.95401 2.67416
3304 2.69811 -4.3394 -6.74483 -0.913718 1.43374 -0.551155
39 3.67076 -5.72806 -6.95123 -3.02273 3.2238 -1.75247
136 3.51414 -4.73191 -7.24683 -0.673841 -1.90251 3.64476
468 4.31374 -5.63391 -6.0714 -1.6642 -0.406362 2.05697
92 4.46106 -4.61859 -6.3312 -0.682291 -1.00623 0.683081
618 5.5987 -6.00759 -6.82006 0.0410175 -1.18149 -1.85994
669 4.65836 -5.40474 -6.95223 -2.11504 -2.60095 0.530144
139 5.68038 -4.87672 -6.23914 -0.44554 -1.14745 -2.47033
190 6.87594 -6.18988 -7.31619 -0.81153 0.413711 2.19226
127 6.2258 -5.36809 -7.48889 -1.19547 -1.00902 0.430651
477 6.53748 -5.46436 -6.27867 2.0226 -0.493172 -2.22347
148 7.37747 -5.43968 -7.02238 -1.87515 -0.788118 -2.84801
440 8.47872 -5.42106 -7.96398 2.67599 0.446671 -1.20403
1006 8.45049 -5.16625 -7.05927 -1.12229 -0.746471 -2.82055
3276 -8.1466 -3.77118 -7.16023 0.337123 -0.263476 1.83248
525 -9.09367 -3.62221 -7.2352 -0.392436 0.299779 1.79117
1102 -8.41529 -2.91891 -5.80791 -0.324537 0.0541251 0.535152
3269 -7.77278 -4.36271 -6.27416 3.38845 -1.99136 -0.657024
3327 -7.55605 -3.39864 -6.42464 0.712417 -1.75202 1.99277
157 -6.61326 -3.66068 -6.87843 -2.64827 5.48915 -1.50682
729 -6.87926 -4.41948 -6.20372 -0.946146 0.536393 1.27272
3755 -6.46181 -3.29031 -5.80149 -0.539912 1.31201 2.52172
252 -4.92415 -3.62662 -6.89054 -1.44789 0.768618 0.569612
496 -5.89163 -4.03705 -6.10691 -1.0643 -0.329399 2.14074
1071 -4.34974 -4.01583 -6.12036 0.30816 1.34802 1.07704
840 -3.25321 -3.89998 -6.35455 1.89618 -1.49476 2.69301
113 -3.97768 -3.05526 -6.71346 -1.33334 -0.446045 2.86786
739 -2.23595 -3.74587 -6.41026 0.471954 -0.498994 0.292192
839 -2.50275 -3.23136 -7.1696 0.61789 0.769986 0.492177
445 -1.64905 -2.87789 -6.60103 0.0249149 -0.251015 -0.313717
355 -0.927536 -4.62103 -7.39532 -2.00938 0.067329 1.04809
644 -1.14369 -3.79981 -6.90688 -2.52014 0.985208 -0.858348
738 -0.56538 -4.32865 -6.41663 0.817573 -0.378889 -1.02214
792 -0.570817 -3.36142 -6.27354 1.00049 -1.11415 -1.16097
1420 -1.69962 -4.54272 -6.71764 1.4929 -1.55654 -1.50502
411 0.277835 -3.92751 -6.73132 0.769208 -1.9089 -1.23154
511 -0.25652 -3.73834 -7.553 1.62936 0.94551 -2.44382
794 0.193795 -2.8587 -6.57199 1.38106 -2.37385 -2.41316
1326 1.79686 -4.31341 -7.18125 2.97729 0.16694 -1.38521
3384 2.25585 -3.51913 -7.62623 0.782687 -0.290854 -1.53061
1041 0.870391 -4.21718 -7.60421 1.72389 -0.241253 -0.0953182
3434 2.33978 -3.50091 -6.53531 2.27441 1.55775 -0.229217
370 2.6324 -4.30674 -7.80315 2.08545 0.0792293 -0.0572607
223 3.14987 -3.58969 -7.33339 -1.48127 -0.0213548 -0.185253
3352 3.65191 -3.85616 -6.39319 -1.34626 2.56403 -3.54736
757 4.24778 -3.31306 -7.30168 -1.48248 -0.284906 1.04801
95 4.46107 -4.559 -7.46531 0.587262 -1.1951 -0.479405
3303 5.71007 -3.81932 -7.33383 -1.99102 0.642925 1.79064
230 5.36546 -4.69865 -7.14405 -2.49874 -2.01093 -0.159711
571 6.87891 -3.62721 -6.82653 1.94768 -0.706945 0.592316
229 6.00226 -3.00353 -6.6814 2.418 1.0269 -0.252311
805 4.78147 -3.8718 -6.88126 -2.27796 -2.14269 -1.49015
768 7.71655 -4.22208 -6.97081 0.258802 -0.981776 0.743051
815 7.28047 -3.98028 -7.73816 0.0619836 0.394238 -2.35439
910 6.55911 -4.65678 -7.00143 1.7387 -1.69093 -0.59638
816 7.70447 -3.29561 -6.38679 -0.00729119 2.75889 1.84739
436 8.33296 -3.48649 -7.14654 0.954963 -0.357618 -2.07566
520 8.61083 -3.83343 -6.30032 2.90133 0.220544 1.85709
392 8.94479 -2.71046 -6.82307 -2.6892 0.272972 1.72793
722 -8.48003 -2.94616 -7.54806 -3.82381 0.965691 -0.351982
285 9.08867 -1.84553 -7.6215 -1.05513 -1.97483 -1.89221
444 -8.72749 -2.15349 -6.52863 1.70174 -0.470582 0.0737116
199 -7.72135 -2.33936 -6.17684 3.58372 -0.356978 -0.121093
3414 -7.56701 -2.65811 -7.07122 -1.95195 -2.827 -1.88509
486 -7.02905 -1.80874 -6.9263 0.283314 0.731244 1.32768
4087 -6.73504 -2.6797 -6.49871 -0.216452 -3.88817 -0.257459
438 -5.98634 -2.31099 -7.1033 1.6422 0.313724 0.834692
204 -4.98446 -1.76245 -7.46203 -0.664205 2.75894 2.17927
489 -5.73269 -2.80229 -5.53495 0.0900146 1.16195 2.20415
396 -5.7262 -3.08655 -6.50082 0.141938 0.915441 3.20687
1121 -5.08257 -2.02697 -6.49756 -0.334527 -1.50903 2.99895
1069 -4.73153 -2.70087 -7.14799 2.58843 -4.08498 1.69652
4046 -4.1246 -2.45925 -5.84485 1.75364 -3.54862 -1.71413
543 -3.35096 -2.43784 -6.77688 1.49276 -1.2896 1.97988
741 -2.44951 -2.04179 -6.24 -1.71281 1.66929 1.45002
1074 -2.07425 -2.81521 -5.69458 0.196585 1.09722 -0.0452162
789 -2.88854 -2.99024 -6.22769 1.82661 0.35588 -2.10697
1365 -1.89372 -2.46511 -7.42222 -1.97091 0.604906 1.9838
211 -1.04148 -2.22876 -6.25804 0.434054 2.47417 0.0671206
360 -0.802862 -2.77198 -7.03264 2.29895 0.844831 -1.03088
4058 -0.241145 -2.04546 -6.86228 -1.33638 1.14654 -1.43519
1026 0.695354 -2.09532 -6.71575 0.295439 0.597533 -0.890759
553 0.0207353 -2.53694 -7.71079 0.258023 1.40255 -0.264946
4055 -0.266116 -1.61441 -7.87151 -0.510839 -1.9023 3.66532
470 0.910004 -3.25829 -7.31588 0.0495245 -0.876921 0.6691
519 1.58548 -2.23086 -7.27412 -1.1217 -0.545174 0.873943
6651 2.54011 -1.64152 -6.82779 1.94391 0.224493 -2.19956
4112 1.49126 -2.99734 -6.59082 1.89012 -2.82987 -0.9549
3823 3.50645 -2.03571 -7.20421 2.27036 -2.31744 -3.82737
274 2.64159 -1.81367 -7.84721 -0.646273 1.00641 -4.3823
466 2.482 -2.7167 -6.90695 -1.16222 -0.378129 -0.723195
476 3.26034 -2.82722 -7.9451 -2.90244 -0.0550253 -0.309664
559 3.52766 -2.92681 -6.66661 -0.191029 2.12484 -2.25774
524 5.30554 -2.92943 -7.28078 2.78309 1.95733 -0.781224
564 4.29165 -2.42164 -7.61149 -3.32152 -1.92991 0.0871158
3446 6.23765 -2.62509 -7.45081 -2.08846 -1.92861 -1.21088
576 5.40878 -2.07701 -6.47691 4.1869 1.66562 -1.33005
1673 6.34118 -2.20729 -5.99129 0.357558 -1.07463 0.429209
473 4.99214 -3.20321 -6.28716 -0.458931 0.480267 0.695417
233 7.08442 -3.02098 -7.60101 -0.689966 -4.35588 -2.37721
279 7.00771 -2.62522 -6.7216 -2.32149 1.3413 1.29612
565 7.34396 -1.78673 -6.40688 0.918554 -3.39277 -0.483533
769 8.10242 -2.5208 -7.88214 -2.59406 -3.04269 0.718237
3403 7.31088 -1.91662 -7.52106 0.239851 -1.15844 1.1345
761 8.05038 -2.39885 -6.77657 -2.51031 -3.79545 0.876674
195 8.32515 -2.70048 -8.80509 -0.179888 1.01942 -1.94819
766 8.80594 -1.73907 -6.46329 -3.15533 -0.646117 2.84337
1439 -7.72213 -1.40223 -6.39184 0.567226 -1.90932 -1.5001