ITEM: TIMESTEP
166000
ITEM: NUMBER OF ATOMS
6912
ITEM: BOX BOUNDS pp pp pp
-9.2265715179435492e+00 9.2265715179435492e+00
-9.2265715179435492e+00 9.2265715179435492e+00
-9.2265715179435492e+00 9.2265715179435492e+00
ITEM: ATOMS id x y z vx vy vz
8 -7.69096 -8.31143 -8.64021 -1.14119 -1.11273 -3.01903
290 -8.44436 -8.24442 -7.75825 0.95229 0.128841 1.13496
4915 -2.02515 -0.0546271 -1.81078 -1.32512 1.02755 4.43721
294 -6.80032 -8.25174 -7.86225 0.0728086 0.468095 -1.20237
7 -7.03392 -9.10444 -8.48898 0.643919 -0.994927 1.79661
4359 5.54325 -0.095427 -3.8424 -2.07814 0.140607 -0.0668553
12 -6.29749 -8.50898 -8.73765 0.778927 0.537099 1.39809
5168 1.79155 -8.7683 -1.22961 0.391769 3.06076 0.335205
11 -5.46101 -9.06549 -8.49903 0.321611 -0.972575 1.85272
4929 3.05021 -0.0705638 -0.925587 1.86672 0.299011 2.16005
4283 -5.48782 -8.97146 -5.30546 -0.668167 -0.00963709 1.56639
1472 1.94519 -9.14663 -0.285289 -1.45916 0.763895 -0.165065
16 -4.70673 -8.22073 -8.55117 -0.710371 -1.96072 -0.726428
297 -6.15907 -9.14286 -7.842 -0.364226 -0.60344 2.18559
20 -2.85694 -7.78559 -8.70122 0.371943 -0.0531256 -0.725155
14 -2.79677 -9.08895 -8.9995 -0.368068 -2.02541 -0.46652
305 -2.98826 -8.73414 -7.49935 2.15998 0.612697 -0.338336
19 -1.47692 -8.12014 -8.48055 -3.10404 -0.192107 1.88186
3716 -2.38111 -8.57644 -8.19017 0.536918 1.42954 1.34187
306 -1.87559 -7.57685 -7.75169 0.142668 -4.48571 -0.881619
24 0.0407595 -8.07556 -7.55426 -2.16593 3.1635 -1.02174
21 -0.51133 -8.77036 -8.08506 -1.96706 -2.45251 -1.36912
26 0.736085 -8.95991 -8.37852 -0.0262249 1.00192 -0.111196
71 -0.246745 -7.94335 -8.49071 -0.67515 -0.173406 1.96096
2014 7.85358 -0.103143 -0.0942675 1.49926 1.45286 -0.617036
367 1.50646 -8.67742 -8.88411 0.645417 -0.777658 0.503313
79 1.56599 -7.63258 -8.73597 0.180088 -0.019575 -2.09996
365 2.29489 -7.92787 -8.06101 3.79813 0.301689 0.484728
36 2.90153 -8.59759 -8.39297 0.505502 0.675404 2.69929
156 -6.92142 -3.41942 -9.09302 -1.93921 1.33007 -3.7198
654 3.36789 -7.48575 -8.00414 2.33772 -0.550303 -0.18474
4332 -5.5157 -0.101827 -4.65023 0.963935 -1.78247 -1.63984
83 3.57613 -8.07083 -8.79705 0.895171 -1.16896 -0.0422721
40 4.5352 -8.47227 -8.79663 -1.56655 2.30373 -1.0224
322 3.36921 -8.47266 -7.56314 -2.73793 -1.64107 -0.618776
44 5.73759 -8.56976 -8.63641 1.03858 -1.53667 0.0254807
87 5.17108 -7.72592 -8.56377 2.82692 1.23274 0.391706
326 5.33837 -8.35249 -7.73387 2.7107 2.05562 -0.0978455
3787 6.88485 -0.152155 -6.91136 2.24069 1.52558 0.881076
377 6.16078 -7.67323 -7.86255 2.47609 -1.4684 -1.22385
48 7.62305 -8.32814 -8.55231 -0.106 -1.91813 -0.157056
91 6.75352 -7.93203 -8.621 0.665618 -0.941807 -1.91875
381 7.63875 -7.79442 -7.79669 -2.72738 3.16536 -4.37069
867 -8.55311 -8.9966 -3.9144 0.274264 0.277199 -2.25067
330 6.9522 -8.49793 -7.77874 -0.661142 1.30109 -1.71078
4 9.11889 -8.62778 -8.58878 2.0122 -2.26805 -2.0156
3467 -6.54364 -0.676568 -8.89982 3.01433 -1.60211 2.61125
334 8.50627 -8.66909 -7.54336 1.18183 0.178804 0.916407
1443 -8.50378 -9.13678 -0.688956 -1.34476 -1.28496 -0.0782467
1960 5.60306 -2.28716 -0.142894 -2.76703 2.07851 0.626607
51 -8.61968 -7.77037 -8.65557 -1.87323 -2.86461 0.30637
338 -8.45371 -6.90603 -7.96081 1.20061 1.84043 1.1298
341 -7.6622 -7.62237 -7.78747 -0.279113 0.616117 2.06451
55 -6.92631 -7.61297 -8.53797 -1.44091 1.53679 -0.795765
56 -7.85383 -7.16071 -8.76503 2.03085 -2.02409 -1.04916
103 -7.11005 -6.17535 -8.76817 0.360746 1.16299 1.68067
60 -6.22528 -6.70243 -8.79341 -1.63189 -1.68222 0.215945
59 -5.41256 -7.59909 -8.64534 0.534408 0.134354 0.872847
346 -5.2355 -6.80047 -7.93866 -3.68499 0.100649 0.207174
345 -6.15292 -7.30949 -7.86161 -1.16892 -0.710088 0.0756952
1870 8.48565 -5.38644 -0.0161115 -1.98177 0.23862 0.647008
63 -3.87496 -7.48408 -8.65176 -0.659239 2.2966 0.761157
350 -4.74343 -6.82759 -8.81467 -0.72878 0.831088 1.90052
3443 4.53202 -1.67216 -9.1787 0.691397 1.11885 1.9918
68 -3.45304 -6.70211 -8.59602 1.15556 -2.66215 -0.473577
3239 -0.761053 -7.01609 -8.82234 0.168477 -1.91556 -0.98315
67 -2.01154 -7.35826 -8.7178 0.0695963 0.187105 -2.12738
354 -2.44569 -6.79676 -8.0094 0.601719 2.62041 -1.55022
69 -1.66047 -6.50126 -8.41025 -0.399635 0.717616 -1.2112
119 -1.0037 -5.54699 -7.85627 0.800167 -0.240959 1.31179
357 -0.747334 -7.55779 -7.82409 -0.170005 0.467222 -2.287
358 -0.429722 -6.4847 -8.00729 -1.41371 -0.619003 0.694823
3416 -7.59998 -0.851792 -8.65524 1.37368 -0.715531 3.42205
76 0.399764 -7.17198 -8.06416 2.69565 0.69697 -1.96917
75 0.506567 -7.71012 -8.90248 1.30463 -3.64571 1.04187
80 1.18477 -6.77563 -8.49683 -2.73707 -0.438766 -0.917748
413 1.54545 -5.83913 -7.64125 0.806403 0.591928 -4.4146
368 1.8264 -7.57607 -7.38294 0.368052 0.33123 1.34378
84 2.92086 -7.35736 -8.88734 1.51224 -2.85653 -0.0818453
366 2.17812 -6.69774 -8.03096 -1.13576 -0.128538 -1.09719
417 3.12411 -6.52905 -8.15996 2.26147 0.957773 2.00683
581 -7.70465 -8.94772 -6.16141 1.69813 0.976742 -3.07376
88 4.21243 -7.33159 -8.78707 -1.06431 -2.52208 1.75367
370 4.04079 -6.66601 -7.79893 -1.69737 -2.87381 0.718029
421 4.84403 -6.10497 -7.61526 -0.858303 3.39275 0.426122
131 3.84849 -6.36787 -8.81015 1.98542 -0.703875 1.87007
621 6.70408 -9.01444 -5.40445 -2.03352 1.26013 -0.988228
92 5.92622 -7.04857 -8.7552 -0.0870084 0.178419 2.27719
423 5.26685 -7.09744 -7.92933 1.88145 -1.44248 3.2429
422 5.38266 -6.33299 -8.45916 -4.54128 0.394204 0.798257
425 6.10954 -6.47087 -7.73931 -1.16802 -3.21 0.938319
202 -5.4754 -1.91123 -8.83469 0.0643857 -4.30211 2.67885
4069 4.65098 -0.132403 -6.28145 2.59615 0.999138 -1.43858
96 7.55266 -7.1059 -8.65882 -4.06533 0.490681 -0.548717
139 6.97557 -6.25173 -8.51543 -0.145041 1.22086 1.54834
378 6.98386 -7.12315 -7.88698 -1.59633 -0.750931 -0.789418
4651 7.04354 -0.0170993 -2.14633 -1.35245 3.63237 -0.371851
52 9.06988 -6.94471 -8.54166 -2.17319 0.264952 -1.98574
95 8.44291 -7.65912 -8.4955 -0.566303 0.235129 -2.39894
382 8.39637 -6.91851 -7.64043 4.11583 2.2429 -1.60208
143 8.11449 -6.20474 -8.52724 0.39494 0.665679 -1.29651
337 9.14303 -7.84015 -7.77494 -0.0537965 -0.514075 0.650622
99 -8.59234 -6.16146 -8.42621 0.355024 -0.069214 0.78518
386 -8.50721 -5.42555 -7.75564 -1.31201 -0.482418 -0.242513
146 -8.59857 -4.83833 -8.53544 0.784393 0.690135 -1.62155
104 -7.72065 -5.26984 -8.51357 -0.242855 -1.63509 2.10502
390 -6.92155 -5.47156 -7.7366 1.57472 0.0284298 0.519169
441 -6.23687 -4.49557 -7.81602 1.50272 0.793321 0.98161
579 -8.41145 -8.9235 -5.24704 1.81308 3.79657 -0.930204
108 -6.24443 -5.21979 -8.49111 -3.1369 -1.31226 -1.44814
107 -5.41229 -6.15466 -8.73761 1.22634 -1.13445 -0.278021
394 -5.59182 -5.3421 -7.81259 0.851146 1.2257 1.65151
111 -4.203 -6.01056 -8.72665 -1.14614 -2.82079 -0.599555
397 -4.76853 -5.84693 -7.88123 -0.38592 -0.0184235 1.73964
64 -4.83232 -5.28817 -8.70209 -1.54762 -1.07978 0.250968
113 -2.38432 -5.6982 -8.71139 2.1607 1.02579 -0.43509
115 -3.31063 -5.35244 -8.99276 0.192655 1.96895 1.36317
401 -3.02495 -5.52113 -7.86967 -2.31617 0.103934 2.82373
402 -2.18812 -4.97433 -8.06545 -0.774259 -0.362448 -0.672376
163 -2.58489 -4.50604 -8.76301 1.79987 0.269765 -2.30078
3749 -7.99405 -0.141605 -7.34943 0.0206412 -0.509085 -1.84391
453 -1.36307 -4.59328 -7.9549 0.16471 0.916917 1.20338
405 -2.01837 -5.91036 -7.60643 2.58777 -3.50117 -2.08333
120 -1.2834 -5.23986 -8.90022 -0.793597 1.91537 -0.621183
406 -0.209483 -4.74143 -7.76269 -0.844852 -2.92568 -0.557867
124 -0.45652 -5.78989 -8.81371 2.82642 0.200622 4.07106
171 0.14083 -5.16482 -8.57128 1.93761 -0.322358 -1.33825
123 0.646716 -5.9003 -8.64022 2.05439 0.299558 -1.24229
128 1.72018 -5.34989 -8.52045 1.28742 -3.57589 -0.322877
127 2.5878 -5.78923 -8.44661 -0.399151 -0.180835 0.66161
132 3.33254 -5.49217 -8.8763 -1.46924 -2.29252 -0.754382
414 2.35018 -5.3368 -7.68081 -2.10309 2.26782 -0.794687
465 3.18941 -4.78324 -8.03846 0.287391 1.17354 -1.5457
2010 7.0825 -0.0907767 -0.807903 1.05876 0.169834 2.36771
136 4.73213 -5.60676 -8.58086 3.49297 -0.207452 -0.106314
418 3.78808 -5.53783 -8.08534 0.848493 1.05706 0.163342
140 6.27845 -5.55128 -8.32454 0.68352 -1.7936 -1.15701
428 5.50393 -5.40328 -7.747 2.3877 0.755872 0.0195644
183 5.50419 -4.84983 -8.48747 -2.13728 -2.57769 -0.718266
473 6.24037 -4.69581 -7.67699 -0.833815 -0.275037 -2.25881
1441 9.05787 -8.90255 -1.63607 -0.920686 0.351855 -0.0770438
144 7.54891 -5.34411 -8.5118 0.717194 -0.62258 -1.82355
187 6.86499 -4.7447 -8.34645 1.56299 -1.14271 1.25095
477 7.61789 -4.79409 -7.46612 -1.48363 1.05819 -0.0529537
100 9.00866 -5.50168 -8.57075 -1.17521 1.44081 -1.87017
191 8.32087 -4.75364 -8.44274 1.34382 1.63889 -0.313213
433 9.17367 -4.75234 -7.75736 -0.998526 -0.0956599 3.19909
871 -6.94737 -9.0029 -3.47248 0.112795 2.57953 0.123819
430 8.29111 -5.41194 -7.65932 -2.91548 -1.4288 5.06579
195 -8.54112 -3.12037 -8.35824 1.53039 -0.405124 0.357506
437 -7.87252 -4.60287 -7.7302 -0.156682 -0.823692 1.88108
150 -7.7788 -3.86147 -8.39388 -2.70146 0.915319 1.44732
434 -8.56336 -3.96137 -7.7637 -0.546725 2.22553 1.47109
198 -7.16663 -2.25081 -9.10207 2.62715 -0.798089 -1.49302
151 -7.02332 -4.6523 -8.25909 -0.745786 0.734624 -0.286754
485 -7.72446 -3.06935 -7.70207 0.157469 -0.396193 0.128802
152 -6.96285 -3.77204 -7.64028 0.425948 -1.52974 -0.267155
438 -6.33 -3.56068 -8.37437 0.937496 0.868904 1.15043
489 -6.18341 -2.98978 -7.4476 -2.63424 0.370135 0.030098
199 -6.92363 -2.7617 -8.30369 -1.89057 4.45708 0.648841
155 -5.65388 -4.32243 -8.63007 0.147889 -0.0142969 -1.51228
442 -5.50075 -3.77024 -7.68617 2.2538 1.20426 1.68676
159 -3.95825 -4.52453 -8.77408 -0.0542717 -0.460947 1.39203
160 -4.79041 -3.74708 -8.44476 2.15882 0.57969 -0.77747
112 -4.71171 -4.56724 -7.91769 4.75082 -0.519112 2.45328
446 -3.82879 -3.73195 -8.15322 0.608788 -2.02639 -0.0169641
3998 -3.81702 -9.13995 -7.65585 3.09654 2.12163 -1.76626
449 -3.28359 -4.47243 -8.03754 -1.36163 -0.719573 -1.779
164 -3.1467 -3.60659 -8.83796 -0.336207 -2.16702 1.37605
211 -2.3655 -3.01942 -8.58646 0.248011 1.56308 1.27791
168 -1.45044 -4.10258 -8.77434 -2.8802 2.55365 2.76286
501 -1.27908 -3.55863 -7.9186 -0.0538039 -0.389631 0.18924
1469 1.04004 -9.13535 -0.526549 0.0879954 2.83573 1.53239
454 -0.392682 -3.80785 -8.06069 -0.968544 1.80129 -0.328243
167 -0.637913 -4.60433 -8.63852 -1.36065 0.488635 2.83735
215 -0.772526 -3.37938 -8.8025 2.17646 -2.58846 1.15507
172 -0.119644 -3.98931 -9.17798 0.129725 0.581492 -0.510665
505 0.677158 -3.55911 -8.34013 1.01499 -1.25146 -1.58335
457 0.521383 -4.18333 -7.58496 1.76825 -1.05887 -0.174397
176 1.49993 -3.70803 -8.82268 0.891676 1.56524 -1.79319
458 0.795696 -4.53009 -8.62722 -2.08674 -1.07353 -0.973311
219 0.902779 -2.64868 -8.86906 0.141964 -0.108123 0.318539
464 1.1935 -2.48419 -7.9472 0.842842 0.138102 2.02468
175 2.3805 -4.51485 -8.55874 -1.13809 -0.425167 0.376196
180 3.09006 -3.92296 -8.45569 1.22322 1.01741 0.196723
462 2.58108 -3.93939 -7.63629 3.48015 0.537103 0.373961
179 3.90919 -4.6921 -8.56929 -0.949883 -1.61444 -0.229009
184 4.7537 -3.94336 -8.43134 0.307176 0.189458 1.25554
466 3.87106 -3.93168 -7.74842 -1.7288 0.753861 -1.37995
469 4.55693 -4.87269 -7.83398 -2.6637 0.923272 -1.35054
231 5.99373 -3.99704 -8.48155 -1.73746 -2.30944 1.07173
521 6.07411 -3.17105 -7.76983 0.643461 -0.607008 0.415145
518 5.3698 -3.02768 -8.37992 -0.420723 0.399418 0.514098
192 7.59166 -4.10612 -8.47401 0.26309 -1.7607 0.835132
3501 7.76921 -0.0560089 -9.18324 1.60216 1.30554 -1.47832
148 9.04374 -3.96562 -8.34505 -0.103836 0.880496 -0.360936
481 9.03266 -3.11194 -7.75392 -0.288006 -1.34822 -1.25799
865 9.2301 -8.69632 -4.49738 4.91507 0.336134 -0.0453747
200 -7.93564 -2.29673 -8.38551 -3.38518 3.16917 2.49126
243 -8.76377 -1.54269 -8.71083 -0.572683 0.384629 -1.42368
533 -7.75511 -2.01988 -7.51064 -0.742863 2.18331 -1.22852
204 -6.19683 -2.10282 -8.08658 1.18813 -2.18142 1.26023
203 -5.64527 -2.98639 -8.27714 3.93991 1.87032 -2.62464
208 -4.81538 -2.28935 -8.28958 -3.63993 0.969573 1.55599
309 -2.15024 -9.14667 -7.41513 -1.59921 1.00416 -3.1698
207 -4.0608 -2.83261 -8.47224 -2.35059 -2.25134 -1.50181
494 -3.98942 -2.34681 -7.61513 -3.066 -0.726521 -0.448302
255 -4.12306 -1.97852 -9.03767 0.783591 1.67165 -0.242018
331 6.87377 -8.99782 -6.91325 -0.372305 1.47259 2.67603
497 -3.2011 -2.98632 -8.10793 0.467093 0.144586 1.39837
212 -3.04225 -2.1251 -8.67659 1.09285 2.47068 -1.25161
498 -2.30545 -1.98864 -8.05808 -0.803309 2.19514 1.0447
209 -2.08209 -2.19271 -9.2253 2.63117 1.24112 -2.92119
3996 -6.17674 -8.97952 -6.17245 0.609125 -0.375752 0.385656
216 -1.2957 -2.66921 -8.36762 2.22993 1.87024 0.0272034
502 -0.0780644 -2.71114 -8.50712 -0.686679 -1.17216 2.00175
3463 -7.24812 -0.175525 -8.09831 -3.27964 -0.0484361 -0.159993
220 0.36284 -2.07491 -7.79324 -0.881315 -0.0648765 2.57265
3431 0.408684 -1.6472 -8.74595 1.92236 0.00480622 0.274243
224 1.921 -2.02944 -8.72617 0.754194 1.18644 0.995874
267 1.41773 -1.52906 -7.72759 -1.27455 1.14979 1.2276
223 2.26472 -3.03239 -8.59633 0.0927677 3.15025 0.68647
228 3.38366 -2.55125 -8.70273 1.32097 -0.109312 -0.0920547
271 2.73352 -1.55313 -8.43467 2.53152 0.602766 -0.767434
509 2.30259 -2.25472 -7.72166 2.39127 -1.41937 0.292524
227 4.0164 -3.1987 -8.48637 -0.753204 -2.40972 -2.50831
277 3.75819 -1.71981 -8.19378 -1.00108 1.45304 1.73868
1565 0.671331 -5.20315 -0.299963 1.02314 -1.59509 1.52963
4363 7.3658 -0.151439 -4.54396 -3.28435 -0.237725 0.207468
232 4.541 -2.41948 -8.48039 -2.91717 0.799039 -1.43451
236 6.01954 -2.27639 -8.30797 -0.70881 -1.23324 -0.89618
3499 6.83785 -0.0339587 -8.51938 1.25365 2.34402 -0.828023
74 0.132511 -6.67914 -8.95299 0.252682 -1.25959 -0.399245
3 -8.44294 -9.02569 -8.49975 -3.46902 1.84378 2.82611
235 6.93944 -3.18002 -8.61927 0.377534 0.0864134 1.06234
240 7.63862 -2.44459 -8.37342 1.59634 0.461489 1.36161
333 7.70894 -9.06792 -7.88678 2.46159 0.757795 0.393333
239 8.15363 -3.24 -8.35155 2.5451 0.186287 1.41691
196 8.89822 -2.34855 -8.41452 -0.0740528 -2.03264 -3.10354
287 8.41708 -1.51201 -8.41547 0.193649 0.380159 2.5346
1462 -0.566631 -9.20828 -2.20607 1.11758 0.33526 -1.24584
1962 7.18773 -2.12739 -0.0802697 1.93237 1.32882 -2.79586
248 -8.16968 -1.16137 -8.03033 -1.51027 0.414844 0.294919
244 9.14401 -0.740429 -8.63662 3.03987 -2.04388 -2.03346
1415 -1.08979 -0.0664011 -3.94126 -1.89287 -0.56848 1.10671
247 -7.09695 -1.5849 -8.41287 -0.217456 2.42418 -2.00888
246 -6.43263 -0.891774 -8.00946 -1.28527 0.163182 2.05658
534 -7.33062 -1.10859 -7.64299 0.122283 -1.12434 -1.11496
293 -7.65812 -8.79476 -7.76291 0.870277 0.279487 -0.354341
252 -5.50559 -1.34495 -7.90928 0.242644 1.41187 1.88363
256 -5.6211 -0.3636 -8.21239 1.3801 1.01407 -2.24308
254 -4.89376 -0.243563 -8.7524 1.74057 -0.559784 -0.653155
4395 2.01877 -0.0273873 -4.31989 -1.04423 -0.768833 0.718793
4033 9.05657 -0.277334 -6.03174 0.475413 0.116602 1.79675
546 -4.00511 -1.07211 -8.39764 -2.25239 0.956218 -0.152068
545 -3.23486 -1.567 -7.87913 3.2053 -0.387844 -3.2595
259 -2.48579 -0.672498 -7.91441 0.40448 -2.65157 1.02592
1632 8.45743 -3.69817 -0.121049 1.11265 -0.0846604 1.3717
3477 -2.04322 -0.259255 -8.77455 1.02677 1.79564 -2.24488
210 -2.54756 -1.26389 -8.6966 -2.28996 0.510801 -0.723307
261 -1.07957 -1.79144 -8.77571 1.06869 -0.272848 -2.5994
550 -1.50036 -0.297443 -7.84986 -0.347797 -1.16331 1.22467
1426 4.25715 -0.0790464 -2.27408 -0.698309 0.940221 -1.94911
264 -0.929289 -0.723629 -8.54947 1.48235 0.759193 0.205759
3479 -0.149987 -0.3705 -8.00324 1.33771 -0.0659082 0.950147
263 -0.278868 -1.28438 -8.07948 -1.22138 -2.06571 -0.969391
3481 0.247402 -0.67681 -8.82908 0.75595 -1.27656 1.7461
268 0.704352 -0.871389 -7.83972 1.69143 -2.40704 -1.54415
253 -4.83759 -1.24973 -8.90372 1.10834 -1.4693 -0.569617
265 1.42349 -1.19165 -8.769 -1.17576 2.02659 -0.334044
266 1.23848 -0.143057 -8.57026 2.19659 1.95235 -1.00954
272 1.89548 -0.747416 -7.89141 0.203722 -1.50144 2.04134
4367 8.20969 -0.117029 -3.84747 1.66449 -1.43625 -1.12316
1468 -0.680123 -8.825 -0.0598869 -3.17253 -2.38847 2.09921
270 2.75363 -0.466646 -8.6171 2.31347 -0.310005 2.36528
561 3.22689 -1.12291 -7.64671 -0.815836 -3.09565 0.133037
4653 6.71434 -0.268031 -3.77355 -2.64823 1.74881 -1.36249
280 3.87866 -0.592681 -8.91359 -0.0921778 1.93578 0.673934
566 4.933 -0.662228 -8.5657 1.51303 -1.50163 2.15
279 5.49515 -1.49485 -8.72331 -2.97221 0.606656 -0.513338
284 6.10623 -0.820546 -8.55357 -1.16571 0.225657 -0.739724
907 6.77202 -9.17895 -3.83971 0.292283 0.584491 0.969206
283 6.91078 -1.56324 -8.32627 0.676319 1.67853 0.185331
288 7.73643 -0.647102 -8.39894 0.0558549 -0.506029 0.936886
4614 -6.85627 -0.330301 -3.8137 -1.75958 -3.194 2.40974
842 0.322264 -0.0428004 -5.8604 -0.344976 -2.27534 1.04626
274 3.38969 -0.0542536 -7.96726 -1.1869 0.959504 -0.405404
1802 1.48272 -7.25909 -0.0976793 -0.125315 -0.791886 1.23276
578 -8.46702 -8.24896 -6.02244 -0.406219 1.66439 -0.353568
291 -8.48318 -9.00066 -6.88978 0.179575 -5.24006 -0.205142
296 -7.72036 -8.25393 -6.92768 -0.378975 -0.820323 1.86888
295 -6.92239 -8.92032 -7.13732 -0.331637 -0.518757 -0.481014
298 -5.62244 -8.3091 -7.94219 -1.05681 -1.12991 1.05162
300 -6.17246 -8.26553 -6.95653 0.764079 -0.354362 2.04682
586 -5.52507 -8.02052 -6.09254 3.69281 0.569568 2.68666
250 -5.55666 -0.803729 -9.15632 1.58047 1.54604 -1.50406
302 -3.52711 -8.40822 -8.26341 0.962886 -0.323576 2.33487
299 -4.61676 -8.52651 -7.42987 0.152727 0.960968 1.61645
301 -3.70164 -8.478 -6.94716 -0.0310215 -0.237584 0.76719
304 -4.6648 -7.78025 -6.7328 -0.396398 -2.2181 -0.637915
308 -3.00073 -8.65761 -6.44313 -0.0929382 -1.46702 -0.121741
285 7.61347 -1.65233 -9.00933 1.40531 0.953933 -1.44018
4073 6.10411 -0.0118782 -6.07085 0.614194 -0.125884 -0.543618
307 -2.21399 -8.28989 -6.87871 -1.12929 0.32198 -0.51882
311 -1.25013 -8.66062 -7.42596 -1.39047 0.645751 -0.703013
312 -0.950363 -7.75756 -6.89797 0.373161 -0.00414596 -1.63465
1726 8.53182 -0.694549 -1.66688 1.20678 -0.221926 -0.00765024
4609 9.17673 -0.0559165 -3.07979 0.436769 -2.62737 -0.23999
359 -0.626397 -8.88004 -6.66217 -1.94338 0.533252 0.605491
316 1.12408 -8.56926 -7.2065 0.230943 0.0845593 3.64607
4897 -8.90912 -0.711758 -0.887891 -1.66991 0.336731 -0.162142
314 0.00736579 -7.10841 -6.16098 -1.86948 -0.342834 -0.672441
28 1.79492 -8.99198 -7.95598 -0.0220497 -1.18395 -1.85531
602 1.43468 -8.98467 -6.46715 0.980653 0.484333 1.41059
651 1.55049 -7.91173 -6.44273 -0.341103 0.272329 -1.55821
320 2.23182 -8.52159 -7.12056 0.330503 -2.79612 -2.82063
369 3.41546 -8.97695 -6.59976 0.530629 1.75339 -0.470056
605 2.55756 -8.28698 -6.20929 0.861139 -0.0977469 1.66453
606 2.72207 -7.54299 -7.03956 1.64584 -0.0309633 2.43275
657 3.35153 -7.85166 -6.23073 0.232151 -0.970143 2.50076
328 4.39094 -8.48886 -7.08841 2.10225 -1.33245 0.677855
371 3.7508 -7.66525 -7.0541 1.17899 0.786343 0.13964
374 4.36826 -7.86059 -7.90443 -1.076 -1.05386 -0.594151
332 6.02739 -8.32364 -7.09754 1.71901 -1.1413 1.2979
375 5.02338 -7.79473 -7.10285 -0.0448191 0.224495 0.422422
618 5.64274 -7.93611 -6.3062 1.31625 -0.656439 0.719899
558 2.5076 -0.0120473 -7.47834 -0.854001 -1.12586 -1.99556
336 7.66135 -8.39886 -6.96397 2.6692 -1.8765 1.24657
379 6.87687 -7.85515 -6.98215 2.449 0.278601 -0.129401
1782 -6.76888 -6.5539 -0.356111 0.438677 -0.338638 1.59224
292 -9.17857 -8.37062 -6.95718 1.53327 -0.0895921 -0.43938
622 8.43966 -8.37914 -6.18166 0.0177771 0.178422 1.49128
289 -8.98045 -9.16482 -7.74166 2.17401 -1.59326 -0.42209
335 8.47654 -9.20113 -6.66688 -2.9439 -2.33969 0.423454
339 -8.38566 -7.57996 -7.01109 -0.622845 -0.0457998 0.378552
344 -7.82177 -6.88156 -7.0428 2.69451 -0.255046 1.33459
389 -7.83142 -6.18055 -7.88278 -1.01488 -0.267629 1.98605
342 -6.94372 -6.73531 -7.91421 0.515832 0.330267 -0.145525
343 -6.97798 -7.40813 -7.09356 -1.67761 -0.547475 -0.271571
347 -5.50753 -7.48928 -7.15109 -0.0908166 -2.87099 0.791075
348 -6.19415 -6.57795 -6.97244 0.555472 0.952497 0.485554
349 -4.55134 -7.57925 -7.72048 1.3328 1.04121 -0.313589
352 -4.30763 -6.70457 -8.06464 -2.05836 -0.203481 -1.64157
351 -3.71746 -7.56516 -7.12679 3.21879 -0.211122 1.38691
634 -4.46456 -6.79863 -7.10554 0.232501 -0.303718 -0.0995695
638 -4.29911 -7.00572 -6.00266 0.818917 -1.45567 -1.51604
353 -2.89014 -7.75407 -7.55729 0.487034 0.441488 -1.01403
594 -2.19268 -8.10294 -5.83432 -0.0515514 0.288808 2.43829
356 -3.51947 -6.59541 -7.63329 2.06119 1.25137 2.77544
641 -2.84415 -7.67353 -6.39488 1.67744 0.537973 1.12611
355 -2.20074 -6.83276 -7.07552 -1.1221 1.68738 -1.1818
360 -1.24224 -6.75117 -7.47488 0.686249 1.53621 -0.515437
646 -0.809735 -6.68616 -6.59241 -0.458303 2.34439 1.7002
648 -2.10955 -6.22298 -6.35258 0.376293 -0.732212 2.30486
361 1.02449 -8.08578 -7.97511 -1.90023 -1.8687 -1.28061
310 -0.0177805 -6.97105 -7.166 -0.0798513 -1.22573 1.59717
653 0.628707 -7.65345 -6.76684 -1.72934 0.632444 -0.554881
362 1.15236 -6.74369 -7.16543 2.06592 -0.58417 0.505921
656 0.361087 -6.22846 -6.49833 -2.57416 1.30345 -0.813098
703 3.28068 -6.52847 -7.18801 2.96132 -1.54701 0.0105181
655 2.85076 -6.90794 -6.24261 -0.808758 -1.29316 -1.67226
705 3.29314 -6.02246 -6.37383 -0.252906 0.23832 -2.03094
373 4.60492 -6.9292 -6.99625 -0.912138 1.46344 0.2926
658 3.83051 -6.94292 -6.33542 -0.428329 -1.708 2.0629
709 4.50891 -6.17562 -6.35916 2.27629 0.810869 1.69105
372 3.95152 -5.93042 -7.15459 -1.00377 1.46079 -1.8055
380 5.99891 -7.1508 -6.99201 -0.209717 -1.05608 -1.4231
713 5.28034 -6.90911 -6.15486 1.14902 0.0894484 0.0122709
665 5.49758 -6.1618 -6.77252 0.72345 2.84283 -0.818827
384 7.56143 -7.04401 -6.96567 0.957559 -2.77996 -1.073
429 7.52754 -6.31431 -7.63224 -3.93088 1.93005 1.67877
427 6.70435 -6.54701 -6.84661 -3.05326 2.68773 1.61342
666 6.85517 -7.20735 -6.17599 -0.447459 2.14106 0.136195
385 8.96026 -6.12644 -7.795 -0.781194 -0.0102251 -0.603373
340 -9.16601 -6.86692 -7.20805 1.43841 0.769237 -1.27985
383 8.3599 -7.64076 -6.92471 1.13863 -0.665552 0.444644
431 8.47073 -6.19887 -6.98212 0.0851355 1.56673 0.157419
387 -8.48648 -6.06067 -7.10947 1.35516 -0.979468 -0.454795
392 -7.79966 -5.33532 -6.97324 0.850033 3.10899 0.22428
674 -8.73987 -5.5588 -6.26402 1.23887 -1.88251 1.16134
677 -7.74342 -6.2427 -6.18803 2.47009 -1.22923 -0.421083
391 -7.13467 -6.078 -7.0793 1.54618 -1.32195 -2.93278
439 -6.88943 -4.74802 -6.9723 0.466433 0.160208 -1.227
729 -6.21594 -4.81129 -6.16389 -0.565466 -0.499113 4.69587
393 -6.08436 -6.2829 -7.95171 -1.0904 -2.11179 -0.451495
395 -5.32348 -6.01239 -7.05411 3.53632 -0.223431 -0.144347
396 -6.26974 -5.50973 -7.02816 -1.74885 2.18922 2.1793
682 -5.35057 -5.32921 -6.30856 0.712046 -2.00921 -1.94542
398 -3.95345 -5.19466 -8.03553 3.92351 -0.826223 0.217411
399 -3.95436 -5.90242 -7.09131 -1.13249 2.75465 -1.44341
400 -4.54767 -5.08172 -6.94805 3.37695 0.85123 -1.51423
403 -2.96487 -5.93934 -6.91889 -1.08532 -0.0666266 1.08127
404 -3.44968 -4.89402 -6.48201 1.2206 1.19232 -0.70771
690 -2.52414 -5.05242 -6.27113 0.20939 1.45317 0.441175
693 -1.31106 -5.7399 -6.46727 0.149563 -0.412049 1.83046
408 -1.76352 -5.04182 -7.1591 -0.449604 0.387297 2.5173
455 -0.772226 -5.01967 -6.99792 0.59571 -0.202427 0.839899
694 -0.27606 -4.40792 -6.4193 -1.93909 -0.587375 -2.65521
409 0.530301 -6.06119 -7.66155 2.14611 0.471759 0.205336
411 0.99147 -5.62069 -6.89985 -0.0770969 3.40388 2.35551
407 -0.447381 -6.00305 -7.15242 0.59365 1.40223 0.247209
412 0.33482 -4.96695 -7.10884 -1.50975 -2.15521 -1.21632
701 1.9766 -6.87476 -6.57782 1.23482 -1.89706 -1.5648
410 0.936681 -5.12483 -7.89329 -1.3201 1.12359 2.91742
416 1.76122 -5.5657 -6.38145 -0.951493 -1.33281 1.88473
459 1.2939 -4.5738 -7.1037 1.33371 1.8612 -2.78837
415 2.40952 -6.12513 -7.08871 -1.18753 1.74691 -2.01022
420 3.21709 -5.4031 -7.25361 -4.72933 1.54188 -0.240188
702 2.65795 -5.05141 -6.03647 1.18574 2.13827 -2.64512
463 2.30728 -4.78876 -6.84468 0.338359 -0.178335 -2.22529
753 3.34784 -4.29189 -5.88701 -0.638512 0.325501 0.838076
419 4.80133 -5.45289 -6.86241 -0.28891 0.710615 0.0534125
706 3.93858 -5.25934 -6.19657 -1.48544 -0.382205 -1.75355
471 6.12012 -5.42739 -6.96036 0.182634 2.46921 -0.999274
757 5.47453 -4.78472 -6.97787 -2.77719 1.53027 -0.712121
759 5.44638 -5.41601 -6.17541 -1.41544 -0.915572 -2.1138
761 6.13811 -4.7363 -6.15314 1.17422 -2.94263 3.0846
426 6.95772 -5.58034 -7.6074 0.194952 -1.03879 0.0159634
432 7.65058 -5.62579 -6.95183 0.0508873 2.04952 1.02537
475 6.81952 -4.61082 -6.86287 2.80443 0.262954 2.67743
765 7.34602 -4.8259 -6.17412 -0.139275 1.22233 -0.186469
714 6.57534 -5.52118 -6.05161 -2.43322 -2.08171 3.85878
388 9.05693 -5.3522 -6.97459 1.38812 0.223078 -1.27852
718 8.24684 -5.40342 -6.058 0.585475 0.991343 0.562484
479 8.28334 -4.71565 -6.77372 -0.298804 -0.501306 -2.65372
721 9.15095 -4.83317 -6.04117 0.372144 -1.29344 1.56306
435 -8.74391 -4.65655 -6.87404 -2.58478 0.576489 3.58976
725 -7.8306 -4.67315 -6.19724 -3.64055 -0.821763 0.10281
483 -8.72395 -3.22317 -7.09255 -0.696849 0.11247 1.02088
440 -7.83007 -3.90613 -6.95939 -1.69887 0.263243 1.37525
722 -8.61236 -3.97045 -6.20838 -0.779556 2.1786 0.949439
726 -6.94494 -4.03042 -6.2792 1.07174 1.19832 3.38786
487 -6.89091 -3.09527 -6.75431 0.196034 0.552659 3.24403
777 -6.12433 -3.1172 -6.15225 2.60546 2.55386 0.732705
443 -5.54724 -4.55744 -7.00657 2.82915 -1.14739 0.515983
444 -6.24969 -3.74894 -6.87212 0.932581 -3.99526 -0.517284
491 -5.32446 -3.20008 -6.80136 1.98219 -1.42257 -3.53488
730 -5.47418 -3.94609 -6.23021 -1.33857 -1.15656 -1.67236
448 -3.89142 -4.44718 -7.36934 -0.215373 -2.67459 0.600639
445 -4.73173 -3.96896 -6.9912 0.051856 0.00266779 -0.0590657
495 -3.82031 -3.19733 -7.27138 0.682489 0.0185933 -0.260284
733 -4.66483 -4.41184 -6.17926 1.4419 1.11965 1.24102
734 -3.74312 -3.98945 -6.55752 -0.624865 0.768145 -0.614344
450 -2.30497 -3.9858 -8.05299 -1.14478 1.28663 -0.124802
451 -2.80561 -4.66601 -7.19906 -0.531143 -0.500507 -2.3991
452 -2.88278 -3.64341 -7.32557 1.55986 0.417852 0.0382957
738 -2.10355 -3.98479 -6.88674 -0.38321 1.42891 0.113416
785 -2.85508 -3.14629 -6.40605 1.05671 2.31951 0.04156
456 -0.992361 -4.06185 -7.05719 0.207747 0.330945 -2.044
504 -1.37684 -3.13867 -6.96781 -1.34823 -2.09623 1.14103
745 0.467241 -3.87029 -6.67107 -0.835842 1.16597 2.18175
460 -0.0773134 -2.96318 -7.40456 -2.28992 2.05832 0.015425
794 1.75367 -3.27212 -7.81283 1.9388 2.2866 -3.38304
461 1.68222 -4.24133 -7.91747 -1.41596 -2.13132 -0.505433
746 1.41417 -3.65706 -6.62277 -0.522145 -3.28116 1.81146
468 3.19481 -4.14055 -6.86193 -1.98045 1.18912 -0.877495
467 4.00383 -4.84189 -7.11981 1.33731 -1.8372 -3.47761
424 4.66725 -4.75343 -6.24868 -1.36109 0.391504 1.70832
472 4.77767 -4.08528 -7.05778 -1.56465 1.90467 0.855448
517 4.62706 -3.28656 -7.75966 0.498067 -2.97804 -2.81838
805 4.61207 -3.09851 -6.19721 -0.114508 1.18562 -0.422178
470 5.37619 -4.24604 -7.74099 1.58574 1.81753 -0.880096
476 6.11542 -3.96217 -7.15755 1.71094 -1.43509 0.69965
758 5.4135 -4.07297 -6.2249 -0.763728 -0.473951 0.523283
809 6.03493 -3.18393 -6.30689 -0.0979444 -0.0435529 -2.43972
474 6.88591 -3.89252 -7.81825 1.70079 -0.195909 0.275829
525 7.59245 -3.15894 -7.56173 -1.63592 -1.59869 -1.4158
480 7.59711 -3.87639 -6.6624 2.15862 -2.2678 -0.638053
478 8.17571 -3.90425 -7.72039 -1.85253 1.19513 2.82243
436 8.98411 -4.02439 -6.80674 0.644398 -0.6206 -0.00104862
769 9.15244 -2.97594 -6.2093 -0.934677 0.850148 -2.71675
482 -8.62415 -2.36988 -7.69547 0.865125 0.25553 1.39813
531 -8.59104 -1.96247 -6.79652 -1.95707 -1.66684 -0.952161
488 -7.83304 -2.71551 -6.81555 1.71228 0.50001 0.277472
770 -8.49814 -2.35466 -5.86884 -1.65341 0.708672 0.449566
486 -6.92575 -2.25997 -7.40381 -0.517182 0.704775 -1.95304
537 -6.24264 -1.33962 -7.10281 -3.22483 -1.175 -0.201176
535 -7.06193 -1.49208 -6.67648 -1.10915 -1.45572 1.80258
251 -5.50897 -2.31007 -7.39066 -0.136037 -3.70861 -0.73494
492 -6.28591 -2.22437 -6.74846 1.43928 -4.27891 -0.411097
539 -5.15196 -1.41987 -6.87373 0.481399 -0.396713 -1.14386
493 -4.63965 -3.11868 -7.69799 -0.203378 -0.221238 -0.706932
496 -4.58181 -2.4886 -6.82913 -0.466812 0.271658 0.266647
543 -4.01849 -1.58308 -6.8287 -2.69871 -0.995218 -1.55123
782 -3.72877 -2.67667 -6.40108 0.582321 -1.91878 -0.24037
490 -4.56241 -1.57144 -7.68408 -0.679668 0.763298 -0.770574
499 -2.20099 -2.87088 -7.46702 -2.24517 1.13198 -3.11599
500 -3.11455 -2.5857 -7.15994 -0.0605539 0.777481 0.250088
786 -2.06652 -2.58447 -6.5542 0.832843 2.0792 0.777328
552 -1.60214 -2.15285 -7.29464 1.65542 -0.992584 -2.96006
835 -2.86603 -2.23616 -6.06772 2.22629 -3.70695 0.762995
547 -0.715346 -2.23682 -7.75303 1.01935 1.32324 0.829026
837 -0.494685 -1.5885 -6.09798 0.744008 -0.585551 -2.20467
503 -0.0416499 -2.28162 -6.76645 1.1889 1.89779 0.499196
551 0.498221 -2.12183 -5.88243 1.3857 -2.25914 1.31181
508 0.830604 -3.26653 -7.42175 0.0542232 -1.93067 -1.32382
506 0.943042 -1.92 -7.00067 -1.35712 2.05259 -0.233324
559 1.67523 -2.68277 -6.99734 -1.21304 1.39465 -0.216191
797 1.63934 -2.7449 -5.86042 1.4438 -1.824 0.303114
513 3.14168 -2.97546 -7.76994 -2.91471 -1.31043 1.76859
557 2.11521 -1.70191 -6.93957 -2.09069 -0.499802 1.87722
511 2.48372 -3.14371 -6.808 -1.79213 -2.14489 -0.936904
510 3.10145 -2.19128 -7.2564 -0.374147 0.935767 0.395555
512 2.61104 -2.33015 -6.15984 1.76363 -0.32588 0.500314
801 3.20659 -3.40536 -6.1509 2.00554 -2.37584 0.594651
514 3.94637 -2.52494 -7.55218 1.34078 -0.62844 2.04527
515 3.80667 -3.14916 -6.84557 -2.53877 -1.6017 1.8153
520 4.62039 -2.35384 -6.85972 -3.25088 0.097455 -1.00416
516 3.70615 -2.23749 -6.39202 0.845451 -1.80725 -0.365962
519 5.3083 -3.16768 -6.95189 0.181056 -0.0577265 0.0772829
565 5.09724 -2.41322 -7.65581 1.60575 0.818215 -1.73403
567 6.25263 -2.36997 -7.11604 1.84361 -0.135628 2.3306
523 6.84263 -3.15271 -6.87905 -2.47637 -0.391765 -0.533448
522 6.88594 -2.50867 -7.822 -3.01058 0.12125 -2.29079
528 7.43693 -2.3641 -6.79704 -0.298709 2.45513 -3.34855
529 9.17455 -1.63802 -7.62675 -3.1094 -0.745299 2.95984
527 8.46512 -3.22543 -6.91975 1.23849 -1.05239 0.866243
526 8.29938 -2.36049 -7.54885 -1.46114 1.05971 -1.33457
484 9.06584 -2.38475 -6.85743 -0.442798 2.69192 -0.176789
814 8.26463 -2.28844 -6.02771 -2.37815 -1.13727 -1.80433
530 -8.98089 -0.659976 -7.77681 -4.05649 -0.456904 0.417299