ITEM: TIMESTEP
51000
ITEM: NUMBER OF ATOMS
6912
ITEM: BOX BOUNDS pp pp pp
-9.2265715179435492e+00 9.2265715179435492e+00
-9.2265715179435492e+00 9.2265715179435492e+00
-9.2265715179435492e+00 9.2265715179435492e+00
ITEM: ATOMS id x y z vx vy vz
290 -8.47579 -8.34849 -7.66592 2.14878 -0.604464 -0.662139
873 -5.966 -9.11608 -4.41238 1.55867 1.33352 -0.00537911
8 -7.69834 -8.47639 -8.45201 -4.32287 -1.29213 -0.791564
311 -0.741919 -9.18077 -6.796 -0.107822 -0.800916 -0.301142
317 1.66336 -9.18278 -7.7084 -1.52004 1.9177 0.731341
1457 -3.01455 -8.98303 -1.40982 -1.88446 -0.533372 -1.11495
4925 1.53946 -0.145002 -1.34514 -3.34288 1.97768 -0.660406
12 -6.24796 -8.60779 -8.45639 -0.378124 -0.822995 1.50693
210 -2.26223 -2.28272 -9.11296 2.21137 0.866275 -4.9312
298 -5.42975 -8.62843 -7.58028 -1.68144 1.36451 -0.0484266
1994 0.711117 -0.989216 -0.0699706 0.120501 0.953302 -2.37684
16 -4.7345 -8.47203 -8.42332 -1.05935 1.70199 -0.483466
1459 -2.19749 -9.14678 -0.785454 -0.383929 -0.675586 -1.97114
1684 8.91117 -0.667606 -0.853167 1.49339 -0.497225 0.5096
349 -4.686 -7.65772 -7.75535 2.25043 1.55609 -0.632194
133 4.5812 -6.15016 -9.24172 -1.24471 -1.76326 -0.917455
20 -3.08509 -8.44465 -8.40199 0.956448 0.0049419 0.677082
67 -2.25946 -7.76649 -8.40161 0.130466 1.4139 -1.08539
3787 6.81844 0.0243069 -6.85353 0.439813 2.61455 0.833171
3479 -0.700444 -0.0440693 -8.64182 1.38083 -0.0928807 0.85549
4343 -0.757016 -0.108327 -3.8913 -0.0551528 1.88428 2.00697
24 -1.46347 -8.52867 -8.60171 1.19306 2.24159 0.131811
71 -0.833049 -7.60448 -8.29225 1.73122 1.31467 -0.411906
357 -1.59493 -7.59569 -7.6604 -1.80984 -1.00929 0.417149
117 -1.59469 -6.17146 -9.15946 -0.411547 -0.83587 -0.998582
28 -0.057874 -8.27144 -8.42169 -2.32179 0.577221 0.293588
891 0.885392 -9.12262 -3.88266 -2.19061 -2.23142 1.1661
269 1.60567 -1.59596 -9.23001 2.42354 1.10148 -0.356941
4899 -8.35673 -0.0646122 -0.98019 -0.350751 1.52506 -1.70747
32 1.48687 -8.59697 -8.41777 -0.900559 -0.175604 0.256028
75 0.910522 -7.79897 -8.45168 0.355757 -1.72263 -0.773511
1481 6.21937 -9.13889 -1.55357 0.111062 1.12322 -1.75047
36 3.08972 -8.67054 -8.53739 -0.54814 1.45283 1.40195
318 2.48162 -8.53503 -7.70437 -2.8238 0.428374 1.87312
3467 -5.34256 0.00610222 -8.36371 -0.971308 0.760418 2.41148
40 4.68803 -8.44266 -8.47345 0.519379 -1.27399 2.14719
82 3.84207 -7.01058 -9.09517 -1.39736 1.70208 0.421167
44 6.08598 -8.54586 -8.19602 2.43838 -1.60107 -1.2161
326 5.46488 -8.59719 -7.47351 2.43066 2.59842 -2.52143
3775 2.2575 -0.0266836 -6.9021 1.9121 0.0759323 0.333222
237 7.59883 -2.95414 -9.14355 0.0283557 2.12797 0.8801
230 5.40555 -2.28713 -9.17017 -1.02317 -1.6114 -1.74896
48 7.57865 -8.39972 -8.4512 -0.602742 -1.20304 -3.18287
91 6.79173 -7.81237 -8.41464 -0.2015 -2.13552 0.988394
11 -5.38351 -9.16451 -8.51266 0.867001 0.865128 -0.671838
330 6.90907 -8.69076 -7.69041 0.405641 1.28765 0.33661
4349 1.57449 -0.0328353 -4.61259 0.614914 -1.06391 2.24177
3465 -6.21052 -0.158298 -9.2341 -1.16489 -2.16371 -0.438988
1441 -9.18189 -9.21321 -1.43522 -0.781743 -0.485382 1.50513
4 -9.22172 -8.53769 -8.41022 -0.194605 3.08519 -2.44161
95 8.47486 -7.80806 -8.48236 -2.85035 -0.832807 1.51191
334 8.48334 -8.49923 -7.74622 -1.11765 0.689655 -0.491858
337 -9.26914 -7.61902 -7.78653 -2.3625 -0.0184016 -0.867565
1455 -3.5261 -9.05907 -0.590076 -5.11195 1.52984 -0.690549
51 -8.58167 -7.69691 -8.44117 0.708104 0.763117 0.331843
56 -7.57547 -6.96131 -8.42745 -1.29058 2.60302 0.374395
389 -7.38994 -6.28212 -7.59242 2.06176 -2.25771 1.75181
99 -8.22916 -6.1383 -8.45313 0.646293 1.80117 -0.803255
4359 5.32471 -0.118657 -3.80642 -0.646318 -1.61431 -1.43603
55 -6.97452 -7.67579 -8.23698 0.982993 -2.73017 -0.967604
103 -6.86299 -6.26925 -8.44754 -0.441992 1.89441 -2.54397
1978 -5.41285 -0.64907 -0.0755651 0.439375 -1.25434 -0.340165
1443 -8.52326 -9.17455 -0.680489 0.577408 -1.7255 -2.79235
59 -5.41403 -7.79743 -8.48069 1.03411 -0.749959 1.06154
4931 3.81801 -0.0228966 -0.840968 -0.437814 1.50788 1.66047
60 -6.00722 -6.88487 -8.3801 -0.925241 -0.414806 -2.67319
869 -7.62373 -9.11375 -4.35359 2.08183 -0.511485 0.659159
63 -3.79392 -7.67143 -8.43032 -0.891407 0.571814 -0.830199
64 -4.75998 -6.94328 -8.44538 0.640561 0.0427466 -1.55662
111 -3.89046 -6.25909 -8.54936 -1.36593 2.21678 -3.40693
15 -3.90642 -9.23239 -8.39194 -0.0414524 -1.62416 0.547431
68 -3.10173 -6.89554 -8.49884 -0.374906 1.1548 2.81136
115 -2.34958 -6.21889 -8.47198 2.18041 -0.0875162 1.24262
65 -3.05502 -7.64666 -9.12547 2.82591 -0.76465 0.540107
3781 4.80191 -0.19142 -7.71161 2.082 -1.45246 -3.17108
72 -1.60787 -6.86993 -8.30307 -2.51085 0.470316 -1.05653
358 -0.829776 -6.89729 -7.65478 -0.527352 -1.87638 3.39942
119 -0.594626 -6.16581 -8.37579 0.932991 1.727 -2.40316
76 -0.0855808 -6.99986 -8.3245 0.395627 2.00077 0.829789
362 0.793023 -7.12511 -7.70588 -0.0979081 1.06214 -1.779
181 4.59062 -4.49565 -9.12339 2.03773 1.27209 2.28326
80 1.53664 -6.95462 -8.55773 -2.09336 0.585526 -0.966525
226 3.81021 -2.34238 -9.20788 -0.652683 2.33841 -1.47112
79 2.38914 -7.83246 -8.51451 -1.53049 4.17088 -1.55612
84 3.11047 -6.93388 -8.40006 -1.83274 -0.598755 0.242369
127 2.34744 -6.29322 -8.49817 1.96078 0.366684 -1.41533
366 2.17605 -7.06255 -7.73069 -2.22935 -0.772892 1.01073
286 8.34803 -0.585683 -9.15465 2.38557 0.202882 -3.20428
83 4.09007 -7.72988 -8.45825 -0.525874 -1.75749 0.240843
88 4.72207 -6.93069 -8.52948 0.614352 0.869981 -0.166295
4933 4.78265 -0.111505 -1.4928 -2.27535 -0.552988 -1.83391
3463 -6.74411 -0.0218707 -8.39536 -1.21232 -0.583665 -1.72505
87 5.32685 -7.78045 -8.4959 0.0277301 -0.810082 -0.415499
92 6.07972 -6.97817 -8.49132 -0.706551 -1.16289 -1.58656
135 5.46364 -6.19337 -8.58102 -0.826193 -0.12109 2.71934
3459 -8.29655 -0.0337129 -8.43521 0.0268205 2.89742 2.53255
96 7.69825 -6.78889 -8.48879 -1.051 1.7221 0.301555
378 6.78578 -6.92769 -7.81281 -0.659372 1.48591 -0.829183
139 6.85217 -5.99504 -8.45018 0.044243 -1.61581 -0.484667
54 -6.73527 -7.02854 -9.10156 1.6118 -1.62952 0.793444
182 5.3707 -3.8851 -9.18252 -0.34222 -1.48923 -0.173073
52 -9.23483 -6.88191 -8.46248 -2.19327 0.995448 0.132443
143 8.44397 -6.19137 -8.47163 0.744591 1.04488 1.31612
386 -8.22983 -5.38498 -7.85551 0.341416 0.0928222 0.612987
147 -8.41037 -4.64752 -8.49789 1.11794 -0.144444 -1.1925
100 9.12936 -5.42743 -8.56477 -0.198742 -0.889851 0.555653
104 -7.52295 -5.36056 -8.59701 -1.32109 -1.24037 -0.67631
151 -6.85623 -4.39216 -8.42599 -0.277559 -0.0286103 0.529231
1461 -1.41659 -9.07389 -1.52824 0.542083 0.893928 -2.13771
23 -0.700366 -9.05216 -8.57736 0.399491 0.840546 0.338589
583 -6.87145 -9.15576 -5.31797 1.06531 -0.402583 -0.18871
107 -5.34728 -6.14355 -8.44989 1.31785 1.07651 -2.484
108 -6.13797 -5.38801 -8.40898 -0.26676 0.67616 0.748178
441 -6.10216 -4.63149 -7.77703 -0.506899 0.794943 2.73135
155 -5.48304 -4.61314 -8.56049 -1.45889 -0.920273 2.38339
112 -4.717 -5.26463 -8.59625 -1.06379 0.581037 2.32753
397 -4.62692 -6.15672 -7.8227 -0.731602 0.181839 -1.61853
116 -3.07537 -5.3861 -8.45874 -1.57086 3.24613 0.805525
163 -2.20245 -4.67302 -8.5888 0.39784 0.00156739 0.328473
405 -1.50398 -6.08655 -7.69503 0.195779 1.2844 -1.49614
120 -1.54795 -5.53964 -8.50961 0.118266 -1.62476 -2.22581
406 -0.697118 -5.37978 -7.6533 1.571 0.429734 0.587369
167 -0.677094 -4.53583 -8.51349 0.665746 1.62232 0.565959
579 -8.59339 -9.12886 -5.2268 0.251621 0.665244 1.09667
123 0.54438 -6.29687 -8.51492 -1.58537 -2.02143 0.167207
124 0.0790144 -5.35623 -8.48701 1.94344 1.27083 1.38738
1830 -7.0778 -5.33349 -0.034683 2.80291 1.88568 1.01538
18 -2.34338 -8.38095 -9.23172 -1.94282 1.32865 -1.13619
413 1.49186 -6.33226 -7.75105 -0.418108 -1.58065 -0.111292
128 1.54467 -5.34194 -8.53881 1.22622 2.43186 -1.14528
410 0.768555 -5.50499 -7.79494 -0.588358 -0.177053 0.887564
89 5.96932 -8.0666 -9.13654 -1.37156 1.22997 -2.07234
132 2.96568 -5.48312 -8.48732 -0.6212 -2.61187 3.09353
1881 -6.23333 -4.52766 -0.0918926 0.443057 -3.52319 0.00226697
305 -3.15905 -9.15191 -7.59588 0.287532 -3.48967 -0.00962555
131 3.89462 -6.17192 -8.43394 -0.675272 -1.7865 -1.14555
136 4.58533 -5.38392 -8.42793 -1.02706 -1.61049 -1.12474
57 -6.13806 -7.81374 -9.02222 0.563024 1.68507 -0.556014
425 6.04667 -6.18176 -7.76925 -1.37745 0.184537 3.26552
140 6.05711 -5.35996 -8.54089 -0.959049 -1.57354 -2.59329
183 5.4125 -4.62125 -8.32224 0.157586 0.93316 -0.640819
213 -1.59937 -3.17037 -9.10748 0.798517 0.744999 -3.26403
144 7.75899 -5.25028 -8.56689 -0.587698 1.3438 1.71019
187 6.92864 -4.62547 -8.56694 -0.113915 -0.556453 1.60226
14 -3.85184 -8.46881 -9.16186 3.76541 1.38821 -2.26993
109 -4.71797 -6.28226 -9.13739 0.906607 2.09125 2.08828
433 9.17139 -4.37562 -7.83424 1.02793 1.24546 -0.755976
191 8.50164 -4.60204 -8.56903 -0.560158 0.202998 -0.278684
3747 -8.49112 -0.016095 -7.06658 -0.357764 0.873384 -1.09182
430 8.53821 -5.20911 -7.8139 0.740974 2.3899 -0.233619
69 -1.57325 -7.71296 -9.19406 -0.360909 0.929705 -2.81667
195 -8.55983 -3.03695 -8.54878 -0.220475 -1.11209 0.0289313
434 -8.46518 -3.68644 -7.79687 1.58135 0.161834 2.5738
152 -7.71659 -3.7982 -8.49025 -0.084823 -0.316755 -1.16819
199 -6.92011 -3.20659 -8.33895 -0.123798 -0.938311 4.13363
3783 5.35479 -0.0439935 -6.88839 2.40205 1.42691 -0.308818
438 -6.86406 -3.78733 -7.59153 -0.523779 -0.295595 2.22086
4617 -6.1774 -0.0877442 -3.12538 1.1775 0.405836 1.68938
156 -6.08622 -3.91193 -8.48584 0.717072 3.30663 -1.46651
203 -5.36016 -3.02591 -8.5271 0.741565 1.25717 0.620498
159 -3.87086 -4.82635 -8.56981 -0.306414 2.64316 -1.76444
445 -4.76845 -4.45129 -7.74659 0.722479 0.657022 -0.517091
160 -4.73557 -3.97356 -8.60412 2.31655 -4.1326 -1.41636
446 -3.8004 -3.92132 -7.80686 -2.56746 1.62571 -1.00644
207 -3.92947 -3.04587 -8.47283 0.885692 1.48244 -1.74474
493 -4.66057 -3.27318 -7.60681 -0.563006 2.22139 0.753654
4615 -6.77188 -0.0453141 -2.39605 0.206399 1.73744 -0.141269
164 -2.90345 -4.00228 -8.45887 -1.68282 0.145833 0.923627
450 -2.30335 -3.97191 -7.73805 0.662077 -1.1959 -2.25037
211 -2.2723 -3.11022 -8.26422 1.96752 -0.719822 -1.6754
168 -1.53621 -3.90887 -8.46257 -0.00313441 -1.87975 0.198902
215 -0.831659 -3.27143 -8.37013 1.3069 -1.69886 -0.591553
453 -1.50414 -4.67841 -7.65278 -0.0737445 -0.0868981 -0.108067
1199 8.35411 -9.16173 -2.37595 -1.3059 0.024866 -2.19044
457 0.117624 -4.61283 -7.54871 2.03488 -1.45374 0.672456
171 0.927649 -4.58911 -8.41013 0.151252 -0.566834 1.09909
172 -0.0477925 -3.8458 -8.54653 1.05813 1.05783 -0.82201
458 0.860948 -3.77525 -7.82514 -1.15191 2.23632 1.27807
176 1.6117 -3.7924 -8.64793 0.899213 -0.703838 -0.762729
461 1.41999 -4.70664 -7.58065 -0.913242 0.317337 -2.31557
175 2.20771 -4.59123 -8.60503 2.66119 -2.64889 -3.25745
180 3.09861 -3.88196 -8.42073 -0.384443 0.780562 -1.4494
462 2.32131 -3.96817 -7.74281 -0.152243 0.158858 0.734944
223 2.37633 -3.08642 -8.41203 1.11636 -0.445466 -3.66242
465 2.99989 -4.68918 -7.77337 -0.867852 1.07429 -0.402832
179 3.80622 -4.62846 -8.39621 0.490666 -1.29496 0.0169011
184 4.67078 -3.77838 -8.47635 0.305083 1.18734 -1.32596
466 3.88324 -3.87779 -7.70708 -1.39281 -0.102252 -0.867031
227 3.91148 -3.15022 -8.48477 -0.320895 0.79133 0.272416
188 6.16951 -3.90709 -8.5073 -0.872911 0.830202 -1.61403
521 6.17213 -3.17462 -7.57501 -0.368173 -0.61942 0.715118
473 6.25524 -4.70009 -7.7158 -0.252347 0.222525 -0.0216046
4333 -4.67958 -0.159801 -4.52266 0.518711 -1.49964 0.504089
192 7.67284 -3.69985 -8.46191 0.38657 -1.54468 0.225353
525 7.75946 -3.05333 -7.71887 -1.55614 -0.26272 -0.0608113
235 6.92183 -3.07574 -8.33042 -0.352002 -2.17045 -2.36541
4635 0.785254 -0.323526 -2.1755 0.207547 -3.07494 2.43187
148 -9.20504 -3.78408 -8.5616 -0.00794313 3.39198 2.55643
239 8.50592 -3.02393 -8.37789 -3.35211 1.3264 -4.20523
478 8.44538 -3.72179 -7.57168 -0.459456 -0.747853 -1.78594
905 6.23752 -9.08062 -4.75524 -1.47542 -0.307174 -0.284089
243 -8.5167 -1.42934 -8.56157 1.20536 4.08526 1.51342
196 9.22048 -2.25065 -8.55243 1.59187 -0.322889 -0.741479
482 -8.45001 -2.37591 -7.70628 -1.07568 -1.03137 2.98905
529 9.16586 -1.52018 -7.56514 0.0929543 0.162626 -1.70154
4339 -2.15839 -0.197852 -3.96765 2.50564 -1.45105 1.99462
200 -7.75967 -2.30864 -8.52489 -1.13161 -2.57891 -0.0967961
486 -6.90417 -2.24513 -7.85367 -2.03889 2.31107 -0.0703253
204 -6.12852 -2.31112 -8.44588 1.35769 -0.554654 2.0288
251 -5.22165 -1.5934 -8.56345 -2.11005 -1.08164 -0.0377884
537 -6.02919 -1.55258 -7.70742 -0.342245 -2.35588 -2.72992
208 -4.4786 -2.26026 -8.58897 -0.317335 0.658129 1.52872
3751 -6.79903 -0.0617676 -7.01415 0.0264475 -0.0427892 -1.02478
257 -2.98859 -1.62676 -9.11119 0.255775 2.29331 0.719467
4655 8.36573 -0.0494369 -2.21155 -2.14804 1.31366 -3.00499
212 -2.90105 -2.26741 -8.38822 0.829175 -0.963455 1.41041
498 -2.03812 -2.25377 -7.76487 1.12833 0.237797 -2.23588
216 -1.52068 -2.43372 -8.53047 -0.257576 -2.17079 1.04545
263 -0.595759 -1.63458 -8.50205 1.51741 0.855136 -0.326349
220 0.115257 -2.31188 -8.62303 1.71234 1.94011 -0.630313
313 -0.0133559 -9.09759 -7.6306 1.55992 0.401103 -1.89082
1870 8.55542 -5.39327 0.00515355 1.60239 -0.315324 1.50161
219 0.717866 -3.2026 -8.52919 1.12281 -1.38931 -0.068527
224 1.43887 -2.45393 -8.64079 -1.53045 0.608572 -1.23367
509 1.52529 -3.01309 -7.72962 2.39342 0.894847 -1.84569
506 0.771177 -2.31392 -7.58677 2.12189 0.0730932 1.04052
267 0.765266 -1.62616 -8.3367 0.373471 0.90841 0.741499
228 3.11446 -2.29348 -8.31383 2.00072 0.197834 2.17304
510 2.36053 -2.32044 -7.67224 -1.57869 -0.326973 -1.59186
271 2.3853 -1.54443 -8.38505 -2.0043 -2.09655 -1.20991
513 3.08597 -3.07999 -7.62509 0.989193 -0.971839 0.597943
561 3.09931 -1.47851 -7.68362 0.615167 -0.881346 1.43107
517 4.5075 -3.11736 -7.61415 0.39945 -0.117119 3.08516
232 4.59586 -2.3568 -8.28255 0.949295 0.570723 0.209726
514 3.86857 -2.21628 -7.66206 -0.249122 -0.835031 0.484612
275 3.85725 -1.44798 -8.49651 1.98102 -1.79229 -2.03053
907 6.98885 -9.19204 -3.85281 -1.70235 2.30163 -1.248
231 5.26235 -3.0164 -8.52091 0.0737308 0.766681 -0.0430253
236 6.15703 -2.48372 -8.45525 0.263744 -0.618806 1.04514
518 5.43669 -2.40615 -7.73753 1.78704 -0.741777 2.62126
569 6.24917 -1.60199 -7.72317 -1.24755 1.06517 1.13598
240 7.78944 -2.1875 -8.59274 -0.0847601 0.0271634 0.842043
283 6.98485 -1.44974 -8.43729 -1.17354 2.53549 0.640986
573 7.70841 -1.38549 -7.86026 -1.75447 0.267579 -2.28598
526 8.49305 -2.225 -7.62808 1.26075 1.05112 -0.336209
287 8.37086 -1.43459 -8.48631 -0.803905 -1.0282 1.49356
244 9.13594 -0.731437 -8.45389 1.9697 -1.27642 -0.660411
623 8.42216 -9.19838 -5.43271 0.721504 0.133099 1.05114
22 -0.743632 -8.33379 -9.21672 0.516554 0.136692 -0.274374
4365 7.54637 0.0425989 -4.69138 0.312185 1.04222 -2.01765
247 -7.09971 -1.56321 -8.58238 2.26949 0.564876 0.772263
248 -7.65064 -0.758476 -8.52542 -0.284225 -1.71878 1.42528
534 -6.83292 -0.883975 -7.74742 0.259076 0.545821 -0.878715
4651 6.70723 -0.171686 -2.29164 0.53691 1.84078 -0.0850226
252 -6.21204 -0.954921 -8.50813 0.231575 -1.40038 -2.33251
538 -5.07098 -0.819916 -7.81822 0.256757 -2.24298 0.00151746
4363 6.75078 0.0104885 -3.84005 1.00988 0.483992 -0.94617
1467 0.849295 -9.2167 -0.54911 1.28876 -1.62665 -1.79572
255 -3.74863 -1.50938 -8.38622 -2.32617 1.0936 0.84328
256 -4.56817 -0.826675 -8.56857 -0.458959 1.79949 0.200946
542 -3.80636 -0.743528 -7.71355 -0.661314 2.91822 0.980443
893 1.64561 -9.22644 -4.51723 -2.74431 -1.54044 -0.794981
1681 9.16058 -1.45649 -1.54167 4.04625 0.957194 -0.421082
259 -2.15792 -1.52247 -8.4944 2.72058 0.848398 -0.735863
260 -3.03706 -0.818335 -8.4819 0.930971 0.373224 -0.896316
46 8.44361 -8.59457 -9.25808 0.453943 -1.15219 -1.59683
264 -1.36764 -0.930836 -8.57094 0.967742 2.11976 0.274436
4049 -3.12953 -0.119501 -6.19866 0.970703 -0.385699 -0.357527
268 -0.0610439 -0.873485 -8.60718 -0.381486 2.5904 -0.572508
550 -0.789324 -0.80404 -7.7569 -0.658864 2.76064 -1.86558
553 -0.198153 -1.6089 -7.60659 -0.844807 -1.55127 1.24961
270 2.37829 -0.766977 -9.12006 -2.42041 -2.2936 0.435148
4649 6.054 0.00514901 -3.10476 -2.78733 2.30043 1.35968
2010 6.99985 -0.719187 -0.0310524 -0.270757 -0.753321 1.86923
272 1.67094 -0.9473 -8.49168 -1.15935 -2.39134 1.21802
554 0.713968 -0.890393 -7.7031 0.690619 -0.745485 2.51805
276 3.11688 -0.758557 -8.43732 -0.264835 3.95922 0.636524
3767 -0.671464 -0.0408179 -6.91191 4.66684 0.619555 1.07262
280 4.52753 -0.778117 -8.32665 -3.17271 0.355761 -1.28153
1965 7.6385 -3.12833 -0.0271313 0.663362 0.204668 1.02271
1159 -6.97493 -9.21399 -2.17614 0.430151 -2.22802 1.43854
611 3.95116 -9.1378 -5.3164 0.39469 0.45983 0.262755
279 5.45683 -1.62409 -8.44212 -0.500622 -1.22561 -1.92276
284 6.16155 -0.828326 -8.46187 -1.53932 2.1899 1.0987
3457 9.19162 -0.0805552 -9.05673 0.408739 -1.94285 1.63388
288 7.55624 -0.630075 -8.63338 0.236721 -1.35871 0.546909
570 6.90438 -0.650202 -7.68008 2.17634 -1.25911 0.257011
193 9.11079 -3.02598 -9.1997 -1.50857 -0.520375 -1.66054
3483 0.881679 -0.302594 -8.49952 0.0837388 -1.56488 0.327156
887 -0.996528 -9.22511 -4.21728 -0.77275 -0.392885 0.255511
1453 -4.61433 -9.1193 -1.39553 -0.869706 1.68001 -1.08471
4351 2.23399 -0.123507 -3.86208 0.471642 0.229268 0.90205
114 -2.3138 -5.43405 -9.1886 -1.78847 0.182838 -1.76225
578 -8.5762 -8.50027 -6.18783 1.39308 0.043078 1.49429
339 -8.47627 -7.58738 -6.90579 -1.3943 1.20672 -0.902909
587 -5.27645 -9.25116 -5.17719 -2.04365 -2.01602 -1.98358
341 -7.74127 -7.70186 -7.65227 2.16857 0.899642 0.950992
294 -6.86406 -8.4691 -7.63814 0.162396 1.10801 0.763672
296 -7.83947 -8.55621 -6.96075 -0.817733 -0.0948653 -0.540784
289 -9.20871 -9.16558 -7.67111 0.609966 -0.119243 1.5799
300 -6.23322 -8.36473 -6.83483 0.917791 -0.824922 -0.0166658
347 -5.33484 -7.84599 -6.92969 0.20959 -2.36346 0.996968
633 -6.1061 -7.73169 -6.17186 -1.01338 0.118924 -0.566222
586 -5.38616 -8.62633 -6.16169 -1.07313 -1.97395 1.24929
3461 -7.60013 -0.0178772 -9.15491 -2.27204 -0.381907 1.19334
302 -3.92207 -8.27258 -7.6038 -1.24729 -1.75458 2.94646
304 -4.57275 -8.63436 -6.93539 2.11966 -2.46254 0.0613066
351 -3.84543 -7.57177 -6.85216 -2.26589 -1.08792 -0.348305
306 -2.37049 -8.61115 -7.71101 -1.59761 0.178895 0.0619707
308 -3.16603 -8.32736 -6.94378 1.97955 -0.298635 1.04365
353 -3.08423 -7.5817 -7.83379 0.276464 1.88314 1.32227
4913 -3.0149 -0.0256874 -1.50715 1.07577 -0.148554 2.99032
615 5.4485 -9.08664 -5.36963 0.671823 2.36613 -0.15003
310 -0.81734 -8.46169 -7.71176 0.996925 -2.53436 -1.70184
312 -1.62582 -8.48401 -6.78952 1.44255 -0.857048 -0.0641221
186 6.89466 -3.83995 -9.15648 0.635937 -0.583517 0.74707
3769 0.0693312 -0.172625 -7.86786 0.360317 0.583308 1.35281
316 0.0428521 -8.55506 -6.87135 -1.65016 1.48545 -0.432824
4627 -2.208 -0.0141211 -2.27057 -1.76377 1.75716 2.55823
314 0.681792 -8.41269 -7.65588 0.602652 1.36425 1.85699
320 1.73238 -8.53379 -6.86416 -1.73591 -0.872298 1.47327
602 0.802618 -8.62867 -6.12577 0.430145 -0.576962 -1.50631
4921 -0.0134623 -0.0651178 -1.62175 2.43394 0.816904 1.58268
1897 -0.139065 -4.5388 -0.0224385 -0.0516495 0.77803 1.25706
324 3.21375 -8.65262 -6.96654 1.32116 0.445896 3.23735
606 2.44292 -8.42161 -6.18983 0.515528 -1.30298 0.672762
322 3.87655 -8.52114 -7.72646 3.56602 1.10005 0.695484
328 4.57377 -8.4551 -6.92466 1.41437 -0.301781 -0.597263
371 3.74364 -7.83634 -6.78385 1.83701 -0.25364 -0.396349
1941 -1.57533 -2.97054 0.00245005 1.12219 2.51144 1.87432
332 6.16117 -8.46521 -6.77794 -0.139386 -1.63874 1.38156
665 6.00809 -7.56506 -6.17842 -0.604696 0.545743 -1.61472
614 5.33457 -8.51035 -6.12217 -0.417479 0.99757 -0.675619
375 5.34641 -7.72802 -6.89274 1.56162 2.35086 -2.91617
1938 -2.36548 -2.45236 -0.076357 -0.548024 0.0525247 -2.29952
1857 2.94415 -6.26221 -0.026961 -0.331726 2.39199 0.106479
336 7.74957 -8.47645 -6.99376 -1.10105 -1.16156 0.157029
618 7.02032 -8.45065 -6.2129 -1.4288 0.174889 -0.468559
379 7.02026 -7.55321 -7.01972 -0.955863 0.843876 -0.710436
198 -6.87615 -2.37645 -9.19102 -1.11137 -2.26787 1.5544
1873 9.10569 -4.44116 -0.0296413 -1.26186 -0.720716 1.15706
292 9.19996 -8.53572 -6.95645 0.657173 -2.69733 -0.608929
383 8.54371 -7.71265 -7.03307 1.19942 -1.65095 -2.75606
338 -8.32039 -6.94477 -7.66614 -2.79499 0.955977 0.768777
387 -8.35921 -6.09693 -7.04162 -1.64159 -1.56708 0.126154
342 -6.76612 -7.02214 -7.55518 2.8639 0.0228954 -1.28339
344 -7.66327 -6.99978 -6.78385 0.844691 1.64599 0.639765
343 -6.99386 -7.69842 -6.73618 0.703944 -0.854396 -1.22653
630 -6.82699 -6.95126 -6.0767 -0.501686 0.0699612 -1.09305
391 -6.88384 -6.09016 -6.80672 0.807537 2.14391 2.48612
346 -5.42048 -6.9047 -7.54419 1.21876 -1.48744 1.34374
345 -6.12884 -7.77517 -7.69967 -2.26304 -1.93955 -1.70398
348 -6.23405 -7.01228 -6.77227 -0.0381621 -0.741543 0.222868
634 -5.42239 -6.97655 -6.23177 2.49941 -0.536367 0.191674
350 -3.91123 -7.02125 -7.67448 0.418771 0.109192 3.16028
352 -4.69124 -6.93429 -6.80877 1.1317 0.9354 -0.847021
399 -3.95043 -6.20045 -6.77364 -1.39108 -1.5958 1.04373
355 -2.54103 -7.62566 -7.0598 0.234581 -1.26694 -1.24783
356 -3.16817 -6.84064 -6.72875 -3.4743 0.755099 0.305174
354 -2.27032 -6.77832 -7.64686 1.83891 1.42815 0.295768
401 -3.17713 -6.28928 -7.75917 -0.748423 -2.8697 -2.30492
642 -2.31865 -6.79037 -6.04649 -1.47822 -2.24427 -2.9913
360 -1.63169 -6.88156 -6.97107 1.16675 0.648059 0.932424
359 -0.921658 -7.91669 -6.91922 1.30568 1.4717 0.75117
407 -0.748354 -6.10147 -7.00152 -0.363805 0.324662 0.50036
361 -0.188612 -7.7411 -7.6159 -0.854009 -1.14002 0.497929
364 0.0675092 -7.032 -6.97936 -0.204553 -0.119452 -0.565567
409 0.0239245 -6.19607 -7.58175 0.24325 -1.85647 0.786242
363 0.789539 -7.85177 -6.66623 0.242258 1.13171 -0.0513912
365 1.53742 -7.79565 -7.64246 1.87979 -2.19919 -0.24365
368 1.50874 -6.97403 -6.94522 3.17514 1.23534 -1.04507
654 2.43221 -6.89032 -6.3559 -0.481515 -1.82196 1.75875
650 0.71226 -6.98174 -6.20035 -0.61657 -0.877045 -0.680641
369 3.10139 -7.81377 -7.85224 -0.749165 0.708773 -1.34375
417 3.21414 -6.2933 -7.73407 -1.80126 0.967879 -1.82328
367 2.39701 -7.72704 -7.05096 -0.3693 1.18283 0.656327
415 2.49538 -6.27832 -7.18312 1.24736 -0.28414 -1.4352
372 3.09533 -7.04136 -7.13137 1.99872 -0.43396 -0.706324
373 4.65502 -7.93906 -7.67245 1.16791 0.141604 -2.4648
370 3.98741 -6.98381 -7.79784 -0.777226 -1.12655 1.25854
376 4.62992 -7.01648 -7.06765 0.0384827 1.06791 -0.782755
377 6.08719 -7.67785 -7.66315 0.954536 -3.51992 -0.902581
374 5.30752 -6.90008 -7.73254 2.78411 2.44149 0.765411
380 6.26005 -6.87871 -7.01383 0.00891373 0.682494 -0.830992
662 5.2017 -6.99396 -6.14785 0.0499071 -0.0926704 1.26946
381 7.70369 -7.61927 -7.78361 1.95581 -2.49092 1.43306
429 7.73559 -6.02278 -7.80453 2.12301 -0.886868 1.62104
666 6.82998 -6.96866 -6.24599 0.152595 1.90083 -3.89512
717 7.58903 -6.19014 -6.09487 -1.32867 -2.59167 -1.18138
384 7.94951 -6.78617 -6.99333 2.385 -2.56822 -0.0425954
427 7.16347 -6.30871 -6.91892 0.135928 -0.233445 -1.56504
382 8.42889 -6.83631 -7.83811 1.78389 2.83412 -1.66568
385 -9.17195 -6.16564 -7.75559 0.711184 0.227751 -0.183861
340 9.15297 -6.87866 -7.01336 -0.74839 -0.843354 -2.71702
437 -7.70198 -4.51022 -7.7595 0.0549169 0.770587 -1.02231
435 -8.3987 -4.50153 -7.11335 1.12408 -0.966982 0.514121
390 -7.00739 -5.27583 -7.7821 2.03773 1.2759 1.0176
392 -7.58346 -5.31528 -6.9766 -1.27355 -0.726994 -1.94219
439 -6.77809 -4.69224 -6.98613 -1.842 0.116847 -0.341764
725 -7.64957 -4.59288 -6.1413 0.442751 0.907869 -2.07522
678 -6.72021 -5.36619 -6.10286 0.193373 1.00743 -0.0811581
393 -6.15183 -6.25812 -7.52004 2.53578 -0.808933 -1.56501
394 -5.31529 -5.38813 -7.77372 -1.25971 0.775965 0.00876467
395 -5.21008 -6.04364 -6.98063 0.231504 -2.3868 0.000784148
396 -6.18755 -5.38591 -7.05559 2.09501 -0.724291 0.482237
443 -5.42057 -4.7017 -6.90713 0.0428248 0.673069 -2.00477
398 -3.94874 -5.45249 -7.84044 -1.8403 1.04351 0.913608
400 -4.62665 -5.21276 -7.03204 1.32545 0.295205 -3.41209
447 -3.94605 -4.48928 -7.04641 0.294097 0.11996 -1.26735
402 -2.23366 -5.38688 -7.82687 1.02642 0.498089 -0.148684
403 -2.36627 -6.13915 -6.8407 -0.864058 1.33946 1.43089
404 -3.19165 -5.54053 -7.08087 2.11585 2.08516 -1.36338
690 -2.19767 -5.27542 -6.03303 -0.835749 -0.0179942 0.0875978
408 -1.66307 -5.42792 -6.83485 -1.69813 3.04491 -0.312543
741 -1.36605 -4.79706 -6.06816 0.385985 0.19826 0.0262114
697 0.0750703 -6.16498 -6.31145 -1.28988 -1.01236 0.640452
412 0.126635 -5.35311 -6.93036 -1.79398 -2.19491 1.78675
411 0.818388 -6.19415 -6.95656 -0.261929 -0.851729 0.306033
416 1.60113 -5.50882 -7.01853 0.353466 1.72936 1.25393
698 0.762129 -5.48546 -6.06472 -0.0132669 1.26435 2.79235
701 1.53119 -6.19868 -6.21575 -1.23517 0.326987 -1.01185
414 2.31563 -5.43008 -7.72856 -2.30464 -0.676127 1.44661
420 3.12866 -5.52038 -6.91592 -0.51169 -1.36781 1.72088
705 3.26162 -6.38829 -6.28383 0.34753 1.78638 0.182198
702 2.26152 -5.54987 -6.2346 -4.99764 -0.671908 -2.55642
421 4.73144 -6.15182 -7.86243 1.10016 -0.378526 -0.715509
419 3.98268 -6.14424 -6.99522 -0.799048 -0.606239 -0.215166
418 3.78822 -5.35078 -7.81079 0.281793 -0.936939 0.341681
424 4.66866 -5.38677 -7.08237 0.363559 0.415369 -0.848831
422 5.4853 -5.47147 -7.60413 0.767514 0.186021 1.30223
423 5.34693 -6.31379 -6.94314 -1.723 2.31551 -0.110859
428 6.36115 -5.726 -6.97261 -2.1917 -0.523933 0.428829
426 7.04359 -5.30304 -7.83584 -1.21821 3.33793 -2.52347
432 7.82404 -5.35633 -7.15226 1.12055 -2.47327 1.89867
477 7.64062 -4.53771 -7.85767 0.899195 1.48782 -1.94984
475 7.13336 -4.6687 -7.00743 0.646781 0.371459 -0.690057
765 7.5821 -4.67364 -6.06607 -1.04083 1.76078 0.0224148
388 -9.04738 -5.23299 -7.20235 -2.72282 -1.31975 1.11241
431 8.58389 -5.99662 -7.06659 1.13802 3.35811 -0.525386
721 9.07059 -4.74208 -6.43465 -0.886779 2.36152 2.52149
483 -8.43623 -3.18025 -6.92536 0.488348 0.723921 1.65352
440 -7.62502 -3.89232 -6.95767 0.627281 0.279523 1.12737
726 -6.85132 -3.88203 -6.18078 -0.80081 -0.0415661 -1.2044
485 -7.62764 -3.01938 -7.72033 -0.432131 1.22902 0.139222
487 -6.947 -3.07084 -6.94288 0.144847 -0.0380276 -3.0076
773 -7.6241 -3.04059 -6.08816 0.255596 -1.17925 -3.63934
442 -5.46288 -3.82866 -7.68997 0.364801 2.76951 -2.18017
489 -6.17336 -3.10344 -7.62566 0.714683 -0.229846 -2.63124
444 -6.04928 -3.78636 -6.94819 0.498136 -1.48935 -0.135188
448 -4.69549 -3.9473 -6.79109 -1.63591 0.928114 2.10994
449 -3.14635 -4.70264 -7.69013 1.50098 2.23527 0.342864
451 -2.47572 -4.75041 -6.84128 -0.944605 0.825442 0.986961
452 -3.15589 -3.83185 -7.04807 -0.298925 -0.853872 -0.157361
738 -2.23126 -4.14244 -6.08805 -2.71877 -2.04375 0.112186
785 -3.09457 -3.25508 -6.15667 -1.14858 -1.23366 -1.23147
454 -0.653166 -4.04615 -7.64952 0.210937 -1.03483 1.82234
456 -1.51598 -4.07189 -6.83253 1.19027 -2.27134 -0.779909
789 -1.4007 -3.22387 -6.16214 -2.49379 -0.961465 -0.781701
455 -0.854681 -4.70588 -6.85728 0.747906 0.23815 -1.60456
460 0.0792723 -3.91606 -6.82749 -2.00262 2.41587 1.59362
459 0.833088 -4.67987 -6.84226 0.285792 -3.21897 -0.213624
749 1.55435 -4.83626 -6.14975 -0.134377 3.3767 -1.9472
464 1.58296 -3.87094 -7.10421 -0.62483 0.444055 -1.21734
463 2.25157 -4.66857 -6.92786 -0.781958 0.210262 1.34149
468 3.08765 -3.91443 -6.89124 0.622775 -1.6555 1.77679
750 2.11217 -4.00612 -6.2281 0.971485 2.70053 0.244818
469 4.57751 -4.6136 -7.74127 0.463535 -1.21448 -0.852877
467 3.80045 -4.64229 -7.03528 -0.114327 -1.1468 -0.101004
757 4.68083 -4.79805 -6.27391 0.0103795 2.90143 -0.804564
472 4.59905 -3.89468 -6.9584 -0.295864 -0.420682 -0.25848
515 3.79136 -3.17542 -6.93359 2.13126 1.91885 -0.102861
805 4.58071 -3.08356 -6.31356 3.76334 1.19886 1.93771
470 5.4228 -3.70401 -7.73989 -1.40447 1.5209 -1.6051
471 5.3034 -4.53124 -7.07841 -3.05003 0.844066 0.0968605
476 6.03927 -3.89694 -7.00742 -0.682485 -1.76797 1.6664
758 5.45508 -3.58711 -6.13661 0.549528 1.26077 1.36525
519 5.33543 -3.04902 -7.00466 1.46487 -0.0697357 -2.05005
474 6.95444 -3.84297 -7.64926 -2.57707 -0.881218 1.45614
480 7.68447 -3.82505 -6.9272 -1.94214 1.1182 0.571302
523 7.06954 -3.13928 -6.96082 2.36512 -0.526584 0.324393
436 -9.29052 -3.77192 -6.81288 -2.97446 2.63983 1.20735
479 8.39259 -4.56147 -7.08048 1.74564 0.831743 0.122204
481 9.13297 -2.99135 -7.54369 -1.79804 0.120175 0.20232
527 8.40976 -3.03688 -6.78239 -1.95153 0.796995 1.73866
531 -8.47329 -1.39866 -7.07621 0.0872403 -0.0255724 -1.14168
817 -9.2392 -1.50218 -6.05356 -2.30228 0.514054 -1.0227
770 -8.33667 -2.38106 -6.17087 1.59851 2.63825 -1.53622
533 -7.7917 -1.58513 -7.8255 0.211509 2.23657 -0.627202
488 -7.71965 -2.18655 -6.96723 -0.0913042 -0.914944 1.84448
774 -7.03376 -2.25527 -6.22555 -1.53995 -0.2427 -3.6385
535 -6.85439 -1.63606 -7.08457 3.32796 -0.408246 -0.920609
821 -7.82158 -1.48885 -6.08445 1.85502 -0.00919664 2.49065
491 -5.50305 -2.94385 -6.98503 0.744528 -0.576771 -1.61679
490 -5.3905 -2.31887 -7.75602 0.914027 -0.631173 -0.00722287
492 -6.11986 -2.1672 -6.90499 0.0779909 -1.88979 0.771839
494 -3.78036 -2.36805 -7.73592 1.01316 -0.0495119 2.33583
541 -4.54984 -1.68211 -7.72373 0.868809 -0.0752028 0.720218
495 -3.89814 -3.14377 -6.99782 -2.96596 -0.467308 -1.07249
496 -4.51606 -2.38276 -7.0363 2.36852 -2.75522 -1.57617
782 -3.65733 -2.34586 -6.35672 -1.11744 -1.12993 -0.460317
497 -3.09389 -3.10477 -7.64148 -2.23335 2.13875 1.34322
545 -2.85981 -1.48042 -7.78422 1.15193 -1.25709 -0.568547
499 -2.34896 -3.19506 -6.77588 0.923231 -2.73124 1.10328
500 -2.86053 -2.38921 -6.96576 -1.47377 -1.95848 -0.519381
786 -2.19273 -2.20968 -6.1672 1.52883 -1.49187 0.904193
502 -0.727721 -2.35902 -7.83226 -0.460535 0.0972446 -1.28016
501 -1.50145 -3.32883 -7.70192 -2.13078 -1.34499 -2.57898
503 -0.687979 -3.35341 -6.88501 2.33035 3.42497 -2.43134
504 -1.53771 -2.42794 -7.02194 -0.702809 -1.40896 2.46486
790 -0.856404 -2.4533 -6.27015 1.13381 -0.974202 -0.378635
505 -0.065087 -3.07436 -7.83827 0.827517 -0.0342024 -1.74925
508 -0.0421741 -2.44978 -6.88752 -2.70673 0.545359 0.365839
557 1.54125 -1.74429 -7.80518 2.03866 -0.176255 1.50222
507 0.889042 -3.22694 -6.95242 -1.24523 0.704808 -0.703737
512 1.65752 -2.405 -6.8484 -0.0887331 -0.00984635 0.517022
511 2.34498 -3.14841 -7.0922 2.06649 -0.343502 1.48335
516 3.11742 -2.42545 -7.00562 -0.493575 0.811908 -0.599526