ITEM: TIMESTEP
149000
ITEM: NUMBER OF ATOMS
6912
ITEM: BOX BOUNDS pp pp pp
-9.2265715179435492e+00 9.2265715179435492e+00
-9.2265715179435492e+00 9.2265715179435492e+00
-9.2265715179435492e+00 9.2265715179435492e+00
ITEM: ATOMS id x y z vx vy vz
4 9.18574 -8.33362 -8.57481 1.70915 0.333167 -0.277427
5209 0.0173934 -0.0397649 -0.067141 0.247035 1.63494 -1.84521
8 -7.57931 -8.32445 -8.65955 -0.484384 2.18824 0.588488
55 -6.8578 -7.52784 -8.41176 -2.03402 1.93893 -0.184862
7 -6.98507 -9.13207 -8.40911 -1.0842 0.926699 -1.1771
12 -6.102 -8.47752 -8.30522 0.502904 -1.18827 -0.815448
59 -5.37896 -7.52327 -8.41236 0.201183 -2.96592 -2.79336
298 -5.27758 -8.46308 -7.69387 2.06434 -3.23434 -0.397247
126 2.42947 -5.33891 -9.14967 -2.68168 0.0342201 0.354953
16 -4.56106 -8.37327 -8.42818 -0.756385 0.922992 -2.04916
3459 -8.58683 -0.117614 -8.64357 0.0799377 -1.07085 -3.5475
349 -4.4912 -7.60215 -7.71546 -1.40745 -0.476062 0.0510411
4897 -9.1317 -0.847631 -0.669435 0.479638 -0.275828 -0.379833
20 -2.97666 -8.34427 -8.5251 0.60363 -1.13583 -1.35433
306 -2.38915 -8.23014 -7.75305 -0.574493 -2.3615 -2.44738
1726 8.35631 -1.00016 -1.40465 1.6255 4.72666 1.14007
24 -1.67439 -8.45015 -8.25697 -2.60086 0.211329 0.802967
1885 -4.31493 -4.50852 -0.0578488 0.970588 -0.222728 1.4192
254 -3.86949 -0.638016 -9.13221 1.36595 0.375179 2.89899
875 -5.2605 -9.11077 -3.70077 -1.35168 -0.912285 0.439548
26 0.0842317 -8.11039 -8.73093 0.3709 -0.318022 -0.3275
4286 -3.86077 -9.15087 -5.45131 0.231464 -2.39614 2.73697
367 1.5288 -8.22865 -8.38411 1.69044 -0.973798 -0.651161
75 0.817224 -7.49957 -8.40804 1.05319 1.22081 2.32839
318 2.37462 -8.45168 -7.91342 -1.83836 0.132878 -0.612691
36 3.24213 -8.5559 -8.5308 -2.12018 1.17245 -0.499975
321 3.1352 -9.16581 -7.7692 -1.42401 -1.17693 1.34994
40 4.67249 -8.56707 -8.3085 -2.58958 -1.77134 1.02382
83 3.94588 -7.62961 -8.4205 0.214849 -1.59923 -0.768004
156 -6.46777 -3.85341 -9.10668 -1.62618 1.35116 2.09579
322 3.82783 -8.30431 -7.82839 1.74432 1.83676 -2.46439
1758 2.22383 -8.62157 -0.153387 1.33999 0.594296 1.16634
44 6.25616 -8.35115 -8.42363 0.514224 0.499921 -0.811651
87 5.30637 -7.59478 -8.48782 -0.257635 -2.25876 0.462997
326 5.58818 -8.34093 -7.61664 2.02533 4.00532 -2.27719
3471 -4.15009 -0.0792158 -8.36687 0.394697 -1.35484 -1.5058
48 7.91656 -8.49619 -8.62374 0.340405 -2.69384 1.05058
381 7.69128 -7.55282 -7.69724 -0.919371 2.56984 1.57998
295 -6.88373 -9.00761 -6.9938 2.29435 3.81232 -1.47709
330 7.00857 -8.36673 -7.75787 -1.72022 2.05455 -2.40021
334 8.40108 -8.29276 -7.71857 -2.00427 3.29439 0.619041
337 -9.17831 -7.46295 -7.7934 2.72458 3.32207 0.00743629
193 9.23316 -3.1413 -9.09636 1.47603 1.68894 0.0935502
51 -8.49737 -7.52693 -8.50604 3.65692 -0.375029 -0.919409
338 -8.42811 -6.85347 -7.9027 -1.49248 -1.26485 -2.08617
56 -7.57132 -6.81389 -8.63333 -1.33799 -1.25727 -4.0511
103 -6.8711 -6.06642 -8.32247 -1.85583 3.48754 1.78696
342 -6.84501 -7.03054 -7.51171 0.961538 -0.483193 -0.607569
60 -6.14744 -6.81835 -8.22213 0.153085 0.894553 0.199715
346 -5.35745 -6.95923 -7.62019 -5.26209 0.811681 -2.21125
185 6.11429 -4.60521 -9.03133 -1.30451 -0.346809 1.24152
1954 3.59823 -2.30665 -0.075856 0.408938 0.866164 2.7259
63 -3.60842 -7.4356 -8.53576 2.62353 -2.00086 -3.42596
350 -4.53455 -6.90172 -8.53211 -2.26073 1.26164 1.48216
4909 -4.64401 -0.0389094 -1.72979 1.16848 -0.499387 0.24394
903 6.31914 -9.16955 -3.12369 0.341369 0.714715 1.56053
67 -2.49391 -7.36093 -8.48386 0.90942 -1.3197 -1.38716
68 -3.03322 -6.66862 -8.72145 -3.06584 0.426577 -0.0283221
115 -2.80829 -5.68068 -8.52742 -1.05165 1.2574 -2.20211
2009 6.01409 -1.55252 -0.0372854 0.734018 -0.516292 -0.2529
71 -0.728047 -7.52887 -8.48337 -0.273603 0.618642 -2.98045
72 -1.84342 -6.60413 -8.39131 2.07861 -1.03088 1.53253
76 0.0855302 -6.71034 -8.29623 -4.0965 0.813008 -0.378476
123 0.847919 -6.03606 -8.41212 2.82944 -2.02043 -2.4716
362 0.720523 -6.79679 -7.58594 1.1627 -0.224058 -0.726468
80 1.56653 -6.62276 -8.35991 0.0719847 -2.42523 2.88815
81 3.11416 -7.74308 -9.07629 0.518705 -2.16451 0.510041
79 2.25735 -7.37531 -8.54955 -2.66777 3.16077 -0.361893
84 3.13174 -6.87225 -8.53433 -0.764193 -2.15735 -2.29706
366 2.51377 -6.82032 -7.65483 -0.23112 -1.89954 -2.21636
127 2.3583 -6.11952 -8.23369 -0.0679235 1.72701 -0.560972
417 3.30511 -6.21114 -7.70623 0.789164 2.05696 0.43044
88 4.61679 -6.76281 -8.21896 -1.69696 0.589482 -0.673206
229 4.67764 -3.08627 -9.11083 2.23598 0.199079 -0.538505
1921 8.96748 -2.94653 -0.470245 -1.23086 -1.88436 1.13723
370 3.87678 -7.16657 -7.55284 -1.07652 2.50016 1.77525
92 6.10482 -6.84958 -8.31152 1.21996 1.34622 0.259922
374 5.34999 -6.98903 -7.65923 0.609671 -0.15665 -2.87976
422 5.32516 -6.07933 -8.15538 -1.51778 -1.18782 -0.460862
425 6.28695 -6.19157 -7.59538 -0.778834 -1.4384 0.805599
91 7.21786 -7.78253 -8.5641 0.402876 -0.673835 0.175416
96 7.90831 -6.88614 -8.40194 0.180067 0.932492 -2.16798
1453 -4.95415 -9.2038 -1.57067 -0.470777 -1.6535 -0.0520915
378 7.01088 -6.86472 -8.00351 1.41957 0.996999 1.01717
52 9.09399 -6.94606 -8.60865 1.83372 -0.730913 2.1077
95 8.45382 -7.68999 -8.44091 0.497035 0.109321 -0.227583
382 8.47753 -6.86775 -7.68096 -1.08701 -0.18485 -0.603832
4921 -0.0619985 0.0160222 -1.48221 1.18869 2.23014 1.61067
99 -8.51819 -5.93205 -8.34596 0.355966 0.525843 -1.42752
100 9.04908 -5.3523 -8.49005 -0.95436 -2.77768 -2.36334
105 -6.40492 -5.94141 -9.15529 -0.948767 -5.66145 0.426046
4329 -5.98973 0.00600217 -4.51164 2.03282 3.41183 -1.89935
104 -7.80801 -5.23663 -8.32249 0.558073 0.303374 3.14061
389 -7.62891 -6.24407 -7.69555 -1.36337 0.359578 -0.0620694
390 -6.94416 -5.51176 -7.50706 -0.0280437 2.0455 -2.07413
89 6.12314 -7.59437 -9.14908 1.72408 0.0791837 0.545168
217 0.0375902 -2.95206 -9.19492 2.3456 1.15112 -1.24911
107 -5.22723 -6.10542 -8.40893 -0.103962 -0.498691 -2.95509
108 -5.81494 -5.37787 -8.40059 0.573921 1.39977 -0.977721
155 -5.42788 -4.54436 -8.18435 -0.519557 -2.57764 0.378735
394 -5.33403 -5.36585 -7.52021 -2.22605 -1.68963 2.00528
4941 7.7035 -0.213504 -1.47903 -0.000456546 1.29776 -0.207276
603 0.786471 -9.0942 -5.64463 -0.417728 -1.45309 -0.0876284
111 -3.82623 -5.91513 -8.26615 0.307018 0.660111 1.78357
159 -3.72061 -4.43119 -8.48501 0.714687 0.315026 2.80381
112 -4.67766 -4.67587 -7.5794 -0.313061 -1.35184 1.56138
64 -4.60146 -5.39945 -8.36766 -1.86546 1.47964 -0.480326
261 -1.6164 -1.73776 -9.02744 -1.0225 -0.0305388 0.875223
138 6.89801 -5.30666 -9.13203 -1.68439 1.92204 2.18848
163 -2.45658 -4.72315 -8.50537 1.77595 2.66667 0.699809
3763 -2.62699 -0.176402 -6.88926 -0.331305 0.639612 0.72867
4613 -7.86636 -0.0499732 -3.0745 -0.0383349 -0.341329 -0.232281
119 -0.971765 -5.94408 -8.52467 -1.49158 0.972869 -2.4947
120 -1.64086 -5.27399 -8.48564 1.7526 -1.97667 -0.169929
167 -0.70456 -4.7817 -8.21657 -0.794159 -1.58318 1.19995
124 0.078587 -5.4063 -8.36829 2.45306 -1.82445 1.70158
171 0.889147 -4.63019 -8.39323 -0.310956 0.225582 -0.830204
410 0.852448 -5.36378 -7.64849 -2.10398 -0.287497 -1.15066
4325 -7.70297 -0.0021129 -4.5746 -0.110852 0.148911 -0.508741
225 2.98201 -3.04399 -9.1252 0.790297 -2.81462 0.587948
128 1.60083 -5.54173 -8.29918 -0.592211 1.7827 0.704048
135 5.3653 -6.68324 -8.95838 -1.10883 -0.954915 0.751077
461 1.48056 -4.64457 -7.64956 2.24761 -1.36549 0.661104
132 3.25207 -5.42566 -8.49535 -3.51219 -0.0778408 3.28169
414 2.25879 -5.37783 -7.40838 0.578411 -2.10049 -3.55035
175 2.52822 -4.70991 -8.32521 2.68605 3.85483 -0.872487
154 -5.26043 -3.88395 -9.18837 -2.06563 -2.15752 -1.64829
421 4.60052 -6.08872 -7.51 0.0119375 1.39277 -0.772404
131 3.95272 -6.18382 -8.48604 -0.60803 0.0522387 -0.372304
136 4.6242 -5.34501 -8.47552 1.03006 -0.216364 0.127832
179 4.05259 -4.59979 -8.59963 0.376609 -1.41138 0.800908
1973 -7.42821 -1.57439 -0.0722076 1.22921 0.708432 0.60634
170 0.714875 -3.81102 -9.08807 -2.40186 0.116012 -1.23608
473 5.68246 -5.44519 -7.42785 2.71214 1.23727 2.87298
140 6.2125 -5.47231 -8.33407 2.33073 -2.23818 -0.19895
116 -3.74725 -5.2305 -9.10749 -1.14364 2.63092 1.2865
1445 -7.63781 -9.04104 -1.52887 -4.07221 -0.0503163 -0.566358
139 7.10849 -6.07626 -8.55086 4.16998 -0.230708 0.454524
3757 -4.5865 -0.0331833 -7.46793 0.0188167 -0.2196 0.239573
144 7.99406 -5.42818 -8.54945 0.297405 1.83805 0.0608736
187 7.1592 -4.67071 -8.39947 0.0707853 0.762024 -0.810974
143 8.51254 -6.15156 -8.52693 -0.878427 -0.681819 2.93659
191 8.6456 -4.4544 -8.64028 -1.20077 -0.0688959 0.63464
146 -8.57755 -4.68811 -8.43018 0.0915964 0.780509 0.418685
148 -9.17187 -3.68941 -8.3147 -2.38139 1.01321 1.44244
194 -8.36335 -2.44847 -9.14664 -1.44254 0.191661 -0.996029
151 -6.87073 -4.99493 -8.59737 2.6809 -1.76658 1.26705
437 -7.72767 -4.6924 -7.58653 -1.75955 2.88488 0.804291
150 -7.43002 -4.12214 -8.47469 3.97807 0.910152 -0.343562
199 -7.01688 -3.28131 -8.35569 0.893572 0.989623 2.21926
237 7.67528 -3.03299 -8.99399 -1.13108 3.6472 -1.30387
438 -6.13968 -3.81672 -8.23351 -1.00565 0.606684 1.063
441 -6.51788 -4.68337 -7.6974 -0.382164 -0.759385 -0.0376388
442 -5.57472 -3.94676 -7.38973 -1.70966 -2.05292 0.957379
160 -4.75013 -3.96055 -8.21152 0.0662396 -0.288722 -2.16733
446 -3.8838 -3.83217 -7.6467 1.46341 -0.696683 3.00002
153 -5.89412 -4.66635 -9.07108 1.9552 -1.06931 -1.96329
164 -3.00054 -3.8242 -8.13017 -0.904101 1.40697 0.363692
211 -2.33891 -3.09369 -8.3328 3.06323 -1.45095 -1.04495
1862 5.32636 -5.29928 -0.138794 -2.61841 3.78841 -0.216915
168 -1.44255 -3.79376 -8.31074 0.816239 1.75011 -0.392207
501 -1.47164 -3.12747 -7.58614 0.820765 3.06725 0.624825
454 -0.702708 -3.93339 -7.71763 -0.775838 0.871304 -4.75778
98 -8.34989 -5.37954 -9.19567 -1.62604 2.19393 -0.71362
172 0.272069 -3.81397 -8.19187 -0.0991502 0.570218 0.306132
457 0.149448 -4.64601 -7.76176 -0.184608 2.28818 -0.0457843
176 1.41208 -3.81042 -8.47382 -2.35337 -1.77976 -0.103999
458 1.0073 -3.85457 -7.52315 -1.82625 -0.54944 2.02059
219 0.704771 -3.01016 -8.26708 -2.38283 -1.33288 -1.53908
464 1.60911 -3.06504 -7.54331 0.844064 1.48145 0.980377
180 3.15379 -3.89675 -8.25088 -1.42232 -1.51 -3.74009
223 2.14341 -3.17535 -8.49392 -1.23592 4.29301 -1.29074
465 3.21355 -4.75108 -7.67536 -0.643394 -0.31921 -0.19345
462 2.34295 -3.96876 -7.70441 -2.40489 -1.76893 -1.49695
184 4.82079 -3.89372 -8.23791 -1.12851 1.06959 -0.334581
517 4.85329 -3.10156 -7.62143 0.122795 0.331494 1.95042
286 8.40164 -0.865387 -9.15093 -3.11566 1.38886 -1.12427
183 5.53778 -4.85137 -8.21792 -0.363102 2.09224 -0.549759
188 6.49578 -3.72438 -8.64645 0.606397 2.39754 -2.45004
518 5.36695 -3.09821 -8.3688 -0.283347 -0.525234 -1.13167
335 8.61526 -9.14041 -7.02274 -0.394003 -0.763814 -2.11919
192 7.60868 -3.77958 -8.24174 0.19258 -0.857925 -1.56668
474 6.81035 -3.83363 -7.70016 -1.33254 -0.0366325 -2.01513
186 7.11224 -4.07553 -9.1988 -2.51708 -2.64982 -1.31386
11 -5.31938 -9.19127 -8.37433 -0.160647 0.628657 -0.0251057
239 8.55926 -2.92957 -8.46518 -1.52021 -0.133847 2.37885
478 8.41205 -3.83956 -7.57144 0.190932 -2.79505 -2.10328
195 -8.27184 -3.2209 -8.45116 1.48983 -3.34178 0.749926
196 -9.01588 -2.36206 -8.49855 1.13016 -1.45216 -0.551128
4647 5.44749 -0.135097 -2.34919 -0.845474 -0.5784 -1.69297
165 -1.34203 -4.48784 -8.94993 1.87441 -1.24927 0.900885
4933 4.71772 -0.0978738 -1.61502 -0.41026 -2.25043 1.74161
200 -7.60763 -2.365 -8.60208 0.0220462 -3.56209 0.159236
486 -7.0805 -2.35973 -7.69451 2.00292 -0.610024 -0.453113
145 -8.5012 -3.92752 -9.1891 1.89414 -1.52307 0.304232
203 -5.37556 -3.04677 -8.2676 -0.920028 -2.91208 0.548502
204 -6.22767 -2.46926 -8.40508 -3.82141 1.35528 -0.00561444
490 -4.89062 -1.7263 -7.58243 2.60044 0.96916 0.401597
207 -3.87814 -3.27689 -8.43043 0.817483 -3.2044 0.148457
208 -4.50761 -2.34889 -8.47978 -1.75854 -1.54033 -0.591158
255 -3.98526 -1.51118 -8.5073 1.98932 0.392265 0.950145
1165 -4.4822 -9.1671 -3.09644 0.061532 -1.48846 3.56196
166 -0.435387 -3.97927 -8.839 1.54263 -0.317465 -0.689741
212 -3.09541 -2.25225 -8.42855 2.0512 -1.07739 -1.35724
545 -3.02162 -1.39919 -7.55214 -2.62255 2.18622 -2.48815
259 -2.46308 -1.54539 -8.52198 2.13867 -5.07443 -0.090766
498 -2.36872 -2.26372 -7.71443 -0.0607678 -0.364326 -0.656147
4323 -8.48953 -0.121827 -3.82043 0.310429 -0.60797 1.90464
216 -1.44331 -2.46155 -8.4211 -1.67432 1.22856 0.0366064
263 -0.792164 -1.59368 -8.52146 -3.17557 -1.34715 -0.540484
215 -0.703695 -3.16213 -8.32425 0.721168 -1.70554 0.0753021
220 -0.0579068 -2.2108 -8.56054 -0.949687 0.498654 -1.45882
505 -0.0733441 -2.94378 -7.7261 1.66712 -5.05799 0.493502
202 -5.37569 -2.22776 -8.97979 -1.65041 -2.25095 -2.34057
506 0.888509 -2.25969 -7.65022 -1.92542 0.987539 -1.62081
224 1.72911 -2.33626 -8.34979 2.44641 0.078189 -0.00634235
513 2.97721 -3.03439 -7.60765 0.168295 1.16538 -0.745178
228 2.96247 -2.38277 -8.26705 2.95534 0.869189 2.55669
271 2.42647 -1.54121 -8.46563 0.660193 3.61356 -0.281224
561 2.99776 -1.47903 -7.55486 0.0599598 -1.14456 1.30931
509 2.3531 -2.18015 -7.36204 -2.17502 -1.49793 -2.33272
227 3.94391 -3.07092 -8.2329 0.647415 -0.0855536 -0.154463
232 4.73101 -2.30241 -8.4304 0.206582 2.18059 -1.0151
280 3.67915 -1.55138 -8.45681 2.11154 1.02707 0.411196
221 1.39367 -3.11776 -9.11453 0.631503 -0.303358 0.0487146
236 6.17497 -2.29553 -8.42922 0.815913 -1.39414 -1.37091
235 6.96529 -2.92513 -8.31486 2.08167 1.21035 0.78508
240 7.56325 -2.21876 -8.28429 -0.0979652 -0.49218 -0.295662
4071 5.21677 -0.0713566 -5.52442 0.721466 -1.726 1.72517
481 -9.1035 -2.92643 -7.65141 2.8429 0.637685 0.175495
209 -3.07197 -3.0319 -9.05909 -1.47657 0.96479 0.0375229
4619 -5.36338 -0.0206561 -2.45742 0.854288 0.734435 2.25135
243 -8.45446 -1.55486 -8.41911 0.981298 0.838293 -2.54193
323 3.86209 -9.0646 -6.93468 -0.418993 -0.115219 0.851737
244 9.18819 -0.701789 -8.5186 -0.342024 0.936138 -1.08392
327 5.38878 -9.02355 -7.00875 0.869687 -0.177747 0.0830446
1447 -7.05788 -9.22998 -0.749835 -0.0235062 -0.431055 -0.448166
247 -6.78678 -1.29346 -8.33286 1.1379 1.68676 0.290301
248 -7.61953 -0.721886 -8.52651 -1.66739 -0.017759 -1.42539
311 -1.02213 -9.19949 -7.1082 0.543352 -3.13776 -2.09533
251 -5.60179 -1.49867 -8.30735 2.71234 0.637116 4.3355
865 9.20273 -9.00505 -4.65851 0.113662 -0.983805 -0.828939
252 -6.02343 -0.661748 -8.14164 0.31321 -2.68226 -1.0529
256 -4.73142 -0.888361 -8.27725 1.99811 2.08277 1.76627
541 -3.9663 -1.09246 -7.64079 -1.59804 -0.591014 -1.27591
542 -3.41159 -0.258548 -7.55138 5.69305 -0.289704 -0.0386587
157 -4.48135 -4.58999 -9.09631 -1.53433 0.0569677 -1.30221
260 -3.14719 -0.751857 -8.45318 0.993647 2.4098 -0.502779
1734 -7.13164 -8.44196 -0.133324 -0.902512 -0.0103067 -0.405466
264 -1.45078 -0.764568 -8.62594 3.17682 1.3 -0.546754
550 -0.873112 -0.906865 -7.8272 -2.01649 -2.4333 2.93918
19 -2.35085 -9.16014 -8.63496 -1.98381 2.10113 1.49721
4635 0.95032 -0.0842817 -2.14591 0.820199 -1.6747 -0.875735
162 -2.34668 -3.89046 -9.0287 0.926021 -1.00758 -0.922657
268 0.0156195 -0.907773 -8.58097 -0.796435 0.748765 -4.02341
267 0.847884 -1.45055 -8.40783 -2.4805 -2.3633 -2.63283
272 1.58196 -0.80613 -8.65573 -3.15783 -2.06205 -0.946342
554 0.689355 -0.679848 -7.83375 0.189033 2.12402 2.89006
3501 7.75592 -0.0706092 -9.05848 2.12025 -0.262072 -0.277453
234 6.91954 -2.36201 -9.17117 1.08967 0.814637 -0.380548
258 -2.29021 -0.927637 -9.1448 3.67932 -2.75998 -0.0990626
276 3.15663 -0.720198 -8.58029 -1.21733 1.12045 -0.646048
566 4.28574 -0.797894 -8.41481 0.897137 -5.10685 -0.269265
177 3.1378 -4.50256 -9.05291 0.562948 -0.0928805 3.4384
1684 8.36897 -0.443926 -0.594779 0.929052 0.52906 1.29249
279 5.37171 -1.58791 -8.49594 -0.61496 2.26333 -1.11597
284 6.18717 -0.849972 -8.56026 -0.147765 -0.784986 -1.0324
69 -1.70534 -7.46578 -9.15417 2.08637 0.713395 -1.54859
169 0.118728 -4.70862 -8.99997 1.39159 -0.278459 -2.63734
283 6.81167 -1.52614 -8.48891 -0.351923 0.480561 0.0878192
1725 7.57377 -1.52146 -1.48163 0.493832 -1.38908 0.760635
288 7.64212 -0.8749 -8.44646 -0.058208 0.69597 0.419557
570 7.10417 -0.74621 -7.70674 0.484993 -1.92211 -1.61825
4335 -3.56511 -0.0868618 -3.63806 -0.695246 0.27371 -1.55086
201 -5.85527 -3.13184 -9.11882 -2.16699 -2.4128 0.261262
287 8.4957 -1.54679 -8.42082 -1.93493 -1.45308 -0.870372
909 7.73478 -9.20374 -4.58941 -2.55721 0.865029 2.03747
290 -8.39609 -8.26283 -7.88001 0.873358 -2.17994 0.070359
578 -8.58241 -8.2531 -6.38548 0.389299 2.04122 -1.72582
1813 4.53814 -7.6361 -0.328478 -2.23814 -2.47555 -0.897936
296 -7.79162 -8.33363 -6.88506 1.21212 -1.38342 -2.57879
294 -7.08923 -8.29283 -7.6914 0.566567 -1.60426 0.198513
343 -6.82394 -7.78455 -6.92821 -0.861333 -1.95399 -0.506245
582 -6.85407 -8.44356 -5.97689 3.47105 -0.953987 -0.128937
345 -6.09564 -7.74163 -7.56845 3.50743 3.77837 -2.48913
4911 -3.84724 0.0164058 -0.818636 0.667081 2.15072 0.552058
300 -5.90283 -8.39415 -6.98072 1.61828 -0.359834 -0.431713
586 -5.38768 -8.44293 -6.14515 2.04373 1.57762 -1.66792
347 -5.34795 -7.7034 -6.89037 -2.16752 -1.04705 1.55002
605 1.41942 -9.03752 -6.28665 0.963206 2.4298 0.0740096
302 -3.83029 -8.51118 -7.65447 -1.01127 1.24517 -1.49128
304 -4.58299 -8.49283 -7.03016 -2.41222 -0.196392 0.462065
590 -3.77837 -8.51407 -6.27208 -0.284007 -2.46972 -0.999334
4079 9.11747 -0.234297 -4.59279 -1.11559 -1.53465 2.21528
308 -3.04575 -8.49363 -6.94038 4.2649 1.41241 -1.47438
353 -3.14258 -7.56732 -7.70824 0.523889 -1.39843 0.171378
355 -2.31817 -7.68 -6.96864 -2.11107 -0.381689 1.16338
312 -1.53605 -8.25592 -7.16107 1.97686 -1.23655 -3.13346
357 -1.58875 -7.63528 -7.9417 -3.63295 -3.34548 -1.12226
4652 6.20657 -0.0240777 -1.68638 0.214244 1.24819 2.27361
25 0.192017 -9.06777 -9.06299 -0.980576 -1.87699 -4.01034
310 -0.726846 -8.36416 -7.9977 0.510234 -3.70659 0.790219
28 0.809335 -8.23311 -7.68145 0.613364 -0.0878215 -2.43225
359 -0.735939 -7.55345 -6.98717 0.293825 -0.0262909 -0.863401
316 -0.0888383 -8.37543 -7.11155 0.339291 1.12267 1.63694
602 0.73655 -8.29659 -6.31001 -2.76926 -1.25693 0.607321
320 1.64103 -8.24039 -7.01602 -2.09589 0.573837 0.126807
873 -5.98688 -9.16735 -4.44981 -3.07659 -1.4082 0.840261
369 3.01025 -7.61471 -7.83913 -0.597799 -1.55514 3.29421
324 2.82242 -8.45 -6.98032 -1.74758 3.07 -1.46663
606 2.173 -8.42823 -6.25082 2.014 -1.38016 -0.572471
657 3.23267 -7.71458 -6.14362 2.12578 -0.537167 0.671814
328 4.66927 -8.43122 -6.82587 0.791665 -2.38558 -0.0269797
373 4.68592 -7.78491 -7.68257 0.288133 0.0731308 -0.0592481
661 4.69109 -7.70026 -5.97463 2.82696 1.61803 -0.780877
371 3.76836 -7.95476 -6.8595 -0.295727 5.2 -0.91717
332 6.22646 -8.35754 -6.90864 -1.73634 2.82337 2.24606
375 5.28335 -7.5301 -6.80142 -0.885177 3.0001 -1.37652
614 5.22461 -8.43968 -6.08983 -1.38026 0.449477 -1.53424
4645 4.6368 -0.0608057 -3.13374 0.864603 -0.0547959 0.37377
618 6.90657 -8.331 -6.05241 -0.0884234 -3.47438 -0.158926
379 6.99093 -7.62558 -6.87122 -0.798699 -2.17337 0.565008
336 7.76605 -8.48751 -6.99315 -0.548783 -0.8162 0.0736288
669 7.80966 -7.62384 -6.28576 -1.46808 2.98006 -1.72707
292 -9.15421 -8.26793 -7.09476 0.927989 -0.222762 -0.0751462
383 8.55623 -7.69944 -7.01206 2.02465 -0.528091 2.15245
1193 5.45822 -9.19871 -2.28807 1.23681 -1.514 -0.720674
339 -8.40112 -7.58836 -7.09148 -0.963409 2.97157 0.19205
387 -8.43326 -6.45946 -6.82429 2.07026 -0.0272424 1.0461
341 -7.70775 -7.47706 -7.8833 0.704904 0.169008 -2.5656
344 -7.53453 -6.95454 -6.9005 -0.601752 -0.455429 0.638292
630 -7.06578 -7.11298 -6.0997 0.927843 1.43979 -1.51882
393 -6.11672 -5.96833 -7.7125 1.396 3.19767 2.76088
348 -6.10602 -6.80605 -6.88672 2.79773 -1.47878 -0.447164
395 -5.23592 -6.23375 -6.85564 -2.75427 -0.931989 0.0506782
352 -3.83757 -6.83942 -7.6899 2.09776 2.09807 1.94236
351 -3.74796 -7.70878 -6.77818 0.561704 1.57291 0.160962
634 -4.48043 -7.00623 -6.96493 -0.118247 -1.92859 -0.717351
638 -3.6685 -6.97385 -5.91086 -3.53331 -0.177075 1.82984
639 -4.50899 -7.73643 -6.17302 2.4746 -1.95182 0.421258
354 -2.36533 -6.9329 -7.62455 0.739838 -2.80934 -0.894822
356 -2.94191 -7.06635 -6.6814 -0.134968 -0.71891 0.657523
403 -2.3895 -6.23653 -6.89323 -1.1062 -1.01807 -1.02679
360 -1.59956 -6.99077 -6.88948 -3.14069 -1.32384 0.467479
358 -1.03673 -6.83265 -7.88979 -0.451765 1.33923 -1.56843
405 -1.71238 -6.20141 -7.53682 -0.489723 -1.62643 5.37545
361 -0.0422214 -7.54224 -7.63459 -0.378619 -2.69074 1.4192
364 -0.0112554 -6.81797 -6.96852 -0.0306738 1.47458 0.281915
314 0.73311 -7.56897 -6.95568 1.66136 2.62609 -0.652583
650 0.742863 -6.97641 -6.13281 -0.334011 -0.892232 -2.17007
411 0.79942 -6.18403 -6.77597 1.123 -1.37324 0.358172
365 1.56965 -7.48122 -7.56639 -1.85969 1.26808 0.87789
653 1.44412 -7.75299 -6.22054 -2.68815 0.209712 1.11468
368 1.55401 -6.93566 -6.82429 0.446789 1.10804 3.54705
654 2.35171 -7.59621 -7.00043 0.519517 2.98186 -2.01119
372 3.11619 -7.10733 -6.93492 -0.117404 -1.32357 0.939353
415 2.23949 -6.20362 -6.86786 0.998616 -1.25536 3.01225
703 2.23622 -7.0732 -6.14928 1.16479 -0.479717 -1.5296
705 3.15094 -6.30842 -6.1623 0.28939 0.792461 0.872059
376 4.62348 -6.83519 -6.86361 -0.162628 0.648182 0.771857
419 3.88507 -6.15263 -6.83144 -2.08747 -2.03996 -1.78445
658 3.87074 -7.04703 -6.0653 -0.621215 -1.50265 1.91986
709 4.54267 -6.31845 -5.90414 2.94054 -0.458512 -0.865971
377 6.35805 -7.57565 -7.55835 2.49051 0.428403 -0.750215
380 6.04487 -6.86721 -6.96917 -0.842857 -0.0800242 -2.48826
662 5.30899 -6.89509 -6.01499 3.2811 0.545267 0.160972
423 5.35348 -6.20518 -6.85572 -2.91778 2.78375 -0.175221
713 6.20004 -6.20422 -6.22414 3.25415 -0.986019 -0.281357
429 7.69753 -6.1188 -7.63535 1.35496 -1.04103 -1.13867
427 7.02729 -6.18186 -6.93884 -0.0683368 0.172342 -0.146248
385 9.17844 -6.15137 -7.74718 1.00789 0.434051 -1.10786
340 9.15993 -6.9258 -7.031 2.00591 -0.0390094 -0.104987
384 7.92695 -6.86459 -6.94928 -1.66133 -0.410467 -0.729744
670 8.51112 -6.80838 -6.23998 0.325136 0.552672 -3.78011
386 -8.55877 -5.22331 -7.67763 1.32216 -0.361144 0.200226
673 -9.15853 -6.39183 -6.22322 0.0620573 -1.07127 3.24915
674 -8.45783 -5.3902 -6.1727 -1.4456 1.20412 -0.342097
677 -7.73676 -6.23152 -6.18688 -1.77488 -0.828349 1.53963
435 -8.4498 -4.65568 -6.78224 0.0792988 -2.27314 -0.920666
391 -6.83617 -6.23659 -6.69749 0.932283 -1.49514 -0.456563
392 -7.83742 -5.43065 -6.91697 3.2532 0.991134 2.87174
678 -7.00193 -5.38453 -6.01855 1.66517 1.0014 -0.738113
396 -6.11304 -5.38038 -6.62196 -1.8774 -0.210873 -0.690575
682 -5.27781 -5.41819 -5.97909 1.57393 2.26322 0.347889
398 -3.79636 -5.31662 -7.62788 2.12499 -0.666488 6.25491
397 -4.5875 -6.20982 -7.58284 -0.75071 1.95101 -3.6155
685 -4.51943 -6.27004 -6.10284 0.286542 -0.33319 -0.976346
399 -3.75096 -6.33935 -6.79319 -3.10249 -0.179175 -1.24417
400 -4.41824 -5.47941 -6.80666 -0.18364 1.23637 -0.622565
402 -2.29259 -5.43432 -7.73334 -1.09391 0.581805 0.469877
401 -3.04695 -6.07413 -7.64021 -2.32827 2.01528 -1.07594
404 -3.06779 -5.43758 -6.89505 -1.53664 1.01302 -2.58977
451 -2.51178 -4.50494 -6.78036 -0.571878 -0.400805 2.45528
690 -2.41459 -5.51422 -6.18292 2.08055 -0.366344 1.20101
406 -1.05367 -5.5228 -7.70056 1.99608 2.35165 0.723414
407 -0.78305 -6.05621 -6.88876 -2.05815 -1.44742 1.15443
408 -1.78769 -5.29212 -6.90466 -0.229969 2.35548 2.50067
409 -0.0105733 -5.88161 -7.51954 1.40108 -0.323027 -0.532794
412 -0.171552 -5.20683 -6.85196 2.10802 0.0198608 -0.19883
698 0.828438 -5.55085 -5.97978 -0.21172 0.356719 2.01942
459 0.852102 -4.66764 -6.75065 0.599292 2.25837 -1.30444
413 1.40432 -6.03129 -7.47452 -1.64519 -3.39392 -0.152664
416 1.58954 -5.59987 -6.57051 -1.54814 1.51479 2.20936
701 1.57151 -6.31319 -5.95616 2.6171 2.16047 3.79709
420 3.20638 -5.41688 -7.0149 -1.03449 1.88993 -2.15568
702 2.46032 -5.50908 -6.1457 -0.933891 1.75738 0.477295
706 3.62895 -5.34789 -6.0986 3.14207 0.661856 1.31231
469 4.59125 -4.71837 -7.66144 2.72108 -0.793892 1.95087
418 3.9049 -5.44755 -7.69753 -0.758504 -0.778259 -0.709094
424 4.61683 -5.55922 -6.73848 0.88039 0.0252013 1.89992
467 3.9506 -4.78991 -6.89499 -1.72121 2.53759 -1.02205
470 6.16734 -4.6193 -7.29839 -0.611981 -1.15754 0.317007
428 6.36515 -5.33815 -6.7337 -0.277905 -0.69307 1.10681
710 5.33156 -5.35288 -5.86032 -1.17272 -0.215417 -0.612169
471 5.25394 -4.83095 -6.74384 4.87784 0.639537 -2.34543
426 7.09573 -5.30258 -7.73923 -1.32858 0.632521 -0.747224
432 7.80348 -5.36419 -6.92072 2.52639 0.402447 0.115086
765 7.76652 -4.49374 -6.36283 0.0395888 -0.531589 -2.05924
430 8.30343 -5.37224 -7.71377 0.494484 -0.229497 -1.06923
388 -9.00739 -5.64481 -6.91377 -1.62205 -1.67067 3.02095
431 8.51449 -6.09533 -7.04917 -1.50448 -1.3408 0.0619563
718 8.44578 -5.43221 -6.13302 -0.175011 -0.657533 -2.3006
479 8.57043 -4.77473 -6.93585 1.77394 0.077115 0.451997
434 -8.44181 -3.92192 -7.81381 -0.0217521 -1.41309 -0.197775
722 -8.47463 -3.76004 -6.17329 2.23779 0.687811 -1.44968
439 -7.0826 -4.6435 -6.7519 2.39948 -2.47544 -2.40873
440 -7.81182 -3.95804 -6.90941 0.379263 2.2065 1.14442
152 -7.00482 -3.93234 -7.50442 -0.400897 -1.0941 -0.139346
729 -6.32201 -4.59354 -6.0905 0.0960548 0.419729 -0.991316
443 -5.32249 -4.77479 -6.70932 0.33345 0.600101 -0.810348
489 -6.36816 -3.0367 -7.535 -0.579 -3.42715 1.47867
444 -6.24561 -3.54209 -6.65471 -0.485674 -1.83402 0.984774
448 -3.89371 -4.5418 -6.84198 -0.390396 1.25623 -0.0215832
445 -4.48336 -3.74655 -6.95789 0.183527 1.46936 0.320767
495 -3.8009 -2.89135 -6.97477 -0.144541 1.33557 -3.34736
493 -4.45656 -3.05562 -7.68682 -2.44577 1.04712 0.423687
449 -3.10088 -4.59712 -7.56807 -2.01917 1.92093 -3.49212
450 -2.37714 -3.64682 -7.5091 -1.73775 -0.522001 -0.0399332
452 -3.08443 -3.67264 -6.88407 -0.154604 0.0828377 -0.463865
497 -3.10426 -3.02439 -7.61941 3.07989 3.55909 3.69667
741 -1.49026 -4.55364 -6.14163 0.0537732 -0.0293358 1.7857
453 -1.66197 -4.48836 -7.70411 -0.97916 2.92708 -1.12921
456 -1.62264 -3.80061 -6.86361 1.00009 -0.218309 2.38868
455 -0.842331 -4.45248 -7.01102 0.360725 -2.66293 2.13596
503 -0.807133 -2.86454 -6.93758 -0.303909 3.07444 -2.8537
789 -1.43749 -2.87486 -6.08124 -0.253266 -1.85945 3.23173
742 -0.691189 -3.83146 -6.25961 -0.572346 -0.913642 -1.2634
460 -0.0316046 -3.81757 -6.9368 -0.410275 -0.586131 -0.673441
745 -0.109462 -4.6197 -6.08395 -1.67742 3.50508 -1.60443
793 0.682078 -3.95387 -6.10634 0.738281 -2.27513 -2.69241
463 1.99861 -4.6197 -6.69256 -1.36713 -4.21591 -1.05082
746 1.56185 -3.80816 -6.75678 -0.568254 -1.28729 -5.11792
749 1.40359 -4.69569 -5.99861 -3.45128 0.565865 -3.83304
797 1.50574 -3.12835 -6.06439 -0.881014 -0.35763 0.812762
468 3.17032 -3.91278 -7.09261 2.83722 -2.75375 -0.548188
511 2.31056 -3.00554 -6.87566 0.501338 0.959247 0.168772
801 3.01318 -3.2671 -6.29052 -0.0484414 0.647054 -0.221168
750 2.29275 -3.86371 -6.0928 1.67002 -0.493435 -0.755866
466 4.11059 -3.95648 -7.59591 -0.588151 2.522 -1.86394
472 4.83882 -3.9377 -7.04222 -1.15466 -0.82602 -6.06136
515 3.78421 -3.09131 -7.03275 -2.57569 -1.43839 -2.89059
754 3.82925 -3.92719 -6.37862 -0.267648 1.4951 0.013583
231 5.63226 -3.93204 -7.79664 0.821317 1.86288 0.582568
519 5.43892 -3.03864 -6.84647 -1.38258 -1.43203 1.7696
476 5.96149 -3.75118 -6.91272 -3.52459 0.752986 -0.505878
525 7.7912 -3.04098 -7.67306 0.73413 -0.586692 -1.33825
477 7.76571 -4.56887 -7.60936 -1.09681 -1.25357 -2.56813
475 7.00533 -4.72262 -6.90106 -0.923513 -1.33971 -0.869474
480 7.67564 -3.83652 -6.97776 -0.6973 1.50037 -0.328801
762 6.72747 -3.8689 -6.32837 1.16547 0.0523836 0.310871
433 9.04824 -4.53763 -7.73253 0.883782 -1.32648 0.193893
436 -9.13288 -3.71602 -7.07786 -2.53711 0.92648 1.22855
482 -8.16555 -2.32426 -7.75011 -0.575368 0.330309 -0.170997
483 -8.37708 -3.06235 -6.96906 -0.567464 0.829327 -0.694494
531 -8.49384 -1.60459 -7.0222 0.704108 2.00593 1.38586
484 -9.02604 -2.36366 -6.75614 -1.28799 -0.76632 0.254944
817 -8.92406 -1.51997 -6.18509 -0.912302 1.6931 -0.243752
485 -7.72256 -3.22515 -7.69688 -0.803494 -0.22792 0.486117
533 -7.63304 -1.58594 -7.69002 -1.47987 -0.725947 0.915661
487 -7.16633 -3.13381 -6.86188 0.185982 -0.036161 -0.0526539
488 -7.65958 -2.23572 -6.75202 -0.769112 1.72039 -0.825629
535 -6.88921 -1.55629 -6.86529 1.14618 -2.92782 0.758141
492 -6.18216 -2.3678 -6.70266 -0.583429 -0.15347 -0.361056
491 -5.47538 -2.88433 -6.89221 -1.79554 -0.491672 -0.271133
494 -3.78831 -2.19683 -7.65549 1.19119 -0.580395 0.330312
496 -4.65748 -2.23271 -6.83755 1.75501 -2.58355 -0.366256
499 -2.36923 -2.9008 -6.7556 -0.682754 0.349027 1.92762
500 -3.0652 -2.19912 -6.86057 0.00393046 -1.30978 0.727608
547 -2.23864 -1.56337 -7.0055 -1.62126 0.135593 1.01026
549 -1.65834 -1.48171 -7.78037 3.05552 0.967112 1.03459
504 -1.56719 -2.26291 -6.88385 2.93341 1.47037 2.46555
502 -0.791599 -2.16961 -7.6889 0.499181 0.27067 -2.19511
790 -0.636226 -2.18755 -6.12588 -3.4887 0.339813 0.536997
508 0.0880608 -2.29068 -6.98078 1.57013 -1.12448 -0.824645
555 0.751685 -1.48511 -6.97312 -1.38977 -2.14948 1.91079
791 -0.0487641 -3.02962 -6.25973 -0.666648 -2.00644 -1.56867
507 0.754469 -2.30313 -6.12678 -2.55904 -0.807322 3.97222
794 0.723986 -3.04848 -7.00747 -0.434568 1.07315 2.17738
559 1.49487 -2.27275 -6.73416 -0.578864 0.87029 -2.90915
557 1.69576 -1.54833 -7.65386 0.978062 2.97166 1.61486
798 2.41779 -2.30553 -6.22392 -0.34466 0.338629 1.76126
510 3.16607 -2.33297 -6.84846 2.25276 1.86935 -0.935443
512 2.20676 -1.41566 -6.76911 2.09384 -1.28165 1.94639
514 3.81771 -2.32285 -7.65895 -2.00583 -3.94613 0.25276
520 4.62687 -2.25237 -6.96834 1.03981 0.697463 1.36517
802 3.98037 -1.54935 -6.97207 0.511911 -1.53534 1.72229
563 4.65409 -1.57389 -7.82401 -3.19476 -3.06375 -0.622437
565 5.41998 -2.30873 -7.63701 1.86623 2.34873 -0.945122
521 6.08425 -3.1053 -7.70339 -2.9208 0.174274 4.03728
567 6.18939 -2.32223 -6.90509 1.0893 0.892332 -2.18422
809 6.19847 -3.07716 -6.10717 0.348825 -2.04274 1.22933
522 6.81688 -2.20262 -7.59369 0.0866264 1.21553 0.86332
523 7.07278 -2.94119 -6.95533 3.38272 0.824532 -0.174873
528 7.72872 -2.18535 -6.80604 0.518552 -5.36964 -0.105065
810 6.93912 -2.15032 -6.07726 0.307336 0.589111 -0.145202
529 -9.17134 -1.70028 -7.76961 0.43094 -0.0679123 0.618874
526 8.35712 -2.18766 -7.6606 0.040171 0.607614 2.7043
527 8.50376 -2.97183 -7.01097 -2.69655 0.385259 2.02264
575 8.70756 -1.5746 -6.91294 -1.6763 -1.08249 -0.526429