ITEM: TIMESTEP
78000
ITEM: NUMBER OF ATOMS
6912
ITEM: BOX BOUNDS pp pp pp
-9.2265715179435492e+00 9.2265715179435492e+00
-9.2265715179435492e+00 9.2265715179435492e+00
-9.2265715179435492e+00 9.2265715179435492e+00
ITEM: ATOMS id x y z vx vy vz
4 -9.18811 -8.3772 -8.32403 -1.74601 -0.975341 0.420317
290 -8.47568 -8.47515 -7.65519 -0.331178 0.769505 -3.71578
331 6.81028 -9.19879 -6.67814 -1.26544 1.00803 0.647366
217 0.0355564 -3.29251 -9.19663 -0.172039 2.1058 -1.50396
8 -7.74734 -8.70242 -8.58207 1.10078 -0.674632 -0.410451
55 -7.18237 -7.84691 -8.49437 -0.633631 2.62685 -2.13231
871 -6.79922 -9.1914 -3.69205 0.625096 -0.630506 0.254405
341 -7.75058 -7.75663 -7.79157 -0.760063 -0.130883 -1.28665
12 -6.3664 -8.60363 -8.48188 -2.39009 0.131334 2.37752
59 -5.38725 -7.64327 -8.38089 0.109424 -0.116709 -0.115694
345 -6.20723 -7.75421 -7.88678 -2.46573 -0.237378 0.796787
298 -5.32781 -8.54207 -7.79885 2.03091 -0.744004 -0.217968
1809 2.92281 -7.74553 -0.180819 -1.50976 1.65788 -0.58237
16 -4.72396 -8.38105 -8.56104 -1.36785 1.3626 -2.9995
63 -3.96009 -7.64129 -8.5514 0.451061 -0.673435 -0.767558
349 -4.65412 -7.83902 -7.52194 2.11405 1.14663 1.61325
587 -5.51219 -9.17014 -5.22633 0.0717684 0.0224639 3.3573
20 -3.16084 -8.48541 -8.50348 1.19087 0.899169 -1.3441
67 -2.37132 -7.75238 -8.56546 0.912227 2.78193 -0.25546
1986 -2.16821 -0.757969 -0.0587507 1.29223 1.48173 0.600331
24 -1.67706 -8.4873 -8.54515 -3.95851 -2.32428 -1.6191
71 -0.854981 -7.49308 -8.28761 -1.86643 0.392268 -0.0562446
28 -0.206666 -8.51007 -8.37207 -0.859232 2.33454 -0.253126
4041 -6.20665 -0.0314075 -6.25915 1.48828 0.40682 0.203697
1990 -0.793922 -0.860455 -0.244259 -0.547438 2.17202 1.64529
32 1.58601 -8.51588 -8.48705 1.41417 0.876371 0.0708559
81 3.13978 -7.58807 -8.99338 0.138075 0.838887 -1.95541
1742 -3.80524 -8.43394 -0.0552006 0.896536 1.74514 0.339274
4357 4.62682 -0.052936 -4.56813 0.826188 -1.54425 -0.816992
134 5.4756 -5.47611 -9.10492 -0.95991 -1.11457 -1.23486
36 3.02059 -8.65513 -8.30288 -0.358223 -3.98052 -0.122267
61 -4.79646 -7.57179 -9.24236 -0.586965 -1.3863 -1.50538
40 4.77473 -8.72486 -8.23626 1.62303 -1.23468 -1.79239
4047 -3.60016 -0.0913649 -5.43153 -1.46933 -0.266849 0.922993
83 3.86602 -7.66151 -8.23971 0.440065 2.64819 -0.237581
322 3.94097 -8.4877 -7.54277 0.726821 -3.07775 -1.91332
1445 -7.59501 -9.07451 -1.50957 -0.458095 -0.875957 -0.557211
4321 -9.18183 -0.141304 -4.72962 -2.66269 1.73016 -0.808471
44 6.10354 -8.44176 -8.60901 -1.93439 1.13589 -1.34475
326 5.40678 -8.47979 -7.49319 -0.443127 -0.486597 1.69111
4897 -9.21588 -0.056602 -1.46126 -1.01996 -2.02263 0.0833273
1684 9.16436 -0.836987 -0.721566 -0.595868 -0.290564 -1.30294
4061 1.74321 0.00350017 -6.10707 -0.56749 1.28491 0.778459
48 7.8485 -8.40158 -8.41382 2.45889 0.279408 1.10143
91 6.92286 -7.68984 -8.41742 -0.252656 1.82138 2.41704
334 8.38773 -8.55899 -7.41722 0.875459 1.8855 -0.429992
95 8.60715 -7.59115 -8.41596 -1.13511 -0.854055 1.77225
1471 2.18656 -9.03446 -0.785804 1.12309 0.786471 1.5798
51 -8.423 -7.81024 -8.55266 1.54325 -3.20522 1.78051
52 -8.95029 -6.88756 -8.46144 2.76136 -1.54322 -0.786774
99 -8.48804 -6.04466 -8.39594 -1.31601 0.48817 0.8031
56 -7.92104 -6.94735 -8.38188 1.7609 -1.62168 0.171619
103 -7.06655 -6.00227 -8.41883 0.909315 -2.34693 -0.706661
342 -7.20851 -6.98985 -7.66785 0.0638905 1.93417 0.0636775
60 -6.44407 -6.9219 -8.50645 -0.909123 2.18869 -2.05364
1155 -8.35174 -9.11366 -2.16115 -1.33311 0.522506 2.70683
346 -5.47524 -6.90506 -7.63313 -1.43657 -0.252369 1.01739
177 3.22817 -4.64027 -9.13638 0.32786 1.41858 0.859631
64 -4.64882 -6.97946 -8.43282 -0.930887 -1.38988 1.72728
397 -4.6999 -6.24955 -7.64197 2.07623 -1.64257 0.802457
111 -3.8545 -6.17746 -8.49507 0.419155 0.164452 -2.47081
350 -3.78508 -6.94426 -7.73055 -0.461591 -0.196143 0.272524
68 -3.08903 -7.0604 -8.52205 0.477948 1.82159 2.78682
354 -2.46395 -6.95977 -7.55361 0.0121946 -3.02625 -0.82032
72 -1.58209 -6.68661 -8.19797 -0.21686 -0.154842 1.36777
357 -1.8439 -7.66039 -7.65687 1.44727 -1.03155 0.902511
1159 -6.95585 -9.15755 -2.24747 0.444173 -1.04249 2.8651
405 -1.66664 -5.97856 -7.41672 0.802193 0.491008 1.36884
358 -0.634114 -6.94077 -7.45854 2.19231 -3.39383 0.3597
76 0.0111801 -6.95826 -8.43932 2.75277 -0.954569 -2.08566
599 -1.03847 -9.11042 -5.54349 0.893635 -1.33022 -2.1296
75 0.947556 -7.71861 -8.32665 1.98037 1.27655 -0.960253
80 1.60444 -6.99266 -8.6486 -0.971404 0.481288 -0.60878
27 0.777474 -9.20537 -8.4753 1.87445 -1.14738 -2.9495
1858 3.64473 -5.3238 0.0106463 2.06272 -0.314734 3.11123
79 2.38748 -7.75787 -8.32344 -0.0310247 0.858203 1.65759
84 3.23347 -6.77332 -8.36794 -0.374814 -2.93817 -2.29986
369 3.09973 -7.66291 -7.55439 3.99504 -0.942597 -0.680146
127 2.29765 -5.96281 -8.53183 -1.03693 0.606311 -0.487193
88 4.65096 -6.8384 -8.30295 -0.567744 -0.522847 1.05438
373 4.63812 -7.73739 -7.59003 -0.556413 0.982136 0.0653308
370 3.85485 -6.97167 -7.54606 -0.631918 -1.18483 -1.2339
230 5.35425 -2.21276 -9.19977 -0.332039 2.51871 0.633569
4943 8.6543 -0.0325006 -0.669948 2.27886 -0.633366 1.45911
87 5.33336 -7.69644 -8.41498 0.803887 -3.01642 -0.815564
92 6.09448 -6.90932 -8.31863 0.617672 -1.6696 0.0486399
135 5.50952 -6.05886 -8.29565 -0.342941 -1.50402 0.50809
374 5.36148 -6.87659 -7.60475 -0.788764 -0.541395 -1.56699
378 6.93953 -6.97734 -7.53961 -2.06207 -2.57272 0.315766
139 6.84108 -6.04728 -8.54166 1.43075 0.0734149 -0.711448
96 7.69047 -6.99418 -8.4987 -1.14034 -2.5723 -1.97569
382 8.5543 -6.79912 -7.70736 0.505875 -3.14865 -0.0752248
143 8.58138 -6.36364 -8.63658 -1.47733 -2.60953 0.59954
100 -9.19718 -5.38762 -8.27125 -0.0968012 1.56848 0.230066
385 -9.1432 -6.26671 -7.62264 -0.991983 2.31428 -1.65452
147 -8.5498 -4.58717 -8.47426 -0.586958 -0.133239 0.914678
433 -9.14353 -4.56027 -7.59069 -0.994405 0.350686 -0.599772
386 -8.48118 -5.4126 -7.51022 -1.87994 -2.68211 1.23655
104 -7.84113 -5.41094 -8.3743 0.365921 0.84181 1.40274
389 -7.79885 -6.18631 -7.63932 2.1519 -0.0542891 0.908555
151 -7.01041 -4.74232 -8.5308 -1.48848 -0.265395 -0.413389
107 -5.49907 -6.24962 -8.44055 -1.34727 -3.09271 -1.06687
108 -6.21514 -5.43981 -8.4322 -1.39612 2.64906 -0.4536
155 -5.52818 -4.55642 -8.66189 -0.354706 -0.689155 -0.310356
394 -5.5055 -5.31484 -7.43746 0.778531 -1.0633 -1.07209
441 -6.12987 -4.65969 -7.84463 -0.203009 0.523757 0.291217
4921 0.0762419 -0.170285 -1.65439 -0.275509 -1.4931 -0.230975
112 -4.76933 -5.33099 -8.49231 1.57289 -2.0888 -0.0776377
159 -3.83598 -4.5949 -8.46079 -1.646 -1.22754 -1.01293
445 -4.8162 -4.55221 -7.75343 1.27357 -0.043368 1.14092
115 -2.33533 -6.03993 -8.33687 0.78212 -2.44027 -0.285247
116 -3.13933 -5.20057 -8.47018 0.250089 0.348492 0.728194
163 -2.32716 -4.57685 -8.4476 0.672527 -1.03147 -2.49487
402 -2.39745 -5.21123 -7.63724 -4.83813 -1.42213 -1.80579
4641 3.10576 0.00928 -3.1357 2.7712 1.42116 0.0176507
4079 8.51712 -0.030589 -5.48267 -0.518509 -0.658301 -0.972347
119 -0.71733 -6.02906 -8.27435 1.88393 -1.76347 -2.46582
120 -1.48219 -5.41356 -8.29354 -0.0894744 1.23483 0.126811
406 -0.711309 -5.29982 -7.44752 -0.607867 -0.276062 -1.18389
124 -0.00466725 -5.35073 -8.41754 -0.777946 -0.996692 1.26571
409 0.118335 -6.09578 -7.61727 1.51559 2.19035 -1.81832
171 0.773536 -4.53993 -8.41273 0.631951 -0.1059 -0.768878
4065 3.19623 -0.0104108 -6.00235 -0.35231 -0.734373 2.94353
123 0.752641 -6.00238 -8.45757 1.45465 1.19009 1.70158
128 1.59394 -5.2855 -8.36611 -2.55685 1.45561 2.7455
1487 8.44421 -9.21791 -0.755148 1.76003 -1.75459 1.1371
1813 4.52423 -7.62518 -0.13051 2.83134 -2.30565 0.709431
132 3.25943 -5.3721 -8.32979 1.49352 0.453408 0.61759
131 3.97923 -6.02963 -8.33297 1.35276 -2.00885 3.89031
136 4.67785 -5.32504 -8.47781 -0.416405 -0.0040203 2.80741
469 4.85692 -4.65955 -7.79612 0.282032 -0.61953 -0.330722
3487 2.38322 -0.0354609 -8.46474 1.84395 1.6534 -1.60965
867 -8.54517 -9.18488 -3.9126 2.51532 -1.07489 -0.799967
140 6.2195 -5.3562 -8.42984 -1.01967 -0.675989 2.4129
183 5.48645 -4.6244 -8.47533 -0.525462 -2.28511 0.622071
473 6.29438 -4.58751 -7.81168 -2.13826 2.93499 0.264037
1806 2.04343 -6.86916 -0.0231846 -1.46008 -0.453371 0.322603
422 5.77511 -5.4525 -7.49274 3.42554 -0.998318 -1.58327
187 7.2025 -4.68861 -8.54142 -1.83079 -1.99587 2.06374
3781 4.7562 -0.129732 -7.69426 -1.83589 -0.510378 -0.751318
144 7.98108 -5.35522 -8.56415 0.169274 -0.459715 -2.04735
148 -9.21078 -3.63796 -8.76501 1.17612 -1.56961 0.0150627
195 -8.43826 -2.96876 -8.68123 -1.74941 1.61634 1.88658
278 5.47824 -0.740524 -9.20235 -2.20642 -0.452976 -1.90194
152 -7.77875 -3.91194 -8.45435 1.31218 0.774706 0.134647
199 -7.04734 -3.03805 -8.60124 0.417487 -2.04311 0.221903
438 -6.95122 -4.04653 -7.74972 0.630332 -1.36063 0.460635
485 -7.68442 -3.1475 -7.80827 -1.95781 -1.65341 -1.00099
156 -6.12782 -3.89704 -8.58217 -1.03069 0.226684 0.706006
442 -5.56736 -3.7071 -7.71815 -1.85356 0.778319 1.014
203 -5.79777 -2.94864 -8.42575 0.353102 1.57708 1.56573
489 -6.44544 -3.19979 -7.81122 0.0333726 -1.22688 -1.22445
160 -4.85227 -3.72546 -8.39276 -0.191983 -0.50938 2.96605
34 3.63085 -8.45769 -9.02178 0.797838 -0.0965306 1.45467
446 -4.04514 -3.98838 -7.60949 1.04047 3.01585 1.16433
269 1.43406 -1.67917 -9.12505 2.58322 -2.61325 -1.17195
164 -2.92544 -3.86186 -8.60169 -1.15641 -3.02635 0.233694
450 -2.44349 -3.77921 -7.68762 1.69874 1.74154 0.607031
497 -3.09188 -2.84686 -7.7855 -1.55767 0.36818 -2.99705
449 -3.08256 -4.46667 -7.8202 -0.830744 -1.40918 -1.66093
167 -0.840248 -4.71841 -8.55181 -0.0870927 -0.367613 0.993766
168 -1.67858 -3.7427 -8.67518 2.24984 -2.32449 0.489195
501 -1.65463 -3.18949 -7.81744 2.39178 -1.63808 -1.07245
85 4.46447 -7.90732 -8.89827 1.38962 0.973471 0.929786
172 0.177396 -3.78361 -8.349 1.52867 1.29748 -0.0213024
219 0.796862 -3.02048 -8.27969 1.9722 1.0395 0.222793
611 3.85281 -9.23032 -5.23191 -1.11054 -1.5175 -2.66074
457 -0.00464377 -4.66226 -7.68598 1.23288 -1.26335 -0.733406
176 1.65973 -3.88707 -8.33408 -0.486862 1.10818 1.19602
1797 -1.57837 -7.68278 -0.0999798 1.199 2.00799 1.05303
461 1.72699 -4.65053 -7.67674 1.92133 -1.19681 -2.3304
509 1.63881 -3.02933 -7.50097 0.36407 1.38885 1.28979
458 0.999779 -3.87964 -7.65746 4.16527 1.85657 0.797715
175 2.50864 -4.74554 -8.52781 0.157393 1.35508 0.0284962
180 3.26698 -3.88252 -8.45651 0.209842 -0.425773 0.173972
223 2.34377 -3.0797 -8.40145 -1.17643 -0.0864158 0.932324
462 2.23979 -3.83758 -7.59313 0.184297 0.894745 1.55511
1845 -1.46444 -6.11706 -0.148449 -0.973584 -0.0923383 2.15915
179 3.89938 -4.63682 -8.33897 0.407866 -3.07973 -0.903258
184 4.69813 -3.82406 -8.3739 0.935125 -0.605548 2.06314
466 4.06695 -3.86075 -7.58046 0.137473 -0.346238 -0.801311
517 4.6202 -3.01545 -7.6178 -0.836435 -0.331232 -1.0682
42 6.92283 -8.54894 -9.24 1.57941 0.0494129 -2.10558
188 6.2735 -3.83676 -8.47147 -0.635432 0.775609 -0.32369
521 6.20622 -3.10126 -7.60119 -0.968014 -0.633467 0.149725
231 5.51308 -3.06228 -8.34856 -0.143025 -0.583791 -1.95296
4937 6.17664 -0.00928638 -1.57027 4.32907 0.00286587 0.41116
470 5.6068 -3.94445 -7.69571 1.72314 -0.38441 0.882132
192 7.78714 -3.819 -8.61159 -1.75391 -1.38388 0.882895
235 6.98743 -3.09541 -8.613 -0.306496 1.90357 -1.10658
4633 -0.0416299 -0.140958 -3.18218 -0.999743 -0.115135 1.75511
149 -7.79423 -4.57535 -9.22973 0.97992 1.49208 -0.510712
47 8.40253 -9.16009 -8.31406 -1.80702 2.2889 0.632162
191 8.65925 -4.49132 -8.5182 -1.09029 1.04186 -2.65812
478 8.47806 -3.79303 -7.64006 0.348266 0.34491 -0.860347
239 8.47107 -2.9268 -8.55024 -0.352249 1.78819 0.352794
481 9.17818 -3.07275 -7.88288 0.519344 -2.64242 0.777744
196 -9.16334 -2.33792 -8.56497 -0.168317 -0.184189 0.426252
243 -8.60969 -1.45228 -8.59111 -0.138169 0.528619 -1.96902
482 -8.36747 -2.31742 -7.81221 -0.241286 1.35177 0.497213
533 -7.61098 -1.53287 -7.76155 -1.95655 1.95512 0.993508
200 -7.76109 -2.29201 -8.65342 -1.92048 0.0993182 -3.99481
247 -7.03124 -1.49969 -8.63473 -1.94929 2.4303 -0.396255
486 -6.87414 -2.25753 -8.02064 0.375788 -1.03125 0.0146853
204 -6.12976 -2.15391 -8.61009 1.601 0.480534 0.0559559
251 -5.28023 -1.51387 -8.5492 -0.385449 -1.21985 -2.29137
4911 -3.85562 -0.31969 -0.783053 2.30169 -0.111306 0.300696
207 -3.82937 -3.24285 -8.37591 -1.57458 0.092048 -1.24507
208 -4.60049 -2.23679 -8.52519 0.0804649 -0.602874 -0.442405
494 -3.74964 -2.24646 -7.90986 3.281 1.06058 0.93074
301 -4.65473 -9.13163 -7.81907 1.57247 1.15517 0.540983
4899 -8.42222 -0.0169327 -0.830405 0.67321 -0.343068 -0.529585
211 -2.2778 -2.98892 -8.51226 -1.41314 1.48107 -0.783214
212 -3.06702 -2.31588 -8.66725 1.63803 0.227416 -1.57779
259 -2.13959 -1.47445 -8.46129 1.28314 -0.573243 -2.46836
121 -0.108494 -6.27444 -9.14114 0.709651 -1.09629 -1.56568
215 -0.852367 -3.12381 -8.57883 0.5722 -0.614049 0.916371
216 -1.43112 -2.18347 -8.52364 0.895764 1.28467 0.857004
502 -0.700639 -2.2757 -7.57926 -0.374782 -0.979157 0.124244
505 -0.0280242 -3.0543 -7.68225 0.186727 1.35839 -0.983937
220 0.00759406 -2.17947 -8.43122 0.36262 0.353899 -2.86304
266 0.860369 -0.650436 -9.1624 2.58739 -0.340607 -1.22809
224 1.65283 -2.4025 -8.39392 0.508647 -0.0960157 -0.149367
157 -4.62604 -4.67978 -9.21913 -0.980578 0.420201 -0.193489
228 3.26566 -2.24886 -8.32923 1.12695 1.61491 -2.11645
510 2.48956 -2.21304 -7.7209 -2.54665 0.347761 0.296446
158 -4.0206 -3.92873 -9.06615 0.34995 2.59492 0.339005
129 3.14467 -6.02878 -9.17452 -0.119199 3.87862 1.18283
227 3.98603 -3.02403 -8.4933 -0.457096 -0.778156 -2.13804
232 4.7339 -2.17202 -8.36642 -1.9443 1.72702 -0.434082
226 3.83654 -2.2547 -9.1189 1.13411 -0.103188 -0.140322
236 6.27016 -2.3868 -8.53788 1.64254 0.496708 1.35566
569 6.35217 -1.62812 -7.84071 1.94149 -0.0775528 -1.34482
518 5.40419 -2.07598 -7.71195 1.41449 2.17046 -0.187458
893 1.55211 -9.18036 -4.52359 -1.31627 -1.07156 -1.11583
240 7.82911 -2.23285 -8.5485 0.816087 -2.40424 0.66612
90 6.94257 -6.95091 -9.18188 -1.08228 2.59126 1.6109
1473 3.04602 -9.06798 -1.57377 1.44726 1.92256 -1.44631
287 8.49588 -1.44502 -8.62123 1.60192 -1.08617 0.599116
526 8.65588 -2.19318 -7.86729 0.58138 -0.230767 -0.911971
248 -7.77231 -0.559107 -8.63149 0.285655 -0.0331886 1.35618
297 -6.18631 -9.19131 -7.6379 -0.606958 2.63856 -0.324167
244 9.20061 -0.69546 -8.64393 -0.637712 3.08011 1.49641
529 9.18206 -1.27318 -7.81799 2.80974 0.127047 0.196504
530 -8.18787 -0.675841 -7.80006 -0.451945 -0.352177 -0.0158312
4939 6.97257 -0.127609 -0.673131 2.04947 0.0486575 0.288679
252 -6.37038 -0.72212 -8.61715 -1.87506 -1.26316 -0.34781
1798 -0.723665 -6.99604 -0.101151 2.52223 0.77859 0.893797
1725 7.90014 -1.5374 -1.58997 -1.23609 0.300511 1.62751
4359 5.39517 -0.126393 -3.94599 0.477164 0.471703 -2.23383
255 -3.84314 -1.49701 -8.55045 0.118903 3.51958 1.52234
256 -4.65346 -0.703874 -8.57105 -2.33049 -0.449519 0.192062
4635 0.798548 -0.200613 -2.34065 -3.40615 0.907928 -1.29627
260 -2.99894 -0.685481 -8.3735 2.01273 2.40546 0.465349
546 -2.20848 -0.656014 -7.82331 -0.280626 -0.318664 -0.522107
170 0.802646 -3.93333 -9.14073 0.60008 -2.50825 0.605433
1913 6.18901 -4.84057 -0.0195836 2.16507 -1.10634 -0.183489
263 -0.706181 -1.48035 -8.30148 1.25404 2.89086 1.91109
264 -1.33509 -0.568192 -8.4964 1.02272 -2.14144 0.104393
268 0.044236 -0.593495 -8.41506 -0.569817 1.35806 1.05971
553 0.0584382 -1.41382 -7.51733 1.20244 -0.697227 -0.94648
25 -0.222142 -9.07351 -9.10053 2.29478 0.707805 -2.32413
267 0.785059 -1.5174 -8.43335 -0.0444355 -0.423054 -0.1401
272 1.64373 -0.694896 -8.48816 -0.261047 1.6382 -2.19807
1727 8.47709 -1.61972 -0.751764 -1.33051 -3.97816 1.27253
77 1.84006 -7.78686 -9.13744 1.6553 -0.420336 0.749665
271 2.49461 -1.51607 -8.43412 0.385926 0.736701 -0.938628
276 3.1448 -0.714264 -8.49865 -2.12652 0.293762 -1.84975
315 0.677279 -9.08852 -6.94466 -1.98602 3.69291 -0.69305
275 3.94427 -1.36819 -8.46911 -1.6922 -1.77467 1.23797
280 4.87051 -0.754149 -8.44684 -0.645635 0.47952 -1.12423
279 5.55038 -1.52066 -8.45818 -0.971397 1.46304 -0.13799
284 6.22876 -0.562206 -8.59525 0.641288 1.10535 -0.747991
137 6.08316 -6.24235 -9.10321 0.407117 1.89821 -0.963338
74 0.725501 -7.03984 -9.16465 0.0824277 1.34437 -0.261568
283 7.02677 -1.63452 -8.62521 -1.96555 -0.8326 0.321223
288 7.66563 -0.697146 -8.605 1.84021 0.932326 -2.07332
1734 -6.76012 -8.54087 -0.257898 -1.49455 0.625334 -2.62639
1953 3.08609 -3.15223 -0.0802754 -0.848784 -2.86576 1.73661
89 6.08465 -7.53381 -9.08213 -1.40532 0.541964 -2.14003
891 0.586944 -9.18319 -3.79381 -3.56778 -1.26512 -1.11646
574 8.50314 -0.613544 -7.76029 -0.279151 2.67402 0.784326
292 -9.15956 -8.36056 -6.81182 0.199411 -0.15699 3.77717
625 9.1079 -7.81835 -6.06076 -0.276482 1.46181 1.0767
294 -6.98815 -8.45886 -7.64956 -0.588196 -1.22602 -0.968375
296 -7.61637 -8.55048 -6.83523 1.48639 -2.13843 -2.03943
582 -6.73412 -8.429 -6.14759 -0.149003 -1.83428 1.88574
1854 2.23131 -5.42964 -0.150254 -1.24143 -0.522416 -1.36211
300 -6.11765 -8.35944 -6.9917 -0.297618 0.367504 1.42355
347 -5.38298 -7.59695 -6.88982 0.309603 1.25618 -0.109314
633 -6.12183 -7.61586 -6.25404 1.65576 -0.215893 2.06419
586 -5.60208 -8.60817 -6.1335 -0.542404 -1.8275 -0.16211
302 -3.8163 -8.53354 -7.71284 1.22256 0.607022 1.55326
304 -4.62693 -8.48449 -6.82091 2.08563 -1.7006 0.267177
306 -2.28522 -8.50799 -7.74775 -0.192935 1.14789 0.924568
308 -3.15257 -8.60361 -6.98782 3.10932 2.04327 0.252264
353 -3.07137 -7.79243 -7.6096 -1.15913 1.17189 0.84225
594 -2.4125 -8.40051 -6.19467 -0.702696 1.30599 1.09042
70 -0.802552 -6.93911 -9.05782 -0.653525 -0.0442675 0.195585
4051 -2.39451 -0.0546897 -5.47498 0.341365 0.330351 -2.4195
312 -1.60336 -8.47743 -6.91009 -1.5774 -0.041691 -1.07751
310 -1.03401 -8.22925 -7.68019 1.37441 -0.985848 0.242764
598 -0.964375 -8.32952 -6.13364 -0.948299 0.393703 -0.250266
1195 6.85065 -9.26614 -2.29664 -1.81838 -4.14772 0.844007
314 0.749947 -8.49215 -7.80006 -0.969949 0.675121 -0.58669
113 -3.0105 -6.18722 -9.00428 0.801685 0.361063 -1.25749
316 -0.0525277 -8.38624 -7.00263 0.200089 -1.2175 -0.728289
361 -0.0961854 -7.75648 -7.79484 0.686992 -1.30933 -0.0653886
649 -0.118918 -7.76112 -6.17576 0.0650391 0.901489 -1.19361
1485 7.70316 -9.17563 -1.50346 1.3807 2.62519 2.29661
365 1.61285 -7.77909 -7.75353 -0.351752 -1.81634 -0.761339
602 0.675218 -8.29319 -6.19663 2.11858 1.47978 -1.3545
320 1.31856 -8.31889 -6.94035 -1.44886 4.15547 -3.03054
181 4.55745 -4.68727 -9.10693 -0.513539 0.624571 0.845494
1726 8.38418 -0.584357 -1.51855 2.40043 -0.71897 0.984259
899 3.83937 -9.19773 -3.74483 1.51541 0.506322 -1.94189
318 2.29427 -8.56996 -7.65719 0.96173 0.148012 -0.238434
324 3.23204 -8.55025 -6.70987 3.63434 -0.272588 1.86238
657 3.08098 -7.74579 -6.0368 1.34823 -0.0989375 2.05041
1722 7.00866 -0.79619 -1.40056 3.02855 -0.727604 0.40184
328 4.58217 -8.49445 -6.77699 -0.275969 0.025137 -2.61771
371 3.85648 -7.7434 -6.89934 -2.44039 -2.56631 -1.51908
661 4.47424 -7.70669 -6.05452 0.779159 4.26788 3.37941
1453 -4.4048 -9.14692 -1.63299 0.96568 1.40122 1.72369
905 6.14237 -9.19802 -4.61794 -2.0616 -0.20969 0.627491
377 6.05833 -7.72286 -7.82001 -1.09419 -0.714537 -0.959766
332 6.13534 -8.53202 -6.76349 1.75885 -0.950068 0.149789
614 5.38021 -8.46914 -5.90628 0.752721 1.77275 -4.46749
375 5.32031 -7.71062 -6.87247 -1.15133 -1.53523 -0.444091
4365 7.77238 -0.139586 -4.50581 -1.87777 1.6629 -1.36857
330 6.92775 -8.52152 -7.69142 -2.1274 -0.607939 0.0248671
379 6.97534 -7.85008 -6.88158 2.29831 0.261106 0.966914
381 7.72163 -7.67271 -7.84625 -4.30351 -1.44887 -0.83449
336 7.79823 -8.53109 -6.66538 0.458381 -0.00721876 2.12032
383 8.28715 -7.62536 -7.07108 1.43742 -0.858764 -0.529433
169 0.00818285 -4.50222 -9.13105 -0.917339 -2.31566 0.0696582
338 -8.43822 -7.06867 -7.36106 0.0209244 -0.445509 0.734464
339 -8.22731 -7.80521 -6.76824 0.876627 1.4262 -3.03297
340 9.18995 -7.07414 -6.82178 -1.50097 1.31679 1.16895
626 -8.56116 -7.0882 -6.0689 1.05576 -2.8885 -1.34534
673 9.19076 -6.34874 -6.05881 -0.30445 -1.74446 -0.731603
343 -6.86014 -7.73495 -6.99724 -2.33555 -2.77885 -1.09979
344 -7.67049 -6.99053 -6.6374 0.342021 -1.83012 -0.275543
391 -6.99019 -6.14049 -6.95816 1.21607 1.50156 -0.89222
630 -6.89901 -7.01798 -6.05779 1.59294 2.00638 2.87506
348 -6.22622 -6.84983 -6.92847 -1.379 -1.4254 -1.15485
395 -5.48307 -6.14425 -7.0039 -0.101381 -0.0736909 -2.06407
634 -5.48457 -6.81321 -6.18755 0.517362 1.22437 -1.30137
351 -3.88822 -7.87103 -6.91219 0.823915 1.33049 -0.330709
352 -4.60937 -7.00894 -7.01498 -0.0449426 3.82571 -2.79364
399 -3.83814 -6.37877 -6.944 -0.0384117 -3.16019 0.000266803
637 -4.56856 -7.695 -6.18016 2.03311 1.25782 -3.13952
355 -2.29884 -7.73552 -6.79346 -2.36585 1.04616 -1.7055
356 -3.1527 -6.97151 -6.78372 -0.972347 -0.661923 -1.84646
401 -3.19095 -6.08442 -7.81708 0.57151 0.155321 0.216687
403 -2.47047 -6.12145 -6.81941 -1.98763 -0.610417 -0.813678
642 -2.38153 -6.78669 -6.21109 -1.51979 1.67082 1.20729
359 -0.952845 -7.62919 -6.88666 -0.588787 1.48562 2.45508
360 -1.61003 -6.83505 -6.96007 0.307219 -0.745456 0.344432
693 -1.79978 -5.9693 -6.19164 -0.0846996 -0.126279 -0.777804
364 -0.0944402 -6.73251 -6.72867 -0.331024 -1.33586 2.3585
362 0.762911 -6.77756 -7.76831 -1.23568 0.656416 -2.24818
363 0.66163 -7.60568 -6.99203 -0.321187 0.0698596 1.24816
368 1.6176 -6.93135 -6.8249 -0.311591 -0.319975 -0.842212
413 1.60277 -6.10564 -7.70633 2.51405 1.69688 -2.08605
417 2.95282 -6.1496 -7.6185 -0.0715747 -1.60555 -0.0497563
366 2.1953 -6.82382 -7.777 -0.52237 -0.392114 -1.16926
367 2.39598 -7.63286 -6.8387 0.490686 3.43012 0.801856
372 2.93218 -6.87147 -7.00795 5.32832 1.88141 1.58651
376 4.59029 -6.97371 -6.87656 -0.175357 -0.421007 -1.23104
419 3.7953 -6.0888 -7.06748 -2.17568 -2.26737 1.45848
425 6.33958 -6.19662 -7.64571 1.24152 -1.5717 -0.730421
665 6.16338 -7.74016 -6.14268 -2.58644 -0.111492 0.26655
380 6.23577 -7.11269 -6.87774 0.444483 1.34467 -0.979498
662 5.52971 -7.08726 -6.20269 0.206416 1.79461 0.701705
423 5.49283 -6.2108 -6.74981 -0.500185 0.177123 -1.24456
429 7.73837 -6.12542 -7.80816 -0.276861 0.69619 -2.86644
384 7.72697 -6.79216 -7.03958 -1.35373 -0.651665 -0.785463
337 -9.20828 -7.60947 -7.60558 -1.12605 -3.22847 -1.01698
670 8.43568 -7.10623 -6.1971 -2.95576 2.21664 -0.374857
431 8.39359 -6.09625 -6.97873 0.00215475 4.63869 -0.352744
387 -8.50446 -6.31857 -6.68969 -0.362883 0.227935 1.81976
388 9.18613 -5.51339 -6.78465 1.62409 0.557111 -2.14849
390 -7.04744 -5.28095 -7.5545 2.65161 0.643816 -2.59515
677 -7.55273 -6.19739 -6.04645 0.856871 -0.0571181 -1.52277
392 -7.82248 -5.46531 -6.80126 -0.913682 0.714902 -1.36216
439 -6.76272 -4.62383 -6.89958 1.22135 -0.854571 -0.973626
437 -7.75385 -4.57604 -7.78644 -0.843257 1.98818 -3.37032
393 -6.22307 -6.19686 -7.70167 -0.434321 -3.03599 1.97813
681 -6.34657 -6.14322 -6.02807 -0.350603 -0.768717 -0.0595318
396 -6.09945 -5.43447 -6.67577 -0.772254 0.410594 -1.79099
398 -4.03062 -5.42693 -7.64051 -1.13506 0.0940867 2.1821
400 -4.6417 -5.42292 -6.87835 0.105604 -0.581293 0.835909
686 -3.98413 -5.22466 -6.2513 3.12628 -1.16101 -1.00599
404 -3.26242 -5.40551 -6.83237 -0.354018 -0.709618 -3.80135
689 -3.26161 -6.16709 -6.20279 -2.19403 -1.56693 1.90903
737 -3.11131 -4.44986 -6.29067 0.867999 0.281206 0.54062
690 -2.52964 -5.15042 -6.24849 1.22452 -0.416171 -2.80216
453 -1.62749 -4.52597 -7.67923 -0.891703 -0.851725 -0.329918
407 -0.983437 -6.12862 -6.73951 0.212236 -0.68202 -1.37221
408 -1.57767 -5.17947 -6.86978 -2.11963 -3.77253 0.570949
694 -0.870415 -5.41355 -6.16445 -1.28639 0.230673 0.530936
410 0.899621 -5.33426 -7.71051 0.418092 0.257425 0.41287
412 0.11327 -5.47687 -6.78223 0.229921 0.450465 -0.245019
411 0.84747 -6.27292 -6.89165 0.493616 -0.651074 0.278184
416 1.48203 -5.28277 -6.95444 2.00126 0.505517 -2.18508
418 4.0364 -5.38058 -7.67949 -1.41214 3.1144 -1.15123
415 2.29445 -6.05393 -6.95456 -0.53674 1.44794 0.241927
414 2.44674 -5.31788 -7.65489 0.0722476 1.164 0.783616
420 3.28421 -5.26223 -7.02527 1.31061 -1.45072 1.63833
421 4.68371 -6.06167 -7.53881 1.7687 0.530085 0.20008
424 4.67377 -5.33615 -6.85572 -0.942782 -0.0166231 -0.324069
709 4.59723 -6.18796 -6.23056 -0.395255 1.14608 2.07186
706 3.77257 -5.41675 -6.19566 -1.88797 1.44277 0.636289
757 4.72147 -4.44449 -6.31815 1.62605 -0.544778 -0.496947
428 6.24068 -5.37755 -6.59251 1.25727 -0.603475 -4.46084
761 6.31766 -4.51019 -6.08779 -0.772749 -3.67398 -0.36335
710 5.47742 -5.37924 -6.12033 1.86637 -0.820436 3.07547
426 7.03386 -5.30802 -7.74406 -1.0755 -0.329631 0.623099
427 7.04178 -5.97779 -7.00658 0.0325977 3.3767 0.671079
432 7.81901 -5.13671 -6.92502 -0.591064 -0.230856 -1.49684
475 6.84113 -4.5525 -6.96294 -1.77574 -2.82192 1.49798
430 8.52285 -5.25484 -7.60132 -0.0239048 -1.18649 -0.640351
718 8.37477 -5.46892 -6.13606 0.527536 -0.682203 -1.10921
479 8.62956 -4.68139 -6.78265 -1.60055 -0.345509 -0.289542
434 -8.51256 -3.74468 -7.89942 -0.395046 0.238213 0.355004
435 -8.51194 -4.70629 -6.84578 1.88882 0.706201 -1.65687
722 -8.32142 -3.85705 -6.2143 -1.36189 0.177493 -2.16117
483 -8.3227 -2.95439 -7.0413 -0.433571 -0.270448 -1.04085
440 -7.68601 -3.98275 -6.93795 -3.9586 -0.262872 2.70137
487 -7.05435 -3.15452 -6.98931 2.31204 1.08635 -0.708894
443 -5.53346 -4.50248 -6.99286 -0.651863 -1.42414 -0.954147
444 -6.07856 -3.75755 -6.9448 -1.51858 0.00358219 0.768865
491 -5.43992 -2.85978 -6.9351 2.09689 -1.12402 -1.10322
729 -5.98033 -4.55958 -6.13213 0.485574 1.9738 0.927942
730 -5.50429 -3.70676 -6.22507 1.69394 -1.90593 -1.22966
777 -6.27288 -2.95057 -6.41835 -1.34592 2.19618 -0.192503
447 -3.97364 -4.71893 -7.05647 1.80753 -1.29529 1.96197
448 -4.83936 -3.84437 -6.96219 2.38034 0.951757 0.454978
495 -3.88008 -3.04188 -7.16831 -0.0441448 -1.62066 1.0358
734 -4.13022 -3.83036 -6.35559 -1.60967 -2.70174 3.24264
781 -4.67743 -3.07615 -6.07736 -0.757798 -1.57828 -1.16329
451 -2.44383 -4.42973 -6.96395 -2.57343 0.625029 0.659678
452 -3.2192 -3.79186 -7.08416 -1.72917 -1.01622 1.68214
499 -2.43308 -3.0839 -7.01266 -2.24654 -0.940283 3.4663
738 -2.29156 -3.8288 -6.17974 1.98477 0.400463 0.394402
454 -0.885359 -3.98599 -7.82753 -0.342421 2.82524 2.02875
455 -0.718229 -4.55536 -6.86827 1.28364 1.22431 2.18087
456 -1.55604 -3.96522 -6.87739 2.71919 2.58021 0.214387
742 -0.772579 -3.82043 -6.06706 1.60168 -2.029 -0.135236
503 -0.722145 -3.27294 -6.96959 -2.94761 0.974392 -1.013
789 -1.66872 -3.04857 -6.36073 -0.684886 0.187731 -1.22915
459 0.861385 -4.59593 -6.96882 0.162691 1.68582 1.13753
460 0.156727 -3.94897 -6.89822 1.96088 1.69934 -0.35696
463 2.36876 -4.61867 -6.8663 1.61658 0.0345007 -0.316231
464 1.61425 -3.90755 -6.95096 1.64992 -1.79877 -1.0182
465 3.16861 -4.47463 -7.71215 1.88851 -1.6626 -2.03305
468 3.08601 -3.81489 -6.88615 0.00366407 0.182181 1.9643
513 3.08001 -3.13522 -7.70879 1.60589 1.11548 -0.111637
467 3.88695 -4.57486 -6.87646 2.72783 2.00372 0.0369511
472 4.83411 -3.827 -7.06069 -0.219427 -0.340618 -2.97526
471 5.57178 -4.71145 -6.8627 0.751346 -0.502445 -0.608169
476 6.07239 -3.69553 -6.86874 -0.962875 0.649382 2.16952
519 5.41332 -2.94974 -6.99871 -2.77445 -0.125014 -2.70766
758 5.49944 -3.85479 -5.9429 -0.679105 -1.75612 2.28514
474 7.02222 -3.68929 -7.83187 -0.309687 0.382409 -2.47217
525 7.89118 -2.88435 -7.72799 -0.80188 0.557547 -0.733519
765 7.72304 -4.39294 -6.22831 1.43964 -0.367542 -0.0994597
477 7.86387 -4.50122 -7.8836 1.58429 -0.386531 1.40618
762 6.97952 -3.78369 -6.20157 0.196949 2.10881 0.712087
480 7.86091 -3.87125 -6.98901 1.06005 2.01291 -3.56204
813 7.68671 -3.17435 -6.24353 -1.45967 1.84663 -0.0619694
436 -8.94815 -3.77467 -6.96332 0.570336 -0.10808 -0.738304
766 8.59921 -3.89658 -6.21282 -0.266183 2.51576 -0.0394011
770 -8.09522 -2.23073 -6.33606 0.117654 0.754884 0.492574
488 -7.58986 -2.31297 -7.19915 0.111786 0.608999 -2.47401
535 -6.77603 -1.31911 -6.95984 0.201513 -2.64298 -0.005424
774 -6.98489 -2.20535 -6.46844 1.04207 0.259823 -0.359578
490 -5.57558 -2.28805 -7.71622 -0.0227833 -1.52823 -1.09472
537 -6.26219 -1.48214 -7.72126 -1.21452 1.28306 0.398604
492 -6.31094 -2.41358 -7.15014 0.753585 1.16048 1.6433
539 -5.31438 -1.5119 -7.14933 -0.711386 2.46023 1.19404
825 -5.93387 -1.48994 -6.32138 0.38558 -1.75572 3.05846
493 -4.84175 -3.05739 -7.75249 1.60276 -1.62642 1.00026
496 -4.60155 -2.26338 -7.0946 -1.1392 -2.74087 2.56284
541 -4.55778 -1.5328 -7.82784 1.98552 -1.54814 -1.34388
543 -3.90641 -1.46769 -7.01065 0.119925 1.47997 3.14253
782 -3.99359 -2.20404 -6.27197 0.142112 2.98747 -2.64469
498 -2.244 -2.28082 -7.76963 0.0818281 -2.75865 0.0199207
500 -3.2293 -2.14608 -7.08046 0.532422 -2.3731 1.77353
547 -2.23712 -1.41624 -7.12021 -0.498815 -0.882836 -2.64018
785 -3.31847 -2.93596 -6.35836 0.877642 -1.96628 0.492131
786 -2.36719 -2.17909 -6.53294 -3.23942 1.85093 1.09062
833 -3.15646 -1.43018 -6.11984 -0.24252 2.02436 -1.16414
504 -1.46818 -2.27935 -6.93154 -2.77567 1.12995 -1.52363
790 -0.709366 -2.27261 -6.34343 -1.86444 1.23315 1.04161
549 -1.44738 -1.60372 -7.65426 -1.36813 3.89461 0.981622
507 0.681097 -3.04887 -7.04819 0.660064 0.419079 -1.95167
793 -0.00743176 -3.16828 -6.28983 -0.256294 0.137453 -1.75366
508 -0.00259393 -2.24866 -6.95361 1.88182 0.182127 0.270745
506 1.06582 -2.21297 -7.69886 0.603665 -0.65701 0.246552
512 1.67582 -2.22532 -6.83733 0.637392 1.20424 -0.0595137
845 1.75023 -1.60757 -6.1159 1.11185 -1.13655 1.87529
511 2.37441 -3.14416 -6.8399 -1.40994 0.929552 0.133309
561 3.27554 -1.5219 -7.65204 1.8332 -0.554105 -3.68458
516 2.8875 -2.19127 -6.89954 0.632672 0.539536 1.51359
559 2.29425 -1.46506 -7.02149 1.34449 -1.26306 -1.48848
849 3.18249 -1.58029 -6.08102 0.145967 -0.749623 1.90642
515 3.77574 -3.09949 -6.9902 -2.06505 -0.769807 0.174373
514 4.04353 -2.291 -7.7557 -0.530523 -0.802269 1.02319
565 4.51727 -1.33365 -7.60383 -0.565156 0.930526 1.88911
520 4.72246 -2.26142 -7.01875 2.22033 0.260815 -0.05679
802 4.01991 -2.47763 -6.2569 0.839197 0.757897 0.186899
563 3.90933 -1.64574 -6.86877 1.13627 2.66703 -0.220233
524 6.21737 -2.35153 -6.91081 -1.11831 -0.369935 -1.98858
522 6.9987 -2.41369 -7.82692 -0.696776 -1.93943 -1.63964
573 7.67351 -1.61332 -7.7542 -1.48309 0.434677 0.176072
523 6.98333 -3.0702 -7.07231 -0.549591 1.37639 0.500493
528 7.75625 -2.3555 -6.94407 -0.316978 1.30682 -0.241857