ITEM: TIMESTEP
73000
ITEM: NUMBER OF ATOMS
6912
ITEM: BOX BOUNDS pp pp pp
-9.2265715179435492e+00 9.2265715179435492e+00
-9.2265715179435492e+00 9.2265715179435492e+00
-9.2265715179435492e+00 9.2265715179435492e+00
ITEM: ATOMS id x y z vx vy vz
4 9.18511 -8.49412 -8.59551 -1.70186 -0.6492 0.458072
1790 -3.74489 -6.8628 -0.0188949 0.592198 0.879987 2.47064
290 -8.49713 -8.482 -7.89286 0.431997 -1.37382 0.780207
8 -7.50653 -8.3208 -8.50828 -1.88357 -1.3603 -2.0437
55 -6.86018 -7.54771 -8.73226 1.35269 0.465743 -0.189822
1858 3.90525 -5.46955 -0.0223058 -0.303328 -0.827496 1.65204
12 -6.239 -8.39324 -8.69151 -1.18115 1.53544 3.84343
345 -6.28597 -7.72274 -7.91309 -2.62869 1.30572 -0.707645
327 5.33964 -9.16321 -7.0569 -1.04735 -2.58387 -0.783589
16 -4.63196 -8.55267 -8.51358 -2.03955 0.762643 2.41773
63 -3.98772 -7.76339 -8.55082 0.597293 -0.170074 -0.400982
4905 -6.10921 -0.0243316 -1.69759 -0.267445 -1.50741 -0.313307
1846 -0.70531 -5.25304 0.011776 -1.47755 -0.624562 1.85788
20 -3.00665 -8.50854 -8.57366 -0.828662 0.328627 -2.25577
67 -2.27483 -7.59062 -8.51807 -0.335666 0.264145 -0.862716
306 -2.41665 -8.37405 -7.68234 0.260534 -0.480253 -0.402116
23 -0.80495 -8.99647 -8.40682 -1.3908 -2.47419 -0.383166
353 -3.20359 -7.70688 -7.58581 0.325814 -1.75882 -1.32162
24 -1.77243 -8.36333 -8.42997 -1.29284 0.66529 0.795689
310 -0.834553 -8.25788 -7.62894 0.226048 1.19366 -1.0919
609 2.8875 -9.13064 -6.07275 -0.645558 1.49594 0.530534
1169 -3.16929 -9.19599 -2.94464 -0.116102 -0.477155 3.23315
621 7.76414 -9.20516 -6.23642 0.00716508 1.26284 0.644049
1750 -0.633518 -8.48803 -0.115513 -0.494386 0.276134 0.389099
4619 -5.1554 -0.0663354 -2.30776 -0.214138 -0.145263 -1.26316
21 -1.45965 -9.1103 -9.105 4.49741 -1.33281 -1.20911
28 0.0228153 -8.16639 -8.44381 -0.0577356 3.25764 1.97821
361 -0.0662159 -7.59455 -7.55714 -0.354208 -3.17243 0.873398
1181 1.39556 -9.07443 -3.12139 -2.09213 0.218405 -0.175745
32 1.63992 -8.44692 -8.33911 1.0089 2.08425 1.59042
242 -8.43535 -0.886668 -9.13148 0.578154 0.438829 -0.355907
1842 -2.22475 -5.04334 -0.0310713 2.0665 -0.495303 1.60721
36 3.01603 -8.31997 -8.46576 -2.66069 -0.601477 1.60051
1802 0.671535 -6.85772 -0.0635107 -0.364145 -1.05017 0.810656
1901 1.47361 -4.61234 -0.0338885 -0.948262 2.35183 2.24221
2013 7.69747 -1.56224 -0.102668 -2.11495 2.22483 -2.97299
40 4.65572 -8.55821 -8.48654 -0.130824 0.810621 0.17366
1986 -2.27477 -0.857578 -0.0208194 0.748063 2.7731 -0.0229233
4925 1.48697 -0.0446617 -1.69872 1.94743 -1.45043 -0.76635
44 6.01086 -8.27064 -8.75287 -0.146381 -2.45177 -2.58011
326 5.45923 -8.44457 -7.71125 2.50385 1.28564 1.1662
87 5.25829 -7.53487 -8.45403 0.517813 -2.09585 -1.44125
34 3.94771 -8.47784 -9.13458 -0.732304 1.40064 -1.53623
1681 -8.9967 -1.7291 -1.65627 1.49454 -2.37186 -2.43096
330 6.96993 -8.37031 -7.49569 -0.274442 -2.4003 -0.809477
91 6.96074 -7.74353 -8.53345 2.75273 -1.707 2.30608
48 7.74231 -8.25041 -8.33909 2.50019 -0.188125 -0.372621
1882 -5.43551 -3.9422 -0.294474 0.886712 0.18269 -0.692289
1726 8.56863 -0.71789 -1.66375 -1.05481 -2.35376 -3.65084
899 3.9647 -9.09757 -3.90702 4.15379 2.80511 0.760965
22 -0.718219 -8.3033 -9.13582 -2.39522 -3.68234 0.650771
51 -8.52642 -7.6154 -8.36065 -1.61331 1.48794 1.04871
52 9.21643 -6.97584 -8.45749 0.538681 1.36258 -0.475057
99 -8.42789 -6.0858 -8.44143 0.866544 -0.858886 -0.291991
56 -7.58255 -6.98954 -8.44394 -0.694797 2.59786 -1.68297
341 -7.42258 -7.74983 -7.66692 -3.21698 0.130281 -1.85509
342 -7.05103 -6.91302 -7.5491 0.803264 -0.709786 0.607603
59 -5.45891 -7.50838 -8.45462 -0.633522 0.383716 1.84117
60 -6.18912 -6.73513 -8.4249 2.47626 0.341731 -0.200017
107 -5.35384 -6.02719 -8.47177 -1.5972 2.24948 -0.572667
1177 -0.0816083 -9.18191 -2.97317 0.957194 -0.733344 1.29491
1950 2.23089 -2.32811 -0.172865 1.09991 1.22368 -0.154193
64 -4.56643 -6.81701 -8.39737 -2.32297 1.96126 -1.82042
68 -3.14555 -6.99102 -8.45014 1.77982 -1.12259 1.82024
115 -2.37375 -6.39048 -8.41528 -0.475219 -1.09323 0.959013
111 -3.78127 -6.19616 -8.40957 2.4941 1.25631 -1.2668
71 -0.782227 -7.56226 -8.42808 -4.14515 -0.972705 0.850311
72 -1.50927 -6.89183 -8.58109 -0.411957 -1.18497 -1.71291
169 -0.120159 -4.68539 -9.06867 -0.132496 0.211144 0.0959243
76 0.100194 -6.94206 -8.43699 0.47823 -0.246512 -0.868407
3467 -5.55228 -0.0960578 -8.45124 -0.180376 -2.4949 -2.18347
75 0.887254 -7.85148 -8.4596 -0.220547 -1.17949 -1.16071
80 1.5213 -6.95554 -8.58313 0.477555 0.996483 -2.8928
413 1.48008 -6.24356 -7.91502 -0.669646 1.29343 -2.47355
1998 2.25721 -0.723847 -0.100633 1.09284 0.00504484 -1.1314
79 2.30966 -7.49711 -8.4474 -1.02958 1.26693 0.104025
84 3.04285 -6.86035 -8.37739 0.576669 0.200801 -0.866333
366 2.335 -6.92646 -7.69485 -1.20247 -0.256221 1.20752
369 2.94352 -7.73223 -7.66303 -2.92742 1.05757 -1.28309
1942 -0.859248 -2.35477 -0.0389758 1.66115 0.831392 -0.188665
83 3.84835 -7.62633 -8.47599 -0.0812536 -1.58529 -0.761213
88 4.53599 -6.83999 -8.44446 1.75434 1.67309 3.14723
92 6.33899 -6.87828 -8.4115 -3.06892 1.81118 0.134563
374 5.16302 -6.83845 -7.6566 -0.0979144 0.162489 1.57365
1913 6.03778 -4.69826 -0.0809404 -1.10787 0.245456 0.133659
378 6.99989 -6.96352 -7.66063 1.01848 -0.834418 -0.222768
139 7.01101 -6.08917 -8.44374 -0.955375 0.503298 -0.284176
429 7.74686 -6.32596 -7.62147 1.02977 0.505035 -0.147141
381 7.7761 -7.60586 -7.50384 -2.35954 -1.46723 0.229371
96 7.64368 -6.87873 -8.4199 1.11186 -0.475503 -0.308594
4355 3.7221 0.00482667 -3.71027 1.96785 1.45367 -0.527405
95 8.50731 -7.65113 -8.39369 0.354266 -2.48003 -0.375461
382 8.58116 -6.88038 -7.60971 -3.54809 0.911364 -0.742786
305 -3.11577 -9.09313 -7.64417 -1.97896 0.393753 0.469231
277 4.58823 -1.48387 -9.12265 1.4602 0.243801 0.105892
100 9.1179 -5.37118 -8.43104 -1.44046 0.534359 -0.242304
147 -8.37687 -4.45062 -8.30924 0.852975 -2.35656 -1.05786
103 -6.89984 -6.00455 -8.10742 -1.07232 0.226868 0.0510331
104 -7.6097 -5.17327 -8.3886 -1.78262 -2.70856 -1.03646
151 -6.9293 -4.42234 -8.34316 -0.18434 -2.19956 -0.874971
390 -6.77822 -5.18925 -7.57257 -0.163421 0.972292 2.37833
108 -6.03581 -5.14519 -8.43723 0.982998 -0.244697 1.12804
155 -5.23775 -4.44817 -8.51352 -1.95186 0.740148 -2.09547
1946 0.667961 -2.28999 -0.106304 0.875177 -0.247985 -0.638528
112 -4.52628 -5.43335 -8.40319 -0.68104 -2.02413 -1.71223
398 -3.92379 -5.41247 -7.61624 -0.1874 -0.408572 -0.76218
159 -3.90342 -4.63227 -8.57729 0.992751 0.0446138 -4.24635
116 -3.30158 -5.43253 -8.4529 0.0689852 -0.036035 0.976167
82 3.78155 -6.79537 -9.05851 0.132739 -0.996223 -0.03611
120 -1.49984 -5.31608 -8.51635 -0.781473 0.95693 -1.36607
119 -0.763562 -6.04488 -8.38847 -0.794999 -0.488325 0.194605
406 -0.787312 -5.29631 -7.72296 -0.44175 0.0448485 -1.88203
1738 -5.47005 -8.43016 -0.154188 0.427669 -0.0632607 -0.336783
123 0.787449 -5.98267 -8.58949 -0.707202 -1.32427 -1.37247
124 0.0285717 -5.30937 -8.18451 3.22456 -0.658022 -1.82434
457 -0.0235697 -4.34211 -7.69936 1.23527 0.0879371 -0.952363
128 1.56451 -5.38117 -8.53887 0.258143 -1.81004 0.123698
171 0.736986 -4.54926 -8.35378 -3.37451 -1.68545 -1.05682
461 1.57313 -4.7127 -7.68544 1.14176 0.413585 -0.737485
417 3.11508 -6.24041 -7.67267 1.5406 -0.0708414 -0.797959
127 2.31809 -6.21243 -8.60691 -0.2028 -0.393438 0.730527
132 3.1532 -5.32593 -8.41542 -1.81789 1.87945 -0.835606
97 9.23024 -6.07312 -9.18501 1.02182 2.27011 -0.438604
414 2.36992 -5.42372 -7.85135 1.85873 -0.770435 -2.05056
131 3.90577 -6.11231 -8.32788 1.92984 -1.03817 -1.83794
136 4.74004 -5.32866 -8.28084 1.89387 -0.667187 -2.33359
179 4.03699 -4.62758 -8.33864 0.412261 0.732435 0.777885
469 4.83701 -4.67129 -7.60676 -0.104009 -2.0466 0.486074
421 4.54657 -6.02853 -7.61881 0.835983 -1.66847 -0.483872
177 3.05319 -4.5184 -9.02909 -0.801617 1.17092 -1.62481
135 5.37394 -6.14692 -8.32178 0.583268 0.293829 0.768112
140 5.99435 -5.3798 -8.43199 0.412936 -3.94361 -1.82954
183 5.42112 -4.52428 -8.58251 -0.795375 1.15908 -0.519388
4067 3.92331 -0.00739503 -5.41576 -0.262715 -0.559876 0.475466
1822 8.66516 -6.99069 -0.105867 0.263383 2.14048 -0.12562
426 6.72856 -5.35994 -7.78724 1.22263 -1.42808 -2.57465
144 7.729 -5.42159 -8.24319 0.830039 -0.783949 0.476777
187 6.93168 -4.56187 -8.41399 -1.05917 0.184854 -0.68582
477 7.67207 -4.64479 -7.60917 0.00293142 -0.497191 1.48565
143 8.51941 -6.18041 -8.3951 1.36148 0.911847 -1.73764
4037 -7.74767 -0.0219338 -6.11448 -0.838896 -1.87928 1.28646
191 8.53373 -4.59082 -8.4821 0.481093 -0.694835 1.95112
897 2.7775 -9.20431 -4.57185 -1.63658 -2.3346 -0.845073
481 9.17042 -2.91569 -7.57517 -0.813669 1.88519 0.3749
311 -0.79032 -9.11757 -6.97145 -3.14831 -2.2755 2.82593
434 -8.43735 -3.74258 -7.52753 -1.35852 0.561086 1.02609
152 -7.75236 -3.62948 -8.44184 -0.0309371 2.2813 0.172709
199 -6.92593 -2.93688 -8.40808 0.190154 -0.59342 1.3604
156 -6.20526 -3.63435 -8.4919 -2.24389 0.709791 -0.484944
203 -5.35027 -2.97381 -8.56815 -0.801129 1.72542 -1.73159
442 -5.36794 -3.77942 -7.6877 0.468853 2.11521 -0.667505
160 -4.57133 -3.55765 -8.59229 1.21615 2.66094 0.709342
207 -3.91869 -2.88901 -8.35501 2.23233 0.587097 0.300257
446 -4.04541 -3.68559 -7.78295 -0.852996 -0.266722 -2.08323
43 6.95364 -9.10542 -8.44543 -0.049377 -1.6426 -2.1798
163 -2.34076 -4.65148 -8.56701 -2.61958 3.57237 -0.0709982
449 -3.29565 -4.62294 -7.86642 -1.01433 -2.88047 1.04449
164 -3.25087 -3.73497 -8.43922 -2.7202 1.5097 -0.443522
211 -2.47416 -2.92946 -8.51473 -0.883083 0.183236 -0.657633
497 -3.19663 -3.0416 -7.6889 0.27324 -0.93107 -0.331435
145 -9.17259 -4.58466 -9.19466 -0.635104 0.815469 0.564868
167 -0.850625 -4.51464 -8.33623 -0.339372 -0.601193 0.230457
168 -1.66144 -3.71098 -8.50701 1.97657 -0.349943 2.33885
4613 -7.74843 -0.105925 -2.89259 0.949012 0.828401 -0.0956438
172 -0.0702136 -3.7617 -8.3777 -0.965777 0.538456 -0.115782
458 0.805363 -3.65301 -7.63049 -2.33824 -1.82299 -1.01656
176 1.40412 -3.8138 -8.40745 1.81601 -1.48727 0.506197
219 0.80037 -2.97306 -8.40653 -1.07235 -1.20736 0.0579435
170 0.55714 -3.89209 -9.11011 -0.291491 -0.602587 -1.08754
175 2.22438 -4.50439 -8.46245 1.88488 1.7347 0.498742
180 3.19028 -3.67818 -8.58199 -2.66371 2.22594 -2.17542
223 2.33092 -3.09736 -8.47885 2.4419 0.839928 -3.171
465 3.2233 -4.50046 -7.89427 -2.20811 -1.09678 1.20878
189 7.66672 -4.60573 -9.04151 2.70659 -0.479356 0.149544
227 3.97438 -2.978 -8.59271 -0.597433 1.70631 1.47039
184 4.5479 -3.77797 -8.51144 -0.911212 2.14056 1.03168
466 3.84888 -3.70745 -7.76789 1.25142 1.04241 -0.93789
188 6.20766 -3.88542 -8.78472 -0.801736 1.77823 -1.22787
231 5.39673 -3.1821 -8.72954 -0.324359 0.300722 -0.274101
521 6.22705 -3.2143 -7.94213 -3.03058 -0.467013 -1.38397
470 5.56996 -3.79121 -7.63427 0.28267 0.824352 -0.875181
117 -1.6176 -6.13936 -9.09838 1.26134 2.93511 -0.117455
192 7.74135 -3.83871 -8.33597 1.14333 -0.216393 1.24752
235 6.94008 -3.17223 -8.58354 -1.12178 -0.0515907 -2.35034
525 7.63852 -2.98309 -7.70805 -1.4764 -1.52515 -0.251215
474 6.96052 -3.91579 -7.58989 -2.30442 -2.19703 -1.28177
274 3.75782 -0.599889 -9.20857 1.73403 0.416314 0.605814
148 9.18317 -3.81267 -8.60131 -3.23749 0.916928 0.431198
478 8.38624 -3.9457 -7.64892 2.40608 1.20087 2.7027
239 8.5465 -3.13776 -8.27506 0.808821 0.749447 1.50256
3495 5.37818 -0.0665454 -8.38454 -1.71623 0.193484 0.0833122
195 -8.58392 -3.25222 -8.27624 -2.60112 2.66664 -0.287097
196 -9.22577 -2.25516 -8.31932 -0.877302 -1.28764 -0.570342
482 -8.50644 -2.22978 -7.56577 -2.07361 0.668936 1.9601
533 -7.66394 -1.46215 -7.66192 0.127923 -0.133009 0.488166
200 -7.74287 -2.37096 -8.50065 -1.21753 2.57191 -0.285097
247 -7.16092 -1.55981 -8.48614 0.0524153 -2.60241 0.868299
486 -6.93139 -2.30758 -7.64959 2.89058 -0.187935 -0.324509
204 -6.22679 -2.10395 -8.56951 0.669389 0.0544071 1.41039
490 -5.3783 -2.20251 -7.8541 0.348898 0.925469 0.0356978
251 -5.44155 -1.29212 -8.54457 0.925376 0.85087 1.05996
489 -6.20097 -2.93522 -7.66568 2.56412 1.28335 1.96556
208 -4.72679 -2.24047 -8.64717 -1.47136 -0.778065 -0.816142
493 -4.69088 -2.88511 -7.75264 -0.330093 -1.33418 -1.09762
541 -4.72186 -1.2957 -7.75709 2.25108 0.999726 -1.24565
212 -3.04691 -2.21939 -8.3726 1.35628 1.02779 0.618534
259 -2.42478 -1.46426 -8.45804 0.589117 -0.835695 0.682293
498 -2.43608 -2.14202 -7.63897 -2.75207 0.892582 0.181129
216 -1.66913 -2.19162 -8.32429 2.64405 -2.47321 -1.29175
549 -1.55449 -1.35609 -7.69748 -0.0900092 0.0141799 -4.72553
263 -1.01644 -1.42245 -8.53064 0.158766 0.469493 0.925901
4633 -0.117668 -0.00596495 -3.04921 3.8608 1.51769 -0.190896
215 -0.955025 -3.04089 -8.22911 -2.2692 -0.285643 -1.59309
220 -0.0246268 -2.085 -8.50187 2.01043 2.28368 1.04697
1758 2.36446 -8.41453 -0.0154464 -1.74998 -0.991453 -0.68949
595 -2.26864 -9.13144 -5.26247 -1.33178 -3.12432 -0.0539463
224 1.63058 -2.37717 -8.53969 -1.21379 0.65046 -0.212107
509 1.56451 -3.03893 -7.81338 0.250289 0.747218 -1.48303
506 0.757104 -2.22637 -7.76836 -0.844356 1.53883 -1.59837
901 4.68517 -9.02346 -4.71612 -1.50136 -1.45954 1.46681
228 3.11993 -2.18549 -8.44951 1.05951 -2.46617 -0.177769
513 3.10518 -3.07384 -7.80248 -0.698175 -1.68154 1.09371
510 2.34969 -2.23499 -7.75257 -2.40819 -0.514148 -2.90248
19 -2.30368 -9.23391 -8.43886 -1.07287 -1.06871 0.602041
232 4.70061 -2.34073 -8.49901 0.663369 -1.76156 0.409865
1469 1.54943 -9.14038 -1.58451 -0.576526 0.420089 -0.513177
307 -2.30612 -9.03194 -6.96395 -1.50136 1.35901 -0.570317
236 6.20672 -2.45394 -8.60653 -1.64936 -0.317318 0.974365
518 5.46281 -2.49283 -7.84699 0.0929091 -1.789 -0.67794
1473 2.96717 -9.14764 -1.55994 -1.10442 -0.802914 0.00812451
4927 2.29536 -0.0808136 -0.859402 -0.429401 -0.699166 0.788399
240 7.69269 -2.33565 -8.43489 -1.49573 -2.48854 -0.72902
293 -7.65107 -9.05307 -7.75281 1.35925 0.631543 0.115858
522 6.76319 -2.48299 -7.68641 -2.18092 0.203018 -0.919446
573 7.48711 -1.63338 -7.72879 1.23118 -2.68856 -1.33218
869 -7.62084 -9.20392 -4.64925 0.863318 0.322436 -1.50467
287 8.56352 -1.37587 -8.39907 3.42238 0.0116026 -1.14347
526 8.41737 -2.18827 -7.78605 -3.08289 -0.559426 0.680115
529 9.16417 -1.40797 -7.67965 1.08149 -0.0230513 0.420212
243 -8.42101 -1.57037 -8.39601 0.22218 -0.78478 -1.89394
244 -9.15496 -0.692169 -8.49462 -0.634731 3.2481 0.450379
530 -8.50165 -0.731298 -7.8167 1.74139 1.18691 1.96819
1893 -1.35966 -4.34039 -0.0564414 -0.0171008 0.160254 1.18016
248 -7.69054 -0.556546 -8.39283 1.28253 0.173961 -1.64963
534 -6.92088 -0.639157 -7.77989 -1.29491 -0.283503 -0.00525368
1953 3.00634 -3.15938 -0.113868 0.901641 0.821295 -2.91967
1157 -7.59961 -9.20907 -3.05855 -1.289 -0.933961 -1.13627
313 -0.131529 -9.11664 -7.69456 1.82023 1.94196 -1.19704
77 1.52371 -7.77751 -9.11451 -0.646791 -1.36686 0.283894
252 -6.43918 -0.786314 -8.56424 1.93497 0.714392 -1.14612
3477 -1.51568 -0.08303 -9.19822 0.652424 -1.28711 -1.50227
299 -5.50487 -9.1931 -7.08434 3.86099 -0.371515 -0.742951
255 -3.91669 -1.37155 -8.55695 -1.29889 0.773201 -0.912907
256 -4.68883 -0.521941 -8.59939 0.917908 -0.358658 -0.184369
542 -4.02075 -0.675828 -7.81953 1.51825 -1.63913 0.59427
53 -7.82052 -7.57575 -9.22047 -1.31177 0.403911 -0.0691208
1455 -3.47543 -9.13267 -0.677407 0.316151 -1.27716 0.897267
260 -3.12772 -0.599224 -8.5347 -1.57641 0.555611 1.28322
546 -2.51544 -0.869453 -7.66961 -0.455852 2.3782 0.744074
1809 3.06755 -7.70274 -0.0945151 3.74535 1.6432 2.31586
1185 3.02298 -9.21144 -2.95437 0.896072 0.255855 1.98634
4931 3.82835 -0.0487943 -0.804728 2.73142 -0.710978 -1.14535
137 6.11541 -6.05537 -9.12392 -0.236131 0.0294883 1.21582
264 -1.75411 -0.817107 -8.47954 1.25726 -1.35917 -2.24562
550 -0.74537 -0.869246 -7.69538 -1.73726 -1.0212 0.147117
1197 7.73127 -9.21398 -3.06559 1.4046 1.15762 1.7674
268 -0.0176204 -0.761852 -8.41713 0.841842 0.53648 0.935621
267 0.79971 -1.46364 -8.46862 0.481585 -0.20896 0.555005
272 1.51758 -0.722332 -8.58141 0.130677 -1.07123 0.200449
1813 4.50828 -7.76646 -0.0572045 0.0210543 -0.104449 0.206932
237 7.67704 -3.03649 -9.10934 0.46397 -0.636013 -0.132323
47 8.36141 -9.17984 -8.49074 3.40329 0.0446767 0.286134
4629 -1.4613 -0.125745 -3.0129 -1.90873 -1.08859 -4.1857
271 2.22225 -1.43441 -8.52578 -0.258398 0.593421 1.22703
276 3.17644 -0.752122 -8.30675 0.590426 -0.177775 -1.03429
275 3.93402 -1.39746 -8.41277 0.562902 -0.542732 -1.02105
280 4.64042 -0.634179 -8.38028 -3.8084 0.0375374 -1.83283
279 5.40275 -1.51331 -8.53763 -1.28626 0.121869 1.03535
284 6.13028 -0.904554 -8.43001 -0.582734 -0.682943 2.63346
1684 -9.08689 -0.844037 -0.84127 0.601759 0.708324 -0.738442
194 -8.66737 -2.38801 -9.13626 0.615787 0.152462 -1.2313
25 0.0219779 -9.14723 -9.00295 -1.59614 2.37718 1.37918
283 6.89807 -1.5772 -8.50687 2.23273 -2.17243 0.485159
288 7.78128 -0.74029 -8.41518 2.81147 -0.759138 0.523712
109 -4.6023 -6.22273 -9.17266 0.832093 1.92115 -1.20315
2014 8.37324 -0.814832 -0.263543 2.42326 -0.610953 0.448234
574 8.43669 -0.589965 -7.72142 -1.72888 0.445656 -0.67902
292 -9.12592 -8.70332 -6.9613 0.343075 0.128458 -1.09575
337 9.17496 -7.82269 -7.6677 -1.8608 0.767422 0.934033
339 -8.41878 -7.78336 -7.06893 -1.28888 0.658083 0.582522
625 -9.14366 -7.77968 -6.07836 -0.0896579 -1.49267 -1.60701
213 -1.60314 -2.97393 -9.14558 -0.559246 -1.81153 0.575169
294 -6.75478 -8.53135 -7.70794 0.260784 -0.485266 -0.112245
296 -7.51788 -8.61635 -6.82753 -0.195263 2.87358 -0.695765
582 -6.88628 -8.57862 -6.04719 2.67802 -0.114997 -1.8971
343 -6.89576 -7.6995 -6.78965 -0.120021 0.505101 2.46658
629 -7.70223 -7.80795 -6.2421 -1.00913 -0.659948 1.68479
298 -5.4636 -8.39314 -7.87867 1.45492 -0.970468 -0.0326387
300 -6.05063 -8.39828 -7.12794 -0.441854 -0.291122 -0.89877
138 6.86556 -5.49073 -9.18909 0.166735 1.33985 0.288618
302 -3.81808 -8.41926 -7.88024 2.0215 1.94126 -0.693282
4363 6.81914 -0.0167837 -3.75778 1.81618 -0.199389 2.00554
304 -4.53001 -8.40023 -6.78931 -0.110398 -2.03244 0.890391
349 -4.63168 -7.71112 -7.69015 1.12306 -0.989747 0.398711
1727 8.46037 -1.50653 -1.04537 -0.0868804 -1.00923 0.149431
308 -3.24542 -8.44013 -6.96052 -2.98832 0.763494 0.618429
355 -2.32355 -7.62031 -6.8775 -0.291954 -0.00962789 -0.921249
312 -1.49023 -8.36106 -6.93509 0.315061 -2.62291 -1.21668
359 -0.88477 -7.63797 -6.84605 -1.88239 -0.350732 0.847488
314 0.530651 -8.41161 -7.60107 0.200652 -2.75007 -1.52728
316 -0.0725275 -8.31433 -6.81147 1.96938 1.16122 1.35101
649 0.0887179 -7.76928 -6.01195 -0.00507797 0.145927 -1.21556
601 -0.164041 -9.12707 -6.09778 0.54578 -1.11812 -3.44255
365 1.55681 -7.76696 -7.71466 -0.462073 -1.22205 -2.58667
320 1.34787 -8.38586 -6.97282 2.3751 -0.356586 1.00451
363 0.739442 -7.55892 -7.01057 0.435459 0.309315 -0.496542
318 2.35688 -8.63686 -7.58589 0.364612 0.147229 -1.28231
324 3.01704 -8.44954 -6.93372 3.2036 -0.984715 -0.0943424
606 2.15426 -8.2879 -6.25802 0.552324 -2.83676 -0.206829
2009 6.1137 -1.73297 -0.0265084 -0.539837 -1.29842 0.66415
5229 7.65301 -0.102731 -0.318962 0.851986 1.61216 0.655484
322 3.98386 -8.39864 -7.78124 -0.688603 -0.721299 1.20879
328 4.57253 -8.57483 -6.92374 0.304172 -0.237121 -1.33552
373 4.67881 -7.67398 -7.58406 2.15973 0.170549 0.7711
1471 2.24443 -9.16729 -0.734872 3.78454 -1.09814 -2.61573
4609 -9.16288 -0.0365175 -2.98797 -0.176956 -1.05369 0.330331
332 6.07522 -8.28474 -6.94629 -0.396796 2.97287 -1.87287
375 5.33291 -7.54825 -6.72322 -0.733683 1.2153 -0.164847
2005 4.56372 -1.74709 -0.17126 -0.918696 -0.141619 -2.58273
221 1.45721 -2.98259 -9.18233 0.276457 0.674361 0.015087
336 7.86088 -8.47406 -6.82139 -0.0296725 -0.846053 -2.33159
379 6.90936 -7.54494 -6.77747 -1.2181 -0.464874 -0.905211
214 -0.924552 -2.251 -9.17884 0.865462 -1.13634 -2.92009
334 8.53007 -8.66988 -7.62797 0.642711 -0.515503 0.00767631
622 8.63321 -8.51954 -6.14159 3.4542 -0.223773 -1.21692
383 8.57622 -7.7942 -6.85139 -0.513993 -2.02693 0.675737
338 -8.29092 -6.75052 -7.75556 -2.9989 -1.78626 -3.0512
626 -8.48479 -6.92652 -6.18441 -2.46638 1.03127 2.7312
387 -8.33324 -6.07119 -6.94554 0.41472 -2.27976 0.800249
344 -7.80042 -6.89891 -6.92162 -0.333366 1.73213 -0.811415
389 -7.75966 -6.04008 -7.70207 0.655492 -0.74533 -0.426248
391 -7.04817 -6.21686 -6.81638 -0.753406 -0.166885 -1.08397
630 -7.06421 -6.74759 -6.07043 -0.803861 -1.52807 1.83381
677 -7.72605 -6.07287 -6.03869 2.29891 2.84212 -0.262523
346 -5.32193 -6.98802 -7.58663 -0.345842 2.26441 -1.34781
347 -5.20668 -7.80581 -6.92676 2.33946 -0.209299 -1.79745
348 -6.22064 -7.10031 -7.23985 -3.06882 -0.105783 -0.237092
393 -6.11735 -6.1119 -7.57239 1.54415 -0.650946 -1.8184
395 -5.33568 -6.17157 -6.94421 3.48353 0.758038 -0.102605
350 -3.79144 -6.85416 -7.71395 -0.868647 -2.02858 -0.710252
351 -3.91475 -7.6255 -6.97034 2.33653 -2.36376 -1.09468
352 -4.51569 -6.77135 -6.93924 2.27654 -0.6123 -1.57954
637 -4.68799 -7.50668 -6.15351 0.315611 -0.0422936 -0.54993
685 -4.54578 -5.99612 -6.10622 1.37885 0.509151 0.813646
354 -2.51265 -7.01662 -7.66531 -0.426805 0.383647 -0.212497
356 -3.11631 -6.98565 -6.82123 -0.426387 1.31389 1.50898
357 -1.66312 -7.66052 -7.60788 1.72383 0.486816 -3.52391
358 -0.882185 -6.96242 -7.64503 -1.27805 1.92376 1.63618
405 -1.47515 -6.23536 -7.61659 1.86276 -2.41768 -2.3462
360 -1.66126 -6.87931 -6.97487 1.02115 -0.0923129 -1.74837
364 0.019616 -6.96732 -6.74915 1.09021 0.411971 -1.3307
407 -0.797752 -6.09534 -7.00757 -0.235331 0.628051 -1.59289
362 0.81753 -7.07092 -7.82692 1.65932 -0.0760079 2.63534
368 1.5714 -6.8476 -7.07593 1.60074 2.15446 4.18197
411 0.627346 -6.16193 -6.91438 0.598529 0.449481 1.01331
701 1.50634 -6.19746 -6.25643 -1.32109 0.930198 0.410242
367 2.22753 -7.68888 -7.02423 1.10728 -0.0172707 2.26915
372 3.10816 -6.98991 -6.94924 2.3294 -1.34868 -0.379696
415 2.15404 -6.09249 -7.07185 -1.74578 0.34361 -1.51821
370 3.80459 -6.82642 -7.61497 2.22161 -0.49789 -0.336339
371 3.77271 -7.788 -7.04674 1.54366 -0.0654476 -1.53361
376 4.47423 -6.97134 -6.85186 -0.614758 4.58533 -0.147355
377 6.02911 -7.46731 -7.70592 -1.83825 0.776013 -0.0672556
380 6.23684 -6.93969 -6.76723 0.0544846 -2.27054 1.07059
423 5.3003 -6.28364 -6.74324 1.38598 0.113319 1.17285
662 5.49464 -6.88202 -5.90656 -0.116133 0.0296996 3.90383
665 6.32222 -7.47694 -5.97163 2.33168 1.04416 0.971042
666 6.99544 -6.87853 -5.99515 0.393805 -2.37922 -0.279944
384 7.85657 -6.91224 -6.6954 -1.45485 -0.955649 1.91931
427 7.00897 -6.241 -6.76865 -1.20801 -1.33611 0.668268
340 -9.07777 -6.85493 -6.99396 -0.459153 -0.518111 2.70719
431 8.56845 -6.02855 -6.82354 -0.347394 1.25611 -1.19106
385 -9.06612 -6.05928 -7.64119 1.40723 -0.705709 1.32968
386 -8.53527 -5.22898 -7.66554 -1.56962 0.1655 -0.719485
674 -8.5789 -5.29267 -6.14819 -0.947389 -0.250951 2.32694
392 -7.58379 -5.16093 -6.93894 2.92885 -1.04002 -0.226231
437 -7.65745 -4.42916 -7.65759 -0.683868 0.11335 -1.57243
678 -6.83437 -5.33527 -6.11552 1.79017 0.90466 2.02778
394 -5.37038 -5.31296 -7.71097 -0.234696 1.31328 -2.85002
396 -6.12343 -5.46779 -6.74041 1.32714 -0.0212043 -0.400863
443 -5.34673 -4.72715 -6.82832 0.126067 1.64821 0.924365
682 -5.39016 -5.46053 -6.00724 2.72383 1.06841 -0.425371
397 -4.61227 -6.15671 -7.65316 -0.0163044 0.324233 1.57803
399 -3.72123 -6.25142 -6.84399 0.452514 -1.95567 1.05091
400 -4.63982 -5.47481 -6.93344 -0.00447847 2.05548 1.32744
686 -3.73823 -5.46297 -6.12643 1.57663 -0.909154 -1.1874
401 -3.02152 -6.13204 -7.76034 -0.800824 1.44882 -1.69435
403 -2.35449 -6.21696 -6.8401 0.791661 0.849368 -0.245307
404 -3.11748 -5.41441 -6.86347 0.0395366 1.25021 0.342699
451 -2.35763 -4.70253 -7.14296 0.00419729 0.122778 1.6968
402 -2.26238 -5.43976 -7.83997 -0.183462 0.192071 0.887556
408 -1.56175 -5.3463 -7.06167 -0.108776 1.62057 1.37456
409 -0.0397615 -6.32013 -7.72434 -0.185282 2.28881 -1.28092
694 -0.866606 -5.33679 -6.24751 -4.59698 0.276293 -1.25462
412 -0.112306 -5.34072 -6.96694 -2.78709 -1.096 -1.76174
410 0.873086 -5.55112 -7.68928 2.1303 -0.587952 1.54116
745 -0.185165 -4.61629 -6.20722 -0.902782 1.94402 -0.0625848
416 1.48122 -5.35073 -7.00948 -1.013 1.16555 -2.06952
698 0.683804 -5.21793 -6.28043 -0.411747 -0.0470991 0.340721
420 3.05988 -5.18278 -7.07835 0.142866 -1.11821 1.74408
753 2.99777 -4.59919 -6.18185 2.26934 1.08761 -2.04849
702 2.16337 -5.30622 -6.2352 -1.5285 -0.134738 -0.0849511
418 3.73638 -5.38228 -7.60518 0.602829 2.18279 1.1976
419 3.9859 -6.12867 -6.82184 2.45609 -0.680905 -1.13401
424 4.60002 -5.38146 -6.7131 -1.25549 0.7853 1.73667
467 3.95171 -4.47946 -7.1237 -1.09081 -0.437857 -2.34735
425 6.11298 -6.09088 -7.47802 -0.759508 -0.0298232 1.30344
422 5.43826 -5.44805 -7.38635 0.316431 0.87375 0.764562
473 6.09936 -4.66468 -7.50162 0.440348 -1.91374 1.08115
428 6.40039 -5.36635 -6.66076 -2.905 2.07382 0.792632
432 7.6219 -5.54081 -7.13519 0.68353 3.82746 -1.80757
475 7.11498 -4.58539 -6.66925 -0.516391 1.49591 -2.08392
433 -9.17715 -4.49873 -7.64584 -3.0771 1.39558 2.56121
430 8.4528 -5.29777 -7.63448 0.217573 3.01988 1.43926
388 9.22434 -5.15669 -6.85265 1.21355 0.310807 0.284613
721 9.19447 -4.54316 -5.98344 0.135862 4.62984 -0.946198
435 -8.34501 -4.50044 -6.80991 -0.190447 -0.358854 0.291461
436 9.16796 -3.79799 -6.83757 -1.42138 -0.274416 -1.88474
483 -8.53396 -3.03684 -6.91273 2.2184 -0.044016 0.757193
439 -6.68794 -4.52747 -6.96648 0.539658 -3.46918 2.06862
438 -6.88656 -3.71604 -7.62689 1.81252 0.515935 -0.116982
440 -7.46738 -3.88522 -6.7937 0.0274399 0.387273 -0.951243
487 -6.84404 -3.01855 -6.98433 0.40158 1.87069 -1.17329
773 -7.89541 -3.09438 -6.17734 1.55079 1.84133 2.33572
485 -7.76788 -2.95626 -7.60164 0.876148 -1.45249 0.0882653
441 -6.17275 -4.41208 -7.80861 0.291876 2.04375 -0.451155
444 -5.96673 -3.59012 -7.0238 -1.09245 1.16275 2.03406
491 -5.34887 -2.84897 -7.02082 -2.43123 -0.118938 0.336014
729 -6.04223 -4.6245 -6.15564 0.515098 -2.49206 -0.876179
447 -3.8383 -4.74398 -6.92391 -2.48876 -1.67682 -1.06189
445 -4.59666 -4.6234 -7.72217 1.28632 -0.985197 -3.11381
448 -4.6732 -3.9297 -6.88496 -0.821437 0.412489 0.124773
733 -4.64223 -4.70841 -6.12413 -0.695289 -1.55959 -3.75071
450 -2.47025 -3.85984 -7.74687 0.112195 -0.924056 1.24079
452 -3.08067 -3.99228 -6.9794 -2.25004 0.286953 -2.69706
499 -2.38957 -2.99412 -6.89094 1.65786 0.985474 0.28722
785 -3.23784 -3.24105 -6.08889 -2.91315 0.586121 -0.870713
501 -1.70932 -3.11077 -7.57749 -1.21954 1.29754 -0.0121113
453 -1.66835 -4.52565 -7.84606 -0.671139 -0.801431 -0.341001
455 -0.802614 -4.49139 -6.92209 0.0766567 -1.31201 0.15072
456 -1.80358 -3.93511 -6.88458 0.643831 3.21453 -0.176046
503 -0.92212 -2.86157 -7.05643 1.73564 -3.32947 1.75574
454 -0.81262 -3.84181 -7.61792 -1.92396 -0.639104 1.29904
460 -0.0773891 -3.75935 -6.85752 0.593739 0.359616 -1.77056
459 0.755383 -4.64235 -7.14098 -1.76867 -2.94292 1.38617
464 1.50526 -3.91998 -6.89689 1.57828 -0.735285 1.10927
746 0.780241 -3.96593 -6.32368 -0.346569 -2.55902 -1.77628
462 2.35605 -3.81373 -7.63917 -1.93733 2.97169 -0.0204197
463 2.30329 -4.58198 -6.94835 -2.63662 -0.344175 -0.211519
468 3.1292 -3.93749 -7.00784 -0.63559 1.00038 -0.991195
511 2.12383 -3.07851 -6.94142 -0.168147 -0.45594 0.756419
750 2.20588 -3.71648 -6.11712 0.93466 -1.63728 -0.127327
801 3.03617 -3.13449 -6.29424 1.21656 0.244487 -0.822276
517 4.6059 -3.0003 -7.7721 0.369602 2.78169 -1.92632
472 4.87969 -3.7936 -7.01757 -0.0311449 -2.54856 -0.0395416
515 3.79757 -3.05422 -7.01779 -0.779151 1.14105 -1.29107
805 4.87491 -2.9348 -6.28809 1.67704 -1.72723 -0.418842
471 5.58564 -4.73946 -6.71367 -2.25575 0.272805 -0.910795
476 6.25394 -3.87979 -6.82597 -1.19411 0.980116 0.743002
519 5.68018 -3.04933 -6.96246 0.946326 0.414686 1.58
765 7.82507 -4.68615 -5.9569 -0.581801 -1.74285 0.716602
480 7.6132 -3.7293 -6.84543 -2.81408 -2.06263 1.18267
813 7.81412 -3.06016 -5.96255 0.209796 -1.09799 -0.489891
479 8.30937 -4.54316 -6.79488 0.190112 0.484496 1.80695
527 8.34085 -2.85804 -7.05643 0.676898 1.0932 3.20295
769 9.15502 -2.98085 -6.21509 -0.512187 0.41464 -0.506187
531 -8.46545 -1.35484 -6.77717 -0.578655 0.670434 1.61472
770 -8.32415 -2.2909 -5.98792 -0.907157 1.06294 0.738057
488 -7.60218 -2.28213 -6.7861 1.60855 0.882439 0.031563
774 -7.14782 -2.27117 -5.88756 -2.85746 -0.0301985 2.73237
492 -6.20851 -2.31451 -6.91751 0.174196 1.23609 -1.35489
778 -5.4346 -2.31628 -6.12109 -1.07156 1.15968 -2.81655
537 -6.12455 -1.52777 -7.67857 -0.215755 -1.78348 0.625995
539 -5.42974 -1.67512 -6.99081 -2.03236 1.00188 0.822885
495 -3.94494 -2.94292 -7.14105 0.233864 -2.24618 -0.63785
494 -4.06266 -2.1267 -7.81006 2.21265 1.43261 -2.78822
496 -4.67225 -2.30289 -6.76996 -0.467806 -0.753885 1.64068
543 -3.89753 -1.49402 -7.00269 3.20368 0.415276 1.10467
781 -4.54872 -3.13186 -6.21434 0.668918 1.1083 3.80261
500 -3.27236 -2.30413 -6.83882 -1.5017 1.61058 -0.587756
786 -2.2322 -2.33644 -6.09051 1.36677 -1.22975 0.77322
547 -2.57107 -1.56309 -6.89433 1.91861 0.00851207 1.75074
833 -3.19227 -1.55275 -6.21917 2.53802 -0.603179 -2.18278
504 -1.71255 -2.2293 -6.9377 -0.44485 -1.12876 0.234684
837 -1.73078 -1.55266 -6.14737 -0.223386 0.303068 1.30509
789 -1.59017 -3.12978 -6.19226 0.786567 -1.15134 3.25636
505 -0.0299843 -3.11291 -7.68559 2.11179 -1.89528 0.401432
502 -0.847669 -2.14345 -7.75377 -0.255189 0.347504 -1.57591
508 -0.122066 -2.34974 -7.05293 -1.73277 -0.295605 -0.933431
551 -0.981903 -1.52246 -6.82534 1.25614 -0.906872 1.08722
553 -0.131382 -1.55276 -7.73393 1.42681 -0.383662 -1.1305
507 0.734283 -2.96541 -6.83032 1.20241 1.69258 -1.23158
512 1.47517 -2.39124 -6.93343 -3.35052 -0.375662 -0.282615
516 3.07232 -2.22594 -6.86185 -1.71131 0.863462 -0.0307228
798 2.1979 -2.33358 -6.11064 -0.592272 -1.5341 -0.856134
559 2.28383 -1.74799 -6.89785 -0.346457 1.12432 -0.257638
514 3.85774 -2.1653 -7.73513 1.37986 1.66295 0.605751
520 4.62733 -2.27863 -7.05967 0.240149 0.627352 0.814758
802 3.87101 -2.38125 -6.24426 -0.141308 1.55184 0.0878053
809 6.2292 -2.99395 -6.08524 1.2062 -1.73538 0.213172
524 6.30913 -2.33611 -6.71738 -3.16332 1.41858 1.58283
567 5.53816 -1.71971 -7.16001 -0.367195 -0.425415 3.05058
806 5.44091 -2.15629 -6.12531 2.15605 0.713472 1.63172
857 5.98967 -1.36769 -6.20745 -0.733118 1.97136 0.144263
523 6.80393 -3.13937 -6.97358 1.89603 0.669445 0.880449
528 7.5791 -2.20052 -6.94464 1.46531 -1.32468 2.60935
861 7.69709 -1.53378 -6.07574 0.534283 -0.416861 0.121078