ITEM: TIMESTEP
53000
ITEM: NUMBER OF ATOMS
6912
ITEM: BOX BOUNDS pp pp pp
-9.2265715179435492e+00 9.2265715179435492e+00
-9.2265715179435492e+00 9.2265715179435492e+00
-9.2265715179435492e+00 9.2265715179435492e+00
ITEM: ATOMS id x y z vx vy vz
4 8.92421 -8.41303 -8.31239 0.487392 -2.49063 0.227744
337 9.06301 -7.65725 -7.60248 -0.24135 -0.242824 0.208124
290 -8.72031 -8.39545 -7.71696 0.268393 -1.00775 -1.83213
8 -7.85556 -8.36401 -8.44672 0.544508 -0.645981 -2.02155
294 -6.90433 -8.25289 -7.5584 0.296414 1.29917 0.495209
1197 7.73576 -9.19767 -3.11696 -0.980934 0.692889 0.230997
65 -3.00765 -7.72739 -8.97052 -1.59467 -1.32926 1.40138
12 -6.29549 -8.39569 -8.42069 -3.11383 0.813769 1.37893
298 -5.35251 -8.48158 -7.76084 -1.26673 -1.1483 0.57482
1814 5.24424 -6.97358 -0.0341132 1.35994 1.81013 -0.897907
273 3.00976 -1.48849 -9.11032 0.696286 -0.593643 0.296248
16 -4.43752 -8.57568 -8.41305 0.439447 -0.186267 1.04011
63 -3.82441 -7.66958 -8.36598 -0.675475 1.08561 0.242325
125 1.44121 -6.29885 -9.20572 0.463187 0.109167 0.176668
4925 1.56969 -0.114326 -1.57443 1.67148 1.48057 -0.580171
110 -3.9383 -5.39051 -9.03001 0.323997 1.56194 1.23767
20 -3.15835 -8.57609 -8.31074 1.61744 0.864378 0.724764
306 -2.35136 -8.58685 -7.59649 0.894321 -2.43237 -2.13616
1765 4.55629 -9.20746 -0.0914186 1.55651 -0.0994529 0.766992
165 -1.48368 -4.82352 -9.11294 -1.55291 -2.12192 -1.58817
24 -1.40711 -8.60492 -8.33964 3.07242 -2.55845 -2.4252
310 -0.626717 -8.58848 -7.45586 -2.26357 -0.0843237 -0.858572
4321 -9.01276 -0.26908 -4.6373 -1.99182 0.216853 -1.14003
28 0.0315903 -8.42821 -8.2143 -0.439687 -0.236998 0.747339
32 1.537 -8.45201 -8.37419 1.65422 0.753752 -3.56415
314 0.852163 -8.39218 -7.56302 -1.01444 1.42222 -0.6077
4357 4.60305 -0.075988 -4.53388 0.180073 -1.91917 0.588943
36 3.13882 -8.50089 -8.27904 -0.518268 1.66859 1.05645
318 2.25928 -8.40606 -7.55178 -0.90516 1.64178 2.45054
1726 8.28819 -0.935261 -1.54604 1.89356 1.73495 1.41741
174 2.17064 -3.74367 -9.19559 -0.182474 0.565129 -0.970237
40 4.75563 -8.43041 -8.41136 1.43193 0.382022 -2.35715
322 3.78473 -8.5171 -7.55575 -0.553262 0.138739 1.00019
1684 -9.08328 -0.808804 -0.713597 1.41049 1.48477 -0.429119
221 1.58296 -2.99148 -9.07516 -1.38629 -1.02455 -0.885543
66 -2.26251 -6.97372 -9.01015 0.590851 0.475101 -1.33321
44 6.05375 -8.54028 -8.65449 -1.60253 0.393152 0.977817
87 5.33676 -7.7641 -8.46555 1.57411 2.3619 -0.081477
4933 4.71121 -0.0508193 -1.52012 -1.16067 0.353402 0.750336
377 6.12332 -7.71585 -7.77498 0.268285 0.111667 -2.04163
129 2.99425 -5.95949 -9.07331 1.534 -0.714407 -0.30491
246 -6.90322 -0.913074 -9.07628 0.72622 -1.61177 0.317135
48 7.61234 -8.71761 -8.54111 -0.367383 -0.0650872 -0.635345
91 6.85165 -7.6705 -8.60852 1.45481 -1.72738 -0.133283
330 6.84403 -8.4896 -7.93032 0.397855 -0.693572 -0.463699
4625 -3.10788 -0.00804286 -2.99897 -0.176489 0.393887 -3.67379
95 8.34303 -7.60119 -8.66004 0.205685 -1.64137 -0.159462
334 8.38572 -8.40244 -7.54277 0.69787 2.59258 1.35983
51 -8.50306 -7.6036 -8.4138 0.214011 0.602742 0.169932
52 9.18428 -7.00944 -8.37843 1.76954 -0.622054 -1.02401
338 -8.40396 -6.92904 -7.62752 1.16394 0.135878 -0.0926154
185 6.22563 -4.57089 -9.20177 -1.54998 0.000924324 0.310204
55 -7.03528 -7.60823 -8.48715 0.388728 -0.866405 -3.25115
56 -7.75997 -6.95011 -8.33264 -3.07377 -1.91665 -0.472479
103 -6.91343 -6.20601 -8.20276 0.220545 -3.49828 -0.157248
341 -7.73708 -7.79087 -7.63064 -1.04065 1.31477 0.176296
389 -7.58472 -6.27457 -7.5836 -1.92467 1.30886 -0.681912
342 -6.95403 -7.13658 -7.59727 -2.33773 -0.290634 -1.14962
59 -5.56237 -7.68889 -8.46148 0.270038 0.994075 1.20129
60 -6.28518 -6.90373 -8.42846 -3.09647 1.03808 0.330759
1897 0.0952897 -4.63867 -0.0860205 -0.254405 0.72928 -0.105931
64 -4.72597 -6.99916 -8.50614 1.16135 -1.38588 2.65795
67 -2.29895 -7.88257 -8.25823 0.207929 0.104931 0.903032
68 -3.07311 -6.88916 -8.32196 -1.13491 -0.912208 1.11678
293 -7.81817 -9.1049 -7.53594 -1.99154 3.00418 0.00704436
72 -1.477 -6.91897 -8.25208 -0.101774 -3.55794 1.21946
357 -1.6416 -7.84192 -7.54728 1.07129 1.53836 0.669721
75 0.769488 -7.62134 -8.45613 -1.25509 0.868247 -0.787781
71 -0.62081 -7.67708 -8.26899 -1.54156 0.280678 1.06183
76 -0.0538415 -6.88421 -8.3533 -1.36627 -0.973429 -0.810936
362 0.689982 -7.02003 -7.63457 -1.01958 2.60017 1.9759
80 1.60979 -6.73802 -8.42008 0.150796 2.72907 0.368782
413 1.5291 -6.07969 -7.58742 -2.22384 1.17476 1.13823
79 2.35895 -7.61655 -8.25814 2.75808 -0.716406 -1.61219
369 3.09077 -7.74246 -7.49689 -2.07047 -0.950865 0.0366757
84 3.0916 -6.99394 -8.40232 -1.253 -1.89107 -1.54622
127 2.51011 -6.17692 -8.27209 -1.35503 1.38109 -0.735383
366 2.29029 -6.94174 -7.62588 -0.179537 -0.873475 2.08636
83 3.88196 -7.84951 -8.47021 0.258055 -0.481401 3.0493
88 4.71646 -6.82636 -8.27475 0.56812 1.82659 -0.193727
370 3.86336 -6.96108 -7.71082 -0.220861 -2.26128 0.194874
373 4.61581 -7.67571 -7.79581 -0.300844 -2.20773 0.734621
92 6.17538 -6.98021 -8.3836 0.495835 -0.456215 0.420828
135 5.51216 -5.99738 -8.46166 1.96437 -0.545957 -2.19974
96 7.53903 -6.88696 -8.49094 -2.0211 -0.733033 0.668055
378 7.01417 -6.9045 -7.69698 -1.48502 2.89747 -1.13774
381 7.44026 -7.75173 -7.80469 3.43433 -2.79146 0.124794
74 0.766234 -7.02526 -9.20504 -0.0816957 0.40991 -1.92646
382 8.26037 -7.07014 -7.84902 0.897575 2.23097 -0.539116
1902 2.29174 -3.85761 -0.0231979 -3.00591 0.322162 0.747371
99 -8.48639 -6.25097 -8.37219 3.69363 -1.56921 0.702168
386 -8.55522 -5.46034 -7.73804 1.55856 -1.25577 0.806658
147 -8.48359 -4.61654 -8.38782 -2.6274 -0.769061 -0.408959
100 9.20386 -5.29035 -8.53399 -1.04601 1.42529 -0.152745
433 -9.13242 -4.57063 -7.57521 0.400053 -3.2079 2.56896
61 -4.7734 -7.60418 -9.19394 1.9433 -0.363606 0.756973
104 -7.58516 -5.51578 -8.33785 -2.72097 -0.276101 -0.346888
151 -6.90568 -4.77822 -8.36192 0.802589 0.960206 0.842196
4619 -5.38055 -0.158679 -2.49244 1.38027 -0.938251 0.531784
107 -5.36324 -6.16099 -8.49289 -3.47381 0.932494 2.34152
108 -6.28889 -5.45359 -8.27754 1.90632 1.62639 -1.5242
155 -5.47019 -4.64675 -8.26975 -2.68793 0.913956 0.930841
33 2.96871 -9.14674 -9.18243 -0.338256 -0.678744 1.80107
111 -3.90734 -6.32277 -8.54118 -0.336008 -0.107043 1.54098
112 -4.78401 -5.32249 -8.40368 -1.77878 -2.4553 -2.81503
159 -3.98748 -4.57334 -8.37458 -0.675988 -1.05816 -0.550428
4617 -6.25926 -0.196589 -3.02792 -0.70413 -1.24038 0.547047
4629 -1.43828 -0.0805444 -3.01055 0.703448 -0.499905 -1.28861
115 -2.30714 -6.31499 -8.21629 0.218697 -0.700586 -1.19933
116 -3.16906 -5.59533 -8.32401 -0.397306 -2.65084 -0.995558
163 -2.25527 -4.64793 -8.43153 1.44933 0.634244 -1.34049
119 -0.605758 -6.13191 -8.37217 -1.70636 -0.301342 -0.599892
120 -1.70442 -5.46921 -8.24162 -1.36058 0.406692 -0.954285
123 0.829675 -6.09772 -8.44009 -1.58379 -0.377884 0.717609
124 0.0989904 -5.32299 -8.41671 1.01903 2.05285 -0.80965
410 0.566049 -5.26746 -7.57669 0.432016 -1.53605 1.53896
409 0.0796186 -6.15685 -7.53203 0.0581142 -2.87855 0.847911
457 -0.103647 -4.41735 -7.74358 -0.927183 0.258486 0.338649
128 1.4826 -5.33443 -8.27119 -1.81791 -0.590568 -0.132499
132 2.92699 -5.25483 -8.38918 0.929166 0.489129 2.40343
414 2.30815 -5.37255 -7.5561 0.961789 0.105698 -1.29097
311 -0.777306 -9.2213 -6.74376 -0.781552 -1.37204 -0.388082
131 3.79089 -6.24661 -8.27673 1.33212 -0.150494 0.368577
136 4.63544 -5.0956 -8.31392 -0.569822 0.972308 0.493156
179 3.78133 -4.60854 -8.27712 1.5637 -0.351857 -0.361829
418 3.82658 -5.30621 -7.62149 2.38756 1.28542 1.04046
146 -8.36291 -3.90303 -9.06748 1.23526 -0.126061 -1.39589
140 6.31266 -5.28328 -8.43612 0.7031 -1.31092 0.320714
183 5.45725 -4.55068 -8.32293 0.983562 -2.87939 -0.833108
250 -5.41225 -0.862352 -9.16718 1.77215 -0.359072 0.257049
139 6.95744 -6.05212 -8.42377 0.306123 0.350365 1.99134
144 7.73753 -5.36445 -8.45233 -1.68955 0.947507 -2.63218
187 7.0304 -4.6671 -8.5912 1.5003 -1.09208 -2.6743
426 7.01566 -5.47254 -7.62678 -0.378089 -1.35849 -0.455802
143 8.47202 -6.04268 -8.4293 2.23816 0.911156 -1.71597
191 8.48749 -4.70191 -8.50164 -0.429019 -3.02133 -0.150002
1477 4.55541 -9.12309 -1.50434 -1.17652 -1.77139 -2.02805
434 -8.45249 -3.83864 -7.81285 1.77768 -0.701486 -1.28037
195 -8.536 -3.10873 -8.60435 -0.121429 0.19822 2.60339
1997 1.51892 -1.5711 -0.111177 -2.68027 -1.01594 -2.84186
152 -7.59149 -3.89019 -8.36906 -1.36162 2.11227 0.798496
199 -7.00103 -3.07631 -8.59345 -0.114339 -0.378009 -0.0528462
437 -7.72641 -4.73431 -7.60826 1.31347 -0.651227 0.523887
438 -6.95473 -3.77864 -7.64133 2.03837 -0.0359076 1.1994
156 -6.27238 -3.8975 -8.26653 -1.34811 -0.349473 1.2157
203 -5.44006 -3.21273 -8.46822 -0.38615 1.83638 1.36084
489 -6.16833 -2.95363 -7.8351 -1.09076 1.63437 0.640568
160 -4.60602 -3.88235 -8.21598 -1.75143 -0.508857 -1.01845
446 -3.93603 -3.92657 -7.59569 -1.00228 0.742306 -0.228467
4929 3.09937 -0.0859718 -1.65451 -0.0100283 1.4361 0.761086
5201 -3.03249 -0.121519 -0.116003 0.722026 2.15186 -0.933237
164 -3.13235 -3.90533 -8.56685 -1.34241 -0.655998 0.490143
450 -2.45269 -3.82591 -7.7398 -1.46334 1.6093 0.63166
497 -3.14633 -3.10145 -7.80982 -1.2901 0.31853 1.2497
168 -1.61948 -3.90845 -8.70745 1.76182 1.39243 1.98247
167 -0.733547 -4.64387 -8.52593 2.62741 1.25214 0.682234
911 8.62855 -9.08801 -3.74682 -0.201047 0.0334122 1.79171
4079 8.63166 -0.0525238 -5.26324 0.878909 0.898958 -2.49806
205 -4.6292 -3.18749 -9.14498 -0.0372598 -1.99738 -0.22726
172 -0.0244254 -3.8607 -8.57042 1.17633 -0.851835 0.0252354
454 -0.847301 -3.82776 -7.76569 -0.767522 -1.08615 1.71345
270 2.30086 -0.656145 -9.18649 2.83924 0.431527 -1.6099
171 0.901223 -4.59434 -8.26652 -0.194457 1.55871 -2.72984
176 1.61226 -3.84752 -8.40303 -0.481592 0.751679 -1.19607
509 1.59656 -2.81142 -7.61654 -2.0234 0.861453 -1.80384
4361 6.19405 -0.155984 -4.60036 -1.7285 -2.49658 -0.679395
175 2.36904 -4.51004 -8.52744 -1.15514 -0.210377 1.83876
180 3.19028 -3.90041 -8.52984 3.17008 -2.16534 2.49545
223 2.33673 -2.89421 -8.47356 -1.70183 -0.876982 0.837568
86 5.44407 -6.89584 -9.05841 2.28353 -0.627426 2.26062
893 1.49037 -9.20742 -4.5429 2.4519 0.115859 -0.4986
184 4.62949 -3.83807 -8.31969 -1.69086 -2.50991 -1.51564
466 3.77048 -3.82572 -7.734 -1.20492 1.0557 0.608685
227 3.93374 -2.99942 -8.4309 1.62642 -0.133611 -1.03306
188 6.1519 -3.87762 -8.39328 1.80591 0.337868 0.916654
470 5.49182 -3.98382 -7.51551 -1.82348 -2.35736 1.17641
231 5.47395 -3.11907 -8.31554 -0.0452549 4.33294 -0.969189
521 6.17736 -3.12239 -7.64346 0.201943 -0.239695 0.132023
192 7.79226 -3.98599 -8.53968 0.749522 0.68373 -0.38464
235 6.92688 -3.10632 -8.49932 0.715644 0.260138 3.10878
148 9.10605 -3.75579 -8.37778 -2.55814 3.07992 0.713612
239 8.37368 -3.06914 -8.52912 0.701761 2.1542 -0.182863
478 8.47227 -3.91909 -7.54709 2.90933 1.64139 0.825613
196 9.1554 -2.41414 -8.6053 -0.33659 1.85144 -1.59445
482 -8.49606 -2.23025 -7.55555 2.81019 1.1133 0.284235
243 -8.56797 -1.65587 -8.47752 1.86395 -0.761923 -1.40674
200 -7.79717 -2.23308 -8.53998 -0.254038 0.707951 -0.322429
247 -6.93535 -1.58457 -8.30344 -0.303399 0.949291 0.988183
1937 -3.22102 -3.08979 -0.0288995 -0.836686 0.81388 -1.73033
237 7.76322 -3.01063 -9.21152 0.64618 -0.0723965 -2.45206
4655 8.64175 -0.306692 -2.27695 -1.18887 -0.560063 0.528628
1455 -3.79769 -9.21229 -0.821717 -0.23259 -0.205337 0.937088
204 -6.13595 -2.19536 -8.36633 2.72604 -1.19298 2.87283
490 -5.28934 -2.36577 -7.80068 -0.0622982 -1.04314 0.436991
4077 7.91151 -0.0249918 -6.22838 -2.8327 -0.829228 1.61245
207 -3.9407 -3.2411 -8.42645 -1.53706 -0.372945 -1.73432
208 -4.62231 -2.42529 -8.50854 -0.726784 -0.629297 1.97505
4915 -2.28571 -0.0526936 -0.806018 1.71781 2.82564 0.380974
493 -4.65765 -3.12365 -7.66693 -2.29072 1.60929 0.537905
4633 -0.114296 -0.0583456 -3.13867 -0.489333 -0.80244 2.18574
211 -2.37164 -3.09716 -8.59296 1.09506 0.0528383 -0.566849
4923 0.816213 -0.148029 -0.817419 1.71297 3.00293 -1.41325
212 -3.08789 -2.24284 -8.45365 3.79599 -1.79801 1.61006
1733 -7.80709 -9.20595 -0.108128 -1.01253 0.0830348 -0.598736
215 -0.697318 -3.13472 -8.5201 -1.47513 1.47256 -0.946593
216 -1.46082 -2.221 -8.61122 -0.569181 -1.23356 1.03287
220 -0.0423379 -2.33621 -8.61856 -0.97322 -0.923922 0.432184
907 7.02297 -9.18048 -3.76647 0.907218 1.26497 0.380262
177 3.11274 -4.74981 -9.21706 -0.235714 -0.886974 -0.503304
219 0.794243 -2.98243 -8.51773 1.37202 -2.78567 -0.0355051
224 1.56835 -2.24305 -8.3673 1.02076 1.27 3.97694
267 0.763689 -1.54337 -8.52018 1.01398 1.26832 0.780011
557 1.40689 -1.46534 -7.77243 0.707813 -1.20965 -0.92226
506 0.701991 -2.3681 -7.68999 -0.593091 -0.609763 3.35685
4327 -6.89806 -0.191775 -3.83727 -0.0169004 -0.625506 -0.724675
228 3.1449 -2.23275 -8.38043 0.705237 1.87679 0.0863239
271 2.1883 -1.49316 -8.51594 0.243578 0.812998 -2.26638
149 -7.67986 -4.66565 -9.03285 -1.09289 0.135125 -1.09316
232 4.63482 -2.22146 -8.35494 -1.15264 1.19378 -0.539149
275 3.77304 -1.2887 -8.54005 -2.21265 -1.32913 1.88379
565 4.50937 -1.32054 -7.94001 0.958823 -0.488994 -1.02969
1850 0.77471 -5.33718 -0.0465066 -1.49367 0.234578 -0.965197
1938 -2.51442 -2.18856 -0.0337617 -1.26965 0.534366 0.217348
1465 0.00986721 -9.21521 -1.4525 0.700298 -0.686727 3.43363
82 3.88482 -6.90786 -9.01975 -2.98237 0.0665518 -0.671967
236 5.95135 -2.32558 -8.53198 1.27386 3.28106 -0.438972
518 5.32013 -2.28282 -7.60223 -1.70585 1.01959 1.66145
279 5.40509 -1.55139 -8.36981 1.22626 1.30023 0.508401
277 4.69256 -1.46276 -9.11889 -2.63556 -1.91764 -1.84295
240 7.6502 -2.32366 -8.45261 1.57838 3.20061 -0.587383
283 6.85356 -1.72473 -8.42322 -1.29362 2.17634 -2.29921
3475 -2.48059 -0.10365 -8.59851 0.161947 -2.6228 -1.09124
287 8.50968 -1.59667 -8.43971 -2.40227 0.397699 1.88296
526 8.53586 -2.34657 -7.75371 -0.41648 -0.482145 -0.296386
481 9.18455 -3.05601 -7.63962 -2.67508 1.28971 -1.46993
197 -7.77125 -3.1755 -9.15926 0.213546 -0.638344 -2.16684
530 -8.48282 -0.700997 -7.6527 -0.711511 1.25737 2.07792
1926 -7.11738 -2.39475 -0.0572151 -1.24254 1.61649 1.87565
1485 7.62455 -9.2082 -1.62035 -0.508768 -0.189535 -0.838063
25 -0.0501392 -9.10972 -9.03894 -0.0749885 -2.13716 2.05651
1461 -1.52298 -9.17394 -1.42399 1.52255 1.57879 -0.328634
248 -7.79436 -0.786431 -8.36815 1.20259 0.655046 -2.32387
4641 3.14624 -0.00352294 -3.07142 0.385923 -1.49965 -2.21089
251 -5.3583 -1.62646 -8.38556 3.06537 -0.240352 -0.917727
150 -6.92337 -3.94796 -9.07464 0.807561 3.26735 0.641173
252 -6.15984 -0.808042 -8.4695 -1.11291 1.9974 1.63865
1193 6.23697 -9.14268 -3.03558 -0.322866 -1.15593 0.0888809
4335 -3.90645 -0.0343483 -3.82188 0.274887 0.133335 0.905083
255 -3.90885 -1.70131 -8.38522 0.179135 1.2411 4.39485
256 -4.63839 -0.78101 -8.41425 -2.63437 -0.0917583 -1.45276
542 -3.94504 -0.748759 -7.62782 0.622175 -1.29134 0.21164
130 3.87163 -5.6336 -9.01673 0.120682 1.49376 -0.721587
117 -1.46919 -6.17307 -9.05491 0.983361 -1.55914 -0.418263
259 -2.31674 -1.60563 -8.41288 -0.697688 1.10661 -1.01195
260 -3.26925 -1.10348 -8.39361 2.15984 -0.227951 0.445224
34 4.01794 -8.67368 -9.20239 0.983337 0.65477 -1.56807
611 3.85247 -9.22422 -5.1719 0.587218 -1.04565 1.43818
1727 8.59788 -1.58619 -0.790603 -1.12752 2.13666 0.685947
263 -0.702844 -1.46211 -8.68802 -2.19152 0.767267 -0.524551
264 -1.71597 -0.781671 -8.25743 -0.389257 0.41224 1.62117
1969 9.16027 -1.45836 -0.0735326 -1.30266 1.12089 1.42997
1169 -3.08938 -9.16127 -3.04744 -1.4446 1.94961 0.0776663
268 0.154967 -0.806356 -8.35217 0.227101 0.113924 -1.24911
1447 -7.02666 -9.11622 -0.741337 1.79947 -0.203159 -1.07623
50 -8.34642 -6.99734 -9.10702 -2.08014 -1.3554 -1.39045
1870 8.49221 -5.3314 -0.0530684 1.66104 0.291034 -1.73864
272 1.59668 -0.63697 -8.53895 -0.565068 0.532425 0.361601
276 2.98226 -0.567209 -8.53282 -0.0142878 1.26981 1.13664
178 3.89502 -3.79258 -9.09686 0.209442 0.267602 0.458091
229 4.68314 -3.16377 -9.04232 -0.71346 -0.914795 0.483441
301 -4.66558 -9.15378 -7.49945 1.18392 1.2497 0.787019
280 4.55957 -0.61858 -8.60797 -1.77953 0.901048 1.86061
1728 7.61316 -0.58545 -0.792552 0.0645181 0.676764 0.134211
621 7.62048 -9.15226 -6.37038 -1.86674 -0.797244 2.53145
1725 7.76886 -1.76069 -1.46067 1.48159 -1.52694 -1.34035
284 6.18258 -0.668531 -8.47106 0.217315 1.66283 2.94769
3761 -3.20421 -0.0751586 -7.60069 -0.215638 -2.48249 -1.34015
81 3.07311 -7.62837 -9.13447 -1.29914 0.134054 -0.525842
573 7.66805 -1.59109 -7.79746 1.84812 -0.949695 -2.50511
288 7.82856 -0.772854 -8.51449 1.58354 -0.328409 1.29951
105 -6.2329 -6.14998 -9.12763 0.495819 0.120146 1.39424
570 7.02953 -0.738187 -7.79182 0.32355 -0.987791 -0.517872
222 2.29413 -2.19012 -9.17891 -0.376052 -3.53391 -1.09686
1789 -4.54235 -7.83151 -0.0808947 1.149 -2.56991 0.920354
244 9.21796 -0.699081 -8.43985 1.28326 0.356258 -1.08431
578 -8.49204 -8.53186 -6.12891 -0.242028 -2.10037 -0.699265
292 -9.20278 -8.57417 -6.90569 -0.733453 2.33695 1.70665
339 -8.56156 -7.72128 -7.0189 -0.397029 1.51573 -0.577894
296 -7.77766 -8.37604 -6.82074 -0.325795 2.25102 -0.768961
582 -7.01566 -8.46051 -6.06615 -2.42463 0.452971 -1.27613
30 2.3921 -8.37979 -8.98947 -1.23186 -0.430814 1.23687
345 -6.09913 -7.65431 -7.68144 -2.21976 0.339906 3.54599
300 -6.17209 -8.47694 -6.771 2.31346 -0.741672 1.04675
347 -5.34454 -7.73646 -6.85734 -1.28899 0.196299 2.84329
633 -6.11148 -7.89065 -5.88333 -0.44863 0.526427 0.267427
586 -5.39493 -8.55832 -6.10957 0.558168 -1.70978 1.2436
297 -6.1396 -9.20119 -7.5849 -0.352474 3.41372 0.562871
35 4.02803 -9.20774 -8.32496 -2.0676 0.0561176 -3.74298
302 -3.79519 -8.50715 -7.62738 -1.13592 -1.47248 -1.01636
304 -4.61739 -8.38153 -6.8092 0.157133 -0.786453 0.899198
590 -3.89145 -8.51819 -5.91294 -2.7789 -2.43412 -2.59599
1901 1.47122 -4.61114 -0.0182476 1.12579 3.12958 0.11635
1954 3.7368 -2.36644 -0.179225 -2.47625 0.797672 -0.664837
308 -3.07838 -8.41333 -6.80414 2.8586 -1.12978 2.14632
594 -2.21671 -8.41449 -6.0788 -1.19714 -0.0545471 -3.04624
615 5.46303 -9.22546 -5.33374 1.83453 -0.440487 -0.0137255
78 2.33241 -6.84869 -9.06139 0.777906 -0.561159 0.445523
312 -1.4974 -8.47349 -6.75735 -2.0056 2.44106 -2.75764
645 -1.61619 -7.63436 -6.16762 -2.82819 1.08344 2.67567
359 -0.801002 -7.77051 -6.73228 -0.421388 -1.46261 2.37039
316 0.196502 -8.52461 -6.84619 -1.94264 -2.01294 -0.892556
361 -0.0203248 -7.77577 -7.43098 -0.891539 1.59861 1.56232
320 1.55938 -8.37446 -6.90744 0.335343 -0.880146 -0.0444685
363 0.87753 -7.60378 -6.85318 -1.48982 1.38066 -0.438734
606 2.12959 -8.53405 -6.04283 -0.399461 -1.8087 -1.51942
602 0.830531 -8.39688 -6.12761 -0.0391749 3.68226 -0.172325
1854 2.12319 -5.35956 -0.0643851 -0.295238 1.39245 0.608901
324 3.02664 -8.49753 -6.89826 -0.894074 -0.235593 -0.999294
657 3.04658 -7.94351 -6.09035 -1.93848 1.82695 0.167227
285 7.69622 -1.6804 -9.15319 0.349057 -0.621382 0.501607
4035 -8.48069 -0.0278785 -5.2806 0.643373 2.74034 -0.313361
328 4.86588 -8.35752 -6.97073 0.320878 -0.642489 1.9655
610 3.92903 -8.49767 -6.29461 -0.518066 -1.07799 3.08422
326 5.56865 -8.54546 -7.70985 0.447422 -0.370145 3.39392
332 6.27992 -8.41645 -6.9263 1.69283 0.00755445 -2.61101
375 5.53602 -7.70671 -6.89342 -0.368102 -2.75188 2.09592
4941 7.79879 -0.0795182 -1.68691 1.58003 0.178661 1.40523
336 7.49645 -8.47103 -7.10511 -0.0139308 0.350679 -0.44217
618 6.99781 -8.51365 -6.19478 -1.06023 -0.765781 -1.8619
669 7.7806 -7.84921 -6.11502 0.816731 -0.295594 2.81529
379 7.06705 -7.57673 -6.79941 -0.0877907 0.535416 -2.02637
383 8.36509 -7.76295 -6.85707 -0.127282 0.26731 -1.7337
622 8.50657 -8.47749 -6.21411 -0.93598 -0.14512 -0.930122
626 -8.49101 -7.06984 -6.26357 -1.53724 -1.40929 2.46948
340 -9.14211 -6.90252 -6.93966 1.1901 -1.31892 -2.3288
387 -8.40781 -6.37529 -6.84237 2.73847 1.07985 1.28071
673 -9.22778 -6.29826 -6.10392 -1.44639 -0.0680412 0.0417441
343 -6.78618 -7.81198 -6.68832 0.942452 -1.79057 -0.329911
344 -7.62256 -7.09197 -6.84781 -0.104133 -0.41221 0.286778
629 -7.8327 -7.72836 -6.16712 -0.426061 -0.201499 0.188118
630 -6.92922 -7.0644 -6.06357 1.25371 -0.157146 -0.825209
346 -5.40748 -6.92274 -7.86967 1.40087 1.86242 -2.37311
348 -5.96089 -6.95496 -6.86798 2.31061 -0.391048 0.00600442
634 -5.31187 -7.05508 -6.0867 -0.251855 0.0305242 -0.287484
349 -4.80902 -7.75745 -7.79604 1.66788 0.156651 -0.189927
351 -3.80646 -7.74062 -6.89835 1.10594 -2.21335 -0.0849527
350 -3.8909 -6.96172 -7.56682 0.526747 0.650217 0.0128556
352 -4.63832 -6.90429 -6.95651 0.170281 -0.574388 -2.12497
637 -4.68394 -7.7988 -6.04046 -1.06767 0.377945 -2.06127
685 -4.62204 -6.29732 -6.19323 -0.535172 0.626486 -0.877472
353 -3.14287 -7.77531 -7.67747 1.4043 2.00884 0.633369
355 -2.30118 -7.86388 -6.83138 -2.54799 1.05947 1.04222
356 -3.22659 -7.02627 -6.83527 -0.453427 -1.08606 -0.696923
354 -2.46173 -7.10767 -7.54249 3.70552 -2.12535 0.491375
403 -2.37436 -6.31003 -6.94092 2.6435 -0.674588 -2.07247
405 -1.29327 -6.22505 -7.70533 -1.99463 -0.758343 -1.35868
360 -1.4906 -6.99128 -6.95555 2.47979 1.5335 -1.83936
358 -0.598394 -6.98556 -7.53381 -0.117341 -0.453754 1.54334
646 -0.836836 -6.89038 -6.22559 0.361636 -3.29332 -0.969076
364 0.0218321 -6.86471 -6.78184 -0.797452 -1.88315 -0.507679
407 -0.75355 -6.11608 -6.89765 1.10128 2.42192 -2.60342
365 1.52445 -7.57177 -7.74984 -1.75908 -1.42014 -2.23315
368 1.57491 -6.9389 -7.0934 -0.484035 1.36979 -1.59062
367 2.25424 -7.73007 -6.79593 -2.7728 -1.66411 2.30428
415 2.30213 -6.19304 -6.87107 -0.0190755 -2.41753 -4.05303
372 3.02937 -7.09481 -6.72081 2.08328 0.803938 2.47503
421 4.63745 -6.08676 -7.7048 -0.229211 -1.95054 1.90075
371 3.94132 -7.58864 -6.97195 -1.84147 -0.000430434 2.88791
376 4.82086 -7.00526 -6.75328 -1.65965 0.233046 1.39136
658 3.92495 -6.93646 -6.07041 -0.537716 0.0147683 0.127671
709 4.48023 -6.14554 -6.10487 -0.170461 -0.0750971 -2.65374
419 3.96031 -6.41762 -6.95131 0.931815 -1.84092 0.039664
425 6.35335 -6.12467 -7.55106 0.209318 0.466585 -1.48097
374 5.40764 -6.81736 -7.5621 0.895527 0.230817 2.26697
380 6.26224 -6.96382 -6.83012 1.39298 0.00765585 2.94234
423 5.31626 -6.15168 -6.88511 -0.0639275 1.89206 2.25625
713 6.16034 -6.16951 -6.10057 1.77847 -1.59684 1.69492
429 7.77286 -6.14357 -7.6612 0.903323 -1.48412 -2.08784
427 7.0045 -6.1202 -6.77523 -2.21604 3.32729 -1.88212
384 7.73391 -6.93028 -6.97859 1.53957 1.47036 0.36524
717 7.65835 -6.14258 -6.08139 -0.26434 0.506802 -1.89939
670 8.26616 -6.86569 -6.10862 0.0491601 -0.0158071 0.380584
431 8.50742 -6.05099 -6.98762 1.36438 -2.63349 0.182231
385 9.17689 -6.16547 -7.72579 -0.658586 -0.107868 -1.07444
388 -9.13391 -5.36985 -6.99451 2.05111 -1.81968 0.541107
674 -8.49009 -5.59281 -6.11263 2.24377 0.983574 -0.0680265
390 -6.92166 -5.45275 -7.59951 1.35872 2.43894 -1.56753
391 -6.93192 -6.37588 -6.77224 -0.938246 1.97318 1.91779
392 -7.80904 -5.61408 -6.88569 0.0444027 1.46563 0.46352
677 -7.77379 -6.37565 -6.02626 1.21345 -0.874691 -0.85213
678 -7.10392 -5.64469 -6.05588 -0.945687 3.84188 -0.309115
394 -5.48105 -5.32575 -7.55532 0.694354 0.280066 1.12372
393 -6.19656 -6.24999 -7.5204 0.542169 0.503185 -0.745916
395 -5.33162 -6.10683 -6.93843 -2.63683 -0.135675 0.52178
396 -6.12752 -5.27468 -6.81511 -0.643399 -0.287046 -1.5824
397 -4.55194 -6.08478 -7.78283 -2.77884 0.0995731 0.0363429
398 -3.82589 -5.43573 -7.71164 -1.28571 2.1252 1.48721
399 -3.91984 -6.19352 -6.89162 0.656026 -0.181495 1.54563
400 -4.62704 -5.49634 -6.95909 -1.58765 -1.85758 -1.61916
401 -3.12707 -6.14376 -7.47291 -0.69559 -0.723521 0.203887
402 -2.41099 -5.30227 -7.38386 -0.194278 1.11974 1.67405
404 -3.16016 -5.26561 -6.88554 0.817822 -1.50782 0.714813
449 -3.09966 -4.60093 -7.738 2.51432 1.29141 -1.19315
451 -2.10321 -4.52349 -7.07141 1.39803 -0.83014 -2.56204
690 -2.28055 -5.19089 -6.32683 1.85335 1.32343 0.580842
453 -1.38384 -4.60611 -7.65527 -1.47734 -2.62362 -2.67571
408 -1.45209 -5.42845 -7.14429 -1.67174 1.11299 0.125626
406 -0.629122 -5.35366 -7.66947 2.10439 1.96101 -1.02148
412 0.0910099 -5.33994 -6.7133 2.13733 0.433914 -3.83134
459 0.653759 -4.53978 -6.94729 -1.05049 -1.26282 -1.37721
411 0.825122 -6.10625 -6.84812 0.51653 -1.73837 -2.13474
701 1.5351 -6.00444 -6.18033 0.299056 -0.630655 0.721984
416 1.59437 -5.24044 -6.95971 -0.698644 1.03161 -0.29127
698 0.869865 -5.20285 -6.15746 -0.566356 1.08944 2.53171
417 3.19629 -6.21862 -7.52195 0.930245 0.819657 0.741924
420 3.05937 -5.23446 -6.84871 0.890365 -2.46441 -0.415458
753 3.11836 -4.58802 -6.08338 1.71091 -0.974607 -1.5923
424 4.46513 -5.33219 -6.86518 -0.569906 0.954203 0.914347
467 3.79674 -4.64282 -6.79161 -1.26594 2.84362 -1.10722
473 6.24435 -4.6336 -7.57995 -1.84278 -1.8343 -1.49188
422 5.47811 -5.2903 -7.71286 -1.6975 -1.97546 -1.49355
428 6.18504 -5.39666 -6.84713 0.839289 -0.436279 -1.61453
710 5.37072 -5.42259 -6.0886 -1.90786 0.0611914 0.37374
471 5.40476 -4.6497 -6.86332 -0.637794 0.568287 -0.169517
475 7.13767 -4.65307 -6.97054 -2.70404 -2.94904 1.54591
432 7.69888 -5.51411 -6.9554 2.42241 2.62768 0.0789397
430 8.52926 -5.25256 -7.67611 -1.43293 -2.13823 0.534193
718 8.59875 -5.37119 -6.11648 0.119051 2.37391 -0.805588
721 -9.07564 -4.68736 -5.99365 0.814338 -1.56967 1.92816
435 -8.23372 -4.78702 -6.58251 0.603983 0.86296 -1.84141
722 -8.51052 -3.94622 -6.13238 -1.22176 -0.740217 -1.56176
439 -7.07327 -4.75321 -6.79778 -0.106174 0.949123 1.58031
440 -7.89079 -3.90463 -7.02485 1.85857 0.260402 0.78935
726 -6.86311 -3.72365 -6.18088 1.59874 0.628719 0.781492
773 -7.74597 -3.31529 -6.15111 -2.25033 -1.20078 -0.514567
441 -6.33221 -4.66964 -7.55576 0.625688 1.698 -1.00601
442 -5.42318 -3.87436 -7.62422 -1.71608 0.827988 2.09813
443 -5.6555 -4.40928 -6.79513 1.00692 1.32579 -0.977625
444 -6.17986 -3.51901 -6.96727 -0.683858 -1.68819 2.01515
491 -5.3526 -3.11299 -6.81607 0.984211 -1.46244 2.307
729 -6.48996 -4.72322 -5.9853 -2.6223 0.804072 2.34799
730 -5.53471 -3.88551 -6.02981 -1.25106 1.81651 2.20618
777 -6.1224 -2.97899 -6.06081 4.24295 1.23351 1.7641
445 -4.78356 -4.62963 -7.57693 -3.87368 -1.6805 -0.18203
447 -3.98413 -4.58574 -6.98382 -0.722092 0.122864 0.280394
448 -4.79129 -3.88892 -6.87287 -0.0227668 0.78095 1.50582
495 -3.79135 -3.15203 -6.67396 0.0402484 -0.0692102 1.88998
781 -4.83604 -3.23408 -6.06305 -2.09302 0.997921 1.20369
452 -3.11718 -3.90627 -6.9361 0.841895 0.981574 0.139331
737 -3.11002 -4.55013 -6.19889 0.0245514 0.860722 -0.658228
455 -0.720036 -4.70703 -6.90664 1.50325 0.0994921 -0.788951
456 -1.59562 -3.51962 -6.93835 0.751296 -0.456658 -3.90391
503 -0.738684 -2.96235 -6.96125 1.04814 0.169166 2.5387
742 -0.850031 -3.72757 -6.30314 -1.11793 -2.30227 0.78961
458 0.736582 -3.69084 -7.8242 -2.62792 -0.465247 -2.48633
460 -0.0137418 -3.68254 -6.81762 0.132337 -0.036552 -0.407129
461 1.58098 -4.31656 -7.53241 0.335704 -0.921683 -1.1821
464 1.69078 -3.55335 -6.96584 1.13148 1.95 2.78529
507 0.743222 -3.00134 -6.95787 -0.602159 -1.3779 -0.110564
465 3.02394 -4.68318 -7.65664 1.35917 -0.0321349 0.42053
462 2.46706 -3.76523 -7.76645 0.783101 -2.10077 0.206998
463 2.44175 -4.56914 -6.8856 0.474703 2.21552 -1.61276
468 3.14077 -3.75151 -6.91912 -0.983639 1.04065 0.269485
511 2.42182 -2.99819 -6.96374 0.375327 -1.0645 -1.21722
469 4.53946 -4.53157 -7.47346 1.85893 1.60177 -2.39729
757 4.62927 -4.71858 -6.12548 0.22757 -1.3381 -2.18188
472 4.7925 -3.91358 -6.76338 -1.53112 -1.40413 -0.811466
476 6.1435 -3.71473 -6.66105 1.67927 0.0619271 -0.115163
758 5.20909 -3.63379 -5.91913 0.0951873 0.0745519 1.22294
477 7.66784 -4.59228 -7.83087 1.01377 2.05494 -0.984139
474 6.97956 -3.88622 -7.62713 -1.45595 2.1404 -0.791585
480 7.73569 -3.83265 -6.88283 -0.59229 0.700697 -0.98475
436 -9.16926 -3.851 -6.86579 1.55193 1.69052 -3.00411
479 8.62477 -4.63388 -6.83618 1.82436 -1.50743 0.329555
766 8.56588 -3.97149 -6.1631 -0.686267 1.31817 0.824978
483 -8.53597 -3.05958 -6.93799 -2.53268 0.655107 -2.67083
486 -6.90604 -2.27968 -7.55316 1.57731 -0.989345 -0.431003
485 -7.76255 -3.01615 -7.76987 -1.33168 -0.329248 2.59435
487 -6.98678 -3.11466 -6.93213 -0.523572 1.17987 1.86481
488 -7.73861 -2.40436 -6.95868 -0.80415 -3.90244 -2.22863
774 -7.12528 -2.52005 -6.05121 0.717227 0.768401 0.317032
492 -6.32967 -2.25497 -6.73945 1.08676 -2.75786 -2.02366
539 -5.38394 -1.50612 -7.08617 0.278647 -1.24276 -1.03234
778 -5.44216 -2.26415 -6.25474 -0.167289 -0.764268 0.247769
494 -3.8433 -2.4304 -7.66335 0.197719 0.0421185 -0.626416
541 -4.61044 -1.55672 -7.72125 -0.368643 1.45973 0.50123
496 -4.72089 -2.36331 -6.90554 0.643304 -0.502682 -1.90176
498 -2.09525 -2.33238 -7.81347 0.0340683 -0.858376 -1.90201
545 -3.01729 -1.64497 -7.6085 -1.5585 -2.3963 1.26931
499 -2.35094 -3.00384 -7.18468 -0.932912 -0.704111 -0.287218
500 -3.13617 -2.46617 -6.95274 2.05933 0.754908 0.150474
501 -1.64293 -3.19215 -7.93463 2.17006 -1.03674 -4.19555
502 -0.901274 -2.27887 -7.76124 2.99725 0.323317 -3.75247
789 -1.43752 -2.91197 -6.24658 -3.10464 0.724818 0.234541
504 -1.41917 -2.19511 -6.83384 -0.870856 -0.0922534 0.703293
790 -0.719478 -2.26058 -6.07715 -1.80183 2.91551 0.0381289
505 -0.0462216 -3.04134 -7.83191 1.44471 1.27805 -0.172115
553 -0.000628274 -1.6199 -7.75728 2.30146 -2.18641 0.995688
508 -0.127957 -2.22648 -6.881 -1.33885 -0.316318 -1.46582
512 1.44578 -2.2636 -6.8105 -0.65204 -0.676868 -1.49038
555 0.716643 -1.47518 -6.92922 -1.23751 1.81432 -1.14248
513 3.08779 -3.02579 -7.68934 -2.4281 -2.00247 0.159165
510 2.31154 -2.09942 -7.59884 2.4507 0.338719 0.305082
516 2.99942 -2.12257 -6.88154 0.00448416 -1.01014 0.717798
559 2.17 -1.51941 -6.74254 -0.802969 -1.3527 0.061477
798 2.26268 -2.25509 -6.24157 0.89221 1.24687 -0.646778
517 4.5762 -3.04501 -7.63765 -1.78746 -1.25308 1.46429
515 3.83817 -3.03062 -6.96557 -2.8356 1.34952 -2.52317
514 3.81912 -2.14842 -7.66167 -0.169965 0.666775 -0.0229261
520 4.52996 -2.24813 -6.92647 1.87547 0.649612 -0.722597
569 6.20932 -1.45221 -7.65313 3.71827 1.96896 0.488751
519 5.398 -2.97274 -6.8087 0.338028 -0.255593 0.511587
524 6.00438 -2.15882 -6.93538 -1.60276 1.02824 -0.0571542
806 5.27982 -2.10128 -6.14385 0.432684 -3.23384 -2.95968
567 5.37683 -1.46947 -7.01231 -0.77825 0.114522 0.194039
525 7.76019 -3.21766 -7.79112 -0.79492 1.1629 1.64478
522 6.78677 -2.32638 -7.5096 -0.304491 0.133546 0.159972
523 6.87163 -3.04233 -6.77507 -2.00681 -0.722788 -1.50671