ITEM: TIMESTEP
131000
ITEM: NUMBER OF ATOMS
6912
ITEM: BOX BOUNDS pp pp pp
-9.2265715179435492e+00 9.2265715179435492e+00
-9.2265715179435492e+00 9.2265715179435492e+00
-9.2265715179435492e+00 9.2265715179435492e+00
ITEM: ATOMS id x y z vx vy vz
1481 6.2389 -9.21257 -1.74898 3.13872 1.38169 -0.925626
93 7.68495 -7.73522 -9.17127 -0.671873 -1.2842 0.480057
8 -7.61373 -8.27251 -8.34554 -0.71295 -2.13396 1.88742
869 -7.72555 -9.14824 -4.6215 0.469522 1.23936 -0.166686
3753 -6.1266 -0.0209888 -7.65966 -1.51731 1.72217 -0.541658
12 -6.13698 -8.36515 -8.42545 -0.711596 -1.68842 0.0545203
1445 -7.67485 -9.15497 -1.55044 1.57794 -0.282954 -3.27083
5213 1.37538 -0.00408165 -0.0179482 -0.93668 0.466051 -0.124717
16 -4.5416 -8.6109 -8.43994 -1.69398 -1.65152 -2.61385
302 -3.98858 -8.40368 -7.65293 0.375585 -0.537936 0.00546798
1765 4.72057 -9.15577 -0.0333723 -0.0843589 0.905774 3.70244
20 -3.06033 -8.49091 -8.02865 1.82417 1.12521 -1.48832
306 -2.14457 -8.43325 -7.438 0.185475 1.83393 -1.70755
353 -3.02518 -7.66672 -7.46282 -0.706128 1.27306 1.09683
907 6.94228 -9.18831 -3.81195 -0.732072 0.0341701 0.091417
24 -1.47132 -8.51411 -8.44866 1.31309 1.08765 1.89745
310 -0.808265 -8.53356 -7.70928 1.34792 3.48828 -2.1498
71 -0.6344 -7.69064 -8.51094 2.57756 2.27408 -1.75606
4057 -0.185684 -0.0170059 -6.05553 1.3362 0.221058 -3.77262
186 6.82025 -3.9887 -9.15506 -0.0250224 -1.65442 -0.259968
28 0.213435 -8.44709 -8.51064 0.868529 -0.800419 -1.73713
314 0.711887 -8.62866 -7.7411 -0.289691 -0.258927 -0.687461
361 0.00972272 -7.95862 -7.6502 -0.702114 1.65586 -0.607895
4073 6.27056 -0.0312306 -6.19072 -2.1847 -2.11449 -1.69377
4903 -6.84323 -0.0481106 -0.882596 0.892727 -2.55839 -1.9651
3485 1.4401 -0.0879251 -9.20706 -1.83526 -1.92713 -0.272204
32 1.20123 -8.23618 -8.48921 -1.07206 -0.0158669 -0.807692
36 2.87815 -8.2294 -8.38881 -2.3619 1.17793 -0.103881
369 3.1096 -7.70172 -7.47143 0.586805 0.348795 -2.22958
79 2.09808 -7.53709 -8.30909 2.60049 -2.03789 2.16949
1465 0.125081 -9.01615 -1.44831 0.658689 1.71621 2.22394
1825 9.22341 -6.05129 -0.0031455 1.46316 0.372944 0.679606
40 4.47022 -8.30646 -8.48432 1.41146 -1.22436 -3.48697
81 2.90068 -7.41217 -9.16321 -0.155783 1.19518 -1.8405
322 3.8416 -8.45644 -7.64101 0.617827 1.73705 -0.590921
373 4.50917 -7.73069 -7.59415 -3.65589 3.4051 3.54645
44 6.18622 -8.45056 -8.28901 0.0302642 -0.486361 1.03465
278 5.6142 -0.71974 -8.9082 -2.50706 -1.37525 -0.0929069
326 5.44543 -8.53396 -7.71663 2.38187 -2.48567 2.06919
4625 -3.05376 -0.050592 -3.04508 -0.0448784 0.124326 2.72949
48 7.76236 -8.63237 -8.53774 1.76394 3.701 -0.797074
330 7.09411 -8.50588 -7.7807 -0.797996 -2.41494 -0.69603
1945 0.0326979 -2.89237 -0.266987 1.69065 2.16395 0.65645
178 3.98485 -3.89673 -9.18073 -0.510362 -1.58862 -2.96398
3503 8.45439 -0.0603488 -8.51998 2.20937 -1.18496 -1.65062
4 9.20204 -8.64959 -8.59827 -0.698543 -0.445592 -0.358569
3499 6.8401 -0.0333708 -8.34944 -1.85122 -0.452325 3.69186
334 8.41188 -8.65101 -7.73377 0.75945 -0.492198 -0.951931
95 8.39797 -7.85327 -8.4673 3.12346 1.63027 -1.61048
1913 6.24017 -4.57837 -0.16176 1.39598 1.8206 2.85551
51 -8.54525 -7.84311 -8.41357 -1.30401 -0.685697 1.374
52 -9.16206 -7.1017 -8.50786 0.853913 -1.0235 -1.68728
338 -8.58486 -6.916 -7.6464 1.85601 2.53405 -0.609045
1959 4.64704 -3.12876 -0.0577688 1.37345 0.803853 -1.41402
55 -6.84466 -7.6397 -8.3555 0.964776 1.55839 1.01562
56 -7.80581 -7.1395 -8.50101 -1.4818 -0.813873 -0.579641
103 -6.80011 -6.2447 -8.40244 -0.0632279 -1.24928 2.02964
6 -6.92999 -8.24783 -9.1048 -0.5009 -1.3192 -3.70236
90 6.91739 -6.69311 -9.12087 -0.807491 0.187623 0.778903
335 8.4515 -9.14447 -6.90906 -3.67123 2.42735 0.118104
59 -5.22927 -7.62621 -8.37568 0.542167 -1.54818 0.965141
60 -6.04189 -6.94632 -8.33407 0.693049 1.83779 2.66753
107 -5.18568 -6.20509 -8.49875 0.194141 1.16021 2.34066
225 3.08811 -3.25887 -9.09924 2.2565 -0.815182 -2.38886
63 -3.65293 -7.87923 -8.61589 0.939323 -0.215066 2.33804
64 -4.52276 -6.99332 -8.51305 -0.221014 3.10637 -2.45805
350 -3.83952 -7.0698 -7.76072 -0.447759 1.50512 -0.537033
1918 8.4195 -3.98004 -0.0356212 -2.33467 -0.664328 0.307166
349 -4.53697 -7.64092 -7.55161 1.70222 -1.36053 0.29434
4919 -0.812092 -0.120456 -0.545662 -1.2741 0.0963627 -1.63255
67 -2.39176 -7.76579 -8.17628 -0.669229 0.745545 -1.36466
68 -2.94182 -6.9486 -8.35434 -0.697828 1.16228 1.67319
354 -2.04643 -7.04248 -7.51526 0.72908 1.05729 1.7878
110 -3.9625 -5.33329 -9.21653 2.05464 0.569967 -1.40691
1961 6.38725 -3.14384 -0.115657 1.52343 2.44908 3.20442
357 -1.35306 -7.654 -7.88883 0.0113785 -1.61915 -1.67339
115 -2.27548 -6.12129 -8.59741 -2.5506 -0.338959 -0.777034
72 -1.85679 -6.99601 -8.45469 -4.01321 -1.0337 1.86645
4899 -8.61672 -0.0581495 -0.789946 0.865011 -1.58181 0.0625604
76 -0.144358 -6.94308 -8.73632 0.259746 -1.34046 1.24355
75 0.629602 -7.41159 -8.24563 -1.4509 -3.07379 -0.612994
123 0.584528 -6.00997 -8.45401 1.57065 -2.10372 -0.141015
362 0.985762 -6.69091 -7.61989 0.69729 0.286362 -2.06707
80 1.37515 -6.8698 -8.53297 0.342837 0.602954 0.699656
84 2.9089 -6.94141 -8.26481 -2.41427 -0.549473 -2.15357
127 2.15602 -6.29164 -8.33934 -1.38419 -3.15561 2.52873
417 2.90686 -6.15337 -7.57889 -0.0794351 1.76622 -1.26832
1447 -6.9377 -9.14897 -0.73124 -0.152936 -2.50635 -1.52612
366 2.22318 -6.88763 -7.40939 2.55246 0.0312971 0.870866
1453 -4.60074 -9.1735 -1.4079 0.866807 -1.24945 1.70588
83 3.74651 -7.50845 -8.39176 0.872197 0.46486 -1.29718
88 4.52466 -6.82102 -8.4609 -0.273475 -1.72157 2.54167
131 3.67425 -6.14896 -8.31731 -3.04039 -2.39186 0.457411
370 3.82284 -6.81008 -7.39037 -1.11668 1.06518 -0.429009
87 5.26213 -7.69198 -8.36314 1.74783 -2.19426 0.153079
92 6.00246 -6.80392 -8.34144 1.60243 1.01404 0.0352293
377 5.97862 -7.54197 -7.58167 0.13888 1.12396 -2.04254
5 -7.58569 -8.99526 -9.17686 2.25561 -0.0604064 1.00031
91 6.91854 -7.51453 -8.63869 1.24369 -1.04027 1.34825
96 7.76963 -7.04981 -8.34524 2.86159 2.30521 -0.233562
378 7.03861 -7.15189 -7.81002 -2.76607 0.940017 1.07145
1809 3.02991 -7.52243 -0.0993635 -1.5822 -2.29724 3.35713
1862 5.19966 -5.10378 -0.0353696 1.32242 -3.63703 0.690129
382 8.67806 -6.91315 -7.61346 0.367694 1.51156 -0.740085
381 7.94109 -7.63531 -7.53346 0.470229 1.03337 0.291498
34 3.61219 -8.30903 -9.02371 -1.64286 -1.32847 -1.5464
99 -8.48531 -6.29803 -8.60501 -0.855988 -1.0019 0.122755
621 7.87096 -9.18886 -6.08962 0.115919 -1.87131 1.82773
104 -7.57955 -5.51779 -8.60201 2.10753 1.40907 -0.551429
262 -0.748157 -0.748142 -9.06387 -1.75235 -1.75152 -0.0964914
4652 6.16433 -0.040134 -1.45612 2.77611 0.338671 -0.747281
108 -6.02599 -5.31703 -8.35944 -1.72291 0.133765 1.19469
155 -5.24885 -4.61093 -8.5391 1.77132 1.58472 0.642361
1742 -3.84907 -8.51853 -0.0633723 -0.23511 2.6645 -1.14258
111 -3.68404 -6.23368 -8.35008 0.437961 1.08641 -0.624945
112 -4.51069 -5.38796 -8.46833 1.95181 1.36944 2.07025
159 -3.8837 -4.58371 -8.45315 1.62203 -0.867442 -0.307009
911 8.53053 -9.10268 -4.0666 0.322641 -0.459582 0.205557
116 -3.11085 -5.39326 -8.52704 1.18354 2.15759 1.76121
449 -3.0758 -4.67307 -7.91258 -0.377609 0.0512869 0.834405
85 4.30968 -7.60218 -9.19354 1.25949 -1.79646 0.498832
1898 0.67322 -3.69807 -0.159397 -1.26284 -0.720296 0.841259
119 -1.04584 -6.19752 -8.64442 0.282897 -1.63351 0.0275491
120 -1.62763 -5.37038 -8.74844 1.47233 2.78597 0.516525
167 -0.910367 -4.47864 -8.43453 -0.0828396 -1.4789 -1.14325
122 0.583666 -5.28155 -9.1032 -1.05565 -0.13205 -2.96967
124 -0.211871 -5.2233 -8.27422 -0.468182 1.30465 2.63084
3779 3.64957 -0.143713 -7.18162 0.214641 0.394727 0.161722
173 1.41272 -4.76611 -9.03037 0.689482 -1.94675 1.97097
128 1.5436 -5.42818 -8.20686 0.11492 2.78687 -1.0422
171 0.733346 -4.63036 -8.2693 2.02311 0.0528958 -0.0933146
286 8.68136 -0.957977 -9.15763 -1.61861 1.53222 -2.21054
1893 -1.46174 -4.52201 -0.0652281 -0.949784 4.00415 2.19887
132 2.88511 -5.46782 -8.40406 -1.5287 -0.540624 -0.231002
175 2.26972 -4.63027 -8.31326 0.651738 -0.972467 1.15429
465 3.00913 -4.64699 -7.66421 1.93308 0.116373 -1.57021
136 4.36858 -5.49094 -8.3863 0.668539 0.622392 0.393813
179 3.69592 -4.70835 -8.49112 -5.23258 2.05765 1.59519
421 4.47831 -6.13568 -7.6788 0.495021 -0.217107 0.705617
418 3.81995 -5.10309 -7.63222 0.676938 0.904295 -0.843475
135 5.22062 -6.1449 -8.56034 -0.594478 -3.30559 1.1232
140 6.07241 -5.8111 -8.52439 1.49279 -1.08157 -0.203212
422 5.24509 -5.53752 -7.70684 -0.0138598 -0.119089 0.140369
1451 -5.47952 -8.97185 -0.869755 0.590345 -0.412225 1.9568
3771 0.761777 0.00522204 -6.93321 -0.30213 2.7524 1.14195
139 6.92111 -6.24454 -8.12902 -0.291281 0.464494 -1.56363
144 7.62672 -5.44896 -8.22348 0.824799 0.977185 0.199353
143 8.48626 -6.22114 -8.43307 -1.77236 0.581381 1.44519
100 9.23771 -5.44716 -8.39723 1.81542 -4.33612 1.28344
385 -9.20905 -6.15665 -7.78937 -0.199229 -0.980306 0.881
609 2.92355 -9.16828 -6.12318 -1.81316 0.778504 -0.0164728
142 8.46692 -5.4154 -9.15373 3.19234 0.00895558 0.104265
146 -8.31541 -4.62404 -8.52261 -1.18916 0.578844 -3.01836
148 -9.18147 -3.8588 -8.39571 -1.48871 -0.799144 -1.035
150 -7.70489 -3.7694 -8.36613 1.72709 -0.332652 1.64378
152 -6.98521 -3.83476 -7.73743 -4.06233 -0.993717 -1.77053
151 -6.80638 -4.52934 -8.54047 2.49638 0.474123 -2.16996
3481 -0.102836 -0.0342297 -9.00207 -1.30722 -1.8215 -2.41031
4071 5.24796 -0.0114404 -5.44413 0.918078 -0.466143 -1.52181
1782 -6.81611 -6.83341 -0.138515 -2.08372 1.23568 -1.43571
438 -6.08178 -3.82346 -8.47312 0.708013 -1.48686 0.708658
442 -5.36487 -3.92448 -7.80408 0.760866 -3.02118 -1.08226
65 -2.85686 -7.76152 -9.12113 2.66936 -2.39983 2.53081
160 -4.5951 -3.88706 -8.64251 2.15061 0.116075 0.0626516
445 -4.61751 -4.47588 -7.62256 1.30114 2.95001 0.517595
3487 2.23759 -0.0431504 -8.46573 -0.501315 2.16567 1.41455
163 -2.22208 -4.54974 -8.54609 0.204188 1.49725 -0.0636587
164 -2.9693 -3.81433 -8.53884 -3.56908 -0.523938 -1.79307
211 -2.29258 -2.97465 -8.45141 -0.223542 -0.737684 -1.19296
1834 -5.48628 -5.34004 -0.190979 2.66959 -1.96301 -0.248674
1905 2.95457 -4.63945 -0.0363573 -1.14344 -3.13852 -0.603011
266 0.721542 -0.624802 -9.02928 1.33493 -0.393002 -0.618545
168 -1.54911 -3.83922 -8.37702 0.323111 2.64402 2.68938
215 -0.797912 -3.16159 -8.50217 1.65821 0.451812 1.81672
1926 -6.77415 -2.30633 -0.00268036 -3.46685 -1.64504 0.495587
172 0.0684824 -3.87611 -8.3493 -0.270558 -3.57172 2.2678
219 0.7969 -3.11658 -8.57321 -0.632314 -2.94472 0.491044
176 1.443 -3.82337 -8.48544 -3.30208 -1.64704 1.12151
509 1.33346 -3.12453 -7.77179 1.04281 1.55262 0.866845
180 3.0416 -3.78224 -8.31772 -1.23376 0.747465 -0.704037
223 2.23689 -3.18531 -8.4317 1.4574 -2.96646 -2.23155
905 6.07171 -9.19527 -4.64101 -1.50839 -0.729597 -1.83056
513 3.1036 -3.09578 -7.62189 -1.51198 -3.63079 -0.228863
469 4.76286 -4.70262 -7.88199 -1.10417 0.748848 -0.766232
184 4.53192 -3.8389 -8.23799 0.41856 -2.97321 1.90191
517 4.68283 -3.00567 -7.57263 -1.89941 -3.82828 1.16677
466 3.7948 -4.0239 -7.76998 -2.08347 -0.595612 -1.87555
1443 -8.48393 -9.15836 -0.944131 -2.28969 -0.719367 -2.63749
473 6.14528 -4.91441 -7.65822 -0.817995 0.615409 -1.67553
183 5.4986 -5.00235 -8.40381 -0.276521 -0.867555 -3.0788
188 6.2601 -4.12891 -8.29772 1.55975 0.264674 -1.13113
1169 -3.07873 -9.19795 -3.16351 1.78371 -0.845816 -0.643898
187 6.92593 -4.84646 -8.39293 -2.13313 0.944392 0.0640557
474 7.09571 -3.83348 -7.88523 -1.91044 0.303375 -1.10948
192 7.68397 -3.89098 -8.75929 -0.167111 3.60106 -2.00438
525 7.92438 -3.17783 -7.76375 -0.0625718 -0.5496 0.646874
3785 6.21342 -0.135211 -7.56664 -0.0868607 1.3645 -0.558456
191 8.53345 -4.42916 -8.37698 -1.81419 -1.75318 0.567423
195 -8.34969 -3.00461 -8.28282 -2.89325 -0.458494 -0.34491
200 -7.60717 -2.25105 -8.49628 3.6864 -1.90546 -1.79461
196 9.17055 -2.35932 -8.36342 -1.70085 3.95071 -0.283143
199 -6.95362 -3.1431 -8.47323 1.67405 1.28352 0.823382
485 -7.60978 -2.88439 -7.64898 1.37292 0.898015 -0.459069
247 -6.80063 -1.52109 -8.44404 1.8069 0.918763 -0.504447
214 -0.60999 -2.26413 -9.10868 -2.52695 -1.62729 2.01329
73 0.0772747 -7.83383 -9.23792 -1.64834 -0.505131 -1.68191
203 -5.27347 -3.14426 -8.61492 -2.18668 3.74844 0.403464
204 -6.04901 -2.55026 -8.57202 -1.16705 0.759148 0.321248
490 -5.30299 -2.49758 -7.7995 -1.09377 -0.124146 0.311521
489 -6.09348 -3.11038 -7.77604 -0.613193 3.32367 -3.62836
251 -5.25491 -1.50173 -8.43262 2.37488 -1.55145 1.0309
125 1.40901 -5.94641 -9.20289 0.297839 0.447184 -2.1558
1886 -3.77423 -3.96274 -0.0510725 2.7341 -3.76753 -2.66181
207 -3.8161 -2.97556 -8.41247 -3.34392 1.74247 -1.66417
208 -4.61688 -2.32198 -8.55654 -1.11301 -0.212308 -0.717754
255 -3.92446 -1.44857 -8.46955 -1.54438 1.92708 0.634953
69 -1.55754 -7.70583 -9.1755 0.415928 1.52143 -1.26987
212 -3.11018 -2.34195 -8.47346 0.166489 0.39073 -0.209609
259 -2.30473 -1.47055 -8.4835 0.969384 -1.163 -0.393475
545 -3.30749 -1.50143 -7.7391 1.67195 -0.256243 -2.02983
216 -1.4526 -2.30656 -8.47078 -2.16406 0.821075 0.462748
263 -0.728388 -1.55866 -8.33138 -1.10054 -1.49686 -2.86518
1762 3.97625 -8.54664 -0.059924 1.8839 4.6667 2.17577
220 0.142404 -2.23769 -8.27536 0.153609 -1.83835 0.482431
1195 7.02918 -9.19083 -2.48822 0.640799 0.771777 1.22119
189 7.66105 -4.76915 -9.07232 1.04961 -1.32328 0.777918
224 1.49541 -2.22808 -8.40121 -1.81259 -1.41463 -1.69991
267 0.731896 -1.57623 -8.47571 2.69577 1.85063 2.56854
3 -8.43811 -9.14935 -8.66375 -1.21223 0.900606 -0.737043
228 3.09674 -2.3436 -8.36888 3.5736 -0.259415 0.679954
510 2.43999 -2.35653 -7.68299 -1.02091 -2.16507 1.11693
561 3.00431 -1.45548 -7.6891 -2.40401 -1.52542 2.42671
227 3.78866 -3.09624 -8.38614 -0.525421 0.629948 0.438005
232 4.57531 -2.41141 -8.36252 0.190782 0.566653 -2.82686
275 3.83663 -1.5574 -8.43907 -0.943017 -1.80868 1.44423
514 3.76622 -2.26045 -7.64595 -3.50558 -2.485 -0.0883026
521 6.35418 -3.10407 -7.6174 1.30296 1.15809 3.12957
231 5.45527 -3.56371 -7.90968 -2.09637 -1.49866 0.738587
236 6.04053 -2.26567 -8.73707 0.0126949 1.6144 -0.936929
518 5.57793 -2.52799 -7.84488 0.505042 -0.867875 -0.923164
279 5.3181 -1.46345 -8.29021 1.04377 0.838964 -0.833773
277 4.71102 -1.4797 -9.11713 1.48278 1.13617 0.32764
235 6.91773 -2.95357 -8.54615 -0.807654 0.383242 1.26188
240 7.76353 -2.36685 -8.59709 -0.0982402 0.727025 -1.7523
522 7.13926 -2.39443 -7.73007 -0.300239 1.62143 1.64695
283 6.9697 -1.5839 -8.41246 0.263363 2.90189 -0.579489
102 -6.81693 -5.45989 -9.14613 -0.407291 -1.1158 -2.13702
1705 -0.136077 -1.59215 -1.57913 -2.83462 1.96449 2.31498
239 8.50129 -3.04161 -8.50224 -1.48948 -0.196 -0.674109
1455 -3.79464 -9.11953 -0.936337 0.0017583 3.15426 -0.654118
243 -8.37182 -1.67631 -8.22397 -1.14289 -1.1873 0.933662
244 -9.0664 -0.801688 -8.55539 -1.19812 -2.718 2.20219
3497 6.15841 -0.0507298 -9.12523 1.93925 -0.81374 -2.04305
101 -7.61171 -6.32368 -9.15274 -2.12462 0.834748 0.963746
248 -7.62271 -0.882327 -8.4531 0.0298077 -1.57453 2.77998
18 -2.59081 -8.61664 -8.89046 2.42389 -1.23555 0.241749
252 -6.18382 -0.736031 -8.411 1.39688 2.5561 2.44602
537 -5.98284 -1.49177 -7.72683 -0.219669 0.224499 0.342853
256 -4.56579 -0.630593 -8.55629 -2.85367 -0.495864 0.444006
542 -3.76804 -0.669962 -7.75746 -1.03811 1.90202 2.59866
242 -8.38023 -0.94271 -9.1948 1.30142 1.05171 0.862347
98 -8.46261 -5.44698 -9.04857 -0.380451 -1.09928 -0.913974
217 0.0133835 -3.02595 -9.10596 1.17237 2.19987 0.2368
141 7.72132 -6.15335 -9.13991 1.47041 0.624093 0.263156
260 -3.1553 -0.742935 -8.39505 -0.964372 -0.118245 1.03673
1734 -7.18388 -8.34268 -0.0439959 1.78154 2.67847 1.88672
546 -2.5345 -0.81375 -7.58698 -0.890462 -1.4945 -0.985502
264 -1.48123 -0.975783 -8.38756 -0.940669 1.25914 1.57782
3777 2.98514 -0.0623607 -7.85471 3.33111 0.579314 0.570599
174 2.13743 -3.93688 -9.16364 1.66758 1.03637 -0.337019
268 -0.00156847 -0.769818 -8.28498 0.69065 0.911615 0.857973
553 -0.0298136 -1.49866 -7.45245 -2.13618 -1.17793 -1.52107
550 -0.741046 -0.775192 -7.63777 0.257088 -0.0791466 1.70631
3463 -7.08463 -0.0326748 -8.52402 0.0461479 1.98106 -1.85488
1704 -1.66443 -0.846645 -0.733313 -2.43662 0.168141 1.15559
272 1.34809 -0.744833 -8.3243 0.653512 1.74138 -1.73444
271 2.25309 -1.50619 -8.38011 -1.25728 -2.35862 -1.21565
276 3.14964 -0.777715 -8.58885 -1.00659 0.242914 -2.64951
4905 -6.18707 -0.206959 -1.64005 -2.94445 -1.49544 -0.0339557
280 4.6218 -0.659638 -8.49735 1.51494 0.0107449 -0.46105
565 4.51272 -1.56163 -7.75292 0.316015 1.79967 -3.90526
1681 9.10551 -1.43087 -1.47282 -0.385604 -1.26904 -1.33034
569 6.20963 -1.79283 -7.70174 1.09226 -0.867885 -1.44157
284 6.22051 -0.858676 -8.14795 -1.79288 4.80176 -2.39053
566 5.47342 -0.786283 -7.63232 2.48079 1.46028 2.09076
1737 -6.13386 -9.15275 -0.0289278 1.22694 0.902847 1.69345
288 7.88776 -0.854132 -8.52119 3.02644 -0.547874 -1.66267
573 7.75329 -1.45723 -7.74341 -0.251535 -1.75609 3.17722
570 7.0365 -0.787047 -7.62015 1.01565 1.40504 -1.46468
1830 -7.04896 -5.49102 -0.0454425 -0.0908433 -0.419816 0.144062
4039 -7.02709 -0.124426 -5.4057 2.24022 0.905372 0.258551
287 8.56142 -1.56012 -8.38505 -0.152062 -3.01537 -0.787914
1153 9.13041 -9.12482 -3.10765 1.22275 -0.421722 0.499442
126 2.20445 -5.47492 -9.14599 0.341476 -0.770044 -1.97722
290 -8.40757 -8.54198 -7.70964 -0.588867 -1.64527 1.96964
578 -8.46677 -8.32763 -6.18236 -2.24767 2.43433 1.14767
4353 3.07916 -0.0238904 -4.63438 0.736137 0.302328 2.02827
296 -7.66252 -8.37423 -6.85582 -3.02065 0.523699 -1.78645
294 -6.88783 -8.30909 -7.61393 -0.635764 -0.22389 0.117286
341 -7.7658 -7.59158 -7.58656 0.541118 -2.66665 0.323016
343 -6.8616 -7.6427 -6.83682 0.436582 1.31224 -0.806787
298 -5.3222 -8.54381 -7.58696 2.89143 1.08374 1.80775
345 -6.03304 -7.77632 -7.62171 -2.13437 -2.51786 -2.84525
300 -6.14824 -8.38545 -6.90379 1.61728 3.20717 1.61274
347 -5.28167 -7.81112 -6.91439 -0.190187 2.6408 -1.50206
586 -5.39425 -8.55777 -6.13159 4.53358 3.02807 0.739893
54 -6.89018 -6.93737 -9.05902 -1.48973 -0.531867 0.846999
304 -4.44008 -8.54072 -6.80493 -1.6552 -0.326235 1.64035
590 -3.92283 -8.49633 -6.03511 0.562206 -0.444133 0.545968
308 -3.06805 -8.57826 -6.71334 2.43015 -2.10371 -2.02549
594 -2.316 -8.76534 -5.93152 0.996534 -0.43938 -0.331215
641 -3.07735 -7.83724 -6.01112 1.27966 0.0967969 -0.178228
355 -2.25317 -7.68199 -6.63906 1.04462 -1.18153 0.54798
3479 -0.984813 -0.101475 -8.35634 -1.53721 -2.03196 -1.02463
312 -1.39312 -8.10287 -6.90702 -1.48969 -2.32588 1.32635
1993 -0.155523 -1.56549 -0.167375 -0.391387 0.451331 -0.621912
359 -0.454972 -7.80892 -6.82313 1.11263 -2.04884 0.382985
316 0.146019 -8.70454 -6.91773 -0.420897 2.68759 -1.88804
365 1.25777 -7.67954 -7.61906 -1.54458 -2.02768 -0.0740338
320 1.20969 -8.56794 -6.9743 -1.62292 -2.48327 3.50756
653 1.38364 -7.76734 -6.16301 0.807026 1.12522 -2.47255
318 2.02428 -8.40905 -7.9362 0.386999 0.954472 0.644069
324 2.91343 -8.74606 -6.97445 -1.4242 -1.55562 0.0158594
367 2.14032 -7.89472 -7.10055 -0.432181 0.500322 -0.366642
3501 7.52753 -0.0398035 -9.08256 -2.42358 2.68949 1.89643
4651 7.00104 -0.0879506 -2.14127 -0.869431 1.9693 -0.550442
328 4.58591 -8.58691 -6.97869 0.332774 -0.634072 -0.00518321
371 3.82289 -7.70684 -6.91462 -0.834715 -0.638028 -0.191821
610 3.7458 -8.59467 -6.36198 2.67086 0.866148 -0.64026
332 6.27632 -8.50232 -6.95503 1.73264 -1.4887 -2.73423
375 5.45067 -7.74472 -6.81458 -0.435443 -0.733568 1.51141
614 5.50581 -8.44465 -6.25892 -0.421261 -0.248109 -0.317333
867 -8.51609 -9.17688 -3.67954 -0.300475 0.284239 2.95046
1833 -6.20019 -6.13072 -0.193943 0.156936 -0.23262 -0.772694
1449 -6.24273 -8.98846 -1.45318 -2.55805 -0.945828 2.28409
336 7.70483 -8.39389 -6.81866 1.49361 2.68133 -1.84716
618 6.857 -8.35481 -6.13328 -0.453062 0.201671 1.16979
337 9.17527 -8.00134 -7.88738 -1.96077 -1.39847 -2.02434
4913 -3.202 -0.07505 -1.53851 1.88983 -1.34143 -0.0482456
292 -9.18736 -8.57017 -7.06681 2.12502 -3.28635 -0.67993
4935 5.36969 -0.133765 -0.698852 -1.79711 -0.729934 -0.107874
629 -7.75545 -7.55124 -6.31454 2.75033 -0.177171 -1.91703
339 -8.57914 -7.77203 -7.05804 -3.17038 1.16263 -1.45362
626 -8.29603 -6.78032 -6.13666 0.452601 -0.402829 2.05631
342 -6.87255 -7.04725 -7.59095 0.0432601 0.0863126 1.08366
344 -7.64992 -6.56753 -6.7705 1.79815 -2.16884 -0.282124
346 -5.21517 -6.93799 -7.72194 0.609885 2.67899 0.302505
348 -5.99509 -6.91232 -7.03959 0.954075 4.6451 -0.912304
351 -3.66097 -7.79365 -6.89702 0.214664 1.27197 -0.425844
352 -4.52726 -6.99093 -6.85919 0.467981 -1.25917 -2.23662
638 -3.81778 -6.97149 -5.94389 1.46587 1.11667 -0.346944
399 -3.75551 -6.29853 -6.87628 -0.450112 -0.575113 1.05008
356 -2.98793 -6.8499 -6.86303 -0.175552 3.25158 -1.2243
403 -2.12009 -6.06623 -6.86235 1.03966 -0.372042 1.88999
405 -1.42146 -6.3109 -7.68676 1.65776 2.97719 -0.0342161
360 -1.26649 -6.95772 -6.93875 2.25296 2.32828 -2.18198
407 -0.858415 -6.16554 -6.77103 -2.806 -0.410385 1.21604
358 -0.605531 -6.9696 -7.81118 1.66421 0.0162556 0.865952
364 0.00382288 -6.77234 -7.06593 2.84344 3.21159 -1.51675
697 -0.0883348 -6.01207 -6.10726 -1.03196 0.0220143 0.851089
649 -0.0214992 -7.78969 -5.89463 -0.583604 -2.76005 1.00747
413 1.71779 -6.07275 -7.39033 -0.14629 0.369942 3.6588
363 0.62123 -7.61707 -6.85074 -1.38594 1.69106 0.890725
411 0.777509 -6.00663 -6.72002 -1.48633 0.368207 -0.0139789
368 1.49125 -6.81573 -6.69852 0.841329 0.552309 -1.20854
701 1.67152 -6.16139 -5.96122 -0.0755651 2.05792 -0.97348
650 0.782516 -6.8416 -6.11648 1.07719 -1.15799 -0.293386
372 3.08974 -6.92025 -6.66643 -0.942722 0.192687 1.48118
415 2.48493 -6.18896 -6.64328 1.58848 -2.55345 -0.101847
654 2.18854 -7.28773 -6.32729 0.580826 -0.416873 -1.53939
376 4.68785 -7.14298 -6.81287 0.701044 1.31138 2.34552
419 3.99895 -5.94297 -6.90915 -1.76201 1.30545 -0.700722
374 5.2439 -6.93737 -7.74227 -0.952171 0.648253 1.43021
380 6.06557 -6.88357 -6.87014 1.30605 1.14967 -0.962438
423 5.32858 -6.2871 -6.95394 0.579991 0.141013 -0.512868
665 6.2067 -7.58814 -6.08736 0.000156112 -1.91754 -0.598106
669 7.77971 -7.64848 -6.0909 -0.0954923 3.41297 -0.868126
379 7.00594 -7.69156 -7.05685 0.779014 -0.250086 0.288281
384 7.82749 -6.82736 -6.76243 0.0779912 -1.61277 -1.35802
383 8.64279 -7.69429 -6.79937 2.91728 -0.475387 -3.3423
340 -9.05692 -6.82669 -6.84248 -3.12578 -0.983492 -2.08007
670 8.67853 -6.63337 -6.058 -1.80411 -1.03158 -0.564356
433 -8.92203 -4.46808 -7.73847 0.315396 0.828819 -0.1903
387 -8.47693 -5.99413 -6.86607 2.65039 -2.65752 -0.217412
386 -8.39881 -5.32206 -7.63236 -2.88268 -0.564285 0.26765
389 -7.74531 -6.32097 -7.72367 -0.268687 2.26042 2.28112
390 -6.9915 -5.57615 -7.73512 0.0622166 -0.599255 -3.80271
391 -6.89257 -6.12105 -7.00623 2.01504 0.748964 -2.46784
392 -7.66488 -5.43737 -6.83857 -0.96795 2.13193 1.143
393 -6.07391 -6.12922 -7.70974 0.438234 -0.425412 0.864026
394 -5.37966 -5.34464 -7.69465 -1.37505 2.70137 -1.08533
681 -6.20848 -6.35976 -6.23171 -0.36673 -0.485002 -3.11818
395 -5.15272 -6.13527 -6.91874 -2.89076 3.59875 0.111699
396 -6.26246 -5.23814 -6.91123 -0.660067 -0.41142 0.32434
443 -5.49624 -4.67167 -7.01476 -0.216849 -1.26997 -0.437346
397 -4.48229 -6.30185 -7.753 -1.14029 2.5988 -0.173742
398 -3.86388 -5.34249 -7.85471 -1.23623 0.107831 1.62329
400 -4.54182 -5.38764 -7.1103 0.16683 0.00695564 -0.259821
686 -3.75498 -5.36858 -6.19574 1.55714 -0.701089 1.11251
401 -3.06958 -6.22674 -7.63637 2.29013 0.0295453 -1.54894
402 -2.09915 -5.51861 -7.69847 0.212491 -0.506775 2.16044
404 -2.96172 -5.46813 -7.07759 1.31683 -0.368822 -0.0817632
451 -2.43909 -4.67085 -6.99247 -2.44344 0.167262 2.50849
406 -1.11125 -5.37994 -7.82086 0.546691 -1.24445 2.63193
408 -1.47489 -5.25984 -6.85692 0.795066 -0.438027 3.00362
455 -0.881257 -4.49629 -6.88148 2.3757 -0.244967 2.2208
453 -1.68098 -4.53713 -7.63841 0.397869 -1.53816 0.720877
409 -0.0563968 -6.09426 -7.77821 0.474433 -2.36967 -0.472952
412 -0.423556 -5.42004 -7.06665 -1.17149 1.04025 -3.61706
457 -0.142407 -4.55697 -7.54124 -0.507762 0.425314 -1.06305
410 0.61773 -5.43242 -7.61142 -0.645666 -0.502116 -0.821523
461 1.38541 -4.60363 -7.71113 1.31967 -1.6886 1.67512
416 1.4297 -5.29961 -6.7797 3.08568 -2.24195 1.44251
749 1.64839 -4.51081 -6.14239 -0.39108 -0.834924 1.03006
698 0.682613 -5.17981 -6.04472 -0.331919 -0.995911 -0.264853
414 2.133 -5.22724 -7.46181 1.78304 1.24747 -2.93693
420 3.11634 -5.3469 -6.83573 -4.8884 1.74885 -4.63202
702 2.27309 -5.31903 -6.17275 0.819799 -0.915914 0.940457
463 2.34992 -4.48847 -6.81694 1.31839 -0.0678057 0.49436
753 3.08349 -4.56095 -6.22412 -0.389157 1.05457 0.178233
424 4.70533 -5.29171 -6.83809 -0.997734 0.257621 1.83456
706 3.91699 -5.20898 -6.15754 -0.306189 1.9414 -0.301584
467 3.88084 -4.53562 -6.80798 0.394028 -0.15733 -2.26898
425 6.04581 -6.03455 -7.53404 -1.52479 1.59753 -0.0784529
428 5.9239 -5.38341 -6.83242 -1.83179 0.11216 -1.9533
761 6.12111 -4.6805 -6.1507 2.1093 -1.16861 0.888097
710 5.33657 -5.23663 -5.96339 0.253717 -0.109425 1.50733
429 7.8319 -6.27772 -7.60413 0.0223715 -0.691634 -0.0401755
427 6.92462 -6.56097 -7.09192 -3.25683 1.34694 -1.08211
426 6.82253 -5.53556 -7.28785 -1.71717 1.36443 -1.64535
432 7.74946 -5.49834 -6.79774 -0.09524 0.872307 -0.171238
714 6.82714 -5.50887 -6.22347 -2.50261 2.26101 -2.38045
431 8.58184 -6.07915 -6.98118 1.27593 -3.17576 2.33093
430 8.50069 -5.26587 -7.73748 0.123717 -0.133075 -3.03582
388 -9.1138 -5.19105 -6.93595 -4.80236 -1.75333 0.62854
721 -9.09957 -4.56009 -6.10047 -0.384097 0.0422093 -0.587446
434 -8.27126 -3.75271 -7.63505 1.20534 -1.35295 -0.885065
481 9.18453 -3.22414 -7.69731 0.000604027 0.54398 -2.33933
435 -8.10791 -4.55958 -6.97903 2.92885 -3.3767 -2.22941
436 -9.15389 -3.99827 -6.93324 -0.498835 -1.54942 -0.0132052
483 -8.5007 -3.25096 -6.8803 1.49503 -2.00392 2.46094
437 -7.56752 -4.71171 -7.84136 -1.32349 2.58655 0.593644
439 -6.98141 -4.60124 -6.73186 1.9619 -0.944304 -0.633024
725 -7.64473 -4.68313 -6.03922 1.0556 -0.269267 0.672869
440 -7.55361 -3.68314 -6.84765 -0.20919 0.849537 -0.442163
441 -6.33674 -4.58981 -7.64815 2.58745 -1.47725 0.556328
444 -6.12232 -3.70446 -7.0305 1.89216 3.14096 0.601842
730 -5.343 -3.86613 -6.07401 1.59717 -1.22442 -1.26588
729 -6.10036 -4.5818 -6.17105 1.58715 -3.59567 1.50458
493 -4.54065 -3.19823 -7.71417 1.8368 -0.429264 3.82473
447 -3.75109 -4.63756 -7.03247 2.40018 -0.46302 1.14545
446 -3.78388 -3.86731 -7.83998 -3.07411 0.114092 3.40091
448 -4.65262 -3.70626 -6.90576 -2.79958 1.43274 4.20406
495 -3.95394 -2.93887 -6.92954 -1.40709 0.906486 -0.130144
497 -3.02159 -3.11495 -7.79795 -1.62485 0.00126986 1.95709
452 -3.06358 -3.8064 -6.9623 0.16928 0.733108 -2.56865
499 -2.37678 -2.99652 -7.04637 -1.52657 0.163302 -0.108391
450 -2.40787 -3.83847 -7.72104 -1.80368 1.25809 1.29024
456 -1.5232 -3.75641 -7.02771 -1.27319 1.71129 -1.7488
501 -1.54608 -3.0812 -7.74958 -2.26489 2.66325 -3.01666
503 -0.921743 -2.97256 -6.91919 0.494995 0.543004 4.94199
505 0.246585 -3.08431 -7.66198 -0.214122 3.0977 -1.77112
459 0.588517 -4.66012 -6.89524 0.626236 1.33859 0.857758
454 -0.722333 -3.64007 -7.69677 -1.65421 0.19546 0.392014
460 -0.0339574 -3.60853 -6.91728 1.03109 1.14699 0.103944
458 0.791302 -3.98666 -7.58048 2.68042 -1.40066 -0.154029
464 1.43793 -3.91952 -6.8749 0.425685 0.224105 -0.830071
507 0.872475 -3.04632 -6.90693 1.43327 1.94838 1.02654
746 0.837458 -3.97968 -6.13377 1.00539 0.537287 1.3438
797 1.5469 -3.06726 -6.13391 1.42175 0.2132 -0.212653
462 2.24752 -3.88704 -7.71837 1.29634 -1.08358 -1.45146
468 3.11231 -3.89122 -7.01397 -0.535678 0.867643 -1.21035
750 2.41514 -3.864 -6.06016 0.374979 0.409294 0.887337
511 2.20852 -3.1663 -6.86624 -2.11199 0.0321859 -1.39539
472 4.65166 -3.95996 -7.12174 0.350059 -0.82237 -0.33587
515 3.93024 -3.21715 -7.10891 -0.873734 -1.55991 -1.48188
754 3.989 -3.68903 -6.32874 1.78878 1.32768 1.13167
471 5.48134 -4.51121 -6.87616 -1.87868 -1.68461 0.522686
470 6.19255 -4.04645 -7.31831 -0.477355 -1.70506 -3.85513
476 6.42351 -3.58243 -6.59552 -1.95277 -0.199735 -1.63006
758 5.61849 -3.73156 -6.02379 0.426548 1.43225 -0.691015
519 5.53188 -3.19915 -6.94628 -0.444901 2.04742 0.501713
477 7.62963 -4.54823 -7.65063 -0.461018 0.336527 2.9445
475 6.82199 -4.62342 -6.88913 -0.607581 0.671662 2.10821
480 7.57789 -3.79273 -6.79801 -0.545664 -1.2512 3.41692
762 6.99448 -4.04166 -5.98461 0.0179941 -2.05844 0.285578
478 8.48979 -3.96094 -7.51125 1.94158 -0.0618165 0.985874
479 8.35816 -4.48554 -6.63378 -0.328662 -0.325942 -0.0010423
482 -8.49914 -2.38867 -7.50052 2.29321 3.71184 -0.908981
531 -8.4574 -1.35997 -6.76711 -2.00064 -0.812739 -0.463433
488 -7.65653 -2.41425 -6.84719 0.717892 0.847183 0.176438
533 -7.58587 -1.68131 -7.62401 -2.15716 -1.05951 3.86102
487 -6.85184 -3.11768 -6.93705 0.14327 -0.349076 -1.41481
486 -6.75258 -2.27657 -7.82418 -1.23744 -1.52968 2.21032
535 -6.84029 -1.49174 -6.83041 -3.11831 -0.18615 1.23434
491 -5.37064 -3.11717 -6.99333 -1.0891 -2.34641 0.77792
492 -6.00918 -2.25471 -7.11017 -3.43741 -0.703244 1.16157
778 -5.41067 -2.19171 -6.20848 -2.63801 -3.85212 1.33193
539 -5.28637 -1.37204 -6.88905 0.375582 -0.540883 -0.771026
541 -4.59103 -1.39465 -7.61042 0.711625 -0.7478 -0.436133
494 -4.09561 -2.25504 -7.76236 -1.28773 -1.84613 1.0101
496 -4.71883 -2.32008 -7.00736 0.861824 0.652392 -0.158009
543 -3.90661 -1.67751 -6.82599 -3.62965 0.0707893 2.86126
498 -2.44757 -2.11254 -7.74637 -2.46469 1.30729 1.68411
500 -3.09867 -2.34068 -7.06593 0.482313 1.31718 -2.26514
504 -1.51631 -2.30446 -6.96927 0.238828 1.44927 1.4926
502 -0.792223 -2.38718 -7.7635 1.03741 0.0335195 -0.977905
508 0.0112048 -2.47344 -6.78278 0.922589 0.517032 1.22206
506 0.833725 -2.27769 -7.64862 -1.49805 -0.142943 0.1925
512 1.61838 -2.30652 -7.13826 0.728112 -1.21932 0.0850736
557 1.53945 -1.53319 -7.66463 -1.75754 0.830667 2.09255
845 1.46163 -1.52533 -6.22348 0.43821 -2.39165 0.360086
516 3.07832 -2.34749 -6.90843 -0.321315 2.47117 2.99203
559 2.30657 -1.60299 -6.95159 -0.589454 0.0512156 1.33561
798 2.34686 -2.37116 -6.02991 0.0256898 1.7098 1.2507
801 3.16159 -3.13687 -6.35164 -2.36192 -1.11078 0.667336
849 3.00951 -1.62329 -6.34569 -0.46396 -1.44562 0.209047
520 4.92302 -2.21132 -7.08628 1.8884 0.93962 -2.44042
563 3.78503 -1.61783 -7.01433 -3.39898 -0.158726 -1.78462