ITEM: TIMESTEP
41000
ITEM: NUMBER OF ATOMS
6912
ITEM: BOX BOUNDS pp pp pp
-9.2265715179435492e+00 9.2265715179435492e+00
-9.2265715179435492e+00 9.2265715179435492e+00
-9.2265715179435492e+00 9.2265715179435492e+00
ITEM: ATOMS id x y z vx vy vz
290 -8.29138 -8.42256 -7.72285 3.92185 -0.159337 0.00473997
51 -8.47526 -7.55346 -8.59972 -0.0921606 2.25043 -0.33507
130 3.75059 -5.31511 -9.05838 -0.396142 -0.894158 0.431972
8 -7.57741 -8.24792 -8.52641 1.34901 1.17968 0.772274
55 -6.77091 -7.56083 -8.5277 0.866674 -2.46085 -1.62539
226 3.79219 -2.23679 -9.21267 -3.92047 0.0530958 -0.779095
12 -6.26518 -8.38311 -8.66807 -0.463363 2.81979 -0.722453
14 -3.85591 -8.37919 -9.17152 -0.88644 -0.00938839 -0.42987
4051 -2.34226 -0.00667343 -5.28071 1.21784 -0.995231 0.367576
16 -4.63378 -8.36724 -8.53065 -0.213918 -0.120398 -1.05743
1729 9.06807 -9.19351 -0.12732 -1.48116 1.77961 -0.76446
61 -4.57744 -7.72924 -9.16173 -0.962566 2.68636 -0.344088
233 6.24817 -3.21919 -9.11801 -2.37308 -0.281799 -0.0515645
20 -3.06277 -8.7079 -8.56606 1.39871 -1.03368 1.63112
329 6.15525 -9.05278 -7.66554 -0.129136 0.747076 -1.0278
24 -1.48393 -8.54018 -8.31019 -0.0265027 1.01194 0.00667456
357 -1.47246 -7.75135 -7.57657 -2.31895 -0.15975 -1.90156
71 -0.777841 -7.76196 -8.47798 -0.0903829 0.936683 0.241875
907 6.88557 -9.19555 -3.97691 0.603053 -0.361685 0.377722
4655 8.43811 -0.0951642 -2.22484 0.883941 -2.36729 0.830579
28 0.133368 -8.37651 -8.3895 -1.91708 1.00007 -2.00551
4635 0.764345 -0.0569752 -2.33673 -0.430007 -1.96226 -1.60244
32 1.64418 -8.51054 -8.52534 -0.644013 -2.34255 -0.964942
75 0.770858 -7.70697 -8.50943 -1.15165 0.60035 -2.34293
3495 5.48803 -0.0514106 -8.55424 0.366666 2.46651 -1.29862
365 1.52388 -7.65421 -7.60852 -0.257226 2.38525 -0.104992
4941 7.65239 -0.0251324 -1.3852 1.3142 1.05052 -0.459885
18 -2.17059 -8.4646 -9.04563 -2.82918 0.366794 0.0589293
36 3.15221 -8.7086 -8.50785 1.72143 0.853133 0.216226
318 2.38106 -8.41131 -7.95652 2.00015 -0.791691 -3.54149
4357 4.65698 -0.0813543 -4.52246 -2.99901 -1.64074 -1.16217
4647 5.62502 -0.112337 -2.37714 0.572509 -0.264934 1.13701
40 4.49287 -8.41682 -8.44017 -2.80269 -0.239207 -1.64061
322 3.88247 -8.47366 -7.54771 -0.0939025 0.121946 3.19798
1750 -0.887161 -8.39755 -0.0533227 -1.2202 -1.9849 -0.162288
597 -1.30908 -9.07354 -6.26538 2.21911 -1.97583 2.76323
373 4.55706 -7.71018 -7.56542 -1.01814 -0.853247 0.790002
44 6.18268 -8.47522 -8.43255 -1.0648 0.638318 -2.92249
87 5.33066 -7.69951 -8.65393 -0.347636 -1.27632 0.0803835
326 5.43914 -8.45245 -7.65726 1.15279 4.00264 1.90662
3477 -1.56799 -0.0198251 -8.99435 0.595723 -1.42132 -1.54034
48 7.78397 -8.43011 -8.49645 0.917337 -2.41336 0.864656
91 7.02075 -7.63567 -8.54795 1.23761 1.4671 -0.571198
583 -6.97575 -9.11659 -5.27214 0.0931893 1.62257 -0.951787
3781 4.7388 -0.140098 -7.82044 1.65521 -0.723755 1.348
4 -9.10362 -8.34768 -8.55204 -0.419765 -3.09025 1.77678
95 8.47409 -7.6124 -8.4817 2.86676 -1.58911 1.84722
52 -9.25205 -6.69278 -8.43507 -1.41211 -0.188918 -1.16381
867 -8.36939 -9.07751 -3.90679 -2.26737 0.133972 -1.93457
99 -8.41264 -5.97029 -8.5266 -2.01715 0.0262488 -0.81158
250 -5.60316 -0.724511 -9.0496 0.832099 -0.834299 -0.869531
56 -7.79072 -6.85662 -8.60236 1.33399 1.34865 0.447752
103 -6.93554 -6.37407 -8.4665 1.1693 0.230286 -0.316518
4907 -5.53053 -0.0593545 -0.860976 0.076694 -1.29688 -0.403803
59 -5.29703 -7.56297 -8.56983 -0.234505 -0.848722 -2.20593
60 -6.02438 -6.80016 -8.56663 -0.0398012 -0.594574 -1.11078
107 -5.2638 -5.98185 -8.51288 -1.76534 -2.47784 0.0576308
4927 2.3048 -0.243442 -0.885346 0.380287 -0.107731 -0.332631
63 -3.91241 -7.63309 -8.40709 -0.372411 0.074319 0.711016
64 -4.56915 -6.93582 -8.31046 -1.68571 -0.429131 -0.535217
349 -4.65455 -7.66801 -7.67507 1.42389 -1.88467 0.120259
397 -4.60049 -6.08554 -7.80924 -0.917926 -0.325405 -1.46748
3775 2.42209 -0.0181408 -6.88296 -1.13996 -0.59381 -1.71481
68 -3.11121 -6.82749 -8.3665 0.666894 3.78169 -0.266449
67 -2.17164 -7.83188 -8.35534 -1.31721 -0.0433366 -0.752657
4067 3.83088 -0.164046 -5.29277 -2.05867 1.10422 0.716375
72 -1.5619 -6.93008 -8.3827 -1.26558 -0.491962 0.127717
119 -0.709298 -6.25089 -8.30721 -3.69275 1.08848 -1.40063
358 -0.908309 -6.95263 -7.58243 -2.40545 0.94424 0.276373
361 -0.0988784 -7.44864 -7.74822 0.00695178 -0.159459 1.59406
76 0.12125 -6.86 -8.55065 -1.42943 -1.93771 0.198771
362 0.759614 -6.92415 -7.65496 -0.647736 -1.1084 3.61443
409 0.260431 -5.96952 -7.8169 -0.574135 0.22675 -1.36266
123 0.717899 -6.08872 -8.61426 -1.3421 1.2016 1.62692
80 1.40635 -6.89728 -8.39641 0.794877 -0.579189 0.0725294
413 1.38381 -6.12042 -7.8337 0.358274 0.882853 0.0544632
79 2.15103 -7.61844 -8.47759 -1.36736 -0.494141 0.745051
84 3.17864 -6.84679 -8.33426 -0.471 -0.64885 -0.310153
369 2.94982 -7.58686 -7.6931 1.21312 0.989813 -1.87531
127 2.24652 -5.98325 -8.51069 2.08963 -1.28627 -1.2539
366 2.15786 -6.90819 -7.75957 -0.347973 1.62351 1.02928
885 -1.48654 -9.09359 -4.56177 0.829372 -0.126618 1.15792
83 3.75795 -7.75275 -8.5652 -0.137804 0.010685 2.04851
88 4.48328 -6.98585 -8.40122 -0.386913 -0.905908 -0.670544
131 3.89299 -6.092 -8.46524 1.46086 1.53108 2.00746
92 6.05826 -6.7166 -8.41139 -3.44805 -1.03768 -1.60615
135 5.28591 -6.11198 -8.36201 -1.49885 0.54581 2.34154
374 5.26952 -6.95359 -7.75852 3.10955 -1.25139 0.779963
425 5.93666 -6.15622 -7.58803 -0.389047 1.07004 -1.19589
96 7.77341 -6.91382 -8.52345 -1.17726 -0.697398 -2.94445
139 6.96187 -5.98962 -8.69048 -1.90789 -0.267809 -1.75323
381 7.7048 -7.59247 -7.74704 1.09929 -0.00474906 -1.92503
378 6.92188 -6.73128 -7.9055 1.93882 1.50617 0.636677
1165 -4.55728 -9.18535 -2.96181 1.55173 -2.36448 1.81454
143 8.34831 -5.979 -8.48512 -1.4638 -2.62177 0.0202395
100 9.11952 -5.35002 -8.36931 -1.0477 0.665179 -1.3321
147 -8.61357 -4.74398 -8.50677 0.120736 -0.00463743 -1.12182
230 5.22982 -2.34002 -9.16014 -2.39145 0.934317 1.71396
178 3.7437 -3.9776 -9.22812 0.653641 -0.45468 -0.689847
104 -7.6808 -5.31044 -8.46743 -1.87365 0.701454 -1.48496
151 -6.78499 -4.71355 -8.41835 -0.447514 -0.657915 0.0138881
587 -5.41142 -9.05962 -5.41078 0.135785 -0.750292 -1.85766
4627 -2.37839 -0.0714094 -2.35817 2.06113 -1.22877 -1.81165
4365 7.68672 -0.0646605 -4.70337 -1.0703 1.34233 1.18222
108 -6.10281 -5.45521 -8.4917 -0.840664 1.45802 0.528901
4619 -5.49484 -0.0615218 -2.18399 1.35096 -0.28348 -0.122194
111 -3.83714 -6.07427 -8.55258 -3.01788 -0.25712 0.47443
112 -4.47883 -5.32552 -8.58299 0.263083 -4.98937 3.96029
4347 0.743441 -0.0195819 -3.78104 1.4415 0.89504 -0.868718
115 -2.2696 -6.20345 -8.52693 -3.87251 -2.18229 -0.0872909
116 -3.05918 -5.27883 -8.55268 -2.5464 -1.34447 -2.0462
401 -3.11751 -6.11923 -7.74344 1.06314 0.733145 0.673319
120 -1.45621 -5.42712 -8.38264 0.851598 -0.21278 2.57311
167 -0.821428 -4.59492 -8.32888 -1.12711 -0.138879 -0.223945
185 6.1482 -4.34855 -9.01967 -1.38911 -0.937099 -4.0979
124 -0.0332316 -5.31633 -8.49156 0.310781 -1.27263 0.25207
171 0.680438 -4.50854 -8.37976 1.99949 -0.714728 -0.989789
77 1.42341 -7.70546 -9.1961 -3.86649 -0.144712 0.343531
128 1.38046 -5.33398 -8.59105 -1.98137 0.350452 0.290839
4933 4.68927 -0.0806658 -1.67232 0.870888 1.74063 -0.305723
1163 -5.30701 -9.07442 -2.18993 -0.816046 1.11034 -1.41016
905 6.2327 -9.12714 -4.8178 -1.46862 0.0423202 -0.382093
903 5.47364 -9.19131 -3.76127 1.55305 -0.399759 0.123543
132 2.94114 -5.2287 -8.40748 0.337039 1.25317 1.39356
417 2.80496 -6.1104 -7.61594 -0.542498 2.73992 1.61027
414 2.14123 -5.30076 -7.68467 -0.158873 0.581885 3.32824
136 4.52408 -5.33291 -8.45749 1.13722 -0.0204136 1.43116
469 4.56847 -4.41966 -7.56758 -2.61312 -0.935682 -0.152364
418 3.52525 -5.43926 -7.61367 -1.91928 0.917721 -1.79812
883 -2.33683 -8.89527 -3.7456 0.989513 -0.691694 -1.5674
183 5.27314 -4.65447 -8.33662 -1.3933 -0.427878 0.671163
473 6.15795 -4.5998 -7.5955 -0.653252 0.175415 -0.125265
140 6.13939 -5.47918 -8.32446 -1.31039 -0.751031 1.55438
144 7.66669 -5.29766 -8.64716 -1.43826 0.538774 -0.814949
426 6.83217 -5.38954 -7.67481 0.92567 -0.0195669 0.917338
187 6.9595 -4.62301 -8.29783 0.380447 0.524118 -1.01678
477 7.76071 -4.58349 -7.67761 1.83983 -0.596457 -0.753268
3745 -9.2495 -0.0278484 -7.81083 -1.75177 1.3774 -2.70379
430 8.37373 -5.30702 -7.66601 -0.047681 -1.45365 1.22648
433 9.1268 -4.70909 -7.61667 -1.83166 1.08347 -0.90165
148 9.21423 -3.91051 -8.35647 0.356832 -1.05198 1.56789
481 9.19898 -3.0961 -7.63656 -1.10399 -0.657672 1.94682
434 -8.44207 -4.01939 -7.72049 -2.58857 1.74146 1.98109
1737 -6.17175 -9.17472 -0.177522 0.258075 -0.928259 0.0608824
152 -7.72825 -4.14157 -8.47115 -1.81038 0.190222 2.47713
199 -6.93836 -3.22991 -8.45136 3.24626 2.44135 -2.12382
62 -3.79787 -6.95046 -9.12505 -1.52024 0.0371888 1.17496
4639 2.21097 -0.0216347 -2.25112 -2.75107 0.784908 -1.21767
155 -5.43019 -4.64646 -8.38675 0.927484 -0.0240827 -0.342589
156 -6.1859 -3.83337 -8.50086 0.917266 0.504887 0.10715
203 -5.49676 -3.04418 -8.38292 0.654515 0.33066 -0.93512
154 -5.29857 -3.89615 -9.23454 0.800221 0.721364 -1.78739
159 -3.8103 -4.42444 -8.57776 -0.975597 -2.18367 1.83413
445 -4.57062 -4.80891 -7.64018 1.70183 -1.73999 0.344357
160 -4.65004 -3.88956 -8.32125 1.27115 0.838061 0.654464
207 -3.91949 -3.07121 -8.34749 0.650323 -0.110645 1.45999
4609 9.17987 -0.0232549 -3.12437 0.240244 -0.614063 -1.0104
163 -2.27716 -4.63173 -8.52082 -1.29795 -0.492625 -0.515294
164 -3.02078 -3.67871 -8.59394 -0.605888 -1.4132 2.54421
211 -2.25888 -2.94622 -8.49305 -0.195331 0.874752 -0.731796
217 -0.184275 -3.14169 -9.20389 0.277698 0.00925544 0.646372
168 -1.59984 -3.832 -8.40329 -2.79635 0.483597 0.630264
215 -0.770762 -3.00773 -8.31259 -0.119229 0.460877 -2.21465
501 -1.71354 -3.17156 -7.65706 0.114554 1.06336 1.09884
454 -0.782373 -3.7924 -7.68584 0.409954 -0.660324 -0.22055
172 -0.0276668 -3.70712 -8.42807 1.52054 -0.744391 0.79385
505 0.0109145 -3.00141 -7.74001 -1.07638 -0.319079 1.02249
176 1.33776 -3.79162 -8.64603 2.00995 2.42673 1.1457
219 0.718273 -2.95567 -8.63745 -1.4287 0.046978 -0.239988
461 1.6048 -4.39408 -7.7016 0.63585 0.323259 -1.19741
458 0.736022 -3.75052 -7.81248 -0.813909 -0.18334 0.448405
114 -2.4395 -5.54567 -9.14374 -1.99251 0.0756255 -0.259475
175 2.24115 -4.47389 -8.4488 2.73935 0.557075 -0.210978
180 3.05479 -3.87018 -8.63582 0.113117 1.11531 1.16397
179 3.78941 -4.69197 -8.15557 3.20837 1.3366 0.329619
184 4.52987 -3.79662 -8.31804 4.01145 -1.29078 1.18634
188 6.02437 -3.81942 -8.17802 1.16017 -0.698039 -0.672839
231 5.37586 -3.12268 -8.33704 1.47461 1.0199 2.02913
470 5.31139 -3.74639 -7.56299 -1.14738 -1.4565 -2.39145
4925 1.41919 -0.0830862 -1.49807 -1.44169 -1.76203 0.521295
192 7.78657 -3.88616 -8.49163 -2.33644 2.25087 -1.80314
235 6.9293 -2.95146 -8.34764 1.26671 1.72672 0.268399
474 7.02351 -3.76333 -7.84007 0.143549 -1.35896 -1.25954
525 7.84868 -3.07992 -7.72556 -1.37911 1.35083 -0.17392
1738 -5.30664 -8.36961 -0.0648055 -1.04621 -0.242456 0.438891
191 8.3619 -4.72106 -8.41907 1.36401 0.135599 -0.0547725
478 8.48745 -3.85176 -7.55612 1.66327 1.94741 0.552396
239 8.43316 -3.10498 -8.54131 1.15426 1.69165 -1.19044
1451 -5.26627 -9.16305 -0.866204 -0.709582 0.764216 -1.12435
195 -8.38921 -3.25206 -8.45143 1.55048 0.951231 -0.142509
196 9.15088 -2.49716 -8.48518 0.473262 -0.918603 -1.81212
243 -8.3931 -1.61439 -8.50203 0.788051 0.119921 0.0394574
261 -1.59347 -1.50498 -9.08169 -0.983354 2.60852 1.89251
901 4.68234 -9.10183 -4.5649 2.04061 1.03079 -1.43576
200 -7.57868 -2.51097 -8.3744 -0.267491 -0.895729 0.847844
4041 -6.05482 -0.228126 -6.02789 -0.788332 0.00514007 0.72304
204 -6.21299 -2.31801 -8.36202 2.46436 0.872468 -3.53779
10 -5.33657 -8.45824 -9.10465 1.41575 0.96144 -0.645706
490 -5.48729 -2.36366 -7.65018 0.546102 -1.18235 -1.11505
537 -6.23511 -1.6087 -7.62943 -0.111025 0.682952 -0.541849
1905 2.86733 -4.83201 -0.16468 -1.991 0.472986 0.437296
208 -4.80082 -2.29482 -8.53871 1.56377 -0.139708 -0.373714
255 -3.92727 -1.62918 -8.52842 -0.815559 0.442523 -1.4967
305 -3.11242 -9.22566 -7.6346 -0.0861132 -1.26826 -1.06166
494 -3.82055 -2.21806 -7.71301 0.561153 1.96674 0.336
212 -3.21068 -2.39785 -8.56224 0.391312 2.06497 0.805265
545 -3.14656 -1.57075 -7.73662 -0.286924 -1.76071 -0.101798
498 -2.39624 -2.34214 -7.75889 -2.32121 0.889236 0.262704
1463 -0.682075 -9.15933 -0.775682 -1.44071 -0.557355 -0.0850584
216 -1.49429 -2.34064 -8.2105 1.96617 1.95122 -0.194308
502 -0.737348 -2.22988 -7.49496 0.673376 -1.41454 -0.889688
220 -0.0401103 -2.14946 -8.45595 2.45646 -2.39864 2.07559
224 1.54777 -2.29504 -8.65387 -0.368626 -0.0202645 -1.70862
509 1.51477 -3.06459 -7.66627 0.458215 2.04913 -0.600107
506 0.692179 -2.19338 -7.75138 0.503952 0.523084 -0.578605
557 1.52064 -1.38989 -7.783 -0.980275 0.557214 -1.82805
223 2.27933 -3.01319 -8.58814 0.267008 -0.221419 0.115691
228 2.95323 -2.16576 -8.50365 -0.84633 0.251008 -1.22037
271 2.11315 -1.50534 -8.62596 -1.122 -0.678842 -0.310199
513 2.92578 -2.84419 -7.85528 0.430512 -1.82071 1.21575
227 3.68757 -2.97612 -8.61383 2.81759 -2.45152 0.197669
232 4.62649 -2.19147 -8.43593 0.269737 0.318961 -0.322853
236 6.06135 -2.19923 -8.58623 0.211328 0.0527228 -0.708169
279 5.50251 -1.39164 -8.5866 -1.26227 0.0314843 -1.79425
4035 -8.59084 -0.0682972 -5.37404 0.30991 0.813906 1.2912
4613 -7.66259 -0.0971746 -2.93594 0.0538793 2.63055 0.933141
3785 6.17061 -0.0516538 -7.71512 -1.60075 1.34458 0.918691
240 7.70279 -2.29399 -8.46314 -0.599503 -5.03073 0.175246
283 6.99713 -1.45983 -8.64095 0.961423 -1.84679 1.56693
522 6.86982 -2.05493 -7.76906 -0.843747 0.992679 -1.53716
573 7.60203 -1.3869 -7.87132 -1.91132 -1.0172 0.817008
287 8.43963 -1.49414 -8.3503 2.73331 0.200157 -0.82448
331 6.92998 -9.2114 -7.01257 -0.555041 -0.408239 0.689926
4343 -0.772053 -0.0427805 -3.79661 -0.251396 2.98419 0.31671
3499 7.00948 -0.0499598 -8.55705 -1.19792 0.155965 1.14693
4631 -0.791711 -0.124404 -2.32798 0.533242 -0.663416 0.503498
247 -7.01312 -1.45163 -8.38177 -0.520258 0.855423 -1.59279
248 -7.82294 -0.714432 -8.49522 -0.534342 -1.32554 -2.89595
4353 3.09262 -0.0707535 -4.61476 -2.8108 -1.48595 -1.66446
3471 -3.79462 -0.0496517 -8.44308 -0.354459 4.87989 1.03827
43 7.08769 -9.08005 -8.36323 -0.0134146 1.27501 2.58559
1745 -3.05181 -8.99041 -0.00598681 -0.580956 1.48958 2.06611
97 -9.19186 -6.016 -9.20965 -0.457513 0.0809775 -2.29996
251 -5.55379 -1.53219 -8.36249 -1.04893 1.59549 0.111659
252 -6.25526 -0.852535 -8.37688 -0.537491 -0.557484 1.36022
1921 -9.18374 -3.13274 -0.0286001 -0.719071 -0.517559 1.16896
538 -5.42457 -0.743467 -7.77458 1.27498 0.329276 -1.75963
1179 0.831388 -9.2351 -2.3308 1.19889 -2.99434 1.04346
241 -8.978 -1.51853 -9.23902 -1.85433 1.09651 -0.823472
1469 1.39106 -9.15388 -1.45945 2.22865 -2.40491 -0.0509271
256 -4.55714 -0.85108 -8.40433 0.582271 -0.616631 0.0971789
541 -4.73495 -1.54814 -7.64832 -2.75932 0.5158 -0.752797
3749 -7.85901 -0.0568681 -7.68937 -0.578349 -1.86959 1.09873
259 -2.31072 -1.40486 -8.38882 1.96352 -2.10533 -0.1915
260 -3.12223 -0.850474 -8.5055 1.17445 0.131874 -2.60308
263 -0.887091 -1.59133 -8.34049 0.842438 3.33538 -1.41141
549 -1.50055 -1.55366 -7.44329 2.26052 0.102925 -0.451204
264 -1.57941 -0.653583 -8.2081 0.81488 -0.00471944 3.14031
550 -0.880646 -0.768115 -7.47071 0.241802 -0.289678 -2.58491
146 -8.61603 -3.99532 -9.19299 1.41946 -1.04633 0.0335379
268 -0.117784 -0.68117 -8.27444 -0.493515 -0.15472 -1.61112
553 -0.104983 -1.45265 -7.59873 -1.17875 -4.44325 -0.0575072
4913 -3.07727 -0.0131019 -1.5359 -0.807232 0.673396 -1.04813
267 0.761073 -1.37028 -8.51278 1.2544 -2.40927 -0.54686
272 1.46095 -0.67452 -8.49738 2.63758 -0.219479 -0.683915
561 2.94563 -1.45537 -7.82324 -1.55385 1.60748 -1.3929
276 3.15816 -0.701034 -8.57576 -2.36237 0.689716 -0.509193
1726 8.35865 -0.840557 -1.44199 -0.797533 0.636482 -0.671787
275 3.92897 -1.49954 -8.53219 -0.0951433 0.0873495 -1.20446
280 4.71467 -0.772061 -8.6044 -1.16081 0.037807 0.918379
327 5.48162 -9.2199 -6.83108 -0.169915 -1.84198 0.156842
865 9.08937 -9.14017 -4.45448 -0.703566 0.137408 -1.28442
284 6.27669 -0.685476 -8.50428 -0.551191 1.3164 -0.848746
1993 -0.0271244 -1.48329 -0.129296 0.0139276 -1.19387 -0.906149
137 6.12064 -6.07444 -9.21578 -2.41019 0.718718 -0.746875
1805 1.43977 -7.78368 0.0285991 -0.860963 0.292324 1.50435
42 6.9905 -8.47037 -9.08801 0.0255125 -1.77992 -0.374643
288 7.73885 -0.628524 -8.52486 -1.0498 0.414276 -0.00025165
570 6.9743 -0.611644 -7.60535 1.99454 1.68123 -0.44584
319 2.40595 -9.20815 -6.9723 -0.523713 -1.84009 2.4893
3463 -6.93666 -0.132228 -8.40808 -1.06588 -1.04472 -0.551182
11 -5.41092 -9.25961 -8.44388 0.307103 -2.6066 1.54849
244 -9.1942 -0.757602 -8.45393 0.624607 -0.251138 1.48147
574 8.42174 -0.630604 -7.77575 0.614712 -0.182843 -2.10996
339 -8.41471 -7.64141 -6.95612 -0.131518 -1.75503 0.690923
341 -7.57258 -7.55164 -7.79862 1.76409 -0.0922194 -2.38223
294 -6.99347 -8.36323 -7.83965 -2.16975 0.943455 1.85804
296 -7.67553 -8.20426 -6.86941 0.0980906 1.37463 0.498135
582 -6.87797 -8.36469 -6.15716 -2.81435 1.50803 -1.52475
343 -6.89934 -7.6232 -6.9811 -2.71694 0.615086 2.55886
298 -5.34204 -8.44258 -7.82796 0.888102 1.16259 -0.341502
345 -6.04497 -7.84049 -7.8737 1.01772 -0.35743 0.689753
300 -6.17635 -8.42833 -7.02801 0.631301 -2.36034 1.29005
347 -5.55477 -7.56868 -7.01986 2.51307 -0.052115 -0.205139
633 -6.13627 -7.63807 -6.22303 1.48519 2.45984 -2.3344
302 -3.93521 -8.45554 -7.71824 1.00021 -0.174376 -4.07903
304 -4.83101 -8.35981 -6.9518 -1.61239 -0.227462 1.72271
229 4.56894 -3.09415 -9.12349 0.290061 0.765389 0.144379
353 -3.06187 -7.74045 -7.87064 -0.442208 1.97283 -0.886037
306 -2.31381 -8.57943 -7.74118 -1.47357 -0.0103826 -0.23312
308 -3.08169 -8.38076 -7.09111 2.3766 0.0237603 3.01622
310 -0.631573 -8.40558 -7.70157 -0.123868 -0.325159 0.146185
312 -1.31412 -8.54646 -6.99268 0.705294 -1.86064 1.63994
598 -0.562156 -8.35271 -6.26788 -0.214023 2.93671 0.301704
316 0.129446 -8.43966 -7.06445 -0.741029 -0.0417677 -0.340888
359 -0.71225 -7.75064 -6.97161 2.33677 -0.421334 0.467751
4625 -3.38004 -0.0891287 -2.99602 -1.32221 0.408178 0.362349
314 0.874731 -8.56538 -7.69995 0.576541 -1.09223 0.394013
320 1.69465 -8.50939 -7.04342 3.70733 -0.108871 -0.0229172
602 0.856488 -8.37449 -6.2985 -2.51423 -0.449115 0.425398
324 3.12575 -8.55524 -6.88137 2.624 1.56765 2.24339
606 2.40684 -8.56224 -6.20952 -1.23126 -0.463681 -1.68056
367 2.39259 -7.83455 -6.86868 2.42185 -0.870884 1.10179
328 4.60483 -8.49682 -6.95897 -2.15943 -0.751562 -0.499209
610 3.88874 -8.51079 -6.30877 1.64998 -0.296569 -1.02667
4939 7.01965 -0.186995 -0.553306 1.0352 -0.915397 0.182156
90 6.9895 -6.84698 -8.99667 -1.30306 0.669712 0.22597
332 6.34151 -8.34889 -6.84522 -0.505513 0.194586 -0.190052
375 5.4297 -7.49638 -6.93244 -1.35934 -1.00086 0.861921
330 6.96529 -8.2745 -7.80712 -1.39218 0.355465 0.0906219
336 7.79442 -8.24626 -6.96736 2.68246 -2.62703 -0.58731
618 7.17367 -8.28949 -6.20253 1.34657 -0.685537 0.200859
292 -9.15719 -8.41769 -7.11191 0.459318 -0.102819 0.391111
334 8.61444 -8.23902 -7.74114 0.279427 0.777447 -0.0947806
622 8.43201 -8.48211 -6.21442 0.446588 -2.92924 0.587564
338 -8.42588 -6.90257 -7.76214 1.69302 1.30756 2.61359
385 -9.21541 -6.11106 -7.59432 -0.961821 -1.74264 0.745101
340 -9.19616 -6.89897 -6.8458 -2.54015 2.99798 -0.931744
387 -8.48705 -6.07769 -6.82923 -0.693094 -1.52137 -2.58842
389 -7.71732 -6.09053 -7.74335 0.505448 -3.08442 -0.711581
342 -6.65343 -7.0002 -7.73112 -0.60365 2.73231 1.23801
344 -7.76101 -6.81961 -6.92699 -1.00765 -0.737316 -0.732918
391 -6.91932 -6.24382 -7.01287 -0.39814 -1.41439 0.566232
630 -6.82246 -6.86598 -6.18587 -0.492827 1.67046 -0.127198
677 -7.60479 -6.17066 -6.15856 0.140637 2.40666 2.60758
346 -5.41829 -6.79443 -7.80281 0.537386 -0.350852 0.885363
348 -6.17449 -6.86707 -6.88025 -0.0659103 0.437043 -0.537931
634 -5.37083 -6.85057 -6.16018 1.58957 1.41664 2.35377
393 -6.29195 -6.1313 -7.81546 -0.838474 -0.751798 -0.738874
395 -5.37768 -6.10096 -6.93875 -0.340908 0.953145 -0.506153
351 -3.90733 -7.84418 -6.9983 0.0221545 -0.932011 0.724715
350 -3.91865 -6.93953 -7.55032 -0.187279 -1.03447 -1.00607
352 -4.65505 -6.84236 -6.96951 -0.897397 -1.03604 1.94089
638 -3.8988 -6.99066 -6.2427 -2.33226 -3.22104 -1.28468
637 -4.7427 -7.63749 -6.37677 3.55404 -3.90212 -0.148835
356 -3.08874 -7.11831 -6.9585 -0.657414 1.71354 -2.67744
354 -2.23817 -6.91733 -7.57508 0.831263 1.40546 0.559358
403 -2.54449 -6.31114 -6.7513 -0.845429 -0.526696 1.73882
689 -3.22016 -6.04923 -6.09189 1.70368 -3.16821 1.84254
355 -2.27926 -7.82151 -6.99371 0.289 0.994506 2.57594
360 -1.59485 -6.90532 -6.89699 -1.8009 -0.543527 3.47358
364 -0.0832023 -6.75278 -6.88487 -1.24901 1.2897 0.941656
649 -0.0479961 -7.58602 -6.18955 -0.428007 0.534747 1.4601
363 0.623266 -7.63177 -6.92847 0.51497 1.08743 1.08789
650 0.698736 -6.97034 -6.06847 -0.208366 1.17793 -0.431566
411 0.824659 -6.1284 -6.85464 0.897938 -0.3408 1.2097
646 -0.836457 -6.88799 -6.01665 -0.353892 -0.146963 -0.10432
653 1.72501 -7.79221 -6.20051 -0.175817 1.54975 0.284233
368 1.35808 -7.04744 -6.86873 -1.07142 -0.0777475 -0.517279
372 2.91888 -6.88696 -6.87278 0.909584 -2.76375 1.20212
654 2.27625 -6.96638 -6.21489 -0.0172686 -1.49159 1.39076
705 3.08266 -6.0601 -6.26758 -1.30187 -1.71732 0.555031
371 3.76944 -7.68198 -6.99876 0.562746 -2.57747 1.29144
370 3.83996 -6.93115 -7.60807 -1.75307 1.25781 -1.20619
376 4.76138 -6.81294 -6.83932 2.5415 1.98187 -2.39893
421 4.45136 -5.98433 -7.64995 1.22775 -1.41282 -1.33812
709 4.676 -6.1727 -6.13373 1.42402 2.24353 -3.03401
658 3.94936 -6.99253 -6.30443 2.17905 -1.07685 1.31196
377 6.12243 -7.60435 -7.75032 -1.89648 -4.62905 -0.1231
380 6.19507 -6.88307 -6.86997 2.83895 1.03701 1.96265
423 5.3857 -5.97093 -6.79711 1.33405 -1.01344 -0.188502
665 6.22579 -7.672 -6.09836 2.15099 -1.55256 -1.72687
379 6.87277 -7.48014 -7.06266 -1.32346 -0.875284 1.51446
384 7.71486 -6.83606 -6.98937 -1.15758 0.159064 -0.238655
427 6.93748 -6.20442 -7.04116 0.285194 -0.136245 1.24946
717 7.70906 -6.24899 -6.04816 2.32958 2.06148 -1.20109
382 8.51049 -6.88029 -7.77928 -0.842524 -2.25195 1.16809
383 8.50949 -7.4935 -7.02187 1.12071 0.213111 1.63357
337 -9.10585 -7.49375 -7.72162 -0.743331 -1.05348 -1.87489
386 -8.50179 -5.3888 -7.7808 3.19045 -2.01919 -0.198679
388 9.18127 -5.42386 -6.91315 0.0788191 1.91679 2.38209
437 -7.72371 -4.81604 -7.65532 0.22746 0.547131 1.01708
392 -7.57367 -5.52409 -6.82763 0.37733 -2.27442 -2.75582
390 -6.89386 -5.34989 -7.63568 -0.938276 2.80947 1.30148
439 -6.89459 -4.62202 -6.78208 4.66282 -1.50438 -1.27723
394 -5.55875 -5.50257 -7.68429 -1.20171 -0.74112 -0.21432
441 -6.18223 -4.76706 -7.49433 -0.326171 0.401933 0.986207
396 -6.24749 -5.57677 -6.92758 -0.954184 0.428578 -0.804629
443 -5.36662 -4.72304 -7.01093 -1.87294 0.999358 1.39967
399 -3.86005 -6.02396 -7.01628 0.621191 3.16164 2.26849
398 -3.81423 -5.27238 -7.61129 -0.728936 -0.517508 -1.29382
400 -4.70667 -5.39047 -6.92355 -0.886824 -1.47718 -0.224748
447 -3.6827 -4.51631 -6.94995 0.544676 0.109215 -0.273712
402 -2.39703 -5.46793 -7.54906 -0.0262553 -0.207013 -1.18782
404 -3.19044 -5.34264 -6.87024 -1.35236 -2.75557 0.241077
451 -2.31607 -4.65593 -6.86656 1.39415 0.0294541 -2.73831
449 -3.07231 -4.69201 -7.75828 -0.80899 1.74828 0.0236943
453 -1.57055 -4.77247 -7.68218 -2.20687 2.23157 0.89785
405 -1.57342 -6.11328 -7.61676 -1.51 -0.579869 2.68479
408 -1.55016 -5.5208 -6.8404 1.62353 -0.587135 -1.96511
407 -0.909654 -6.22554 -6.72232 -2.62274 0.450876 2.20934
455 -0.731787 -4.76173 -6.93655 0.332239 0.251323 -0.0238487
406 -0.752087 -5.57272 -7.65169 -2.38157 -0.936291 1.96031
412 0.129796 -5.44068 -6.85216 -0.553403 1.16166 -0.934677
697 -0.00523847 -6.18998 -6.01235 -1.43818 0.42396 0.170428
410 0.886576 -5.28809 -7.66539 0.370924 0.00632314 0.479123
416 1.51654 -5.4034 -6.91404 -2.2382 0.0632349 -0.223231
459 0.889443 -4.64451 -6.93918 0.629649 0.845257 -2.09703
698 0.671221 -5.41317 -6.04851 -0.954461 3.4274 -0.319308
749 1.48639 -4.59756 -6.05575 -1.20069 0.493746 -0.757877
701 1.45922 -6.16804 -6.05784 -0.628754 1.71822 1.37979
415 2.00676 -6.22835 -7.0618 0.219502 0.743651 -0.352986
420 2.8907 -5.25572 -6.8353 1.24933 -3.96563 -0.671006
463 2.15401 -4.60591 -6.78483 -0.287994 -0.321589 -1.83063
753 2.95836 -4.46776 -6.23785 0.837678 -0.933852 1.82659
419 3.73859 -6.20976 -6.98735 -0.641362 0.0900117 -0.0912464
424 4.64661 -5.26367 -6.8529 0.284753 -0.278851 -1.72616
467 3.79054 -4.53945 -6.8861 0.959203 2.15104 -0.299684
757 4.60266 -4.44356 -6.26771 -1.66036 -0.398575 1.21698
422 5.37462 -5.27366 -7.58316 -1.86249 -1.11643 2.18229
428 6.11168 -5.35612 -6.96197 -1.45722 -0.720312 -2.59629
471 5.38354 -4.46978 -6.92552 0.625192 -0.867972 -1.87436
761 6.20932 -4.42832 -6.2329 0.658687 2.45445 -0.0884147
710 5.33202 -5.17505 -6.18707 -3.42268 -1.45863 0.595639
429 7.65907 -6.0109 -7.65638 1.64494 0.312689 -1.69705
432 7.60849 -5.23907 -6.92386 0.288858 -0.0913517 1.60305
475 6.88557 -4.50623 -6.96584 0.521772 2.48816 -1.74612
431 8.3579 -6.0817 -6.95305 0.87415 -1.91964 -1.85614
479 8.44713 -4.60313 -6.82922 1.09682 -1.76009 1.36314
435 -8.45184 -4.92866 -6.87627 -0.518602 2.20974 -0.114388
483 -8.57853 -3.03883 -6.8171 0.991821 -0.0737115 -1.32315
438 -6.84783 -4.04098 -7.72059 -0.372075 0.403597 -0.325977
440 -7.66377 -3.93489 -6.85995 -1.7154 -2.63451 -1.36474
485 -7.75163 -3.21963 -7.56106 2.34514 0.174088 0.233991
487 -7.00372 -3.07805 -6.82831 0.697342 1.00148 0.624816
442 -5.66843 -3.86362 -7.68814 -0.898476 1.98921 0.19277
444 -6.26902 -3.81314 -6.86141 0.659268 3.89017 -1.41929
730 -5.51839 -3.88202 -6.24743 2.12688 1.27534 -2.0381
446 -3.8612 -3.82011 -7.60905 1.19434 -1.8658 -1.38488
448 -4.70285 -4.01294 -7.0339 -0.849831 3.38209 0.375517
734 -4.00582 -3.98853 -6.14529 1.76552 -0.23117 -1.50954
781 -4.72578 -3.18476 -6.13433 1.40098 2.16125 1.29833
733 -4.73407 -4.70215 -6.20244 2.25877 -0.681029 -0.453046
452 -3.06997 -3.77962 -6.67919 0.963661 -1.17454 0.676137
497 -3.03113 -3.14339 -7.72337 0.898022 0.43201 -0.524813
499 -2.2669 -3.32772 -6.85937 -1.07534 -0.52445 -0.0885286
785 -3.04449 -2.96764 -6.07892 -1.89097 -0.346458 -0.90832
450 -2.47669 -3.87765 -7.69204 1.38048 0.868844 0.755562
456 -1.44123 -4.03369 -6.8791 1.43186 2.50029 0.581069
741 -1.56708 -4.72902 -6.07231 -0.714446 -1.29364 1.84035
742 -0.814152 -3.91574 -6.13961 1.58194 1.04834 -0.809526
503 -0.661966 -3.2323 -6.84707 -1.42547 -0.366475 -0.559816
457 -0.0696629 -4.57915 -7.68819 1.19703 0.576624 -0.422459
460 -0.0961616 -4.03104 -6.87076 0.775439 -0.252703 0.191838
464 1.39158 -3.75718 -6.90965 1.52027 -1.13023 -0.693151
465 2.8331 -4.57746 -7.64161 1.29013 0.384945 0.52255
462 2.3565 -3.75059 -7.72027 1.0154 2.02156 1.36692
468 3.11911 -3.78489 -6.94567 -0.340501 1.65824 -1.7382
750 2.13778 -3.81243 -6.03552 -0.787989 0.401577 2.63251
466 3.6825 -3.53741 -7.73765 -1.55771 0.895501 2.0819
472 4.58276 -3.6345 -6.89945 -0.101269 -3.01392 1.02327
515 3.808 -2.83707 -6.98374 -2.67407 -0.917586 0.162256
476 6.17244 -3.683 -7.00684 -2.02485 1.59377 2.7999
758 5.3303 -3.71603 -6.31938 -1.04328 1.93829 3.69668
519 5.4371 -2.89378 -6.93264 -0.100891 1.06895 -0.43957
809 6.29297 -3.08475 -6.18489 -1.41485 0.119776 0.41832
480 7.80228 -3.85787 -6.91456 0.032264 -1.00148 -0.060717
762 6.98418 -3.69868 -6.4207 2.33861 -1.1221 0.047688
436 -9.09769 -4.02946 -6.90941 -1.95556 0.300341 -0.225515
766 8.46694 -3.89498 -6.10273 0.621151 1.48182 -0.586877
527 8.42109 -3.0749 -6.81842 1.93577 2.47882 -0.963019
769 -9.21215 -3.14826 -6.04032 0.880508 -0.500164 -3.549
482 -8.4192 -2.31685 -7.74754 1.69876 0.311495 -0.0189132
484 9.11278 -2.30546 -6.98031 -0.0385202 -0.298275 -1.00502
531 -8.56383 -1.51986 -6.98016 -2.10701 1.1753 -0.77297
529 9.24616 -1.73093 -7.76423 1.74506 0.910815 -0.41258
770 -8.52957 -2.1993 -6.04213 0.54047 -2.2184 -0.764569
488 -7.89057 -2.32059 -6.91251 -1.39066 0.581352 -1.09756
486 -6.98545 -2.38416 -7.52965 0.36879 0.473742 -0.36022
535 -6.81617 -1.64623 -6.84603 -1.18201 -1.03825 -1.11497
533 -7.70074 -1.66703 -7.53156 -1.17893 0.916996 -0.257248
774 -6.94513 -2.19325 -5.93128 0.127385 0.705212 0.368282
491 -5.47144 -3.12574 -6.98709 1.82564 -0.498661 -0.0280801
777 -6.23661 -3.16052 -6.01713 -0.365052 1.87583 -0.866127
489 -6.2231 -3.09502 -7.7035 2.44554 -0.241232 -0.574085
492 -6.30109 -2.40732 -6.66299 -0.633102 0.262496 -0.362508
778 -5.4418 -2.34032 -6.18398 1.86864 1.29964 -1.57052
493 -4.75514 -3.13026 -7.75872 0.481547 -1.03572 1.51013
495 -3.82649 -3.02269 -6.6897 -0.468777 -0.843064 -2.26216
496 -4.69422 -2.28119 -7.01842 2.70319 -0.295022 0.231364
543 -3.78696 -1.63432 -6.81276 1.18329 -0.389715 -1.18378
782 -3.79173 -2.17756 -5.97156 -0.0386586 3.7904 2.41305
500 -3.01099 -2.3229 -6.97942 -0.163741 0.469727 -1.65418
547 -2.40129 -1.55222 -7.00722 -1.53137 -2.82515 0.055459
786 -2.34597 -2.209 -6.1158 1.46974 2.00019 2.70737
789 -1.65767 -3.09278 -6.09678 0.75147 -0.150687 -1.01429
504 -1.5815 -2.5796 -6.97343 0.96718 -2.04479 -1.66145
793 -0.0623141 -3.01466 -6.05401 0.220867 -0.521911 1.77916
508 -0.0909875 -2.40012 -6.78398 1.58697 -1.27078 -0.322286
507 0.588913 -3.03199 -6.98671 -0.829427 2.08476 -2.90115
794 0.64782 -2.22939 -6.07416 0.310078 -0.579102 -0.722731
797 1.40746 -3.07504 -6.09824 -0.211301 -0.152868 -0.457852
512 1.47714 -2.36416 -6.90458 -0.566925 -1.07079 -0.697351
845 1.34025 -1.50565 -6.16257 -2.012 -1.22456 -2.32592
511 2.24129 -3.04671 -6.89534 3.28957 1.11273 -0.16053
510 2.05371 -2.20158 -7.8364 0.129264 -1.15023 -1.01557
516 2.964 -2.27538 -7.00063 0.294159 2.56603 -0.686987
801 2.95491 -3.03915 -6.10172 -2.2151 2.57694 -1.49283
798 2.21944 -2.23611 -6.24753 -0.146761 -0.103664 -0.178114
849 2.90692 -1.62596 -6.27761 0.44367 -1.37687 2.32255
514 3.73133 -2.23622 -7.83768 -0.668769 -1.52151 2.63819
517 4.50943 -2.86703 -7.7025 0.286517 -0.245301 2.10981
520 4.67451 -2.10411 -6.99443 2.77749 -2.75177 -2.22313
805 4.53973 -2.8452 -6.14373 -0.612076 -0.495455 -0.31636
521 6.22447 -2.94098 -7.79081 1.56192 0.564492 0.170256
518 5.46791 -2.12333 -7.68692 -2.07374 -2.47604 0.24288
524 6.26709 -2.32742 -6.98295 -0.322082 5.02722 -2.33644