ITEM: TIMESTEP
55000
ITEM: NUMBER OF ATOMS
6912
ITEM: BOX BOUNDS pp pp pp
-9.2265715179435492e+00 9.2265715179435492e+00
-9.2265715179435492e+00 9.2265715179435492e+00
-9.2265715179435492e+00 9.2265715179435492e+00
ITEM: ATOMS id x y z vx vy vz
4 9.15823 -8.34157 -8.53841 1.23536 1.47489 1.73405
51 -8.474 -7.66944 -8.52251 1.92154 0.621297 0.0572499
166 -0.64885 -3.8581 -9.11929 0.171081 -2.15245 0.112443
1177 -0.0936926 -9.16739 -2.83123 -0.354365 1.0407 -3.45161
8 -7.81798 -8.53831 -8.52699 0.0473349 1.05125 0.88205
897 3.09194 -9.16555 -4.53998 0.646016 2.06241 -1.72905
174 2.53827 -3.89111 -9.10989 -1.83611 0.564166 0.307034
57 -6.29208 -7.66043 -9.12856 -0.659995 1.11261 1.17434
12 -6.1441 -8.456 -8.35109 -0.669753 2.18227 0.534611
298 -5.34945 -8.57491 -7.73264 2.72412 0.396719 -1.61103
59 -5.43358 -7.7453 -8.4482 2.90814 -0.852652 -0.966809
4941 7.56456 -0.0270788 -1.51533 -0.519796 0.676899 -0.753671
277 4.60574 -1.42839 -9.02803 -0.183379 -2.07231 -0.837196
16 -4.66579 -8.32757 -8.39697 0.29563 -0.0154058 1.53328
63 -3.80993 -7.69682 -8.43317 1.90171 -3.25234 -3.29146
1681 -9.20751 -1.75253 -1.48708 1.50699 -0.416841 3.86391
20 -2.90946 -8.41262 -8.34705 0.293526 1.21534 -3.07333
306 -2.18318 -8.29612 -7.56591 -0.263091 1.07233 2.29581
230 5.34143 -2.36801 -9.03427 -0.154864 -1.39646 1.0115
13 -4.69834 -9.21163 -8.97352 2.58819 0.552526 -0.722496
24 -1.44401 -8.32885 -8.35139 1.44971 -0.144798 1.18259
617 6.1091 -9.22791 -5.89328 -1.36193 -0.308201 -0.285382
71 -0.758527 -7.70037 -8.41025 0.00205706 -2.78605 -2.48702
28 0.0966293 -8.17685 -8.49521 0.205483 -0.673849 -0.542352
310 -0.760513 -8.30928 -7.62329 -0.877105 1.03789 -1.36206
314 0.73426 -8.32861 -7.49944 0.881352 0.609165 -2.90812
23 -0.718244 -8.91271 -8.46231 0.00235037 -0.0580945 -1.58476
32 1.56726 -8.32194 -8.54298 -1.28485 -1.13225 0.30771
75 0.904925 -7.52375 -8.53744 0.077915 1.02131 1.07432
365 1.58795 -7.5926 -7.67934 1.65738 1.53158 -2.68294
4065 2.99976 0.00357629 -6.15125 -0.840017 0.742849 2.66534
1195 6.96129 -9.09918 -2.39945 -1.00599 -0.0586806 -1.42057
36 2.83006 -8.40008 -8.38909 -1.05103 1.70093 1.36572
79 2.39066 -7.61648 -8.55521 -1.50509 -0.525421 -1.06488
21 -1.48165 -9.07894 -9.19565 0.645185 -1.27122 0.988407
318 2.1935 -8.36376 -7.68217 -1.71046 1.42554 -1.04263
369 2.95423 -7.47314 -7.7569 -4.56614 -0.138866 0.506304
1445 -7.78556 -9.22472 -1.61039 0.286793 0.113397 1.3019
40 4.42789 -8.46202 -8.57638 2.23091 0.982281 -0.593515
1155 -8.44724 -9.11568 -2.32507 -1.32158 1.30879 0.572824
322 3.75756 -8.36449 -7.75672 -1.53374 0.267796 -1.26051
4055 -0.681756 -0.0209929 -5.10584 3.18118 1.09561 0.974327
1862 5.35901 -5.33481 -0.0579894 -0.204778 -1.79854 -0.158738
44 6.21202 -8.53812 -8.5571 1.93602 -2.46969 2.05216
146 -8.50622 -3.73478 -9.07662 -0.499004 -1.78437 0.0466537
66 -2.33754 -6.83899 -8.98188 -1.12409 0.982878 -0.8341
48 7.84482 -8.44243 -8.37873 0.218081 0.514459 -0.486416
91 6.96232 -7.77148 -8.45662 1.13717 0.119227 -1.25323
330 6.88301 -8.47171 -7.71068 -0.265476 0.34667 -0.174598
381 7.76375 -7.64557 -7.5109 -0.739035 0.91694 1.56455
173 1.56306 -4.73951 -9.11363 -0.265103 1.73636 1.12894
95 8.47609 -7.46564 -8.40374 -0.341847 1.60262 -0.716206
31 2.22171 -9.16514 -8.37224 0.909184 2.54145 1.85371
25 -0.0179796 -9.21766 -9.12531 -0.987591 0.136861 -0.720192
194 -8.33617 -2.2622 -9.1118 0.852398 -1.79089 0.749945
338 -8.45798 -6.99433 -7.79699 -0.0901522 -0.321241 -0.808557
22 -0.687805 -8.36191 -9.20775 1.0944 0.662889 -2.9632
55 -6.90781 -7.54497 -8.41722 0.837871 0.877432 1.85965
56 -7.72006 -6.78649 -8.59306 1.51212 -0.500529 2.93823
342 -6.87711 -6.8677 -7.71431 0.00933191 -3.07214 -1.17624
4631 -0.814769 -0.0670332 -2.34395 -3.14256 0.807614 1.85008
1169 -3.20294 -9.13344 -2.91472 0.0515705 0.743475 -0.678432
60 -6.04101 -6.84623 -8.42879 -0.382585 0.0183884 1.14214
346 -5.46517 -6.89866 -7.70222 -1.39441 1.9345 0.22745
4903 -6.82496 -0.100595 -0.669549 0.282349 -3.03615 -0.929906
118 -0.650094 -5.25618 -9.05239 1.78375 -0.901247 -0.675238
345 -6.24721 -7.68422 -7.71061 -0.342874 1.00955 1.50411
349 -4.56638 -7.68412 -7.65663 0.849083 0.758452 2.30629
64 -4.88505 -6.92313 -8.43837 0.58942 2.75736 0.67961
350 -3.98747 -6.90863 -7.68591 -0.701959 -0.463493 -0.79815
67 -2.29587 -7.63901 -8.3486 -1.40995 -0.183361 0.241876
68 -3.0304 -6.94363 -8.24815 -2.31039 0.0482662 -0.0954011
115 -2.25495 -6.07679 -8.38074 2.66444 -0.62722 0.412188
353 -2.99088 -7.74926 -7.59215 -0.496703 -1.53051 0.779458
401 -3.18639 -6.01017 -7.67254 0.651408 -1.21501 -0.419454
72 -1.58721 -6.88102 -8.34618 -2.26199 0.676382 -0.280239
405 -1.23978 -6.13123 -7.65449 -0.863165 0.409585 2.03504
357 -1.58412 -7.55152 -7.69309 0.36072 4.29494 0.198103
1742 -3.8911 -8.40864 -0.0290546 1.6417 -1.17988 0.205484
76 -0.0389822 -6.97482 -8.3771 2.66609 1.59606 0.901491
109 -4.53542 -6.23806 -9.08321 -1.3312 1.58563 1.20629
361 0.0818723 -7.49385 -7.59536 0.0784018 -2.86078 -0.350051
362 0.856572 -6.79257 -7.69475 -2.2205 1.26746 0.894238
4051 -2.48543 -0.0419717 -5.29774 0.698699 0.938294 1.77023
80 1.72264 -6.90501 -8.53596 -1.56645 -1.43351 -1.16482
123 0.520682 -6.06282 -8.37179 -0.937582 2.5355 -0.38009
895 2.15873 -9.191 -3.84878 -0.315713 -2.15378 0.280922
84 3.05595 -6.84514 -8.56954 2.50303 -2.82775 0.711241
366 2.18058 -6.89868 -7.63401 0.573035 -0.223454 1.96839
1741 -4.62634 -9.10795 -0.0266491 0.462251 2.61713 1.93114
83 3.76868 -7.69205 -8.55821 -1.06963 -0.377192 -0.372164
88 4.56479 -6.89631 -8.33918 0.595458 2.02069 -1.49913
370 3.85217 -6.97045 -7.71495 0.841637 -1.17138 -1.85532
87 5.34132 -7.79917 -8.39876 1.01414 0.615432 -0.472048
92 6.03493 -7.09954 -8.59562 -0.642996 -0.240613 -0.743121
1949 1.66063 -2.96502 -0.016285 2.74302 2.56854 0.794052
374 5.41253 -6.79679 -7.733 0.863341 1.88137 -0.898609
96 7.6829 -6.9689 -8.46478 -0.441128 -0.441693 0.116837
378 6.81169 -6.953 -7.80123 -0.832923 1.56919 1.10236
52 -9.02818 -6.78077 -8.56522 -1.2578 -1.65464 -1.47868
382 8.41487 -6.94586 -7.64785 1.95716 1.10317 -0.644465
337 -9.20116 -7.68348 -7.70444 -1.82832 -2.72027 1.59872
99 -8.44817 -6.02801 -8.46647 -2.23549 -3.01655 0.0707086
386 -8.50839 -5.44229 -7.62287 -0.749758 1.78983 -0.506081
147 -8.39482 -4.64877 -8.42099 0.345398 -1.47334 -0.672172
103 -7.08554 -6.03018 -8.39197 2.67021 0.885393 1.85187
104 -7.73058 -5.30644 -8.40089 -1.61711 -0.340229 0.777434
389 -7.70688 -6.25483 -7.69433 -0.805858 0.954546 -1.2882
390 -7.01804 -5.31717 -7.6788 1.39474 -0.60989 0.307215
107 -5.40987 -6.04993 -8.50348 -0.339728 0.072531 -0.279752
108 -6.2236 -5.39287 -8.38799 -0.76301 2.19539 -1.72668
393 -6.19705 -6.12058 -7.73266 1.04739 -2.2338 1.86816
394 -5.36716 -5.42019 -7.71731 2.05246 2.57966 -0.310356
246 -6.80038 -0.737238 -9.04101 1.79336 0.0391889 -0.242966
111 -3.80943 -6.16864 -8.41301 0.657006 -0.253109 -1.9271
112 -4.52021 -5.31926 -8.53944 -0.54738 -0.36172 0.246973
397 -4.65455 -6.11755 -7.65543 -1.17364 0.00187752 0.779195
159 -3.73284 -4.78841 -8.47107 -0.247564 -0.8639 -0.353906
398 -3.93872 -5.29795 -7.62155 1.47139 0.0939762 -1.61577
445 -4.60486 -4.57496 -7.65995 2.88531 1.0732 -0.195493
4911 -3.77041 -0.0507297 -0.758176 0.197279 -0.888233 0.262424
116 -2.884 -5.16664 -8.65012 1.92696 -0.585637 3.01604
163 -2.16233 -4.48721 -8.47272 0.829935 1.6283 1.51899
449 -3.0656 -4.58486 -7.71705 -1.76799 1.32 0.687136
402 -2.3237 -5.32049 -7.68417 0.734476 2.66703 -0.522584
120 -1.39576 -5.30962 -8.31865 -1.4643 -0.8089 1.68718
453 -1.57395 -4.60393 -7.57776 -3.01646 2.05074 -0.46739
119 -0.560938 -6.05366 -8.3612 0.867323 0.400467 0.143335
406 -0.641955 -5.26305 -7.51909 -0.96372 -1.63375 -1.24995
167 -0.542682 -4.50652 -8.36258 -1.957 -2.52482 -2.41095
124 -0.014195 -5.33911 -8.18095 -2.0527 -0.0820113 -1.29996
128 1.50751 -5.39013 -8.34722 0.621804 1.25131 0.98979
171 0.809244 -4.68211 -8.32365 3.1455 -2.19792 0.626744
461 1.56066 -4.62658 -7.5351 -1.45207 4.47936 1.13839
97 -9.10775 -6.02822 -9.1982 -0.936376 1.08118 -0.580804
127 2.27079 -6.04695 -8.44315 0.485433 -0.800017 0.491912
132 3.17069 -5.42335 -8.55152 2.78478 -2.49593 0.658497
1479 5.3766 -9.21954 -0.863175 -1.71574 0.376663 -0.0970697
131 3.88435 -6.21594 -8.51036 -0.661895 0.447113 0.369085
136 4.5705 -5.41869 -8.51336 2.03805 2.20363 -0.0118055
179 3.79739 -4.64364 -8.38096 0.477929 -2.1808 -0.694461
1461 -1.47931 -9.01368 -1.38278 -2.96652 0.317949 -0.134642
135 5.34466 -6.08605 -8.42094 1.8558 0.65026 -2.58252
140 6.18109 -5.39139 -8.44568 1.07732 -0.793954 -1.52984
422 5.39834 -5.40725 -7.55375 -2.37707 0.388191 0.920142
183 5.43531 -4.70913 -8.57953 0.709513 1.11231 3.2665
139 6.92001 -6.18536 -8.43673 -2.1723 1.20772 1.00839
144 7.68816 -5.35135 -8.4017 -0.715534 0.848206 0.594328
426 6.94263 -5.35513 -7.6352 -0.732912 -0.60908 0.00368147
385 -9.12798 -6.16538 -7.6661 -1.40983 -1.07136 -1.14385
100 -9.18868 -5.28928 -8.43588 0.131656 -0.590163 -2.46736
143 8.41636 -6.21708 -8.42834 -1.3214 0.0191159 -1.175
430 8.52213 -5.41802 -7.70306 -2.04285 -1.08612 0.582093
434 -8.36988 -3.75342 -7.62892 -0.920791 1.66165 -1.72961
195 -8.40859 -3.00537 -8.36062 0.0906179 -0.200045 2.43338
481 9.19159 -3.1409 -7.45697 2.53146 -0.285794 -1.03617
169 0.0260972 -4.62052 -9.20406 -0.201363 0.0280534 0.392909
151 -6.94325 -4.7303 -8.4872 -2.50983 -0.406426 0.651014
152 -7.66585 -3.96718 -8.37211 0.421038 -0.795967 -2.29909
485 -7.58889 -3.01048 -7.56761 -0.425098 -0.984247 1.7806
438 -6.89828 -3.86227 -7.60903 0.982381 2.63876 0.181998
278 5.36974 -0.723648 -9.14454 -1.09605 0.919089 0.414023
155 -5.36212 -4.62125 -8.5357 -0.947565 -3.75942 0.472361
156 -6.095 -4.007 -8.38364 -1.0482 0.903663 2.95953
203 -5.23005 -2.99445 -8.46493 0.632365 0.29839 2.21487
489 -6.0593 -2.95533 -7.71718 2.49805 0.954283 2.33924
442 -5.37274 -3.80375 -7.57612 -0.145036 2.34895 1.39434
579 -8.47682 -9.17204 -5.35189 0.206771 0.971475 -2.07314
160 -4.62267 -3.86268 -8.59801 3.93694 -0.861103 0.0381678
446 -3.9218 -3.90854 -7.58669 1.1862 1.03243 -0.837732
1483 6.99408 -9.12104 -0.8988 -1.41417 -1.98984 1.44092
164 -3.09591 -3.83737 -8.49511 0.645202 -1.79133 0.662109
450 -2.30988 -3.88788 -7.71957 1.29149 -0.56191 0.0324575
168 -1.46114 -3.88703 -8.51973 -0.888801 1.05607 -0.903558
501 -1.6199 -3.14514 -7.81002 1.51014 0.0372128 -1.20101
285 7.78481 -1.47255 -9.09886 0.347733 -1.52997 0.363291
454 -0.885658 -3.888 -7.66466 2.37465 0.526191 0.286556
215 -0.767355 -3.06654 -8.46175 1.04427 0.588851 0.717061
457 0.205973 -4.59999 -7.51376 -1.64864 0.0987985 1.70279
172 0.157633 -3.7188 -8.48674 1.24622 0.372097 0.961286
176 1.65776 -3.8686 -8.46672 -0.085274 0.184618 2.11389
219 0.803685 -2.9309 -8.44374 -2.08049 0.23083 2.02809
589 -4.51595 -9.18025 -6.11995 0.864705 0.554394 1.11382
175 2.41069 -4.62766 -8.513 -0.684585 1.26295 -0.632185
180 3.0203 -3.89019 -8.27456 0.970397 -3.46076 1.84386
223 2.37772 -2.98145 -8.34743 -1.52532 0.414689 2.49797
513 3.01178 -3.04265 -7.57606 -0.202015 0.119972 1.6965
465 3.04598 -4.76167 -7.67548 1.74086 2.33555 -1.80994
70 -0.724028 -6.91053 -9.10035 -3.14315 -1.81708 2.06504
184 4.61632 -3.77807 -8.12275 3.06732 0.718707 0.019299
227 3.82273 -3.28314 -8.3305 0.361075 0.22419 -0.249337
469 4.80602 -4.6737 -7.73104 -0.984086 1.69093 -1.45359
65 -3.02248 -7.81845 -9.10094 -0.633459 0.0627802 0.203999
188 6.05357 -3.83284 -8.38805 -2.09369 0.509527 -2.26626
470 5.41049 -3.78272 -7.50716 -0.0340422 -0.433947 -1.07815
1929 -6.1063 -3.04061 -0.151241 1.9084 0.828949 -0.684265
187 6.93327 -4.55952 -8.65361 0.755172 -0.0909849 0.104634
477 7.37952 -4.4104 -7.84813 0.103623 -1.64935 -0.957653
192 7.69552 -3.67091 -8.46966 -0.257597 -1.4841 -0.0694081
191 8.44355 -4.64541 -8.4311 0.495294 0.00884402 1.62926
148 -9.20271 -3.79547 -8.31797 -1.38232 0.311926 -0.276806
239 8.49944 -3.07406 -8.57772 -2.52181 -3.50279 0.369335
478 8.41258 -3.69799 -7.78044 0.669041 -1.64609 1.79111
243 -8.44237 -1.48159 -8.4731 -0.664231 0.670218 -0.571583
482 -8.43423 -2.34699 -7.59145 2.57591 -0.850819 2.16257
199 -6.94227 -3.13471 -8.37766 1.56446 -0.897048 -1.57273
200 -7.66112 -2.29178 -8.35102 -1.08718 0.468103 0.651132
486 -6.87416 -2.15354 -7.70021 1.94179 -2.1564 -1.89127
533 -7.70417 -1.37765 -7.86324 1.24579 1.73231 -0.909434
149 -7.59205 -4.60406 -9.18337 1.33827 0.891144 0.878491
204 -6.08935 -2.26218 -8.37728 3.67839 1.49188 -4.07181
490 -5.16092 -2.27707 -7.66139 1.56102 -2.68534 -0.431917
251 -5.27044 -1.42193 -8.46709 -0.733112 1.0472 1.75313
207 -3.76136 -3.19736 -8.39709 -1.49471 -1.145 1.35483
208 -4.40819 -2.19962 -8.52098 -0.41187 2.40092 -0.374451
255 -3.60492 -1.5265 -8.4272 -0.437459 -1.20666 -2.07938
541 -4.57887 -1.48741 -7.75824 -0.457793 0.34225 2.30554
494 -3.52175 -2.28366 -7.78136 -2.5559 -1.92781 -2.50961
4363 6.8891 -0.0584245 -3.889 0.665124 -2.29377 -0.755352
497 -3.08101 -3.23225 -7.66447 2.27257 -0.713762 0.227552
211 -2.36032 -3.18609 -8.55737 -1.85033 0.100151 -0.0519959
212 -2.96329 -2.32978 -8.53204 -0.765905 -0.182642 -1.24234
498 -2.39605 -2.32491 -7.66447 -0.0064457 -1.76558 2.8468
245 -7.71029 -1.52388 -9.23339 0.179815 -1.90362 -0.0432207
545 -3.03622 -1.36026 -7.49073 0.893908 0.0975251 1.51509
216 -1.55938 -2.31995 -8.43418 1.59343 -2.18508 1.54766
220 -0.0443927 -2.26623 -8.48777 -1.19094 -0.390088 2.00291
553 -0.0334651 -1.67602 -7.68762 0.833141 -2.11055 2.02351
263 -0.832318 -1.6284 -8.37067 -1.34189 -0.692946 1.31241
1746 -2.42376 -8.41111 -0.168011 1.22426 -0.807352 -0.170935
224 1.6533 -2.37002 -8.70594 0.165647 0.579123 -1.14664
267 0.791418 -1.65891 -8.4385 -2.10719 -1.57245 0.158579
228 3.06162 -2.18802 -8.49216 0.22356 1.99858 0.790908
510 2.23712 -2.28558 -7.72303 -1.84641 1.73532 0.553291
232 4.59528 -2.29359 -8.36353 0.0354368 -2.1856 -1.66169
275 3.8736 -1.4702 -8.40113 -1.11026 -0.0454968 -0.770626
565 4.59744 -1.3828 -7.79377 -1.17296 -2.98849e-05 1.23043
514 3.78747 -2.35246 -7.81681 -1.84759 2.47169 0.581572
1777 9.18744 -7.80492 -0.129916 -0.412089 0.761515 -0.102765
231 5.35582 -3.12438 -8.28643 -1.9724 -0.478251 0.298944
236 6.25054 -2.28736 -8.37807 -2.74839 -0.59511 1.62879
518 5.36068 -2.19897 -7.64348 -0.280143 -1.80021 -0.725618
329 6.12428 -9.19681 -7.65031 -0.710385 -2.37531 -2.70403
235 6.85147 -2.96019 -8.34546 -0.181945 1.77615 0.504771
525 7.59432 -2.89158 -7.72452 -0.821628 1.53545 -1.12235
240 7.65647 -2.21256 -8.48959 0.0531117 2.22773 -1.62642
283 6.91956 -1.50211 -8.48295 -1.07437 0.534267 2.26113
522 6.88633 -2.18187 -7.74681 -0.513072 2.34319 -1.82343
196 -9.19776 -2.40102 -8.48821 0.0646509 0.500293 1.56738
287 8.56601 -1.5271 -8.45313 -0.462735 -0.342701 -0.369644
526 8.33588 -2.27066 -7.60491 -1.91282 2.43681 -1.05424
529 -9.10773 -1.56804 -7.74184 -1.06183 -0.437147 -1.86522
244 9.03667 -0.697515 -8.64919 0.363659 -0.677966 0.508031
530 -8.52037 -0.785696 -7.804 -2.44035 2.21942 0.296661
1978 -5.43043 -0.90788 -0.119814 -0.740171 2.16739 1.255
327 5.39704 -9.16088 -6.82213 0.0603216 -0.60391 -1.14848
247 -6.83261 -1.48832 -8.44041 1.32876 1.03876 1.47321
248 -7.60303 -0.46858 -8.23719 0.109668 -0.47689 0.72881
534 -6.79905 -0.690759 -7.69832 -1.53671 0.440434 2.32274
1191 5.46914 -9.17339 -2.27683 -0.72338 -3.96332 1.24329
252 -6.11487 -0.606374 -8.42169 -0.289598 2.52435 0.266136
538 -5.28362 -0.544936 -7.60181 -1.77693 -0.744433 -0.0969204
4899 -8.53772 -0.119433 -0.726564 1.20328 1.80166 -0.158713
537 -5.94871 -1.45991 -7.73674 -0.927765 -3.57181 1.75718
261 -1.52069 -1.67676 -9.19347 0.13399 0.326318 -0.44378
4075 6.79824 -0.0238736 -5.40855 -0.842952 -0.280408 0.116354
256 -4.41656 -0.802082 -8.45743 -0.173465 -3.19511 0.0235957
542 -3.66587 -0.616904 -7.67015 0.251447 -0.52162 -2.60629
4321 9.16724 -0.278098 -4.5166 4.16345 2.34644 -0.239498
259 -2.32889 -1.50028 -8.32862 -0.901486 2.74592 0.771894
260 -3.10182 -0.616753 -8.43122 0.498774 1.10532 -0.185474
249 -6.08449 -1.57726 -9.02604 -0.646053 -1.83305 0.90673
546 -2.19069 -0.628819 -7.75463 -2.56161 0.311025 0.0316971
1938 -2.37421 -2.32821 -0.0653032 -0.172978 -0.720339 -1.64008
1821 7.66247 -7.68032 -0.0895824 0.699554 -0.453796 0.433455
4943 8.42286 0.00521632 -0.679898 0.567173 0.227829 0.100496
4069 4.64629 -0.056146 -6.29727 -0.845804 -0.114272 0.480755
264 -1.35431 -0.737194 -8.42705 -0.216329 2.02845 -0.47719
550 -0.76777 -0.76406 -7.74068 1.24075 -0.957511 0.288681
549 -1.62224 -1.63199 -7.71399 -1.19607 -0.257373 -0.468447
317 1.48792 -9.04558 -7.60908 1.7379 -0.896992 1.1957
268 0.146844 -0.714966 -8.29548 -0.0257098 -1.06645 -1.26042
4619 -5.37701 -0.115132 -2.36453 -0.582916 0.0524992 2.06448
319 2.20339 -9.07987 -6.82592 1.7508 2.02103 -2.68569
1726 8.35203 -0.878591 -1.45278 0.06498 1.08137 0.667654
557 1.53296 -1.62087 -7.66612 1.32765 0.232702 -1.62902
272 1.51474 -0.748962 -8.42634 -2.83805 1.27769 0.332706
271 2.25564 -1.58931 -8.47094 -0.154491 1.8 2.44319
276 2.83382 -0.493933 -8.54028 0.131489 -0.280051 -1.09619
558 2.16697 -0.650348 -7.56971 -0.270777 0.195303 0.628331
4349 1.62814 -0.0189547 -4.5132 -0.693687 -0.613662 0.312152
280 4.52119 -0.59824 -8.57564 0.359292 -2.41088 1.49532
562 3.75845 -0.659625 -7.73922 -2.5931 -1.70076 -1.27865
1727 8.50656 -1.61784 -0.567343 -1.17325 -2.49233 0.761383
106 -5.2602 -5.29748 -9.24486 1.67584 1.42014 -2.10301
35 3.75927 -9.13357 -8.36554 -1.21963 2.87456 1.27884
321 2.93766 -9.12212 -7.5673 0.566244 0.645971 -1.17004
279 5.45909 -1.43903 -8.40949 -2.36867 0.131734 2.01337
284 6.20592 -0.879981 -8.57331 -0.526058 1.02453 0.665868
566 5.30831 -0.732964 -7.74459 0.970633 -1.06081 -1.02209
569 6.13734 -1.42769 -7.7304 1.44029 2.77164 -0.23758
206 -3.72476 -2.37963 -9.20203 2.30078 -2.63237 -0.723223
881 -2.94175 -9.19529 -4.52722 2.6908 -0.91587 -1.42916
288 7.66767 -0.751385 -8.38531 -0.284712 0.112853 1.17842
4061 1.46282 -0.0189696 -6.05676 -1.17774 -0.963297 -0.830298
1175 -0.885199 -9.02537 -2.27522 -0.296372 1.10036 -1.84707
574 8.55107 -0.771879 -7.76693 1.75629 -0.815129 -0.744166
4337 -3.07135 -0.161549 -4.34224 0.582279 -2.31297 -1.04752
4333 -4.55616 0.0421461 -4.63106 0.633713 3.52105 -0.081133
869 -7.6689 -9.12055 -4.64884 0.210644 -2.80904 0.638925
290 -8.42081 -8.31402 -7.69716 0.275829 0.304732 0.753664
292 9.14335 -8.46427 -6.78284 1.53108 -1.05388 3.20932
578 -8.37299 -8.47567 -6.27302 -2.2052 -0.0790624 2.45993
3477 -1.45596 0.00629986 -9.16327 -1.45802 0.943288 -0.479769
201 -6.17792 -3.13091 -8.94925 -0.418312 0.407575 0.850605
1769 6.10845 -9.19534 -0.25676 0.00137732 0.0322308 -3.13866
294 -6.99468 -8.6092 -7.79934 -1.5265 -0.855065 0.862186
296 -7.754 -8.53555 -7.02374 -1.88367 -2.09576 1.47978
582 -7.02463 -8.53653 -6.29909 0.204828 -1.85033 -1.01266
181 4.63868 -4.62059 -9.08928 -0.399967 4.21665 -0.176174
300 -6.07876 -8.53519 -7.0484 -0.161221 -0.57489 2.62653
586 -5.45395 -8.52443 -6.24569 0.45096 0.917793 1.00998
1893 -1.55021 -4.66331 0.0135596 0.131117 1.77518 1.38465
302 -3.84418 -8.52654 -7.69181 2.50571 -2.41654 0.45514
304 -4.67567 -8.52096 -6.89868 -1.1686 1.61437 0.184656
351 -3.78685 -7.72521 -7.0337 0.547784 -1.60429 2.16131
309 -1.58555 -9.09851 -7.75351 3.17797 1.5587 -0.756881
590 -3.90106 -8.39175 -6.28658 2.98786 0.408014 -1.14499
308 -2.97015 -8.4447 -6.89694 -3.41431 0.981206 0.575272
355 -2.30114 -7.72692 -6.84761 -1.06521 2.06033 -0.61092
594 -2.28032 -8.34653 -6.10513 -1.30768 1.07571 1.32932
641 -3.11448 -7.66031 -6.29104 0.447009 -0.848833 0.142259
312 -1.4574 -8.20706 -6.92043 3.72623 1.47749 1.01766
359 -0.635132 -7.67983 -6.7817 2.23902 -0.947004 -1.41588
598 -0.775039 -8.42707 -6.06894 1.38286 -0.210037 -1.11419
316 -0.130631 -8.49792 -6.88391 -1.50292 0.341675 1.18242
62 -3.78912 -6.95369 -9.11814 1.20343 0.160451 -1.36985
320 1.47841 -8.09393 -6.81579 1.52232 0.890392 -1.59318
602 0.671144 -8.42021 -6.13356 0.238713 1.23138 0.985698
233 6.27064 -3.15705 -8.98337 1.9901 0.0702055 0.674065
324 3.00638 -8.27047 -7.09632 1.4137 0.680609 -0.258883
606 2.38479 -8.32433 -6.21115 -1.28564 1.36492 -1.92753
4035 -8.70892 -0.0317408 -5.35517 -0.0964032 2.38743 0.162104
1981 -4.61777 -1.67772 -0.0189167 1.87825 -0.492825 0.366392
4913 -3.10154 -0.0112314 -1.49583 0.118774 0.206768 -1.87237
328 4.67389 -8.52187 -6.92881 0.610128 2.59497 -3.17181
610 3.8725 -8.57119 -6.08254 1.53445 0.71173 1.0663
1459 -2.37672 -9.15037 -0.819475 -2.21144 0.929849 -3.3283
326 5.27472 -8.51387 -7.69653 1.73401 0.877347 1.5753
332 6.13409 -8.5933 -6.82568 -0.180934 -1.95922 1.33035
614 5.37133 -8.53421 -5.99022 -1.48256 -2.65853 2.64258
1473 3.1136 -9.17555 -1.46398 0.0725309 -1.4024 0.369789
336 7.6744 -8.48894 -6.94155 -0.843159 -0.0578355 -0.797549
3479 -0.696043 -0.0646637 -8.43136 2.63524 -0.741125 -0.0641818
334 8.59082 -8.42399 -7.69317 0.826924 -0.600458 2.18356
383 8.50328 -7.69476 -6.87377 0.751529 -2.22303 -0.843882
339 -8.23852 -7.72221 -6.89394 0.355845 -0.885223 -0.184049
626 -8.4684 -7.0415 -6.30759 -2.457 0.962684 1.70884
341 -7.58517 -7.72779 -7.85916 0.845678 -1.81414 -0.117982
343 -6.98458 -7.82458 -7.05831 -0.534453 -1.79674 2.21045
344 -7.47718 -6.93897 -7.03506 2.50023 -3.04762 -0.90332
629 -7.66618 -7.81868 -6.06074 1.7283 0.963701 -2.84746
347 -5.36992 -7.69295 -7.03659 -1.22886 0.426482 2.10831
348 -6.27013 -6.94703 -6.87967 0.215138 -0.800724 1.14126
395 -5.59857 -6.16694 -6.89639 -1.7264 2.5114 2.2075
633 -6.31578 -7.80656 -6.26073 -0.904558 1.60226 1.19974
634 -5.41953 -6.88912 -6.21746 0.944636 -0.527865 1.71853
352 -4.71103 -6.92475 -7.02537 0.137152 -0.108627 -2.9882
637 -4.70839 -7.82079 -6.11887 0.0630468 -0.892916 1.66675
638 -3.98468 -6.9537 -6.32596 0.720863 2.1212 2.13816
356 -3.13759 -6.86528 -7.11402 -2.68743 0.107789 -0.079176
354 -2.26169 -6.87318 -7.5409 1.90523 0.682543 2.57854
642 -2.32382 -6.82119 -6.19275 1.92593 1.27872 0.289241
360 -1.50851 -6.72532 -6.95339 1.69682 0.0694002 1.47548
646 -0.842559 -6.76402 -6.1331 1.16146 -0.312791 0.450306
358 -0.613476 -6.91662 -7.71379 0.226972 -1.33252 -0.179599
409 -0.0151471 -6.14438 -7.49498 2.74992 0.744085 2.58642
364 -0.0142462 -6.7618 -6.7362 1.95312 0.112339 0.0156379
697 -0.00181741 -6.03754 -5.90057 1.92187 0.464158 -1.35858
411 0.783936 -6.12282 -6.74226 -0.621845 -1.98164 2.05032
363 0.729097 -7.54848 -6.77108 0.458701 0.338935 0.500651
368 1.532 -6.93139 -6.93084 -2.49884 1.75945 -0.577505
653 1.56886 -7.47388 -6.10461 1.57667 -0.0545242 1.51595
650 0.784322 -6.8487 -5.93629 0.0131105 0.367023 -2.57781
367 2.41624 -7.51299 -6.7814 -2.6745 1.77097 -0.925783
372 3.09605 -6.8321 -6.80918 0.20719 0.850152 -2.5633
657 3.1749 -7.73646 -6.06137 -0.855196 0.660423 -2.02731
654 2.38281 -6.85693 -6.11888 1.30921 -1.90339 -1.04399
373 4.60034 -7.7729 -7.72427 2.94657 0.617036 -0.374885
371 3.8721 -7.70132 -6.87221 1.49264 -1.59041 0.253662
376 4.70952 -7.09479 -6.99038 0.829367 0.469619 -0.272688
419 3.84255 -6.2004 -7.01585 -0.522404 0.658444 -0.359096
421 4.64393 -6.10829 -7.63748 0.802092 0.749361 0.065529
377 6.16677 -7.84033 -7.73102 -0.479479 -0.132476 -0.556071
375 5.32505 -7.80932 -6.94798 -2.15965 0.550909 -0.772356
380 6.00664 -7.10179 -7.06104 3.74201 -0.936404 -1.47419
665 6.0525 -7.79477 -6.24815 1.85388 1.64356 1.2054
662 5.31715 -6.95133 -6.08993 2.22394 -1.01933 2.68265
379 6.98776 -7.80713 -7.07985 1.18553 -0.403242 0.407761
384 7.72813 -6.87138 -6.87562 0.702954 0.139984 1.03734
669 7.70304 -7.74531 -6.30569 -0.814786 2.63463 -0.0795547
666 6.70537 -7.03915 -6.21191 -0.614089 2.47072 0.16657
340 -9.2233 -6.96749 -7.07663 -1.32175 0.513217 0.404024
387 -8.39436 -6.24442 -7.01401 -1.27279 0.154311 -0.411271
435 -8.51434 -4.69692 -6.76719 -1.48945 0.799485 -1.27084
674 -8.37131 -5.52599 -6.03591 0.768274 -1.24483 1.19904
391 -6.99027 -6.09997 -6.89117 0.647132 -0.920771 -1.32665
437 -7.63461 -4.59542 -7.51855 -2.18518 0.799191 0.243401
392 -7.74326 -5.4941 -7.08289 -1.62343 0.674965 -2.31556
439 -6.87261 -4.53816 -6.89429 1.25142 -2.37578 -0.216404
678 -7.23986 -5.39923 -6.26492 0.0496891 -2.68404 3.13246
725 -7.56986 -4.50961 -6.2185 -0.0902502 -2.08533 -2.49881
396 -6.24078 -5.40832 -7.02685 0.147856 -2.98798 -1.54695
441 -6.11231 -4.67601 -7.65193 -0.904747 2.70263 1.06678
682 -5.47023 -5.34613 -6.13702 -0.251327 2.79892 1.37862
681 -6.30522 -6.02227 -6.2198 0.44438 -1.77017 0.62135
399 -3.81261 -6.09913 -6.9401 -1.17543 0.128777 1.0698
400 -4.53104 -5.25924 -6.82852 2.6327 0.472919 -0.447623
686 -3.72074 -5.34817 -6.07227 -0.68249 -1.73866 1.0536
447 -3.79407 -4.46725 -6.68542 0.301192 -0.025842 0.932363
403 -2.22811 -6.05358 -6.84617 -0.0291046 0.0966372 -0.115332
404 -3.10552 -5.23415 -6.78268 0.287542 -0.314381 -1.49189
451 -2.3024 -4.58658 -6.99486 0.917131 1.15959 1.42593
407 -0.771487 -6.09058 -6.83437 0.818809 -2.56281 2.03307
408 -1.50108 -5.39588 -6.9718 -1.02784 -1.20627 0.637746
693 -1.6338 -6.03668 -6.14155 0.363117 0.932408 -1.20422
741 -1.54264 -4.53215 -6.25457 -0.00506352 0.737276 -1.73094
694 -0.813722 -5.27693 -6.13372 -0.620742 -1.58879 -0.522838
412 0.0013262 -5.33906 -6.76785 1.42754 -1.63573 1.13247
455 -0.722095 -4.48081 -6.79462 1.75402 0.390672 0.10145
410 0.837543 -5.38954 -7.46282 -2.06999 -0.716036 0.950428
413 1.56979 -6.06986 -7.69119 0.210013 0.957018 -1.51856
701 1.50177 -6.22718 -6.05292 -2.09063 0.751055 0.19508
416 1.48135 -5.38899 -6.70171 2.40825 2.43504 1.27453
415 2.29294 -6.18625 -6.95232 0.323131 0.258609 1.41189
417 3.0599 -6.13513 -7.80922 0.495688 -0.16217 0.602293
414 2.34634 -5.28101 -7.79058 -1.19555 0.144718 -1.97361
420 3.10212 -5.54536 -6.99658 -1.2629 -0.81956 2.06328
418 3.81757 -5.47541 -7.8216 -1.66458 2.12127 -0.244323
424 4.47391 -5.50494 -7.00461 2.01074 -2.00307 0.309902
706 3.92672 -5.32921 -6.10233 -1.06345 -0.0475068 -2.81754
425 6.15336 -5.97615 -7.66439 -1.8657 0.758138 0.262259
423 5.34849 -6.29198 -6.88367 1.10822 -0.424876 -0.530941
428 6.22812 -5.39957 -6.8644 0.13001 0.90549 3.14013
429 7.70228 -6.2218 -7.67289 1.28825 0.157873 -3.17735
427 6.88203 -6.29202 -7.03006 2.50347 -2.62118 -0.567547
432 7.74513 -5.43498 -7.06467 -0.724483 0.0860287 -1.80989
717 7.76835 -6.13727 -6.09054 0.308786 -0.902301 2.09695
714 6.94234 -5.4972 -6.25329 -0.955896 0.101216 -0.433377
388 -9.20303 -5.38041 -6.83707 -0.266404 -1.24998 0.598308
431 8.504 -6.19397 -6.99496 2.32569 1.72091 1.63085
673 9.1831 -6.12674 -6.15583 0.890285 -0.46354 -1.37351
436 -9.192 -3.85771 -6.88904 1.20795 0.121553 1.4284
440 -7.75462 -3.78729 -6.95338 0.38781 2.08101 -0.438323
726 -6.91948 -3.64525 -6.17749 -0.531828 -0.03034 0.0253423
487 -6.73333 -2.99903 -6.88114 2.76351 0.984547 1.72335
443 -5.29359 -4.62147 -6.90894 -0.607035 1.61494 0.157512
444 -6.17959 -3.81321 -6.83342 0.772164 0.865179 1.78592
491 -5.39611 -3.0948 -6.86583 -1.2518 0.0920006 0.772398
730 -5.49295 -3.71424 -6.07012 -1.4035 -0.785446 0.107374
777 -6.10427 -2.86084 -6.02023 -0.571318 -1.44418 -1.39344
448 -4.59583 -3.71179 -6.85175 0.764952 0.604913 -2.35484
734 -3.80896 -3.57592 -6.12007 -0.657963 -0.461083 0.69934
452 -3.10147 -3.79289 -6.7362 -0.875375 0.172562 1.04244
737 -3.14213 -4.54893 -6.0421 0.239216 -4.52618 0.331905
738 -2.27052 -3.90837 -6.2079 -1.89704 -0.586203 -0.213546
456 -1.4822 -3.69651 -6.92004 1.55516 -0.0465061 0.129002
742 -0.815349 -3.67011 -6.14611 -0.0084881 1.32693 0.682169
503 -0.832329 -2.92404 -6.98895 1.81781 1.57695 1.74862
789 -1.53025 -2.95494 -5.93859 -2.45496 -1.45416 -0.48954
505 -0.114627 -3.0025 -7.68933 1.63165 -1.35978 0.244871
459 0.866273 -4.64847 -6.81041 -1.38358 -1.30993 -0.0105467
460 -0.0386868 -3.71327 -7.12204 1.35311 -1.56604 1.48804
745 -0.0384293 -4.50209 -6.15304 -2.47827 -2.18818 2.38352
793 -0.0620743 -3.02959 -6.01778 1.40832 -0.367463 1.11972
458 0.711609 -3.83081 -7.68537 -1.2624 1.75369 -1.83273
464 1.40144 -3.85728 -6.92985 1.24519 0.41067 1.96096
509 1.57563 -2.96447 -7.76555 2.22283 -0.170639 0.803841
462 2.28978 -3.87985 -7.59321 -0.479948 0.189082 0.0769211
463 2.28459 -4.72589 -6.95315 -0.647613 1.1767 2.69045
468 3.13994 -3.92218 -6.89252 1.93934 -1.67484 3.40795
511 2.1939 -3.18499 -6.99899 -1.41508 -1.33934 -1.99354
753 3.06636 -4.75342 -6.31416 1.72794 -0.378265 2.40967
466 3.90948 -3.4749 -7.41064 -1.21352 0.908582 0.132147
467 3.89938 -4.47164 -7.20173 0.626021 1.91734 -0.942591
472 4.74549 -3.52516 -6.82901 0.189702 -1.54579 -1.10296
473 6.11365 -4.67724 -7.73697 -1.40644 -0.371559 -0.280871
471 5.28463 -4.3644 -6.76957 0.103516 3.7216 -2.1074
761 6.02169 -4.70514 -6.17469 -0.209087 0.441702 -2.47416
476 6.24126 -4.06226 -7.06641 -0.194162 -0.76591 1.54967
475 6.99729 -4.69992 -6.88177 -0.0699927 0.334605 -2.18071
474 6.8337 -3.58865 -7.70841 2.4467 -2.9541 -0.968922
480 7.67628 -3.82619 -7.10544 0.19179 0.503205 0.371187
762 6.88758 -3.67052 -6.03845 0.165169 1.06425 0.463901
813 7.57309 -3.01889 -6.21087 -0.0175001 -0.497588 -0.63101
765 7.80079 -4.44353 -6.17232 2.50071 -2.25867 1.57137
433 -9.18356 -4.61504 -7.50746 0.877735 -1.7324 1.70069
479 8.32949 -4.60753 -7.05052 0.179765 0.917324 -0.547236
769 -9.09445 -2.97715 -6.21193 -1.45446 -2.59466 -0.656622
483 -8.52438 -2.96272 -6.9113 -1.90209 -2.15757 -1.29858
770 -8.41302 -2.29559 -6.0706 -0.423878 1.64184 0.51557
484 9.19472 -2.33091 -7.02298 1.02446 1.50197 2.19384
773 -7.64471 -2.9151 -6.38806 2.66904 1.83282 -0.567841
488 -7.64393 -1.9651 -6.92541 -1.42846 2.70663 2.29374
535 -6.89112 -1.33213 -7.00875 0.577462 -0.444713 -1.16007
774 -6.95983 -2.22342 -6.22479 -2.06605 0.678806 -1.60339
492 -6.26201 -2.15081 -6.94397 -0.451573 0.771311 -0.808308
778 -5.38798 -2.1871 -6.26898 1.30393 -0.180428 0.0801512
825 -6.15722 -1.32635 -6.20623 2.16697 -0.267696 -0.73107
493 -4.57794 -3.0893 -7.66387 0.398106 -0.903323 -1.8783
495 -3.75213 -3.10116 -6.9555 1.53518 -1.1681 -1.21002
496 -4.45743 -2.33408 -6.98947 -0.53204 1.863 0.50991
543 -3.89456 -1.49128 -6.93732 -0.737902 -0.914258 -2.63747
782 -3.77281 -2.41268 -6.17799 2.87775 1.35832 1.05081
781 -4.68936 -2.96468 -6.21709 -1.09838 -0.617429 -0.00739581
785 -2.89217 -3.01174 -6.11432 -0.0420511 -2.47366 0.394503
499 -2.21776 -3.14329 -6.89551 2.72702 -0.257016 -1.61446
500 -3.05597 -2.25173 -6.87989 0.153833 -1.84984 0.393382