ITEM: TIMESTEP
20000
ITEM: NUMBER OF ATOMS
6912
ITEM: BOX BOUNDS pp pp pp
-9.2265715179435492e+00 9.2265715179435492e+00
-9.2265715179435492e+00 9.2265715179435492e+00
-9.2265715179435492e+00 9.2265715179435492e+00
ITEM: ATOMS id x y z vx vy vz
4 -9.1761 -8.4529 -8.46724 0.583739 -0.542077 -0.748551
290 -8.34858 -8.50372 -7.73576 -1.33321 0.408071 0.763156
51 -8.42062 -7.5416 -8.45862 -1.82521 3.08428 2.24888
5185 9.18405 -0.0474822 -0.0208947 0.942073 1.80255 -0.540589
8 -7.60699 -8.31838 -8.55435 -1.91846 0.825226 -0.76012
55 -6.85304 -7.70465 -8.54163 0.280055 -2.53202 -1.82392
341 -7.58676 -7.72327 -7.62828 -0.911767 3.97186 0.394295
294 -6.72352 -8.28598 -7.69799 0.353363 0.122556 -1.05393
3483 0.769822 -0.112435 -8.39042 1.49791 1.60172 -0.239826
12 -5.95583 -8.25252 -8.476 1.70174 -1.20544 0.5868
59 -5.2551 -7.52414 -8.40357 0.207027 0.128773 1.38782
93 7.64256 -7.9787 -9.22219 1.02523 0.392852 -3.47368
3485 1.61984 -0.0130321 -8.9899 1.20394 2.5775 -0.749257
16 -4.77451 -8.31719 -8.47191 -0.978143 -0.851358 2.79616
1727 8.37169 -1.72515 -0.637805 1.7554 1.56344 0.93804
63 -3.90745 -7.64132 -8.47915 -1.3189 1.43746 -0.897079
613 4.58176 -9.04927 -6.06865 -0.72252 1.7029 -1.05812
1910 5.41232 -3.88151 -0.0298138 -1.68575 0.772026 0.679073
20 -3.14263 -8.45052 -8.38487 -0.0534598 2.49245 -1.52564
4339 -2.36053 -0.0769698 -3.74103 -0.764217 1.65836 0.997795
221 1.51324 -3.05298 -8.96619 2.31207 -1.23458 1.20896
1750 -0.799928 -8.39925 -0.0244376 -1.74297 0.903397 -0.568243
257 -2.88288 -1.48328 -9.1944 0.0985081 0.99746 -0.364718
24 -1.66459 -8.6063 -8.42894 -0.824882 0.11492 0.622215
4649 6.21134 -0.0733281 -3.08706 -2.22007 0.519322 0.362464
28 -0.202591 -8.42015 -8.53634 -0.137455 -0.244678 -1.95639
75 0.66104 -7.80543 -8.45714 1.05892 -0.442688 0.0158481
361 -0.168228 -7.89385 -7.70232 -0.498375 -1.35845 -0.318979
32 1.47179 -8.57404 -8.42615 -0.512992 -1.08431 0.89968
314 0.809603 -8.42101 -7.72495 -1.31974 1.17342 -0.739512
36 3.14387 -8.31714 -8.38059 0.250556 0.254058 -3.30171
369 3.02457 -7.64609 -7.72948 -0.693937 -0.417032 1.88155
318 2.31272 -8.36773 -7.79681 -0.340248 1.61748 -0.25949
79 2.24791 -7.61 -8.47292 0.269908 1.43079 -2.9662
181 4.51897 -4.58511 -9.19537 1.35786 0.792177 0.200242
40 4.8078 -8.4579 -8.56378 2.34534 0.271705 -1.47016
322 3.83083 -8.32886 -7.69688 -0.981671 -0.160585 1.0738
83 3.84235 -7.44859 -8.4544 0.726498 1.05347 -0.85684
44 6.05338 -8.46037 -8.45425 1.2614 -0.157949 1.57394
87 5.45356 -7.7162 -8.52518 2.44137 -3.19272 -1.96582
377 6.18259 -7.79558 -7.72462 0.0135553 -1.21563 0.820882
48 7.84999 -8.56505 -8.40283 -1.90858 2.53653 1.99776
91 6.73924 -7.78792 -8.53745 -0.313771 -0.971429 -0.799132
330 7.01786 -8.48067 -7.73805 0.52838 2.3011 -0.406424
381 7.75587 -7.73013 -7.70846 -0.292434 0.641088 -0.541413
903 5.36147 -9.2133 -3.80011 3.03173 -1.41727 2.6307
95 8.55618 -7.73993 -8.38795 -0.288284 0.38418 -2.08567
177 3.02983 -4.65522 -9.13962 1.326 1.39933 -0.0950366
52 9.11092 -6.92446 -8.58237 -0.437306 0.355277 -0.418402
909 7.85436 -9.2388 -4.53411 0.632046 -1.41876 0.326651
56 -7.58459 -7.05047 -8.39373 -0.843066 0.833768 -0.517782
103 -6.88405 -6.31982 -8.56188 1.07 0.535785 -0.225155
60 -6.09328 -6.8898 -8.49168 -2.54283 -2.4452 0.242176
107 -5.57377 -6.08594 -8.41834 0.606889 3.57645 0.225424
393 -6.22946 -6.20806 -7.52878 1.01805 1.45166 0.386736
1187 3.90277 -9.20167 -2.44057 0.833395 0.165853 -0.989043
85 4.6254 -7.71005 -9.20755 -3.43356 -0.455806 -1.34288
603 0.851723 -9.09677 -5.27958 0.940575 -0.753014 -0.331549
64 -4.56694 -6.75286 -8.3681 0.186483 -2.44456 -1.1998
111 -3.74525 -6.2354 -8.57432 -1.06624 -0.0990165 -0.348971
45 7.65111 -9.18743 -9.1003 -0.208509 -2.33342 -0.564479
67 -2.29167 -7.69779 -8.46637 -0.693162 1.96718 -1.50623
68 -3.00027 -6.95235 -8.40932 -0.584558 -2.06862 -0.56571
115 -2.37812 -6.16954 -8.53294 1.47388 0.874045 0.20104
218 0.779526 -2.27829 -9.15936 1.2933 -0.144272 -0.83193
72 -1.65873 -7.01915 -8.51424 -0.559331 1.86741 2.09685
71 -0.870665 -7.741 -8.43279 0.107285 -0.666077 -2.70354
4335 -3.77401 -0.0577447 -3.84806 0.589067 0.0147016 -3.00488
358 -0.773587 -6.98924 -7.80301 3.00703 -1.08601 1.2998
4653 7.78856 -0.106948 -2.95867 -0.529495 -0.295358 1.5055
76 -0.0921656 -6.98761 -8.51145 1.64911 -1.60671 -0.229696
362 0.614667 -7.04141 -7.77111 0.991327 -0.958764 -0.63751
409 -0.0130234 -6.21652 -7.88471 0.629395 -0.492717 -3.28498
80 1.31705 -6.93174 -8.37157 -0.240149 2.20121 0.415367
123 0.665053 -6.15092 -8.63532 2.61103 0.49546 0.227225
413 1.40569 -6.13082 -7.64372 0.248226 0.514864 -1.24422
299 -5.56801 -9.23596 -6.85999 0.643259 -1.62084 0.699022
84 3.00262 -6.75842 -8.56913 -0.0499816 1.80351 -2.51344
127 2.03069 -6.21208 -8.44297 -1.85563 -0.127384 -2.41931
366 2.13751 -6.85268 -7.58893 1.89331 0.744932 2.20807
1153 -9.15194 -8.97237 -3.22835 1.83923 -0.359094 -0.822128
88 4.59022 -6.84337 -8.40908 0.589255 1.74478 -1.02412
131 3.76232 -6.16447 -8.47909 -2.10162 -1.3145 0.386574
421 4.56904 -5.97025 -7.851 1.11871 1.9827 1.74696
92 6.18823 -6.94478 -8.59581 0.663431 0.42153 0.37142
135 5.47959 -6.1826 -8.37346 -1.2093 0.658602 -1.62055
3781 4.61615 -0.109057 -7.79308 -0.428532 2.21675 -0.195649
96 7.6704 -7.01816 -8.51083 1.6393 -0.786952 1.80404
139 6.9233 -6.29078 -8.47162 0.144441 -0.384256 0.342175
1902 2.37235 -3.7308 -0.0914497 0.60487 -2.59448 2.13074
378 6.97908 -7.11409 -7.72754 -1.64054 -0.111495 -0.875609
4907 -5.53148 -0.0400486 -0.746316 1.0574 -0.170638 0.362466
382 8.55584 -7.00661 -7.70562 -0.315012 1.84622 1.79139
143 8.36407 -6.18401 -8.45539 1.05488 2.01352 -0.362763
281 6.11186 -1.51636 -9.22169 0.360629 1.22357 -0.444585
99 -8.35561 -6.12369 -8.77306 0.429435 -1.63446 0.220926
100 9.21177 -5.36045 -8.29003 0.53034 -1.81292 -1.26391
4905 -6.13301 -0.160135 -1.55416 -0.933385 1.54185 1.11847
104 -7.44699 -5.39156 -8.47912 1.59752 0.903125 0.954288
390 -6.74445 -5.35569 -7.74609 -0.60054 1.47595 0.973376
151 -6.84915 -4.51775 -8.57113 -1.53469 -0.636202 0.72942
4903 -6.74821 -0.00633204 -0.800008 -0.172018 0.868835 1.75851
1163 -5.41747 -9.20092 -2.23987 -1.1702 0.920606 -1.48749
108 -6.19523 -5.32693 -8.53615 -2.43529 -1.88989 0.0340965
155 -5.3834 -4.44068 -8.58299 -1.95156 -0.459641 -0.233088
441 -6.21928 -4.4666 -7.65223 0.589358 -2.71673 2.15366
112 -4.7412 -5.44321 -8.5758 -1.07953 -1.41949 2.03419
159 -3.79996 -4.50657 -8.48866 -0.226853 -0.781316 -1.04682
398 -3.94282 -5.51782 -7.98003 -0.317094 -3.20515 2.18708
445 -4.56154 -4.6813 -7.70506 0.725037 1.40746 -0.725324
157 -4.6195 -4.54044 -9.20345 1.93762 1.93817 -1.12452
116 -2.92946 -5.38597 -8.69338 0.896229 -1.16185 -0.22685
163 -2.30231 -4.43883 -8.51309 1.49333 -0.676738 0.042662
402 -2.3293 -5.35576 -7.84917 -0.204733 -2.41987 1.62608
1179 0.78886 -9.04509 -2.27554 -1.18414 -1.32755 2.17263
883 -2.30533 -9.1804 -3.89331 1.03456 1.16544 -0.276019
120 -1.54433 -5.36672 -8.40123 3.07121 -0.698379 0.57375
167 -0.735031 -4.47023 -8.39522 -0.726388 -2.07646 -1.95871
119 -0.780948 -6.23876 -8.4738 -0.053254 -1.32314 -0.238519
331 6.93108 -9.12231 -6.91261 1.35369 0.941602 2.53905
124 -0.0780931 -5.34237 -8.57566 -1.71391 -1.09925 -1.05915
3467 -5.43651 -0.00318119 -8.30749 -1.22037 -0.095833 -1.07113
457 0.0542656 -4.52238 -7.70902 0.937074 -0.0889201 1.93304
250 -5.34805 -0.679783 -9.12596 -1.87724 -1.52936 -0.309427
410 0.657628 -5.40943 -7.79388 1.78592 0.894658 1.03055
128 1.40266 -5.41491 -8.47647 -0.178016 0.823305 1.87042
461 1.53197 -4.61332 -7.72264 -0.828059 -1.52461 0.503415
171 0.779877 -4.58353 -8.4221 2.1194 0.942529 -1.14882
132 2.84127 -5.3684 -8.49079 -1.62935 -0.401907 0.357835
414 2.25134 -5.42186 -7.6278 -0.805373 1.78934 -2.27133
175 2.21382 -4.58247 -8.44651 -0.547227 -0.68497 -1.027
136 4.52631 -5.46801 -8.72971 0.258157 -0.235921 2.46906
418 3.61348 -5.28666 -7.79237 0.573449 -0.347925 -0.0790626
469 4.48686 -4.84021 -7.75159 -0.239056 0.547854 -2.17811
179 3.79175 -4.61891 -8.49821 0.37083 -1.27802 0.186976
140 6.07754 -5.40815 -8.66021 -0.0107371 -2.76064 -3.25421
183 5.40436 -4.5103 -8.38096 -1.69171 -0.429074 0.329911
321 3.09439 -9.22157 -7.61285 2.40589 -0.490817 -1.05853
426 6.90769 -5.31172 -7.83065 1.45505 -1.95043 0.428584
4329 -6.22828 -0.053082 -4.62061 -0.322566 2.53262 -1.33627
1894 -0.783765 -3.8482 -0.0278791 2.22431 2.85299 -0.175764
429 7.73581 -6.16146 -7.73026 0.816218 -0.0250814 -3.50658
144 7.65889 -5.45584 -8.52871 -0.298419 -1.92803 -1.78645
3769 -0.338494 -0.0692246 -7.80692 0.0214147 -0.380399 0.49061
1467 0.729161 -9.22277 -0.726243 -0.968341 -0.368597 1.3265
147 -8.37576 -4.59755 -8.56899 2.16629 0.707709 -0.749258
195 -8.48857 -2.99496 -8.56287 1.21249 -0.227854 -1.6915
148 -9.1691 -3.69945 -8.48282 0.0957611 -0.0785219 -0.131872
433 -9.04189 -4.60115 -7.77586 2.07922 -0.491649 -0.259466
145 -9.09934 -4.80902 -9.14116 0.675877 -1.76047 0.107539
152 -7.63872 -3.79046 -8.62023 0.304709 -0.0266778 -0.556324
438 -6.91026 -3.77867 -7.83826 0.510665 1.07397 -1.52083
595 -2.32233 -9.20253 -5.44495 -0.280786 -1.04342 1.55765
156 -6.14157 -3.79794 -8.44422 0.412277 -0.238142 -2.27607
442 -5.53003 -3.71854 -7.61894 1.75538 1.35139 -0.882683
160 -4.55036 -3.81486 -8.26998 -0.545162 1.50916 0.251604
891 0.707849 -9.0766 -3.94324 1.31833 -0.772981 -0.983841
493 -4.53909 -2.91628 -7.83591 0.7311 -0.772112 -2.08529
4327 -6.91772 -0.0246377 -3.79125 2.58647 -1.32121 -0.603874
164 -3.13431 -3.86007 -8.56872 0.210078 -3.00053 0.151416
211 -2.36069 -2.98964 -8.39714 0.0896681 -1.33765 1.13206
497 -3.01179 -3.04483 -7.67018 -2.08387 3.28859 -1.98072
168 -1.51797 -3.64052 -8.42944 0.815088 -1.01644 0.38757
501 -1.54385 -3.03712 -7.69344 -0.122763 1.67329 0.384507
172 -0.053837 -3.79824 -8.39648 2.64951 1.58113 0.8921
454 -0.840237 -3.82517 -7.63752 1.14755 0.196014 1.0719
254 -3.73351 -0.656349 -9.17018 -0.12547 -1.97241 1.03833
176 1.41293 -3.77123 -8.4358 1.0665 2.07821 -0.877109
458 0.827636 -3.55258 -7.57076 -0.849644 -1.09085 2.00409
4345 -0.0512128 -0.0217753 -4.35889 0.435184 4.45364 2.40265
70 -0.910731 -6.96152 -9.21327 2.95952 -1.72352 -1.7535
180 3.01894 -3.75408 -8.34966 -0.982344 0.158694 -0.92619
462 2.20663 -3.81356 -7.6913 -1.53987 0.69293 -0.468963
465 2.95322 -4.50952 -7.67022 1.21405 -1.56791 0.257855
184 4.40398 -3.85731 -8.4027 -1.3204 1.7352 -1.48399
466 3.811 -3.98658 -7.4361 0.691466 2.38344 -0.527009
227 3.7747 -3.12301 -8.36929 -1.3019 0.920656 0.273038
517 4.60605 -3.0273 -7.79487 -0.682046 -0.366754 1.00242
188 6.09217 -3.76746 -8.34129 -1.89095 0.89492 -0.882183
231 5.29106 -3.07341 -8.54182 0.475253 -0.729047 1.38183
470 5.37277 -3.86824 -7.60139 1.18043 0.506235 1.86068
477 7.64399 -4.47149 -7.66726 -2.66096 -1.18571 0.87727
187 6.82584 -4.44801 -8.40267 -0.697627 -1.37776 0.735901
192 7.49622 -3.70435 -8.54659 1.11854 -0.0381668 2.32085
191 8.54343 -4.44951 -8.32745 0.22311 -0.128653 -0.337473
239 8.51747 -3.03031 -8.54 -0.864166 0.0507098 0.342909
1866 6.99659 -5.47237 0.00627832 -0.00478958 0.360164 2.85768
196 9.1381 -2.34181 -8.6258 -0.36243 -0.00131223 -1.17235
1191 5.39398 -9.15897 -2.30669 -1.78867 -1.33701 -1.55149
199 -7.016 -2.9779 -8.63135 -0.537093 0.728239 -0.506352
200 -7.74047 -2.33963 -8.53745 0.0336434 -0.336541 0.897242
247 -6.93167 -1.59372 -8.56327 -0.701018 2.10412 1.66866
282 6.85782 -0.798198 -9.17076 0.97731 1.69374 -0.523966
203 -5.41433 -3.14229 -8.27043 0.176793 0.176832 1.76848
204 -6.1454 -2.29339 -8.37965 -1.55616 1.4591 -1.32584
251 -5.3401 -1.32289 -8.42634 -2.1902 -1.96507 -2.85994
4627 -2.27819 -0.136943 -2.3147 -1.81308 -0.808744 1.64057
1159 -6.9795 -9.21735 -2.2313 -0.234602 -1.20651 0.356053
207 -3.71494 -3.06111 -8.55538 -1.82373 -0.474029 -1.15364
208 -4.56742 -2.12873 -8.48291 -1.95533 -0.396531 0.913445
541 -4.63816 -1.37856 -7.62819 0.690552 0.739974 -3.21807
255 -3.8267 -1.35332 -8.44624 0.319407 1.09199 -1.42607
212 -3.12238 -2.25523 -8.47658 -0.824331 -0.100895 1.16773
259 -2.31332 -1.63653 -8.44027 -0.506422 2.75375 -1.59349
545 -3.12955 -1.43571 -7.61111 0.924104 -1.10427 0.103009
607 2.25132 -9.01163 -5.42889 -0.618176 2.54754 2.38144
215 -0.804194 -2.90367 -8.34184 -1.67944 1.21662 1.39175
216 -1.53897 -2.29788 -8.59122 0.257166 -2.68588 -0.718974
230 5.27527 -2.24736 -9.22009 1.76947 -0.652374 -0.00879557
263 -0.791906 -1.71762 -8.26736 -0.280349 2.75064 -0.658506
1477 4.64906 -9.04243 -1.59851 -0.422544 0.622251 -0.686854
4929 3.13042 -0.0462034 -1.68806 1.29662 -0.474805 1.09682
220 0.0423818 -2.273 -8.56204 0.0707465 4.06608 -0.298449
219 0.743244 -2.95112 -8.37584 -1.99556 -4.10795 -0.856909
1465 -0.0204454 -9.13224 -1.42289 2.19899 -2.60716 1.04775
224 1.54495 -2.2483 -8.26012 -1.53407 -2.89208 1.19211
233 6.18203 -3.02752 -9.13576 -2.53856 1.38947 -0.411614
267 0.910814 -1.42084 -8.2999 2.30275 3.23236 0.322593
222 2.24698 -2.30064 -9.18251 0.392852 0.34494 -5.0268
223 2.30184 -2.9206 -8.28137 1.48288 -0.308834 -0.770772
228 3.11904 -2.33884 -8.44788 0.145439 0.5665 -0.5573
271 2.43767 -1.62236 -8.36595 1.76079 0.448373 0.139463
510 2.2938 -2.198 -7.56111 -3.15674 -0.169783 -1.13742
513 2.99917 -3.12819 -7.53539 -1.25047 -0.399334 2.21617
561 3.03703 -1.55993 -7.55193 -0.135633 0.640032 2.20344
307 -2.46086 -9.1949 -7.02014 -0.897848 1.60853 0.73158
232 4.50741 -2.2338 -8.51603 -1.5112 0.827559 -0.420838
514 3.83842 -2.34822 -7.57148 1.04623 1.03807 1.22385
4059 0.802893 -0.113998 -5.14112 -0.628428 -0.0635503 -0.0604051
611 3.85939 -9.19584 -5.37391 -0.215367 -0.0501323 -0.522897
236 6.16891 -2.15617 -8.44821 -0.168056 -0.564942 -2.80951
279 5.21181 -1.57639 -8.42505 2.00022 1.19796 -2.73427
4337 -3.10802 -0.0141298 -4.61168 -0.789224 -0.784049 -0.738788
585 -6.15716 -9.03179 -6.13874 -0.912801 -0.713143 -0.078598
235 6.8556 -2.9559 -8.40036 -0.619886 1.53671 0.734483
240 7.58589 -2.25508 -8.39708 1.48589 -0.158579 0.0718973
206 -3.73147 -2.02024 -9.16083 -3.70849 0.571042 -1.4529
283 6.90288 -1.41872 -8.4387 -0.776411 2.04374 0.390954
170 0.66023 -3.71908 -9.20211 1.1763 1.33752 0.182526
4041 -6.18857 -0.0129192 -5.98004 0.890811 -0.425362 0.873413
105 -6.25781 -6.13299 -9.23874 -2.90222 0.281441 -1.24909
243 -8.41456 -1.54943 -8.48867 2.96798 -2.09065 0.844608
244 9.19648 -0.643369 -8.28428 -0.978477 -0.644899 2.55491
229 4.57443 -2.97722 -9.17211 1.10094 0.543109 -1.84571
4065 2.89116 -0.0615981 -6.13614 -2.49056 -2.03089 -1.21684
248 -7.66217 -0.616907 -8.44289 -0.623348 0.151097 -1.24697
534 -6.96879 -0.644807 -7.63263 0.204739 2.33997 -0.315321
252 -6.26098 -0.741105 -8.48885 -1.66199 -1.3917 -0.503706
1455 -3.9721 -9.09459 -0.786628 -1.48117 -1.54312 0.0727884
3 -8.36872 -9.152 -8.55079 2.42084 -0.749322 0.0103382
1761 3.0965 -9.21192 0.00205832 2.10284 0.907216 1.61118
256 -4.60229 -0.702568 -8.35202 -1.42646 -0.0597725 -0.395661
542 -3.80654 -0.795342 -7.62373 -1.80336 -2.73466 -1.33454
260 -2.88801 -0.70815 -8.52332 0.919381 1.00034 -0.0113465
5209 0.0380124 -0.090608 -0.13016 -0.004395 -1.3853 0.132075
166 -0.859856 -3.81782 -9.12573 0.87825 1.11734 1.14458
264 -1.59775 -0.871862 -8.61408 1.07681 1.24537 0.883929
1905 3.12117 -4.74998 -0.00431875 -1.18203 -0.368268 0.511142
268 -0.175019 -0.916363 -8.45143 -1.5353 0.576699 -2.03634
1684 9.12578 -0.884583 -0.626175 -1.32219 1.41034 -0.124221
554 0.717929 -0.741715 -7.64147 1.13469 -0.568587 1.95861
871 -6.73796 -9.09876 -3.78969 1.96378 -0.523925 0.055112
272 1.53333 -0.764138 -8.34138 -0.824708 -0.685368 2.06229
2014 8.33877 -0.851019 -0.0532852 1.75284 0.321982 -0.419271
276 3.15843 -0.637321 -8.31967 0.543327 0.0146075 -0.44069
558 2.41467 -0.86056 -7.71427 0.0882438 -1.19945 -0.629809
266 0.769709 -0.731237 -9.15901 1.13181 0.367088 -1.44991
275 3.66488 -1.47219 -8.50357 -1.86389 2.53711 0.289659
565 4.59254 -1.54906 -7.72591 1.55559 1.61297 -1.2378
280 4.4877 -0.812825 -8.49239 -0.00359383 -0.792859 -0.709859
562 3.8907 -0.706985 -7.66347 0.347234 -1.3675 3.09411
10 -5.40033 -8.50073 -9.25104 0.745377 2.36104 -1.79758
1725 7.7313 -1.5859 -1.43441 0.0690121 0.615821 1.3714
117 -1.59241 -6.08881 -9.11229 -1.62535 0.179349 -1.17777
284 6.07044 -0.73062 -8.35986 -2.40392 -2.57615 -1.55207
566 5.36098 -0.710589 -7.5577 0.303477 -1.73088 -0.374758
4943 8.51285 -0.119322 -0.806809 0.994627 0.0184046 -0.0515875
142 8.42889 -5.31768 -9.24587 -3.08735 0.410912 -2.24623
288 7.67908 -0.678772 -8.59614 0.550725 -1.14298 -0.615243
1982 -3.90905 -0.836576 -0.0773953 0.55367 0.433668 0.0970461
287 8.63459 -1.54705 -8.38579 1.32861 -1.99132 -1.00248
26 0.571727 -8.44851 -9.14989 0.149742 2.20627 -0.680463
292 -9.12471 -8.56862 -6.87933 0.406894 2.19702 -0.778061
339 -8.41771 -7.55579 -6.92798 0.370551 -0.283805 1.52142
578 -8.35351 -8.43934 -6.2779 0.222141 1.55702 -0.66
296 -7.56471 -8.49529 -6.94985 0.957855 -1.39916 -0.131074
343 -6.8221 -7.70501 -6.97971 0.784581 -1.56754 -1.02373
345 -6.02448 -7.55095 -7.62626 -0.00265179 -2.45457 1.3329
298 -5.30742 -8.49828 -7.61363 1.63632 -0.969306 -1.23961
300 -6.02556 -8.43404 -6.96342 -0.880287 0.703175 1.66145
347 -5.39789 -7.59997 -6.7713 1.45063 0.228659 2.36067
586 -5.34865 -8.38298 -6.05212 -0.120288 0.266331 -0.81465
349 -4.5655 -7.5189 -7.67574 -0.616507 -0.463599 -2.08685
302 -3.94807 -8.36684 -7.67344 -0.0759994 1.05867 -0.0816663
304 -4.5358 -8.37907 -6.82885 1.68952 -0.659366 0.866864
351 -3.72426 -7.76366 -6.68563 0.210467 0.179068 1.54552
353 -3.25936 -7.69674 -7.62644 -2.79574 -0.0660106 1.36714
306 -2.38879 -8.47517 -7.67867 0.668689 1.43524 0.573021
308 -3.06001 -8.39745 -6.95799 -2.96113 0.390184 1.7701
4939 6.97771 0.0196013 -0.841384 -0.748005 2.12123 -0.0536862
355 -2.38694 -7.70198 -7.06308 0.422371 1.57965 -2.0628
357 -1.60729 -7.72903 -7.76354 -1.07066 -0.786825 -0.237556
312 -1.50572 -8.39098 -6.95732 -0.99274 -3.18319 0.744421
645 -1.64528 -7.8113 -6.17013 0.445347 -0.890885 0.846805
310 -0.855462 -8.60964 -7.73274 -1.71208 0.986322 -1.62995
316 0.15047 -8.41228 -7.00353 0.639418 0.181682 2.14532
363 0.866793 -7.6744 -6.88776 0.796767 1.12766 0.375284
313 -0.0669293 -9.15984 -7.68979 1.39386 0.993951 -0.121502
365 1.51486 -7.72121 -7.69276 -0.78826 -1.01878 -0.199968
320 1.62886 -8.56572 -7.07548 -1.01365 -1.28466 0.358794
324 3.11184 -8.54435 -6.92992 1.20487 -0.810439 0.740636
367 2.33167 -7.71291 -7.00667 -0.236314 1.5372 2.57824
4053 -1.5747 0.0438742 -6.06114 -0.0297848 3.00925 -0.0017542
373 4.59518 -7.68164 -7.61482 1.12303 0.822281 0.721636
328 4.75932 -8.49668 -6.90965 -0.436029 -1.2474 0.0640294
371 3.87828 -7.66794 -6.91087 -1.93652 -0.150074 -0.255343
326 5.42479 -8.54144 -7.73949 -1.26922 0.218262 -1.16597
332 6.05459 -8.4075 -6.82198 -1.64825 0.393041 0.815267
375 5.34142 -7.80874 -6.93996 -1.19658 0.669405 1.51892
336 7.62454 -8.43654 -6.81476 -1.23198 -1.59678 0.58603
379 6.98939 -7.71306 -6.95079 -0.701709 0.544049 1.73755
669 7.8598 -7.49574 -6.10182 1.98966 2.83544 0.0512727
334 8.54328 -8.5239 -7.64734 -0.414612 0.344568 -0.610032
337 -9.11257 -7.7162 -7.69122 0.50924 -0.849935 1.86535
383 8.46475 -7.78743 -6.99005 -1.2877 -1.69962 1.26548
622 8.53923 -8.45644 -6.2078 -0.973514 -0.949459 1.93142
625 -9.15088 -7.66111 -6.32319 -1.73589 0.472302 -1.77877
338 -8.19346 -6.89717 -7.66382 -2.04857 0.300238 0.0234303
387 -8.27307 -6.16972 -7.00511 0.070324 1.58602 0.237555
385 -9.04065 -6.32448 -7.90023 1.28434 -1.72779 -1.25992
342 -6.82604 -6.98539 -7.73271 2.77803 1.82792 2.47155
389 -7.58005 -6.1409 -7.84384 0.536014 3.75941 1.35428
344 -7.37997 -6.83704 -6.98133 0.909953 -1.88493 -0.894516
391 -6.86678 -6.02992 -6.80278 -0.513807 -1.53057 1.70474
677 -7.71577 -6.1164 -6.12608 0.0852608 -0.779273 0.0803021
346 -5.46629 -6.76976 -7.61176 -2.32811 1.89203 1.62437
348 -6.26395 -6.92886 -6.83194 1.86085 1.71789 1.41813
395 -5.47873 -6.19827 -6.68169 1.23893 1.64927 2.07305
350 -3.76602 -6.88219 -7.63981 0.804681 0.32928 -0.471706
397 -4.73268 -6.13759 -7.56751 -0.251557 0.0737952 -0.482613
352 -4.66885 -6.91535 -6.85243 4.39998 0.00245738 2.77566
399 -3.87914 -6.23518 -6.96108 -0.560474 -0.261819 -1.30398
354 -2.29675 -6.88058 -7.7587 3.74616 -0.863262 -3.5146
356 -2.97504 -6.96406 -6.92273 -1.66729 3.04274 0.7733
689 -3.16121 -6.15373 -6.24614 -0.690418 0.122648 -2.64461
359 -0.789 -7.7118 -6.90654 -2.09004 -0.592881 -0.819673
360 -1.63246 -7.01311 -7.02953 -0.133028 1.41019 2.5154
364 -0.225809 -6.95404 -7.00435 -0.41846 -0.338194 -0.161017
653 1.46172 -7.60037 -6.1699 1.49524 -0.551097 0.578907
368 1.29735 -6.84226 -7.011 -0.339939 -0.532924 -2.37408
701 1.44581 -6.19215 -6.19129 2.02489 -1.08655 0.735954
417 2.87439 -6.15328 -7.77072 -2.23409 -1.87291 -1.95221
372 2.99124 -6.89783 -6.9768 -0.436899 -1.64799 -2.97616
654 2.21801 -6.89878 -6.26535 0.401926 1.45965 -0.269537
415 2.12889 -6.12449 -7.00523 1.02141 -0.627661 -1.79352
705 2.96442 -6.01361 -6.21552 1.09567 0.742491 0.634976
370 3.64867 -6.82416 -7.74454 -1.66929 -0.652521 -1.34811
376 4.44847 -6.88591 -7.08522 1.07708 -0.297788 2.6721
658 3.78261 -6.92905 -6.25227 -2.27924 -0.0412968 -0.996087
374 5.40195 -6.9356 -7.86729 1.14557 0.327575 -1.20899
380 6.16983 -7.00613 -7.04882 1.92813 2.95953 0.908599
662 5.34938 -6.88291 -6.16458 0.632796 1.06296 -0.292346
425 6.21893 -6.04675 -7.72902 2.52809 -1.94013 0.144459
423 5.30233 -6.19569 -7.11196 -0.294602 -0.165577 -0.555639
713 6.1489 -6.31887 -6.30065 -0.481379 1.39968 -0.418101
384 7.9019 -6.90965 -6.99883 -2.877 1.8433 0.0381209
666 7.1014 -6.91933 -6.31672 -1.97125 0.286205 -0.709693
340 -9.0803 -6.84277 -6.98282 1.21106 0.834233 -0.0473733
431 8.53523 -6.17101 -7.15441 -0.501133 0.0809397 1.88635
673 -9.14083 -6.07879 -6.18687 -0.401982 -0.029538 -1.45203
670 8.63022 -6.95062 -6.33883 1.45723 -0.480017 1.51355
386 -8.39133 -5.39684 -7.89497 0.0865231 0.97991 -2.56562
388 -9.15586 -5.33976 -7.04911 -0.020061 -0.0328642 -2.03818
721 9.25503 -4.60269 -6.38619 2.4417 -2.11212 -1.78729
437 -7.60327 -4.57018 -7.87257 0.750278 -2.83512 -0.77609
392 -7.64972 -5.36629 -7.16527 -0.287916 1.61241 -0.186837
394 -5.38076 -5.31167 -7.77227 3.8126 -1.71868 -0.652874
396 -6.18283 -5.40945 -6.8621 -1.3974 2.4764 -2.34315
682 -5.49328 -5.35083 -6.12549 2.60906 0.374375 0.719219
443 -5.37019 -4.47178 -7.08317 1.94112 -0.783459 -0.49257
400 -4.7144 -5.34854 -6.94183 -0.903209 0.0764279 -1.26589
447 -3.85105 -4.72943 -7.06268 -0.365512 1.71447 1.63575
401 -3.06296 -6.02256 -7.89186 0.46801 2.26662 -1.20275
403 -2.42074 -6.10358 -7.09038 -1.84574 0.102188 -0.209051
449 -3.0826 -4.55121 -7.77921 -0.787712 2.0014 0.189664
404 -3.22136 -5.46449 -7.01388 -1.42985 0.270662 0.216886
451 -2.41856 -4.5825 -7.06552 0.159718 -0.621425 -0.511423
405 -1.62183 -6.2302 -7.8078 1.04132 -1.11725 2.2728
407 -0.806728 -6.18878 -6.91927 0.306202 0.679452 -0.733902
406 -0.825034 -5.49651 -7.69372 -1.41252 1.63731 1.09921
408 -1.53047 -5.45711 -7.03004 -1.91926 1.46876 -0.934782
455 -0.750251 -4.64346 -7.095 2.6003 -0.575975 -0.0778274
694 -0.721029 -5.33151 -6.36935 1.43342 -0.113372 -0.544883
412 0.0321244 -5.31446 -6.94823 0.12717 -0.409077 -0.38006
745 -0.0342531 -4.50681 -6.2695 -0.669864 0.24825 -1.57171
697 -0.120191 -6.11494 -6.26812 -0.36922 2.02518 -0.111711
411 0.562728 -6.29663 -7.06914 2.1783 -0.863635 0.0122526
416 1.27891 -5.39523 -7.03092 1.30619 2.99222 -0.108844
459 0.782762 -4.5291 -6.99803 -1.73745 -0.774658 -0.641444
749 1.51314 -4.63618 -6.21594 1.83512 1.19134 0.137011
698 0.691677 -5.20724 -6.25833 -0.863852 -0.309852 -1.13076
420 3.10934 -5.30046 -6.98949 -2.57354 1.98094 0.0230622
702 2.29885 -5.33553 -6.28286 -1.50531 1.02694 -0.222229
463 2.28644 -4.47449 -6.81951 0.839239 0.910875 -0.210717
419 3.74389 -6.15548 -7.03037 -2.73199 -0.405191 -0.907693
424 4.5767 -5.44729 -6.95349 1.06013 -0.809692 -1.90592
422 5.35579 -5.36331 -7.74297 -2.15296 -0.332966 0.528236
473 6.19311 -4.63807 -7.6285 -1.07657 -0.132552 1.09435
428 6.18257 -5.34211 -6.99543 -1.06385 -2.26103 0.670606
710 5.49528 -5.28247 -6.2875 -1.94192 1.10198 0.229877
427 7.04171 -6.08771 -6.93062 -0.465075 -2.29712 0.147075
432 7.63979 -5.26969 -7.04808 -0.491179 -2.01382 0.212511
714 6.86822 -5.40331 -6.19198 -0.745302 -0.289285 -0.304241
475 7.01892 -4.54734 -6.84262 0.465833 0.97939 0.332096
430 8.37705 -5.34456 -7.75895 1.20396 -1.44352 -1.14626
717 7.84666 -5.9018 -6.33935 1.27446 1.84609 -0.982235
718 8.51114 -5.2603 -6.43958 0.271181 0.611583 -0.199566
434 -8.41433 -3.73648 -7.76183 -0.0371382 1.85242 -1.48113
435 -8.43485 -4.56644 -7.11222 0.628486 -2.95004 1.58881
483 -8.36125 -3.0493 -6.85329 -2.23522 -2.50198 -0.5982
436 -9.0732 -3.69035 -6.99041 -0.416074 -1.09926 0.469446
481 -9.09758 -3.0142 -7.73401 -1.32008 0.00403256 -0.0775646
439 -7.0306 -4.5814 -7.01263 0.331467 -1.39996 -1.7925
485 -7.70446 -3.03038 -7.63311 -0.622055 -0.211461 1.28007
440 -7.77111 -3.85171 -6.99682 -0.76681 -0.741 0.879075
487 -6.83933 -2.8706 -6.99617 1.53136 0.0463557 -3.75829
489 -6.24098 -3.01286 -7.69287 0.0831174 1.09953 2.76348
444 -6.24323 -3.70403 -6.90628 -3.36839 -0.411724 -1.74503
491 -5.32366 -2.92815 -7.01783 2.09716 0.448265 0.176989
446 -3.7789 -3.7885 -7.65081 -0.00231301 -0.526828 0.730854
448 -4.68624 -3.72146 -6.96275 -0.0551972 -1.68123 -0.888065
495 -3.77975 -3.09643 -6.97081 0.730306 -1.63434 3.20827
734 -3.92633 -3.84861 -6.31141 -0.499749 -1.71029 3.97458
781 -4.58707 -2.93048 -6.18806 1.44833 -1.79228 -2.00612
450 -2.23878 -3.73081 -7.76276 -1.50879 -0.648722 -0.474378
452 -2.97253 -3.70309 -6.91575 -1.20203 3.32423 -0.941967
499 -2.27204 -2.89037 -6.89397 1.16776 -4.24012 0.68045
785 -2.96658 -3.07364 -6.16491 2.1663 1.33483 2.74167
453 -1.59362 -4.53762 -7.73868 1.67058 -1.565 1.293
456 -1.60714 -3.7051 -6.95893 0.790413 -0.0852998 -0.237944
503 -0.816725 -3.07354 -6.8664 -0.424137 -0.0761545 1.80213
505 -0.090282 -2.96071 -7.72448 -0.780353 -1.25014 -0.397853
460 -0.0889607 -3.76882 -7.06843 -3.55186 -0.526932 0.550222
507 0.744395 -2.92525 -6.76151 -1.62273 -0.906049 -2.28663
464 1.6263 -3.65593 -6.73542 1.61479 -0.0499662 -0.441994
509 1.57723 -2.98575 -7.59118 -0.864244 -1.11024 2.09287
797 1.56998 -2.88905 -5.95915 1.23332 -1.9079 -1.85813
468 2.96738 -3.77812 -6.7199 -1.21406 -0.889337 0.0165427
753 3.15006 -4.64259 -6.11021 -1.29381 1.19343 -1.13128
511 2.24701 -2.95707 -6.72646 -0.885777 -0.489842 -0.843453
467 3.92941 -4.6981 -6.92243 1.84254 0.0225281 0.547234
472 4.66512 -3.76059 -6.95632 0.500154 0.206167 -1.26849
515 4.05533 -3.04628 -6.82895 1.66026 1.45694 -1.37106
754 3.83629 -3.83972 -6.24936 -0.187159 -1.55877 -0.294235
471 5.33676 -4.56588 -6.89443 -2.07396 2.12141 -0.607478
476 6.11982 -3.87928 -6.9858 -1.39367 1.63405 -1.34297
758 5.40632 -3.83802 -5.93173 -0.610035 1.21662 1.08616
761 6.17166 -4.54237 -6.20862 1.52819 0.471487 1.08041
519 5.36499 -3.04331 -6.97465 1.13837 2.15664 -0.331913
474 6.9615 -3.72041 -7.72186 0.260907 -0.45424 2.07684
762 6.88471 -3.80936 -6.20446 -0.208278 0.654601 -0.163556
480 7.73459 -3.89002 -6.94342 -0.729982 -1.28084 0.696493
479 8.56842 -4.46415 -7.04317 -2.26633 3.64008 0.376266
478 8.70959 -3.71139 -7.68751 1.16334 1.63065 0.782336
766 8.39311 -3.93124 -6.17373 1.06639 -0.417024 0.6097
527 8.49169 -3.05646 -6.88279 -1.04355 1.15895 3.73407
482 -8.44935 -2.36896 -7.81206 -1.35543 0.316382 2.42888
529 -9.17311 -1.69851 -7.58965 1.42311 -0.328233 0.482214
531 -8.50349 -1.48575 -6.91838 -0.0521503 -1.47112 0.600329
770 -8.52963 -2.23776 -5.97145 -0.894017 0.0421486 -1.88718
484 -9.0543 -2.33231 -6.90121 2.05242 -0.413865 -0.462032
486 -6.98151 -2.29726 -7.76534 0.898783 -1.88155 -1.46078
533 -7.67578 -1.58427 -7.82147 -1.17563 -0.619895 -0.442704
488 -7.79989 -2.25467 -6.92239 -0.416259 -1.99385 -1.97211
821 -7.76767 -1.48576 -6.31576 -0.213856 -1.75486 -0.115526
490 -5.35251 -2.19634 -7.76424 -1.24565 0.0626633 0.312952
537 -6.38384 -1.47263 -7.8195 -3.28252 -1.00727 2.12625
492 -6.15128 -2.12096 -7.09811 -1.65703 0.166459 0.876892
778 -5.33583 -2.27504 -6.12479 1.40043 0.500078 0.102822
494 -3.74211 -2.21738 -7.66628 -0.0104187 0.312282 0.44859
496 -4.58971 -2.26245 -7.03917 -1.44151 0.132045 -0.880956
782 -3.84083 -2.31289 -6.31327 -1.62477 1.10495 -2.11825
498 -2.2964 -2.29407 -7.69147 -1.50827 -1.61507 -1.39637
500 -3.0356 -2.32835 -7.01666 0.866755 -1.3685 0.527352
786 -2.29344 -2.28936 -6.09755 1.13757 -0.572569 -0.864298
502 -0.811343 -2.33439 -7.5261 -0.258227 0.0109951 -0.224212
504 -1.49787 -2.26723 -6.7849 0.0579718 -0.35852 1.16896
549 -1.6557 -1.53029 -7.74755 -2.07136 0.795084 2.88076
789 -1.49979 -2.9711 -6.14415 1.51924 0.0198884 -0.658439
790 -0.741998 -2.20824 -6.05902 -0.470247 1.30901 -0.722036
837 -1.61865 -1.45978 -6.0835 -0.298444 0.946148 -2.89239
508 -0.0627483 -2.26635 -6.81094 -0.449479 3.61532 -0.585367
506 0.711864 -2.22243 -7.6722 3.01582 2.42178 1.70225
794 0.716447 -2.21747 -5.95323 0.0647771 0.701092 -0.221453
555 0.653332 -1.45227 -6.89668 3.05208 -1.46556 -1.18584
512 1.47123 -2.18298 -6.81645 0.644785 1.03128 0.0505716
516 3.20709 -2.27264 -6.82835 1.4397 -0.882708 0.285831
798 2.33753 -2.20376 -6.17876 1.34052 0.218371 -0.639637
801 3.04653 -2.91317 -6.10233 0.312486 2.74131 -3.68711
559 2.29732 -1.44677 -6.78581 -2.33849 -0.557138 1.6386
849 3.1593 -1.53815 -6.18619 1.32786 -0.292985 -1.92374
520 4.7051 -2.16874 -6.97986 -0.552602 1.76838 0.121726
802 3.96192 -2.23064 -6.12593 1.02453 2.90044 -0.591832
853 4.59539 -1.42836 -6.01561 1.71792 2.39104 0.372568
563 3.83354 -1.37796 -6.91011 1.79043 0.812049 2.49727
521 6.13631 -3.02873 -7.69635 -0.744918 -0.370568 1.81293
569 5.93223 -1.50087 -7.63516 1.21013 -0.399061 -0.624495
518 5.33876 -2.29796 -7.77833 1.71397 0.379136 0.355765
524 5.89745 -2.17144 -6.92823 2.11966 -1.1185 1.33044
806 5.44417 -2.27428 -5.96046 -0.650068 0.0628595 -1.44763
525 7.84243 -3.10078 -7.636 1.90025 0.278202 -0.910946
522 6.8984 -2.32907 -7.57263 1.49546 1.24644 0.729708
523 6.82833 -3.01991 -6.87391 1.32374 -2.16297 -0.102997
528 7.64971 -2.214 -6.89834 -2.01417 -2.13419 -1.01848
573 7.83867 -1.49331 -7.79558 -1.97709 2.5605 1.04891
526 8.46362 -2.28199 -7.48953 -0.495043 -0.468196 -1.72621
575 8.35514 -1.4909 -6.95186 -1.33604 1.54934 0.079545