ITEM: TIMESTEP
94000
ITEM: NUMBER OF ATOMS
6912
ITEM: BOX BOUNDS pp pp pp
-9.2265715179435492e+00 9.2265715179435492e+00
-9.2265715179435492e+00 9.2265715179435492e+00
-9.2265715179435492e+00 9.2265715179435492e+00
ITEM: ATOMS id x y z vx vy vz
51 -8.6407 -7.46675 -8.50462 0.154677 2.32263 0.466878
4365 7.94689 -0.0519098 -4.67873 0.411227 -1.35971 0.859509
8 -7.57603 -8.45546 -8.27485 -2.08485 -0.178409 -0.933543
55 -6.94234 -7.62452 -8.47699 -0.488487 -2.3616 0.772307
294 -6.92515 -8.26029 -7.67083 -1.30478 0.139606 -0.020287
281 6.31323 -1.6253 -9.13037 1.41695 0.78416 0.421203
12 -6.22009 -8.3766 -8.49914 1.26577 1.25438 -0.979787
1197 7.84226 -9.15626 -3.22215 1.04556 0.750244 -0.0506299
303 -3.7985 -9.04074 -6.92651 -0.0042457 -1.67379 3.2738
62 -3.95289 -6.94472 -9.12654 -0.0679078 0.252097 -3.25214
617 6.10367 -9.06754 -6.06061 0.751845 0.201302 2.77059
16 -4.54934 -8.44758 -8.39861 -0.384178 0.970268 -0.455418
302 -3.83754 -8.54335 -7.76996 0.490166 -3.51097 0.367956
1469 1.46273 -9.20587 -1.47967 -2.68919 -1.93603 0.716088
142 8.54585 -5.53271 -8.95812 -0.595362 1.97399 -1.74125
20 -2.97147 -8.42019 -8.40031 0.179388 -0.849353 0.0472069
67 -2.26429 -7.55928 -8.50663 -0.923956 -2.1708 0.120178
178 3.99026 -3.72849 -9.07059 0.404015 -0.29052 -0.489388
24 -1.62033 -8.32458 -8.51544 -0.346376 1.5844 1.43876
357 -1.60183 -7.77202 -7.6944 -0.296701 -0.247893 1.23403
3783 5.36783 -0.0651296 -6.88147 -2.06229 -3.35532 -1.15411
147 -9.114 -4.91248 -9.14287 -2.42558 -0.390413 -0.521858
28 0.147019 -8.58519 -8.49995 0.983964 -2.38678 -2.93836
314 0.835052 -8.41037 -7.7193 -0.0471365 1.65806 -0.981267
4625 -3.13017 -0.0945415 -3.15172 1.24972 1.1048 1.36146
867 -8.6522 -9.12156 -3.68654 -2.26922 0.51896 -0.225505
3459 -8.44311 -0.0374182 -8.50149 -0.793797 2.09477 1.98216
32 1.53617 -8.32406 -8.63394 -2.87365 1.26918 0.142202
75 0.758652 -7.69756 -8.72304 -1.61178 0.356637 -1.36285
3479 -0.779868 -0.120006 -8.63787 -2.38551 0.822664 2.05413
237 7.68141 -3.15488 -9.15685 -2.42281 -2.21886 -1.27494
1457 -3.07968 -9.03152 -1.47619 -1.02937 -0.136094 -0.44732
3467 -5.28194 -0.14953 -8.59624 1.7319 -0.475395 0.163855
36 3.26961 -8.28079 -8.42766 0.55151 2.6838 0.260457
162 -2.39727 -3.66592 -9.04392 -0.793415 2.67631 -1.52761
79 2.38014 -7.55196 -8.52858 0.0667004 -2.36084 1.69682
369 3.08767 -7.57153 -7.67119 -0.705741 -1.86338 -1.89575
3747 -8.41832 -0.0371778 -7.06766 0.680925 -1.66295 0.716811
4333 -4.75514 -0.0918921 -4.50541 -1.08424 1.0453 1.34767
40 4.62655 -8.29309 -8.41347 0.0474671 -1.78933 -0.865668
322 3.72273 -8.23965 -7.61363 -3.08018 2.09983 -0.873175
222 2.41978 -2.44344 -9.13041 0.356437 -2.70067 0.516102
44 6.06489 -8.39074 -8.39904 1.06959 -0.705285 0.180559
326 5.41931 -8.49797 -7.52306 -0.659796 -0.0259651 -1.6847
157 -4.81447 -4.63938 -9.08741 -0.16927 -0.606282 -0.571677
1861 4.68619 -6.1504 -0.281859 -0.730107 0.0714075 -1.42083
48 7.81715 -8.45299 -8.26112 -0.878711 0.438775 2.6733
330 6.76197 -8.53797 -7.5014 -0.601845 0.67139 0.1344
3491 3.78831 -0.0613956 -8.53955 -1.94375 0.984903 -1.96326
2 -8.34184 -8.47653 -9.11006 -2.00209 0.949073 0.29552
4 -9.0746 -8.37298 -8.47158 2.12216 -0.289171 1.40566
35 3.92862 -8.9552 -8.45549 0.296545 -0.953009 -3.39842
52 9.21347 -6.72785 -8.40705 -1.32877 0.559778 -0.261767
338 -8.37281 -7.03229 -7.64101 -1.89257 -0.675565 -0.348483
99 -8.29464 -6.15457 -8.27779 3.07549 0.261389 -0.744197
56 -7.71688 -6.99335 -8.39955 0.416709 1.3657 -0.969566
103 -6.99336 -6.28008 -8.46508 1.30358 0.190339 0.991901
342 -6.87222 -6.96661 -7.71204 -1.98589 -1.6534 -0.677482
389 -7.52967 -6.2335 -7.56901 -0.254736 -2.39837 -1.55599
59 -5.44734 -7.58941 -8.38382 -1.49403 -0.600975 0.700987
60 -6.13342 -6.98153 -8.53709 1.47262 0.597578 1.617
63 -3.82698 -7.77795 -8.47032 -0.0891879 0.1658 0.865777
64 -4.64074 -6.85184 -8.47668 1.43997 -0.932372 2.60977
397 -4.47414 -5.99891 -7.64868 -1.13251 1.00066 0.205527
349 -4.59665 -7.70061 -7.7631 1.25194 -1.17945 0.254449
350 -3.93658 -6.89293 -7.63878 0.975231 5.32603 0.316997
190 8.40254 -3.9074 -9.12735 0.483204 0.663509 1.36671
68 -2.98823 -7.01995 -8.40712 2.18238 0.777898 -1.6412
354 -2.27244 -6.90786 -7.71656 -0.691593 -0.212849 0.120661
72 -1.57144 -6.87799 -8.254 0.12897 -2.25537 -1.0416
71 -0.612803 -7.59405 -8.27359 -1.83213 -2.95166 -1.40012
405 -1.4399 -6.09684 -7.68317 -0.256252 -0.484248 -2.53674
119 -0.560918 -6.03646 -8.29055 -0.876922 2.70067 -0.0821812
76 0.107304 -6.81495 -8.33378 -0.3721 -0.782469 -0.119869
134 5.48838 -5.39925 -9.04276 -2.375 1.14211 -2.80216
80 1.4782 -6.96674 -8.56172 0.0917961 1.68778 -3.10799
123 0.827825 -6.14974 -8.38468 2.03638 -1.46599 0.198095
3751 -6.89191 -0.071186 -6.75982 -0.88641 1.17556 -0.0803276
366 2.16447 -6.92702 -7.70864 -0.0666903 0.301027 -0.152688
127 2.37245 -6.1738 -8.27602 -2.38982 -1.29875 -1.55356
84 3.16778 -6.94822 -8.4954 -2.00678 -2.55529 1.17751
417 3.26467 -6.28056 -7.82953 -0.298573 2.17744 -0.357932
86 5.47267 -6.85565 -9.05546 -2.80307 2.23156 1.41843
83 3.95445 -7.59176 -8.31587 0.65335 3.34553 -4.74777
88 4.6812 -6.74126 -8.33731 -0.765902 0.278897 -0.0582559
131 3.90994 -6.16065 -8.44687 -0.284165 -0.294512 1.55657
87 5.44945 -7.63019 -8.40687 1.14554 -1.99671 -0.912596
92 6.21148 -7.10049 -8.31554 1.15537 -0.366548 0.308697
374 5.41433 -6.90708 -7.66847 -1.30618 0.114659 2.2155
91 6.94417 -7.76787 -8.25423 2.77961 0.0109177 -0.552021
96 7.52879 -6.94996 -8.40375 1.06764 -2.00621 -2.29732
381 7.63696 -7.69959 -7.43698 0.0949502 3.22026 1.00932
95 8.53168 -7.68929 -8.31137 0.199666 0.226753 1.35242
382 8.38918 -6.93105 -7.6845 1.22159 0.499091 0.132114
297 -6.16619 -8.9866 -7.70542 -1.43215 0.267189 2.31714
100 -9.18687 -5.62161 -8.27066 -0.252173 -1.28401 -2.31506
386 -8.22245 -5.42624 -7.58983 0.481177 -0.080505 -1.44186
104 -7.61958 -5.37944 -8.45068 -0.171569 -0.609157 -1.23376
18 -2.38711 -8.39488 -9.14189 4.0954 -1.79861 -0.236658
107 -5.36361 -6.16254 -8.26728 -1.45205 2.23152 -0.429027
108 -6.14324 -5.54839 -8.27679 2.42123 1.53944 1.28701
394 -5.24913 -5.44344 -7.62359 0.523011 -2.78668 -2.42001
1822 8.17951 -7.27656 -0.0768223 -2.50751 4.14797 -1.82101
111 -3.90169 -6.18953 -8.49275 1.24373 -1.59116 -1.51124
112 -4.52625 -5.3606 -8.49262 -1.3522 1.84398 -0.97475
445 -4.70667 -4.65667 -7.83837 0.676068 -1.51319 1.04142
23 -0.814578 -9.18723 -8.67354 1.51265 0.65505 1.52631
401 -3.27827 -6.08333 -7.71814 -1.65027 -4.42612 1.05247
115 -2.3099 -6.09341 -8.27976 -0.416476 1.04503 -1.86256
116 -3.17523 -5.45174 -8.58146 0.429198 -1.6128 -0.261254
402 -2.26506 -5.19953 -7.7833 0.724311 0.728413 -2.61771
110 -3.89693 -5.15815 -9.16637 1.7146 0.756035 -0.632168
4037 -7.78325 -0.0868259 -6.20161 -2.5051 2.01438 -0.571273
120 -1.52116 -5.48829 -8.502 -2.69975 2.74233 -0.570148
167 -0.752709 -4.6668 -8.55627 0.46598 0.876879 0.627824
406 -0.722847 -5.23631 -7.6526 1.72545 -2.40092 0.0535343
124 0.189203 -5.27497 -8.37377 1.28448 2.70323 0.527091
4911 -3.96318 -0.206649 -0.769318 1.98282 -0.690045 -2.36878
128 1.70917 -5.41074 -8.39594 -0.461765 -2.70362 -0.655688
413 1.41556 -6.10568 -7.62127 -1.62262 0.599257 -3.96076
38 5.21884 -8.37914 -9.17411 -3.42047 0.0143947 -0.360651
132 3.18569 -5.32121 -8.33933 -2.86423 -0.954504 1.02651
175 2.42005 -4.69563 -8.19797 1.08053 -0.997881 -2.31142
277 4.67911 -1.4284 -9.19763 -0.309338 -3.18074 0.526802
136 4.53035 -5.1854 -8.29649 0.476388 -1.47899 0.187605
273 3.29081 -1.66626 -9.15656 -3.38969 -1.88321 0.427541
179 3.92727 -4.46077 -8.26837 -0.97269 -1.42656 2.43341
421 4.5326 -6.12032 -7.56146 -0.508685 0.108321 -3.91617
1938 -2.35531 -2.39072 -0.0869237 -1.99631 3.78442 -0.628886
135 5.47887 -6.18528 -8.35452 0.424594 0.394387 -0.674504
425 6.1612 -6.13736 -7.54834 -0.130095 1.14973 -5.23446
140 6.14235 -5.38102 -8.37916 -0.112534 -2.29706 -0.882365
877 -4.46791 -8.99387 -4.57519 0.308752 0.85391 -1.67742
139 6.84422 -6.17669 -8.50516 -0.914035 -1.84583 1.21725
144 7.68251 -5.54494 -8.37135 -1.66023 0.594565 1.84476
187 6.91358 -4.66732 -8.41082 0.67043 0.377435 1.73043
429 7.61457 -6.21541 -7.46594 3.2147 0.927786 1.30921
1857 2.87342 -6.08787 -0.0838312 -0.258608 1.43761 0.963132
143 8.28538 -6.23361 -8.26709 0.948716 1.94305 -2.37586
430 8.3414 -5.31173 -7.49291 -2.18534 0.184325 -1.48313
146 -8.31455 -4.79515 -8.4376 -0.281988 1.05073 0.256808
195 -8.42479 -3.29088 -8.37011 -0.600595 -1.30808 -0.204758
148 9.21487 -4.03341 -8.41366 -0.146611 0.18362 -0.00911092
151 -6.86582 -4.64642 -8.5722 -0.616378 3.20245 -1.36965
152 -7.5861 -3.8524 -8.55903 1.15077 1.22839 -2.03289
438 -6.80424 -3.92121 -7.72199 1.01694 -2.36085 -0.19239
155 -5.43974 -5.00978 -8.4689 0.386544 3.14578 -2.3737
156 -6.06795 -4.13127 -8.53019 1.50694 -0.653415 -0.0446712
4913 -3.32923 -0.220914 -1.54504 2.25679 0.097161 1.33221
441 -5.99994 -4.71855 -7.68556 -1.18032 0.774301 3.02669
4619 -5.33534 -0.120813 -2.30596 0.500435 -2.15853 -0.93399
159 -3.79331 -4.63273 -8.359 0.530494 1.70935 1.25591
160 -4.8004 -3.86452 -8.34515 -1.7141 -0.190355 1.06882
207 -3.90337 -3.11054 -8.27529 0.489305 -1.96221 1.05732
4347 0.783898 -0.107991 -3.9895 -0.8749 -2.07031 1.51956
3777 2.98781 -0.0654738 -7.76425 -1.30923 2.3272 -1.54343
163 -2.20985 -4.48433 -8.59307 0.63788 -1.05911 1.08231
164 -3.13122 -3.80537 -8.29282 -1.34809 -0.169623 -1.87071
211 -2.21088 -2.87748 -8.41872 0.293136 -2.08751 -1.25854
1809 3.10854 -7.66145 -0.117076 2.52683 -0.0236755 -0.826742
168 -1.41211 -3.61093 -8.24635 0.0796229 2.80788 -0.395661
453 -1.5236 -4.51852 -7.74769 -0.963398 -0.290235 -0.092477
501 -1.54512 -2.87251 -7.64185 -0.350333 -1.39932 -0.0993945
1893 -1.50837 -4.29445 -0.00777787 1.72214 0.982205 -0.738448
172 -0.0796695 -3.79391 -8.51224 -1.16013 -0.763242 -2.93138
458 0.964899 -3.92275 -7.56208 3.56201 0.213599 1.53543
1982 -3.85305 -0.867675 -0.00590974 -1.2003 0.692539 1.69165
242 -8.45104 -0.867499 -9.12823 2.39578 0.324351 0.103287
171 0.771472 -4.46683 -8.35776 -0.557162 1.46089 -0.854823
176 1.70399 -4.07596 -8.32342 -1.01643 1.87116 3.12118
3773 1.44851 -0.00222536 -7.65229 -1.58913 0.765707 0.0888623
219 0.880421 -3.31339 -8.34755 0.386684 -0.211787 -0.505591
93 7.71959 -7.71774 -9.03374 2.37424 1.18677 -2.92935
180 3.12205 -4.01782 -8.44648 -2.09874 -0.500175 0.32309
223 2.55531 -3.18186 -8.30304 1.28057 0.0728459 0.577746
130 4.04177 -5.31964 -9.10133 -0.929458 -0.690169 0.920763
126 2.45453 -5.28794 -9.20212 1.76854 0.336212 0.423574
184 4.70917 -3.79095 -8.33633 -0.944699 0.337694 -0.0723943
227 3.79234 -3.06458 -8.38552 -1.6754 -2.99914 -0.107732
466 3.83788 -3.724 -7.56943 -1.61415 -0.112387 -0.508843
183 5.55483 -4.50415 -8.44299 -1.53634 0.663201 -0.240413
188 6.37848 -3.74266 -8.40052 2.22249 -1.67174 -0.635244
885 -1.57962 -9.20965 -4.78096 -1.24949 -1.34215 -0.771458
3475 -2.57617 -0.0530916 -8.70068 2.56658 3.70636 3.24093
192 7.64189 -4.01763 -8.47628 -0.87413 -0.324564 -0.888269
474 6.9681 -3.76956 -7.60259 0.565078 1.43468 -0.662432
525 7.81467 -2.97549 -7.68412 -1.2003 -0.0551564 -0.16114
191 8.46763 -4.77552 -8.45934 -0.0855409 0.0582308 1.92968
239 8.34953 -3.15111 -8.53389 -0.358941 -2.17711 0.53721
196 -9.11455 -2.4086 -8.56797 1.98758 1.00555 1.70702
243 -8.36025 -1.76948 -8.42726 0.991945 -0.975562 -2.45913
106 -5.34908 -5.72763 -9.19414 -2.856 -0.670829 0.269168
1870 8.47884 -5.57438 -0.118166 0.519597 -2.06044 1.90482
129 3.18863 -6.02231 -9.08637 1.18636 -0.952311 2.06633
199 -6.79631 -3.26156 -8.46975 -3.39034 -0.899616 -0.128581
200 -7.67978 -2.51915 -8.35771 -2.30621 0.252692 -1.75766
486 -6.83852 -2.46039 -7.60955 -2.59368 1.06913 -0.126076
1461 -1.51113 -9.22965 -1.32663 1.12937 -1.05773 0.686909
247 -7.09076 -1.72327 -8.3754 -0.430885 3.00723 1.63662
533 -7.6247 -1.61071 -7.61604 0.85457 -0.351473 1.60866
203 -5.56823 -3.25226 -8.44522 1.57149 -3.07494 1.19901
204 -6.26119 -2.38516 -8.41974 -1.31082 -2.6961 0.985927
251 -5.28549 -1.62917 -8.46419 -0.189376 -0.373592 -0.141242
537 -6.28404 -1.68808 -7.73827 0.894661 2.49105 -1.07403
241 -9.219 -1.6891 -9.16136 -1.08337 2.19842 -1.85557
208 -4.77945 -2.73455 -8.49374 -0.501555 0.99381 -0.0904829
166 -0.79275 -3.8444 -9.14599 1.71354 -0.500068 1.32412
212 -3.20533 -2.38746 -8.50659 -0.226545 -0.714864 -0.304826
497 -3.04037 -3.00571 -7.63496 -1.72362 -0.396521 1.75248
498 -2.37369 -2.30014 -7.59623 0.688324 -1.50718 1.27808
1941 -1.30166 -3.00167 -0.0209095 0.871174 0.880332 -0.0170248
3463 -6.88853 -0.121307 -8.49484 -2.03628 0.213414 -0.235706
881 -2.89973 -9.19465 -4.61017 0.332043 -2.01051 0.502705
215 -0.614598 -2.87107 -8.37995 0.486857 3.13695 -2.37058
216 -1.45695 -2.09782 -8.59572 -0.270282 0.0457169 1.20185
549 -1.61671 -1.42377 -7.84847 -0.852556 0.22577 -0.603403
289 -9.18774 -9.19132 -7.583 -2.8502 0.159615 -0.693115
220 0.0192585 -2.09574 -8.382 -0.705536 -0.935211 1.25511
553 -0.127557 -1.39633 -7.66778 -1.21784 0.929559 -1.45397
1977 -6.23426 -1.7456 -0.420185 -0.5189 -0.442866 1.211
224 1.58719 -2.4544 -8.48158 -0.165859 2.26434 -0.927685
607 2.20072 -9.17944 -5.32047 -2.32627 -0.0715767 -1.19855
181 4.66213 -4.46165 -9.11336 -1.26618 -1.13769 -0.903558
228 3.07549 -2.36238 -8.43197 -1.81536 -1.09615 -0.235519
561 3.15823 -1.67365 -7.53679 -0.874244 -0.344093 0.805998
271 2.34944 -1.54216 -8.56041 -0.211084 -0.628363 -1.38658
4629 -1.69861 -0.0914971 -3.29349 1.57363 2.2562 1.28592
3767 -0.731831 -0.219601 -6.75154 1.62709 -2.18071 -0.658888
232 4.57995 -2.36331 -8.28342 3.05275 2.88247 -1.37986
94 8.47428 -6.85909 -9.02794 -0.921026 -0.528389 -0.694693
514 3.97503 -2.4132 -7.51799 -1.51989 1.11033 -2.04323
218 0.7856 -2.35575 -9.21844 -0.444403 0.722669 -0.808346
58 -5.2997 -6.77439 -9.22787 -0.94908 -1.03609 -2.6274
231 5.51524 -3.22882 -8.44204 -2.18586 1.19214 0.709742
236 6.21151 -2.31345 -8.49605 -0.142079 -0.321273 0.267531
569 6.10656 -1.53921 -7.52361 1.93287 -0.17112 0.516933
235 7.04631 -2.97668 -8.39424 0.979462 -0.309387 -1.21838
283 7.02212 -1.52333 -8.31532 -3.13401 1.66862 -1.33723
587 -5.43504 -8.99669 -5.39246 -1.60504 1.27391 -0.474672
240 7.68685 -2.18528 -8.29839 2.48514 -0.722712 -2.04805
1905 2.98067 -4.51886 -0.0322651 0.278506 -0.683319 0.975816
3753 -6.15151 -0.00120082 -7.90306 0.0627287 0.390333 0.148339
530 -8.49673 -0.70606 -7.81303 0.134127 1.17524 -0.10998
248 -7.65998 -0.709912 -8.42347 -1.0582 0.201808 0.64142
4915 -2.45482 -0.0481181 -0.983553 1.81334 -1.61639 -1.02052
534 -6.90441 -0.707115 -7.68234 -0.846089 -1.86602 -1.00416
90 6.78937 -6.9934 -9.16868 0.259583 2.68618 -1.90996
252 -6.15809 -0.974142 -8.53242 -1.00437 1.46489 0.571018
538 -5.59589 -0.781404 -7.784 1.44687 -0.233756 -2.38943
1813 4.52864 -7.88562 -0.306901 0.377783 -1.01373 -2.98316
105 -6.21519 -6.19584 -9.11791 0.64581 1.11157 -0.729734
255 -4.06159 -1.71078 -8.48072 1.81404 0.708482 3.11388
256 -4.64077 -0.857537 -8.38283 -0.363801 0.0782759 -1.54855
542 -3.89247 -0.709588 -7.71648 1.11276 -2.48817 -1.78766
1922 -8.43662 -2.46678 -0.0778686 0.458876 1.15132 0.137295
259 -2.55162 -1.71805 -8.63595 0.438175 2.0095 -1.94638
260 -3.21505 -0.873216 -8.5109 3.69247 0.0133411 0.735116
1814 5.30266 -7.10972 -0.216383 0.642867 2.33 -0.711845
263 -0.677429 -1.45967 -8.52984 1.37555 -0.239368 -0.759487
264 -1.71585 -0.724345 -8.58281 -1.078 0.411439 -1.22475
895 2.15275 -9.18827 -3.85776 -2.13284 0.163091 3.02413
1818 6.91187 -6.89094 -0.150879 2.33797 -0.935752 1.48752
268 0.0462013 -0.723087 -8.47181 0.86267 -0.74148 -1.68396
61 -4.69638 -7.59665 -9.16317 0.755232 4.11366 0.969644
1798 -0.86597 -6.79586 0.00917276 -0.71264 2.03385 2.32606
4343 -0.91246 -0.0423996 -3.9673 -0.0686079 -0.901539 2.56653
267 0.911982 -1.48615 -8.57705 -0.868583 0.355864 -0.870467
272 1.6536 -0.768666 -8.48428 0.671917 -0.52083 1.71966
1806 2.31556 -7.028 -0.0451095 2.99997 -1.04738 3.1007
557 1.61417 -1.63236 -7.81811 2.27047 -2.49189 -0.0623542
276 3.0464 -0.804255 -8.48165 2.46956 -1.32004 0.396836
621 7.67248 -9.17659 -6.09854 -0.131129 0.678652 -1.91614
321 3.09817 -9.05633 -7.74113 1.26158 1.55307 1.51657
229 4.9098 -3.09984 -9.21261 -1.11359 3.31971 -1.13656
275 3.91466 -1.66253 -8.33453 1.58802 -0.290873 -1.30906
280 4.68063 -0.845673 -8.46919 0.224533 2.87526 -4.07393
1155 -8.57614 -9.22414 -2.38502 -0.887828 0.124284 0.852162
1801 0.115288 -7.62132 -0.109031 0.643015 -1.50611 -0.519378
279 5.29164 -1.72151 -8.40981 0.347588 1.14747 1.44333
173 1.59102 -4.4713 -9.17331 1.13199 -0.112269 -0.907314
118 -0.600376 -5.38 -9.22042 -0.92456 -2.33037 -0.357482
1790 -3.87984 -7.01696 -0.0459512 0.081044 -1.04514 0.336993
284 6.30726 -0.871166 -8.33802 2.9319 2.29682 0.140678
288 7.8196 -0.718105 -8.45027 1.63774 -3.56588 -1.20141
3465 -6.16939 -0.0492803 -9.19967 1.83077 2.50777 -1.22748
287 8.43693 -1.57581 -8.36067 0.03365 2.56632 0.0730305
244 9.21322 -0.788271 -8.4596 -0.740438 1.44536 0.992008
125 1.60305 -6.00206 -9.10197 -1.35744 -0.278244 -1.55372
238 8.44152 -2.30376 -9.18274 0.243408 -0.700887 1.2957
290 -8.46141 -8.41058 -7.60954 -1.8798 -0.388522 1.83728
578 -8.44231 -8.63392 -6.24167 -3.68741 -0.0480538 -3.16108
339 -8.41581 -7.71578 -6.86321 -0.48937 0.366202 1.35771
1914 6.94769 -3.84611 -0.0762389 -0.342197 -1.01417 -0.0339809
341 -7.65584 -7.54674 -7.60294 1.50181 -2.11568 -0.909227
296 -7.70674 -8.52096 -6.83718 -1.55235 1.3732 -0.997365
582 -6.87217 -8.41941 -6.15612 -1.93886 -0.858861 -0.458964
629 -7.62101 -7.80829 -6.18 -0.144444 0.0121891 -0.36527
170 0.838153 -3.89475 -9.12245 1.5032 3.51003 -1.75303
298 -5.30711 -8.37877 -7.79426 0.464617 0.823644 -1.85102
345 -6.04073 -7.58708 -7.57128 -1.4257 1.25588 1.03026
300 -6.12996 -8.38608 -6.87699 -0.814507 -2.03029 0.483775
347 -5.35958 -7.62298 -6.91473 -0.836662 -0.515412 -0.230067
586 -5.27657 -8.39525 -6.08773 -0.488943 -1.46967 -1.74547
633 -6.13627 -7.65559 -6.17902 -2.37519 -2.51015 0.635107
37 4.61007 -9.19836 -9.18953 -1.25251 1.8813 0.144914
304 -4.6663 -8.26894 -6.85255 1.99332 0.153372 -0.49358
309 -1.45072 -9.19261 -7.88724 0.801154 -0.30685 -1.13283
601 0.12088 -9.18441 -6.36058 1.5303 1.12447 4.34912
285 7.63929 -1.55447 -9.16868 -0.437717 -0.382378 1.29078
1163 -5.36718 -9.20104 -2.26729 -0.597512 -1.3599 -0.201151
306 -2.18878 -8.64246 -7.78552 1.91994 -0.430364 -2.87641
308 -3.07308 -8.4381 -7.15586 -0.183733 -0.814689 -0.299946
594 -2.38911 -8.52962 -6.21439 0.197382 -3.04738 -0.111683
879 -3.68158 -8.94956 -3.81379 0.17415 1.15835 -0.27938
312 -1.43278 -8.37054 -6.92995 0.806419 1.30048 -0.385781
645 -1.35023 -7.63172 -6.06552 -1.47717 -0.499891 -0.0675153
206 -3.95304 -2.55192 -9.08905 0.933821 -0.514727 2.2586
361 0.139779 -7.81373 -7.71368 2.01608 0.622225 1.14725
310 -0.628779 -8.64127 -7.76807 -3.24727 1.51193 0.181401
316 0.129106 -8.3552 -6.89444 -2.22834 -1.6893 -1.89432
359 -0.680403 -7.73096 -7.18804 2.68536 -0.973725 0.506099
365 1.46377 -7.69587 -7.45857 2.75009 1.52746 -1.70372
320 1.5643 -8.38567 -6.80423 1.06788 -0.884416 0.0460082
363 0.771298 -7.62913 -6.73122 -1.66349 0.185379 0.0216528
5 -7.71457 -9.20609 -9.025 -0.437801 0.322936 1.70783
318 2.49085 -8.30963 -7.81179 0.149983 -0.104943 -1.21141
324 2.99938 -8.23727 -6.86184 -0.807851 0.226206 -1.40505
657 2.91468 -7.65776 -6.03568 3.43948 -0.753519 -1.60667
328 4.66014 -8.14033 -6.79246 0.657219 1.23549 1.29358
371 3.78231 -7.61664 -6.85931 -2.24453 -2.05227 0.639203
589 -4.51296 -9.14542 -6.32532 -0.645759 1.10768 -0.341433
610 3.68868 -8.42079 -6.17278 -3.21431 1.19392 -1.106
661 4.59017 -7.83714 -5.88745 -0.626626 -0.503149 -1.14181
591 -3.75601 -9.10036 -5.45143 0.559484 1.95294 -0.627716
332 6.09299 -8.45487 -6.82106 1.44502 2.08395 -1.88883
375 5.55532 -7.50803 -6.952 1.53282 -0.799202 0.582887
614 5.29408 -8.47293 -6.01029 1.21315 -2.02323 -0.289493
317 1.65249 -9.19334 -7.61372 3.01849 0.0577016 0.73796
1929 -6.15126 -3.05477 -0.222272 1.4967 2.33757 1.50052
334 8.67276 -8.41638 -7.6321 -0.486746 1.36447 4.134
336 7.69971 -8.48943 -6.86844 0.867401 -1.30774 1.33102
292 9.23162 -8.27937 -6.79653 0.830899 -1.16361 -2.38163
622 8.48963 -8.58551 -6.12976 -1.34435 0.0199464 -0.451905
385 9.11062 -6.1881 -7.52864 -0.0140005 0.0270007 1.66349
337 -9.154 -7.62266 -7.66494 1.02603 -0.609291 2.74059
626 -8.28304 -7.14191 -6.01059 -1.26955 2.15943 -3.66005
387 -8.31057 -6.2231 -6.86243 -2.79949 0.501768 0.162268
343 -6.89563 -7.63228 -6.83452 0.0180009 -1.64105 -0.0161352
344 -7.6443 -6.81628 -6.80171 2.28085 0.810682 -0.348137
346 -5.25824 -6.83931 -7.58898 0.103431 0.451283 -0.203221
393 -6.20095 -6.32811 -7.71222 -0.074804 -0.272173 -1.11354
348 -6.05028 -6.80526 -7.01333 -2.72321 -0.532169 1.98102
681 -6.07734 -6.2795 -6.02426 -0.662795 0.56956 -3.60476
634 -5.28485 -6.82555 -6.17217 -0.825485 3.06201 1.7426
351 -3.74751 -7.78129 -7.0619 0.739243 0.106439 0.634623
352 -4.56836 -6.97657 -6.82084 -1.60996 -0.785916 -0.746208
637 -4.57724 -7.67401 -6.09928 0.601152 -0.614125 1.08551
353 -2.96355 -7.7144 -7.75058 0.00356137 -2.34748 -0.0467555
355 -2.32467 -7.77063 -7.00632 3.24516 -0.511741 -2.5978
356 -2.99474 -6.90088 -6.93422 0.146367 3.57259 0.595153
358 -0.640873 -6.86757 -7.59163 0.741183 -0.924189 1.60989
360 -1.56631 -6.82867 -6.9825 -0.455616 1.46689 1.31477
409 0.0461336 -6.1677 -7.58599 1.61226 3.04793 1.28511
364 0.101917 -6.83643 -6.84046 -0.630964 -1.65996 -0.0249346
650 0.639895 -6.90473 -6.01761 -1.0359 -1.47065 -0.341956
362 0.756922 -6.96938 -7.54671 1.48102 0.0838044 -0.841872
368 1.44964 -6.77914 -6.78589 -1.20222 -1.34576 0.495228
653 1.63992 -7.60707 -6.21769 -2.53454 -1.30245 0.561389
367 2.47469 -7.45639 -6.92201 0.748174 -0.466061 -0.81661
372 3.34493 -6.78142 -6.98754 -1.26551 -0.833374 0.552109
415 2.22599 -6.15064 -6.78527 -1.16052 0.585803 -0.848157
705 3.22748 -6.04047 -6.17147 -0.416501 -1.29854 -0.865153
373 4.74599 -7.68557 -7.6561 -0.321556 -0.821306 1.64027
370 4.20626 -6.97354 -7.53168 0.12068 -0.776201 -0.598271
376 4.62923 -6.99415 -6.4529 2.5344 1.03722 -3.75121
658 3.66925 -6.82387 -5.85511 0.111686 -2.15196 0.628581
377 6.32229 -7.68933 -7.55311 -1.35438 0.205035 -0.871358
380 6.09557 -6.82075 -6.56053 -1.70115 -0.177519 0.554562
713 6.02269 -5.87692 -5.92038 1.18366 0.006421 0.129594
378 6.81379 -6.90205 -7.45423 2.80878 1.95936 0.614761
379 6.78155 -7.84142 -6.73611 1.75378 0.888928 -1.51746
669 7.76744 -7.902 -6.20728 -0.832956 -1.01132 -2.16431
665 6.00403 -7.69404 -5.8556 -3.48855 -1.01075 -2.7108
384 7.65259 -6.94532 -6.73319 -1.69098 -0.128245 -0.254951
666 6.92946 -6.90302 -6.14574 1.34564 -0.965576 -0.754287
383 8.58007 -7.56669 -6.94321 3.76827 0.901739 -0.85734
340 -9.08193 -6.88699 -6.68101 -0.776717 0.823107 -1.47668
435 -8.45543 -4.56255 -6.99203 -2.58535 0.288092 -1.16907
388 -9.06915 -5.44549 -6.9499 -1.13416 0.248711 -2.18289
390 -6.87064 -5.23438 -7.58406 -1.175 1.06639 2.20948
391 -6.81515 -6.11957 -6.86561 -0.245674 -0.376094 0.454236
437 -7.63661 -4.63281 -7.67988 0.600474 0.34266 2.62525
392 -7.53027 -5.37389 -6.8576 0.479899 0.649121 -0.580337
439 -6.90322 -4.54249 -6.89503 4.14784 -1.40134 0.819623
395 -5.20213 -6.04658 -6.86348 0.376805 0.401358 1.44649
396 -6.18866 -5.45574 -6.8365 0.244972 -0.263478 1.47651
443 -5.35672 -4.63413 -6.93015 2.86414 0.657146 0.82872
398 -3.93574 -5.16888 -7.48957 -0.852761 -0.35199 -0.741854
399 -3.69604 -6.19257 -6.86573 -2.91401 -1.03309 0.00554266
400 -4.60176 -5.31372 -6.62774 0.324359 0.14913 -0.972782
733 -4.55734 -4.47479 -6.02483 -0.255546 -0.837043 2.14551
403 -2.40031 -6.16497 -7.18391 2.24802 0.204342 -0.611234
404 -3.02461 -5.32817 -6.95101 -0.0762397 -0.215659 -0.863529
690 -2.20999 -5.45258 -6.04809 -0.596233 -3.18007 -2.47923
449 -3.09102 -4.6426 -7.67019 0.0837931 -0.660686 0.366043
451 -2.043 -4.72161 -6.75563 0.84567 -0.321842 -2.0116
689 -2.96758 -6.17805 -6.06125 -2.77372 -0.207852 -1.24577
407 -0.720322 -6.14796 -6.863 -0.839652 -0.137806 -0.700825
408 -1.53637 -5.53566 -6.97106 2.3182 -1.41024 2.18221
693 -1.55684 -6.17998 -6.26419 -1.23393 0.426829 -0.342952
410 0.983114 -5.3098 -7.7065 -3.72235 0.354934 -0.679797
411 0.766963 -5.97377 -6.8357 -3.07125 -1.27498 -2.27529
412 -0.0844327 -5.16715 -6.95591 1.27968 1.58879 1.09122
459 0.74603 -4.59555 -6.95392 1.27824 -0.114388 3.41104
416 1.60368 -5.3026 -6.71592 0.58766 0.3044 1.30238
414 2.32184 -5.48048 -7.58509 -0.246406 -0.681898 1.03493
420 3.3628 -5.19061 -6.85968 0.401002 -1.94066 -0.4331
463 2.45684 -4.63711 -6.95284 1.81783 1.47643 2.65518
418 3.8673 -5.43757 -7.72833 -3.07548 0.709744 0.6346
419 4.04383 -6.13366 -6.77203 -2.69162 -2.99196 -0.445264
424 4.7302 -5.35718 -7.02811 0.502219 1.2665 -1.73868
469 4.76007 -4.51214 -7.66872 -0.0387962 0.357141 -0.398398
467 3.98134 -4.46428 -7.0908 0.440014 3.01211 0.417431
706 4.04704 -5.33391 -6.10251 -1.05957 0.711448 0.522831
757 4.56787 -4.43888 -6.08993 -1.95709 1.12758 -1.99796
473 6.29084 -4.55427 -7.54903 0.955445 0.0258691 1.92558
423 5.36737 -6.25331 -6.61729 -0.770342 -0.795899 1.27561
422 5.46462 -5.29464 -7.5471 0.892272 2.04166 -0.355375
428 6.21065 -5.3387 -6.80679 1.24355 -1.93949 0.373618
426 7.03969 -5.3932 -7.57789 -1.20519 -0.51378 0.843691
427 6.89184 -6.01941 -6.68721 1.1782 0.290923 0.269926
432 7.66791 -5.47629 -6.7485 -0.34028 -0.628081 0.902427
714 6.81965 -5.24818 -5.98983 0.648439 0.0530419 -0.476504
431 8.48724 -6.28478 -6.84939 -0.641001 -1.03441 -1.48779
433 -9.12645 -4.7281 -7.74278 -3.9975 0.13959 0.375808
434 -8.38488 -3.96634 -7.70715 1.92613 -0.544775 1.16206
483 -8.56438 -3.13177 -7.04806 2.07086 0.038826 -0.0931035
440 -7.73985 -3.8028 -6.87804 1.23427 -2.82259 2.26634
487 -6.99601 -3.14076 -6.8921 0.647821 1.5323 0.0836695
442 -5.45176 -3.80848 -7.60413 1.97078 -0.671238 -1.36004
444 -6.15119 -3.90176 -6.91022 -0.926416 -3.4206 0.397045
491 -5.45366 -3.04654 -6.84588 -0.994013 -3.24394 -0.368982
446 -3.98174 -3.96218 -7.53545 1.08809 1.09657 1.28287
447 -3.86352 -4.62072 -6.71929 -0.340628 0.690536 -0.787127
448 -4.63792 -3.9895 -6.83156 5.23409 3.06875 -0.016057
734 -3.94472 -3.66445 -6.1424 -0.565521 0.194818 1.31431
450 -2.26193 -3.7703 -7.77414 0.546325 -0.676604 -0.930605
452 -3.1041 -3.89946 -7.04505 -0.102916 1.01762 1.65362
737 -2.95039 -4.77841 -6.14466 -0.146789 -2.01142 -0.183687
738 -2.23152 -3.88831 -6.12274 -0.0607625 -0.0348104 1.38368
454 -0.762518 -3.80789 -7.58817 -0.833932 3.58574 1.0291
455 -0.869163 -4.59874 -6.84572 -1.82715 1.00495 2.04716
456 -1.50664 -3.77543 -6.88929 1.75457 1.30137 1.77481
457 0.0139509 -4.44009 -7.7543 -2.21266 0.853055 1.75213
460 0.0414818 -3.84817 -6.93518 1.47314 -1.73649 -3.55509
509 1.74751 -3.04702 -7.6583 -2.30839 0.374682 -2.33085
461 1.67885 -4.63646 -7.4815 -0.490629 1.51138 -0.247697
464 1.62785 -3.70149 -6.83402 1.83602 0.677545 1.86066
507 0.819144 -3.01526 -7.16859 -0.00299858 -2.33045 -0.727657
465 3.18523 -4.65101 -7.59465 -0.129725 -3.00788 -1.09462
513 3.1566 -3.03101 -7.52272 2.52074 0.509578 -2.01898
462 2.33112 -3.82771 -7.58492 -1.81827 1.26586 -0.84114
468 3.19796 -3.97004 -6.8678 1.14057 -0.708661 -0.833027
511 2.46478 -3.14797 -6.77081 1.76314 2.14391 -1.82538
517 4.84981 -3.10989 -7.57573 -0.166098 0.866236 0.735531
472 4.78571 -3.81958 -6.89352 -1.26152 -3.01753 -1.29138
754 3.84597 -3.62 -6.03066 1.36851 0.442065 -0.609452
761 6.26737 -4.46349 -5.9725 -2.2836 0.152754 0.219789
471 5.51817 -4.50748 -6.80733 2.09723 -0.646952 -1.60323
470 5.50218 -3.77273 -7.63042 0.43877 -0.0377086 1.84845
476 6.24157 -3.73732 -6.9183 -1.97544 -1.11886 0.767176
477 7.67883 -4.62319 -7.73782 -0.408392 -1.53281 2.44492
475 7.04461 -4.59663 -6.82186 0.636599 -1.18401 1.72171
480 7.9468 -3.93 -6.91445 0.521525 -1.27043 -2.98549
478 8.46409 -3.89463 -7.68093 0.347524 1.57151 0.238561
436 -9.20087 -3.88262 -6.87757 -0.799132 0.818463 1.28097
479 8.73653 -4.67385 -6.75995 -2.35765 2.02374 -0.598131
527 8.52454 -3.08721 -6.96854 2.19848 -0.0711502 -1.43063
481 9.21606 -3.24152 -7.82282 0.627032 0.87167 -0.0303323
482 -8.4659 -2.49006 -7.79209 2.67789 -0.650112 -0.289641
531 -8.44288 -1.55731 -7.03731 -0.0348139 2.06146 3.54347
770 -8.34019 -2.35031 -6.14952 -2.97798 0.0483523 -0.109606
485 -7.64636 -3.25706 -7.69509 -2.38679 -2.45973 -0.25051
488 -7.67732 -2.38326 -6.9822 -0.0525676 -0.790581 2.2501
535 -6.87049 -1.47375 -6.96127 1.51596 1.90878 -1.14722
489 -6.22648 -3.20623 -7.70916 -0.605617 -0.0798757 -1.96852
490 -5.44692 -2.41919 -7.85921 1.59572 -1.98053 2.12144
492 -5.95944 -2.28506 -7.04526 1.57389 2.06224 1.51234
539 -5.52426 -1.47723 -6.93116 1.85704 0.472169 1.86592
494 -3.95133 -2.31373 -7.64559 -0.159424 -0.347414 1.00044
493 -4.59158 -2.96076 -7.45649 1.08371 0.237829 1.61411
495 -3.68345 -3.01797 -6.88955 0.522337 -1.10578 0.774292
496 -4.65739 -2.26171 -6.85574 -2.5524 -1.00778 0.529086
541 -4.65033 -1.5819 -7.64146 2.64799 0.96417 -0.443918
543 -3.98946 -1.45676 -6.82768 -0.860343 -0.351549 0.28286
545 -3.21076 -1.52211 -7.6077 -1.14054 0.911464 -1.14867
499 -2.41766 -3.14365 -6.88855 1.42569 1.90368 -2.59705
500 -3.14119 -2.12422 -6.84344 -0.395125 1.9163 -0.543749
547 -2.39969 -1.3752 -7.05896 -0.531315 0.535321 1.53956
502 -0.787672 -2.12063 -7.72051 0.122509 1.66898 -0.0201642
503 -0.815882 -3.02889 -6.99108 -2.05337 1.78342 0.606511
504 -1.57768 -2.01801 -6.98037 -0.784779 2.19629 1.20785
551 -0.714279 -1.61405 -6.78644 -0.494196 0.324367 -1.98991
505 0.0254061 -3.24676 -7.70529 1.30332 -1.93948 2.13575
508 0.0978626 -2.41404 -7.06748 -0.704461 -0.912202 -0.730524
506 0.83185 -2.10548 -7.85884 2.00591 0.877113 3.14921
512 1.71302 -2.40925 -6.84758 0.425913 -1.88454 -1.94693
555 0.708951 -1.47067 -6.98785 -0.503717 0.240336 -0.623455
510 2.43041 -2.30259 -7.68582 -2.19398 1.80556 2.89039
516 3.11714 -2.31754 -6.77104 1.9517 1.06189 -4.17539
559 2.28508 -1.60875 -6.95795 0.297315 0.502604 -0.0258501
798 2.31977 -2.22332 -6.05618 -2.08937 -0.119414 2.15725
849 3.05982 -1.52885 -6.07216 0.613297 -3.15696 -0.739799
515 3.92405 -3.09375 -6.72246 0.398515 -2.54554 0.105273
520 4.74092 -2.35963 -6.73428 -2.09791 0.721337 2.94589
563 4.03593 -1.67498 -6.79834 0.494238 -3.21938 -0.335963
521 6.29214 -3.03827 -7.71216 0.770604 2.05232 1.32005
518 5.4618 -2.39415 -7.74939 -1.19716 -1.40202 -1.29074