ITEM: TIMESTEP
180000
ITEM: NUMBER OF ATOMS
6912
ITEM: BOX BOUNDS pp pp pp
-9.2265715179435492e+00 9.2265715179435492e+00
-9.2265715179435492e+00 9.2265715179435492e+00
-9.2265715179435492e+00 9.2265715179435492e+00
ITEM: ATOMS id x y z vx vy vz
338 -8.70641 -7.61682 -7.77573 -0.365274 -2.49195 -0.00215672
5 -8.90405 -9.16612 -8.41809 -0.751586 0.94287 -0.927222
56 -8.92044 -8.26853 -8.98515 -1.94233 0.212022 -0.195514
293 -8.28377 -8.48311 -8.11133 -4.01923 0.547476 0.592493
6869 -8.01491 -9.08244 -8.90787 1.75004 -2.20305 -0.701413
55 -7.22824 -8.10087 -8.39674 0.644392 -0.821704 -0.389849
10 -6.53102 -8.83558 -8.28874 -0.469852 -3.0378 -0.486287
294 -7.48636 -9.06469 -7.98481 2.15443 -0.922744 1.38681
3177 -5.47862 -8.42493 -8.19795 1.79263 1.92777 -0.688945
1844 -2.14652 -4.4447 0.00564963 1.10791 -0.466758 1.07227
2895 -4.50591 -8.39568 -8.22741 3.31373 2.36918 -1.70621
905 6.55583 -9.09813 -6.89835 0.26354 -3.09948 -1.2186
3711 -3.62347 -8.9147 -8.41646 -0.0182425 0.168244 -1.31479
1928 -9.02725 -1.37734 -0.53291 -0.410542 -0.19715 -4.50382
162 -4.26048 -4.4132 -8.88593 -0.644514 -1.5427 0.305953
19 -2.5615 -8.47632 -8.20121 3.38251 0.791951 0.382717
206 -4.42414 -3.52158 -9.10756 -1.89004 1.41004 0.193297
311 -3.27286 -8.44088 -7.55489 0.658667 0.392631 0.627182
1367 -1.01568 0.0185663 -2.54307 0.895882 1.03551 0.586433
67 -2.12078 -7.66447 -8.35748 0.286033 -1.71735 -0.166021
17 -1.24342 -8.21194 -8.71303 -0.0880169 2.318 0.337989
3435 1.60399 -1.29954 -9.08573 0.4576 -0.242254 0.71201
3720 -0.680419 -8.42371 -7.97539 -1.26945 -0.148375 1.33496
606 0.138223 -8.54991 -8.53097 -1.91442 -3.13915 0.277682
71 -0.40074 -7.9843 -9.07708 1.94987 -0.601459 0.0659155
366 0.95618 -8.71671 -7.72235 -1.27895 -1.99961 1.97983
172 2.50618 -7.60912 -7.48153 1.66901 1.4658 1.1499
413 0.605796 -7.68731 -8.50521 -0.326869 -1.02912 1.01049
75 1.4543 -8.62334 -8.66043 1.61047 -0.897703 -0.298667
654 2.96279 -8.01494 -8.34139 3.03676 -1.23223 -1.96779
417 1.89815 -7.87905 -8.34343 -0.53023 0.298005 -0.524513
36 3.23548 -8.86968 -9.03976 1.95379 0.309604 -2.97701
39 3.69181 -7.59603 -8.75898 -0.272398 3.39964 -2.2019
133 4.69339 -7.77844 -7.84203 0.177527 2.21201 -0.295328
28 4.18835 -8.47705 -8.27232 -0.544245 -0.960496 -0.932717
86 4.92344 -7.93332 -8.9604 -1.09288 0.0691973 -0.778297
20 -0.523298 -9.0966 -5.6712 1.55989 0.236133 -1.34854
88 5.60873 -8.18993 -8.26249 -1.63598 -0.150665 -0.0452338
326 6.53691 -8.39018 -7.76198 -0.358234 0.43848 2.34475
2014 6.36245 -0.232794 -1.74306 -1.12847 -2.36159 1.76671
4601 5.81987 -9.12698 -5.29626 3.11974 -0.163327 0.650009
379 7.18794 -9.12739 -8.24805 -1.28211 1.99648 -2.06571
42 6.30105 -8.80708 -8.69027 -0.278703 -0.750802 0.0203232
2 7.11438 -8.1979 -8.4873 -0.267292 1.06606 -0.117175
330 8.02911 -8.5356 -8.2075 -3.41802 -2.6568 -1.92148
53 8.95179 -8.38403 -8.26462 0.45826 2.77315 -0.456223
387 -8.45515 -7.09949 -8.64495 0.664353 1.73514 0.333088
4087 -6.84705 -0.297243 -5.70758 -1.08573 -1.41377 -0.356284
389 -6.62697 -7.40896 -7.88031 1.8212 -2.31182 2.92358
151 -6.88878 -6.05495 -7.55662 -1.46106 2.72089 1.0147
108 -6.40203 -6.58543 -8.27504 0.126763 -1.16302 -0.692632
2940 -7.22506 -7.06418 -8.63432 1.2063 -2.90268 -0.928914
50 -7.32016 -6.07613 -8.62891 1.14971 -0.458366 2.23462
393 -5.68114 -7.11555 -7.93874 -1.08073 -0.561261 -0.393471
60 -5.11719 -6.80556 -9.0964 1.68124 1.80279 -1.02042
12 -4.78544 -7.6773 -7.64364 2.20252 1.08145 -3.09127
3271 -6.15865 -7.11443 -9.05646 1.11892 0.789658 -1.32163
3228 -4.91761 -7.52077 -8.56209 0.417274 2.19276 1.24132
298 -4.163 -7.9243 -9.10775 -0.199803 -0.408662 -1.76604
350 -4.6216 -6.58249 -8.15798 1.49016 0.958377 -0.953351
399 -3.61234 -6.57148 -8.22718 -0.900257 0.108893 0.888322
3236 -2.9541 -7.3707 -7.91967 0.719492 -2.72367 1.44595
107 -3.20377 -7.97375 -8.84206 0.98178 0.504226 -4.68735
358 -1.70861 -6.6427 -8.58322 0.255696 2.53335 -0.446844
3235 -2.79534 -6.92421 -8.7386 0.418634 0.466836 -1.35094
354 -1.35051 -7.67718 -7.77761 0.773823 -1.35177 0.643602
69 -0.961514 -7.26819 -8.71795 -0.0565413 -0.0722284 4.11427
70 -0.386478 -6.63423 -8.34824 -3.69022 0.252099 1.49406
1337 6.33126 -3.86496 -0.096674 -1.10528 -0.512762 2.64416
3239 -0.313439 -7.56769 -8.16682 0.913876 -0.340595 -0.423577
462 0.372723 -6.96184 -7.55047 0.480453 -0.490398 1.45301
4940 4.24121 -0.0116892 -1.82282 2.61089 0.935555 -0.776882
77 1.19752 -6.99257 -8.20936 2.4276 -1.54129 -0.9219
703 2.09916 -6.51273 -8.08972 -2.92454 -3.67378 -1.20262
370 2.86247 -7.00645 -8.34329 2.17354 -0.190032 2.99149
4850 -7.49011 -9.12906 -4.53019 0.533704 1.02398 1.5322
131 3.68392 -6.32448 -8.40085 2.2293 -0.503343 0.393497
5162 1.88554 -9.10349 -2.58664 -0.199756 -0.568683 3.65395
378 4.48712 -6.64808 -7.97744 -1.00257 -0.377796 -1.05771
135 4.47258 -6.84293 -8.90296 -0.116587 1.7393 -3.26422
3300 4.31643 -5.8315 -9.05232 0.721233 -0.891773 2.32167
3734 6.41318 -6.75822 -8.06996 -1.55151 2.3833 1.69324
92 5.36885 -6.17493 -7.69323 0.780529 -3.04026 1.68975
3260 5.40958 -7.09931 -8.16821 1.15485 3.88029 0.176058
430 6.97495 -7.53715 -7.71261 1.42316 -0.760637 3.31394
714 7.31015 -6.72854 -8.48454 1.21408 0.647986 2.00095
4 7.85236 -7.36527 -7.99924 1.25227 -0.497217 -1.82697
91 6.28881 -7.56832 -8.61092 0.607174 -1.93408 0.268478
383 9.17772 -6.56733 -8.30167 1.88382 0.418291 0.343695
384 8.31188 -6.76383 -8.79038 1.86766 -1.36147 -0.184493
46 8.73705 -7.49779 -7.88846 1.25722 -3.1727 -1.72669
666 8.83532 -6.72812 -7.3513 2.48664 -1.28907 -2.32385
51 8.05522 -7.95236 -8.95232 1.54997 0.856052 -0.162788
3992 -7.16352 -9.10632 -5.7286 2.85797 -0.585338 0.147019
386 -9.27386 -4.69302 -7.77924 -2.98859 0.250341 -0.59878
98 -8.65967 -4.88451 -8.53446 1.22269 -2.21951 -1.73806
390 -7.84691 -5.49438 -8.01374 -2.27404 -0.870938 0.522615
340 -8.38743 -6.01777 -8.7073 -0.529791 0.201287 -0.916113
4828 -2.64345 -9.19206 -1.78715 1.73023 0.833628 -2.61369
441 -6.8127 -5.31097 -8.27535 0.975877 2.24315 -3.05375
394 -6.04785 -5.56289 -7.65629 0.316228 0.991572 1.16789
155 -6.03508 -5.59914 -8.78233 5.19835 0.703857 -1.86901
346 -5.31958 -6.03167 -8.29752 -2.51956 2.59274 1.65444
159 -4.58811 -4.76444 -8.0481 2.27778 -0.575749 0.175382
3331 -4.92323 -5.25518 -8.87107 -1.57935 -1.81538 5.58433
398 -4.14585 -5.59987 -8.34583 0.359321 2.00985 1.37991
402 -3.55731 -4.86906 -8.33354 0.544417 1.46839 -0.259718
4639 2.06853 -0.196195 -2.01335 2.43916 1.35895 2.66893
401 -2.4872 -6.13292 -8.21678 0.52857 -0.0299679 2.9037
68 -2.58534 -4.94792 -8.382 -1.20575 2.24505 0.400669
690 -3.29704 -5.74513 -7.88358 -1.33217 -0.96503 2.30252
407 -1.81904 -5.56714 -8.46173 -0.135295 1.91103 1.00685
457 -1.00026 -4.88358 -8.05184 1.01745 2.56398 1.42783
742 -1.8393 -4.60541 -7.81231 -1.19381 1.08631 2.79737
4352 1.16454 -0.471707 -1.63195 2.70893 0.311545 -0.425533
941 0.410107 -6.30466 -8.49826 2.68143 1.24225 -0.743105
105 -5.97337 -8.73768 -9.10499 -2.91432 1.7577 -0.176801
3821 3.81498 -0.34257 -6.63503 -2.31918 -0.566247 1.17
460 0.112411 -5.11209 -8.93781 1.97427 2.3501 -1.75521
362 -0.562817 -5.62727 -8.44196 0.377041 -1.41256 1.20145
508 0.243054 -4.65365 -8.12194 -1.68811 -0.512455 0.345627
416 1.0091 -5.26281 -8.46087 0.647521 -0.623253 1.812
705 1.6238 -6.14147 -8.90436 -1.18696 -0.00624944 -1.10714
406 1.28614 -6.06327 -7.99619 0.11137 -2.0603 -2.80824
510 1.93395 -5.19678 -7.90472 -3.33412 -2.12769 0.331995
4882 2.40227 -9.07618 -0.970606 -0.785991 1.207 0.769091
472 2.58878 -4.90577 -8.62685 1.6187 -2.56151 0.858873
132 2.64972 -6.07834 -8.99576 -0.606425 0.888617 0.580957
183 4.38871 -4.68906 -8.41368 -1.88407 -0.612564 0.448737
136 4.63809 -5.59091 -7.94482 -0.937187 0.491833 -0.40109
3304 3.57981 -5.24324 -8.49654 -1.82564 -0.414647 0.80024
95 5.35877 -6.33627 -8.8608 0.124886 1.00965 1.34898
137 5.47528 -5.51458 -8.38634 -3.65993 -0.0833065 -0.0152656
1535 7.22411 -9.19398 -0.871255 0.635453 -1.06573 0.294927
139 6.33923 -5.8123 -8.62708 -1.50734 0.249008 -1.17467
421 6.17145 -4.75355 -8.57357 1.47188 -1.41836 -2.37429
144 7.3051 -5.36365 -8.38213 -1.31068 -0.4803 -0.274991
861 7.95884 -0.0685761 -6.00411 2.19717 1.2883 2.94974
385 9.07422 -5.60131 -8.45767 0.715247 -0.563251 -1.72992
100 7.98505 -6.05851 -8.19061 0.192482 -2.2767 0.831166
388 8.22067 -5.08524 -8.11777 -2.87451 0.324351 -2.35821
432 8.66829 -5.61331 -7.43745 -0.559963 -2.13816 -1.20704
893 2.51817 -8.73692 -5.31868 -1.21344 2.77846 1.16517
440 -8.89894 -3.93013 -8.41861 2.62118 0.401297 0.134914
194 -8.38228 -2.79196 -8.77358 -1.49115 2.1108 0.127748
3368 -8.03597 -4.02343 -8.86466 0.589292 -1.02996 1.16135
152 -7.467 -4.50704 -8.18216 0.853342 2.38503 0.353901
199 -6.91541 -3.58807 -8.32756 -2.51623 -0.702644 0.923756
438 -6.35606 -4.30759 -8.21224 -0.166881 1.58135 1.79516
200 -7.92017 -3.53675 -7.96472 3.12219 -1.0049 -1.62733
449 -5.51941 -4.92905 -8.10446 -1.88091 -2.11312 -1.15795
161 -5.55415 -3.83375 -7.59779 1.58958 1.16578 0.896658
830 -5.05302 -2.94538 -7.24735 2.21209 3.14159 -0.991607
106 -5.16879 -4.05296 -8.49116 -0.543077 -0.751283 -0.882349
493 -4.17856 -3.69246 -8.18549 -0.873001 -1.7974 -0.715255
543 -4.11759 -2.79931 -8.455 0.157894 -0.651099 0.577199
164 -3.44187 -4.23191 -7.72959 0.48487 0.947686 0.222495
165 -2.43985 -3.9385 -8.22991 0.702943 1.02607 1.42337
163 -3.28625 -3.80675 -8.62696 -2.17532 -1.0553 -2.33503
545 -2.50676 -4.2112 -7.22354 -0.464604 0.149728 -0.370434
748 -1.69247 -4.38833 -8.84089 -0.759003 -2.29472 -1.8092
216 -1.33684 -3.8109 -7.68059 0.735239 -0.590531 0.642515
215 -1.56321 -3.2721 -8.72519 -0.394176 1.5915 -0.328547
698 -0.807145 -4.00166 -8.55738 -0.234403 1.29698 1.12703
219 0.280231 -3.60495 -8.24516 -0.562207 0.978385 1.11424
220 -0.368747 -4.12873 -7.66782 -2.46333 0.502513 -1.39822
412 1.09 -4.13652 -8.42965 -0.169719 3.42555 1.82761
177 2.10511 -3.51821 -7.53869 1.48102 1.89989 0.438019
5142 -6.38459 -9.01225 -1.09096 -1.95995 0.229032 3.14452
173 2.05074 -4.24019 -8.24764 2.1381 1.54769 -1.54469
223 3.58363 -3.18524 -8.10974 0.49269 -0.274976 -1.13537
179 2.82368 -3.2971 -9.10239 0.862776 0.367906 -0.877977
461 3.57831 -4.00553 -8.55671 -2.20239 -0.356096 -1.94984
184 4.36964 -3.57814 -8.25246 0.0296836 1.46054 1.11873
381 6.33396 -6.67662 -9.0396 -0.672245 -0.384672 -0.623265
187 5.26083 -4.09737 -8.89628 0.576013 3.69846 -1.81485
426 6.0868 -3.43009 -8.13263 -0.42384 2.84115 -0.612997
279 5.23408 -3.18181 -8.53566 2.91846 0.374013 -2.4951
3344 0.866428 -3.29694 -9.15204 -1.82036 1.10365 1.48387
478 6.93071 -4.17212 -8.51674 0.00470854 -0.227647 0.803268
525 6.90203 -3.55947 -7.46484 -0.189626 -2.88925 1.1856
337 7.05622 -7.3765 -9.12647 -0.152377 0.874672 -0.48168
526 7.76695 -3.89295 -8.32193 1.10107 0.389282 1.20698
433 8.67883 -4.22011 -8.7364 -0.109965 0.0210413 -1.93385
193 -9.15868 -3.3273 -9.22467 -0.680877 2.09637 -2.58939
434 -8.97944 -3.00371 -8.04592 -0.905576 0.539133 -0.24586
3413 -7.93471 -1.75494 -8.52303 0.452652 2.00074 -3.31526
242 -8.09389 -2.64355 -7.61164 -1.55141 1.52973 -1.9112
243 -8.69765 -2.13528 -8.12688 -1.22223 1.11495 5.31609
247 -7.39201 -2.60906 -8.51073 -0.201631 -0.575202 1.13186
777 -7.09777 -2.73682 -7.50089 0.524732 -1.63347 -0.628506
204 -7.16698 -1.81737 -7.73411 1.32276 1.40024 1.21228
4927 3.62944 -0.198598 -2.96364 -3.39845 -4.16118 2.32532
252 -6.21224 -1.63075 -7.63153 -0.715646 0.866148 -2.47638
869 -6.34688 -8.87513 -2.8015 0.781422 0.867592 2.1471
202 -6.26822 -2.211 -8.39253 0.86905 -0.275136 2.23209
489 -5.47697 -2.38718 -7.9184 3.80555 -2.1445 2.83286
154 -6.05724 -3.12628 -8.48053 2.7643 -1.43809 -0.332999
3753 -5.47237 -1.54138 -8.44761 2.67095 -0.999524 -0.620709
205 -5.06353 -3.12302 -8.48581 -1.95101 -0.418141 -1.46101
3328 -4.49648 -2.00224 -8.32584 0.25507 -0.359345 -0.0797262
256 -4.10799 -2.38916 -7.54467 0.890851 4.15501 -0.451151
3375 -3.41569 -2.10279 -8.31586 1.34289 2.22803 1.39627
209 -2.82279 -2.88494 -8.54863 0.546706 1.01217 -0.433153
452 -2.94831 -2.00192 -7.31018 0.0469563 -2.59372 -1.78078
3379 -2.25368 -2.04912 -8.23788 1.39863 0.613379 -0.725821
1184 0.879055 -8.83817 -1.61142 -0.716616 3.57564 0.0587579
264 -1.90489 -2.0349 -7.28252 2.09646 0.0723894 0.810833
547 -1.03303 -2.74077 -8.13463 -1.80172 -0.611273 -2.42245
3431 -0.207511 -2.7119 -8.6771 0.143098 0.627224 1.44074
557 0.713471 -2.6357 -8.2362 0.269433 -0.761312 -2.85805
505 -0.169046 -1.82918 -8.07232 1.1672 1.19908 0.143003
553 -0.229899 -2.76226 -7.59002 0.420401 -0.568757 0.337455
3434 1.68726 -2.41529 -7.36101 -2.74561 1.62666 -0.485759
221 1.4428 -1.8815 -8.35374 0.243905 1.08807 -0.672193
222 1.63765 -2.93445 -8.27807 -0.891184 0.32995 0.905095
4058 0.328484 -1.73101 -8.98136 -2.14025 0.989858 0.798587
226 2.63467 -2.92384 -8.19576 1.79273 -1.83518 1.25837
274 2.39674 -1.97479 -7.92847 0.215203 0.34685 0.186208
810 5.93526 -0.300578 -5.17501 0.134454 0.607016 -1.06659
518 3.18537 -2.27079 -8.57539 -0.705838 -0.855051 -1.51637
178 3.71128 -1.29137 -8.63349 -0.755254 -1.47734 1.56892
4686 3.87477 -0.140592 -3.91612 0.919743 -1.24062 0.616387
3449 4.73723 -1.67906 -8.255 -0.819972 -0.821423 -0.883425
564 4.37126 -2.55005 -8.56239 1.41144 1.23969 -2.22088
235 6.16372 -2.6378 -7.64756 2.00584 3.04375 2.2152
236 5.48831 -2.22413 -8.47735 1.08166 1.58554 -1.99216
230 5.97767 -2.92283 -8.98117 -0.741259 4.24288 1.10261
522 7.05578 -2.1656 -8.04472 3.29049 -1.26994 -2.1924
3403 7.87611 -2.39965 -8.53058 0.419212 -1.93418 0.561495
192 6.95002 -3.06717 -8.52132 2.38397 3.1027 -1.0658
288 8.52678 -3.31253 -8.58355 -1.70354 -1.75384 0.00609558
245 8.74421 -2.34351 -8.07724 -1.41382 -0.25306 0.244555
93 7.80961 -8.97124 -9.05129 -2.10726 -0.443571 0.691748
4022 5.20531 -9.2291 -8.16737 -1.21673 -1.07436 1.38189
530 -7.7428 -0.885358 -7.98244 2.57576 0.273018 -0.683676
3412 -7.32668 -0.740375 -8.85082 0.201598 -3.51942 -0.565179
3502 -8.2226 -0.484198 -9.06531 1.32823 -0.978006 -2.30813
818 -8.74321 -0.0579803 -5.6768 -1.08713 -1.32135 -0.772223
2659 -2.21965 -8.27689 -9.10351 1.61223 -0.602406 0.00142593
3416 -6.45649 -1.22748 -8.53786 -0.0153933 -1.97158 0.13799
4044 -6.672 -0.822096 -7.7127 2.06528 -0.480355 -1.46407
3746 -6.58301 -0.181734 -8.4221 -1.42274 0.246454 -0.410948
1690 -5.63211 -0.282118 -2.45874 -0.325271 -0.130994 1.72556
3472 -5.71665 -0.850086 -7.50736 0.692406 -0.431678 -0.173126
890 0.740634 -9.17657 -6.40007 -0.90297 -1.58581 1.06317
4042 -4.62368 -0.0850693 -7.98578 0.48728 -0.131036 1.50111
546 -5.02223 -0.74975 -8.39886 -1.01967 -1.88628 -1.37585
210 -4.04641 -1.01981 -7.91555 -0.0146765 -0.00642651 -2.40607
3424 -3.91477 -0.364982 -8.72541 -2.1046 -2.59406 -2.12144
212 -4.03068 -1.25143 -8.77871 1.36799 -0.268945 -3.06235
6645 -3.08606 -1.12598 -8.30242 1.6886 1.71735 0.5478
3474 -2.26177 -1.07903 -8.91968 -0.341904 1.00118 -2.34684
257 -2.00814 -1.16828 -7.90906 -0.533616 -0.363708 2.50137
566 5.5278 -0.267181 -7.27628 -1.65661 0.786386 -1.54509
3767 -1.30228 -0.867513 -8.71922 -0.717464 1.55846 2.90286
3473 -1.6184 -0.194949 -8.0861 1.3718 -0.165735 1.03292
1691 -6.73421 -0.20096 -0.482479 -0.171934 1.9755 -1.16329
261 -0.283338 -0.860632 -8.44551 1.39385 -0.597269 -1.53619
3382 -0.64096 -1.76245 -9.00956 1.50297 -1.16976 -0.722237
4060 -1.24223 -1.80782 -8.09822 1.06709 0.192629 -0.814076
1592 -7.84988 -2.22649 -0.103036 -1.1404 0.323889 1.12874
268 0.874719 -0.509179 -8.73424 -1.08617 -1.03223 0.32619
4059 1.23723 -0.245255 -7.7649 1.22791 -1.02725 0.522494
3774 0.788345 -1.2038 -8.02786 -1.00151 1.53834 -0.467414
3481 1.80107 -0.46964 -8.54082 2.03449 -0.271558 0.184712
3390 2.60166 -1.56333 -8.87894 0.40383 0.649506 -1.63553
3770 2.18423 -0.129212 -7.70615 1.87101 2.85149 -1.95339
3823 2.79634 -0.689807 -8.45517 -0.940493 -1.55617 -0.781387
269 3.08816 -1.29632 -7.8198 -0.245357 2.40214 0.977884
6651 1.88408 -1.0936 -7.85959 -0.865175 0.115066 0.769058
563 3.38654 -0.384169 -7.73292 -0.735033 1.66871 0.769191
284 4.85474 -0.705616 -8.02495 2.48694 -1.30328 0.553222
3440 4.63904 -1.30255 -9.14084 -0.25357 0.0864965 1.11204
6660 4.30929 -0.243665 -8.6354 -1.56578 1.7245 4.82815
1452 -4.05352 -7.68576 -0.0201546 -0.416167 -0.478735 -0.573504
281 6.27828 -1.86493 -8.54196 4.03926 0.0472096 1.02885
1861 4.65893 -5.33556 -0.316662 -1.4078 -3.07374 0.0613975
234 7.38161 -1.45872 -8.63876 -4.02759 -0.224633 -1.46091
283 6.79049 -0.680178 -8.06499 -3.18288 -1.12673 3.05571
3839 7.27821 -1.21929 -7.46158 0.118635 -1.54148 -0.200069
240 7.97305 -0.717659 -8.56487 0.734913 2.49517 -1.45621
6673 8.5673 -1.48353 -8.97473 -0.841655 -1.1327 0.966065
5449 -1.65891 -9.20215 -2.1592 -0.197551 -0.770079 1.5333
3503 8.2515 -1.50486 -8.09715 0.168544 -1.79733 0.907153
532 -8.73627 -1.19495 -8.43713 0.277477 0.15236 1.56867
578 -7.85087 -8.50507 -7.24769 1.39089 -1.35276 0.127475
5717 -5.3778 -8.54694 -1.21043 0.342488 0.335299 0.336845
622 -8.92136 -8.43094 -7.2251 2.65454 -2.77746 -0.488786
7 -6.70611 -8.34876 -7.45878 2.69252 -1.21525 -0.416839
115 -3.21859 -5.95923 -9.01505 -0.116754 -0.838531 1.31236
291 -7.67229 -8.47525 -6.10908 -0.476019 -1.52417 -0.761133
635 -6.66038 -8.56705 -6.47165 -1.61303 -1.09696 1.29572
225 2.13722 -2.40851 -8.85865 1.92294 -1.19901 -0.0817004
586 -5.91755 -9.03278 -7.61348 1.02364 0.509152 0.838646
347 -4.40207 -8.19805 -6.79877 3.87508 -1.46466 -0.498222
345 -4.96098 -8.68042 -7.43527 0.19577 2.55546 1.1451
637 -5.4979 -8.39212 -6.56257 -3 -1.74649 -0.670438
1418 -0.862172 -0.094578 -4.47459 -1.03027 -1.83461 0.158515
925 -4.43634 -9.10465 -6.23665 0.00344056 -0.347019 -1.31336
349 -3.15916 -8.73454 -5.76087 1.27375 0.524691 1.57981
929 -3.6179 -8.74367 -6.52976 -2.06882 -1.91237 -0.223616
1515 0.581281 -8.75049 -0.0239209 -0.116126 1.32411 0.742247
640 -2.663 -8.36225 -6.58584 1.10647 -0.608568 -2.15552
597 -1.1846 -9.21294 -6.32476 -2.21668 -3.1807 -1.99308
353 -2.02958 -8.93041 -7.15496 2.01152 1.25468 -1.82916
4008 -1.64172 -8.7003 -8.00396 -0.857044 -0.942054 -1.17336
24 -0.459417 -7.9617 -7.12846 -0.233215 1.23465 -0.462044
305 -1.32767 -8.22047 -6.96222 0.570631 -1.96943 1.8468
653 0.0174436 -9.04897 -7.2911 -2.16296 -0.453692 -1.21351
319 0.841632 -8.22536 -6.75246 0.00323127 1.60827 -1.0829
3269 -5.85452 -4.58292 -9.13373 1.10141 -0.265247 -1.74267
40 3.21363 -8.76008 -7.68426 0.840449 2.31358 -1.56705
3732 2.72684 -9.18439 -6.24467 -0.0534342 0.585712 -2.18031
607 2.25312 -8.53079 -7.67598 -3.0757 -0.892976 -0.427513
661 2.95679 -8.27824 -6.82398 0.380925 -0.137933 0.704846
655 2.29266 -7.5372 -6.47788 -2.67855 1.93792 2.157
414 1.64053 -4.89462 -9.06761 0.627668 0.438183 -0.242837
322 3.89378 -8.32724 -7.18199 -0.903635 1.93811 -1.53571
327 4.53265 -8.84921 -6.48631 -2.9479 0.681323 -0.525969
647 0.109266 -9.23684 -5.02367 0.127665 -0.0406995 1.69696
44 4.93353 -8.53003 -7.42256 0.883353 -0.439537 1.44039
375 4.7832 -7.82376 -6.62831 -3.71685 -1.0678 1.12187
328 5.71026 -8.6881 -6.61322 -0.546197 -2.37632 -0.355596
427 6.5844 -8.13346 -6.82545 0.0842716 0.772702 1.32729
667 7.57616 -8.14492 -7.43784 0.696053 -1.86251 0.210929
577 7.34297 -8.75232 -6.50568 2.86438 0.194005 2.357
4964 -2.89975 -0.0166958 -0.73071 -0.558328 1.3611 -0.0846878
4001 -4.05272 -9.10031 -7.45222 0.928309 1.87521 0.09606
289 8.56633 -8.3573 -7.35171 0.0609573 0.911493 0.310257
4884 0.0283499 -9.12879 -0.940785 -0.368215 -2.24931 -0.82192
292 8.94743 -9.12516 -6.80884 2.13916 -1.78223 0.423183
628 8.47317 -8.09326 -6.38404 -2.2601 0.121943 -1.55662
339 -8.72257 -6.61056 -7.44351 2.24165 -0.25242 -0.426899
632 -8.34844 -7.84519 -6.51038 -1.00269 0.95128 -0.49243
344 -7.7551 -7.53965 -7.50817 0.230325 0.667366 -0.335812
719 -9.23283 -7.50856 -6.84825 -1.50506 -3.10846 -0.581193
437 -7.8206 -6.5064 -7.83419 2.77508 1.06454 -0.496146
296 -7.22057 -7.76062 -6.70389 1.63349 1.29992 -1.44907
629 -7.52177 -6.66672 -6.8391 -1.88027 1.48723 -0.45541
391 -6.47092 -7.01023 -7.05004 -0.0790416 -0.497562 -0.756437
921 -6.89499 -7.0436 -6.07429 2.42323 -0.491319 0.79034
630 -5.26427 -6.31157 -7.38798 0.741335 -0.973618 -1.0791
348 -5.79275 -8.00587 -7.36457 -1.38361 1.25255 2.25868
343 -6.05771 -7.63442 -6.41159 -0.483163 0.754351 1.52333
633 -5.10901 -7.17432 -6.79488 -2.72153 -2.41853 1.02098
973 -5.17465 -7.2404 -5.75276 -2.90648 0.987499 -1.20929
352 -3.86909 -7.51156 -8.26692 0.0863963 0.902896 -0.303286
634 -4.27192 -6.97174 -7.18682 3.1288 0.599956 1.225
302 -3.61417 -7.69145 -7.15305 -1.24603 -3.43913 1.97654
642 -2.68575 -7.29518 -6.78922 -2.11684 -0.332985 -0.911395
1025 -3.47016 -6.74458 -6.4112 -0.917647 -2.23866 -0.348187
310 -2.26563 -7.9957 -7.45158 0.69886 0.626288 1.77874
734 -3.1866 -6.56172 -7.43199 1.51236 0.899655 0.250548
404 -2.17779 -6.8584 -7.69976 4.00168 -0.687611 2.04873
368 -1.2197 -6.30828 -7.85472 0.735854 -0.140266 0.460342
76 -0.973811 -7.27813 -6.63206 -0.192795 -0.672268 1.93198
696 -1.73532 -6.82657 -6.78914 3.61159 -2.61127 -1.01813
652 -0.195011 -6.10135 -7.5847 0.771467 1.06973 0.470919
357 -0.64809 -7.04481 -7.43919 -1.30768 -1.61506 -0.280943
364 0.0215513 -6.59468 -6.4738 0.407645 -1.6131 -3.11937
656 0.423515 -7.9759 -7.68153 0.459848 0.00660953 -0.18251
4297 0.113279 -7.61087 -6.46781 -1.13034 -1.2572 0.626687
359 0.949429 -6.40169 -7.16441 0.369889 -0.911792 -2.19982
318 1.39429 -7.80456 -7.53521 0.364001 -0.454815 0.676063
944 1.02454 -7.16271 -6.39847 -1.03518 -1.07306 -0.178141
365 1.75689 -7.08488 -7.21101 -0.7433 0.283905 -1.81797
415 1.15716 -5.98816 -6.3283 0.548508 -0.513937 -0.243679
372 2.73363 -6.53336 -7.36343 -3.52451 0.625354 3.73192
658 1.83355 -6.7225 -6.16083 -1.40699 0.1518 0.869913
469 3.50909 -7.28228 -7.65806 0.396303 4.70414 -0.262651
371 3.69504 -6.37484 -7.41698 -0.323847 0.830904 -1.95479
374 4.21766 -7.13796 -7.0633 -0.00270182 0.440338 -3.02951
89 5.68321 -7.89882 -7.36443 -1.7869 -1.44515 -1.27287
373 5.19177 -7.07351 -7.05332 1.38471 -1.20914 -0.0434768
336 5.65451 -7.49745 -6.39352 -1.43701 0.43673 0.896423
665 6.20404 -6.97936 -7.13006 0.230304 1.61748 0.00720048
425 7.01334 -6.066 -7.68301 2.94852 0.595057 -4.01885
335 7.4193 -7.75163 -6.41028 -2.17311 -1.58333 -0.353592
671 7.92534 -6.4295 -7.29614 -1.79809 -0.20319 0.841287
1006 6.7199 -6.30226 -6.7538 -3.68354 -2.67859 -2.8124
429 8.08818 -7.36816 -7.03682 1.05639 -1.70464 -1.81813
673 -8.94312 -5.96942 -6.78024 -0.724265 -0.875109 1.29622
674 -8.46658 -6.7507 -6.50237 -2.70857 0.769284 4.02005
392 -8.41676 -5.02823 -6.78028 -3.66646 0.150166 -0.145709
443 -6.54246 -5.6935 -6.68831 2.42671 -0.403279 -2.68627
677 -7.98895 -5.84257 -7.05768 -1.03625 -2.06512 -2.93178
681 -7.12556 -4.98181 -7.43665 -2.17268 0.122898 2.85888
729 -7.5308 -5.59953 -6.24688 2.73768 0.280543 0.0890401
397 -6.5395 -5.16972 -5.92738 -0.612755 -4.24604 -0.327216
396 -6.07791 -4.8698 -7.01525 0.366841 -0.785051 0.961636
64 -4.89923 -5.25792 -7.33509 -0.859029 1.24528 1.64863
682 -5.543 -5.53779 -6.66884 0.951168 0.0486339 0.278643
685 -5.32996 -4.88977 -5.99829 -1.1321 0.386956 -0.979506
304 -4.10057 -6.03641 -7.37867 0.958992 -2.82628 1.26991
395 -4.96725 -6.3426 -6.37544 -1.59215 2.32336 1.43004
446 -4.55551 -5.28508 -6.4343 0.178976 -1.10251 2.6613
405 -3.73059 -5.84327 -6.4519 -0.813907 -1.63216 2.08382
207 -3.69592 -5.2211 -7.23312 0.63225 -0.321959 2.3324
448 -2.83385 -5.95313 -6.75402 0.339645 -2.84482 0.114535
403 -2.72728 -5.14541 -7.38152 0.0221625 0.266197 1.08991
501 -3.00546 -4.8531 -5.20389 -1.29431 -0.993605 -3.48829
699 -1.34409 -5.48891 -7.3664 0.911809 -0.247652 2.54272
360 -2.14671 -5.99418 -7.32797 0.821747 -0.596756 -1.20205
451 -1.93939 -5.21346 -6.74405 -3.17276 1.12395 -1.47347
693 -0.903492 -5.24825 -6.45098 0.758692 -6.09626 0.563071
355 -0.830589 -6.27417 -6.81249 -0.5658 -0.905235 -0.446291
743 -0.342064 -5.12188 -7.29609 2.92613 0.17668 1.45088
697 0.300244 -5.74928 -6.81305 -1.57224 0.636422 -0.730938
749 -0.0420516 -5.13383 -6.10557 -1.5707 0.933452 -0.764684
411 0.768394 -5.4431 -7.52676 -0.457894 -0.410177 -0.310323
993 1.41172 -5.07045 -6.84507 0.366613 1.07321 -2.03022
176 1.35569 -4.38809 -7.5619 -0.341914 -2.75101 -0.608103
175 1.90671 -5.99789 -7.2379 0.131014 -1.22956 2.857
468 3.02508 -4.71733 -7.88771 0.296224 0.173827 -0.491905
651 2.22644 -4.53189 -7.25288 0.586853 3.06329 -1.26863
513 2.85667 -6.46645 -6.39069 0.812246 -0.178673 -0.621489
420 2.7854 -5.67716 -7.91581 0.712889 1.33592 -1.81321
1042 2.97094 -5.51794 -6.82806 -0.497219 -0.613398 -1.84075
332 4.60582 -6.15945 -7.12044 -1.15797 3.36846 -0.32333
707 3.75787 -5.33017 -7.42989 0.0757316 1.35735 -0.440338
757 4.50422 -4.85433 -7.07623 -2.07029 -0.883211 -0.349533
754 5.09842 -4.46754 -7.83673 2.21601 0.727198 0.938331
3351 5.39578 -5.23443 -7.3761 1.32571 -1.40728 -0.38884
467 5.85195 -5.96896 -6.90592 -2.12876 1.1783 0.900349
477 6.57662 -5.23761 -6.75246 1.94681 0.9097 0.719287
422 6.3165 -5.23509 -7.68338 0.00705496 -2.36717 -3.37337
471 7.60438 -5.40702 -7.28462 -2.09464 -0.19264 -1.03255
480 7.31063 -5.65084 -6.28433 -2.4038 2.07875 -1.12795
670 -8.7302 -5.59832 -7.78559 0.547555 0.231011 1.71817
479 8.26469 -5.7248 -6.54924 -0.644367 0.637991 -1.25019
721 7.92761 -4.88751 -6.40451 -0.469442 -2.26599 1.56622
676 9.02474 -5.22026 -6.1081 -0.357756 1.28525 1.85517
771 -8.80557 -3.71845 -7.38534 1.70115 -0.29461 -0.807358
444 -8.29787 -4.05549 -6.33662 -3.49064 0.883703 1.305
150 -8.35373 -4.60581 -7.66523 -2.68007 -0.215305 0.965391
157 -6.713 -3.78631 -7.34282 -0.923264 0.683629 0.648993
112 -7.54812 -4.71412 -6.73631 -0.356214 -0.606972 1.19788
442 -6.81366 -3.21546 -6.6126 -1.68956 -0.414977 -0.387862
160 -6.05529 -3.01603 -7.45672 0.935235 -0.669902 0.293376
782 -5.6829 -3.94245 -6.73893 0.386817 -0.792635 1.11188
494 -4.93606 -4.4119 -6.83249 1.86615 0.512322 -1.19441
1069 -4.69118 -3.45139 -6.57336 2.74236 -0.801602 -0.233793
490 -4.05385 -3.33025 -7.31467 0.757187 -0.00926261 -1.76218
4048 -4.27972 -2.89762 -5.97809 -2.88681 3.45509 1.96171
500 -3.96832 -4.23367 -6.88527 -1.23068 -1.43067 -0.664459
497 -3.03461 -3.68662 -6.52003 1.87673 0.594681 1.70278
788 -2.30319 -3.23123 -5.93209 0.0835002 -1.29937 0.481683
789 -1.95952 -3.77461 -6.58065 -1.55509 2.14115 -0.0938137
168 -1.19527 -2.65091 -7.17883 -0.912706 -0.508937 2.5086
792 -1.15691 -3.99659 -6.21144 0.644617 2.26166 1.07871
745 -1.29377 -4.54202 -7.01525 -4.74787 -2.36112 -1.00562
503 -0.737989 -3.41872 -6.77457 0.618096 0.757533 0.900555
746 -0.350829 -4.30273 -6.63287 0.694181 -2.21632 -1.37709
791 1.0951 -3.50408 -7.67071 0.933692 -0.819981 1.07642
515 1.92443 -3.15466 -6.65136 2.5365 -0.127156 -0.0807674
511 0.472244 -4.56914 -7.10419 1.58329 0.548537 0.558606
512 1.07577 -3.35832 -6.18621 0.533877 -0.665259 -0.174991
466 2.90724 -3.80825 -7.91204 -0.727504 2.01646 -1.21804
1041 2.50326 -4.02607 -6.5245 2.60691 -3.64273 -0.254251
517 4.02415 -4.19788 -7.63276 0.314347 -1.19775 0.00290549
465 3.36017 -4.57426 -6.98069 0.807114 0.0102294 1.49178
801 3.42418 -3.66693 -6.79134 -0.465763 2.11477 2.23978
473 4.49681 -3.83582 -6.80765 0.745528 0.0366511 -1.29632
514 4.19603 -3.03039 -7.48313 0.978499 2.43501 -0.550107
1048 5.32961 -4.31128 -6.88308 0.683512 -3.0781 3.08719
476 5.23846 -3.55492 -7.48232 -1.59569 -1.41212 1.98782
527 5.18791 -3.26266 -6.00115 -2.38233 1.92649 1.15157
474 6.09858 -4.32681 -7.67926 1.80659 2.82636 2.42174
815 7.14649 -4.67115 -7.71743 -1.07458 -0.0321605 5.18684
481 7.74946 -3.93099 -7.23068 -1.59224 -2.6719 0.253274
813 6.93987 -4.41141 -6.59082 1.0036 0.531681 -0.111452
722 8.74915 -3.68845 -7.81257 -0.197982 -2.02026 0.69276
435 -9.17925 -4.39713 -6.78639 -0.684984 1.38704 -2.59923
436 8.4383 -4.58691 -7.23599 0.0890895 -0.960628 1.39467
766 9.12521 -3.46072 -6.33733 0.941985 2.59201 -1.81674
1057 8.16217 -3.7327 -6.38833 1.03727 0.890061 0.827774
536 9.12543 -1.47673 -6.51695 0.160241 0.099474 0.569442
1102 -8.53024 -2.94169 -6.74821 -0.291407 0.346071 3.00664
439 -7.67466 -3.7626 -7.14021 0.409818 -1.50308 0.773267
486 -7.57121 -2.60477 -6.54292 -2.68867 0.314328 1.28983
251 -6.70136 -2.15745 -6.8021 -0.438868 1.57556 1.4205
496 -5.8286 -3.01106 -6.59054 -1.21077 -0.897825 2.10188
829 -6.24074 -2.39336 -5.93161 0.236374 -0.18599 -0.347159
492 -4.63383 -2.32194 -6.63484 0.203694 -2.30956 0.108115
774 -4.08731 -1.53263 -5.97936 -0.860187 0.0899367 1.65352
833 -4.21799 -1.49507 -6.9549 0.5939 3.35006 0.189321
834 -3.15006 -3.07107 -7.63149 -2.95202 -1.5701 -2.16709
840 -3.5563 -2.64676 -6.60745 2.48379 -0.199854 0.523491
741 -2.4421 -2.86576 -6.82181 0.720688 -0.934828 -2.33811
1074 -2.2612 -2.11777 -6.28695 -1.28206 2.93394 -0.317547
552 -2.09029 -2.99576 -7.80233 0.152568 -1.36603 1.11846
504 -1.01191 -2.05124 -5.6797 -0.399652 0.110029 0.219786
549 -0.655585 -1.74406 -7.19154 -1.66617 -2.52587 0.265161
506 0.18521 -3.55713 -7.1701 -1.86356 0.822378 1.63641
4055 -0.022631 -1.29111 -6.46241 0.807804 0.846698 2.34936
1126 -0.219787 -2.50848 -6.62484 -1.24304 2.06748 0.76519
228 0.887857 -2.5406 -6.71916 -0.780435 -0.395682 0.201375
797 0.322434 -1.87489 -7.12271 -1.08371 0.373812 1.19911
3483 1.32593 -1.63252 -7.24874 -0.31872 2.58123 -0.965318
1092 0.650103 -1.7694 -5.91478 0.403234 1.63363 0.6989
519 2.8412 -3.03434 -6.22374 -0.0905944 0.45859 0.611252
802 2.49059 -2.4578 -5.60167 1.2154 0.620912 -0.368817
464 2.46577 -2.30589 -6.71555 0.161357 1.01918 2.13697
470 3.1584 -2.63076 -7.27269 2.45992 -3.23514 -1.11422
560 1.55307 -1.23099 -6.27309 -3.47563 -0.186996 0.572912
277 3.84841 -1.98443 -7.83258 -2.86687 1.25823 1.01634
567 4.73527 -2.89932 -6.77113 0.655784 0.418704 1.59716
1137 3.72961 -2.6532 -6.51011 0.650005 -0.448164 2.19851
275 4.49556 -1.97454 -6.91321 2.80212 -1.74153 0.371633
3487 3.51109 -1.71874 -6.9956 2.48479 3.80257 -3.11216
521 5.25367 -2.26251 -7.49733 1.73154 -1.07744 -0.481207
569 5.787 -2.42465 -6.69768 2.26699 0.159553 2.24217
3443 6.79997 -2.68079 -6.89667 0.1035 -0.657313 2.43473
231 6.14677 -3.37088 -6.8122 -1.55629 -0.399339 0.808166
523 7.8096 -2.83403 -6.75539 -2.37802 2.49038 -0.0296614
565 7.79722 -3.01971 -7.75371 1.03561 1.67135 -1.89943
195 -8.97182 -2.21927 -7.2544 0.341204 -1.55851 -0.197364
776 8.76349 -2.81373 -7.19637 0.789433 -0.333227 -0.258863