ITEM: TIMESTEP
103000
ITEM: NUMBER OF ATOMS
6912
ITEM: BOX BOUNDS pp pp pp
-9.2265715179435492e+00 9.2265715179435492e+00
-9.2265715179435492e+00 9.2265715179435492e+00
-9.2265715179435492e+00 9.2265715179435492e+00
ITEM: ATOMS id x y z vx vy vz
4 -9.22834 -8.58831 -8.34051 -0.536492 -2.52663 -1.03368
290 -8.35793 -8.36748 -7.57564 -2.40952 0.255186 -0.634346
51 -8.51624 -7.77588 -8.45207 3.07325 -1.45141 -1.09129
893 1.40417 -9.10504 -4.76533 -0.629222 0.657626 -4.56899
250 -5.41023 -0.704135 -9.0447 -1.86268 0.761134 -0.421977
8 -7.7299 -8.53881 -8.49088 2.29429 1.46699 0.837857
294 -6.94831 -8.55066 -7.8255 -1.4138 -1.82388 1.07966
55 -6.88163 -7.71425 -8.55477 -0.2588 -0.937641 0.381022
12 -6.26113 -8.55867 -8.5203 -0.892867 0.91455 -0.731457
1889 -3.10206 -4.59024 -0.170522 -3.43717 0.415444 1.5786
298 -5.40591 -8.38394 -7.84492 -0.207609 -1.99434 0.168778
3783 5.391 -0.0773281 -6.95739 -2.36329 -1.52611 2.19913
16 -4.66115 -8.4312 -8.64662 -0.698923 -0.733407 0.105138
3779 4.0089 -0.0760075 -7.0272 -3.1472 -0.640949 0.370691
20 -2.9404 -8.58739 -8.64006 -1.95204 0.306643 0.643797
595 -2.44614 -9.02469 -5.43748 1.20579 3.42462 1.35608
3755 -5.53379 0.00574707 -7.06849 -3.79915 2.42137 0.733342
262 -0.817411 -0.7279 -9.12859 1.50705 1.00499 2.27163
24 -1.7812 -8.25539 -8.64381 -0.815217 0.111837 -0.253224
333 7.72579 -9.18337 -7.8316 0.910935 1.25298 1.62078
889 -0.116763 -9.03148 -4.72019 -2.33283 0.828319 -0.355722
28 -0.213575 -8.59889 -8.41823 -0.0190207 0.924319 0.131622
1886 -3.76519 -3.75125 -0.0453059 -1.01529 -0.34057 0.142047
32 1.39769 -8.58358 -8.73902 0.53399 -0.764869 -0.295408
365 1.43331 -7.71112 -7.8876 -0.917002 4.25633 -2.81822
4343 -0.80608 -0.068036 -3.68946 -0.678234 1.94347 3.76434
3775 2.23512 -0.0271389 -6.85816 -0.734479 -1.2219 -0.266562
36 3.02507 -8.45027 -8.50446 -2.15818 -1.97405 1.41584
318 2.2059 -8.36441 -7.95362 -2.01839 -1.10607 3.72786
79 2.22925 -7.49523 -8.50971 -0.145195 2.68379 0.377249
40 4.7884 -8.33621 -8.43694 1.67884 -2.08057 -2.2772
83 4.04133 -7.70798 -8.48444 -1.27695 2.32051 0.169838
373 4.75323 -7.55771 -7.69509 -1.45794 0.353549 2.0651
225 3.10345 -3.1496 -9.1017 -5.00755 2.15185 0.00989546
1443 -8.47115 -9.12362 -0.769199 -1.20189 -0.177254 2.10689
322 4.01999 -8.49939 -7.81989 0.822641 -1.06247 -3.14755
44 6.22803 -8.55088 -8.55831 0.867968 -0.835367 -1.20374
326 5.46641 -8.47355 -7.74923 -1.5549 0.178484 2.57768
87 5.4294 -7.60783 -8.4671 0.372692 2.49851 2.60645
377 6.20428 -7.48577 -7.88047 1.10172 -0.921329 -2.85561
4923 0.702934 -0.0361587 -0.810115 -1.28378 1.44879 -0.974053
81 3.14403 -7.69257 -9.12223 0.664235 -2.07208 -0.0411701
48 7.77886 -8.39581 -8.5835 2.25739 -1.87018 3.19482
4621 -4.6935 -0.0667141 -2.9719 -0.444916 -1.93707 0.210121
330 6.95712 -8.51978 -7.74619 -0.524477 -0.414178 -0.111582
381 7.7437 -7.74854 -7.78592 -1.57303 0.614812 1.21401
334 8.55426 -8.44478 -7.58871 -0.556346 1.41047 0.598958
95 8.55979 -7.73019 -8.38994 -1.97749 1.34317 2.27511
1957 4.88834 -2.85274 -0.277637 -3.41503 -2.35213 0.908221
1727 8.53228 -1.51478 -0.841199 -0.786851 -1.22349 1.69861
52 -8.94495 -6.95174 -8.42747 0.133274 -0.728172 -0.813492
389 -7.86342 -6.05901 -7.55801 -1.3315 1.86032 -1.6284
1173 -1.74387 -9.01095 -3.00618 2.26081 1.22571 0.914959
56 -7.77404 -6.69892 -8.5563 1.57138 -2.23378 0.192389
342 -6.96603 -6.86869 -7.88555 -1.16069 -1.84564 -3.47149
59 -5.41251 -7.69766 -8.47434 -1.37934 0.207018 0.946077
345 -6.19588 -7.60475 -7.85572 1.65134 1.34757 -0.439547
60 -6.08799 -6.76101 -8.47599 -0.199857 -1.95124 0.333395
107 -5.10962 -6.06699 -8.4979 -2.65938 -1.23666 -0.521615
393 -6.1183 -6.1565 -7.69703 -0.875518 1.40163 0.826727
63 -3.76145 -7.85982 -8.52827 -1.11491 -2.87536 -2.05841
64 -4.74672 -6.92746 -8.56099 1.67342 -0.320553 1.9356
111 -3.93162 -6.19411 -8.63734 0.881105 -3.44381 2.71822
895 2.49087 -9.06297 -3.95607 2.05979 -0.629382 1.89002
67 -2.52395 -7.60698 -8.52211 -0.825387 1.42422 1.48613
68 -3.04063 -6.55897 -8.42028 -0.936907 1.6751 -0.296075
315 0.712277 -9.07389 -6.89696 1.21399 -2.04705 -0.776469
603 0.697861 -9.02778 -5.49883 -0.934346 -1.08699 -0.622111
1814 5.33073 -6.97427 -0.090202 0.151808 -0.365959 -2.18554
72 -1.65235 -6.76903 -8.64035 0.839605 1.4244 -1.42581
119 -1.09036 -6.06391 -8.41785 -3.49862 2.05087 0.537388
71 -1.00153 -7.68509 -8.57581 -4.22422 0.0158339 1.0614
76 -0.153213 -6.85025 -8.38804 1.36572 0.196978 -0.373512
75 0.55976 -7.74334 -8.46894 0.559857 0.588403 2.07277
80 1.58763 -6.81163 -8.39821 0.903277 -2.17314 1.5669
4655 8.31545 -0.0864188 -2.24921 3.27193 0.153999 -2.94272
84 3.13298 -6.8179 -8.49318 0.334201 -1.49736 -0.314196
127 2.32002 -5.84277 -8.27765 2.38523 -0.756045 -1.01478
1758 2.39861 -8.46951 -0.243263 -3.06364 3.53425 3.67549
1874 -8.47947 -3.68931 -0.078106 -0.992181 0.407084 0.389682
88 4.77647 -6.81774 -8.51135 1.8065 -2.06468 -2.10476
131 3.99205 -6.16918 -8.51662 -0.115845 2.36532 -1.09612
421 4.6836 -6.22898 -7.71178 -0.710261 0.653437 0.759694
92 6.19647 -6.93108 -8.68367 -1.66802 0.563187 0.789901
135 5.45377 -6.12601 -8.59757 -0.479746 -2.3396 0.741479
1455 -4.00149 -8.93467 -0.694849 0.289689 -1.10928 3.07055
91 7.11267 -7.51558 -8.49135 0.375205 -0.710535 -0.16885
96 7.78987 -6.79627 -8.38133 1.55185 -0.144723 -2.14225
139 6.94046 -6.23438 -8.42022 1.04353 1.14636 1.53508
429 7.99225 -6.16007 -7.7659 1.64187 -5.0355 0.389498
382 8.47578 -6.98676 -7.68214 0.970908 -0.394356 0.83359
143 8.71803 -6.21672 -8.50405 0.15716 -1.07162 2.48183
4921 0.0267906 -0.146491 -1.45261 -2.30042 0.219699 0.293615
99 -8.51724 -6.06197 -8.59322 0.0311574 -0.295684 0.0468238
146 -8.49247 -4.48379 -8.60982 0.015772 0.709653 0.694985
433 -9.17075 -4.56018 -7.76147 0.0492087 -2.96544 0.109317
103 -6.96116 -6.09641 -8.66002 2.33445 0.94489 -2.38916
104 -7.81302 -5.31086 -8.49545 0.579655 1.16018 -3.33469
390 -6.78454 -5.29683 -7.93486 0.654296 1.40081 -0.268926
437 -7.6575 -4.64623 -7.85084 1.83194 0.774766 0.82176
108 -6.05567 -5.22143 -8.50196 0.646239 -1.30261 -1.13582
3495 5.33032 -0.0430105 -8.50138 -2.06928 2.57701 -1.4766
112 -4.58675 -5.16146 -8.41622 -0.48371 2.95729 -2.1935
398 -3.84143 -5.27999 -7.61311 -2.11617 0.0479262 -0.495062
159 -3.79834 -4.54394 -8.52234 0.371593 -2.66265 -1.09402
5209 0.0416676 -0.0313964 0.0109742 1.28393 3.5931 1.72649
3463 -7.19826 -0.00348497 -8.44769 -0.930603 0.35961 2.01705
115 -2.3046 -6.01688 -8.63933 -1.50599 -0.766774 0.773586
1733 -7.6717 -9.06097 -0.0413068 -1.00859 0.784925 -0.146184
116 -3.21999 -5.26783 -8.40988 1.25545 1.41125 -0.561505
449 -3.09082 -4.43364 -7.73759 -0.0760798 0.39778 -1.78359
3745 9.02148 -0.0402693 -7.87938 0.6167 -0.436168 -1.20228
120 -1.6851 -5.30688 -8.53785 1.2755 1.01701 0.879087
167 -0.69009 -4.33046 -8.52542 2.29719 2.31713 1.12788
198 -6.84525 -2.307 -9.20496 1.54746 1.69429 0.728175
118 -0.760185 -5.23717 -8.98324 -1.05137 1.19995 -1.01134
124 -0.0280532 -5.32765 -8.3321 0.934221 -0.632966 -0.325707
1929 -6.18208 -3.00646 -0.0900366 1.51434 -0.597525 2.28483
123 0.636193 -5.97208 -8.44225 0.0750472 -1.61966 -2.68575
128 1.51973 -5.32318 -8.45688 -1.0117 0.328897 -1.96718
171 0.791804 -4.72942 -8.53529 -0.260457 0.721965 1.1163
1177 0.148002 -9.14101 -3.11355 1.28495 0.3447 0.311665
132 3.19446 -5.61838 -8.49321 1.65882 -0.58835 -0.696337
175 2.47841 -4.90404 -8.38452 -2.98128 1.09186 -1.31939
136 4.64067 -5.44829 -8.44075 -2.79227 0.349246 -0.662288
418 3.87391 -5.47902 -7.77791 0.486188 1.87696 1.88498
179 3.87813 -4.68617 -8.4097 -3.79388 1.70952 -1.18559
4321 9.08209 -0.021796 -4.50225 0.0455684 -0.998412 -0.596825
469 4.64024 -4.78298 -7.75079 0.646136 0.628302 0.762468
1453 -4.5726 -9.06884 -1.53871 -0.384062 -0.704051 -2.31678
140 6.23079 -5.5131 -8.49682 0.469494 0.330803 -1.04527
183 5.42655 -4.80552 -8.54015 -1.62837 1.02249 0.986287
34 3.82153 -8.49194 -9.21132 1.57593 -0.0148434 0.212115
187 6.99554 -4.71308 -8.63214 -1.45782 1.52427 1.13333
144 7.80872 -5.48314 -8.67121 0.778188 2.4885 -1.33125
1465 -0.0151978 -9.14714 -1.47718 0.93354 -3.57644 0.170919
426 6.94728 -5.3609 -7.9039 2.27316 -0.0439271 -0.733876
100 -9.18306 -5.28287 -8.58013 1.9253 -3.3633 -0.187611
430 8.53291 -5.31341 -7.8501 -2.98176 -2.31312 1.20205
3767 -0.721551 -0.0277909 -6.95535 -2.14753 0.530626 -1.26542
1449 -6.19639 -9.14666 -1.43244 -0.747911 -1.65872 -2.33784
148 9.11277 -3.91776 -8.6011 2.03562 -0.776886 -1.40875
434 -8.35462 -3.92658 -7.78975 -1.20846 -0.0743354 -0.735491
151 -7.03042 -4.52945 -8.52605 -0.61739 0.0698837 -0.154771
152 -7.67472 -3.58888 -8.52975 -3.61578 -3.24801 -0.304977
438 -6.95675 -3.74083 -7.62824 -4.20138 3.9826 -0.349512
155 -5.32886 -4.38904 -8.60355 -0.795623 -0.290541 0.294846
441 -6.18708 -4.48962 -7.75547 -2.20875 -1.69426 1.06343
156 -6.28527 -3.75589 -8.39303 -1.37856 1.35503 -0.567609
203 -5.31837 -3.31723 -8.51119 0.846911 2.01158 1.2961
160 -4.38843 -3.89588 -8.4557 0.242816 -0.968024 -0.938788
207 -4.02631 -2.97905 -8.44192 -0.199944 -0.918102 0.879645
3777 3.28589 -0.186228 -7.71936 1.50056 1.43339 -1.08392
883 -2.47416 -9.04913 -3.75057 0.598371 -2.97732 0.831544
163 -2.43303 -4.5771 -8.52147 -1.26556 -1.60956 -0.271223
164 -3.07149 -3.93069 -8.69029 -3.49686 -0.176358 2.26855
211 -2.37119 -2.91781 -8.41541 0.422992 0.628025 0.144764
1447 -6.9016 -9.23019 -0.755469 -2.60074 -3.03057 0.882013
168 -1.55947 -3.8612 -8.50269 1.1005 0.589945 -3.29365
1183 2.2409 -9.12255 -2.52156 0.610475 -1.48346 -0.777699
215 -0.608137 -3.03738 -8.47662 -1.46964 -2.43691 -0.566074
1471 2.18065 -9.11741 -0.9737 1.01382 -0.591509 2.7285
1806 2.31673 -6.79741 0.00280912 -1.06092 -2.63752 1.44865
454 -0.783403 -3.6702 -7.74505 -0.702766 -2.62429 0.102993
172 0.0681917 -3.8544 -8.47364 1.53204 1.90066 1.54233
505 0.0589514 -3.116 -7.62068 -0.468415 -0.266346 0.887167
461 1.71175 -4.58755 -7.63698 -0.290908 1.49015 0.339138
176 1.50451 -4.03626 -8.53765 -1.88307 -0.427067 0.967457
219 0.925955 -3.02079 -8.39326 -1.2563 0.858869 0.372269
607 2.22573 -9.01181 -5.51829 0.77609 0.257017 -0.144244
180 3.15499 -3.97825 -8.41425 -0.862571 1.16271 -3.6419
462 2.36144 -3.97827 -7.80358 2.68679 1.03903 -1.19956
4057 0.0888579 -0.103278 -6.06456 -0.0784901 0.640485 2.11604
4065 3.11174 -0.0402982 -6.17429 -0.862858 3.03512 -0.0446892
1997 1.6571 -1.43329 -0.279604 0.0953183 -0.621966 -1.14706
184 4.6493 -3.87135 -8.36487 0.164291 0.815858 -1.70753
227 3.87517 -3.16376 -8.32593 0.206539 -0.63473 -0.826516
466 3.88729 -4.01224 -7.76666 -0.0837231 1.59294 0.980721
39 5.40561 -9.19363 -8.52078 -2.72124 -0.723672 -1.4379
188 6.31505 -3.82769 -8.45827 1.79421 -0.928814 1.58629
231 5.40256 -3.10872 -8.43162 1.77212 2.7266 -0.202042
192 7.68295 -3.85122 -8.44399 -1.26937 -1.44691 -0.457334
235 7.04204 -2.9973 -8.5618 -0.0975467 -1.35485 -1.10298
191 8.52415 -4.64458 -8.55817 0.888427 0.68714 -0.43122
239 8.34868 -3.24955 -8.42524 -1.35698 -1.30329 -1.5823
195 -8.50148 -3.08303 -8.57762 0.83614 -0.723313 -0.366713
243 -8.42106 -1.67502 -8.55691 0.101426 -0.585049 -4.81763
199 -6.90939 -3.03424 -8.41023 -0.587355 0.323145 2.64371
200 -7.83184 -2.40104 -8.413 0.380612 1.11248 1.23708
486 -6.80663 -2.21666 -7.50942 0.301733 0.434444 -0.709709
4933 4.78479 -0.0556147 -1.55166 1.61202 1.02342 1.25996
204 -6.08062 -2.32825 -8.43063 3.75807 -0.963702 -1.36457
251 -5.52452 -1.50535 -8.44798 -0.571319 1.37737 -1.81072
4063 2.27409 -0.0209205 -5.30808 -2.36395 1.5658 -2.15559
208 -4.71825 -2.08059 -8.5997 1.21735 -0.465361 -0.689725
255 -3.64547 -1.36714 -8.40511 -0.0542019 0.737335 0.852941
222 2.43247 -2.27278 -9.15132 0.152509 0.386391 2.39184
887 -0.700655 -9.06148 -3.84691 -1.03425 -1.97877 -0.339628
212 -3.12088 -2.20948 -8.50443 -1.82872 -0.0157335 -0.719807
259 -2.29903 -1.56826 -8.49041 0.704204 1.24706 -0.472654
498 -2.23174 -2.14445 -7.72168 0.15092 2.26179 -2.50354
216 -1.45565 -2.40956 -8.51634 -1.90404 -3.91772 2.59628
549 -1.5311 -1.57195 -7.54295 0.0742583 -0.164578 0.759134
263 -0.697237 -1.54572 -8.40966 1.33947 1.81341 -2.29259
1841 -3.0903 -5.90807 -0.0715114 0.797334 -4.08685 -0.733957
311 -0.650703 -9.23203 -6.99285 1.2707 -2.0757 -1.28347
220 0.145658 -2.32244 -8.38564 0.855141 -1.95588 -1.36397
267 0.72276 -1.40282 -8.40826 2.02202 1.57769 -2.34857
224 1.51081 -2.19782 -8.28498 -1.43952 -1.24062 -2.94316
223 2.32034 -3.07926 -8.49658 0.100118 1.002 -1.50853
228 3.1729 -2.39228 -8.45364 -1.703 2.63002 2.54986
271 2.39339 -1.58602 -8.24241 -0.0459467 1.44859 -1.5257
513 3.07229 -3.23567 -7.7287 1.34537 1.38458 2.28513
232 4.59938 -2.27007 -8.49373 0.999822 -1.36505 -1.0359
275 3.8543 -1.66853 -8.52572 -0.118173 -2.47429 1.6916
1445 -7.62134 -9.2072 -1.57351 0.740909 -2.99642 2.182
236 6.12632 -2.35895 -8.39547 2.13419 0.469195 -0.218605
518 5.38036 -2.37398 -7.72459 -2.38624 0.0855476 2.20735
279 5.40956 -1.53384 -8.58214 -0.60545 0.585137 1.79817
1914 6.97805 -3.89058 -0.00797662 2.46022 -1.75784 2.40978
240 7.79569 -2.44446 -8.41815 1.48637 0.114982 3.92369
283 6.95087 -1.68917 -8.46879 -1.23723 0.697064 -1.29394
522 6.84197 -2.24988 -7.70372 0.412058 -3.56389 0.63217
30 2.22796 -8.30747 -9.09684 0.698671 1.16469 -0.807153
196 9.04555 -2.30612 -8.4493 0.647706 -1.09401 -1.37607
287 8.40842 -1.4846 -8.36746 0.489322 -2.56337 1.08031
4355 3.50715 -0.0183417 -3.98327 -2.03469 0.938047 3.06636
481 9.06364 -3.07906 -7.75898 0.0301247 -3.46628 0.666175
4061 1.60474 -0.0598265 -6.18542 0.132583 -0.803171 1.96173
293 -7.72352 -9.11497 -7.55754 -1.40448 -0.314852 -0.337241
609 3.13417 -9.1226 -6.12915 0.318677 1.38953 -0.0745121
15 -3.87119 -9.0365 -8.50804 1.42438 -1.04664 0.317896
1845 -1.59078 -6.11111 -0.0733094 1.87111 -1.07145 -0.919411
247 -6.96543 -1.65125 -8.43009 -0.0481785 -2.11796 2.5325
248 -7.70141 -0.966573 -8.57569 -0.294504 -3.27049 -1.62405
45 7.78682 -9.23337 -9.08226 -0.311119 -0.9628 -2.49953
4635 0.818595 -0.10255 -2.37054 -1.93933 1.97957 0.587142
252 -6.33731 -0.803731 -8.49291 0.762384 -2.93423 -1.44132
538 -5.38038 -0.814416 -7.70982 -0.842603 1.40695 1.12205
605 1.60123 -8.977 -6.37312 1.2563 0.501194 -0.399752
256 -4.49519 -0.797909 -8.36391 0.280628 -1.10691 -0.321564
257 -3.09157 -1.46716 -9.20473 -1.09946 0.0592105 -3.13661
260 -2.97961 -0.743578 -8.32679 -1.84282 -0.669833 -0.0129158
1726 8.22957 -0.752521 -1.50572 2.74807 1.60757 -0.358208
46 8.74354 -8.44496 -9.24839 -2.32939 -3.6312 -2.13854
3765 -1.31539 -0.103282 -7.84068 0.942965 -0.71361 1.25299
1846 -0.807452 -5.30246 -0.181219 -1.26871 0.89663 0.122475
4931 3.79866 -0.0737704 -0.889986 1.70139 -0.0335338 -1.56149
264 -1.59072 -0.888368 -8.35693 -2.62978 0.997872 0.230815
3749 -7.93939 -0.0607902 -7.81858 -1.10075 0.0484353 0.101735
4917 -1.43717 -0.00719365 -1.53453 -0.542842 1.6131 -0.700686
4913 -2.97964 0.0133103 -1.38066 0.860962 1.79904 2.42537
268 -0.0542836 -0.813247 -8.47192 3.10157 -2.18008 0.68578
601 -0.143569 -9.19301 -6.11465 1.61154 -1.17939 1.44989
4053 -1.52221 -0.0514927 -6.11323 -0.624575 -0.251867 -0.873636
272 1.57947 -0.748279 -8.33796 -0.487579 3.94611 -0.952522
266 0.901862 -0.56477 -9.02153 -2.20326 -0.360763 1.87085
1949 1.51564 -3.23116 -0.0123718 1.21171 0.461667 0.949426
617 6.17083 -9.06961 -6.15517 -0.520322 -0.495747 2.20665
276 3.01637 -0.897014 -8.45129 1.9878 -0.404929 0.595942
597 -1.47023 -9.10476 -6.29723 -1.92839 -1.70697 -0.865239
881 -3.27391 -9.21635 -4.68049 -3.32106 -0.365565 -1.00225
234 6.98509 -2.31204 -9.2241 -1.42334 -1.157 -3.68745
280 4.59906 -0.832853 -8.49546 2.36589 -1.02317 0.494743
1157 -7.73079 -9.25215 -3.14372 -1.72544 -2.00748 -1.73895
2006 5.41527 -0.825558 0.00378963 0.087831 -0.741087 0.634886
1165 -4.73558 -9.20065 -3.15687 0.612098 -0.225566 -1.28025
74 0.683001 -6.82677 -9.01475 1.19691 -0.0202486 0.842893
569 6.01488 -1.64222 -7.68126 1.00474 2.25787 0.268085
284 6.16926 -0.816688 -8.44429 1.48787 -0.0382048 3.40048
566 5.4596 -0.835637 -7.84019 -3.7881 0.573163 -0.728964
1461 -1.44259 -9.06956 -1.38735 -1.12282 2.21911 0.358656
288 7.70445 -0.816186 -8.50607 -0.611285 -0.667049 -1.22921
570 7.01508 -0.684221 -7.82313 1.4863 -1.23776 -2.37861
909 7.94068 -9.06783 -4.57183 1.83917 -1.92174 -0.231242
583 -7.06533 -9.20668 -5.54732 0.993314 -1.08251 0.792909
244 -9.21594 -0.987237 -8.5528 0.231827 0.0474222 2.31633
1942 -0.714608 -2.3941 -0.0472863 -0.326902 -0.00442164 1.03798
245 -7.62325 -1.68776 -9.1768 -1.06157 -1.58465 0.494664
337 -9.20942 -7.6518 -7.64973 -3.23936 0.300623 -0.669203
339 -8.33214 -7.56664 -6.93505 -0.324095 -0.270597 3.19092
341 -7.55355 -7.8054 -7.849 0.849881 -2.73728 0.0642989
296 -7.44111 -8.31373 -6.91701 -0.458028 0.153299 2.43149
343 -6.73494 -7.56464 -6.72277 0.898936 -0.00133086 0.0826699
300 -6.01497 -8.58051 -6.92556 -2.11989 -0.386379 0.300814
347 -5.60112 -7.70822 -6.88922 1.37251 2.49499 -0.0757505
4633 0.0537567 -0.219061 -3.056 -0.74598 -0.966546 1.26648
4345 0.131695 -0.049268 -4.51447 -1.30393 -0.0526565 0.485589
302 -3.87857 -8.42909 -7.75554 -0.10319 -1.0617 0.888634
304 -4.74441 -8.53881 -7.07673 -2.42335 0.00465299 1.04078
590 -4.06757 -8.38607 -6.41092 -2.46035 0.413277 0.150139
1970 -8.4612 -0.934344 -0.0132496 -1.15434 1.71875 2.19621
306 -2.44885 -8.54148 -7.69122 0.966858 0.760995 -0.0313847
308 -3.14543 -8.56683 -6.91583 -0.312321 -0.0324361 -1.31431
355 -2.33885 -7.78884 -6.98672 1.84238 -1.1364 -1.92306
312 -1.72366 -8.59074 -7.05595 1.15998 -1.37952 -1.47038
645 -1.62796 -7.69267 -6.26535 1.16395 -1.33664 0.0370486
359 -1.01446 -7.85247 -7.05109 0.130562 -1.70126 -0.345735
85 4.71673 -7.73458 -9.20877 2.26289 -0.352557 -0.380176
310 -0.970622 -8.51216 -7.78372 -0.163503 -1.78254 2.55933
316 -0.148435 -8.46692 -7.20343 -0.53987 -0.983118 1.41403
4035 -8.56182 -0.0341856 -5.26063 -2.92311 -2.34768 -0.0695966
1681 9.16182 -1.34368 -1.67718 0.890127 1.04983 3.00329
314 0.613931 -8.46169 -7.79674 1.19843 -0.734255 -0.843397
320 1.40427 -8.28331 -7.13658 1.2988 -2.21088 -0.767545
363 0.563943 -7.56541 -7.19206 1.94921 -0.697166 -0.0148645
367 2.44315 -7.57171 -7.19152 -0.0884371 -2.06344 -2.10387
369 3.18935 -7.68432 -7.86938 0.934419 2.52139 0.305808
324 3.08693 -8.36505 -7.15439 -1.69396 -3.0553 -0.0102293
269 1.535 -1.53953 -9.04356 0.460821 2.41872 -3.89025
606 2.50684 -8.37156 -6.39798 0.773363 1.30617 1.11086
328 4.64105 -8.38808 -7.09565 2.83049 -1.6717 -1.25835
610 3.79354 -8.40182 -6.47254 -2.71047 -0.496671 0.892786
371 3.86308 -7.65757 -7.1686 0.954845 3.68833 1.2215
286 8.44471 -0.91153 -9.17051 -2.37493 1.03125 -1.06427
332 6.1977 -8.23752 -6.88677 -2.55864 0.610077 0.572915
614 5.47811 -8.29992 -6.28158 1.61056 -1.76087 -0.351832
375 5.53077 -7.64934 -6.99225 -0.125843 -0.0567376 -0.946515
665 6.32776 -7.71501 -6.08438 0.355058 -0.909862 -0.1212
336 7.75058 -8.37165 -7.01595 -3.55633 1.30012 -0.56747
379 7.03403 -7.67286 -7.0971 1.57612 -0.369495 0.478499
292 -9.14238 -8.67381 -6.96964 -1.677 1.0438 -0.208025
383 8.45637 -7.64296 -7.07609 0.0381505 -1.21647 -0.7749
338 -8.25564 -7.11043 -7.77123 0.736185 -0.10317 -0.275648
344 -7.50718 -7.05123 -7.03869 0.0100885 -0.0560063 0.0665963
391 -6.91902 -5.91693 -7.20618 -0.14609 1.279 0.480298
346 -5.29837 -6.83421 -7.69846 -1.06093 -0.341199 0.424497
348 -6.18448 -6.84641 -7.00085 -0.997611 0.38192 3.96977
349 -4.6103 -7.68872 -7.63503 -0.51589 0.80386 -0.730776
351 -3.79027 -7.72091 -7.02017 -1.10332 -0.242141 -1.32302
397 -4.80417 -6.0119 -7.54059 3.90929 -0.448775 0.401125
350 -3.7218 -6.93934 -7.94873 -0.902115 -0.208418 1.27312
352 -4.7104 -6.81914 -6.99427 -1.08851 0.0579553 0.650981
353 -3.14546 -7.79747 -7.73053 1.25218 -1.1974 -0.735374
354 -2.42575 -7.01689 -7.75704 -1.33971 1.4938 -1.00269
356 -3.22865 -6.84524 -7.04861 -1.587 0.286747 0.695923
642 -2.38296 -6.87943 -6.33329 -2.15334 6.91487 0.701875
401 -3.27122 -6.09863 -7.59046 1.55972 -2.23813 0.00412599
357 -1.7012 -7.83174 -7.80232 0.595608 2.4187 0.646739
358 -1.0797 -7.0108 -7.84573 0.715874 -3.81141 -2.50207
360 -1.55536 -6.82152 -6.98593 -0.412536 2.45427 -0.407299
361 -0.308247 -7.75857 -7.87203 -1.69829 1.53053 -0.433626
364 -0.298687 -6.82887 -7.22371 -0.612825 -2.37714 0.298317
409 -0.205847 -5.98665 -7.71547 0.0292752 -0.991349 -1.51807
362 0.587101 -6.76223 -7.87091 -1.51823 1.38068 -3.26926
368 1.41051 -6.9264 -7.18254 -0.0163659 -0.341373 -0.384514
413 1.43189 -6.11304 -7.83116 1.17063 1.80322 -0.240415
411 0.52243 -6.27058 -7.11313 -0.179236 -2.29592 -0.141937
366 2.38649 -6.82595 -7.8777 1.60253 0.372891 -2.63185
417 3.1156 -6.19809 -7.73999 -1.29182 -1.01748 1.95447
372 3.19787 -6.90134 -7.11498 0.412112 2.16421 -1.41696
370 3.89553 -6.93659 -7.86528 -2.57642 -1.89988 0.303156
376 4.73297 -6.94174 -7.02913 -3.17426 0.707758 -1.39012
419 3.95662 -6.25791 -7.06184 -2.25176 0.394001 1.17804
425 6.21236 -6.10617 -7.67289 -2.4704 0.522725 0.489033
374 5.45805 -6.82213 -7.68494 -0.6386 -2.4591 -2.4653
380 6.31219 -7.01683 -7.05782 0.578362 0.767758 -1.3041
423 5.53062 -6.1667 -7.02332 -0.64288 -0.00621423 -2.77685
662 5.5337 -6.86287 -6.33138 2.19889 4.20705 -1.42511
378 7.02455 -6.81668 -7.58219 -0.911928 0.0898047 -0.807169
384 7.70759 -6.69109 -6.86986 1.61598 -0.933537 0.939017
340 9.15555 -6.95919 -6.86492 1.08582 0.557613 -0.52706
385 -9.16022 -6.38201 -7.71444 0.233796 -0.894494 -0.140879
386 -8.45013 -5.2395 -7.71878 -4.85354 -0.782275 1.14369
387 -8.4882 -6.16614 -6.92896 1.36132 0.878218 -1.83724
388 -9.2222 -5.47198 -7.06282 0.287925 0.240586 -0.0449302
674 -8.13603 -5.45109 -6.30917 0.0249589 -2.4117 -2.90279
392 -7.58905 -5.28921 -7.04725 -1.15914 2.45824 -2.404
678 -7.167 -5.49087 -6.15074 0.108556 0.554212 -0.923859
439 -6.87434 -4.57519 -6.92492 3.18279 1.30871 1.85733
395 -5.52612 -5.98666 -6.83329 0.509642 0.876801 0.160573
394 -5.45559 -5.25547 -7.64334 -0.0279498 -1.24851 -2.45489
396 -6.24381 -5.31 -6.90101 0.130179 1.75653 -0.764102
443 -5.39272 -4.58995 -6.89012 1.36559 1.87447 -2.93787
445 -4.52936 -4.54456 -7.6394 1.75077 -0.072535 -1.83243
399 -3.99987 -6.1069 -6.97425 -2.29935 0.100332 1.39618
400 -4.59767 -5.25911 -6.86731 -0.292295 -0.911682 -1.25247
447 -3.85598 -4.47327 -6.89097 -1.32331 1.35137 -1.51349
402 -2.44303 -5.326 -7.69073 0.846733 -1.25578 -1.57813
403 -2.3451 -6.09428 -6.93828 2.35817 -0.710347 -0.663098
404 -3.16158 -5.32136 -6.97499 -0.115585 0.0535908 -2.64364
451 -2.28708 -4.54757 -6.84982 0.13158 -0.0494306 0.43089
405 -1.85144 -6.18271 -7.75151 1.06933 0.78985 0.398487
453 -1.60861 -4.63295 -7.87141 -0.104635 -3.39809 1.75642
408 -1.64657 -5.24387 -6.91571 -0.441458 1.25717 0.234797
455 -0.834966 -4.50104 -7.1817 2.75357 2.44848 1.36596
406 -0.759337 -5.22349 -7.76807 -3.74079 0.106166 0.0376284
457 -0.0178976 -4.51934 -7.74291 -2.82944 0.0037979 -2.14618
407 -0.737542 -5.90804 -6.90072 1.71937 -1.87611 -0.163004
412 -0.0141059 -5.14496 -7.02652 -0.262962 0.279047 0.953911
410 0.79503 -5.23213 -7.73112 -0.614516 0.322562 0.171695
416 1.44909 -5.36776 -6.81707 0.496302 1.45297 -2.64477
414 2.26212 -5.41266 -7.34747 -1.6438 2.0625 -0.381399
415 2.42002 -6.27256 -7.03358 2.7575 0.056946 -0.644761
705 3.21737 -6.11839 -6.20825 -1.64509 -3.36054 1.26556
420 3.3136 -5.50943 -6.94363 -3.00333 -2.63189 -0.455438
463 2.27309 -4.59589 -6.77875 1.10999 -0.138977 0.899748
424 4.70867 -5.56469 -6.95929 -0.0752331 0.529444 -1.13715
422 5.41063 -5.51776 -7.68921 -1.90309 1.97574 0.325388
473 6.1772 -4.71333 -7.86355 -1.14621 2.61772 -3.17405
428 6.26942 -5.34921 -7.05045 -1.01982 -1.34081 -1.16091
471 5.44485 -4.78183 -7.13394 -4.36102 -1.21835 0.98582
477 7.70656 -4.70147 -7.81248 0.546226 -1.23734 -1.21511
427 6.98092 -6.05367 -6.92808 5.07915 -1.74736 0.543036
432 7.86577 -5.54181 -7.07004 0.170879 1.49349 0.978047
475 7.18933 -4.8314 -6.96387 0.0834995 -0.118543 -0.949791
717 7.7805 -6.42041 -5.75332 1.913 -0.53533 -1.19816
431 8.40234 -6.08871 -6.53661 -0.450564 0.12535 0.189809
479 8.47594 -4.70623 -6.95737 1.1262 0.361168 0.587014
673 -9.12789 -6.13806 -6.16188 -3.55828 0.273218 -3.4146
435 -8.46684 -4.5834 -6.87958 -0.297361 -1.18594 2.07531
436 -9.21866 -3.67934 -6.83195 -0.0352777 1.22437 -0.250945
483 -8.41961 -2.99525 -6.74852 1.20585 -1.00034 0.891605
485 -7.54706 -2.92822 -7.69379 -0.250613 1.19285 -0.0312699
440 -7.87659 -3.85681 -6.96407 1.71801 2.64355 1.13792
444 -6.15303 -3.96754 -6.85324 -1.41451 1.2934 2.7834
725 -7.66231 -4.59212 -6.24243 0.748672 -0.928262 2.79072
773 -7.60308 -2.82912 -6.12341 1.63588 0.485113 -2.10141
442 -5.33154 -3.95526 -7.75953 -0.276739 0.368514 0.969293
730 -5.47638 -3.83486 -6.2122 -0.659229 -0.315776 -1.39143
491 -5.42108 -3.15489 -6.93308 0.600592 -2.75814 3.17634
489 -6.0641 -3.00094 -7.65241 0.642291 -1.17686 1.89238
446 -3.76961 -3.66544 -7.74652 3.30713 -1.72025 -1.65184
448 -4.61936 -3.61217 -7.10928 0.0110999 0.716097 3.28769
495 -3.77385 -3.09117 -6.89571 0.26237 0.802069 -2.11952
781 -4.73302 -2.94287 -6.1585 0.0206817 -1.51878 1.24597
450 -2.21538 -3.79037 -7.81848 -0.626342 1.61317 2.37548
452 -3.03459 -3.76259 -6.95774 -0.601624 -1.19158 -0.198454
499 -2.29906 -2.93065 -7.17265 2.87616 -1.03806 0.363176
497 -3.19043 -2.83277 -7.716 2.40287 -0.510955 0.108288
738 -2.27454 -3.80846 -6.14333 -0.86388 0.0561229 1.44017
501 -1.5139 -3.00321 -7.77491 0.427746 -3.03394 -1.24868
456 -1.66185 -3.83487 -6.94776 -0.685427 0.997874 -1.15009
789 -1.40969 -3.16379 -6.2608 -1.65071 2.15051 -2.07064
460 0.12379 -3.77262 -6.84653 1.04225 0.624169 0.129234
503 -0.736964 -2.9551 -6.968 -2.2891 0.104306 0.49347
458 0.739051 -3.97421 -7.68736 1.3555 1.47687 -1.98762
509 1.58649 -3.03826 -7.7273 1.67105 1.23742 1.60491
459 0.793613 -4.5565 -6.87542 -0.543285 -1.41147 0.207717
464 1.60552 -3.89125 -7.05881 -2.11465 -0.442201 1.86945
507 0.863409 -3.05582 -6.81429 2.46935 -0.991287 -1.59032
746 1.08743 -3.62265 -5.99576 -3.22872 0.56261 1.83866
465 3.20039 -4.69921 -7.69191 -0.0961472 -2.80371 0.526439
468 3.21316 -3.96793 -6.98156 0.0584319 0.592455 0.220543
511 2.40084 -3.22503 -7.083 0.513422 1.27892 0.179645
517 4.70786 -3.14208 -7.64488 -0.108427 3.27791 0.942269
467 4.01422 -4.80526 -6.953 1.43868 -2.07132 0.39764
472 4.6987 -3.86668 -7.03238 -0.13532 -3.21965 0.228892
521 6.25405 -2.98929 -7.67295 1.03112 -1.36189 -1.61633
470 5.61445 -3.89745 -7.75332 -1.48918 0.511934 2.96992
476 6.30776 -4.09686 -7.06646 1.9119 -0.936027 -1.4245
519 5.48177 -2.9849 -6.94068 -0.122025 1.3198 0.758592
809 6.2104 -3.09181 -6.30594 0.147767 0.796724 -2.32305
525 7.83998 -3.11387 -7.5875 -1.69646 -0.586371 -0.80027
474 7.02628 -3.81348 -7.69973 0.34004 0.105662 0.319949
523 6.94181 -2.95307 -7.0019 -3.32266 3.39128 -2.4359
762 6.90691 -3.97714 -6.24461 -1.11806 1.62907 -1.65435
480 7.86607 -3.95832 -6.99144 1.51244 -3.00199 -1.5572
478 8.57355 -3.90858 -7.74667 0.0816886 0.24987 -0.81074
721 -9.07694 -4.30375 -6.09395 1.06781 -0.943875 0.43226
766 8.46462 -3.90385 -6.24893 -2.5958 -1.59174 0.79901
482 -8.48331 -2.37589 -7.68317 1.28024 -1.08148 -1.18642
529 -9.15324 -1.57178 -7.66739 0.84135 0.138038 0.849312
531 -8.37915 -1.51894 -6.68558 0.134682 -1.49563 -2.12081
484 -9.09046 -2.23568 -6.92805 0.112937 1.84973 -0.280736
770 -8.6135 -2.33807 -6.07096 3.51759 1.69639 0.60006
817 9.20501 -1.53023 -6.23717 2.0751 -0.728014 -0.0387377
487 -6.9986 -2.97471 -6.8289 -1.45167 -0.291174 0.188741
488 -7.69123 -2.20528 -6.92801 -0.575215 -0.170438 -0.285123
535 -7.06637 -1.45575 -6.87988 -0.579151 1.33573 -0.663166
774 -7.05526 -2.04724 -6.17939 0.800086 -1.84916 2.21701
490 -5.47546 -2.19802 -7.56253 -1.53672 -1.11565 -0.930304
492 -6.1527 -2.40023 -6.88836 -4.36733 1.15537 0.335643
493 -4.84708 -2.88281 -7.87192 2.57549 0.736198 -1.23344
541 -4.70259 -1.52648 -7.75599 1.77746 1.11443 -2.87655
494 -3.96077 -2.19935 -7.88924 -2.53812 -0.456443 -1.36352
496 -4.5657 -2.26669 -6.85981 1.24351 0.977815 0.746069
543 -3.92349 -1.51594 -6.94215 -0.330222 0.872124 0.841042
545 -3.0432 -1.64447 -7.59056 2.33413 -1.30701 1.52267
500 -3.15083 -2.18542 -6.77759 -0.592973 0.499618 -1.89803
786 -2.31944 -2.31896 -6.24873 3.01977 -2.48668 -0.533127
547 -2.3681 -1.57786 -6.8107 -0.162326 1.21168 -2.03845
504 -1.56793 -2.29846 -6.83696 -0.227247 0.47584 -2.17489
551 -0.822779 -1.5465 -6.83426 2.12514 2.21528 -0.846629
502 -0.731998 -2.302 -7.73731 0.353548 0.609956 1.15388
790 -0.902594 -2.29117 -6.12114 2.25507 2.51555 0.751137
506 0.747532 -2.26831 -7.63751 1.0806 0.975311 0.551971
508 0.0839704 -2.24868 -6.94393 0.515404 2.09604 0.274095
553 -0.00527427 -1.5118 -7.64185 -0.312049 -1.25274 0.928867
794 0.736866 -2.31292 -6.22539 0.583409 -1.85482 0.33558
512 1.585 -2.29475 -6.95577 1.15537 2.22464 0.91522
845 1.602 -1.67384 -6.05039 0.151324 -0.0961985 -0.617536
510 2.42687 -2.41703 -7.70743 -0.736953 1.39348 1.91082
561 3.17335 -1.48147 -7.62347 1.04848 0.708088 -1.59631
516 3.23007 -2.32654 -6.99488 -0.674881 2.44032 -0.134322
559 2.3105 -1.75882 -7.04802 -1.87056 -0.00249842 -0.459269
798 2.39439 -2.3935 -6.36849 0.855201 -1.90298 -0.300543
514 4.03235 -2.38538 -7.6737 0.422118 -1.15333 2.93607
515 3.81986 -3.17998 -6.82275 3.60342 -1.54032 -0.638814
520 4.54949 -2.43506 -6.74739 1.49041 -0.239129 -2.45086
802 3.79797 -2.36209 -5.91755 1.31257 2.69581 0.830928
853 4.77757 -1.72395 -6.09093 -0.417414 -0.74848 3.40528
563 3.97932 -1.55231 -6.72304 -0.600129 -0.910079 0.0305757
805 4.67691 -3.30069 -6.13704 1.09721 2.86751 -0.111238
524 6.17194 -2.2344 -6.95506 -2.15832 2.40079 -2.0848
857 6.24939 -1.58356 -6.17246 -1.97424 1.17823 0.726664
528 7.50185 -2.19474 -7.0057 -0.56497 -0.00234739 3.09864
573 7.69172 -1.62368 -7.73215 0.501687 -0.368362 0.731432
571 6.78434 -1.42689 -7.02937 0.641344 0.441366 2.50828
526 8.51108 -2.35014 -7.69028 -3.60914 -1.31733 -0.318395
527 8.50706 -2.92807 -6.91169 3.01364 -0.810924 -0.339793
575 8.4506 -1.64137 -6.86411 0.666474 0.520962 1.17474
530 -8.61466 -0.871424 -7.79806 1.31858 -0.489626 1.41133
2005 4.81504 -1.5623 -0.0327413 0.649855 -0.864288 2.80091
533 -7.78157 -1.58895 -7.69398 2.78758 -0.638625 -1.56391
534 -7.1643 -0.874971 -7.69211 0.187623 -0.392876 -0.346646
536 -7.89568 -0.685498 -6.99143 -2.40462 3.40614 1.57582
537 -6.34335 -1.38467 -7.77108 0.161711 -0.921843 3.34912