ITEM: TIMESTEP
122000
ITEM: NUMBER OF ATOMS
6912
ITEM: BOX BOUNDS pp pp pp
-9.2265715179435492e+00 9.2265715179435492e+00
-9.2265715179435492e+00 9.2265715179435492e+00
-9.2265715179435492e+00 9.2265715179435492e+00
ITEM: ATOMS id x y z vx vy vz
4 9.2237 -8.25054 -8.66325 1.66902 1.44374 0.51547
290 -8.46621 -8.35175 -7.72261 -0.885363 -1.55284 -0.289466
125 1.60522 -6.05308 -9.1551 0.968546 -0.617051 -0.689936
8 -7.82558 -8.4506 -8.4525 -1.95162 0.376644 1.5091
12 -6.14064 -8.42622 -8.42211 0.880581 1.09996 1.42981
298 -5.32005 -8.39601 -7.6548 -1.03179 -2.46702 1.88503
4049 -3.09796 -0.0300937 -6.32314 0.880068 1.43333 2.0189
16 -4.55681 -8.34102 -8.45845 2.3927 1.4502 -0.595406
302 -3.93984 -8.29422 -7.73115 1.85149 -0.804207 -0.092709
222 2.31043 -2.16422 -9.07848 0.828828 3.34075 -2.30536
1809 3.04655 -7.71947 -0.0739045 0.285897 0.0876569 -0.726222
13 -4.49553 -9.11393 -9.08758 1.77534 2.80239 0.88303
20 -3.08947 -8.38523 -8.33174 -0.0495499 2.06524 0.397661
306 -2.18399 -8.47611 -7.67274 -1.14802 -1.13843 0.987774
205 -4.69198 -2.9846 -9.07501 -3.0284 -0.583391 0.504299
24 -1.58457 -8.60252 -8.52001 -0.191458 -1.97316 -2.73618
71 -1.01741 -7.70043 -8.417 0.354721 -1.00883 -0.781563
595 -2.13289 -9.11853 -5.39297 1.45858 -1.08558 3.16415
28 0.0831595 -8.46592 -8.71521 -1.10227 -0.425942 0.256775
314 0.756459 -8.45071 -7.73994 -0.232695 -3.55885 -2.15686
361 -0.104614 -7.76063 -7.81843 0.0954878 -0.524559 1.89678
1445 -7.67805 -9.1685 -1.50943 -0.525129 -1.56692 -1.46089
32 1.60762 -8.37192 -8.53419 -0.993488 -0.868819 -1.34427
75 1.02633 -7.70815 -8.21117 1.91316 -1.64929 -0.10088
1684 -8.97829 -0.899648 -0.494973 0.676379 -0.904271 -1.77241
619 6.69097 -9.09 -5.13786 -1.77952 0.268561 1.5967
36 3.20504 -8.4527 -8.50551 -1.22043 1.02982 -1.19335
40 4.73314 -8.28963 -8.69926 0.748666 -1.86119 2.11461
322 3.74417 -8.45012 -7.7739 0.716315 -3.08705 1.31461
83 3.88305 -7.72445 -8.41424 -1.03324 -0.935299 -0.494842
905 5.96754 -9.17 -4.52159 0.0318146 0.663125 1.33079
611 3.75948 -9.16333 -5.29519 0.667729 -1.23053 -0.439631
44 6.22332 -8.33499 -8.52453 0.585776 -0.716723 -1.97396
326 5.46417 -8.30916 -7.77662 -1.01867 -0.0479744 1.73716
377 6.31861 -7.80193 -7.55529 2.45996 -1.77907 -2.17095
91 6.93847 -7.62564 -8.372 -0.324241 -0.417863 -0.252566
48 7.66992 -8.3948 -8.48565 -0.394699 0.319915 -2.04853
330 6.88329 -8.56838 -7.71553 -2.3908 -1.81557 -0.224356
334 8.31032 -8.40944 -7.69232 -0.185801 0.0567946 2.9375
1909 4.35786 -4.6514 -0.175383 -0.760849 0.952545 0.658388
50 -8.33233 -6.71071 -9.17133 1.80902 -1.34417 0.769352
51 -8.58222 -7.55012 -8.58101 1.14271 1.14973 -1.78751
99 -8.58959 -6.07032 -8.32238 1.80455 -0.944682 -1.64239
389 -7.54627 -6.02564 -7.74936 1.78065 -1.02367 1.52208
55 -6.94165 -7.78666 -8.41216 -3.88391 2.00243 -2.37279
56 -7.77566 -7.02247 -8.39329 1.48244 1.78319 -2.19342
342 -6.99976 -6.85879 -7.76622 1.13994 -1.60492 -3.49995
241 -9.08856 -1.58899 -9.1665 -0.000312492 -0.449462 -0.841328
59 -5.37165 -7.59792 -8.4481 -0.981653 -1.53642 -3.11529
60 -6.2898 -6.95198 -8.36681 -1.20764 0.761445 0.632272
107 -5.3787 -6.06106 -8.46072 -1.27937 -0.640541 0.432609
1890 -2.29804 -3.95348 -0.019844 -2.06132 0.973788 1.51086
63 -3.9734 -7.46459 -8.38739 2.5772 -1.80984 -0.388182
349 -4.67787 -7.61418 -7.72547 -0.0361143 -1.70362 -4.57186
64 -4.69401 -6.81397 -8.42959 -1.0337 2.43989 -0.081534
111 -3.76768 -6.28007 -8.23877 0.652592 0.382133 0.757566
278 5.40686 -0.799233 -9.1331 -0.405955 0.836377 1.16991
67 -2.2092 -7.579 -8.41559 -1.28198 -0.134324 -0.983785
68 -2.98019 -6.91508 -8.49206 0.269947 0.795167 -0.458361
354 -1.98852 -6.92644 -7.74159 -0.436415 -1.88286 1.23856
72 -1.51235 -6.8679 -8.50706 0.821147 1.11878 -0.0780023
357 -1.48299 -7.85496 -7.43561 -2.38511 2.36289 -1.20357
277 4.69153 -1.54503 -9.16662 -0.123649 1.28592 -0.243836
76 0.0542957 -6.90543 -8.42279 -1.38251 -0.904598 2.33673
123 0.842078 -6.20065 -8.46541 1.47705 2.49739 1.73325
1993 -0.0746407 -1.31362 -0.0440398 1.00611 0.798844 1.68998
409 -0.0319193 -6.30645 -7.76988 0.78765 0.730111 -1.33234
109 -4.48666 -6.10846 -9.1628 0.181348 2.26332 -1.09822
362 0.943678 -6.87064 -7.84169 0.877012 -0.637325 -2.19321
80 1.67284 -6.96219 -8.52099 0.788148 1.41454 2.35563
413 1.69185 -6.1252 -7.78135 -1.32569 -1.94722 0.502953
79 2.41398 -7.84408 -8.31467 -0.709741 -1.85689 0.38883
84 3.21064 -6.91706 -8.45057 1.70942 -1.58195 -0.981742
127 2.34781 -6.12741 -8.50984 0.318144 -0.632712 -1.63914
417 3.10825 -6.17245 -7.73799 -2.10807 1.51861 1.22959
88 4.65274 -7.00074 -8.53036 -1.31993 0.260936 1.81832
131 4.03913 -6.05316 -8.24479 0.944102 -3.10852 1.50209
421 4.75421 -6.0436 -7.63556 -0.867753 -0.0978007 -3.75459
370 3.94659 -6.99198 -7.76771 1.62121 -1.62252 0.815729
87 5.47706 -7.58644 -8.57775 -0.190976 2.24214 -1.76272
92 6.26528 -6.86486 -8.35868 -0.74193 0.368108 -1.39454
135 5.35939 -6.20485 -8.45547 1.03542 2.57116 -4.15767
374 5.41452 -6.89132 -7.74931 0.59917 1.76718 0.678295
113 -3.11266 -6.22864 -9.18951 -1.44962 0.649687 -1.55785
4329 -6.02962 -0.11403 -4.64446 2.68739 1.1253 -0.338569
425 6.05036 -6.07348 -7.78519 0.831405 3.32252 -0.0228146
96 7.51614 -6.79687 -8.30735 -1.27354 -2.06488 2.5492
1179 0.721931 -9.14369 -2.1789 -0.37124 0.852678 -0.549815
52 9.20907 -6.85035 -8.45532 2.95002 1.649 1.11309
95 8.32856 -7.55358 -8.53348 -1.57554 0.796412 -0.561312
143 8.37206 -6.0309 -8.48039 0.498732 1.22317 1.68168
230 5.33287 -2.34923 -9.13414 2.7879 -1.41519 2.00712
382 8.3959 -6.89174 -7.88619 1.44907 -2.21975 1.29168
100 9.16701 -5.27192 -8.38401 -3.48033 -2.08466 -1.36962
386 -8.40061 -5.34816 -7.81403 0.674411 -4.98271 -0.263475
103 -6.80063 -6.13578 -8.50658 -1.70651 -1.83572 1.19033
104 -7.80898 -5.3392 -8.44683 1.14463 -1.83116 -1.98202
4941 7.56618 -0.108537 -1.48054 2.20928 1.04544 -1.12882
393 -6.10702 -5.99116 -7.73169 1.94667 0.590388 1.35609
108 -6.21492 -5.34881 -8.64075 0.427534 0.337144 -0.0962646
394 -5.30773 -5.32304 -7.58916 0.52429 -0.798418 1.09757
106 -5.33449 -5.29963 -9.19005 -1.71999 1.16494 -0.00349592
110 -3.78395 -5.40117 -8.93241 -1.29719 -1.78148 -4.161
112 -4.48999 -5.41574 -8.30542 0.916099 0.0218571 -2.00465
159 -3.96193 -4.57767 -8.48848 3.16261 -0.379634 1.34228
115 -2.23075 -6.12161 -8.64814 2.269 -1.369 -3.27673
623 8.49082 -9.18713 -5.5106 -0.918666 -1.04736 2.19946
116 -3.01833 -5.30833 -8.31806 0.585064 -0.941541 -2.20494
163 -2.32332 -4.59487 -8.34619 -0.211436 0.679219 0.973164
1441 -9.21806 -9.12419 -1.73369 0.806896 -3.03212 0.377016
119 -0.72544 -6.20972 -8.4716 -2.18921 -0.115185 -1.01995
120 -1.41367 -5.4202 -8.52461 -2.68619 0.914899 -0.218914
242 -8.50579 -0.70574 -9.10019 0.7246 1.84983 -0.546904
258 -2.33493 -0.90265 -9.10794 1.44258 1.45925 0.700382
307 -2.33734 -9.19712 -7.10057 -0.713548 0.960349 -0.178994
124 0.0824424 -5.26264 -8.46854 -0.748561 1.10453 -0.00925207
406 -0.556903 -5.43398 -7.63822 -0.971295 0.598463 -1.33693
31 2.34524 -8.92694 -8.59971 -0.459467 -0.216894 -0.486547
128 1.40571 -5.28857 -8.5061 -4.01509 0.546188 -1.52934
286 8.60864 -0.770246 -9.17634 -2.03919 0.556066 0.629094
132 3.13273 -5.23845 -8.49022 0.534932 0.0140208 0.514673
414 2.31461 -5.26833 -7.92116 1.81648 -0.355193 0.198249
1965 7.63273 -3.00712 -0.0901848 -1.38155 -1.8415 1.90807
136 4.58122 -5.26138 -8.53966 2.86202 -2.09227 -2.47984
166 -0.840699 -3.90533 -9.19666 -1.81757 1.41704 -0.830921
140 6.13829 -5.35423 -8.52749 0.688121 -1.40248 1.33518
422 5.4856 -5.30449 -7.66378 -1.30842 1.79243 1.93636
183 5.4174 -4.38446 -8.39296 -2.51838 0.453206 -1.74923
473 6.06672 -4.37664 -7.61815 -0.57585 -0.288381 0.400537
139 6.87243 -6.08331 -8.39377 -0.329444 -2.48542 2.35442
426 6.82684 -5.34382 -7.68484 0.646514 0.59162 -2.31442
144 7.803 -5.24341 -8.36858 -0.995093 0.57837 0.0815963
477 7.80167 -4.4972 -7.65287 0.127812 1.51706 0.86954
187 6.9329 -4.50569 -8.46059 -0.459086 -0.275091 0.63603
191 8.55242 -4.38244 -8.37541 -3.50595 -0.223532 0.616602
430 8.38534 -5.34687 -7.66772 2.13402 0.877069 0.121113
433 9.17315 -4.68985 -7.6424 1.24472 0.455649 -0.133864
6 -7.1116 -8.44356 -9.16291 -2.33789 0.267628 -0.375418
146 -8.65094 -4.45963 -8.31383 2.19846 -0.113734 -0.355815
148 9.18081 -3.65545 -8.57862 -1.51557 0.833255 1.12843
195 -8.49382 -3.09521 -8.34793 -1.63177 0.0536863 -3.69037
39 5.39699 -8.97922 -8.60623 0.450868 1.06172 0.836747
151 -6.99945 -4.73539 -8.50482 0.0610242 -0.148379 -0.64273
152 -7.76037 -3.88505 -8.42021 -0.26617 -0.513531 -1.10359
437 -7.78668 -4.62571 -7.68308 -0.826934 -0.674554 -0.499336
154 -5.4382 -3.77639 -9.1533 -0.582766 1.99776 -0.614487
155 -5.28963 -4.57062 -8.51641 -1.21162 0.327366 -1.48395
156 -6.32803 -3.90584 -8.30102 -3.64822 -1.01099 -1.22379
153 -6.19897 -4.57613 -9.10351 0.128331 0.8379 -0.100436
160 -4.6988 -3.72718 -8.38378 -1.85878 1.26944 0.400205
3789 7.86816 -0.112439 -7.39311 -2.99988 -0.972867 -1.5839
157 -4.66043 -4.69246 -9.21665 2.12041 -0.357683 -1.96557
130 3.88512 -5.54876 -9.13284 -0.855038 -3.09637 -1.76543
164 -3.14689 -3.70925 -8.41969 0.115228 1.15321 0.972504
168 -1.519 -3.78873 -8.59443 0.144896 -0.577167 -0.0362261
215 -0.788453 -3.07038 -8.73177 -2.77326 1.62338 1.26514
1897 -0.0999263 -4.84528 -0.0696205 -0.85783 1.14735 -0.649406
167 -0.618673 -4.65423 -8.30473 2.23359 0.11394 3.28906
172 0.0617537 -3.70128 -8.54029 -1.08844 3.73981 -2.69992
114 -2.43524 -5.37301 -9.16228 -2.23447 0.708132 -0.833335
171 0.801465 -4.55982 -8.43379 1.70829 2.39182 -1.39668
176 1.42302 -3.80737 -8.53777 0.587489 -1.79725 2.03023
3467 -5.38272 -0.0644907 -8.53091 -1.75436 -0.0807693 -1.7676
201 -6.30055 -3.00657 -9.16491 0.165114 1.98864 1.20686
175 2.16454 -4.61019 -8.71273 -1.54635 -1.21289 2.20279
317 1.36289 -9.17391 -7.81416 -0.314281 1.72115 -0.891874
180 3.10444 -3.88753 -8.50988 -0.630445 -1.46552 1.52728
223 2.15552 -2.96205 -8.49214 2.13244 0.112687 0.28644
185 6.28843 -4.38997 -9.06878 -1.2247 0.952127 1.27252
15 -3.68667 -9.11778 -8.47233 -1.3754 -1.52154 -1.92972
179 3.87867 -4.62035 -8.50246 1.95879 1.7293 -2.03467
184 4.61392 -3.79836 -8.57595 0.560797 1.2457 -1.64735
227 3.97693 -3.0865 -8.43282 -1.15158 -0.564901 0.309657
466 3.80921 -3.83459 -7.74923 0.603799 2.44208 0.799326
188 6.23353 -3.71924 -8.35324 -0.537067 2.92477 -1.71577
470 5.3588 -3.75564 -7.64713 -0.595595 2.66587 1.43154
192 7.62816 -3.72818 -8.41159 1.07911 -2.44759 -1.42604
525 7.76268 -3.18976 -7.53674 1.19775 0.369707 -1.43304
90 6.97816 -6.70559 -9.11569 1.78849 1.49091 1.66341
235 7.04116 -2.91495 -8.30594 1.18081 -3.58375 1.84261
239 8.33978 -3.16246 -8.66865 0.928612 -0.714021 -0.491834
186 6.95949 -3.64058 -9.14135 -1.20386 -1.75416 1.73618
478 8.63228 -3.82071 -7.47524 -0.715643 0.0935184 1.92269
243 -8.39154 -1.55458 -8.26515 -1.15934 2.64653 1.56661
196 -9.18873 -2.31451 -8.29939 -0.0436424 0.109514 0.0724697
481 -9.13754 -3.07967 -7.63455 -2.0105 -1.17475 2.70575
579 -8.37346 -9.03548 -5.30404 0.705655 -0.856801 -0.604128
199 -7.00039 -3.0823 -8.46188 -2.38907 0.65656 -2.08437
200 -7.67066 -2.38766 -8.22867 -2.27469 0.77875 1.83241
247 -6.88327 -1.56187 -8.57061 -3.80782 0.170611 1.3035
486 -7.07359 -2.14374 -7.51172 -0.262171 -0.811718 -2.15015
5229 7.614 -0.204836 -0.208398 -1.49476 2.977 0.00111735
3475 -2.13058 -0.207966 -8.2523 0.00575038 0.00508415 1.58587
203 -5.54146 -3.15822 -8.46256 2.21289 -0.269698 -1.71005
204 -6.29729 -2.32709 -8.35783 0.717109 3.08281 -1.56346
207 -3.81748 -3.09654 -8.37298 -1.91358 -3.89529 -1.48941
208 -4.54371 -2.20858 -8.45639 2.22561 -1.19284 -1.73163
1934 -3.7514 -2.41942 0.00950876 1.39518 2.00862 1.42567
4331 -5.3681 -0.0109895 -3.82157 -1.27753 0.642163 -0.432166
211 -2.33537 -3.20817 -8.26396 -0.491003 -2.20711 2.43318
212 -3.1197 -2.28138 -8.58633 2.14808 -1.73198 2.21066
259 -2.30987 -1.53062 -8.37607 -0.729749 2.86417 -0.0343792
270 2.38121 -0.820327 -9.02314 3.50577 1.13959 -2.08585
4357 4.57983 -0.0467896 -4.59448 -0.478868 -0.0849046 -1.018
4631 -0.868352 -0.0280487 -2.24629 -3.98878 -0.248593 1.24293
216 -1.64552 -2.52461 -8.45143 -0.741855 -0.25611 0.812403
3459 -8.49248 -0.0271321 -8.40767 -0.0456185 0.69027 -0.583804
3777 3.10029 -0.00315279 -7.59514 0.136032 2.20865 0.526715
220 -0.0850549 -2.26708 -8.56776 0.599981 -3.27591 -0.55365
263 -0.7065 -1.42673 -8.43145 -0.687798 -0.535845 1.30852
74 0.806659 -7.06061 -9.2278 -0.687722 -0.703505 -2.91125
269 1.52753 -1.4481 -9.1952 1.85424 -0.657199 -1.7128
219 0.954793 -2.95193 -8.62761 -0.741191 1.81836 0.620167
509 1.51875 -2.99821 -7.66282 2.6539 -1.65349 1.69099
224 1.46906 -2.15435 -8.44152 0.719381 -0.336704 0.907955
267 0.859975 -1.37083 -8.55091 1.51182 -0.637242 4.18117
1746 -2.39163 -8.63151 -0.171131 1.94153 2.34919 -0.440564
271 2.34977 -1.4828 -8.28743 -0.875323 1.8304 -1.14488
228 3.00009 -2.28199 -8.33779 -1.28666 0.382686 0.395885
510 2.24564 -2.21907 -7.65064 -0.581923 1.21032 1.24722
513 2.87332 -3.12449 -7.77669 -0.0601982 -0.349381 1.01512
232 4.60023 -2.29407 -8.31173 -3.01135 -0.445298 -2.2795
275 3.76409 -1.54778 -8.31282 -0.271873 -0.689052 -2.65789
1175 -0.696604 -9.14872 -2.33473 1.36134 -0.124394 0.870733
231 5.28348 -3.13784 -8.40433 -1.28691 -0.936755 1.85191
236 6.1766 -2.43381 -8.51364 1.82795 1.48299 -1.90155
518 5.41715 -2.45242 -7.75225 -0.957043 0.580962 -0.734997
279 5.49358 -1.50254 -8.48088 -2.56464 2.12487 -2.4214
569 6.13882 -1.70993 -7.73484 -0.903939 0.522561 -1.77298
78 2.37815 -7.02536 -9.08785 -1.2113 1.04826 -0.25657
14 -3.57939 -8.5801 -9.19456 -0.944728 0.514563 -3.30268
240 7.8993 -2.38839 -8.32672 0.41128 -2.63775 -0.2001
283 6.99916 -1.72171 -8.37493 -1.66004 -0.91584 -2.24946
287 8.65464 -1.47711 -8.43206 -0.797043 0.814306 0.463741
573 7.84177 -1.62662 -7.73048 -0.676604 1.80346 -1.11732
3791 8.58868 -0.0162702 -6.81184 -1.72667 1.30481 3.34902
226 3.99983 -2.28568 -9.13665 -2.72749 -0.107953 0.322754
248 -7.78829 -0.792707 -8.39767 -1.01383 1.10816 -0.12538
530 -8.51075 -0.726783 -7.58519 -0.633898 -0.0301745 0.638316
329 6.10642 -9.20417 -7.8224 0.346662 2.03954 0.828574
534 -6.91117 -0.894899 -7.76948 -0.0742724 -4.14965 1.21114
533 -7.76732 -1.48091 -7.61158 -0.0744491 -1.72123 0.339664
1882 -5.63373 -3.95236 -0.120543 2.10558 1.28717 0.0991749
161 -3.10878 -4.49811 -9.06948 -0.946574 -1.35667 0.662631
1177 0.0710416 -9.02514 -2.84685 -0.925226 -0.671846 0.384034
251 -5.34528 -1.48267 -8.48572 0.291944 -0.801431 0.833983
252 -6.13458 -0.833953 -8.40996 -2.04569 -0.277127 -0.334393
4617 -6.10059 -0.0425548 -3.12774 1.20044 -0.593929 -0.808505
3753 -6.08869 -0.0653458 -7.80853 -0.296343 0.673167 2.51075
1997 1.35292 -1.53176 -0.133988 -1.4677 -0.945141 -0.727674
1849 -0.138265 -6.11772 -0.17356 1.23367 1.30051 -2.24625
255 -3.93687 -1.41289 -8.51236 -0.270267 2.20853 0.96332
256 -4.58518 -0.848495 -8.311 1.29663 0.275678 0.540062
1754 0.751128 -8.40675 -0.303823 3.14465 3.52231 -1.37644
5217 2.85916 -0.0953637 -0.175063 -0.973526 1.99294 0.632069
260 -3.13409 -0.729284 -8.55828 0.585801 1.66191 -0.291946
165 -1.60528 -4.65989 -9.18277 -2.57072 0.638599 1.29686
11 -5.32805 -9.13694 -8.55005 -0.132324 0.293535 1.23166
264 -1.38175 -0.780157 -8.63148 0.302311 -1.78761 -2.11518
1161 -6.15407 -9.13441 -2.8883 1.61912 0.425197 0.044835
909 7.77053 -9.17438 -4.49897 -1.44257 -0.0104896 -0.405043
591 -3.79651 -9.21369 -5.45385 1.20605 -0.99891 -0.127321
268 0.0802941 -0.745681 -8.49077 -1.57556 -2.82425 4.3592
4063 2.29115 -0.155752 -5.42387 -2.34051 -1.72951 -0.609599
272 1.58798 -0.616526 -8.39112 0.3715 -2.13586 0.307295
554 0.672561 -0.670394 -7.71404 1.81869 1.29784 -0.173805
883 -2.35693 -9.05878 -3.8268 0.600218 0.302982 0.880785
276 3.21867 -0.794177 -8.34287 0.630159 -0.389301 2.26626
561 2.97353 -1.54034 -7.60535 1.58071 -0.657909 0.430705
1869 7.60438 -6.24524 -0.0477371 -2.49944 -2.25136 -0.699401
280 4.68903 -0.676816 -8.41538 2.5739 1.17897 -1.48714
562 4.00888 -0.670685 -7.64892 -2.33222 -0.22384 1.43289
565 4.7656 -1.40311 -7.51748 -1.34136 0.0211015 -3.71891
1728 7.79666 -0.889831 -0.780646 1.85907 -0.332552 1.88838
94 8.22973 -6.77092 -9.2075 0.23545 4.47469 0.748137
284 6.33507 -0.863381 -8.42588 0.0618846 -1.279 1.12239
566 5.54086 -0.850964 -7.63795 0.105106 -2.05418 3.70455
869 -7.65823 -8.95825 -4.4393 0.859869 -3.3892 1.03443
4341 -1.70159 -0.054587 -4.62162 -1.25467 3.11341 -0.24029
288 7.94128 -0.718294 -8.40566 0.475951 1.77458 2.32954
4355 3.85315 -0.118368 -3.83937 0.546688 -0.685675 1.04778
244 -9.15928 -0.791774 -8.3795 -0.714272 -0.500494 0.0466106
138 6.90371 -5.26808 -9.03837 -0.0674796 -0.389334 0.242239
578 -8.51343 -8.40617 -6.1896 -1.90716 -1.3515 1.14595
339 -8.55389 -7.64125 -7.0608 -1.67388 -0.709192 -0.949972
296 -7.76461 -8.43012 -6.89987 -1.1452 -1.57762 2.1082
294 -6.9676 -8.47769 -7.55872 -0.85078 0.313385 -2.58148
345 -6.14492 -7.62979 -7.66813 0.324986 -1.4532 0.627341
341 -7.71209 -7.74602 -7.59991 1.36032 0.726708 0.219696
343 -6.8724 -7.53925 -6.93684 -1.22928 2.46596 -0.498572
582 -6.9116 -8.33908 -5.99482 -1.91033 1.71271 -2.82922
300 -6.10251 -8.26681 -6.97609 -2.55435 1.60994 0.864634
633 -6.17606 -7.42302 -6.16359 -2.06277 -1.08913 2.62807
586 -5.39618 -8.06001 -6.06997 0.786246 -3.73569 -2.87865
304 -4.47397 -8.54103 -6.83503 1.85351 0.17942 -0.230745
3499 7.10797 -0.152476 -8.11318 -0.00157752 -1.74554 -2.44523
1730 -8.68354 -8.57492 -0.21336 0.862456 2.08118 0.351262
4067 3.84333 -0.0415655 -5.32412 -0.227525 -0.311491 -0.932234
308 -3.15539 -8.44199 -7.10776 -0.464458 -0.586601 -2.50789
594 -2.24711 -8.54531 -6.20235 1.36289 -3.03038 0.335825
1846 -0.969732 -5.44142 -0.1413 2.41551 -1.02639 -0.464583
312 -1.46129 -8.56944 -6.80639 1.03764 1.98589 -2.42978
598 -0.724041 -8.39795 -6.03604 1.07623 0.165778 0.569178
310 -0.754414 -8.51848 -7.74457 0.392824 0.768189 -0.25458
316 0.204668 -8.3112 -6.92894 -0.0502328 0.930232 -4.59536
365 1.77509 -7.81989 -7.55324 2.32618 -1.40394 1.17533
320 1.39425 -8.51303 -6.95008 -1.53481 0.803624 -0.930555
653 1.48232 -7.60607 -6.33006 -2.97277 -2.52613 0.604958
602 0.795558 -8.45301 -6.0564 0.508726 2.18976 -0.471815
318 2.28584 -8.68626 -7.6971 0.890612 0.212253 -0.684724
324 3.17938 -8.63583 -6.98078 -1.48059 0.732355 0.881003
657 3.21129 -7.75855 -6.262 -0.248958 0.326278 1.30665
606 2.30451 -8.51476 -6.31777 -0.750668 2.21686 -2.33024
1465 -0.185834 -9.21433 -1.47817 -2.88333 -0.461821 1.08294
328 4.54924 -8.55825 -6.76971 0.958392 -2.59238 0.577127
610 3.89262 -8.62075 -6.18761 -0.84881 -0.77315 -2.7395
332 6.10542 -8.55897 -6.97745 0.941636 -0.0870589 -0.464803
325 4.67915 -9.01002 -7.74048 -0.880262 0.367671 0.19151
336 7.62311 -8.43166 -6.78109 1.13509 1.12915 -2.69474
379 6.91561 -7.62279 -6.79874 -0.8398 0.0914335 2.19464
1197 7.6639 -9.18582 -3.06824 -1.63064 0.88105 -1.94585
292 9.11726 -8.44534 -6.9141 -0.642833 -0.654083 1.68396
337 9.01188 -7.71559 -7.71996 1.11661 -0.165496 1.03847
383 8.38534 -7.74229 -6.97128 -2.10964 0.176099 -0.125403
622 8.26996 -8.36286 -6.11388 -2.37937 1.1398 2.90244
1722 6.90786 -0.766418 -1.7454 -0.300512 -1.47426 -2.23316
4077 7.70679 -0.0531189 -6.2258 -0.120086 0.90475 -0.560807
385 9.1654 -6.07886 -7.70173 1.98403 0.403077 0.294502
338 -8.48523 -6.88826 -7.70334 0.306482 -1.46476 2.19022
387 -8.46154 -6.13689 -6.88673 -0.782568 -1.64748 2.36055
625 -9.17306 -7.68326 -6.15238 0.349259 1.53994 1.2665
344 -7.64474 -6.83924 -7.01017 2.21875 0.782823 -0.208831
391 -6.71672 -6.12404 -6.98323 -0.0944726 2.42883 -0.829933
348 -6.12739 -6.86243 -7.02777 -0.306416 1.36923 -2.39966
347 -5.35195 -7.64145 -6.96086 2.7594 -0.0132046 0.739654
346 -5.36159 -6.84622 -7.75519 2.39239 -1.43775 1.59747
395 -5.32729 -6.26939 -6.89766 -0.482771 -2.68342 -0.898604
634 -5.28389 -6.76931 -6.11663 -1.38108 -0.445313 -0.172326
350 -3.75395 -6.96402 -7.50566 -0.51517 -0.877556 -0.791374
351 -3.80922 -7.71186 -6.86359 0.33403 1.45278 -0.739613
637 -4.57206 -7.38523 -6.27024 -0.676074 -0.148323 -0.815853
352 -4.63443 -6.93606 -7.05124 2.5099 2.25388 0.0674463
397 -4.54717 -6.25561 -7.63164 0.090417 0.122034 0.842616
353 -2.92471 -7.71689 -7.7224 0.119859 -0.0968609 -3.83805
641 -3.07469 -7.75174 -6.13943 0.138545 -1.82446 1.98187
355 -2.31032 -7.61931 -6.9133 0.49515 -0.671003 1.81756
356 -3.01545 -6.71119 -6.85614 -2.62583 0.266889 0.754804
358 -0.872898 -7.03245 -7.76524 1.48102 -0.0603333 0.886052
360 -1.36611 -7.01936 -6.77594 1.53864 0.734394 -0.99684
646 -0.657403 -6.91097 -5.9859 -0.689128 -1.10644 -0.306509
359 -0.660496 -7.71973 -6.84032 -0.842987 1.58995 -0.271985
645 -1.5408 -7.8883 -6.14677 -0.975413 1.58092 -2.39507
363 0.748064 -7.65771 -7.19864 -0.789752 1.60827 -0.661949
364 0.0382133 -6.94153 -6.88162 0.932217 1.61751 2.0188
411 0.964191 -6.34372 -6.99055 -0.99081 0.394289 -0.0571017
368 1.84801 -6.78513 -6.91549 1.86249 0.788044 -0.234466
650 0.740531 -6.83861 -6.07525 1.17745 2.65127 0.170727
366 2.31886 -6.88271 -7.85601 -0.101798 2.10074 4.31104
369 3.05532 -7.80876 -7.59565 0.608234 0.0876007 0.911201
367 2.38887 -7.59693 -6.83595 -1.52047 0.374959 1.10218
372 3.13861 -6.95111 -7.06699 -1.00395 -0.0720849 1.66707
654 2.65731 -6.96382 -6.18395 -1.33991 1.41666 -1.72246
705 3.21014 -6.04981 -6.20539 -1.75229 0.0835326 0.834938
373 4.68523 -7.82279 -7.69912 -0.469129 0.502033 -0.522124
371 3.88418 -7.86594 -6.9616 0.0623205 0.373937 -0.45757
376 4.60073 -7.11921 -7.0025 -0.0954129 -0.890729 -1.76087
658 3.77741 -6.83214 -6.07409 0.502157 0.798654 -1.48127
375 5.56025 -7.75955 -6.98677 -3.93222 -1.69374 1.53389
380 6.17687 -6.92947 -6.96595 -0.994957 -1.13356 0.170934
665 6.02215 -7.88686 -6.14436 -0.851048 0.912005 1.01007
662 5.32856 -7.01249 -6.21672 -0.640672 -0.566966 2.40695
713 6.18276 -6.15296 -6.0182 1.67918 -0.457483 0.380119
381 7.59506 -7.73072 -7.68734 -0.191459 0.959662 1.00155
378 6.86669 -6.78466 -7.53184 -0.260876 -3.30188 1.09273
666 6.96213 -6.95974 -6.00909 0.800115 0.689224 -0.663524
384 7.68868 -7.05177 -7.07293 -2.39362 -1.23311 1.67028
340 9.24017 -6.90073 -6.92875 1.98564 0.438129 1.16739
673 9.18604 -6.25745 -6.1237 2.44731 1.47538 0.983852
431 8.46691 -6.18968 -6.96797 -1.03348 -0.319352 0.48622
670 8.5068 -7.01231 -6.19574 -0.985616 -0.721312 -1.4984
435 -8.36272 -4.72916 -6.88743 1.61339 2.07882 -1.1591
388 9.17314 -5.37363 -6.9279 -0.583489 -0.0267862 -1.12101
674 -8.54463 -5.52155 -6.14822 2.35275 2.65265 1.12726
390 -6.79659 -5.3198 -7.66216 1.38042 -0.867258 1.32765
392 -7.59175 -5.59624 -6.88348 -2.39578 1.17981 0.308818
678 -6.99138 -5.53876 -6.15393 -1.66557 -1.88469 1.71606
439 -6.947 -4.61619 -6.9172 0.834692 -1.60659 -0.0267806
441 -6.01333 -4.80303 -7.76011 1.89537 0.760595 -2.20643
681 -6.0773 -6.1503 -6.08785 -1.35189 2.00131 -0.826183
396 -5.96923 -5.45255 -6.80926 0.123736 1.13849 -1.47407
682 -5.17907 -5.38447 -5.97578 0.0839592 0.066791 0.29858
398 -3.83587 -5.30029 -7.6383 1.09181 4.25459 1.73897
399 -3.73173 -6.16633 -7.04452 2.19331 -0.0873519 1.67014
445 -4.56374 -4.53521 -7.57902 -0.154777 0.487252 4.08891
400 -4.64775 -5.36341 -6.94219 0.658789 -2.49914 -1.31412
447 -3.73923 -4.50581 -6.8961 3.55228 -1.431 -0.778102
402 -2.20023 -5.27527 -7.61605 1.64329 -0.841837 0.379422
401 -2.89531 -6.15207 -7.6462 0.531715 0.247007 0.823885
403 -2.17125 -6.09176 -6.83029 -1.16813 -0.446532 0.488241
404 -3.03435 -5.2559 -6.78304 1.44166 2.2714 -0.0559233
451 -2.07472 -4.58909 -6.92202 -3.74077 -0.44774 1.74568
405 -1.25401 -6.10028 -7.54943 -1.01781 -0.54599 -0.181573
407 -0.598583 -6.18086 -6.81846 -1.72936 1.2836 -2.14834
408 -1.3848 -5.49639 -6.91764 -2.88382 -1.76988 -0.786629
693 -1.50161 -6.24951 -6.1536 -0.710687 -0.291435 1.09411
412 0.0166679 -5.44773 -6.91147 -0.765877 2.18911 0.147925
697 0.172643 -6.12571 -6.12888 0.0148828 -1.06271 -0.489462
461 1.63057 -4.68003 -7.73703 -1.85764 1.35852 -0.447935
410 0.685765 -5.50897 -7.71032 -1.08862 -0.363988 -0.296322
416 1.73792 -5.52435 -7.03339 -1.77855 -0.179117 1.10051
701 1.60569 -6.17561 -5.97184 -0.861448 -2.12105 0.902543
698 0.852841 -5.43983 -6.23907 0.7404 2.79293 1.94476
465 3.03218 -4.49826 -7.64397 -0.783452 0.760967 0.277236
415 2.54439 -6.21652 -6.88426 0.836325 0.545154 1.24092
420 3.15461 -5.31504 -6.96887 1.86317 -0.260116 0.223119
463 1.99604 -4.58315 -6.84475 1.92515 0.616867 -2.51516
418 4.03358 -5.21322 -7.62046 -0.991031 -0.819944 0.970351
469 4.73861 -4.58597 -7.72152 1.29498 -0.628203 -0.86044
419 4.00559 -6.2926 -6.89848 1.30193 -0.178994 1.40591
424 4.86728 -5.34403 -6.85348 -0.0295293 -3.00798 -0.897728
467 3.6464 -4.37191 -6.88852 2.03072 -2.07065 -0.331843
706 3.9781 -5.36027 -6.46424 1.50638 0.0875885 -0.517176
423 5.35912 -6.27386 -6.85106 -2.2095 0.718628 0.547618
428 6.12917 -5.47344 -6.76889 0.50158 0.431067 -0.997973
471 5.35931 -4.5276 -6.76623 0.179042 -2.59686 -0.741606
429 7.5845 -6.01682 -7.64131 -0.988972 2.31844 1.17221
427 6.88076 -6.11334 -6.84025 0.0285598 -0.804737 -1.89765
475 6.89934 -4.59512 -6.92246 2.65672 -0.72641 -0.129396
432 7.78086 -5.4112 -6.8619 -2.01013 -1.70152 -0.0333699
765 7.49452 -4.7394 -6.10022 -0.173282 0.888195 -0.449678
718 8.55719 -5.3342 -6.02818 1.14294 -0.502126 -1.57473
479 8.49098 -4.57898 -6.7034 -0.4564 -0.749573 -3.84372
434 -8.41657 -3.86198 -7.52772 0.642331 0.909925 1.06275
483 -8.27158 -3.12097 -6.83616 2.59383 2.18363 -0.199716
721 -9.1434 -4.61032 -6.14987 -0.807192 -1.40751 0.806819
722 -8.32648 -3.95587 -5.97666 -0.788224 -0.101002 -0.395508
440 -7.76178 -3.99718 -6.74994 -1.27608 -0.636324 2.85437
438 -7.03009 -4.00644 -7.65642 1.78812 -0.313444 -2.28484
773 -7.88461 -2.98768 -5.94355 -1.52913 0.968187 -1.22659
485 -7.69999 -3.09672 -7.64239 -0.585491 0.783122 -1.64951
487 -7.18767 -3.14412 -6.82721 1.13591 0.0426098 -0.836592
442 -5.30325 -3.74944 -7.55345 2.21296 0.36987 1.50938
443 -5.641 -4.57118 -6.85075 1.70832 -0.459682 -0.816282
729 -6.2768 -4.84621 -6.04714 -1.56946 1.48625 -0.571467
444 -6.30914 -3.81151 -6.98195 2.13733 -1.25937 3.3179
730 -5.40518 -3.77762 -6.21212 0.21761 -0.324504 -0.761897
446 -3.8333 -3.79013 -7.60702 -0.079129 -0.585948 -0.138041
448 -4.63765 -3.91131 -6.84636 1.46398 0.376641 0.748241
493 -4.71244 -2.90335 -7.78134 -2.68403 0.0814397 0.0721193
449 -2.90483 -4.70284 -7.53167 -0.676982 -1.9656 -0.295878
497 -3.09955 -2.85644 -7.70441 -2.15527 -1.58593 0.0471189
450 -2.32095 -3.97278 -7.67085 1.06703 -1.21638 0.0623936
452 -3.01903 -3.77535 -6.93518 -0.0375708 -0.241277 -0.0682189
453 -1.52741 -4.52074 -7.88534 0.489394 2.15338 -1.05608
455 -0.800034 -4.60625 -6.9697 -1.64117 -1.22116 3.0013
456 -1.4412 -3.81252 -6.8486 -0.898285 -1.20082 0.989405
741 -1.39205 -4.66063 -6.20252 -0.93223 -1.64301 1.18017
454 -0.488782 -3.89968 -7.71407 3.22499 2.8189 0.260618
457 0.233409 -4.58398 -7.63325 2.07806 -2.1883 0.541533
505 -0.0796518 -2.90328 -7.84597 -2.28532 1.54403 0.534643
460 0.156584 -3.84752 -6.82696 0.766447 1.75945 2.65462
458 0.650359 -3.663 -7.68904 -2.38093 -0.436466 0.384295
459 0.91543 -4.78337 -6.99637 -0.958977 1.09591 -0.053141
464 1.37883 -3.83447 -7.08744 -0.759808 -0.912696 1.34072
462 2.27992 -3.90486 -7.97749 1.66788 0.360111 -0.952057
468 2.71 -3.69861 -6.93722 1.62994 -0.540315 -2.15733
750 2.01573 -3.99531 -6.09345 2.20448 0.496081 -1.45651
472 4.46555 -3.72311 -6.8558 1.88787 -0.495584 -0.760577
805 4.45588 -2.98355 -6.11465 -2.64457 -1.99438 -0.198986
515 3.63089 -3.30846 -6.87927 -1.30757 1.58524 -2.70498
754 3.83906 -3.90341 -5.8709 -0.564034 0.617883 0.846459
476 6.10716 -3.73141 -6.92406 0.729676 -0.341962 1.34793
758 5.27539 -3.75535 -6.04301 -0.0345456 -1.46764 0.843506
809 5.96284 -3.15302 -6.20214 0.780982 0.294687 0.291514
519 5.25784 -3.15298 -6.86681 -2.06556 -1.70791 -0.705015
474 7.0499 -3.79906 -7.54936 -0.910841 0.435493 -1.30197
523 6.85623 -3.10937 -6.85871 -0.231766 5.56138 0.372619
480 7.7033 -3.88277 -6.65207 -0.764496 1.62954 -0.813728
436 -9.03372 -3.87715 -6.77057 4.14687 -1.30286 -2.29687
766 8.58547 -3.83179 -6.13709 -1.75181 -1.42076 1.2807
482 -8.39354 -2.3957 -7.5715 -1.77147 -1.78104 -0.0482003
531 -8.39267 -1.7883 -6.82393 -0.618738 -0.0993025 -1.00653
770 -8.49625 -2.30174 -5.92751 3.61744 -0.950512 -1.4148
817 9.2304 -1.64684 -6.088 0.63268 -0.612351 -2.38505
488 -7.73769 -2.32139 -6.57508 1.41545 -1.43467 2.40423
491 -5.47503 -2.98198 -6.99361 1.79236 -0.0172579 1.48119
489 -6.40085 -2.98766 -7.64895 2.24967 2.30125 0.679385
490 -5.49253 -2.31488 -7.77789 0.451223 -2.41199 -0.35662
492 -6.22801 -2.42172 -6.85044 1.24093 -0.762959 0.981525
495 -3.94627 -3.01311 -6.95908 0.858429 1.74288 -0.56473
494 -3.9275 -2.38064 -7.76904 2.54803 1.37485 -1.39358
496 -4.66779 -2.30391 -7.00828 -3.49311 0.0401312 0.620305
498 -2.30124 -2.34157 -7.78694 0.286619 -0.500565 -0.249339
499 -2.20056 -3.10889 -6.95654 -0.204292 0.240768 -1.66817
500 -2.8807 -2.49791 -6.86435 1.00585 -1.6888 -1.00294
547 -2.19014 -1.748 -6.96067 1.44103 -0.586547 -1.40643
501 -1.50853 -3.20321 -7.7019 -0.706205 -1.31021 1.50527
502 -0.983561 -2.11334 -7.82307 -1.87216 1.07196 1.02878
504 -1.49889 -2.37348 -7.04361 0.706731 -0.252683 -0.73119
551 -0.837723 -1.606 -6.95989 -1.18259 1.76409 1.13203
553 -0.075514 -1.4207 -7.74781 0.642284 0.693549 -2.0125
503 -0.721448 -3.05825 -7.06479 -1.57129 0.115704 0.298495
508 0.064036 -2.22565 -7.10243 0.401055 -0.0202086 -0.154116
841 -0.0965519 -1.58715 -6.2852 -2.09608 1.12083 0.241449
506 0.697045 -2.24485 -7.72414 2.93152 -1.64203 0.194685
557 1.54195 -1.41907 -7.79348 2.66521 -1.34951 -1.46281
507 0.88017 -2.98981 -6.94494 -2.61163 0.533953 -0.935616
512 1.43916 -2.15079 -7.00376 1.26011 -0.951224 0.237042
555 0.753315 -1.49009 -7.05275 1.29314 -1.96507 -2.19597
511 1.9743 -2.9959 -6.84057 2.25938 2.75161 -1.7118
516 3.07163 -2.33637 -6.91166 3.74122 -0.40979 -2.42095
849 2.97697 -1.55027 -6.25131 -0.0933828 0.386571 2.56253
514 3.78977 -2.30158 -7.63442 -0.436129 2.45467 0.729467
517 4.6013 -3.0274 -7.64245 -0.0267314 1.02732 1.63242
520 4.80135 -2.27345 -6.97579 -1.29793 -0.465427 -1.45214
521 6.27317 -3.09622 -7.6017 1.81903 -0.860155 -0.210491
524 6.01233 -2.44641 -6.96349 1.00385 2.12379 0.735992
806 5.43687 -2.27843 -5.97457 -0.408578 -0.943477 0.853911