ITEM: TIMESTEP
31000
ITEM: NUMBER OF ATOMS
6912
ITEM: BOX BOUNDS pp pp pp
-9.2265715179435492e+00 9.2265715179435492e+00
-9.2265715179435492e+00 9.2265715179435492e+00
-9.2265715179435492e+00 9.2265715179435492e+00
ITEM: ATOMS id x y z vx vy vz
51 -8.25023 -7.72446 -8.2921 0.863354 0.21979 -2.26087
290 -8.4539 -8.4922 -7.52098 1.08069 0.0154624 -0.0391974
585 -6.19767 -9.16131 -6.00373 -0.328796 1.27171 0.358734
3763 -2.19858 -0.026011 -6.96608 0.989665 -0.142719 -1.47986
8 -7.54992 -8.39108 -8.40291 -0.620086 0.79049 -0.824016
55 -6.91969 -7.48649 -8.54421 1.73678 2.07614 0.424133
1443 -8.51943 -9.047 -0.743214 1.12907 0.252929 1.09642
50 -8.54931 -7.06993 -9.18625 -0.058131 0.515302 0.039483
12 -6.13104 -8.33708 -8.62105 0.513238 -0.760835 0.17819
1925 -7.64857 -2.93201 -0.12038 -0.823425 -0.33113 0.565319
291 -8.39547 -9.1602 -6.59665 1.44062 -1.5479 -0.085903
4055 -0.721077 -0.0237949 -5.33225 -1.15743 1.50892 1.85089
16 -4.71273 -8.35105 -8.51379 1.0751 2.14283 -1.32949
302 -3.90297 -8.4637 -7.58552 1.85307 0.0547036 0.556128
63 -3.89984 -7.64195 -8.50948 -1.40187 0.819572 1.93838
194 -8.46536 -2.21376 -9.17922 -2.681 0.572787 -0.25903
20 -3.15237 -8.3257 -8.34218 0.678804 0.886163 1.73913
306 -2.30002 -8.27507 -7.865 -0.42592 0.147578 0.326716
24 -1.55564 -8.37426 -8.56187 -0.188832 3.03347 1.03573
357 -1.49302 -7.69479 -7.60202 -3.36236 1.55612 1.49506
7 -6.91243 -9.17189 -8.5941 -0.328238 1.63447 -0.748953
201 -6.05834 -2.84278 -9.21191 -0.800443 1.03732 -0.779944
28 -0.0951374 -8.38443 -8.53748 2.71543 -4.10309 -1.41385
233 6.01168 -2.92232 -9.14393 -0.107027 -1.33786 -0.839448
32 1.67062 -8.34278 -8.45854 0.844558 0.242194 -0.590257
75 0.698831 -7.75932 -8.30709 -1.34792 -2.01455 1.36743
36 3.20113 -8.61882 -8.66209 1.74112 -1.2517 1.1343
79 2.4922 -7.83871 -8.51689 3.86778 -1.09281 -2.12298
1774 8.39647 -8.31377 -0.0166785 0.0660384 -1.95792 1.00248
230 5.26102 -2.2662 -9.14808 0.263079 0.660209 -0.770756
1881 -6.22236 -4.50962 -0.0423774 2.51392 -0.0221491 -0.578836
40 4.74437 -8.40694 -8.39536 -1.64665 1.15334 0.901414
322 3.90865 -8.45156 -7.6953 -3.2536 -0.178239 -0.954242
83 3.73483 -7.76666 -8.52496 -2.34643 0.0721421 2.58907
611 3.79257 -9.05592 -5.32782 0.692322 -1.07535 2.00532
44 6.39761 -8.54132 -8.47214 -0.644275 -0.122325 -2.09981
326 5.36627 -8.73039 -7.73542 -0.666883 0.634997 1.26032
1853 1.65353 -6.2519 -0.160642 -1.27268 -2.13435 -0.474253
130 3.95403 -5.39056 -9.16292 0.894187 -0.413691 0.176228
48 7.6497 -8.58085 -8.44186 -2.3253 -1.50531 1.10236
330 7.03778 -8.42487 -7.64047 -0.169909 0.260206 1.4796
91 6.98576 -7.69107 -8.45304 -0.0166753 0.315222 1.62948
381 7.74804 -7.80961 -7.47895 0.163275 1.02258 1.42768
299 -5.37111 -9.17858 -7.02163 0.175173 -1.93669 -0.716917
4 9.11196 -8.56674 -8.33595 -4.74728 1.92007 1.36874
334 8.50779 -8.47349 -7.57519 1.31196 0.959877 0.466145
4611 -8.45326 -0.0524655 -2.25566 0.81256 -0.481108 -2.63269
341 -7.57524 -7.76896 -7.57083 -1.15143 0.959094 0.0690121
337 -9.0967 -7.72041 -7.66675 1.11921 0.196458 -1.37208
99 -8.55615 -6.31799 -8.48591 1.93407 -0.242367 1.16366
338 -8.49214 -6.95121 -7.62243 -0.308246 2.77725 0.665674
1197 7.72425 -9.10709 -3.02468 -0.952269 -0.691773 2.22096
4365 7.69224 -0.0407141 -4.61999 0.716793 -0.288805 -1.65757
56 -7.67336 -6.89605 -8.50339 -1.14635 1.26559 1.15915
103 -6.83557 -6.14244 -8.61692 0.0363173 0.845638 -0.917508
342 -6.91226 -6.83862 -7.73137 2.28687 -0.147114 0.165002
1729 9.18982 -9.15788 -0.128908 2.69954 0.707337 1.84965
1741 -4.66692 -9.17853 -0.078021 -0.222271 0.0785424 1.37609
59 -5.30626 -7.57316 -8.4892 -0.930496 -0.198257 -1.79557
60 -6.21646 -6.88075 -8.52237 -1.76779 -0.0924783 0.478225
346 -5.41763 -6.88045 -7.817 1.83328 0.411256 -3.3039
107 -5.38999 -6.08987 -8.48204 -0.956356 -1.44647 0.317613
349 -4.60804 -7.61623 -7.64334 1.91505 -2.67347 -1.35426
64 -4.53676 -6.91349 -8.41861 1.68716 0.759559 -2.13467
111 -3.83937 -6.21234 -8.61745 0.248894 -2.18139 -0.139661
329 6.17398 -9.15527 -7.75434 0.849865 0.349879 -0.655364
350 -3.77941 -6.84997 -7.69007 -1.16191 1.00819 0.442989
68 -3.00839 -6.95379 -8.53261 -0.475676 0.956688 0.857845
67 -2.32653 -7.56939 -8.58714 -0.21852 1.50851 -2.60078
115 -2.33358 -6.22465 -8.73846 -0.574254 -0.889515 -0.276587
401 -3.05135 -6.22583 -7.81464 -0.906099 -0.16184 2.5116
71 -0.720093 -7.54129 -8.44789 0.427098 2.00944 -0.542657
72 -1.6338 -6.87974 -8.51344 0.211197 0.111887 1.94135
405 -1.71319 -6.18726 -7.78858 0.475294 0.0713335 -0.180065
193 9.04895 -2.97979 -9.20655 -2.62003 -0.30467 -1.17027
358 -0.759454 -7.02395 -7.64816 0.604574 0.196033 0.628384
76 0.195748 -6.83804 -8.49716 0.1307 2.80288 2.1258
119 -0.902974 -6.14882 -8.26248 0.444402 -0.46873 0.780795
361 0.00358925 -7.73605 -7.59437 -0.0976935 1.16711 1.10672
1750 -0.630285 -8.47029 -0.0594886 -2.10586 0.302466 -0.115157
241 9.19844 -1.5116 -9.10328 -2.44478 0.372611 -0.58393
80 1.69685 -6.92243 -8.51593 0.454235 -1.19297 0.117244
123 1.01252 -6.21738 -8.50502 -0.720497 -0.104678 -1.63451
1897 -0.10039 -4.69514 -0.0490444 -0.464315 -1.61985 -0.936897
362 0.801253 -6.982 -7.69997 0.463405 -0.689511 -0.382612
1758 2.2544 -8.45864 -0.165909 -1.08052 1.88377 1.62609
84 3.08367 -6.98712 -8.60551 0.57157 -1.03183 -2.50448
307 -2.35396 -9.20224 -6.9795 0.87572 0.524628 -0.398507
4331 -5.26596 -0.0110384 -3.9314 -0.391353 0.836729 1.07861
88 4.66771 -6.87197 -8.41861 0.778753 1.40462 -0.568157
131 3.74528 -6.20559 -8.58454 -0.76608 -1.53711 0.094297
589 -4.69179 -9.17274 -6.07373 -0.96329 0.875869 -0.438136
370 3.8042 -7.01008 -7.82794 -1.21651 -3.92671 -1.19262
87 5.46291 -7.79011 -8.42853 -0.439601 -3.32696 -0.208055
377 6.20958 -7.83746 -7.62291 -0.714651 -2.18825 1.15829
92 6.27774 -6.99407 -8.456 -1.74317 -1.32026 -0.357487
374 5.32127 -6.96018 -7.65808 0.961722 -1.39814 -0.380292
229 4.62042 -3.07584 -9.16847 -2.02619 -1.62506 -1.92549
96 7.77568 -7.02325 -8.35556 -0.469163 1.00805 0.612383
378 7.03864 -6.95254 -7.62541 1.13518 -2.56431 0.704783
3761 -3.02314 -0.0600639 -7.8243 -3.01547 1.09891 -1.08409
95 8.56098 -7.77172 -8.38707 -0.7044 0.871441 -0.798628
52 9.19907 -6.95269 -8.36951 0.186834 0.129118 -1.4787
100 -9.03187 -5.30901 -8.49287 0.426142 -1.54835 0.541689
386 -8.30408 -5.28124 -7.77981 -0.587149 1.52523 1.10111
147 -8.31505 -4.57268 -8.518 -1.17637 0.886622 0.808679
104 -7.67741 -5.33416 -8.53005 0.734938 -0.249823 -1.91343
108 -6.19266 -5.38125 -8.40924 -2.29078 -2.67654 3.59016
155 -5.30099 -4.60343 -8.38043 0.293088 1.54781 -1.12931
441 -6.14421 -4.62356 -7.67434 -2.26589 2.66397 0.476171
112 -4.52605 -5.41595 -8.52629 -1.07183 -0.621545 -2.51483
116 -3.01343 -5.44043 -8.56198 -1.42705 0.667959 -0.100761
402 -2.29362 -5.36517 -7.88138 2.78167 -0.663928 0.889515
449 -2.97517 -4.67138 -7.72329 -0.742656 -1.3246 1.67494
163 -2.28496 -4.55117 -8.55054 -1.75074 1.09497 3.64299
120 -1.52298 -5.37174 -8.52154 2.85976 0.30601 -0.081927
453 -1.51291 -4.5813 -7.71443 -2.25541 0.238142 0.296419
167 -0.731669 -4.56386 -8.40302 1.61142 -3.05007 -1.47341
1865 6.1168 -6.01785 -0.0349798 -0.510894 -0.683272 -0.225118
409 0.0134134 -6.31252 -7.74107 0.158112 -0.620415 1.88149
124 0.139347 -5.49808 -8.50287 0.169068 1.33462 2.08367
3487 2.24263 -0.0191551 -8.39697 1.93343 0.555945 0.518864
128 1.56352 -5.41731 -8.53515 0.243645 -3.98578 -0.903216
414 2.23633 -5.5724 -7.73639 -0.963321 -2.32667 2.2195
4343 -0.650247 -0.0506726 -3.7624 -0.383909 -0.856598 0.111402
127 2.55196 -6.18494 -8.49443 0.903487 -1.52769 -0.358082
132 3.1273 -5.35159 -8.38024 0.563584 2.09656 -2.72667
465 3.03814 -4.63372 -7.65753 -0.390283 -1.27703 0.326709
1163 -5.3566 -9.21688 -2.30465 0.726369 0.00783304 -0.0152834
3791 8.63059 -0.144403 -6.80436 -1.57393 1.77175 1.15783
136 4.46279 -5.35387 -8.3858 0.495563 -1.17399 -0.690334
421 4.50403 -6.0946 -7.68787 0.194559 1.94615 0.546392
5197 -4.68462 -0.080165 -0.0143317 -0.784353 -3.86096 0.0991363
135 5.44856 -6.16845 -8.42477 0.737866 0.73128 0.446525
140 6.22843 -5.61642 -8.31122 -2.15064 -1.55353 2.35686
422 5.40614 -5.56177 -7.61696 -0.790232 1.15789 -0.554917
473 6.20266 -4.6048 -7.56828 3.71867 -0.0997116 0.847104
425 6.14409 -6.09162 -7.48418 2.35695 1.74307 1.90448
101 -7.83207 -6.04727 -9.1565 0.40273 3.48262 -0.274308
139 7.01365 -6.23107 -8.40288 -0.200182 1.19134 1.86967
144 7.73604 -5.28358 -8.41352 -0.29444 -0.440661 0.042952
1447 -7.08403 -9.12641 -0.925748 -0.453804 -0.60724 0.557098
429 7.73815 -6.21802 -7.72951 -1.82992 -1.54857 -1.12165
426 7.07759 -5.46925 -7.7153 1.48753 -1.09767 0.648735
1801 0.0542015 -7.72866 -0.0837776 0.729681 -1.21649 1.85542
143 8.59358 -6.09968 -8.36796 1.49862 -1.59559 -0.647349
85 4.63513 -7.67429 -9.19207 -0.605512 0.586749 0.943688
430 8.48083 -5.346 -7.68921 -0.585052 1.69913 -0.254145
434 -8.32743 -3.90014 -7.70885 -1.13483 0.501986 0.820195
148 9.14789 -3.74027 -8.48051 1.9752 0.847171 -0.859355
433 -9.05797 -4.52365 -7.83233 -1.10131 0.759353 0.984425
481 9.20547 -2.97112 -7.73408 0.15123 1.62427 2.6338
437 -7.61006 -4.69788 -7.62082 -0.44048 0.30882 1.74826
151 -6.98896 -4.63512 -8.35546 -1.10456 -0.857356 -2.36753
152 -7.59672 -3.75304 -8.53774 1.31453 -0.521031 0.504069
438 -7.02175 -3.87309 -7.73407 0.851209 2.10287 -0.290179
156 -6.00871 -3.89071 -8.49813 -1.17759 0.250635 -0.377553
442 -5.33225 -3.80009 -7.76788 1.1761 0.881734 2.31058
159 -3.71283 -4.54914 -8.39152 1.89231 0.989429 1.32756
160 -4.51433 -3.80753 -8.36692 -0.0508637 -0.119059 1.04477
207 -3.72635 -3.03154 -8.45199 1.48625 -0.875909 2.75825
623 8.42893 -9.17737 -5.27091 0.869058 0.40189 0.203148
164 -2.98251 -3.85548 -8.48231 1.91857 1.54597 1.80216
450 -2.26489 -4.02927 -7.64084 -0.872329 -1.26606 -0.547287
497 -3.00292 -3.12572 -7.61847 0.400847 1.33137 1.14101
168 -1.54376 -3.81463 -8.38658 0.590267 -1.41593 -1.81049
454 -0.705192 -3.76381 -7.76107 0.54682 -0.686908 0.322164
457 0.061767 -4.62463 -7.78776 0.265386 1.28558 -1.32551
172 0.148554 -3.59712 -8.3654 0.712465 -1.83908 -0.963404
171 0.775292 -4.63698 -8.51387 2.20259 -1.28491 -0.919081
176 1.50947 -3.88434 -8.56635 -0.25803 -1.89677 0.834157
458 0.83807 -3.92823 -7.82016 1.18702 -2.0452 1.11741
509 1.63304 -3.00564 -7.69015 -2.08407 -0.16121 -0.706443
175 2.26043 -4.49754 -8.55352 -0.441217 0.984397 -2.11456
180 3.08053 -3.94422 -8.51845 2.37402 0.723894 1.41311
462 2.36311 -3.88381 -7.64513 1.73541 0.143779 1.69895
179 3.90204 -4.57207 -8.64584 0.943583 0.187888 0.688475
184 4.51565 -3.75943 -8.24203 -0.0773649 0.833117 -0.457957
469 4.62723 -4.65376 -7.64558 3.13781 -0.540249 0.406256
466 3.82915 -3.74658 -7.61745 -1.51228 -0.526379 -0.0381397
183 5.41865 -4.51994 -8.48928 -0.276729 0.364979 -1.30848
188 6.31201 -3.78054 -8.37864 -3.42519 -2.1613 0.824462
470 5.51609 -3.78135 -7.70621 -0.849685 -2.59976 0.660364
125 1.67877 -6.08388 -9.23384 -2.08583 1.24504 -3.75967
187 6.91446 -4.62455 -8.34356 0.0818238 1.24094 -1.98335
192 7.54887 -3.70731 -8.38945 -1.84801 -1.08812 -2.82089
477 7.63985 -4.63063 -7.6873 -2.97978 -1.37568 -1.68474
191 8.44502 -4.57783 -8.419 -0.0287938 1.28567 2.23209
239 8.29244 -3.04284 -8.46301 0.133778 -0.234117 -1.70878
195 -8.53079 -3.02885 -8.38569 -2.09196 -1.92044 -2.53886
196 9.16952 -2.24816 -8.58136 0.219403 1.9793 -2.5159
243 -8.36301 -1.42166 -8.45071 -0.885612 -0.0655966 1.24235
199 -6.94582 -2.90784 -8.44548 0.0886568 0.424965 -0.166867
200 -7.66429 -2.16818 -8.50971 0.285851 -0.913662 1.39155
486 -6.83095 -2.22733 -7.5644 0.0418076 -0.74002 0.0467642
485 -7.7758 -2.86038 -7.68693 0.230786 -1.64297 -1.26053
1179 0.85239 -9.23002 -2.41594 1.01389 -1.23819 2.21635
203 -5.21113 -2.94911 -8.45537 2.91095 0.816724 0.799176
204 -6.09966 -2.16721 -8.41335 -2.92353 -0.578578 -1.71294
251 -5.31893 -1.42701 -8.54219 3.84611 0.92797 -2.05252
209 -3.07715 -3.13561 -9.22292 0.21498 2.94603 -0.339875
141 7.84353 -6.18706 -8.92713 1.18909 0.192778 1.21584
277 4.47662 -1.6851 -9.17441 1.85891 1.88363 1.58715
208 -4.53938 -2.16128 -8.55708 1.95128 0.519053 -0.321825
255 -3.73192 -1.49197 -8.59198 1.94804 2.06543 2.734
3475 -2.29666 -0.0736684 -8.49178 -0.312709 -1.40557 -1.53574
211 -2.25381 -3.1953 -8.43519 0.707772 -2.08189 0.718151
212 -3.05664 -2.2578 -8.58235 -0.297734 1.29531 2.85681
259 -2.28563 -1.55548 -8.50954 2.12449 2.68656 0.206207
215 -0.754192 -2.9527 -8.3026 0.239119 1.57882 -0.474044
216 -1.51323 -2.25672 -8.41012 1.19482 1.0076 -0.885409
502 -0.760242 -2.18773 -7.65547 -0.308867 -0.435073 -1.32231
263 -0.658155 -1.50419 -8.51077 0.532172 -0.32594 -0.501133
501 -1.59719 -3.17133 -7.65081 0.896813 0.279438 1.29318
505 0.0144993 -3.03938 -7.576 -0.481157 0.718862 1.3251
220 -0.043799 -2.25215 -8.4275 -2.91903 2.05084 1.20724
553 0.0732877 -1.51242 -7.70293 0.555324 0.783362 0.318346
219 0.719623 -2.92517 -8.47097 2.38346 1.56577 -1.56117
224 1.48628 -2.30437 -8.47152 -3.99154 0.415791 0.858314
267 0.776821 -1.66663 -8.57145 0.7739 0.272727 0.0525224
557 1.53587 -1.47845 -7.61743 2.13267 0.698594 -1.43903
4351 2.18642 -0.00859317 -3.95604 0.530259 -0.407804 0.857975
223 2.32635 -3.12215 -8.37708 -0.0109809 0.571702 -0.331737
228 3.17296 -2.39624 -8.45683 0.0406259 2.85708 0.70186
513 3.09506 -3.14133 -7.65532 -0.567067 0.0771437 1.47761
510 2.45426 -2.26741 -7.61363 3.59185 -0.129008 1.304
517 4.55599 -2.90861 -7.6115 3.00421 -2.26565 -0.448721
227 3.75993 -3.25367 -8.55856 -1.06618 0.825337 0.0280115
232 4.37717 -2.45016 -8.38688 0.43505 1.50228 -2.55277
231 5.30321 -3.08529 -8.35247 -1.14619 0.275982 -2.31963
236 6.12986 -2.23883 -8.38891 -1.57463 -0.47297 2.12021
518 5.36587 -2.22057 -7.73351 0.514453 0.286754 -1.92249
521 6.26785 -3.05079 -7.77218 -1.19888 -2.09364 1.06771
901 4.5575 -9.1765 -4.6829 -1.66664 -1.9192 0.912739
235 6.87759 -2.92754 -8.51547 0.0571819 2.26181 -0.799785
240 7.72776 -2.24503 -8.50639 -0.540408 1.38922 -1.16142
4359 5.46815 -0.0287149 -3.67568 1.28929 0.460558 1.42252
287 8.47755 -1.52912 -8.40393 -0.0380116 -1.95886 -0.465183
1191 5.23275 -9.15443 -2.27566 -0.116035 -0.944657 -0.58455
244 9.17049 -0.668617 -8.50629 -1.05844 -0.450555 -1.64816
530 -8.47277 -0.79051 -7.59127 0.727064 -1.13787 3.07877
891 0.701785 -9.12558 -3.85494 2.78944 -2.42177 -0.695688
1877 -7.56645 -4.5746 -0.0641482 0.778953 0.538341 -1.5827
537 -6.02896 -1.50352 -7.53705 -0.311333 1.10902 1.78853
247 -6.87458 -1.51726 -8.3998 -2.76134 1.70314 -0.108969
248 -7.69684 -0.760998 -8.522 0.902519 -0.255077 0.736587
533 -7.82803 -1.64219 -7.65372 -0.258041 2.29085 0.723764
210 -2.23301 -2.37369 -9.08543 -0.318918 -4.19549 -1.87153
909 7.52951 -9.20655 -4.64122 -0.831841 0.222988 -1.10951
3 -8.28621 -9.12126 -8.3411 0.771109 -0.276671 0.0264479
252 -6.23834 -0.713348 -8.63225 2.2827 -4.8989 -1.47381
58 -5.32019 -6.89744 -9.15521 0.151058 -1.19113 0.633843
256 -4.6031 -0.714558 -8.53688 -0.230735 -1.60454 -1.40229
94 8.52365 -6.97635 -9.16043 2.16391 1.42772 -1.24375
867 -8.36836 -9.16276 -3.87368 -1.78722 -2.73287 -1.63453
260 -3.03454 -0.81107 -8.45916 3.26571 -0.209258 0.292649
546 -2.35006 -0.815813 -7.67938 -1.5133 -1.02297 2.83968
1834 -5.33773 -5.2981 -0.132886 -0.938365 0.65595 -0.732718
158 -3.82974 -3.78441 -9.20203 -0.373342 -2.00511 -1.79687
907 6.86633 -9.21189 -3.73241 1.75616 -1.1491 1.028
264 -1.59485 -0.809781 -8.48862 -0.123021 0.345526 -2.15669
1833 -6.17602 -6.16314 -0.143311 1.57622 0.0855939 -1.66611
3501 7.4975 -0.0302225 -9.10838 -0.486931 0.0883414 -1.75982
1726 8.43096 -0.716473 -1.50744 0.500642 1.0377 0.0243167
268 -0.0154263 -0.801001 -8.37611 -2.51194 -0.305756 -0.181892
887 -0.532932 -9.22475 -3.90801 -0.793845 -0.647381 -2.15609
272 1.51926 -0.717625 -8.45409 1.42743 1.49548 -0.961043
554 0.749388 -0.838962 -7.8365 3.10439 0.23052 -0.70207
1157 -7.78234 -9.14664 -3.06925 -2.63134 0.431852 -1.97259
134 5.49126 -5.39499 -9.09796 0.331763 1.05218 5.37985
271 2.43849 -1.61936 -8.37334 1.01417 -0.2815 -1.19408
276 3.14422 -0.68189 -8.52389 0.0754319 2.11615 -1.85499
3747 -8.38469 -0.0556998 -6.80544 2.54681 -0.232765 -1.58555
266 0.769977 -0.757338 -9.14299 -1.11209 -2.2413 -0.154241
275 3.71536 -1.58011 -8.42185 0.0752038 -0.440349 1.38271
1684 -9.14477 -0.687813 -0.783063 1.75191 -0.0781766 2.20347
280 4.40846 -0.858676 -8.47925 -0.465722 1.59334 0.731997
565 4.4064 -1.59619 -7.61596 -1.33083 0.226567 0.488076
562 3.83623 -0.847425 -7.69473 3.26648 -0.272327 0.956507
3471 -3.71735 -0.0924674 -8.57389 2.9335 0.526372 2.17917
279 5.06501 -1.51128 -8.41605 -0.125719 -2.21845 -0.379339
284 6.20861 -0.708845 -8.40209 1.57407 1.5974 1.28136
566 5.20592 -0.917476 -7.6949 -0.49763 -2.43494 -2.5581
569 6.08691 -1.53357 -7.64084 0.624267 1.81783 -0.390888
313 0.132374 -9.17121 -7.82208 -0.592167 -0.655643 -0.034428
283 6.86035 -1.4082 -8.51272 1.42006 0.46432 0.381356
288 7.66043 -0.851083 -8.50336 -3.06607 0.247001 1.5584
570 6.90425 -0.832895 -7.65591 -0.516344 -0.854772 2.16624
574 8.55865 -0.765717 -7.72674 0.0323391 0.355614 0.816207
292 9.21197 -8.5237 -6.79694 0.539682 -1.19042 -0.891432
296 -7.76487 -8.40431 -6.85593 0.0212437 -3.0225 2.52463
11 -5.38503 -9.20962 -8.4323 0.684222 0.978951 -0.588158
294 -6.67287 -8.43632 -7.71926 -0.959424 -1.04974 -0.248282
343 -6.91699 -7.81563 -6.89673 1.90189 0.975381 -0.756695
582 -6.99216 -8.44376 -6.12933 -1.44297 -1.06775 -0.968851
1770 7.02609 -8.42153 -0.160596 -0.134049 -2.50201 2.05255
89 6.21858 -7.82147 -9.17007 -1.17029 -1.70793 0.101007
90 7.20111 -6.95364 -9.12904 1.92505 0.426124 2.48127
61 -4.59674 -7.70384 -9.18329 -0.223187 1.89594 -0.835326
298 -5.5139 -8.43152 -7.84937 1.87299 -0.467564 -0.889629
300 -6.1077 -8.54652 -6.86298 1.46557 -1.00862 1.11061
304 -4.46774 -8.40401 -6.83246 3.36043 2.58418 1.69476
590 -3.85882 -8.56622 -6.01052 2.47435 -2.46662 -0.467584
637 -4.69908 -7.69584 -6.08637 -1.57901 1.23525 0.639775
351 -3.62931 -7.5074 -6.80186 0.973508 0.404289 -0.317864
308 -3.07208 -8.51353 -6.88747 -0.708613 -2.57889 -3.28272
355 -2.37019 -7.51955 -7.00212 -1.97299 2.33447 -0.158223
310 -0.794375 -8.39349 -7.72003 2.76053 -0.739783 -0.484649
312 -1.86379 -8.31963 -7.01274 2.91134 1.43574 1.79289
598 -1.05432 -8.42626 -6.2886 -0.00596793 1.2963 0.476581
1766 5.31331 -8.45724 -0.0576943 -1.44371 0.244766 -2.16399
316 -0.141676 -8.34624 -6.67388 -1.7908 1.05448 1.71643
314 0.796188 -8.55032 -7.53391 0.916653 -0.721616 0.417588
649 0.0652169 -7.53316 -6.04582 0.168797 0.668201 -0.605302
363 0.943754 -7.63298 -6.82775 -1.71612 -0.140572 -2.79267
3771 0.862388 -0.0366295 -6.99787 -1.54686 -1.34658 4.3283
320 1.47141 -8.5013 -6.78089 -0.976857 0.061335 -2.20738
365 1.58005 -7.5175 -7.50503 -1.98887 -0.706738 -3.33885
318 2.35901 -8.57012 -7.5938 0.831499 0.512648 0.403014
324 3.08103 -8.40058 -7.0458 -1.2363 0.0494434 -0.295919
328 4.63308 -8.52126 -6.91593 -0.378831 -1.26552 -3.05135
661 4.56731 -7.67184 -6.26072 -1.2148 -0.397482 -0.435873
1187 3.77072 -9.18104 -2.3905 -2.43777 -2.08692 0.974977
332 6.21293 -8.53152 -7.01079 1.57614 -2.30345 -0.276884
614 5.36392 -8.46628 -6.26801 -1.04352 -3.09875 -1.05704
1195 6.81169 -9.18281 -2.38985 0.301983 -1.32441 -0.0294818
4039 -6.86923 -0.0294126 -5.40025 2.94767 -1.3872 -3.08492
3497 5.99272 -0.0924353 -9.18977 -1.07941 -0.69581 -0.318572
336 7.61063 -8.67968 -6.72319 2.04175 -0.626688 4.09145
669 7.73346 -7.75045 -6.10214 1.26397 -0.0455142 -0.266007
618 6.87796 -8.5022 -6.17755 0.775165 -0.795579 1.16448
622 8.50431 -8.49203 -6.14838 -0.268706 0.461089 -0.114898
339 -8.49121 -7.72472 -6.79558 -0.271524 0.226504 2.13426
344 -7.56345 -6.97775 -7.01914 -1.03436 0.349015 -2.30408
626 -8.48499 -7.07342 -6.01328 0.609168 0.443015 -0.638333
389 -7.77226 -6.12188 -7.86407 -1.11387 0.679859 2.22389
630 -6.83948 -7.01833 -6.32089 -0.974031 0.281692 -2.09228
345 -6.34269 -7.58304 -7.67225 -1.70986 -2.22591 -0.55761
347 -5.30151 -7.75152 -6.96766 1.51788 -2.65747 -1.02529
348 -5.9771 -6.86814 -7.03312 -2.27779 -0.0257175 -1.21615
395 -5.16323 -6.18869 -6.97956 0.2012 -0.977748 1.95417
681 -5.92424 -5.99914 -6.13031 -2.73232 -0.0073753 0.824561
352 -4.64608 -6.98656 -6.78861 1.70551 -0.124453 -0.596315
397 -4.63867 -6.25955 -7.74285 1.92743 -0.800027 1.18462
399 -3.92658 -6.12542 -6.97762 0.666655 -2.56267 1.73546
354 -2.34868 -6.95193 -7.79539 0.352735 -0.0338179 2.23437
353 -3.27355 -7.66907 -7.61988 1.63424 -0.112235 1.53312
356 -3.0274 -6.70008 -6.87931 1.14126 -0.397309 2.1101
403 -2.2389 -6.12644 -6.80227 -0.944495 -1.86298 -0.199652
641 -2.93153 -7.59713 -6.02228 -1.07391 0.944418 0.584791
359 -0.82165 -7.51169 -6.70916 1.30706 0.792132 -1.79971
360 -1.56581 -6.82983 -6.85588 -0.440311 0.645599 3.8768
407 -0.492288 -6.06714 -6.85703 -2.10641 3.93993 -1.55692
646 -0.569673 -6.88476 -5.81 0.511229 -0.942789 2.28152
364 -0.000796368 -6.97731 -6.88911 -1.36738 1.07375 -0.227383
697 0.136092 -6.05454 -6.02613 0.327198 -1.28592 -1.56146
368 1.6614 -6.98338 -6.60026 -0.438661 -0.314509 -0.222379
369 3.00567 -7.75626 -7.75989 0.463756 0.82096 3.67821
366 2.37883 -7.01399 -7.65358 -0.159691 -3.31998 -1.01163
367 2.33553 -7.69361 -6.95351 -0.898297 -0.391213 1.86275
372 3.17974 -7.15862 -6.98019 -0.803997 2.05233 0.53554
373 4.54454 -7.64092 -7.72691 0.081185 0.346862 1.16753
371 3.81559 -7.8501 -6.99258 -0.52834 -3.79827 0.799617
376 4.4801 -6.88318 -6.98302 1.12612 1.31229 -2.46973
375 5.26488 -7.73074 -6.90414 2.54889 0.379197 2.69836
380 6.13505 -6.92339 -6.89364 -1.22075 -2.0351 0.189177
665 6.07939 -7.62517 -6.1617 1.20135 1.68056 -1.0764
662 5.19143 -6.93024 -6.13729 -0.231491 1.36709 1.41973
379 6.8869 -7.67801 -6.70883 -1.47703 1.8642 0.174229
384 7.62215 -6.96232 -6.71799 0.230325 -1.14296 0.72519
666 6.8326 -6.73779 -5.97669 0.16764 -0.82845 -0.330829
382 8.44441 -7.07517 -7.67722 -0.94291 -2.35067 3.35008
383 8.6334 -7.7328 -6.82612 -0.944 0.770749 0.334329
340 9.22493 -6.97256 -6.79641 -0.19141 0.831497 -0.524673
385 9.12538 -6.26757 -7.61931 -0.719847 -0.0373093 1.89711
387 -8.47903 -6.117 -7.18802 0.0570316 -2.10347 1.86858
391 -6.81948 -6.05038 -6.74929 1.18795 -0.442967 -2.16465
390 -6.87689 -5.38166 -7.72107 0.584021 1.12329 -0.192756
392 -7.60815 -5.21665 -6.72821 0.0474291 -1.42778 -1.64447
678 -7.19204 -5.5217 -5.98173 0.77391 -0.642768 -0.931889
393 -6.10475 -6.06519 -7.62727 -0.662389 -1.66884 1.16816
394 -5.17848 -5.47193 -7.64427 0.631983 0.178986 -1.39825
396 -6.09799 -5.2932 -6.91854 0.697742 -3.09329 -0.95342
682 -5.2229 -5.3769 -6.27888 1.74241 0.564599 -0.100665
443 -5.40382 -4.47233 -6.84603 1.47286 0.0673736 -1.42588
729 -6.20099 -4.73133 -6.13008 1.24761 -1.41024 -0.311484
398 -3.81445 -5.40977 -7.80321 -0.314227 1.09652 0.486712
400 -4.58256 -5.12659 -6.99092 0.0801931 0.607462 -2.60414
447 -3.67067 -4.63097 -7.03795 0.0793612 -0.278621 1.79502
404 -3.04563 -5.51859 -7.05642 2.33998 0.106378 -0.178043
451 -2.09619 -4.81942 -6.92927 -3.28992 -0.581463 -1.64344
690 -2.22118 -5.2822 -6.11867 0.83909 1.5699 -0.288434
406 -0.568031 -5.34105 -7.73327 1.48328 1.06018 0.49299
408 -1.29784 -5.69779 -7.03447 -0.378785 -0.297519 3.50704
694 -0.657706 -5.36537 -6.13845 0.0440376 1.63424 0.79248
412 0.0656887 -5.26314 -6.96044 -0.81578 -0.747412 2.45784
410 0.83522 -5.70288 -7.7458 -3.30541 1.7792 2.81721
415 2.33471 -6.23262 -6.98601 -0.292666 0.323273 -1.0486
411 0.73403 -6.22159 -6.88055 1.18618 -0.371994 0.449431
413 1.61493 -6.3845 -7.74847 0.186422 0.534981 2.26422
416 1.52992 -5.54575 -6.9186 0.236547 0.82109 -0.987188
698 0.910558 -5.49018 -6.03619 0.0109811 1.8696 -2.10959
417 3.0493 -6.31081 -7.6298 2.47419 0.273878 0.132487
420 3.00119 -5.45658 -6.9896 -0.964829 -0.282769 -0.503521
705 3.20567 -6.23407 -6.04752 0.753754 0.69474 2.81615
702 2.51643 -5.41242 -6.19369 -1.38187 -1.01776 1.12561
419 3.84244 -6.21103 -6.83751 -0.0046542 -1.91343 -1.06726
418 3.7535 -5.51128 -7.70883 0.57675 0.669248 -1.29354
424 4.4628 -5.43126 -6.94838 -0.0322125 1.02625 -1.00401
706 3.85032 -5.40529 -6.18944 2.77898 0.9373 -0.093822
423 5.27639 -6.28622 -6.84753 1.92769 1.47356 -1.36403
428 6.29735 -5.33259 -6.96686 1.4706 0.807365 -2.31628
471 5.42 -4.68292 -6.97863 -0.262767 -0.678273 -2.22747
761 6.17959 -4.56889 -6.26973 0.82932 -0.644323 -0.453906
427 7.00856 -6.33586 -6.8682 -0.0879803 -0.506824 -0.551411
432 7.80819 -5.39358 -6.88114 0.539763 -0.957821 1.31133
717 7.70851 -6.13089 -6.09449 2.78812 1.0073 0.23198
431 8.38283 -6.23179 -6.8953 -1.1074 0.593727 -1.74316
388 -9.19593 -5.49733 -6.89991 -2.20363 0.474089 -0.0918673
673 9.08673 -6.06634 -6.17263 -1.23994 0.827803 -0.614334
718 8.47761 -5.30154 -6.13969 -2.76322 0.622359 -0.138791
479 8.50923 -4.58775 -6.88361 -1.22441 -2.19776 -1.00263
435 -8.43406 -4.6573 -6.87555 -0.480697 -0.105187 2.02525
483 -8.48111 -2.93174 -7.02289 -0.826167 -1.29335 1.34971
722 -8.49091 -3.67068 -6.12753 -0.474803 -0.196388 0.0406502
439 -6.85855 -4.67565 -7.03232 -5.29801 0.821026 0.838422
725 -7.92553 -4.53065 -5.98666 -1.45165 -0.70746 -1.04909
440 -7.64278 -3.64861 -6.92518 1.90608 -2.32558 -0.884388
726 -6.97888 -3.83625 -6.137 -2.51842 1.47911 1.82394
487 -6.88351 -3.0977 -6.97244 1.88072 -0.268818 0.141686
489 -6.14008 -3.1318 -7.71345 -2.03596 -0.926877 -1.59046
444 -6.16892 -3.88768 -6.83309 0.292334 -1.91652 0.181273
491 -5.47693 -3.16218 -6.97626 -1.66097 1.33392 -0.873888
445 -4.43387 -4.67843 -7.79965 -1.15183 1.25825 2.11568
493 -4.42926 -2.99919 -7.75274 0.547666 -1.12693 -0.378164
446 -3.76365 -3.81764 -7.64333 -0.0515538 -3.1739 -0.260222
448 -4.62849 -3.80706 -6.96275 1.86646 0.242206 0.188377
734 -3.7345 -3.8416 -6.24986 -0.648861 1.83019 0.138674
495 -3.93952 -3.0647 -6.80576 -1.16742 -1.41186 1.21758
737 -3.12973 -4.72509 -6.22426 3.4825 -2.57941 -1.59896
452 -2.91061 -3.90444 -6.92997 -0.43744 -2.79493 -0.392166
455 -0.635135 -4.48216 -6.98949 -2.66542 1.19801 -0.228755
741 -1.38024 -4.67069 -6.15464 -0.927339 0.0995198 -0.212788
456 -1.41643 -3.85894 -6.92829 1.06819 2.62951 -0.124416
742 -0.782528 -3.86961 -6.0894 -0.775939 -1.18625 1.53713
503 -0.796738 -3.02091 -6.94378 3.09464 0.219131 -0.274351
745 0.0199475 -4.62548 -6.21395 -0.916441 -0.006474 0.39756
460 0.0779727 -3.9247 -7.04876 -0.184329 -1.08443 1.64318
793 -0.0957321 -3.08605 -6.15717 -1.67994 -0.707397 -0.67725
459 0.898066 -4.69119 -7.0243 0.978755 1.00387 0.831971
461 1.66708 -4.68928 -7.84537 1.05337 -1.03936 0.0492746
746 0.680741 -3.83179 -6.2266 0.192559 0.558777 0.637366
464 1.55493 -3.96013 -6.87126 1.31741 -1.13771 -1.04978
507 0.877532 -2.97967 -6.84981 -1.63788 -0.142898 2.29382
463 2.23365 -4.64266 -6.95135 -1.22147 0.731277 -1.66465
468 3.06592 -3.982 -6.90527 0.634047 -1.12438 -0.534903
750 2.29676 -3.81107 -6.08099 -1.34423 -0.348985 -0.976933
757 4.60059 -4.62424 -6.34181 0.00671485 0.348134 0.0482485
467 3.80918 -4.72707 -7.05549 0.627351 0.0420284 0.224488
472 4.66891 -3.78179 -6.98337 3.34882 1.16526 0.00808093
754 3.87713 -3.94894 -6.21263 1.05599 -0.862843 0.974719
476 6.2147 -3.80715 -6.84187 0.0712236 -2.1441 1.94434
758 5.28587 -3.82666 -6.108 -0.57327 -2.37762 1.77444
809 6.25226 -3.09607 -6.19594 0.814843 0.1928 2.49129
475 6.99424 -4.51449 -6.78782 -0.901555 -0.387885 1.29068
474 7.02824 -3.7464 -7.51307 -0.0594131 0.448577 1.99306
480 7.74824 -3.79282 -6.75359 2.97137 -0.428736 -1.45156
765 7.80327 -4.61878 -6.11115 1.61548 -0.282165 0.481874
478 8.40232 -3.92165 -7.64349 1.96322 3.98202 0.836539
436 -9.07549 -3.8033 -7.0273 1.62692 1.08254 1.0521
766 8.53825 -3.94424 -5.95864 3.65267 1.14129 -2.92994
769 -9.18678 -2.98146 -6.08641 -0.098109 -0.94722 -0.0412217
482 -8.5841 -2.25971 -7.77452 -0.316972 2.13699 -0.896536
531 -8.4726 -1.62237 -6.9509 2.40997 -1.89645 0.765803
488 -7.67537 -2.26884 -6.82165 -0.720099 0.549004 1.83252
535 -6.8275 -1.49325 -6.92207 -0.885448 0.648697 -0.493585
492 -6.01461 -2.38498 -6.88169 -0.632663 -1.41555 -0.386612
490 -5.27714 -2.32063 -7.66047 0.124888 0.716143 1.37707
539 -5.12835 -1.45881 -6.88288 -1.76373 0.115632 0.454071
494 -3.76118 -2.31741 -7.86004 1.72652 -0.113999 -1.15341
541 -4.56403 -1.49169 -7.71344 0.664932 0.196787 -0.672575
496 -4.64278 -2.38987 -6.82656 -2.49127 -0.766882 -0.192462
543 -3.91021 -1.55694 -6.93542 0.19163 -0.108739 0.949215
499 -2.33348 -2.95498 -6.86827 0.398906 0.421119 -2.14842
498 -2.29027 -2.40739 -7.93014 -2.7935 -2.32986 -1.20188
500 -3.03624 -2.26777 -6.92852 1.2075 1.00141 2.46032
547 -2.36009 -1.50223 -6.92281 -2.44084 -1.21441 -0.812685
504 -1.6149 -2.2943 -7.15617 -0.70916 -0.474277 1.09815
551 -1.03707 -1.57275 -6.92322 2.92661 -0.464062 0.495632
506 0.813098 -2.1587 -7.71433 -2.14204 0.354548 1.4091
508 0.0408776 -2.214 -6.85812 0.0309457 0.142734 -0.613594
841 -0.107481 -1.46082 -6.22366 -2.13767 1.12011 -2.10805
512 1.49835 -2.2525 -6.84118 0.76823 -0.00586001 1.04375
555 0.765622 -1.55313 -6.93695 0.814914 1.33942 -1.13955
794 0.708802 -2.13131 -6.10996 0.887176 -1.7021 -2.34481
561 3.083 -1.4089 -7.5925 -3.37352 0.497692 -0.0664147
511 2.35285 -3.11767 -6.93746 -0.553864 -0.614274 -0.834645
798 2.28019 -2.33875 -6.20763 -0.496027 -1.70044 -2.09704
516 3.05127 -2.19921 -6.85894 -0.913297 0.761024 0.409135
559 2.31356 -1.53406 -6.8537 0.095712 1.53489 0.395692
801 3.11265 -3.19598 -6.18032 0.0374931 -1.61529 -1.09353
515 3.83472 -2.95678 -6.77035 0.89487 3.094 0.877709
514 3.67698 -2.36798 -7.60533 0.572311 0.303724 -0.873556
520 4.7132 -2.24367 -6.92635 1.42635 -3.20538 -2.31214
563 3.8268 -1.60033 -6.77603 -0.00423263 -1.14985 -0.531826
853 4.65298 -1.50634 -6.17556 -1.08167 -2.35387 0.188583
802 3.80443 -2.168 -5.9447 0.449068 -1.59065 -1.60938
519 5.5771 -3.04797 -7.02652 0.208454 0.535087 -1.73693
524 6.05962 -2.23064 -6.86038 2.16023 1.06599 -0.997289
806 5.33687 -2.19598 -6.09712 1.82929 0.150498 2.29649
523 6.80816 -3.04296 -6.96263 -1.88871 2.80304 -0.857617
525 7.822 -3.14152 -7.61317 -2.15247 -0.270755 0.673938
522 6.91751 -2.2253 -7.82988 -0.936977 -0.723002 0.774146
528 7.66779 -2.38031 -6.91564 -0.454793 -3.40482 2.16867
527 8.47297 -3.13885 -6.81468 2.20956 2.16111 0.979819
526 8.4779 -2.31935 -7.68677 1.02298 0.776034 1.27824
484 9.15848 -2.28514 -7.04163 -0.270322 0.396921 0.125409
575 8.39135 -1.53748 -6.87545 0.0800416 -0.544006 -0.305747