ITEM: TIMESTEP
133000
ITEM: NUMBER OF ATOMS
6912
ITEM: BOX BOUNDS pp pp pp
-9.2265715179435492e+00 9.2265715179435492e+00
-9.2265715179435492e+00 9.2265715179435492e+00
-9.2265715179435492e+00 9.2265715179435492e+00
ITEM: ATOMS id x y z vx vy vz
51 -8.53461 -7.68398 -8.44923 0.0974967 1.0817 0.171228
177 2.90828 -4.39648 -9.16714 0.309392 0.642455 -0.568404
266 0.596277 -0.852125 -9.03673 1.87768 -2.0352 -0.0969852
877 -4.92275 -9.23273 -4.55186 -0.422759 -2.57456 -0.130355
1153 9.17456 -9.0745 -3.13438 -1.97804 0.542857 -2.27151
8 -7.67289 -8.40669 -8.42467 0.875115 -1.078 -0.270456
55 -6.77884 -7.59015 -8.35497 -1.28063 1.42047 1.78419
233 6.10498 -3.13114 -9.14885 -0.446943 0.663875 -2.01804
65 -3.12468 -7.66886 -9.19817 1.38709 0.259019 -1.2777
12 -5.99797 -8.36469 -8.44071 -1.63422 0.53019 -0.119817
59 -5.14215 -7.81087 -8.51194 -0.563692 0.799628 -2.29965
4643 3.88506 -0.0242492 -2.43843 -0.236621 -0.679073 1.5271
16 -4.67407 -8.69036 -8.31034 -1.81944 -0.743016 0.161401
1197 7.56447 -9.05483 -2.98411 -5.02719 -1.17203 -4.01717
349 -4.58884 -7.51856 -7.68626 0.265282 -2.11524 1.38439
50 -8.60342 -6.75334 -9.13859 -2.48805 2.06932 0.942832
20 -3.19536 -8.40928 -8.56841 -3.44136 -1.56848 -2.94456
67 -2.32406 -7.68075 -8.56172 -0.492092 -0.756951 -1.91814
4323 -8.56241 -0.00744182 -4.23604 1.53296 -0.826669 -1.68117
6 -6.91738 -8.39634 -9.04792 -0.00820915 -3.67571 -1.67418
1443 -8.34725 -9.20978 -0.871472 0.716034 0.0814273 0.706759
24 -1.60569 -8.51247 -8.51093 1.55556 -1.03911 0.376331
4333 -4.68765 -0.0564029 -4.57375 1.99558 2.12846 -0.885134
1901 1.62597 -4.65474 -0.18383 0.142472 -0.0229043 -2.88839
310 -0.809642 -8.45663 -7.78735 -2.68071 -1.65778 -2.14513
28 -0.0301088 -8.41946 -8.61101 1.42507 2.77128 -3.1504
314 0.838668 -8.55484 -7.77437 -3.33904 -0.235706 -0.400446
75 0.811713 -7.79525 -8.66259 -3.63254 -1.01461 -1.86607
3497 6.27261 0.00616106 -9.17132 0.98533 2.8097 -1.56647
4355 3.67857 -0.0642023 -3.79704 0.961621 -0.951314 2.95651
258 -2.28804 -0.901746 -9.22873 -0.468359 1.0105 -2.10896
32 1.67331 -8.46357 -8.54682 0.742625 0.913276 2.77726
1459 -2.45714 -9.08577 -0.710074 -0.810904 0.660224 -0.600253
318 2.71792 -8.67388 -8.09972 3.16503 3.0122 3.35611
36 3.24521 -8.11713 -8.61918 1.399 -2.04855 3.2666
4059 0.901662 -0.0968506 -5.36038 5.24849 0.00564319 2.50978
4635 0.825962 -0.165077 -2.42199 -0.694074 0.820765 -2.18657
40 4.57595 -8.55899 -8.65355 0.371264 1.76446 2.32461
83 3.93463 -7.51396 -8.29383 -0.387011 -1.24001 0.703824
213 -1.52406 -3.20007 -9.16962 -2.31726 1.08197 1.24219
325 4.62027 -9.1895 -7.79023 3.62924 -0.0179435 -3.28733
170 0.700717 -4.02258 -9.17835 -0.920284 1.00425 -0.479847
44 6.21761 -8.60029 -8.56105 0.315016 -3.13468 -2.99733
87 5.26688 -7.83768 -8.5145 0.739018 0.494864 3.09359
1195 6.9552 -8.92704 -2.27444 -2.0947 -0.789209 0.44532
1813 4.42412 -7.71955 0.0142005 2.32261 0.2417 1.8469
48 7.91772 -8.54116 -8.45208 -1.36933 0.855378 -1.37872
330 7.02031 -8.75908 -7.73194 1.48202 -1.99593 -1.32057
3767 -0.70371 -0.0951338 -6.66839 0.888294 1.54992 -1.00017
4 9.14686 -8.53507 -8.48712 1.2161 -2.81807 0.447819
334 8.89555 -8.5575 -7.58094 3.47207 -0.834273 0.9413
95 8.53915 -7.67019 -8.32841 -1.4526 0.629448 1.82991
4043 -5.51649 -0.0302208 -5.51507 -0.830697 -0.0616006 -0.284072
209 -3.08519 -2.94032 -9.14295 -3.44213 0.0859742 0.023444
1954 4.11786 -2.16741 -0.0602979 -1.68237 2.71246 1.32229
899 4.05213 -9.12869 -3.95631 -0.193803 -0.841634 -0.190765
265 0.0073028 -1.59443 -9.16094 -1.12138 -1.63332 -2.9806
56 -7.6029 -6.71808 -8.48973 -1.66436 -0.38704 0.091581
53 -7.74713 -7.72443 -9.05987 -1.05601 -0.842533 0.360323
60 -5.95753 -6.88127 -8.46944 -2.27376 1.10563 0.0849042
107 -5.24644 -6.11025 -8.65723 0.163931 1.38096 1.87814
15 -3.84221 -9.09711 -8.35065 2.20477 -0.551678 -0.31696
609 3.1941 -9.21657 -6.01425 -0.400618 -1.40612 -0.610277
63 -4.08796 -7.61572 -8.53199 -2.0271 -1.96411 1.16065
64 -4.58561 -6.87175 -8.50774 0.448797 -3.11791 -0.00868716
68 -3.16683 -7.00078 -8.42569 -3.00264 0.59578 0.70735
401 -3.04012 -6.12782 -7.61837 -0.498344 -0.458133 0.397293
354 -2.19009 -7.10441 -7.82307 1.67206 -1.79024 -1.02587
4905 -6.3681 -0.0819804 -1.592 2.93766 2.59915 0.700444
49 9.09688 -7.59403 -9.13894 -0.499492 1.52691 2.45203
72 -1.58055 -6.82689 -8.40564 -1.72447 0.263317 0.190042
119 -0.673604 -6.00575 -8.40216 -1.19588 -2.1975 0.496538
71 -0.776192 -7.80376 -8.58294 0.0122663 0.232465 1.49585
125 1.49356 -6.24516 -9.18783 0.443268 -1.03264 0.223557
76 0.0722837 -7.02845 -8.51294 -0.926434 -2.31351 3.58222
80 1.36276 -6.98807 -8.37485 0.628278 -1.62039 1.72345
123 0.707946 -6.12058 -8.3971 -0.546694 -0.199366 0.379782
1477 4.74917 -9.17056 -1.52566 -0.232447 -2.02908 -2.52183
365 1.34064 -7.8033 -7.78022 -0.356824 -1.07759 -0.704154
5185 9.13841 -0.0279127 -0.0612899 0.299437 2.39267 2.07784
79 2.12655 -7.67465 -8.33626 -0.333225 1.83731 -0.859129
84 2.84246 -6.86033 -8.3876 -2.1 -0.575817 -1.0813
3463 -6.96088 -0.0624372 -8.57806 -2.06975 -0.129117 0.125476
370 3.78901 -6.64769 -7.93979 -0.871689 1.02969 2.88707
88 4.73162 -6.98024 -8.40792 4.41702 2.59458 0.957031
131 3.72548 -5.93619 -8.60922 -0.483066 -1.68046 -1.72392
421 4.65843 -6.29104 -7.67345 0.215772 0.439905 -1.15718
4609 9.04945 -0.0744882 -3.12414 0.766001 0.87751 -0.680443
135 5.65184 -6.97235 -8.87544 -1.51444 -0.681822 0.94106
374 5.62588 -7.17212 -7.77058 -2.00222 -0.892242 0.507656
4049 -3.23854 -0.145029 -6.18767 -1.02315 4.73328 0.754959
30 2.40772 -8.23992 -9.14521 0.855855 -2.29923 -0.575819
377 6.3259 -8.01796 -7.73009 0.513525 -0.471603 -0.271094
92 6.46516 -7.25252 -8.37932 1.0691 -0.747092 1.43118
91 7.08562 -8.05737 -8.45312 0.827409 2.02159 1.8615
597 -1.42279 -9.21461 -6.13213 -1.04649 -4.33351 2.94501
52 -9.03469 -6.94333 -8.25803 -1.34074 1.10999 2.42849
96 7.6269 -7.17865 -8.51077 -1.08405 -0.727759 -0.312938
1881 -6.04845 -4.62447 -0.128444 1.25904 -1.84996 -1.73285
99 -8.52003 -6.07619 -8.44648 -0.996313 1.10186 0.344805
433 9.20331 -4.53605 -7.71293 0.420436 -3.89056 -4.27059
78 2.25039 -7.05166 -9.13426 1.94926 0.799622 0.675528
4625 -3.077 -0.0443375 -3.10587 0.694978 -1.33887 -1.68097
103 -6.83755 -6.06244 -8.66556 1.73834 -1.01988 2.80054
104 -7.70757 -5.45154 -8.53566 2.06471 -1.52046 1.61006
151 -7.12663 -4.66095 -8.61261 1.71825 -0.697114 2.23632
4363 6.83569 -0.098462 -3.88761 -1.84086 1.03894 1.68152
108 -6.14452 -5.10951 -8.50619 1.47774 1.05106 -2.80851
155 -5.395 -4.64019 -8.81906 0.253396 0.00881443 -1.21329
4327 -6.89356 -0.122616 -4.00613 -1.66897 1.40137 -1.81279
599 -0.750884 -9.21352 -5.25447 1.40454 0.336308 -0.301617
4067 3.74164 -0.0232098 -5.31371 0.482345 0.726632 0.147565
4321 9.09579 -0.0880035 -4.78101 3.77134 -2.20499 0.813061
111 -3.79406 -6.03225 -8.34696 -0.937392 1.3831 0.872272
112 -4.71436 -5.31916 -8.51381 0.52202 1.79664 -0.297483
159 -3.8697 -4.89817 -8.54099 -0.395895 -1.22437 -1.90552
270 2.05295 -0.509922 -9.20606 0.0808173 0.950283 -4.22975
115 -2.31803 -6.18723 -8.34309 1.56628 0.190804 -1.69793
116 -2.92703 -5.4152 -8.30292 -0.213125 2.5221 -0.231228
295 -7.00234 -9.13855 -6.87196 0.907059 -2.05387 -0.906065
163 -2.05534 -4.68389 -8.33698 3.39734 -1.79113 -4.25944
402 -2.12748 -5.24811 -7.56836 -2.22999 0.293902 1.8359
120 -1.38979 -5.28054 -8.33032 0.555872 0.259218 -1.23168
406 -0.785322 -5.28527 -7.55649 0.794295 -2.10103 -3.87768
453 -1.42784 -4.57541 -7.65265 1.20335 -1.10692 -1.52457
158 -3.73399 -3.80987 -9.08926 1.93946 -0.346369 -0.0333811
124 0.0304367 -5.32419 -8.38835 -0.311537 -0.672274 1.95958
3787 6.9373 -0.0292664 -7.12317 0.677186 1.10992 -0.940399
167 -0.750613 -4.60096 -8.39072 1.7225 5.16593 -0.429753
457 0.113768 -4.59977 -7.58198 -1.51178 1.53844 2.15152
128 1.46464 -5.3958 -8.58699 -1.22285 -0.827009 -0.977635
461 1.29025 -4.5477 -7.57525 -1.22183 0.168231 -4.78175
127 2.23333 -6.1579 -8.46331 -0.541554 0.11653 0.352268
132 2.73995 -5.35667 -8.45251 -1.72644 -1.40207 -2.73497
4613 -7.67668 -0.122659 -3.29607 -1.13278 -2.37932 0.520936
417 2.96088 -6.09833 -7.76416 3.22033 1.44145 0.298324
3479 -0.589125 -0.0677012 -8.33517 0.223789 0.833735 0.41446
136 4.67515 -5.24278 -8.27877 0.888001 -0.911386 -1.03563
4627 -2.38126 -0.0727446 -2.40655 -1.68368 -2.37 -2.50725
140 6.02238 -5.43317 -8.601 0.113094 2.48315 1.34273
422 5.37012 -6.10655 -8.41011 -0.145096 -0.318591 0.1201
425 6.08106 -6.21074 -7.69147 -0.710757 2.89898 -0.664518
4645 4.67653 0.015087 -3.22634 0.681684 2.01739 -2.37562
2 -8.4248 -8.47489 -9.14054 2.30045 2.00091 -1.76054
139 6.96047 -6.2763 -8.4225 1.63323 0.546175 -0.0139909
187 6.78499 -4.66663 -8.5242 -1.14371 -0.442316 0.544738
143 8.27084 -6.20084 -8.34617 -0.691486 -0.725824 0.858016
100 9.13641 -5.47738 -8.31234 -1.24482 -3.42108 1.36185
144 7.45024 -5.32526 -8.43109 1.00691 0.647779 1.99387
191 8.39963 -4.73114 -8.44404 1.72444 -1.59373 2.86431
146 -8.38904 -4.66054 -8.63068 0.819225 0.86165 -0.938664
148 9.0526 -3.84882 -8.35483 -0.973545 -1.80139 1.84115
195 -8.46881 -3.2106 -8.4842 0.0566264 -3.20576 -1.40157
434 -8.46684 -3.97448 -7.71037 -3.04938 0.401854 1.21871
19 -2.42848 -8.96348 -8.4364 1.42341 0.989546 -2.27219
257 -3.01123 -1.53011 -9.15388 0.352008 0.520176 1.45047
150 -7.70879 -3.8839 -8.63781 -0.898807 -2.42157 -0.677879
199 -6.81655 -3.05481 -8.54828 -1.29842 2.78376 0.504342
253 -4.5546 -1.58248 -9.15838 -4.35665 1.06792 -0.207784
438 -5.95897 -3.83737 -8.51984 -0.571946 -1.19752 2.57796
160 -4.67141 -3.76633 -8.43723 -0.601291 0.589838 -0.228781
446 -3.92614 -3.86508 -7.80787 3.51759 -0.682735 -1.20894
4907 -5.28708 -0.0908411 -0.939702 -0.146637 1.39728 -1.37318
178 3.77502 -3.92877 -9.14775 1.50584 -1.74978 2.69595
449 -2.92013 -4.59087 -7.96623 3.11467 1.27352 3.54743
164 -2.92492 -3.6755 -8.51417 -3.39027 2.34146 -0.658962
211 -2.26112 -3.02523 -8.29896 -0.112276 -4.45785 -0.894232
1990 -0.705408 -0.710299 -0.209375 -0.39303 0.401177 -1.2463
168 -1.41291 -3.82545 -8.48638 -2.48486 1.64737 -2.73973
454 -0.561385 -3.9459 -7.74139 1.33358 -0.730052 2.7122
3755 -5.43851 -0.028392 -6.87428 -0.450706 1.57294 0.461437
172 0.037414 -3.7488 -8.50014 1.88976 -1.36851 1.62632
505 -0.101579 -3.05453 -7.56373 -3.60791 -1.0027 -0.517989
171 0.655952 -4.65818 -8.43335 4.34932 -1.08707 -0.439177
176 1.38374 -3.85541 -8.42455 -2.36862 0.245154 -1.20497
175 2.15224 -4.55261 -8.51917 1.64605 -0.997645 -1.81123
180 3.08864 -3.91786 -8.35255 3.6317 1.68334 1.49737
462 2.14969 -3.91009 -7.85207 2.18645 -2.32722 2.13161
179 3.87916 -4.54834 -8.2903 0.138986 -1.92446 -1.65239
469 4.56285 -4.45529 -7.61199 -1.31445 0.223734 3.23791
184 4.4417 -3.69815 -8.32193 -1.15204 -2.60532 1.15288
466 3.70879 -3.68551 -7.62933 0.832714 0.648367 2.84767
183 5.30965 -4.56455 -8.35709 2.45153 -1.20879 -1.41819
188 6.14993 -3.81198 -8.44049 0.631573 -2.23868 0.976706
231 5.27827 -3.65506 -7.78619 -0.0754795 0.953067 0.691232
470 6.13767 -4.6531 -7.65252 -2.24565 1.11128 0.625097
134 5.35362 -5.35038 -9.20137 0.357875 -1.42015 -0.666911
1193 6.30568 -9.09182 -3.11544 1.53804 4.08491 0.0374218
474 6.93641 -3.80197 -7.81598 -1.40652 -1.05106 2.36001
192 7.57642 -3.84121 -8.59107 0.495587 -0.869284 1.57844
239 8.37781 -3.06482 -8.59159 -0.0550852 0.563045 -1.04416
1465 0.0726295 -9.22122 -1.45916 -2.62826 -1.85277 -1.55119
477 7.43124 -4.63158 -7.70031 2.1181 -1.36593 0.109375
481 -9.14616 -3.18445 -7.64651 1.94984 -2.94428 2.26516
482 -8.50236 -2.4517 -7.75845 0.434503 0.315429 -1.21828
200 -7.79117 -2.35182 -8.56654 0.490761 1.32479 -0.349582
204 -5.98514 -2.21176 -8.52392 1.29015 0.378917 -0.575023
27 0.770848 -9.11555 -8.64588 -1.05 0.297276 2.92763
203 -5.34704 -2.87746 -8.57228 1.63518 3.89797 -0.996394
490 -5.34254 -2.22691 -7.58508 1.79272 3.62224 2.02077
251 -5.30178 -1.44856 -8.48125 -0.138025 -2.24357 -0.599006
210 -2.19305 -2.28561 -8.93855 1.82301 0.104101 -1.4329
3759 -3.83341 -0.11631 -6.91494 -1.99936 2.30319 3.44698
207 -3.82796 -3.10076 -8.45889 -2.04684 2.33605 -0.206317
208 -4.57925 -2.20364 -8.26459 0.769663 0.167914 -1.46289
255 -3.84772 -1.30337 -8.48402 0.299713 1.8845 -1.49291
212 -3.03242 -2.21704 -8.36694 -2.90323 2.04786 0.837008
498 -2.27119 -2.18123 -7.71117 -1.97442 0.853485 -0.696115
545 -3.13847 -1.44511 -7.82119 -1.08812 1.88876 2.87521
218 0.752769 -2.26013 -9.12294 -1.84034 -0.627974 -0.128094
215 -0.735108 -3.05504 -8.50497 -3.57377 -2.50913 -0.792998
216 -1.41811 -2.29012 -8.31325 -3.38462 1.90751 0.0458942
263 -0.714767 -1.5337 -8.2002 0.601348 -0.896382 0.0578163
549 -1.45893 -1.42508 -7.60213 -0.18989 2.65524 0.0545914
220 -0.0215296 -2.28183 -8.44885 -0.459965 1.96985 1.31857
506 0.809548 -2.28933 -7.57773 -1.52641 2.14835 0.308821
219 0.627023 -3.00921 -8.35534 -1.04937 0.51251 1.48672
224 1.54441 -2.19314 -8.49189 -0.232431 -2.10611 -1.97721
223 2.07952 -3.03906 -8.47406 -0.218793 -1.59645 0.986976
228 2.68628 -2.38759 -8.30343 -1.53143 -4.30847 2.04704
271 2.12665 -1.22389 -8.33913 -0.167729 -0.900505 0.481451
513 2.93785 -3.09646 -7.52527 -1.07207 1.68399 1.49735
561 2.81729 -1.65326 -7.7012 1.87069 1.31987 1.06631
3503 8.49396 -0.126923 -8.62661 -0.660136 -1.62196 -0.453551
227 3.6952 -3.02891 -8.40317 0.211781 1.00128 3.06696
232 4.76186 -2.12137 -8.46617 -1.72221 -1.50826 -1.24042
514 3.77059 -1.94768 -8.03675 -2.03264 -2.37623 0.931248
236 6.14149 -2.24396 -8.52032 1.09775 -0.493647 -1.53246
518 5.45955 -2.93478 -8.6121 -2.46338 1.08568 0.336474
569 6.30089 -1.50017 -7.67355 -0.285561 0.441377 -1.38462
279 5.11062 -1.06726 -8.74223 0.148009 0.649614 1.43919
521 6.13341 -3.06129 -7.81291 0.075507 -1.88565 0.266942
567 5.51361 -2.15531 -7.82348 1.32874 1.15317 2.30306
525 7.64026 -3.11474 -7.79188 -0.853416 -1.73917 -0.37948
235 6.92959 -3.14103 -8.49272 -0.281937 0.786106 0.777525
283 6.92916 -1.46121 -8.53498 0.707491 -0.294024 0.30998
573 7.61782 -1.46596 -7.68791 1.57103 0.555415 -0.271994
2010 6.977 -0.0449946 -0.67632 0.677518 2.11146 2.06226
240 7.52616 -2.29163 -8.42562 -1.32669 1.45278 0.752977
196 9.16315 -2.458 -8.47819 0.552716 0.138513 0.828609
287 8.46604 -1.6622 -8.29386 0.222461 0.332512 0.917725
526 8.44985 -2.42151 -7.77754 -0.435479 0.818128 -0.91431
529 -9.11175 -1.62678 -7.8458 1.08316 -2.22365 -0.220095
875 -5.53959 -9.13666 -3.74535 0.00267867 0.045984 0.0207632
243 -8.39451 -1.50767 -8.52642 1.35634 -0.0146778 -0.143099
117 -1.5959 -6.13856 -9.19079 2.20056 -0.384692 -0.233308
130 3.70842 -5.07213 -9.12182 1.06252 -0.492653 -0.029291
247 -6.73351 -1.47774 -8.47745 -0.215225 -0.104152 2.81967
248 -7.62769 -0.883686 -8.44957 0.624085 0.60972 -0.586624
174 2.15541 -3.73668 -9.1518 -2.35883 -0.926877 1.9052
252 -5.96414 -0.712214 -8.52742 0.297245 1.04935 -2.90673
256 -4.61012 -0.689361 -8.37083 2.69098 0.528646 -1.30653
542 -3.80839 -0.797799 -7.58469 -0.280862 0.945886 -1.14313
541 -4.60155 -1.44428 -7.58424 -0.151677 -0.173089 -1.44908
1167 -3.70149 -9.23977 -2.2986 -0.711799 -2.76499 -4.72869
259 -2.27415 -1.39896 -8.34727 1.18994 -1.48692 2.02333
260 -3.0128 -0.661692 -8.3918 -0.318339 2.3908 -2.94278
546 -2.1535 -0.710427 -7.60226 -0.539366 3.21973 1.31304
909 7.68576 -9.22305 -4.7576 -2.30613 -0.275107 -0.549052
3475 -2.20998 -0.076286 -8.28129 -1.58151 3.47129 0.10003
273 2.87791 -1.49127 -9.18527 1.98004 1.56139 0.581715
4063 2.16243 -0.160424 -5.25952 2.06596 -0.063767 -0.287485
264 -1.29736 -0.687748 -8.40042 -0.344319 -1.71903 -0.375954
550 -0.653594 -0.768932 -7.44402 -1.37934 -0.0445516 0.929576
206 -3.82509 -2.26 -9.04017 0.608935 -0.43317 0.539367
268 -0.00817788 -0.788167 -8.25537 1.11731 -0.487655 -1.64827
162 -2.20828 -4.06509 -9.14484 -0.224258 -2.8143 -1.44696
267 0.763716 -1.54206 -8.14629 -0.769924 2.52793 1.60597
272 1.46296 -0.5893 -8.36621 0.35574 -0.533463 0.398641
557 1.54094 -1.46559 -7.58122 -1.28546 -0.564024 -1.40774
261 -1.52016 -1.59092 -8.96408 -1.27408 0.456242 -0.145711
1738 -5.47153 -8.37703 -0.155699 0.28828 -0.673126 0.336951
276 3.09251 -0.828987 -8.33535 0.0781768 0.152013 -1.9293
558 2.3975 -0.67481 -7.5225 3.24635 2.10175 -0.657072
198 -6.95735 -2.27266 -9.14447 1.29211 2.24501 0.318925
275 3.7137 -0.867319 -7.56754 -1.47187 -0.764914 -0.192914
280 4.08281 -1.1909 -8.47982 -2.04612 3.15418 -1.199
4339 -2.25383 -0.0193911 -3.92868 1.31512 -0.595101 0.330543
1845 -1.44561 -6.09611 -0.206848 -0.767406 2.10329 -1.10743
284 6.13399 -0.87864 -8.47442 -2.27275 2.76235 2.11965
1191 5.28993 -9.06268 -2.22985 0.841306 -1.56198 -1.66777
566 5.51067 -0.786422 -7.72202 -0.481775 -0.286597 0.480869
89 6.071 -7.8508 -9.13746 -2.28063 0.658095 2.05471
3495 5.53658 -0.061464 -8.43619 0.557895 -1.76891 0.16266
288 7.85514 -0.832671 -8.41553 3.09148 -2.42685 0.559277
887 -0.7325 -9.16732 -3.82497 1.14053 1.09143 0.114907
570 6.9882 -0.719749 -7.88311 -0.16752 -2.55347 -0.0943254
1797 -1.49963 -7.69208 -0.0576915 -1.1817 -0.440181 -0.637346
244 -9.14842 -0.774751 -8.29718 2.50267 -2.60272 0.149002
574 8.53288 -0.903764 -7.70855 2.03564 -0.526335 0.0576348
290 -8.54814 -8.69423 -7.65806 -0.824238 -2.60307 -0.038829
296 -7.6496 -8.37272 -6.82561 -3.33648 0.311745 2.32652
141 7.49977 -6.15661 -9.21336 0.0397857 3.17595 0.10689
294 -6.83168 -8.43549 -7.82558 0.493365 0.520225 1.47306
343 -6.79269 -7.71701 -7.15655 -0.200315 1.87322 0.965259
1905 3.11754 -4.54713 -0.19436 0.0543862 -1.47274 -3.04637
298 -5.40018 -8.54835 -7.60541 1.15587 0.26077 -1.51306
300 -6.31191 -8.48596 -6.83378 0.711235 1.26083 -1.73708
347 -5.24426 -7.56489 -6.81862 1.51249 0.758107 0.742419
161 -3.08689 -4.54365 -8.97829 -0.929538 0.225697 -2.40734
4075 6.96792 -0.054472 -5.45415 0.170743 -0.304093 0.0888773
302 -3.72416 -8.41657 -7.51189 0.51243 2.53684 -0.914177
304 -4.55414 -8.30477 -6.97371 -1.15181 -1.30916 -3.1302
308 -2.92419 -8.47144 -6.9341 1.31587 -1.79232 -1.31123
355 -2.14752 -7.71451 -6.88272 1.95548 1.07725 1.46903
35 3.49124 -9.07962 -8.55836 0.0255738 0.123159 0.518508
306 -2.36065 -8.18773 -7.78571 1.51003 -1.86936 -1.72989
312 -1.40268 -8.5059 -6.99189 -1.18155 2.36247 -1.10782
359 -0.703749 -7.71154 -6.91544 0.660521 1.0214 0.0100992
316 -0.184039 -8.50629 -6.95423 -1.23548 0.167944 1.46008
1199 8.40949 -9.16591 -2.36387 2.86318 -0.691984 -1.58445
4901 -7.76976 -0.182184 -1.58885 0.256221 -1.91003 2.12608
320 1.29692 -8.67069 -6.64001 -0.590728 -2.66851 0.0329131
367 2.07657 -8.73766 -7.39025 0.209057 3.05063 -1.82602
285 7.76229 -1.55417 -9.06332 -1.08072 0.30841 -0.859938
4353 3.00183 -0.104319 -4.4495 -3.46785 -0.820965 -1.44008
369 2.87237 -7.59934 -7.67727 0.533878 0.82183 -0.479002
324 3.12405 -8.55248 -6.95623 2.20778 1.17885 -0.874294
1684 8.53082 -0.863283 -0.0375327 -0.301611 0.662203 0.963546
322 3.99634 -8.48261 -7.79457 -0.177322 3.27023 -1.28663
328 4.55383 -8.63936 -6.96879 -0.35159 -2.80732 -0.328381
610 3.84397 -8.4651 -6.10635 0.918412 -0.538346 0.939589
4351 2.28699 -0.247778 -3.76247 1.29593 1.02999 1.20871
326 5.34017 -8.45535 -7.76007 2.76376 1.50784 1.25002
332 6.21158 -8.79495 -7.0962 0.860053 -0.595832 1.68207
336 7.88654 -8.53001 -6.98374 0.553863 -0.288408 -0.403609
379 6.75081 -7.66703 -6.975 0.367686 1.09777 0.744255
381 7.68017 -7.93644 -7.62505 0.721973 1.78011 -0.913011
292 -9.04031 -8.64487 -6.75302 0.103167 -1.38281 -0.545022
383 8.49848 -7.73059 -6.88068 0.895724 0.11861 -1.79022
3785 6.20187 -0.0373978 -7.69638 -0.0388696 1.80803 -0.059555
385 9.00535 -6.29818 -7.69738 3.75733 0.179883 1.43264
339 -8.40343 -7.60738 -6.96108 0.188906 -2.72502 -1.40602
338 -8.39453 -6.81211 -7.56532 -2.48551 2.1512 0.0636529
387 -8.45819 -6.02685 -6.86772 2.64335 -1.78768 3.10892
389 -7.75389 -6.06388 -7.74401 0.405984 -0.473238 -0.118425
341 -7.71809 -7.56875 -7.9075 -0.702643 0.815017 1.26519
342 -6.93171 -6.83224 -7.76864 -0.13314 -1.62543 -0.581781
344 -7.54626 -6.99307 -6.99197 -0.912669 -4.53324 0.839729
391 -6.91285 -6.08256 -7.14697 -0.601112 0.307668 1.09603
630 -6.92093 -7.19879 -6.17135 0.0363097 -0.275456 -0.430048
346 -5.22602 -6.76029 -7.68613 1.92348 2.24845 0.337276
393 -6.09453 -6.06344 -7.81959 -0.907808 0.274968 1.08082
345 -5.90646 -7.53832 -7.71827 2.0681 0.758337 0.457241
348 -6.0496 -6.92584 -6.95556 0.0975932 -1.18971 -1.51805
395 -5.56093 -6.0905 -6.99541 -0.0269967 0.92387 -3.42385
350 -3.78572 -6.87845 -7.61794 0.37522 -1.51212 2.00778
397 -4.58962 -5.92004 -7.73704 0.994755 0.968114 -1.34864
351 -3.7295 -7.53751 -6.84967 -1.75302 -0.416666 -0.567585
352 -4.60447 -6.77649 -6.76417 -1.04804 0.199838 -1.29458
399 -3.72005 -5.99459 -6.94789 1.05315 -0.673413 -1.36811
353 -3.0951 -7.61431 -7.63901 0.349 0.382299 0.768619
356 -2.92213 -6.91975 -7.03546 1.4174 1.39665 0.383758
403 -2.32429 -6.16252 -6.91639 0.942312 2.00391 -0.932251
642 -2.30448 -6.9834 -6.24469 -0.753839 -0.395289 1.45712
357 -1.4371 -7.74345 -7.77688 -1.31737 0.36933 -0.622988
358 -0.762571 -6.95128 -7.75066 0.896145 -2.50147 -3.17736
360 -1.52231 -6.97679 -7.01677 -1.69927 0.49538 -1.05792
645 -1.40328 -7.78558 -6.18406 -1.03636 1.60866 -0.98128
693 -1.4964 -6.20152 -6.21672 3.41634 -0.0560293 2.02971
361 -0.0104209 -7.77247 -7.74282 0.750137 -0.269815 1.51412
364 -0.000113373 -6.8869 -7.08695 -0.399157 -2.36339 -1.00573
363 0.687003 -7.80369 -6.91143 -0.964976 1.13015 0.0448148
362 0.668977 -6.86113 -7.74606 0.18997 0.991641 0.837854
653 1.42868 -7.70927 -6.19759 -0.0513317 -0.120674 -0.264537
368 1.55263 -7.22096 -7.05247 -0.417184 1.32606 -0.248169
650 0.630752 -7.04784 -6.22552 1.84674 1.56622 -0.811971
366 2.25384 -6.82161 -7.59276 1.14125 1.83901 2.15098
372 2.94409 -6.94925 -6.91448 1.59938 1.62065 1.38152
654 2.22889 -7.99881 -6.74026 -1.20075 -1.30634 2.13382
657 3.03159 -7.6741 -6.26646 1.09274 0.40553 -1.04547
705 3.08489 -6.17458 -6.12379 0.788809 -1.31531 0.369765
371 3.58238 -7.74591 -7.06759 -0.785156 -0.72691 0.789252
373 4.47724 -7.59213 -7.48459 -2.78771 -1.98297 0.238506
376 4.51362 -6.85198 -6.91153 -1.4871 -0.328858 -1.6255
419 3.71364 -6.11965 -6.96698 0.430736 -1.45513 1.69971
658 3.7004 -6.88039 -6.10064 -1.79727 2.03406 0.117835
375 5.46924 -7.85534 -7.03251 -0.013453 2.5105 -2.32339
380 6.11389 -6.87855 -6.91779 -1.80642 1.25301 1.93459
665 6.07868 -7.72464 -6.31945 0.827219 1.32121 -0.181927
662 5.32339 -7.09165 -6.3123 2.52146 0.194236 0.590728
378 6.91403 -6.91163 -7.55258 0.115139 -1.24556 -2.43731
427 6.84632 -6.14319 -6.88097 -1.70903 0.627348 0.0121244
429 7.64991 -6.17994 -7.58951 3.74812 0.241213 -0.628962
666 7.03969 -6.94754 -6.10278 -0.45747 0.364811 0.109667
337 -9.09348 -7.67417 -7.64142 -0.0629941 -2.23195 -1.1126
340 -9.18332 -7.00991 -6.99982 1.58817 1.93361 -1.09327
382 8.22427 -7.08226 -7.66982 -1.16856 -1.80491 -2.14262
384 7.60645 -7.0037 -6.96797 -1.32409 0.450857 1.30133
431 8.44226 -6.4503 -6.91147 0.548166 -1.76452 -1.42115
386 -8.47191 -5.35427 -7.81237 0.252774 -1.18659 -1.37031
435 -8.37632 -4.82027 -6.8359 2.92069 0.6929 0.666462
674 -8.52611 -5.35057 -6.10255 -2.01857 -1.36659 -1.29579
390 -6.82063 -5.22964 -7.82238 1.85384 1.54409 -0.826839
437 -7.62055 -4.5129 -7.63666 1.39611 -1.45438 1.76201
392 -7.45495 -5.28995 -7.15564 2.30658 -1.54487 1.06515
439 -6.92568 -4.47702 -6.85521 -0.273269 0.561439 -1.06581
394 -5.46882 -5.39697 -7.81342 2.27147 -1.91551 -0.212293
396 -6.13398 -5.25083 -7.06954 2.39039 -0.32124 -2.17275
682 -5.56952 -5.55705 -6.19632 -0.347283 0.730535 -0.867733
441 -6.17676 -4.42987 -7.82807 1.32399 -0.935671 -1.2143
398 -3.75142 -5.24629 -7.60679 0.333336 1.369 1.12935
400 -4.75827 -5.36379 -6.83601 -1.81185 1.8716 1.42174
447 -4.02139 -4.50381 -7.03312 0.797547 2.12069 -1.01669
445 -4.67707 -4.61407 -7.82286 -1.6828 -0.616528 -0.73056
733 -4.52817 -4.58503 -6.2248 -1.78574 1.79649 0.925254
404 -2.91807 -5.25137 -6.93438 1.84789 -0.0304656 1.051
451 -2.30834 -4.46622 -7.02151 1.76001 -1.16572 0.843695
690 -2.18542 -5.46166 -6.10163 -2.56132 -0.585749 0.0465876
405 -1.43751 -6.24364 -7.56135 -0.866974 -1.02607 0.388575
407 -0.67094 -6.20424 -6.99418 -2.53845 -2.36297 -2.33193
408 -1.61095 -5.53129 -6.88242 0.85086 -1.48654 -0.973497
694 -0.850872 -5.27373 -6.0941 1.08257 -0.372029 3.23358
741 -1.66748 -4.63564 -6.34412 -0.175586 -2.68599 -0.0881218
409 0.0381073 -6.05807 -7.72156 0.87813 1.00548 -1.88665
412 -0.0632975 -5.31003 -6.83563 1.71512 2.97359 1.09494
410 0.879887 -5.37809 -7.75529 0.673628 1.88835 -0.646822
459 0.768259 -4.59896 -6.8387 -0.993298 5.01463 0.0827498
413 1.50945 -6.12601 -7.63169 -1.02927 -0.0553173 1.50351
411 0.623941 -6.04088 -7.01368 0.474313 -0.910851 2.80057
416 1.43977 -5.32877 -6.93216 1.99906 -0.111101 1.59534
698 0.771719 -5.57783 -6.05475 -0.725211 -3.34417 -0.403185
749 1.52391 -4.53285 -6.12028 -0.955049 2.89687 1.91181
415 2.3005 -6.09804 -6.79666 1.37751 -1.28509 0.943279
414 2.16355 -5.29681 -7.72455 -0.00848036 0.968576 1.05177
420 3.04006 -5.40572 -6.9461 -1.39104 0.206977 -1.35258
702 2.37768 -5.38701 -6.16745 0.524868 -1.51629 -0.578433
418 3.81817 -5.37476 -7.67417 0.293352 2.49746 -1.08644
424 4.65153 -5.34713 -7.02474 -1.3817 0.0485513 -0.198523
706 3.69153 -5.44555 -6.14922 -1.08208 1.98482 -0.920138
757 4.62892 -4.56006 -6.31745 -0.813449 -0.604225 -0.914062
709 4.55749 -6.15216 -6.25235 1.50281 1.80076 0.29505
423 5.32983 -6.03922 -6.73216 -0.43928 0.531558 0.480759
473 5.4338 -5.55586 -7.5616 -0.348166 0.359223 -1.30469
713 6.08647 -6.16265 -6.07535 0.448909 -1.54476 0.10321
710 5.26898 -5.29083 -6.11946 -0.946641 0.18838 -0.229136
428 6.11031 -5.41684 -6.84539 -0.352179 -2.01875 -1.60131
426 6.74215 -5.33439 -7.62804 -1.36877 -1.01602 1.95749
430 8.34403 -5.48363 -7.58636 2.11299 -0.0914389 2.43164
388 9.12408 -5.39351 -6.84174 -0.265666 3.19064 -0.18191
432 7.50304 -5.34911 -6.94461 1.85938 1.20532 -1.23049
436 9.15861 -3.91968 -6.90393 -1.89305 1.28614 1.46965
483 -8.42809 -3.18181 -7.02427 0.589153 1.06482 1.80121
152 -6.88903 -3.86402 -7.92922 0.363472 -0.445478 -1.94398
440 -7.593 -3.77773 -7.07918 0.227924 1.17771 0.342082
726 -6.74103 -3.79763 -6.20437 -1.55591 -1.05067 0.385013
485 -7.54426 -3.01636 -7.84305 -2.65722 1.13158 0.36797
773 -7.70196 -3.22401 -6.20519 2.33878 0.63103 -2.57305
442 -5.39174 -3.87097 -7.6988 -2.32116 4.30164 -0.855585
443 -5.39511 -4.63462 -7.10037 1.16825 0.563947 -2.02811
444 -6.0249 -3.77612 -6.99883 -1.63746 2.26274 -3.40518
777 -6.26371 -2.94981 -6.15651 2.53866 -1.56486 0.515953
729 -6.11562 -4.54683 -6.28952 0.399496 0.0927075 2.00759
448 -4.62747 -3.72361 -6.9997 1.21516 0.765266 -0.875855
450 -2.13553 -3.92996 -7.79232 2.24058 1.76741 -2.40243
452 -3.12367 -3.90949 -7.18189 0.571485 0.391258 1.74043
738 -2.36753 -3.93834 -6.20664 -0.751781 2.81677 0.56399
501 -1.26363 -3.1097 -7.64744 0.502491 0.363512 0.327605
455 -0.77995 -4.60722 -6.81719 -0.214806 -0.354024 0.155242
456 -1.47405 -3.76048 -6.93495 -4.22347 -1.47679 -0.00755718
460 -0.0507309 -3.82068 -6.83652 0.145363 1.85859 1.03555
745 0.0849007 -4.47573 -6.21038 0.493852 1.83776 1.37318
458 0.691313 -3.85281 -7.63871 -1.90784 1.08842 1.52835
742 -0.889392 -3.86862 -6.19985 2.13087 0.734757 -3.83923
746 0.827618 -3.75572 -6.10395 -0.685031 1.27526 1.88921
464 1.50309 -3.85935 -6.94553 -0.293973 -0.431315 -1.43902
507 0.708116 -3.17797 -6.97539 -1.62518 2.71359 2.40284
797 1.69532 -3.18388 -6.02659 0.208999 -0.225854 -1.01374
465 3.05933 -4.5957 -7.61696 1.12952 0.0121538 0.989704
463 2.18207 -4.57064 -6.8973 -0.0324833 0.683985 2.70828
753 2.99269 -4.72567 -5.9648 0.860253 1.3588 -0.0077221
468 2.98189 -3.91029 -7.00646 1.35655 0.316856 -2.72728
750 2.39672 -3.9431 -6.13327 0.405632 -0.12658 -0.555874
467 3.73086 -4.78237 -6.82823 0.796149 2.32108 0.0309163
472 4.4541 -3.60227 -7.00318 0.515878 -3.86471 0.5667
515 3.8856 -2.91445 -7.06429 1.15779 -0.736358 -1.75949
517 4.76023 -2.74303 -7.84135 -0.656977 -0.70459 -4.75582
471 5.49526 -4.51261 -6.97628 0.797796 0.454435 2.28168
519 5.32297 -2.98156 -7.03344 -1.38877 -0.167174 0.325288
476 6.10229 -3.69381 -7.08504 -0.0567761 -1.72265 -0.81966
475 6.74363 -4.52854 -6.8957 -1.06816 -1.12366 -0.845644
480 7.55368 -3.75725 -7.00243 1.52042 -2.18138 0.59395
478 8.19403 -4.00529 -7.6803 -1.04 -0.78478 -0.339907
479 8.34617 -4.71854 -6.88002 1.19011 2.6046 -2.8742
484 -9.12073 -2.2849 -7.03705 -1.02299 0.520821 -2.22099
531 -8.32966 -1.55721 -7.01731 1.09936 -1.10275 -2.00486
817 9.07677 -1.56352 -6.20524 0.186519 0.00967612 2.88886
486 -6.74584 -2.33981 -7.69968 0.323768 2.43674 -1.55073
487 -6.77446 -3.15539 -7.03637 0.0273334 -0.983095 -2.05433
488 -7.64443 -2.35524 -6.88173 -2.20237 2.39848 -1.18749
489 -6.13746 -3.19222 -7.84894 -0.215497 0.441977 0.463645
537 -6.24208 -1.27831 -7.68998 0.618542 2.12341 1.20901
491 -5.46185 -3.03336 -7.0977 0.406309 1.44328 -1.40819
492 -6.14467 -2.36216 -6.90657 1.26461 0.721238 1.09678
539 -5.65682 -1.52564 -6.93543 2.27718 -1.63548 -1.78168
494 -3.82462 -2.2473 -7.5935 -0.124535 -0.0944554 1.43677
493 -4.58216 -3.06612 -7.80981 0.33141 0.247846 0.403942
495 -3.99094 -3.09579 -6.89527 -0.580009 0.411006 3.46835
496 -4.6651 -2.33299 -6.91006 -0.540981 3.22372 1.79384
497 -3.13437 -3.03407 -7.67978 -0.386014 1.35599 -0.646441
499 -2.28146 -3.04766 -7.07366 1.19774 -2.82491 0.32153
500 -2.96022 -2.25366 -6.85107 -1.193 1.20759 0.978788
547 -2.30577 -1.52927 -6.9665 -0.58358 1.17173 -0.916024
503 -0.743503 -3.00173 -6.88369 0.826235 -1.00146 0.963634
504 -1.44827 -2.31567 -6.914 -0.973254 0.547466 -0.0657743
789 -1.57381 -3.03081 -6.27811 1.14112 5.86964 0.911995
837 -1.44497 -1.4335 -6.05348 0.0512537 -0.555143 -1.19165
551 -0.73399 -1.51678 -6.84426 1.26112 1.56606 -2.45924
502 -0.776924 -2.2086 -7.54459 -1.44749 -2.21984 0.516743
508 0.034934 -2.29389 -6.81575 -1.98698 -1.60963 -0.149039
793 0.0381088 -3.09615 -6.09737 1.3626 1.59284 0.33173
509 1.39255 -3.13483 -7.68516 -0.126475 0.43339 0.350958
512 1.52191 -2.48724 -6.81366 -0.751456 -1.61947 0.631662
794 0.747288 -2.55546 -6.04907 1.57141 -1.78933 -5.82084
798 2.29012 -2.2832 -6.24365 2.17581 0.201376 0.423176
511 2.24256 -3.14541 -6.79441 -2.02406 1.58201 -2.10756
801 3.20356 -3.23015 -6.27271 3.46222 -0.80306 1.44661
510 2.02896 -2.43069 -7.58285 0.830485 0.74707 -1.69519
516 3.1081 -2.21589 -6.89597 -2.70321 -1.40987 1.33135