ITEM: TIMESTEP
148000
ITEM: NUMBER OF ATOMS
6912
ITEM: BOX BOUNDS pp pp pp
-9.2265715179435492e+00 9.2265715179435492e+00
-9.2265715179435492e+00 9.2265715179435492e+00
-9.2265715179435492e+00 9.2265715179435492e+00
ITEM: ATOMS id x y z vx vy vz
51 -8.31688 -7.65049 -8.38745 0.838071 -0.934242 1.46273
8 -7.76834 -8.47046 -8.39795 -0.138917 2.5478 0.0169193
871 -6.85186 -9.21538 -3.9079 -0.57662 -0.104635 0.340415
55 -6.90879 -7.77274 -8.58398 0.214102 0.114249 0.935043
1464 -1.70995 -9.12777 -0.0214319 1.73042 2.70621 -0.35207
12 -6.26979 -8.4893 -8.38596 0.327987 1.82845 -0.0109766
59 -5.51351 -7.73351 -8.50649 2.34335 1.24737 -0.207753
298 -5.18634 -8.49506 -7.82339 -0.142401 -0.0229542 -5.41347
16 -4.6038 -8.39688 -8.6991 -2.78477 0.96483 -0.272687
249 -6.11434 -1.54312 -9.12934 0.835118 -1.24347 -3.27069
1199 8.40824 -9.25658 -2.32048 -1.03675 -2.84773 2.33478
1945 0.0147008 -3.05795 -0.0933815 0.910476 0.658656 -3.31277
14 -3.03739 -9.19331 -9.21182 2.43733 -3.71512 0.149282
20 -3.24531 -8.57424 -8.41141 1.98463 -2.57106 1.52397
1733 -7.83895 -9.24657 -0.0835171 -0.371413 -1.49624 -2.01734
246 -6.89584 -0.728192 -9.17038 0.898402 -2.05443 -1.10392
24 -1.55801 -8.43784 -8.50409 -1.61891 0.387123 -2.50146
310 -0.525772 -8.37194 -7.6202 -2.46975 -0.978974 0.55378
3489 3.02596 -0.0825586 -9.11784 1.51929 -0.702843 0.022965
4069 4.4749 -0.0948451 -6.23728 -0.974975 -0.0877709 2.77055
26 0.0188397 -8.69154 -8.46922 1.79796 0.542809 -0.336959
28 0.481855 -8.40906 -7.54249 -1.41275 -2.09997 -5.7642
3779 3.71555 -0.0670039 -6.98039 -1.6803 -0.00761454 -0.759482
604 0.0115819 -9.05671 -4.46678 -0.609783 0.769243 -2.74357
367 1.3397 -8.5805 -8.36929 3.78353 -0.786006 -1.56713
4903 -7.05529 -0.0115935 -0.670296 2.53354 1.2017 0.992253
4075 6.88598 -0.142845 -5.45947 0.865647 2.603 0.398717
585 -6.05458 -9.16936 -5.97835 -0.282195 2.4888 0.304093
36 3.06975 -8.46707 -8.40498 -1.76412 -2.79937 -0.235076
79 2.18992 -7.56773 -8.53536 3.12388 1.49626 -2.88163
30 2.18223 -8.39553 -9.18517 -0.492498 -1.19617 0.438228
1889 -3.05398 -4.46982 -0.0227192 0.311472 1.23046 1.37932
165 -1.7123 -4.71228 -9.19533 -1.8686 1.17359 -0.741113
40 4.69498 -8.506 -8.52632 -0.492877 0.105756 -2.15093
83 3.95771 -7.89682 -8.2893 -0.331652 -1.43951 -1.48176
134 5.22516 -5.54055 -9.16502 2.10325 -1.13568 0.104176
1447 -6.86239 -9.03011 -0.905816 -2.78623 2.18652 1.07358
605 1.2843 -9.09486 -6.12682 -1.12209 -0.303276 2.64051
44 6.15457 -8.47743 -8.80446 -0.858351 1.79458 1.38632
87 5.54725 -7.68883 -8.72157 -1.32474 -0.916222 -1.16091
48 7.58292 -8.6054 -8.47764 -0.98341 -0.99413 0.217286
91 6.74669 -7.62453 -8.52898 -1.9476 1.88867 0.948621
114 -2.31755 -5.52554 -9.17992 1.2889 2.96283 -1.52981
4 -9.17979 -8.61221 -8.55143 0.304038 -0.813446 -1.46327
334 8.45714 -8.43707 -8.06349 -0.224091 0.50682 -2.02826
3757 -4.7019 -0.0227761 -7.55981 -1.73261 -0.876247 -1.1194
4053 -1.63495 -0.0372965 -6.00334 -1.11914 0.270777 -0.290717
337 9.15129 -7.88325 -7.77736 2.2064 -2.08358 1.41943
1997 1.56848 -1.64674 -0.188925 -1.85988 -0.538637 -0.887304
56 -7.53404 -6.88968 -8.47419 0.110719 1.60341 2.19407
103 -6.85244 -6.2111 -8.3637 0.986876 0.293077 -0.0435772
341 -7.62883 -7.63359 -7.59666 1.37594 0.401556 0.859424
60 -6.20542 -7.05726 -8.38321 -0.779482 -1.45614 -0.0830814
345 -6.14169 -7.72353 -7.68154 3.57704 0.559269 -0.805235
346 -5.50345 -7.01622 -7.72546 2.71177 -1.24913 0.727883
393 -6.21743 -6.26029 -7.66577 -0.744457 1.1008 -1.21918
63 -3.81604 -7.61236 -8.42504 1.74295 -3.4085 -1.06791
350 -4.5453 -6.86631 -8.28246 -1.10559 0.785721 2.68005
352 -3.74461 -6.8331 -7.57215 -1.64628 -1.16449 2.11041
67 -2.23791 -7.67339 -8.24771 1.07309 1.43874 1.13676
68 -3.0312 -6.99019 -8.39153 0.51471 0.394632 1.6644
354 -2.30553 -7.06595 -7.53391 2.7114 -2.53369 1.20673
189 7.74736 -4.68967 -9.08957 1.39771 0.928689 1.79354
71 -0.894055 -7.68217 -8.44719 -1.03368 1.73449 1.62468
72 -1.71117 -6.87962 -8.56699 1.13885 -1.53616 -3.06334
5217 3.00926 0.00764006 -0.224704 1.10237 0.975149 -1.57012
76 -0.131381 -6.96415 -8.56773 -1.20831 -0.214419 0.39704
361 -0.165988 -7.53083 -7.61824 0.567483 -1.66147 0.356508
3747 -8.34398 -0.0735127 -7.10975 1.54973 -0.160466 2.96993
75 0.729103 -7.87702 -8.48322 -0.139769 0.129719 1.79518
80 1.30267 -6.91655 -8.40429 0.895758 1.15932 1.19605
365 1.37726 -7.61033 -7.67277 1.00604 -0.965225 -0.645503
587 -5.23509 -9.10472 -5.34513 3.34271 2.66314 0.585664
84 3.12152 -7.07035 -8.60341 -2.65242 0.184223 -1.24566
366 2.13381 -6.97994 -7.79687 0.726905 -0.117699 -1.65596
295 -6.96654 -9.11289 -6.81247 -0.138829 -1.20788 0.145613
4061 1.69474 0.0228582 -6.20315 -0.828753 1.83962 1.84948
88 4.66405 -7.11708 -8.27982 0.571856 -0.491571 1.25012
421 4.53434 -6.12445 -7.70745 2.58113 0.323323 1.89701
131 3.82761 -6.15557 -8.44967 -1.00784 2.21941 -0.031606
893 1.59733 -9.145 -4.51841 1.67545 -0.595124 -2.31746
92 6.16139 -6.82329 -8.45605 -0.824981 -1.02297 1.1494
374 5.40237 -7.17739 -7.78841 -1.4019 1.34075 1.89326
85 4.67569 -7.61694 -9.15246 -2.34453 0.426988 -0.269922
422 5.29433 -6.22786 -8.43458 4.0321 0.359822 1.11278
425 6.0892 -6.25806 -7.68965 -3.56638 -0.625072 -0.630621
139 6.94798 -5.98722 -8.41324 1.70974 -2.29781 0.286116
96 7.65184 -6.63384 -8.50444 -1.46168 -1.12965 -0.00489537
581 -7.62716 -8.97482 -6.14012 0.522647 0.161831 0.0887897
381 7.42454 -7.80892 -7.85501 2.08324 0.637097 1.62542
52 9.20666 -6.65554 -8.37441 -0.65608 -0.738829 -0.929722
95 8.59478 -7.46323 -8.45035 -1.06102 -1.05751 0.783749
382 8.45062 -6.94243 -7.71781 -1.35285 -1.32432 0.354493
99 -8.35068 -6.12409 -8.5053 1.6982 -0.506171 2.77415
104 -7.75779 -5.24201 -8.54076 -2.52408 -2.03699 -0.147674
386 -8.29833 -5.39556 -7.62564 -2.86288 0.85859 -0.175183
385 9.0015 -6.20387 -7.46018 1.00035 0.742704 0.278733
1842 -2.41259 -5.33629 -0.0330353 1.13412 -2.03853 1.68357
151 -7.01709 -4.48421 -8.41981 0.870841 -1.93293 -1.54603
437 -7.77804 -4.46914 -7.69309 3.55687 0.932944 0.141868
107 -5.34148 -6.12663 -8.02841 -0.691073 2.67002 -1.07436
108 -6.21414 -5.48318 -8.32514 -0.170705 -1.0599 1.60161
155 -5.42094 -4.79116 -8.71063 -2.37765 -0.421935 1.67988
394 -5.30174 -5.24872 -7.70309 -1.37043 0.292172 1.26794
111 -3.83926 -6.13412 -8.27427 -0.347855 1.26515 -0.328166
398 -3.70987 -5.22569 -7.56675 -1.67663 2.09176 -2.44136
159 -3.59021 -4.69665 -8.3535 -1.22436 0.54023 -1.6272
333 7.70254 -9.14682 -7.76232 -4.86528 1.91527 3.74314
3996 -5.3672 -9.09976 -6.95956 3.7948 0.906411 0.241381
115 -2.36744 -6.23629 -8.27991 -1.45746 -0.421327 -3.53366
116 -2.95857 -5.46455 -8.21471 1.00495 0.926638 0.198541
119 -0.86918 -6.14861 -8.39744 0.170669 2.30997 -0.862192
120 -1.66554 -5.46702 -8.47151 -1.1917 -0.384 -0.200008
141 7.69716 -5.82273 -9.08546 -0.376234 -1.09799 0.470836
124 -0.250562 -5.32654 -8.1608 1.57338 0.899615 1.56737
123 0.634369 -6.20142 -8.53668 0.622014 1.23542 -1.19582
128 1.35931 -5.56914 -8.44593 0.41563 0.209786 -0.209637
611 3.72116 -9.13878 -5.38944 -0.559843 1.24121 2.50584
127 2.19684 -6.29284 -8.67434 -0.124891 1.65468 0.106817
132 3.20632 -5.40937 -8.62872 1.34493 0.257413 0.678913
414 2.1817 -5.33849 -7.88223 -0.796479 0.650983 1.57105
175 2.37689 -4.71208 -8.64477 -0.126981 1.31996 3.32759
417 3.05495 -6.15992 -7.76149 -0.76968 0.822347 -0.542247
595 -1.70678 -9.10668 -4.69404 -3.87059 -1.52796 1.9851
136 4.64188 -5.38007 -8.28581 0.585968 1.86404 2.82094
179 3.93611 -4.69849 -8.46107 1.01191 2.22603 2.43041
469 4.78466 -4.61673 -7.67045 1.58368 -0.394133 -0.0106842
473 5.38209 -5.53519 -7.70862 2.08586 -2.7627 1.16276
1953 3.06473 -3.27698 -0.162324 -0.915353 -2.1058 -2.5483
245 -7.48256 -1.62503 -9.1304 -1.33862 -0.51184 -0.284581
1187 3.90101 -8.92927 -2.26854 1.27675 0.971752 2.09965
140 6.10561 -5.32327 -8.3997 2.76461 0.715542 -3.87448
429 7.76407 -6.23423 -7.62025 -0.624006 -0.504158 1.093
144 7.62421 -5.37002 -8.10262 -1.44051 -1.39135 0.192923
187 6.96961 -4.76707 -8.54791 0.963481 -1.63122 1.38129
143 8.42849 -5.84433 -8.3881 0.725918 -4.75896 -0.402806
100 -9.12115 -5.52518 -8.21498 -1.27967 -2.22136 2.88422
430 8.44601 -5.40436 -7.50778 2.26561 3.20206 -0.502769
146 -8.38004 -4.49571 -8.46025 0.593437 -1.26659 -0.250406
195 -8.4238 -2.93812 -8.46318 0.725201 0.414528 -0.545594
433 9.1551 -4.58939 -7.58637 -0.82693 1.35535 -0.0114982
148 -9.17738 -3.94012 -8.48429 -1.01748 -4.85749 -0.754566
434 -8.62243 -3.85431 -7.59257 1.17158 -3.04642 1.2403
150 -7.67824 -3.64434 -8.24567 0.390681 0.98564 0.162764
301 -3.87804 -9.24135 -6.82551 0.296889 -2.41676 1.5928
190 8.42169 -3.85012 -9.12677 -0.716508 -2.63255 -0.703542
438 -5.97794 -3.68594 -8.4701 -1.02471 -2.79919 -0.102844
4079 9.15959 -0.0486247 -4.50785 -0.609793 -2.24326 1.10437
112 -4.64274 -4.62948 -8.04343 -1.78476 0.0203631 1.06366
160 -4.58184 -3.65829 -8.50596 3.33057 -0.483315 1.70577
446 -3.91784 -4.0392 -7.75028 1.05283 2.06741 2.30007
46 8.31553 -8.56077 -9.15443 -0.208173 0.938332 -2.90422
82 4.01728 -6.87943 -9.04759 -0.113902 -0.106588 0.17588
1853 1.84631 -6.05031 -0.256248 -0.310719 -2.69031 -0.139705
163 -2.45815 -4.62391 -8.47515 2.14084 0.56709 0.683339
449 -3.01241 -4.40505 -7.52279 -2.68116 0.641537 -2.94156
164 -3.07305 -3.81463 -8.44419 -2.00661 1.71999 1.90605
211 -2.27408 -3.10241 -8.56341 0.787556 -1.34128 -0.542772
168 -1.5817 -3.80883 -8.34573 2.47221 -1.6499 1.79216
501 -1.40796 -3.09533 -7.69776 -0.277241 1.38965 0.0422173
215 -0.568101 -2.9632 -8.50098 0.150192 -0.941829 -0.0235918
64 -4.5226 -5.50272 -8.54675 -0.105211 2.30828 1.26407
592 -4.67987 -9.21099 -4.58236 0.585028 -0.865642 -0.794872
167 -1.03857 -4.69228 -8.30664 0.525121 1.20262 -1.09513
454 -0.759641 -3.68514 -7.91636 0.370895 0.333749 -3.42248
172 0.0206152 -3.94225 -8.6087 2.57677 0.872681 -1.67927
907 6.71449 -9.2053 -3.81812 -1.79554 0.387892 2.555
315 0.816078 -9.23355 -6.93856 0.708348 -2.87956 1.45554
171 0.716364 -4.68091 -8.39338 -2.84399 -0.577494 -3.38915
176 1.47825 -4.01415 -8.56954 -0.726377 -0.851878 -0.301075
458 0.810713 -3.9114 -7.89772 -0.848343 1.65416 1.79321
1443 -8.62719 -9.17302 -0.73512 0.471483 0.353126 -0.249693
180 3.13258 -3.81536 -8.45886 2.18517 1.7675 0.89685
223 2.27289 -3.08086 -8.59067 2.65513 -1.14994 -4.18128
197 -7.53005 -2.99296 -9.01809 -0.840248 -0.522182 0.295298
184 4.662 -3.97733 -8.42068 1.99308 1.88807 -0.555786
285 7.83883 -1.53093 -9.16793 0.0147132 1.80684 -2.91611
901 4.47459 -9.09788 -4.57394 -4.64265 -2.26172 2.52685
183 5.44507 -4.53319 -8.48829 1.26041 -0.940792 1.63043
188 6.15423 -3.86087 -8.2832 1.15306 3.06956 -0.581449
518 5.4706 -3.09493 -8.5815 -1.25507 -0.196838 -0.382603
34 3.99873 -8.36258 -9.13645 1.99657 1.05026 2.16132
470 6.21283 -4.66064 -7.49807 -0.375421 1.68024 -0.625763
192 7.74584 -3.94643 -8.40307 1.55042 0.453573 2.26912
474 6.96155 -3.89563 -7.74004 1.39859 1.64257 2.6803
899 3.80585 -9.18777 -3.93775 -1.55524 -0.842707 1.20416
481 9.21937 -3.03004 -7.70825 1.44963 1.73606 0.941429
191 8.47915 -4.73718 -8.34234 -0.667476 -4.96074 0.439068
239 8.3699 -3.10804 -8.46504 0.85657 2.09832 -0.0494727
196 -9.12681 -2.15945 -8.27149 0.167526 2.28435 -0.695973
482 -8.42027 -2.20195 -7.55388 -0.926689 0.463376 -0.0730971
485 -7.69642 -3.0142 -7.53205 0.0873929 0.515304 0.904034
200 -7.44221 -2.33816 -8.33092 -0.750795 -1.29698 1.19812
199 -6.71842 -3.09363 -8.31144 -3.39896 -1.15125 0.386919
21 -1.59459 -9.14954 -9.12331 1.64717 -0.679581 2.17024
203 -5.38192 -2.92352 -8.52671 -0.311968 -0.355779 -1.70274
204 -6.03242 -2.29419 -8.6018 -3.69571 -0.411178 0.857999
251 -5.27766 -1.4561 -8.5867 1.22749 0.414197 1.86142
1445 -7.58894 -9.21323 -1.61745 -0.600334 0.350123 2.51545
93 7.68068 -7.64589 -8.83094 -0.569084 0.987868 -0.407252
207 -3.72141 -2.98805 -8.42379 0.547542 0.932454 -1.25871
208 -4.54787 -2.39347 -8.39127 0.34218 -0.653191 -1.61775
255 -3.91149 -1.58439 -8.53817 0.192363 -0.790178 -3.06177
58 -5.32657 -6.68957 -8.88155 1.05917 -2.47067 -1.94494
4365 8.66087 -0.0343448 -5.40833 -0.00210145 -0.622688 -1.70131
212 -2.96908 -2.33238 -8.49211 0.912428 -2.23996 -1.28842
545 -3.17471 -1.66055 -7.79574 1.57952 -2.08995 -4.39981
97 -9.10109 -6.05186 -9.13271 0.52004 -2.64784 -1.05577
77 1.58523 -7.74014 -9.22292 2.98821 0.148365 -4.44691
216 -1.49243 -2.35972 -8.50775 -0.585862 -3.75215 1.02229
263 -0.771702 -1.5567 -8.53476 2.95229 -1.36689 1.46217
3465 -6.10509 -0.0465759 -9.00697 -0.272901 -1.57343 2.39544
1483 6.95104 -9.16583 -0.697999 -0.437329 -0.240208 -0.249978
220 -0.00450855 -2.10364 -8.41471 0.313032 -2.78426 2.16536
506 0.789872 -2.32755 -7.85134 2.32963 -1.37911 2.42256
505 0.0551343 -3.06469 -7.84097 0.343859 -0.0957619 -0.00324896
219 0.935686 -3.09183 -8.66239 2.28107 -0.4897 -0.568465
224 1.47884 -2.28633 -8.61289 0.173509 0.383427 4.46477
265 0.0160834 -1.39836 -9.14618 1.04213 -0.205789 0.747848
513 2.96869 -3.05078 -7.90419 1.09273 0.512809 0.320631
601 0.201908 -9.18099 -6.10894 1.30131 -0.0869266 -2.33849
228 2.88872 -2.30463 -8.53239 -1.41522 -2.07302 0.804371
271 2.13493 -1.59994 -8.4271 -1.11322 1.66485 0.17762
3783 5.49614 -0.0414292 -6.82668 1.16954 -2.45976 -0.728243
1954 3.81813 -2.49138 -0.101236 0.0346822 1.43597 -1.46832
227 3.92368 -3.0498 -8.4165 2.73861 -0.834789 0.979341
232 4.72311 -2.37221 -8.52018 0.72055 0.63169 0.216892
280 3.86357 -1.74768 -8.43032 0.690579 2.07886 0.631075
514 3.97218 -2.37033 -7.41896 -3.11708 1.25068 -0.662043
236 6.07633 -2.18646 -8.37906 1.09043 1.39512 0.050034
279 5.4568 -1.45046 -8.64619 2.83521 -1.24272 -1.48769
1929 -6.29773 -3.22123 -0.217276 -1.69021 0.565418 -0.752231
565 5.3002 -2.34497 -7.5794 -1.13788 0.234584 -0.929311
1959 4.61733 -3.10824 -0.0848721 4.10441 -0.825319 0.335905
521 6.17906 -2.99882 -7.5719 1.52331 -0.666915 0.744546
235 6.8963 -2.99051 -8.25592 2.27694 2.81393 -0.531757
240 7.75998 -2.24213 -8.47505 0.596521 -0.388224 -1.55814
283 7.17923 -1.42785 -8.25693 0.441493 -1.45244 1.13477
525 7.71339 -3.10411 -7.64793 0.666427 0.233648 -1.8053
522 6.98777 -2.24119 -7.60341 1.12637 -0.176112 -0.970396
529 9.10517 -1.54979 -7.49549 0.561099 1.85874 0.131812
526 8.42669 -2.3652 -7.63869 0.70295 -1.20075 0.530049
1958 5.27377 -2.37859 -0.101524 2.35077 0.578751 -0.736552
243 -8.22138 -1.50164 -8.29515 0.416107 0.466385 1.49837
533 -7.37425 -1.54676 -7.42419 0.407977 -0.745365 3.76576
307 -2.29668 -9.14159 -6.91714 2.25465 2.23603 2.35372
286 8.64633 -0.803085 -9.15103 2.44134 2.88356 -0.426016
247 -6.75976 -1.50317 -8.40402 0.969997 2.7988 -1.90801
248 -7.53103 -0.886412 -8.13369 -1.38854 0.866045 1.18886
534 -6.68911 -0.481714 -7.52898 -1.6142 -1.75522 -0.84608
5221 4.61189 -0.0269397 -0.0881301 -0.246777 -0.298308 0.48025
1754 0.75771 -8.56334 0.0224264 0.969827 2.12365 1.28297
252 -6.09559 -0.814942 -8.40774 -1.62653 -0.85001 -0.628482
538 -5.42757 -0.629901 -7.67023 2.21847 0.782116 1.88115
3759 -3.93085 -0.0306212 -6.74745 -1.08885 -1.83917 -1.60584
887 -0.710625 -9.24671 -3.83926 0.844424 -2.40132 0.860461
256 -4.85045 -0.607077 -8.48853 -2.53681 2.05602 -0.466769
2002 3.83622 -0.848176 -0.287135 0.35665 1.309 -2.22435
15 -4.03699 -9.22197 -8.42412 3.77906 -1.22916 -1.8524
1165 -4.53616 -9.15319 -3.10013 -0.0166598 -0.469507 -1.43545
259 -2.21045 -1.68023 -8.53427 0.116732 0.436724 -2.03978
260 -2.93781 -0.881846 -8.44089 0.370952 -1.0347 -0.833426
546 -2.38379 -0.940219 -7.68137 -2.48998 1.58035 0.695458
4073 6.1548 -0.195798 -6.21523 -1.49796 2.09319 -0.160129
3771 0.771142 -0.0267627 -6.98699 -1.43639 0.194701 -0.1707
1961 6.12919 -2.9781 -0.0928965 1.95993 0.313604 -0.934424
4913 -2.98376 -0.0891276 -1.5917 -2.30846 2.9232 -0.878181
264 -1.6441 -0.820415 -8.54036 0.454972 -0.150625 -1.65238
549 -1.69002 -1.60844 -7.57199 0.2431 -2.25776 -0.602896
1487 8.40632 -9.08118 -0.629499 -0.524958 0.703665 -0.956881
268 -0.00179219 -0.714023 -8.44348 0.0675381 -1.16536 0.245072
553 0.127112 -1.41489 -7.67863 -0.864787 3.13355 -1.70295
4065 2.88736 -0.0835714 -6.36203 -0.00295906 -3.62579 -0.488443
267 0.919088 -1.41108 -8.36742 0.137361 -3.03291 -2.195
272 1.54344 -0.69275 -8.35647 -2.24239 1.64436 0.668284
554 0.714594 -0.642909 -7.74291 0.0188965 1.08091 -0.0753079
599 -0.873865 -9.25529 -5.29005 -0.976561 -2.73273 0.665635
276 2.86521 -0.846815 -8.35811 -1.18605 1.57465 -0.698113
241 -8.97489 -1.44419 -9.08681 -1.1219 -1.137 -1.2617
566 4.55283 -0.927414 -8.30709 0.235472 0.528738 -3.24101
275 3.65683 -0.887013 -7.64139 -1.62066 1.08165 -2.70843
3491 3.929 -0.169249 -8.3927 -1.28054 0.726616 1.95443
153 -6.18926 -4.64377 -9.20947 1.21286 -0.690546 -0.0462022
3499 6.99854 -0.00679519 -8.55114 -3.37921 1.77031 0.422432
4643 3.75172 -0.138956 -2.31981 -3.80691 -0.514596 0.157687
284 6.37247 -0.793932 -8.52614 1.17148 -1.61219 -0.722875
569 6.3339 -1.47928 -7.65698 0.814303 3.00916 0.11773
149 -7.63562 -4.47366 -9.17205 1.70553 -2.84915 -2.93555
226 3.72426 -2.38383 -9.07577 0.235505 2.14087 -0.498988
288 7.75957 -0.701496 -8.52383 -3.21192 0.45642 -1.08988
287 8.40439 -1.38162 -8.30105 3.12676 -1.45098 1.45259
244 -9.18856 -0.832913 -8.35628 -3.55926 -0.137529 -1.26751
290 -8.49559 -8.35419 -7.67176 -0.842227 -2.39107 2.86402
578 -8.52292 -8.51998 -6.28087 1.17711 -2.24352 2.34126
4627 -2.31831 -0.0896265 -2.48585 -1.71209 -2.58039 1.48395
296 -7.71866 -8.3593 -6.94687 1.98232 -4.35752 0.551288
294 -6.95617 -8.43954 -7.64399 0.492426 -0.699332 -0.407869
343 -6.86398 -7.85444 -6.94627 1.22695 -0.369775 1.12109
1893 -1.50135 -4.63201 -0.205949 -1.62805 -0.335535 1.55706
173 1.49414 -4.87302 -9.13405 3.53846 1.89304 -0.496666
300 -5.97547 -8.22343 -6.91476 0.481933 0.0374749 -3.96885
586 -5.36583 -8.41957 -6.19018 -0.553212 0.637101 -0.00276821
633 -6.12899 -7.77189 -6.12313 0.965482 -1.99537 2.90276
347 -5.19457 -7.6989 -7.14017 1.26145 -1.58936 0.264539
302 -3.92334 -8.53598 -7.59731 -1.51614 1.64923 0.577059
349 -4.55843 -7.73732 -7.86801 -1.33292 -0.615975 0.234591
304 -4.49832 -8.39043 -6.79971 1.79897 -2.065 -3.25211
1926 -6.79767 -2.42974 -0.180629 -0.0554695 0.887055 -0.352374
3495 5.34434 -0.238051 -8.39795 -1.40758 -2.57684 -1.24005
306 -2.41244 -8.54814 -7.73421 1.73304 -2.9774 -0.945977
308 -3.15537 -8.39373 -6.92526 0.540035 0.716844 -1.47223
879 -3.68748 -9.17818 -3.72735 0.55098 -0.666456 -0.890706
266 0.827148 -0.721329 -8.94716 -1.83972 1.13583 -1.19768
312 -1.56078 -8.4939 -6.74088 3.51714 -1.55549 2.63301
4329 -6.3167 -0.0424813 -4.68053 -0.258399 0.920286 -0.333981
359 -0.703809 -7.70625 -6.82103 -0.376455 -3.64162 0.394142
316 -0.0791037 -8.43138 -6.76972 2.05428 2.50733 -0.224167
598 -0.680189 -8.42471 -5.96362 2.14727 -0.808064 0.647116
238 8.78145 -2.1305 -9.07788 0.648909 -0.409111 5.81435
320 1.39523 -8.37351 -7.02408 0.379322 -2.5457 0.546959
602 0.703895 -8.27102 -6.22402 1.11817 1.84494 0.00999819
7 -7.01299 -9.15669 -8.45049 2.26244 1.76412 2.42767
318 2.10309 -8.2834 -7.84305 1.5101 4.80432 -0.567121
369 3.01227 -7.75966 -7.66792 0.720959 0.790088 -1.23435
324 3.03193 -8.53936 -6.86117 4.42463 -1.86953 -1.27662
654 2.25649 -7.6066 -7.03918 -1.70409 0.520648 2.68147
2013 7.64417 -1.53214 -0.0793069 1.17781 0.805723 -0.616941
322 3.81044 -8.76743 -7.69822 1.25087 -2.65041 1.52447
328 4.19962 -8.65404 -6.85 -1.46584 0.358968 -2.85844
373 4.56653 -8.1003 -7.569 0.482287 0.607459 -1.18735
1925 -7.42075 -3.25387 -0.184737 -0.167991 -1.46115 -1.29398
326 5.50514 -8.31976 -7.85745 2.49233 -1.9031 -0.164431
377 6.30802 -7.64852 -7.6341 1.10958 0.558651 2.26365
332 6.24842 -8.41984 -7.03575 0.881953 1.23026 3.74474
665 6.24592 -7.76416 -6.08891 -2.79617 0.323664 -0.827506
330 6.79945 -8.65204 -8.02468 1.80756 -1.43834 1.27912
137 6.14909 -5.94643 -9.09741 0.0506889 -1.71941 1.75804
618 6.80635 -8.65001 -6.20595 0.917309 -0.412273 0.300561
379 6.97713 -7.73819 -6.93998 -0.348089 -1.3259 4.58683
336 7.55129 -8.59652 -6.84571 -1.25579 -0.532093 -1.74441
292 -9.23709 -8.50152 -7.00135 -0.972098 -1.85811 4.21189
73 -0.154107 -7.83217 -9.16737 -0.270475 2.0339 0.840092
338 -8.3977 -6.94764 -7.78754 0.645381 -0.249802 -2.65657
339 -8.2714 -7.55922 -6.63197 -0.340087 2.48105 0.816813
626 -8.09601 -6.8536 -6.07553 1.23411 -2.88836 -1.10086
340 9.08033 -7.08382 -6.98937 -1.33174 1.26536 -2.0484
344 -7.47496 -6.80881 -6.87814 -1.09941 0.849499 -0.119214
342 -6.92261 -6.97392 -7.70834 -0.481967 1.53745 -2.33978
630 -6.79448 -6.83236 -6.27019 0.886723 2.5259 -1.97971
389 -7.53975 -6.02108 -7.85513 1.81033 0.670918 0.170988
391 -6.92148 -6.01548 -6.95284 3.79182 -2.07776 1.35848
348 -6.03616 -7.02984 -6.87616 -2.26479 -1.87123 -0.368875
637 -5.37442 -6.85278 -5.92361 -0.940374 -1.00002 0.251206
397 -4.48936 -6.00333 -7.56002 0.547749 -0.0632835 1.77579
351 -3.8212 -7.60765 -6.99638 0.907615 -0.539777 -0.815953
634 -4.5929 -6.92899 -6.98229 1.23505 4.1961 -2.46623
638 -3.94193 -6.88207 -6.2835 3.32491 -1.09318 0.805957
685 -4.61974 -6.03593 -6.3322 -0.465453 -2.41362 -0.539358
639 -4.65332 -7.66876 -6.15664 -1.68555 -1.51167 0.691853
353 -3.15242 -7.76131 -7.60415 -0.928382 0.294266 2.19234
355 -2.44711 -7.77825 -6.81709 0.988294 0.9662 -0.532726
356 -2.99615 -6.85765 -6.78043 -0.868474 -0.149325 -2.04758
641 -3.08984 -7.55596 -6.03902 -0.163694 0.267014 2.61113
357 -1.32793 -7.87349 -7.54533 1.02472 0.459607 -1.68455
360 -1.52772 -7.0519 -6.83692 -1.52874 0.734269 -0.338235
645 -1.3994 -7.70892 -6.05253 -0.073151 3.07832 0.415778
358 -0.850287 -6.86608 -7.58557 -0.107332 -1.35753 -2.27709
409 -0.277565 -6.06705 -7.44086 0.644193 0.0957897 -1.97404
364 -0.294744 -6.74119 -6.72066 -0.100777 -0.573069 -1.78017
363 -0.104703 -7.67453 -6.11639 0.0209762 1.15374 -2.2942
646 -0.788044 -7.08522 -5.87255 -0.0346383 -3.43396 0.120483
653 1.40576 -7.56029 -6.2395 -1.27766 -1.79278 0.610492
362 0.567132 -6.73187 -7.76547 -1.45765 2.99148 1.88221
314 0.641119 -7.46345 -6.99586 -2.74945 0.630588 -0.275274
368 1.43135 -6.79346 -6.89565 -2.77012 0.62384 2.90063
650 0.647667 -6.88629 -6.27937 0.519385 2.00228 -3.20278
372 3.10251 -6.95287 -7.04827 -0.292906 -0.962119 2.09825
370 3.84114 -6.93622 -7.76142 -0.271271 0.60616 0.817499
661 4.60105 -7.70759 -6.20371 2.01858 -1.18276 -0.289285
371 3.79334 -7.80845 -6.98158 0.268379 0.623774 -1.84789
376 4.46464 -7.15615 -7.09072 0.0276579 0.845425 -1.27282
419 3.92699 -6.2978 -6.98292 -1.20309 -0.601035 0.424283
375 5.1742 -8.13491 -6.88185 -0.54968 -1.61104 -1.40828
380 6.21455 -6.95227 -7.03372 -1.40803 -1.38672 2.79631
662 5.33635 -7.14737 -6.50213 0.835665 -0.488871 -0.587212
378 6.95802 -6.93191 -7.74267 -1.53828 0.050007 -2.30659
666 6.99921 -6.98258 -6.13596 -0.4556 0.606683 0.837884
384 7.89162 -7.09003 -6.99133 -1.46815 -3.41831 -2.35177
383 8.46888 -7.98528 -6.98202 -1.65422 -0.815096 -3.3356
670 8.41339 -7.08295 -6.26192 1.5652 1.03071 -0.436003
673 -8.87044 -6.01018 -6.34469 0.834369 -0.858203 -0.964927
387 -8.18297 -6.24173 -7.08624 0.818225 -1.9829 -0.132157
388 9.09323 -5.29041 -6.84112 -0.54467 -0.334811 -1.58924
674 -8.51667 -5.08242 -6.15167 0.0284119 -0.715728 -0.418868
390 -7.02017 -5.164 -7.72119 0.137269 -1.71986 1.57185
392 -7.65232 -5.17705 -6.91738 -1.31695 -2.13506 -3.12974
439 -6.94911 -4.4241 -6.96462 1.17956 3.94234 2.15424
677 -7.80155 -5.97611 -6.25927 -3.00975 1.44308 0.522133
395 -5.53571 -6.22116 -6.71637 -0.906907 0.405147 0.106126
396 -6.16157 -5.34596 -7.14788 1.60414 1.35809 -0.524227
441 -6.21078 -4.57368 -7.75063 -0.518489 -1.74121 -0.249152
682 -5.35849 -5.25197 -6.32225 -1.83142 -0.414016 0.817026
729 -6.15138 -4.49019 -6.23832 -0.737178 2.40591 -0.0244799
399 -3.72541 -6.10194 -6.97328 0.0576279 -3.10466 0.17193
400 -4.50974 -5.20569 -6.95054 0.225138 -1.10012 1.86871
448 -3.92549 -4.50033 -6.76611 -1.58927 1.4873 1.5118
733 -4.71772 -4.72256 -5.96029 -1.65515 0.0909837 0.872975
402 -2.21471 -5.45843 -7.57859 -2.00549 -0.747455 4.69271
403 -2.25277 -6.21584 -6.86824 -0.0126747 3.32273 1.87241
401 -3.01714 -6.12449 -7.59416 2.72787 -0.0559362 1.51562
404 -3.13967 -5.33607 -6.75994 -1.70738 0.352211 -1.55412
406 -1.0475 -5.37768 -7.59546 -2.35233 -0.437423 2.78064
407 -0.94561 -6.01762 -6.75575 -3.29361 2.40823 -1.59926
405 -1.65747 -6.37884 -7.5572 -3.24465 -0.863476 -2.05506
693 -1.64992 -6.23887 -6.07596 -4.44354 0.279528 2.22849
408 -1.66321 -5.27925 -6.77227 -2.13777 -1.33792 0.0408643
741 -1.49122 -4.55233 -6.26159 0.0311582 -0.534817 -1.13774
412 -0.205961 -5.31247 -6.84626 -1.34173 -0.0640807 -0.153697
413 1.47057 -6.14778 -7.66509 -1.52178 0.872633 1.51908
410 0.620105 -5.55985 -7.84493 -1.54918 -2.57383 -0.524783
411 0.590285 -6.1701 -6.91817 -0.531747 1.53709 2.63944
416 1.25148 -5.43348 -6.97003 0.83123 0.332241 4.60605
701 1.27682 -6.10873 -6.16826 -0.552198 1.1014 -0.645598
698 0.53224 -5.38111 -6.35202 2.6092 2.19973 -1.81289
415 2.245 -6.15961 -6.99298 0.464431 0.0304742 -2.5095
420 2.96898 -5.37691 -7.03692 -4.08173 -3.59146 1.5398
465 3.04558 -4.58678 -7.77972 -0.198969 -0.116216 0.7371
463 2.09749 -4.52643 -7.07046 -2.61462 -2.34357 0.70153
418 3.8138 -5.31288 -7.6456 0.575292 -1.05736 -1.00479
424 4.53614 -5.50484 -6.76629 1.35895 -2.5523 2.22465
467 3.80917 -4.69371 -6.83183 -1.14851 -2.78051 0.507247
423 5.41915 -6.23724 -7.04155 1.48495 -1.06674 -0.466831
428 6.04504 -5.52433 -6.91906 3.26061 -2.65559 -1.84609
710 5.28094 -5.57386 -6.26252 -1.55231 2.4932 -1.00228
426 6.82552 -5.40121 -7.59046 -1.07097 -0.116855 0.0817291
427 6.86235 -6.27136 -6.869 0.721942 1.54147 -0.737399
432 7.41587 -5.38669 -6.83712 -0.572544 -1.99238 0.775193
714 6.79349 -5.40236 -6.02301 -0.420264 -0.531631 -2.24216
765 7.65543 -4.6946 -6.15447 0.490203 0.624408 0.101882
477 7.60472 -4.55996 -7.65619 -0.83317 -1.06289 0.511174
431 8.42377 -6.14285 -6.70874 -0.874547 -0.705865 -0.399844
718 8.39333 -5.34057 -6.18663 -0.909933 -3.29953 -3.13366
435 -8.53991 -4.63961 -6.99482 -0.446535 -1.34134 0.180739
483 -8.33683 -2.95053 -6.82865 1.55256 1.73871 -2.12965
440 -7.78841 -3.7748 -6.79117 -0.356046 0.0432403 1.86738
436 8.98047 -3.98173 -6.76625 -2.10721 0.517846 -0.0149165
721 9.13192 -4.47272 -5.77226 -1.59893 -0.71571 -1.59858
722 -8.56115 -3.78407 -6.20954 2.80209 -0.180634 2.2691
152 -6.99853 -3.70761 -7.62707 -0.606899 -1.55993 -3.2806
487 -6.77349 -2.95505 -6.86745 -1.37409 -1.21602 -0.662912
725 -7.70614 -4.48409 -6.06342 -0.912764 1.54089 1.26679
442 -5.28295 -4.02579 -7.83758 -0.382655 1.69329 -1.21084
443 -5.36035 -4.53913 -7.06241 -0.944122 -3.18916 1.28127
489 -5.80019 -3.1575 -7.67507 -0.885221 0.968439 -2.05015
444 -6.09613 -3.74889 -6.96183 -1.32499 0.497516 0.441684
445 -4.71916 -3.92023 -7.05107 2.69141 -1.2898 -1.92729
495 -3.83644 -3.16469 -6.58843 1.84261 0.572364 2.09968
493 -4.51754 -3.2236 -7.6667 3.38954 -0.415848 0.202995
734 -4.03241 -3.93516 -6.06313 -1.43823 -0.61271 -1.04357
450 -2.41376 -3.43186 -7.67545 -1.19179 0.617448 1.69964
451 -2.35392 -4.62488 -6.72152 -0.102577 -0.0194557 -0.502196
452 -2.91505 -3.59895 -6.65764 0.517785 0.146266 -0.289895
499 -2.51225 -2.74102 -6.88967 -2.04473 0.114917 3.28167
738 -2.36505 -3.91349 -5.87454 -0.6978 2.80934 -1.2315
453 -1.93287 -4.49972 -7.66812 1.97198 -1.45859 -1.47621
456 -1.80586 -3.77577 -6.92253 -0.249105 2.23179 -3.42013
455 -0.919917 -4.20006 -7.15756 1.25618 1.80677 -0.238301
503 -0.751853 -3.07652 -6.97037 0.991387 -0.375227 0.861301
789 -1.72721 -3.15305 -6.20663 2.70698 -1.77253 2.08008
457 -0.0307574 -4.39251 -7.81405 1.32019 -0.277061 2.78859
460 0.158436 -3.86028 -7.09273 -0.37604 0.364405 1.58332
464 1.48225 -3.07891 -7.73485 -0.399092 0.653627 0.327062
461 1.5057 -4.7215 -7.78728 0.275538 3.15081 0.315493
459 0.625068 -4.62824 -7.08718 0.0711658 -0.673814 -0.20047
746 1.29733 -3.91192 -7.04322 -2.53664 -0.0879614 0.3824
749 1.38166 -4.50023 -6.24046 0.437926 -0.319229 1.40416
462 2.21622 -3.89761 -7.9318 -0.0111172 -3.71324 -0.199917
468 3.01909 -3.79772 -7.11821 -1.05099 0.798492 -0.461456
511 2.15019 -3.1619 -7.0801 -1.02048 0.0470772 2.13199
466 3.93593 -3.90257 -7.62681 0.699017 -2.47882 0.398182
517 4.7473 -3.12078 -7.74881 -0.442269 -2.1476 1.57316
472 4.68594 -3.98928 -6.73463 -3.24983 0.0146783 0.326482
515 3.86862 -3.18598 -6.88761 -0.744033 2.40034 -0.114638
471 5.40515 -4.67867 -6.90025 -1.34138 0.0601839 -0.733404
231 5.43305 -3.78561 -7.56206 4.11832 -1.99117 0.413238
519 5.21678 -3.1252 -6.82619 0.419344 2.56279 -1.61319
758 5.43589 -3.80671 -6.12307 2.53138 -0.815863 2.63847
761 6.19782 -4.54803 -6.00864 0.52823 0.795241 0.434434
475 6.87185 -4.58012 -6.82058 -1.54887 1.92416 -0.678727
476 6.2483 -3.83866 -6.99942 -2.92815 0.830515 -0.222221
480 7.71881 -3.85767 -6.86454 0.915997 0.596767 0.924176
762 6.91952 -3.7634 -6.23698 -0.303768 0.351935 -3.30152
479 8.21749 -4.6898 -6.87944 0.341443 1.9471 0.00830282
478 8.53654 -3.79848 -7.72847 -1.89828 -0.237562 2.34307
766 8.418 -3.79718 -6.02593 1.15844 2.62197 2.75663
527 8.38778 -3.0248 -6.84507 -0.88592 0.329587 1.42353
769 9.21587 -3.07253 -6.10522 1.75613 -1.30525 -0.543289
531 -8.32234 -1.55155 -6.79071 0.43328 3.0697 1.89047
770 -8.53831 -2.39052 -6.03621 -0.477319 1.10853 0.301297
488 -7.5074 -2.29163 -6.84089 1.5137 2.01557 -1.00822
486 -6.76402 -2.22033 -7.74129 -0.337856 -3.31975 -0.326233
492 -6.06471 -2.22204 -7.09278 0.32557 -3.0701 -0.846579
774 -6.75028 -2.4055 -6.00389 0.978757 0.811316 -0.836384
491 -5.24241 -2.90974 -6.91424 -2.01076 -0.0402792 1.75873
490 -5.21813 -2.2224 -7.74717 -0.271997 -1.25541 -0.317849
778 -5.36269 -2.28782 -6.0969 1.19436 -3.46743 1.38868
825 -6.16826 -1.49629 -5.89557 -0.917422 -3.86009 1.86703
777 -5.98914 -2.99857 -6.14178 1.10901 -0.713891 -1.02331
494 -3.92494 -2.19352 -7.65781 2.16541 -1.20946 2.13559
496 -4.68375 -2.06054 -7.00584 0.388996 -0.892801 3.18366
543 -3.90997 -1.45441 -6.76897 1.18232 -2.0926 -1.57951
497 -3.3892 -3.18141 -7.50863 -1.14413 0.0582702 -1.71343
498 -2.19092 -2.43151 -7.8343 -2.23879 -2.38524 -0.232696
500 -3.38431 -2.31594 -6.91478 0.672784 -0.795349 -1.00757
785 -3.06498 -3.07208 -5.87983 2.73606 -1.12731 -0.230223
786 -2.46443 -2.3379 -5.89072 -0.36753 -2.11252 1.05479
504 -1.61213 -2.3339 -6.74981 1.82378 1.23051 1.21293
551 -0.732105 -1.51372 -6.90301 -1.47546 -1.07941 -3.21916
502 -0.823589 -2.1061 -7.6668 2.38507 1.60089 -2.63387