ITEM: TIMESTEP
84000
ITEM: NUMBER OF ATOMS
6912
ITEM: BOX BOUNDS pp pp pp
-9.2265715179435492e+00 9.2265715179435492e+00
-9.2265715179435492e+00 9.2265715179435492e+00
-9.2265715179435492e+00 9.2265715179435492e+00
ITEM: ATOMS id x y z vx vy vz
51 -8.39934 -7.48331 -8.54144 0.491281 -0.593317 0.164857
2014 8.48874 -0.725869 -0.0696997 0.43451 0.312954 0.17336
8 -7.46652 -8.38707 -8.55888 1.55944 -1.27506 -1.35219
55 -6.73403 -7.57884 -8.36391 1.42254 1.01436 0.199056
69 -1.59342 -7.67917 -9.09615 1.19109 0.399058 -0.461204
12 -6.15833 -8.44443 -8.48195 -1.00711 -0.27834 0.283596
345 -6.05643 -7.66191 -7.60798 -0.296449 2.63959 0.170476
62 -3.61397 -6.98863 -9.20998 -3.20527 1.42292 -1.78419
4343 -0.750393 -0.113824 -4.0164 -0.162609 -0.631094 0.812918
298 -5.34588 -8.4707 -7.59723 -0.978073 -0.72654 -2.48632
31 2.23959 -9.11639 -8.53482 -0.461575 1.94644 0.824109
16 -4.74326 -8.29886 -8.40008 -0.114362 -0.781335 1.25707
63 -3.7697 -7.41694 -8.38832 -0.0433488 0.876472 0.712733
897 3.10858 -9.17991 -4.60733 3.88595 1.53352 1.07039
90 6.71324 -6.89131 -9.187 -3.03536 -2.39667 -0.956444
349 -4.61898 -7.47723 -7.7096 0.373327 1.81435 -0.957897
142 8.52653 -5.37516 -8.98388 -0.352682 0.52051 2.82972
20 -3.2494 -8.34662 -8.3579 -0.862563 -1.37502 -0.862712
1845 -1.53842 -6.14191 -0.0915618 -1.6699 1.18504 1.87955
281 6.24135 -1.36309 -9.1376 1.87092 2.28744 1.2482
3 -8.45299 -9.16937 -8.38069 0.858225 1.12857 -1.32978
24 -1.52122 -8.3902 -8.4743 1.77669 0.881546 -1.54336
157 -4.37429 -4.66492 -9.14411 -2.16998 -1.58754 0.665204
303 -3.80942 -9.21593 -6.78911 -0.734364 0.119267 0.882627
71 -0.70201 -7.82261 -8.42022 4.06778 -0.67016 0.422305
28 0.168276 -8.37043 -8.51163 -1.73391 0.271147 -1.86142
310 -0.8084 -8.43742 -7.67663 -0.237018 1.37588 0.520753
32 1.61248 -8.25678 -8.37621 2.93569 1.15442 -0.162995
75 0.718561 -7.5573 -8.31272 -1.53543 -3.09706 -0.56554
102 -6.82414 -5.07575 -9.12322 0.0547972 -0.132576 0.57385
36 3.1542 -8.31857 -8.50881 0.313316 0.513385 -0.513439
369 3.18631 -7.61923 -7.76588 -0.80922 -0.674149 -2.55998
70 -0.865215 -6.96068 -9.04205 1.46092 -1.53256 -1.17301
40 4.65863 -8.32545 -8.45089 2.23184 -2.58892 -2.11167
44 6.07944 -8.31159 -8.57812 -0.370129 -2.4726 -2.32447
87 5.29064 -7.58638 -8.41211 0.258242 1.02591 -1.56496
170 0.590759 -3.8919 -9.09971 -3.62973 1.44057 -0.079288
48 7.80061 -8.40483 -8.441 0.839389 -0.475615 -0.886904
2013 7.67381 -1.46142 -0.123288 -2.13149 -1.30251 0.503567
4 9.14829 -8.2859 -8.54837 -1.02476 -1.92403 -3.00061
95 8.451 -7.66138 -8.52024 1.42265 -0.0464423 -0.202649
1157 -7.7309 -9.16121 -3.08867 0.310895 0.612693 1.23788
99 -8.37101 -6.12897 -8.34727 -0.000214924 0.315921 3.29405
4061 1.47783 -0.0383353 -6.34667 2.31821 -1.11322 -1.476
56 -7.59786 -6.85701 -8.56034 3.43944 1.27857 1.51301
61 -4.60574 -7.57299 -9.14897 -0.969838 1.58037 0.993198
59 -5.49822 -7.60645 -8.41714 0.675453 -0.763347 0.205427
60 -6.04359 -6.71923 -8.40854 0.84962 -0.8131 -2.72268
346 -5.30611 -6.82098 -7.77213 0.960914 -0.460036 -0.704149
1934 -3.81947 -2.24403 -0.00468658 -0.630669 -0.717291 0.465761
261 -1.5937 -1.48345 -9.18102 1.66514 -0.0330167 -2.95505
64 -4.55018 -6.74234 -8.45842 -0.629576 0.0302619 -0.641251
397 -4.54955 -6.12239 -7.68586 -0.212438 1.18143 -0.415595
111 -3.69333 -6.18832 -8.48883 -1.0577 -1.77612 0.444006
213 -1.57782 -2.98257 -9.08501 -1.72697 -0.474726 0.515074
67 -2.35881 -7.80838 -8.31203 -0.887207 1.56881 -1.15145
68 -2.83005 -6.79915 -8.26983 1.29092 -0.366109 -0.841165
354 -2.17002 -6.85593 -7.56786 -0.0672041 0.419876 0.99028
4337 -2.97612 -0.00141895 -4.53217 -0.0824239 0.538458 -0.485678
357 -1.63953 -7.75632 -7.62486 -2.75543 -0.289581 -2.48412
72 -1.52236 -7.00055 -8.25509 -1.10928 2.11537 0.63163
358 -0.746331 -6.87012 -7.52866 1.07526 0.0995962 0.165186
119 -0.975861 -6.13817 -8.36769 -2.04268 -0.115441 0.0582822
1195 6.97196 -9.13751 -2.57278 3.43063 1.27406 2.26824
3753 -6.25279 -0.072555 -7.67067 -1.43272 -1.21381 -1.06488
76 -0.0672807 -6.84012 -8.44253 -0.604246 0.117801 0.284338
123 0.768672 -6.32427 -8.51691 0.520055 -1.32929 -0.753656
409 -0.103345 -6.1576 -7.69885 0.970282 -3.15886 -0.208558
80 1.66244 -7.10077 -8.42049 1.35495 -1.35075 1.2922
365 1.54807 -7.56154 -7.62587 3.63985 -0.851535 2.67762
413 1.58511 -6.14028 -7.68602 -1.08114 -0.507862 0.865869
145 9.17887 -4.64948 -9.09192 2.16505 -0.977211 0.512797
1762 3.80902 -8.42444 -0.0608648 0.963463 -1.24509 1.01785
79 2.36603 -7.69678 -8.41425 -0.466029 -3.08938 0.459478
84 3.02258 -6.92467 -8.46741 -0.117273 -0.765878 -1.13465
366 2.16847 -6.90603 -7.67672 -0.107362 1.66435 -0.284056
83 3.88412 -7.59245 -8.63185 -0.789577 -0.656339 -0.165297
88 4.63379 -6.75762 -8.4946 -0.961252 0.346663 -1.25992
325 4.71009 -9.19315 -7.80504 -0.500216 -0.181162 -1.94171
4927 2.35628 -0.0827467 -0.745351 0.456013 0.905634 2.7869
92 6.00115 -6.7553 -8.37153 -1.08019 0.570135 0.511768
135 5.41425 -5.97919 -8.30395 -1.16696 -0.163433 1.1124
98 -8.40639 -5.4613 -9.03568 1.47168 1.16692 0.427438
11 -5.43831 -9.18521 -8.35492 -0.325525 -2.41761 -0.204901
91 6.77263 -7.58015 -8.38138 -1.69527 0.257963 -2.27029
96 7.70466 -6.70025 -8.35111 0.539226 0.533038 0.946272
1974 -7.03515 -0.662208 -0.0972075 -1.04334 -0.0353615 1.17139
597 -1.47733 -9.2172 -6.01019 -0.791753 -0.937644 -0.103234
52 -9.19922 -6.83111 -8.39601 -1.54737 0.920309 0.987815
143 8.52988 -6.15448 -8.24169 -0.783137 0.434285 -2.37045
337 -9.25561 -7.60451 -7.80702 -2.75978 1.4476 -1.8231
249 -6.2545 -1.78515 -9.09269 1.14576 0.43121 -0.0108556
4921 -0.0979515 -0.283325 -1.39651 0.26419 0.828504 -1.24744
104 -7.6251 -5.37524 -8.41503 2.07448 0.825394 -0.891725
100 -9.18827 -5.44854 -8.24386 0.200426 -0.588899 -0.260947
245 -7.58402 -1.55247 -9.02324 -0.064669 1.49382 -2.22323
103 -6.77307 -6.03508 -8.48356 -0.78026 -1.90171 0.902295
117 -1.66268 -6.36798 -9.07802 -1.39129 -1.39081 -0.551524
225 3.15142 -3.16448 -9.09416 -0.17568 1.65922 -1.14172
107 -5.25685 -6.04399 -8.38625 -0.683131 -2.86982 -0.435907
108 -5.97738 -5.27421 -8.29447 -0.228569 -0.828049 0.707571
1475 3.93882 -9.20332 -0.810882 -0.283915 0.210569 2.84572
112 -4.40085 -5.37493 -8.4467 -0.968585 0.182123 0.969001
1199 8.46016 -9.24176 -2.53684 1.55459 -0.959437 -0.614282
115 -2.16515 -6.12848 -8.22321 -2.6215 -2.23714 1.29155
401 -2.99907 -6.21893 -7.52808 1.10644 0.640693 -1.19797
116 -2.98693 -5.48545 -8.29653 -0.189778 -3.48266 2.39307
402 -2.32526 -5.39072 -7.6475 -0.944598 0.342416 -1.36482
1841 -3.07918 -6.24824 -0.103953 0.226148 -0.386196 -0.000518332
120 -1.47678 -5.35253 -8.29162 -0.781896 -0.157973 0.757279
406 -0.745122 -5.47074 -7.50327 -2.38758 0.516316 -1.06227
167 -0.597705 -4.76898 -8.3497 0.627295 -2.62205 -1.47589
453 -1.54306 -4.64455 -7.59769 1.40099 -1.40182 0.782281
124 0.146964 -5.55894 -8.46754 2.33595 -3.83561 -2.77053
410 0.69806 -5.44412 -7.72364 0.879996 -1.16525 -0.235095
4057 -0.147692 -0.0620422 -6.24046 -0.539879 -0.337969 -0.988423
128 1.4035 -5.39716 -8.39115 -0.210165 0.136829 0.268807
461 1.36655 -4.66657 -7.47964 -0.579654 1.76174 -2.21832
127 2.11152 -6.01956 -8.47404 0.938578 1.71705 -1.04838
132 2.94221 -5.34859 -8.34576 0.218893 -1.19468 -0.454154
414 2.3094 -5.3034 -7.46872 1.72362 -1.24439 -0.379889
175 2.11103 -4.71626 -8.43752 1.99917 -0.285706 3.64624
323 3.92843 -9.1938 -7.00197 0.865909 0.353889 0.0415104
879 -3.82338 -9.17171 -3.71266 -2.68012 -1.74166 -0.068345
1471 2.31739 -9.18897 -0.911023 -0.0679112 -0.0137959 0.0183431
131 3.80767 -6.05842 -8.20602 2.26937 -0.065406 2.52757
136 4.61243 -5.39034 -8.29422 0.7946 2.99209 1.26898
58 -5.28533 -6.8008 -9.16126 0.806197 1.37588 -1.07266
140 6.21355 -5.42496 -8.35537 -1.47814 -0.538833 1.61201
226 3.66529 -2.37921 -9.09947 -0.781207 -0.494596 1.65382
139 6.84369 -6.20654 -8.44649 -0.746095 1.47689 -1.99195
144 7.64872 -5.55127 -8.31079 -0.813056 0.28362 -2.68831
189 7.7242 -4.65711 -8.98919 0.953839 2.84481 -1.87722
3761 -3.06924 -0.160702 -7.73863 -0.680117 0.336945 0.799921
191 8.40607 -4.56234 -8.28532 2.59407 -1.2113 -1.9101
430 8.33905 -5.40084 -7.52464 3.34362 1.02617 -0.0887341
57 -6.01494 -7.5664 -9.15782 -0.999011 0.567699 -0.229713
147 -8.49541 -4.71545 -8.49064 -1.28525 1.10263 3.80051
195 -8.37371 -3.23647 -8.56711 0.693751 -1.60713 0.345717
151 -6.86421 -4.514 -8.2761 1.83129 1.28788 0.894464
152 -7.59744 -3.91829 -8.43976 1.37271 1.52819 1.19514
156 -6.18138 -3.87482 -8.39472 -1.5094 1.17584 0.91154
155 -5.12328 -4.5554 -8.53141 -0.538513 0.298437 0.628756
442 -5.40698 -3.78186 -7.65419 -1.35323 1.2387 1.77148
3781 4.59127 -0.239045 -7.83954 -0.468064 -0.264967 2.36773
159 -3.56329 -4.68733 -8.32229 -1.09351 -0.98403 -0.129023
160 -4.33044 -3.86948 -8.30773 -1.21681 -0.743838 0.982193
163 -2.23645 -4.52612 -8.45801 2.05523 1.01296 -0.0651419
164 -3.09584 -3.855 -8.20421 3.10312 1.91854 -1.48022
211 -2.59545 -2.952 -8.52029 0.503084 1.21943 1.29086
450 -2.29716 -4.01685 -7.48403 2.08498 -1.29907 -1.69841
168 -1.65321 -3.76167 -8.20671 -1.97073 -3.26218 -0.0827672
215 -0.624997 -3.16434 -8.36588 -3.89524 0.323461 -0.00585471
266 0.705678 -0.895547 -9.14535 -2.04392 0.879701 1.46716
172 0.0297393 -3.93583 -8.20263 2.41576 2.27284 2.35983
457 -0.00729745 -4.64575 -7.4806 1.41193 -3.38302 -0.641087
171 0.71343 -4.55494 -8.45807 0.787097 -1.87658 1.13432
176 1.37761 -3.77373 -8.46379 1.1925 -1.66921 0.551518
219 0.547199 -3.04609 -8.49673 -0.342838 -0.721365 0.534752
458 0.81824 -3.8877 -7.70034 0.0358001 -1.55679 1.03468
180 3.21375 -3.92304 -8.42781 -0.264546 -0.195356 -1.76406
513 2.96138 -3.35507 -7.66744 1.18298 0.929326 0.373441
26 0.935422 -8.43073 -9.21017 2.76954 -1.432 -2.06031
179 3.76375 -4.77557 -8.27018 0.159238 -0.777205 1.06391
184 4.5956 -3.96627 -8.34563 2.56097 -1.41679 0.960961
227 3.77717 -3.10839 -8.35722 -0.835201 -0.600053 1.42753
183 5.56364 -4.68454 -8.45539 -3.58739 -1.04559 -0.512545
188 6.19884 -3.88718 -8.47262 -1.72359 1.4474 -1.41478
521 6.10817 -3.16055 -7.73857 -2.11282 1.15316 0.4741
42 6.8796 -8.23263 -9.15627 0.112653 1.66028 -0.0701867
470 5.3413 -3.94271 -7.69094 0.579249 -0.677805 -0.620718
187 6.89214 -4.72208 -8.33172 -2.6466 0.337613 -0.471104
477 7.64085 -4.72377 -7.66014 0.825936 0.514315 0.384353
192 7.69595 -3.88083 -8.26415 -1.62266 -2.56043 -2.01595
235 6.86219 -3.0106 -8.36739 2.18835 1.04008 0.933351
525 7.84852 -3.10537 -7.66772 -0.778197 -0.53147 0.108586
148 9.23787 -3.88563 -8.38849 1.96618 0.0574671 -0.955382
478 8.66722 -3.82798 -7.52903 -0.43335 0.505624 1.2247
239 8.41331 -3.23257 -8.39706 -0.264848 -2.68208 3.81817
482 -8.51059 -2.29615 -7.93866 -2.57552 -2.47512 -1.505
186 6.99193 -3.99003 -9.02442 0.437271 1.55869 0.753109
485 -7.60549 -3.08811 -7.7001 -2.93951 2.37812 -0.561451
199 -6.90982 -3.17116 -8.35468 -0.27249 2.6127 -0.957667
200 -7.65011 -2.50013 -8.49095 1.22235 0.695505 -0.22322
486 -6.95836 -2.35154 -7.53232 -3.28012 -1.38831 1.23849
489 -6.16071 -3.01969 -7.57787 -0.467914 -1.80324 -0.868648
194 -8.45363 -2.33299 -9.07447 0.907256 0.65054 -1.72718
203 -5.24761 -3.28025 -8.51461 -0.122747 2.31323 0.724351
204 -6.15698 -2.52983 -8.37099 -1.53458 -0.0381089 0.176467
490 -5.45632 -2.33787 -7.68469 -1.24431 1.88861 1.74562
207 -3.70353 -3.08988 -8.40007 0.334906 -0.28698 -3.29728
208 -4.7631 -2.33335 -8.51019 0.875736 -0.0114569 0.373369
493 -4.5713 -3.17025 -7.60308 -1.09972 -0.86516 -2.19461
212 -3.12743 -2.21736 -8.2553 2.36511 1.54121 0.362929
498 -2.47613 -2.44476 -7.54525 -2.67659 2.02147 0.686729
278 5.38095 -0.796148 -9.22748 1.49975 1.64727 -0.680645
190 8.33713 -3.91313 -9.1621 -0.714232 1.01637 -0.0841535
216 -1.60043 -2.48197 -8.2835 0.774285 0.761788 0.837557
501 -1.67674 -3.06953 -7.52559 -0.036118 0.382445 -1.10009
502 -0.660227 -2.31455 -7.59486 -2.16954 2.27742 1.71696
263 -0.879429 -1.59623 -8.4943 -1.35701 1.09006 0.228843
4915 -2.39254 -0.0078331 -0.72132 -0.221495 0.932447 2.95053
220 -0.0842929 -2.28319 -8.3573 0.71916 0.846585 0.536295
505 0.0574152 -3.14804 -7.61756 0.318787 -1.62072 0.0896915
19 -2.30232 -9.00173 -8.39324 -0.449267 1.17064 -0.406163
3759 -3.72226 -0.153889 -6.97937 -0.347981 0.180959 1.06042
509 1.56623 -3.12264 -7.63875 -0.205718 -1.10217 -1.74746
224 1.53012 -2.33858 -8.54281 2.33296 0.336184 -0.436029
54 -6.77701 -6.7941 -9.07994 -0.245388 -1.19853 -0.530872
223 2.24961 -3.11999 -8.39302 0.0526931 -1.08177 0.261425
228 3.02418 -2.36088 -8.36709 -1.39317 0.370106 -0.497521
271 2.24463 -1.40344 -8.5855 -2.90658 1.20997 0.922397
510 2.38626 -2.46406 -7.55356 0.0575692 -0.28468 0.295071
561 2.86927 -1.64725 -7.67608 0.426466 2.43002 1.75311
1865 6.24264 -6.02604 -0.0599903 0.0571097 -0.487491 1.48905
232 4.72791 -2.21319 -8.54495 -1.32227 -1.04829 -1.05164
514 3.99827 -2.47688 -7.55959 -0.568548 2.65802 1.01958
1878 -7.0178 -3.7903 -0.115435 0.779305 0.978608 -0.084397
165 -1.44315 -4.46492 -8.96075 0.0214141 -2.14312 -1.37372
231 5.38869 -3.25473 -8.619 -0.923519 -0.00710323 -0.868775
236 6.17927 -2.30388 -8.56989 0.0305355 0.399633 0.650928
222 2.33899 -2.46316 -9.25007 -3.18006 0.386982 -2.15871
7 -6.7932 -9.20686 -8.51565 -0.1018 -1.58347 -0.623881
240 7.61303 -2.32701 -8.4854 -0.122473 0.344252 0.18214
573 7.61326 -1.54584 -7.75466 0.090697 1.20383 1.00292
3459 -8.25441 -0.0870933 -8.75131 -1.6639 -0.921933 0.0388631
196 9.06128 -2.15697 -8.38834 1.93095 0.559007 -1.26285
287 8.35272 -1.43266 -8.51339 1.26896 -1.15082 -3.06997
481 9.2301 -3.05057 -7.80695 2.58801 1.01434 -0.447886
106 -5.13566 -5.40754 -9.08403 1.31108 -1.36044 -1.265
3779 3.75204 -0.100237 -6.99096 0.179366 1.38986 0.123081
193 9.11226 -2.97686 -9.083 -0.757568 0.475117 -1.07893
243 -8.58497 -1.46047 -8.50039 -1.76956 0.486804 0.907085
153 -5.87969 -4.70151 -9.23886 1.95623 -1.30585 -0.456736
1782 -6.80314 -6.84114 0.0388433 1.55689 -0.352299 1.93804
247 -6.90704 -1.73276 -8.36784 0.0682109 3.65354 1.9012
248 -7.51594 -0.732996 -8.44265 0.268711 -2.5031 -1.00464
534 -7.00802 -0.922271 -7.56082 -3.39783 -1.95687 1.84292
1728 7.7012 -0.730974 -0.773371 2.2532 0.643543 1.26724
251 -5.47287 -1.65326 -8.56542 -1.35277 0.0939586 2.29123
252 -6.33323 -0.945565 -8.40103 -0.186197 -0.0369763 2.26368
537 -6.17736 -1.53201 -7.65689 1.27589 -0.719863 -0.102012
1 -9.05727 -9.13439 -9.19097 0.414786 -0.387128 0.56459
1485 7.67063 -9.09115 -1.60319 2.93951 3.83846 0.521922
255 -3.85319 -1.67413 -8.49834 2.39469 3.15343 -0.0506722
256 -4.67142 -0.75281 -8.72248 -0.518361 -1.70818 1.84939
1726 8.54243 -0.828466 -1.49377 2.32641 1.30007 0.105122
1469 1.52302 -9.14178 -1.45808 0.0968441 0.235048 0.931928
259 -2.23116 -1.59505 -8.41922 1.3007 0.139969 0.981816
545 -3.11249 -1.65302 -7.55334 1.10474 -0.0758334 -0.548903
260 -3.2296 -0.777061 -8.3913 1.10238 0.497663 1.29455
546 -2.17573 -0.984684 -7.6725 -0.428887 -2.0995 1.01345
264 -1.68601 -0.826708 -8.54867 0.0562935 0.87665 2.44791
291 -8.36992 -9.21115 -6.99902 0.14192 -0.221899 -0.313592
146 -8.38524 -4.04588 -9.20802 -1.74141 -1.42708 -1.83147
268 -0.0787649 -0.808509 -8.50005 -1.9128 -0.897991 -1.24056
553 -0.0117482 -1.53728 -7.62199 -0.486649 1.05313 -0.194012
82 3.88578 -6.49812 -9.09742 1.05419 -1.29734 0.0307696
267 0.664301 -1.58481 -8.3301 1.20506 -1.12801 0.168648
554 0.702848 -0.800527 -7.80796 -0.158733 -1.20148 0.340946
272 1.51954 -0.791897 -8.42221 -0.0175239 1.81464 -1.06228
557 1.69093 -1.65306 -7.87939 0.732499 -1.79207 -1.66466
4045 -4.69671 -0.207488 -6.12225 0.941748 -1.50881 -0.268034
276 3.15518 -0.889042 -8.55278 0.399125 3.24575 0.94195
558 2.2757 -0.718682 -7.80939 -0.67967 1.55891 -1.78843
1769 6.17342 -9.17451 -0.160167 0.464449 1.926 2.14645
275 3.83849 -1.68346 -8.31039 -3.52122 -1.85286 0.55616
280 4.47328 -0.89008 -8.54201 -1.11095 -2.24751 1.33743
562 3.83046 -0.898045 -7.68829 0.814358 -0.237074 2.94181
118 -0.864979 -5.44635 -9.17148 -3.09954 0.129025 -0.68804
214 -0.803642 -2.31997 -9.09168 0.435036 -2.02119 -0.613416
279 5.46094 -1.47674 -8.49572 -1.91642 1.32386 0.503496
284 5.99827 -0.675944 -8.36829 0.145538 0.750935 0.0725084
122 0.772224 -5.2553 -9.13363 2.07557 -2.72787 0.40884
566 5.46186 -0.7435 -7.51248 0.415014 -0.269445 1.34658
283 6.96803 -1.39031 -8.47752 0.0477709 -1.6027 -0.839265
288 7.62739 -0.651498 -8.44234 2.47875 1.56163 1.85194
14 -3.82976 -8.34437 -9.12896 0.540014 0.409735 -2.38082
285 7.64687 -1.56265 -9.2162 -3.7652 0.361164 -0.535956
244 9.18735 -0.723451 -8.49222 -1.27337 1.40367 -1.73758
6 -6.65065 -8.41578 -9.25045 -1.5427 -1.32251 -2.36062
4637 1.59803 0.0185959 -3.14204 -0.252742 1.2558 1.90385
290 -8.31318 -8.25684 -7.96898 -1.91294 0.124785 -1.33195
578 -8.21197 -8.46728 -6.20924 2.32963 -0.924221 1.02207
43 6.83205 -9.02086 -8.41938 0.252584 -3.95169 -0.182293
97 -9.21743 -6.07831 -8.97961 -1.75334 0.825877 -0.282919
1737 -6.22687 -9.18425 -0.170535 -0.382819 -0.886931 -2.42233
294 -6.8826 -8.37392 -7.74455 1.7686 0.317003 -1.58378
296 -7.60261 -8.43765 -7.12366 0.819644 -0.152631 -0.482109
343 -6.8569 -7.62595 -7.0997 -2.06235 3.32409 2.72661
582 -6.96946 -8.51526 -6.33712 -0.487619 1.16884 0.995687
300 -6.0167 -8.62966 -6.98637 3.10381 -0.362753 -0.975973
586 -5.21507 -8.44521 -6.22556 0.805483 -1.75989 -0.370728
4063 2.41846 -0.0860269 -5.58379 -1.70079 0.808528 0.635441
302 -3.9873 -8.4269 -7.72321 -0.991929 -0.976903 1.69398
304 -4.47184 -8.52883 -6.85862 0.505283 1.15841 -1.06574
4071 5.38157 -0.106633 -5.39508 -2.08492 1.01844 2.30052
4335 -3.66555 -0.0317998 -3.80788 0.0826806 2.17759 0.55942
306 -2.22837 -8.60171 -7.57452 -0.147059 0.542339 -1.66992
1881 -6.16854 -4.51634 -0.159313 -3.24099 -1.42328 0.309382
1723 6.94845 -1.47013 -0.843118 -0.401956 -1.25852 -1.55047
308 -3.21254 -8.28859 -6.91811 1.85239 2.15183 -0.154005
594 -2.28906 -8.61276 -6.17155 0.180371 1.57039 1.12985
46 8.46521 -8.46195 -9.16067 0.148811 -1.2034 -2.21113
161 -2.99547 -4.75327 -9.06596 -0.599092 0.781866 -0.364331
312 -1.56717 -8.77881 -6.89149 0.755579 0.319759 1.64526
598 -0.756439 -8.56611 -6.26066 0.087183 -1.55386 0.0784888
359 -0.891052 -7.7896 -6.91812 -0.00430778 0.221376 1.28734
1754 0.827223 -8.41838 -0.00777725 -0.500828 2.01882 1.10808
316 -0.0397003 -8.57855 -6.98792 2.5447 0.358794 1.36383
314 0.759787 -8.46437 -7.59765 2.47502 0.415852 0.0159569
361 -0.040459 -7.52266 -7.74041 -0.214373 -0.711771 0.817823
320 1.59996 -8.41563 -6.98286 -0.807827 0.72987 -1.20264
363 0.647947 -7.64753 -6.90427 2.75256 1.36381 -0.0164671
887 -0.817535 -9.12146 -4.02138 -0.71202 -2.09705 -0.930536
93 7.56878 -7.42649 -8.91019 -2.2252 -1.026 0.689837
318 2.30543 -8.54073 -7.74094 0.0408852 0.84825 0.788717
324 2.99597 -8.32253 -6.96582 -1.39608 -1.47565 -2.11103
657 2.90884 -7.77692 -6.22294 -1.85737 -2.56467 -0.400353
1722 6.91144 -0.736739 -1.45581 -2.50837 1.86217 -0.906767
322 3.90889 -8.40086 -7.57442 0.268554 -0.908939 0.266872
1937 -3.21056 -3.03937 -0.0905574 1.10908 -0.304022 -0.649875
373 4.61192 -7.65423 -7.62362 -1.86297 -1.15596 0.194508
328 4.66286 -8.47329 -7.02663 0.298569 -1.42056 0.0673453
377 6.17779 -7.55068 -7.647 1.62269 1.69369 -1.42212
1719 5.37519 -1.54187 -0.834844 0.76392 1.50358 0.855847
326 5.46941 -8.3847 -7.79056 -2.40474 2.30829 -2.41089
332 6.16617 -8.61387 -6.90459 1.86355 1.21801 0.819309
375 5.38345 -7.75704 -6.9109 -0.12431 -1.0164 1.22822
614 5.50301 -8.44289 -6.10346 -3.70099 -2.62017 -1.29427
381 7.61196 -7.73326 -7.72195 1.13522 0.0937855 -1.46931
330 6.6934 -8.27388 -7.70974 1.84222 1.12393 -0.936391
336 7.70145 -8.49398 -6.83743 -1.80547 -0.510464 -0.0721236
618 6.97695 -8.66133 -6.16607 1.74647 0.796513 -1.87978
379 7.00059 -7.72801 -6.96675 -0.842281 -0.5392 -1.89635
334 8.6045 -8.54396 -7.69558 1.01579 0.359676 -2.51726
292 -9.15158 -8.39923 -7.00074 -0.151173 1.42292 0.728236
338 -8.54509 -6.8934 -7.69279 -2.37267 2.0738 -0.473635
339 -8.33494 -7.81312 -7.05611 0.670071 1.43197 1.83426
387 -8.39784 -6.1662 -6.89321 2.11255 -0.523696 0.997872
626 -8.39874 -7.16378 -6.32701 4.31678 -0.610061 -0.0810128
341 -7.68235 -7.50497 -7.87261 -1.84083 1.61653 -0.153567
673 -9.1298 -6.15428 -6.19426 1.0902 -0.119332 -0.849226
342 -6.8307 -6.86841 -7.78679 -0.865498 -1.5063 -1.73606
389 -7.67646 -6.22672 -7.61757 1.55888 -0.518575 1.85609
344 -7.57695 -7.04376 -6.82977 0.804711 1.92602 1.26965
630 -6.7642 -6.86798 -6.17335 -0.433415 -2.10763 2.37694
347 -5.22833 -7.62654 -6.93034 -1.59194 1.49036 -1.31568
348 -6.18846 -6.84189 -7.03691 0.0502512 -1.51715 -2.20767
633 -5.94458 -7.83938 -6.12502 -0.368478 0.429517 -0.914758
634 -5.5466 -6.90457 -6.11506 1.34422 -0.183715 -0.372032
350 -3.79062 -6.83274 -7.49972 -0.0167073 -2.18376 -0.176969
351 -3.97178 -7.70726 -6.93765 0.558464 -1.98495 1.88849
352 -4.52845 -6.91963 -6.68902 0.545996 -2.43783 -0.300466
399 -3.92006 -6.14932 -6.73924 0.986149 -2.84611 -1.17292
638 -3.80361 -6.91402 -5.9105 -1.34827 0.167729 1.21571
685 -4.69687 -6.19088 -5.93671 -2.02093 1.953 -0.441694
353 -3.02858 -7.5812 -7.66974 1.33419 0.319162 -0.0637245
355 -2.32193 -7.76715 -6.95449 -0.24869 -2.98345 1.33225
356 -2.99366 -6.95425 -6.77057 -3.11081 -0.0125826 -2.2951
360 -1.44198 -6.89528 -6.81387 0.720299 -0.0705795 -0.813268
645 -1.35548 -7.68359 -6.06566 2.60709 0.417593 1.08536
646 -0.77217 -6.73077 -6.02229 -3.88385 -1.31876 -0.384077
362 0.923087 -6.82604 -7.76672 -1.40433 -2.34133 -0.130064
364 0.00800122 -6.91279 -6.91031 2.71778 -2.42992 0.852054
368 1.32342 -6.94941 -6.79054 -0.404578 0.00996061 2.76868
415 2.12673 -6.34844 -6.92049 2.27936 -0.653787 -0.522474
701 1.42433 -6.19059 -6.07771 -1.29426 1.26715 -3.03522
367 2.21685 -7.6569 -6.92596 0.477791 4.17594 -2.17768
372 2.97022 -6.9431 -7.02752 -0.389136 -0.871296 -1.57539
370 3.80871 -6.81178 -7.66615 -2.94401 1.12511 5.80346
371 3.85915 -7.6181 -7.02498 1.77621 -0.388325 -2.06986
376 4.57314 -6.94007 -6.79504 0.937621 -0.320784 -1.30753
419 3.55737 -6.17691 -6.8911 -0.742499 0.0722041 1.25171
374 5.46118 -6.82673 -7.57044 -1.25419 -0.138013 -2.70995
380 6.16302 -6.91819 -6.77085 -0.816543 2.54136 0.990123
423 5.36464 -6.17705 -6.73816 0.439555 0.441233 -0.214487
713 6.18164 -6.10444 -6.07768 1.73744 -0.491467 3.3739
665 6.23995 -7.76199 -6.26021 0.869445 0.55759 1.38705
378 6.89035 -6.80426 -7.57418 -1.58569 1.49748 -0.950931
384 7.71015 -7.00499 -6.90815 0.616996 -0.293655 -2.32152
427 6.91251 -6.2491 -6.79824 -0.533487 0.636175 0.750601
385 -9.17042 -6.242 -7.53091 -2.39734 3.21149 1.79834
382 8.41598 -6.96079 -7.62188 -1.1115 -0.706556 1.138
340 -9.24151 -7.0027 -6.87563 -0.963096 1.64205 1.14415
383 8.40218 -7.7299 -6.95506 -0.0105934 0.289912 -2.3489
625 -9.18288 -7.77773 -6.16317 0.513478 -0.0373314 0.155134
386 -8.44499 -5.37632 -7.59823 0.923619 0.556595 0.577568
433 -9.13503 -4.62831 -7.69013 1.97169 -1.22204 -1.43676
435 -8.46584 -4.58806 -6.7189 -0.831168 -0.990355 -0.0860409
390 -6.88277 -5.23191 -7.59862 0.593373 -0.355226 1.89974
391 -6.90895 -6.18838 -7.04423 0.362372 -0.701016 1.56829
392 -7.7257 -5.48027 -6.87697 0.349568 0.42299 -0.17938
393 -6.01393 -6.05567 -7.63439 -0.275196 1.81092 -0.394397
441 -6.04022 -4.64662 -7.54006 -1.29664 0.313578 -0.412833
395 -5.26679 -6.24553 -6.87956 0.7246 -1.61789 3.4194
394 -5.14341 -5.36432 -7.75661 -0.912602 0.48763 1.39314
396 -6.15532 -5.47226 -6.80454 0.433723 2.4897 -0.814013
443 -5.32229 -4.68575 -6.88514 0.566475 -0.539015 -2.07016
398 -3.78539 -5.54688 -7.66857 -1.58601 0.368981 1.37926
400 -4.67312 -5.43983 -6.81457 1.01262 -1.49635 -1.37098
686 -3.95476 -5.52568 -6.07309 -0.584102 1.76264 -0.435255
449 -3.06836 -4.63631 -7.34346 -0.908667 3.33017 2.76257
403 -2.14416 -6.06992 -6.95734 -2.30126 0.394232 -1.56123
404 -3.21696 -5.46328 -6.78037 -1.6519 0.0345715 0.870141
690 -2.38556 -5.48897 -6.17516 -0.221129 -2.14054 -1.25956
405 -1.40118 -6.1227 -7.50772 -1.67427 1.37345 -0.866563
407 -0.736178 -6.11161 -6.80519 2.39894 -0.510309 -1.52001
408 -1.46733 -5.35476 -6.77288 -0.26851 2.42015 -2.07601
455 -0.956341 -4.53114 -6.82086 1.62283 0.998994 -1.96749
693 -1.5365 -6.13373 -6.00534 -2.3345 -3.01099 -1.4709
411 0.621154 -6.15605 -6.85247 -1.08788 3.18334 -0.465681
412 -0.0731688 -5.31753 -6.75103 0.648378 2.51811 -0.673695
416 1.5862 -5.37635 -6.52811 2.24158 -1.24933 -1.29782
417 2.75479 -6.10937 -7.66877 0.151119 -2.14481 0.194916
465 2.96058 -4.67972 -7.45528 -2.07476 0.853357 1.82593
420 2.91621 -5.30283 -6.62734 -1.78021 -0.261031 -0.874613
702 2.29936 -5.50606 -5.89976 0.166203 3.15427 -1.1338
421 4.73787 -6.09766 -7.67092 1.54758 0.856747 0.584329
418 3.7746 -5.38082 -7.45423 1.73601 0.568698 -2.23031
424 4.64671 -5.27782 -7.00749 0.893391 -0.410984 -2.89608
467 3.74494 -4.4908 -6.90149 0.608217 -0.284086 -2.25526
706 3.82368 -5.31721 -6.29534 -0.768654 0.138457 -0.695822
425 6.18871 -6.08334 -7.57855 0.410283 0.683482 0.126807
422 5.52312 -5.29309 -7.65707 2.34732 -1.30543 -0.678138
428 6.13667 -5.21492 -6.89132 0.238295 2.34391 1.17229
473 6.21616 -4.43616 -7.62425 0.315252 0.516435 2.45174
471 5.32331 -4.53101 -6.88578 -1.50046 -0.743447 1.20637
761 6.01722 -4.5517 -6.14603 4.00591 0.0272494 1.70715
426 6.9019 -5.37541 -7.62938 -0.804435 -1.82461 1.82557
714 6.84112 -5.26683 -6.18433 0.433519 -2.52193 0.0675312
475 6.90938 -4.46906 -6.92778 -0.402095 1.42859 -1.3564
432 7.62185 -5.27476 -6.89985 0.0429475 1.64085 0.252252
429 7.68534 -6.22168 -7.4491 -0.988804 0.508246 -1.24571
431 8.46621 -6.27419 -6.66781 1.47129 2.85953 0.283724
388 9.22781 -5.41331 -7.01263 0.123669 2.30293 2.53641
479 8.52008 -4.62699 -7.04323 -1.46279 0.148256 -1.87952
434 -8.4655 -4.00715 -7.55731 0.480967 -1.94505 -2.34158
436 9.16119 -3.90906 -6.75117 -0.990431 1.4601 0.704943
437 -7.77251 -4.67039 -7.69294 -2.85846 0.17121 -3.15185
438 -6.93886 -3.71327 -7.48361 -1.31914 -0.451075 -1.78245
439 -6.85144 -4.45157 -6.85535 1.24352 -1.60072 -0.110848
440 -7.72424 -3.93993 -6.68476 1.4965 2.78405 -0.805843
444 -6.04802 -3.8504 -6.80434 2.05587 -1.40835 -1.95428
445 -4.5252 -4.59045 -7.63804 -3.11351 2.14476 -3.05494
447 -4.02046 -4.62816 -6.75275 2.73467 1.45281 1.25607
446 -3.72253 -3.92646 -7.3662 0.427196 1.70438 -0.762742
448 -4.73527 -3.9139 -6.8302 2.22134 1.70411 0.848939
451 -2.1814 -4.77843 -6.87262 0.940459 -0.869977 -0.202232
452 -3.01898 -3.84314 -6.74367 1.70646 -1.08668 1.86536
738 -2.44735 -3.93866 -6.0433 -1.11631 -1.80582 1.7662
454 -0.855448 -3.94402 -7.61196 2.57707 0.759242 -1.41361
456 -1.66251 -3.77694 -6.85329 1.46361 2.11452 0.604794
741 -1.56855 -4.60592 -6.09969 -1.07889 0.327028 -0.192153
742 -0.812265 -3.80063 -6.08638 4.13589 2.16603 0.724025
789 -1.63707 -3.08739 -6.02333 -1.43985 4.12067 0.39679
745 -0.269072 -4.61872 -6.05636 1.0065 -1.03599 0.354771
460 0.133327 -3.84619 -6.76716 -0.871221 -0.688109 -1.96521
793 0.0103823 -2.84496 -6.05017 0.353342 0.140748 -0.772096
459 0.679478 -4.74819 -6.61488 -1.44691 1.21873 0.799973
464 1.4564 -3.89102 -6.82298 0.0210339 0.168496 -0.179193
746 0.830775 -3.83061 -6.05899 1.00092 -0.192003 -1.57695
507 0.741645 -3.15815 -6.90406 -0.584513 -1.22805 -2.45652
462 2.19528 -4.09199 -7.74595 -1.36093 1.90128 -0.258407
463 2.22632 -4.5955 -6.76081 -0.59237 -1.84888 -0.749751
468 2.96815 -3.8479 -6.77283 -0.368911 0.24359 3.23742
750 2.35324 -3.74987 -5.9823 -0.890013 -0.403924 -1.24396
511 2.25092 -3.13069 -6.93164 -1.60968 0.256682 -1.27871
753 3.06526 -4.63379 -5.92425 1.26834 -0.972756 1.04839
469 4.50325 -4.64143 -7.6184 2.31295 1.51852 1.30634
466 3.79985 -3.87035 -7.65718 -0.923285 -3.21449 -1.0281
472 4.38469 -3.79816 -6.73826 -0.535705 3.52419 -0.996462
754 3.67172 -3.68268 -6.01381 -4.01017 -0.821801 -0.945024
515 3.7663 -2.93175 -6.77148 2.6212 0.047084 0.452062
476 6.16478 -3.72128 -6.92952 -2.84294 -1.0259 -0.813648
758 5.34684 -3.76219 -6.03883 0.911369 -0.297333 -1.58763
809 6.11486 -2.79879 -6.15801 1.16928 2.94014 -2.20839
474 6.92981 -3.75745 -7.64639 -0.903843 0.801295 1.11827
523 6.85514 -2.97514 -6.97606 0.188396 -0.550364 0.846924
480 7.76871 -3.82647 -6.83788 1.1717 0.409277 -0.76413
813 7.65869 -3.00018 -6.17902 -0.652262 0.289137 0.899565
527 8.50981 -3.1273 -6.82018 0.880307 2.77056 1.98024
766 8.45353 -3.61206 -5.97612 -1.2376 0.833572 1.00958
483 -8.51603 -2.99711 -6.98621 -0.0392637 -1.51363 -0.0285861
487 -6.82533 -3.06385 -6.71578 -0.975202 0.945756 0.144212
488 -7.75036 -2.41178 -6.94233 -0.257719 -0.646396 0.672068
773 -7.73748 -3.1391 -6.11971 -1.76849 1.9221 -2.66149
491 -5.35643 -3.04157 -6.91472 0.423144 0.813151 -2.16092
492 -6.1866 -2.2803 -6.64368 -0.302469 0.520429 0.19276
778 -5.36928 -2.18405 -6.02566 2.1586 2.55328 -0.418392
494 -3.91837 -2.47048 -7.70389 -2.17267 -0.0141084 -1.67878
495 -3.91877 -3.13041 -6.8634 0.12224 -0.863411 -0.329846
781 -4.64788 -2.88967 -5.98629 0.0962085 0.731656 -0.344358
496 -4.61309 -2.37842 -6.93224 1.01367 0.467708 -0.481008
829 -4.57787 -1.49584 -6.27782 -1.05113 -0.703316 0.181433
497 -3.10645 -3.12702 -7.51877 0.944063 0.928528 -0.639987
499 -2.34361 -3.08524 -6.83377 1.60567 0.923216 1.52024
500 -3.21748 -2.30546 -6.80419 2.75349 -1.16383 2.08551
786 -2.26594 -2.38454 -6.14236 1.685 -0.394151 -2.31256
504 -1.63378 -2.29818 -6.90514 1.76589 0.966871 0.0751307
503 -0.654103 -3.13819 -6.95459 -0.59221 0.797702 -0.067615
508 0.0748734 -2.32535 -6.93089 2.14444 0.822269 -3.06897
790 -0.988013 -2.32733 -6.18706 -0.0128647 0.33066 1.43525
551 -0.74604 -1.65545 -6.83899 1.74345 -1.58888 2.06001
506 0.783003 -2.33715 -7.70197 -0.268183 -1.12401 1.33949
512 1.56482 -2.3042 -6.94052 -1.26185 -1.45712 0.0873512
794 0.899103 -2.2159 -6.29074 -0.604847 2.57935 -0.861891
555 0.812223 -1.64748 -7.20796 -0.812668 -0.0177753 2.28725
516 3.04382 -2.17031 -6.82677 0.374268 0.291327 0.505457
798 2.34724 -2.27681 -6.17054 -0.72817 0.401456 1.01815
565 4.56693 -1.62187 -7.60447 -0.240099 0.805732 3.66307
517 4.68622 -3.22526 -7.5842 0.0593344 -1.84066 -1.21039
520 4.60406 -2.37184 -6.81946 -0.531203 -0.532003 -1.15765
563 3.93078 -1.40947 -6.76997 0.865566 -0.850467 1.07102
802 3.62856 -2.1467 -6.13422 1.99533 2.20301 -1.14788
853 4.67181 -1.51586 -6.07604 2.04679 0.766573 -1.41962
518 5.5134 -2.36704 -7.72535 -1.14334 -1.66944 1.5707
519 5.3595 -2.99276 -6.90671 0.185184 -1.50742 1.83258