ITEM: TIMESTEP
136000
ITEM: NUMBER OF ATOMS
6912
ITEM: BOX BOUNDS pp pp pp
-9.2265715179435492e+00 9.2265715179435492e+00
-9.2265715179435492e+00 9.2265715179435492e+00
-9.2265715179435492e+00 9.2265715179435492e+00
ITEM: ATOMS id x y z vx vy vz
4617 -6.29693 -0.0442872 -2.96223 0.990569 0.933113 -0.0158638
8 -7.81594 -8.40909 -8.62466 -3.80228 -1.28669 0.388511
55 -6.91989 -7.42212 -8.64477 3.58544 0.63605 1.85381
278 5.33887 -0.714972 -9.04769 2.9017 -1.70053 0.0365791
269 1.48396 -1.62927 -9.00087 -0.221005 0.0457115 1.81423
294 -7.09558 -8.33812 -7.89634 0.501412 -1.89854 -1.2365
4897 -9.0908 -0.623763 -0.765844 -2.17334 -1.17995 1.84063
12 -6.08743 -8.19466 -8.55053 2.46442 2.20171 -0.201507
59 -5.34861 -7.65759 -8.48035 -1.0482 -0.656155 1.14599
298 -5.36129 -8.43914 -7.69583 -2.14324 0.0170399 -0.138022
893 1.34125 -9.13149 -4.5437 0.667992 0.792059 0.903348
1838 -3.82938 -5.27752 -0.00611804 -0.85102 -0.520656 1.59564
16 -4.71021 -8.48473 -8.46709 1.98209 1.51422 -1.52556
63 -3.99208 -7.71776 -8.40138 -0.197289 -0.183595 -0.753066
178 3.83227 -3.82991 -9.18704 -2.39818 0.306938 -0.142847
302 -4.02944 -8.44287 -7.72167 -0.17107 1.37828 4.12221
349 -4.62008 -7.69335 -7.5422 -2.21085 -3.5909 0.321028
20 -3.23198 -8.36887 -8.53107 1.57387 1.43384 -0.0559793
286 8.36819 -0.835711 -9.18151 -2.19957 -0.729632 -1.56265
67 -2.19502 -7.80791 -8.52868 -0.60726 -0.954099 -2.86369
353 -2.9361 -7.68323 -7.78878 1.65675 1.67202 0.501587
24 -1.42725 -8.49974 -8.63662 2.93141 -1.17439 1.55423
4075 7.20701 -0.0465424 -5.46343 -1.60563 -2.28649 -1.79201
1195 6.91358 -9.0482 -2.31022 0.546347 -0.971535 0.105354
28 0.738244 -8.83815 -7.71353 0.878396 2.2253 -0.618162
3487 2.25896 -0.156323 -8.3915 -1.74826 -1.26258 -1.50949
75 0.631159 -7.79056 -8.19509 1.08143 -0.287952 1.51331
1734 -7.05436 -8.57327 -0.0576959 -1.86441 -2.34122 0.0320606
367 1.4967 -8.37353 -8.25252 0.278891 -2.67823 -0.573254
1473 2.84007 -9.16617 -1.39159 0.325819 -1.89993 1.82966
36 3.00768 -8.48017 -8.46052 -2.09032 -1.44587 -2.11569
201 -5.89228 -2.94857 -9.05972 -1.76959 2.89714 1.18998
79 2.23923 -7.70349 -8.50084 1.1914 -1.97878 0.720088
318 2.46525 -8.36946 -7.65111 -1.53949 -0.539561 -1.80732
901 4.74613 -9.17989 -4.62337 -0.283828 2.22958 1.43233
40 4.61523 -8.61846 -8.1895 1.29667 -1.03093 -0.33869
83 3.97146 -7.74854 -8.38598 2.04341 -0.110112 -0.271887
1837 -4.53643 -6.02482 -0.0298123 -0.438256 -0.149294 1.25181
38 5.28198 -8.47914 -8.83921 -0.410471 2.0913 -0.357657
44 6.15201 -8.54116 -8.51715 -2.27783 -1.24245 -2.44291
87 5.28841 -7.43465 -8.49424 -1.78875 0.615919 1.82109
377 5.96282 -7.60394 -7.67897 0.182838 -0.547613 0.787209
48 7.71408 -8.46423 -8.42661 1.16174 1.48816 3.53288
1189 4.68858 -9.09702 -3.06864 -0.916628 0.158501 0.750081
230 5.46418 -2.30197 -9.05183 5.03853 0.00920461 -1.29689
4 9.05853 -8.48235 -8.53013 1.46549 -0.642136 -0.577444
334 8.38018 -8.59287 -7.56165 -0.893532 0.0394521 0.836772
51 -8.41039 -7.66018 -8.443 0.0649079 -2.14171 -1.16656
52 9.15427 -7.04296 -8.44416 1.81577 1.18709 0.187482
338 -8.51272 -7.0217 -7.72742 -2.53863 -2.38749 1.17992
3757 -4.41565 -0.0673355 -7.59136 0.749381 -1.32023 0.270574
4033 -9.11718 -0.0354353 -6.33511 0.827226 1.87539 0.506736
56 -7.79847 -6.8746 -8.52455 -0.235986 -0.898341 -2.01383
342 -6.86411 -6.78459 -7.79964 -0.736721 0.129868 -2.24134
341 -7.78337 -7.71438 -7.7824 1.75653 -1.76544 0.165443
60 -6.04296 -6.92549 -8.33165 2.34178 4.14726 0.621188
345 -6.21782 -7.68443 -7.75405 3.04965 -0.257617 -1.06683
4621 -4.68885 -0.12584 -2.91158 0.168297 -3.07403 -0.963619
346 -5.38193 -6.86779 -7.57904 -0.147467 -0.191327 -1.89115
397 -4.51563 -6.22641 -7.53621 1.47127 0.651415 -2.84288
350 -4.72289 -6.80675 -8.38233 2.38007 2.49058 -1.97057
68 -3.2203 -7.00602 -8.39975 -1.16888 -0.075281 0.556717
115 -2.31214 -6.14362 -8.42518 0.0779094 2.61205 -0.412727
4061 1.61313 -0.11297 -6.16698 -0.94036 0.688349 1.2595
72 -1.4342 -7.07166 -8.58955 -1.71796 0.805667 -0.458628
161 -2.91042 -4.66546 -9.13711 -1.30981 -0.994293 -4.01265
361 -0.223208 -7.5118 -7.55661 -0.253822 -3.71687 0.149837
71 -0.615441 -7.6952 -8.50565 -1.67818 -2.28357 0.116314
76 0.0705123 -6.92011 -8.36822 3.54705 0.298864 -0.0225999
3751 -6.88054 -0.000989537 -7.00504 -1.46342 2.43648 -0.151598
80 1.43806 -7.03314 -8.4298 -0.124678 2.26654 -1.80152
123 0.879955 -6.04289 -8.58859 0.0944474 -1.41023 -3.16486
413 1.52278 -6.20118 -7.92458 1.31584 2.86429 -2.56572
202 -5.28644 -2.15807 -9.13131 0.0403131 -0.692156 0.56187
185 5.95542 -4.43354 -9.09227 -1.00372 2.2389 0.579296
84 3.20989 -6.94289 -8.28905 -0.745864 -1.51865 -1.77128
157 -4.604 -4.46433 -9.19315 0.407914 1.9738 -2.51693
370 3.76664 -6.93854 -7.52695 -0.249443 -1.06963 0.0704136
88 4.47347 -6.8812 -8.45765 -0.520993 -0.0129415 -2.60117
3232 -4.58095 -7.70325 -9.19048 1.19405 0.323122 -0.391904
903 5.49023 -9.20437 -3.65599 -0.652882 1.24282 0.247723
4907 -5.29529 -0.0900986 -0.843237 0.358483 2.78208 1.37743
92 6.00566 -6.73111 -8.39897 -3.63094 -1.68354 -3.23718
134 5.15491 -5.39789 -9.20941 3.23978 -2.57079 -0.888832
4353 3.13926 -0.121476 -4.72001 3.15317 0.565847 -1.06152
91 6.83824 -7.80794 -8.44852 -1.3411 -2.59739 -1.64738
96 7.56595 -6.91179 -8.5339 -1.63546 0.570305 -1.93735
139 6.76237 -6.10852 -8.45438 -1.38917 -0.211513 -0.0776177
95 8.36933 -7.72425 -8.65857 0.0937095 0.102623 0.691009
879 -3.83756 -9.22063 -3.92624 0.798565 -0.82968 -1.17286
99 -8.62451 -6.24569 -8.55313 4.46217 2.787 -1.60177
100 9.12825 -5.4079 -8.56452 3.15103 2.54269 0.437192
386 -8.49824 -5.5763 -7.89441 0.857329 2.48422 0.0294588
3779 3.90935 -0.123087 -6.8714 0.531708 -0.065944 1.81117
103 -6.8895 -6.10587 -8.6611 0.75384 -0.222122 -2.58025
104 -7.79322 -5.54511 -8.53269 2.44056 -1.22027 0.368745
107 -5.3334 -6.05843 -8.36802 -1.01733 0.636319 -0.566835
108 -6.08861 -5.46156 -8.55612 3.48167 2.137 1.41322
394 -5.47327 -5.37844 -7.54701 1.41667 0.778569 3.25042
4047 -3.89088 -0.15972 -5.16386 -1.3877 0.585601 0.27535
111 -3.8103 -6.22183 -8.49845 -1.36243 0.121893 -2.26868
112 -4.48807 -5.39347 -8.414 0.0340858 1.93182 -0.331641
3745 -8.97543 -0.00323323 -7.56133 0.408104 -0.480236 0.790081
116 -3.09335 -5.24615 -8.46452 -1.26114 -0.613917 1.02749
1765 4.58169 -9.15878 -0.149778 2.85351 0.0533979 1.17677
402 -2.35285 -5.43037 -7.71829 2.4504 -0.89401 0.255035
4645 4.56112 -0.00349965 -3.23779 1.32884 1.35899 -1.81509
120 -1.50102 -5.52684 -8.56662 0.662387 -1.25997 0.339681
119 -0.88512 -6.306 -8.65557 2.71114 -2.08409 0.533933
167 -0.792619 -4.68067 -8.58864 -2.63854 1.18473 -1.65004
405 -1.71774 -6.18282 -7.70766 1.02946 2.29136 -0.387137
237 7.76465 -3.17231 -9.12111 -2.81932 -0.864675 -0.399761
124 0.237574 -5.29526 -8.628 -0.485272 2.42561 0.560663
457 0.0940101 -4.7186 -7.75493 -2.14432 2.70166 0.462517
128 1.62119 -5.27453 -8.51281 0.0484649 -0.0300715 1.20045
171 0.887755 -4.51544 -8.6547 -0.894257 -2.41767 -1.70769
4903 -6.861 -0.151726 -0.707297 -0.543796 -1.82686 -0.382095
410 1.03389 -5.41233 -7.67482 -1.56574 0.198921 1.04549
127 2.3536 -6.13523 -8.53234 0.0726275 -0.0120834 2.11716
132 3.01397 -5.42296 -8.2698 1.54 -1.20563 -2.75426
175 2.32006 -4.55054 -8.48786 -4.33442 3.12488 -1.02704
11 -5.52982 -9.04796 -8.31921 0.0724175 -1.07563 -0.568731
4065 3.20819 -0.0173753 -6.27142 -1.06016 -1.20386 2.46627
131 3.81149 -6.14164 -8.28646 0.747959 -0.533816 2.03396
136 4.4892 -5.2792 -8.45954 0.963673 -0.236206 -2.69118
179 3.87369 -4.50039 -8.30079 1.56474 0.80379 1.13293
421 4.62279 -5.96619 -7.57716 -0.371312 -1.78252 -0.477595
418 3.80539 -5.38758 -7.60884 0.693191 1.84232 3.15597
469 4.50165 -4.41077 -7.646 -1.06263 -0.872367 -4.86967
140 6.14752 -5.36457 -8.20387 -1.48659 -0.986692 -1.26602
422 5.24447 -6.11859 -8.40706 -0.12717 -3.73945 0.0332576
183 5.21694 -4.70414 -8.43895 0.27705 -0.0685371 -1.48748
2013 7.54932 -1.61101 -0.108085 2.20853 -3.25059 2.20609
1846 -0.643589 -5.37923 -0.0471396 2.20333 1.04161 -0.407713
4057 -0.0254314 -0.15154 -6.18917 -2.75525 3.31684 -0.324922
877 -4.73786 -9.20689 -4.77167 0.129366 0.112574 -0.0764267
144 7.50915 -5.3972 -8.59882 1.10385 1.36321 1.20957
143 8.26596 -6.23258 -8.57064 -2.29842 0.433289 0.395436
191 8.59278 -4.48197 -8.43155 0.628356 1.76931 1.64277
2009 6.15949 -1.57266 -0.0390097 -2.71763 -0.225673 -1.67433
613 4.60537 -9.18507 -6.05723 -0.00458919 -3.54896 -0.30102
433 -9.14165 -4.82053 -7.67348 -1.44909 -2.2453 0.226725
146 -8.35759 -4.47372 -8.33916 1.07016 2.63004 2.17548
434 -8.31272 -3.76292 -7.71394 1.09034 -0.210434 -0.520627
1443 -8.49348 -9.18741 -1.00545 -1.19354 -0.991868 -0.824269
151 -6.74131 -4.49443 -8.56275 2.94999 1.14725 -0.294301
150 -7.58239 -3.85878 -8.43064 -1.41118 -1.2347 -1.14225
155 -5.3252 -4.82103 -8.37232 0.0648326 -1.43028 -0.779831
438 -6.05659 -3.91026 -8.34992 -0.945363 1.65385 1.35109
203 -5.15847 -3.19734 -8.34394 -0.623455 -1.22289 -0.750615
441 -6.20294 -4.78728 -7.75078 3.16804 0.747519 1.298
214 -0.934042 -2.22251 -9.08005 -2.50486 0.0435998 3.82997
159 -3.85182 -4.63922 -8.51349 1.2929 -0.627941 -1.06643
160 -4.59878 -3.98455 -8.40564 -1.23882 1.99405 -0.807192
207 -4.04165 -3.1653 -8.35719 0.946374 -0.871129 -0.206935
493 -4.55102 -3.28606 -7.4937 -0.836431 1.05148 0.43182
615 5.42787 -9.14482 -5.36661 -2.157 0.613778 1.69603
3749 -7.65654 -0.0132487 -7.71321 2.90543 0.426129 -1.75348
163 -2.22823 -4.74601 -8.45464 -2.22718 -1.86673 0.766845
164 -2.91992 -3.86006 -8.64218 -0.229018 0.850213 -1.24146
211 -2.29513 -3.08138 -8.47152 -3.68854 1.85733 -2.12327
497 -3.0375 -3.26122 -7.72594 1.6468 0.233125 -2.43891
3785 6.28752 -0.0158396 -7.75764 1.88682 -1.47098 1.52985
168 -1.58588 -3.96545 -8.46425 2.94232 -1.36942 -0.187637
4355 3.9528 -0.0471456 -4.16708 0.387661 -1.04288 0.326472
501 -1.53224 -3.01389 -7.68733 -0.157371 -1.9716 -3.05148
172 -0.00403599 -3.83993 -8.46314 -0.711381 1.34946 0.599725
215 -0.756753 -3.28635 -8.60817 1.33664 1.03101 1.94291
3771 0.64545 -0.0539541 -6.92122 1.68607 1.68823 0.467256
176 1.60207 -3.63986 -8.47205 0.46947 -1.32352 1.27588
223 2.49595 -3.18461 -8.37858 1.59549 2.4241 2.30992
1866 6.96007 -5.26662 -0.164473 2.00878 1.12148 -1.24322
465 3.09137 -4.63238 -7.7465 1.81991 -1.30282 -0.572146
180 3.24747 -3.76771 -8.45174 3.6902 -0.0303289 0.582331
1906 3.73587 -3.75733 -0.0257042 -0.235643 2.03933 0.799512
184 4.54624 -3.80153 -8.44343 -1.45179 -1.42762 -1.63716
466 3.8382 -3.66812 -7.60172 -1.06047 -2.43455 -1.65612
4073 6.26543 -0.293026 -6.1185 -0.661841 -1.67988 0.426958
517 4.42483 -2.89916 -7.70167 1.20046 -0.403863 0.821576
234 7.15005 -2.37187 -9.0741 -1.79501 -0.848492 0.752833
188 5.99663 -3.6099 -8.42232 1.19215 1.47975 0.155349
231 5.20553 -3.66534 -7.48584 0.591742 0.467394 1.78279
1833 -5.99108 -6.19607 -0.0381602 2.83622 0.785225 -0.0738299
1742 -3.95956 -8.265 -0.0717408 -2.24152 -2.21539 3.49524
187 6.82808 -4.68618 -8.18191 0.856095 1.57347 0.0745647
4911 -3.83413 -0.120433 -0.783742 0.895601 -1.7684 0.816821
192 7.79166 -3.86322 -8.41986 -1.58561 0.128631 2.82854
477 7.62574 -4.46948 -7.73692 0.764728 -1.1764 0.818447
148 -9.17408 -3.81659 -8.37064 -3.86136 0.57071 1.29834
478 8.65954 -3.87317 -7.66862 0.85567 0.472943 0.726185
239 8.56852 -3.08094 -8.4352 0.951506 -1.93124 1.99659
195 -8.18148 -3.10012 -8.47859 0.006084 0.745624 -0.404969
307 -2.39509 -9.11584 -6.98284 -0.855869 1.07718 0.953311
482 -8.31352 -2.29564 -7.52357 0.238464 0.60577 -2.06917
199 -6.91864 -3.05745 -8.57378 0.364414 1.88974 -0.0600346
200 -7.52589 -2.31117 -8.69174 -0.192179 0.676887 -1.05553
486 -6.99217 -2.36318 -7.77609 2.92994 -0.42593 -0.472268
247 -6.8059 -1.64789 -8.43429 -0.908947 0.450249 0.0810887
485 -7.60423 -3.10255 -7.63587 -0.465199 -0.417457 -0.0715521
204 -5.88184 -2.24792 -8.34224 0.085282 -1.20874 -1.44754
251 -5.23278 -1.42078 -8.27679 0.416104 -1.09649 -2.84926
490 -5.34552 -2.27126 -7.47548 -2.43719 -2.69938 0.281678
4623 -3.88442 -0.0745408 -2.3539 0.067024 -0.736933 0.0426816
208 -4.59172 -2.36372 -8.23832 1.41061 0.840984 -1.22758
255 -3.66793 -1.62604 -8.60658 1.83357 -0.385018 2.97252
212 -3.23457 -2.50163 -8.24344 2.00578 2.80326 0.312815
897 2.90232 -9.08753 -4.70572 4.15249 0.226512 2.53093
113 -3.00121 -6.24992 -9.10826 1.90407 -0.373384 -1.59372
216 -1.65805 -2.07521 -8.52468 -0.297083 -1.75593 1.51907
263 -0.681043 -1.50323 -8.36455 -0.0421867 -1.41393 -3.45212
220 0.0470173 -2.4425 -8.60013 -2.56337 0.251322 -2.31057
1962 7.00189 -2.38411 -0.109088 -3.21217 -0.727992 0.527147
219 0.740687 -3.23299 -8.42781 -2.09739 -2.72326 1.32361
224 1.65371 -2.41121 -8.48668 -1.00878 -0.911853 -3.53019
4609 -9.07641 -0.0506065 -3.09655 0.646816 0.0740537 0.998914
1842 -2.22719 -5.27481 -0.06986 1.15407 -1.42113 1.00406
513 3.37387 -2.89205 -7.75428 1.45039 -0.704087 0.756252
228 3.12229 -2.11165 -8.42065 -2.65591 1.7423 -3.08097
510 2.45706 -2.35874 -7.76815 2.04394 1.98335 -1.4935
1977 -6.03205 -1.57673 -0.0613115 0.460298 0.29469 1.05528
227 3.90202 -3.01522 -8.54565 0.367978 2.20143 -0.365973
232 4.54715 -2.22167 -8.35165 -0.136701 -0.494621 0.460415
280 3.94243 -1.53676 -8.58814 -1.1745 1.20379 -0.423952
514 3.94835 -1.96243 -7.48669 0.780009 -1.35632 -0.0337819
518 5.2941 -2.98548 -8.17168 -2.38222 -1.05879 -1.03342
236 6.09976 -2.39922 -8.39076 -1.98758 -0.0359303 1.68182
130 3.77672 -5.3185 -9.04176 -1.5832 -1.19073 1.46202
235 7.02623 -3.11029 -8.38881 -0.973603 -0.314942 -0.379305
240 7.75414 -2.25927 -8.35688 2.06223 0.694006 -0.738591
522 6.82841 -2.21802 -7.80669 1.06685 1.96315 1.35381
1163 -5.28503 -9.1764 -2.37104 -1.82921 2.62742 0.282599
196 -9.05538 -2.22282 -8.47939 -0.829738 0.291799 1.21406
287 8.55091 -1.53767 -8.45387 0.393518 -1.42088 0.519325
1183 2.2486 -9.16908 -2.4018 -0.227633 4.15286 2.05206
243 -8.18498 -1.58935 -8.42085 1.64699 -1.3878 -0.120443
1798 -0.760548 -6.91116 -0.127219 -2.70699 -0.585045 -2.07366
529 -9.10753 -1.56852 -7.73373 -0.134831 -0.704252 0.135398
1982 -3.74098 -0.852481 -0.0464664 -1.35627 -1.80804 1.39852
245 -7.51287 -1.46016 -9.22504 2.54514 0.86242 -3.46143
248 -7.57113 -0.768176 -8.43707 0.575123 -1.28464 2.0175
533 -7.58601 -1.55426 -7.67273 -1.48918 -0.702029 -1.30831
1161 -6.07408 -9.13992 -3.03617 1.98835 1.8642 0.641295
252 -6.02732 -0.714204 -8.36327 0.0832703 -0.24208 0.390909
538 -5.31433 -0.650623 -7.61814 1.6607 2.43821 -0.926652
4613 -7.59239 -0.184324 -3.03126 0.222514 -1.95809 -0.336323
1966 8.46466 -1.59632 -0.75982 -0.427422 -0.861197 -1.2139
1997 1.40066 -1.57601 -0.152472 -3.08654 -2.08269 -1.96339
256 -4.5196 -0.675982 -8.38478 -1.21644 -1.4429 1.02344
1986 -2.36798 -0.786094 -0.0760833 -1.5498 -0.881263 -0.174072
19 -2.29806 -9.03774 -8.56384 0.910923 2.21889 0.808513
129 3.24158 -6.18986 -9.06569 0.518738 -3.15587 -0.817373
259 -2.52781 -1.52393 -8.56446 2.53838 -0.801753 3.7979
260 -3.20604 -0.695515 -8.5178 -2.50744 -1.80493 0.048709
546 -2.41406 -1.07628 -7.75132 -2.65127 -0.221361 -0.888287
93 7.59171 -7.68652 -9.19856 -1.33815 0.360191 -0.285222
1909 4.4643 -4.60372 -0.062638 3.47634 -0.786362 0.483951
90 6.87329 -6.98776 -9.09574 0.868709 -0.820679 0.881136
264 -1.6455 -0.782432 -8.46561 -1.8911 -0.354767 2.06003
3491 4.00305 -0.0971762 -8.40473 1.68015 -2.62614 2.8651
281 6.20903 -1.7105 -9.13569 4.74423 -2.4752 1.27059
603 0.485027 -9.20237 -5.68002 -1.23243 -1.64447 0.622016
297 -6.41626 -9.02075 -7.92329 0.339463 0.590746 -0.647624
268 -0.101851 -0.784634 -8.25885 -0.901105 -0.426228 -1.78321
554 0.746954 -0.717219 -7.60433 0.159993 2.21505 1.45399
1712 1.61266 -0.716063 -0.697176 -0.0310345 -1.77761 -0.399832
267 0.663424 -1.65273 -8.49352 -1.56622 0.337167 2.2024
272 1.33605 -0.74697 -8.41655 -1.81506 -0.916597 0.27264
98 -8.53367 -5.28742 -9.16167 -0.828942 0.127276 -0.44569
4627 -2.39313 -0.0325291 -2.22029 1.3803 0.3201 -2.09247
271 2.23215 -1.54481 -8.56219 -0.831796 1.08742 -0.379329
276 3.07505 -0.773438 -8.35696 -0.0863556 -3.371 -1.75796
558 2.24708 -0.796694 -7.42293 0.780439 1.19333 -0.38531
4915 -2.42909 -0.0241464 -0.807812 1.16096 -2.44467 2.5524
1185 3.00283 -9.10454 -3.37886 0.542429 2.62166 1.64574
566 4.63288 -0.810051 -8.43973 0.833734 -2.72628 0.781823
275 3.90082 -0.938469 -7.84963 0.310806 1.95276 1.51111
238 8.55853 -2.33125 -9.07322 -1.14935 -1.09036 0.263696
885 -1.48559 -8.9212 -4.30525 -0.12771 -1.29524 0.920755
1737 -6.13213 -9.21949 -0.117016 -0.466131 -1.44819 -0.322066
279 5.32866 -1.54712 -8.46164 0.238417 0.192832 0.0816096
284 6.1683 -0.908745 -8.54759 0.388477 1.9395 3.0027
283 7.06599 -1.37796 -8.29219 0.0212685 -0.413897 0.522647
288 7.79748 -0.625448 -8.46946 -1.12651 1.24179 3.08917
244 -9.04324 -0.794916 -8.58012 1.19461 1.57755 5.78422
290 -8.39085 -8.44993 -7.38043 -2.95865 -0.454711 -2.88768
578 -8.31624 -8.54845 -6.25681 1.82696 -0.909027 1.78259
296 -7.48683 -8.57649 -6.97989 -1.63612 1.18742 2.03713
629 -7.63062 -7.89627 -6.23231 0.602434 1.42695 0.561075
305 -3.16693 -9.13066 -7.83333 2.42622 1.21081 -1.25279
300 -6.10682 -8.38665 -7.01957 -2.00143 2.96376 -1.03257
347 -5.38191 -7.73896 -6.92743 -1.09529 0.760312 -0.0498645
586 -5.33032 -8.67425 -6.16468 0.851944 1.56329 -2.85312
304 -4.65293 -8.7352 -6.96159 0.566032 -2.49386 3.8894
637 -4.5968 -7.79803 -6.27443 -0.0392095 1.96756 -1.82261
590 -3.90173 -8.52024 -6.20345 -2.18702 1.41201 1.42593
306 -2.2397 -8.45399 -7.74852 -0.367119 0.312981 -0.749372
308 -3.10669 -8.48904 -7.07814 -3.3831 -2.97169 0.972709
355 -2.34144 -7.76936 -6.91075 0.725859 -0.883294 0.908626
594 -2.47087 -8.48867 -6.05043 -1.13849 1.97032 -1.25193
641 -3.21788 -7.76832 -6.06764 -0.241585 -1.14184 -0.628919
312 -1.65228 -8.44574 -6.77275 -2.1866 -0.238827 2.58612
310 -0.561984 -8.43788 -7.69566 -0.123927 -1.28037 3.87136
598 -0.921587 -8.37937 -6.01187 -0.110992 -1.72801 -2.85306
645 -1.75002 -7.76055 -6.01384 0.0640718 -0.605706 -0.990878
314 1.02922 -8.03016 -7.16228 0.25448 0.608872 0.421212
316 -0.0855895 -8.32296 -6.89468 3.10344 -1.28661 -3.00481
649 -0.283239 -7.50476 -6.09781 0.994581 0.72153 -0.215668
1469 1.57726 -9.10563 -1.64881 0.54482 -0.48017 -0.0687036
4043 -5.12482 -0.0919251 -5.43111 -0.522982 -0.994293 -0.728135
602 0.60266 -8.27271 -6.20401 -1.22074 -3.1003 0.385794
320 1.71184 -8.44325 -6.71234 1.32124 -0.174311 -0.213204
653 1.77043 -7.76821 -6.04468 0.692281 2.26134 1.50337
277 4.67454 -1.55552 -9.20486 0.944111 2.66843 -0.668106
369 3.15479 -7.72461 -7.60313 0.642981 -0.675516 1.30897
3481 -0.0480753 -0.14322 -9.12723 2.91355 -1.23281 -0.686173
324 3.05607 -8.46448 -6.74404 -1.2034 -0.242966 -1.43374
654 2.49882 -7.73742 -6.84914 -0.829515 -1.46467 -0.79326
606 2.39612 -8.83679 -6.25749 0.681032 -0.487138 0.334259
233 6.28417 -3.04074 -9.12009 0.299068 -0.483734 2.44638
322 3.98009 -8.35767 -7.47657 0.299371 0.729311 0.911168
328 4.78267 -8.55406 -6.85868 1.96669 0.689602 -1.9528
610 3.97497 -8.39681 -6.266 0.131896 0.331387 -0.940674
3777 3.05827 -0.152566 -7.65535 1.23843 -0.415689 -1.68677
326 5.45437 -8.43775 -7.79647 -0.149244 -2.16043 2.17629
332 6.03042 -8.57125 -6.96227 0.803904 1.27084 -2.44795
26 0.0813332 -8.58813 -8.41105 0.968896 -1.30993 3.82476
330 6.74271 -8.49066 -7.76604 -0.971889 1.22572 0.200362
618 6.9364 -8.50124 -5.94041 -1.82555 1.17913 -0.52587
43 6.96816 -9.14986 -8.4903 0.851368 -0.041549 -0.851085
336 7.51076 -8.57481 -6.82104 3.71348 -0.342487 0.593282
292 9.17669 -8.58263 -6.94757 0.491711 -0.896129 -0.717108
622 8.52454 -8.29737 -6.17443 -0.444419 -1.55506 1.2323
4611 -8.32768 -0.1067 -2.37271 1.02079 -4.70623 -2.70585
339 -8.59292 -7.83787 -6.77074 1.4021 0.639656 1.68913
625 9.16952 -7.50671 -6.19111 0.393573 -0.699849 0.552006
340 9.01467 -6.9704 -6.99064 2.7998 -3.28018 0.953598
343 -6.93018 -7.76841 -6.85707 -0.703954 0.854084 0.277698
344 -7.64184 -7.0007 -7.06595 1.81 -0.782718 1.85653
630 -7.00922 -6.97572 -6.24647 -0.460146 -1.13751 -2.09715
348 -6.16945 -6.90812 -7.168 -0.960124 -1.67916 -0.0736444
395 -5.43446 -6.11461 -6.87372 1.32341 -2.23907 0.552728
633 -6.27613 -7.6724 -6.21533 -1.0889 -0.156791 0.267137
634 -5.38178 -7.02509 -6.14494 -1.62618 -0.940641 4.77491
351 -3.84222 -7.82352 -7.01298 -1.23127 0.8298 1.73955
352 -4.55843 -6.88009 -6.85232 1.13029 -0.729159 1.99734
399 -3.8637 -6.15599 -6.94211 0.157584 -0.632618 -1.42159
638 -3.83251 -7.06544 -6.17127 -2.7887 2.44068 1.32347
354 -2.27441 -6.888 -7.84462 -1.59653 0.40194 -0.950975
356 -3.23358 -7.09263 -7.0679 0.966036 -1.58347 1.26736
642 -2.67251 -6.88142 -6.11482 -0.463977 -0.508106 1.29767
403 -2.56762 -6.09277 -6.90658 0.476611 -1.08134 0.313717
689 -3.20901 -6.12112 -6.10664 -2.31001 -2.17442 0.759219
357 -1.62782 -7.73247 -7.75167 -0.028009 0.999483 -2.36074
358 -0.937642 -6.8134 -7.68013 1.99954 1.9794 1.25311
360 -1.88257 -6.74802 -6.9569 1.20157 1.70657 0.673504
359 -1.06063 -7.51615 -6.85364 0.0751769 0.715137 -0.484511
646 -0.559451 -6.5839 -6.30876 -0.2426 -2.1702 -1.7054
364 -0.0220629 -6.44299 -7.1797 -1.11953 1.39798 -0.118822
363 0.519417 -7.21643 -6.71648 -1.11887 1.38628 0.0540095
362 0.678926 -7.01173 -7.647 -0.837509 -0.0437907 1.9463
365 1.72761 -7.63679 -7.64986 1.57454 0.938412 3.13445
368 1.67975 -7.11315 -6.88823 -3.01087 -0.865158 3.35653
366 2.45976 -6.9693 -7.57935 1.26827 -0.665064 1.00317
372 3.00371 -6.91215 -6.81873 -0.0464297 -1.08667 2.20447
703 2.35394 -6.79584 -6.14977 -0.0451336 1.36054 -0.843236
417 3.04867 -6.2065 -7.64376 -0.225491 -0.88145 -0.367026
705 3.28022 -6.08736 -6.13754 3.50057 -4.21318 1.50884
373 4.61222 -7.59613 -7.60328 -1.92396 -1.69321 1.68841
371 3.65791 -7.6256 -6.85043 -2.01929 -0.902561 1.15328
376 4.61956 -6.94161 -6.92979 3.23901 0.18135 2.85551
661 4.62813 -7.63176 -6.10529 0.0113117 -2.63508 1.03873
374 5.29611 -6.78436 -7.61662 -0.55866 1.33937 0.196857
375 5.34592 -7.76946 -6.73986 -1.65087 1.63164 -2.93319
665 6.18908 -7.79759 -6.19595 -0.27178 -2.63659 1.82295
380 6.11331 -6.87413 -6.92623 -2.35056 -1.03806 -0.44332
381 7.59321 -7.6884 -7.67191 -1.88717 1.06235 0.597785
379 6.8309 -7.85417 -6.98435 -1.47027 -1.18289 -0.605668
378 6.69356 -6.90933 -7.6971 0.26314 -2.44023 2.16038
384 7.60439 -7.10068 -6.79727 3.05765 -0.414805 -0.335021
337 9.05062 -7.8283 -7.83344 -0.12425 -0.425377 -1.92204
383 8.28427 -7.83697 -6.9851 2.82044 0.422695 -0.898302
382 8.31169 -7.00581 -7.69567 -2.29934 -3.03181 0.760614
670 8.38736 -6.90023 -6.17407 0.150209 2.74423 -1.87959
385 9.21589 -6.19154 -7.83261 -2.54117 -1.16448 -1.12375
387 -8.50684 -6.24642 -7.02757 0.826457 -0.355275 0.891123
388 -9.22211 -5.6571 -6.95047 -0.364923 1.02764 -3.90952
674 -8.49201 -5.49212 -6.36155 -1.16484 -1.42605 -0.438778
389 -7.7148 -6.16285 -7.62202 -3.89657 0.899992 2.85754
390 -6.96712 -5.53825 -7.80286 2.30919 -1.70762 -0.245918
391 -6.91803 -6.22727 -6.93414 -0.16476 1.11076 -1.61148
392 -7.71663 -5.4664 -7.02336 0.057455 1.16527 -1.12165
393 -6.08957 -6.0137 -7.543 -0.288776 0.582436 0.00550891
396 -6.16328 -5.32857 -6.73839 -1.6702 -1.59141 -3.08528
398 -3.70508 -5.34985 -7.61385 -3.34925 -0.948188 1.11169
400 -4.39459 -5.43095 -6.81792 2.77561 -1.85813 -1.45849
686 -3.92407 -5.3626 -6.00622 -1.93094 -0.0237924 -1.32284
685 -4.64512 -6.22292 -6.15623 1.03355 -1.11596 0.721396
401 -3.17519 -6.22489 -7.68224 0.128742 1.90887 0.962154
404 -3.24021 -5.25457 -6.84072 -2.34512 1.25278 -0.892434
449 -3.04743 -4.5613 -7.74626 0.379239 -1.12022 0.566697
453 -1.61322 -4.62102 -7.71454 -2.11209 2.45944 1.83629
406 -0.861171 -5.40404 -7.76965 0.263396 1.85766 -0.36404
407 -0.990418 -6.07499 -6.88652 -1.62654 -0.271956 -1.75714
408 -1.59075 -5.32398 -7.06923 -4.22333 1.85146 -1.13542
455 -0.720524 -4.55896 -6.95392 1.37602 0.104868 3.1008
409 0.0020414 -6.04689 -7.96657 0.856229 1.43734 -2.11196
412 -0.0546274 -5.32684 -7.02557 -0.339593 -1.68875 -0.150369
411 0.948537 -6.27471 -6.98693 0.115289 -1.717 -1.44762
461 1.8094 -4.56711 -7.70819 -0.674641 -1.42477 1.50259
416 1.65617 -5.11042 -6.71156 0.307324 -0.613196 -1.06806
459 0.836828 -4.43172 -6.90869 0.807584 -0.321226 2.01561
415 2.34883 -6.02964 -6.85385 -1.23431 2.23238 -0.232545
414 2.24747 -5.44621 -7.62523 -0.237813 -1.48151 1.06975
420 3.04224 -5.41036 -6.95549 0.279226 -0.0520374 2.2446
702 2.37668 -5.25273 -6.06828 0.987025 1.12773 -0.555206
419 3.85144 -6.12345 -6.88799 2.64457 0.0774748 -0.305981
424 4.73542 -5.26356 -6.85802 -0.724553 1.01936 -2.17096
706 3.99746 -5.26783 -6.09516 -1.01033 -1.97538 0.169412
709 4.7798 -6.23144 -6.19883 -3.07912 0.578146 0.880392
425 6.12977 -6.03149 -7.55022 -1.04413 0.372443 1.18402
473 5.36389 -5.2165 -7.66859 -0.437753 0.430942 0.513623
713 6.06249 -6.14518 -6.08412 -0.234923 -0.36499 2.31866
423 5.35492 -6.07244 -6.95685 -1.42059 1.01449 0.811784
428 6.13245 -5.33244 -6.83895 -0.792847 0.961678 -1.21106
426 7.07658 -5.53616 -7.4381 0.983488 -2.04398 0.373381
429 7.45131 -6.33275 -7.80825 -0.237036 2.00012 -1.43881
427 6.82927 -6.12323 -6.74564 -3.28796 -0.862185 -0.547628
765 7.68515 -4.57839 -6.21769 1.04682 2.37449 -0.9318
475 6.8691 -4.66216 -6.97715 1.18652 0.143165 -1.865
432 7.6424 -5.36259 -6.77008 -0.093359 2.32446 1.79578
431 8.34849 -6.22927 -7.10628 -1.17533 0.409566 1.05437
430 8.31765 -5.37671 -7.8401 -0.304852 1.36514 1.22692
435 -8.33808 -4.58526 -7.22424 0.479009 -1.02101 0.74899
436 -9.19043 -3.84986 -6.87149 -1.83539 -0.833594 3.22747
483 -8.32803 -2.99029 -6.70198 1.55943 -1.3025 0.565719
725 -7.80873 -4.74532 -6.18525 -2.51996 -1.15858 -1.46077
437 -7.44676 -4.66929 -7.9094 2.12813 -2.27666 -0.790155
439 -7.03126 -4.74699 -7.09953 -1.37264 -0.998723 -0.333225
152 -6.96519 -3.83276 -7.76584 1.02867 0.963055 0.488004
440 -7.62491 -3.83484 -6.85829 -0.750449 2.43147 2.05707
442 -5.31433 -3.9475 -7.76635 -0.829365 0.821601 -0.665135
443 -5.24153 -4.59084 -6.8642 -1.96893 -0.361449 -1.03974
444 -6.11918 -4.01921 -7.20262 -0.62437 -0.77254 2.33138
777 -6.25031 -3.31818 -6.18993 1.3394 -0.258426 1.25924
729 -6.13183 -4.53388 -6.26101 0.950256 -0.596278 1.02446
446 -3.83389 -3.86487 -7.77357 1.25481 -0.412409 -1.00045
445 -4.57938 -4.75034 -7.5843 -0.114194 0.359522 -1.77315
447 -3.82586 -4.4606 -6.78116 0.379013 2.15863 -0.968621
448 -4.53553 -3.82675 -6.75573 2.81743 -0.910569 0.87594
495 -3.80244 -3.19927 -6.77277 0.311074 1.08879 -0.677977
781 -4.71362 -3.1535 -5.9699 0.231361 0.282214 -0.753228
451 -2.4102 -4.6402 -6.9556 0.720979 -1.76416 -2.07128
450 -2.25961 -3.93093 -7.64097 -0.43244 0.76095 -1.44676
452 -3.11002 -3.93711 -7.02418 -2.48872 -0.568101 1.5823
499 -2.25153 -3.24526 -6.88491 1.5407 0.0667164 -1.34967
785 -3.08341 -3.08589 -6.18467 0.394333 3.56796 -0.46559
454 -0.699105 -3.922 -7.71698 0.872794 1.51626 2.45268
456 -1.42074 -3.8129 -7.10743 0.461344 -0.408397 0.213543
503 -0.820649 -3.02972 -6.9651 1.19243 1.30429 1.3627
460 -0.00929787 -3.8112 -7.00246 -0.97788 -1.10739 0.52193
509 1.75381 -2.98953 -7.6756 -0.992395 -1.21859 1.1369
458 1.11482 -3.95002 -7.74919 -1.23011 2.60567 1.49722
464 1.72922 -3.90429 -6.75597 -1.16252 -1.39952 2.13542
797 1.46392 -3.19362 -6.01869 -0.490555 3.24919 -0.239759
746 0.643477 -3.87841 -6.03513 -0.912867 -0.116609 1.14545
463 2.3931 -4.58856 -6.81842 1.25453 -0.138064 0.227702
462 2.44179 -3.9421 -7.51661 -0.404752 -1.61511 0.791068
468 3.103 -3.73808 -6.84367 -0.618801 -2.06667 0.220508
750 2.29266 -3.70656 -6.02861 -1.49483 -1.29889 1.29274
467 3.81476 -4.67958 -6.95323 1.44973 1.55481 1.80266
472 4.57157 -3.88026 -6.79341 -2.06718 0.0321426 2.79855
754 3.98001 -3.79049 -5.99133 2.19611 0.271151 -1.37834
515 3.8398 -2.95242 -6.8498 0.32977 0.630834 0.487926
470 5.93275 -4.32388 -7.76348 -0.553252 0.809123 1.00094
471 5.41081 -4.41784 -6.79114 -1.05031 0.84874 1.39439
476 6.3484 -3.90891 -6.60984 -1.67988 0.741817 1.23582
519 5.75618 -3.09179 -6.55954 -3.93393 -1.82616 1.29093
521 6.04053 -2.9918 -7.62814 -5.0256 0.929128 -1.42931
525 7.80702 -3.10333 -7.74392 2.63249 -2.86135 -1.28674
474 6.7405 -3.81414 -7.70312 1.52893 -0.276675 0.267942
480 7.81606 -3.90622 -6.95822 -0.392843 1.96681 -2.22749
762 7.01252 -3.89924 -5.79486 -2.11641 3.60531 -0.727613
479 8.4538 -4.9535 -6.86397 -3.57588 0.0682012 0.433043
527 8.49634 -2.98087 -6.94116 -1.64205 2.96135 -0.287966
770 -8.22142 -2.28404 -6.10912 0.505132 -1.30335 2.99211
481 -8.9423 -2.91174 -7.80267 1.68669 0.066521 2.64696
773 -7.45281 -3.16784 -6.08043 0.745254 0.365214 2.20805
487 -6.78413 -3.12167 -6.9481 -5.95706 2.20507 0.781915
488 -7.52441 -2.2415 -6.85272 -1.49323 0.037371 -1.34991
535 -6.78941 -1.55409 -6.93406 -1.55561 0.373512 1.68404
489 -6.10557 -3.13986 -7.88855 -1.62476 1.67324 4.30976
491 -5.40424 -3.25199 -6.95581 1.09285 0.580069 2.43988
492 -6.16524 -2.26591 -7.04589 4.56838 -0.214862 0.144722
778 -5.58465 -2.54065 -6.09412 -1.5679 -1.65481 0.130127
494 -3.91721 -2.39395 -7.52531 -0.737484 -0.555155 0.866493
496 -4.62507 -2.50132 -6.78426 1.26548 -2.95625 1.27423
782 -3.93786 -2.5338 -5.88324 0.365349 2.10845 -0.661648
498 -2.14069 -2.28517 -7.6648 -2.9662 -1.33445 0.627065
500 -2.93389 -2.41922 -6.96961 1.89499 -2.99163 -0.563769
547 -2.18166 -1.59297 -6.82903 -0.00215817 0.338667 -1.7131
504 -1.43537 -2.2918 -6.95113 -1.3062 -0.152957 1.01091
549 -1.51847 -1.55357 -7.48896 -1.95444 -2.27922 -4.08108
551 -0.650695 -1.52074 -6.78625 -0.508509 0.933402 -0.96371
502 -0.612746 -2.28198 -7.72205 1.2187 -0.0105296 -1.61374
505 0.0651245 -3.03346 -7.63621 -3.44567 -0.483489 2.59874
508 0.069544 -2.3056 -6.93734 0.51395 0.263827 -1.28592
553 0.215981 -1.56438 -7.58842 1.1911 -2.30131 -0.683356
841 -0.0343556 -1.29623 -6.18025 0.822939 -0.0564579 -0.470208
506 0.840793 -2.35148 -7.60304 -2.03927 -1.24804 -1.57932
557 1.55215 -1.53305 -7.73747 -0.800767 -2.01362 -2.10549
507 0.85602 -3.34723 -6.89297 -0.544323 0.978979 1.40877
512 1.43527 -2.52207 -6.86764 2.69681 1.91657 -0.0657637
794 0.632164 -2.30616 -5.95153 0.900766 0.055736 -1.16578
511 2.30616 -3.08986 -6.85641 -2.6672 2.18297 -0.714316
516 3.04236 -2.31089 -6.9129 0.951243 1.79741 -0.147745
559 2.20116 -1.54704 -6.83034 -1.87292 -1.1899 1.88266
564 2.99195 -1.53544 -6.18523 -0.394709 -0.0357837 -2.18036
520 4.6819 -2.34887 -7.01731 -3.23223 -0.374058 2.51586
563 4.68698 -1.43947 -7.64852 0.459381 -1.33542 2.62364