ITEM: TIMESTEP
107000
ITEM: NUMBER OF ATOMS
6912
ITEM: BOX BOUNDS pp pp pp
-9.2265715179435492e+00 9.2265715179435492e+00
-9.2265715179435492e+00 9.2265715179435492e+00
-9.2265715179435492e+00 9.2265715179435492e+00
ITEM: ATOMS id x y z vx vy vz
4 -9.13488 -8.45744 -8.14616 0.787785 0.197015 -0.57901
290 -8.30285 -8.52006 -7.71782 -3.57716 1.14624 3.49766
4903 -6.94071 -0.204882 -0.709424 1.44891 -0.13934 -0.506273
8 -7.62078 -8.56551 -8.43884 1.15176 1.90992 -1.95268
294 -6.88733 -8.60948 -7.73635 -0.824257 0.0276825 1.48753
5209 0.0856303 -0.164646 -0.0783735 -0.286962 1.21359 1.09699
12 -6.03532 -8.70503 -8.51465 -0.924201 -1.28826 -1.04864
345 -6.19674 -7.86451 -7.72826 1.03706 2.50985 -0.60017
298 -5.38612 -8.5855 -7.81558 0.5137 -0.559862 -1.49366
333 7.8624 -9.15492 -7.68489 -0.53159 -0.0527634 2.42201
16 -4.31908 -8.44249 -8.44917 -1.64327 0.142134 0.605053
1994 0.869295 -0.844375 -0.157712 -0.740141 1.14871 0.916099
34 3.746 -8.58157 -9.06822 -1.99813 0.154414 0.027033
20 -3.03453 -8.51272 -8.45732 3.04464 1.20832 -1.67352
67 -2.28649 -7.70295 -8.61077 -0.193459 0.823157 -1.95748
118 -0.682702 -5.46868 -9.19532 -1.15792 3.96855 -0.506153
137 6.09884 -6.07425 -9.17783 -2.57344 0.814513 0.272378
24 -1.69356 -8.50751 -8.3919 -2.17211 -0.607526 0.104699
71 -1.03344 -7.56276 -8.20948 1.61779 0.389311 -0.413743
4627 -2.41858 0.0153571 -2.40948 0.457139 2.49751 -0.435581
1183 2.26056 -9.06667 -1.95147 0.011771 -0.95337 -2.10911
28 0.164159 -8.4331 -8.38892 3.98248 1.26585 -1.30015
305 -3.0948 -9.13096 -7.61156 -2.56198 0.408537 -1.10029
1475 3.8606 -9.1611 -0.515719 1.43681 -1.73105 -1.29971
314 0.868401 -8.24557 -7.65012 1.53507 0.423298 0.551394
32 1.65394 -8.3682 -8.57155 1.52996 0.819285 -0.628914
301 -4.70636 -9.24549 -7.70935 -1.46031 -1.87942 -2.27243
66 -2.37535 -6.79818 -9.14953 1.88548 1.42667 0.811733
36 2.88763 -8.49195 -8.47253 1.06236 -1.06209 0.993493
79 2.43878 -7.55304 -8.22435 -0.405708 -0.0979782 0.912564
1681 9.09918 -1.43396 -1.31061 -2.13496 -2.46031 1.85693
40 4.84007 -8.57745 -8.49437 -0.121706 -0.30889 1.65442
83 3.95552 -7.8822 -8.40991 0.726169 -1.41773 -3.20491
322 3.8682 -8.38178 -7.65179 0.370979 -0.282955 -2.39557
45 7.72642 -9.10191 -9.21522 -0.708427 -0.0517308 -0.521422
44 6.15106 -8.50696 -8.41271 2.61772 0.195495 2.2086
326 5.45245 -8.49588 -7.66034 -0.0849355 -1.88273 2.04543
87 5.49202 -7.79453 -8.36977 3.12366 1.79596 -0.70511
377 6.16613 -7.70686 -7.65998 -0.887592 -0.750493 1.0041
91 6.89278 -7.69691 -8.30595 -2.09569 -0.239137 -1.33732
245 -7.69389 -1.64473 -9.1933 1.85362 2.23951 -2.99826
330 6.94656 -8.34351 -7.63768 -0.995291 2.89966 -0.218711
270 2.27868 -0.661918 -9.16306 0.170678 -0.138502 0.323305
48 7.88917 -8.39138 -8.37053 -0.495201 -0.579403 1.42387
95 8.63322 -7.66825 -8.67902 1.28868 -2.97688 0.527454
381 7.61798 -7.58862 -7.49477 0.417201 -0.0841017 -0.32602
334 8.45991 -8.37866 -7.56165 0.799228 0.86795 0.854133
51 -8.27956 -7.76165 -8.33376 4.59357 -0.593439 1.36293
338 -8.37852 -6.92231 -7.67874 0.154004 0.654372 -1.3
56 -7.71842 -7.00469 -8.37134 2.65267 2.78796 2.31503
55 -6.80579 -7.98859 -8.51234 -0.576758 -0.0850245 -0.492768
389 -7.71026 -6.1184 -7.74276 -1.13425 -1.97328 2.56504
59 -5.311 -7.763 -8.43165 0.964495 0.614829 -0.581468
60 -6.41082 -7.12812 -8.27463 -0.35115 -0.160717 -1.1886
221 1.58881 -2.84172 -9.17333 -2.06501 1.24702 -1.57231
63 -3.68759 -7.54549 -8.49592 0.165118 1.65594 -1.39946
64 -4.58055 -7.0841 -8.26429 -1.84523 0.972761 -0.525374
111 -3.62356 -6.11878 -8.42895 0.189325 1.98297 -0.899982
349 -4.63234 -7.65038 -7.50897 -0.160211 -1.32017 2.69552
125 1.64241 -6.23506 -9.24939 -0.367502 -2.82772 -3.72829
181 4.61375 -4.53101 -9.08886 -0.387067 -0.0395004 -0.829261
68 -2.9828 -6.98779 -8.47994 3.17345 -0.0415602 2.87225
115 -2.25931 -6.02203 -8.35113 0.439608 -0.0264454 0.632061
42 6.96205 -8.35573 -9.01947 -0.696662 0.256884 -0.397841
313 -0.087579 -9.1673 -7.56443 0.717594 2.15946 2.93092
170 0.667869 -3.74941 -9.12593 -1.27152 0.381168 -1.28381
72 -1.58603 -6.80669 -8.45316 0.265452 -0.315512 0.461473
190 8.53321 -3.65444 -9.24223 0.78732 1.18262 -2.07747
119 -0.725207 -5.99495 -8.40759 0.804594 -0.614673 -2.73415
76 -0.254226 -6.91553 -8.35148 -0.603352 1.68396 0.19978
4335 -4.15323 -0.04704 -3.86547 -0.75019 -1.08469 -0.497985
75 0.969805 -7.48888 -8.34695 -1.43375 1.24832 -2.80859
80 1.77162 -6.78855 -8.31654 1.0624 -0.362554 -0.264213
4629 -1.62423 -0.110131 -3.02175 -0.729296 -2.28756 -0.635553
3785 6.45784 -0.10799 -7.7765 -0.625709 0.586381 1.86288
84 3.12247 -6.81115 -8.41044 -1.42289 0.712114 0.432073
127 2.39302 -6.11148 -8.50473 1.12346 -1.36696 -0.206379
1794 -2.3465 -6.99028 -0.0746249 2.41922 -2.46462 -1.27922
88 4.72786 -7.02638 -8.37728 0.134966 0.93755 -1.59923
131 3.7555 -6.11677 -8.2835 -0.232215 -0.620728 0.690796
1163 -5.42199 -9.14295 -2.38123 -1.54312 3.78484 -1.49575
92 6.20664 -6.91967 -8.54445 -1.39962 -0.977522 2.14973
277 4.5502 -1.47524 -8.92731 -0.2235 1.22807 3.55507
96 7.63254 -6.88943 -8.35198 -3.02233 0.625131 -2.02457
429 7.644 -6.10596 -7.73305 0.544464 -1.48293 -0.049932
139 6.96746 -6.13287 -8.60851 0.363749 -0.300293 1.07381
378 6.79714 -6.84067 -7.50243 -2.94761 -0.369116 2.62424
2001 2.98757 -1.65095 -0.211216 1.86896 -0.869167 -1.07507
4929 3.0257 -0.079824 -1.62307 -1.55125 -0.095112 -2.20036
52 -9.09055 -7.11368 -8.5354 0.964069 0.134259 1.93793
382 8.45471 -6.92526 -7.68502 -2.91825 -0.361195 2.4677
143 8.36551 -6.21463 -8.41787 -0.00332917 0.181227 0.58182
385 9.19178 -6.24418 -7.69801 0.131716 -0.623091 -1.69617
99 -8.36483 -6.2586 -8.48786 0.0257598 0.684361 0.042973
146 -8.26976 -4.62046 -8.48233 1.36473 -1.92443 -2.69188
100 -9.1795 -5.287 -8.44419 0.13496 1.05248 0.756248
386 -8.43826 -5.48373 -7.74002 -0.37777 0.769707 2.1678
103 -6.84068 -6.16224 -8.47479 -1.0264 0.546294 2.67095
104 -7.58885 -5.43085 -8.58168 -0.595922 -0.893074 -0.871523
390 -6.84549 -5.42024 -7.75478 0.862026 -0.0221931 -0.165908
437 -7.6869 -4.65751 -7.67303 1.89294 -1.92811 3.21379
107 -5.35762 -6.21211 -8.48851 -0.247218 -0.235688 -1.5608
108 -6.10048 -5.47931 -8.50819 2.19261 1.97435 -2.21276
155 -5.37973 -4.60374 -8.43686 -0.796683 -1.36764 -1.46771
98 -8.39118 -5.39082 -9.03716 0.452996 1.13065 1.33368
393 -6.08248 -6.2801 -7.79417 -0.652714 -1.59153 1.67638
85 4.4852 -7.79541 -9.16436 -2.90297 -1.31304 -0.110599
1922 -8.30106 -2.3124 -0.163719 0.0577946 0.657805 -1.8702
397 -4.54881 -6.1737 -7.66222 0.973886 -1.77564 0.212102
112 -4.4737 -5.52652 -8.55264 0.347389 1.05124 1.49726
159 -3.92612 -4.59941 -8.57061 1.90547 -0.238163 -1.56638
398 -3.91022 -5.36149 -7.62196 -1.23847 -2.10968 -1.18084
905 6.41731 -9.12154 -4.79674 0.575004 0.491103 -1.86044
116 -3.10941 -5.34261 -8.47429 0.832819 2.0795 -0.0208935
1797 -1.69952 -7.61109 -0.0729613 -0.46365 0.907186 -0.428651
881 -2.97735 -9.21839 -4.54829 -0.398228 -0.128997 -0.330671
120 -1.44188 -5.42246 -8.56646 -1.01042 -2.31774 -1.94607
453 -1.5348 -4.62608 -7.77115 -0.303835 1.3506 -0.292468
406 -0.689467 -5.30388 -7.61235 -2.10207 0.270832 -1.21037
142 8.39154 -5.41138 -9.11011 -0.41814 -0.467625 -0.920516
134 5.29547 -5.35808 -8.99056 -1.19671 1.56983 1.18216
124 0.0867625 -5.43835 -8.41359 0.248362 1.44942 -0.556549
457 0.113148 -4.5235 -7.51615 0.697974 -3.20265 -1.54018
1773 7.7725 -9.14212 -0.0771941 -1.19714 -1.10481 0.9468
123 0.74357 -6.28881 -8.48641 -0.133398 -0.660155 1.2637
128 1.5462 -5.44062 -8.62597 -2.2211 0.855827 -1.98113
171 0.80349 -4.57162 -8.49263 -2.15086 2.75119 1.26522
461 1.53257 -4.46945 -7.93583 -0.253128 2.08828 0.277552
132 2.83877 -5.26378 -8.34819 0.673283 1.12463 0.596549
175 2.28357 -4.56154 -8.6223 0.122238 1.66368 -1.04432
113 -3.00943 -6.05003 -9.12943 -0.536262 -0.183497 -1.74829
136 4.4696 -5.30979 -8.24949 -1.1215 -0.621033 1.22111
179 3.78467 -4.69864 -8.48332 -2.08297 -0.00400838 0.40564
418 3.71584 -5.27323 -7.6668 -1.33917 0.912306 0.872074
1961 6.28448 -3.02363 -0.059602 -1.23875 -0.215016 1.48593
135 5.37862 -6.2111 -8.56015 1.05017 3.06602 -0.198669
140 6.17051 -5.33226 -8.31216 -2.27352 -1.66045 2.43731
183 5.36168 -4.51119 -8.46805 -0.0104367 4.86855 1.19592
254 -3.90397 -0.631713 -9.14174 -1.13377 -0.32468 0.163842
144 7.6056 -5.38572 -8.39693 0.243564 0.539749 -2.48645
426 6.93703 -5.41696 -7.70649 1.81918 -1.0471 -1.24171
430 8.36419 -5.4012 -7.796 -0.381883 -1.35225 0.225474
4641 3.1317 -0.0487859 -3.106 1.8024 -0.461218 1.02458
433 8.96778 -4.59972 -7.73778 0.609127 -1.30036 -0.797807
434 -8.39861 -3.84488 -7.84134 0.333688 -5.32532 -0.0591243
258 -2.30815 -0.688925 -9.20854 -0.364444 2.46281 -2.02443
151 -6.80927 -4.7701 -8.6355 -1.78495 -2.1818 -0.897501
152 -7.76785 -3.812 -8.69482 -0.0732674 0.385224 -0.531324
199 -6.97982 -3.13869 -8.59208 -0.982414 2.07364 -1.21582
485 -7.59207 -3.09289 -7.80668 2.80759 0.987636 0.0142418
489 -6.34988 -3.1323 -7.86399 -0.26653 -3.18441 1.56818
156 -6.12156 -3.86224 -8.46981 0.825031 0.886242 -3.38224
323 3.89268 -9.22859 -6.96446 0.950439 -3.76357 0.453984
442 -5.3616 -3.78174 -7.72671 -0.258661 -0.809207 2.11547
1753 -0.111556 -9.10977 -0.0420304 -1.00939 0.714787 1.42418
581 -7.61248 -9.23513 -5.89485 -1.13905 -1.57233 0.597244
160 -4.5177 -3.79745 -8.58013 -0.336055 0.82518 -0.792245
81 3.06683 -7.6941 -8.93046 1.17375 1.02538 -1.25603
163 -2.30855 -4.53589 -8.42998 -1.58013 2.20994 2.39507
164 -3.18639 -3.7423 -8.23692 -0.214547 -0.409581 -3.73769
211 -2.1407 -3.00266 -8.51266 -0.257628 -2.02208 0.781924
1445 -7.61283 -9.20484 -1.34376 4.22984 -2.00154 0.22023
1998 2.17096 -0.774521 -0.0618712 0.69178 -0.0871257 0.217032
1729 -9.03564 -9.16022 0.0466822 -0.267875 -1.00885 3.49515
168 -1.42205 -3.77358 -8.42299 1.74134 -1.51266 0.761381
167 -0.733074 -4.66149 -8.62061 -0.295396 -1.8994 -0.673447
454 -0.637073 -3.79748 -7.68165 -0.661676 1.16413 -0.318989
215 -0.837685 -3.00037 -8.51476 0.944789 1.93179 1.24918
172 -0.095605 -3.65805 -8.53369 -0.391222 0.323721 0.862433
219 0.726723 -3.04319 -8.48467 0.111663 -0.874539 -0.941165
613 4.66133 -9.16652 -6.11143 2.2028 1.20907 3.13884
1457 -3.00803 -9.15804 -1.47447 -0.170511 -0.0970232 -1.80799
176 1.56605 -3.70636 -8.71786 0.51255 0.623458 3.10695
509 1.39048 -3.09368 -7.57605 -2.82068 2.05771 -2.02226
249 -6.13963 -1.45842 -9.12562 -0.0278174 0.508168 0.346689
180 3.18399 -3.76133 -8.35426 -1.02592 0.729848 -0.749071
223 2.26748 -3.08131 -8.4085 -0.285859 -1.42971 2.16955
4333 -4.74192 -0.0610269 -4.68595 -0.926914 -0.191644 0.198455
184 4.62392 -3.7482 -8.33253 -0.849565 1.38851 0.13837
466 3.82905 -3.91819 -7.65752 0.576837 -0.700417 0.674061
227 3.83274 -3.10325 -8.36804 -1.74317 -0.185643 -1.29742
1978 -5.46254 -0.882722 0.0510722 0.376992 -2.3655 3.81113
473 6.26403 -4.57848 -7.6023 2.52379 1.12438 -0.728988
188 6.40192 -3.83994 -8.34653 -0.673954 0.602945 2.05674
231 5.48752 -3.15497 -8.30358 -0.490293 -1.72759 -1.46436
470 5.67807 -3.82128 -7.49956 0.0788263 1.78491 -1.11695
187 7.00793 -4.60769 -8.34181 2.14991 2.48218 -0.869043
192 7.5964 -3.87041 -8.3267 -0.92681 0.1156 -0.553312
477 7.84128 -4.6636 -7.75277 0.0382736 2.2183 -0.474579
474 7.06853 -3.94681 -7.51453 -2.93307 -2.21357 -0.993429
138 6.88042 -5.31799 -9.23642 1.01653 0.376293 -1.74664
191 8.44816 -4.66272 -8.52148 0.739115 -0.00935309 -0.0175224
148 -9.16648 -3.76974 -8.52902 1.58534 0.79049 0.452757
478 8.41566 -3.75841 -7.75545 0.515755 1.69121 -0.177359
195 -8.41605 -3.09549 -8.49464 -3.34844 1.56701 -1.77298
243 -8.44109 -1.60004 -8.44827 1.55513 3.92098 2.19007
482 -8.39822 -2.46047 -7.7485 1.09682 0.432188 0.00872545
196 -9.16292 -2.34506 -8.54965 1.30138 1.57919 3.52811
481 -9.12718 -3.20556 -7.69363 -0.0118613 -1.71169 0.899159
529 9.11478 -1.66831 -7.70053 -0.753719 2.15041 0.228236
200 -7.63249 -2.35403 -8.51082 -1.0432 -0.220186 1.3315
486 -6.99397 -2.32809 -7.81376 1.09374 -0.731183 -0.400839
203 -5.23536 -3.18597 -8.45477 -0.303884 -0.0394501 1.70842
204 -6.28186 -2.38782 -8.35875 -1.81221 -0.06964 0.134015
251 -5.48458 -1.19186 -8.30324 -0.0166519 1.07313 -3.24586
3495 5.56092 0.00811601 -8.34706 -0.180977 1.27861 -0.896838
1809 3.35017 -7.46368 -0.280095 3.19295 -1.82474 -0.315864
207 -4.00073 -2.87977 -8.40294 -1.4108 1.24061 -0.332332
208 -4.71878 -2.12748 -8.38424 -0.0779423 2.77285 1.26692
255 -3.9267 -1.57464 -8.4003 1.34534 1.12441 -2.07952
165 -1.57776 -4.55996 -9.24771 -0.107287 -0.20456 -1.92898
4913 -3.08829 -0.0139762 -1.5974 0.571109 1.78582 2.27879
274 3.86257 -0.729103 -8.98383 -0.935622 -1.51356 0.272041
212 -3.04163 -2.32901 -8.56349 2.08214 -4.26331 2.2357
1989 -1.48887 -1.42778 -0.0922921 0.306245 5.02719 1.24009
259 -2.40617 -1.55642 -8.44326 -0.937855 0.470271 -1.4157
4921 -0.0458204 -0.170026 -1.59765 -1.929 -1.06486 -3.62924
216 -1.47303 -2.11895 -8.54564 -1.65446 1.39564 -1.26871
253 -4.66599 -1.47117 -9.11334 -2.55472 0.450179 -0.371241
502 -0.80436 -2.25187 -7.85197 -0.338437 2.69527 2.86655
220 0.0756962 -2.27558 -8.54127 0.537286 -1.11678 -3.46748
553 0.105044 -1.46463 -7.77118 -0.12422 -0.964522 0.275579
1854 2.18493 -5.51206 -0.0131412 -0.447345 0.857224 -0.0911889
224 1.45776 -2.19426 -8.40136 0.409625 3.7008 -0.41094
267 0.822292 -1.52333 -8.47856 -3.26485 2.03444 -3.13727
506 0.725864 -2.35975 -7.69749 -4.29245 0.290759 -2.41698
228 3.04338 -2.19641 -8.39014 -0.022036 2.78728 1.60322
1985 -3.07145 -1.6756 -0.22503 1.12361 0.247876 3.26736
226 3.78838 -2.14865 -9.19973 0.0164936 -3.08604 -1.71222
232 4.69481 -2.48866 -8.47868 -1.10576 -0.579939 -0.895725
514 3.9202 -2.27811 -7.7063 -1.27909 -0.358147 1.09726
275 3.81006 -1.44432 -8.31912 -2.60864 0.942927 -0.631387
565 4.55105 -1.44479 -7.53033 0.221229 -0.0925085 1.89207
236 6.12278 -2.44507 -8.30603 -0.384535 0.277595 0.705295
518 5.41926 -2.42662 -7.69896 1.03954 0.374338 -2.36757
279 5.38134 -1.75516 -8.46842 -0.253317 1.91818 1.13256
525 7.70589 -3.07934 -7.69434 2.74262 -1.04357 -2.31156
235 6.95671 -3.02755 -8.52576 1.2118 0.285089 -1.81441
240 7.62407 -2.36109 -8.37094 -1.85712 1.98425 1.32995
283 6.90211 -1.80238 -8.54596 0.419308 -1.28602 -1.47835
522 6.9542 -2.34008 -7.61299 0.0928558 -1.85004 0.255484
239 8.51968 -3.08409 -8.42547 -0.856145 -1.28626 0.914913
526 8.58235 -2.49047 -7.69582 -0.125555 -1.18838 2.12048
248 -7.75115 -0.826072 -8.4664 -1.83896 -3.13932 0.589161
530 -8.35591 -0.802846 -7.57076 2.23876 0.532677 -0.0967716
89 6.20028 -7.69359 -9.16056 1.69649 -1.53049 -0.627566
247 -6.92115 -1.59511 -8.63735 -0.527862 -1.14935 -4.21229
1471 2.15108 -9.21172 -0.773627 0.305984 -0.022555 0.702879
2010 6.98875 -0.711811 -0.153509 0.971185 0.170857 -0.0674261
130 3.88102 -5.59875 -9.03921 2.19242 -1.66843 0.375649
252 -6.25168 -0.582216 -8.2575 -0.566094 -1.63641 1.78687
1954 3.67114 -2.4217 0.0227402 -2.60912 -3.2784 1.64457
1853 1.49451 -6.39703 -0.0416173 -0.284093 -1.87481 0.569603
61 -4.43042 -7.6314 -9.12036 0.693785 0.593585 1.55994
210 -2.17859 -2.28147 -9.19329 2.45285 0.528723 -0.475805
256 -4.65811 -0.660837 -8.34041 -0.556979 0.885279 -3.02322
542 -3.9149 -0.650759 -7.72832 0.110957 2.51351 0.0255619
22 -0.822949 -8.58037 -9.03609 1.91788 -1.13327 -0.518509
33 2.96194 -9.17587 -9.10798 -1.04727 -0.486779 -1.92152
307 -2.33683 -9.08944 -6.80524 0.554528 1.47809 1.4852
911 8.55407 -9.08991 -3.83375 0.836647 -1.28848 -0.350896
260 -3.14697 -0.721636 -8.46334 1.46502 1.42866 -1.67854
1893 -1.40455 -4.64151 -0.0664295 1.57721 -0.343433 1.34157
70 -0.914348 -6.97856 -9.06976 0.471131 0.0535175 -1.23491
1473 2.94905 -9.094 -1.19804 0.70034 -1.36377 -0.388935
264 -1.58621 -0.756898 -8.53209 0.43199 -2.05502 0.0781128
587 -5.36314 -9.19516 -5.23001 -0.18666 1.36384 0.473193
1969 9.20086 -1.53324 -0.042542 1.00854 -3.1391 -1.00778
4941 7.69078 -0.0325532 -1.68581 0.0390079 -0.431858 -0.0403629
1197 7.85644 -9.17411 -3.06784 0.435009 -1.44213 -0.691112
263 -0.779568 -1.40289 -8.45595 -1.19854 -2.12593 0.0851662
268 0.0891689 -0.472685 -8.50805 0.562387 -1.15698 1.34144
272 1.48987 -0.710635 -8.35592 -0.732028 -0.37974 1.2143
4931 3.9224 -0.0293636 -0.745096 1.49937 0.448276 3.21953
557 1.54017 -1.48797 -7.66119 2.95645 -1.08549 -2.82133
106 -5.34514 -5.33368 -9.15611 -0.565086 -2.27715 1.07724
561 2.92244 -1.62057 -7.61503 3.44924 -0.184488 -0.949637
271 2.21494 -1.47278 -8.47186 0.574836 1.48804 -0.147137
276 3.01443 -0.829654 -8.20751 1.86714 -0.291495 0.658435
558 2.14337 -0.768253 -7.5156 -0.53217 0.707091 -0.0189376
280 4.68192 -0.738172 -8.38086 0.596023 0.370006 -0.258072
562 3.73824 -0.744486 -7.54146 -2.08201 -0.267837 1.0256
1726 8.44101 -0.772855 -1.72184 1.95724 -0.437577 -1.92554
1177 -0.0670779 -9.23657 -3.10801 -1.97816 -1.77384 1.15616
4637 1.50628 -0.0859793 -3.14292 -2.59728 -2.848 -0.600788
161 -3.12158 -4.51705 -9.18692 -1.62155 1.37276 -1.61631
284 6.1705 -0.876826 -8.30965 -2.33773 0.318554 0.228261
566 5.62551 -0.674174 -7.55936 -2.40976 -0.558401 -0.574421
569 6.22109 -1.68731 -7.73197 1.51813 0.251989 3.46152
573 7.91603 -1.77573 -7.70179 1.01906 -1.95447 2.43226
288 7.80765 -1.09338 -8.57016 -1.25549 0.317182 1.28868
570 7.20903 -0.913376 -7.73801 0.382171 -0.304463 0.84363
1790 -3.87017 -6.94254 -0.0966308 -1.47025 -0.534929 0.248653
1455 -3.91534 -9.16122 -0.628251 -1.24018 3.15766 -0.971437
244 9.20647 -0.965295 -8.48229 1.63817 0.259819 1.71877
287 8.5618 -1.74104 -8.48004 -1.70132 -0.832103 0.406265
1857 3.04933 -6.22525 -0.0636288 -0.195725 2.23928 -0.769526
4035 -8.51253 -0.0519306 -5.41326 -2.16863 0.077464 1.49581
292 9.21137 -8.59084 -6.93939 0.239775 -0.214413 0.557063
339 -8.28343 -7.88165 -6.92659 1.34517 1.80765 0.870479
296 -7.50457 -8.67842 -6.79489 0.780077 0.0449418 -3.30935
343 -6.91949 -7.82046 -6.8697 -0.413588 1.40908 2.29074
1838 -3.86434 -5.56725 -0.0931822 -1.60512 1.91648 -0.870245
895 2.18859 -9.17089 -3.8765 -0.811739 -1.0333 -1.75393
222 2.28045 -2.21881 -9.06985 1.47554 -2.07522 -1.73069
300 -6.21457 -8.53562 -6.97062 1.78087 -0.631984 0.00520519
186 7.0657 -3.94948 -9.21446 -0.944187 -1.35111 0.347173
302 -3.83495 -8.28506 -7.70784 2.55626 0.746296 2.27351
304 -4.52799 -8.54168 -6.90689 -1.87638 1.20001 1.49023
351 -3.89302 -7.65845 -6.95245 0.0158963 1.79351 1.11115
637 -4.63742 -7.71764 -6.20255 -0.77402 0.441681 1.02912
178 3.91306 -3.89666 -9.18346 -1.05956 -1.88383 -2.7045
306 -2.21889 -8.51518 -7.60242 -0.534141 0.808175 -0.84757
353 -2.82948 -7.88266 -7.81843 0.705012 0.141728 2.43876
308 -3.12627 -8.42154 -6.87847 1.11204 1.97478 1.18784
355 -2.51437 -7.73088 -6.85928 0.124768 0.208304 -0.742209
357 -1.80945 -7.63371 -7.62491 0.147179 -0.667875 0.04342
312 -1.47182 -8.41734 -6.86197 0.316749 1.19625 1.59719
359 -0.894229 -7.66953 -6.94383 -0.470388 0.193089 0.380865
598 -0.727003 -8.4789 -6.18448 -0.60305 -1.13069 -2.5393
121 0.117305 -6.33151 -9.15861 -1.48027 0.391995 -0.5611
310 -0.853368 -8.47902 -7.85527 -1.90034 -0.893673 0.0339485
316 -0.026074 -8.4072 -6.85126 0.0478371 -1.22713 -2.15108
365 1.69472 -7.61615 -7.64234 -0.552624 -1.40897 0.0600586
320 1.45151 -8.52893 -6.84498 -0.00598798 1.74191 3.3795
363 0.603271 -7.60532 -6.88616 -0.340195 -0.799218 -1.49271
233 5.97882 -3.23263 -9.0601 0.130132 -0.0230315 -0.854132
318 2.28894 -8.38227 -7.69736 3.03279 -1.26299 0.37213
369 3.16645 -7.7051 -7.68709 0.670841 -0.186092 2.0964
324 3.09357 -8.45139 -6.94722 -1.74172 0.22412 -1.52647
367 2.32775 -7.78219 -6.86608 -0.22202 0.801965 0.326976
328 4.64776 -8.50591 -6.84412 -2.4865 0.668395 0.952547
371 4.05576 -7.69895 -7.06986 2.90112 1.94753 1.84599
1728 7.77934 -0.80407 -0.921625 -1.66444 0.220819 -2.67574
375 5.41671 -7.65162 -6.88146 -3.13245 -0.738647 -2.35546
332 6.0791 -8.31077 -6.91157 1.24143 1.83931 1.37458
336 7.59309 -8.41202 -6.88016 -1.61452 -2.15934 1.97537
82 3.94172 -6.78834 -9.21313 -3.60511 -0.589406 -0.128308
383 8.56953 -7.62884 -6.89447 0.535244 -3.88767 0.978466
622 8.42006 -8.41808 -6.35916 2.06207 1.81605 0.325148
337 -9.10284 -7.62832 -7.65249 -0.836487 -1.0919 0.465339
340 -8.89139 -7.04771 -6.86341 -0.348474 0.828188 -1.08856
626 -8.53 -6.8026 -5.98816 -0.221848 -0.82295 -0.378418
341 -7.52988 -7.66463 -7.69545 -0.874301 -1.24615 1.47867
342 -6.79689 -6.96807 -7.40795 -0.609226 1.86408 -2.52225
344 -7.7822 -6.96829 -6.87826 1.54282 -0.168359 -0.327497
391 -6.89085 -6.10843 -7.10149 0.794917 -1.00217 2.09312
629 -7.68684 -7.69558 -6.10296 -1.8733 1.23219 2.07974
347 -5.35008 -7.8075 -6.92411 0.961149 -3.97211 2.90319
346 -5.33146 -6.98986 -7.53338 1.05085 0.107571 -2.64555
348 -5.98235 -6.93491 -6.77994 1.01223 -0.321593 -1.2938
633 -6.14942 -7.76571 -6.0897 -1.26172 -0.590358 -0.794214
634 -5.27641 -7.02033 -6.15601 0.716059 -0.246942 -1.93286
350 -3.68388 -6.9371 -7.78023 -1.69967 -2.36239 3.21733
352 -4.44705 -6.85517 -7.02416 0.946127 0.304449 2.81422
399 -3.92132 -6.08715 -6.8401 0.470255 -4.51571 -1.64584
354 -2.45137 -6.77975 -7.68589 -0.259769 0.572837 0.191482
356 -3.30158 -6.81721 -6.88355 -2.27941 2.63059 -0.353616
401 -3.12747 -6.10204 -7.60208 -2.13696 1.62824 -1.69174
642 -2.35345 -6.97807 -6.23611 3.25035 -2.36033 0.927346
360 -1.63613 -6.85761 -6.9219 -0.0817036 0.884397 -0.848904
646 -0.764311 -6.70897 -6.12497 0.703669 -1.01815 1.1192
358 -0.845785 -6.83791 -7.51849 0.916286 -0.533425 0.530068
405 -1.44617 -5.99952 -7.67174 2.95214 -1.78928 -0.842605
361 -0.132344 -7.79167 -7.61074 -0.295413 0.121945 -0.68747
364 -0.0994415 -6.89207 -6.81245 0.496299 -0.652086 -0.93428
649 -0.160737 -7.67898 -6.14249 -1.79327 -1.60639 0.30967
362 0.785025 -6.87827 -7.55064 -0.221756 2.18042 -2.1897
413 1.73509 -6.10535 -7.72397 -1.98021 0.590998 0.932151
368 1.65344 -6.83899 -7.02989 -1.29335 3.51128 0.648488
417 3.04109 -5.91724 -7.63092 -1.44738 0.362334 -1.85635
366 2.64309 -6.78743 -7.59247 -0.436485 0.270104 1.78799
372 3.22343 -7.13374 -6.87478 0.303486 -0.383873 2.2203
415 2.14068 -6.04797 -6.82233 -0.77468 -0.27116 -0.498322
373 4.77833 -7.78291 -7.6178 -2.84065 -0.837617 -0.286824
370 3.87642 -6.98856 -7.65843 -0.816205 -1.19576 0.479837
376 4.57893 -6.89204 -6.83688 0.357239 -0.0873137 -0.989096
658 3.95454 -6.84473 -6.08577 3.56316 -0.872436 -0.480139
419 3.84775 -6.30426 -7.06611 2.37861 1.94656 -1.41165
709 4.51502 -6.0848 -6.22227 0.106684 -0.843141 2.86085
374 5.44839 -6.95622 -7.62373 -1.65693 2.26969 2.13268
380 6.01354 -6.92258 -6.75366 1.19832 -0.0514709 1.65108
423 5.36023 -6.14758 -6.85998 1.46446 -0.0942361 -0.0768822
662 5.22574 -7.03347 -6.16316 -0.687063 0.0616057 0.400793
665 6.17824 -7.71 -6.09297 4.14025 -0.592274 1.10339
379 6.96799 -7.68789 -6.87707 -1.01498 2.26742 -0.926689
384 7.73299 -6.85397 -6.88977 3.33232 0.417239 1.82286
669 7.80493 -7.6343 -6.15657 0.599974 -3.51694 -2.7381
666 6.96471 -6.8784 -6.11197 -0.265297 -1.97118 0.533041
670 8.46752 -6.8345 -6.19032 0.977465 -0.899841 -3.39235
387 -8.45522 -6.21973 -6.84004 0.19007 1.24965 2.23999
435 -8.45917 -4.72617 -6.97135 1.88015 -0.0586064 0.940283
392 -7.63774 -5.51989 -6.90027 1.22108 -1.20439 -2.26484
725 -7.53404 -4.67726 -6.27033 2.49997 1.55344 0.955529
394 -5.40586 -5.42606 -7.82586 2.82448 1.48916 0.537288
395 -5.2979 -6.05017 -7.11552 1.32277 -0.531676 -2.75458
396 -6.2408 -5.30049 -6.99114 1.43768 0.174547 -3.35369
682 -5.3768 -5.35618 -6.17458 0.0614528 -0.173212 -1.30788
445 -4.56669 -4.57006 -7.82527 1.42112 0.74215 -2.21935
400 -4.59495 -5.32071 -6.96929 2.16927 -0.57689 2.05744
447 -3.88027 -4.55762 -7.00663 -1.66005 1.67204 -0.415723
402 -2.26887 -5.38797 -7.63276 0.844975 0.705901 1.58802
449 -3.03028 -4.6951 -7.7727 2.60869 1.50988 2.91383
403 -2.21546 -6.12465 -6.75947 1.83801 0.774037 1.5134
404 -3.08616 -5.36945 -6.7759 -4.33888 -0.596482 0.221526
451 -2.31278 -4.49969 -7.16012 0.4436 -1.8974 1.15722
690 -2.28782 -5.23318 -6.16598 1.19935 2.3267 -3.27318
408 -1.43139 -5.40156 -6.85357 0.259475 -2.90134 2.699
455 -0.73982 -4.565 -7.03358 -0.0634662 -0.262675 2.02324
694 -0.680783 -5.39995 -6.1144 5.44731 0.356833 2.5373
407 -0.68928 -6.05216 -7.00961 4.12805 1.19175 -0.807662
409 0.0190945 -6.12046 -7.70304 0.161875 0.827059 2.48627
412 0.044594 -5.39524 -6.95732 -3.63306 1.53599 1.7954
697 0.0907017 -6.09861 -6.17973 -3.48752 -1.51681 0.326223
745 -0.144173 -4.45464 -6.07646 -1.96318 0.430821 2.9977
410 1.06934 -5.34472 -7.79941 -0.476765 -2.03323 -2.90037
411 0.826771 -6.02472 -6.95749 -3.05845 -0.00561509 1.03861
416 1.61342 -5.18268 -6.76296 -1.78807 -0.805882 -2.12434
459 0.839884 -4.6166 -6.93157 0.300406 0.401479 1.83801
698 0.602477 -5.31435 -6.18965 -0.248896 1.4159 -1.19395
414 2.09207 -5.21311 -7.74802 -1.66429 0.755512 -2.0854
465 3.15046 -4.47994 -7.53881 2.5223 0.794324 -0.47818
420 2.83191 -5.27673 -6.93665 -0.540478 1.92275 -0.972095
463 2.29344 -4.37637 -6.99537 1.48431 2.26075 -0.847308
469 4.66894 -4.52772 -7.65612 1.58899 0.819997 -4.27444
421 4.62407 -6.12741 -7.5685 0.0597341 1.15771 1.0661
424 4.44282 -5.44487 -7.0116 -2.45391 0.454162 -0.44988
757 4.54425 -4.88836 -6.01974 0.673028 -1.57065 -0.544591
467 3.96317 -4.55692 -6.84892 0.132902 0.814369 -1.36454
425 6.14755 -6.14709 -7.8024 2.96401 1.13217 -0.366551
422 5.36429 -5.49627 -7.8236 0.172904 0.61053 -2.9637
428 6.26184 -5.45267 -6.95573 -3.1189 3.39225 -0.725164
471 5.4063 -4.777 -7.04267 -1.94012 1.81924 -0.451708
710 5.41115 -5.45508 -6.24485 0.0565668 0.610224 0.347559
427 7.05439 -5.96655 -6.95625 0.115655 1.87654 1.06336
432 7.80384 -5.40328 -6.88273 -0.838056 3.51481 1.68785
714 6.9609 -5.38346 -5.97491 1.46433 2.61707 -0.138558
431 8.47375 -6.22105 -6.99392 -1.74192 2.00666 -1.91078
388 -9.14148 -5.31312 -7.03936 1.83659 -3.12066 -0.621448
479 8.44419 -4.5623 -6.77206 -0.0973263 -0.458707 -0.0428441
673 9.19419 -6.05556 -6.18729 0.456879 0.702487 0.338197
718 8.65432 -5.29623 -6.16337 -0.515095 0.321545 0.563571
721 -9.09951 -4.58523 -6.276 -0.838381 -0.343093 -2.74353
483 -8.40971 -3.08938 -7.00642 -2.34869 1.41709 -1.18762
436 -9.16601 -3.82574 -6.93288 0.446365 -0.227289 0.0447446
773 -7.72428 -2.9352 -6.06241 -0.292819 -0.669216 0.683922
439 -6.91871 -4.47875 -7.09981 -1.72781 0.0810248 0.951817
440 -7.67735 -3.91182 -6.90003 -1.89988 0.464401 0.484587
438 -6.94451 -3.9666 -7.93854 -0.239057 -0.798477 2.38918
487 -7.08733 -2.95143 -7.06834 -1.87665 -1.31668 -1.94052
441 -6.13749 -4.61569 -7.71277 -2.24129 0.14325 -1.52168
443 -5.41825 -4.66344 -6.95204 -0.257842 -1.88101 -0.788318
444 -6.19896 -3.82823 -7.1036 -1.65284 -0.162891 -2.4246
446 -4.04571 -3.83241 -7.71419 -1.68372 1.13189 -3.08713
493 -4.75682 -2.9511 -7.65081 1.98229 1.60048 -0.764756
448 -4.75082 -3.72877 -7.00528 -1.63424 -2.32418 2.49891
495 -4.00739 -2.92662 -6.93064 -0.176967 0.62026 1.50639
450 -2.2726 -3.71007 -7.80044 -1.5929 1.07675 -0.161077
497 -3.21136 -3.064 -7.59003 1.78722 -0.832243 -2.97677
452 -3.09331 -3.84634 -7.05226 1.82467 -0.318508 0.48452
737 -3.24057 -4.59559 -6.27179 -2.62078 -3.12543 -0.760967
456 -1.56891 -3.82939 -7.12171 -1.81476 -0.0075515 1.64172
742 -0.845835 -3.77127 -6.16527 -3.21429 0.389221 0.646072
460 0.0578813 -3.68578 -6.84965 0.956441 -2.35475 1.58739
458 0.782587 -3.84358 -7.65819 -0.0128025 0.52426 -1.2929
793 -0.147751 -2.9132 -6.18526 0.557907 -0.473548 2.35144
464 1.57023 -3.87292 -6.71898 0.0714291 -1.07241 -1.97666
746 0.770331 -3.72446 -6.19549 1.32032 1.82414 0.447373
749 1.65766 -4.53533 -6.04069 -1.16893 0.749573 -0.873919
797 1.52645 -3.04742 -5.94354 0.913342 -0.188047 0.355421
462 2.40533 -3.74097 -7.70985 1.2832 -0.21082 2.08747
468 3.16868 -3.76229 -6.9362 -0.07905 1.5782 -1.48288
753 3.03724 -4.49568 -6.12098 1.78984 1.23053 -1.7639
517 4.53456 -3.06967 -7.59835 -0.9502 0.145988 0.55381
472 4.72791 -3.69481 -6.84786 1.50206 -0.863527 -0.433346
761 6.11741 -4.74545 -6.22096 -1.22243 -0.223102 0.785839
521 6.44401 -3.13826 -7.63861 -0.438281 -2.09825 1.37861
476 6.33862 -3.88761 -6.77819 -0.19689 1.15987 -3.9307
758 5.55283 -3.87918 -6.23199 -0.204349 -3.80481 -0.942552
519 5.61716 -2.9998 -6.74426 2.15661 3.98995 0.526315
475 6.90493 -4.78064 -6.89338 -1.2468 0.525672 -1.8592
762 6.87647 -4.10018 -5.96779 0.35354 -2.20763 1.59091
480 7.74535 -3.81181 -6.87653 -0.718214 1.38096 -0.000226752
769 -9.07804 -3.15279 -6.22643 3.29626 -0.768403 -0.00199218
817 9.15153 -1.58589 -6.15512 3.1249 0.395005 -1.93612
533 -7.77036 -1.54837 -7.66399 1.63971 -1.20992 -1.95093
488 -7.76368 -2.29701 -6.95999 -0.155635 2.88838 -0.697722
535 -6.94066 -1.62369 -6.91663 -0.543878 0.196101 -1.14884
821 -7.66615 -1.47429 -6.12549 0.609325 -1.8068 1.12455
537 -6.34247 -1.4515 -7.79571 -0.840721 2.55159 -0.660645
490 -5.48203 -2.24656 -7.75092 -0.99971 -0.991871 -0.971403
491 -5.4919 -3.07482 -7.03606 -0.339431 1.43391 1.36789
492 -6.23562 -2.22849 -6.94704 2.37018 -0.669856 2.49991
539 -5.45371 -1.4279 -6.90892 -0.98891 -0.282465 0.571789
494 -3.99383 -2.29189 -7.64607 4.3444 0.368086 2.3071
541 -4.62077 -1.41581 -7.697 0.794115 -0.418969 -2.65851
496 -4.73708 -2.28014 -6.99292 0.127801 -1.35878 -1.5976
782 -3.80894 -2.15922 -6.06976 -0.0761918 -1.84683 -0.0797556
543 -3.94931 -1.4871 -6.98994 0.610438 1.32421 -0.363313
499 -2.40755 -3.04467 -6.95941 0.612355 -3.52618 1.39841
498 -2.40396 -2.38773 -7.73207 0.650327 -0.224107 -0.875299
500 -3.25236 -2.26909 -6.9849 0.0526634 1.45115 0.492012
833 -3.16946 -1.47375 -6.37917 0.476865 -0.554798 -1.76685
549 -1.60929 -1.53653 -7.6801 -2.3046 -0.580814 1.88439
501 -1.53263 -2.9301 -7.74061 2.8382 1.88623 0.537115
503 -0.869989 -3.04927 -6.9382 0.339874 -1.50439 -3.59042
504 -1.618 -2.22339 -6.94834 -0.546479 3.05525 -0.717844
505 0.0246031 -3.10746 -7.71914 -0.730976 1.28988 -2.4448
551 -0.780555 -1.3616 -7.00259 2.15624 -0.983867 0.427531
790 -0.844535 -2.24697 -6.35313 -3.06858 -0.712573 -3.04195
508 -0.161654 -2.24545 -7.13329 0.52056 -0.383047 0.0699101
507 0.747149 -2.75329 -6.6161 -0.448266 3.14534 0.719936
512 1.61976 -2.14734 -6.85483 -0.00819205 -0.0440078 1.57502
511 2.15056 -3.04557 -6.84879 -1.99195 -3.31128 1.20961
513 3.05946 -2.96117 -7.5296 0.0432686 -1.06878 -1.09436
510 2.25469 -2.349 -7.69491 -1.8483 0.709488 -0.648992
801 3.07277 -3.01344 -6.23493 1.57783 0.755979 -0.811533
516 3.17887 -2.09461 -6.86175 -0.295421 -1.03929 -0.309086