ITEM: TIMESTEP
30000
ITEM: NUMBER OF ATOMS
6912
ITEM: BOX BOUNDS pp pp pp
-9.2265715179435492e+00 9.2265715179435492e+00
-9.2265715179435492e+00 9.2265715179435492e+00
-9.2265715179435492e+00 9.2265715179435492e+00
ITEM: ATOMS id x y z vx vy vz
51 -8.51342 -7.71815 -8.53404 -1.72576 -0.952335 1.72847
8 -7.7301 -8.3452 -8.51274 0.832177 0.6529 0.654817
55 -6.95015 -7.69391 -8.51552 1.5475 -1.00708 3.115
341 -7.85363 -7.69038 -7.75329 0.66371 3.43256 -0.447725
1954 3.93183 -2.14006 -0.132823 0.432392 0.975669 2.1942
12 -6.15205 -8.37166 -8.30878 0.76768 -1.61343 -2.20938
59 -5.28911 -7.68856 -8.41584 0.514239 -0.340578 1.92405
3751 -6.98866 -0.038309 -6.81562 0.277593 -1.21437 1.10378
94 8.32666 -6.92301 -9.22308 -1.41289 1.65712 -0.0418253
899 3.95072 -9.19657 -3.89606 -0.862948 2.78133 0.736729
16 -4.64343 -8.41671 -8.48294 1.00201 -0.61613 0.0413069
1684 9.09083 -0.825287 -0.67359 2.6471 -2.14313 0.479299
302 -3.86575 -8.43095 -7.74264 -0.498595 2.46668 1.66626
349 -4.49605 -7.6301 -7.82853 2.89696 -0.880323 0.117965
3765 -1.5169 -0.168736 -7.65847 -0.109466 1.35017 0.634193
20 -3.13488 -8.46304 -8.49419 -1.65582 -1.74324 0.810595
306 -2.45755 -8.46224 -7.79584 1.26117 1.37322 1.04073
1473 3.03576 -9.17422 -1.60629 0.897292 2.06655 1.16854
43 6.86312 -9.10949 -8.57382 -1.85912 1.51831 2.99931
24 -1.59207 -8.49178 -8.50938 1.55745 -1.72157 0.475489
310 -1.05367 -8.48503 -7.57149 -2.2764 2.93914 -1.31083
621 7.74457 -9.09369 -6.23928 0.194168 -0.379294 1.4412
3761 -3.45692 -0.0832274 -7.5647 -1.04974 0.350735 0.770411
5185 9.15024 -0.0912238 -0.0266606 1.7949 -0.526906 -0.520205
28 -0.166756 -8.45286 -8.14795 -0.139119 -0.449074 -0.0688731
101 -7.67431 -6.21917 -9.09652 -1.11813 2.01875 -0.807785
93 7.82815 -7.73364 -9.06659 0.46605 0.428908 -0.836003
32 1.49449 -8.71236 -8.37532 0.130996 2.3872 1.72956
75 0.732337 -7.88612 -8.53487 1.30301 0.368964 -2.98172
297 -6.12319 -9.18733 -7.69033 2.35692 -0.0777114 -1.17539
3467 -5.31911 -0.232976 -8.51296 -2.65887 -2.82985 1.52627
36 3.01976 -8.45602 -8.40606 0.112729 -1.98512 0.413344
79 2.19726 -7.95583 -8.3352 0.102929 -0.067641 0.0251178
318 2.16642 -8.59336 -7.53896 -0.90502 2.05604 0.894426
369 2.94998 -7.62665 -7.66843 -0.616836 1.2694 1.54401
1769 6.0568 -9.16042 -0.131218 -0.427521 -0.375914 -0.212317
9 -6.11191 -9.1859 -9.126 0.954153 -0.0846759 0.453165
40 4.57445 -8.50763 -8.3582 1.01406 -0.687615 -0.749929
585 -6.23535 -9.18356 -6.18949 -1.7179 0.817275 0.690311
373 4.5079 -7.64297 -7.61242 -2.67411 -0.540802 -0.146314
322 3.70147 -8.46187 -7.68626 -1.95536 0.550037 -2.29919
1728 7.64361 -0.820182 -0.842864 1.07026 -2.2392 0.567269
44 6.10283 -8.36232 -8.67529 -0.0324274 1.60989 2.49011
87 5.1006 -7.65098 -8.48238 -1.05177 1.07223 0.17477
326 5.31497 -8.37665 -7.76412 0.452641 2.55305 0.288996
377 6.04381 -7.59076 -7.8015 -0.870524 1.96914 1.10796
299 -5.40123 -9.02157 -6.95734 0.514141 -2.47562 -1.45021
48 7.6705 -8.47104 -8.4539 -1.03163 1.4893 2.04807
330 6.81327 -8.44304 -7.74291 3.07585 -2.68919 1.5704
205 -4.70883 -3.03984 -9.17939 -0.235429 -0.0836051 -0.132713
4 9.08654 -8.55364 -8.45095 -0.083704 2.3827 -2.36078
95 8.43822 -7.53368 -8.30644 -2.72549 0.43254 -1.41666
337 -9.17397 -7.68049 -7.85358 -1.35155 0.502155 0.279659
99 -8.44885 -6.35032 -8.45609 0.673209 -0.365253 -2.62615
338 -8.48813 -6.95711 -7.67293 0.397591 2.18216 -0.519856
52 -9.17183 -7.00365 -8.53126 -2.58824 -1.21584 -0.0558021
385 -9.10936 -5.92179 -7.73091 -0.784469 -0.325182 2.48832
4907 -5.31693 -0.15351 -0.680404 -1.77874 1.506 0.308905
30 2.28166 -8.40182 -9.15935 0.82511 0.431739 0.462967
56 -7.79146 -6.97222 -8.46412 -0.470572 1.8124 -2.92337
103 -6.71822 -6.15887 -8.33983 2.37754 0.832738 -0.663981
342 -6.9337 -6.97193 -7.7442 1.19374 1.21331 0.889348
389 -7.68041 -6.21838 -7.69285 0.115246 -1.00227 0.816037
345 -6.15524 -7.6361 -7.63867 -0.670196 0.703737 -0.551247
60 -6.24363 -7.04008 -8.47553 1.45165 1.69086 -0.532898
346 -5.28416 -6.90666 -7.69031 0.865154 0.593315 0.210758
393 -5.79134 -5.96349 -7.68043 0.929555 0.602237 0.289718
107 -5.5427 -6.30724 -8.54532 -0.251518 1.00884 -3.67039
5209 -0.0567896 -0.123282 -0.0929125 0.263494 -1.57869 0.616407
63 -3.92211 -7.64193 -8.67092 5.05918e-05 -3.65296 -0.24542
64 -4.61844 -6.90753 -8.59817 0.6976 -0.453434 0.860393
111 -3.86014 -6.22979 -8.55427 -0.14308 -1.27913 0.97639
885 -1.62509 -9.11921 -4.71949 0.734258 -0.811518 -1.13013
68 -3.0866 -6.92463 -8.58042 1.83768 -0.610449 2.63013
67 -2.43664 -7.64072 -8.60617 -4.44506 1.62595 -2.53294
354 -2.34167 -6.94816 -7.69952 -0.692147 -0.273128 1.6153
353 -3.17113 -7.63775 -7.71654 0.415535 -0.321633 2.49859
71 -0.796386 -7.52106 -8.44903 0.740827 1.13114 0.103081
72 -1.51516 -6.85059 -8.45735 -1.63986 -2.02857 0.601368
358 -0.729192 -6.82585 -7.73633 1.14025 2.93072 0.135521
405 -1.59164 -6.20621 -7.78812 1.40148 -0.338804 -0.773508
4359 5.37012 -0.0183813 -3.92283 1.59985 0.443523 -1.84723
76 -0.0172611 -6.88505 -8.47699 -0.51095 1.96357 -1.14778
409 0.0654865 -6.08531 -7.85493 -1.08457 0.368224 -1.60998
80 1.67239 -6.89525 -8.50346 0.83498 1.83184 -0.567348
4335 -4.06121 -0.0634012 -3.62725 1.31346 -1.45927 -0.451834
225 3.23546 -3.07501 -9.17031 0.546996 0.86029 -0.713625
84 3.03558 -6.81026 -8.47216 -1.15159 -0.511792 -2.69294
366 2.13461 -6.89699 -7.62835 0.413469 -3.00681 0.3362
4609 9.19588 -0.0271771 -3.16931 1.22263 0.650917 -0.494275
83 3.70666 -7.74858 -8.41672 0.534178 0.489816 0.344511
88 4.45956 -6.94646 -8.4184 0.169682 -1.23348 -1.64042
131 3.86497 -6.08153 -8.56213 0.0602402 -3.80841 -1.09711
4055 -0.646117 -0.0372767 -5.43324 3.21115 -2.89864 1.38401
4619 -5.4883 -0.124188 -2.10169 -0.205211 -3.54405 0.0832125
907 6.83234 -9.22468 -3.64678 0.593932 -3.46799 -0.955515
92 6.33969 -6.89326 -8.59844 -1.06684 1.11 -0.0401044
374 5.25398 -6.83283 -7.7782 -0.784733 0.710134 -0.697937
91 6.93859 -7.76223 -8.49667 0.336396 -3.46627 0.149926
96 7.70984 -6.79318 -8.4598 0.493335 1.20963 1.23289
139 6.95842 -6.10448 -8.45732 0.980295 -0.811842 -1.37685
4361 6.22774 -0.105716 -4.60798 0.844777 -1.0154 -0.60776
378 6.93599 -7.03127 -7.80209 0.948686 0.782962 -0.389742
382 8.41567 -6.86221 -7.67265 2.81658 -0.860856 -0.582081
143 8.6452 -6.00692 -8.55342 -0.789355 -0.53555 1.44896
3479 -0.690366 -0.00998434 -8.32858 0.306621 0.379079 3.34201
100 -9.09722 -5.33049 -8.51459 2.48695 -1.58455 0.513546
386 -8.41753 -5.16552 -7.70583 0.851814 -0.831573 -2.35133
4941 7.62294 -0.0238253 -1.51747 -1.54412 0.102896 -1.29711
887 -0.785028 -9.18449 -3.81571 -2.43572 -1.99871 -0.772252
104 -7.69805 -5.55436 -8.35901 0.963465 -0.371531 0.341191
137 6.09568 -6.15543 -9.12195 0.720013 0.909757 -0.627912
437 -7.72164 -4.44751 -7.74062 0.208289 0.697656 2.03835
108 -6.37176 -5.341 -8.49338 1.88074 -0.792875 -0.459052
155 -5.26556 -4.60665 -8.62922 -0.769664 0.588874 0.350182
23 -0.638688 -9.20741 -8.3635 -0.0480256 0.23055 -0.31791
394 -5.06555 -5.35347 -7.60594 1.31455 0.337117 -0.159013
112 -4.59686 -5.48619 -8.39228 0.21478 0.197193 1.57555
159 -4.00588 -4.56156 -8.61779 -0.1947 -0.503988 -2.87255
4631 -0.668729 -0.0386725 -2.32027 -1.09764 0.268523 1.47114
1449 -6.25552 -9.14344 -1.59471 0.43223 0.256706 -1.45441
115 -2.33915 -6.2948 -8.58142 -0.129966 2.62039 -2.57032
116 -3.11865 -5.53808 -8.55174 -2.92337 0.0358516 0.945574
402 -2.23532 -5.5405 -7.95483 0.219103 -0.564324 0.45718
449 -3.12667 -4.67304 -7.74354 -1.96279 -2.4006 -1.05606
119 -0.719875 -6.22765 -8.5539 3.32725 -0.596014 -1.12831
120 -1.42192 -5.44439 -8.51418 1.11548 1.41532 0.117173
453 -1.49584 -4.65838 -7.65617 -0.0389816 -0.112591 -1.74306
406 -0.739843 -5.44994 -7.70467 0.791778 1.48057 0.915819
270 2.37384 -0.737974 -9.11519 -2.79747 1.58321 -1.66758
124 0.251113 -5.39966 -8.54202 1.39975 0.35612 0.210568
167 -0.770848 -4.69854 -8.4933 -1.28295 2.78343 3.82701
109 -4.75858 -6.1435 -9.18665 -0.616891 -1.08752 -0.194843
457 0.0145033 -4.49276 -7.90465 -0.63143 -0.640003 -0.69385
123 0.900048 -6.20641 -8.48326 -2.60162 -0.563658 -0.153623
128 1.42718 -5.24121 -8.37838 -0.748366 3.53937 -0.730494
171 0.826649 -4.48571 -8.52361 1.22273 0.601425 -0.987726
410 0.715285 -5.23278 -7.70273 1.19785 0.226914 0.78599
74 0.802625 -7.02737 -9.1549 -1.68751 -0.0243099 -0.619055
127 2.20458 -6.13297 -8.30963 -1.09843 0.313435 1.13393
132 3.20704 -5.41572 -8.49764 -1.20058 -0.22404 -0.520199
175 2.37243 -4.51868 -8.49922 -1.19741 -0.0606289 -0.183682
1946 0.777754 -2.32917 -0.0130754 -1.67428 -1.15702 0.940338
136 4.59986 -5.31475 -8.57081 -0.482733 0.276261 1.80656
135 5.36949 -5.97088 -8.49299 -0.736694 -0.488944 -0.544753
140 6.17428 -5.33644 -8.54206 -1.39813 -1.73546 -0.893202
183 5.55442 -4.47412 -8.49794 -1.35064 0.0371716 -0.896614
4365 7.65042 -0.0712918 -4.65704 1.82852 0.244491 -1.13983
422 5.37431 -5.25406 -7.80359 2.27908 0.422678 0.756206
473 6.22737 -4.64655 -7.71843 -0.323326 -0.97406 0.533852
1969 -9.12159 -1.4552 -0.00043109 1.79986 0.805026 1.54057
144 7.63474 -5.21007 -8.58751 0.321595 2.16437 1.47685
39 5.4521 -9.16276 -8.59458 0.484014 -0.272056 -0.877837
4321 -9.05647 -0.20637 -4.64145 1.41185 -2.89785 -1.47434
191 8.58627 -4.3815 -8.46018 2.14863 1.44749 0.636112
2006 5.44897 -0.898698 -0.0344941 2.04999 -1.47648 -1.38794
147 -8.48059 -4.60363 -8.60839 1.3538 -2.42959 -1.07645
281 6.30771 -1.47394 -9.14956 -0.363124 -0.899815 1.39104
434 -8.43932 -3.79186 -7.83769 0.571265 0.842783 -0.452324
148 -9.08901 -3.59612 -8.68029 0.378901 0.0780683 1.34227
151 -6.89051 -4.48687 -8.58087 -0.258424 -2.17218 -0.800953
152 -7.70515 -3.80118 -8.68864 -0.0445928 -0.108175 0.618503
438 -6.84905 -3.81408 -7.8446 1.84668 1.14802 0.655778
1998 2.29537 -0.660661 -0.0686691 -0.171628 -0.29709 1.08544
156 -6.11296 -3.85921 -8.6047 -1.13672 1.49157 -0.605971
442 -5.59851 -3.90174 -7.7278 0.390099 3.29614 1.0509
441 -5.89147 -4.92425 -7.79516 0.493354 1.78929 -1.72059
160 -4.82925 -3.84687 -8.38229 -0.550684 -0.768969 -0.879403
207 -4.08009 -3.10762 -8.33679 1.63863 -2.821 1.1532
445 -4.59404 -4.54778 -7.49779 0.274803 1.14161 0.944265
493 -4.7688 -3.12811 -7.51069 3.83772 -2.3298 -1.328
4327 -6.99516 -0.04821 -3.75781 -0.844532 -0.254393 0.561718
163 -2.48005 -4.72925 -8.60389 2.10862 0.0201633 -2.89261
164 -3.00682 -3.83313 -8.49604 -1.08552 0.137847 -1.48708
450 -2.31669 -4.0519 -7.76929 0.513827 -0.852655 -2.50003
211 -2.22977 -3.04326 -8.29996 -2.26966 -0.234752 -0.876067
97 -9.11269 -6.30257 -9.2222 -1.7683 2.98897 0.0400441
168 -1.53004 -3.93583 -8.66509 -0.449143 -1.08938 0.574348
82 3.8421 -6.9658 -9.16027 -1.01757 0.693778 -0.255135
454 -0.816006 -3.85568 -7.84402 0.00219754 -2.27457 -0.326472
172 0.0298057 -3.59924 -8.51665 -0.126486 0.983652 1.10706
505 -0.180957 -3.019 -7.70997 0.630175 0.714923 0.959385
3491 3.99228 -0.0797647 -8.57564 0.571818 1.40252 -0.62112
615 5.34782 -9.06446 -5.41339 0.915336 0.197504 0.172747
219 0.932449 -2.9704 -8.56922 -2.96781 -0.0348881 1.92084
176 1.66195 -3.70355 -8.54013 -1.17572 0.648131 1.34429
458 0.783636 -3.66016 -7.86577 1.77656 1.53879 -0.852638
180 3.00004 -3.78486 -8.50494 1.57345 -0.0087204 -0.3772
223 2.34644 -3.02102 -8.4538 0.328747 0.725509 -0.597171
179 3.68362 -4.46512 -8.51638 1.35105 -0.50861 -1.62561
184 4.64642 -3.90144 -8.58535 -2.3621 -1.69759 -0.195448
517 4.59854 -2.98074 -7.72158 -2.12781 -0.428696 -2.30795
469 4.55871 -4.55532 -7.75609 -1.93684 0.116404 -0.267665
3787 6.91792 -0.0674663 -7.13003 1.1675 1.11326 0.0225959
188 6.16209 -3.69162 -8.42858 -0.0921765 -0.0922591 1.74398
231 5.32382 -3.06905 -8.40917 -1.5242 0.375421 1.73844
470 5.32318 -3.79402 -7.75272 -1.70814 2.84108 0.130813
158 -3.90732 -3.75994 -9.11972 0.240974 1.61353 0.766023
187 6.89441 -4.58429 -8.54557 2.29368 -1.17117 1.16544
192 7.52546 -3.76312 -8.3081 -0.514167 0.588035 0.874593
235 6.95983 -3.01649 -8.49177 2.88082 -1.6844 -1.32977
477 7.65473 -4.62451 -7.73579 -1.36153 0.428242 -0.513822
433 -9.10996 -4.49816 -7.85174 0.294315 -1.49052 -0.843589
478 8.45783 -3.86994 -7.50496 2.20891 1.64931 0.444233
86 5.28025 -6.80949 -9.16907 0.574626 -2.98154 -1.29331
4033 -9.15877 -0.0213575 -6.3311 -1.10978 0.337846 -0.952277
195 -8.34753 -2.94764 -8.59665 -1.46605 -0.62179 1.37383
196 -9.02543 -2.31227 -8.36134 1.56752 -0.0223683 0.714774
482 -8.37987 -2.29514 -7.53481 1.76239 3.32784 -0.671038
199 -7.00982 -3.05267 -8.6162 -0.00692866 -0.0568235 -1.39169
200 -7.72379 -2.17501 -8.55244 1.89006 0.454906 -0.779696
486 -6.97072 -2.30182 -7.88319 -1.77511 -0.481966 0.283633
485 -7.73681 -3.10998 -7.89604 1.07559 3.49509 0.186107
203 -5.42686 -2.96483 -8.31434 0.0746501 -0.419361 -0.489261
204 -6.18396 -2.37433 -8.44698 -0.667983 0.551203 0.731209
490 -5.43467 -2.38821 -7.36228 -1.63628 -2.31197 -1.24441
537 -6.42922 -1.47378 -7.79281 -1.45395 1.76988 1.26731
489 -6.20261 -3.14036 -7.62169 -0.352831 -1.78275 -0.00145698
3753 -6.11711 -0.213089 -7.70609 -0.371013 0.787221 -1.99718
208 -4.58973 -2.27606 -8.3512 0.129708 0.878919 1.46911
494 -3.99169 -2.41596 -7.56038 0.438078 0.671657 2.39539
212 -3.28602 -2.45346 -8.51309 2.36619 -0.617725 1.98622
259 -2.40957 -1.52868 -8.58116 -0.752829 -1.37294 -0.298454
3465 -6.16175 -0.0833699 -9.18366 -1.20317 -1.97011 -1.39014
215 -0.831716 -2.98084 -8.48838 -0.590434 -0.444183 0.78169
216 -1.67563 -2.26323 -8.46768 -0.901504 -0.407785 1.83783
502 -0.918389 -2.23706 -7.66835 -2.34763 1.46531 -1.64092
220 -0.00170923 -2.3493 -8.52529 -0.749718 0.16041 -0.317959
553 -0.0826932 -1.64228 -7.79381 1.97822 -2.12756 -0.38899
1445 -7.78764 -9.11628 -1.59025 0.0967315 -0.82693 0.530419
4919 -0.793151 -0.0739368 -0.809062 0.396563 -0.737587 1.62238
224 1.56554 -2.30093 -8.34973 1.65876 -0.29158 -1.67809
267 0.724151 -1.58973 -8.57602 0.327421 1.42043 -0.968166
142 8.437 -5.25493 -9.19551 -1.28273 0.73824 0.84522
228 3.16596 -2.28167 -8.56954 -3.40949 0.686118 0.102021
271 2.39423 -1.47899 -8.36655 -0.911918 -1.21193 2.3278
561 3.16695 -1.54599 -7.60303 -1.73657 -1.55272 -0.192652
227 4.0253 -2.93937 -8.49888 -0.117266 1.57529 0.0833122
232 4.70463 -2.0827 -8.48348 2.84819 -0.405476 -0.199056
275 3.83437 -1.46419 -8.29126 -1.40501 -2.13975 1.07693
10 -5.41365 -8.43343 -9.22654 -0.103203 0.318176 -0.325215
3469 -4.57732 -0.0966404 -9.1715 -2.79189 0.924961 -0.959551
236 6.17397 -2.27966 -8.53562 2.9034 1.19221 0.707489
518 5.52127 -2.1109 -7.84373 0.261951 -2.74428 0.906518
521 6.15832 -2.85978 -7.78628 -3.04759 0.762139 -1.2282
240 7.70492 -2.30629 -8.42368 0.755799 -1.14194 1.49959
239 8.46847 -3.23709 -8.35086 0.0583023 0.135702 0.174462
4325 -7.54297 -0.103381 -4.65334 -0.090798 -3.40978 -1.81035
243 -8.41369 -1.58278 -8.48855 2.95342 0.595019 0.304376
5221 4.73279 -0.0438678 -0.0822431 0.812272 1.72999 -1.37566
247 -6.98739 -1.44115 -8.57509 -0.513681 -1.10005 -0.877529
248 -7.64171 -0.609841 -8.54893 -4.07183 0.813239 1.94293
3481 -0.0215799 -0.0282427 -9.18455 -1.24178 -0.496764 0.601972
533 -7.69429 -1.54008 -7.67822 1.14325 1.4808 -2.60886
1723 6.95687 -1.57857 -0.760467 -0.39567 0.539385 0.849298
251 -5.42395 -1.64115 -8.25531 -0.06659 0.955818 1.41766
252 -6.21545 -0.789357 -8.51425 0.999527 -0.0793017 -1.58556
538 -5.3349 -0.838802 -7.50756 1.16013 -2.17455 0.964893
541 -4.70616 -1.67704 -7.52241 0.0687931 3.59875 -0.36152
255 -3.86296 -1.61515 -8.385 0.275662 1.12406 -1.80582
256 -4.65117 -0.966676 -8.23319 0.540312 0.269287 -0.613877
542 -4.02939 -0.868893 -7.57883 -1.30048 0.186346 -1.92193
4917 -1.48818 -0.0184022 -1.52923 0.177591 0.553597 0.112133
1722 6.89061 -0.954476 -1.51339 2.7935 -0.115893 -1.74771
545 -3.18985 -1.446 -7.52612 0.00418035 0.313538 0.398729
260 -3.21618 -0.803478 -8.40317 -1.05857 0.299619 2.12345
546 -2.336 -0.852607 -7.69573 0.0397711 0.588385 0.051404
37 4.63046 -9.12963 -9.13863 -1.93236 0.293734 1.67535
549 -1.57763 -1.47551 -7.46736 -1.76257 0.596792 -1.14086
264 -1.49278 -0.93793 -8.37227 -0.428377 -2.97083 -1.06813
550 -0.779615 -0.909684 -7.64685 1.62958 -0.374024 0.214242
901 4.66507 -9.18651 -4.67279 -0.767838 1.35114 1.1409
141 7.76257 -6.16475 -9.21768 2.1904 0.594929 0.0165576
263 -0.801014 -1.6568 -8.5265 0.448788 -1.20777 -2.15259
268 0.0818721 -0.750285 -8.38912 0.370126 1.05051 2.05347
202 -5.45167 -2.39868 -9.1447 -0.85956 1.32538 1.08528
4357 4.6896 -0.0232236 -4.61291 -3.26352 -0.374862 0.507225
272 1.56108 -0.702626 -8.33914 -0.11996 -0.144966 -0.662808
554 0.792288 -0.858494 -7.74167 -1.59058 -1.09209 -1.06788
7 -6.92933 -9.08208 -8.45115 -0.0617954 -1.66704 0.073376
198 -6.8783 -2.26206 -9.21103 -1.9566 -0.344426 0.118321
601 -0.0231594 -9.10147 -6.0497 -0.468805 -1.46978 -0.535218
276 3.10722 -0.628985 -8.38223 -2.12713 1.0799 -0.974756
4629 -1.4869 -0.127568 -3.09967 1.35069 -1.41704 -1.0588
3781 4.5924 -0.0759712 -7.80368 -2.19554 0.674538 1.45582
266 0.743698 -0.611482 -9.11781 -1.32877 1.14136 -1.14156
280 4.59878 -0.841333 -8.63946 0.707705 -0.243241 1.75423
1477 4.55606 -9.18965 -1.60871 0.565286 -1.19788 0.36448
54 -6.90053 -6.92216 -9.15385 2.61554 0.136691 0.847809
4041 -6.19387 -0.0127541 -6.03126 0.995785 2.68401 1.38208
279 5.41269 -1.48479 -8.48651 0.114686 0.616448 -0.511531
284 6.21025 -0.781833 -8.57495 -2.77236 1.70987 2.18663
566 5.56246 -0.663588 -7.83819 -0.375313 0.288798 2.24531
283 7.0322 -1.44276 -8.48825 0.26112 1.5479 -0.411233
288 7.74177 -0.671474 -8.61042 -1.47321 0.0235577 -1.76525
573 7.56821 -1.42827 -7.66707 -0.106746 -0.740932 0.702699
53 -7.6866 -7.65552 -9.21774 -0.877514 1.94621 -0.222441
2010 6.95333 -0.676986 -0.155225 -1.30406 -0.532135 -0.38863
244 -9.14686 -0.745174 -8.48851 -0.470142 -1.20153 -0.145539
287 8.55915 -1.60077 -8.57863 0.044031 2.10001 -0.36081
290 -8.53384 -8.39146 -7.89538 -2.35725 -0.995238 -0.351981
1914 6.80436 -3.80461 -0.0740552 -3.13841 2.07948 1.37628
292 -9.18048 -8.36229 -7.07528 -1.2379 1.78947 1.39032
294 -7.04468 -8.3824 -7.65157 1.43921 0.848573 1.97313
296 -7.86738 -8.3676 -6.82004 0.295187 -1.28165 -0.156882
343 -6.96809 -7.69141 -6.91348 1.34289 -0.477386 -0.55966
1813 4.60583 -7.70029 -0.0336944 -0.28528 -0.97598 2.80172
298 -5.37579 -8.30158 -7.69112 0.703311 -1.21136 -0.0833773
300 -6.04733 -8.32998 -6.87118 -0.480605 2.69366 0.470856
1781 -7.61925 -7.90587 -0.105779 0.745621 0.780206 -1.4078
347 -5.45338 -7.62982 -6.78899 0.793097 -0.404425 0.970549
4617 -6.22658 -0.0749314 -2.94071 -1.03396 0.230512 0.146596
81 3.0285 -7.61035 -9.10418 0.550342 0.152651 -2.67349
304 -4.57915 -8.23607 -7.06334 -2.21619 2.26818 -0.654183
590 -3.92626 -8.58363 -6.21236 -0.418524 1.50525 -0.928786
1195 6.95888 -9.22549 -2.21841 -2.85078 -0.0574074 2.40007
308 -3.08293 -8.61952 -6.92897 -1.64063 0.993646 0.732776
891 0.59788 -9.20044 -3.90936 0.998335 -0.140373 -0.362114
312 -1.83073 -8.68917 -6.91594 -0.0534702 3.23023 0.263649
4353 3.24264 -0.0477831 -4.5134 -0.436094 -0.920409 -0.877283
316 -0.109961 -8.46382 -6.95717 0.743877 1.13013 -0.103351
1994 1.01399 -0.646765 -0.0453385 2.28261 -0.431394 0.380741
314 0.705096 -8.55865 -7.56024 -1.24458 0.203108 -1.09785
320 1.39479 -8.35833 -6.92519 -1.99085 0.783495 0.146221
653 1.54536 -7.60827 -6.11767 0.61189 1.86419 -0.685809
879 -3.81213 -9.20603 -3.93974 -0.0617215 -0.47722 2.74318
606 2.20118 -8.31485 -6.14623 0.0384415 0.52911 0.959652
324 3.08243 -8.42057 -6.86857 1.24159 0.207211 -0.69125
4647 5.31703 -0.00753992 -2.33861 0.0768867 0.191965 -1.71553
328 4.48044 -8.52739 -7.04958 0.301285 1.72529 -0.0192911
371 3.70972 -7.55724 -6.91209 -1.93433 -1.26874 0.64443
661 4.52977 -7.70446 -6.28049 -1.23132 -0.675327 -0.860699
332 6.09863 -8.3266 -6.9992 -0.778033 -0.413529 1.09764
336 7.71627 -8.43631 -7.02609 0.326494 -2.24279 -0.0206659
379 6.86196 -7.66327 -6.99245 1.81453 0.765418 2.40571
381 7.65085 -7.73753 -7.79935 2.4466 0.19599 -0.0194347
669 7.70511 -7.76448 -6.30534 2.07791 -0.368496 -1.87556
334 8.55725 -8.38882 -7.64863 0.795412 -1.25633 -1.91405
383 8.49606 -7.64224 -7.01321 -2.35786 -0.673988 0.894342
78 2.38582 -6.79019 -9.18648 -1.65655 0.87733 0.661332
339 -8.64379 -7.61759 -6.82169 1.6861 2.14707 -1.87631
387 -8.59241 -5.97238 -6.85926 3.23941 2.78991 -1.32544
344 -7.8401 -6.94992 -6.98026 0.0960544 3.64505 1.97627
630 -6.87972 -6.89402 -6.16211 1.98556 -0.430521 -1.0623
391 -6.77287 -6.07544 -7.21127 0.863392 0.721944 0.589267
348 -6.20774 -6.90183 -6.98739 0.47297 1.51904 1.41042
395 -5.24499 -6.17829 -6.79424 -0.0405114 -0.3899 -2.84729
634 -5.3592 -6.81428 -6.01612 1.03841 -0.434104 0.880507
637 -4.62519 -7.76356 -6.12563 0.108839 0.909687 -1.74381
350 -3.81144 -6.90191 -7.79136 -1.63575 -0.112152 0.390185
351 -3.77897 -7.75951 -6.91324 0.61261 -2.24533 -0.535464
352 -4.5893 -6.99245 -7.06065 -1.49801 -0.367716 -0.35179
685 -4.4783 -6.05078 -6.07241 -0.555334 1.10703 0.266446
638 -3.88508 -7.03681 -6.05235 1.44968 1.09012 -0.0448623
355 -2.48387 -7.73175 -7.00533 0.379419 -0.763493 0.712321
356 -3.14721 -6.6967 -6.88187 -1.15612 0.29028 0.790067
403 -2.20537 -6.1533 -6.93216 -1.69443 -1.37365 -0.320879
401 -3.1099 -6.15754 -7.7643 0.0970193 -0.164648 -0.845401
642 -2.46633 -7.07948 -6.13884 2.07531 -5.56678 1.08256
357 -1.69242 -7.7025 -7.81132 0.552664 -1.77687 0.890553
359 -0.824779 -7.67627 -6.94622 -1.19734 0.0514062 -0.280148
645 -1.66252 -7.75912 -6.0922 -0.333665 -1.20723 1.77312
360 -1.58741 -7.04269 -6.89514 0.516026 -0.851016 2.26095
361 -0.0478981 -7.54805 -7.67116 1.90355 -2.22065 -2.03627
649 0.0127392 -7.78344 -6.09275 -2.23829 -1.20634 -2.04371
364 0.306228 -6.84593 -7.11979 0.211007 -0.48304 0.11957
365 1.57548 -7.76037 -7.69386 1.34963 0.0668841 1.32455
363 0.633293 -7.7914 -6.89365 -1.08747 -1.8099 -0.119961
362 0.972797 -7.05401 -7.79112 -0.305786 1.62135 1.58922
368 1.37351 -6.9896 -6.90735 2.08769 -0.957438 -2.14434
367 2.23294 -7.63765 -6.94118 1.08709 -1.8533 0.739786
372 3.07039 -6.77465 -6.96128 -0.102353 -1.02795 -0.487148
415 2.12495 -6.07524 -6.95261 -0.458545 2.41507 0.198937
657 2.96473 -7.71815 -6.1466 -1.02396 0.715373 0.0714561
421 4.56888 -6.03674 -7.79307 -1.69119 -0.771545 -1.21155
370 3.67101 -6.75664 -7.67663 1.09505 0.560444 -0.557807
376 4.57426 -6.83441 -6.90402 -1.17675 -0.225035 -2.05159
419 3.83553 -6.11142 -6.70851 -0.44068 1.01865 -1.17522
658 3.88129 -6.98265 -6.0675 -2.21459 -2.30163 0.571595
375 5.35177 -7.76298 -7.03855 1.46194 2.00854 1.16052
380 6.08434 -6.8801 -6.99548 2.39788 -0.372325 -0.852592
423 5.20728 -6.01829 -7.03459 -1.04263 2.0074 -1.37181
429 7.75222 -5.98849 -7.81978 0.265809 0.108963 0.961835
384 7.64503 -6.83759 -6.93811 -0.0206099 -2.831 1.3715
427 6.84569 -5.96358 -6.85696 -0.209504 1.17777 0.184327
340 9.19766 -6.7941 -6.98841 -1.18093 -0.625159 1.59555
431 8.53204 -5.96493 -6.90916 0.365149 0.136174 1.88123
670 8.33672 -6.89468 -6.08206 1.57874 -0.156944 1.51332
388 9.19044 -5.19264 -6.99558 -1.62411 0.925641 0.865164
673 9.11038 -6.14305 -6.17276 -0.0832198 0.326135 -0.0312747
435 -8.52429 -4.66364 -6.82772 -2.75293 1.39676 -1.29723
390 -6.94959 -5.21067 -7.64158 4.001 -1.36817 0.434752
392 -7.75809 -5.44947 -7.00043 -1.87973 0.160517 0.760315
678 -6.83781 -5.41426 -6.31972 2.48344 1.27345 -0.686204
396 -6.1239 -5.20127 -6.94382 2.58214 0.211057 -0.591877
682 -5.35532 -5.47037 -6.2074 0.194397 -1.64771 -0.383579
397 -4.618 -6.22018 -7.7094 -0.944199 1.75216 1.53846
399 -4.02087 -6.19821 -6.96202 -0.303309 0.296654 -1.3266
398 -3.94775 -5.41278 -7.67165 -0.0697867 -0.322088 -0.629757
400 -4.56524 -5.30745 -6.80799 1.35428 -1.41106 -0.12484
447 -3.75836 -4.72679 -6.94362 -1.19662 1.49128 -2.72136
689 -3.19976 -6.24397 -6.04082 -2.03498 -0.33625 -1.9805
404 -3.19814 -5.60722 -6.95656 0.48923 -2.12427 -1.82729
451 -2.34594 -4.85651 -6.96879 0.426437 -0.659264 -2.71351
407 -0.774166 -6.2168 -6.8933 -1.64176 -0.0906809 2.46659
408 -1.48105 -5.40699 -7.00738 3.00785 4.2015 -1.66025
694 -0.836929 -5.27226 -6.1822 1.09025 -1.01727 -1.62636
411 0.760476 -6.05156 -6.97616 -1.06947 3.45047 1.48571
412 0.134316 -5.33142 -6.89513 2.14847 -1.23951 0.649245
455 -0.716865 -4.51084 -6.9411 -0.393507 -0.858345 -2.45273
459 0.755607 -4.52586 -7.0035 -0.253662 -0.148474 -1.1326
697 -0.0456885 -6.23709 -6.24555 2.37236 -0.944318 -1.37315
413 1.47468 -6.04558 -7.615 -1.80635 0.762561 -0.37897
416 1.46273 -5.29761 -6.87684 -1.11781 1.04862 0.679103
701 1.45358 -6.13318 -5.89907 -0.472629 -1.88723 -1.12674
698 0.75094 -5.38354 -6.19818 1.75659 -0.297287 0.0436115
465 3.07951 -4.64946 -7.73968 -1.23508 -1.4871 0.901652
414 2.18401 -5.21873 -7.71596 -3.60694 0.174648 -1.67493
417 2.86072 -6.10035 -7.68638 -2.22008 0.0205291 2.68881
420 2.93329 -5.34493 -6.9319 -0.452971 -0.245344 0.349416
463 2.47488 -4.50586 -6.91717 0.375563 0.0424417 1.70415
705 2.96952 -5.98197 -6.17795 2.03114 -0.668164 -0.183796
418 3.82395 -5.49806 -7.61117 -1.35198 -0.184234 -1.19369
424 4.59058 -5.31123 -6.96932 -0.709471 -1.0402 0.165699
706 3.8524 -5.19775 -6.21143 1.59081 -1.05368 -1.16866
757 4.64101 -4.54151 -6.25266 -0.73064 -2.02103 -0.475224
425 6.1989 -6.18304 -7.75941 -0.451459 2.20234 0.432589
428 6.12062 -5.39711 -7.04457 -0.262386 -0.659108 1.45039
426 6.95667 -5.36051 -7.80056 1.07342 -0.334105 -1.36302
432 7.62608 -5.35187 -6.96633 -1.45447 0.38594 -2.00158
717 7.5771 -6.04462 -6.21724 1.57106 3.6492 -1.36009
714 6.88302 -5.28307 -6.08761 -1.4471 1.19384 -1.18086
430 8.48577 -5.29025 -7.88006 0.802341 1.70235 1.80536
718 8.45322 -5.32135 -6.244 -0.0435267 1.91993 0.728317
479 8.34848 -4.67981 -6.99989 0.711258 1.51423 -0.392395
483 -8.50684 -3.23094 -6.90904 -0.254721 -0.22051 0.572338
722 -8.49712 -3.79269 -6.15778 1.42385 -0.0131012 -0.258899
439 -7.0191 -4.48293 -6.93967 -2.35873 2.18224 0.337788
725 -7.68455 -4.63073 -6.23661 -1.15954 1.26869 0.0205207
440 -7.674 -3.68888 -6.98811 -0.13875 0.976443 -0.111466
726 -6.9607 -3.8775 -6.20965 0.836249 -1.48199 -0.116237
773 -7.71023 -3.34728 -5.88994 -0.91004 0.453265 0.995764
443 -5.35398 -4.63945 -6.82871 -1.32076 -0.582576 -0.502654
444 -6.01527 -3.86893 -6.82587 -0.234371 -1.36791 -0.426088
730 -5.40968 -3.94842 -6.02294 -1.78931 0.196153 0.792825
729 -6.15992 -4.6509 -6.17694 -0.307874 -1.83226 -0.87101
446 -3.87778 -3.93793 -7.6164 -0.128394 -1.24866 -1.21661
448 -4.60231 -3.71703 -6.73719 -0.492287 0.621631 -0.978703
734 -3.78397 -3.90417 -6.23349 2.70007 0.00624493 -0.680843
495 -3.75873 -3.09248 -6.91666 -0.0189186 -0.55237 0.177527
737 -3.00923 -4.56485 -6.1863 1.86914 2.10698 1.03624
452 -3.03876 -3.86519 -6.99319 1.15696 -1.46875 0.395716
738 -2.4399 -3.66 -6.10284 0.397194 1.09667 -1.12205
501 -1.53623 -2.99721 -7.71514 0.0844486 1.03845 0.684965
741 -1.64303 -4.52313 -6.17169 1.90037 -0.624955 0.441017
456 -1.82727 -3.85638 -6.83363 1.43654 -1.09222 -3.17214
745 0.162873 -4.44714 -6.26674 0.723886 -0.768497 1.12508
742 -0.912285 -3.86914 -6.24411 -1.17765 -0.556424 -2.18787
460 -0.00187719 -3.81182 -7.01379 -3.09095 -0.651106 -1.7881
503 -0.873372 -3.21606 -7.04234 -0.794038 4.55949 -2.78574
461 1.51258 -4.49526 -7.63333 -0.0336859 1.07779 0.887264
746 0.794448 -3.62998 -6.19655 -0.0880243 -0.229153 0.0580944
464 1.59982 -3.87038 -6.84975 -0.925985 1.03044 -0.0396356
513 3.17384 -3.00847 -7.82682 -1.69793 0.693536 -2.27749
462 2.37096 -3.80123 -7.69048 -3.91081 -1.9103 -2.13143
468 3.1506 -3.70057 -6.97315 -0.185257 1.90442 1.68161
511 2.21492 -3.03537 -6.86474 0.135034 0.42801 -0.0256875
466 3.88374 -3.86563 -7.75381 1.03357 -1.93164 0.814433
467 3.73072 -4.55113 -6.97834 -0.303671 -0.943103 1.32292
472 4.69273 -3.85784 -7.00643 3.9289 2.23752 -3.23511
515 3.81037 -3.00638 -7.00052 1.1326 -0.00802388 0.275116
754 3.91558 -3.73225 -6.25792 3.14533 -1.05253 -0.0547996
471 5.36455 -4.70089 -6.95541 -0.76003 -2.38594 1.20749
476 6.01826 -3.79423 -6.95349 1.25099 -0.812052 0.239527
758 5.34956 -3.85764 -6.18992 0.283181 0.400805 -0.0475233
519 5.34755 -3.0541 -6.9444 0.842711 0.790006 -0.671646
475 6.75887 -4.6025 -6.97527 -2.14093 0.36466 1.97005
474 6.78305 -3.69515 -7.61349 -0.866694 -0.358918 -2.08053
480 7.46868 -3.76123 -6.92445 1.90151 0.284661 1.41842
523 6.70977 -2.89255 -6.9208 1.39967 -0.870259 -2.68376
436 9.11859 -4.06831 -6.89619 0.187893 0.638208 -0.857385
527 8.379 -3.02896 -7.01893 0.69787 0.349028 -0.775417
481 -9.22328 -3.17688 -7.73825 -0.0779955 2.52099 -0.729101
770 -8.65882 -2.44231 -6.14956 0.403418 1.21397 0.372154
488 -7.69369 -2.59915 -6.68343 -0.510753 -0.0791938 -0.202022
529 -9.2136 -1.55911 -7.6441 -1.03287 2.17539 1.18344
487 -6.81282 -3.25889 -6.85094 0.575725 1.27555 -0.146312
535 -6.99547 -1.6303 -6.97768 2.09087 0.068869 1.28847
774 -7.02109 -2.45823 -5.85468 -1.15493 1.0546 1.51538
491 -5.32922 -3.1614 -6.67268 -2.51072 0.432698 -0.30381
492 -6.41802 -2.32399 -6.91418 -1.29606 0.531647 -0.237386
778 -5.3659 -2.40169 -6.04151 -1.16379 -3.19529 -1.37518
825 -6.21749 -1.61181 -6.12371 -1.83381 2.1849 -0.321541
496 -4.55088 -2.43196 -6.63577 0.476818 -1.47368 1.1069
781 -4.52594 -3.19866 -5.83703 0.995592 3.63312 1.85426
829 -4.74913 -1.5845 -6.02695 1.66056 0.462685 0.593899
782 -3.80285 -2.30868 -5.89727 0.0984936 1.03937 -2.01777
497 -3.17833 -3.10271 -7.80106 0.809446 -0.584204 1.40102
499 -2.45403 -2.94513 -6.92433 -2.06386 0.208991 -0.168051
498 -2.31607 -2.04094 -7.63515 -0.409331 0.613115 -0.76883
500 -3.16092 -2.24303 -7.05022 -1.38646 -3.01005 0.599792
786 -2.41266 -2.36173 -5.98516 1.02446 0.0682949 -0.972404
547 -2.31262 -1.56984 -6.6227 1.05501 -1.80589 2.15166
785 -3.18269 -2.99817 -6.00345 3.6356 1.70296 0.326782
504 -1.60051 -2.41701 -6.97599 2.1775 0.941653 -0.66816
789 -1.52173 -3.03136 -5.98785 -1.9199 1.41982 -1.08718
790 -0.733114 -2.25541 -5.99537 2.19694 1.8011 0.312743
506 0.593863 -2.36321 -7.65485 -0.106575 0.313962 0.273841
508 -0.210987 -2.3563 -7.01622 0.440062 0.469189 0.699519
507 0.981594 -3.1184 -7.03485 2.8688 -2.39769 -1.22191
557 1.56602 -1.49465 -7.79194 3.06876 -1.89856 -0.436531
509 1.70588 -3.13186 -7.75542 -2.1818 0.953168 1.82396
512 1.5668 -2.31889 -7.17439 0.458394 -0.301921 -0.28463
510 2.29797 -2.3118 -7.70754 -0.796678 -0.879422 1.02202
798 2.33875 -2.28524 -6.17597 2.27945 -2.0668 -0.461114
516 3.13692 -2.15283 -6.82777 -0.593601 1.09258 -0.656261
559 2.3889 -1.54937 -6.91333 -2.91144 -1.10703 -2.13211