ITEM: TIMESTEP
127000
ITEM: NUMBER OF ATOMS
6912
ITEM: BOX BOUNDS pp pp pp
-9.2265715179435492e+00 9.2265715179435492e+00
-9.2265715179435492e+00 9.2265715179435492e+00
-9.2265715179435492e+00 9.2265715179435492e+00
ITEM: ATOMS id x y z vx vy vz
4627 -2.28533 -0.00301311 -2.12408 -0.49127 1.43107 -2.12556
253 -4.43194 -1.38224 -9.20609 -2.18955 -1.91608 0.45278
105 -6.09711 -6.26887 -9.07109 -1.0444 1.25037 -1.26321
8 -7.66067 -8.41836 -8.29326 1.61902 -0.264005 -1.02002
4035 -8.48641 -0.0753843 -5.3981 1.41485 1.88067 -1.94819
173 1.46608 -4.6395 -9.04926 2.03724 -1.60076 1.99456
12 -6.1672 -8.50172 -8.40586 -1.49899 -4.26582 0.214479
883 -2.11734 -9.22004 -3.81336 0.501824 -1.57341 -0.302496
237 7.74148 -3.17152 -9.13118 -2.26711 -0.154886 -3.51886
587 -5.45048 -9.00801 -5.35717 -0.974633 -1.8578 2.2487
4331 -5.30762 -0.054528 -3.87812 0.573607 -0.186243 2.95429
16 -4.46397 -8.24592 -8.39556 -1.57845 -3.28364 -1.76485
1163 -5.25013 -8.9311 -2.37359 1.08439 0.643699 0.960869
19 -2.20319 -9.10597 -8.41117 -0.648297 0.953766 0.166079
20 -3.07906 -8.22607 -8.59485 -4.78118 0.274255 1.24772
67 -2.09198 -7.7832 -8.38703 0.919552 1.66207 -0.250663
198 -6.81723 -2.42489 -9.19854 2.30329 -1.40298 -0.208638
15 -3.67281 -9.16192 -8.64704 -0.545148 1.55287 0.979014
1441 9.17904 -9.06863 -1.5441 -2.67364 -0.384426 1.39852
306 -2.36925 -8.42992 -7.47684 0.965227 1.53324 -1.44941
24 -1.38379 -8.49287 -8.36185 -0.70913 -1.70289 -0.435037
4925 1.57343 -0.0772263 -1.44554 1.84219 -0.696476 -2.33737
28 0.0516625 -8.47025 -8.52521 -2.50545 -0.656816 -0.561328
585 -6.11141 -9.04762 -6.17519 -0.412215 -2.59181 1.05372
170 0.689442 -3.69676 -9.06435 0.346352 1.37288 -1.26804
1797 -1.49845 -7.65699 -0.110577 -1.77184 1.4788 0.46115
32 1.62936 -8.57972 -8.31924 -2.04925 0.930081 2.10402
241 9.17034 -1.67126 -9.1417 2.42105 1.84213 -0.740538
4075 6.71033 -0.111449 -5.36418 -0.981425 -2.52866 -1.24089
36 3.07604 -8.60289 -8.33112 -0.512927 0.847238 -0.149325
79 2.38248 -7.8559 -8.3261 0.633216 0.222427 0.485931
30 2.48779 -8.48797 -9.12595 0.173651 -0.533095 1.09632
4617 -5.96439 0.0109139 -3.09749 -0.953607 2.25977 -0.209504
318 2.22758 -8.59643 -7.52743 0.828371 -2.33336 0.650625
7 -6.88541 -9.12322 -8.51087 -2.0892 0.40155 0.688543
40 4.49202 -8.57416 -8.51025 -0.719174 1.1406 2.05347
1726 8.53936 -0.71125 -1.57276 -0.719138 -2.01529 1.21788
44 6.15123 -8.43609 -8.43055 1.1897 0.617922 -2.23304
87 5.14752 -7.68862 -8.32493 0.91382 -0.780967 -0.0232986
326 5.23055 -8.44391 -7.58081 -0.415458 2.02001 -0.244811
210 -2.42853 -2.24165 -9.21672 -3.92097 0.154387 -1.26033
4365 7.80122 -0.0317493 -4.67929 1.2748 2.0891 -1.35506
48 7.8191 -8.41361 -8.46417 -0.595025 -0.813704 -1.53721
330 6.99311 -8.39127 -7.63135 -0.604403 0.296521 -1.74054
4921 0.0328699 -0.0749426 -1.52392 1.26743 3.62873 -0.38794
157 -4.56915 -4.59273 -9.20675 2.18046 -1.13549 -0.065351
1921 -9.06418 -3.03298 -0.0595822 2.07271 0.158828 1.26523
4 9.18793 -8.45462 -8.40135 -0.670691 0.387198 -1.38627
337 9.20296 -7.84701 -7.55292 0.538377 3.66687 3.47854
334 8.37891 -8.28426 -7.68056 0.264192 0.259158 1.64544
335 8.34197 -9.19362 -6.82012 -3.29737 1.24128 0.505376
51 -8.552 -7.65412 -8.29189 1.57201 2.41059 -1.09406
338 -8.54514 -6.89689 -7.56977 2.86612 0.863736 -1.33777
3749 -7.80992 -0.167722 -7.89213 -1.91246 0.755554 -1.79656
56 -7.63808 -6.91659 -8.42398 1.88535 -2.17118 2.27449
55 -6.86894 -7.72003 -8.36523 1.25788 -2.13803 1.56285
342 -6.84341 -7.16453 -7.54172 -1.94147 -3.88923 1.40353
3755 -5.49441 -0.193214 -6.88309 2.09125 2.42625 0.101787
5 -7.6709 -9.23475 -8.97701 0.192153 -0.829127 2.45792
59 -5.2964 -7.61424 -8.40716 -0.0995539 -0.0386919 0.942876
60 -6.17773 -7.06039 -8.43176 2.39895 0.320634 -2.64556
1195 6.92765 -9.0933 -2.18468 0.754647 1.06723 1.42736
877 -4.64868 -9.06729 -4.67964 -0.594274 -0.564347 -1.78378
63 -3.79365 -7.48318 -8.46148 2.06633 1.0371 -0.436819
64 -4.54733 -6.74107 -8.48846 0.10552 -2.47329 2.22824
61 -4.63408 -7.48314 -9.12788 0.665974 1.67172 0.233542
68 -2.87773 -7.0008 -8.40753 -1.66439 1.26277 1.8488
115 -2.20808 -6.10896 -8.4202 -1.19468 -0.285955 -0.432412
1157 -7.7 -9.20121 -2.96169 1.75399 0.108676 1.15093
289 9.12893 -8.93462 -7.59277 -0.225237 -1.65041 2.11951
113 -2.83846 -6.07655 -9.17306 -1.62699 -0.182783 0.804691
71 -0.685188 -7.59513 -8.46026 2.03401 -0.00650344 1.62917
72 -1.44199 -7.04481 -8.55054 -0.440505 -0.532729 0.305417
1199 8.33176 -9.10792 -2.11431 -2.98984 -1.21503 -2.21773
75 0.859975 -7.73975 -8.40703 -1.21416 -2.16249 0.304726
76 0.0613058 -6.82536 -8.53091 -1.81339 -2.56614 -2.72118
1167 -3.63138 -9.00746 -2.26541 -2.24896 1.81282 -1.05869
909 7.74211 -9.16059 -4.62931 -2.48136 2.93313 0.227613
80 1.70081 -7.03316 -8.32003 -0.667103 0.360304 1.35961
125 1.63804 -6.18178 -9.10725 -1.15458 1.98238 -2.32828
84 3.06457 -6.92013 -8.39089 -1.21216 0.601277 -0.13638
366 2.44344 -6.90126 -7.63294 1.58883 -0.425409 -2.20476
901 4.56202 -9.21281 -4.525 2.85648 -1.04711 -0.573339
4049 -3.26373 -0.0804386 -6.2428 0.729945 1.00267 -3.12134
83 3.71237 -7.70206 -8.21358 0.483012 0.862151 -0.295833
88 4.43946 -6.85663 -8.36256 1.37358 -1.05233 1.12321
3751 -7.02228 -0.073884 -7.11184 1.58027 -0.537486 -3.27703
92 5.93133 -6.88971 -8.43497 -0.874458 -0.469206 -0.258469
374 5.231 -6.80419 -7.69608 0.470912 -2.1602 -0.954848
86 5.30256 -7.04546 -9.15713 -2.05758 -1.85924 -0.131379
91 6.96309 -7.67999 -8.38686 0.594456 -1.00298 -0.981601
96 7.52776 -6.87512 -8.60177 1.3583 -1.30394 0.906374
378 6.93446 -6.73717 -7.67264 0.330693 -0.903394 1.116
429 7.72288 -6.05484 -7.57072 -3.76028 1.57735 0.308507
254 -3.87161 -0.559163 -9.0336 -1.88295 2.24291 0.969419
95 8.49267 -7.67105 -8.61025 0.380274 1.19089 0.786174
52 9.17603 -7.0154 -8.38376 0.389445 1.43169 -3.13921
257 -3.25053 -1.46405 -9.16569 -1.2668 0.726016 -1.29695
381 7.63311 -7.74807 -7.57774 2.52673 -1.14331 -2.42082
99 -8.62981 -6.06761 -8.53951 -0.838873 -4.45519 -0.265097
386 -8.61007 -5.56395 -7.72801 -0.794667 -0.272278 0.0762905
104 -7.78207 -5.40478 -8.46687 -1.95941 -3.92747 -0.427257
146 -8.49948 -4.76907 -8.52814 -2.86005 -0.0474965 2.00356
103 -6.93177 -6.23292 -8.40552 0.945578 2.16555 -0.498568
151 -6.83451 -4.57049 -8.37989 -2.01607 -1.51223 -0.306973
297 -5.99502 -9.15229 -7.62578 -2.07655 0.787163 0.533736
107 -5.31624 -6.14604 -8.42881 1.48479 0.214378 -0.266733
393 -6.2692 -6.21619 -7.65647 -2.89166 -0.784776 4.48741
108 -6.1389 -5.56954 -8.36535 0.72242 1.04493 -1.08685
2006 5.40462 -0.72575 -0.226262 2.55891 2.35387 2.39963
394 -5.39447 -5.35703 -7.67685 1.85689 -1.35752 0.960965
441 -6.12887 -4.7354 -7.743 1.66346 -1.53187 -0.787154
111 -3.73428 -6.0294 -8.55136 -1.16849 1.41461 -1.61188
112 -4.51096 -5.50588 -8.40282 -1.30754 -0.89535 -0.158536
398 -3.84989 -5.39281 -7.7057 0.532708 -2.49917 1.23905
77 1.80657 -7.82343 -9.08372 0.689333 -0.150451 1.17657
50 -8.53668 -6.94929 -9.11023 -0.172468 -1.22519 -0.978471
133 4.47561 -6.06719 -9.2046 2.35216 -0.826674 0.48257
116 -2.98554 -5.41409 -8.2293 0.161371 0.759824 1.58819
402 -2.14174 -5.42048 -7.72728 -0.0792217 0.572745 -1.09352
11 -5.39877 -9.02995 -8.37386 -0.146991 -3.90691 -1.10936
120 -1.31898 -5.31623 -8.49512 -0.183978 0.952067 0.145989
119 -0.708742 -6.35199 -8.59093 -0.147133 -1.39291 -1.40248
153 -6.21756 -4.67434 -9.13217 -1.64169 2.22365 -1.67205
1770 6.98448 -8.47163 -0.0340373 2.03962 -0.0283694 1.02452
124 -0.0759491 -5.55545 -8.62111 -2.50252 -2.83023 -0.595017
123 0.86467 -6.13953 -8.47922 0.232878 1.55787 -3.41144
167 -0.577595 -4.52454 -8.45328 -1.19035 0.329033 -0.234963
3789 7.6743 -0.0104173 -7.63694 -0.520443 0.249313 -0.707837
128 1.47188 -5.3672 -8.44504 0.083869 -1.17744 0.462635
127 2.484 -6.15425 -8.45702 0.414963 0.548443 -1.26343
132 3.14523 -5.26311 -8.57338 0.338391 0.662729 0.0249254
214 -0.726015 -2.06658 -9.06866 -0.975403 4.91541 0.16052
102 -6.97178 -5.41603 -8.99993 0.165768 2.27003 0.246598
131 3.72247 -6.05157 -8.3691 -0.991288 2.96662 1.87847
421 4.6356 -5.87943 -7.73967 -2.97677 -1.081 -0.340737
136 4.46988 -5.20969 -8.53228 -1.47042 2.32973 -4.32006
179 3.8102 -4.50499 -8.71803 0.0503759 1.46259 3.25874
1481 6.03827 -9.17115 -1.54413 4.57883 -1.03532 0.771036
135 5.38023 -6.11097 -8.44395 -1.21553 3.86066 -0.917651
140 6.16686 -5.35155 -8.43888 -0.721298 -0.589123 -2.69866
183 5.35817 -4.66913 -8.66618 6.46608 0.0324313 0.636248
139 6.77594 -6.16628 -8.56142 1.59667 -0.581115 1.87279
144 7.60057 -5.48159 -8.41967 -0.132481 -2.34935 -1.5341
187 6.8202 -4.62661 -8.36185 0.0139725 -3.2331 0.493161
426 6.80976 -5.44941 -7.66478 0.239816 -2.52242 0.85731
477 7.59262 -4.65762 -7.69404 1.60641 -0.739569 0.565158
100 9.06788 -5.44641 -8.50412 -1.22882 -1.45816 0.0165175
143 8.22848 -6.23935 -8.43988 1.86809 -0.694997 1.21475
152 -8.06441 -3.95141 -8.26511 -1.99768 0.242907 -1.85812
195 -8.29059 -2.87194 -8.24177 -2.17491 -0.469091 -0.725436
434 -8.63899 -3.73879 -7.36934 1.02885 2.27545 -0.493865
199 -6.97597 -3.07622 -8.26881 0.892666 -1.8516 1.44969
303 -3.9487 -9.21685 -6.82611 0.849832 -0.632416 2.48306
155 -5.21557 -4.67125 -8.52358 0.787982 -1.35942 0.269294
156 -6.10722 -3.94245 -8.40237 0.0951184 1.79347 -1.53002
203 -5.2119 -3.10962 -8.36797 0.262519 -1.34597 -0.44027
159 -3.84816 -4.55689 -8.43668 -1.44257 -0.537563 1.14763
160 -4.45619 -3.79429 -8.42764 0.444692 -1.55438 -0.213017
207 -3.80076 -3.14364 -8.53247 -1.63344 0.283159 -0.465181
493 -4.43296 -3.09522 -7.59017 3.45664 2.03515 0.580613
163 -2.17153 -4.64243 -8.42211 -1.44539 -0.783275 0.581767
164 -3.00225 -3.77812 -8.49382 1.02093 -1.06466 0.279664
449 -3.06632 -4.4421 -7.80923 0.53569 1.59023 2.2629
211 -2.27655 -2.92759 -8.37998 -0.644138 -1.52529 -2.37497
4935 5.16807 -0.0296316 -1.01483 1.32181 0.222116 -0.0193838
1169 -2.96736 -9.05845 -3.19846 -0.113125 -0.501047 2.98502
168 -1.44256 -3.71106 -8.38626 -0.939919 0.178231 0.789276
453 -1.58975 -4.45709 -7.57365 0.765149 0.667508 -2.15453
165 -1.37489 -4.46232 -9.18033 1.01894 -1.66603 1.10003
171 0.804942 -4.5165 -8.35111 1.1893 1.5087 2.94553
172 0.0447782 -3.54523 -8.30356 -2.43634 -0.87584 0.0563286
215 -0.804941 -2.91698 -8.51117 0.428477 0.603 -1.98147
219 0.909981 -2.8634 -8.41998 1.61813 0.234296 1.66341
269 1.74167 -1.37685 -9.08796 -0.538365 -0.0346672 0.52366
461 1.39411 -4.70722 -7.57912 0.182141 -0.524037 -1.39121
176 1.6 -3.78175 -8.54866 -1.6675 -2.15879 3.6311
175 2.33795 -4.43659 -8.55142 2.94459 2.81226 -0.55984
180 3.01037 -3.68571 -8.6482 -0.0107323 0.0110388 1.42481
223 2.22389 -2.90644 -8.49951 -0.526597 -1.2873 -0.0801752
101 -7.81214 -6.21048 -9.01561 0.217168 -0.965687 0.399879
184 4.69438 -3.84785 -8.59262 -2.54451 1.4937 1.01266
149 -7.5615 -4.69134 -9.15149 1.56818 -1.53303 -1.34539
1934 -4.00721 -2.40273 -0.093876 -1.06682 1.46599 -0.931685
4653 7.8437 -0.080605 -2.96062 0.365578 -0.626268 -0.206103
188 6.15098 -3.86988 -8.53176 0.600308 1.37531 -0.80305
231 5.45889 -3.02051 -8.43067 -1.97398 2.37842 -0.12233
1734 -6.88652 -8.49666 -0.206285 1.66221 -1.76863 -0.793374
1925 -7.83 -3.05628 -0.169808 -2.87266 2.01169 0.575946
192 7.59843 -3.94167 -8.41407 2.87776 -2.54382 0.25787
235 6.94657 -3.15839 -8.46473 -0.889649 -0.676821 -0.593295
148 -9.08995 -3.69132 -8.23832 0.894128 -1.13174 0.572269
191 8.4715 -4.72928 -8.46991 2.10527 -1.25307 -0.670741
239 8.45885 -3.48779 -8.50612 1.35691 0.00911342 0.519616
3747 -8.58471 -0.194765 -6.89144 -0.54154 -1.51685 0.376434
243 -8.37626 -1.78489 -8.59199 1.63211 -0.403605 -2.35172
200 -7.50724 -2.23314 -8.51901 -1.0831 -1.57531 -3.28585
482 -8.3435 -2.20441 -7.56888 1.4447 1.94409 1.95531
247 -6.92148 -1.44321 -8.66675 5.72909 0.0422951 4.06096
486 -7.03983 -2.27668 -7.6304 -0.124521 -0.0273622 -1.07486
1777 9.18701 -7.75697 -0.044816 0.78658 1.59838 1.59353
204 -6.1795 -2.33001 -8.40624 -2.02055 0.850016 -1.82339
490 -5.33176 -2.39747 -7.7933 1.73947 1.61853 -1.49119
251 -5.4019 -1.46585 -8.37673 -0.913069 0.0171417 -1.94986
537 -6.26285 -1.65564 -7.75186 -0.569126 0.81939 -0.233161
329 6.24533 -9.10948 -7.65099 -0.49584 0.706523 -1.92412
233 6.17548 -3.0919 -9.13107 -0.00720413 -2.06482 -2.28027
208 -4.48574 -2.24301 -8.44344 -1.53758 -1.04376 -2.90956
494 -3.77236 -2.49592 -7.31183 2.55573 -3.63113 0.672005
39 5.45847 -9.14704 -8.40848 -3.54349 3.97499 0.869624
212 -3.11551 -2.35428 -8.6059 0.279517 2.28022 -3.05984
498 -2.45105 -2.17659 -7.69498 0.90794 0.13837 -1.01027
545 -3.16798 -1.57928 -7.72967 -1.00694 1.14637 1.41949
4345 -0.015386 -0.0139638 -4.72764 2.30857 -1.59784 -2.55932
216 -1.6508 -2.2176 -8.51576 1.41241 1.22125 -0.268775
501 -1.48824 -2.87487 -7.77803 0.661905 0.319514 -0.984445
263 -0.849085 -1.32796 -8.36244 1.55151 -0.732372 -1.00667
502 -0.779686 -2.21955 -7.83517 -0.174232 1.80351 0.249127
1153 9.15453 -9.04839 -2.69961 0.775571 0.313676 -1.93157
220 0.173155 -2.10638 -8.45197 2.28054 2.61277 -0.814836
506 0.917328 -2.22777 -7.6614 0.894668 1.97198 0.286484
250 -5.25717 -0.77603 -9.18577 -0.963767 0.670058 -3.51665
224 1.41579 -2.00374 -8.37316 0.911973 -1.01072 -0.528927
509 1.67812 -2.93487 -7.70736 0.937834 0.804435 -1.04409
141 7.50701 -6.08188 -9.20616 2.43954 -1.29147 -0.302518
2001 3.372 -1.53406 -0.275633 -0.900033 -0.816064 -1.13237
93 7.64389 -7.62786 -9.21196 0.787569 0.690817 -0.950668
1451 -5.34336 -9.18276 -0.830981 1.57437 0.407512 -0.835504
228 3.18595 -2.28512 -8.60736 1.50062 1.19219 1.81839
595 -2.18471 -9.15351 -5.57661 1.65019 -0.467659 0.783291
227 3.97465 -3.04825 -8.67151 -1.03156 -2.38068 1.52894
232 4.69613 -2.21776 -8.56045 0.237373 0.532902 0.0888132
275 3.88633 -1.30183 -8.58635 -0.0734557 -1.47464 0.393692
875 -5.30933 -9.20139 -4.11234 1.81819 -0.418087 0.534491
4045 -4.64577 -0.0567116 -6.05756 0.731629 0.922219 2.41545
81 3.14399 -7.60291 -9.08944 -1.74883 -1.16858 0.880139
236 6.26091 -2.42211 -8.42325 -2.11997 -2.63972 -0.183715
2010 7.25498 -0.117381 -0.301986 -0.438271 -1.74217 -0.716082
240 7.67158 -2.22641 -8.39246 -2.00089 -0.980625 -0.705398
1878 -6.98953 -3.77737 -0.229786 0.85335 -1.3168 -3.32602
869 -7.69121 -9.09294 -4.52883 1.24248 -3.70196 -2.77352
196 -9.21129 -2.49932 -8.55978 -1.23749 -0.566299 -1.08357
333 7.75503 -9.03881 -7.73067 -0.537019 0.0141495 -0.112224
244 -9.1626 -0.735 -8.47044 -0.636103 -1.81952 1.28759
248 -7.803 -0.92813 -8.53607 -0.343022 -0.517705 0.698982
3745 -9.06579 -0.0401181 -7.74922 0.273217 2.15056 1.63624
82 3.74696 -6.69804 -9.12931 0.170903 -1.41865 1.26861
252 -6.03557 -0.706409 -8.54852 2.08756 0.596194 3.148
538 -5.56951 -0.78178 -7.70628 1.24132 0.793522 -1.04715
1926 -6.90915 -2.52279 -0.260293 -1.57044 -0.391938 2.53956
327 5.3808 -9.17975 -6.82265 1.27481 2.1099 0.498501
255 -3.82118 -1.47295 -8.37406 -1.42107 -2.18414 -1.09217
541 -4.66569 -1.49794 -7.61093 -1.35025 1.71606 -1.09431
256 -4.6366 -0.710903 -8.41479 1.06816 0.953668 -1.00373
286 8.38078 -0.919636 -9.18108 -4.28898 0.528556 -1.219
1727 8.52681 -1.54898 -0.802384 0.296594 -0.904306 1.38845
259 -2.3947 -1.61335 -8.45347 1.7286 -1.23504 1.68937
260 -3.1625 -0.711977 -8.43096 1.06363 1.41486 -2.6322
106 -5.36269 -5.35595 -9.19763 2.0489 -0.578354 -0.21833
53 -7.80461 -7.69332 -9.13735 -2.23363 2.07108 0.875433
264 -1.57644 -0.680522 -8.57741 0.458016 0.861537 -0.343605
546 -2.26952 -0.915244 -7.68633 0.53268 -0.289106 -3.69924
4033 -9.22576 -0.352478 -6.10931 -0.812262 0.677832 -1.56257
267 0.771992 -1.35395 -8.62902 -2.45914 0.704045 0.815253
268 -0.0652004 -0.724341 -8.47752 -0.56185 -1.4105 3.02691
1945 -0.181111 -3.00034 -0.178872 1.52661 0.230702 -0.78166
272 1.47445 -0.481915 -8.57068 -0.980224 -0.477593 -0.329484
41 6.07219 -9.12162 -9.18049 -1.1246 -2.351 -2.04351
271 2.65389 -1.29418 -8.38335 1.54292 -1.20521 -2.83617
4941 7.65214 -0.0326271 -1.46874 1.31377 -1.67888 1.26648
276 3.2856 -0.531412 -8.59817 -1.45157 -3.16324 0.335544
280 4.70438 -0.625373 -8.41306 1.91903 0.335626 0.866937
1175 -0.675807 -9.18749 -2.38599 -1.10188 1.93773 0.802711
1881 -6.25829 -4.56215 -0.0197613 -0.980696 0.0363615 0.987004
4943 8.53775 -0.016491 -0.848457 -1.02003 -0.515929 2.00869
1910 5.35922 -4.00847 -0.138499 -3.08003 -0.737183 -0.245256
1890 -2.54447 -3.86237 -0.0295404 -0.73657 -2.99124 2.661
279 5.46522 -1.53239 -8.50499 1.17333 0.588674 -0.761002
284 6.18127 -0.646522 -8.57561 -1.72712 -1.36671 1.44205
569 6.0431 -1.27705 -7.80235 -2.22007 2.09486 1.95364
4905 -6.24188 -0.103916 -1.47098 -1.63252 1.01149 1.57125
4651 7.08779 -0.013759 -2.21298 -0.323164 0.0540725 0.165404
283 6.80556 -1.54248 -8.48071 1.76228 2.62622 1.29838
288 7.6749 -0.838326 -8.43892 -2.27321 -2.51527 -0.420595
230 5.47746 -2.22959 -9.17301 1.7048 -0.423359 0.117663
287 8.42822 -1.52967 -8.48392 2.33861 1.55702 0.132076
529 9.19103 -1.64357 -7.91021 2.61199 0.542828 -0.474932
1902 2.39713 -3.77048 -0.0660849 0.028797 -3.09978 1.52216
290 -8.4612 -8.51605 -7.67073 1.1666 -3.05384 0.176974
296 -7.74906 -8.54404 -6.93476 1.44386 -0.189806 -0.533762
578 -8.45377 -8.55495 -6.14169 -0.165721 -0.693075 -2.35957
294 -6.92628 -8.55202 -7.67812 -1.47316 -2.12201 -0.741092
582 -6.99638 -8.45129 -6.10949 1.1144 0.854205 -1.19808
1774 8.45291 -8.55426 -0.0423004 0.953832 3.41864 -0.00490714
298 -5.12745 -8.29598 -7.81631 -1.9557 -0.523756 -2.40497
1716 3.0705 -0.648027 -0.752071 0.00960254 1.27302 -1.14486
300 -6.06467 -8.53721 -6.9939 0.96687 -1.96379 -2.2643
1977 -6.37701 -1.61111 -0.0808188 -0.694354 -2.12174 2.51212
3463 -6.77184 -0.0119434 -8.3927 -0.486348 0.926301 -2.38841
302 -3.63938 -8.22597 -7.75894 -1.69209 -1.19991 0.725035
304 -4.53311 -8.348 -6.94362 -2.61045 -0.277284 0.430166
351 -3.7135 -7.73461 -6.87538 -2.54801 -2.72158 0.0540246
353 -2.85537 -7.65363 -7.75575 1.15808 1.18987 -0.946195
308 -3.06967 -8.55871 -6.68927 -0.579476 -0.556701 1.18099
355 -2.07616 -7.57014 -6.97987 -0.234444 3.47863 -0.987012
1829 -7.88755 -6.03896 -0.0633425 -0.0535986 -3.71753 2.53173
1723 7.07271 -1.37471 -0.762486 0.728396 1.01342 -0.203599
310 -0.613321 -8.45768 -7.68299 -0.945762 1.15318 1.65734
312 -1.43472 -8.41416 -7.0556 -0.455755 1.48609 -0.753591
598 -0.731511 -8.61211 -6.18762 -0.7593 2.63665 1.21319
359 -0.657502 -7.71683 -6.91704 0.88441 1.33971 2.21775
361 0.00967151 -7.70324 -7.78 0.729406 -0.113888 2.90991
316 0.0157943 -8.5357 -6.92028 -2.40683 1.05622 -2.55952
314 0.841604 -8.42451 -7.65654 -1.32746 -1.44183 0.13489
365 1.41243 -7.65353 -7.61673 3.41088 0.97046 -0.824934
320 1.43665 -8.47098 -6.89297 0.400938 -2.34515 0.948851
653 1.43433 -7.69509 -6.16425 -0.557884 -0.00400213 -0.308354
4343 -0.647459 -0.0552669 -3.67481 1.84077 -1.07824 3.72039
1959 4.65672 -2.93939 -0.105592 0.60192 2.66143 0.573121
324 3.19819 -8.66054 -6.81768 3.70097 0.609695 -0.225735
367 2.19655 -7.63232 -6.82274 -1.90329 0.540738 -0.301752
657 2.85394 -7.86417 -6.2199 -1.05712 1.65881 -1.15331
322 3.87437 -8.47921 -7.62218 0.355871 -0.553983 2.35043
373 4.5015 -7.46721 -7.57062 1.29304 1.74262 0.317614
328 4.6177 -8.26185 -6.90799 -0.150301 2.87414 -1.48307
371 3.74369 -7.84848 -6.91857 2.18622 -0.973318 -1.86952
4073 5.93889 -0.0174625 -6.05635 -3.22619 0.773992 1.54151
332 6.17464 -8.23486 -6.95247 -2.24197 -2.76805 -0.455243
282 7.06752 -0.799553 -9.17047 -1.64023 1.58763 -1.26868
21 -1.59563 -9.15338 -9.22207 -0.011976 0.836804 -2.29265
1706 0.891926 -0.756139 -1.57198 -0.0441986 1.40851 0.131541
189 7.58225 -4.81517 -9.11917 -0.527716 -2.15094 -0.127548
336 7.64278 -8.38987 -6.84594 -2.31959 -1.38156 -0.798415
379 6.81359 -7.56244 -6.97257 -0.433365 -1.58596 -1.29459
669 7.56355 -7.66351 -6.16401 4.25225 -2.67287 -1.15244
871 -6.90801 -9.11987 -3.97868 -0.492487 1.25461 -1.18043
292 -9.16179 -8.46023 -6.78566 -1.24422 0.312972 -2.87085
1165 -4.58615 -9.18882 -3.11902 2.68042 -2.13222 1.754
339 -8.54841 -7.67119 -6.92779 0.466882 -0.0088141 2.26409
626 -8.58071 -6.96663 -6.00907 -1.37925 1.61313 -2.18794
629 -7.85042 -7.6286 -6.27967 0.397749 -0.0919654 -0.564836
341 -7.77092 -7.65335 -7.59574 -1.11877 -0.424833 1.4867
344 -7.65591 -6.91688 -7.00281 1.20046 0.0767582 0.859103
343 -6.91987 -7.91865 -6.91809 0.725604 0.167893 1.88454
345 -6.08701 -7.75972 -7.753 -0.348913 1.33385 -0.987915
347 -5.44274 -7.74862 -7.01784 -1.44092 2.22603 -0.071119
346 -5.40578 -6.84824 -7.59448 0.319892 -1.94039 -1.84229
348 -5.99779 -6.94448 -6.76599 -1.69416 0.460746 1.70375
633 -6.18059 -7.73136 -6.28667 0.849061 -1.00751 -0.733855
349 -4.50634 -7.53165 -7.59347 0.318861 1.32782 1.75964
637 -4.7055 -7.61677 -6.30579 1.73429 -0.887832 -0.8043
350 -3.73413 -6.74585 -7.74287 2.46732 1.74613 -4.14393
352 -4.47394 -6.75647 -6.88421 0.421396 1.74652 0.449917
685 -4.40316 -6.18389 -6.02597 1.7283 -0.707746 -1.41837
354 -1.98412 -6.89795 -7.83848 1.57258 -3.73779 -1.04975
356 -3.12498 -6.91218 -6.91405 -2.80026 -3.43737 3.3534
401 -2.9124 -6.18422 -7.74684 1.00402 -1.50478 -1.58365
403 -2.15843 -6.08758 -7.04035 -3.75241 -2.35059 0.202674
405 -1.30612 -6.14223 -7.78147 1.99617 1.7757 2.71782
357 -1.36496 -7.73253 -7.71039 -3.20481 2.1235 2.95459
360 -1.26791 -6.9143 -6.87917 -2.56783 0.0840195 -1.56298
407 -0.719893 -6.08004 -6.88258 -0.915631 1.28188 3.18965
693 -1.41099 -6.12356 -6.10303 -1.3452 0.52539 -0.209984
358 -0.677234 -6.93398 -7.74386 -0.608507 -0.573002 -1.01046
364 -0.0426774 -7.06231 -6.96733 1.42727 -1.03289 -3.36329
409 -0.233575 -6.05066 -7.732 0.686353 1.66606 2.61982
362 0.663294 -6.99975 -7.71604 0.957159 -1.32724 0.724998
413 1.56996 -6.17189 -7.83847 -2.54175 -1.03338 0.184681
363 0.700571 -7.68675 -6.93074 1.83605 -1.49489 -1.49219
368 1.52625 -6.87932 -6.91543 -1.07474 -3.85283 -0.0898757
369 2.95233 -7.86347 -7.59579 -0.0364406 2.52679 1.64092
372 2.88933 -6.9649 -6.73832 -1.51347 0.200574 1.3855
654 2.19075 -7.01472 -6.06254 2.60647 2.71911 1.46692
370 3.64478 -7.01948 -7.55562 0.753834 4.11087 1.8457
376 4.62131 -6.89705 -6.81222 0.641436 -1.28831 -0.474038
425 5.99958 -6.111 -7.72368 0.709381 1.01905 -1.5514
377 6.00708 -7.51287 -7.6622 1.06747 2.5242 -0.276318
375 5.32726 -7.51385 -7.00519 -4.68235 -0.673137 0.490664
380 6.01715 -6.8224 -7.01131 -0.985949 -0.915824 -1.54938
384 7.73993 -6.84785 -6.80313 3.73588 0.019951 -0.415857
717 7.74907 -6.08159 -6.14115 3.35479 0.541026 1.44542
427 6.84046 -6.24044 -6.88284 0.522634 0.872615 -1.59014
382 8.3266 -7.08591 -7.8722 1.67896 -0.274742 -3.54055
383 8.41604 -7.70826 -6.85403 0.688292 -0.279321 -2.45558
340 9.17522 -6.76244 -6.92749 1.33179 0.0324349 2.16856
670 8.5551 -6.97409 -6.16291 1.6436 -3.04259 1.89665
431 8.40429 -6.05063 -6.87828 0.923093 1.79617 0.0654274
677 -7.73127 -6.36859 -6.20426 0.515321 0.275174 0.431547
387 -8.53344 -6.26906 -6.7449 2.0791 -1.01624 1.53662
390 -7.03541 -5.41216 -7.78705 -0.4403 0.0265637 1.07251
391 -6.86345 -6.2154 -6.84823 3.30585 1.67215 -0.494893
389 -7.72281 -6.20139 -7.82713 0.146429 -1.67658 4.01452
392 -7.77435 -5.45265 -7.11689 -0.981642 -1.91339 -0.0126368
678 -6.9308 -5.35226 -6.2596 0.416891 -0.240932 -0.532111
439 -6.86342 -4.72727 -7.02993 -1.13881 -1.3385 -1.02158
395 -5.42658 -6.06194 -6.92985 4.67638 -2.31815 -1.91812
396 -6.10035 -5.24145 -6.91919 -2.07053 -0.881906 0.439668
443 -5.3418 -4.59502 -6.87208 2.34611 -0.060208 -0.386024
399 -3.76048 -6.07707 -7.05126 0.955528 0.00969064 1.3419
397 -4.7067 -6.16017 -7.66235 1.30581 -2.325 1.38997
400 -4.47633 -5.3949 -6.94944 1.57625 -1.17637 1.13634
447 -3.80233 -4.54297 -7.11016 -0.223358 0.290762 -1.49196
404 -2.79458 -5.33684 -6.98466 0.832213 -0.0318599 -0.56125
406 -0.823282 -5.20384 -7.62236 -0.912639 0.285499 -1.39305
408 -1.43306 -5.34028 -6.86906 1.12183 -0.250699 2.43191
694 -0.789235 -5.34396 -6.12019 -2.37646 -0.138531 -3.6566
412 -0.0142465 -5.39071 -6.92204 0.672282 2.20826 0.0492708
410 0.652037 -5.46305 -7.81513 -0.836919 -1.96517 -0.160976
411 0.815515 -6.20921 -6.99854 -2.44918 1.85867 -0.221656
416 1.60619 -5.48885 -7.0058 -1.06008 -0.400896 -1.54045
414 2.38731 -5.28791 -7.91418 -0.117182 -0.0770955 1.99278
417 3.03777 -6.07693 -7.72452 -0.0755798 -0.590452 0.273786
415 2.42443 -6.10597 -7.02974 -0.376871 -0.658081 0.0111459
420 3.01972 -5.09223 -7.14905 -1.24951 -2.59892 0.148599
418 3.85851 -5.26427 -7.80679 0.151777 2.12517 1.35534
469 4.67505 -4.55542 -7.81199 -1.38859 -0.992009 -2.67716
709 4.45464 -6.15513 -6.24686 -2.98831 0.516451 -0.751584
419 3.85977 -6.01308 -7.08402 -1.80735 0.660835 -3.70629
424 4.63537 -5.24578 -6.97883 -1.17391 -0.0317699 0.0386058
467 3.68398 -4.49027 -6.91914 2.08113 1.61686 0.370171
422 5.3459 -5.30715 -7.81199 0.339989 -0.759616 -0.194655
473 6.08653 -4.66343 -7.66548 -2.49623 0.0986062 -0.819115
423 5.24948 -6.11513 -6.96422 -1.14654 -1.45679 0.561167
428 6.20823 -5.38539 -6.81369 -0.631287 -0.296593 -0.193864
710 5.23729 -5.43105 -6.13039 3.81007 -2.40104 1.75886
432 7.51867 -5.35745 -6.86325 -0.616629 -1.08693 0.87406
475 6.92296 -4.58341 -6.87121 -1.81294 -1.48667 -2.11068
765 7.61945 -4.59148 -6.02377 -0.140717 2.02078 0.94874
385 9.07519 -6.19915 -7.74071 -0.202239 1.08996 -0.483455
388 -9.16534 -5.3547 -6.91912 0.44306 1.12404 1.72939
430 8.53864 -5.32522 -7.53584 -0.459224 2.29209 1.99394
479 8.41407 -4.7147 -6.83128 0.96012 -0.969188 -1.76027
437 -7.6256 -4.63817 -7.79535 -0.302721 0.279923 1.45309
435 -8.38579 -4.41926 -6.83458 -0.390222 1.53119 -1.28987
436 9.05059 -3.96761 -6.76933 -3.53647 -2.60579 -2.65695
440 -7.69779 -3.75198 -6.86163 1.88222 2.44569 -1.38148
485 -7.70264 -3.02822 -7.53995 0.524815 0.78889 0.339321
438 -7.12839 -3.83064 -7.74604 -0.22941 -0.0807172 -1.64448
726 -6.87778 -3.79805 -6.04119 -0.844362 0.792758 0.934175
442 -5.40804 -3.84285 -7.6613 0.512033 1.69162 -2.15444
444 -6.23083 -3.92628 -7.14908 -2.73521 0.95574 -2.01243
491 -5.50861 -3.00666 -6.98295 -1.31089 0.16891 0.728797
729 -6.2408 -4.57855 -6.20614 -1.79558 -1.1737 -2.10632
730 -5.45051 -4.10493 -5.99924 0.23009 0.512721 -0.0377744
446 -3.61456 -3.65951 -7.66943 -0.944766 -1.45145 -1.80477
445 -4.63503 -4.53087 -7.66785 1.49016 -0.945433 -0.168477
448 -4.83562 -3.79975 -6.80176 3.70701 -0.234025 -1.05015
733 -4.66905 -4.76874 -6.20728 -0.60382 0.727563 -2.29556
734 -4.07639 -3.95503 -5.97888 -0.3361 2.45727 1.41235
781 -4.75424 -3.06957 -6.13138 -1.28318 0.648842 -2.13256
450 -2.2794 -3.74901 -7.68329 0.104964 -1.65875 -0.331337
452 -2.91986 -3.76527 -6.93409 -0.393313 0.248936 -0.919276
451 -2.29328 -4.53198 -6.90345 -0.232289 1.35954 -1.24796
454 -0.670837 -3.83731 -7.70095 1.66018 -2.2319 -0.883789
456 -1.63713 -3.66671 -7.04983 3.09384 0.120284 -1.4495
505 0.0453386 -2.76339 -7.6398 -0.609696 0.654849 0.656383
455 -0.69036 -4.53603 -6.84769 -0.765923 1.50378 3.9521
457 0.011289 -4.7046 -7.68735 -2.9022 1.10877 -0.481391
460 -0.0172369 -3.59468 -6.93365 0.152171 -1.20032 -0.866089
745 0.0606868 -4.39867 -6.14918 -0.791718 0.977865 -0.054808
458 0.795976 -3.91083 -7.70268 -0.841677 1.59423 -0.41984
459 0.675283 -4.5507 -6.86536 1.93953 -0.185791 -1.2436
749 1.58834 -4.70716 -6.27107 1.34383 1.28844 1.8791
464 1.56185 -3.8799 -6.92669 -1.95268 2.32789 -1.25978
463 2.26145 -4.4397 -7.12941 -1.95864 1.65704 0.597623
465 2.9783 -4.32045 -7.75022 -2.85597 -0.20658 -1.19776
462 2.22586 -3.65786 -7.74995 -1.10185 -0.279925 -1.71382
468 2.97417 -3.68955 -6.99468 -2.19139 -0.0397429 -1.19185
511 2.34892 -2.93706 -7.05814 2.18129 -2.54034 -0.701063
466 3.80232 -3.75867 -7.87558 1.3177 2.42709 0.371929
472 4.56874 -3.89757 -7.22193 -2.66509 1.13805 2.93594
470 5.46233 -3.82706 -7.846 -2.26826 0.217916 1.20783
471 5.35254 -4.6623 -7.01886 2.68527 1.45234 -0.721888
476 6.06937 -3.80577 -6.93068 1.08087 -0.63314 0.150855
521 6.06596 -3.10777 -7.63287 0.724249 -0.916783 -1.55304
474 6.75742 -3.88553 -7.64172 1.47208 -0.679751 -0.786334
480 7.6859 -3.88428 -6.95218 0.385243 -2.65045 0.00675156
762 6.95614 -3.79221 -6.28754 -1.15438 0.331227 -0.0073572
523 6.78158 -2.93932 -7.01274 0.126412 -1.39455 0.197217
813 7.48083 -3.01768 -6.22908 1.15458 -0.438762 -1.6001
433 -9.12846 -4.61196 -7.57969 3.09963 -0.0159402 -0.847682
478 8.49961 -4.0456 -7.59794 -1.99998 0.637342 -3.00291
766 8.30795 -3.85324 -6.14614 -1.76358 2.38113 0.562074
481 9.06016 -2.90117 -7.57426 1.59026 -1.62733 1.68198
527 8.36278 -3.17841 -7.11738 -1.20189 -0.768841 -1.97127
483 -8.47196 -2.92474 -6.79044 -1.14028 -1.24726 -1.57524
531 -8.32295 -1.79377 -6.744 -0.922809 1.14015 -0.998243
533 -7.47871 -1.43598 -7.66872 1.2989 1.48674 -0.0816128
487 -6.83177 -3.12737 -6.80323 1.06789 -0.659666 -0.4272
488 -7.5404 -2.4763 -6.78114 -3.75521 -2.48135 -1.92568
535 -7.22005 -1.57195 -6.75484 -1.87521 -0.221846 1.81634
489 -6.13311 -3.11653 -7.71386 1.28582 0.338771 -0.835006
492 -6.30899 -2.24513 -6.86501 -3.37749 1.76332 -2.86325
539 -5.43084 -1.66813 -7.15601 -0.589523 0.534654 2.59397
778 -5.60679 -2.19308 -6.27296 0.765627 0.480577 1.53498
495 -3.95771 -3.55521 -6.81438 1.73224 -1.19398 0.478414
496 -4.66148 -2.30481 -7.00856 1.13376 -1.89337 -0.0224873
782 -4.048 -2.26049 -6.23262 1.06515 0.0309715 -2.43487
829 -4.85658 -1.49333 -6.28214 0.279498 -1.06214 1.0435
497 -2.9416 -3.01523 -7.76382 -0.925949 -0.597208 -0.580684
499 -2.14353 -2.84522 -6.97223 0.199769 -1.94355 -2.37068
500 -2.96356 -2.19732 -6.76678 -3.91398 2.06997 -0.519032
547 -2.24526 -1.54408 -6.91803 -0.720348 -0.0499115 -1.22869
549 -1.4757 -1.59541 -7.5861 -0.320213 -2.08973 0.305389
504 -1.43653 -2.29149 -6.80648 1.01163 -0.999407 1.08728
503 -0.829029 -3.08784 -7.12863 0.607608 -0.459273 -0.751816
551 -0.857223 -1.42132 -6.81796 -2.9022 -0.198242 0.953123
508 -0.29169 -2.2181 -6.89325 -0.144621 -0.858768 -1.12135
555 0.762502 -1.15715 -7.03294 0.551946 -0.351672 -0.0907031
557 1.53135 -1.29542 -7.74387 1.46415 0.307852 1.76577
507 0.939003 -3.03716 -7.07415 0.661968 0.875529 1.04647
512 1.62006 -2.11543 -6.98657 3.20519 -0.278144 -1.89852
845 1.60094 -1.63788 -6.12811 1.74665 0.429094 -0.524861
513 2.94889 -2.99805 -7.90436 -2.09067 1.51322 -1.75326
510 2.20405 -2.09658 -7.82773 0.284557 2.02642 4.03748
516 3.06163 -2.25328 -7.10372 1.03443 -0.191971 -1.32795
559 2.27777 -1.23491 -7.04445 -1.84153 -0.812854 0.333367
801 3.29828 -3.14698 -6.27769 0.239248 -1.8825 1.35213
565 4.59763 -1.59953 -7.63203 -2.00479 -1.45123 -2.13012