ITEM: TIMESTEP
100000
ITEM: NUMBER OF ATOMS
6912
ITEM: BOX BOUNDS pp pp pp
-9.2265715179435492e+00 9.2265715179435492e+00
-9.2265715179435492e+00 9.2265715179435492e+00
-9.2265715179435492e+00 9.2265715179435492e+00
ITEM: ATOMS id x y z vx vy vz
4 -9.20371 -8.49215 -8.34559 0.595613 -0.571817 3.12518
8 -7.80179 -8.38421 -8.53634 -0.64786 0.800778 -1.81396
294 -6.92118 -8.44057 -7.64353 1.17787 -0.302633 -2.09042
55 -6.92385 -7.90479 -8.30994 -0.881697 -0.832002 -1.97542
621 7.53245 -9.05215 -6.27084 -1.22897 2.37475 1.03249
238 8.42528 -2.38723 -9.11529 2.09103 -1.41469 2.57891
4039 -6.89491 -0.104923 -5.30913 -1.38858 -0.355069 -2.53117
12 -6.15959 -8.65608 -8.50203 0.606026 -0.872039 -1.44474
69 -1.53885 -7.70869 -9.14003 2.05125 -1.33678 -0.203064
3465 -6.0119 -0.0111299 -9.01146 0.240136 -0.683417 0.629795
16 -4.47713 -8.42912 -8.41628 0.030089 -1.22042 -1.31824
63 -3.85407 -7.58908 -8.46887 1.46053 0.0579452 0.911704
4611 -8.41816 -0.134081 -2.40789 -0.695921 2.06365 -0.0559716
1750 -0.784616 -8.24211 -0.119153 0.108906 -0.767204 4.42678
20 -2.98755 -8.48084 -8.5108 -2.56217 -0.739869 0.373815
67 -2.14835 -7.86978 -8.318 0.464709 -0.318003 0.808417
303 -3.71859 -9.13578 -7.08269 1.90317 2.29036 -0.18336
138 7.12805 -5.36235 -9.195 0.682215 0.0750411 0.458215
24 -1.40584 -8.51938 -8.43232 0.0458371 -0.687265 -0.268536
4907 -5.19605 -0.11414 -0.767621 -0.413625 -1.72899 0.552596
28 0.0684817 -8.70077 -8.50368 -2.16042 -0.134473 -0.951287
71 -0.747941 -7.79821 -8.46902 0.53419 -1.08593 -1.96103
253 -4.60631 -1.41453 -9.07765 0.832635 2.01832 -1.61374
32 1.64304 -8.59465 -8.38937 -0.145646 -2.10993 -2.63633
1167 -3.6803 -9.23504 -2.1485 0.941859 -0.741953 4.12325
314 0.622401 -8.66873 -7.56777 -2.45615 1.23684 1.62144
36 3.00662 -8.27337 -8.54401 2.59703 1.57251 -0.355728
887 -0.486861 -9.1776 -3.80454 -0.513471 -3.46608 -0.632368
40 4.6101 -8.54553 -8.5214 0.174141 1.70303 -1.7751
322 3.72718 -8.46203 -7.77331 -1.10358 -0.745031 -1.08476
83 3.8025 -7.76839 -8.57706 -1.25153 0.802935 -1.52222
4075 6.95089 -0.0252839 -5.24013 1.48868 0.635969 -1.76618
373 4.55902 -7.71948 -7.75312 -0.769171 0.959362 -0.226704
583 -7.08918 -9.22409 -5.21545 -1.43959 -1.54148 -1.30203
44 5.98369 -8.35597 -8.26434 2.59839 0.750032 1.09276
87 5.41634 -7.5673 -8.32733 -1.03797 -0.408599 -0.25936
174 2.30052 -3.75436 -9.21182 1.1129 1.5778 -4.38285
91 6.94556 -7.58319 -8.51478 -0.251205 -4.9156 0.646071
48 7.68427 -8.28522 -8.33034 0.767095 0.0439244 0.170085
1684 -9.15018 -0.843302 -0.687822 2.40963 -1.28646 1.27288
265 -0.130426 -1.40859 -9.17123 -1.42362 -0.872282 0.985533
334 8.41083 -8.3159 -7.63487 -1.08993 -1.00389 4.58087
51 -8.40369 -7.51296 -8.40525 2.65134 -2.3226 0.0180569
52 9.15918 -6.88597 -8.5358 2.05716 -0.502517 0.00443917
338 -8.56283 -6.94314 -7.65065 2.82305 0.716565 2.11679
1469 1.65085 -9.09656 -1.57655 0.319168 0.949108 -1.42501
56 -7.62766 -6.92206 -8.54461 1.47336 0.200586 -0.37357
389 -7.69722 -6.27283 -7.63859 2.06259 -0.0816777 0.621186
342 -6.94886 -7.01337 -7.54732 2.23249 0.901146 0.903756
341 -7.72843 -7.54186 -7.57481 0.123254 -0.196587 0.746259
103 -7.00954 -6.17958 -8.45939 0.253127 -0.300542 -1.62302
617 6.11355 -9.23216 -6.32193 -0.583819 -2.89382 -0.0612096
59 -5.38676 -7.83673 -8.35437 0.0542515 2.05858 0.00149011
60 -6.26081 -6.90384 -8.36362 -0.84301 0.112736 3.06565
107 -5.53278 -6.15698 -8.42728 -1.64706 1.48186 -3.05702
64 -4.73825 -6.90016 -8.46552 1.00151 1.84394 1.26307
4917 -1.49635 -0.0804573 -1.58273 -0.649145 -0.783011 -0.670854
68 -3.15721 -6.79473 -8.36976 2.89509 -0.907102 0.964387
115 -2.27044 -6.10865 -8.31457 -2.36254 -0.447674 2.74163
354 -2.09499 -6.99901 -7.71212 -1.10855 -1.93631 3.31909
72 -1.35881 -7.01978 -8.38782 -1.16686 0.0488772 -1.56902
119 -0.747883 -6.07758 -8.46746 -1.70432 0.142229 -2.57446
86 5.33589 -6.92521 -9.18183 1.04693 -0.350709 -1.62946
158 -3.99181 -4.06243 -9.18429 1.96557 2.38647 -2.81269
76 0.0676882 -6.84481 -8.36285 1.06016 -3.42702 1.78055
74 0.863757 -6.98174 -9.09456 0.832656 2.15456 0.789577
409 -0.0495097 -6.26995 -7.54544 0.154722 1.42378 -2.46477
75 0.943153 -7.80547 -8.49418 0.369441 -1.36132 -0.461167
80 1.57692 -7.01882 -8.47215 0.334243 -0.748424 -1.50684
4921 -0.120084 0.0284246 -1.25877 -0.75857 3.28868 0.411138
62 -3.93059 -6.89847 -9.21654 -1.10283 0.374177 0.199044
79 2.23068 -7.78374 -8.40858 -0.922858 -1.28491 -0.526059
84 2.98864 -7.12015 -8.5584 0.30036 -1.88273 0.431592
127 2.46023 -6.24021 -8.64249 -0.930833 1.79784 0.910186
417 3.12596 -6.24916 -7.89687 0.601898 1.33729 2.57611
3759 -4.02043 -0.157232 -6.84684 -1.04623 1.86344 0.969417
88 4.59962 -6.88239 -8.46312 1.56164 0.730902 2.41849
131 3.70858 -5.98688 -8.66442 -0.578935 -1.48396 -2.31648
92 6.11118 -6.9037 -8.58395 0.165515 -1.41132 -0.292193
135 5.34724 -6.17536 -8.45894 2.49781 -1.97073 0.425845
4931 3.7759 -0.128922 -0.629386 0.116243 -1.34814 -0.612582
1159 -6.71388 -9.16061 -2.3307 0.943931 0.429819 0.312818
96 7.70295 -6.89683 -8.56928 -1.15547 0.207344 0.347062
139 6.90807 -6.05516 -8.45785 0.714432 -1.25976 -2.09785
378 6.72111 -6.82369 -7.80062 -0.345115 -0.0827602 0.216107
95 8.53399 -7.71071 -8.42388 1.51603 -1.60898 -0.914782
1946 0.797064 -2.37789 -0.037787 0.564672 -0.548656 -0.00873228
99 -8.48004 -6.01665 -8.43011 -2.55037 -1.67659 0.90895
100 9.22079 -5.42713 -8.55199 1.80115 -0.866867 -0.460446
386 -8.37046 -5.32748 -7.71634 1.46108 0.551702 -1.50156
4355 3.67857 -0.0363328 -3.97595 0.0967485 1.3459 -0.469759
104 -7.55317 -5.38237 -8.42927 -0.822781 3.98094 0.308293
4037 -7.6456 -0.209068 -6.01551 1.21083 -0.169119 1.74968
390 -6.9149 -5.62755 -7.47974 0.252218 -0.499842 3.17556
157 -4.73022 -4.76437 -9.16294 3.24336 -0.85487 -1.4497
108 -6.06373 -5.33514 -8.49034 0.0203094 -0.259797 -0.996874
394 -5.34933 -5.3905 -7.79004 0.0855733 1.31464 -2.23403
4619 -5.37329 -0.189563 -2.24473 -2.42288 1.80585 -2.04304
1471 2.27945 -9.0184 -0.733634 -1.23135 0.351705 -0.656631
111 -3.87831 -6.1159 -8.53613 0.852945 -1.53777 1.16869
397 -4.66327 -6.22399 -7.79959 0.855009 -0.122574 0.609654
112 -4.72074 -5.58593 -8.58273 -0.243165 -2.60199 1.22438
398 -4.02614 -5.35391 -7.75686 1.58066 -2.17148 0.810843
1841 -3.19019 -6.12513 -0.117816 -0.286655 2.63548 -1.20015
323 3.759 -9.12089 -6.95338 -4.1087 -0.540775 -1.77686
29 1.66181 -9.2294 -9.17423 0.69274 -1.61529 -1.98175
116 -3.07035 -5.36536 -8.48652 -0.891373 3.48943 -1.28695
402 -2.40294 -5.39139 -7.74994 1.85445 -4.31861 -0.854509
4051 -2.38532 -0.0787101 -5.2645 0.462915 -2.20293 2.09351
163 -2.29787 -4.68696 -8.44385 -0.6661 0.76267 0.260663
449 -3.25015 -4.67877 -7.62731 -0.715303 1.0865 0.999589
120 -1.53348 -5.53061 -8.39855 -0.545074 -0.834387 1.14878
167 -0.804333 -4.7825 -8.52853 2.10294 0.152396 1.68923
453 -1.50276 -4.68186 -7.64396 1.21882 -0.904753 -0.329944
124 0.151213 -5.38293 -8.5003 -2.14122 0.973322 2.28031
325 4.52716 -9.10307 -7.69951 -2.74932 0.915942 1.21482
123 0.844827 -6.13857 -8.49655 0.942817 1.55283 0.401837
128 1.61291 -5.44005 -8.55028 0.919392 0.347509 -1.20025
413 1.58477 -6.1304 -7.9167 0.758743 1.73656 1.97124
132 3.04933 -5.29852 -8.51605 0.256593 -1.39894 -0.0873694
414 2.34341 -5.38202 -7.81208 0.551036 1.0773 0.579382
465 3.0561 -4.42866 -7.89205 0.113392 -1.35 -0.362676
1465 0.0387783 -8.96143 -1.64408 3.81322 0.932528 0.0572833
2010 6.94052 -0.810654 -0.0683346 -0.875035 -0.230663 -1.64625
421 4.52296 -6.2088 -7.78297 -0.107243 1.64026 -0.164463
136 4.62426 -5.43109 -8.60657 0.173714 -0.150739 0.20038
179 3.83857 -4.66986 -8.55544 -0.611937 -0.119912 -1.50723
469 4.50152 -4.53677 -7.79909 2.92442 -0.091698 -3.32573
140 6.15937 -5.39919 -8.50323 0.414813 -0.969822 -3.0787
422 5.21944 -5.48739 -7.78859 0.399015 2.06425 0.925944
425 6.01749 -6.07378 -7.64846 1.77474 -0.465643 -0.211217
473 6.17595 -4.79884 -7.63422 1.94892 -2.07716 0.839871
183 5.36424 -4.69813 -8.39739 2.78147 2.08734 -3.16248
603 0.721989 -9.18597 -5.38411 -1.84012 -3.97619 -0.738941
144 7.90523 -5.35547 -8.5231 -0.474811 -1.56824 1.07509
187 6.8751 -4.7838 -8.43452 -3.89336 1.47127 -0.308038
426 6.91308 -5.43674 -7.6406 0.584927 1.50351 0.6707
477 7.77733 -4.64036 -7.83115 -0.0140516 1.68007 -1.75303
143 8.42292 -6.08023 -8.51908 3.86592 -0.828382 -0.353456
191 8.47685 -4.44044 -8.54323 1.07885 2.93294 -1.81042
190 8.42802 -3.69881 -9.10893 0.0700213 1.05316 -0.704382
146 -8.2967 -4.58596 -8.53622 -0.347595 -1.57195 -0.82935
433 9.09598 -4.70333 -7.78447 0.853341 -2.83507 -1.10615
434 -8.48403 -3.99065 -7.70355 0.641864 2.78694 -0.539623
437 -7.60431 -4.75019 -7.59584 1.79648 0.748621 -2.23797
89 5.9986 -7.72469 -9.18701 0.549215 -0.748013 -0.0151448
151 -6.92805 -4.67613 -8.27321 0.0767762 -2.19298 -1.09683
152 -7.68742 -3.96291 -8.23533 -0.876605 -1.05805 1.25394
4361 6.0331 -0.214972 -4.67534 0.720222 0.846671 -2.4664
438 -6.85063 -3.63372 -7.79623 -1.29275 -2.01269 0.566839
155 -5.40091 -4.65716 -8.37911 0.478081 1.94254 -1.60189
441 -6.12658 -4.61946 -7.75355 -1.9031 1.43563 -0.271582
156 -6.19251 -3.79271 -8.55156 -3.01298 -0.316064 0.738337
203 -5.43901 -3.05587 -8.35469 -1.04782 3.50833 1.09147
442 -5.44641 -3.84415 -7.59599 1.14365 1.68222 2.04746
4643 3.8644 -0.131033 -2.16451 -1.11482 1.13774 -1.58701
154 -5.40893 -3.85705 -9.15825 0.515349 -0.343086 1.85116
159 -3.92667 -4.81121 -8.53587 -0.616928 0.0359243 -2.40236
160 -4.69346 -3.86027 -8.38975 3.48441 -4.23694 -2.25303
207 -4.10112 -2.86025 -8.56018 1.0532 -2.83847 1.17396
446 -3.78442 -3.81566 -7.94262 1.96796 0.684915 -0.713028
164 -3.10244 -3.94602 -8.56315 -0.691644 -1.32952 1.95579
450 -2.43979 -3.7998 -7.80207 2.58392 -0.177139 -1.49341
1 9.10045 -9.12368 -9.14103 0.490474 0.291518 -0.653936
168 -1.63403 -3.96414 -8.27396 -1.92689 0.930023 -0.132468
454 -0.603894 -3.71601 -7.74054 -0.621732 0.822201 4.96509
3471 -3.94266 -0.0473344 -8.40824 0.889971 1.83588 1.80305
150 -7.11995 -3.71371 -8.96839 -1.63939 -2.59086 1.66075
295 -7.03765 -9.21186 -6.98781 -0.471521 1.46459 -1.67996
4905 -6.07601 -0.0597224 -1.49451 2.44031 -0.527865 1.33767
172 -0.0441778 -3.69142 -8.60031 -1.37301 -2.50822 1.4684
171 0.812487 -4.64808 -8.33201 -0.0538039 -0.746724 -0.463066
176 1.43265 -3.90623 -8.54333 -1.60296 -3.65975 1.31448
219 0.771427 -3.04531 -8.58213 -0.731343 2.27473 0.183188
46 8.46975 -8.43311 -9.07121 1.62796 -0.73644 -4.23937
175 2.28112 -4.4844 -8.50659 -0.905199 -0.315409 1.53707
180 3.14349 -3.87385 -8.70117 -0.255813 2.04632 1.37077
223 2.24259 -2.77695 -8.4329 -2.56608 -2.03746 -1.61345
43 6.74505 -9.12197 -8.41504 1.01224 -2.97807 -0.487926
184 4.72856 -3.90476 -8.66613 -0.104563 -1.09106 -0.285411
227 3.87859 -2.89437 -8.66233 -1.07472 -0.324256 0.196836
206 -3.80807 -2.13571 -9.17198 -3.70376 -0.883213 -1.20012
517 4.71021 -2.94082 -8.03614 3.91448 0.380953 0.0594638
893 1.39895 -9.17189 -4.59373 -2.98524 1.22941 1.91101
214 -0.97343 -2.26981 -9.04146 3.59993 0.874464 -1.70164
188 6.14975 -4.09073 -8.502 0.207748 -1.59501 -0.407332
231 5.56827 -3.09079 -8.46607 1.82036 -2.50717 -1.61518
1165 -4.63292 -9.1961 -2.91396 -0.673619 1.89872 -1.20465
4901 -7.87668 -0.0205848 -1.56323 2.25663 -1.76699 0.30677
474 7.03003 -3.86302 -7.68385 0.493661 0.157382 1.07371
192 7.5179 -3.984 -8.48019 -2.01337 0.463046 -0.290868
148 -9.16783 -3.68941 -8.52679 0.295755 0.510223 1.51376
478 8.58572 -3.80331 -7.55923 -2.37072 -1.01504 -0.51995
195 -8.35856 -3.12098 -8.65533 -1.68596 0.592913 0.057118
243 -8.32393 -1.44925 -8.46997 0.222546 -1.4739 0.637051
482 -8.45836 -2.26828 -7.83861 -0.0839958 0.0869967 -0.0463705
199 -6.7288 -3.0138 -8.5478 2.52343 -0.223014 2.39895
200 -7.74038 -2.20503 -8.58532 -0.163292 2.80545 0.561439
45 7.6716 -9.02443 -9.09359 -0.893222 2.03058 0.889727
247 -6.86033 -1.39555 -8.45306 -2.07905 1.28028 -2.75728
485 -7.75861 -3.06693 -7.80268 2.38402 0.234672 1.50259
533 -7.51914 -1.39256 -7.72725 0.986583 -1.52399 -1.80132
204 -6.17295 -2.22085 -8.36721 0.279474 1.56007 -0.161382
490 -5.29989 -2.25233 -7.54905 1.87853 -0.526825 -2.2037
489 -6.14589 -3.00651 -7.60281 0.903633 -0.307841 -0.470573
4337 -3.22582 -0.0733874 -4.68984 1.42132 1.06746 -0.636621
208 -4.84606 -2.22024 -8.48778 1.29436 -2.67069 1.17239
255 -3.93009 -1.49772 -8.41 0.211805 -0.196893 1.38408
493 -4.70498 -3.07422 -7.74485 -0.346557 0.578188 -2.44671
211 -2.41178 -3.14355 -8.47225 0.92094 -0.548779 -0.307133
212 -3.13602 -2.32222 -8.49216 2.26166 -1.13281 0.424017
215 -0.89719 -2.97822 -8.30786 0.10434 2.6844 -0.47795
216 -1.73522 -2.22148 -8.48332 -0.811565 0.870419 0.78577
263 -0.881514 -1.40359 -8.5198 -0.507243 1.06844 -0.301759
220 -0.135939 -2.09394 -8.42781 -0.463883 -0.492421 0.433136
267 0.602824 -1.53994 -8.5049 0.764057 0.746137 0.758306
502 -0.891775 -2.11741 -7.71803 2.82012 -0.794348 -1.53715
224 1.53649 -2.16693 -8.549 1.53388 0.715148 0.633908
70 -0.685627 -6.86408 -9.08828 0.505217 3.47429 0.175647
1463 -0.620351 -9.02548 -0.891821 1.67947 -1.20545 -1.267
228 2.95177 -2.07305 -8.5458 -0.614256 -2.27421 0.863327
510 2.15733 -2.29073 -7.67074 -1.38207 -0.433881 -0.803214
4937 6.13045 0.0145767 -1.4881 0.510603 2.07563 1.56227
53 -7.75123 -7.62097 -9.2032 0.928601 -0.325841 -0.574599
581 -7.75956 -9.17584 -6.10198 -0.954679 -1.11177 -0.461787
1189 4.54489 -9.18788 -2.9964 0.35639 2.05538 0.424082
4627 -2.3261 -0.041876 -2.24171 1.58376 -0.602372 -0.689218
232 4.73939 -2.2691 -8.69093 -0.323806 1.28175 0.0949386
236 6.14092 -2.32469 -8.6834 0.980606 1.20654 0.181065
279 5.56662 -1.50184 -8.58672 1.01293 -0.664203 -1.27802
518 5.54435 -2.20431 -7.9675 2.5805 2.36534 -1.39911
1813 4.765 -7.75492 -0.124845 -1.38411 1.22005 -1.84969
235 6.82058 -3.1465 -8.58533 2.46902 -0.709807 0.9338
240 7.69408 -2.1152 -8.49966 -1.7224 1.9864 -1.88573
522 6.94337 -2.45735 -7.86438 -2.40226 -0.113355 1.19302
525 7.70578 -3.04901 -7.88076 0.985884 -0.123469 1.30351
573 7.75918 -1.55578 -7.58056 -2.32269 -1.52132 0.920544
239 8.67583 -2.99134 -8.35904 -1.70039 -1.24415 0.303197
196 -8.98344 -2.33481 -8.67621 -0.943173 -1.90755 0.409599
481 -9.11389 -3.30783 -7.54956 -1.32597 -0.833083 -0.558877
526 8.46932 -2.17428 -7.73875 0.158094 -3.0226 2.5306
1773 7.82384 -9.10674 -0.101409 -3.32236 1.86248 -0.846229
244 -9.15826 -0.713489 -8.53092 -0.0374822 -2.31871 1.8146
530 -8.32237 -0.726319 -7.77936 -1.55054 1.33141 2.72042
1477 4.63124 -9.17944 -1.51915 0.736181 -1.00463 0.937016
248 -7.55097 -0.659661 -8.37745 -0.000594571 0.791806 -0.545118
3747 -8.39559 -0.0836184 -6.9868 -1.09228 0.986596 0.941477
251 -5.43944 -1.43392 -8.40096 -1.08807 -2.4918 1.69057
537 -6.16611 -1.50917 -7.63791 -0.8637 1.77223 1.574
252 -6.10236 -0.780732 -8.37413 -2.71491 0.0021335 3.12382
4059 0.56926 -0.154673 -5.30995 0.262506 1.72563 1.68449
297 -6.22461 -9.20565 -7.58901 -0.398418 1.35173 2.2889
256 -4.64829 -0.818003 -8.21296 -2.84193 -1.54169 -0.282923
542 -3.88066 -0.843753 -7.47935 -2.14865 -0.736535 -2.41006
541 -4.67356 -1.43059 -7.40678 -0.226077 4.02148 -0.832492
26 0.880459 -8.69775 -9.1565 -3.32541 1.07531 -0.443029
4353 2.99431 -0.0366046 -4.78491 -1.67367 -2.86755 2.84683
4033 -8.87682 -0.165785 -6.09071 0.871618 -1.22006 1.30985
259 -2.50714 -1.4773 -8.4961 -0.225067 1.37661 1.32795
260 -3.26399 -0.793964 -8.49175 -1.4452 1.82034 1.1583
545 -3.25468 -1.58304 -7.69759 1.97879 -1.00264 -0.147019
264 -1.66085 -0.671281 -8.56566 -1.28789 -1.30471 -0.0408135
4623 -3.78288 -0.031522 -2.31033 -2.89193 -0.792652 -0.556465
549 -1.70025 -1.36667 -7.86452 2.21522 -1.01807 -2.58619
550 -0.882256 -1.06415 -7.55862 0.693047 0.108375 0.034457
268 -0.139945 -0.807223 -8.37231 0.7975 0.770852 1.48171
553 -0.00888283 -1.61144 -7.67619 0.850451 0.41375 1.01438
272 1.51281 -0.724898 -8.59857 -1.37524 -0.786005 3.30998
6 -6.91263 -8.4882 -9.19443 -0.34004 0.250772 -0.310393
271 2.25101 -1.42929 -8.66752 2.388 0.504803 -1.30608
293 -7.71409 -8.95696 -7.6595 -1.83392 -1.91531 -3.02484
276 3.24758 -0.835969 -8.44909 -1.76742 -1.18279 0.565407
561 3.13589 -1.62796 -7.64142 2.68913 -0.434882 1.5254
1459 -2.22074 -9.16251 -0.672244 -1.38346 0.557563 0.73357
4077 7.83762 -0.00453022 -6.26509 0.761452 -0.0614638 -1.3714
275 4.08039 -1.62416 -8.64626 -1.57349 0.0111402 1.52762
280 4.60283 -0.742631 -8.50169 -1.97978 1.96863 0.221895
565 4.75242 -1.49785 -7.89206 1.31466 0.336322 -0.412607
569 6.35449 -1.39387 -7.72313 -0.090676 1.32569 0.701956
284 6.28479 -0.799068 -8.65337 0.783315 -1.3306 -1.81732
566 5.54528 -0.727728 -7.77504 0.275734 3.43893 -0.688295
57 -6.3871 -7.59155 -9.09032 -0.92302 -0.661189 -0.0373895
333 7.66344 -9.16603 -7.66397 1.68268 -0.820459 0.0589933
283 7.06483 -1.46647 -8.41174 -1.10861 -2.72647 -1.21267
288 7.82329 -0.772951 -8.39784 -2.33802 -1.72402 -2.00891
570 7.12959 -0.720454 -7.67131 -2.2283 -0.687228 -0.447137
1861 4.89711 -6.10942 -0.200603 -1.34015 0.059325 0.929446
287 8.589 -1.45586 -8.46956 0.223376 1.5503 -0.731947
529 -9.12546 -1.46174 -7.63828 1.63457 -0.025823 0.464402
574 8.71049 -0.806956 -7.58508 0.919555 -0.636744 1.10873
290 -8.46619 -8.38725 -7.76075 -0.0834459 1.77583 0.631204
292 9.02816 -8.51191 -6.77165 -0.762321 -0.546035 -1.37126
578 -8.5482 -8.31511 -6.14918 2.12361 0.308293 1.21814
1726 8.57081 -0.825301 -1.481 2.90888 -0.89175 0.184974
296 -7.75251 -8.23527 -6.81373 0.460926 1.77704 -1.52442
343 -6.94144 -7.69372 -6.88735 -1.66121 -1.54936 0.248092
629 -7.7086 -7.75726 -5.92473 -1.49144 -1.03291 3.51639
3491 3.88012 -0.172029 -8.46242 -2.99716 3.62356 -2.38764
298 -5.36668 -8.4581 -7.56439 -1.2727 0.186099 0.878338
300 -6.20001 -8.49085 -6.90158 -0.444328 1.55772 -0.326379
345 -6.12864 -7.72048 -7.64325 1.23965 -0.589924 -1.10846
347 -5.34039 -7.64568 -6.92832 -1.28034 -2.17265 -3.78446
302 -3.74069 -8.27191 -7.68549 -0.651625 0.886134 -0.489161
304 -4.45907 -8.54169 -6.8705 0.183622 -5.27977 -1.99288
349 -4.54731 -7.65531 -7.64514 0.778509 2.58142 1.66136
11 -5.26258 -9.19545 -8.3283 0.422026 0.529051 -1.57992
306 -2.01567 -8.59829 -7.5386 0.406694 -0.160846 3.54281
335 8.28947 -9.24536 -6.87002 -1.61415 -2.71343 -2.09869
308 -2.97106 -8.52175 -7.01005 2.01292 0.280682 0.520947
355 -2.05758 -7.8095 -7.04015 0.275841 -0.956905 -0.601064
594 -1.95987 -8.51263 -6.19726 -2.88674 0.656689 -0.421997
357 -1.33311 -7.90023 -7.67375 -0.602868 -0.669246 0.716792
310 -0.455716 -8.62386 -7.68031 -0.430369 -0.950646 -0.61343
312 -1.2753 -8.69501 -7.0306 -0.338138 -0.355322 0.911627
273 3.17376 -1.4788 -9.23014 -0.306946 2.01669 -1.75083
316 0.0146676 -8.48403 -6.694 -1.24436 0.329051 1.86082
359 -0.675753 -7.82377 -6.83691 2.37075 0.823243 -1.01411
361 0.0657441 -7.79476 -7.76757 0.228714 1.25637 2.34607
363 0.892279 -7.71776 -6.77919 -1.06766 -0.1978 -0.915371
602 0.745134 -8.31737 -5.93837 1.223 4.03649 -1.65104
320 1.31443 -8.69417 -6.71073 -1.35432 -1.25889 0.36986
1985 -3.1057 -1.58187 -0.0705508 0.541682 0.30537 -0.548832
318 2.1532 -8.43768 -7.51545 1.15564 -0.262047 0.175435
369 2.95115 -7.73885 -7.70823 3.40809 -0.835848 2.27507
324 2.93645 -8.44991 -6.74666 -2.81274 -1.51525 -0.395495
4043 -5.35576 -0.0540609 -5.16865 1.47194 0.729051 -0.703651
891 0.742596 -9.10458 -3.77243 1.92741 -4.54186 0.287168
367 2.31011 -7.7189 -6.87543 1.21127 0.574858 0.0184669
328 4.55355 -8.52852 -6.80502 3.43004 -1.44568 -0.0915039
371 3.69974 -7.86802 -6.97842 -1.50052 0.0301179 -0.490301
1814 5.46328 -6.96421 -0.226995 -1.72128 3.23045 -3.83022
217 -0.144513 -2.90123 -9.07686 1.07726 0.987472 -2.45098
377 6.20352 -7.60595 -7.70355 -1.41992 1.57167 0.311574
326 5.27977 -8.34902 -7.66741 1.04707 -0.788847 -0.120711
332 6.20798 -8.36719 -6.8453 1.14574 0.668672 0.546533
614 5.39094 -8.50705 -6.2555 -1.15739 -1.12403 0.583575
375 5.39347 -7.585 -7.0231 -0.0636137 -1.66929 -0.246913
330 6.92057 -8.45243 -7.76209 -3.52861 3.36662 0.3854
336 7.56944 -8.2702 -6.94387 1.45121 1.42843 -1.54913
669 7.62046 -7.43484 -6.07654 -1.67739 1.06739 1.20313
4327 -6.9732 -0.0605166 -3.67218 1.44365 -1.07171 3.58352
383 8.43457 -7.62706 -6.86025 2.96498 1.73845 1.3065
339 -8.61009 -7.63706 -6.99902 0.213423 -0.424146 -0.498391
340 9.16714 -6.87526 -6.85241 0.129018 -1.26377 1.1193
337 -9.20944 -7.65061 -7.77209 -0.992023 0.665041 -0.2952
387 -8.5109 -6.13188 -7.03863 -0.528714 1.37826 -1.11476
344 -7.8281 -7.06819 -6.81973 -0.393677 -0.926778 1.39195
633 -6.06941 -7.76798 -6.117 2.59315 1.14812 -0.489632
346 -5.40127 -6.98248 -7.65103 -2.16519 -0.188899 -1.23707
348 -6.18601 -7.0434 -6.93717 -1.50871 -1.83655 -0.820853
634 -5.5026 -6.98791 -6.08689 0.547472 -0.155549 0.916665
350 -3.9009 -6.93443 -7.72385 0.676425 -0.435461 -0.709726
637 -4.60461 -7.80442 -6.1201 0.00659056 1.04955 -0.673883
351 -3.85145 -7.68109 -6.88715 0.309289 -0.847504 -0.485229
352 -4.49704 -7.01848 -6.7091 0.200158 0.274591 -1.39084
685 -4.68768 -6.14393 -6.11871 -0.532993 0.341561 0.78423
401 -3.2514 -6.17395 -7.73084 0.993135 0.236425 1.56873
353 -3.00928 -7.66754 -7.82088 -1.42541 1.58851 0.670606
356 -3.17265 -6.83716 -7.11932 -0.436899 -1.17442 -0.270689
641 -2.98468 -7.74887 -6.4778 -2.14635 3.09679 0.68927
642 -2.25165 -7.14546 -6.20958 -0.370418 1.60847 0.873536
405 -1.58748 -6.20225 -7.56288 -0.409844 3.33501 -0.65322
358 -0.626206 -7.14703 -7.66076 2.43476 0.675685 -1.41337
360 -1.39414 -7.10561 -7.04633 -1.07601 -0.534902 0.50932
407 -0.788706 -6.06383 -6.96904 -0.839318 -0.440389 -2.91178
364 -0.0212862 -6.98295 -6.91033 0.247734 -0.591221 -1.0935
365 1.47249 -7.6198 -7.56802 -0.487807 -0.759936 3.58682
362 0.824785 -6.8583 -7.6576 -0.340011 -1.23189 1.64706
368 1.53336 -6.85582 -7.01306 0.38108 1.3124 -1.43474
701 1.67799 -6.05679 -6.32971 -0.35679 1.36224 0.680638
366 2.27883 -6.96629 -7.82304 3.75351 -2.27613 -2.39842
372 3.02923 -6.91423 -7.0576 0.642776 0.905919 1.32795
654 2.30994 -6.84077 -6.16802 1.23004 -1.06811 0.837685
705 3.06502 -6.19085 -6.33033 -0.00377647 -1.42833 2.00634
370 3.86225 -7.02654 -7.92131 -0.59527 3.66027 0.0445248
376 4.49786 -7.08354 -6.83198 2.19246 -0.274056 1.23172
374 5.35337 -6.79376 -7.70171 0.528666 0.227878 1.06027
380 6.21561 -6.98269 -6.84844 -3.04803 -2.64705 1.34578
423 5.20626 -6.12988 -6.69182 -2.40149 -2.56047 -1.30988
713 6.23564 -6.16527 -6.12883 -0.366245 -1.34053 -0.598794
381 7.64469 -7.5759 -7.6352 1.87394 1.53485 -1.6964
379 6.84116 -7.67035 -7.02193 -2.05993 -1.22602 0.474588
666 6.94384 -6.87129 -6.1465 1.4799 0.431664 1.86345
382 8.45729 -6.88686 -7.78525 -0.553087 1.32244 -0.765441
384 7.6035 -6.83328 -6.91576 -2.37881 1.61694 -1.59783
670 8.40759 -6.88367 -6.19144 0.260489 -0.802012 1.66857
385 9.1009 -6.15792 -7.83372 1.18428 0.611712 -0.531245
388 9.18221 -5.50483 -7.11782 -1.26142 -4.21841 3.20523
673 -9.20784 -6.16011 -6.26802 -0.886318 1.80326 -2.71886
674 -8.53257 -5.35112 -6.26853 2.26342 0.445 0.11535
721 9.06315 -4.80236 -6.17415 -0.501801 1.20212 -2.01674
392 -7.59628 -5.34923 -6.79641 0.886125 -2.83188 1.19783
391 -6.85899 -6.28213 -6.79727 -0.792374 1.29045 -0.117244
678 -6.828 -5.56503 -6.12931 -1.67892 1.09417 1.59736
393 -6.2215 -6.24012 -7.53645 1.45692 2.21453 1.13281
395 -5.26842 -6.13079 -6.88511 2.77621 0.111319 -0.545562
396 -5.96661 -5.39569 -7.08763 -0.942174 0.263829 -1.77523
399 -3.77323 -6.09653 -6.86878 -3.33906 -0.448796 3.54165
400 -4.56617 -5.41772 -6.98165 -0.862421 0.489878 -1.93749
686 -3.87095 -5.29119 -6.24853 -0.508875 2.06924 1.6512
403 -2.2914 -6.28891 -6.93474 0.353453 -3.27837 -0.534045
404 -3.10756 -5.43082 -6.95494 2.17494 0.385656 -1.86489
451 -2.37732 -4.62856 -7.11687 1.25837 2.61161 -0.176253
408 -1.54965 -5.45278 -6.9635 -0.410343 0.0157684 2.36609
741 -1.53948 -4.51863 -6.26363 2.16793 1.03278 0.109563
693 -1.53275 -6.06287 -6.269 -0.0716419 2.68714 -0.614265
694 -0.940441 -5.28569 -6.2878 0.363338 -0.645042 0.0393986
406 -0.748095 -5.33058 -7.79455 0.842088 1.25492 -0.115017
412 -0.14192 -5.26039 -6.99452 -0.730112 1.92759 1.2459
745 -0.0312773 -4.59786 -6.30363 -2.60488 2.16672 2.16171
698 0.793573 -5.37045 -6.25421 1.16159 0.286676 1.64459
410 0.862967 -5.48253 -7.61836 0.640452 0.409132 0.5379
411 0.755544 -6.2311 -6.74156 -1.48324 -0.146194 2.24506
416 1.63497 -5.354 -7.00965 -0.170265 -0.970385 2.36918
415 2.42067 -6.16918 -7.13049 -1.45699 -0.804644 1.768
420 2.99283 -5.28137 -7.09148 -1.09692 1.79523 -2.80258
702 2.39997 -5.40905 -6.26284 -0.870574 -0.340805 -0.342545
419 3.80995 -6.15581 -7.06469 0.40309 2.60605 -1.84195
418 3.81847 -5.39247 -7.72178 -2.0236 0.348343 0.355233
424 4.5623 -5.34117 -6.81146 -1.65518 1.51474 -1.22022
706 3.69885 -5.26189 -6.34863 2.85893 -0.481176 1.15574
467 3.78669 -4.52226 -7.11486 -2.19149 1.16025 -1.41151
757 4.48634 -4.54761 -6.26614 -1.20784 -0.340677 -0.309482
428 5.97103 -5.45305 -6.71563 -1.62025 -0.943844 2.82799
761 6.10019 -4.51457 -6.24195 0.941801 0.967441 1.53633
471 5.37313 -4.61338 -6.99051 -1.24758 0.872903 -1.45588
429 7.56529 -6.1385 -7.78051 -1.94383 -2.11991 -0.663698
427 6.83281 -6.15795 -6.93341 1.31505 -2.05204 1.27967
432 7.61483 -5.41384 -6.91652 -0.420066 0.296599 -1.78237
475 6.89851 -4.70245 -6.93849 -0.341922 1.62214 -2.09495
714 6.84199 -5.43381 -6.01414 0.00719778 -1.87035 0.140576
431 8.42208 -6.25883 -6.94421 4.49938 -1.13047 -1.49348
430 8.41572 -5.36908 -7.6303 1.48606 -0.594657 0.800283
718 8.46675 -5.50945 -6.3523 -1.3999 -0.36314 -0.113599
435 -8.69215 -4.76798 -6.96371 1.56093 -1.6568 -1.31056
722 -8.37165 -3.70985 -6.05258 -0.762682 0.386744 0.0100531
439 -6.81004 -4.80626 -6.83934 0.143575 -0.448497 0.816202
440 -7.52512 -3.91627 -6.97374 0.575091 0.330887 -0.710175
725 -7.78247 -4.47008 -6.21523 -0.86448 -1.51117 1.97971
726 -6.82868 -3.92754 -6.23808 -1.92952 1.43164 1.52767
443 -5.50194 -4.5618 -6.85749 1.01316 -0.494464 0.684895
444 -6.1264 -3.80024 -6.90469 0.109422 0.733446 0.490414
491 -5.29106 -3.0043 -6.96446 -0.145054 -1.70231 -0.90522
729 -6.083 -4.72695 -6.09729 2.31466 3.15874 1.53082
445 -4.78549 -4.65257 -7.61208 -2.01459 -0.863191 -0.996513
733 -4.75228 -4.7189 -6.12693 0.228001 -0.371107 -1.57353
447 -4.0219 -4.54245 -6.85156 -0.744811 2.52886 0.0940341
448 -4.70675 -3.8462 -6.87234 2.00177 0.988776 -0.572684
734 -3.94513 -3.76891 -6.04371 -0.0668188 -0.970497 -0.360996
781 -4.5865 -3.01476 -6.04034 -0.109939 -0.0382686 2.02444
452 -3.27832 -3.88748 -7.00544 -0.192761 -1.20595 1.89197
738 -2.42918 -3.86599 -6.32182 -0.12815 -1.0616 3.11314
785 -3.11189 -2.9613 -6.24018 1.69272 1.01468 -1.13603
455 -0.769436 -4.40429 -7.05841 2.27551 -0.195246 0.602931
456 -1.72972 -3.87807 -7.03731 -5.036 0.322976 -1.23792
742 -0.794813 -3.66255 -6.24075 1.32281 0.961776 -0.278124
457 -0.13009 -4.62944 -7.81093 0.8553 -3.38643 1.02032
505 -0.00736434 -2.8035 -7.74531 -0.408483 1.51591 -1.37984
460 0.0112084 -3.78631 -6.87848 -0.72003 -4.00939 1.86894
458 0.490466 -3.66773 -7.77735 -2.29335 -1.35947 0.613301
461 1.58458 -4.68474 -7.74923 0.431005 0.00686989 -2.36539
507 0.844116 -2.92594 -7.14982 2.47493 0.375492 0.284978
459 0.746406 -4.62805 -7.22784 -2.2052 -0.555868 -1.16061
464 1.46843 -3.94065 -7.19929 -1.11854 -0.316427 3.84517
462 2.45464 -3.69508 -8.06633 -0.980216 -2.38029 -1.67496
463 2.31079 -4.32045 -7.16319 1.06291 -2.79764 -0.161524
468 3.08507 -3.64292 -7.31228 -1.04247 -1.99944 0.720259
511 2.38692 -2.96337 -7.03842 -1.75086 1.85162 0.286828
513 3.13428 -2.94445 -7.93413 -1.83936 -0.542881 0.110683
466 3.96521 -3.76182 -8.02906 0.776929 0.838333 -0.0545179
472 4.68549 -3.72033 -7.03839 -1.27346 1.43974 -0.556575
515 4.02291 -2.93933 -7.12674 1.75612 -0.786124 0.98752
470 5.40437 -3.74595 -7.80092 -4.72277 -0.634046 -1.41647
476 6.12463 -3.88988 -7.19783 2.84766 -2.07579 -2.17174
758 5.30687 -3.82737 -6.17879 0.82185 -1.48566 -1.18584
809 6.09293 -3.19581 -6.36061 -0.0193409 -0.109302 1.5076
480 7.76419 -4.03423 -7.0305 3.4607 -0.0376455 -1.33866
479 8.45695 -4.70963 -6.93017 0.560197 3.15649 -2.54943
436 9.22593 -4.0261 -6.7437 0.41048 1.47744 -1.78149
527 8.56569 -2.89132 -7.0912 -0.0487508 -1.10698 -0.0516683
766 8.41209 -3.95998 -6.17953 -1.33029 -0.962041 0.659378
483 -8.22191 -3.06883 -6.96313 2.60124 1.9377 0.0672474
531 -8.42691 -1.59538 -6.87469 0.136685 1.03713 -0.439291
770 -8.31706 -2.24281 -6.14003 -0.514616 0.71126 0.138579
487 -7.15225 -3.03726 -7.10509 -3.02546 -0.142417 -2.99703
486 -6.85571 -2.27846 -7.63836 -1.51124 1.69313 -0.945874
488 -7.66777 -2.12226 -6.97426 -0.455828 -0.386227 1.14577
535 -6.84016 -1.4878 -6.85686 -2.68062 1.02231 -2.53323
774 -6.93963 -2.32863 -6.17702 -3.49683 0.265117 1.45124
773 -7.62443 -3.11682 -6.13657 -0.142948 0.19269 0.78956
777 -6.25651 -3.11084 -6.06573 2.57298 1.75692 0.585799
492 -6.05951 -2.41756 -6.84132 -0.999382 -0.562229 -1.49136
539 -5.46 -1.60124 -6.88272 1.04673 -2.19555 -2.02263
778 -5.47982 -2.36628 -6.07189 0.257961 0.953354 -0.360524
495 -3.97467 -3.14786 -6.90965 1.11246 1.64338 1.06079
494 -4.20388 -2.2581 -7.75023 2.77796 -1.8906 0.706827
496 -4.58839 -2.34764 -6.79988 -1.13767 0.178705 2.91115
543 -3.98799 -1.57182 -6.65407 0.039111 -1.19133 0.759666
782 -3.83919 -2.37231 -6.08783 1.51091 2.54124 0.835312
499 -2.49486 -3.13466 -6.96679 -0.202475 1.0322 -0.872058
497 -3.24646 -3.12937 -7.63769 0.424029 -2.0515 0.0479597
498 -2.47366 -2.29856 -7.68284 0.228539 0.550508 0.53638
500 -3.4774 -2.36406 -7.05824 -1.31779 1.31402 -1.86996
786 -2.1693 -2.25966 -6.35792 -0.188383 -0.0577426 -1.0749
501 -1.73363 -3.08192 -7.70636 -2.40289 -1.96164 -4.09968
503 -0.708904 -2.96393 -7.06878 0.440108 -1.34824 1.53774
504 -1.48047 -1.99109 -7.08437 2.44449 -1.03037 -1.67963
508 -0.0384242 -2.16107 -6.89432 1.2502 1.21942 1.15755
841 -0.0216643 -1.55474 -6.07457 0.817834 0.370565 1.82004
557 1.53964 -1.353 -7.71823 3.01277 -0.396383 -0.192488
509 1.54444 -3.15667 -7.79344 -0.998031 -1.50423 0.598431
506 0.811467 -2.39466 -7.9533 0.888764 -1.25743 -0.35575
512 1.41591 -2.13799 -7.09594 -0.0641763 2.41373 0.218669
555 0.614785 -1.31274 -6.86542 2.23483 1.08517 2.60585
794 0.733054 -2.32928 -6.25886 1.75408 -1.05636 -0.92923
516 3.11888 -2.38367 -7.03885 -0.425051 1.52338 3.756
559 2.27081 -1.4253 -7.07179 -2.23575 -1.01503 4.79491
514 3.91807 -2.16324 -7.76508 0.732097 -0.547925 -0.599553
520 4.75342 -2.31143 -7.09159 0.368737 -0.757228 -2.37644