ITEM: TIMESTEP
25000
ITEM: NUMBER OF ATOMS
6912
ITEM: BOX BOUNDS pp pp pp
-9.2265715179435492e+00 9.2265715179435492e+00
-9.2265715179435492e+00 9.2265715179435492e+00
-9.2265715179435492e+00 9.2265715179435492e+00
ITEM: ATOMS id x y z vx vy vz
4 9.2199 -8.51076 -8.48685 2.74749 2.79226 1.67894
51 -8.46568 -7.62984 -8.35812 1.14145 -2.05511 -2.13607
85 4.76247 -7.77741 -9.17573 1.75419 -0.378265 -4.37421
3771 0.79581 -0.00899232 -6.95012 0.637608 0.322778 -1.1762
265 -0.0212679 -1.58298 -9.19214 0.979894 -0.0285407 1.22439
8 -7.69014 -8.39337 -8.35563 1.31488 -0.318002 -0.13901
341 -7.83158 -7.66939 -7.55409 2.48782 0.453179 -1.64511
206 -3.81372 -2.38197 -9.19046 0.747248 2.61922 -1.18206
4359 5.21917 -0.0262794 -3.91546 1.07122 2.638 0.999333
12 -6.2276 -8.51962 -8.51252 -1.35286 -1.45222 -1.01889
345 -6.23007 -7.72985 -7.77743 -0.536226 0.531274 -0.950352
4913 -2.9934 -0.0641996 -1.51648 0.9252 2.68954 -0.770955
98 -8.63754 -5.54848 -9.10755 0.52299 1.13134 0.350906
16 -4.53797 -8.48422 -8.58344 -1.00254 -0.929116 0.0415861
257 -2.90831 -1.5476 -9.13927 0.285234 -0.600496 0.503091
63 -3.91216 -7.71346 -8.47974 0.548546 0.716734 -0.432796
349 -4.68294 -7.68032 -7.6117 -1.61954 -0.472402 -0.852317
20 -3.05239 -8.48405 -8.46921 2.93005 -1.45238 0.507179
67 -2.28053 -7.65111 -8.48382 1.31983 2.70054 1.51458
306 -2.32983 -8.61013 -7.62764 0.251081 -2.39057 0.352332
3779 3.95247 -0.0236991 -6.88339 0.495106 -0.556251 -0.682017
24 -1.41944 -8.37206 -8.5962 0.531945 -1.50971 0.566499
357 -1.56756 -7.79835 -7.72852 0.633612 1.41046 -0.570878
28 0.00339382 -8.27723 -8.44199 2.78228 0.822624 0.207305
4627 -2.21388 -0.272338 -2.29298 0.894509 1.69484 -1.33
32 1.55344 -8.34508 -8.45702 1.63206 -0.162476 2.34824
75 0.783821 -7.6086 -8.50888 0.534256 -3.05616 -0.883185
318 2.43267 -8.39598 -7.85134 -0.774982 -0.318629 0.806963
365 1.60665 -7.63505 -7.78604 0.631788 -0.513865 -0.586294
36 3.30561 -8.41142 -8.48954 -0.00946959 0.912077 -0.46754
601 0.100666 -9.09876 -6.16604 -2.0849 -0.0499383 -2.1127
909 7.74596 -9.21778 -4.54391 2.83576 -1.1478 1.32584
40 4.85082 -8.38834 -8.26904 -4.2333 -1.59391 -1.15295
83 4.00653 -7.71038 -8.60857 -0.41393 -2.19518 -1.17108
1684 9.05388 -0.739264 -0.739718 0.00749483 2.69286 -0.724727
1781 -7.73857 -7.76899 -0.0475795 -1.86068 -0.27732 0.118172
26 0.79615 -8.31346 -9.22649 -0.972229 -1.32127 -1.02622
209 -3.17935 -3.14122 -9.11818 0.34452 -0.824979 -0.327062
44 6.23996 -8.36758 -8.43075 1.5136 0.659554 0.880144
326 5.50148 -8.32078 -7.63097 -2.13303 -1.0995 0.483708
91 6.80899 -7.57223 -8.39297 0.678259 -2.8767 0.0880377
1177 0.0510189 -9.20749 -3.0514 0.756776 0.76791 -0.185107
170 0.673419 -4.04802 -9.13715 3.18606 0.809939 1.05177
57 -6.31567 -7.66995 -9.10632 2.19187 -0.28254 0.0717964
48 7.60279 -8.46965 -8.42136 -0.358644 -1.89586 -1.74019
95 8.31123 -7.76484 -8.38121 -1.31004 0.0909413 1.41639
337 9.15171 -7.69609 -7.6826 0.710371 1.03407 -0.241267
99 -8.5424 -6.16555 -8.33565 -0.254192 -0.188829 -2.30512
52 9.14436 -6.94986 -8.44853 -0.852719 -1.12765 0.144302
385 9.17874 -6.1429 -7.68844 0.158637 -0.801839 -0.493207
250 -5.34168 -0.768036 -9.1901 0.48789 1.95777 -0.194091
55 -7.12664 -7.59857 -8.37827 -3.05233 -1.84993 1.86766
899 3.71628 -9.12403 -3.77765 1.04138 1.69393 -0.793664
56 -7.78729 -6.87757 -8.43863 -0.687029 -1.40088 2.03697
342 -7.03053 -6.69607 -7.83539 -3.27786 -0.962383 0.578044
61 -4.73408 -7.68815 -9.15138 -1.75965 0.0155232 -0.41261
59 -5.52839 -7.66111 -8.58142 -1.01594 -1.18614 3.1915
60 -6.23494 -6.72955 -8.52868 0.665023 0.425931 -0.741666
107 -5.40365 -6.14494 -8.37934 0.00889946 -1.1616 1.64344
1909 4.67206 -4.52801 -0.123814 2.45833 3.81417 0.13302
64 -4.60997 -6.87864 -8.36465 -0.0824682 0.142207 1.26138
186 6.69783 -3.83209 -9.20967 1.70835 -1.13533 0.350354
68 -3.10743 -6.76474 -8.41425 -2.45028 1.81108 0.546592
354 -2.21425 -6.99772 -7.70909 0.309106 1.2108 -0.233293
115 -2.39936 -6.10357 -8.42035 -2.43985 0.381214 -0.452063
3751 -6.98571 -0.17586 -6.96249 0.477031 0.782893 -2.66258
1962 7.01574 -2.24253 -0.12337 -0.397844 -0.188777 -1.18593
72 -1.59036 -6.83705 -8.5785 -1.1552 0.823023 0.108429
405 -1.57127 -6.21283 -7.76039 -1.18414 -1.36914 2.4377
119 -0.779727 -6.31736 -8.57974 -0.761521 3.27506 0.333713
246 -6.95918 -0.707917 -9.18686 0.0769969 -1.26315 -0.916536
71 -0.782848 -7.59449 -8.49489 0.526758 0.977144 -0.277001
76 0.118692 -6.80514 -8.50559 -0.973582 -1.06339 -0.544312
3791 8.2583 -0.0656246 -6.91435 -1.46859 0.111549 -2.43495
80 1.66563 -6.81833 -8.53097 -1.4474 1.46319 0.154365
123 0.83905 -6.04436 -8.52418 0.157426 -2.6232 1.76428
413 1.63785 -6.11545 -7.69556 1.04774 -0.128151 0.116112
369 3.15398 -7.69814 -7.84965 -0.399414 -1.49981 -1.14153
79 2.35925 -7.62705 -8.61315 -0.303435 -0.323908 0.686838
84 3.21382 -6.81555 -8.61229 1.65741 2.06978 0.095163
127 2.29984 -6.10966 -8.44836 1.10448 0.983313 0.351906
88 4.64719 -6.72766 -8.43957 0.702415 -0.750619 1.27121
131 3.82263 -6.13958 -8.62227 -0.963345 -1.20382 -0.849689
370 3.94871 -7.06985 -7.87305 -0.506843 0.358871 -1.25863
421 4.54366 -6.17001 -7.6479 -0.737014 2.52226 0.248663
373 4.73507 -7.60689 -7.54993 2.09784 -2.88203 -1.23162
3761 -3.06322 0.00341278 -7.69798 -1.54145 1.29781 -0.492286
87 5.34175 -7.52621 -8.3827 2.26537 -1.61636 1.39062
92 6.15997 -6.79874 -8.43448 -0.325437 -1.52626 -0.310671
1153 -9.07956 -9.1419 -3.14594 1.24006 0.148386 2.43761
135 5.46957 -6.04117 -8.53774 -2.2547 1.58617 1.43012
377 6.1632 -7.45475 -7.74371 -3.40334 -2.1778 0.238426
425 6.16208 -6.06171 -7.63518 -1.44219 1.96804 0.0117825
378 6.85876 -6.79315 -7.68838 0.0744248 0.351334 -1.51124
429 7.49505 -6.07131 -7.70913 -1.82311 -0.164871 -0.15657
315 0.876912 -9.01977 -7.01113 -0.400122 -0.0389777 -0.234496
4935 5.34634 -0.0596141 -0.806709 -0.527657 -0.353736 0.457225
96 7.61162 -6.98863 -8.45008 -1.56254 -0.508997 -0.750712
143 8.32742 -6.23734 -8.55837 0.67692 1.56137 0.412003
157 -4.67399 -4.58378 -9.11426 2.27986 -0.276082 0.859039
386 -8.63561 -5.22858 -7.69025 1.2032 -0.843405 -4.29909
1155 -8.66597 -9.19719 -2.32522 -1.10838 -1.24664 -0.0493441
103 -6.94841 -5.99014 -8.38202 -1.13314 0.736529 2.16457
104 -7.7979 -5.3229 -8.45981 -1.66383 0.0501051 -0.656163
390 -7.00649 -5.26463 -7.54364 0.677494 -2.13506 -0.639414
108 -6.15884 -5.2972 -8.44181 2.33743 0.378677 0.342545
1846 -0.729415 -5.27531 -0.0608402 -0.714166 -0.0104983 1.044
393 -6.13747 -6.03005 -7.70868 1.85174 -1.5273 -0.882616
394 -5.41046 -5.36397 -7.5777 0.872232 1.11384 -0.360088
1471 2.30669 -9.1355 -0.817054 -0.327371 1.06971 -0.628816
111 -3.91181 -6.20898 -8.52054 0.382774 -1.52168 -0.830404
112 -4.65606 -5.39368 -8.45182 0.469643 1.16567 2.45201
159 -3.94958 -4.6838 -8.53488 0.115488 1.65337 -0.187958
116 -3.20192 -5.51623 -8.28535 1.48797 1.54761 -0.228739
163 -2.26164 -4.53236 -8.25771 -0.380091 -1.06957 2.00843
449 -3.08943 -4.63578 -7.71658 -0.838998 2.4319 2.73294
120 -1.55896 -5.27602 -8.45273 2.26529 -0.171949 1.76307
453 -1.4197 -4.51655 -7.57183 1.29196 0.199107 -0.0382147
258 -2.11781 -0.968106 -9.16072 1.14893 0.875254 -1.39176
167 -0.692924 -4.3818 -8.44445 -2.93668 -1.24052 -0.927905
124 -0.0701543 -5.423 -8.40827 -0.623811 2.55369 0.0557534
579 -8.45509 -9.1929 -5.30269 -0.300419 2.6576 -0.385268
4071 5.36762 -0.0836143 -5.47503 1.4024 0.504057 3.71366
128 1.6191 -5.41629 -8.5138 -0.17633 -1.99346 0.639803
171 0.760835 -4.7469 -8.40224 0.0658954 0.566063 -2.03707
461 1.38969 -4.56152 -7.67545 -3.18725 -0.15649 1.34968
5209 -0.0570438 -0.0455781 -0.0296539 0.325006 1.82483 0.172372
132 3.11395 -5.33472 -8.51302 -0.774285 -1.6931 -0.602511
175 2.21745 -4.62717 -8.46106 1.83712 -1.33981 -0.0539147
465 3.05041 -4.62198 -7.83598 1.91913 -0.855745 -1.97855
136 4.58438 -5.51695 -8.36554 0.0251087 -1.82077 -0.687587
179 3.82773 -4.59107 -8.49172 -2.81564 1.41277 2.14503
469 4.49208 -4.50669 -7.68081 1.33765 -0.0299265 1.5941
29 1.60262 -9.1349 -9.05625 0.849275 0.219092 0.211404
3483 0.770794 -0.0877889 -8.4002 -0.153339 3.29414 1.87579
140 6.20022 -5.3032 -8.38323 0.16996 2.06404 -0.811047
183 5.3693 -4.62559 -8.55433 2.23139 0.189554 -2.11502
201 -6.23158 -3.23058 -9.10461 1.26802 -0.0216672 0.325132
422 5.41434 -5.28395 -7.78099 -0.0956564 -0.919436 -1.70529
1822 8.35075 -6.89289 -0.0748963 -1.99948 1.13803 -0.639784
139 6.94252 -6.14679 -8.53609 0.862906 0.583795 1.41066
187 7.06437 -4.60673 -8.51154 2.48228 0.29125 3.14742
426 6.81719 -5.20406 -7.5721 1.74116 0.960697 1.12331
100 9.04957 -5.54089 -8.42118 -0.597178 -0.0670754 -0.32689
144 7.57419 -5.44344 -8.5361 1.48735 -0.312528 0.413936
430 8.3048 -5.42754 -7.79469 1.18281 -3.53432 2.17708
147 -8.4483 -4.61125 -8.54466 -0.387363 -1.3707 0.599688
434 -8.61096 -3.80386 -7.81806 0.226091 -1.56353 0.641678
433 8.93911 -4.58842 -7.9678 -0.964278 -1.39216 -0.915484
893 1.58994 -9.22067 -4.74869 3.45719 -1.73522 1.02508
437 -7.85677 -4.65295 -7.61747 0.194961 0.500111 -1.4038
152 -7.71529 -3.80838 -8.45311 -0.32953 -2.51694 0.466293
151 -6.9805 -4.78346 -8.35529 -2.99482 1.40505 -0.824917
155 -5.44619 -4.59716 -8.45311 -1.06371 1.85665 -0.232173
156 -6.21795 -3.83471 -8.43492 1.50687 -0.521008 -2.40097
1766 5.50924 -8.3495 -0.0205912 1.50766 0.453909 1.09782
445 -4.70746 -4.64615 -7.77505 -0.44283 -1.59684 -1.94872
160 -4.59388 -3.86788 -8.44416 -0.823138 -0.408344 1.70999
446 -3.86295 -4.05192 -7.73555 -2.22265 -0.0333867 -0.230349
164 -3.02634 -3.84296 -8.38417 1.03735 -2.75793 0.129641
450 -2.12744 -3.84457 -7.6032 -0.256139 -2.26935 -1.88947
1998 2.32124 -0.747959 -0.044613 0.590734 0.31988 1.03995
168 -1.53943 -3.84055 -8.48863 -0.705128 0.827368 -2.09359
454 -0.703908 -3.73898 -7.66067 0.0404198 1.9528 1.22723
172 0.15651 -3.94716 -8.34156 -0.615086 -0.81225 -1.66795
176 1.38648 -3.89264 -8.44321 -4.1669 -2.59378 2.77233
458 0.756714 -3.87582 -7.50396 0.0104527 -1.65714 -1.96222
81 3.20374 -7.6043 -9.21345 -1.56236 -2.18074 -1.67736
180 3.17676 -3.75148 -8.51878 0.218867 -1.22522 0.488953
462 2.22875 -3.83383 -7.70668 0.467116 0.433959 -0.120292
223 2.44843 -2.97023 -8.45135 0.653732 -2.14212 -1.75909
513 3.12782 -3.02857 -7.8025 2.41324 0.74323 -0.0685173
4611 -8.49013 -0.0106703 -2.39442 -1.38257 -1.30726 2.72521
1742 -3.67123 -8.42322 -0.0226408 -1.35615 1.50978 1.67135
184 4.57139 -4.023 -8.52627 -0.218469 1.39258 -0.448931
466 3.84711 -3.82293 -7.83809 -0.0718314 1.51401 0.187174
517 4.54102 -3.0681 -7.55823 1.89399 0.134877 -1.34341
1814 5.40901 -6.85798 -0.150997 -2.73953 -0.084041 0.144557
188 6.03351 -3.78249 -8.44652 0.37594 -0.00113108 -1.74538
470 5.13396 -3.82468 -7.56313 -2.33209 -0.819879 0.752912
473 5.97102 -4.2864 -7.59538 0.180254 0.103963 0.174514
192 7.65133 -3.84088 -8.34211 -0.40666 -0.800509 -2.41998
235 6.82014 -2.98189 -8.3246 2.47246 -0.935291 -1.49848
525 7.70095 -3.00854 -7.79628 1.87377 1.30973 -2.38494
481 9.19523 -3.04597 -7.84669 0.328358 0.700702 0.162243
191 8.0851 -4.65471 -8.67554 -0.936971 2.36593 2.05409
148 9.08958 -3.83833 -8.50301 1.171 -2.66846 1.63447
239 8.40975 -3.02544 -8.52707 -0.742871 -1.20833 -1.61563
195 -8.40764 -3.09035 -8.59232 2.20183 0.283944 -0.273284
482 -8.59244 -2.24688 -7.73282 1.62603 0.436395 -1.13639
200 -7.63757 -2.32782 -8.65128 -1.03835 0.391687 -1.95806
4641 3.12892 -0.00172289 -2.88097 0.376829 0.172971 0.476221
199 -7.02949 -3.12233 -8.36288 1.89435 0.034665 0.911109
486 -7.10118 -2.23857 -7.74628 -1.3366 -0.586701 0.291197
203 -5.48789 -3.05349 -8.29517 -0.927986 -3.8456 -0.687864
204 -6.21444 -2.39659 -8.25611 -1.82905 -1.60097 -0.0578461
251 -5.25775 -1.5206 -8.55712 0.258884 1.77051 0.4963
174 2.24508 -3.90241 -9.13066 1.43888 -0.733005 -1.52724
1483 6.96468 -9.22049 -0.778746 1.69762 0.366829 -0.670074
207 -3.80637 -3.14085 -8.34044 0.792871 2.18356 0.296816
208 -4.80235 -2.33544 -8.43824 -2.4037 -2.30024 -1.91683
211 -2.31758 -3.07971 -8.39164 0.0852519 -1.74553 -2.47273
212 -3.09999 -2.48249 -8.37945 0.513413 1.5583 0.0799931
498 -2.29444 -2.26707 -7.66294 1.28083 1.05194 -1.69118
259 -2.26773 -1.76752 -8.41428 -0.084314 -0.942482 2.06648
215 -0.645585 -3.12972 -8.47225 0.990662 -0.2957 0.126054
216 -1.41472 -2.31823 -8.49195 -1.23307 0.989372 0.182261
501 -1.52865 -3.11848 -7.79259 -1.18779 1.31542 0.0109408
502 -0.724155 -2.38487 -7.53118 -0.561203 1.76593 -0.510799
505 -0.0492102 -3.06433 -7.68729 -1.76478 -2.18397 -1.06267
220 0.143952 -2.09988 -8.27219 0.707324 0.111311 0.528627
4077 7.55009 -0.0603769 -6.1995 -0.431215 0.219484 1.14066
219 0.74353 -3.06281 -8.39103 -2.68158 -1.51769 -0.569242
224 1.58041 -2.39996 -8.56728 -0.326508 0.500576 0.969573
506 0.867459 -2.27084 -7.64289 -0.198394 -0.276259 -1.09348
154 -5.323 -3.71188 -9.11224 -3.68957 -2.32086 -1.72028
228 3.23081 -2.3626 -8.53403 1.61443 -1.05223 -0.456568
510 2.17496 -2.29731 -7.77262 -1.40727 0.62615 -1.38394
271 2.3657 -1.75952 -8.4943 -2.16946 -0.775968 0.891317
561 3.08471 -1.34274 -7.73545 0.923883 0.529639 1.67674
3759 -3.75735 -0.103498 -7.05068 -2.59897 -0.83093 0.484385
114 -2.58555 -5.40934 -9.10524 0.174782 -0.392221 -0.739998
227 3.91364 -2.99949 -8.44058 1.79236 -0.826664 0.285816
232 4.61575 -2.25391 -8.41067 -0.02687 -0.889049 1.13786
565 4.65248 -1.49992 -7.63284 0.40892 0.224793 -0.535731
275 3.82216 -1.62512 -8.64534 1.17555 -0.534232 0.684904
1475 3.80937 -9.12577 -0.667952 0.497592 1.32397 -0.522791
231 5.13248 -3.19135 -8.33341 -1.24198 -1.11115 -1.05068
236 5.9801 -2.32186 -8.32743 -0.0840921 1.16775 1.59407
279 5.46161 -1.53707 -8.47033 0.965254 -0.462773 -0.20512
240 7.65841 -2.17312 -8.36303 0.105946 0.449301 -2.02546
301 -4.73586 -9.1448 -7.72103 -2.9274 1.87355 -1.48568
165 -1.49255 -4.65271 -9.21215 0.637281 -0.388744 -1.57835
3765 -1.55519 -0.061057 -7.69729 0.288805 -0.411852 -0.722579
196 9.17327 -2.34382 -8.52224 0.298892 0.831135 1.52439
526 8.41592 -2.27552 -7.80061 2.07806 -0.448291 -1.2524
1893 -1.4815 -4.6578 -0.226813 0.000742074 -1.17838 -1.66522
243 -8.6413 -1.53938 -8.65429 0.359925 -1.58876 -1.30144
865 9.22271 -9.13011 -4.50385 1.33499 0.875683 1.6173
247 -6.98625 -1.55392 -8.44047 1.22235 1.14703 -1.59253
1727 8.43053 -1.4562 -0.848263 -2.28137 0.608469 -1.51482
248 -7.77191 -0.705261 -8.55347 2.15642 -0.522326 -1.19674
891 0.749186 -9.23132 -3.85869 -0.150374 -1.60163 0.714087
533 -7.85333 -1.55194 -7.95681 -1.93779 -3.16289 -2.12969
534 -6.99116 -0.773865 -7.75678 -1.20077 0.41592 -1.0771
252 -6.14802 -0.61615 -8.52455 -1.86847 -1.81973 1.16658
537 -5.93196 -1.46155 -7.71702 1.27416 -0.130728 2.15499
538 -5.32935 -0.687537 -7.72102 -0.158677 -0.386896 -0.161683
153 -6.16297 -4.67528 -9.14611 -0.128397 -0.784433 -0.687011
255 -3.86221 -1.5821 -8.41049 -2.3 0.835056 3.92505
541 -4.59582 -1.45134 -7.45853 -2.74826 -1.71444 -1.4788
256 -4.69495 -0.666448 -8.48768 3.97867 -1.13662 1.37328
285 7.60113 -1.56981 -9.15789 1.76464 -0.222376 -2.4859
260 -3.10449 -0.836752 -8.43064 -1.20771 1.25134 0.0767731
546 -2.39382 -0.724086 -7.55418 -1.46171 -2.14477 2.02794
35 4.11897 -9.12852 -8.37374 0.17512 0.807473 2.25754
263 -0.679112 -1.63273 -8.41603 1.48379 -1.56952 -3.891
264 -1.57888 -0.813671 -8.28125 0.441924 -0.506409 -0.447502
550 -0.725011 -0.788785 -7.66326 -2.65078 0.0162533 -1.13853
4647 5.38007 -0.0279559 -2.03437 1.01882 2.87582 0.467393
549 -1.514 -1.70233 -7.72648 1.17111 -0.743724 1.09117
553 0.0347213 -1.38258 -7.52825 0.747358 -2.68964 -1.96115
268 0.0743553 -0.875833 -8.44682 -0.427816 -1.13887 2.5495
554 0.869852 -0.877702 -7.67976 0.28424 1.62801 1.81701
1862 5.37044 -5.35019 -0.165451 -1.08092 -0.0813464 -1.60956
1 -9.18859 -9.15306 -9.20159 -0.593544 -0.0437323 -0.767916
267 0.980705 -1.58308 -8.40915 1.3576 2.17651 1.06233
272 1.64241 -0.84264 -8.53191 -0.525464 0.432137 -1.92532
145 9.04015 -4.68161 -9.13506 -0.0850828 -0.332919 -0.589871
1195 6.83888 -9.20468 -2.16868 -3.27352 1.11196 0.00222293
313 -0.0390927 -9.15012 -7.7242 0.652581 0.773626 -1.10104
54 -6.98205 -6.79182 -9.10914 0.971251 -1.57298 0.625392
276 3.10366 -0.780467 -8.6268 -0.280552 -0.439614 -0.214433
1746 -2.25519 -8.35166 -0.250557 2.51622 0.169073 -1.54255
280 4.84427 -0.798369 -8.39427 0.189252 -0.0830477 -0.405813
562 3.87635 -0.747264 -7.68435 1.13316 -0.348295 1.80632
867 -8.28797 -9.25444 -3.81198 2.69862 -5.22442 -0.820037
77 1.58677 -7.60792 -9.16699 -3.48894 0.48734 1.19434
50 -8.51144 -6.85119 -9.21391 0.467934 -1.17468 0.38535
3749 -7.75974 -0.0802472 -7.84294 -0.601587 2.93799 -2.79346
284 6.14183 -0.827983 -8.34653 -1.30853 -2.29408 -2.11105
4055 -0.750042 -0.0914802 -5.58042 2.51954 0.401271 1.05805
283 6.74501 -1.65446 -8.47042 -2.84965 1.96948 -0.68318
288 7.58548 -0.710081 -8.50622 -0.555575 -1.31417 -0.334552
570 6.76258 -0.801569 -7.58756 0.222086 2.06065 0.00356067
529 9.14459 -1.52136 -7.79446 -1.52246 0.780492 -0.591318
287 8.39162 -1.38616 -8.51065 -2.35532 0.626167 -0.278147
244 9.06365 -0.717418 -8.43862 -0.183942 -0.524543 0.768789
49 9.15301 -7.72661 -9.03194 1.9369 -1.59013 1.33121
290 -8.42476 -8.60239 -7.68939 0.567501 -1.59373 -2.32753
578 -8.49463 -8.47928 -6.01524 -1.96103 1.07453 -1.17728
296 -7.83913 -8.46457 -6.97252 0.419543 0.691843 -0.721729
292 -9.18997 -8.49209 -6.90123 1.05848 1.93329 2.96519
625 9.20174 -7.82226 -6.12988 0.354646 1.69058 2.34421
294 -6.99992 -8.56639 -7.57347 0.312892 -0.767702 -0.43458
593 -3.01533 -9.13591 -6.31923 -1.33703 0.562882 -1.83359
343 -7.05571 -7.45083 -6.9721 -0.230232 -0.463281 -0.367399
298 -5.52829 -8.41325 -7.81562 2.32784 -0.464944 0.0219186
4905 -6.17012 -0.00471011 -1.66186 -0.720994 1.10964 0.521031
300 -6.15137 -8.42548 -6.95496 0.130169 -0.194764 -0.87751
586 -5.50796 -8.43092 -6.20635 0.396335 0.409632 0.231146
302 -3.84979 -8.33283 -7.78024 0.173206 -1.24768 0.773693
304 -4.60106 -8.3257 -6.91886 1.05202 0.61229 0.0708697
637 -4.47318 -7.7753 -6.04868 -0.0965219 0.329841 0.0782353
205 -4.54226 -3.02216 -9.10062 -0.17765 -1.57702 0.463558
353 -3.14195 -7.61156 -7.81416 0.510666 1.00573 0.577002
308 -3.14925 -8.466 -7.0879 1.89966 1.69299 1.90993
355 -2.24816 -7.62896 -6.93341 -2.65004 -0.578014 -0.28389
641 -3.21951 -7.82497 -6.29774 -2.15748 0.377696 -1.68358
1722 7.00655 -0.615223 -1.50644 1.96409 0.673234 0.0506634
312 -1.55091 -8.49081 -6.93304 2.48182 -2.49497 -1.38666
359 -0.658605 -7.5901 -6.71668 0.0199282 1.26129 -2.37039
310 -0.725181 -8.34683 -7.6352 2.37041 -1.23346 0.635405
316 -0.0411361 -8.47955 -6.97628 -0.512312 0.401258 -0.362671
314 0.771372 -8.3022 -7.76916 -2.10597 -0.250384 -0.0238527
363 0.68451 -7.64223 -6.92833 3.15119 0.77398 3.96353
109 -4.60758 -6.10811 -9.20735 -0.191775 1.09513 -0.431531
4637 1.58263 -0.0700471 -2.99216 -0.136029 -0.0879779 0.322667
320 1.50921 -8.22959 -6.93496 -1.09955 -1.29416 1.38319
606 2.31626 -8.30042 -6.32866 3.80751 3.97184 -0.885788
324 3.18776 -8.31084 -6.82581 0.430672 -0.853565 1.8092
367 2.53415 -7.62604 -7.08426 -1.22084 1.98941 1.9399
322 3.90909 -8.37534 -7.6754 0.674604 3.26361 -1.73193
328 4.68974 -8.51394 -7.05831 -0.077848 -1.00692 -2.01069
661 4.67167 -7.86544 -6.19235 0.231077 -1.24453 2.55394
371 3.99901 -7.65455 -6.88001 -0.754511 -0.165838 -0.583885
610 3.84699 -8.4885 -6.07999 -1.07369 2.06111 -0.431777
3763 -2.39637 -0.0526655 -6.69635 1.49316 0.0282244 0.891203
332 6.23401 -8.37722 -6.9475 1.85686 -1.93037 0.23335
665 6.0909 -7.80326 -5.92158 0.434146 -2.80025 0.455507
614 5.46873 -8.48585 -6.19191 -2.54687 -1.05479 -1.65858
375 5.55922 -7.64381 -6.94251 -1.0579 -0.359751 -0.525435
1737 -6.1204 -9.07957 -0.0586203 3.28795 0.0958589 -1.75143
330 6.8976 -8.31069 -7.75053 0.759699 1.19206 0.292681
336 7.70269 -8.46578 -7.0268 1.22289 3.00397 0.244026
379 6.78174 -7.55666 -6.9546 0.0749599 -1.80464 0.789677
381 7.56993 -7.5312 -7.65585 0.600144 -0.576739 0.423988
618 6.89365 -8.45138 -6.08454 -0.533447 -0.0842694 1.36105
669 7.7138 -7.6975 -6.23645 1.07665 -2.42549 0.541325
334 8.56213 -8.48971 -7.61735 0.757546 0.609394 1.23984
383 8.35924 -7.56904 -7.08225 0.788976 2.03973 -0.306095
338 -8.6205 -6.88627 -7.68715 -1.44001 -2.34376 -1.0314
339 -8.57707 -7.5309 -6.77304 -0.484739 -1.81803 -2.22957
673 8.93336 -6.10634 -6.10455 0.777041 -0.350151 -0.652691
389 -7.79343 -6.02967 -7.69995 -0.33851 0.886844 0.277041
344 -7.75521 -6.78557 -6.93673 -1.09777 -0.459613 -2.16977
391 -7.03248 -6.13505 -7.0402 -1.29042 -0.250817 0.964019
630 -6.96034 -6.87728 -6.2244 -1.50213 -2.45622 2.72986
347 -5.52496 -7.67877 -6.95259 -1.06101 -1.2752 -0.503444
346 -5.40875 -6.95377 -7.79112 -3.14454 -1.87257 -0.298084
348 -6.23501 -6.86059 -6.98922 -0.779378 1.25546 -2.15517
633 -6.34948 -7.63559 -6.12378 -0.866086 2.06817 1.3234
350 -3.79544 -6.84423 -7.61617 -2.25408 0.667543 -0.909823
351 -3.91227 -7.61583 -6.94751 0.827339 -0.759174 0.587459
352 -4.69249 -6.94907 -6.88024 -0.246569 -0.113624 0.808583
399 -3.96363 -6.06716 -6.79887 2.13918 -0.246075 0.120745
638 -3.83917 -6.97451 -6.25592 -0.619777 4.25919 1.50635
401 -2.96876 -6.12767 -7.64131 1.11916 -0.512968 -0.422228
356 -3.02602 -7.01909 -6.98853 0.838395 -0.626676 -2.22056
403 -2.30826 -6.12428 -6.85297 0.0127705 1.97435 0.525099
360 -1.48659 -6.98605 -6.86121 -0.0938007 -0.629978 -0.906136
646 -0.718241 -6.83492 -6.08102 -2.16141 -0.101101 -0.98212
407 -0.700754 -6.31847 -6.95535 0.302933 0.164039 -1.09164
361 -0.00853136 -7.55249 -7.66992 -0.801517 0.804275 0.282036
358 -0.860272 -7.01829 -7.66992 -0.819874 -0.855021 0.804044
364 0.00504092 -6.87773 -6.82717 1.4778 -0.941871 -0.768412
409 -0.0442333 -6.27664 -7.78704 0.143006 -2.28538 3.65476
697 0.0608542 -6.044 -6.16456 -1.14843 -2.14501 0.824552
362 0.768003 -6.88382 -7.84083 0.917746 -0.135503 -3.33127
368 1.37018 -7.01577 -7.04102 1.72544 -2.64132 -0.371139
411 0.780441 -6.1163 -7.05071 1.72187 3.47375 0.842332
366 2.4822 -6.83868 -7.8741 0.584506 -2.5696 0.9263
372 3.30353 -6.93918 -7.10684 0.554186 0.97712 -1.52269
376 4.69705 -6.92665 -6.87772 -1.57516 0.0136244 0.396237
658 3.85722 -6.91087 -6.07327 -1.84223 -0.0485519 -0.229582
419 3.92023 -6.17003 -6.79007 -1.96016 1.11731 2.57967
374 5.42548 -6.78382 -7.66905 0.709019 -0.267521 1.99906
380 5.94141 -6.77414 -6.76974 -1.36456 -0.169557 1.14974
713 5.97996 -6.05697 -6.07664 -1.0778 0.903654 0.414793
662 5.34947 -7.20429 -6.12856 0.127978 -0.327967 0.479599
666 6.92199 -6.85735 -6.10927 -1.01275 -0.737826 3.21431
717 7.62182 -6.12831 -5.93126 1.2462 1.82889 0.346595
382 8.32434 -6.81853 -7.81783 1.62974 2.43755 0.985976
340 9.14392 -6.87978 -6.93224 1.16804 -1.34037 0.835733
384 7.59799 -6.82595 -6.93416 2.4698 -1.361 1.24363
431 8.29092 -6.06587 -7.05188 -2.16353 -0.409605 0.663609
670 8.30936 -6.87587 -6.03091 -3.46229 1.59924 0.546185
387 -8.59721 -6.1507 -6.89746 -0.543628 3.27595 0.613698
388 9.11303 -5.32272 -7.02576 1.61497 -1.48621 -0.37188
392 -7.90916 -5.37295 -6.98569 -0.363437 -2.24628 0.412154
439 -6.92953 -4.57467 -6.81481 0.665393 -0.993435 -0.893688
395 -5.27542 -6.18885 -6.84024 -1.55407 -2.6631 1.88086
396 -6.12871 -5.48236 -6.92358 1.77186 -1.08286 -2.20258
397 -4.60148 -6.13385 -7.62655 0.828572 0.879397 0.437561
398 -3.99106 -5.38674 -7.62245 -0.747514 1.44786 -0.374301
400 -4.61099 -5.36689 -6.84619 -0.849908 -3.23715 -0.507115
447 -3.8596 -4.59229 -6.85618 -1.38545 1.43873 0.860801
685 -4.60928 -6.2103 -6.05671 -1.34776 0.85169 0.287959
402 -2.33626 -5.29305 -7.57034 1.53873 0.457925 0.894577
404 -3.17601 -5.38709 -6.93529 0.0927349 -0.7534 0.317452
690 -2.26504 -5.51449 -6.07713 -0.441417 -1.44789 0.229632
406 -0.882489 -5.45903 -7.72305 -0.0075122 -1.02367 1.4603
408 -1.40646 -5.41144 -6.88227 1.19665 -0.29699 -0.971297
694 -0.78768 -5.27531 -6.07278 -0.533218 -2.22411 0.31711
412 -0.23608 -5.38235 -6.82422 -0.642636 2.2383 0.861029
698 0.921152 -5.64093 -6.10869 -2.77899 -1.67836 -1.1735
410 0.692027 -5.43779 -7.68142 -0.670992 -1.35855 0.983017
416 1.56798 -5.35211 -6.92067 -1.52079 -1.52368 -0.694488
414 2.36933 -5.46794 -7.74095 0.827675 3.14599 0.246928
415 2.59838 -6.27122 -7.01893 3.34293 -2.01419 -0.268441
417 3.1842 -6.11516 -7.84748 0.17109 -1.28224 0.465245
420 3.19476 -5.4551 -6.95317 0.242629 -0.781315 -0.155912
463 2.22624 -4.61912 -7.00775 0.456143 -0.635956 -0.887979
753 3.04862 -4.6043 -6.25805 0.86931 -0.804698 -0.0638484
418 3.80756 -5.36057 -7.81522 1.15664 -0.635704 0.164442
424 4.50489 -5.27125 -7.04329 -0.42298 -1.35927 1.78763
467 3.81324 -4.61062 -6.90127 0.859642 1.834 0.146012
706 3.97143 -5.31173 -6.10815 1.80898 -0.598152 0.20383
423 5.4063 -5.94808 -6.97731 -0.412396 0.500406 -1.95057
428 6.16212 -5.29621 -6.72531 -1.50539 -0.255864 1.06472
710 4.99539 -5.48777 -6.21537 2.0908 1.24734 -0.93048
477 7.68067 -4.67232 -7.70283 0.819838 0.975688 -0.356903
427 6.81276 -6.11039 -6.79203 -3.29054 -1.51302 -0.642971
432 7.49423 -5.26919 -6.8301 -0.453238 -2.67821 -0.333576
475 6.84316 -4.3923 -6.86411 -1.4031 1.1517 1.76086
714 6.86461 -5.16878 -6.00509 2.09413 0.834549 -1.11753
479 8.40411 -4.63237 -6.89782 2.2696 2.01047 -1.69476
435 -8.55672 -4.66867 -6.85269 -0.224171 0.345818 1.27733
436 9.00242 -3.94946 -6.97733 -0.566303 0.459327 0.450457
721 9.04181 -4.56142 -6.05466 -0.736016 1.78261 1.32011
438 -7.04554 -3.93624 -7.75921 1.47427 0.575035 0.607401
440 -7.71411 -3.76253 -7.00535 -1.1047 -2.3317 0.657253
726 -6.99048 -3.76699 -6.2041 -0.644589 0.218476 1.02487
443 -5.34094 -4.68559 -6.74037 1.3322 -3.45392 -1.34759
729 -6.32422 -4.65705 -6.12529 1.01305 0.840397 0.734549
441 -6.22174 -4.62697 -7.59514 0.355825 0.935149 -0.900281
442 -5.47725 -3.96128 -7.48279 -1.55822 -0.274677 2.26838
444 -6.22207 -3.81823 -6.80548 -1.18105 1.1052 -1.32512
448 -4.54207 -3.92543 -6.85796 1.64332 0.485 -2.67507
734 -3.74084 -3.82144 -6.20147 2.06472 0.363043 -0.375302
451 -2.14168 -4.56937 -6.91424 2.66783 -0.694312 1.65437
452 -3.12565 -3.84651 -7.01779 -0.715564 -0.0302032 1.56013
737 -3.03373 -4.63751 -6.14127 2.0694 1.16265 0.426263
738 -2.47461 -3.85983 -6.18416 1.01748 -0.237923 1.16535
455 -0.768247 -4.49411 -6.81033 -0.374864 -1.09314 -0.277639
456 -1.48387 -3.90314 -6.91363 -0.883132 -0.470112 2.37177
741 -1.5114 -4.66046 -6.12617 -1.07365 0.306367 1.38391
503 -0.843729 -3.10738 -6.7357 0.683653 4.2069 -0.988645
789 -1.55807 -3.10014 -6.05355 -1.06727 -3.15466 -0.281607
457 -0.0312736 -4.59022 -7.70712 -1.34443 -3.26497 -2.16175
460 0.0593018 -3.84204 -6.75766 -0.532728 0.466051 -0.568341
745 0.0697906 -4.58117 -5.97788 -0.268521 0.575232 1.02641
742 -0.719255 -3.80436 -6.05994 -0.830639 0.244476 0.324979
746 0.865393 -3.73984 -6.09597 0.484121 0.757546 -1.9365
459 0.681475 -4.72718 -6.8085 -0.0580518 -0.767915 1.36492
464 1.48975 -4.01813 -6.81792 3.43838 -1.76055 0.527412
749 1.44747 -4.66831 -6.05366 -2.66744 -0.239751 2.1469
797 1.62696 -3.08517 -6.04033 2.3225 0.416259 0.888739
468 3.14425 -3.88111 -7.08522 -0.716742 -1.8604 0.494186
750 2.32867 -3.95584 -6.15323 -0.870187 -1.34406 0.628061
472 4.339 -3.75486 -6.94476 0.901534 0.447026 0.0178494
754 3.80395 -3.84249 -6.03238 -3.41367 1.26489 0.262873
515 3.71419 -2.96372 -6.84958 -0.665846 0.757097 0.942863
757 4.55083 -4.61579 -6.13538 3.21502 -0.0544437 0.703619
471 5.40584 -4.62325 -6.76388 -1.25983 -0.896278 1.81025
476 6.15795 -3.64829 -6.81021 -0.138923 -1.82542 0.805898
809 6.00823 -3.06667 -6.04523 -1.08007 -0.711515 -0.11332
758 5.30675 -3.82005 -6.17529 -2.82816 2.00952 1.65535
519 5.37267 -2.9966 -6.80304 0.579039 -1.25979 1.49446
761 6.0787 -4.43459 -6.06236 -2.95427 -1.21054 -0.877666
474 6.85464 -3.8772 -7.80257 -2.11828 1.53683 0.170711
480 7.802 -3.86293 -6.98075 1.65914 -0.480333 1.91867
765 7.65892 -4.53182 -6.16317 0.726781 3.67465 -0.675423
523 7.05416 -3.12794 -7.00027 -2.41832 -0.888038 1.05258
478 8.41046 -3.72672 -7.70019 -0.568235 0.785781 0.25701
527 8.51432 -2.92321 -6.98407 -0.0803242 0.478111 3.05668
485 -7.86115 -3.08018 -7.73106 -0.920591 -0.24524 -0.129497
483 -8.56453 -3.08922 -6.96871 -0.277978 -0.54135 0.424666
770 -8.49535 -2.44365 -6.10072 -2.11864 -1.81773 1.81329
773 -7.80459 -3.1669 -6.23967 -0.707432 -0.049966 -0.231292
487 -7.06474 -3.052 -7.08746 -3.18363 -0.169639 -0.277603
488 -7.83347 -2.26894 -6.95257 0.298799 -0.128966 -0.0802954
774 -6.948 -2.32918 -6.36028 0.746661 1.32885 -3.20394
489 -6.31541 -3.32893 -7.60892 -0.116535 -3.65294 -0.955508
491 -5.34146 -3.153 -6.89611 -0.924894 0.985336 -2.33096
490 -5.2957 -2.21455 -7.59075 -0.610558 0.0508711 1.99815
492 -6.17274 -2.33558 -7.12075 0.302422 -0.650582 0.535435
777 -6.25567 -3.01415 -6.1918 -0.551183 0.454831 -2.11991
778 -5.27738 -2.45859 -6.14382 0.866133 0.903879 0.429355
493 -4.62524 -3.18022 -7.70804 0.379322 -2.19131 0.966364
494 -3.86268 -2.23367 -7.66407 -1.86289 1.72005 -0.774285
781 -4.55832 -3.20147 -6.06568 0.376248 -0.438468 1.44589
495 -3.88923 -3.15706 -7.09305 1.91116 0.84639 -0.615882
496 -4.55398 -2.39172 -6.89156 0.463772 -0.701118 2.33923
497 -2.97118 -3.10395 -7.71748 -2.45683 -0.0706403 -0.402704
499 -2.14389 -3.0921 -6.86977 0.88292 0.337363 1.11709
500 -3.08799 -2.40938 -6.95522 0.59193 1.02548 2.20215
547 -2.3512 -1.6601 -6.90967 0.00793156 -1.22149 2.83042
786 -2.37012 -2.21901 -6.09975 3.66648 -1.56352 -2.03064
504 -1.55911 -2.25003 -6.81521 -1.39649 2.66822 1.31135
790 -0.676865 -2.27878 -6.16494 -1.38361 -0.492169 0.456829
793 0.115906 -3.08662 -6.03983 1.51087 1.02849 -2.70347
507 0.786666 -2.98493 -6.94766 -0.514126 -0.770761 1.52601
508 0.140668 -2.28755 -6.88516 1.92985 0.301624 -0.248221
841 0.0243245 -1.5261 -6.1303 -0.740655 2.09248 -2.48725
794 0.906389 -2.38719 -6.06924 2.36448 -1.87603 0.708837
509 1.54536 -3.21808 -7.65103 0.235674 -3.03356 -0.756764
512 1.64676 -2.38457 -6.97024 -1.34887 1.88179 0.115652
511 2.41342 -3.21935 -6.89214 -0.28424 1.43195 1.06555
516 3.01691 -2.23135 -7.07876 -0.361082 0.250829 3.93763
849 2.96799 -1.77784 -6.11765 -1.6924 -0.831963 -1.09562
514 3.97346 -2.25819 -7.6531 -1.54285 -2.18239 1.44387
520 4.60119 -2.26344 -6.83216 1.49562 0.745379 -0.0398259
563 3.71054 -1.55965 -6.94254 -1.24519 -0.722694 0.702724
521 6.00706 -3.1218 -7.70085 1.90835 0.735033 -0.43372
518 5.28558 -2.27494 -7.62633 -1.40919 0.380404 1.74208
524 6.03878 -2.30376 -6.76161 -4.45401 -1.29798 -0.544464