ITEM: TIMESTEP
23000
ITEM: NUMBER OF ATOMS
6912
ITEM: BOX BOUNDS pp pp pp
-9.2265715179435492e+00 9.2265715179435492e+00
-9.2265715179435492e+00 9.2265715179435492e+00
-9.2265715179435492e+00 9.2265715179435492e+00
ITEM: ATOMS id x y z vx vy vz
290 -8.32348 -8.52962 -7.76965 -2.82564 2.22694 -0.252147
4 -9.1386 -8.43208 -8.3552 -0.627791 -1.2375 -0.0199851
9 -6.22141 -9.17013 -9.22224 -0.66124 0.324294 -0.58117
38 5.48204 -8.51386 -9.17981 -1.44662 -0.622501 -0.743277
8 -7.70574 -8.50046 -8.47742 0.421135 -1.45394 0.1246
341 -7.7125 -7.68058 -7.74815 -0.623537 -3.8284 0.635271
294 -6.93987 -8.35924 -7.73331 -0.7299 2.93291 -0.744511
603 0.708726 -9.09853 -5.09357 -1.60431 0.962926 0.44826
5 -7.8659 -9.23172 -9.17605 -1.28788 -1.352 -0.0545776
12 -6.08348 -8.46304 -8.461 -0.0115329 -0.697577 2.01222
59 -5.43711 -7.67937 -8.50024 -1.68717 -1.28587 -0.249591
85 4.71366 -7.78125 -9.04617 -2.51517 -0.289784 -0.0158016
345 -6.16481 -7.67717 -7.80328 -0.780172 -0.648763 0.960336
16 -4.68465 -8.34737 -8.48252 -0.560993 1.15079 -0.0694758
873 -6.01963 -9.24582 -4.57655 -4.2139 -3.08289 -1.55201
63 -3.9134 -7.58374 -8.59664 -2.93064 2.41647 -0.467899
13 -4.57129 -9.08788 -9.23523 1.11186 -0.743681 -3.40369
20 -3.13382 -8.36462 -8.40732 -2.1634 0.373138 0.573727
19 -2.4374 -9.10052 -8.39773 1.99497 -0.683532 0.444615
306 -2.1482 -8.41226 -7.60234 2.33934 0.844157 3.29271
66 -2.18458 -6.9789 -9.04092 -0.600233 1.2285 0.276645
4925 1.52597 0.0273951 -1.48376 0.0725588 3.08708 2.6057
24 -1.45877 -8.48382 -8.35342 1.09995 -0.810028 0.288536
310 -0.592653 -8.39933 -7.70304 0.219236 -1.10713 1.15809
71 -0.745598 -7.721 -8.44117 0.813552 -0.477085 -0.250534
1727 8.54975 -1.47958 -0.716867 0.434469 -1.01961 -0.895793
5185 9.10614 -0.13231 -0.14354 -0.0324942 0.383021 0.0877998
28 0.0577896 -8.5045 -8.48967 0.976105 -0.99668 0.747851
4333 -4.54406 -0.0312898 -4.77717 -2.08565 -0.858384 1.2025
141 7.66069 -6.14608 -9.16946 -3.24855 -0.918854 -0.554506
32 1.70086 -8.50658 -8.62173 -0.29207 1.2777 0.100675
901 4.53177 -9.10618 -4.56688 -0.195228 -1.25514 -1.02726
325 4.70071 -9.14028 -7.56068 -0.980166 0.753084 0.0741493
36 2.97106 -8.69568 -8.40822 -2.34604 -0.708137 -0.710357
1153 -9.05945 -9.24492 -2.97069 2.11933 -2.56494 -2.07953
1922 -8.39546 -2.20105 -0.00315923 -2.17054 -0.958573 1.00834
369 3.0441 -7.81196 -7.84697 1.82353 1.21693 1.66076
40 4.6631 -8.56645 -8.38483 -2.02926 -0.215558 2.16424
4943 8.44128 -0.0828623 -0.944284 -0.386082 -0.0598945 0.203948
6 -7.08087 -8.71094 -9.1881 -1.00247 0.863555 -1.44301
44 6.20811 -8.52273 -8.21569 0.512849 -1.29206 -2.29459
326 5.44978 -8.43063 -7.39589 0.257039 -1.91993 0.758769
87 5.44985 -7.79642 -8.22711 -0.350148 -1.07517 0.829915
4919 -0.686039 -0.029614 -0.774865 -2.61703 1.3357 0.378431
377 6.23026 -7.61657 -7.61845 -0.832973 0.964616 0.222568
330 7.06387 -8.54646 -7.57066 -1.57674 -0.70675 -0.174697
48 7.73199 -8.5446 -8.34545 -1.84208 -1.15186 0.6438
206 -3.87669 -2.30637 -9.10001 -0.338285 -1.41052 -1.35217
51 -8.52556 -7.72897 -8.42004 0.351561 2.11497 0.562517
337 -9.19762 -7.75067 -7.69075 -1.14256 1.35896 -2.40368
99 -8.45453 -6.25652 -8.70497 -0.542149 1.11061 -0.0569986
385 9.18391 -6.10119 -7.66709 1.09638 1.38337 -0.303329
52 -9.2006 -6.95101 -8.43443 -1.9187 -2.17382 0.46675
55 -7.07427 -7.86164 -8.59261 0.604373 1.57801 -1.54896
56 -7.84743 -7.08026 -8.52385 -3.7321 0.870266 -1.98499
103 -7.01665 -6.30827 -8.57759 0.400234 3.38865 -0.825481
262 -0.869274 -0.680609 -9.24018 0.0797653 1.37963 -2.15371
60 -6.25117 -7.0211 -8.66405 2.07311 0.535738 -1.30768
107 -5.50914 -6.07778 -8.53951 1.00496 1.96714 -0.350186
4931 3.82089 -0.0169768 -0.909288 0.0405795 2.46632 2.19876
64 -4.74606 -6.78388 -8.51333 0.416973 0.0153517 -0.8939
111 -3.83795 -6.31238 -8.58654 0.0128116 0.711261 -0.422749
67 -2.2621 -7.82759 -8.41096 1.2932 -2.04487 -3.94545
68 -3.12707 -7.09208 -8.52835 -0.839265 1.35123 0.852901
115 -2.31158 -6.1424 -8.44842 0.930126 0.791282 0.598565
289 9.15806 -9.20458 -7.56873 0.712634 0.302661 0.694029
47 8.58465 -9.08027 -8.38601 1.10707 -1.40079 0.192405
323 3.64297 -9.17842 -6.74831 0.766699 -0.254256 -0.654253
72 -1.45726 -7.06731 -8.33933 -1.21756 -0.549573 -0.440882
4903 -6.88962 -0.0324218 -0.709664 1.47976 -0.251669 -0.0846685
86 5.41548 -7.04458 -8.87507 0.8717 -0.670181 1.23353
76 0.0543047 -6.90911 -8.43284 2.05173 0.0700239 2.09304
210 -2.2952 -2.33068 -9.08701 1.62573 -0.00231313 0.637742
75 0.765117 -7.83676 -8.41739 -0.0811076 -2.75821 1.38061
80 1.44667 -6.972 -8.43991 -1.36406 0.559528 0.749103
319 2.13766 -9.13004 -6.6778 -0.731258 -0.0555148 -2.87939
911 8.54482 -9.15135 -3.70076 0.595575 -1.61851 0.38837
79 2.33613 -7.65514 -8.61135 -3.63504 -0.570603 0.542248
84 3.07591 -6.88878 -8.41864 1.1967 -0.945889 -2.21855
366 2.22599 -7.03877 -7.88117 0.542824 -2.56251 0.301026
83 3.96949 -7.75463 -8.19385 -2.78123 0.642106 0.309847
88 4.53702 -6.91037 -8.46623 2.28358 -2.45802 1.14124
421 4.51541 -6.07648 -7.85732 0.169153 0.755428 0.241139
92 6.30179 -6.90276 -8.32124 -1.69177 3.44047 0.939447
374 5.39431 -6.99062 -7.72193 0.735483 0.796225 -0.468986
4917 -1.68444 -0.0861908 -1.62822 1.72782 -1.25623 0.950744
91 7.02508 -7.70588 -8.23129 0.670131 0.503342 0.120731
378 6.92587 -6.83301 -7.5782 -0.538163 3.13458 -0.170477
96 7.54103 -6.82862 -8.32518 -0.507472 0.819253 -0.708408
381 7.87409 -7.66021 -7.67364 0.310484 2.17547 0.309207
4929 2.95349 -0.00773716 -1.57494 2.06159 -0.17539 0.515112
95 8.29161 -7.73134 -8.58681 0.997351 1.28025 0.366801
382 8.56031 -6.97288 -7.74049 -0.236306 0.956118 -1.78796
100 -9.19208 -5.4397 -8.55403 -0.606198 2.65611 -1.53913
386 -8.49254 -5.34674 -7.78748 0.159226 0.623697 -1.14017
104 -7.74777 -5.41383 -8.57008 -1.02708 0.902724 0.790895
151 -7.04757 -4.519 -8.64739 -0.278124 0.911676 -0.380471
1986 -2.24657 -0.816454 -0.128431 -0.746988 2.05983 0.912443
108 -6.35426 -5.52441 -8.48159 -0.740693 3.09749 0.579213
394 -5.5328 -5.64441 -7.5145 0.970263 -0.869486 -0.139294
441 -6.26192 -4.60707 -7.57542 0.443293 1.22096 0.858226
3475 -2.20974 -0.0734506 -8.56803 -0.409798 -1.13535 2.06697
153 -6.13606 -4.52523 -9.19496 -1.65933 2.11286 -0.194859
112 -4.59255 -5.39019 -8.58138 0.360362 0.189047 -1.8377
159 -3.8129 -4.6373 -8.3806 0.308967 -0.740474 -1.70444
17 -3.21909 -9.16998 -9.09239 -0.676998 -1.43056 1.19073
1797 -1.51622 -7.7834 -0.133732 0.829917 0.460024 1.43329
398 -3.82256 -5.38547 -7.61651 0.783858 -0.491621 0.365018
278 5.47392 -0.79929 -9.13827 0.804418 -1.4743 1.49295
116 -3.13551 -5.42222 -8.37827 -0.561025 -2.30351 0.857145
1746 -2.40309 -8.52389 -0.109748 -0.834417 0.405611 -1.1319
120 -1.53808 -5.40108 -8.41183 -1.12249 0.793948 -0.57278
119 -0.792289 -6.0454 -8.56379 -2.80769 -0.691258 1.09007
167 -0.612523 -4.69244 -8.4327 1.51234 1.13121 0.319921
213 -1.52826 -3.07742 -9.12004 0.584802 -0.310737 -0.700761
124 0.111147 -5.52178 -8.56379 -1.37815 1.722 -1.16157
309 -1.59137 -9.20587 -7.58416 1.79108 -0.88123 0.965993
123 0.751384 -6.22133 -8.4063 0.258475 -0.555255 -2.45262
128 1.59467 -5.40079 -8.54253 -0.114287 -0.22788 1.47593
1485 7.65149 -9.04444 -1.53483 -1.45877 -0.561481 -1.21441
162 -2.27122 -3.91151 -9.15717 -2.59152 0.0555181 -0.250423
581 -7.63137 -9.1423 -6.22607 2.27586 0.626193 0.0478563
127 2.33226 -6.06964 -8.49281 -2.57911 -2.12601 -0.490868
132 2.99278 -5.27127 -8.4766 0.586434 -1.14738 1.52325
414 2.27765 -5.31034 -7.77721 -0.78506 2.59258 -1.55622
465 3.12884 -4.57424 -7.58185 0.484634 1.37431 1.29444
37 4.59659 -9.10651 -9.18817 0.82229 0.701767 0.135672
7 -6.81627 -9.14139 -8.3998 -0.107222 1.39949 -1.71786
131 3.65999 -6.21608 -8.42816 0.746923 0.553722 -1.21668
136 4.55563 -5.37592 -8.56974 -0.692927 1.75622 -2.85228
135 5.35485 -6.11082 -8.38003 -0.833267 2.07396 0.77568
425 6.11814 -6.07483 -7.6444 -2.82837 -1.51761 2.79816
422 5.25593 -5.3618 -7.63505 -0.444782 -0.237231 0.396867
140 6.07851 -5.36795 -8.40726 1.19266 -0.959524 0.748144
139 6.88346 -5.96735 -8.39945 1.09049 -0.650157 -1.89978
187 6.94102 -4.67958 -8.42025 -0.886088 -1.01338 0.0401867
144 7.64918 -5.36012 -8.42693 0.446904 -0.821918 0.908884
426 6.72935 -5.3272 -7.61177 1.06033 -2.04807 -0.385936
143 8.4641 -6.06285 -8.58628 -0.210824 -0.378191 1.15341
430 8.32764 -5.43154 -7.72767 0.507581 -1.55018 0.832536
147 -8.52464 -4.70705 -8.65384 0.203931 -0.966211 2.25206
434 -8.25105 -3.83665 -7.7362 -0.047643 0.742636 -0.143521
152 -7.83265 -3.80721 -8.67253 0.0951747 -0.185594 0.147343
199 -6.94768 -2.99369 -8.64523 -0.547438 1.47695 -0.311706
155 -5.48979 -4.54481 -8.49358 1.7191 -1.49153 -2.89358
156 -6.16403 -3.79939 -8.36061 -0.583902 0.75855 -0.915757
203 -5.33813 -3.16925 -8.52166 0.231611 0.76556 1.35519
3467 -5.26776 -0.00231181 -8.36624 -1.4711 1.01826 2.88225
1777 -9.14626 -7.4027 -0.0126562 -1.99803 1.03789 0.694023
160 -4.57368 -3.9147 -8.50775 -1.27509 -0.148867 0.276151
446 -3.79824 -3.85487 -7.68109 0.586013 -2.0841 -1.83264
207 -3.80964 -3.12038 -8.51406 0.632349 0.600888 0.503546
163 -2.40576 -4.70101 -8.37294 1.70869 -1.65051 -0.709298
164 -3.22655 -3.91467 -8.50635 0.117275 -0.419277 1.15444
211 -2.44784 -3.01373 -8.54252 -0.0206973 -0.626825 3.45719
449 -3.09961 -4.60372 -7.64619 3.24995 0.292268 -1.89503
450 -2.42826 -3.81228 -7.84359 0.256012 -0.734392 0.830241
168 -1.4324 -3.82624 -8.53596 -1.90982 -0.335731 0.853742
4921 -0.0736995 -0.142654 -1.51938 1.35874 1.32019 0.300389
3757 -4.62727 -0.00386625 -7.63709 -2.05303 1.22921 -1.31169
172 0.079036 -3.86253 -8.68303 -2.48572 -1.34631 0.14064
605 1.35751 -9.09672 -6.00392 -1.27711 1.28919 1.32065
1853 1.47368 -6.08983 -0.266263 1.06752 2.03853 0.254555
317 1.48891 -9.11879 -7.49727 -0.364406 0.423131 1.29737
171 0.757214 -4.77872 -8.50748 -0.434695 0.189633 1.66345
176 1.41413 -3.86767 -8.5869 1.94402 1.82842 -2.01598
175 2.1784 -4.60314 -8.48897 1.55602 -0.634995 -0.630535
180 3.02016 -3.89399 -8.39573 -0.483902 0.951358 1.84249
223 2.37516 -2.98242 -8.4166 0.575301 1.10869 -0.448554
179 3.83253 -4.68351 -8.48342 1.84651 0.827447 0.946292
184 4.45325 -3.88436 -8.64573 0.916715 -0.287438 -0.530346
466 3.82756 -3.8752 -7.74454 0.701834 0.175021 0.30114
49 -9.16875 -7.64542 -9.16762 -0.683584 -0.371724 0.784983
183 5.28595 -4.54637 -8.65444 0.122364 0.011292 -0.813544
188 6.28133 -3.97155 -8.53907 -0.0090556 1.97988 0.332682
231 5.30083 -3.21773 -8.68912 0.799295 1.70312 -0.345314
470 5.22226 -3.84749 -7.84059 -1.86593 2.35921 -1.9771
5197 -4.57829 -0.114808 -0.092483 1.48332 -1.09505 -2.74375
4935 5.33771 -0.0495317 -0.822345 0.316076 -0.201422 -0.432271
477 7.59422 -4.4923 -7.77069 -1.24834 -0.584081 0.644875
192 7.54724 -3.84151 -8.43812 0.485158 -1.93036 -0.105964
235 6.79901 -3.19204 -8.59063 0.445348 1.12448 -0.361937
433 -9.20833 -4.55995 -7.80029 -2.02793 1.77514 1.98215
191 8.30382 -4.46592 -8.46544 -0.404476 -0.997004 -2.16803
148 9.15461 -3.82819 -8.53944 2.19957 0.728964 -0.858341
478 8.43952 -3.88712 -7.74356 1.80318 1.62738 0.326844
1161 -6.02593 -9.21597 -2.98198 -0.999606 -2.29731 1.18143
481 -9.07664 -3.16941 -7.75619 -0.0846174 -1.32438 1.5161
195 -8.45678 -3.08314 -8.57934 -0.0693353 -0.638499 -0.173819
482 -8.42108 -2.40158 -7.7699 0.0763196 0.977875 0.300946
196 -9.19989 -2.4332 -8.37255 0.868625 -1.04544 0.579376
243 -8.43777 -1.59601 -8.49768 0.452179 -1.43203 -1.02602
200 -7.67571 -2.31771 -8.54772 0.67318 -0.701572 -0.0472882
247 -6.88459 -1.54137 -8.45788 -0.868423 1.10536 1.11408
486 -6.9642 -2.29357 -7.75077 2.06514 -0.287405 1.45712
533 -7.7649 -1.62094 -7.57583 -0.18888 -0.022668 -1.66406
204 -6.13965 -2.30367 -8.48054 0.176784 -1.18484 -1.18277
1766 5.35598 -8.45545 0.0211224 0.245346 1.74474 1.92501
208 -4.77688 -2.33379 -8.41898 -0.988001 0.199984 0.552517
255 -3.95472 -1.57023 -8.38653 -2.44702 -0.973047 -0.781567
225 3.055 -3.02132 -9.12631 3.52445 -1.58443 -0.0958641
4329 -6.17896 -0.0249053 -4.62788 0.180293 -0.529531 1.5939
212 -3.17604 -2.33378 -8.42852 -0.328494 0.484199 0.365492
3767 -0.92655 0.0365207 -6.97054 -0.597052 1.67797 -0.774827
4063 2.3665 0.0128172 -5.20354 -1.50772 2.00465 0.718311
215 -0.638194 -3.18514 -8.63327 -2.68173 1.12423 -2.87592
216 -1.56477 -2.24519 -8.29267 2.45955 1.24798 -3.57042
502 -0.75401 -2.44874 -7.59198 3.29312 0.443003 1.1054
263 -0.700088 -1.65712 -8.49605 2.18401 -0.582214 2.01509
1826 -8.40575 -5.2607 -0.00453277 0.398946 -1.2579 0.097272
220 0.000128192 -2.31583 -8.50807 -1.99637 -3.67815 0.259756
553 -0.0639739 -1.60166 -7.74952 2.69188 0.984432 -0.43302
267 0.725609 -1.46611 -8.46435 -0.287035 0.257662 -1.4191
45 7.7041 -9.28389 -9.17895 -0.878554 -3.17442 -1.36464
219 0.778549 -3.06312 -8.57949 0.325389 1.21345 0.0830124
224 1.56589 -2.24377 -8.42254 -1.19302 -1.53138 -0.91395
228 2.97791 -2.1398 -8.58921 0.560355 3.97749 0.603301
271 2.20979 -1.52074 -8.53966 0.209351 -0.766892 1.71267
510 2.37541 -2.29511 -7.69492 2.15868 0.713697 -0.310116
577 -9.0579 -9.19486 -6.20709 1.60773 0.478794 -0.150467
42 6.89132 -8.444 -9.11151 1.57368 -0.924783 1.63167
4913 -3.11807 -0.0755471 -1.57073 0.101192 -1.56669 1.48569
3783 5.50368 -0.103201 -6.85839 -0.639332 0.41272 1.74334
227 3.78793 -3.08324 -8.55849 0.139939 -0.129046 1.92357
232 4.52757 -2.39002 -8.61005 -1.24026 0.0778889 1.82027
514 3.73144 -2.28872 -7.948 0.489277 1.32009 0.709365
1978 -5.32225 -0.855809 -0.202333 -0.417704 -1.04462 1.86261
236 6.05077 -2.56366 -8.50945 0.536515 -0.0212865 0.416178
279 5.41263 -1.52233 -8.32966 1.27472 0.269597 -0.919109
569 6.25663 -1.61358 -7.75359 -1.09206 0.346639 -3.40647
879 -3.79581 -9.15223 -3.92033 -0.950287 0.720472 0.24201
525 7.71742 -3.11628 -7.66015 0.58938 1.66855 -0.885017
283 7.03766 -1.50921 -8.35023 0.0897741 -0.796508 0.260832
240 7.73041 -2.34066 -8.29345 -0.0639498 -0.887422 1.72702
522 6.83967 -2.5213 -7.78221 3.28655 -0.32333 -1.16514
239 8.46183 -3.08171 -8.45223 2.21236 -1.40992 0.000665341
287 8.39932 -1.64557 -8.48796 -1.19609 -2.61476 3.01592
15 -3.87822 -9.23387 -8.41588 0.953738 -0.79508 -0.137787
244 9.11268 -1.02764 -8.42313 -0.755268 -0.134419 1.77104
4071 5.41493 -0.124167 -5.42554 -2.57655 -0.944457 -1.89319
282 7.00753 -0.754158 -9.1934 0.502818 -2.33063 -1.93416
248 -7.7346 -0.982325 -8.42978 -0.000506015 0.57674 -0.787571
534 -6.89509 -0.878529 -7.61797 -1.80218 0.956406 1.93237
251 -5.3267 -1.47974 -8.37134 -1.98647 -1.33222 -1.84422
4619 -5.46446 -0.0069749 -2.46568 -1.02682 1.59726 3.57869
252 -6.07939 -0.703304 -8.35129 1.4774 0.0946159 -1.39032
250 -5.2784 -0.743585 -9.12247 2.28 1.01123 -0.990851
253 -4.59372 -1.66084 -9.1724 -0.582742 -0.0238522 -0.669891
538 -5.29191 -0.788562 -7.65773 0.479267 1.74197 0.98292
881 -3.15067 -9.14951 -4.78526 -0.773334 -0.387169 1.11349
4651 7.04342 -0.183266 -2.32062 0.700537 0.321999 2.87628
256 -4.66165 -0.729289 -8.34466 0.472365 -0.0730313 -0.70574
4907 -5.37302 -0.0188129 -0.740661 -1.34429 0.113487 0.0847071
601 -0.0208932 -9.23937 -6.16118 -1.63579 -0.75989 -0.505185
259 -2.23647 -1.47139 -8.52558 0.21262 -0.356948 -4.25127
260 -3.16897 -0.675223 -8.53676 1.80217 -0.969612 -0.534863
1925 -7.73552 -3.04862 -0.15126 0.665544 -0.050301 1.69403
264 -1.58306 -0.773535 -8.35927 -0.685907 0.709228 0.704624
1969 9.27224 -1.6137 -0.0262274 3.55096 1.02144 0.205359
1726 8.75528 -0.842575 -1.64285 2.2418 0.262477 -0.603883
268 0.0138489 -0.789083 -8.45344 0.0242447 2.41912 1.39791
174 2.24528 -3.85877 -9.14322 0.101287 -0.320268 -0.934913
272 1.37658 -0.712214 -8.32068 1.8301 3.87034 -1.78847
554 0.632583 -0.71605 -7.68193 -0.459179 0.779199 0.988555
3747 -8.46575 -0.0103607 -6.97634 0.999497 0.281505 1.06161
276 3.01268 -0.823002 -8.56611 0.525509 0.271797 1.96085
561 2.95269 -1.55418 -7.66805 0.719956 -0.455674 2.06969
297 -6.08013 -9.0905 -7.64186 0.841009 -3.28737 -1.10812
27 0.935849 -9.19915 -8.31274 -1.36967 -1.83611 1.33102
275 3.82483 -1.50178 -8.49587 -1.92599 -1.02547 -0.0364872
280 4.57792 -0.69028 -8.38532 -0.133979 -0.61976 1.27768
4065 3.14557 -0.128849 -6.13743 -0.49076 -0.123901 1.62966
1443 -8.33403 -9.12367 -0.578424 0.598583 -1.0319 0.595371
90 6.82507 -6.8401 -9.07236 -2.11551 -0.421618 0.599324
284 6.27786 -0.753213 -8.42265 -0.133336 0.449516 -0.223668
566 5.41165 -0.78426 -7.69528 1.23716 -2.96061 0.678405
623 8.53505 -9.18595 -5.24731 -0.594948 -0.339104 -0.785821
1471 2.39327 -9.21063 -0.912646 -0.724879 0.618168 -1.24714
130 3.79485 -5.52009 -9.15212 0.623799 -1.0331 -0.635674
288 7.65043 -0.730641 -8.43898 0.336841 -0.382918 1.30744
570 6.97281 -0.83483 -7.63504 1.26459 -0.336098 1.88168
234 7.08356 -2.43455 -9.15993 1.72429 0.631014 -0.324855
1770 6.96221 -8.42029 -0.0773769 0.732743 2.99214 -1.84684
578 -8.49841 -8.41402 -6.21277 -0.917604 -3.12483 -0.553899
292 9.1038 -8.51659 -6.90925 -1.16315 0.376559 -1.49334
296 -7.74043 -8.42143 -7.00977 0.0687645 0.583917 1.02227
343 -6.89313 -7.68118 -7.06744 0.16689 -0.575059 -1.44209
629 -7.53909 -7.60894 -6.16702 -1.88037 -0.218434 2.20283
94 8.36534 -6.98088 -9.19234 1.93335 1.23546 -0.187269
1722 7.04999 -0.683714 -1.43526 -1.1722 -0.510361 1.46737
298 -5.32488 -8.42786 -7.76873 -1.97065 1.41059 0.952204
300 -6.11505 -8.34696 -6.95768 1.02489 1.26103 1.33716
347 -5.41395 -7.67697 -7.02269 1.24446 1.14251 0.156645
302 -3.90514 -8.40613 -7.8435 -0.47425 0.00126105 0.0894286
349 -4.56734 -7.63161 -7.7726 -0.805522 0.666419 -0.0131534
304 -4.58387 -8.51952 -7.08061 1.07517 -0.493461 -0.949219
351 -3.81633 -7.60076 -6.87735 -2.46994 -0.304705 -1.20321
1728 7.85635 -0.838728 -0.958793 0.460341 -0.827552 2.7559
308 -3.10801 -8.51568 -6.91434 1.98508 -0.817065 -1.28993
353 -3.23054 -7.56671 -7.72164 -0.0105546 1.35472 -1.64368
594 -2.27359 -8.45588 -6.22082 0.725548 0.0206158 -0.968988
312 -1.29936 -8.4412 -6.90993 0.59725 -1.80852 -0.282489
598 -0.788371 -8.55056 -6.05449 1.78757 0.962529 0.696802
355 -2.20656 -7.66438 -6.94894 1.3214 -0.286663 -0.463247
361 0.037145 -7.61117 -7.62134 1.44199 -1.71679 1.40432
190 8.38397 -3.76955 -9.23735 -1.20576 -1.5113 -1.79076
1750 -0.745326 -8.56282 -0.129732 -0.929965 -1.11359 -1.68905
316 -0.111363 -8.37295 -6.78933 -0.774025 0.688055 -1.04145
359 -0.719756 -7.60579 -6.87526 -2.07052 -1.46019 1.1675
314 0.637219 -8.42732 -7.54576 -1.06119 -0.144149 -0.60366
4923 0.880724 -0.0226544 -0.646737 -1.01529 0.577967 1.05291
320 1.5391 -8.41211 -6.70166 0.410217 1.44311 0.278659
318 2.29002 -8.65444 -7.70198 -0.855814 2.31548 0.424726
23 -0.695948 -9.20996 -8.34551 0.0162883 -2.23482 -1.98073
324 2.9974 -8.56463 -7.07584 1.19603 1.89328 3.44782
606 2.27627 -8.40377 -5.96698 -0.179646 0.862398 -0.32285
1926 -6.93836 -2.29178 -0.118667 0.0553444 0.70421 -1.12406
322 3.67591 -8.78621 -7.70169 0.31434 1.83333 1.45033
328 4.42775 -8.49003 -6.9725 0.350998 -1.61034 -1.75429
610 3.81495 -8.35426 -6.04485 -0.193896 0.491407 -1.61489
907 6.9178 -9.12373 -3.72648 0.935183 0.832711 1.96179
332 6.289 -8.40742 -6.89498 0.179299 -2.35236 -2.32863
665 6.19409 -7.70543 -6.18979 -1.34119 -0.695803 0.850358
614 5.49505 -8.51876 -6.23031 -1.98388 -0.815162 0.615814
336 7.74806 -8.58766 -6.71544 -1.75289 1.3488 0.928423
618 6.91546 -8.55505 -6.10958 -0.675127 -0.391859 1.83549
1806 2.31788 -6.78945 -0.114291 1.19219 0.154363 3.86796
4361 6.05789 -0.210817 -4.70103 0.327136 2.08959 -0.746693
334 8.3902 -8.53619 -7.63608 -0.552382 0.808522 0.0788866
383 8.44167 -7.78479 -6.80639 0.978468 2.17187 -0.488734
246 -6.86533 -0.77103 -9.02408 -0.952926 4.05103 1.20592
339 -8.51522 -7.65011 -6.86807 0.291654 -0.465922 -2.22166
338 -8.59095 -6.80549 -7.74598 -1.13842 -0.729155 -1.69262
626 -8.35224 -6.95147 -6.17757 -2.72723 0.557274 0.512793
340 9.11886 -6.94594 -6.89107 -1.26261 -0.80999 2.20931
342 -6.98528 -6.90432 -7.84197 1.45839 1.79721 -1.41906
344 -7.71312 -6.85389 -7.16615 -1.50878 -0.512569 -0.149841
391 -6.94858 -6.24688 -6.9004 1.50301 1.42406 -0.369298
346 -5.42447 -6.75366 -7.58741 -1.24905 -1.41303 -0.935262
393 -6.25306 -6.29894 -7.60057 -2.69839 -1.26302 0.896885
348 -6.16543 -6.93707 -6.84508 0.857757 -2.26701 -0.363152
397 -4.57086 -6.01132 -7.79312 -0.181018 1.13876 -0.637853
350 -3.95632 -6.87418 -7.81474 1.10467 0.220175 -0.413496
352 -4.58178 -6.98492 -7.01928 -0.821728 1.52334 -1.04142
399 -3.89508 -6.18789 -6.97183 -4.0479 1.97112 -0.392427
354 -2.35766 -7.0024 -7.7334 0.136817 -1.53659 -0.0504768
356 -3.16608 -6.86435 -6.90757 -1.46615 0.301647 -0.0456455
642 -2.14035 -6.93305 -6.20467 -2.70743 -0.0249038 0.681667
401 -3.1476 -6.18353 -7.72036 -0.0876287 -0.982195 -1.21757
357 -1.44255 -7.73755 -7.69827 -0.935781 4.15315 1.08019
360 -1.48138 -6.81978 -6.96528 -1.81359 0.121424 -0.65225
358 -0.688521 -6.88772 -7.63826 0.567872 2.19344 2.98723
364 0.0781575 -6.82436 -6.9152 -0.694744 1.89001 1.38654
407 -0.619588 -6.13644 -6.80599 -0.246877 1.42161 1.04131
362 0.753296 -7.027 -7.78293 0.494366 0.0722125 -1.38162
365 1.56989 -7.67919 -7.6401 1.00629 0.664566 0.0426183
411 0.892962 -6.03182 -6.89397 -0.593034 -0.600678 -0.573244
363 0.675578 -7.73112 -6.89698 -0.791272 -0.137701 1.14675
368 1.36564 -6.84169 -6.97626 -1.17364 1.0671 1.01966
367 2.19959 -7.74391 -6.70814 0.331573 2.33034 -2.71633
372 2.89043 -7.10589 -7.08436 0.863451 1.04828 -1.09919
415 2.266 -6.2743 -6.888 -1.50338 -0.362755 -1.30052
373 4.68292 -7.62943 -7.57814 0.380625 -0.906288 -1.10569
371 3.82398 -7.52627 -6.88306 -0.347803 1.11495 2.05084
370 3.82431 -6.85688 -7.70679 1.46331 -2.48927 -0.429595
376 4.62019 -6.78635 -6.95607 -1.0134 -0.0487886 -1.05405
658 3.81516 -6.87116 -6.17252 -1.06571 1.78763 2.76247
375 5.44728 -7.64448 -6.81357 -0.488009 4.56925 -1.79311
380 6.09874 -6.83072 -6.84668 -0.8681 -2.08336 0.311532
662 5.36517 -6.87995 -6.13608 0.147001 -0.441073 -0.768104
713 6.07615 -5.913 -6.20337 0.778662 0.763437 0.332122
429 7.60961 -6.13935 -7.57763 -0.869578 -0.0947977 -1.09782
379 7.08443 -7.81196 -6.85301 0.420337 -0.177738 0.580147
669 7.7785 -7.77025 -5.96533 1.46482 1.16792 1.95044
666 6.88494 -6.82012 -6.15378 -1.53086 -0.324405 -1.54176
427 6.88811 -6.05448 -6.89337 0.672782 0.526806 1.26804
384 7.81375 -6.96497 -6.82624 -0.90056 0.285447 -1.12239
431 8.39924 -6.18323 -7.01818 -1.73411 1.08131 -2.6024
387 -8.47124 -6.17348 -7.00583 0.206389 -2.01998 -0.813955
388 9.20413 -5.26072 -6.97975 0.154163 -3.51869 0.937457
389 -7.90682 -6.12071 -7.99897 0.528088 -1.6024 1.40359
390 -6.95657 -5.60999 -7.64108 -1.07929 -0.463735 1.21472
437 -7.70589 -4.79771 -7.81978 1.5691 -0.783584 0.0580777
392 -7.66651 -5.41399 -7.01053 -0.674197 2.0437 -0.5082
677 -7.65191 -6.25086 -6.21513 0.431048 0.24018 -1.76291
395 -5.26437 -6.26616 -6.72689 -2.79198 2.79563 1.1676
396 -6.25549 -5.47771 -6.90405 -2.17934 -2.92332 -1.5437
443 -5.3108 -4.72273 -6.9485 -0.572869 0.921009 -0.927359
400 -4.58701 -5.42614 -6.78127 -1.64634 0.51587 -2.80366
447 -3.74041 -4.65295 -6.82879 -0.660346 -0.414739 1.43177
733 -4.58707 -4.51674 -6.10152 -1.06839 -1.32282 0.449332
402 -2.28569 -5.50851 -7.59644 -0.344313 -0.559409 -2.4003
403 -2.2416 -6.15974 -6.84013 -2.1442 1.61848 -1.72871
404 -3.01665 -5.35724 -6.87183 -1.40488 3.87165 2.52702
451 -2.3827 -4.53502 -6.868 -2.28977 2.45918 -0.973525
405 -1.53847 -6.28248 -7.74627 -0.150982 -3.61623 0.428925
453 -1.55247 -4.54358 -7.79997 -0.550267 -0.127497 -2.69845
406 -0.638168 -5.3503 -7.78489 1.58737 -1.02678 2.41237
408 -1.52622 -5.45266 -6.93407 0.180569 -0.0294416 1.70437
693 -1.37854 -6.10167 -6.11322 0.0279935 -1.61881 -0.585206
409 0.11373 -6.14213 -7.64032 2.46323 3.21845 1.37961
457 0.0328261 -4.63488 -7.63519 -0.187351 -1.14913 -1.73547
412 0.00255621 -5.36612 -6.9718 -0.651313 0.0431004 -0.846354
413 1.57965 -6.14113 -7.6793 0.142821 -1.38389 0.879704
410 0.855192 -5.41501 -7.72204 0.735909 -2.48145 1.17204
416 1.68549 -5.4593 -7.00141 -0.193873 2.45304 -0.136403
417 2.88471 -6.17202 -7.65339 -0.273519 -0.728432 0.45334
420 2.98278 -5.50104 -6.83558 0.0659827 0.549277 1.20892
463 2.29177 -4.64922 -6.91439 -0.616186 1.20646 -0.255914
702 2.33865 -5.53645 -6.11285 1.46081 -0.51704 -0.0670574
418 3.63466 -5.40152 -7.70336 -1.16935 2.04289 -0.0502093
419 3.79829 -6.2209 -6.99241 -1.11258 0.333744 -1.42287
424 4.51407 -5.35377 -6.95301 0.981896 -0.371031 0.742494
467 3.74214 -4.71591 -6.87837 -2.35693 0.404261 -0.940039
709 4.57733 -6.07638 -6.18089 0.115191 0.706886 -0.110592
757 4.56228 -4.60727 -6.09715 -0.731117 -1.35898 -2.73534
423 5.30651 -6.0726 -6.91988 0.675823 1.37789 0.603766
428 6.01755 -5.1666 -6.9412 0.854062 -3.01612 -0.754139
710 5.3053 -5.33717 -6.27645 -0.485293 0.694579 1.24328
473 6.19378 -4.41892 -7.70225 -0.862547 1.85989 -0.897311
761 5.95678 -4.44508 -6.07934 2.53862 -2.0953 -0.0829818
432 7.6641 -5.28071 -6.95957 -0.152434 -0.0605957 0.741256
714 6.82492 -5.33699 -6.13988 0.0808417 0.759511 -2.21682
717 7.6087 -6.05996 -6.22352 -1.10997 2.90946 -1.24615
479 8.37211 -4.59183 -7.01175 -0.557189 -0.885551 -0.310067
673 -9.19415 -6.1686 -6.20831 -0.127707 -1.29124 1.43635
718 8.38148 -5.40064 -6.21078 0.478993 3.46979 -1.71097
435 -8.36821 -4.63918 -7.0484 1.3293 -0.602544 0.9226
440 -7.64019 -3.7483 -6.9243 -2.76631 0.018143 -1.71733
769 -9.17687 -3.11117 -6.11611 -0.360668 -2.43832 2.63533
438 -7.05045 -3.96227 -7.78194 3.20162 2.92582 2.00017
439 -7.12308 -4.57286 -6.82687 -0.117836 0.915507 0.927134
485 -7.62941 -3.12412 -7.75492 -1.34496 -0.615716 1.88264
487 -6.8151 -3.04723 -6.93503 -0.654266 1.30417 -1.44209
442 -5.27525 -3.97685 -7.68409 2.54056 2.09406 2.29352
444 -6.04458 -3.77712 -6.948 -0.622755 0.968567 -1.12395
491 -5.47595 -3.02102 -6.96137 -1.54753 -2.02726 2.22962
489 -6.19539 -2.91637 -7.77612 -0.883583 -0.473476 0.157002
493 -4.62625 -3.16725 -7.82897 2.65539 -0.402912 1.14072
445 -4.61937 -4.8638 -7.70508 0.629559 -1.89891 -1.77985
448 -4.55517 -3.91084 -7.00541 1.63348 0.606225 -0.717439
495 -3.98347 -3.07707 -7.04072 1.2966 1.72577 -0.971349
734 -3.82931 -3.73701 -6.16754 -1.43649 0.0677326 -1.55618
497 -3.07857 -3.05967 -7.82033 0.70868 1.38799 1.38766
452 -3.06543 -3.75634 -6.99103 0.00474236 -1.74529 -0.347329
499 -2.13095 -3.14862 -6.89329 -0.989466 0.423348 -2.25833
454 -0.763301 -3.8824 -7.78672 -0.0825514 -0.183485 0.467263
456 -1.41342 -3.76037 -6.98287 1.75799 -1.53409 -0.161797
455 -0.856953 -4.62789 -7.0846 -0.660834 -1.45689 -2.09039
789 -1.56868 -3.17957 -6.10773 1.01873 -1.43329 0.213506
460 -0.00831553 -3.77209 -7.02501 -0.632186 -1.19047 -0.265538
793 0.104684 -2.98969 -6.17227 0.825332 0.180091 0.0654801
458 0.80828 -3.81653 -7.79466 1.25301 -1.4122 -0.66508
509 1.42528 -3.13687 -7.7891 0.334458 -2.5671 0.60327
461 1.54968 -4.67916 -7.66581 -1.21776 -1.83564 -1.46328
459 0.88343 -4.59242 -7.01964 -0.97086 3.04234 0.981557
464 1.53059 -3.87294 -7.00593 -0.0248083 -0.992058 -0.927508
507 0.665453 -3.00515 -7.11881 -0.333314 1.36159 -0.180022
797 1.38492 -3.01065 -6.36886 1.72951 -0.214888 -0.922554
513 3.11615 -3.06936 -7.67604 -0.427559 0.0795419 -3.11379
462 2.26994 -3.94884 -7.74283 2.8314 -0.403434 -2.35561
468 3.00044 -3.82995 -6.88264 0.939889 -1.42644 3.17913
511 2.14437 -3.11144 -6.93114 -4.01041 0.477694 -0.113238
750 2.4326 -3.83447 -6.12128 -0.426915 -1.53669 -0.646463
517 4.45122 -3.22407 -7.68974 0.470151 -0.752061 -0.394309
469 4.42639 -4.63676 -7.77458 -0.157363 -1.0888 -1.57672
472 4.37302 -3.87539 -6.90137 0.251864 -0.491073 -1.80682
521 5.93157 -3.14985 -7.75193 -0.0524595 0.339218 -0.218139
471 5.21975 -4.3986 -7.06451 1.18113 -0.567374 0.445772
476 6.13071 -3.79406 -6.98673 -2.81794 -0.129321 1.01428
519 5.25156 -3.0335 -6.97361 -3.24649 -1.55428 -2.42943
474 6.89824 -3.64818 -7.68503 2.01445 1.55619 -1.20528
765 7.84802 -4.46797 -6.17615 -0.568757 -1.12872 2.46668
475 6.94043 -4.53994 -6.93274 -3.10087 -2.00641 -0.413098
523 6.85141 -3.04438 -6.86095 -1.27958 -0.483121 -1.56639
480 7.67578 -3.81525 -6.95189 0.0438933 0.925822 -0.325625
436 -9.13352 -3.93648 -6.92877 -0.620757 -1.28736 0.914994
483 -8.48135 -3.17996 -6.866 2.14455 0.0864981 -0.0603505
529 -9.09276 -1.59311 -7.74147 0.848102 -0.851906 -0.902229
531 -8.3616 -1.53958 -6.89307 0.623394 0.747255 0.0644077
488 -7.54491 -2.32411 -6.87132 1.73937 -0.254992 0.0933688
535 -6.84711 -1.53542 -6.80301 -0.201269 -0.591716 -0.1914
537 -6.16464 -1.49818 -7.73491 -0.354055 0.125989 0.328285
490 -5.46288 -2.27921 -7.59869 0.56008 2.47896 0.777767
492 -6.16845 -2.33777 -6.94306 -1.35476 -0.0780241 -1.32062
494 -3.88401 -2.40593 -7.8159 -0.18855 -1.14282 -0.124971
496 -4.57362 -2.33498 -7.00595 -1.70902 -1.50432 0.199115
541 -4.57385 -1.54022 -7.69639 0.45079 -0.472287 0.436245
543 -3.83023 -1.50244 -6.93063 0.434834 1.76773 1.27084
500 -3.09997 -2.29512 -6.99564 0.0909804 0.617091 -1.43777
501 -1.65566 -3.04292 -7.69917 0.816829 0.938847 -2.09748
503 -0.64598 -3.04667 -6.78794 -1.188 -0.741211 -0.144299
498 -2.32267 -2.22869 -7.68998 -0.2943 1.133 0.470959
504 -1.5367 -2.38904 -6.92011 -1.22008 -2.19934 1.47063
790 -0.714228 -2.18572 -6.10145 0.110965 -1.95928 2.1326
505 0.018128 -3.1341 -7.90348 -1.06052 1.48655 -0.160559
508 -0.0213863 -2.26572 -6.92478 -1.35345 -0.851608 -1.10449
506 0.756722 -2.25959 -7.76253 -0.949391 -4.56644 0.382335
557 1.55815 -1.52257 -7.77528 -1.06537 -1.97877 -1.72244
512 1.59237 -2.29758 -7.13766 -0.614985 0.800516 -1.09665
794 0.788188 -2.19615 -6.10871 0.357846 -0.971036 1.60797
845 1.51442 -1.40996 -6.05173 -1.2741 -0.701059 0.360761
516 3.09863 -2.38265 -7.04596 -1.79072 -1.0133 1.71157
798 2.29627 -2.21179 -6.22606 0.142019 -0.638177 -0.691789
559 2.19216 -1.45302 -6.93782 -0.125925 -0.65466 0.853706
515 3.77592 -2.99138 -6.87346 -0.508939 -0.550096 0.839306
805 4.54784 -2.98086 -6.11046 -0.97569 -0.498233 -2.14447
520 4.56207 -2.33668 -7.02741 1.12623 1.99183 1.65973
802 3.70781 -2.35995 -6.0534 -0.737311 -1.41292 1.05319
563 3.84584 -1.66709 -6.98223 0.29169 -0.0534326 -0.906877
518 5.44078 -2.30926 -7.70803 2.069 -3.94278 1.28594
524 6.15721 -2.37747 -7.05641 -1.03927 0.677235 0.622868
573 7.71344 -1.50774 -7.6465 -0.416119 -3.1813 -0.64424
528 7.78058 -2.37018 -6.92664 0.44275 0.844469 0.936975
526 8.58832 -2.38955 -7.63483 -0.164875 0.45933 -0.151647
484 -9.01234 -2.29798 -6.99374 -1.45073 -2.52768 1.57736