ITEM: TIMESTEP
104000
ITEM: NUMBER OF ATOMS
6912
ITEM: BOX BOUNDS pp pp pp
-9.2265715179435492e+00 9.2265715179435492e+00
-9.2265715179435492e+00 9.2265715179435492e+00
-9.2265715179435492e+00 9.2265715179435492e+00
ITEM: ATOMS id x y z vx vy vz
51 -8.42984 -7.7661 -8.45658 0.561548 0.0789038 -1.89893
1684 -9.12239 -1.00096 -1.0332 2.27205 -0.669557 0.32765
8 -7.63428 -8.43442 -8.41442 0.871211 2.13161 1.08934
294 -6.72801 -8.37389 -7.7063 0.928454 -1.73142 -1.39519
55 -6.89878 -7.791 -8.44209 -1.28494 3.34486 -0.674477
341 -7.64561 -7.61352 -7.79426 -0.237418 0.526456 -0.249242
12 -6.03612 -8.60896 -8.42944 1.73435 1.56929 -1.21916
298 -5.32788 -8.34404 -7.64923 0.352011 2.21156 -1.64768
59 -5.21641 -7.72516 -8.36609 -1.21149 0.0163502 0.0187974
4037 -7.54435 0.00773645 -5.97008 2.23083 0.644634 2.06714
16 -4.42332 -8.29195 -8.12296 -0.137144 1.85212 -0.0800586
63 -3.69375 -7.6541 -8.53281 0.175866 -2.96936 0.656845
1159 -6.91348 -9.01389 -2.27898 -1.1684 0.0705767 1.10304
302 -3.62781 -8.50027 -7.65739 -0.510341 -1.67123 -2.25478
1475 3.89589 -9.08991 -0.87728 -0.0243133 1.02852 0.13209
20 -3.04058 -8.26899 -8.36153 3.39879 1.30118 0.65116
306 -2.27366 -8.39834 -7.59111 0.488693 0.0766952 -1.40387
353 -3.08099 -7.57771 -7.51838 -1.51674 -0.329725 1.50386
24 -1.62648 -8.58554 -8.38474 -0.613352 -1.51461 -1.8697
310 -0.654595 -8.48207 -7.59865 1.60271 -0.501792 -1.9151
357 -1.31446 -7.88484 -7.69486 -2.25955 1.36448 -0.857656
28 0.0524675 -8.59638 -8.60983 -2.43213 -0.545587 2.27444
75 0.568699 -7.65304 -8.29579 -0.604183 1.58885 0.728275
314 0.668246 -8.46695 -7.73582 -1.84882 2.11525 -0.876738
361 0.0295886 -7.83544 -7.45951 0.857423 -1.17825 3.7407
32 1.39307 -8.40786 -8.41415 -1.66167 1.83678 -0.94871
36 2.97448 -8.45771 -8.41748 -0.274952 2.01869 0.621959
318 2.06368 -8.6805 -7.75399 -1.30036 -0.693846 -0.469764
4033 9.23793 -0.0415578 -6.35834 1.51428 0.818115 -1.40432
3503 8.41708 -0.132449 -8.23787 2.88956 -2.62265 0.907461
40 4.6117 -8.4587 -8.52309 -4.19348 1.05378 0.353047
322 3.70807 -8.42423 -7.62243 0.468343 0.612301 -1.96829
611 3.66464 -9.09521 -5.53854 -0.714057 0.145123 2.90898
4617 -6.15998 -0.0714597 -2.74992 0.902107 -0.759557 -0.00130791
895 2.38583 -9.21178 -3.75989 -0.140529 -0.366604 -3.92616
44 6.03498 -8.48833 -8.25062 -1.49694 -0.837195 1.23306
326 5.29846 -8.21168 -7.77325 1.19335 2.53872 -0.616935
583 -6.84957 -9.19412 -5.57277 1.68387 -3.43716 -5.29751
1929 -6.10407 -3.0522 -0.0446693 -0.926395 3.12335 -1.56599
871 -6.90882 -9.19407 -4.07302 0.082636 0.408232 -1.32036
48 7.67468 -8.34781 -8.24198 -1.0606 -0.414198 -0.309434
330 6.89729 -8.6699 -7.68739 1.10132 -1.56471 0.491135
381 7.60558 -7.44359 -7.89963 -3.04016 1.4828 -0.695638
130 3.64409 -5.28086 -9.16233 -0.757932 2.99179 -0.3379
4 -9.08118 -8.5765 -8.44138 -0.743429 -0.00525257 -1.90761
95 8.50848 -7.74879 -8.27394 1.79163 -0.366557 -1.68945
1726 8.60342 -0.930187 -1.60184 0.432302 0.869206 -0.671084
52 -9.1393 -6.84971 -8.51046 1.13919 -1.27885 -2.58261
338 -8.33198 -6.76968 -7.74535 1.06203 0.376047 -0.451921
385 -9.0379 -5.91205 -7.93259 1.37326 2.29356 -1.46315
56 -7.63551 -7.03171 -8.65354 -0.025739 1.68533 -0.236083
342 -7.11709 -6.74042 -7.8565 0.48313 -0.311467 -1.32707
345 -6.18274 -7.56955 -7.90725 0.156187 -1.12107 -1.9642
60 -6.30656 -7.00111 -8.64357 0.168265 -0.510611 1.25745
346 -5.32827 -6.99164 -7.76404 1.80504 -0.467965 1.47863
3475 -2.26066 -0.106485 -8.31222 -4.00067 0.238047 -0.682003
64 -4.56645 -6.94412 -8.3853 -2.15889 -0.253749 0.712476
111 -3.62014 -6.00742 -8.42594 -3.15758 -0.304648 1.13025
350 -3.80084 -6.85858 -7.68452 3.67277 0.989281 0.319329
3791 8.42711 -0.0639612 -6.97114 0.331725 -1.3523 -0.464002
67 -2.08446 -7.71084 -8.29186 -0.912831 0.174805 2.17507
68 -2.99381 -6.87913 -8.45668 0.10147 -0.625738 2.33968
354 -2.22929 -7.03639 -7.60651 -0.915666 -0.0794884 -0.822113
72 -1.35125 -6.90129 -8.42982 0.121525 -1.40151 0.65469
71 -0.801206 -7.95118 -8.58334 -1.2443 -2.04088 -2.1708
358 -0.671214 -7.00095 -7.50453 -0.528461 -0.318968 -1.95343
405 -1.52265 -6.18639 -7.5399 2.53799 2.15243 -0.696323
76 -0.145917 -6.94461 -8.33008 -0.166068 -2.24804 -1.21412
4621 -4.61719 -0.333781 -3.02557 -0.0705717 -0.622128 -2.0927
362 0.662043 -6.91669 -7.43439 -0.191701 2.16858 1.19212
365 1.45336 -7.56902 -7.54962 0.742943 4.5209 2.30024
80 1.30997 -7.07058 -8.38368 -0.836553 0.000477076 1.5709
213 -1.58286 -2.89282 -9.1904 1.26656 -2.15287 -0.0134639
79 2.1724 -7.64518 -8.24994 0.0201641 -0.985297 1.22147
84 2.91083 -6.77553 -8.42037 -2.47492 -2.20942 0.339253
369 3.29745 -7.53362 -7.75029 0.436613 -1.51949 -1.42711
366 2.10551 -6.77063 -7.53722 -1.69852 0.62359 -1.03299
417 2.76686 -5.94633 -7.70158 -1.11662 2.56891 2.14808
327 5.3155 -9.04922 -6.91458 -1.72302 0.888414 1.96591
83 3.75925 -7.83596 -8.66235 2.23352 1.01087 0.475607
88 4.32497 -6.9721 -8.35578 -1.7451 0.227947 -0.0905879
131 3.66274 -6.07901 -8.45457 0.137156 1.57736 -0.367473
421 4.46879 -6.1555 -7.68431 -1.42983 2.56787 2.38373
370 3.56949 -6.60578 -7.6977 -3.79008 -0.138276 -2.62139
87 5.24167 -7.6528 -8.56209 1.25651 0.777498 -0.354221
377 5.98796 -7.50212 -7.7669 -1.13631 0.00692625 0.746598
92 5.99623 -6.77023 -8.45774 1.83599 0.70833 3.77104
374 5.28966 -6.82921 -7.58098 1.81221 -0.141341 1.28708
91 6.72051 -7.59208 -8.39346 -0.16639 1.60906 1.17689
96 7.56718 -6.70528 -8.52147 1.66736 -0.0999989 2.44984
139 6.74296 -6.10357 -8.4822 -0.0694917 -0.112116 -1.41851
429 7.59426 -5.89297 -7.99083 -0.671372 3.24588 2.60807
143 8.51626 -6.04897 -8.60798 0.148664 0.0787072 1.12486
1806 2.37353 -6.68406 -0.174173 0.832988 1.19062 0.871864
99 -8.35145 -6.16095 -8.47054 -1.59245 -0.890007 2.67955
104 -7.62831 -5.28098 -8.62197 2.26442 0.510694 -0.131723
100 9.12394 -5.29541 -8.81254 0.475107 -1.07547 -0.885431
386 -8.3652 -5.20644 -7.89972 0.199502 -1.05992 0.415707
103 -6.96258 -6.12849 -8.54591 -1.40107 1.90284 0.258397
390 -6.82516 -5.37244 -7.84616 0.714943 -1.17028 -1.33474
437 -7.64027 -4.44634 -7.88887 -0.449355 -1.01668 1.83616
162 -2.16233 -3.67724 -9.13331 -1.6691 -0.198924 -2.20131
107 -5.29353 -6.12925 -8.29369 0.820772 -0.379572 -2.82622
393 -6.14342 -6.311 -7.93734 0.722861 -1.13535 0.300693
108 -6.18314 -5.37577 -8.58634 -2.14915 -0.996771 0.982018
4629 -1.64854 -0.0253221 -3.11372 1.16236 1.25359 2.22834
899 4.04979 -9.13511 -3.79742 -1.37465 -0.987175 0.910442
112 -4.40896 -5.33961 -8.41238 2.4492 1.69676 0.858253
1734 -6.84744 -8.41358 -0.0697952 2.53708 0.973138 2.22784
115 -2.02066 -6.09478 -8.4257 1.58496 2.40351 0.24242
116 -2.80082 -5.55253 -8.51615 -2.62718 0.908165 -0.237761
402 -2.21257 -5.34049 -7.70403 -2.13779 1.24928 -1.18266
1469 1.6865 -8.9117 -1.54706 -0.16954 -0.384793 1.07576
119 -0.767454 -6.04209 -8.2013 1.26929 -2.37739 -1.22851
120 -1.47043 -5.29504 -8.34602 1.67297 -0.27055 1.55901
165 -1.52694 -4.41236 -9.08711 -1.41113 1.60345 -1.70687
453 -1.59475 -4.55799 -7.56549 -0.757234 0.865303 -4.27366
406 -0.672352 -5.28717 -7.55909 -1.63411 -2.03408 1.12118
124 -0.0360712 -5.37261 -8.29231 -0.170668 1.28125 -1.59949
123 0.671138 -6.32187 -8.37635 -2.1416 0.319522 -3.23876
409 0.0321457 -6.0526 -7.59714 1.75124 -1.06097 0.196842
128 1.50487 -5.47773 -8.32573 1.60462 1.83783 0.344918
171 0.861202 -4.68932 -8.38388 1.19589 0.0751989 0.619786
413 1.33685 -6.14052 -7.61853 -0.286092 0.943238 -2.93217
410 0.841817 -5.32877 -7.4351 1.34786 0.34214 -1.24701
127 2.07105 -6.24694 -8.42097 -1.83822 -0.615 1.27408
132 2.93442 -5.2728 -8.38415 0.285198 -0.284386 1.33361
175 2.17384 -4.39408 -8.23296 -1.19282 -3.0079 -0.794009
241 -9.18725 -1.41082 -9.13851 -0.865465 -1.12214 2.4696
136 4.41174 -5.37861 -8.41673 -0.84479 1.12498 -0.541916
418 3.77136 -5.31717 -7.76464 -2.37562 1.1472 0.908773
179 3.56696 -4.48593 -8.42884 0.720536 3.78075 -0.23781
469 4.29808 -4.39636 -7.71953 0.775287 -1.55534 -2.16411
135 5.0555 -6.19013 -8.46089 -2.39276 -1.53134 -0.388285
140 5.96366 -5.30992 -8.40402 0.630834 -1.20467 -5.28875
183 5.11954 -4.48608 -8.43303 -4.12265 1.95533 1.61556
422 5.16539 -5.21517 -7.79702 0.677857 -0.266993 -0.00443314
473 6.04316 -4.48158 -7.52437 3.09405 1.23832 -0.90416
187 6.82754 -4.65362 -8.42589 -1.14474 2.37262 -2.4145
426 6.76129 -5.38548 -7.66556 -0.494684 1.41278 2.69496
477 7.65179 -4.67306 -7.94404 -1.67878 0.683829 -0.188722
144 7.61762 -5.31515 -8.79757 -0.559078 0.284023 0.747856
430 8.45058 -5.36534 -7.75522 -0.151638 -1.81772 1.36995
191 8.39539 -4.63682 -8.70895 -1.33781 0.726943 -1.42404
146 -8.56704 -4.66091 -8.67002 -1.29126 2.84066 1.41584
433 9.2406 -4.55558 -7.92036 1.28172 -0.645045 -2.39869
434 -8.40442 -3.79444 -7.85898 -0.674484 1.45841 0.00102285
195 -8.56488 -3.0631 -8.68752 -1.47474 1.36537 2.01637
151 -6.9732 -4.53741 -8.56729 -3.04033 -1.60891 -0.273674
152 -7.61533 -3.81742 -8.51565 -2.1863 1.50384 0.982117
1786 -5.16677 -6.8452 -0.0321726 2.04 -1.22194 1.31108
155 -5.45066 -4.53287 -8.60167 -1.14129 -0.814733 2.77914
441 -6.1243 -4.63441 -7.73753 -1.62439 0.767027 0.6156
156 -6.09831 -3.86125 -8.48606 -0.332732 1.97268 0.629616
203 -5.17516 -3.3451 -8.51691 -1.15996 -0.806612 -1.98533
442 -5.22884 -4.08135 -7.71211 1.11402 0.647982 -1.2137
4043 -5.41989 -0.141737 -5.26496 0.238617 -2.13798 -1.59302
159 -3.61883 -4.64934 -8.46649 1.26042 -0.159072 -0.335096
160 -4.32948 -3.64379 -8.64816 -0.117647 -1.92158 0.955436
446 -3.88885 -3.76874 -7.79819 -3.62838 -0.934747 1.89717
4035 -8.35952 -0.120396 -5.34721 0.366687 1.84349 -2.51821
449 -2.89558 -4.66647 -7.66558 0.460086 -1.3884 2.42178
163 -2.30981 -4.55061 -8.3749 -0.652733 0.673561 -0.0317376
164 -3.26374 -3.65268 -8.48941 2.78922 -1.25821 -1.02272
450 -2.23563 -3.68474 -7.96371 2.2646 -2.48946 -0.346463
168 -1.25082 -3.81805 -8.36163 -3.50758 -0.933249 -0.67247
454 -0.63307 -3.80469 -7.49625 -0.171212 1.05962 1.17916
4359 5.2997 -0.0402634 -3.7614 0.349211 0.0384982 0.461358
167 -0.67094 -4.60369 -8.44704 -2.54431 0.482882 0.180628
172 -0.0353129 -3.67096 -8.49287 1.48375 0.144953 2.45303
457 0.138303 -4.63258 -7.51076 0.405757 3.50782 -1.92338
201 -5.94289 -3.08092 -9.13967 -3.02661 -1.1678 1.21645
176 1.37277 -3.67137 -8.53949 -2.10289 -2.85642 2.06474
458 0.846988 -3.84337 -7.56961 -0.175378 1.19282 2.22001
234 6.89728 -2.2986 -9.19607 0.493707 -1.69212 -2.14116
180 2.96278 -3.76386 -8.23861 1.27375 0.832396 -0.257209
462 2.05112 -3.5649 -7.57478 -0.144943 -0.675272 -0.542502
513 2.9295 -2.84797 -7.77194 1.82249 -1.77892 1.0056
3749 -7.54185 -0.0949932 -7.65984 1.38999 0.588591 0.72384
184 4.34211 -3.64532 -8.52614 -0.40783 -0.529316 -0.566792
227 3.6297 -2.83454 -8.53775 1.99356 1.1915 1.32513
466 3.76159 -3.55733 -7.74372 0.503553 -0.415002 0.0378426
246 -6.81913 -0.704569 -9.12967 -0.0157622 0.810444 -0.852507
109 -4.31282 -5.93396 -9.19484 1.76755 -0.539459 0.830596
188 5.94379 -3.90842 -8.44332 -1.87212 1.26263 2.30497
231 5.25799 -3.1025 -8.66374 0.939083 -0.826999 -0.446143
470 5.05652 -3.79629 -7.77803 -0.241189 -0.179822 -0.318804
225 2.80322 -3.08721 -9.03479 0.0363553 0.548646 -1.13668
15 -3.76211 -9.2454 -8.42493 2.88096 -1.75533 -2.15539
192 7.67541 -3.66409 -8.2956 0.0544111 -1.14697 1.89225
474 6.82975 -3.80593 -7.72991 2.00487 -0.251851 -1.11534
148 9.17278 -3.76367 -8.56793 0.918211 0.244743 -1.25925
239 8.39847 -3.00804 -8.48556 -1.6339 1.08771 -0.0108042
481 -9.10925 -3.12498 -7.78276 -1.11379 -1.85906 -2.75305
478 8.50564 -3.84995 -7.76362 0.43411 -1.51324 -0.0694291
243 -8.29931 -1.62864 -8.67231 -1.24466 1.14635 -1.11679
200 -7.55454 -2.38601 -8.56183 -0.888487 -1.43093 -0.0775601
482 -8.42271 -2.29765 -7.97011 0.418298 -1.53522 1.97611
1441 -9.2121 -8.97433 -1.62093 0.00192304 -0.746405 3.55487
199 -6.86387 -3.13287 -8.43945 0.156947 -2.10851 3.96661
247 -6.69247 -1.69589 -8.45528 -1.74337 -0.903585 -0.776985
133 4.32341 -6.08767 -9.16335 -1.05403 1.33246 -2.48921
485 -7.72278 -3.09831 -7.88352 1.65843 1.26975 2.13828
533 -7.41573 -1.72593 -7.68448 2.76548 2.51341 -1.49021
204 -5.98456 -2.44037 -8.44197 -1.2425 1.81755 2.68973
4321 -9.07479 -0.0855372 -4.45103 -0.332339 2.72792 -1.10007
4931 3.79348 -0.000260871 -0.67033 0.938129 1.94857 0.984379
207 -3.78489 -2.89126 -8.55305 -0.806007 0.741603 1.27037
208 -4.56097 -2.40017 -8.53716 -1.16897 1.71835 -3.4517
493 -4.64303 -3.27077 -7.70878 -0.110427 -2.70001 1.93769
494 -4.1333 -2.25409 -7.60627 -2.2872 -2.0779 -0.184782
1970 -8.5077 -0.870866 -0.0401039 -0.755858 -1.32086 1.44427
211 -2.40662 -2.81725 -8.51556 1.04332 1.38363 -0.0582831
212 -3.13216 -2.17511 -8.7819 -0.334045 -0.543003 -0.965868
259 -2.49298 -1.57438 -8.35196 0.436686 0.83882 -1.74376
498 -2.4558 -2.30663 -7.71232 0.923691 0.155088 -2.72133
497 -3.05211 -3.03245 -7.82236 2.57093 -0.822002 -0.157356
4615 -7.01688 -0.00564499 -2.33045 1.13804 1.26295 -1.50094
905 6.1054 -9.18892 -4.66032 -0.196455 -1.26169 2.36458
216 -1.67444 -2.05942 -8.68679 1.21205 1.23383 -1.17418
501 -1.41122 -2.96361 -7.81097 2.57194 1.22625 -1.18724
502 -0.777198 -2.17088 -7.79947 -1.30889 -0.852475 0.775552
215 -0.660386 -2.9264 -8.50764 -1.62534 -0.629873 1.09938
220 0.0121235 -2.25045 -8.48888 -2.52974 -0.924562 1.0538
1969 -9.16458 -1.64981 -0.155807 1.12075 -0.979679 1.81741
219 0.620875 -2.89058 -8.4672 -2.22802 -0.760478 -1.30566
224 1.40294 -2.04414 -8.6128 -0.571126 0.525283 -0.311505
509 1.23542 -2.97557 -7.73399 1.55515 0.263277 -0.853507
262 -0.599991 -0.692781 -9.18641 -0.396877 1.01562 -1.10558
1473 3.10271 -9.19981 -1.38432 0.864639 -2.02158 1.46425
1169 -2.78194 -8.97409 -3.03559 -3.25094 -1.85087 0.336856
223 2.06088 -2.90612 -8.37672 -2.43727 1.16402 -1.40446
228 2.87456 -2.02914 -8.34355 -1.32241 -0.0132347 1.22091
271 2.13228 -1.40736 -8.38001 0.00893199 -0.791285 -1.99052
510 1.92424 -2.16817 -7.67466 0.916849 -2.56306 -1.72254
232 4.47737 -2.15041 -8.57604 -1.56704 -1.3458 -1.81504
275 3.78857 -1.46686 -8.45813 -1.0091 -0.296212 -2.46914
565 4.56222 -1.58536 -7.58186 0.332513 -1.96379 -1.52627
5189 -7.52582 -0.136245 0.00509315 -1.85547 0.410659 0.276827
236 6.07029 -2.27131 -8.63775 -2.89335 2.25381 -0.898141
518 5.3202 -2.25785 -7.96923 0.705254 -2.96094 -0.470409
1801 0.00286357 -7.68107 0.00517541 1.04519 -3.15086 1.26913
235 6.57826 -3.10225 -8.56175 0.562686 -2.12484 -0.715487
283 6.86833 -1.54006 -8.54062 0.102569 1.58436 0.790878
522 6.93435 -2.21855 -7.58478 -1.13173 -1.0157 -0.272734
573 7.73093 -1.47296 -7.73955 -1.71608 1.66294 1.65336
38 5.37162 -8.46817 -9.11147 0.856006 0.437645 0.0409633
240 7.73047 -2.24775 -8.52022 -0.624487 -1.32604 1.52575
196 -9.18504 -2.23955 -8.65393 1.65906 0.255137 0.580722
526 8.56151 -2.30185 -7.70521 -2.60753 -2.23379 1.91885
3753 -6.30241 -0.0624414 -7.61717 2.46449 -1.66486 -0.484437
244 -9.11774 -0.532457 -8.41894 1.36547 -0.480453 1.68662
530 -8.27908 -0.677845 -7.80732 -0.087351 -1.41282 0.48033
1485 7.60471 -9.19742 -1.46859 1.42624 -1.91674 -2.02227
1477 4.6754 -9.12885 -1.55742 0.178165 -0.211289 0.0671185
248 -7.60749 -0.802579 -8.51316 -1.47224 -0.419209 -2.578
534 -6.86129 -0.915404 -7.7576 1.37697 0.871111 -3.67472
613 4.67515 -9.15125 -6.10108 -2.82906 -0.755145 -1.82437
251 -5.31937 -1.68511 -8.32324 2.74223 -1.50942 2.14586
252 -6.0956 -0.771186 -8.59103 -1.51774 -0.725584 1.14342
538 -5.50095 -0.824664 -7.86292 -2.96556 -3.76107 0.426144
537 -6.19267 -1.63998 -7.63305 0.0863834 -0.794802 -0.780344
1727 8.3218 -1.66121 -0.659328 0.275312 -0.463183 -0.25
301 -4.56689 -9.05426 -7.61575 1.06917 0.25544 -1.29811
4363 6.99871 0.000319009 -3.77486 -1.48718 0.720782 -3.05124
255 -4.03891 -1.34168 -8.72949 -0.187708 0.547303 1.34605
256 -4.71239 -0.635625 -8.48073 0.475806 -0.777556 -0.767116
541 -4.58084 -1.37046 -7.65469 -0.322116 0.597084 -0.650533
125 1.43269 -6.37196 -9.14622 1.90823 2.04592 -2.01941
329 6.13674 -9.20665 -7.63316 -0.030938 -2.27451 1.73525
891 0.815552 -9.20808 -3.81624 -2.22961 0.826758 0.798577
260 -3.20713 -0.76346 -8.51262 0.413461 -0.0156076 2.33071
897 3.18605 -9.12063 -4.65795 2.10417 3.23733 -2.45759
3463 -6.9479 0.00192101 -8.49485 0.253305 0.743761 1.53495
4339 -2.4214 -0.0279519 -3.9832 -1.82819 -1.08213 -1.78165
41 6.21523 -9.21736 -9.11378 2.93682 -0.37921 -0.0506167
264 -1.44909 -0.695229 -8.59668 0.819318 -1.68565 3.48358
4347 0.621538 0.0193184 -3.85738 0.0322787 3.12775 4.85193
263 -0.856381 -1.47216 -8.50475 -2.1123 0.562772 0.175476
268 0.0288632 -0.692661 -8.46577 0.507026 -0.229549 0.18528
26 0.773417 -8.37509 -9.06032 2.49159 0.787007 -0.418459
267 0.625936 -1.41465 -8.54617 0.716274 -0.595227 -2.08731
272 1.45208 -0.759925 -8.50225 2.05385 -0.191748 0.20333
181 4.31546 -4.61794 -9.11591 -1.69563 0.8664 -4.91436
4943 8.47552 -0.192971 -0.905031 2.41318 -0.884574 -2.12701
4365 7.77097 -0.252478 -4.5433 0.829722 -1.43404 0.579172
276 2.98652 -0.829896 -8.49887 -1.16912 0.772537 1.59788
3779 3.84842 -0.0355429 -6.81171 1.59771 0.907171 -0.725789
4927 2.28617 -0.117121 -0.72818 1.46497 -1.24369 0.382745
1691 -5.30446 -1.54892 -0.803155 1.79404 1.24139 -0.878183
280 4.60346 -0.678933 -8.33577 -1.3331 -3.01125 0.0064425
562 3.81997 -0.727081 -7.67424 -2.64544 0.66325 0.966443
254 -3.86219 -0.537376 -9.24474 -0.32357 0.507867 -2.81646
2 -8.46387 -8.44652 -9.23989 1.07773 0.0594014 -2.58737
1723 6.8354 -1.68644 -0.934141 -0.845143 0.394866 -0.423094
279 5.37574 -1.44733 -8.55961 -0.323357 1.98894 -0.013362
284 6.18361 -0.728819 -8.55533 -0.586162 -0.330292 -0.158874
566 5.50664 -0.764587 -7.82548 1.01242 0.58207 0.931201
288 7.6397 -0.905162 -8.52022 0.247636 -0.69062 0.912733
570 6.83961 -0.787969 -7.73155 3.79816 1.01783 0.530464
3467 -5.4218 -0.0222648 -8.59381 1.68156 -0.00896427 1.62555
287 8.56554 -1.64371 -8.41624 5.45722 0.784564 1.97782
62 -3.65938 -6.7584 -9.11507 2.16007 -2.02762 -1.0934
290 -8.25151 -8.48323 -7.74059 0.783897 2.87148 0.699231
292 -9.06627 -8.36413 -7.06136 -0.264952 -1.73999 1.91883
578 -8.50682 -8.30849 -6.2943 0.378865 1.54031 -0.0723286
4645 4.65982 -0.0507101 -3.05653 -0.556658 -0.176305 1.14324
296 -7.39107 -8.32013 -6.9897 -0.388447 0.114267 1.64378
582 -6.67153 -8.51935 -6.23117 2.08156 -2.17638 1.00655
300 -5.96257 -8.6418 -7.01405 -0.098741 1.99165 -2.18227
587 -5.3623 -9.09214 -5.33502 -3.42267 0.825778 0.355942
304 -4.63262 -8.45628 -6.90645 -0.121053 -2.88754 -1.78536
590 -3.84932 -8.45724 -6.02389 0.479362 -1.20921 1.30647
351 -3.8271 -7.88364 -6.84811 1.20567 -1.73937 -0.416066
308 -3.14694 -8.50294 -6.76114 1.64515 -0.853464 -0.216351
355 -2.31921 -7.79463 -6.66208 -0.630051 1.84379 -1.59892
594 -2.33605 -8.5537 -5.91961 0.530808 -1.22411 -2.07213
4941 7.66262 -0.0369986 -1.70145 0.450713 1.12451 1.01358
312 -1.48426 -8.66315 -6.88723 -0.0581101 -1.48405 -1.10312
645 -1.54827 -7.73744 -6.16379 1.08781 -0.015885 -3.58364
359 -0.796072 -7.92852 -6.66523 0.196581 -0.0683858 1.19451
598 -0.746403 -8.58286 -5.97481 0.0978818 0.465792 -1.38773
316 0.00865869 -8.71997 -6.92875 1.70813 0.725793 -0.403681
602 0.741769 -8.54463 -6.21593 -1.22771 -0.15247 3.28906
1926 -6.75159 -2.36059 -0.26704 2.78208 -1.55137 -0.392632
1449 -6.06227 -9.16232 -1.66884 2.45583 2.48399 -2.55543
320 1.4282 -8.44191 -7.00289 -0.04644 -2.85645 -0.828055
129 2.9751 -6.19588 -9.25888 1.40456 0.603585 -2.93412
4057 -0.13761 -0.16019 -6.03762 -1.5092 -0.704745 0.117268
324 2.98099 -8.61227 -7.11624 -0.211588 0.305695 -0.707342
606 2.23057 -8.57766 -6.43456 1.07588 -1.95834 0.83131
328 4.5966 -8.39346 -7.00368 3.06458 -1.97687 0.239504
610 3.92314 -8.40271 -6.29941 -0.290165 -2.36097 -1.24891
6 -6.64568 -8.46024 -9.19374 0.598948 -1.6242 0.47826
332 6.25601 -8.46491 -6.89444 -0.557164 -0.608278 1.43365
614 5.47466 -8.33616 -6.14995 -1.81237 -2.95423 -1.41173
78 2.21965 -7.0602 -9.09458 3.03927 -3.74442 -0.78121
336 7.59009 -8.41244 -7.0057 0.129848 1.38496 -0.641631
3771 0.64001 -0.234631 -6.6953 3.60991 1.94143 -0.959125
334 8.49303 -8.68104 -7.74011 -0.0195585 -0.845912 -2.05324
622 8.4706 -8.39628 -6.40348 1.70643 -1.07955 -1.8328
625 -9.16765 -7.4558 -6.51627 2.05292 0.93206 1.19706
339 -8.28553 -7.63815 -6.99005 0.768187 -3.41764 -1.06952
387 -8.40502 -5.8935 -6.87138 1.28277 2.45894 1.92878
343 -6.82134 -7.37906 -7.00759 -0.897507 -1.58048 3.20432
344 -7.6373 -6.60229 -6.97086 0.0807098 0.575604 -1.08804
629 -7.55237 -7.59862 -6.25185 -0.310079 -0.0334477 -0.519334
677 -7.6273 -5.96118 -6.18344 1.03701 0.859919 0.110081
347 -5.5013 -7.78884 -6.88307 0.806315 0.713981 0.845102
348 -6.00967 -6.69593 -6.99229 0.396882 -0.214881 -1.32529
634 -5.3254 -6.90077 -6.1872 -1.50581 1.57713 3.2998
349 -4.61615 -7.63718 -7.45794 0.484971 -0.589663 -1.35403
352 -4.56961 -6.8326 -6.96438 -0.10224 -3.27622 1.37609
637 -4.60186 -7.69053 -6.26465 -0.190469 3.33649 -0.91723
638 -3.87912 -7.00222 -6.33957 -0.686722 0.436912 0.496619
356 -2.83812 -6.88034 -6.83721 0.410927 0.849369 -0.603041
642 -2.2824 -6.93891 -6.01714 -0.42929 1.24615 -1.72844
641 -3.13062 -7.68272 -6.10363 -2.53795 1.6574 1.34758
360 -1.45202 -6.99577 -6.88075 1.5004 0.617657 0.675963
646 -0.742884 -6.93077 -5.95808 -1.39254 -0.508701 1.59742
363 0.780317 -7.69193 -6.74548 -1.52049 -1.43942 1.23691
364 0.0544194 -6.90413 -6.66974 2.02444 -3.16764 0.103651
411 0.611283 -6.12128 -6.82083 1.11394 3.42637 -0.064972
649 -0.0252942 -7.8102 -6.05677 1.57434 1.24842 1.36422
650 0.887997 -6.88899 -6.13371 0.193881 -0.768295 -3.4779
368 1.61342 -7.02184 -6.7107 2.18153 0.824528 -1.86467
701 1.60623 -6.03037 -5.94684 0.591427 -1.34662 -2.01124
653 1.62971 -7.83627 -6.24348 1.74145 0.652059 1.8249
367 2.41477 -7.78785 -7.13317 1.15457 -2.17406 -0.0744019
372 3.01968 -6.9546 -6.99317 0.96075 -0.361921 0.687217
415 2.28055 -6.17868 -6.70078 -0.151463 -0.840742 0.749053
657 2.95806 -7.82773 -6.22246 -1.45871 -0.518623 -1.18378
373 4.47635 -7.69527 -7.73625 -0.112821 2.34485 -0.305126
371 3.7355 -7.62165 -6.87727 -1.47656 2.64891 2.05186
376 4.62819 -6.89686 -6.87461 1.84595 1.1696 -1.72286
419 3.68786 -5.93727 -6.87466 -1.52249 0.67732 -0.396429
661 4.6716 -7.72061 -6.22234 -1.51892 2.89664 1.70321
709 4.67875 -6.11382 -6.11616 -4.10204 0.896174 -0.290828
658 3.79606 -6.81415 -6.26569 0.792057 0.208709 0.469307
375 5.39486 -7.66452 -6.85992 1.78148 3.40734 -0.423922
380 5.97405 -6.90507 -6.89743 0.791523 0.700399 -0.580157
423 5.2925 -6.15494 -6.87106 -0.50715 1.31008 0.521088
662 5.33774 -6.761 -6.07928 -0.802177 1.69789 -1.0929
379 6.91501 -7.69577 -7.09165 -0.23836 0.834906 -1.03346
378 6.90191 -6.83051 -7.57171 -0.738708 -0.958213 -1.93929
384 7.6966 -6.62752 -7.05905 1.9828 0.425258 -0.159694
669 7.73381 -7.56918 -6.25825 -1.14818 0.322247 0.536765
382 8.38026 -6.75998 -7.91779 2.94574 0.643593 -2.30544
337 -9.21412 -7.53077 -7.71935 0.761622 2.1298 0.155169
383 8.43744 -7.5864 -7.08812 -2.754 -1.42139 0.450687
340 -9.05865 -6.63682 -7.07245 -2.30193 1.05545 -0.881613
389 -7.63738 -5.90508 -7.76565 -2.04441 1.5025 -0.701525
388 -9.12314 -5.29098 -7.13596 -0.989066 0.876179 2.79954
674 -8.49976 -5.23321 -6.08017 -0.357532 2.47713 2.16072
673 -9.09416 -5.95015 -6.24281 -2.34349 1.53277 -0.170936
391 -6.76898 -6.06808 -6.92686 -1.98788 3.85664 -1.47827
392 -7.5095 -5.35435 -7.08764 0.166704 -3.66322 -4.04315
678 -6.75827 -5.33132 -6.25594 -2.78357 1.18183 0.151157
395 -5.19517 -6.12242 -7.19386 -0.423092 3.07278 1.71407
394 -5.31326 -5.14686 -7.77164 0.0898114 -0.810467 0.267541
396 -5.9731 -5.39627 -6.9785 -0.0870435 -0.529826 0.788997
398 -3.70944 -5.27906 -7.68529 1.35722 -0.220502 0.373961
397 -4.40681 -6.14061 -7.69971 1.8998 0.769036 0.673297
399 -3.73912 -6.09287 -6.83173 0.934993 -1.54261 -1.18373
400 -4.5195 -5.43971 -7.04482 -1.04082 -0.0511117 -1.2046
685 -4.74015 -6.02167 -6.19486 -2.38796 -1.03588 -2.2412
686 -3.86021 -5.53721 -6.04072 0.324704 0.0692046 1.33539
401 -2.90289 -6.09882 -7.64356 2.39002 -0.0580701 -0.239524
403 -2.1341 -6.21592 -6.76537 -0.450123 -2.74694 0.40808
404 -2.9878 -5.55558 -6.64042 -1.62313 -1.08483 -0.586256
689 -2.97529 -6.26153 -6.07729 0.00357751 -2.32857 0.64901
690 -2.16422 -5.3196 -6.08209 -0.440456 -0.565192 -1.46547
408 -1.62003 -5.42005 -6.88312 0.372974 0.764966 1.29425
407 -0.720953 -6.16116 -6.93571 0.736851 -1.21242 -1.55294
693 -1.43291 -6.11496 -5.96648 -0.789712 4.12223 0.637243
694 -0.807388 -5.37316 -6.0829 -1.33038 0.745657 -0.655202
412 0.052073 -5.28128 -6.73545 -0.092872 0.0555021 -0.463101
697 -0.202912 -6.04733 -6.12013 -0.746874 -0.0670926 -0.15998
416 1.46412 -5.43073 -6.73719 -2.01226 1.0095 0.374808
749 1.47223 -4.50899 -6.10264 0.120935 3.01621 -2.53709
414 2.17087 -5.16113 -7.70048 -1.22065 -0.398084 -1.55839
705 3.13436 -6.10971 -6.10737 -1.8153 0.281903 -0.567683
420 2.92875 -5.33613 -6.86037 0.0608239 0.99487 1.10471
465 3.02857 -4.61459 -7.67099 -1.50799 -1.39325 -0.05759
702 2.34025 -5.32316 -6.1404 0.233652 0.507407 0.00936788
753 3.10317 -4.60072 -6.10997 0.945829 0.940184 -1.88901
424 4.45866 -5.16226 -7.01718 -0.34031 -1.27484 0.044797
467 3.63448 -4.48869 -6.85043 0.745426 0.00934788 -0.446512
706 3.84018 -5.28472 -6.16775 -2.86491 1.4536 0.369179
757 4.57063 -4.72476 -6.16854 -0.729602 -0.673545 -1.64324
425 6.04881 -6.21305 -7.55102 0.0524565 0.0126685 0.40765
428 5.79924 -5.36683 -7.0598 -0.273811 2.23922 -0.0521323
471 5.23231 -4.41657 -7.01821 1.69183 -1.03206 -1.24465
713 6.1525 -6.15707 -6.22317 -1.39751 -1.05116 -1.38277
710 5.35454 -5.26367 -6.09882 1.72895 -0.534683 -0.00743729
427 6.84749 -5.92659 -6.85381 -0.493873 0.898649 2.34811
475 6.91024 -4.66334 -6.99937 0.52924 -0.747931 -0.173292
714 6.76284 -5.35124 -6.11512 -0.721327 -0.534373 2.21826
432 7.74758 -5.396 -7.06908 -1.52746 1.16817 2.98639
431 8.61014 -6.1116 -7.09894 0.42397 0.918385 0.101207
479 8.57584 -4.68909 -6.94864 -0.971219 -2.74486 2.51385
435 -8.34959 -4.63447 -6.89806 -1.24506 -0.617823 0.0193781
436 -9.159 -3.87571 -7.13307 -1.10697 0.316453 0.942136
440 -7.71917 -3.92074 -6.92692 2.28137 0.00713205 3.20377
438 -6.89138 -3.87534 -7.64306 -0.72392 -1.88356 0.175626
439 -6.83723 -4.67899 -7.12704 -2.98656 -0.981539 4.08605
725 -7.60733 -4.67573 -6.1399 -1.27664 -1.00312 -0.373788
443 -5.33457 -4.52584 -6.89898 0.301804 2.02363 -3.27271
444 -6.15473 -3.96907 -6.89083 -1.65907 0.691056 1.0215
730 -5.34313 -3.9051 -6.12536 -0.015973 0.366955 2.01021
491 -5.43627 -3.31208 -6.91828 1.71355 0.859573 0.0595067
445 -4.47364 -4.61599 -7.70645 1.28224 -0.491787 0.289844
447 -3.51156 -4.7181 -6.89737 1.2017 2.49072 -0.637948
448 -4.59101 -3.81078 -6.91526 1.17023 -1.24321 -1.21151
495 -3.90359 -3.09157 -6.97703 -1.31248 -0.72506 3.70228
734 -3.56303 -3.87141 -6.37233 0.612061 3.49092 -1.51405
451 -2.26423 -4.52889 -6.92687 -1.17807 0.807479 0.593774
452 -3.1876 -3.75601 -7.2059 3.1955 0.722753 -0.229633
737 -2.9121 -4.73446 -6.11586 0.0251448 0.825437 -0.231357
785 -3.20291 -3.0037 -6.19774 -1.46237 1.38992 0.276558
455 -0.739508 -4.70222 -6.79916 0.745038 -0.352176 -0.900217
456 -1.7282 -3.67924 -7.07093 -1.0812 -1.54006 2.41165
789 -1.64115 -3.02087 -6.21995 3.09818 0.420653 -2.09908
505 0.0534529 -3.01852 -7.54177 0.568227 0.17627 0.863365
460 0.166162 -3.76957 -6.91567 1.37357 0.0165541 -0.664319
742 -0.738125 -3.83925 -6.19198 -1.55449 1.04156 -1.92051
745 -0.096342 -4.5167 -6.03724 -2.52969 -1.31108 0.38071
461 1.46649 -4.57919 -7.60651 -1.55551 0.528846 0.288898
459 0.822861 -4.49147 -6.8206 -0.00125587 1.99735 0.0615559
464 1.59963 -3.89154 -6.88193 1.95941 0.117955 0.333697
463 2.47051 -4.43395 -6.92296 -1.06334 0.270841 -0.587825
468 2.93126 -3.47438 -7.09361 -2.25015 -0.332456 -0.661134
511 2.17458 -2.90794 -6.73875 5.3192 -0.587938 -1.20542
750 2.18795 -3.84857 -6.12531 -0.600209 -1.88607 1.08352
801 2.99299 -3.24917 -6.20273 -2.71756 1.79484 0.173924
517 4.4865 -2.86433 -7.76624 -1.2406 -1.03631 2.27261
472 4.55957 -3.54725 -6.97665 -0.450719 0.521284 2.17336
515 3.83541 -2.90785 -7.02892 -0.32078 1.6253 1.59439
754 3.96427 -3.77326 -6.18014 -2.21274 -0.375902 1.29656
476 5.99031 -3.67585 -7.05112 3.55771 -0.0607132 -0.256704
809 6.22619 -3.03479 -6.01673 -0.635214 -1.59724 1.88194
758 5.40786 -3.73068 -6.18966 -1.92081 -1.24367 0.0880739
762 7.0187 -3.88259 -6.23754 1.84309 -0.106547 0.458474
525 7.65432 -2.89876 -7.6778 1.50717 0.461776 1.28742
480 7.65786 -3.91068 -7.12509 -0.456099 -0.374873 -1.59885
766 8.23873 -3.91099 -6.26711 2.13194 0.411932 3.14305
813 7.71791 -3.07542 -6.23827 -0.502259 0.267482 -0.94288
483 -8.37474 -3.26943 -6.96432 -2.5983 0.828199 -0.13715
529 -8.89505 -1.46063 -7.72897 1.13967 0.56548 -0.0456776
484 -8.96202 -2.41357 -7.02899 -0.0997949 -1.57701 -0.94721
486 -6.81771 -2.51774 -7.69687 0.157055 -1.51071 0.271793
487 -6.93055 -3.12234 -6.95033 1.4827 0.21652 1.12469
488 -7.87566 -2.46192 -7.07424 -2.07478 -0.742503 -1.99659
774 -6.95963 -2.44975 -6.07206 1.13641 0.10839 0.0599784
489 -6.00419 -3.39941 -7.68513 2.28878 4.14342 2.40538
490 -5.24485 -2.56488 -7.55744 -1.25278 -2.17076 0.120972
492 -6.15018 -2.44546 -6.95204 0.898294 -1.39286 2.66967
777 -6.13072 -3.13998 -6.01569 -0.178986 0.874556 0.549451
496 -4.67198 -2.49684 -6.79084 0.519233 -1.26112 0.166959
499 -2.58193 -3.11183 -6.96184 0.827097 -0.94077 -5.35108
545 -3.45414 -1.50453 -7.80844 -0.575521 -0.887594 -2.12969
500 -3.1385 -2.25941 -7.03395 -0.577504 3.84777 2.56034
786 -2.50768 -2.27321 -6.26976 3.30923 1.37367 -0.721067
547 -2.28717 -1.60764 -7.02308 -0.928019 1.48252 -0.198757
549 -1.5983 -1.62495 -7.7843 1.0459 -3.16369 -1.36598
503 -0.805996 -3.03209 -6.88002 -0.0166551 2.90033 0.436423
504 -1.54814 -2.38504 -7.01378 1.90814 -1.75701 1.24735
508 0.0354108 -2.14737 -6.88858 0.911167 1.57201 1.32028
793 -0.0490916 -2.98981 -6.16344 0.0336128 -1.00559 -0.0631027
507 0.932016 -3.0946 -6.83173 2.56108 2.22528 0.109765
506 0.687048 -2.11173 -7.73053 -0.615706 2.00677 -1.81677
794 0.761854 -2.19449 -6.18186 -0.764533 -1.10413 0.41182
512 1.41559 -2.27923 -6.85533 0.976516 -2.11842 0.781125
555 0.725585 -1.30278 -6.80394 3.24476 -0.922349 0.453576
797 1.5049 -2.97116 -6.04768 1.29289 -1.13208 1.87916
516 3.14136 -2.20958 -6.81321 -1.03192 0.438083 1.66413
559 2.11668 -1.39178 -6.96161 0.16965 -2.85636 0.241626
798 2.17528 -2.0704 -6.23059 0.207019 1.50555 -0.236621