ITEM: TIMESTEP
189000
ITEM: NUMBER OF ATOMS
6912
ITEM: BOX BOUNDS pp pp pp
-9.2265715179435492e+00 9.2265715179435492e+00
-9.2265715179435492e+00 9.2265715179435492e+00
-9.2265715179435492e+00 9.2265715179435492e+00
ITEM: ATOMS id x y z vx vy vz
55 -8.19302 -7.70359 -8.60855 -4.43139 1.29476 0.835224
293 -7.63621 -8.20052 -7.86792 0.415393 -2.82963 0.976739
624 -8.83454 -8.61706 -8.08133 -0.16523 -0.308177 1.61386
4158 3.73089 -0.0132771 -7.00791 -1.03046 0.619 -1.89066
10 -5.84263 -8.38366 -8.39026 0.465598 -2.19261 -2.2462
4412 7.04317 -0.204623 -4.93371 0.568413 -0.276842 0.0923955
5146 -7.79365 -9.22604 -1.54133 1.34769 -0.0483595 2.05227
3228 -5.57272 -8.35848 -7.34244 3.58494 3.14971 -0.684474
298 -4.86503 -8.01449 -8.37424 0.595169 -0.276355 -0.108876
3709 -3.63182 -8.36947 -8.09708 0.0524276 -0.202399 -0.990023
2948 -4.28354 -7.54779 -9.10834 -1.69763 1.69991 -2.57884
3276 -6.28046 -4.85373 -9.00557 0.217386 -1.63961 1.8633
16 -4.40672 -8.92458 -7.80458 0.870631 0.178223 1.81104
3236 -2.75763 -7.91793 -9.06357 0.938357 0.538377 -0.403475
3187 -1.9187 -8.54587 -8.95966 -0.341794 -2.26174 1.87987
353 -2.32761 -8.08862 -8.11782 0.529995 0.515554 -2.65951
1171 -2.02428 -4.16891 -0.0753841 -0.161404 0.621666 -0.449099
429 -9.11322 -8.76541 -9.16671 2.50356 -0.439267 1.89417
311 -1.3573 -8.67598 -7.88839 2.91422 -0.900203 1.11786
3715 -0.560499 -8.0083 -7.90502 0.494751 2.33997 2.59311
814 8.65915 -0.139928 -5.51362 -2.34331 -0.767397 -2.33484
124 -0.24939 -3.67406 -8.84112 2.63274 -0.845012 3.32367
3720 0.812573 -8.328 -8.97555 -1.46471 2.5804 0.682083
23 -0.520656 -8.52165 -8.76986 1.17195 -0.937397 0.853014
82 1.65364 -8.12156 -7.95961 2.18204 -2.61558 -0.56582
75 1.66086 -8.78113 -8.70581 -1.03478 -0.0569923 0.936682
316 1.37684 -7.51371 -8.90088 1.42394 0.424954 0.781628
361 2.25422 -7.98472 -8.75434 2.15352 1.10344 2.40427
1727 8.70311 -0.273098 -0.316907 -0.486004 -0.118361 -1.8691
661 2.97388 -6.98595 -8.33249 1.76281 3.079 -0.591536
28 3.26712 -8.65564 -7.76206 1.57044 -1.09234 -0.725896
39 3.31405 -8.14203 -8.67059 1.95545 -1.95141 -0.359782
3704 -8.07174 -9.02107 -7.84313 -0.396284 0.788745 2.23612
654 4.28947 -8.13912 -8.48532 1.66245 -0.934111 -0.73264
86 4.94146 -7.64531 -9.12587 0.517825 -1.41915 -3.20609
4564 -8.6258 -8.89695 -5.11549 -1.00285 2.23901 0.431087
961 5.85993 -8.30638 -7.53988 -3.56765 0.642347 -2.96608
87 5.63296 -8.79724 -8.58829 -0.544795 0.746092 1.12945
1683 8.6752 -1.58087 -0.917942 1.02146 2.41645 -0.30275
91 6.48759 -7.60533 -7.74644 -1.16696 -0.481929 2.09947
4030 6.7554 -8.4764 -8.11871 -2.56848 0.217445 -2.07647
289 7.49156 -7.83544 -7.85836 1.61728 3.0994 -1.76888
4 7.06564 -7.71979 -8.75187 -0.556813 0.534714 -0.982687
5403 0.754213 -8.88142 -0.525524 0.625927 -1.17547 1.56032
3988 7.45138 -8.94446 -8.55094 1.05381 -3.35731 0.237104
628 8.34429 -8.38724 -8.1569 0.272272 1.72559 -2.63798
719 9.16247 -7.98383 -8.61135 0.210928 2.61814 3.68915
255 -3.16345 -0.996896 -9.22683 1.53446 0.349022 -1.51885
46 -8.66614 -7.12027 -8.09837 1.41878 0.768178 0.347755
3315 -7.88924 -6.80125 -8.89821 -0.810467 3.21392 -1.04102
1088 0.432667 -0.264035 -2.47723 -1.17062 0.671001 0.649202
344 -7.28352 -7.32768 -8.31164 -0.332726 1.09968 -2.96415
3180 -6.4797 -6.60629 -8.30843 1.53463 -0.835668 1.3891
3267 -7.77937 -6.59607 -7.84165 -0.347767 0.570775 -1.93797
5 -6.92943 -8.55068 -8.62952 1.07215 3.9681 -0.485589
1183 0.0596564 -7.90222 -0.0605011 -0.444035 0.759917 0.477727
294 -6.54716 -7.71341 -9.01863 -0.426702 -2.79958 -0.652183
12 -5.04122 -6.93366 -8.78617 1.0263 -1.18162 -1.88715
2940 -5.73977 -7.31228 -8.06962 0.715728 -0.595411 -0.796072
107 -4.04005 -7.47302 -8.04259 1.61186 0.41076 2.44517
1600 -6.12892 -0.29123 -0.525895 1.94574 0.14177 1.84578
401 -3.49916 -7.13215 -8.84066 -2.06903 -1.8954 0.485936
352 -4.15824 -6.41035 -8.76006 1.06427 -0.0935173 -1.15034
2164 -8.87277 -4.69392 -0.261246 1.06288 -0.7449 1.46213
402 -3.06854 -6.35476 -8.52112 0.455718 0.920272 -0.294911
115 -2.8172 -6.43579 -7.5106 -1.06806 4.26489 2.20272
734 -3.1109 -7.43398 -8.01737 -0.356743 -1.55111 -0.819398
3711 -2.32658 -7.18053 -8.55948 -1.65393 -0.0716041 1.96182
71 -1.37481 -6.50254 -9.03544 1.60821 0.780493 -0.729915
3239 -1.37183 -7.7255 -8.77082 -0.253099 0.0812234 0.360565
696 0.466231 -6.9686 -7.43138 -1.0709 0.315774 -1.71044
462 -0.598114 -5.97903 -8.47968 -2.25623 1.248 0.826587
406 -0.0503683 -7.72697 -8.75593 0.865354 -2.98885 2.18547
3287 0.209763 -5.8455 -8.97805 -0.144604 -1.33135 1.57095
359 0.598889 -6.78692 -8.66204 1.11348 -2.07604 0.517117
418 1.97088 -7.0963 -8.33488 1.68796 -1.06579 1.47973
78 0.785438 -7.80887 -8.14856 -1.05287 -0.545515 -0.679311
365 1.36369 -6.30545 -8.1783 2.80933 0.917432 -0.398127
3256 2.3294 -6.22714 -8.54954 -1.57464 -0.00342691 0.0869581
703 1.83818 -5.41906 -8.96911 0.400054 2.58524 5.08505
2964 3.47335 -6.27418 -8.64935 0.862183 -1.07664 0.230894
35 4.19346 -7.04064 -8.65021 0.120152 0.509219 -2.62415
469 3.84214 -6.27076 -7.75227 1.33474 -1.11039 -1.6973
3260 4.63567 -7.21456 -7.77898 2.37491 -3.62522 -1.88063
3299 5.2708 -6.99238 -8.52597 -0.0506845 0.16837 -1.63384
3258 5.94531 -7.68196 -8.5791 2.83472 -1.65432 2.24586
88 5.60588 -7.21342 -7.65596 -0.656701 2.60321 -0.670603
1407 -1.4612 -0.0107827 -2.42863 1.13281 0.698037 0.317785
430 6.78108 -6.66682 -8.54076 -0.740344 -0.864863 -0.0962161
1006 8.0329 -6.16594 -7.72749 2.9536 4.11628 -0.804297
666 8.43822 -7.44949 -8.24058 -3.65818 -0.50701 -0.312828
3219 8.88535 -6.7189 -8.68895 -2.65952 -0.424195 -2.91771
425 7.74019 -6.61094 -8.51547 -0.367172 2.6071 -1.20711
437 -8.75192 -6.13591 -8.80302 -1.92151 -0.808705 -1.48606
384 -9.20748 -6.2825 -7.95655 -1.26898 -4.71465 0.295107
3032 -8.24788 -5.72052 -7.9764 -0.126803 0.100483 -2.1615
3361 9.2078 -5.11458 -8.48588 0.0167128 -2.19921 1.89838
200 -8.38778 -4.83561 -8.27172 0.509401 0.298709 1.90673
153 -7.52502 -4.66477 -8.78821 1.31023 -1.74936 0.0950064
108 -7.43428 -6.02561 -8.45514 -2.13823 -0.550895 0.640691
201 -6.70292 -5.30182 -8.24556 0.0969052 -0.192333 -0.226024
346 -4.88722 -5.76746 -8.76104 2.63422 0.273869 -0.27968
103 -5.78185 -4.9868 -8.13643 0.00266852 -0.958517 0.164214
630 -4.86794 -6.02172 -7.67935 2.93393 -0.664178 -0.135536
441 -5.431 -5.35913 -7.20227 -0.472396 0.346275 -1.17674
3331 -4.7693 -4.96946 -7.91851 0.0292534 0.95102 -0.677765
690 -3.98438 -5.62999 -8.06653 -3.22119 -0.377451 0.660037
164 -4.22617 -4.73511 -8.72648 -1.33106 2.15192 -2.76117
545 -3.89784 -4.75137 -7.56952 -0.0381157 0.410508 -2.09448
453 -2.4948 -5.54286 -7.92717 -3.28996 3.56248 0.305126
68 -2.05588 -4.7985 -8.41096 -2.22245 -1.95533 3.15375
870 -5.337 -9.16817 -6.01009 2.87523 1.10233 1.86448
5147 -5.17898 -8.26194 -0.0473413 0.0511478 -0.235887 -0.798208
403 -1.39382 -5.47416 -9.02674 -0.193789 1.73458 -0.477415
4975 3.60235 -1.04468 -0.362579 -0.256239 0.577414 -0.181908
451 -1.35766 -4.14531 -7.97711 2.41088 0.469835 1.34004
697 -0.833735 -4.93285 -8.22185 -0.163506 1.48246 -1.44061
699 -1.13 -4.1709 -8.90534 0.995482 -0.535666 0.57459
880 -4.84481 -8.53997 -5.54588 -0.141679 -0.449693 -4.09942
70 -0.111321 -4.70529 -9.07665 0.332609 0.549183 0.275877
993 1.13378 -5.44299 -7.74311 -1.51418 -0.263885 1.50204
3466 -5.64826 -0.342166 -8.54223 -2.63302 1.83649 1.59006
651 2.03237 -5.21914 -8.02947 0.316341 -0.540107 -0.655138
362 0.818221 -5.05321 -8.98612 -0.48917 1.36307 0.34134
757 2.89183 -5.45356 -8.58071 -0.019321 -0.32372 -1.74069
370 3.76839 -5.39575 -7.78361 -2.7508 1.5156 -1.17653
5182 7.21922 -9.0355 -1.39861 -1.92096 0.445963 -0.421067
131 4.48029 -6.12794 -8.53736 -0.334861 1.75 -1.38405
183 4.12148 -5.29354 -8.78016 3.14343 -2.87437 0.539481
355 -2.41003 -5.8769 -9.206 -0.0662234 -0.418668 -0.765945
136 5.26128 -5.55584 -8.57397 -0.850125 0.594622 2.54561
137 5.8526 -6.35183 -8.29435 -2.06557 -0.866795 1.76879
191 5.71626 -4.76651 -8.7665 -1.79345 0.0690476 -2.22594
156 -8.33315 -2.9417 -8.88559 0.164416 -1.42168 4.22563
422 6.29375 -5.64279 -8.83668 -1.85219 -1.00088 1.06596
139 6.61903 -5.00067 -8.24439 1.41397 3.1189 -1.7827
193 7.55655 -5.09732 -7.45997 -4.10033 1.84093 0.207969
3272 8.60561 -5.75896 -8.59305 2.2196 -0.224469 3.70658
148 7.52605 -4.48825 -8.38071 -0.0383272 -1.38899 -1.74531
440 -7.9449 -3.7232 -8.38966 -1.41472 -2.24895 3.18388
722 -8.82476 -3.98315 -8.23202 1.07474 -1.78856 0.999617
4875 -0.92883 -9.15398 -3.72564 -0.922331 3.24634 1.6868
434 -8.50716 -3.0983 -7.63789 -2.0935 -2.03241 1.33307
681 -7.28671 -4.38281 -7.83853 0.691401 -3.96881 1.68282
157 -7.46091 -2.80975 -8.11253 1.38576 1.02574 2.10389
491 -6.77497 -3.49407 -7.74813 -1.12613 -1.75875 1.08151
3327 -7.04646 -3.55966 -8.70529 0.155935 -0.817454 2.46631
410 1.56887 -6.55345 -9.17031 -3.79656 -0.0605777 -0.879709
3269 -6.43357 -4.17173 -8.39756 -1.72157 0.626013 1.72674
159 -5.41893 -4.01625 -7.82672 0.227272 -0.146143 0.305255
106 -5.89652 -3.38958 -8.60255 -2.24277 1.70325 -1.39713
489 -5.8201 -3.10644 -7.57622 1.33132 0.0410061 -0.840961
398 -4.91454 -4.12004 -8.60119 1.41805 -0.100776 -1.8629
493 -3.96931 -3.81224 -8.11813 -0.269808 0.421501 -0.149835
3375 -4.91428 -3.16908 -8.36454 1.41485 2.16862 0.126844
209 -3.20704 -4.68763 -8.20039 0.297071 -4.44057 -3.18278
165 -2.40836 -4.05988 -7.84927 0.449126 0.106287 -1.58623
113 -2.56074 -4.09193 -8.92812 0.232285 1.75092 -0.168287
552 -3.08737 -3.4059 -8.37397 1.61577 -1.33417 3.64
698 -1.92867 -3.43903 -8.44598 -2.13908 1.62222 1.35047
742 -0.226246 -4.16545 -7.98454 1.37316 -0.607678 -0.0893267
219 0.322898 -5.10147 -8.10717 1.07113 -2.79227 -0.948491
511 -0.0168639 -3.20659 -7.89011 0.741502 -2.38605 1.19476
3344 -0.0452744 -2.39394 -8.69852 -1.10563 -2.86056 -2.511
1605 -2.05499 -6.56965 -0.0851629 2.18602 -0.0795106 -3.09837
553 0.377253 -3.68116 -7.15311 -1.10252 1.77084 0.969541
508 0.540066 -4.1974 -8.75748 1.72592 -0.932813 -1.47285
176 1.39828 -4.59396 -8.3881 -1.2876 1.11271 1.8477
4863 -4.40058 -8.86049 -2.63304 -0.479548 1.50639 -2.78833
3304 2.94009 -4.77159 -7.71222 0.111705 0.725948 2.20238
1911 4.55464 -5.9704 -0.0684624 2.7233 1.68452 1.66915
173 2.39212 -4.52069 -8.59038 -2.13762 3.12043 0.897451
461 3.24149 -3.75852 -8.21582 1.39926 2.5214 0.156862
3249 5.44159 -6.22632 -9.19227 1.6884 0.385994 0.230367
3349 4.20559 -4.0161 -8.60473 1.29572 3.68254 -4.88192
327 3.45011 -8.80501 -6.78753 0.718794 2.1752 0.00230849
182 4.78381 -4.71068 -9.09794 -2.17249 -2.42453 -0.531209
229 5.01911 -3.60304 -8.11168 2.63215 -0.401424 2.19134
144 5.46318 -4.84679 -7.78386 -1.65539 -1.22148 -0.167493
7 -7.91718 -9.17811 -6.82687 1.18513 -0.130909 -2.5536
709 5.63489 -3.79311 -8.85905 0.397118 0.640941 1.58919
815 7.17545 -3.53088 -8.01057 2.30966 -2.87817 2.02492
281 7.44717 -2.56115 -8.52162 -1.113 0.55741 -0.174464
140 6.59087 -4.06995 -8.57852 -0.761551 0.519418 -1.0036
197 9.19155 -3.1696 -8.52781 0.774197 -0.287051 2.83812
2710 -3.51773 -5.36306 -8.79312 1.38594 1.48804 -1.36034
146 8.03479 -3.44537 -8.81468 0.108523 0.467168 -0.353604
192 8.48917 -5.23935 -7.72476 -1.1629 -0.37251 1.85461
5168 -1.7452 -8.73937 -0.919465 2.22219 2.38393 -0.782112
285 -9.03494 -1.58459 -7.73566 -0.170874 -1.66903 -2.07618
241 9.07787 -2.47462 -7.59596 -0.165757 2.52236 1.20593
3366 -8.45316 -2.25973 -8.13021 -0.312903 1.22969 1.4457
655 1.69357 -9.09808 -7.75713 -0.776647 -1.80252 -0.481712
198 -7.63297 -1.76776 -8.85845 2.95429 -1.0791 -0.714094
3802 -7.17097 -1.91333 -8.03605 -0.762219 -1.18596 0.497969
438 -6.54044 -2.6527 -8.21772 0.783473 2.64566 -1.97154
3753 -6.36059 -1.59905 -8.46804 0.879258 -1.27379 -2.62394
154 -5.25734 -2.39293 -9.03977 -0.538042 1.00071 2.07718
538 -5.41198 -2.37018 -8.1435 1.9947 0.124382 -1.88401
206 -3.92048 -2.98319 -8.66615 3.57997 -0.874893 -2.28806
546 -4.50475 -2.17261 -8.50865 -0.474983 -1.47265 -1.60562
3757 -3.62602 -1.81749 -8.95961 -1.43364 1.57516 1.85914
212 -3.74698 -2.03027 -7.82633 0.167988 2.51778 0.934091
6645 -3.06273 -2.38527 -8.35681 1.895 -0.607941 2.99536
3380 -2.37129 -3.0355 -7.66399 -3.19768 -0.0592713 -2.52554
3382 -2.2502 -2.02539 -7.84056 0.584925 -0.249105 2.20328
114 -2.39595 -2.76163 -8.90257 0.595877 0.778759 -3.71534
743 -0.904774 -3.12953 -8.30349 0.584508 0.396525 -0.582098
3427 -1.60227 -2.45665 -8.35823 1.18478 -2.94737 0.600831
3431 -0.325054 -1.40577 -8.61868 2.00005 0.5931 0.663408
3774 -0.893791 -0.729891 -8.02391 -1.77707 -0.499657 0.118455
3384 0.408124 -1.94994 -8.00133 2.22793 -0.178559 -0.0597762
319 2.0484 -8.89985 -5.65899 0.172461 -2.35869 1.37956
4058 -0.61459 -2.0477 -7.79504 -0.226217 3.58547 -1.65518
222 0.755948 -2.75665 -8.31243 3.4116 -1.17834 -1.77911
3383 2.18214 -3.5911 -7.94476 0.124452 -1.50573 1.42432
3343 1.80354 -2.61393 -8.7539 -2.45438 0.411728 0.970258
225 1.54654 -2.82837 -7.7315 1.05289 -1.54256 -0.383542
3435 0.981147 -1.62592 -8.99927 -1.91856 1.59138 0.015807
274 1.36171 -1.53205 -7.8465 1.77913 -0.694853 0.280815
126 3.60473 -2.4005 -8.54275 -3.28088 0.698456 1.84962
559 3.24304 -2.99792 -7.47072 0.611586 0.761733 2.49579
3485 3.06438 -1.59047 -9.13784 0.0548385 1.52095 1.14717
4110 2.81362 -1.86979 -8.15064 0.130557 0.0623989 1.46658
3823 2.19111 -2.21976 -7.5057 -1.40213 -2.32075 0.245481
266 2.75983 -2.82983 -8.48022 -1.07631 2.26188 0.270035
181 4.58072 -2.18748 -8.53883 1.03732 1.2402 1.81805
3352 4.05725 -3.22823 -7.90085 1.65624 -0.622333 -0.235172
270 4.05146 -2.09404 -7.54815 0.972479 -1.13138 -0.717691
3444 3.73322 -1.32698 -8.38148 0.318866 -0.27045 -2.15452
253 -3.50435 -0.420096 -8.28542 2.41586 -0.159381 2.10059
239 5.28176 -2.87813 -8.9754 0.148156 -3.19776 -3.19203
279 5.51611 -1.93402 -7.65409 1.10723 -3.3542 2.29442
3405 4.88983 -2.66237 -7.77193 -3.16206 0.734098 -1.20906
572 5.75853 -2.91135 -8.0721 -1.62035 -2.69846 0.691548
3346 5.45669 -1.98817 -8.59908 2.44244 -1.889 0.927481
3403 7.28496 -1.92645 -7.79978 -0.476695 -1.0003 -0.395541
481 6.08499 -4.07384 -7.73307 1.84056 -1.66088 0.141542
569 6.73944 -2.69724 -7.63764 -1.39185 -0.220649 -1.79312
233 6.50142 -3.04163 -8.64185 0.155463 0.0432067 -0.955059
522 8.3788 -2.47185 -8.91219 1.73256 -2.28386 1.87155
245 -9.1159 -2.20671 -8.76785 -2.42811 -1.29055 0.0824866
482 7.90529 -1.6337 -7.14103 -1.82622 0.284559 0.164344
3404 7.81696 -1.34254 -8.49911 0.490877 -0.46803 -0.0298027
4381 -7.18114 -0.170079 -4.28243 -0.279048 -0.431839 0.0902432
6673 -8.92657 -0.486659 -7.53507 -0.41127 -1.66732 -2.6135
3459 -7.8786 -1.38517 -7.73048 -1.05338 1.70846 1.11849
3414 -8.55063 -1.27134 -8.68225 -3.80205 -1.86132 -0.330974
3462 -7.04049 -0.869462 -8.1674 -0.762679 -1.97731 -0.183808
6348 -8.34146 -0.291741 -8.25841 -0.478882 -0.349913 0.0133053
3413 -7.42373 -0.713047 -9.10957 -0.0783077 0.902728 -1.43272
254 -5.28181 -1.37297 -8.507 -3.13088 -0.451164 -1.12504
3662 -2.40828 -9.06533 -7.96645 -0.0719262 2.29655 -1.07102
4102 0.668367 -0.213683 -5.12191 3.26178 0.359664 -2.37651
4332 -4.98269 -1.28197 -6.8442 -0.933896 2.87938 -2.66205
190 7.55882 -5.54606 -8.48058 -1.47738 0.0741043 -4.6421
250 -4.95341 -0.778663 -7.82311 2.11314 2.01057 0.0595949
5163 1.21581 -8.92071 -1.65404 -1.96328 -0.320555 -0.416266
271 3.50906 -0.211242 -9.08922 1.20859 0.234953 0.143478
3378 -2.42981 -1.67829 -8.72486 0.909029 -1.28505 1.13896
4042 -4.35137 -1.13594 -8.60861 -3.86499 -0.931897 -1.27015
3424 -3.0854 -1.29884 -8.14324 -0.379316 0.0452917 -0.796323
3423 -2.57992 -0.481824 -8.72268 1.4238 0.265017 -0.877456
3436 -1.51583 -0.886544 -9.1051 0.443572 0.355502 -0.381438
3028 -8.80103 -3.79924 -9.22495 -1.21289 -0.908979 -2.37399
142 7.02094 -4.77467 -9.12425 0.967568 -2.22093 -2.07457
3767 -0.574939 -0.465039 -9.07888 -0.284952 -0.378267 1.82904
221 0.411661 -0.892091 -8.10341 -1.00708 2.20691 -1.29354
381 6.67503 -8.62016 -9.11255 -2.27079 0.511678 2.38993
196 5.34477 -0.164542 -8.98797 0.457216 0.980209 -2.36176
3492 1.93995 -0.541412 -8.19957 -0.793337 0.81764 -0.388411
6653 2.03064 -1.42888 -8.63095 2.29019 0.0276284 -0.560154
1877 -7.70429 -2.32606 -0.0882753 -1.25 0.373763 0.811195
6660 2.91553 -0.910449 -8.23332 2.67308 0.441902 -1.12665
1110 -8.79493 -0.138792 -5.25794 -0.670832 2.24385 -0.869306
236 4.645 -1.47246 -7.85464 0.17713 0.877963 0.858366
3490 4.37677 -0.645045 -8.18001 -1.889 -0.614503 -0.0258666
1533 6.77336 -9.0623 -2.35622 -3.60521 0.492097 -0.517187
273 6.14589 -1.22405 -8.91956 2.49389 0.614592 1.42705
280 6.16136 -0.328687 -8.23162 1.4437 -0.266677 -0.214543
389 -6.38525 -8.9413 -7.57893 0.929366 -0.0740457 -0.6826
44 5.11312 -8.93344 -7.59855 1.08356 -1.07426 1.15894
3839 6.31879 -1.27229 -7.88745 0.046076 -0.557969 3.95652
3750 7.16579 -1.08884 -9.06604 2.38687 -0.940963 1.04579
573 7.31615 -0.661497 -8.0355 -1.43359 -0.714179 -1.21954
1993 1.25457 -1.86914 -0.0479243 -0.474692 -0.540599 -1.07602
105 -5.57822 -9.04468 -9.01672 0.170921 -0.975161 -0.4411
3474 -2.52226 -0.0214867 -7.89712 0.882033 0.720035 -1.53447
3749 8.9431 -1.25754 -8.55971 2.05497 -1.07709 -3.47887
536 8.53249 -0.941403 -7.55315 -0.594199 -0.615469 -2.12257
234 7.8851 -0.0779525 -8.52109 -2.21347 0.20146 -0.237524
578 9.10222 -7.76472 -7.54937 2.13712 2.49297 -0.771135
338 -8.43572 -7.92551 -7.40788 -1.3321 1.54923 -1.43257
4280 8.66995 -8.74933 -7.09753 0.72518 0.82851 0.867126
913 -8.73558 -8.9031 -7.01485 -0.375183 2.40605 0.276193
3294 3.48091 -4.6471 -8.66027 -0.124709 -3.30002 2.87032
865 -6.56746 -7.87548 -7.8696 -0.663435 -1.45714 3.65317
202 -6.46377 -2.45349 -9.21161 -4.47832 1.64475 -1.66136
921 -7.18649 -8.62259 -7.14596 -1.74329 -3.29189 4.01597
925 -6.18327 -8.82675 -6.5072 -0.505357 0.101774 -0.79086
640 -4.60041 -8.73788 -6.46846 -0.876661 -0.120787 0.833472
733 -5.44336 -8.24386 -6.37012 1.69136 -2.07069 -0.342398
633 -4.59504 -8.15581 -7.33371 -4.17771 1.46757 -0.289167
347 -3.78289 -8.60682 -6.90872 -0.279743 1.27748 -0.678286
349 -3.29289 -7.65784 -6.19721 0.584209 -3.29487 1.11617
638 -2.88505 -8.61561 -6.24482 0.639302 -0.93026 3.26501
4001 -2.96328 -8.19936 -7.37042 -0.154693 0.295017 0.344856
642 -2.21382 -7.92302 -6.67675 0.419821 1.10865 0.264905
701 -2.21327 -9.00347 -6.84459 1.44589 2.68499 -0.388888
686 -2.41107 -7.31988 -7.43696 -0.787728 -1.49329 1.07806
645 -1.29988 -7.00089 -7.82046 -0.403515 0.323938 1.45353
4242 -1.44643 -7.91328 -7.23266 0.978138 0.0277049 -3.80162
689 -1.50951 -7.11951 -6.59068 -0.884889 0.855602 0.681964
3962 -1.35695 -8.40663 -6.41231 -0.796165 0.481308 -1.83211
607 0.154137 -8.02357 -7.24339 -0.145757 -2.71769 -0.181439
987 -0.503178 -8.67454 -6.58278 -2.41679 -2.44309 0.868566
599 -0.339368 -8.96894 -7.56245 2.02362 -1.4565 -1.43029
3314 -8.09253 -5.51622 -9.04734 -0.907007 -1.99445 0.793531
84 0.802823 -8.77262 -7.34433 -1.54302 -0.524559 -2.17041
3724 1.80873 -7.82528 -6.91711 0.45 -0.175862 -1.3978
4297 0.805763 -7.34128 -6.61923 1.49393 0.461795 -0.0490432
4340 -4.57924 -0.455082 -6.55092 -3.10402 -1.8623 0.106752
318 2.53036 -8.10683 -7.61918 0.200522 0.0771377 -2.28355
172 2.75791 -7.93224 -6.48727 -0.608822 1.33766 2.20235
605 2.40021 -8.8019 -6.77429 1.02274 1.74355 0.571633
3446 6.42464 -2.18697 -8.41223 2.08305 -0.315589 1.96677
133 5.18924 -7.91163 -8.07946 1.01129 2.03809 -1.40377
322 4.24234 -7.96488 -7.15643 -0.262041 -1.06632 -1.96384
374 3.95375 -9.08655 -5.82161 1.51113 -0.770246 0.409809
614 3.76955 -7.57437 -6.19949 -0.953317 -0.7913 2.73536
2009 8.32902 -1.09357 -1.69598 0.343611 0.301992 -1.11282
328 5.59562 -8.75819 -6.65176 -2.88832 3.34167 0.284728
3974 6.72072 -8.54362 -7.13219 1.68729 -0.891413 -1.16154
1435 7.9519 -0.0231815 -3.07354 1.37704 0.811507 2.98305
4317 7.41705 -7.66059 -6.92553 0.202873 3.5421 -1.39908
427 7.7789 -8.49344 -7.29077 0.696401 -1.65463 -1.54384
907 6.79714 -8.61379 -5.98794 0.652452 -0.466869 1.28111
1005 8.75113 -8.46325 -6.21051 -1.72443 1.07849 1.72688
577 8.39803 -7.71005 -6.75572 3.23529 -0.234217 -0.274471
77 0.494102 -9.04606 -6.45083 0.773462 0.903248 0.538121
432 -9.05859 -7.95173 -6.6714 -1.67756 1.87945 1.51473
339 -8.57374 -7.00226 -7.17442 -1.00677 -3.58772 0.955708
964 -8.18677 -7.19502 -6.04489 3.60632 1.66207 0.86447
679 -8.33882 -6.06034 -7.04618 1.21264 0.565082 -0.253075
674 -9.08888 -6.59205 -5.61945 -0.404643 -1.47578 -1.45653
868 -7.65103 -7.41614 -7.19005 2.72573 1.05492 2.89664
629 -6.77826 -7.02505 -7.48572 0.67443 -0.00498122 -2.77937
348 -6.33508 -7.83891 -6.81587 -2.7474 1.58974 -1.50446
345 -5.47513 -7.31432 -7.01407 0.327489 -0.868167 -0.256536
393 -5.83806 -6.46028 -7.3771 -0.368052 1.28719 0.506325
391 -6.32902 -6.80555 -6.61878 0.0381119 2.39939 -0.964393
395 -5.44514 -6.8955 -6.18594 1.29264 0.4571 -1.92617
682 -5.36453 -6.02569 -6.44325 -0.374784 -2.25333 -0.210562
634 -4.80192 -7.08476 -7.66429 0.756031 1.99131 -0.348122
302 -3.78294 -7.61301 -7.15258 2.8212 0.353444 -0.712287
974 -4.43931 -7.54824 -6.39531 0.194374 -1.60519 2.31161
358 -3.81913 -6.53346 -7.80989 -1.3202 -1.07296 0.229434
783 -4.50833 -6.65237 -6.9263 1.01821 -1.02846 -1.51945
310 -2.0232 -6.27243 -8.43749 1.27298 -2.16411 2.99914
1025 -2.51766 -5.8805 -6.79439 0.557789 0.603955 0.742129
305 -3.36914 -6.85826 -6.68172 1.26787 2.15704 3.18997
983 -2.45426 -7.04731 -6.42525 -1.81456 -2.48883 1.89824
354 -0.282815 -7.11747 -7.89264 0.741297 1.43197 2.74402
303 -0.552911 -7.46162 -6.99238 -3.70795 -1.55947 1.18249
404 -1.90688 -6.43004 -7.30695 -2.52285 0.152382 -0.399255
1017 -1.48257 -5.16601 -6.5323 0.00677509 1.19617 3.79661
978 -0.977789 -6.29018 -6.47062 -0.0902048 0.972387 1.66337
656 0.47486 -6.1988 -7.92394 -1.98113 1.20119 -0.799457
76 -0.101923 -6.99282 -6.24982 -3.90786 1.70985 -0.976806
737 -0.00140692 -6.28615 -6.96943 2.02494 1.65983 -1.73909
415 0.725707 -6.49923 -6.27559 -2.29173 -1.89775 0.161456
704 1.44034 -7.19376 -7.53533 -2.57131 -0.478718 1.56556
898 1.97919 -7.97567 -6.00286 2.57623 5.01302 2.56892
417 3.44054 -7.61511 -7.73523 -1.65262 1.44178 -1.27294
944 2.42032 -7.06019 -7.47249 -0.89543 0.319801 0.438733
513 1.90413 -6.90604 -6.63042 0.834672 0.999642 1.39456
1042 2.0808 -6.13802 -7.43998 0.701151 1.12551 0.0433729
378 3.23334 -6.40023 -6.90909 0.598102 -0.948473 0.116655
372 4.18028 -6.1912 -6.86065 2.49823 1.05342 0.449471
89 3.88619 -7.11871 -7.02785 1.4825 -2.14638 -0.34253
95 5.06489 -6.46887 -7.25758 -1.11347 0.147186 1.75356
1048 6.29135 -6.68853 -7.48847 0.401591 -1.17245 -0.533768
371 4.69366 -7.05899 -6.40455 0.223243 -0.796971 1.94657
373 5.26256 -7.79992 -6.9797 3.03309 -0.00780101 1.55344
3734 6.38625 -7.73384 -6.65697 2.06288 -0.913239 1.72609
332 5.62146 -7.03688 -6.275 1.06655 -0.317536 -2.00511
330 7.26402 -6.82573 -7.60188 -0.645876 -1.56785 1.61112
910 6.70452 -6.00454 -6.95597 2.01762 0.813649 1.32497
669 6.8743 -6.84868 -6.44566 1.44658 2.25743 -0.112493
667 7.92296 -6.85697 -6.59275 3.06185 0.0387212 -1.24472
680 8.42518 -6.24637 -5.74978 -0.0069175 -0.425713 3.16791
759 8.62367 -6.89444 -7.44117 -1.13758 0.725716 -0.802097
723 9.1295 -6.99652 -6.58228 1.50948 0.472173 0.151624
388 -9.12763 -6.04911 -6.61545 -0.237915 1.67564 1.705
390 -6.98634 -6.07491 -7.58561 -1.38628 -1.24916 0.144685
771 -9.05081 -5.34459 -7.4218 1.03277 -2.00239 -0.516075
677 -8.24893 -5.28205 -6.49664 -0.0745172 -2.40504 -0.727309
151 -7.3334 -6.14161 -6.70268 -4.12561 -1.1114 -1.87882
155 -7.62334 -5.31093 -7.34144 1.82767 -1.24119 -3.43293
729 -6.72966 -5.15026 -7.17614 -1.67595 -0.238604 0.432251
779 -7.10597 -5.23505 -6.32554 -0.713819 -2.90275 -0.894102
394 -5.84261 -5.86051 -8.0877 0.74284 0.878738 -0.708142
449 -6.23569 -5.85117 -6.81069 -1.15005 -0.534127 2.87048
500 -4.46917 -5.85686 -6.07896 -0.960364 -0.347021 1.80027
405 -4.4089 -5.50325 -6.94791 1.57908 -2.28835 -1.65214
490 -3.29883 -5.63228 -7.27654 0.454659 -0.880174 -2.24996
1069 -3.48503 -5.06346 -6.0726 -1.08017 -2.02424 1.18489
494 -4.75758 -4.84369 -6.14127 1.89943 -1.25854 -3.81294
304 -2.85888 -4.7842 -7.28056 -0.468203 -0.143002 -0.61635
207 -2.4228 -5.06575 -6.38357 -0.414766 -3.72904 1.32417
445 -1.98334 -4.296 -6.94027 2.43875 -0.947179 -0.354123
368 -1.06126 -6.15817 -7.48961 -1.3569 -0.416569 -1.04708
448 -1.81186 -5.25271 -7.39853 -0.0908078 2.72426 -0.625065
360 -0.950295 -4.61643 -7.23714 -1.05709 -0.700053 0.988057
644 -0.550654 -5.39195 -6.55978 -1.35065 -1.93152 -2.5391
495 -1.7848 -4.21976 -6.01426 -1.62872 0.269995 -0.309461
745 -0.0572264 -4.58865 -6.97307 -0.274519 3.12349 -2.53344
652 -0.344106 -5.48747 -7.45663 1.02968 3.006 0.103443
693 0.648741 -5.59686 -6.68526 -0.179121 0.27338 0.466565
175 2.93097 -6.02416 -7.80077 1.4209 -2.38356 1.53547
411 0.930571 -4.45696 -7.15949 0.872887 0.685676 0.527357
746 1.27533 -5.03979 -5.76987 -0.0267649 -2.04612 -0.705712
516 1.45631 -5.97181 -5.9456 -2.50198 3.51114 0.670543
938 1.24646 -6.28649 -7.11836 -0.527935 1.11275 0.465109
753 1.62618 -5.33445 -6.9534 1.18484 0.377033 -2.11551
807 3.38719 -5.32306 -6.84047 2.48209 -1.24548 0.14131
849 2.55587 -5.88176 -6.35887 -0.974321 -1.25215 3.96164
420 3.52607 -6.12733 -6.05079 -1.62917 -1.0057 -0.352343
468 4.76539 -5.70732 -7.76431 2.759 -0.899503 1.43652
135 4.36072 -6.32368 -5.85713 -1.78455 1.93934 -0.797097
187 4.87659 -5.73436 -6.46031 -0.146713 -2.49195 0.43999
424 3.36183 -4.49558 -6.37556 0.0258187 0.120486 0.316356
127 5.80222 -5.65245 -7.70573 -0.212335 1.25951 -1.2179
3300 5.77599 -5.97462 -6.69555 3.41665 -2.74202 -2.18668
1050 5.57225 -5.02298 -6.76325 1.18673 0.0235094 -1.11759
423 6.37393 -5.01213 -7.28446 0.546673 2.01416 -0.15246
710 6.351 -5.19404 -6.17364 1.04719 -1.66043 -2.141
474 7.077 -4.21253 -7.34125 -0.822615 -1.56902 3.60559
419 6.79147 -5.8293 -7.82988 -1.25975 1.35952 -0.965206
520 7.21958 -5.085 -6.57348 1.88352 -0.589141 -0.717161
385 8.40389 -5.7164 -6.9006 0.105454 0.095659 -1.20824
480 7.46575 -5.99138 -6.42482 0.250242 0.513045 2.05713
477 8.25005 -4.65874 -6.81089 -0.814956 0.158105 -0.486548
676 9.14935 -5.04866 -6.57715 -1.5269 4.04204 1.52434
435 -8.29305 -4.37105 -7.35929 2.83116 0.364673 0.184424
439 -8.54658 -3.49401 -6.63851 -1.79116 0.195646 -2.84426
525 8.84 -3.58841 -7.70761 -1.32052 2.02286 -3.59392
777 -7.69051 -3.56379 -7.43153 -1.38944 -0.657009 -1.81144
496 -6.28467 -3.04214 -6.76037 2.88387 0.900669 0.118423
778 -6.65212 -3.9264 -6.61008 1.56659 -0.528514 -0.523954
1102 -7.49055 -3.41174 -6.38463 1.57073 0.937278 0.666581
685 -5.97028 -4.95296 -6.29488 0.23546 0.436125 2.87291
251 -6.03355 -4.58196 -7.3303 0.362943 -0.866822 0.474517
1114 -5.57119 -3.72362 -6.85502 -0.477665 -0.63631 -1.19002
160 -5.04323 -4.49674 -6.93714 1.6912 1.00243 3.85247
396 -4.06661 -4.50267 -6.71572 1.08698 1.08324 -1.99177
830 -3.75415 -3.49181 -6.5616 1.5703 -3.24094 0.181263
1354 -4.55382 -3.59736 -7.29465 0.507428 -2.28663 0.596565
789 -2.54619 -3.49076 -6.88388 -0.185592 1.51089 3.17246
834 -3.34015 -3.92748 -7.29803 -0.949143 0.628056 1.29433
1365 -3.00406 -4.23662 -6.37681 -0.491365 -0.636173 2.30645
1074 -1.43408 -3.34899 -6.54978 0.323028 -0.186681 -2.13227
547 -0.785316 -3.68602 -7.32341 2.88405 1.54782 2.60954
792 -0.916024 -4.20095 -6.40487 2.97933 -1.33238 -0.237192
168 -0.690105 -2.66537 -6.07751 0.965391 -0.64227 0.516402
557 -0.543266 -2.79117 -7.0538 -0.448688 -1.86523 0.63794
220 0.63616 -4.11356 -6.04967 -1.29995 4.22157 -1.43368
551 1.07502 -3.59466 -7.98469 -2.79949 1.53886 -0.447355
797 -0.148061 -3.46691 -6.36711 2.12292 -0.18211 0.0690626
3434 1.91672 -4.38118 -7.48995 2.80165 1.20353 -0.0593725
506 1.56239 -4.23231 -6.51956 -2.40277 1.62251 1.24699
3483 1.23516 -3.27063 -6.82977 0.741904 0.430881 -0.713005
177 3.01275 -3.88357 -7.05422 -0.465223 -0.899332 -2.59011
465 2.48471 -4.80932 -6.74891 -0.579182 0.370898 -1.73906
1041 2.30558 -3.63575 -6.07908 2.89009 -0.929897 0.183423
517 4.36439 -5.00665 -7.04821 0.140783 -1.07608 0.517508
3303 4.50827 -4.75274 -8.06834 -1.89165 -0.489815 -1.80032
223 3.78314 -4.35472 -7.62959 0.962013 1.31251 -0.215698
473 3.84417 -3.77753 -6.56442 1.88469 3.00153 -0.325601
754 4.79875 -4.46903 -6.26266 1.63164 1.24226 0.584597
476 4.82092 -3.46866 -6.24372 -0.075783 0.695044 -2.74093
1098 5.50052 -4.02909 -6.90312 -2.49297 -1.85639 -0.113058
524 5.90737 -3.60934 -6.09062 2.22202 -2.23682 1.42066
478 6.7617 -3.31702 -6.87824 -0.968245 0.131482 -2.19511
761 7.18977 -3.7852 -6.07024 0.93029 -0.448389 -0.286165
565 7.66779 -2.99659 -7.27886 1.51975 -0.703558 -1.33714
816 6.42125 -4.31237 -6.61255 2.0503 0.200003 -0.569653
769 7.6443 -2.97739 -5.92618 0.533036 -0.696345 2.06811
112 8.98917 -4.49194 -7.57282 0.932996 0.365153 2.1707
433 8.05874 -4.17606 -7.63449 1.61688 -0.0978375 0.983343
675 9.01606 -3.87171 -6.63946 -0.967179 -0.878503 1.30986
194 -8.61158 -2.23069 -7.00604 0.193473 -3.94876 -1.48409
247 8.99332 -2.88473 -6.79733 3.93622 -3.72702 -0.62877
199 -7.95631 -2.55112 -6.30146 -1.404 -1.72699 0.210602
243 -8.18896 -1.54389 -6.0713 1.33855 2.00611 1.56064
3755 -7.75629 -2.62116 -7.23609 -2.85346 -1.42281 -4.40868
4044 -7.63694 -1.75843 -6.81539 -0.842611 1.98641 -2.84588
3751 -6.82961 -2.36632 -7.001 0.00661855 2.65719 -2.02315
256 -5.50515 -2.35281 -7.007 -1.10855 0.390676 -1.32398
252 -6.11167 -2.00718 -7.55771 0.471946 -0.943591 0.473221
539 -6.06099 -2.24048 -6.09743 2.13177 -3.04213 0.352985
3328 -4.01874 -1.96366 -6.98585 0.950895 -0.681287 -1.68249
205 -4.59976 -2.64891 -7.52592 1.12165 -1.15629 0.233174
543 -4.3634 -2.79964 -6.46709 -0.116374 -1.24768 -0.366469
831 -4.86693 -2.02465 -6.29486 0.677315 0.532633 1.2177
452 -3.41705 -2.85697 -7.38943 1.50266 0.224317 1.91439
741 -3.20174 -2.94348 -6.15759 3.00408 0.349706 1.72968
3765 -2.09 -1.5271 -6.83099 3.27238 -0.180454 -4.0787
548 -2.95088 -2.10632 -6.89019 -0.19414 2.19182 -3.97795
215 -1.39234 -2.84381 -7.44853 0.9972 -2.02259 0.646597
211 -2.11754 -2.58318 -6.73377 1.35385 -0.0123759 -0.902233
264 -1.23838 -2.14534 -6.66311 -0.818337 0.323602 1.1624
3379 -0.120164 -2.01225 -6.63654 0.813414 2.89886 1.8635
515 0.667823 -2.72752 -7.34747 -2.24812 -0.481135 0.996476
794 0.675333 -2.6576 -6.33964 -0.693063 1.63468 -0.119252
791 2.26151 -3.18666 -6.98476 1.98049 1.29842 0.837521
470 1.42871 -2.21937 -6.80676 -1.44889 1.95588 2.68541
852 1.67491 -1.98922 -5.79309 1.21369 -0.014122 -0.960714