ITEM: TIMESTEP
188000
ITEM: NUMBER OF ATOMS
6912
ITEM: BOX BOUNDS pp pp pp
-9.2265715179435492e+00 9.2265715179435492e+00
-9.2265715179435492e+00 9.2265715179435492e+00
-9.2265715179435492e+00 9.2265715179435492e+00
ITEM: ATOMS id x y z vx vy vz
55 -9.03076 -7.8369 -8.7455 2.02336 1.21308 -0.589254
293 -8.11448 -8.0698 -8.28829 -0.206797 0.273163 -2.92025
624 -9.19016 -8.72599 -8.27453 0.941582 0.358001 1.28956
6869 -8.20043 -9.03873 -8.58518 -3.14877 1.4985 -1.94769
10 -6.87279 -8.20655 -8.438 0.173424 -2.47426 -0.565723
3704 -7.35431 -9.18462 -8.21569 -0.0857914 1.05871 -1.41052
105 -6.24224 -8.58318 -9.06795 -0.646426 0.228693 -2.70827
3228 -6.02978 -8.51239 -7.7248 0.576353 -1.18302 4.0889
298 -5.36443 -8.14792 -8.50638 0.331423 0.585945 0.654074
3709 -3.80917 -8.31328 -8.14675 -0.767196 3.06404 -1.58109
2895 -4.15102 -9.07677 -8.68211 0.379477 0.591563 -2.34674
67 -4.37779 -8.13397 -8.88442 -1.05204 1.85416 2.14666
16 -4.77849 -8.75006 -8.13618 -0.60957 -0.477326 1.27619
3236 -2.93202 -7.78002 -8.52162 1.82495 -2.00976 -2.1213
3187 -2.38098 -8.37678 -9.06734 0.540391 -0.675861 1.9283
353 -2.40781 -8.47074 -8.12869 -0.0822837 -1.7412 0.0423128
6792 -3.46164 -8.38435 -9.11832 -0.638686 2.77068 -0.507187
14 -3.20758 -9.15303 -8.33465 1.85891 -0.778064 -0.0389852
311 -1.43829 -8.17053 -8.47571 -1.99564 -0.488164 1.97396
3715 -0.785641 -8.13949 -7.89302 -0.555024 0.797759 2.536
3717 -1.32089 -9.20228 -8.81942 1.38425 1.63039 0.515811
4008 -1.28503 -9.15916 -7.90219 -0.647382 -1.05711 -0.01127
3720 0.490303 -8.24138 -8.27369 1.35186 1.50019 -0.898775
23 -0.310557 -8.73701 -8.68626 -1.19498 -0.919765 -0.381845
82 1.95761 -8.38462 -8.00823 0.890617 3.13208 -0.751401
75 1.23605 -8.86079 -8.79448 2.00243 -0.860384 -1.44207
316 1.15297 -7.69923 -8.99915 1.11791 1.54754 -1.09505
361 2.0072 -8.26091 -9.0119 2.38028 -0.808271 1.48062
366 2.32855 -9.21309 -8.40332 -0.222678 -2.60385 -0.718636
661 2.71109 -7.81052 -8.36963 -1.85456 1.25419 -1.50001
28 3.42827 -9.05178 -7.97427 1.99124 -0.840102 -1.06904
39 3.00767 -8.6557 -8.91518 -0.97885 -1.26798 -0.998296
40 4.41425 -8.84645 -8.34701 0.70867 0.339919 -0.999916
654 3.80904 -8.00755 -8.15415 -0.168681 0.671098 2.22677
86 4.77543 -7.79255 -8.74018 -0.649581 -2.82458 -2.64745
33 3.85368 -9.12444 -9.14886 0.189566 0.796184 0.256107
961 5.83754 -8.43879 -7.83805 1.34534 -1.18129 -0.933639
87 5.56188 -8.46236 -8.76432 0.334345 -1.05232 3.22359
44 5.29011 -9.19068 -7.77898 0.402902 -1.72644 0.555985
91 6.74196 -7.72149 -8.10059 0.666419 1.52621 -0.677493
4030 6.65332 -8.76642 -8.1759 -1.30356 -0.827586 -0.880092
289 7.54016 -8.27846 -7.91467 0.633266 -4.02427 -1.4469
4 7.24339 -7.91219 -8.86348 0.198753 0.422181 0.212463
381 6.52026 -8.75519 -9.09807 -1.96499 1.20228 0.254136
3988 7.55861 -8.93371 -8.87845 -0.415531 1.05465 2.06852
628 8.33546 -9.02799 -8.18941 -3.27841 1.0495 0.893582
719 8.58751 -7.98681 -8.16981 -0.33194 -0.387505 -1.57573
622 8.25356 -8.2914 -9.08029 0.308143 1.83949 3.55724
46 -8.72192 -7.18809 -8.15435 5.07302 -0.133937 -0.827116
3315 -8.9342 -6.41611 -8.89163 -0.455844 1.76803 -0.734627
670 -8.22237 -7.2022 -8.92621 -3.45526 -0.246568 -1.60113
344 -7.32407 -7.46324 -7.9787 -1.79599 -2.44336 1.4331
3180 -6.39403 -6.64776 -8.48778 0.703792 0.732598 -0.346474
3267 -7.71422 -6.48047 -8.25242 0.428877 -0.423627 -0.431494
5 -7.40088 -7.52101 -9.10117 -0.34909 1.64631 -1.22684
50 -7.18981 -6.61843 -8.99518 -0.153035 0.331907 -1.44026
294 -6.3816 -7.55155 -9.1844 0.785931 -0.70014 -1.24775
12 -5.53725 -7.02181 -8.58633 1.70287 -2.08573 1.86855
2940 -6.14943 -7.64582 -8.21408 1.44797 2.19341 0.663669
107 -4.75551 -7.57566 -8.20742 0.966925 -0.479139 0.0785158
2948 -4.7605 -7.27854 -9.15518 -2.03239 -0.453963 -0.889345
401 -3.91947 -7.27391 -8.49216 -0.804681 -2.67953 -4.09234
352 -4.6363 -6.43244 -8.55949 0.907145 3.51485 0.907057
3233 -2.44458 -6.7845 -8.55185 0.619331 -0.00851739 -0.814002
402 -3.43491 -6.32026 -8.71089 -2.36673 -1.38939 -0.467499
115 -2.94892 -6.21327 -7.94145 0.838149 -0.231939 -0.864595
734 -3.05107 -7.16836 -7.80895 1.67284 1.15651 -0.852477
3711 -2.06977 -7.60141 -8.1291 -1.52251 -1.04678 -0.902272
71 -1.36691 -6.47019 -8.44352 -0.462971 1.92188 2.41035
3239 -0.976946 -7.35269 -8.64396 -1.5237 0.582748 1.15207
696 -0.480706 -6.89786 -7.78731 1.7494 -1.83821 -0.819771
462 -0.12236 -6.22696 -8.3172 -1.43767 3.35036 -3.5528
406 -0.00212647 -7.43831 -8.42492 -1.57779 -1.9145 -2.28128
3287 0.577509 -6.15315 -9.04874 -5.09728 0.451191 0.286338
359 0.840923 -6.92716 -8.4837 -2.07172 0.531637 -1.25537
418 1.86702 -7.3581 -8.39067 0.607949 -0.627641 0.460736
78 1.09752 -7.66431 -7.73785 -3.48338 -1.3456 -0.395743
365 1.58692 -6.39911 -8.17988 -0.365197 2.16721 -2.83223
3256 3.05092 -6.82947 -8.34416 0.672706 1.62933 -0.653767
703 2.24878 -6.34498 -8.83791 1.51061 0.820958 0.586202
2964 3.54206 -6.21863 -8.96841 1.0263 0.731541 0.886921
35 3.80692 -7.20688 -8.70243 -1.52873 -1.64047 -0.432675
469 3.92272 -6.58853 -7.97768 -1.01836 -1.96866 0.74281
3260 4.45167 -7.40811 -7.75112 0.229899 2.41231 -3.69898
3299 4.86132 -6.78196 -8.41136 2.01479 -0.769837 1.548
3258 6.02483 -7.59731 -8.76288 -0.331337 0.898239 2.47889
88 5.54361 -7.45317 -7.78913 -0.553579 0.298976 0.131245
714 6.0077 -6.47343 -8.61992 -1.28165 0.327254 3.31635
430 7.0153 -6.89066 -8.62961 0.263575 0.622545 1.35438
1006 8.26116 -6.21842 -7.70781 2.43559 0.471208 -0.26476
666 7.81019 -7.36336 -8.27795 -2.09287 1.53987 -0.266552
3219 8.69734 -6.97476 -8.58262 0.129395 1.04738 -1.16105
425 7.90022 -6.42591 -8.61615 -0.272853 -0.0652186 -1.12926
437 -8.0246 -5.96782 -9.05674 1.31915 1.88439 2.84468
384 -8.61219 -6.08225 -8.02454 2.13608 -0.803483 1.40502
3032 -7.8132 -5.28034 -8.20414 -1.42336 -0.617483 -1.48085
3361 -8.74336 -5.25387 -8.56467 1.54289 -0.0127388 -0.761491
200 -8.53335 -4.73531 -7.70476 3.45144 0.563533 -1.92408
153 -7.30609 -5.15798 -9.03779 -1.66028 -0.545371 1.97027
108 -6.94209 -5.79924 -8.46193 1.04884 0.444382 -2.0201
201 -6.82461 -4.90675 -8.215 1.3192 0.214633 0.189954
346 -5.4675 -6.05079 -8.73979 0.194752 1.8658 1.39756
103 -5.99863 -5.24969 -8.59689 -1.2862 -2.1227 0.787319
630 -5.39106 -6.08003 -7.78015 1.64904 -1.25008 -0.0183901
441 -5.65247 -5.03617 -7.77668 0.260807 1.65169 1.91676
3331 -4.88543 -5.34451 -8.42872 2.10641 1.27416 -0.0343911
690 -4.31612 -5.83118 -7.88782 0.153626 -1.84568 -0.538764
164 -4.16823 -4.68251 -8.71379 1.50734 0.932794 -0.616128
545 -4.04887 -4.87625 -7.74163 -0.864049 3.4662 0.424079
453 -3.48832 -5.35495 -8.37647 -1.02549 1.31883 -1.72827
68 -2.6251 -5.07604 -8.10167 2.15904 -1.35642 -0.130855
355 -2.57608 -5.71768 -9.1418 1.47041 0.222869 -0.672567
2710 -2.897 -4.73309 -9.15512 0.37809 -1.41083 1.11599
403 -2.01455 -5.84113 -8.28694 -0.410983 0.691475 -2.47797
216 -1.99686 -4.88561 -8.91894 -1.46744 -0.380441 -0.753087
451 -1.51948 -4.75912 -7.92736 1.19416 0.710863 -0.149281
697 -0.909073 -5.56065 -8.15519 -3.13378 2.86991 0.643963
699 -0.820381 -4.94275 -8.93322 1.0505 0.175221 0.231232
407 -1.43016 -5.79204 -9.08566 0.958787 2.53844 0.946667
70 0.00702196 -5.28659 -8.44781 2.13085 0.153568 0.25793
993 0.880478 -5.71181 -8.19814 0.282349 -1.9264 -1.17891
416 1.74251 -5.58663 -9.00808 -0.459344 0.0882796 -3.07509
651 1.72096 -4.98149 -8.28334 -0.0342379 1.26175 -0.69691
362 0.806117 -5.11465 -9.0081 -0.301913 2.50731 0.0074524
757 2.72599 -5.37077 -8.39184 2.89084 2.17854 -1.30325
370 3.33261 -5.85339 -7.83994 -2.50675 -1.29598 0.443476
128 2.56017 -4.79358 -9.16161 -3.66052 1.3461 0.480024
131 4.46566 -6.04802 -8.86185 -1.59146 -1.09042 -0.228839
183 4.2155 -5.08361 -8.12307 -0.437383 2.75826 2.03743
3298 3.57337 -5.1503 -8.9166 -1.26888 1.80822 -1.93717
136 5.12347 -5.54994 -8.38318 -2.43991 -0.75878 -1.42142
137 6.02712 -5.60225 -7.91341 -0.408374 0.0607819 -0.158563
191 5.87051 -4.87102 -8.78851 0.32255 -0.219127 0.682107
3254 6.10944 -5.78221 -9.1156 -0.70005 0.313759 -0.539645
422 6.80652 -5.986 -8.53634 -1.1803 -3.79263 -0.651105
139 6.92749 -4.92071 -8.44665 -1.80319 -1.68185 -0.39525
193 7.90199 -5.48675 -8.09091 0.775284 1.40148 -1.16603
3272 8.78576 -5.7603 -8.66778 0.861384 0.103159 0.805647
148 8.04746 -4.77362 -8.77083 -0.661555 -0.449252 -0.117433
440 -8.36085 -3.39884 -8.67002 -0.427756 -0.89314 -3.63092
722 -8.9828 -3.86959 -8.26429 1.30526 0.231838 -4.8021
150 -8.05871 -4.28752 -8.77432 -2.17865 -2.55679 -1.92926
434 -8.19182 -3.60504 -7.69179 -0.0118005 1.27902 0.451837
681 -7.45441 -4.29512 -8.00703 0.570542 0.808026 1.42699
157 -7.4152 -3.46604 -8.58649 -1.11456 -0.607931 -0.487891
491 -6.65095 -3.69718 -8.00322 1.33431 -0.584497 -0.907486
3327 -6.41604 -3.68552 -9.14167 1.55463 4.51508 0.330448
152 -7.15304 -4.21126 -9.16362 1.30904 -0.420492 -1.44906
3269 -6.05338 -4.28508 -8.45781 2.31087 2.4444 -0.670672
159 -5.03833 -4.11108 -8.25817 -1.14656 -0.90585 2.46705
106 -5.32844 -3.40342 -8.87813 1.50962 -1.15648 -0.975852
489 -5.63247 -3.14131 -7.71899 0.764639 -0.6485 2.72636
398 -5.17217 -4.58011 -9.16537 -0.623216 1.64969 -0.483728
493 -4.06662 -3.79918 -8.30558 -1.63929 0.434337 -2.00199
3375 -4.64322 -3.08376 -7.77 -0.739003 1.06938 -1.77132
209 -3.26953 -4.32403 -8.24617 -2.9176 -0.430512 0.921417
165 -2.2879 -4.06844 -8.08201 0.278681 0.1945 0.409626
113 -2.51873 -3.88366 -9.0355 -0.526919 0.199651 0.777512
552 -3.17016 -3.30002 -8.447 -0.802281 -1.90771 2.08232
698 -1.56938 -3.94508 -8.72255 4.01529 3.24552 4.89624
742 -0.837919 -3.96222 -8.13434 1.11019 -0.579874 -3.12383
219 0.364352 -4.28801 -8.59777 0.654261 2.34928 4.70244
511 0.266846 -3.31515 -7.88802 -2.85515 2.70031 2.23444
3344 -0.474744 -3.08993 -8.50659 -2.01024 0.611431 0.789358
124 -0.709313 -3.7715 -9.17191 0.818944 0.14255 -0.0270876
553 -0.0452099 -4.57894 -7.74317 -1.1021 -1.00358 -2.3445
508 0.360913 -3.40151 -9.16353 0.426027 -1.63323 -1.16975
176 1.13714 -3.75192 -8.32338 0.964642 -2.36472 0.91953
502 1.61526 -3.44864 -9.07853 -0.467268 -1.07171 2.14872
3304 3.39642 -4.48505 -8.12747 1.86864 -0.346896 -1.92765
3294 3.29091 -4.09362 -9.15798 -1.00404 -0.765429 -0.611944
173 2.26071 -4.07844 -8.60481 1.7278 -2.35159 0.96521
461 3.22757 -3.46667 -8.22429 -0.887155 -0.848922 -2.39767
3348 4.70553 -3.63874 -9.17357 2.35649 0.0467432 0.714383
3349 4.40973 -3.74239 -8.21317 -0.251556 -0.430285 1.93301
130 4.23263 -4.53055 -9.10229 0.370842 0.253396 -1.96554
182 4.97533 -4.4798 -8.41941 0.791447 -1.74542 -1.73056
229 5.44639 -3.54576 -7.94071 -1.64252 1.25875 1.03392
144 6.24099 -4.40789 -7.91545 -0.476232 1.35359 0.52023
421 5.69333 -3.87241 -9.04144 -2.15331 -0.158892 -2.49158
709 6.44111 -3.72653 -8.44228 -1.49905 1.61315 -3.55251
815 7.43811 -4.0372 -8.02385 -0.996859 2.26558 -0.788804
281 7.32441 -3.19444 -8.63639 -2.83867 3.53014 1.90498
140 7.2127 -4.14436 -8.96318 0.99151 0.459398 -1.01563
197 9.10175 -3.26078 -9.0638 -1.30671 0.22741 -2.64937
98 9.00787 -4.59546 -8.91357 -0.875611 -0.769461 -1.33597
146 8.30221 -3.50113 -8.61658 -1.3574 1.42714 0.188552
192 8.54642 -4.16698 -7.94147 0.443926 -1.7907 0.175652
3409 -8.61933 -2.38425 -8.9394 -1.58138 -1.42432 -3.49379
285 -8.60407 -1.88321 -8.04786 1.23462 -1.68016 4.67742
241 -8.95169 -2.91555 -8.09447 -0.218633 -0.558364 0.971565
3366 -7.83744 -2.58931 -8.36796 0.327049 -0.687444 -0.716767
3324 -6.71409 -2.58339 -9.02656 2.51158 0.126519 -0.61574
198 -7.13356 -1.78122 -8.70673 -0.493066 -1.21639 1.71751
3802 -6.92497 -2.77447 -8.05169 -0.415779 -1.07028 2.96468
438 -5.88235 -2.61988 -8.51468 1.43572 1.56401 -3.12355
3753 -6.20951 -1.72623 -8.37863 -0.557227 -1.73875 2.5713
154 -5.03801 -2.47663 -8.92026 1.36097 1.08101 1.63251
538 -5.29198 -2.01343 -7.91028 -0.0426613 1.0387 -0.741489
206 -4.02521 -2.93612 -8.75746 -1.10082 -1.82663 -1.54839
546 -4.35801 -1.98671 -8.51772 1.20824 0.388934 -0.614224
3757 -3.51697 -1.73512 -8.87938 -2.02605 -1.01099 1.08551
212 -3.33123 -2.0932 -7.99138 0.715501 1.20807 2.07971
6645 -2.71685 -2.34998 -8.67892 1.15011 -1.39628 -0.316326
3380 -2.29889 -2.90103 -8.0595 -0.800182 -0.900166 -1.34289
3382 -2.20819 -1.93902 -7.88281 0.234755 -0.0601255 1.21928
114 -1.97087 -3.02939 -9.06301 2.80215 -1.4354 -2.75979
743 -1.37264 -2.9714 -8.19763 2.45332 2.1429 1.9293
3427 -1.76979 -2.1113 -8.82929 0.480996 0.703745 2.2146
3431 -0.823303 -2.12441 -8.85539 -0.834665 0.0813896 1.85675
3774 -1.17252 -1.54879 -8.13435 -1.14314 3.79044 -1.22931
3384 0.291333 -2.51734 -8.62118 -0.10696 1.59337 -0.387726
3336 0.0231852 -1.67213 -9.20336 -0.206319 -0.423158 -0.221295
4058 -0.460032 -2.30515 -7.9502 0.480588 1.14219 -0.601629
222 1.23176 -2.93161 -7.88445 0.805663 0.96166 1.18943
3383 2.10627 -3.02527 -8.32507 -0.319915 -1.63046 -1.00841
3343 1.25503 -2.54448 -8.79555 1.44456 -2.51028 0.771989
225 1.91192 -2.11471 -8.07252 -0.559654 -0.509624 2.40631
3435 0.97297 -1.57064 -9.15322 -0.861722 -2.07209 -0.00960893
274 0.906845 -1.81677 -8.14059 -0.772757 -3.08013 -1.12075
126 3.25183 -2.61601 -8.89193 -1.02291 -0.522235 1.07826
559 2.83954 -2.64849 -7.94596 -0.455118 2.05567 -0.233327
3485 2.92184 -1.65986 -8.95342 0.161312 2.32068 -0.866998
4110 3.46806 -1.8621 -8.23233 0.4843 0.759044 -0.0226726
3823 2.65024 -1.61977 -7.70499 -0.865662 2.04182 -0.280798
266 2.2632 -2.32082 -8.88709 0.421702 -1.75272 2.08909
181 4.74131 -2.86216 -8.32523 -0.246626 1.06049 -0.644841
3352 3.80069 -2.80888 -8.08093 -1.4584 -0.515361 1.3352
270 4.43095 -1.98295 -7.9268 -0.363892 -2.22417 0.611209
3444 4.07055 -1.98858 -9.0846 0.396888 1.69055 -0.362783
518 4.05624 -2.94658 -9.16659 0.0712509 1.30107 -2.4798
239 5.74607 -2.82927 -8.81424 -1.24181 0.0982259 2.31354
279 5.3378 -1.61143 -7.77169 0.718342 -2.45085 1.70042
3405 5.62282 -2.59068 -7.77851 1.03682 1.3712 -1.57733
572 6.21401 -1.76552 -8.29056 -1.49879 -0.700908 -0.350856
3346 5.16667 -2.00469 -8.66056 0.698846 -0.335464 -0.307005
3403 7.20602 -1.74518 -8.64531 3.12395 -1.01709 3.47892
481 6.48035 -2.73446 -8.14301 0.306211 -1.96892 2.08338
569 7.11838 -2.18128 -7.7763 2.44256 -0.197843 1.2331
233 6.55443 -2.38157 -9.01917 0.307223 -2.77111 -0.306378
522 8.10616 -2.54858 -8.56872 1.97772 0.748273 2.17973
245 8.82321 -1.96253 -8.23585 -0.776647 -3.27826 0.935759
482 7.91114 -1.70883 -8.0863 -1.21122 -1.64399 0.83354
3404 8.16636 -1.6544 -8.92321 0.196191 0.64498 -0.712282
3502 -8.54418 -0.517009 -9.18769 -0.227556 3.15274 -1.15631
6673 -8.66877 -0.433817 -8.14612 0.804998 -0.318468 0.312698
3459 -7.96861 -0.945909 -7.81223 -0.358732 -1.65726 0.483183
3414 -8.10517 -1.35704 -8.62319 0.905982 -0.359473 0.558218
3462 -6.96916 -0.963749 -8.17623 1.73609 3.69921 0.264064
6348 -7.61178 -0.223997 -8.42322 -0.229065 0.224623 1.11641
3413 -7.12062 -0.758665 -9.06 -4.33488 -1.04284 -0.441071
254 -5.36301 -1.38823 -8.65269 0.206754 0.412605 0.741614
3746 -6.01227 -0.713124 -8.55998 1.84204 -0.338455 -0.491014
3805 -5.11252 -0.196437 -8.74486 -0.774101 0.369636 0.16348
4332 -4.99606 -0.604434 -7.70099 1.98451 -1.45626 1.65689
3466 -5.69803 -0.0456138 -7.94345 -1.3033 -0.0450829 -3.1367
250 -4.48182 -0.939179 -8.41942 -1.11728 1.09897 3.62227
3855 -3.92691 -0.282028 -9.15258 0.177792 0.200922 -1.13338
541 -4.22918 -0.0959161 -8.02005 0.21826 -0.123575 0.895427
3378 -2.65634 -1.38601 -8.85361 0.866874 -1.1118 0.749619
4042 -3.3779 -0.619328 -8.47571 -0.512738 -2.82596 1.07423
3424 -2.94341 -1.19587 -7.83116 -0.801962 2.06362 1.05122
3423 -2.44288 -0.406412 -8.4558 -1.62546 -2.30226 2.63211
3436 -1.73501 -0.809314 -8.79972 0.708292 -0.210215 -0.564596
260 -1.68224 -0.355593 -7.85885 0.335262 3.33697 1.79222
3432 -0.759022 -1.12382 -9.14811 1.20278 -1.01861 1.48857
3767 -0.598208 -0.39542 -8.30962 -0.105127 -1.02647 0.0990557
221 -0.12274 -1.35142 -8.21607 2.36518 1.89622 0.68931
265 0.115352 -0.715742 -8.98855 2.01212 -0.207458 0.471783
3518 1.17545 -0.537051 -8.80751 -1.10423 -0.0501913 2.77826
3492 1.92489 -0.64499 -8.10714 0.0666278 0.125619 -0.512088
6653 1.86425 -1.38854 -8.74269 -2.50078 0.794997 -2.0359
6702 2.72257 -0.664576 -9.20962 -0.0541056 0.596575 -1.62253
6660 3.00889 -0.960637 -8.34225 0.669684 1.41197 2.5765
178 3.87169 -1.08381 -8.95087 -0.424167 -1.25207 1.97244
236 4.5342 -1.09715 -8.26699 -0.268166 -0.802171 0.707182
3490 3.75437 -0.392269 -8.21776 2.29331 -0.135273 1.5796
271 3.89259 -0.198153 -9.20791 -1.74167 0.674043 0.46337
273 5.46154 -1.14721 -8.76379 2.65714 -1.39051 0.131308
280 5.44184 -0.565646 -8.01844 2.49202 2.49022 -0.660431
196 5.91003 -0.290999 -8.83608 0.447646 -0.458702 0.152748
283 6.74693 -0.270345 -9.21558 -4.14782 -1.48436 -1.18282
3839 6.53662 -0.821902 -8.17152 -1.10403 0.178587 2.75552
3750 7.57692 -0.851481 -8.75872 -1.25085 2.28055 1.43986
573 7.45615 -0.920745 -7.81046 -1.14292 -0.260701 1.33841
3446 6.5327 -1.41088 -9.21142 -1.71589 -1.84676 -0.91771
575 7.21763 -0.0742064 -8.30842 -1.70845 -1.621 0.253955
6669 9.10678 -0.0921735 -8.96744 -1.21384 -1.20044 0.42631
3749 8.9591 -1.07628 -8.84823 -1.33788 1.73655 -0.375264
536 8.72274 -1.08061 -7.94176 -0.411427 2.82744 -2.02652
234 8.19082 -0.187076 -8.25598 -2.11861 -3.02715 1.13804
578 -8.97807 -7.9845 -7.58976 0.461846 0.923515 1.92061
338 -8.20349 -7.81668 -7.19231 0.569284 2.3642 2.77689
4280 -8.92519 -8.87135 -6.98291 -1.96968 -0.236315 -6.13827
913 -8.34601 -8.93159 -7.67679 1.15434 1.14949 -0.0798601
389 -6.83942 -9.04575 -7.26667 -2.20751 0.0721627 2.16558
865 -7.41607 -8.44836 -7.61799 0.955978 -1.74998 0.0176566
7 -7.78885 -8.91028 -6.87245 0.161969 0.0707121 1.00074
921 -7.29179 -8.12282 -6.64123 0.0620654 2.21656 0.479268
925 -6.08021 -8.4291 -6.78122 0.573654 -3.73684 -0.259749
640 -4.9686 -8.8706 -6.51456 -0.61852 0.589779 1.38201
733 -5.05412 -7.89763 -6.23349 -1.4512 0.501016 -1.85602
633 -4.61608 -8.09775 -7.23013 1.50413 2.16285 1.08886
347 -4.09227 -9.02848 -7.1706 -0.578447 1.49334 -1.10724
349 -3.91662 -8.12852 -6.37832 -0.3484 0.690546 -2.97962
638 -3.40864 -8.89621 -6.18958 1.60538 -3.03717 1.57034
4001 -3.1946 -8.39923 -7.40299 0.00438278 0.0434208 -3.29593
642 -2.64847 -8.31011 -6.28925 3.0777 -0.0350817 -1.25618
701 -2.34427 -8.85446 -7.18069 3.10432 1.26959 -0.273503
686 -2.47307 -7.83085 -7.12166 -1.92361 0.119614 -0.624768
645 -1.51565 -8.31242 -7.13786 2.67957 4.01129 -0.960775
4242 -0.805887 -8.88301 -6.89228 0.958906 -1.34356 -1.59509
689 -1.36478 -7.96204 -6.21597 -0.22517 1.15491 -2.79853
3962 -1.78267 -8.88464 -6.29927 -0.207616 -0.915876 -1.24412
607 0.153873 -7.87392 -7.41968 -0.191438 -1.98314 0.839193
987 -0.383564 -8.21389 -6.19722 -1.94526 0.0363238 0.209441
599 -0.0776857 -8.84221 -7.67128 0.36664 -0.404773 0.248668
77 0.343594 -8.59733 -6.6813 0.103464 -1.01387 0.743166
84 0.890512 -8.717 -7.54073 -2.21455 2.39114 3.76497
3724 1.59795 -8.34807 -7.07478 0.228623 3.29116 0.799019
4297 0.916516 -7.75137 -6.68699 0.805421 2.01929 -1.7319
655 1.93311 -9.19884 -7.40997 0.216501 1.67094 2.16662
318 2.76416 -8.35829 -7.42962 1.82575 -0.241123 3.81928
172 3.02098 -7.79555 -6.76322 -0.0649434 0.714831 1.15782
605 2.32625 -8.81759 -6.63435 -1.65284 -2.26663 -2.19434
327 3.32304 -8.92225 -6.74164 -1.78521 2.03185 2.20688
133 4.89327 -8.26504 -7.50983 0.741242 0.0169582 -1.66626
322 3.96102 -8.28498 -7.21701 2.14339 -2.67876 -0.0492908
374 4.13502 -8.86454 -6.2692 -1.17629 -2.62632 0.681482
614 3.93297 -7.92998 -6.22384 -0.122938 -1.84113 0.870127
4312 4.07136 -9.22138 -7.29073 0.818724 0.267101 1.15712
328 5.66209 -8.33047 -6.74467 0.652407 -0.157059 1.12673
3974 6.75918 -8.75206 -7.19811 1.36546 -1.18202 -2.07637
715 6.50802 -8.36988 -6.39215 -2.29092 -0.969721 -2.50661
4317 7.26365 -7.71019 -7.09087 2.20434 0.405946 0.826792
427 7.70117 -8.76563 -7.03537 0.608239 0.788838 1.87454
907 7.3814 -8.27058 -6.20728 -1.59557 -0.185902 -0.859302
1005 8.18046 -8.00901 -6.8267 0.269113 2.89697 1.95692
577 8.72012 -8.61546 -7.42083 0.530623 1.91906 -1.27544
672 8.61055 -9.04975 -6.48704 -3.41994 -1.39119 0.265376
432 9.13288 -8.04493 -6.37624 0.247248 -1.58081 2.11735
339 -8.52779 -6.85339 -7.21432 -3.70383 0.650687 -1.0029
964 -8.45637 -7.41029 -6.41264 0.987635 -1.47542 0.57776
679 -8.20505 -6.27723 -6.46477 0.550554 -0.0980587 -1.39992
674 -9.15589 -6.51599 -6.33507 0.860077 -0.869473 1.27002
868 -7.53873 -7.00789 -6.8111 0.771747 0.889326 0.87488
629 -6.97577 -6.56762 -7.50937 -1.04972 -3.4084 -2.15349
348 -6.59948 -7.65356 -7.18847 -1.33052 -1.35893 0.242131
345 -5.43456 -7.58931 -7.44799 -0.664392 -2.41949 1.00498
393 -6.02103 -6.79859 -7.55106 1.14813 1.43222 0.00306544
391 -6.24481 -6.38723 -6.68867 -1.47598 0.287558 0.922695
395 -5.74492 -7.30131 -6.57747 0.267582 -2.95647 0.30078
682 -5.12624 -6.55182 -6.71255 0.24896 -0.242418 -0.560801
634 -4.72007 -6.73047 -7.62544 -0.756057 -1.27306 1.72127
302 -3.91122 -7.53083 -7.51517 0.28267 -0.587441 3.21917
974 -4.33388 -7.34121 -6.7234 -1.92884 -0.710568 -0.41566
358 -3.70121 -6.50273 -7.47946 0.0723565 0.208773 -2.17493
783 -4.08598 -6.47395 -6.56921 -0.518672 -3.64427 -3.32574
310 -2.14429 -6.70593 -7.55041 -0.417667 -0.261285 -1.10476
1025 -2.80309 -6.33802 -6.9655 -1.60754 -0.88296 0.770473
305 -3.33846 -7.46019 -6.69115 1.55523 2.03562 0.0905306
983 -2.52543 -7.27593 -6.16726 1.35485 -0.291161 -0.467732
354 -1.36387 -7.32846 -7.6758 2.06535 -1.68807 0.159805
303 -0.788194 -7.662 -6.89744 -0.853009 -0.93486 0.140867
404 -1.81989 -7.23641 -6.73674 -1.2851 0.444396 -0.398101
1017 -1.90445 -6.21823 -6.32034 -0.0213812 1.08709 -0.168577
978 -1.12072 -6.60626 -6.61078 -0.675291 0.493326 -0.0845697
656 0.428788 -6.60874 -7.57921 -1.60653 1.19431 0.158298
76 0.192259 -7.07324 -6.66956 -1.4923 2.52219 -1.38994
737 -0.31444 -6.25019 -7.03212 2.1651 -2.06074 0.5604
415 0.960977 -6.50589 -6.54367 1.75502 0.233378 1.42375
704 1.43351 -6.97539 -7.15342 2.29114 0.835985 -1.88689
898 2.05874 -7.68642 -6.50957 -0.147536 1.21422 0.182519
417 3.21286 -7.42129 -7.57385 -1.18336 1.16274 1.64121
944 2.23435 -7.50271 -7.36575 1.6442 -1.57575 -0.572766
513 2.20045 -6.77634 -6.45686 -2.04808 3.96024 0.640974
1042 2.37681 -6.59353 -7.6377 -2.30219 -0.450461 -1.42054
378 3.08366 -6.67519 -6.8837 -0.510317 0.470944 -0.442472
372 4.01774 -6.31098 -6.97891 0.22944 1.03371 -0.755648
89 4.04479 -7.27174 -6.92535 -0.493654 -0.688481 -2.18134
95 5.40052 -6.28121 -7.65727 -1.58219 -0.849572 1.80192
1048 6.27881 -6.71942 -7.67647 2.16474 -2.76366 2.40796
371 5.10063 -6.39139 -6.67999 -0.81468 -2.20754 0.556188
373 5.17325 -7.4518 -6.78464 -0.812849 0.289398 0.326325
3734 6.26768 -7.65885 -7.16864 4.67317 -1.7835 0.824572
332 6.00663 -6.8387 -6.75362 -0.344555 -2.01874 0.917718
330 7.16844 -6.76282 -7.46154 2.86534 -0.802372 0.0501434
910 6.74618 -6.16484 -6.80519 -0.993811 -1.20109 0.364751
669 6.80089 -7.19209 -6.4535 1.70019 1.46304 0.547102
667 7.97682 -7.03093 -7.13778 -2.25221 1.12833 1.07194
680 8.43572 -6.36397 -6.54136 1.77477 2.88012 0.223279
759 8.8438 -7.16758 -7.66154 -0.354683 -0.753738 -0.106342
723 8.69642 -7.25004 -6.37032 -1.7674 -0.935802 3.79101
388 9.13622 -6.34304 -7.28376 0.389397 -1.70228 -0.0694359
390 -7.82418 -6.0778 -7.39933 -0.597879 0.0986863 -2.12717
771 -8.66092 -5.39437 -7.11564 -1.37905 2.27575 0.951157
677 -7.84745 -5.43959 -6.29438 -1.45057 0.958218 -0.422491
151 -7.0143 -5.91011 -6.35478 0.362876 -2.22467 0.686619
155 -7.62205 -5.08561 -7.33017 -1.9098 0.886043 -3.46709
729 -6.60998 -4.66933 -7.16345 -4.30948 -1.70164 -0.745181
779 -6.97919 -4.93743 -6.33343 -1.0533 -0.162244 -0.909674
394 -6.37097 -5.71664 -7.64044 -0.475148 2.10341 2.86186
449 -6.01277 -5.37658 -6.82343 -2.30276 -0.703311 2.3651
500 -5.19529 -5.7028 -6.27054 -2.09364 2.1011 2.61304
405 -4.96126 -5.24278 -7.25176 1.14869 0.191773 2.44362
490 -4.02072 -5.54505 -6.92158 2.86916 -1.24808 0.136693
1069 -3.56281 -4.80023 -6.5334 -0.0675273 0.83112 -1.31608
494 -4.63615 -4.93055 -6.48737 -0.0560742 0.97344 1.18049
304 -2.9826 -5.38234 -7.2518 0.0692525 0.0541668 0.0133332
207 -2.5614 -5.3083 -6.3439 -1.9598 2.99757 0.175886
445 -2.17689 -4.66284 -7.27022 0.0397079 -1.70615 2.1677
368 -1.13485 -6.13703 -7.46557 2.14277 -2.24052 3.09738
448 -1.96869 -5.65376 -7.12558 0.930291 -0.203025 -1.80728
360 -0.903002 -4.88779 -7.27488 -3.08265 0.0376527 0.549883
644 -0.903186 -5.64888 -6.54584 3.68724 0.125786 2.86952
495 -1.55724 -4.91491 -6.35284 -0.522338 2.11517 -0.874134
745 -0.056534 -4.79095 -6.64477 1.77827 0.563099 -0.0988914
652 0.219765 -5.50506 -7.5432 -0.536301 -1.66446 -2.21477
693 0.521858 -5.61965 -6.58065 1.78262 -0.404177 -0.0233115
175 1.98397 -5.64054 -7.61242 -0.400537 0.423786 -1.12755
411 1.01263 -4.89416 -7.66873 -0.102234 1.54687 0.898766
746 1.43089 -5.06616 -6.18967 0.286946 0.452838 1.03507
516 1.78985 -5.90485 -6.15177 -1.08505 0.764727 2.62504
938 1.18288 -5.89223 -7.19939 -0.0649193 -1.8059 1.03762
753 1.72472 -4.93522 -7.03489 0.960034 0.255118 -0.132155
807 3.34279 -5.3651 -7.03453 3.70464 0.895022 3.32996
849 2.60453 -5.86038 -6.79971 -0.534533 2.28753 2.12529
420 3.47483 -5.8769 -6.22218 -0.617224 -1.63572 -0.943442
468 4.51101 -5.74155 -7.53126 -3.61771 -2.38823 0.794463
135 4.3824 -5.50406 -6.50005 1.46179 1.28118 4.10704
187 4.311 -4.73604 -7.15715 -1.16548 -0.093512 3.20983
424 3.64144 -4.7927 -6.18418 0.574374 -0.0187354 1.48903
127 5.38079 -4.89861 -7.67066 0.211557 1.54363 -0.555159
3300 5.4243 -5.44755 -6.92551 0.0652734 -0.915432 3.07058
1050 5.56493 -4.66096 -6.36408 0.862118 -0.464072 0.158714
423 6.31252 -4.99455 -7.09127 0.225721 0.180449 2.27347
710 6.27311 -5.318 -6.19003 -2.40929 2.61723 -0.951698
474 7.2009 -4.83887 -7.54613 1.75673 0.776756 1.7269
419 6.9195 -5.74857 -7.64304 1.44139 0.0463879 0.625092
520 7.10714 -5.11453 -6.61667 2.53475 1.14752 -0.791262
385 8.98804 -5.44066 -7.59617 0.840419 -2.22122 1.87323
480 7.84163 -5.65328 -7.04268 -1.55463 -0.736901 -1.31732
477 8.20008 -4.76874 -7.18123 -0.746248 -1.83087 -2.82879
676 8.81566 -5.34197 -6.65167 2.21294 -0.364516 -2.41095
435 -8.2406 -4.44551 -6.76114 -1.1121 0.263055 -2.89412
439 -8.13775 -3.48492 -6.57743 0.200045 5.52681 0.216502
525 -9.08673 -3.55438 -7.12873 0.189645 -1.67919 1.8516
777 -7.44625 -4.05115 -7.11903 1.49405 0.704989 -1.41249
496 -6.56039 -3.17736 -7.26173 0.878373 -0.916113 -2.26624
778 -6.56521 -4.01712 -6.44688 1.6281 -0.603221 0.303336
1102 -7.24669 -3.1377 -6.39409 -1.45184 0.617723 2.07867
685 -5.61934 -4.59006 -6.31406 2.61842 -1.96233 0.707014
251 -5.88376 -4.03978 -7.47282 -2.00168 0.707561 -0.426539
1114 -5.70579 -3.46386 -6.68035 2.30963 -0.229372 -1.24552
160 -4.86487 -4.22903 -7.28859 -1.05598 -2.40095 -3.64601
396 -3.97915 -4.11456 -7.15071 0.072068 -1.83746 0.971286
830 -3.55379 -3.41927 -6.56162 1.38987 1.55174 -0.831606
1354 -4.57612 -3.60327 -6.54712 0.804079 0.802363 -1.97498
789 -2.69036 -3.38854 -7.2875 -2.13253 -0.639948 1.77655
834 -3.09529 -4.22423 -7.37677 -0.200221 -0.0321814 -0.483956
1365 -2.76474 -4.42255 -6.23028 0.927543 0.899698 -0.328755
1074 -2.09106 -3.81074 -6.68642 0.70804 0.442161 -1.49178
547 -1.65497 -3.56008 -7.47076 -1.30083 -0.374114 0.976544
792 -0.957553 -4.18991 -6.45982 2.34289 -1.05882 0.945118
168 -1.13903 -3.10245 -6.5542 -1.05348 -2.39826 0.855886
557 -0.670483 -3.35314 -7.43015 -1.81116 -1.99628 -0.613206
220 0.672339 -4.16352 -6.36221 -2.53121 0.150697 0.139135
551 0.66262 -4.04223 -7.38163 0.961888 0.173734 -0.381066
797 -0.17597 -3.41051 -6.56823 1.23371 -0.559093 -0.172448
3434 1.59551 -4.12115 -7.53309 1.23428 -3.50455 0.889284
506 1.70982 -4.09569 -6.56329 1.56528 -1.69549 -0.0760688
3483 0.992876 -3.30303 -6.88155 2.33579 -2.54387 2.34425
177 2.38217 -3.5021 -7.51118 -0.743799 0.370526 2.04388
465 2.46007 -4.5965 -7.60975 2.0456 2.39138 0.182355
1041 2.83274 -3.92453 -6.50017 -0.8226 1.18916 -0.828799
517 3.30566 -4.3525 -7.15624 -2.10466 0.272754 -0.176781
3303 4.53126 -3.87561 -7.23047 -0.711256 -0.206627 2.28319
223 3.76885 -3.42892 -7.39108 -0.400006 0.279599 1.30765
473 3.80601 -3.72298 -6.46671 0.506954 -2.36875 2.38841
754 4.54531 -4.34361 -6.30532 0.0840228 -1.62686 -1.38613
476 4.93958 -3.18885 -6.35161 3.28586 1.19607 0.301415
1098 5.54969 -3.7931 -6.90823 2.10274 -1.75467 0.181562
524 6.13695 -3.37509 -6.24141 1.79846 -1.84854 -0.215438
478 6.46246 -3.48845 -7.43367 -2.60834 0.304907 3.08582
761 7.55998 -4.02935 -6.83389 0.354955 -2.07692 1.14523
565 7.56714 -3.15598 -7.67373 0.188009 1.83123 0.755706
816 6.62351 -4.19626 -6.51957 2.27471 2.34046 -1.81843
769 7.07599 -3.16795 -6.75131 1.55964 -1.04468 1.33463
112 9.06316 -4.52396 -7.18774 0.873514 0.291286 0.793104
433 8.42885 -3.62518 -7.08085 -1.45085 -0.351797 -1.71204
675 9.0589 -4.504 -6.22334 1.68512 -0.450531 -1.07245
194 -8.50988 -2.5211 -7.30305 -2.22948 -0.428703 -1.03715
247 -8.81621 -2.63961 -6.23483 2.23167 -0.930482 -3.11481
199 -7.85456 -2.38968 -6.40559 -3.30303 -0.879312 1.07569
243 -8.55642 -1.68846 -6.6322 3.28609 0.0441851 2.95208
3755 -7.5725 -2.97996 -7.32834 -1.89933 -0.161338 -0.0975129
4044 -7.67312 -1.93592 -7.6215 -1.25809 2.74203 -2.26003
3751 -6.89151 -2.25124 -6.92532 1.47024 -2.108 -1.16243
256 -5.00544 -2.7096 -6.97456 -3.40432 1.32764 -0.800981
252 -6.03006 -2.19901 -7.42686 -1.94309 -0.665102 -0.571493
539 -5.8565 -2.47864 -6.47136 -0.270682 2.26159 -2.90092
3328 -4.23817 -2.23643 -7.50303 3.27979 0.483785 2.11868
205 -3.67749 -3.04354 -7.43965 -1.82456 0.948896 -0.357671
543 -3.81113 -2.53987 -6.52907 -0.049636 -2.16366 0.0668518
831 -4.58458 -1.90834 -6.39684 0.595099 3.15008 2.2489
452 -2.98404 -2.47507 -7.14263 -0.638175 -0.614581 -1.09861
741 -3.07602 -2.04617 -6.16113 0.512727 -1.66228 -2.49051
3765 -2.28709 -1.74828 -6.59258 1.21035 -0.0467954 0.156182
548 -3.33167 -1.56686 -6.86555 1.72063 0.648185 0.0661723
215 -1.33722 -2.29789 -7.51469 0.491393 -0.266018 0.413487
211 -2.00015 -2.79897 -6.87999 -1.70118 1.98468 2.9539
264 -1.38829 -2.15486 -6.38847 1.12083 -0.258295 1.01184
3379 -0.361625 -2.42185 -6.87288 -0.553803 0.110283 -1.96751
515 0.437735 -2.47788 -7.37304 -0.700939 -3.15745 2.76562
794 0.656746 -2.35863 -6.49219 3.35258 0.537984 -3.45713
791 1.99997 -3.05828 -6.41519 0.512153 -0.904486 -2.25375
470 1.5767 -2.33192 -7.20072 -0.600788 0.616262 1.25007
852 1.49177 -2.41067 -6.16272 2.44411 -1.16522 -0.0413673