ITEM: TIMESTEP
176000
ITEM: NUMBER OF ATOMS
6912
ITEM: BOX BOUNDS pp pp pp
-9.2265715179435492e+00 9.2265715179435492e+00
-9.2265715179435492e+00 9.2265715179435492e+00
-9.2265715179435492e+00 9.2265715179435492e+00
ITEM: ATOMS id x y z vx vy vz
1639 -5.2929 -3.57548 -0.0135516 1.09208 -2.24631 1.84236
5 9.00968 -8.86895 -8.77825 -0.384608 0.434216 -0.515056
338 -8.38299 -8.13237 -8.35159 1.92293 1.55509 -0.630022
56 -7.59248 -8.79399 -8.80462 -1.76627 3.13367 0.450154
1521 3.49855 -9.24325 -0.306008 -0.868371 -2.27916 1.96876
105 -5.98218 -8.50757 -8.87419 0.269705 -0.690441 -1.10995
3787 7.06817 9.21522e-05 -5.46155 -2.41267 1.25416 -0.821693
3177 -5.7391 -7.54601 -8.48033 -0.706514 1.2506 0.554688
2895 -5.57028 -8.40168 -7.82528 2.04499 -0.287682 -3.54566
16 -4.99655 -8.15862 -8.69156 -1.72312 1.10999 0.0951118
253 -3.81921 -1.00857 -8.70035 -0.264556 0.931062 -1.51123
3709 -4.55849 -8.40853 -7.85007 0.870503 0.538336 -1.93697
298 -3.93434 -7.5347 -8.45047 -0.441899 0.866225 0.352223
61 -4.05063 -9.0958 -8.55131 3.06845 1.37207 -3.47175
3711 -3.5112 -8.3582 -8.07126 -0.0593511 -0.0219745 -1.1628
66 -2.44503 -8.41071 -8.60523 1.0285 -0.0699583 0.351288
20 -2.61677 -9.00476 -7.89527 2.19138 0.905391 -0.0711233
621 5.71348 -9.00138 -6.37043 -0.493705 1.08349 -3.02495
4008 -1.2805 -9.10102 -7.70789 -0.324114 -0.0760494 1.305
67 -1.66951 -8.17666 -7.92641 -0.284439 3.40984 -1.45087
3717 -1.51171 -8.6031 -9.02236 -0.00937103 -0.549811 -1.72394
4911 -4.60358 -1.12304 -0.13358 -0.615066 -0.246945 -0.617057
3352 5.89354 -5.6947 -8.78863 1.04516 -2.79501 -0.662718
1729 -8.89709 -8.99563 -0.253875 2.51531 2.28998 3.30999
316 0.308277 -8.37371 -8.2798 -0.580649 0.850564 -1.00684
3720 -0.704634 -8.2126 -8.37739 0.19547 -0.405991 -2.01981
366 0.639075 -8.7891 -9.11538 0.343914 -2.20757 1.32989
320 1.33983 -8.34942 -8.41449 0.0856665 0.135961 -1.28774
869 -6.46273 -8.83216 -3.49951 -2.14857 2.46119 -2.93283
36 2.38661 -8.88361 -8.55035 5.95508 1.81966 2.11742
40 3.38797 -7.57351 -7.61422 -0.106703 -1.03977 0.195383
28 3.3639 -8.18238 -9.23089 -1.04743 1.21323 -1.20423
3199 3.2277 -8.68872 -7.7963 -2.40362 0.869438 1.78409
4375 -5.12071 0.0194827 -4.85324 0.136953 1.78333 -0.913102
39 4.05592 -8.23297 -8.32516 -1.70279 1.92816 -0.351347
326 4.94103 -8.27701 -8.10036 1.23589 1.61028 1.55082
370 3.46039 -7.20621 -8.87666 -1.15461 -1.41016 1.01177
548 -2.3379 -0.135339 -7.55453 2.5966 -0.727073 0.180091
87 5.01294 -8.99588 -9.03208 0.390307 -2.15445 2.18088
379 5.74653 -8.46033 -8.49701 3.74329 -0.382928 1.89664
667 6.45781 -8.00101 -7.8141 -2.11531 2.15568 -0.770729
330 6.84217 -8.69013 -8.48418 0.796282 0.351646 -1.3042
334 7.57771 -8.0518 -8.74551 -0.233885 -1.3851 0.105601
98 -8.12174 -4.57672 -9.01196 -0.180946 1.22812 1.79568
562 4.09719 -0.0479463 -6.09686 -0.876205 1.27316 0.220475
4030 7.26903 -8.81514 -7.46241 0.717829 0.589553 -0.392604
46 8.50547 -7.83059 -8.41349 -1.49134 3.93073 3.1511
1974 -6.6074 -0.133199 -0.0205759 0.27826 -0.38277 -0.479344
4609 -8.05051 -0.373014 -3.52071 -0.536562 1.18909 -2.12197
8 -7.56669 -7.76089 -7.80829 1.82418 -0.683669 1.44103
387 -8.17668 -6.47129 -8.48638 1.17564 -0.102415 -0.6561
101 -7.74996 -7.91258 -9.12639 1.02445 1.96142 0.377368
55 -6.89129 -8.21534 -8.33543 3.32521 -2.03273 -0.864164
389 -7.39802 -7.11743 -8.80829 -1.1501 -1.38187 -1.82188
342 -6.52972 -7.67638 -9.07138 1.84418 -1.80835 0.928857
393 -6.32046 -6.63044 -8.31987 1.56137 -1.09559 -0.247149
12 -4.71739 -7.43411 -7.90927 0.310917 -0.784677 1.58443
2040 -2.05987 -9.17705 -0.189698 1.04657 1.29336 -1.69547
348 -6.75514 -7.40109 -7.85966 2.03546 0.972362 -0.203146
60 -5.07661 -6.16995 -8.79181 -1.39438 -0.150688 0.836859
346 -5.40584 -6.74743 -8.04026 0.875153 -0.660312 0.933657
352 -3.93151 -7.54518 -7.27139 -0.410493 -0.781327 4.28796
107 -3.15444 -6.80473 -8.66556 2.21192 -2.76661 0.996217
350 -4.32149 -6.67132 -8.71457 -1.13156 0.486524 -0.662361
399 -4.10719 -6.58596 -7.69519 0.050038 -1.48258 -2.73606
3716 -2.87279 -7.74456 -9.07067 -1.54831 -0.283011 -1.17535
401 -2.73519 -6.25415 -7.85367 -1.98207 0.887526 0.697251
65 -2.27424 -7.34723 -8.10362 1.53492 -0.356395 0.366902
404 -1.65091 -6.7315 -8.502 2.8572 0.0485877 -1.63744
358 -0.727258 -6.92375 -8.75411 0.744583 0.825223 -0.346093
76 -1.0387 -6.26766 -7.9058 -0.745897 -0.839552 3.93425
1959 4.81731 -3.31044 -0.11161 0.149244 0.713955 -1.32987
3239 0.0319355 -7.38168 -7.87889 -2.89052 -2.25958 0.229516
70 0.276223 -6.61843 -8.45414 -0.172947 -1.87248 0.539486
413 0.783883 -7.56325 -8.56503 1.61671 1.94944 0.426759
77 1.70531 -7.59334 -7.99052 0.982116 0.650357 -1.19843
417 1.83885 -7.2589 -8.8522 1.82536 -0.346197 -0.18975
1611 1.6285 -5.20342 -0.16686 -1.76205 -1.67692 0.0895866
462 1.2003 -6.75064 -8.01792 2.69197 0.349765 -0.158049
4112 2.22328 -0.191078 -7.44882 -0.882717 -0.603684 -1.93674
654 2.7612 -7.95232 -8.41887 -1.05483 1.12481 -0.10674
703 2.65495 -7.00705 -8.14245 -0.347987 -0.528231 -1.0234
172 1.98306 -6.28639 -8.38638 0.361746 0.229548 0.993113
418 2.76162 -6.55219 -8.97295 -1.15656 0.729434 -1.96536
469 3.60137 -6.68467 -7.91153 -1.32836 1.36269 1.9652
322 4.37458 -7.25593 -7.92527 -1.48806 0.0855596 0.16654
332 4.51556 -6.18463 -7.89523 -0.967519 0.295913 3.08636
6 -6.41819 -9.02655 -8.15549 -0.994964 -2.10313 -0.219799
89 5.76756 -7.51983 -8.29512 0.885485 -1.83335 1.60055
91 6.8044 -7.47017 -8.47149 0.958443 -0.745802 -0.440153
3992 -7.44217 -9.17118 -6.35391 0.399929 -1.53839 -0.249714
430 7.39487 -6.72232 -8.17891 -1.23609 1.44715 -1.05074
139 6.1564 -6.54197 -8.20078 0.0428916 2.26098 1.43217
425 6.28567 -6.24565 -7.16599 1.96753 0.00748241 -1.64235
384 8.3951 -6.80051 -8.18928 -0.956131 -0.176223 2.31652
3988 8.45686 -8.78481 -7.19033 -1.94903 -0.38743 0.944217
383 -9.18362 -7.16099 -8.38195 -1.65878 1.49138 -1.87659
4 7.85974 -7.09999 -9.04121 3.30571 0.687745 -2.20445
142 7.30779 -6.0738 -8.87606 -0.440292 0.524727 -0.603036
104 -8.34225 -5.38084 -8.3497 -1.53792 -1.94589 1.49404
390 -8.06032 -4.81017 -7.44914 0.202416 -2.35508 -0.81405
151 -7.08878 -5.92802 -8.52009 0.0849242 -1.0153 0.855352
152 -7.33794 -4.86236 -8.42682 -0.378325 0.795378 2.09324
677 -7.46664 -5.59354 -7.67054 -0.0735747 0.692546 2.76469
396 -6.49282 -5.02218 -7.94774 0.479489 0.52754 0.809057
441 -6.03562 -5.54739 -8.85354 1.44863 0.087462 1.11182
64 -5.10692 -5.25236 -8.54115 1.30624 2.69027 1.28936
155 -5.71733 -4.54955 -8.45237 1.44628 -1.03874 -1.55131
394 -5.82754 -5.64845 -7.85748 -2.83869 -1.20785 -0.79865
1699 -2.00623 -1.8277 -0.0799962 -1.22722 -0.175038 -0.642778
3187 -3.1218 -8.99292 -8.85538 0.0605914 -0.843979 1.06925
159 -4.04542 -5.15681 -8.39525 -0.357261 -2.2397 0.146637
398 -3.30657 -5.88194 -8.48793 0.999332 -0.442131 4.31745
68 -2.595 -5.35273 -8.2385 -0.873441 -1.54343 -0.0475858
405 -3.53438 -5.67819 -7.42914 -1.60923 0.614756 -1.14996
734 -2.59033 -5.07703 -6.95879 2.05677 0.169332 1.9461
119 -0.91268 -5.20429 -8.84583 -2.73066 -1.32864 1.949
5112 -1.14719 -8.65962 -0.866031 1.27044 2.38264 1.54771
407 -1.62117 -5.78306 -8.60881 1.7034 -1.00279 -0.0707197
408 -0.293458 -5.84151 -8.40263 2.18571 -0.14802 0.125716
368 0.487797 -5.95251 -7.70387 -0.546842 -2.26326 -3.97232
456 0.25931 -5.28811 -9.11488 -1.30949 -0.389444 0.549249
941 1.11755 -6.00626 -8.59316 1.90744 -2.45996 -0.992348
414 1.83243 -5.37257 -8.3124 -3.50476 -0.14564 -1.39618
4918 -2.09276 -0.104269 -0.0353367 -0.0725639 -0.94631 3.60915
1792 -3.9581 -5.22925 -0.0109178 1.75237 -1.06799 0.804662
705 2.90936 -5.8578 -8.21262 2.34824 -1.95336 1.65358
3493 5.08991 -0.1461 -7.3705 -0.870219 -1.15528 -1.94053
461 3.30693 -4.56652 -8.86818 -1.32007 -1.03703 1.0045
183 3.90258 -5.44075 -8.00185 0.986521 0.259196 2.84253
3436 0.646107 -1.39937 -9.05933 -0.194031 -2.08534 -1.14589
3351 5.11793 -5.022 -7.98311 -0.353117 0.430039 2.69632
3304 4.17002 -5.20902 -9.03581 0.487247 1.44426 2.45743
132 3.65668 -6.05845 -8.86025 -2.99233 1.53181 -0.710294
134 5.71284 -5.69323 -7.67466 0.174207 2.31315 0.693184
140 6.23551 -4.9472 -8.13143 1.72602 0.812135 -1.11114
477 5.61653 -4.66567 -7.14442 -1.16703 -0.0665363 0.142292
137 5.24534 -6.75267 -8.2934 0.981703 -3.70043 2.33432
144 6.83315 -5.71504 -7.92188 0.75015 1.61129 -0.627315
478 7.26367 -4.73252 -8.0612 -0.0261866 1.50315 -0.0405332
191 7.03927 -5.1273 -9.02681 -4.72808 -2.31325 -0.263909
382 8.98924 -6.30648 -8.82782 1.1828 -1.89671 -0.671824
385 8.99514 -5.24183 -8.76484 -1.24702 1.58549 1.89547
100 8.04487 -5.43722 -8.53741 1.94011 -0.548641 0.0587695
434 -8.6246 -3.34165 -8.49084 0.563683 1.41308 -0.455913
440 -8.46806 -4.34033 -8.1675 -1.99909 0.388966 1.92167
435 9.0968 -3.8375 -7.65256 -0.503789 2.13999 -0.210179
150 -6.64872 -3.97796 -7.80075 3.25246 -1.36931 1.26679
199 -6.75159 -3.31618 -8.63807 0.230432 1.86164 0.727245
438 -6.69813 -4.22125 -8.73122 -0.0742156 -0.988982 -2.29503
3368 -7.69337 -3.79722 -8.61124 -1.30473 1.46576 -0.106226
3327 -5.81595 -3.60996 -9.05466 -1.38884 -1.27279 -2.67561
157 -5.77848 -3.9259 -7.69955 0.974706 0.729673 1.42145
161 -5.07578 -3.58367 -8.40932 0.0902924 -1.99273 2.37153
494 -5.13044 -4.66238 -7.76361 -0.382582 -0.446388 -3.23511
449 -4.43541 -4.27367 -8.63525 1.13158 -3.1209 -1.24503
4364 5.71493 -0.0528145 -2.42148 1.81471 -0.463566 -0.504261
164 -3.43754 -4.39969 -8.72232 1.03935 2.79756 -2.32565
497 -3.15451 -2.85996 -7.6237 -0.458824 -0.868429 1.38221
402 -3.08762 -3.45946 -8.49952 -2.6731 5.09953 -1.09421
162 -3.97438 -3.27414 -8.75171 0.822526 -1.84764 3.24808
165 -2.28971 -3.45021 -9.03995 0.100662 -0.819106 0.775062
403 -2.35427 -4.09881 -8.20469 -2.51079 -2.37839 1.5786
250 -4.55701 -0.254567 -8.92896 2.08532 0.531046 -1.0738
216 -0.746048 -3.64595 -9.107 1.25578 0.514314 0.207435
219 0.835618 -3.34713 -8.49981 -0.365279 0.246175 0.770358
4341 -2.20385 -0.191849 -3.83656 -0.712703 -0.334785 0.708021
698 -0.248894 -4.38501 -8.54837 0.168554 2.65322 -1.33167
904 3.77294 -8.89952 -2.28907 -2.35703 -0.805773 2.33501
412 0.58475 -4.16082 -7.96748 0.855629 0.419727 0.909917
559 1.5668 -4.40703 -8.44508 -1.2893 -1.28905 0.786171
222 1.81232 -3.35878 -8.41875 -2.93957 0.496782 0.892921
349 -3.01769 -8.85962 -6.56562 1.88532 0.276823 -0.781619
472 2.53284 -4.83263 -8.02643 1.23442 -0.831484 -0.157486
177 2.59606 -3.87096 -8.48007 0.422982 -2.29275 1.09114
3403 7.22905 -3.13896 -8.91179 -3.07422 0.217936 0.853475
184 4.49803 -4.29517 -8.40968 -0.282789 -1.94793 -1.01418
518 4.54278 -3.11985 -7.87713 0.32209 1.15369 -0.284593
179 3.53809 -3.41113 -8.13927 -0.953587 1.46266 -2.99899
1189 2.95871 -9.20543 -1.59931 0.457841 -1.56825 -2.36532
187 5.21979 -4.67631 -8.90394 -0.657483 0.983347 2.25098
426 5.5822 -4.10194 -8.16706 0.418063 0.946767 -1.19286
192 6.76551 -4.18955 -8.85339 1.29694 1.81581 1.3696
235 6.36792 -3.27178 -8.5375 -2.08934 1.96071 1.39012
525 7.05284 -3.73892 -8.01112 -1.16828 -2.96129 0.693303
388 8.43018 -4.55242 -8.18854 1.18673 0.524672 0.901919
146 9.11356 -4.15068 -8.6698 1.26208 -2.5801 1.22613
239 7.99665 -3.69378 -8.31635 -2.74417 2.38505 3.11445
148 7.74068 -4.42949 -9.03703 -1.93378 -2.25433 -1.18924
433 8.70338 -2.95778 -7.98808 0.161536 -0.670708 0.811466
1516 -1.86732 -8.83653 -1.62015 0.354101 -1.71273 1.23249
245 -9.21287 -2.34984 -8.52026 -3.1257 -1.35907 -2.40628
242 -8.55486 -1.75716 -7.93665 -1.05845 0.232443 -0.212138
200 -7.39676 -2.91225 -8.04468 -1.61966 -1.82105 -0.221087
198 -7.13347 -2.38201 -8.89783 0.347367 -2.199 -2.10863
247 -8.15742 -2.204 -8.65822 -2.41323 2.27339 -1.84707
202 -5.73477 -1.6138 -8.1505 -1.12834 2.79889 1.39684
489 -5.82578 -3.04479 -8.12496 0.0450139 -2.04747 -0.580837
3328 -4.957 -2.07876 -8.43572 -0.546115 -1.05134 0.650088
154 -5.9263 -2.47644 -8.91474 -0.42118 -0.595349 -3.87116
493 -4.60796 -2.82583 -8.01396 1.27578 -1.71499 -0.847286
205 -4.79233 -2.85164 -8.98493 -2.36257 -1.24426 0.161148
546 -4.17619 -1.68676 -8.05236 -2.28995 1.75201 2.00559
230 5.66355 -2.88185 -9.18829 -1.69863 -0.568116 -1.51166
210 -2.79699 -1.52598 -9.08125 -1.88276 -1.89102 0.27981
543 -3.62992 -2.38059 -8.2835 0.940643 -0.00957251 0.490121
209 -2.40706 -2.43423 -8.1279 1.19182 -0.447377 -0.325459
3375 -3.18642 -2.73153 -9.17902 0.389102 0.87525 -1.39139
211 -1.34941 -3.01105 -8.71758 0.25115 2.144 -1.1247
498 -1.27547 -2.04068 -8.77622 -1.09852 0.620528 0.360713
215 -0.137296 -3.27415 -8.35001 0.736844 0.122813 -0.98858
547 -0.29987 -2.26771 -8.52393 -1.82182 3.45869 -1.12027
130 2.91226 -5.5445 -9.20727 3.08527 1.5831 1.499
3431 0.560148 -2.45866 -8.13484 1.96276 -1.36698 -0.575212
42 6.28433 -9.02557 -9.15231 1.13902 2.97387 0.648723
502 1.36657 -2.54094 -8.76816 1.66605 -2.02783 2.00915
557 1.60366 -2.51653 -7.75336 1.65713 -0.779668 -2.78877
5151 -2.99954 -8.99007 -1.44972 0.182648 -1.93653 1.84251
223 2.72675 -2.8911 -8.00936 0.938314 -1.25549 2.12763
226 2.21675 -2.15946 -8.59763 -1.60702 1.34191 1.25214
178 3.3174 -2.27233 -8.66726 2.36083 1.08142 -0.781435
274 2.80244 -1.19391 -8.8951 -1.60304 -1.41233 -1.0789
277 4.16888 -1.96823 -8.0725 2.10267 1.64075 -0.146165
180 4.13417 -2.90903 -8.73815 0.731256 -0.50697 -1.82072
280 5.22848 -1.75936 -8.00885 1.32474 -0.584213 -1.16028
236 5.04321 -2.51448 -8.57442 0.498802 0.425519 0.114073
281 5.72244 -1.76182 -9.08999 -2.11636 0.573468 -0.282454
288 7.18717 -1.87387 -8.08851 2.41488 -0.829755 1.6672
522 5.85385 -2.47046 -8.18765 0.455103 -1.16355 0.256573
234 6.58817 -2.3731 -8.8498 -2.07971 -1.45851 -1.19322
526 7.76467 -2.72785 -8.13219 2.63982 -1.26297 1.10924
287 8.38038 -2.75383 -8.9029 1.28703 4.60969 -1.95462
243 8.92563 -1.16518 -8.22585 -0.296251 0.318267 -2.74748
196 8.28146 -1.60717 -7.59246 0.29983 -0.774089 2.30764
244 8.96501 -0.267318 -7.66209 1.30395 -0.848189 -1.66698
530 -9.04191 -0.147179 -8.59274 1.24218 0.670121 -0.267012
3459 -7.68908 -0.646585 -7.57442 1.94935 0.286852 -1.36874
3413 -8.68385 -1.30631 -8.85146 0.802678 -0.587429 2.19818
3750 -8.63298 -0.699125 -7.8895 0.367633 -0.454455 -1.02645
534 -6.43954 -1.60556 -8.81071 0.824968 -0.991614 1.38586
204 -7.3062 -1.45246 -8.21106 0.74408 -0.245299 1.39457
2185 -1.4544 -4.31637 -0.0243559 -2.00252 -0.829623 -0.453748
3463 -6.69213 -0.738533 -9.21267 -1.15006 -1.56837 1.13322
3416 -7.68194 -0.469009 -8.48595 -1.32813 -0.0438371 0.5231
252 -6.69092 -0.590379 -8.04361 -1.21756 0.102835 -1.01478
3753 -4.87505 -1.12401 -8.54834 0.413512 2.03475 -1.5969
246 -5.81635 -0.600531 -8.77605 -3.72707 -2.31297 -1.16828
5106 -2.23566 -9.17203 -2.52323 1.93285 -0.0169745 2.72193
3472 -4.80467 -0.306079 -7.94912 -1.83183 -0.667275 1.93888
257 -3.47776 -0.363848 -7.74608 2.85764 0.891931 -0.266911
1724 6.42486 -1.61563 -0.107674 1.10374 -1.31236 0.381465
264 -2.0501 -1.57819 -8.46168 -1.47353 0.23864 1.28579
3474 -2.59922 -0.724197 -8.44682 1.0716 -2.08004 1.16532
3765 -2.62648 -1.0452 -7.50163 -1.23532 -1.17454 1.26448
6359 -0.619017 -0.444942 -7.98708 -0.33297 -0.424931 -3.26833
3813 -1.31537 -1.15988 -9.07387 0.437186 -1.54952 5.24817
3767 -1.04967 -1.50309 -8.00179 0.338071 -0.841851 -1.73071
259 -1.6529 -0.771905 -7.84516 1.66335 1.69175 0.563592
450 -2.37909 -4.51871 -9.08844 1.21143 -0.0705608 0.218938
261 -0.311198 -1.37378 -8.65448 0.966624 2.32295 1.22908
111 -4.2714 -5.77848 -9.1535 1.79749 -0.437886 -0.970261
3480 0.228198 -0.670608 -8.46027 0.87056 -4.17833 -0.648093
268 0.288882 -1.4745 -7.87213 -0.538596 -0.601989 -1.0649
4058 1.46931 -1.45701 -8.36006 2.38791 -3.01312 0.403034
3481 1.26367 -0.620131 -8.03789 0.175573 1.78067 -0.785331
3492 2.23609 -0.471684 -8.68933 0.57157 1.0782 -0.601563
6651 2.10697 -1.15032 -7.68074 -2.37471 -0.0171744 -0.110813
6647 1.23209 -0.695052 -9.10201 0.84927 2.09218 -0.889891
3823 2.96649 -0.602383 -7.9758 0.651626 -2.01182 -0.956158
271 3.3649 -0.299008 -8.92611 2.84768 -0.856109 0.253048
1798 -0.298636 -8.98076 -1.42937 0.358526 -2.49114 -0.9124
5197 -4.44656 -2.17655 -0.282737 -1.42318 -2.18756 2.39507
95 5.89982 -7.18663 -9.17616 -2.14385 -0.672431 -4.23109
269 3.80088 -1.07921 -8.36065 -1.62663 0.651545 -0.31377
3462 -7.64658 -1.24334 -9.08826 2.33336 -1.10156 -0.661494
284 4.62347 -0.512521 -8.11756 -3.32535 0.279041 2.99333
3487 3.69011 -0.796054 -7.44117 -1.49224 -1.48894 -0.813015
3449 4.68876 -1.35975 -8.61415 0.149738 -1.92147 0.651694
3447 5.52861 -0.81713 -8.68798 -0.478899 1.57611 1.23339
3497 6.43542 -0.27604 -8.49359 -1.03125 -1.13274 1.56456
283 6.34464 -1.24818 -8.40528 1.46758 2.08319 -2.97399
3839 7.38832 -0.962873 -8.5693 2.22779 -0.312793 0.942292
3786 7.46509 -0.121639 -7.98092 -0.679835 -1.2895 -0.584778
3503 8.08802 -1.67181 -8.68674 0.23816 -1.53075 0.252103
532 8.33545 -0.349864 -8.50678 0.567197 1.25806 0.770947
574 8.01887 -0.588077 -7.25448 -0.989981 2.63703 0.910662
341 -8.48398 -8.95793 -6.74767 0.502198 0.666199 -0.525012
7 -6.43693 -8.23794 -7.37447 -0.13391 1.14578 -1.46333
19 -1.90463 -7.55431 -9.0423 0.200331 1.34341 0.966619
293 -7.61583 -8.61787 -7.30292 0.836374 0.212978 -0.880302
11 -5.01861 -9.11836 -8.35344 -0.273282 0.938404 0.948542
343 -6.35786 -7.38059 -6.71226 -0.944671 3.48235 0.557689
635 -6.83851 -8.38681 -6.49852 -2.62387 1.19488 -0.84002
637 -5.51007 -8.2568 -6.26526 2.87483 1.6205 -0.973962
633 -5.62609 -7.50576 -7.3673 0.0181243 0.192467 -1.7527
345 -4.67532 -9.05024 -6.88489 0.394343 -1.49997 1.31032
925 -4.68154 -8.22728 -5.8574 -0.323549 0.670133 -2.1549
586 -5.85763 -8.86288 -6.87221 1.16777 1.72753 -0.797082
302 -3.03847 -7.51128 -6.62778 0.93104 3.29515 -0.545076
347 -4.75707 -8.03994 -6.8382 -2.09445 -0.285495 2.24279
2009 8.16159 -0.788682 -0.23492 -0.405966 -0.160204 -4.13474
590 -3.57005 -8.07245 -6.13713 -2.12391 0.559205 1.29217
4001 -3.86835 -8.50902 -7.18267 -2.04561 -2.48472 -0.566408
1668 3.11936 -1.2395 -1.06226 1.47936 -3.43549 -0.633555
353 -2.3181 -8.20109 -6.56646 0.1881 -3.1699 1.53401
303 -1.96203 -9.0674 -6.9874 -1.34582 -0.112794 0.670244
311 -2.73402 -8.11503 -7.52022 -0.568277 -1.91047 0.130152
597 -0.628002 -8.94917 -6.99548 0.993465 0.974208 -0.859189
645 -0.36791 -8.25027 -6.28095 -0.265488 0.931987 -1.74544
310 -1.4013 -8.14519 -7.04936 -0.562346 -1.95483 0.625531
24 -0.369741 -8.04087 -7.2275 3.72702 1.7627 1.80033
890 0.349648 -8.83924 -7.06337 1.55125 -4.27949 -1.20867
606 0.824447 -7.98741 -7.42931 1.24749 1.80365 -0.170306
649 0.930083 -8.89705 -7.80475 -2.40676 1.35628 -0.437819
321 1.41452 -8.6359 -6.96953 1.35365 -1.28208 3.05656
315 1.31285 -8.42699 -6.03981 -2.45044 -0.0784147 1.95725
319 1.56124 -7.67241 -6.92207 -0.954798 -1.97781 2.08303
3732 2.36395 -8.59837 -6.68497 -1.01892 -0.623793 1.05708
33 3.43923 -8.23712 -6.86526 -4.59993 -0.976428 -2.26967
607 2.41491 -8.1796 -7.57173 1.48936 -2.58367 0.750238
327 4.14854 -8.5245 -7.35923 -0.258224 3.33679 -1.91829
614 4.16678 -9.03668 -6.3976 -2.94346 -0.490613 1.8745
661 4.3017 -7.64324 -7.03505 2.78514 -1.97872 0.847305
1971 -8.99785 -0.348359 -0.306425 -1.55949 -0.637623 0.222903
375 5.02446 -8.38691 -6.97454 2.21358 -0.968964 -0.0985864
333 5.72725 -8.9347 -7.5323 1.32486 0.0759586 -0.232257
4068 2.38949 -0.158766 -3.68296 1.56934 2.36269 -1.8201
5183 9.07114 -9.11639 -1.81749 -1.27896 -0.410472 2.18753
378 5.21888 -7.47346 -7.46597 -0.229727 1.63489 2.19235
427 6.13806 -8.05007 -6.85607 0.157924 0.359697 -2.21373
335 7.30397 -7.85899 -6.99698 -3.07393 0.773945 3.50358
672 6.89608 -8.38042 -6.28728 0.267326 0.676657 -0.374974
3700 9.13115 -8.37187 -7.75184 -2.32646 0.781974 0.00972461
289 7.81125 -8.17693 -7.79147 -0.989692 0.816024 -3.15323
290 9.15793 -8.23002 -6.7225 1.52004 -0.16944 -3.30817
622 8.97837 -7.5016 -7.42811 -0.837887 -3.18177 1.31299
577 7.83629 -8.68673 -6.43879 -2.48712 0.871545 -1.49761
340 -8.99276 -6.22913 -7.85695 -1.15605 -1.26744 -6.07223
578 -8.35216 -7.98542 -7.25983 -1.62247 -1.46486 -1.84043
339 -8.53697 -7.13299 -7.72963 0.201281 -0.01471 -0.0713479
632 -8.49377 -7.30206 -6.61935 -0.542523 -1.83069 -0.516812
719 -9.05997 -6.45538 -6.8749 -1.07141 0.826003 3.05155
296 -7.4031 -7.66459 -6.77734 0.00204016 2.28206 1.86174
344 -7.47143 -6.59351 -7.77518 0.172694 0.73747 -0.169825
674 -8.01295 -6.54746 -6.91398 0.629156 1.0298 0.852072
629 -6.89413 -6.6583 -6.94938 1.25505 0.449291 -3.00491
630 -5.85659 -6.53292 -7.17963 0.438394 1.028 -1.00645
973 -5.2897 -7.33511 -6.27983 -1.53283 1.69555 2.68313
356 -4.24873 -7.26484 -6.4477 0.170174 -2.36768 0.0214049
634 -3.71874 -6.41717 -6.86798 0.823508 0.644754 1.03531
304 -4.89778 -6.71912 -7.07163 -0.582329 1.33175 1.45539
974 -4.58025 -6.42936 -6.21579 -0.830042 0.526268 0.543292
3236 -3.2618 -7.09339 -7.80815 -0.753009 -0.172503 2.67595
447 -2.13741 -7.30419 -6.29179 1.43556 -0.837955 0.731915
642 -2.50009 -6.74247 -7.1255 1.47352 -0.142187 0.381924
696 -1.81132 -6.37082 -6.43702 1.51499 1.1852 -0.585402
641 -1.18172 -7.81586 -5.91323 -0.391894 2.35453 2.73441
354 -0.917532 -7.3138 -7.91809 -0.506284 -1.59236 0.366583
357 -0.883462 -7.22505 -6.76452 -0.482009 2.03396 0.531365
351 -1.65977 -6.98272 -7.44238 0.82141 -1.8488 -1.53315
355 -0.885606 -6.17906 -6.81111 0.68529 -0.749512 -0.596283
360 -1.79052 -5.8699 -7.3575 -0.0581583 2.07702 0.312024
359 -0.243535 -6.59828 -7.34032 0.665514 -1.58428 -0.348366
653 0.22101 -7.47329 -6.86064 -0.203416 -1.10707 -1.96246
364 -0.201594 -6.83505 -6.17265 0.159034 -1.26414 -0.370288
657 2.07059 -7.55553 -6.10331 1.23327 0.331431 -0.0591385
318 0.863902 -6.71809 -7.11402 0.260062 -1.45371 0.670977
365 2.11434 -6.67691 -7.36374 -0.266107 -0.393539 -0.181515
704 1.31175 -5.6817 -5.72192 1.47257 0.245798 0.164693
944 1.66924 -6.73512 -6.39793 1.86221 0.658434 -0.6545
655 2.65497 -7.3377 -6.85477 1.0492 1.57269 -2.08595
372 2.96785 -6.33163 -7.28359 0.167153 -2.2197 0.460905
371 3.62862 -6.76514 -6.51536 3.26352 -0.229929 0.944453
374 4.65497 -6.76724 -6.84652 -0.732499 -0.802328 -0.707171
710 4.34265 -6.07613 -6.10702 1.38454 0.683338 1.05858
664 3.14284 -7.49839 -6.11547 -0.519212 -0.952634 0.0968029
668 4.37656 -7.08431 -5.68284 -1.24393 1.65945 1.95655
92 5.31349 -6.45939 -7.39249 -2.31229 -0.981978 -0.0852067
380 5.00215 -7.49853 -6.23827 2.49946 -0.749792 1.17478
429 7.92421 -7.28481 -7.4087 1.58939 -0.538638 2.22016
336 6.68612 -7.4075 -6.27615 0.224768 -1.43593 -0.402994
665 6.79215 -7.08316 -7.46585 -0.853013 -0.922805 -3.24632
373 5.97974 -7.068 -6.70395 1.97399 -2.40341 -0.972576
671 7.3812 -6.61428 -6.75699 -1.98625 -2.02524 1.83392
292 8.39247 -7.74477 -6.56137 2.04711 -2.63868 -1.57682
714 7.76757 -5.93963 -7.71548 -0.0974533 2.07108 -1.3956
666 8.49552 -6.43145 -7.22112 -0.28272 0.0454381 -0.0293912
437 -8.4062 -5.72355 -7.31768 1.58085 -1.57852 1.3206
392 -7.65918 -5.20742 -6.70948 -2.47699 -0.611583 0.37961
673 -8.9015 -5.30496 -6.72317 -2.88687 -2.51738 -1.23215
965 -8.12765 -6.16985 -6.04 -0.745448 0.77712 -1.67626
391 -6.62762 -5.75741 -7.38957 1.38557 0.367535 -0.561017
681 -7.18485 -4.55828 -7.35905 0.0853539 0.629488 -0.81289
729 -6.85706 -4.85713 -6.08375 0.50576 0.241098 1.1616
682 -5.33056 -5.73449 -6.87503 -1.28445 -0.177999 0.586561
397 -6.29197 -4.89307 -6.9046 -0.838257 1.60069 1.13891
443 -6.16554 -5.82529 -6.38228 -0.912312 0.512406 0.641924
395 -4.77959 -5.90071 -7.85992 0.978262 0.121241 -2.29526
687 -4.3076 -5.64114 -6.91215 -0.649971 -1.42256 -0.202145
685 -5.07418 -4.69971 -6.58553 0.380089 1.87488 0.212213
448 -3.54404 -5.18614 -6.5768 1.08062 -2.76344 1.46191
731 -5.03808 -5.55693 -5.91111 -0.00678708 0.626609 0.825209
1025 -2.9288 -5.99997 -6.52693 -2.40364 0.0522525 1.69055
737 -2.29371 -5.40523 -5.93556 -0.86317 -3.23633 -0.160906
693 -1.52868 -5.45996 -6.55888 0.829903 2.82981 0.52185
742 -1.94811 -4.49809 -7.28929 -0.998151 -0.977511 -0.468492
748 -1.69854 -4.80681 -8.18315 -0.356963 1.38125 1.19098
738 -1.47678 -4.52436 -6.26181 1.46997 -2.85934 -0.174857
459 0.767475 -5.12488 -8.17124 1.32518 -0.74111 -3.42282
699 -1.05277 -5.30608 -7.65629 -1.03622 1.99285 -0.884978
697 1.04522 -5.89132 -6.64898 1.16974 -0.832135 -0.47982
652 0.0736175 -5.7657 -6.88003 -1.40366 -0.490122 1.65816
362 0.0194976 -4.96876 -7.5674 -1.67312 0.604975 0.28659
406 1.40122 -5.97798 -7.50139 -0.8534 -0.113067 1.02023
411 1.67497 -5.11792 -6.43189 0.478886 3.71527 2.46426
510 1.70122 -4.86186 -7.48363 0.401212 1.66962 3.20736
416 0.878734 -5.07971 -7.21883 2.22172 1.45408 -1.42881
415 2.25782 -5.97584 -6.65807 -0.927987 -0.65446 1.46343
175 2.34809 -5.71659 -7.52571 -0.393806 1.53711 -1.21113
468 3.25821 -5.37028 -7.25634 -0.53331 2.11316 -1.13307
651 2.53686 -4.92098 -6.76211 -2.8666 0.51456 0.635983
513 3.20688 -5.81717 -6.34326 0.682267 -1.16188 0.790966
707 4.08959 -5.19925 -6.50819 0.524132 -0.811883 -1.33001
420 3.85857 -6.03243 -7.16056 2.43239 -3.32108 0.810177
754 4.35104 -4.76116 -7.39276 2.14894 -0.378343 -0.720647
423 4.92349 -5.48222 -6.99347 0.054505 -1.91941 -0.257502
757 5.05055 -5.07969 -5.94574 -0.916427 0.393515 0.222457
467 5.4717 -6.40568 -6.23063 2.24635 1.10118 1.43822
422 6.17227 -5.46341 -6.64336 -0.397268 -0.241548 0.816927
428 6.32849 -4.51388 -6.37509 2.20937 -1.25352 -0.208392
421 6.65136 -4.81803 -7.25438 -0.795869 0.218458 -0.493895
471 7.13193 -5.75478 -6.91991 1.72748 0.324889 2.4267
480 7.37221 -4.8157 -6.46995 0.159221 -1.1639 1.6827
718 7.45101 -5.78933 -6.01138 -0.116515 -1.22407 -1.61122
475 6.78925 -4.92607 -5.5753 4.33026 0.62777 1.47464
386 -9.11819 -4.85214 -7.78519 0.082554 2.71404 -2.06339
432 7.80036 -4.97547 -7.38911 -1.94764 0.292534 0.570195
670 8.6698 -5.63462 -7.76428 0.499166 -1.5766 -2.93938
479 8.25835 -5.65117 -6.65756 0.0328854 1.1515 -4.32365
765 7.99774 -5.0055 -5.62841 0.666981 0.874634 0.0921623
725 -8.88999 -4.31909 -6.89414 -0.343085 -2.76628 3.15726
771 -8.44337 -3.43208 -6.95602 -0.995288 -0.350551 1.80902
439 -7.74486 -3.77852 -7.63905 1.17228 1.28375 0.531738
724 -9.12116 -3.74751 -6.06107 -1.68113 0.308609 2.89602
444 -7.81022 -4.16273 -6.66826 0.285916 -0.0786788 -1.5632
775 -6.3741 -3.10161 -6.35601 -0.132708 -0.308964 -0.615312
112 -6.73475 -3.92361 -6.6516 -3.0774 1.03595 -0.435206
776 -8.05439 -3.25511 -6.05683 -1.73282 1.87612 0.629768
442 -6.38665 -3.09243 -7.308 -1.52147 -1.54803 0.168702
491 -5.75206 -3.89485 -6.70169 0.0925017 -1.63035 -0.0204559
688 -5.85005 -4.59797 -5.94106 -1.45834 3.1639 0.696098
778 -5.55403 -3.53246 -5.88394 -1.20392 -0.922105 1.8101
445 -4.19732 -4.7791 -5.94414 0.384931 0.376941 -1.98334
446 -4.22579 -4.8595 -7.43827 1.65731 0.904611 -1.46238
160 -4.83756 -3.84591 -7.29705 0.00316797 -2.29191 2.44555
496 -4.61375 -3.75022 -6.28103 0.774103 -0.654012 -3.39786
782 -3.93612 -4.28925 -6.73013 -1.35507 1.37285 0.146594
690 -3.13849 -4.83651 -7.72865 0.875106 -0.215578 2.70295
207 -3.95139 -3.72352 -7.80165 0.586909 0.868659 1.81147
451 -2.43031 -4.50998 -6.19653 2.15709 -0.603618 3.46681
501 -2.86573 -3.74636 -7.52735 -1.46847 2.89581 0.00807767
500 -3.27915 -3.51749 -6.7697 0.73874 -3.0854 0.646954
457 -1.12913 -3.88127 -8.00267 2.3506 1.73637 -2.84959
168 -1.27868 -3.69173 -6.97018 -0.802022 -1.27465 -0.000573233
789 -2.2833 -3.64657 -6.79302 -3.54842 -0.633874 -0.368647
745 -0.218086 -4.03208 -7.27101 -1.08525 1.87486 -0.467315
508 0.493493 -3.33928 -7.41519 -1.5872 0.862218 1.41435
791 0.0543679 -3.13995 -6.53993 -0.0196991 -0.930078 -2.86807
511 1.61011 -4.13499 -6.59228 -0.965207 -2.7595 0.874457
176 1.39193 -3.65401 -7.50167 -2.17635 0.0545567 -0.19425
746 1.01464 -3.27653 -6.37586 -1.5871 -0.185098 0.726283
228 2.12316 -3.18404 -7.05284 -3.60731 -2.63694 0.779762
515 2.59295 -4.0429 -7.36845 -0.0370483 1.15926 -1.21261
516 2.67353 -3.91311 -6.44185 0.0781857 1.59512 1.28485
517 3.4654 -4.42247 -7.79374 0.663675 2.64529 -1.25094
801 3.68226 -3.71909 -6.2101 0.972724 0.849994 0.690459
473 3.95235 -3.72974 -7.37769 0.295618 0.659169 0.0795147
1048 4.50734 -4.28685 -6.53068 2.67 -0.0514865 1.42529
564 4.79383 -3.24488 -6.73728 -0.853225 0.196592 1.21471
709 5.44617 -4.1085 -6.38667 2.45323 -0.926277 1.68535
476 4.90364 -3.94819 -7.44467 0.482719 1.76358 -1.29568
521 5.62103 -3.17365 -7.34296 -0.851527 -0.977491 -3.86087
567 5.76737 -3.21944 -6.42637 0.085473 1.51459 0.0374723
474 6.27305 -3.904 -7.20112 -1.56767 -2.75091 4.76513
815 7.12139 -3.95225 -6.79605 -1.09498 -1.53964 1.82601
231 6.64587 -2.64769 -7.6789 1.26301 0.762715 -1.66675
721 8.72853 -4.80377 -7.09108 0.809937 -0.391784 0.0240397
722 9.09168 -3.06079 -6.92132 0.00395101 -1.96825 -3.79528
436 8.27346 -3.94254 -7.36192 -3.43185 -1.8519 -0.681231
766 8.40692 -4.14768 -6.45955 -1.79153 -0.229387 0.63007
195 -8.38272 -2.80587 -7.79109 0.575923 2.17393 -0.618404
773 -7.75982 -2.43771 -6.51699 0.490754 0.747717 0.829072
533 -8.68258 -2.47194 -6.78957 -0.482845 -0.872752 -1.41507
485 -7.71735 -2.11568 -7.59985 -2.15265 -0.340702 -0.386239
487 -7.39532 -3.32265 -6.86978 -0.498737 -0.514371 1.91106
777 -6.60226 -2.3084 -8.07144 -0.411934 -0.553549 1.50247
780 -6.99386 -2.41828 -7.01782 -0.070868 -1.7339 0.759456
535 -7.35257 -1.56688 -6.74014 -0.210701 0.363773 -1.60645
829 -5.77434 -2.40803 -6.37394 -0.439494 -2.55817 -1.51116
251 -5.83715 -2.20428 -7.36035 -2.34681 -0.704208 2.14635
830 -5.10259 -3.01129 -7.01955 0.776849 0.800506 0.0269726
824 -6.21263 -1.55571 -6.44754 -1.19272 1.53611 3.75931
256 -4.20869 -2.10913 -7.21611 -1.01362 -1.13147 -1.60762
774 -4.79013 -2.35782 -6.40897 -1.21402 -0.794124 -0.907043
490 -4.1179 -3.067 -7.16088 0.626657 -1.10984 -2.01503
833 -3.52233 -1.41296 -7.24847 -0.870576 1.12948 -2.27518
4048 -4.05509 -1.70899 -6.43877 -2.24225 -2.29968 0.991403
741 -2.25971 -2.6206 -7.06088 -2.34723 -2.14075 -0.570677
452 -3.12781 -1.58205 -8.17571 1.30577 1.32844 -2.19813
834 -3.43326 -2.39777 -6.80806 -0.826883 0.718395 0.33366
836 -2.10056 -1.89566 -6.21129 0.0311052 -2.50109 -2.19574
220 -0.531673 -3.01885 -7.22388 -1.13815 2.31976 -1.66524
545 -1.97705 -3.29951 -7.82776 -0.618416 1.18724 -0.841495
504 -1.32869 -2.66368 -6.81334 1.5119 -0.346517 1.41675
552 -1.18414 -2.6006 -7.85704 2.34697 0.0357069 -0.969951
505 0.359102 -2.27942 -7.12695 2.20166 2.76607 -2.09531
549 -0.199735 -2.20115 -6.30354 1.5304 -0.684109 0.14362
553 -0.53717 -2.00943 -7.40164 -0.296807 0.796035 -0.471445
797 1.36202 -2.41683 -6.88242 -1.52568 0.299409 0.555222