ITEM: TIMESTEP
102000
ITEM: NUMBER OF ATOMS
6912
ITEM: BOX BOUNDS pp pp pp
-9.2265715179435492e+00 9.2265715179435492e+00
-9.2265715179435492e+00 9.2265715179435492e+00
-9.2265715179435492e+00 9.2265715179435492e+00
ITEM: ATOMS id x y z vx vy vz
4 -9.16643 -8.48715 -8.51094 -1.85929 0.0379467 1.50496
290 -8.58927 -8.62247 -7.69559 0.513562 0.507711 -1.13851
51 -8.40436 -7.73102 -8.55285 -0.72428 -0.011118 -3.12929
337 -9.15906 -7.77347 -7.67593 -1.0449 0.254745 -0.51994
1829 -7.65966 -6.12501 -0.109852 0.721741 -0.150517 -0.520713
8 -7.70136 -8.5232 -8.42963 1.52453 1.03563 0.377971
294 -6.74769 -8.63844 -7.79174 -0.710215 1.07439 -2.63103
341 -7.7302 -8.04221 -7.61071 -2.36688 -2.21273 -0.260217
2010 7.07961 -0.767071 -0.0947645 0.130178 0.130593 1.24746
12 -6.33301 -8.34294 -8.67398 -1.08668 1.12028 -0.375934
59 -5.33119 -7.58733 -8.502 -1.972 -0.188935 1.73405
345 -6.39257 -7.62718 -7.69944 0.979663 -0.892943 0.0633135
597 -1.57085 -9.04685 -6.10258 -0.839904 -0.837178 1.56287
16 -4.65455 -8.41803 -8.18159 1.6239 -1.38457 0.281372
302 -3.80869 -8.38486 -7.58774 0.46991 -0.849582 2.35963
1878 -6.85361 -3.6551 -0.206636 -1.58406 -1.64432 0.928777
871 -6.8991 -9.20471 -3.8397 -0.988139 0.168972 0.095464
20 -3.20506 -8.24631 -8.44423 0.349778 -0.724849 -1.34585
67 -2.31583 -7.6138 -8.3251 -0.836291 -0.181524 0.152449
1684 -9.17024 -0.669835 -0.772411 -0.624435 -3.0616 -1.98399
306 -2.2251 -8.48821 -7.57279 2.39001 -1.18314 0.578994
221 1.52457 -2.82129 -9.2194 -0.206911 2.75338 -1.70015
24 -1.29767 -8.16109 -8.44066 -1.46445 -1.6844 -0.604147
357 -1.49708 -7.58629 -7.50793 1.18323 0.516302 2.09572
28 0.126825 -8.36609 -8.34166 -0.0655655 -3.8792 0.0481354
361 0.127206 -7.62583 -7.47721 -1.77383 1.79444 0.349141
75 0.961744 -7.63502 -8.35641 -1.16856 2.56413 0.346858
249 -6.09266 -1.41548 -9.08856 -0.417089 -0.841759 0.760161
10 -5.46929 -8.27229 -9.2183 0.190205 3.56455 -0.663539
32 1.49223 -8.48002 -8.55487 0.938926 -2.23964 2.95944
3783 5.40501 -0.156857 -7.0433 -0.373161 1.82919 -1.12176
314 0.928486 -8.43758 -7.65886 0.741044 -0.693402 -1.80134
31 2.35589 -9.14935 -8.51203 -1.79396 1.3687 -2.50462
36 3.05753 -8.52551 -8.44245 -1.65293 0.867449 -1.86625
318 2.24697 -8.64104 -7.70588 -1.47261 -0.0321051 0.929111
1902 1.99819 -3.88033 -0.181263 -1.75668 0.496335 -0.110789
895 2.33921 -9.09619 -3.76571 -2.05008 -0.843633 -3.54526
40 4.68736 -8.55896 -8.50276 -1.36452 -0.198928 -1.37752
189 7.65159 -4.70368 -9.21879 3.51345 -0.664118 0.778348
1914 6.94769 -3.88043 -0.00553591 -0.859712 -1.01212 2.39234
44 6.1684 -8.50872 -8.40343 -2.42796 -1.42966 -1.12798
326 5.38542 -8.38165 -7.69607 -1.0749 0.46632 -0.685726
1175 -0.797327 -9.20901 -2.39937 1.45295 -0.249394 1.33114
2013 7.84424 -1.49109 -0.0598057 0.24185 1.70539 -2.43097
1171 -2.2455 -9.1926 -2.21244 -0.601659 0.593332 1.69252
17 -3.10462 -8.97951 -9.18886 2.37422 1.88109 0.971893
254 -3.9164 -0.87938 -9.15228 -0.532089 -0.814147 2.04431
885 -1.60386 -9.16475 -4.50197 0.14665 -0.68333 -1.01348
48 7.75759 -8.37116 -8.58001 -1.98676 0.24662 2.55376
334 8.37718 -8.39012 -7.88998 -0.473662 3.17075 -0.977983
99 -8.5171 -6.05296 -8.4421 0.0340842 -0.220718 -1.50766
55 -7.02817 -7.76529 -8.48708 0.0182884 -0.796094 0.070649
56 -7.73299 -6.91754 -8.70062 1.29615 1.12473 -1.63474
103 -7.0262 -6.12882 -8.60236 0.607571 -1.32167 3.81575
177 3.19401 -4.62372 -9.12346 -0.440772 -3.61731 1.23513
60 -6.21548 -7.1443 -8.63084 0.874833 -0.132867 1.33466
107 -5.77108 -6.2892 -8.63948 1.39197 -0.281103 1.17037
4329 -6.2357 -0.0441633 -4.45361 0.220294 0.35241 -2.43746
346 -5.40203 -6.91958 -7.58621 -2.22522 0.539491 -0.670131
63 -3.98086 -7.55127 -8.31894 -1.74156 -2.52537 -0.901964
64 -4.84868 -6.78763 -8.41801 -1.84318 -4.19353 0.86815
111 -3.96676 -6.33486 -8.41039 0.777139 -1.60706 -1.41116
1870 8.59596 -5.35116 -0.0644755 -2.24905 -1.52876 0.420335
349 -4.55434 -7.40378 -7.56026 -2.21262 1.04523 -2.60917
68 -3.07379 -6.8061 -8.42608 0.164097 0.264108 0.351801
353 -3.0067 -7.62702 -7.68072 0.00785565 -1.19443 -0.905674
115 -2.15345 -6.08538 -8.3634 1.70811 1.18049 -0.176812
354 -2.30811 -6.93373 -7.47131 -3.83465 -2.24483 0.197055
581 -7.79003 -9.17611 -6.02174 -0.803191 -1.28501 1.01368
71 -0.544203 -7.52969 -8.40831 0.571937 3.21089 0.745166
72 -1.4382 -7.0493 -8.30492 0.367354 -1.45843 -0.19083
405 -1.44008 -6.0007 -7.68646 -0.799118 -2.15875 -0.133418
76 0.250831 -6.89907 -8.43607 -0.583759 1.30602 -0.976245
358 -0.711918 -6.98471 -7.57927 -2.59281 -3.33831 0.680128
362 0.957516 -7.02277 -7.60724 -1.31373 -0.602589 0.312195
4651 7.03507 -0.122601 -2.31725 -3.36848 -1.33364 1.69228
80 1.70998 -6.92985 -8.40293 0.214147 -1.95952 -1.16154
4077 7.61235 -0.0932957 -6.20877 1.1027 -3.86585 4.10768
365 1.66635 -7.69977 -7.70917 0.691391 -2.18026 -1.80553
79 2.2375 -7.68378 -8.51636 -1.45297 -3.09182 -0.922451
84 2.97158 -7.0366 -8.34206 2.14044 2.14544 0.253229
366 2.32725 -6.94392 -7.44952 -1.1733 2.32068 -2.025
19 -2.26947 -8.9471 -8.59577 -0.900194 1.19965 -1.10844
369 3.0262 -7.77935 -7.66633 -0.260277 1.42159 -2.23136
905 6.27326 -9.06308 -4.43251 -1.32488 0.875771 -0.156998
114 -2.32707 -5.33347 -9.15077 0.610465 0.752578 -0.338942
83 3.85707 -7.89645 -8.53363 -0.655603 -1.53278 1.92491
373 4.55395 -7.90935 -7.86098 -0.775502 0.184795 -2.35385
88 4.55228 -7.11448 -8.57554 1.74989 0.638677 -1.77253
87 5.40805 -7.73856 -8.45541 1.03481 -2.15094 1.48871
92 6.21917 -6.70946 -8.46021 -0.11553 0.590882 0.823395
1981 -4.57046 -1.59483 -0.0967072 1.7106 0.318559 -0.979418
91 6.87428 -7.61058 -8.48525 0.658288 -0.323092 -1.03104
96 7.67408 -7.09685 -8.4383 -2.5157 -0.841033 0.0246495
378 7.04886 -6.88315 -7.52432 -0.129556 3.02498 1.02798
35 4.01242 -9.16392 -8.57776 -1.34627 0.278899 0.512996
217 0.00725334 -3.16285 -9.02745 -0.610666 -0.221406 0.355129
95 8.49388 -7.71654 -8.53949 -0.55553 -3.01902 -0.584837
52 9.22495 -7.00856 -8.39691 0.389889 0.252038 0.737442
382 8.35909 -6.95367 -7.79356 -0.963908 1.15549 1.15507
1797 -1.57304 -7.73313 -0.0852431 -4.54687 -1.61677 0.836933
100 9.10567 -5.43925 -8.4019 0.592331 -1.87365 -1.72696
146 -8.62554 -4.79381 -8.59352 -0.737394 0.0461023 0.928072
104 -7.70559 -5.45418 -8.55931 1.36021 -0.0143426 0.478594
151 -7.06609 -4.56655 -8.61801 1.12438 -1.05355 -0.0478337
390 -6.86234 -5.38798 -7.79236 -1.14769 -0.773823 0.908738
619 6.83668 -9.17137 -5.38537 0.351452 1.42297 2.57819
1469 1.51762 -9.17771 -1.52585 -0.306528 -1.03276 0.490758
3757 -4.55596 -0.226377 -7.56464 0.174873 -0.465655 0.441027
108 -6.18614 -5.40574 -8.55471 -0.327516 0.146353 -2.46912
155 -5.34336 -4.63147 -8.59967 1.1964 4.13544 -0.0994699
441 -6.27126 -4.54667 -7.73207 0.772555 2.03026 -1.23047
230 5.42253 -2.48204 -9.04776 -1.20601 -1.61315 -0.252744
4643 3.81139 -0.165319 -2.27953 -1.77265 -1.06684 -0.819633
112 -4.8461 -5.66474 -8.43702 0.0126361 3.13101 1.8532
398 -4.00093 -5.69176 -7.70425 -0.177419 -0.467173 0.661182
159 -3.92728 -4.84532 -8.19336 0.0655791 -0.77447 0.842762
2014 8.49791 -0.654744 -0.0817441 1.76337 -1.66352 1.9519
116 -3.30484 -5.52807 -8.54553 -0.194376 -1.09339 1.74801
402 -2.34086 -5.37253 -7.56304 -0.341804 -1.46521 -2.52304
163 -2.38874 -4.5295 -8.45222 0.172156 -0.386023 -2.29652
119 -0.783892 -6.35835 -8.48417 2.88828 -2.15328 0.192461
120 -1.47915 -5.30555 -8.49819 -2.5302 -1.08687 1.08608
453 -1.45232 -4.73079 -7.60347 -1.26644 -0.134639 0.193638
3463 -7.05928 -0.00130026 -8.51139 0.29512 0.501517 0.755856
406 -0.577992 -5.33112 -7.60085 -0.515271 1.73861 2.29281
124 0.00634415 -5.40326 -8.48786 -2.51443 -1.6672 -1.18633
123 0.794383 -6.06834 -8.35935 0.470236 0.110291 -3.07951
128 1.66143 -5.38877 -8.42374 -0.569674 0.416922 -1.71458
171 0.788931 -4.79181 -8.50734 -2.02164 1.61783 0.808241
410 0.892616 -5.33193 -7.60977 -2.30068 -1.399 1.07005
127 2.38982 -6.28016 -8.26672 -1.86889 0.934966 2.07545
132 3.23595 -5.43 -8.39434 -0.0605212 0.255614 0.476827
414 2.16362 -5.33931 -7.60134 0.991878 -1.88169 -1.21668
131 3.93741 -6.31746 -8.45639 0.191128 -1.6218 -0.954744
136 4.77259 -5.60752 -8.53869 1.12418 3.58831 -0.647806
418 4.06989 -5.52763 -7.85934 -0.304629 -0.515384 0.241074
135 5.26427 -6.43084 -8.51374 -1.72383 -0.500184 -0.588443
140 5.97485 -5.66766 -8.40262 -0.862569 -0.23326 -2.08732
422 5.37795 -5.73793 -7.49578 0.68135 2.41125 0.754511
183 5.37765 -4.88622 -8.37452 2.67652 -0.74253 -1.3499
425 6.25084 -6.2448 -7.6079 -1.08917 1.83932 1.66139
327 5.32823 -9.15042 -7.04057 1.94649 0.0591761 -0.233043
81 3.11249 -7.65352 -9.12441 1.53152 -0.682022 -0.697743
139 7.06834 -6.27967 -8.54798 -0.523835 -1.45447 -0.308677
187 6.91919 -4.64606 -8.41184 -0.612537 -0.573875 0.271319
144 7.65873 -5.37316 -8.37676 -0.147773 -0.223482 0.461535
4647 5.47221 -0.0664181 -2.40297 0.331052 0.728225 -0.711578
27 0.818017 -9.11998 -8.48195 0.830971 -2.53814 1.31694
143 8.41157 -6.27225 -8.54435 -1.7009 2.26491 0.364514
210 -2.29386 -2.43793 -9.2032 -2.34905 -1.83739 -0.550033
195 -8.44287 -2.95238 -8.45438 0.640359 1.17674 0.558917
42 6.89337 -8.54289 -9.04794 -0.869549 0.962631 1.24591
178 4.06877 -3.88729 -9.0997 1.46237 0.136261 0.842155
152 -7.64434 -3.81959 -8.54245 0.228373 1.37377 -1.23232
438 -7.06687 -3.91676 -7.66445 -0.912467 -0.694435 -2.70511
199 -7.04561 -3.07116 -8.5105 -0.374235 1.46827 2.51988
485 -7.70859 -3.12793 -7.6346 0.147327 0.129794 2.09431
3749 -7.72474 -0.255244 -7.70244 1.68334 1.30439 0.365925
156 -6.19552 -3.99668 -8.55833 0.645828 -1.02362 -2.43079
261 -1.5494 -1.51106 -9.12134 2.76181 1.35829 1.49612
203 -5.52097 -3.11151 -8.44665 2.70483 -0.774416 1.01693
218 0.693131 -2.33761 -9.04827 -1.43074 -1.11203 0.266409
442 -5.55363 -4.01895 -7.56372 0.0281908 -0.12541 1.21084
160 -4.70713 -3.86104 -8.30223 1.3952 0.482269 0.354736
446 -3.82723 -3.93314 -7.66941 -0.912792 -2.12157 0.610267
207 -3.90962 -3.09125 -8.45475 -0.540412 -0.599436 -1.91084
493 -4.80626 -3.04532 -7.6531 2.07567 2.77025 0.937529
445 -4.71324 -4.78434 -7.67513 1.62973 -0.610842 -1.32685
3493 4.62186 -0.167451 -9.14494 -0.645885 1.16909 -1.0342
164 -3.11359 -3.77347 -8.41446 2.70505 0.411529 2.00932
450 -2.29005 -3.87197 -7.57308 1.33148 2.5343 -0.364634
449 -3.0857 -4.61082 -7.68851 1.97674 -0.784138 -0.729899
168 -1.42905 -3.89281 -8.18523 2.38908 -2.46209 -0.244521
454 -0.593942 -4.00984 -7.6852 0.78715 0.340635 -0.788508
167 -0.738222 -4.63586 -8.43607 2.16064 -1.659 -2.94603
457 0.177178 -4.66915 -7.66475 1.86208 -1.02261 -1.2563
172 0.00792773 -3.97261 -8.51939 0.0852535 1.15484 -1.54726
461 1.59153 -4.49388 -7.71557 0.148822 0.123856 -0.590588
458 0.761624 -3.88605 -7.66598 -1.98976 0.636389 -1.87782
176 1.47943 -3.83619 -8.46645 -1.37601 -0.314867 0.0338704
3779 3.9543 -0.0162459 -6.92255 4.13735 1.6193 0.190909
175 2.55703 -4.71592 -8.29086 -1.7867 -1.06282 1.6401
180 3.3607 -3.84623 -8.49509 -1.38337 2.59628 -0.385609
179 3.85327 -4.71357 -8.34255 1.64883 1.58823 -0.162671
184 4.8341 -4.00118 -8.50803 -2.27291 -0.695893 1.46915
227 4.05703 -3.10804 -8.31507 0.919688 0.420748 0.997933
94 8.61112 -6.91882 -9.15322 -1.20366 -1.75797 -0.799418
1746 -2.38977 -8.54814 -0.0237083 -0.396115 1.47707 2.28259
188 6.20316 -3.99003 -8.3143 3.97267 -2.05105 -0.65171
231 5.56246 -3.19441 -8.34394 0.158341 -0.839851 -3.13952
4365 7.71168 -0.162702 -4.49901 0.685092 -0.428356 -2.05712
313 0.0914478 -9.11974 -7.70334 -1.1151 -1.59483 2.00461
192 7.67315 -3.86588 -8.55434 -0.309296 3.63634 0.843162
1894 -0.787277 -3.86189 -0.107808 0.00876981 -0.538893 -3.10804
4649 6.21735 -0.0639399 -2.9815 1.61829 -0.342031 -0.357243
433 -9.17592 -4.70626 -7.78083 -0.462734 -2.44776 2.30416
148 -9.05041 -3.94388 -8.54738 -0.39396 2.39836 -0.360663
191 8.52397 -4.44137 -8.51772 1.39547 -0.246501 1.63122
239 8.51814 -3.25038 -8.41705 0.759078 -3.17544 0.37732
4939 6.74558 -0.0999106 -0.689606 1.19339 -0.402805 -2.56983
169 0.0133188 -4.8 -9.18984 1.77522 2.68208 -0.839756
166 -0.834655 -3.95367 -9.16514 -2.32571 -5.07413 1.12452
482 -8.31313 -2.30629 -7.67083 0.642213 0.340324 0.764597
196 9.13367 -2.38901 -8.50119 0.698789 1.86449 2.15725
243 -8.45945 -1.57634 -8.46858 0.0686274 2.95998 0.349247
4331 -5.40356 -0.0058624 -3.86013 -1.56613 1.40614 2.04827
529 9.23271 -1.64411 -7.43292 0.950898 -1.67594 0.524378
200 -7.6173 -2.24833 -8.4576 -0.159766 -1.71124 0.038574
247 -6.98553 -1.54319 -8.48739 -1.55046 1.42558 -1.35495
204 -6.12932 -2.28306 -8.48482 0.111554 2.57466 1.20804
251 -5.37618 -1.54705 -8.3791 -0.882972 -0.212178 -0.445118
537 -6.12261 -1.48142 -7.60611 0.350516 2.99296 3.03799
278 5.49249 -0.724787 -9.14138 2.26324 -0.325773 0.434558
208 -4.59147 -2.37408 -8.30626 1.16569 0.392265 0.852328
1738 -5.43453 -8.45775 -0.0338117 0.669938 2.8247 1.14769
211 -2.36662 -3.22412 -8.34662 2.18655 4.36647 2.58128
212 -3.132 -2.4784 -8.47668 0.825005 0.392061 -1.74646
545 -3.13477 -1.67059 -7.63147 0.634524 0.318467 1.8845
893 1.50942 -9.19948 -4.62678 -1.61092 0.520003 0.209111
501 -1.45397 -3.2141 -7.3845 -0.919674 0.645239 -1.7026
216 -1.60954 -2.39882 -8.39303 -3.41156 2.72134 -0.287767
259 -2.31711 -1.70839 -8.35995 1.52937 -1.39401 1.63442
549 -1.46105 -1.7162 -7.76248 -0.999135 -0.766159 1.30205
215 -0.893589 -3.13453 -8.315 0.364943 2.24096 1.03517
220 -0.0605547 -2.30356 -8.45583 -3.50272 0.657471 -0.856945
219 0.802383 -3.11218 -8.41726 -1.89587 2.50678 1.14462
509 1.61028 -3.28629 -7.43904 -3.8536 -0.363857 1.03466
224 1.4846 -2.33158 -8.2183 0.765605 -5.22772 -0.0772098
223 2.26285 -2.93378 -8.47106 2.3909 -1.67126 1.3144
228 3.13524 -2.2607 -8.4597 -1.70892 1.66034 -1.33371
271 2.30316 -1.77764 -8.3032 -0.0883762 -0.693622 -1.77976
1926 -6.78398 -2.35937 -0.167957 -2.26389 0.284186 -3.98864
61 -4.58058 -7.61733 -9.22235 1.89298 -0.524108 -2.25382
517 4.65819 -3.26185 -7.58741 1.82878 4.51751 0.968171
232 4.69821 -2.35193 -8.26164 0.102113 0.202104 -1.34301
514 4.03399 -2.35886 -7.60039 -0.861287 0.448282 0.771763
145 -8.33505 -3.71496 -9.22129 -2.19419 0.980977 -1.28627
521 6.1991 -3.08629 -7.59609 4.35543 0.219058 -1.52216
236 6.21269 -2.43914 -8.45258 3.16364 0.0129977 -0.242448
518 5.69195 -2.18896 -7.69721 -2.25377 1.29189 -1.19623
325 4.64646 -9.09569 -7.69825 0.322931 -0.730657 -2.14708
235 6.91756 -3.21282 -8.43702 -1.79929 2.21412 1.13513
240 7.65031 -2.44981 -8.26439 3.79066 1.72436 -2.29977
3755 -5.41432 -0.159423 -6.89005 2.01223 -0.342848 -1.92454
1942 -0.803541 -2.15849 -0.149925 -1.0132 0.434128 -2.31421
248 -7.61016 -0.867401 -8.43983 2.41587 -2.21888 1.98355
1778 -8.47195 -6.73358 -0.00417686 1.08612 1.14481 0.267965
252 -6.32103 -0.753476 -8.38732 0.800187 1.34958 1.50374
538 -5.56685 -0.655562 -7.72999 -1.04865 -0.277006 -0.13476
1801 -0.0307418 -7.8163 -0.179875 2.27381 -0.299012 1.51883
4929 3.03153 -0.0993924 -1.57623 1.62516 -0.664655 1.79752
273 3.14697 -1.49187 -9.15895 -0.0469377 -1.47016 -2.72204
1905 2.78057 -4.56233 -0.159541 -1.31058 -1.25364 1.53737
255 -3.85505 -1.61732 -8.48462 0.453226 -0.0942159 2.56585
256 -4.8371 -0.757985 -8.40416 0.802645 1.43627 1.01966
4927 2.14089 -0.0565197 -0.939301 1.47213 -2.85268 -0.0759046
542 -3.83931 -0.842946 -7.64848 0.416135 1.50461 -1.30401
541 -4.67743 -1.71486 -7.64212 0.394569 0.712163 0.843792
4075 6.86353 -0.0155699 -5.28925 0.0837743 0.805222 0.580178
1728 7.73565 -0.71696 -0.732568 -1.35977 0.509654 0.838812
260 -3.08105 -1.02168 -8.38537 3.26516 0.0773639 -0.908167
205 -4.60141 -3.14268 -9.2098 -2.22128 -0.459042 -1.82691
3473 -3.22568 -0.019627 -9.08017 0.792928 0.510764 -0.993045
263 -0.771822 -1.56217 -8.42024 0.18694 -1.18973 0.320359
264 -1.65289 -0.820428 -8.29917 -0.458722 0.0733754 1.95061
550 -0.912838 -0.976692 -7.53617 0.0129792 -1.23068 0.944067
4925 1.36022 -0.0746344 -1.58079 -0.113539 1.12252 1.22499
268 0.150523 -0.729999 -8.42108 3.90289 0.339083 1.93163
258 -2.33229 -0.839074 -9.08148 -0.111106 1.08421 -0.927448
4359 5.36076 -0.0306465 -3.54215 0.241329 1.74468 2.62792
267 0.651154 -1.56554 -8.25358 1.49387 -1.7844 2.23473
272 1.46611 -0.786889 -8.29909 -1.85689 0.965944 0.113379
4361 5.86791 -0.135428 -4.52853 -0.278355 1.43469 -1.92105
4039 -6.77121 -0.0111951 -5.33515 -0.0862455 0.134317 1.71948
276 3.06633 -0.845437 -8.40522 -2.64996 1.21253 0.0398924
4357 4.81131 -0.0852503 -4.6765 1.40105 0.930822 -0.552637
275 3.90581 -1.67316 -8.3648 1.1069 0.519611 0.59951
280 4.74617 -0.789796 -8.35718 1.73527 -0.444378 -0.18743
565 4.58961 -1.45321 -7.66373 -0.176625 1.06874 1.27367
305 -3.08627 -9.00206 -7.75146 2.71635 -1.46498 -0.448899
4637 1.79088 -0.0472331 -3.20411 -0.215983 0.807274 -0.415602
279 5.45965 -1.56852 -8.611 -1.0937 1.44411 0.712322
569 6.34185 -1.46181 -7.94797 0.386179 -0.357588 -0.274974
284 6.33446 -0.602299 -8.61503 0.880092 -1.14411 0.726837
4065 3.12517 -0.0604181 -6.30592 -1.28475 -0.0106836 0.289884
283 7.20537 -1.62081 -8.4613 -1.71344 -1.6202 1.80388
288 7.71676 -0.852624 -8.34507 2.53624 2.1469 -0.487307
570 6.92226 -0.727237 -7.77945 -0.422572 2.353 2.27858
244 9.02313 -0.882494 -8.43155 -2.04306 1.53442 -1.3624
287 8.42728 -1.55003 -8.27521 0.519606 1.4223 -1.2132
574 8.49839 -0.933426 -7.45809 -1.1209 1.32021 -2.19669
181 4.80508 -4.76959 -9.19204 -0.633688 -2.52227 0.0823228
161 -3.39367 -4.62667 -9.01365 1.05506 -2.28283 0.192288
339 -8.52481 -7.6807 -6.74163 3.40631 -0.820824 -0.375231
1798 -0.980166 -6.91592 -0.119806 -1.02373 0.417521 0.287323
238 8.32843 -2.3654 -9.14364 -0.264911 -0.124194 -1.91487
296 -7.76836 -8.78774 -7.03829 -1.9977 -3.35816 1.73989
343 -6.93441 -7.74912 -6.84905 -0.0823971 -1.38453 -0.742724
582 -7.003 -8.62708 -5.96638 -1.07204 0.212121 -0.423897
298 -5.5824 -8.16229 -7.80024 -0.925013 2.2535 -2.7141
300 -6.20036 -8.45533 -6.69675 1.15945 -0.735482 2.03341
586 -5.54369 -8.45355 -5.88687 -0.0845819 1.92379 0.853817
347 -5.52224 -7.69844 -6.86718 1.27546 -4.48101 0.181548
304 -4.64136 -8.28947 -6.93907 -0.970861 1.65611 1.64594
351 -3.80656 -7.65097 -6.83827 -2.78186 0.237161 -1.40969
590 -3.8609 -8.53815 -6.21856 -0.806542 -0.696671 -1.17016
637 -4.83624 -7.76985 -6.05193 1.97939 0.685738 0.100599
1169 -3.17586 -9.23086 -3.1067 0.0446318 -0.386261 2.2427
308 -3.03494 -8.39192 -6.83387 -0.902547 -1.84013 0.168521
641 -3.13765 -7.58219 -6.13136 -3.34382 1.59805 3.53831
594 -2.33107 -8.34232 -6.13136 0.65743 -0.905582 -1.60401
303 -3.79677 -9.13298 -7.00033 -0.85492 -0.0434349 -1.84522
312 -1.49976 -8.43137 -6.94232 0.743716 2.60253 -1.47807
645 -1.58919 -7.71611 -6.21889 0.820677 0.159546 1.59616
310 -0.641917 -8.30441 -7.61596 0.0474642 0.851387 -0.118521
598 -0.630666 -8.44803 -6.00039 -0.592125 -0.729094 -1.28762
1725 7.83732 -1.53989 -1.5931 -0.270961 -3.46979 0.807116
316 0.169186 -8.36002 -6.67765 0.095312 3.52108 1.35217
15 -3.97508 -8.98733 -8.38361 -0.202623 2.2143 -0.399496
583 -7.03257 -9.15875 -5.22566 -0.152017 -0.210269 -0.368296
3459 -8.56327 -0.237311 -8.4446 1.38082 -2.63473 -3.05315
320 1.58713 -8.62701 -7.00089 0.372721 -2.51072 -0.713935
1861 4.5889 -5.95251 -0.031873 1.15191 1.31351 -0.971089
324 2.97524 -8.39924 -6.915 -0.0288814 0.699067 -0.205131
4355 3.94728 -0.118078 -4.06864 -0.24348 -1.00956 -2.02101
262 -0.752142 -0.788491 -9.10279 1.46671 2.72038 -0.577523
322 3.79163 -8.51219 -7.77843 0.44345 1.48919 1.4923
214 -0.717517 -2.40954 -9.12852 -1.19876 -1.24237 -0.0960621
165 -1.60554 -4.58155 -9.1634 -0.0892994 0.176237 -2.43937
138 6.82387 -5.42336 -9.06616 -2.83104 0.415474 0.699844
328 4.54788 -8.32727 -6.87824 1.56419 0.700794 0.977353
610 3.77274 -8.43377 -6.17101 -0.208776 -1.28781 1.68691
1822 8.53098 -6.92745 -0.129244 2.17552 1.57716 -1.10455
332 6.07319 -8.58168 -6.89457 -2.34043 2.06312 -0.88449
614 5.36294 -8.67146 -6.16431 1.03398 -1.07729 -0.859479
1463 -0.83612 -9.19404 -0.800471 -3.29561 -0.216557 2.75574
311 -0.60472 -8.93426 -6.86171 0.251564 0.130831 -0.817242
330 6.91626 -8.38951 -7.81053 -2.39672 -0.834488 -0.508048
336 7.72359 -8.58865 -7.05953 1.76628 3.39061 -1.9853
381 7.61581 -7.74543 -7.76136 0.385203 -0.378375 2.3488
292 9.09412 -8.4453 -7.07064 -3.31829 0.29725 1.51844
338 -8.58377 -7.0787 -7.51948 -2.61841 -2.31003 0.25832
344 -7.72844 -7.14077 -6.90033 1.2498 1.79015 0.408347
342 -6.96253 -6.82532 -7.84643 1.74976 2.68477 3.10435
629 -7.72785 -7.96248 -6.12133 -0.0543455 -0.261604 2.68374
630 -6.91071 -7.00966 -5.98174 -2.16674 1.51064 -1.16683
348 -6.29847 -6.90415 -6.87028 -1.90867 0.558727 -2.39739
395 -5.55484 -6.12775 -6.90064 4.13058 0.53321 -1.90038
633 -6.32901 -7.77089 -6.05001 -2.21547 -0.673945 0.270331
397 -4.70953 -6.25739 -7.48151 -1.66363 2.4977 0.503896
350 -3.71905 -6.80066 -7.61865 -2.64628 1.15137 -2.99184
352 -4.81787 -6.82047 -6.63482 0.234278 0.624537 -0.0478023
399 -3.81372 -6.10982 -6.70181 1.77854 -0.433311 0.706282
638 -3.88328 -6.85297 -6.13951 -2.21526 0.851763 2.30391
685 -4.61863 -6.13475 -6.0132 1.09534 0.52751 -0.0662919
355 -2.28819 -7.74182 -6.92747 2.84114 -0.458159 -1.51145
356 -3.04286 -6.77412 -6.80444 -0.297183 -0.478724 1.77394
403 -2.20635 -6.1239 -6.74934 -3.60097 -1.31047 -0.48793
642 -2.29582 -6.98146 -6.18859 1.19521 -1.68285 -1.45956
360 -1.46094 -6.79458 -6.85567 -1.35941 -1.20017 -0.0537498
407 -0.631863 -6.0534 -6.77219 2.20584 -0.0887389 1.20438
359 -0.812779 -7.71976 -6.82181 0.00715363 1.02762 1.45449
364 -0.077285 -6.96985 -6.76853 2.0098 -1.33916 -1.01056
363 0.872104 -7.75055 -6.90192 1.54406 0.10965 -1.92222
368 1.52527 -6.95227 -6.84166 -0.491642 0.52804 -0.22897
417 3.10094 -6.1847 -7.66609 0.141049 0.902614 1.42062
367 2.08397 -7.73263 -6.81221 -2.42263 0.866097 1.40108
372 3.07864 -6.87482 -6.91771 -0.856391 -2.17808 -0.361368
415 2.30281 -6.06444 -6.92175 0.409847 0.751144 0.925149
421 4.62804 -6.37258 -7.715 2.23087 2.13184 -1.28361
370 3.86958 -7.018 -7.61996 -1.11632 -1.79581 -0.909004
371 3.74029 -7.76639 -7.0498 0.699323 -1.69394 1.86368
376 4.61109 -7.12069 -6.72845 -0.19382 0.673455 0.602341
377 6.18469 -7.75818 -7.68433 -0.238272 -0.27305 -2.12874
375 5.41532 -7.82317 -6.86358 -1.93437 2.08761 0.872267
374 5.37835 -7.09889 -7.6277 0.73036 0.063072 -3.36044
380 6.32754 -7.06326 -6.99307 -1.10131 1.1274 1.31831
379 6.95562 -7.81077 -6.94059 0.506518 0.578783 -0.511124
384 7.76142 -6.93872 -6.73095 0.531649 1.80797 -1.06591
383 8.33453 -7.78998 -7.0689 -1.31933 1.24746 2.06959
340 9.17178 -6.95555 -6.80856 -0.885208 -3.24165 -2.57098
386 -8.41088 -5.41566 -7.68231 0.735159 3.44085 0.653688
385 9.11355 -6.29785 -7.65751 3.61145 -0.0401286 -0.217316
387 -8.40528 -6.04814 -6.98552 2.77632 2.26295 -0.520807
435 -8.31802 -4.52434 -7.0388 0.363908 1.01128 0.712734
388 -9.17216 -5.33629 -6.98077 -2.47635 1.5081 -0.817836
389 -7.85609 -6.38975 -7.72645 -0.179723 0.86367 0.21166
391 -7.06763 -6.32418 -6.76287 -0.248282 0.118597 -0.931939
392 -7.58178 -5.60755 -7.197 -0.288865 1.89731 0.0350447
678 -7.07643 -5.49976 -6.19298 0.824143 0.582137 0.214568
394 -5.51433 -5.52967 -7.68179 -0.499988 -2.47711 2.51475
393 -6.11575 -6.33676 -7.76125 0.632629 0.117911 -0.327072
396 -6.38362 -5.54674 -6.90405 3.36004 -0.123829 1.72416
682 -5.31986 -5.50652 -5.91044 -2.19392 -0.131887 1.32664
443 -5.59394 -4.84734 -6.96162 1.85211 -1.23559 -2.94485
681 -6.30006 -6.18255 -6.13238 0.412535 -2.88121 -1.99905
400 -4.66474 -5.28587 -6.84688 0.21068 0.448877 1.41984
686 -3.97318 -5.40269 -6.04673 -4.4791 2.0188 -0.196738
447 -3.81767 -4.92174 -7.05985 -1.71264 -0.522764 -0.387356
401 -2.93758 -6.16141 -7.62333 -1.15496 -2.42324 0.096341
404 -3.03368 -5.5103 -6.81704 -3.15396 0.528345 0.870333
690 -2.35522 -5.48286 -5.95462 -1.18828 -0.408368 0.278912
737 -3.13618 -4.66241 -5.99612 -1.09252 1.52734 0.535572
689 -3.04397 -6.27621 -5.96705 -2.35228 2.15344 -4.4229
408 -1.51995 -5.37153 -6.74077 -0.503923 -0.814069 2.94398
693 -1.52952 -6.06669 -5.97736 -0.442933 0.00300322 1.07435
694 -0.623243 -5.32428 -6.05064 -0.211168 0.808849 0.722634
741 -1.63333 -4.63419 -6.10987 -0.0477129 1.77518 4.5327
409 0.132588 -6.37437 -7.51195 0.0873175 -0.595615 1.74021
412 0.131684 -5.17402 -6.88197 -2.28478 1.15956 2.35328
697 0.127308 -6.133 -6.08019 -0.0899995 -1.81601 2.1963
455 -0.761277 -4.73951 -6.85861 1.69404 -0.154636 -0.601828
745 0.256531 -4.53386 -5.97596 -0.00375008 1.21407 -0.0130406
413 1.62364 -6.21829 -7.632 0.00742026 0.457621 0.610883
411 0.856022 -6.19691 -6.93762 0.273501 1.30521 0.487895
701 1.58275 -6.16943 -6.06854 0.755378 0.36145 3.82015
416 1.56887 -5.45927 -6.72501 1.09248 2.33399 -0.0775551
705 2.93778 -6.15472 -6.18131 -0.828389 1.12411 0.10475
420 3.37781 -5.49733 -6.93701 1.08146 -0.484071 -0.0188865
702 2.25606 -5.42471 -5.84075 -0.781852 0.291499 0.179634
463 2.39543 -4.73987 -6.84658 -1.74472 0.504277 -0.430476
419 3.95953 -6.26778 -6.84245 -0.264863 -2.42155 0.0051227
424 4.47212 -5.34393 -6.85538 3.43246 0.607307 -0.568486
709 4.57478 -6.27478 -5.94397 0.724777 0.241968 -2.33861
423 5.58875 -6.35346 -6.84091 -0.771778 0.826228 0.888056
473 6.19287 -4.95543 -7.62201 1.855 -1.30221 0.132986
428 6.14754 -5.48419 -6.67921 0.295936 0.883784 0.0734166
471 5.48197 -4.83518 -7.03568 -2.5493 -0.13175 1.78829
429 7.75552 -6.26447 -7.72583 -1.0769 -0.498266 -1.70238
477 7.69177 -4.66155 -7.66444 0.451166 0.294639 -1.12751
427 6.93876 -6.04762 -6.92339 -0.587211 1.20316 0.532519
426 6.87452 -5.49353 -7.79401 0.561332 0.518987 -2.32548
432 7.58004 -5.35211 -6.86306 -0.302166 -0.791313 1.56792
475 6.90434 -4.74467 -7.01795 0.432737 0.42116 -1.02458
431 8.3131 -5.92186 -6.91629 0.948723 1.14807 -1.86606
430 8.39815 -5.21574 -7.73776 3.14832 1.03827 0.58215
434 -8.45082 -3.85463 -7.77466 1.45739 0.852575 -2.82006
436 -9.18685 -3.81094 -6.90331 -0.55674 -3.3465 -0.158396
483 -8.45658 -3.12426 -6.87349 2.19489 -0.524338 0.0673524
437 -7.69586 -4.72983 -7.93261 1.56057 -1.89883 0.687488
439 -6.96098 -4.75901 -6.99098 -1.02497 2.41787 -2.97433
440 -7.59384 -3.83958 -6.93705 1.37297 -1.99845 1.59524
487 -7.02128 -3.07505 -6.95406 -0.236645 1.64629 -2.67664
444 -6.41467 -3.99965 -6.83294 -1.01098 -2.03188 -0.450444
730 -5.42013 -3.94571 -6.37686 0.00311029 2.07614 -2.19812
491 -5.53169 -3.1341 -6.98935 2.52911 -1.43588 -1.27275
729 -6.18209 -4.68989 -6.08206 -0.440591 0.481695 0.292813
448 -4.56687 -4.04316 -7.00871 -0.609096 -0.590263 -0.272378
495 -4.07437 -3.24084 -6.86918 -2.76562 1.74243 -3.05692
733 -4.67614 -4.6536 -6.07275 1.99726 1.1779 0.0857168
451 -2.2751 -4.66358 -6.80948 0.138885 -0.429737 -1.04718
452 -3.23767 -3.97044 -6.75808 0.046338 1.19342 2.92867
499 -2.51494 -3.17154 -6.94561 -0.481017 -0.667594 2.10635
456 -1.42912 -4.0632 -6.9 -2.20116 0.727831 -0.449134
505 0.04702 -3.23708 -7.7152 0.908041 -0.603231 1.07816
460 0.0451836 -4.13345 -6.87134 -0.954079 -2.7638 1.34964
459 1.00147 -4.61652 -6.88203 -0.626953 3.18205 0.216181
464 1.65466 -3.93405 -6.75115 0.317627 0.427763 1.51327
465 3.17285 -4.59829 -7.47715 -2.23303 1.11002 -1.33066
462 2.51342 -3.7762 -7.77752 1.72579 0.0415983 1.34973
468 3.15437 -3.72589 -6.95143 -1.74536 0.471426 -0.202046
511 2.22864 -3.08601 -6.79574 -0.292921 -0.285996 -1.21208
469 4.71196 -4.70075 -7.70421 0.118752 0.255501 0.0612345
466 4.0417 -3.92992 -7.81615 1.59985 2.24599 -0.265867
467 3.90209 -4.58916 -6.90123 2.51517 0.0220503 0.894277
472 4.71022 -4.11348 -6.89158 -2.04216 1.12346 2.05538
754 4.09449 -3.8597 -6.07918 0.6981 2.61355 -1.77746
470 5.69817 -3.84548 -7.54354 -3.33943 0.253682 -1.70559
476 5.9205 -4.0599 -6.63658 0.216456 0.849553 0.261437
525 7.76065 -3.23018 -7.6572 0.130767 1.31754 -0.759239
474 6.86527 -3.85364 -7.55087 -1.26698 -0.812927 -2.34095
523 6.9177 -3.06842 -6.92865 0.819704 -1.30731 0.0996202
762 6.79506 -4.1093 -6.23304 0.130328 -0.845465 -1.95714
480 7.68734 -3.94657 -6.86662 -0.0196714 1.17902 -0.0859865
479 8.44475 -4.73383 -6.89055 -0.117002 2.3635 -0.361647
478 8.58796 -3.91365 -7.61157 2.14849 0.518425 -1.39039
481 9.16984 -3.04798 -7.72463 -2.96266 -0.451725 -0.252232
531 -8.42487 -1.63367 -6.87278 -1.42411 -2.20015 1.68348
533 -7.67187 -1.49111 -7.55322 0.826296 -0.383499 -1.92448
486 -6.7999 -2.27446 -7.76104 -1.54789 -0.848927 -1.37668
488 -7.67437 -2.32102 -6.91592 -0.423746 0.920209 -0.633887
535 -6.71034 -1.63006 -6.84535 -1.56351 0.437403 0.145522
490 -5.52139 -2.29669 -7.5687 -1.38193 0.416741 0.409767
489 -6.28049 -3.25969 -7.58126 -0.521787 0.0930186 -0.188295
492 -6.16137 -2.52807 -6.69084 -1.53903 -2.15464 1.04259
777 -6.08254 -3.33582 -6.12905 -1.65294 -1.48527 -0.565083
778 -5.37894 -2.42611 -5.88088 0.133863 1.05926 -1.55788
494 -3.88156 -2.43148 -7.54113 0.594414 -0.200467 0.125135
496 -4.77024 -2.27612 -6.73671 -1.51875 2.09353 -1.02784
782 -3.84127 -2.37456 -6.13174 -2.54677 0.945867 1.5954
497 -3.25556 -3.12653 -7.67427 -0.196478 -0.71987 1.17842
785 -3.0887 -3.20235 -6.11686 -0.278408 0.7879 -1.72893
498 -2.52651 -2.4507 -7.71909 0.954865 -2.08996 -3.45124
500 -3.09029 -2.27551 -6.90034 -0.969962 0.772649 -0.754307
833 -3.06596 -1.54667 -6.07631 -0.918822 -1.49342 -0.565065
786 -2.44376 -2.33592 -6.23007 1.1846 1.41342 -2.53119
504 -1.66671 -2.33084 -6.90471 -1.32723 1.47077 -0.446461
503 -0.548202 -3.40565 -6.93609 -1.62789 0.707405 -0.998081
551 -0.991901 -1.60455 -6.7855 -2.79044 2.49879 -0.148922
502 -0.829096 -2.36591 -7.62328 -2.14889 1.73932 -0.692863
506 0.675057 -2.45005 -7.59556 3.20766 2.60181 2.40677
508 -0.0782846 -2.387 -6.96517 -0.26267 -0.2189 0.127086
557 1.56352 -1.45948 -7.54446 -1.80218 -1.31589 -0.0856164
507 0.802124 -3.24204 -6.79974 0.729908 1.17892 1.43937
512 1.42792 -2.41611 -7.02027 1.27088 -0.415451 -0.267396
513 3.15639 -2.9908 -7.83503 -0.141726 1.40775 -0.386034
510 2.3658 -2.39316 -7.49849 -0.0505123 0.10768 -1.64401
561 3.26086 -1.71753 -7.65983 0.872986 0.92666 1.11475
516 3.07235 -2.37998 -6.90745 1.58453 -0.872928 1.28247
559 2.52374 -1.61051 -6.96394 0.504011 -1.30773 -1.47369
515 3.93404 -3.0567 -6.9913 0.59917 0.995064 0.966147
520 4.79056 -2.33575 -6.99644 -0.648845 -1.60593 1.08798
802 3.80954 -2.25903 -6.21456 2.83885 1.09081 -1.41711
853 4.68655 -1.65119 -6.24296 0.355641 1.35705 -0.367486
519 5.39137 -3.12725 -6.91633 1.31661 -3.68619 -0.552301
524 6.29222 -2.33442 -6.79957 1.44731 -0.579903 1.1718
806 5.535 -2.41962 -6.0984 0.0687642 -0.68744 0.345382