LAMMPS (29 Sep 2021 - Update 2)
#RDF

units		lj
boundary	p p p
atom_style	atomic

lattice		fcc ${rho}
lattice		fcc 0.7
Lattice spacing in x,y,z = 1.7878071 1.7878071 1.7878071
region		box block 0 6 0 6 0 6
create_box	1 box
Created orthogonal box = (0.0000000 0.0000000 0.0000000) to (10.726842 10.726842 10.726842)
  1 by 2 by 2 MPI processor grid
create_atoms	1 box
Created 864 atoms
  using lattice units in orthogonal box = (0.0000000 0.0000000 0.0000000) to (10.726842 10.726842 10.726842)
  create_atoms CPU = 0.004 seconds
mass		1 1.0

velocity	all create $T 87287 loop geom mom yes rot yes
velocity	all create 1 87287 loop geom mom yes rot yes
reset_timestep	0
timestep	0.001
pair_style	lj/cut 2.5
pair_coeff	1 1 1.0 1.0 2.5

neighbor	0.3 bin
neigh_modify	every 20 delay 0 check no
thermo		100

#Equilibration

fix		thermos all nvt temp $T $T 1.0
fix		thermos all nvt temp 1 $T 1.0
fix		thermos all nvt temp 1 1 1.0
run		10000
Neighbor list info ...
  update every 20 steps, delay 0 steps, check no
  max neighbors/atom: 2000, page size: 100000
  master list distance cutoff = 2.8
  ghost atom cutoff = 2.8
  binsize = 1.4, bins = 8 8 8
  1 neighbor lists, perpetual/occasional/extra = 1 0 0
  (1) pair lj/cut, perpetual
      attributes: half, newton on
      pair build: half/bin/atomonly/newton
      stencil: half/bin/3d
      bin: standard
Per MPI rank memory allocation (min/avg/max) = 2.626 | 2.626 | 2.626 Mbytes
Step Temp E_pair E_mol TotEng Press 
       0            1   -5.2272486            0   -3.7289847   -4.5808285 
     100   0.71513491   -4.8375807            0   -3.7661199   -1.9975966 
     200   0.66648696    -4.756809            0   -3.7582357  -0.93167675 
     300   0.67348482   -4.7528426            0   -3.7437847  -0.79211397 
     400   0.67977711   -4.7447968            0   -3.7263113  -0.73965211 
     500   0.71065023   -4.7714706            0    -3.706729  -0.78171617 
     600   0.68766062   -4.7203973            0   -3.6901003  -0.56457957 
     700   0.69746837   -4.7179865            0   -3.6729948  -0.54236663 
     800   0.72224577   -4.7387381            0   -3.6566234  -0.56684048 
     900   0.70754899   -4.7011015            0   -3.6410063  -0.36707372 
    1000   0.71963838   -4.7008027            0   -3.6225945  -0.34795576 
    1100   0.72843403   -4.6936958            0   -3.6023094   -0.3064612 
    1200   0.75869376    -4.716962            0   -3.5802386  -0.40814376 
    1300   0.74630627   -4.6766921            0   -3.5585283  -0.22968188 
    1400   0.77550711   -4.7002396            0   -3.5383253  -0.33355985 
    1500   0.77658253   -4.6783171            0   -3.5147915  -0.22257789 
    1600   0.76520462   -4.6390927            0   -3.4926142 -0.075431617 
    1700   0.78770235   -4.6484323            0   -3.4682463  -0.07183286 
    1800   0.81641585   -4.6677578            0   -3.4445514 -0.074541633 
    1900   0.82132687   -4.6529167            0   -3.4223523  -0.10854553 
    2000   0.84215253    -4.659949            0   -3.3981822   -0.1142185 
    2100   0.84044468   -4.6341985            0   -3.3749906 0.0020885169 
    2200   0.86892254   -4.6514498            0   -3.3495745  -0.06228683 
    2300   0.82875135   -4.5682191            0   -3.3265309   0.31072386 
    2400   0.85965398    -4.591369            0   -3.3033805   0.23565041 
    2500   0.88013898   -4.5984506            0   -3.2797701   0.15656853 
    2600   0.90209463   -4.6082116            0   -3.2566358   0.11306545 
    2700   0.87715868   -4.5487219            0   -3.2345067   0.34398504 
    2800   0.91319655   -4.5807086            0   -3.2124991   0.17584098 
    2900   0.94584278   -4.6064171            0    -3.189295   0.07517147 
    3000   0.91617194    -4.540444            0   -3.1677766   0.33603051 
    3100   0.94157364   -4.5556364            0   -3.1449106   0.34626313 
    3200    0.9628169   -4.5670362            0   -3.1244824   0.33805264 
    3300   0.92718075   -4.4935374            0   -3.1043759    0.6249748 
    3400   0.95450048   -4.5126768            0   -3.0825832   0.56645411 
    3500   0.96575693   -4.5098142            0   -3.0628555   0.56680914 
    3600   0.97334539   -4.5035487            0   -3.0452204   0.65702851 
    3700    1.0038033   -4.5304295            0   -3.0264672   0.62992222 
    3800    1.0177016   -4.5354973            0   -3.0107118   0.50299341 
    3900   0.99922554   -4.4904502            0   -2.9933466   0.58398891 
    4000    1.0250305   -4.5137601            0   -2.9779939   0.49941083 
    4100    1.0221382   -4.4948796            0   -2.9634468   0.58505813 
    4200    1.0288351   -4.4926357            0   -2.9511692   0.62198556 
    4300     1.022963   -4.4737273            0   -2.9410587   0.64885082 
    4400    1.0586188   -4.5165569            0   -2.9304667   0.49578642 
    4500    1.0527625   -4.5000229            0   -2.9227068   0.54413766 
    4600    1.0445761   -4.4789892            0   -2.9139386   0.63694601 
    4700    1.0674705   -4.5078985            0    -2.908546   0.57830124 
    4800    1.0609549   -4.4935525            0   -2.9039622   0.66259415 
    4900    1.0616607   -4.4940663            0   -2.9034184    0.6391975 
    5000    1.0665794   -4.5029663            0   -2.9049488   0.58137902 
    5100    1.0362855   -4.4614279            0   -2.9087988   0.70278896 
    5200    1.0572578   -4.4972901            0    -2.913239   0.65188029 
    5300    1.0296463   -4.4597833            0   -2.9171015   0.81528235 
    5400     1.066505   -4.5221353            0   -2.9242294   0.53813227 
    5500    1.0367618   -4.4866834            0   -2.9333407   0.70548532 
    5600    1.0197449   -4.4725605            0   -2.9447135   0.79153148 
    5700    1.0510499   -4.5308212            0   -2.9560711   0.54541245 
    5800    1.0200959   -4.4969128            0     -2.96854   0.62621152 
    5900    1.0099831    -4.493963            0   -2.9807418   0.64475419 
    6000     1.019156   -4.5218419            0   -2.9948773   0.57343982 
    6100    1.0084619   -4.5180584            0   -3.0071163    0.6284599 
    6200   0.99703152   -4.5117968            0   -3.0179805   0.60389382 
    6300   0.97290171   -4.4892256            0   -3.0315621   0.65799729 
    6400     1.012954   -4.5604893            0    -3.042817   0.40276028 
    6500   0.97026361   -4.5060569            0    -3.052346   0.53375354 
    6600   0.97868184   -4.5291139            0   -3.0627903   0.39864896 
    6700   0.96426461   -4.5170216            0   -3.0722988   0.40142845 
    6800   0.96547388   -4.5258528            0   -3.0793182   0.39453844 
    6900   0.95607169   -4.5178826            0   -3.0854349   0.48330693 
    7000   0.97596024   -4.5550967            0   -3.0928507   0.34857344 
    7100   0.97064605   -4.5520254            0   -3.0977414   0.38884909 
    7200   0.94439647   -4.5151128            0   -3.1001576   0.50794048 
    7300   0.96368993   -4.5468047            0   -3.1029428   0.31808288 
    7400   0.95056029   -4.5284854            0   -3.1042953   0.38489174 
    7500   0.95665349   -4.5362997            0   -3.1029803   0.42999122 
    7600   0.94542465   -4.5168349            0   -3.1003393   0.52428221 
    7700   0.96103614   -4.5366742            0   -3.0967885   0.36521246 
    7800   0.96973435   -4.5445491            0   -3.0916311   0.28529043 
    7900   0.94463849   -4.5010457            0    -3.085728   0.51183964 
    8000   0.98703205   -4.5580082            0   -3.0791737   0.40209298 
    8100   0.97230758   -4.5277203            0    -3.070947   0.49816232 
    8200    1.0057905   -4.5696492            0   -3.0627096   0.31082907 
    8300   0.99088624   -4.5392109            0   -3.0546018   0.36111487 
    8400   0.97765585   -4.5090364            0   -3.0442499   0.46166993 
    8500   0.99258779   -4.5216599            0   -3.0345015   0.45342639 
    8600   0.97601566   -4.4866785            0   -3.0243495   0.62144648 
    8700   0.96281938   -4.4577253            0   -3.0151678   0.83113794 
    8800   0.99892259   -4.5020191            0   -3.0053695   0.66161446 
    8900    0.9937383   -4.4834462            0    -2.994564   0.73554582 
    9000    1.0531872   -4.5634522            0   -2.9854998   0.40216853 
    9100     1.012637   -4.4939714            0    -2.976774   0.63762286 
    9200    1.0362319   -4.5201804            0   -2.9676316   0.58889624 
    9300    1.0089313   -4.4718304            0    -2.960185   0.73504838 
    9400    1.0424453   -4.5150682            0     -2.95321   0.54622714 
    9500    1.0005753   -4.4465811            0   -2.9474552   0.85322358 
    9600     1.054331   -4.5218147            0   -2.9421486   0.60091303 
    9700    1.0284528   -4.4792097            0    -2.938316   0.72066011 
    9800     1.039193   -4.4928043            0   -2.9358189   0.57829978 
    9900    1.0357549   -4.4862301            0    -2.934396   0.63037976 
   10000     1.017933   -4.4588305            0   -2.9336982   0.77573549 
Loop time of 1.4971 on 4 procs for 10000 steps with 864 atoms

Performance: 577115.315 tau/day, 6679.575 timesteps/s
99.7% CPU use with 4 MPI tasks x no OpenMP threads

MPI task timing breakdown:
Section |  min time  |  avg time  |  max time  |%varavg| %total
---------------------------------------------------------------
Pair    | 0.96944    | 1.0071     | 1.0339     |   2.4 | 67.27
Neigh   | 0.15886    | 0.16141    | 0.16329    |   0.4 | 10.78
Comm    | 0.23257    | 0.25808    | 0.29883    |   4.9 | 17.24
Output  | 0.00095723 | 0.0011392  | 0.0016741  |   0.9 |  0.08
Modify  | 0.055634   | 0.056025   | 0.056662   |   0.2 |  3.74
Other   |            | 0.01331    |            |       |  0.89

Nlocal:        216.000 ave         220 max         214 min
Histogram: 1 2 0 0 0 0 0 0 0 1
Nghost:        1153.00 ave        1162 max        1146 min
Histogram: 2 0 0 0 0 0 1 0 0 1
Neighs:        6791.25 ave        7112 max        6475 min
Histogram: 1 0 0 0 1 1 0 0 0 1

Total # of neighbors = 27165
Ave neighs/atom = 31.440972
Neighbor list builds = 500
Dangerous builds not checked
unfix 	thermos

fix 	1 all nve

run 	20000
Per MPI rank memory allocation (min/avg/max) = 2.626 | 2.626 | 2.626 Mbytes
Step Temp E_pair E_mol TotEng Press 
   10000     1.017933   -4.4588305            0   -2.9336982   0.77573549 
   10100    1.0633761   -4.5290873            0   -2.9358694   0.49926323 
   10200    1.0279733   -4.4751584            0   -2.9349832   0.71717161 
   10300    1.0070294   -4.4446478            0    -2.935852   0.88344049 
   10400    1.0483361   -4.5058745            0   -2.9351903   0.61360979 
   10500    1.0427116   -4.4978665            0   -2.9356093   0.61340555 
   10600     1.040363   -4.4944803            0   -2.9357419   0.67190612 
   10700    1.0522705   -4.5124392            0   -2.9358602   0.65837833 
   10800    1.0053214   -4.4424301            0   -2.9361933   0.86010967 
   10900    1.0437073   -4.4988316            0   -2.9350826   0.62693364 
   11000    1.0518279   -4.5111385            0   -2.9352228   0.58448211 
   11100    1.0442033   -4.5000863            0   -2.9355943   0.53270655 
   11200    1.0422934   -4.4964186            0    -2.934788   0.56064448 
   11300    1.0158539   -4.4564208            0   -2.9344036   0.72032648 
   11400    1.0410289   -4.4946315            0   -2.9348954   0.62559223 
   11500    1.0408102    -4.494773            0   -2.9353646    0.5669573 
   11600    1.0066876   -4.4440968            0   -2.9358131   0.76750601 
   11700    1.0323124   -4.4821171            0   -2.9354407   0.70701126 
   11800    1.0297021   -4.4798023            0   -2.9370369   0.71677834 
   11900    1.0638457   -4.5300008            0   -2.9360792   0.56011933 
   12000    1.0404755   -4.4935728            0    -2.934666   0.71768823 
   12100    1.0342182   -4.4842487            0   -2.9347169   0.69983272 
   12200    1.0064093   -4.4419193            0   -2.9340525   0.83488559 
   12300     1.056497   -4.5186393            0   -2.9357279    0.5228638 
   12400    1.0421674   -4.4966541            0   -2.9352123   0.58541333 
   12500    1.0375866   -4.4910892            0   -2.9365107   0.61367917 
   12600    1.0171652   -4.4584951            0   -2.9345133   0.74491546 
   12700    1.0314291   -4.4793338            0   -2.9339809   0.70458694 
   12800    1.0323048    -4.481462            0    -2.934797   0.70445376 
   12900    1.0639601   -4.5288531            0     -2.93476   0.48611524 
   13000    1.0374702   -4.4897467            0   -2.9353425   0.61888229 
   13100    1.0447258   -4.4999321            0   -2.9346572   0.57376377 
   13200    1.0457316   -4.5010638            0   -2.9342819   0.57134578 
   13300    1.0650829    -4.530378            0   -2.9346028   0.51094871 
   13400    1.0491499   -4.5060774            0    -2.934174   0.61931859 
   13500    1.0369211   -4.4882763            0   -2.9346948    0.7353558 
   13600    1.0206684   -4.4637939            0   -2.9345633   0.78189771 
   13700    1.0453265   -4.5013644            0   -2.9351895   0.61444553 
   13800    1.0112176   -4.4495917            0   -2.9345209   0.73396339 
   13900    1.0235333   -4.4685611            0   -2.9350381   0.69962778 
   14000    1.0435672   -4.4990737            0   -2.9355346   0.62802442 
   14100    1.0162823   -4.4576366            0   -2.9349776   0.75210867 
   14200    1.0344816   -4.4848639            0   -2.9349375   0.63631409 
   14300     1.026739   -4.4740759            0   -2.9357499   0.71819094 
   14400     1.040196   -4.4935831            0    -2.935095   0.72747687 
   14500    1.0539089   -4.5128063            0   -2.9337727    0.6383738 
   14600    1.0217612   -4.4667602            0   -2.9358923   0.74869744 
   14700     1.014127   -4.4550555            0   -2.9356256   0.79893314 
   14800    1.0326952   -4.4823036            0   -2.9350536   0.73719415 
   14900    1.0552854   -4.5163147            0   -2.9352186   0.62856522 
   15000    1.0244701   -4.4710168            0   -2.9360902    0.8126634 
   15100    1.0346732   -4.4861897            0   -2.9359763   0.75138804 
   15200    1.0181949   -4.4610064            0   -2.9354818   0.83323655 
   15300    1.0409884    -4.494691            0   -2.9350157   0.63208172 
   15400    1.0285178    -4.474377            0    -2.933386   0.63553816 
   15500    1.0422172   -4.4961942            0   -2.9346778    0.5805967 
   15600    1.0451014    -4.501739            0   -2.9359013   0.52777002 
   15700    1.0523128   -4.5132229            0   -2.9365806   0.47754516 
   15800    1.0413334   -4.4942097            0   -2.9340175   0.53972359 
   15900    1.0762428   -4.5489749            0   -2.9364792   0.39288763 
   16000    1.0486306   -4.5072561            0   -2.9361307   0.57964365 
   16100    1.0485265   -4.5062853            0   -2.9353159   0.58475818 
   16200    1.0345387   -4.4859313            0   -2.9359193   0.59852551 
   16300    1.0516161    -4.512294            0   -2.9366956   0.51176537 
   16400     1.026752   -4.4738718            0   -2.9355263   0.70492135 
   16500    1.0285554   -4.4752408            0   -2.9341933   0.71865271 
   16600    1.0328688   -4.4837622            0   -2.9362522   0.69094243 
   16700    1.0229969   -4.4678158            0   -2.9350965   0.74822405 
   16800     1.021042   -4.4646627            0   -2.9348724   0.73586013 
   16900    1.0214857   -4.4666032            0   -2.9361481   0.68130956 
   17000    1.0632282   -4.5293431            0   -2.9363466   0.45127952 
   17100    1.0479403   -4.5059629            0   -2.9358718   0.50645565 
   17200   0.99583783   -4.4276347            0   -2.9356068   0.78973333 
   17300    1.0264782   -4.4733909            0   -2.9354557   0.69956899 
   17400    1.0213421   -4.4650983            0   -2.9348584   0.84549738 
   17500    1.0413229   -4.4940446            0   -2.9338682   0.66236893 
   17600     1.036393   -4.4872872            0   -2.9344971   0.61606869 
   17700    1.0219062   -4.4659591            0    -2.934874   0.72221947 
   17800    1.0396576   -4.4939313            0   -2.9362499   0.64283017 
   17900    1.0064443   -4.4427878            0   -2.9348687   0.86152202 
   18000    1.0140263   -4.4545246            0   -2.9352457   0.81175996 
   18100    1.0461207   -4.5026133            0   -2.9352484   0.60467347 
   18200    1.0123138   -4.4527532            0   -2.9360401   0.78330562 
   18300    1.0536933   -4.5154122            0   -2.9367016   0.50578687 
   18400    1.0435413   -4.4987448            0   -2.9352445   0.54990626 
   18500    1.0584432   -4.5207368            0   -2.9349097   0.46518465 
   18600    1.0096795   -4.4470105            0   -2.9342442   0.80178713 
   18700    1.0539077   -4.5129809            0    -2.933949   0.48242998 
   18800    1.0405938   -4.4942376            0   -2.9351534   0.53676474 
   18900    1.0132395   -4.4520627            0   -2.9339625   0.74183998 
   19000     1.055262   -4.5152956            0   -2.9342346   0.55191125 
   19100    1.0631844   -4.5275236            0   -2.9345929   0.51160679 
   19200    1.0189538    -4.462705            0   -2.9360433   0.74695431 
   19300    1.0505725   -4.5087161            0   -2.9346813   0.52329571 
   19400    1.0133244   -4.4535543            0   -2.9353269   0.72013172 
   19500    1.0293314   -4.4772896            0   -2.9350796   0.69169767 
   19600    1.0640826   -4.5302097            0   -2.9359331   0.52729854 
   19700    1.0335017   -4.4839909            0   -2.9355326   0.66844278 
   19800    1.0626735   -4.5280177            0   -2.9358523   0.50144773 
   19900    1.0253194    -4.470811            0   -2.9346119    0.7378026 
   20000     1.029527   -4.4772566            0   -2.9347535   0.71290461 
   20100    1.0285451   -4.4752971            0   -2.9342652    0.7082726 
   20200    1.0407084   -4.4937079            0   -2.9344521   0.67818491 
   20300    1.0267194   -4.4719734            0   -2.9336768   0.74540856 
   20400    1.0401702   -4.4932029            0   -2.9347535   0.64536234 
   20500    1.0431263   -4.4985498            0   -2.9356713    0.6148104 
   20600    1.0407047     -4.49502            0   -2.9357698    0.5963456 
   20700    1.0499793   -4.5085974            0   -2.9354513   0.57966257 
   20800     1.051787   -4.5131729            0   -2.9373185   0.53175334 
   20900    1.0314293   -4.4809166            0   -2.9355634   0.60250362 
   21000    1.0432811   -4.4984063            0   -2.9352959   0.52414896 
   21100    1.0144705   -4.4549929            0   -2.9350485   0.65720826 
   21200    1.0249719   -4.4715134            0   -2.9358351   0.63889275 
   21300    1.0001008   -4.4339668            0    -2.935552   0.81102093 
   21400    1.0338693    -4.484362            0    -2.935353   0.69589868 
   21500    1.0482474   -4.5067708            0   -2.9362196   0.61520203 
   21600    1.0171954   -4.4593967            0   -2.9353696   0.78207925 
   21700    1.0174201   -4.4591322            0   -2.9347683   0.81908401 
   21800    1.0530629   -4.5123498            0   -2.9345838   0.64731966 
   21900    1.0366379   -4.4881479            0   -2.9349908   0.65190773 
   22000    1.0545002   -4.5155124            0   -2.9355928   0.54108363 
   22100    1.0495947   -4.5090903            0   -2.9365205   0.56756619 
   22200    1.0375418   -4.4912242            0   -2.9367128   0.69023535 
   22300    1.0405822   -4.4952071            0   -2.9361403    0.6444324 
   22400    1.0121785   -4.4523732            0   -2.9358627     0.753767 
   22500    1.0235232    -4.467707            0   -2.9341992   0.66663663 
   22600     1.012084   -4.4523604            0   -2.9359916   0.74355734 
   22700    1.0465889   -4.5045403            0    -2.936474   0.49709654 
   22800    1.0172395   -4.4598038            0   -2.9357106   0.67438259 
   22900    1.0208693   -4.4641866            0    -2.934655   0.70720357 
   23000    1.0481867   -4.5060218            0   -2.9355615    0.5653655 
   23100    1.0431856   -4.4977933            0    -2.934826   0.60211785 
   23200    1.0364976   -4.4884312            0   -2.9354843   0.64726701 
   23300     1.036583   -4.4882143            0   -2.9351394   0.65869738 
   23400    1.0136915    -4.453825            0   -2.9350476   0.85016512 
   23500    1.0757508   -4.5466027            0   -2.9348442   0.44032379 
   23600    1.0663554   -4.5335869            0   -2.9359051   0.52058308 
   23700    1.0415523   -4.4959572            0    -2.935437   0.65841288 
   23800    1.0358343   -4.4887969            0   -2.9368437     0.658447 
   23900    1.0401663   -4.4956872            0   -2.9372435   0.62801027 
   24000    1.0464723    -4.505633            0   -2.9377414   0.57552234 
   24100    1.0321101   -4.4828257            0   -2.9364524   0.64517823 
   24200    1.0338169   -4.4846239            0   -2.9356934   0.61737674 
   24300    1.0275723   -4.4743389            0   -2.9347644   0.70005338 
   24400    1.0416876   -4.4946025            0   -2.9338796   0.56228928 
   24500    1.0285436   -4.4759106            0   -2.9348808   0.61223266 
   24600    1.0361011   -4.4860062            0   -2.9336533   0.55007971 
   24700    1.0381553   -4.4898322            0   -2.9344015   0.56535772 
   24800    1.0352249    -4.486182            0   -2.9351419   0.61915142 
   24900    1.0466697   -4.5025154            0    -2.934328   0.61731429 
   25000    1.0198284   -4.4611097            0   -2.9331377   0.78316022 
   25100    1.0401452   -4.4926892            0   -2.9342772   0.63179327 
   25200    1.0207196   -4.4645244            0   -2.9352171    0.7082844 
   25300    1.0329211   -4.4831062            0   -2.9355178   0.62397764 
   25400     1.024624   -4.4706419            0   -2.9354847   0.69375002 
   25500    1.0481201   -4.5060335            0   -2.9356729   0.59046624 
   25600    1.0527428   -4.5137595            0    -2.936473   0.56623483 
   25700    1.0452603   -4.5016802            0   -2.9356045   0.56922205 
   25800    1.0393976   -4.4927798            0   -2.9354879   0.52484331 
   25900    1.0340043   -4.4837923            0    -2.934581   0.54609749 
   26000    1.0118228   -4.4509723            0   -2.9349948   0.72742161 
   26100    1.0515853    -4.510513            0   -2.9349607   0.57379878 
   26200    1.0138193   -4.4538507            0   -2.9348819   0.76147792 
   26300    1.0650631   -4.5303155            0   -2.9345698   0.43830848 
   26400    1.0531328     -4.51349            0   -2.9356191   0.49381004 
   26500     1.012651   -4.4525178            0   -2.9352994   0.74526222 
   26600    1.0171755   -4.4598305            0   -2.9358332   0.80181852 
   26700     1.003775   -4.4388058            0    -2.934886   0.88473903 
   26800    1.0465645   -4.5030486            0   -2.9350188   0.56298264 
   26900    1.0335457   -4.4841305            0   -2.9356063    0.5870534 
   27000    1.0320675    -4.481683            0   -2.9353735   0.65407997 
   27100    1.0241672   -4.4687131            0   -2.9342403   0.77646148 
   27200    1.0469283   -4.5038926            0   -2.9353178    0.6475729 
   27300    1.0421224   -4.4957241            0   -2.9343498   0.66343946 
   27400    1.0345934   -4.4846494            0   -2.9345554   0.73959933 
   27500    1.0295388   -4.4767693            0   -2.9342485   0.76102759 
   27600    1.0487928    -4.506335            0   -2.9349666   0.64095081 
   27700    1.0279033   -4.4743771            0   -2.9343067   0.76744008 
   27800    1.0605062   -4.5242095            0   -2.9352914   0.59362761 
   27900    1.0579313   -4.5203351            0   -2.9352748   0.52339377 
   28000    1.0362739   -4.4886967            0    -2.936085   0.67106689 
   28100    1.0480755    -4.506212            0   -2.9359183   0.69394547 
   28200    1.0408006   -4.4958553            0   -2.9364613    0.6556039 
   28300    1.0463592   -4.5042418            0   -2.9365196   0.60040797 
   28400    1.0563409   -4.5181815            0   -2.9355041   0.53186609 
   28500    1.0400196   -4.4936922            0   -2.9354684   0.59934749 
   28600    1.0461261   -4.5037654            0   -2.9363925   0.51610749 
   28700    1.0576613   -4.5199363            0   -2.9352805    0.5067315 
   28800    1.0525035   -4.5130206            0   -2.9360926   0.62272607 
   28900    1.0343287   -4.4850135            0   -2.9353161   0.70825389 
   29000    1.0264655   -4.4732245            0   -2.9353083   0.69782761 
   29100    1.0552231   -4.5152219            0   -2.9342193   0.52164025 
   29200    1.0186498   -4.4609488            0   -2.9347425   0.71253155 
   29300    1.0491403   -4.5071968            0   -2.9353078   0.57736107 
   29400     1.041479   -4.4961199            0   -2.9357095    0.6870402 
   29500     1.044356   -4.5000679            0    -2.935347   0.63629979 
   29600     1.036931   -4.4894697            0   -2.9358734   0.62096551 
   29700    1.0635458   -4.5298293            0   -2.9363571   0.51697104 
   29800     1.051413   -4.5115726            0   -2.9362784    0.5752997 
   29900    1.0777232    -4.552167            0   -2.9374533   0.46432917 
   30000    1.0555844   -4.5181495            0   -2.9366055   0.55705141 
Loop time of 2.9574 on 4 procs for 20000 steps with 864 atoms

Performance: 584297.546 tau/day, 6762.703 timesteps/s
99.7% CPU use with 4 MPI tasks x no OpenMP threads

MPI task timing breakdown:
Section |  min time  |  avg time  |  max time  |%varavg| %total
---------------------------------------------------------------
Pair    | 1.9297     | 2.0143     | 2.1135     |   4.7 | 68.11
Neigh   | 0.31649    | 0.32235    | 0.32541    |   0.6 | 10.90
Comm    | 0.44003    | 0.5427     | 0.63353    |   9.6 | 18.35
Output  | 0.0020328  | 0.0024033  | 0.0034732  |   1.3 |  0.08
Modify  | 0.049063   | 0.049893   | 0.050374   |   0.2 |  1.69
Other   |            | 0.02574    |            |       |  0.87

Nlocal:        216.000 ave         223 max         207 min
Histogram: 1 0 0 1 0 0 0 0 0 2
Nghost:        1143.00 ave        1163 max        1124 min
Histogram: 1 0 0 0 2 0 0 0 0 1
Neighs:        6824.50 ave        7388 max        6238 min
Histogram: 1 0 1 0 0 0 0 1 0 1

Total # of neighbors = 27298
Ave neighs/atom = 31.594907
Neighbor list builds = 1000
Dangerous builds not checked

compute 1 all msd
compute 2 all vacf

thermo_style custom c_1[4] c_2[4]
thermo 100

run 10000
Per MPI rank memory allocation (min/avg/max) = 3.376 | 3.376 | 3.376 Mbytes
c_1[4] c_2[4] 
           0    3.1630881 
 0.027052277     1.312197 
  0.07955515   0.10480049 
  0.13331291  0.044153562 
  0.19431472  0.042612815 
  0.25603959   0.10698617 
  0.31631783 -0.015602088 
  0.37877044  0.025821601 
  0.44640197   0.19750361 
  0.52001642   0.08716523 
  0.59968836  0.088292247 
  0.67624324  0.010413392 
  0.75533984  0.036120285 
  0.83287098   0.08212881 
  0.89576246   0.12676788 
  0.95051352 -0.024555408 
   1.0006856 -0.00093938797 
   1.0507591  0.059379042 
    1.113422  0.082923313 
   1.1861217  0.059945375 
   1.2533866 -0.012255083 
   1.3160148 0.00031317954 
   1.3730405  -0.11955382 
   1.4282934  -0.06387178 
   1.4980887 -0.015033771 
   1.5693892 -0.022504888 
   1.6481186  0.021672006 
   1.7255997  0.025755115 
   1.7996403 -0.014761365 
   1.8707035 -0.072456279 
   1.9392248  0.026080569 
    2.008281 -0.029468389 
   2.0710738  -0.12291715 
   2.1433533 -0.0050920499 
   2.2173584  0.018584017 
   2.2880317  0.099363981 
   2.3592558  0.048491751 
   2.4353359 0.0028616519 
   2.5105901  0.071831857 
   2.5698342 0.0057049205 
   2.6330129 -0.016615329 
   2.6977053 -0.002206618 
   2.7511767    0.0492375 
   2.7952316  0.062992022 
   2.8414189  0.049560755 
   2.8983522  0.049571852 
   2.9591764  0.024907012 
   3.0134181  0.040331802 
   3.0732926  0.065743623 
   3.1377238 0.0046867664 
   3.2023362  0.055200958 
   3.2556588 -0.012600155 
   3.3150518  0.017842639 
   3.3651292  0.045707945 
   3.4429674 -0.028021808 
   3.5155499  0.050515896 
   3.5997915 -0.040755293 
    3.682657  -0.13097565 
   3.7470691  -0.10654164 
    3.819476 -0.079839951 
   3.9050674 0.0037432892 
   3.9819661 -0.0014953074 
   4.0519034 -0.085831546 
   4.1239757  0.057703406 
   4.1935037 -0.00079224271 
   4.2529455  -0.10630698 
   4.3266138  0.027343062 
   4.4166918  0.015770635 
   4.5077601 -0.0034879885 
   4.5945875   0.12564564 
    4.673751 -0.009004279 
   4.7709807  0.012028761 
   4.8628269 -0.0054971764 
    4.923711   0.01036274 
   4.9843758  0.048548815 
   5.0423139  0.073553442 
   5.1190052 -0.0047520199 
   5.2067885 -0.020924374 
   5.2759414 -0.043974718 
   5.3449189  0.076195312 
   5.3922087 -0.076074524 
   5.4276404  -0.06431641 
   5.4690482 -0.074765364 
    5.509751 -0.00099940325 
    5.557372 -0.011522092 
   5.5989246  -0.12836788 
    5.661486  -0.09727453 
   5.7206559 -0.057098871 
    5.783122  0.031560417 
   5.8399452  0.075528983 
   5.9071339   0.10065642 
   5.9846441   0.08172905 
   6.0543698 -0.013165114 
   6.1166068 -0.054764635 
   6.1794428 -0.034914183 
   6.2383413  -0.12261336 
   6.3235836  0.088327875 
   6.4219186    0.1094106 
   6.5098118  0.050751568 
   6.5772548  0.098979717 
   6.6285883 -0.00068562184 
Loop time of 1.47552 on 4 procs for 10000 steps with 864 atoms

Performance: 585556.445 tau/day, 6777.274 timesteps/s
99.7% CPU use with 4 MPI tasks x no OpenMP threads

MPI task timing breakdown:
Section |  min time  |  avg time  |  max time  |%varavg| %total
---------------------------------------------------------------
Pair    | 0.95349    | 1.0013     | 1.0502     |   3.6 | 67.86
Neigh   | 0.15778    | 0.1615     | 0.16327    |   0.5 | 10.95
Comm    | 0.22342    | 0.27373    | 0.32532    |   7.3 | 18.55
Output  | 0.00086316 | 0.0010373  | 0.001525   |   0.9 |  0.07
Modify  | 0.02452    | 0.025009   | 0.0253     |   0.2 |  1.69
Other   |            | 0.01294    |            |       |  0.88

Nlocal:        216.000 ave         225 max         205 min
Histogram: 1 0 0 0 1 0 0 0 1 1
Nghost:        1167.75 ave        1179 max        1159 min
Histogram: 1 0 0 1 1 0 0 0 0 1
Neighs:        6798.75 ave        7385 max        6239 min
Histogram: 1 0 1 0 0 0 0 1 0 1

Total # of neighbors = 27195
Ave neighs/atom = 31.475694
Neighbor list builds = 500
Dangerous builds not checked
Total wall time: 0:00:08
