LAMMPS (29 Sep 2021 - Update 2)
#RDF

units		lj
boundary	p p p
atom_style	atomic

lattice		fcc ${rho}
lattice		fcc 0.7
Lattice spacing in x,y,z = 1.7878071 1.7878071 1.7878071
region		box block 0 6 0 6 0 6
create_box	1 box
Created orthogonal box = (0.0000000 0.0000000 0.0000000) to (10.726842 10.726842 10.726842)
  1 by 2 by 2 MPI processor grid
create_atoms	1 box
Created 864 atoms
  using lattice units in orthogonal box = (0.0000000 0.0000000 0.0000000) to (10.726842 10.726842 10.726842)
  create_atoms CPU = 0.002 seconds
mass		1 1.0

velocity	all create $T 87287 loop geom mom yes rot yes
velocity	all create 1 87287 loop geom mom yes rot yes
reset_timestep	0
timestep	0.001
pair_style	lj/cut 2.5
pair_coeff	1 1 1.0 1.0 2.5

neighbor	0.3 bin
neigh_modify	every 20 delay 0 check no
thermo		100

#Equilibration

fix		thermos all nvt temp $T $T 1.0
fix		thermos all nvt temp 1 $T 1.0
fix		thermos all nvt temp 1 1 1.0
run		1000
Neighbor list info ...
  update every 20 steps, delay 0 steps, check no
  max neighbors/atom: 2000, page size: 100000
  master list distance cutoff = 2.8
  ghost atom cutoff = 2.8
  binsize = 1.4, bins = 8 8 8
  1 neighbor lists, perpetual/occasional/extra = 1 0 0
  (1) pair lj/cut, perpetual
      attributes: half, newton on
      pair build: half/bin/atomonly/newton
      stencil: half/bin/3d
      bin: standard
Per MPI rank memory allocation (min/avg/max) = 2.626 | 2.626 | 2.626 Mbytes
Step Temp E_pair E_mol TotEng Press 
       0            1   -5.2272486            0   -3.7289847   -4.5808285 
     100   0.71513491   -4.8375807            0   -3.7661199   -1.9975966 
     200   0.66648696    -4.756809            0   -3.7582357  -0.93167675 
     300   0.67348482   -4.7528426            0   -3.7437847  -0.79211397 
     400   0.67977711   -4.7447968            0   -3.7263113  -0.73965211 
     500   0.71065023   -4.7714706            0    -3.706729  -0.78171617 
     600   0.68766062   -4.7203973            0   -3.6901003  -0.56457957 
     700   0.69746837   -4.7179865            0   -3.6729948  -0.54236663 
     800   0.72224577   -4.7387381            0   -3.6566234  -0.56684048 
     900   0.70754899   -4.7011015            0   -3.6410063  -0.36707372 
    1000   0.71963838   -4.7008027            0   -3.6225945  -0.34795576 
Loop time of 0.146948 on 4 procs for 1000 steps with 864 atoms

Performance: 587962.468 tau/day, 6805.121 timesteps/s
99.5% CPU use with 4 MPI tasks x no OpenMP threads

MPI task timing breakdown:
Section |  min time  |  avg time  |  max time  |%varavg| %total
---------------------------------------------------------------
Pair    | 0.097645   | 0.099515   | 0.10115    |   0.4 | 67.72
Neigh   | 0.015857   | 0.016026   | 0.016102   |   0.1 | 10.91
Comm    | 0.02252    | 0.024246   | 0.026042   |   0.9 | 16.50
Output  | 0.00010353 | 0.0001194  | 0.00016289 |   0.0 |  0.08
Modify  | 0.005514   | 0.0056267  | 0.005695   |   0.1 |  3.83
Other   |            | 0.001416   |            |       |  0.96

Nlocal:        216.000 ave         219 max         213 min
Histogram: 1 1 0 0 0 0 0 0 1 1
Nghost:        1167.00 ave        1173 max        1163 min
Histogram: 1 0 0 2 0 0 0 0 0 1
Neighs:        6791.25 ave        7067 max        6535 min
Histogram: 1 0 1 0 0 0 1 0 0 1

Total # of neighbors = 27165
Ave neighs/atom = 31.440972
Neighbor list builds = 50
Dangerous builds not checked
unfix 	thermos

fix 	1 all nve

run 	20000
Per MPI rank memory allocation (min/avg/max) = 2.626 | 2.626 | 2.626 Mbytes
Step Temp E_pair E_mol TotEng Press 
    1000   0.71963838   -4.7008027            0   -3.6225945  -0.34795576 
    1100   0.71788087   -4.6978646            0   -3.6222896  -0.33029853 
    1200   0.73791339   -4.7273119            0   -3.6217229  -0.46643317 
    1300   0.71692937   -4.6954801            0   -3.6213307  -0.32933884 
    1400   0.73488232    -4.724493            0   -3.6234453  -0.46192594 
    1500   0.72617188   -4.7106299            0   -3.6226328  -0.38753065 
    1600   0.70559254   -4.6799468            0    -3.622783  -0.27590365 
    1700   0.72618836   -4.7092187            0   -3.6211969  -0.36526485 
    1800   0.73608806   -4.7239185            0   -3.6210644  -0.35506461 
    1900   0.74362606   -4.7364797            0   -3.6223316  -0.47170226 
    2000   0.74114747   -4.7324986            0   -3.6220641  -0.45676923 
    2100   0.72112534   -4.7025944            0   -3.6221583  -0.31207317 
    2200   0.74076194   -4.7322383            0   -3.6223815  -0.45357965 
    2300   0.72989854   -4.7158192            0   -3.6222385  -0.35940227 
    2400   0.71210876   -4.6885937            0   -3.6216668  -0.26584373 
    2500   0.75225458   -4.7478372            0   -3.6207613  -0.47806163 
    2600   0.73564268   -4.7237791            0   -3.6215923  -0.38549836 
    2700   0.73819523   -4.7295291            0   -3.6235178  -0.47202639 
    2800   0.73080508   -4.7185526            0   -3.6236137  -0.43886541 
    2900    0.7173999   -4.6981283            0    -3.623274  -0.31951792 
    3000   0.72468748   -4.7075944            0   -3.6218214   -0.3249239 
    3100   0.71121902   -4.6881856            0   -3.6225919  -0.24139214 
    3200   0.73321757   -4.7205398            0   -3.6219864  -0.35898036 
    3300   0.71369817   -4.6922761            0   -3.6229679  -0.26318391 
    3400   0.73906365    -4.730225            0   -3.6229126   -0.3759761 
    3500   0.74190972   -4.7334326            0   -3.6218561  -0.35345097 
    3600   0.74696026   -4.7417152            0   -3.6225716  -0.43158338 
    3700   0.75529849   -4.7538714            0    -3.622235  -0.42824818 
    3800   0.72929852   -4.7158971            0   -3.6232155  -0.26367597 
    3900    0.7297762   -4.7167875            0   -3.6233902  -0.25438275 
    4000   0.73691254   -4.7269856            0   -3.6228961  -0.29440122 
    4100   0.75127399   -4.7488042            0   -3.6231975  -0.43616641 
    4200   0.73586841   -4.7271781            0    -3.624653  -0.38503109 
    4300   0.73633791   -4.7268435            0    -3.623615    -0.383371 
    4400   0.74550096   -4.7413691            0   -3.6244119  -0.39591718 
    4500   0.73494478   -4.7243488            0   -3.6232076  -0.37445572 
    4600   0.73230887   -4.7203597            0   -3.6231678  -0.38842109 
    4700   0.72881188   -4.7137778            0   -3.6218253  -0.36218893 
    4800   0.73503065   -4.7236428            0   -3.6223729  -0.41519147 
    4900   0.74224087   -4.7347308            0   -3.6226581  -0.52730909 
    5000   0.74007207   -4.7314782            0   -3.6226549    -0.483127 
    5100   0.71372904   -4.6917429            0   -3.6223885  -0.30862089 
    5200    0.7542454   -4.7529999            0   -3.6229412  -0.53341441 
    5300   0.72977895   -4.7169092            0   -3.6235078  -0.32086441 
    5400   0.75808184   -4.7592443            0   -3.6234376  -0.43194844 
    5500   0.72241644   -4.7059891            0   -3.6236186  -0.25767543 
    5600   0.71959006   -4.7010537            0   -3.6229179  -0.28651624 
    5700   0.74232055   -4.7353229            0   -3.6231308  -0.41473843 
    5800   0.73028213   -4.7170578            0   -3.6229025  -0.38964568 
    5900   0.73406658   -4.7232952            0   -3.6234698  -0.41560013 
    6000   0.73716439   -4.7272565            0   -3.6227897  -0.43654193 
    6100   0.71051456   -4.6872897            0   -3.6227514  -0.28384834 
    6200   0.73894656   -4.7301149            0    -3.622978  -0.40482322 
    6300    0.7463422    -4.740308            0   -3.6220904  -0.45500465 
    6400   0.72277428   -4.7052013            0   -3.6222947  -0.28374068 
    6500   0.74763152   -4.7424658            0   -3.6223165  -0.36888818 
    6600   0.73845122   -4.7281464            0   -3.6217516  -0.29070116 
    6700   0.74271855   -4.7349357            0   -3.6221473  -0.29187593 
    6800   0.74507688   -4.7392013            0   -3.6228795  -0.30349431 
    6900   0.74335332   -4.7352818            0   -3.6215424  -0.35185673 
    7000   0.73641152   -4.7261984            0   -3.6228597  -0.33585374 
    7100     0.728649   -4.7144187            0   -3.6227102  -0.25472174 
    7200   0.75050261    -4.747257            0   -3.6228061  -0.38570692 
    7300   0.73568265   -4.7244743            0   -3.6222275  -0.31284883 
    7400   0.73333844   -4.7224101            0   -3.6236756  -0.37692249 
    7500    0.7473417   -4.7434259            0   -3.6237108  -0.53343681 
    7600    0.7301031   -4.7181301            0    -3.624243  -0.40991752 
    7700   0.74325832   -4.7378023            0   -3.6242052  -0.48214911 
    7800   0.71028145   -4.6878099            0   -3.6236208  -0.25822299 
    7900   0.74433756   -4.7394218            0   -3.6242077  -0.40827474 
    8000   0.74169826   -4.7353354            0   -3.6240757  -0.35661402 
    8100   0.75268431   -4.7512472            0   -3.6235275  -0.43085635 
    8200   0.73704037   -4.7272239            0   -3.6229429  -0.26602098 
    8300   0.75276447     -4.74976            0   -3.6219202  -0.35349277 
    8400   0.73606291   -4.7250009            0   -3.6221844  -0.28978935 
    8500   0.73182404   -4.7180645            0    -3.621599  -0.28180994 
    8600   0.72483927   -4.7091305            0     -3.62313  -0.27932469 
    8700   0.74670657   -4.7412102            0   -3.6224467  -0.43053556 
    8800   0.72248659   -4.7050743            0   -3.6225987  -0.31547433 
    8900   0.74006502   -4.7308867            0    -3.622074  -0.38509038 
    9000   0.71716439   -4.6975613            0   -3.6230598  -0.27184687 
    9100   0.72708901   -4.7123895            0   -3.6230183  -0.36270848 
    9200   0.74035483    -4.732471            0   -3.6232241  -0.46955256 
    9300   0.72110738   -4.7043481            0   -3.6239389  -0.29612693 
    9400   0.73577376   -4.7257992            0    -3.623416  -0.33631857 
    9500   0.73490364   -4.7248549            0   -3.6237753  -0.29069669 
    9600   0.74416085   -4.7383485            0   -3.6233992  -0.37544132 
    9700   0.74479844   -4.7381675            0   -3.6222629  -0.38699368 
    9800   0.73035556   -4.7182072            0   -3.6239419  -0.32612386 
    9900   0.72791645   -4.7139643            0   -3.6233533  -0.35623134 
   10000   0.72773688    -4.713414            0   -3.6230721  -0.40262192 
   10100   0.73099867   -4.7182232            0   -3.6229943   -0.4727418 
   10200    0.7192542   -4.6999271            0   -3.6222945  -0.40192952 
   10300   0.73605419    -4.725249            0   -3.6224456  -0.54156114 
   10400   0.73491699   -4.7229653            0   -3.6218657  -0.47389391 
   10500   0.71856508   -4.6986893            0   -3.6220892  -0.33657385 
   10600   0.73370837   -4.7218105            0   -3.6225217  -0.45763079 
   10700   0.71582489   -4.6954333            0   -3.6229387  -0.41877817 
   10800   0.71763341   -4.6971191            0   -3.6219148    -0.416316 
   10900   0.74563637   -4.7397758            0   -3.6226158  -0.51379123 
   11000    0.7365939   -4.7260947            0   -3.6224827  -0.45310042 
   11100   0.73200397   -4.7184071            0    -3.621672  -0.43025689 
   11200    0.7286157   -4.7130823            0   -3.6214237  -0.37958616 
   11300   0.73379497   -4.7202393            0   -3.6208208  -0.42397964 
   11400   0.72602474   -4.7098821            0   -3.6221054  -0.43878448 
   11500   0.72183271   -4.7041692            0   -3.6226734   -0.4485336 
   11600   0.72841202   -4.7141376            0   -3.6227842     -0.48728 
   11700   0.69529163    -4.663912            0   -3.6221816  -0.27537398 
   11800   0.72965387   -4.7153379            0   -3.6221239   -0.4951627 
   11900   0.70703246   -4.6807043            0   -3.6213831  -0.35802312 
   12000   0.72466864   -4.7078243            0   -3.6220795  -0.48533447 
   12100   0.73571033   -4.7232004            0   -3.6209122  -0.54530169 
   12200    0.7083125   -4.6827383            0   -3.6214992  -0.38458313 
   12300    0.7369603   -4.7260402            0   -3.6218792  -0.51086949 
   12400   0.71385926   -4.6901786            0   -3.6206291  -0.38899122 
   12500   0.72663627   -4.7105739            0    -3.621881  -0.44565193 
   12600   0.72523567   -4.7091943            0   -3.6225999  -0.42895205 
   12700   0.74438228   -4.7385043            0   -3.6232232  -0.53157233 
   12800   0.73682689   -4.7270714            0   -3.6231103  -0.47544896 
   12900   0.73108302   -4.7191433            0    -3.623788  -0.41449892 
   13000   0.74082526   -4.7336868            0    -3.623735   -0.4735346 
   13100   0.71556464    -4.696042            0   -3.6239374  -0.35472896 
   13200   0.74054987   -4.7329117            0   -3.6233726  -0.44934464 
   13300   0.72394394   -4.7080703            0   -3.6234113  -0.29190013 
   13400   0.73529496   -4.7252117            0   -3.6235459  -0.35131983 
   13500   0.73066631     -4.71748            0    -3.622749  -0.34538774 
   13600   0.72371566   -4.7061029            0   -3.6217859  -0.31987957 
   13700   0.71600651   -4.6953251            0   -3.6225584  -0.27055989 
   13800    0.7468779   -4.7433414            0   -3.6243212  -0.50362741 
   13900   0.73507284   -4.7252932            0   -3.6239602  -0.47058696 
   14000   0.74119955   -4.7333212            0   -3.6228087  -0.51718066 
   14100   0.71670463   -4.6963526            0   -3.6225399   -0.3970418 
   14200   0.74236505   -4.7356905            0   -3.6234317  -0.51586204 
   14300   0.71123787   -4.6886354            0   -3.6230134  -0.33868343 
   14400   0.74132007    -4.733202            0   -3.6225089   -0.4898763 
   14500   0.71713446   -4.6963596            0   -3.6219029  -0.29325153 
   14600   0.72899261   -4.7142762            0   -3.6220529  -0.33873121 
   14700   0.72676577   -4.7120754            0   -3.6231885  -0.39076027 
   14800    0.7412175   -4.7338402            0   -3.6233008  -0.47671308 
   14900   0.71985212   -4.7007336            0   -3.6222052  -0.35177529 
   15000   0.72396087    -4.706629            0   -3.6219445  -0.39306163 
   15100   0.72322076   -4.7057442            0   -3.6221686  -0.42088807 
   15200   0.72321232   -4.7054085            0   -3.6218456  -0.36907486 
   15300   0.73271345   -4.7195522            0   -3.6217541  -0.42193225 
   15400   0.71987213   -4.7008565            0   -3.6222981  -0.36084269 
   15500   0.73033958   -4.7150302            0   -3.6207887  -0.40334836 
   15600   0.72245503   -4.7037077            0   -3.6212794  -0.31235874 
   15700   0.73014656   -4.7160073            0   -3.6220551   -0.3442963 
   15800   0.72095472   -4.7022533            0   -3.6220729  -0.29772115 
   15900   0.73459854   -4.7232054            0   -3.6225829  -0.49200274 
   16000   0.70203845   -4.6737001            0   -3.6218613  -0.35637117 
   16100    0.7239566   -4.7061064            0   -3.6214284   -0.4140683 
   16200   0.73467697   -4.7213239            0   -3.6205839   -0.3974909 
   16300   0.73297037   -4.7183497            0   -3.6201666  -0.42521049 
   16400   0.73147117   -4.7170298            0    -3.621093  -0.43479851 
   16500     0.730289   -4.7155967            0    -3.621431   -0.4056182 
   16600   0.74526795   -4.7384942            0   -3.6218861  -0.47040191 
   16700   0.73352742   -4.7202968            0   -3.6212791  -0.38542494 
   16800   0.73521023    -4.723156            0   -3.6216171   -0.3426912 
   16900   0.71052684   -4.6866291            0   -3.6220724  -0.20844429 
   17000   0.73347912   -4.7203005            0   -3.6213552  -0.34875693 
   17100   0.73018454   -4.7168909            0   -3.6228818  -0.33951317 
   17200   0.69959173   -4.6708807            0   -3.6227077  -0.18101403 
   17300   0.73504575   -4.7230798            0   -3.6217873  -0.41683508 
   17400   0.72963328   -4.7154037            0   -3.6222205  -0.38333836 
   17500   0.73278157   -4.7208742            0    -3.622974  -0.36202909 
   17600   0.76009733   -4.7620479            0   -3.6232216  -0.54790822 
   17700    0.7568734   -4.7575747            0   -3.6235787  -0.57077559 
   17800   0.73120053   -4.7191644            0   -3.6236331   -0.4159098 
   17900   0.74063291   -4.7337287            0   -3.6240652  -0.46083123 
   18000   0.73588007   -4.7261185            0    -3.623576  -0.35201069 
   18100   0.73790518   -4.7297366            0   -3.6241599  -0.28712704 
   18200   0.73734831   -4.7281834            0    -3.623441   -0.3635682 
   18300   0.73728493   -4.7270113            0   -3.6223639  -0.40297313 
   18400   0.76269017   -4.7659246            0   -3.6232135  -0.52604206 
   18500   0.73310364   -4.7214458            0   -3.6230631  -0.37362163 
   18600   0.72639116   -4.7107635            0   -3.6224379  -0.37488792 
   18700   0.73974427   -4.7299962            0   -3.6216641  -0.42389715 
   18800   0.73922066   -4.7293644            0   -3.6218168  -0.39227805 
   18900   0.73223847   -4.7201113            0   -3.6230249  -0.32675256 
   19000   0.73651797   -4.7261823            0    -3.622684  -0.35125337 
   19100   0.72664674   -4.7112021            0   -3.6224936  -0.28130457 
   19200   0.73771528   -4.7290702            0    -3.623778  -0.36495592 
   19300   0.73707633   -4.7266263            0   -3.6222914  -0.32046989 
   19400   0.74119808   -4.7332132            0   -3.6227029  -0.37416309 
   19500   0.70767412    -4.683665            0   -3.6233824  -0.19425195 
   19600   0.74178673    -4.735062            0   -3.6236697  -0.37094933 
   19700   0.74632768    -4.742319            0   -3.6241232  -0.42827042 
   19800   0.73219875   -4.7206042            0   -3.6235772   -0.3443168 
   19900   0.74443834   -4.7389597            0   -3.6235946  -0.32589439 
   20000   0.72703088   -4.7125785            0   -3.6232944  -0.22912985 
   20100   0.73906787   -4.7312522            0   -3.6239335  -0.30648028 
   20200   0.73925353   -4.7312304            0   -3.6236336  -0.34360708 
   20300   0.73865702   -4.7300342            0    -3.623331  -0.35228838 
   20400   0.71542176   -4.6951416            0    -3.623251   -0.2495429 
   20500   0.75921019    -4.761148            0   -3.6236508  -0.51569286 
   20600   0.74143007   -4.7337372            0   -3.6228793  -0.37341016 
   20700   0.74224202   -4.7345174            0    -3.622443  -0.38157473 
   20800    0.7252959   -4.7090321            0   -3.6223474  -0.34390475 
   20900   0.73410589   -4.7237213            0   -3.6238369  -0.41071412 
   21000    0.7370882   -4.7272074            0   -3.6228548   -0.4950641 
Loop time of 2.92845 on 4 procs for 20000 steps with 864 atoms

Performance: 590072.925 tau/day, 6829.548 timesteps/s
99.7% CPU use with 4 MPI tasks x no OpenMP threads

MPI task timing breakdown:
Section |  min time  |  avg time  |  max time  |%varavg| %total
---------------------------------------------------------------
Pair    | 1.9229     | 1.9783     | 2.0407     |   3.8 | 67.56
Neigh   | 0.31394    | 0.31843    | 0.3247     |   0.7 | 10.87
Comm    | 0.48495    | 0.55335    | 0.60981    |   7.5 | 18.90
Output  | 0.0021059  | 0.0024211  | 0.0033115  |   1.0 |  0.08
Modify  | 0.049377   | 0.049984   | 0.05057    |   0.3 |  1.71
Other   |            | 0.02595    |            |       |  0.89

Nlocal:        216.000 ave         223 max         210 min
Histogram: 1 0 0 1 0 1 0 0 0 1
Nghost:        1173.75 ave        1192 max        1163 min
Histogram: 1 1 0 1 0 0 0 0 0 1
Neighs:        6788.00 ave        7070 max        6440 min
Histogram: 1 0 0 0 0 1 1 0 0 1

Total # of neighbors = 27152
Ave neighs/atom = 31.425926
Neighbor list builds = 1000
Dangerous builds not checked

compute 1 all msd
compute 2 all vacf

thermo_style custom c_1[4] c_2[4]
thermo 100

run 10000
Per MPI rank memory allocation (min/avg/max) = 3.376 | 3.376 | 3.376 Mbytes
c_1[4] c_2[4] 
           0    2.2087053 
 0.018996887   0.95715129 
 0.060389234   0.16045555 
  0.10746755    0.1294259 
  0.15407494  0.091001345 
  0.20505038  0.050843722 
  0.25425008  0.064953458 
  0.30197621  0.036770249 
  0.34852076 0.0080408928 
  0.39438614  0.016643693 
  0.43850529  0.048696008 
   0.4860666  0.087859459 
  0.53740361  0.055002784 
  0.59066328  0.018149016 
  0.63885167  0.015915359 
  0.68520238 0.00053273455 
  0.73265987 -0.070208317 
  0.77780676 -0.028309113 
  0.82146052 -0.0024254713 
  0.86730273  0.054722929 
  0.91269308 -0.0056274159 
  0.95814845  -0.06166483 
  0.99429411  0.013788917 
   1.0328858 0.0084813807 
   1.0701556 -0.037013429 
   1.1063136 -0.055027017 
    1.145422 -0.017926372 
   1.1745071  0.011782519 
   1.2085274  0.091944855 
   1.2502194  0.088403813 
   1.2891964  0.021275677 
   1.3267558  0.016334554 
   1.3634835 -0.011022395 
   1.3972474 -0.049893763 
   1.4356735 -0.0096764787 
   1.4820928 -0.051444965 
   1.5318269 -0.091304977 
   1.5834901 -0.020943707 
   1.6362781  0.023351614 
   1.6898901  0.059653011 
   1.7406347 0.0081425534 
   1.7855406  0.049790137 
   1.8358278  0.070899426 
   1.8900136 -0.023902525 
   1.9439969 -0.017583332 
   1.9874633 -0.068616362 
   2.0310039 -0.046141853 
   2.0842739 -0.0043043156 
    2.142048  0.026707934 
   2.1920676  0.038948653 
   2.2374341  0.018151464 
   2.2646593 -0.00059926213 
   2.2976987 -0.040547268 
   2.3394043 -0.040544817 
   2.3790265  0.030483302 
   2.4179258  0.050738095 
   2.4545987  -0.01577365 
   2.4879368 -0.059455461 
   2.5245633 -0.031829463 
   2.5589088  0.023978324 
     2.59088  0.027746525 
   2.6275943  0.088891249 
   2.6668391   0.07724679 
   2.7026928  0.029744001 
   2.7279193  -0.01798186 
   2.7651938 -0.017400727 
   2.8072193 -0.0099035233 
   2.8419729 -0.056364614 
   2.8864792  -0.01774008 
   2.9375903 -0.031341929 
   2.9968727  0.024417535 
   3.0591093 -0.019705193 
   3.1073565 -0.019109874 
   3.1533609 -0.047206687 
   3.2060409   -0.0574065 
   3.2508431  0.039649821 
    3.290003  0.049206081 
   3.3389418  0.084258758 
   3.3999638   0.04858654 
   3.4619395 0.0064439685 
   3.5088543 -0.018583805 
   3.5509558  0.043264764 
   3.5885648  0.052621253 
   3.6301961  0.055879629 
    3.678407  0.057600848 
   3.7171835  0.028072898 
   3.7579454  0.028516743 
   3.8138973 -0.039439981 
    3.872673 -0.061607449 
   3.9238347 -0.065328373 
   3.9686596 -0.051635089 
   4.0265368  0.038330428 
   4.0785058  0.032765132 
   4.1243816 -0.040232691 
   4.1727949 -0.00018988848 
   4.2201295 0.0044371139 
   4.2818212 -0.012651917 
   4.3521577  0.043584577 
   4.4299793  0.093674618 
   4.4924933  0.054627397 
   4.5506099  0.071235244 
Loop time of 1.44828 on 4 procs for 10000 steps with 864 atoms

Performance: 596571.605 tau/day, 6904.764 timesteps/s
99.7% CPU use with 4 MPI tasks x no OpenMP threads

MPI task timing breakdown:
Section |  min time  |  avg time  |  max time  |%varavg| %total
---------------------------------------------------------------
Pair    | 0.91888    | 0.98337    | 1.0243     |   3.9 | 67.90
Neigh   | 0.15571    | 0.15955    | 0.16122    |   0.6 | 11.02
Comm    | 0.22477    | 0.26639    | 0.33447    |   7.9 | 18.39
Output  | 0.00086132 | 0.0010307  | 0.0014884  |   0.8 |  0.07
Modify  | 0.024726   | 0.024973   | 0.025446   |   0.2 |  1.72
Other   |            | 0.01295    |            |       |  0.89

Nlocal:        216.000 ave         223 max         201 min
Histogram: 1 0 0 0 0 0 0 1 0 2
Nghost:        1144.75 ave        1165 max        1131 min
Histogram: 2 0 0 0 0 1 0 0 0 1
Neighs:        6797.00 ave        7509 max        5773 min
Histogram: 1 0 0 0 0 1 0 1 0 1

Total # of neighbors = 27188
Ave neighs/atom = 31.467593
Neighbor list builds = 500
Dangerous builds not checked
Total wall time: 0:00:04
