LAMMPS (29 Sep 2021 - Update 2)
#RDF

units		lj
boundary	p p p
atom_style	atomic

lattice		fcc ${rho}
lattice		fcc 0.5
Lattice spacing in x,y,z = 2.0000000 2.0000000 2.0000000
region		box block 0 6 0 6 0 6
create_box	1 box
Created orthogonal box = (0.0000000 0.0000000 0.0000000) to (12.000000 12.000000 12.000000)
  1 by 2 by 2 MPI processor grid
create_atoms	1 box
Created 864 atoms
  using lattice units in orthogonal box = (0.0000000 0.0000000 0.0000000) to (12.000000 12.000000 12.000000)
  create_atoms CPU = 0.002 seconds
mass		1 1.0

velocity	all create $T 87287 loop geom mom yes rot yes
velocity	all create 1 87287 loop geom mom yes rot yes
reset_timestep	0
timestep	0.001
pair_style	lj/cut 2.5
pair_coeff	1 1 1.0 1.0 2.5

neighbor	0.3 bin
neigh_modify	every 20 delay 0 check no
thermo		100

#Equilibration

fix		thermos all nvt temp $T $T 1.0
fix		thermos all nvt temp 1 $T 1.0
fix		thermos all nvt temp 1 1 1.0
run		20000
Neighbor list info ...
  update every 20 steps, delay 0 steps, check no
  max neighbors/atom: 2000, page size: 100000
  master list distance cutoff = 2.8
  ghost atom cutoff = 2.8
  binsize = 1.4, bins = 9 9 9
  1 neighbor lists, perpetual/occasional/extra = 1 0 0
  (1) pair lj/cut, perpetual
      attributes: half, newton on
      pair build: half/bin/atomonly/newton
      stencil: half/bin/3d
      bin: standard
Per MPI rank memory allocation (min/avg/max) = 2.592 | 2.592 | 2.592 Mbytes
Step Temp E_pair E_mol TotEng Press 
       0            1   -3.0307637            0   -1.5324998   -2.1523839 
     100    1.1136887   -3.1260875            0    -1.457488   -1.7474895 
     200   0.97766477   -2.9151738            0    -1.450374   0.12681574 
     300    1.0780354   -3.0676731            0   -1.4524916   0.19625753 
     400    1.1337358   -3.1574026            0   -1.4587671  0.090739997 
     500    1.1123586   -3.1362126            0   -1.4696058   0.25608659 
     600    1.1127983   -3.1515479            0   -1.4842824   0.22315549 
     700    1.1173631   -3.1775679            0   -1.5034631   0.12123859 
     800    1.0999488   -3.1704508            0   -1.5224372   0.11499771 
     900    1.0860782   -3.1681616            0   -1.5409298   0.11272432 
    1000    1.0474494   -3.1277958            0   -1.5584401   0.19782567 
    1100    1.0901446   -3.2062362            0   -1.5729119 -0.059640137 
    1200    1.0626006   -3.1776287            0   -1.5855726  0.097790787 
    1300    1.0720514   -3.2032482            0   -1.5970323  0.061529766 
    1400    1.0732479   -3.2159441            0   -1.6079355  0.063207014 
    1500    1.0669476   -3.2175258            0   -1.6189567  0.067885335 
    1600      1.06766   -3.2301897            0   -1.6305533  0.043090831 
    1700    1.0532647   -3.2219427            0   -1.6438742   0.11737475 
    1800    1.0468165   -3.2238358            0   -1.6554284   0.11042306 
    1900    1.0246227   -3.2023157            0   -1.6671604   0.15426893 
    2000    1.0327134   -3.2256535            0   -1.6783764  0.050336197 
    2100    1.0517929   -3.2672533            0     -1.69139  -0.07922927 
    2200    1.0387944   -3.2595551            0    -1.703167 -0.010428563 
    2300    1.0197838   -3.2426927            0   -1.7147874   0.10649432 
    2400    1.0250973   -3.2643121            0   -1.7284458  0.029316651 
    2500    1.0251964   -3.2762712            0   -1.7402565 -0.021895729 
    2600    1.0115381   -3.2682526            0   -1.7527016  0.025624943 
    2700    1.0198199   -3.2907425            0   -1.7627832   -0.0508823 
    2800    1.0104873   -3.2888504            0   -1.7748737 -0.017394513 
    2900    1.0043443   -3.2912063            0   -1.7864336  0.043725483 
    3000     1.027591   -3.3354875            0   -1.7958851 -0.090809701 
    3100   0.99534358   -3.2967392            0   -1.8054519  -0.06866719 
    3200   0.99556556    -3.306473            0   -1.8148531 -0.094618948 
    3300    0.9587898   -3.2594785            0   -1.8229584  0.091525854 
    3400   0.98291266   -3.3027297            0   -1.8300671 -0.0034545677 
    3500   0.98273909   -3.3097712            0   -1.8373687 -0.073333539 
    3600   0.97802843   -3.3074477            0    -1.842103   -0.1126717 
    3700    0.9509671   -3.2710803            0   -1.8462806  0.030246343 
    3800   0.95233393   -3.2759758            0   -1.8491283 0.0064309677 
    3900   0.97248071   -3.3091765            0   -1.8521438   -0.1048651 
    4000    0.9571014   -3.2884684            0   -1.8544779 -0.012613583 
    4100   0.98691301   -3.3344098            0   -1.8557537  -0.10563131 
    4200   0.95432759   -3.2851649            0   -1.8553303 0.0017026928 
    4300   0.98029524   -3.3227193            0   -1.8539783 -0.099783065 
    4400   0.96150369   -3.2919537            0   -1.8513675  0.010575665 
    4500   0.98519325   -3.3243712            0   -1.8482917 -0.0097476154 
    4600    0.9884051   -3.3251976            0   -1.8443059  0.056786772 
    4700   0.98886942   -3.3203229            0   -1.8387355  0.061412987 
    4800   0.99213239   -3.3222042            0    -1.835728  0.058880127 
    4900    1.0167719   -3.3533423            0   -1.8299496 -0.024293645 
    5000    1.0048574   -3.3303317            0   -1.8247901 -0.040755086 
    5100    0.9910806   -3.3030815            0   -1.8181812 -0.019631548 
    5200    1.0239794   -3.3469423            0    -1.812751  -0.10176859 
    5300   0.98862584   -3.2892162            0   -1.8079938   0.10668354 
    5400    1.0084873   -3.3137192            0    -1.802739  0.044442955 
    5500     1.014426    -3.317745            0   -1.7978672 -0.0043503199 
    5600    1.0079752   -3.3033229            0     -1.79311   0.04473659 
    5700    1.0001199    -3.287827            0   -1.7893835   0.10728029 
    5800     1.038238   -3.3404382            0   -1.7848837  -0.03167242 
    5900    1.0488776   -3.3523294            0    -1.780834 -0.026686278 
    6000    1.0421901   -3.3403622            0   -1.7788864 -0.0022383064 
    6100    1.0398254   -3.3365024            0   -1.7785697 -0.0044767825 
    6200    1.0180669   -3.3054787            0   -1.7801458  0.097465071 
    6300    1.0547623   -3.3627061            0   -1.7823939  -0.03828365 
    6400    1.0560477    -3.366616            0    -1.784378 -0.050159206 
    6500    1.0307369   -3.3342898            0    -1.789974  0.028872257 
    6600    1.0455913   -3.3637214            0   -1.7971497 -0.019268364 
    6700    1.0306199   -3.3508041            0   -1.8066636   0.09139984 
    6800    1.0129529   -3.3337521            0   -1.8160814   0.15745726 
    6900   0.99794941   -3.3207436            0    -1.825552    0.1807805 
    7000   0.99515255   -3.3280297            0   -1.8370286   0.14337626 
    7100    0.9973551     -3.34112            0   -1.8468189  0.070772398 
    7200   0.99048774   -3.3408263            0   -1.8568143  0.015317519 
    7300    0.9774418   -3.3304298            0   -1.8659641   0.01010815 
    7400   0.99121777    -3.357919            0   -1.8728132 -0.067105272 
    7500   0.94257677   -3.2914289            0   -1.8792002  0.084072418 
    7600   0.97772545   -3.3499372            0   -1.8850465  -0.06754475 
    7700   0.96280872   -3.3304339            0   -1.8878924   0.01355291 
    7800   0.93758764   -3.2966387            0    -1.891885   0.13959306 
    7900   0.97170963   -3.3495914            0    -1.893714 -0.033674806 
    8000   0.97383582   -3.3522573            0   -1.8931942 -0.036011016 
    8100   0.97476655   -3.3542858            0   -1.8938283 -0.0019652389 
    8200   0.98732779   -3.3731058            0   -1.8938282  0.018018843 
    8300   0.96599631   -3.3380252            0   -1.8907078  0.085333956 
    8400   0.93663728   -3.2903383            0   -1.8870085   0.14203525 
    8500    0.9773836   -3.3472708            0   -1.8828922 -0.057234376 
    8600   0.94900428   -3.3000823            0   -1.8782235  0.027552529 
    8700   0.99012062   -3.3583945            0   -1.8749326  -0.10955801 
    8800    0.9577681   -3.3036906            0   -1.8687012  0.050438514 
    8900   0.97119239   -3.3176492            0   -1.8625467 0.0078243326 
    9000   0.99546001   -3.3481024            0   -1.8566406 -0.038873399 
    9100   0.97943268   -3.3182556            0    -1.850807  0.062679505 
    9200   0.98939407   -3.3274624            0    -1.845089  0.055137193 
    9300   0.98802065    -3.319738            0   -1.8394223   0.15997113 
    9400    1.0112666   -3.3489685            0   -1.8338243  0.025643223 
    9500     1.006481   -3.3391865            0   -1.8312124  0.061994547 
    9600    1.0029429   -3.3304142            0   -1.8277412   0.12497153 
    9700    1.0231044   -3.3591437            0   -1.8262633  0.002159248 
    9800    1.0196891   -3.3514442            0   -1.8236808 -0.033716924 
    9900   0.99164207   -3.3081938            0   -1.8224523  0.069041468 
   10000   0.99540792   -3.3122679            0   -1.8208842  0.077281321 
   10100    1.0083198   -3.3302282            0    -1.819499  0.040714758 
   10200    1.0148566   -3.3403791            0   -1.8198561  0.029315347 
   10300   0.99646609    -3.313515            0   -1.8205459   0.11860517 
   10400    1.0251627   -3.3565794            0   -1.8206151 0.0082978883 
   10500    1.0085485   -3.3315726            0   -1.8205008   0.09587708 
   10600    1.0154402   -3.3424184            0   -1.8210211  0.090849772 
   10700    1.0083528   -3.3329709            0   -1.8221923   0.13912736 
   10800    1.0275489    -3.363833            0   -1.8242936  0.016308627 
   10900    1.0207495   -3.3568441            0    -1.827492 0.0075171625 
   11000     1.018553   -3.3556494            0   -1.8295883  0.041634894 
   11100    1.0274371   -3.3724982            0   -1.8331263  0.060739207 
   11200    1.0137488   -3.3550415            0   -1.8361783   0.12184528 
   11300    1.0278571   -3.3817528            0   -1.8417516  0.058285341 
   11400    1.0024948   -3.3482056            0   -1.8462039   0.12542826 
   11500    1.0091803   -3.3626786            0   -1.8506602  0.077432033 
   11600     1.010262    -3.365856            0   -1.8522169  0.051953245 
   11700    1.0063834   -3.3640706            0   -1.8562427  0.039061892 
   11800    1.0161329   -3.3824931            0   -1.8600579 0.0064955661 
   11900   0.99294341   -3.3506872            0   -1.8629959  0.070803516 
   12000   0.99861571      -3.3615            0   -1.8653102  0.059475795 
   12100    0.9907904   -3.3533962            0   -1.8689308  0.091063408 
   12200   0.99832467    -3.367583            0   -1.8718292  0.030899065 
   12300    1.0070961   -3.3832079            0   -1.8743123 0.0029896307 
   12400   0.96895801   -3.3279178            0    -1.876163   0.15918764 
   12500   0.98102433   -3.3480777            0   -1.8782444   0.01915626 
   12600   0.97639898    -3.341886            0   -1.8789827 -0.081112425 
   12700   0.99082122   -3.3637063            0   -1.8791947  -0.18452139 
   12800   0.96793464   -3.3297531            0   -1.8795316  -0.12394231 
   12900   0.95737682   -3.3122328            0   -1.8778297 -0.094430197 
   13000   0.97789455   -3.3404802            0   -1.8753362  -0.16530268 
   13100   0.96953622   -3.3254552            0   -1.8728341  -0.10207053 
   13200   0.98394583   -3.3431316            0   -1.8689211   -0.1003616 
   13300   0.97062624   -3.3197951            0   -1.8655409 -0.012961506 
   13400   0.97746026   -3.3250808            0   -1.8605874 -0.025190583 
   13500   0.99119853   -3.3410742            0   -1.8559972 -0.051740258 
   13600    1.0116157   -3.3664077            0   -1.8507405  -0.10037473 
   13700   0.98658589   -3.3246877            0   -1.8465217   0.10519647 
   13800    1.0245638   -3.3782672            0   -1.8432003 -0.0053262014 
   13900   0.98197931   -3.3115125            0   -1.8402483    0.2193934 
   14000   0.99083973   -3.3218246            0   -1.8372852   0.16905719 
   14100    1.0116474   -3.3514855            0   -1.8357707  0.021860573 
   14200    1.0208345   -3.3632042            0   -1.8337248 -0.0025363505 
   14300    1.0169459   -3.3552452            0   -1.8315919  0.030985322 
   14400    0.9883548    -3.310126            0   -1.8293097   0.11574681 
   14500   0.98802953   -3.3095911            0   -1.8292622  0.079290305 
   14600    1.0058718   -3.3351448            0   -1.8280834  0.019210107 
   14700   0.99162655   -3.3146149            0   -1.8288966  0.059037324 
   14800   0.99456781   -3.3172883            0   -1.8271633  0.026090709 
   14900    1.0090604   -3.3388296            0   -1.8269908 -0.095113855 
   15000   0.99258925   -3.3138007            0     -1.82664 -0.021795569 
   15100    1.0113225    -3.340467            0    -1.825239  -0.06637868 
   15200   0.98949239   -3.3078143            0   -1.8252936 -0.0083413664 
   15300   0.98871107   -3.3039176            0   -1.8225675 -0.034031888 
   15400   0.97841615   -3.2880338            0   -1.8221082  0.045949503 
   15500    0.9966177   -3.3137493            0    -1.820553 -0.0028458306 
   15600   0.98754604   -3.3004523            0   -1.8208477  0.036799336 
   15700    1.0036754   -3.3235857            0   -1.8198151 -0.054163642 
   15800   0.98168361   -3.2888266            0   -1.8180055  0.065149356 
   15900    1.0076455   -3.3258145            0   -1.8160956  0.016203387 
   16000    1.0104703   -3.3288742            0   -1.8149231   0.03777464 
   16100   0.98341125   -3.2869157            0   -1.8135062    0.1745124 
   16200    1.0039465   -3.3167938            0    -1.812617   0.10019619 
   16300    1.0183426   -3.3371861            0   -1.8114402 -0.010346527 
   16400    1.0071673    -3.319378            0   -1.8103757  0.049180257 
   16500   0.99736003   -3.3037358            0   -1.8094273  0.068918541 
   16600   0.98775828   -3.2885443            0   -1.8086218  0.094707267 
   16700   0.99556275   -3.2998668            0   -1.8082511  0.039842481 
   16800    1.0106045   -3.3223478            0   -1.8081955 -0.042206879 
   16900    1.0147586   -3.3295557            0   -1.8091795 -0.067706927 
   17000    1.0035186   -3.3129834            0   -1.8094477 0.0096351704 
   17100   0.99273462   -3.2964704            0    -1.809092  0.093694372 
   17200    1.0008682   -3.3079462            0   -1.8083814  0.065400595 
   17300   0.99890618   -3.3048056            0   -1.8081805  0.034490602 
   17400      1.00977   -3.3204888            0   -1.8075869 -0.019476742 
   17500   0.99958027   -3.3046517            0   -1.8070167  0.064650105 
   17600    1.0225364   -3.3393151            0   -1.8072858 -0.056744165 
   17700    1.0247245   -3.3441751            0   -1.8088674 -0.077224702 
   17800   0.98353472   -3.2850951            0   -1.8115006   0.13516794 
   17900    1.0167963   -3.3366663            0   -1.8132371 -0.033206024 
   18000   0.99697507   -3.3114175            0   -1.8176858  0.078823705 
   18100    1.0013197   -3.3211168            0   -1.8208757  0.045942719 
   18200    1.0073313   -3.3358696            0   -1.8266215 -0.041399411 
   18300   0.98497996   -3.3075796            0   -1.8318196  0.015700016 
   18400   0.99762915   -3.3320913            0   -1.8373796  -0.09497912 
   18500    0.9959066    -3.335505            0   -1.8433741 -0.095079525 
   18600   0.95211973   -3.2760234            0   -1.8494968   0.10387375 
   18700   0.99532481   -3.3454958            0   -1.8542366  -0.06002103 
   18800   0.96843893   -3.3125367            0   -1.8615596  0.086977868 
   18900   0.98643006   -3.3446559            0   -1.8667234 -0.020855445 
   19000   0.97948449   -3.3399053            0    -1.872379 -0.027618146 
   19100   0.99145625   -3.3622926            0   -1.8768295  -0.07457626 
   19200   0.97815241   -3.3481645            0   -1.8826341  -0.10285785 
   19300   0.97022873   -3.3402647            0    -1.886606  -0.15257367 
   19400   0.97491868   -3.3512227            0   -1.8905372  -0.15292739 
   19500   0.94814011   -3.3136019            0   -1.8930378 0.0010226439 
   19600   0.95844437   -3.3308766            0    -1.894874 -0.024457526 
   19700   0.96506233    -3.340892            0    -1.894974 -0.069329473 
   19800    0.9646273    -3.340245            0   -1.8949787  -0.11117538 
   19900   0.97371526   -3.3516683            0   -1.8927859   -0.1302972 
   20000   0.96376396   -3.3326572            0   -1.8886845 -0.063714981 
Loop time of 2.29745 on 4 procs for 20000 steps with 864 atoms

Performance: 752136.814 tau/day, 8705.287 timesteps/s
99.6% CPU use with 4 MPI tasks x no OpenMP threads

MPI task timing breakdown:
Section |  min time  |  avg time  |  max time  |%varavg| %total
---------------------------------------------------------------
Pair    | 1.3755     | 1.4309     | 1.5044     |   4.3 | 62.28
Neigh   | 0.25799    | 0.26507    | 0.27561    |   1.3 | 11.54
Comm    | 0.37992    | 0.46544    | 0.53002    |   8.6 | 20.26
Output  | 0.0018685  | 0.0022538  | 0.0033343  |   1.3 |  0.10
Modify  | 0.10937    | 0.11122    | 0.11305    |   0.5 |  4.84
Other   |            | 0.02257    |            |       |  0.98

Nlocal:        216.000 ave         239 max         203 min
Histogram: 2 0 0 0 1 0 0 0 0 1
Nghost:        977.000 ave         988 max         956 min
Histogram: 1 0 0 0 0 0 1 0 0 2
Neighs:        4956.75 ave        5700 max        4493 min
Histogram: 2 0 0 0 1 0 0 0 0 1

Total # of neighbors = 19827
Ave neighs/atom = 22.947917
Neighbor list builds = 1000
Dangerous builds not checked
unfix 	thermos

fix 	1 all nve

run 	20000
Per MPI rank memory allocation (min/avg/max) = 2.594 | 2.594 | 2.594 Mbytes
Step Temp E_pair E_mol TotEng Press 
   20000   0.96376396   -3.3326572            0   -1.8886845 -0.063714981 
   20100   0.97462993   -3.3486483            0   -1.8883954 -0.078520427 
   20200   0.95110777   -3.3135922            0   -1.8885818   0.01329534 
   20300   0.99153498   -3.3749833            0   -1.8894023  -0.12216354 
   20400   0.98894516   -3.3710803            0   -1.8893794 -0.047800993 
   20500   0.96541829   -3.3355083            0   -1.8890569  0.097381624 
   20600   0.97274015   -3.3469287            0   -1.8895072  0.062924806 
   20700   0.97093474   -3.3447384            0   -1.8900219  0.020274309 
   20800   0.95851273   -3.3263899            0   -1.8902849  0.018919566 
   20900   0.95381468   -3.3193492            0   -1.8902831 -0.026529486 
   21000   0.96861992   -3.3409846            0   -1.8897364  -0.07197627 
   21100   0.95833854    -3.327276            0   -1.8914319  0.060687247 
   21200   0.96690884   -3.3393057            0   -1.8906211  0.086984489 
   21300   0.97594007   -3.3521058            0   -1.8898901   0.06224404 
   21400   0.97491669   -3.3512885            0    -1.890606   0.02595892 
   21500   0.98707906    -3.369302            0   -1.8903971 -0.078381443 
   21600   0.95796662   -3.3252112            0   -1.8899244  0.017728965 
   21700   0.98600286    -3.366521            0   -1.8892285  -0.12270898 
   21800   0.95785968   -3.3247291            0   -1.8896025 0.0018975947 
   21900   0.96464408   -3.3352372            0   -1.8899458  0.012631534 
   22000   0.96396339   -3.3330592            0   -1.8887876 -0.0088973585 
   22100   0.97604124   -3.3515183            0    -1.889151 -0.033562417 
   22200   0.96362243   -3.3318733            0   -1.8881127  0.068473892 
   22300   0.95638992   -3.3221711            0   -1.8892466    0.0807863 
   22400   0.97832567   -3.3542815            0   -1.8884915 -0.092031312 
   22500    0.9703098   -3.3411894            0   -1.8874093 -0.058136573 
   22600   0.98696687   -3.3673968            0     -1.88866 -0.065546725 
   22700   0.96385255   -3.3333859            0   -1.8892804  0.034298019 
   22800   0.98156191     -3.35913            0   -1.8884912   -0.0702748 
   22900   0.95873905   -3.3244596            0   -1.8880155 -0.0048252803 
   23000   0.95895741    -3.324297            0   -1.8875257 -0.058474106 
   23100   0.97788774   -3.3538501            0   -1.8887162  -0.20236046 
   23200   0.96378194    -3.332334            0   -1.8883343  -0.16169681 
   23300   0.93653321   -3.2909192            0   -1.8877453 -0.00052122275 
   23400   0.96664769    -3.336611            0   -1.8883176 -0.077015408 
   23500   0.96369592   -3.3330197            0   -1.8891489 -0.069938131 
   23600   0.96016938   -3.3268822            0   -1.8882951  -0.02969604 
   23700   0.95387919   -3.3178748            0   -1.8887121  0.035199983 
   23800   0.96474851   -3.3352192            0   -1.8897713  -0.07783404 
   23900    0.9692983   -3.3405227            0   -1.8882581  -0.15264714 
   24000   0.96009314   -3.3266389            0    -1.888166  -0.10471225 
   24100    0.9416388   -3.2984041            0   -1.8875807 -0.030448181 
   24200   0.95010786   -3.3115848            0   -1.8880725 -0.063091794 
   24300   0.95794266    -3.323587            0   -1.8883361 -0.088235204 
   24400   0.94911235   -3.3103919            0   -1.8883712 -0.029200759 
   24500    0.9621883   -3.3299256            0   -1.8883136 -0.082246055 
   24600   0.95212644   -3.3148519            0   -1.8883153 -0.045039437 
   24700     0.942493   -3.3002293            0   -1.8881261  0.063868042 
   24800   0.96746251   -3.3373011            0   -1.8877869 0.0015002625 
   24900   0.96964293   -3.3422868            0   -1.8895058  0.050082774 
   25000   0.95451153   -3.3198194            0   -1.8897092    0.1633683 
   25100   0.96675069   -3.3393097            0    -1.890862   0.10902814 
   25200   0.97523173   -3.3526782            0   -1.8915237  0.019303261 
   25300   0.95725472   -3.3247743            0   -1.8905541  0.024155071 
   25400   0.97117173    -3.346532            0   -1.8914605 -0.025052483 
   25500   0.98756144   -3.3704121            0   -1.8907845 -0.053967473 
   25600   0.97476821   -3.3512274            0   -1.8907674  0.022165242 
   25700   0.99441972   -3.3812574            0   -1.8913542 -0.095661538 
   25800    0.9704865   -3.3451498            0   -1.8911049  0.015877593 
   25900   0.98579993   -3.3689817            0   -1.8919933 -0.025995847 
   26000   0.97090287   -3.3462049            0   -1.8915362  0.025139972 
   26100   0.97353445   -3.3498128            0   -1.8912013  0.007282212 
   26200   0.98887555   -3.3730664            0   -1.8914698 -0.00037310608 
   26300   0.97837603   -3.3573886            0   -1.8915231  0.062595076 
   26400    1.0017875   -3.3925645            0   -1.8916224 -0.014150528 
   26500   0.96888885   -3.3435715            0   -1.8919203  0.070126969 
   26600   0.97355172   -3.3489004            0    -1.890263 -0.031325629 
   26700   0.95840003   -3.3259435            0   -1.8900074 -0.0044988696 
   26800   0.96366299   -3.3343593            0   -1.8905378 -0.066941208 
   26900   0.96561216   -3.3362621            0   -1.8895203  -0.14341864 
   27000   0.96956311   -3.3424082            0   -1.8897468  -0.13990083 
   27100   0.94416286   -3.3034803            0   -1.8888752  0.020896332 
   27200   0.97591013   -3.3525198            0   -1.8903488 -0.079943713 
   27300   0.98330736   -3.3634567            0   -1.8902028 -0.088507903 
   27400   0.96722229   -3.3386551            0   -1.8895009  0.023594729 
   27500   0.99116135   -3.3750708            0   -1.8900495   0.02075901 
   27600   0.98051278   -3.3600215            0   -1.8909546   0.10242783 
   27700   0.99934762   -3.3886755            0    -1.891389 0.0024573822 
   27800   0.98779042   -3.3724558            0   -1.8924851   0.05411298 
   27900    1.0016651   -3.3937375            0   -1.8929789  0.051228166 
   28000    1.0059546   -3.4011465            0   -1.8939611  0.056176297 
   28100   0.99358154   -3.3825478            0   -1.8939005   0.10163479 
   28200    1.0107152   -3.4082247            0   -1.8939066  0.035725876 
   28300   0.96483614   -3.3392153            0   -1.8936361   0.20839736 
   28400    1.0001885   -3.3926531            0   -1.8941068   0.02682865 
   28500    1.0024751   -3.3961776            0   -1.8942054  0.015213453 
   28600   0.98771417   -3.3726117            0   -1.8927552    0.1242049 
   28700    1.0059215   -3.3991373            0   -1.8920015  0.039544242 
   28800    1.0045244   -3.3974971            0   -1.8924545  0.045147056 
   28900   0.99137474    -3.377281            0     -1.89194 0.0039173288 
   29000   0.99731257   -3.3873358            0   -1.8930984 -0.067517049 
   29100   0.98377416   -3.3658475            0   -1.8918942 0.0093680139 
   29200    1.0058715   -3.3988154            0   -1.8917545 -0.078793898 
   29300   0.97101614   -3.3450232            0   -1.8901848  0.062750074 
   29400   0.99343367   -3.3800126            0   -1.8915869 -0.026745579 
   29500    0.9794159     -3.35908            0   -1.8916565  0.011387343 
   29600   0.98557775   -3.3677099            0   -1.8910543  0.033783644 
   29700   0.97554673   -3.3527387            0   -1.8911123  0.079999989 
   29800   0.99191778    -3.378512            0   -1.8923574 -0.019040495 
   29900   0.97748324   -3.3551261            0   -1.8905982  0.019188594 
   30000   0.97685939    -3.353812            0   -1.8902189 -0.00010466187 
   30100   0.96976619   -3.3434845            0   -1.8905189  0.014831394 
   30200   0.95451479   -3.3207301            0   -1.8906151  0.083480455 
   30300   0.98525346   -3.3665421            0   -1.8903724 -0.043702782 
   30400   0.98130436    -3.360888            0   -1.8906351 -0.033481304 
   30500   0.98403812   -3.3657021            0   -1.8913533 -0.026023218 
   30600   0.97490917   -3.3523851            0   -1.8917139  0.036145029 
   30700   0.97485183   -3.3511838            0   -1.8905985  0.076386644 
   30800   0.97469442   -3.3517243            0   -1.8913749  0.039429983 
   30900    0.9883188   -3.3723084            0    -1.891546 -0.036070612 
   31000   0.97355037   -3.3505414            0    -1.891906 -0.015473218 
   31100   0.98543024   -3.3687732            0   -1.8923386 -0.071934307 
   31200   0.96266578   -3.3341003            0   -1.8917729  0.085486912 
   31300   0.97591482   -3.3529323            0   -1.8907544   0.05693278 
   31400   0.98093314    -3.360788            0   -1.8910913 0.00059459234 
   31500   0.97561346   -3.3527828            0   -1.8910564  0.022076246 
   31600   0.99996283   -3.3901914            0   -1.8919833 -0.077043991 
   31700   0.98698078   -3.3701582            0   -1.8914005 -0.015683003 
   31800   0.98673268   -3.3702517            0   -1.8918658 -0.030991907 
   31900   0.98065621   -3.3607953            0   -1.8915135 -0.0099748336 
   32000    0.9802552   -3.3596673            0   -1.8909863 2.5271669e-05 
   32100   0.95423057   -3.3209153            0   -1.8912261  0.087723065 
   32200   0.97621251   -3.3514492            0   -1.8888252 -0.023571884 
   32300   0.96517551   -3.3360675            0   -1.8899798  0.046343021 
   32400   0.96437235   -3.3355273            0    -1.890643  0.041145733 
   32500   0.98842519   -3.3711846            0   -1.8902628 -0.032942189 
   32600   0.98371051   -3.3634932            0   -1.8896353  0.018941685 
   32700   0.96373991   -3.3338582            0   -1.8899215    0.1285069 
   32800   0.98801674   -3.3696319            0   -1.8893221 -0.025970268 
   32900   0.97502179   -3.3507206            0   -1.8898806 -0.057852322 
   33000   0.93603628   -3.2918045            0   -1.8893751   0.11230514 
   33100   0.95303107   -3.3163774            0   -1.8884854 -0.065748556 
   33200   0.95656086   -3.3211206            0     -1.88794  -0.14719585 
   33300   0.94824218   -3.3089776            0   -1.8882605   -0.1020658 
   33400   0.94434587   -3.3029487            0   -1.8880694 -0.094203296 
   33500   0.94186978   -3.2996205            0    -1.888451 -0.088987805 
   33600    0.9563934   -3.3212293            0   -1.8882996  -0.14811085 
   33700   0.92030481   -3.2670235            0    -1.888164 -0.020593371 
   33800    0.9424159   -3.3009447            0    -1.888957 -0.091805659 
   33900   0.94352512   -3.3024369            0   -1.8887873 -0.032591839 
   34000   0.95791086   -3.3240163            0    -1.888813 -0.018371905 
   34100   0.94493525   -3.3056702            0   -1.8899078  0.050750532 
   34200   0.96369426    -3.335209            0   -1.8913407 -0.060568816 
   34300   0.95545413   -3.3230107            0   -1.8914882 -0.013934697 
   34400   0.95871416   -3.3278241            0   -1.8914173  0.018920019 
   34500   0.97117065   -3.3465999            0     -1.89153  0.020012661 
   34600   0.96937208   -3.3454174            0   -1.8930422    0.0314947 
   34700   0.98834468   -3.3735773            0   -1.8927762 -0.015130215 
   34800   0.99975852   -3.3918875            0   -1.8939854 -0.0030992232 
   34900    1.0044731   -3.3992919            0   -1.8943261  0.010683429 
   35000    1.0111063   -3.4083442            0   -1.8934401  0.038193567 
   35100   0.99668674   -3.3869271            0   -1.8936274   0.11508345 
   35200     1.014907   -3.4143631            0   -1.8937646  0.062314884 
   35300    1.0034511   -3.3977849            0   -1.8943504  0.026799844 
   35400   0.99620784   -3.3864216            0   -1.8938393 -0.014966207 
   35500    1.0070591   -3.4035152            0   -1.8946749 -0.057308244 
   35600    1.0060349   -3.4004838            0    -1.893178  -0.10897773 
   35700   0.99951743   -3.3912327            0   -1.8936918 -0.054572798 
   35800   0.99388456   -3.3826209            0   -1.8935196 -0.0015277095 
   35900   0.97773319   -3.3601945            0   -1.8952921  0.098890916 
   36000   0.99604102    -3.387896            0   -1.8955637  0.029827489 
   36100    1.0364864   -3.4473648            0   -1.8944347  -0.12537322 
   36200   0.98140925   -3.3640803            0   -1.8936703   0.12891304 
   36300   0.98744953     -3.37266            0      -1.8932  0.058224235 
   36400   0.98899556   -3.3754833            0   -1.8937069 -0.038077514 
   36500   0.97934183   -3.3612464            0   -1.8939339 -0.029914382 
   36600   0.98473655   -3.3693058            0   -1.8939106 -0.069715928 
   36700   0.97481296   -3.3531747            0   -1.8926476 -0.0095862837 
   36800   0.97515088   -3.3529112            0   -1.8918778  0.011953447 
   36900   0.96353534   -3.3353518            0   -1.8917216  0.023178839 
   37000   0.98075564   -3.3608726            0   -1.8914418 -0.039101715 
   37100    0.9744691   -3.3524579            0    -1.892446 -0.0096330153 
   37200   0.97550948   -3.3544353            0   -1.8928647 0.0029424909 
   37300    0.9663078   -3.3405703            0   -1.8927863  0.020993673 
   37400   0.96386941   -3.3370135            0   -1.8928828 0.0022877325 
   37500    1.0008429   -3.3928821            0   -1.8933553  -0.11864549 
   37600   0.98879959     -3.37563            0   -1.8941473 0.0033939474 
   37700   0.98226254   -3.3655908            0   -1.8939023  0.084582949 
   37800   0.99697333   -3.3882202            0    -1.894491 0.0023856534 
   37900    1.0008072   -3.3931364            0   -1.8936631  0.016840756 
   38000   0.98046615   -3.3631492            0   -1.8941522  0.093944847 
   38100   0.99443172   -3.3845669            0   -1.8946458 -0.048171292 
   38200    1.0062439   -3.4020942            0   -1.8944753  -0.10629744 
   38300   0.96835967   -3.3447829            0   -1.8939246   0.12021759 
   38400    1.0000765   -3.3926254            0   -1.8942469   0.04900965 
   38500    1.0011628    -3.393973            0    -1.893967 0.00030652132 
   38600   0.98464277    -3.369428            0   -1.8941733  0.033500202 
   38700   0.97683145    -3.357477            0   -1.8939257  0.069948421 
   38800   0.98711888   -3.3721761            0   -1.8932116  0.073452787 
   38900    1.0019211   -3.3947289            0   -1.8935866 0.0035662606 
   39000   0.99112985   -3.3790902            0   -1.8941162 0.0032815482 
   39100   0.98756568   -3.3733522            0   -1.8937182 -0.0087737345 
   39200   0.98963972     -3.37678            0   -1.8940385 -0.055324807 
   39300   0.99693106   -3.3868733            0   -1.8932075 -0.063170449 
   39400   0.97281499   -3.3511174            0   -1.8935838   0.12720823 
   39500   0.99073966   -3.3782672            0   -1.8938778  0.092595665 
   39600    1.0075801   -3.4035463            0   -1.8939255 -0.045771702 
   39700    1.0017062    -3.393989            0   -1.8931688 -0.046181198 
   39800   0.99250559    -3.380644            0   -1.8936088  0.011617683 
   39900   0.98322629   -3.3674184            0   -1.8942859   0.10366263 
   40000    1.0040222   -3.3975387            0   -1.8932485  0.010603915 
Loop time of 2.33589 on 4 procs for 20000 steps with 864 atoms

Performance: 739759.330 tau/day, 8562.029 timesteps/s
99.6% CPU use with 4 MPI tasks x no OpenMP threads

MPI task timing breakdown:
Section |  min time  |  avg time  |  max time  |%varavg| %total
---------------------------------------------------------------
Pair    | 1.288      | 1.4358     | 1.6058     |  10.2 | 61.46
Neigh   | 0.24788    | 0.2654     | 0.28753    |   2.9 | 11.36
Comm    | 0.36028    | 0.55947    | 0.73033    |  19.0 | 23.95
Output  | 0.0020589  | 0.0024105  | 0.0033633  |   1.1 |  0.10
Modify  | 0.045932   | 0.051235   | 0.058561   |   2.1 |  2.19
Other   |            | 0.02162    |            |       |  0.93

Nlocal:        216.000 ave         247 max         189 min
Histogram: 1 0 0 1 0 1 0 0 0 1
Nghost:        977.750 ave        1007 max         945 min
Histogram: 1 0 0 0 1 0 1 0 0 1
Neighs:        5008.25 ave        6213 max        3952 min
Histogram: 1 0 0 1 1 0 0 0 0 1

Total # of neighbors = 20033
Ave neighs/atom = 23.186343
Neighbor list builds = 1000
Dangerous builds not checked

compute 1 all msd
compute 2 all vacf

thermo_style custom c_1[4] c_2[4]
thermo 100

run 10000
Per MPI rank memory allocation (min/avg/max) = 3.344 | 3.344 | 3.344 Mbytes
c_1[4] c_2[4] 
           0    3.0085803 
 0.027546937    1.8783798 
 0.091753881   0.78684119 
   0.1752928   0.54170319 
  0.26932142   0.38482617 
  0.37147995   0.33920459 
  0.48264944   0.30222772 
  0.60008141   0.20037343 
  0.72080209   0.27096707 
  0.84893981    0.3019488 
   0.9862854   0.21876651 
   1.1188469  0.094058924 
   1.2423856  0.048034417 
   1.3672752  0.073874647 
    1.492953   0.12192003 
   1.6230105  0.092270116 
   1.7510224  0.088596012 
   1.8757921  0.019532334 
   1.9986061  0.064861274 
   2.1249718  0.034836099 
   2.2516083  -0.06715166 
   2.3872613 -0.019280329 
   2.5256482  0.085650073 
    2.666964   0.19599936 
   2.8081367  0.089611519 
   2.9536359 -0.0078565965 
   3.1117729 -0.047717951 
   3.2500053 -0.015002327 
   3.3799943 -0.019619098 
   3.5222098  0.052954262 
   3.6772746  0.092905571 
   3.8344088 -0.074524202 
   3.9733827  -0.13141079 
   4.0999829  -0.15847869 
    4.227141  -0.10554571 
   4.3722285 -0.088121964 
   4.5250051 -0.0013893658 
   4.6766958 -0.015966757 
   4.8268006  0.042327467 
   4.9719496   0.06137942 
   5.1044873 -0.056122244 
   5.2473712 -0.018320386 
    5.393542  0.061190319 
   5.5152068  0.026066437 
    5.636849  0.020990939 
   5.7786446 -0.0018182023 
   5.9149594  0.024000819 
   6.0498517 -0.0019386237 
   6.1802614  0.048974341 
   6.3117828  0.072805771 
   6.4437246  0.055277985 
   6.5671371 -0.0020831342 
   6.7018241  0.019247024 
   6.8625078  0.038116266 
   7.0154569 0.00017134844 
   7.1496249 -0.010265162 
   7.2954919  0.058017955 
   7.4467549   0.03446056 
   7.6059924  0.014497475 
   7.7716619  0.040521443 
   7.9061388  0.046602924 
   8.0387292 0.0058499894 
    8.185913  0.032130426 
   8.3299214  0.099883552 
   8.4693983  0.062055007 
   8.6211497  0.083869365 
   8.7631109  0.046823759 
   8.9119744   0.03638796 
   9.0446038 -0.030532811 
   9.1478363 -0.033725125 
   9.2708623  0.026806106 
   9.4007638 4.6672956e-05 
    9.545265 -0.050397798 
    9.703348 -0.042436509 
   9.8597938  0.017051571 
    10.00526  0.055636558 
   10.148677  0.094534524 
   10.285196   0.10641717 
   10.407854   0.12131273 
   10.527361  0.047285635 
    10.66292  0.042720577 
   10.823595  0.052393108 
   10.988163  0.021526993 
   11.109552  -0.05224429 
   11.230328  0.014278722 
   11.362784  0.095809102 
    11.48911  0.061561002 
   11.616853  0.058910064 
   11.739168 0.0035971279 
   11.882137  0.056179442 
   12.017463  0.085135942 
   12.132851   0.02603782 
   12.239328 -0.006668785 
   12.367123 -0.042309687 
   12.495185 -0.053947697 
   12.616799  -0.12319471 
   12.769829 -0.088854525 
   12.889308 -0.0014979032 
   12.986585 -0.0048180388 
   13.092913 -0.060244081 
   13.213131 -0.013637708 
Loop time of 1.1856 on 4 procs for 10000 steps with 864 atoms

Performance: 728743.326 tau/day, 8434.529 timesteps/s
99.6% CPU use with 4 MPI tasks x no OpenMP threads

MPI task timing breakdown:
Section |  min time  |  avg time  |  max time  |%varavg| %total
---------------------------------------------------------------
Pair    | 0.61725    | 0.71629    | 0.81072    |  10.0 | 60.42
Neigh   | 0.12115    | 0.13312    | 0.14546    |   3.0 | 11.23
Comm    | 0.18822    | 0.29852    | 0.41264    |  17.9 | 25.18
Output  | 0.00086834 | 0.0012145  | 0.0022164  |   1.7 |  0.10
Modify  | 0.022873   | 0.02556    | 0.029393   |   1.5 |  2.16
Other   |            | 0.0109     |            |       |  0.92

Nlocal:        216.000 ave         223 max         202 min
Histogram: 1 0 0 0 0 0 0 1 0 2
Nghost:        968.000 ave         972 max         959 min
Histogram: 1 0 0 0 0 0 0 1 0 2
Neighs:        5034.00 ave        5498 max        4573 min
Histogram: 1 0 0 1 0 0 1 0 0 1

Total # of neighbors = 20136
Ave neighs/atom = 23.305556
Neighbor list builds = 500
Dangerous builds not checked

compute 3 all msd
compute 4 all vacf

thermo_style custom c_3[4] c_4[4]
thermo 100

run 10000
Per MPI rank memory allocation (min/avg/max) = 4.094 | 4.094 | 4.094 Mbytes
c_3[4] c_4[4] 
           0     2.936394 
 0.027766003    1.9955343 
 0.095188819    1.0432514 
  0.18254723   0.65819604 
  0.27658606   0.48180086 
  0.38039669   0.36010975 
  0.48545042   0.27248522 
  0.59548997    0.2932921 
  0.71278754    0.1488637 
   0.8216687   0.11538212 
  0.93052184   0.11477957 
   1.0472014  0.076874009 
   1.1699918   0.11853063 
   1.3008317  0.091270676 
   1.4294916 0.0063564001 
   1.5599815   0.12825897 
   1.6923779 0.0035911482 
   1.8155242 0.0068345517 
   1.9459809  0.046139912 
   2.0805766   0.14155554 
   2.1968225  0.099736603 
   2.3131498   0.11122969 
   2.4402111 0.0082136227 
   2.5679004   0.12238244 
   2.6969446  0.038541217 
   2.8193658   0.09363794 
   2.9452512   0.13460401 
   3.0598301  0.047792587 
    3.180746  0.065831045 
   3.3268476    0.0808291 
   3.4725291  0.088870285 
   3.6249502   0.11277799 
   3.7722234   0.07949106 
   3.9127614  0.090725969 
   4.0557396 -0.0036730139 
   4.1993025 -0.044953889 
   4.3397229   0.05305439 
    4.484696  0.070175494 
   4.6314752   0.10995821 
   4.7749764   0.12832471 
   4.9176466  0.018365577 
   5.0544152  -0.15291147 
   5.1923479 -0.083005529 
   5.3443045 -0.077838674 
   5.5146203 -0.00075356054 
    5.676476  0.060651687 
   5.8223554  0.024763042 
   5.9557637  0.031532805 
   6.0915224  0.050193308 
   6.2306526 -0.0056998811 
   6.3677814  0.021548149 
   6.4826455  -0.01458016 
   6.6043647  0.070473242 
   6.7438749  0.022031798 
   6.8732178 -0.027220996 
   7.0050316  0.011598161 
    7.158246  0.053686466 
   7.3133726  0.061907428 
   7.4730221   0.13084432 
   7.6343152   0.13539259 
   7.7952938  0.055868362 
   7.9383037  0.050269938 
    8.091781  0.052061948 
   8.2431385  0.047910245 
   8.3773339 -0.013602985 
   8.5085498  0.045696586 
   8.6441124  0.067330711 
   8.7986902  0.049963004 
   8.9271673  0.028338112 
   9.0472901  0.021897869 
   9.1940982  0.011262289 
    9.363811  0.020104148 
   9.5195443 -0.040139888 
   9.6409338 -0.088251109 
   9.7572143 -0.062901923 
   9.8622721 -0.029315976 
   9.9585432  -0.10467467 
   10.050263 -0.027112456 
     10.1784 -0.0042116206 
   10.323653  0.081461565 
   10.444027  0.082826289 
   10.561675  0.061591728 
   10.699285  0.019084479 
   10.855716  0.017053523 
   11.004135   0.04569581 
   11.105564  0.028581393 
   11.183474   0.04283493 
   11.298021 -0.0018295345 
   11.422637 -0.055738261 
   11.549884  0.012533639 
   11.692636  0.050257469 
   11.832839 -0.046713707 
   11.950331 -0.079919397 
   12.069939 0.0016022119 
   12.197702  0.086478112 
   12.309485  0.091305132 
   12.422312  0.048798459 
    12.54184  -0.02709281 
   12.646361  0.010850909 
   12.739852 -0.0092301723 
   12.855916 -0.018125121 
Loop time of 1.20376 on 4 procs for 10000 steps with 864 atoms

Performance: 717749.208 tau/day, 8307.282 timesteps/s
99.6% CPU use with 4 MPI tasks x no OpenMP threads

MPI task timing breakdown:
Section |  min time  |  avg time  |  max time  |%varavg| %total
---------------------------------------------------------------
Pair    | 0.58744    | 0.71828    | 0.83548    |  10.6 | 59.67
Neigh   | 0.11729    | 0.13324    | 0.14604    |   2.9 | 11.07
Comm    | 0.18415    | 0.31472    | 0.46555    |  18.3 | 26.14
Output  | 0.0008977  | 0.0010738  | 0.001499   |   0.8 |  0.09
Modify  | 0.022034   | 0.025729   | 0.027528   |   1.4 |  2.14
Other   |            | 0.01072    |            |       |  0.89

Nlocal:        216.000 ave         241 max         195 min
Histogram: 1 1 0 0 0 0 0 1 0 1
Nghost:        993.250 ave        1018 max         973 min
Histogram: 1 1 0 0 0 0 1 0 0 1
Neighs:        5006.75 ave        6033 max        4184 min
Histogram: 2 0 0 0 0 0 1 0 0 1

Total # of neighbors = 20027
Ave neighs/atom = 23.179398
Neighbor list builds = 500
Dangerous builds not checked

compute 5 all msd
compute 6 all vacf

thermo_style custom c_5[4] c_6[4]
thermo 100

run 10000
Per MPI rank memory allocation (min/avg/max) = 4.844 | 4.844 | 4.844 Mbytes
c_5[4] c_6[4] 
           0    2.9598146 
 0.027440015    1.9045625 
 0.093551075   0.93310117 
  0.17409544   0.47357309 
  0.26448328    0.3229842 
  0.36910566   0.22365873 
  0.47787082   0.19117026 
  0.59132335   0.21519455 
  0.70497413  0.069176509 
   0.8141721 -0.0064844128 
  0.92629491 -0.004716554 
   1.0498746  0.029190473 
   1.1726464  0.029826647 
   1.2873114  0.029889952 
   1.4032983  0.056588582 
   1.5208899  0.055407641 
   1.6346118    0.0367584 
   1.7590421 -0.028208366 
    1.887963 -0.032036535 
   2.0109609 -0.035599785 
   2.1196604 -0.055620168 
   2.2313808 -0.062821666 
   2.3452016 -0.050233052 
   2.4711455 -0.0070322548 
   2.5997304 -0.020386525 
   2.7222033  0.028518035 
   2.8402015 -0.083760784 
   2.9580661  0.029821498 
   3.0721539  0.091995211 
   3.1835418  0.063361131 
   3.3050036  -0.01429609 
   3.4427676 -0.066959254 
   3.5711907 -0.070455771 
   3.6807109 -0.028312976 
   3.8081197  0.013231881 
   3.9463817  0.055990578 
   4.0823184  0.011114266 
   4.2243056 -0.024111316 
    4.353328  0.096022401 
   4.4691067  0.049754132 
   4.5939374 -0.0098968903 
   4.7287388  0.026201039 
   4.8621869  0.023830607 
    4.982813 -0.064273807 
   5.1057562 -0.061495416 
    5.226259  0.045042025 
   5.3518221  0.082094467 
   5.4953789 0.0017956906 
   5.6359402  -0.03428022 
   5.7662362 -0.016369844 
   5.9006106 0.0083283269 
   6.0316732 -0.045093581 
   6.1670061 0.00057278273 
   6.3110859   0.14565146 
   6.4565773   0.10047819 
   6.6017227 -0.0082921771 
    6.720132 -0.035458069 
   6.8287395  0.050206211 
   6.9549543 -0.035055806 
   7.0915334 -0.0066805052 
   7.2358235 -0.032454727 
   7.3812958 -0.021613656 
   7.5318152 -0.015149482 
   7.6922474 -0.050047006 
   7.8338585 -0.034019218 
   7.9874076 -0.056858309 
    8.139262 -0.045543084 
   8.2826918 -0.024092769 
   8.4210218  0.047093191 
   8.5598347  0.028583922 
   8.6985119  -0.10456326 
   8.8240652 -0.061519764 
   8.9445949 -0.039417431 
   9.0685187 -0.004567219 
   9.2109526  0.022776999 
   9.3598107 0.0030908108 
   9.4985588 -0.030455293 
   9.6474522 -0.029088341 
   9.7726633 -0.095564093 
   9.8992318 -0.090681752 
   10.039799 -0.061041105 
    10.19024 -0.031026491 
   10.335829 -0.089147817 
   10.475226 -0.083138954 
   10.632991 -0.066262992 
   10.765251 -0.079329481 
     10.8796 -0.032938144 
   11.017823 -0.062928689 
   11.146836 -0.041181052 
   11.265733 -0.025922902 
   11.400005  0.064605568 
   11.531563  0.074812347 
    11.63894 -0.0058381715 
   11.739557 -0.0032679065 
   11.865082 -0.070175472 
   12.002456 -0.078574321 
   12.150768 -0.042656925 
   12.297417 -0.031028349 
   12.444926  0.069567817 
   12.588165      0.12676 
   12.731169  0.059134707 
Loop time of 1.21199 on 4 procs for 10000 steps with 864 atoms

Performance: 712878.801 tau/day, 8250.912 timesteps/s
99.6% CPU use with 4 MPI tasks x no OpenMP threads

MPI task timing breakdown:
Section |  min time  |  avg time  |  max time  |%varavg| %total
---------------------------------------------------------------
Pair    | 0.55336    | 0.71291    | 0.84839    |  12.5 | 58.82
Neigh   | 0.11287    | 0.13265    | 0.14899    |   3.5 | 10.94
Comm    | 0.17571    | 0.32886    | 0.51257    |  21.1 | 27.13
Output  | 0.00088426 | 0.0010769  | 0.0015211  |   0.8 |  0.09
Modify  | 0.02158    | 0.025627   | 0.027569   |   1.5 |  2.11
Other   |            | 0.01086    |            |       |  0.90

Nlocal:        216.000 ave         245 max         174 min
Histogram: 1 0 0 0 0 0 1 1 0 1
Nghost:        972.500 ave        1009 max         947 min
Histogram: 1 0 1 0 1 0 0 0 0 1
Neighs:        5066.00 ave        6409 max        3769 min
Histogram: 1 0 0 0 1 1 0 0 0 1

Total # of neighbors = 20264
Ave neighs/atom = 23.453704
Neighbor list builds = 500
Dangerous builds not checked

compute 7 all msd
compute 8 all vacf

thermo_style custom c_7[4] c_8[4]
thermo 100

run 10000
Per MPI rank memory allocation (min/avg/max) = 5.594 | 5.594 | 5.594 Mbytes
c_7[4] c_8[4] 
           0    2.9752199 
 0.027417851     1.941123 
  0.09357556   0.98135629 
   0.1758543   0.54556484 
  0.26428845   0.40413126 
  0.35944347    0.3425921 
  0.46293502   0.32196449 
  0.57557849   0.25669966 
  0.69549777   0.22560184 
  0.81645371    0.1753043 
  0.94311982   0.17007525 
    1.067693   0.17557442 
   1.1883003   0.11207777 
     1.30776  0.043943669 
   1.4262592  0.098386478 
   1.5417135  0.022153393 
    1.656188 -0.062528318 
   1.7798057  0.012608688 
   1.9049138 -0.0056507655 
   2.0285985  0.096906207 
   2.1459105   0.07009925 
   2.2524967 0.0014637703 
   2.3624857    0.1322096 
   2.4835141  0.066737944 
    2.612207  0.074046051 
    2.737209  0.010109588 
   2.8631759  -0.05619489 
    3.002522 -0.026308138 
    3.144906  0.022499921 
   3.2748381  0.031225826 
   3.4065125  0.033063062 
   3.5398239  0.012288407 
   3.6691183   0.06381292 
   3.7968672  0.065440487 
   3.9340693  -0.03725972 
   4.0757057  0.089890298 
   4.2169066   0.12149954 
   4.3666948    0.0471992 
   4.5271263   0.04012795 
   4.6825648   0.03061171 
   4.8308085   0.03042291 
   4.9923733  0.055996712 
   5.1556267  0.065159698 
    5.320323  0.070774602 
    5.466926   0.10175339 
   5.6237644   0.15193397 
   5.7779016   0.14160387 
   5.9353462  0.089794315 
   6.0873381  0.055907977 
   6.2318857    0.1463374 
   6.3802329  0.098839711 
   6.5347959  0.057807164 
   6.6781981 0.0036251097 
   6.8019122  -0.04839316 
   6.9239968 -0.018355004 
   7.0471669 -0.010611517 
   7.1893413 -0.056392276 
   7.3257676 -0.098915664 
   7.4427721 -0.0082308405 
   7.5662609  0.048450193 
   7.7055335  0.011781213 
   7.8361102 -0.071335423 
   7.9792232 -0.066265779 
   8.1381353 0.0035076559 
   8.3055247  0.048296425 
   8.4643407 0.00026494703 
   8.6058858 0.00018845975 
    8.758361  0.067490057 
   8.9110978  0.092669811 
   9.0639689  0.071486047 
   9.2351141  0.085408388 
   9.4045102  0.027198169 
    9.564964  0.028443891 
   9.7088781  0.037740464 
   9.8486073  -0.05721895 
   10.022843  0.033580523 
   10.210965  0.031868024 
    10.38111  0.021152194 
   10.537838 -0.070322852 
   10.678378  -0.01373624 
    10.79906 -0.0059615126 
   10.920646  -0.01530891 
   11.047041 -0.025840954 
   11.193591 -0.019389493 
   11.340022 -0.039814625 
   11.490725  0.043596528 
   11.631611  0.046760065 
   11.764552  0.074424231 
   11.917662  0.084654328 
    12.08582  0.015391995 
   12.238145  0.048813599 
   12.413844  0.083762784 
   12.555924  0.052317423 
   12.696881 -0.043300311 
   12.831095 -0.013065975 
   12.970885 0.0017203642 
   13.096967 -0.029224369 
   13.194161 0.0044776833 
   13.325586  0.033561234 
   13.465183 -0.0082968185 
   13.612699  0.059392951 
Loop time of 1.22358 on 4 procs for 10000 steps with 864 atoms

Performance: 706125.734 tau/day, 8172.752 timesteps/s
99.7% CPU use with 4 MPI tasks x no OpenMP threads

MPI task timing breakdown:
Section |  min time  |  avg time  |  max time  |%varavg| %total
---------------------------------------------------------------
Pair    | 0.62359    | 0.718      | 0.86415    |  11.7 | 58.68
Neigh   | 0.12081    | 0.13329    | 0.14954    |   3.2 | 10.89
Comm    | 0.17119    | 0.33471    | 0.44512    |  19.4 | 27.36
Output  | 0.00087009 | 0.0012339  | 0.0022897  |   1.7 |  0.10
Modify  | 0.022451   | 0.025539   | 0.028429   |   1.4 |  2.09
Other   |            | 0.0108     |            |       |  0.88

Nlocal:        216.000 ave         231 max         201 min
Histogram: 1 0 1 0 0 0 0 0 1 1
Nghost:        980.500 ave         990 max         965 min
Histogram: 1 0 0 0 0 1 0 0 0 2
Neighs:        5060.00 ave        5837 max        4260 min
Histogram: 1 0 0 1 0 0 0 1 0 1

Total # of neighbors = 20240
Ave neighs/atom = 23.425926
Neighbor list builds = 500
Dangerous builds not checked

compute 9 all msd
compute 10 all vacf

thermo_style custom c_9[4] c_10[4]
thermo 100

run 10000
Per MPI rank memory allocation (min/avg/max) = 6.344 | 6.344 | 6.344 Mbytes
c_9[4] c_10[4] 
           0    3.0473656 
 0.027519918    1.7748099 
 0.089441154   0.68727937 
  0.16804488   0.40600177 
  0.25827691   0.33496641 
  0.35617472   0.18725669 
  0.45643014   0.13280773 
  0.55926126   0.10042203 
  0.66499599  0.053294654 
  0.77931889  0.057614855 
  0.88933271  0.041819974 
  0.99877909 0.0061678235 
   1.1178681 -0.081247137 
   1.2376648 0.0043765318 
   1.3562653   0.04763042 
   1.4716982 -0.039119985 
   1.5929767 -0.010689335 
   1.7240983  0.078940809 
   1.8573031 -0.060458393 
   1.9957006 -0.070183659 
   2.1375915 -0.024654898 
   2.2744792 -0.047496519 
   2.3987445 -0.051920428 
   2.5210389 -0.022807581 
   2.6426336  0.038598665 
   2.7712729  0.017885512 
   2.8973633 -0.081109726 
   3.0237842 -0.018775982 
   3.1570802 -0.0053792782 
   3.2998649 -0.010262616 
   3.4416834 -0.005883662 
   3.5765436  -0.08828467 
   3.7226271 -0.0028288411 
   3.8719391  0.012989401 
   4.0244059 -0.015767317 
   4.1790926     0.017723 
   4.3493043   0.03503169 
    4.536879   0.03979721 
   4.7165697 -0.016249757 
   4.8874962  0.061912317 
   5.0446842  0.012600233 
   5.1840214 -0.008681972 
   5.3190251 -0.015413162 
   5.4478396 -0.033693834 
   5.5862531  0.044348476 
   5.7500311  0.030855215 
   5.8985139 -0.0013383885 
   6.0503924 -0.024050633 
   6.1968006 -0.0051728377 
   6.3452307 -0.032097894 
   6.4750635  0.014244299 
   6.5915901  0.042864419 
   6.7026271  0.041117973 
   6.8120851 -0.057750871 
   6.9114283 -0.0057880402 
   7.0082922  0.049015997 
     7.10389  0.048843637 
   7.1783029  0.071456768 
   7.2694015  0.023131483 
   7.3714554  0.038035035 
   7.4756232   0.07068503 
   7.5965763  0.011497265 
   7.7281565  0.060965085 
    7.867381  0.035338509 
   8.0002583  0.052521965 
   8.1255533 -0.021345582 
   8.2514639 -0.019239425 
   8.3803369 -0.068691414 
   8.5147422 -0.070728511 
   8.6399025 -0.069426952 
   8.7623374 -0.020741145 
   8.8891907  0.057925641 
   9.0028608  0.012874255 
    9.102067  0.019484319 
   9.1953824 -0.021327586 
   9.3199517 -0.059902362 
   9.4430249 -0.018201723 
    9.554703   0.05822441 
   9.7005995  0.010843899 
   9.8448595  0.013723626 
   9.9563929 -0.028923508 
   10.073069  0.036909731 
   10.208398   0.02608783 
   10.370172  0.013098543 
   10.536756  0.005839356 
   10.668733  -0.04900621 
   10.805996  -0.12754363 
   10.953833 -0.051456915 
   11.098998 0.0056459344 
   11.253411  0.012699585 
    11.39703   0.06398257 
   11.523543   0.06709957 
    11.64939 -0.069587025 
   11.774679 -0.033219646 
   11.885049 -0.047884475 
   11.989802  0.039784293 
   12.089498  0.063488391 
   12.183731  0.042330503 
    12.27216 -0.047938473 
   12.354801 -0.0040758138 
    12.45453 -0.018358034 
Loop time of 1.19694 on 4 procs for 10000 steps with 864 atoms

Performance: 721841.397 tau/day, 8354.646 timesteps/s
99.6% CPU use with 4 MPI tasks x no OpenMP threads

MPI task timing breakdown:
Section |  min time  |  avg time  |  max time  |%varavg| %total
---------------------------------------------------------------
Pair    | 0.59834    | 0.71472    | 0.83599    |  10.5 | 59.71
Neigh   | 0.11846    | 0.13298    | 0.1463     |   2.9 | 11.11
Comm    | 0.1765     | 0.31164    | 0.44344    |  17.9 | 26.04
Output  | 0.0008603  | 0.0015503  | 0.0035788  |   3.0 |  0.13
Modify  | 0.022591   | 0.025315   | 0.028427   |   1.4 |  2.11
Other   |            | 0.01073    |            |       |  0.90

Nlocal:        216.000 ave         236 max         194 min
Histogram: 1 0 0 0 1 0 1 0 0 1
Nghost:        956.750 ave         978 max         937 min
Histogram: 1 0 0 1 0 0 1 0 0 1
Neighs:        5011.25 ave        5912 max        4153 min
Histogram: 1 0 1 0 0 0 0 1 0 1

Total # of neighbors = 20045
Ave neighs/atom = 23.200231
Neighbor list builds = 500
Dangerous builds not checked

Total wall time: 0:00:10
